/*--------------------------------*- C++ -*----------------------------------*\
  =========                 |
  \\      /  F ield         | OpenFOAM: The Open Source CFD Toolbox
   \\    /   O peration     | Website:  https://openfoam.org
    \\  /    A nd           | Version:  6
     \\/     M anipulation  |
\*---------------------------------------------------------------------------*/
FoamFile
{
    version     2.0;
    format      ascii;
    class       volScalarField;
    location    "3";
    object      omega;
}
// * * * * * * * * * * * * * * * * * * * * * * * * * * * * * * * * * * * * * //

dimensions      [0 0 -1 0 0 0 0];

internalField   nonuniform List<scalar> 
380496
(
843.917
843.917
843.917
843.917
843.917
843.917
843.917
843.917
843.917
843.917
843.917
843.917
843.917
843.917
843.917
843.917
843.917
843.917
843.917
843.917
843.917
843.917
843.917
843.917
843.917
843.917
843.917
843.917
843.917
843.917
843.917
843.917
843.917
843.917
843.917
843.917
843.917
843.917
843.917
843.917
843.917
843.917
843.917
843.917
843.917
843.917
843.917
843.917
843.917
843.917
843.917
843.917
843.917
843.917
843.917
843.917
843.917
843.917
843.917
843.917
843.917
843.917
843.917
843.917
843.917
843.917
843.917
843.917
843.917
843.917
843.917
843.917
843.917
843.917
843.917
843.917
843.917
843.917
843.917
843.917
843.917
843.917
843.917
843.917
843.917
843.917
843.917
843.917
843.917
843.917
843.917
843.917
843.917
843.917
843.917
843.917
843.917
843.917
843.917
843.917
843.917
843.917
843.917
843.917
843.917
843.917
843.917
843.917
843.917
843.917
843.917
843.917
843.917
843.917
843.917
843.917
843.917
843.917
843.917
843.917
843.917
843.917
843.917
843.917
843.917
843.917
843.917
843.917
843.917
843.917
843.917
843.917
843.917
843.917
843.917
843.917
843.917
843.917
843.917
843.917
843.917
843.917
843.917
843.917
843.917
843.917
843.917
843.917
843.917
843.917
843.917
843.917
843.917
843.917
843.917
843.917
843.917
843.917
843.917
843.917
843.917
843.917
843.917
843.917
843.917
843.917
843.917
843.917
843.917
843.917
843.917
843.917
843.917
843.917
843.917
843.917
843.917
843.917
843.917
843.917
843.917
843.917
843.917
843.917
843.917
843.917
843.917
843.917
843.917
843.917
843.917
843.917
843.917
843.917
843.917
843.917
843.917
843.917
843.917
843.917
843.917
843.917
843.917
843.917
843.917
843.917
843.917
843.917
843.917
843.917
843.917
843.917
843.917
843.917
843.917
843.917
843.917
843.917
843.917
843.917
843.917
843.917
843.917
843.917
843.917
843.917
843.917
843.917
843.917
843.917
843.917
843.917
843.917
843.917
843.917
843.917
843.917
843.917
843.917
843.917
843.917
843.917
843.917
843.917
843.917
843.917
843.917
843.917
843.917
843.917
843.917
843.917
843.917
843.917
843.917
843.917
843.917
843.917
843.917
843.917
843.917
843.917
843.917
843.917
843.917
843.917
843.917
843.917
843.917
843.917
843.917
843.917
843.917
843.917
843.917
843.917
843.917
843.917
843.917
843.917
843.917
843.917
843.917
843.917
843.917
843.917
843.917
843.917
843.917
843.917
843.917
843.917
843.917
843.917
843.917
843.917
843.917
843.917
843.917
843.917
843.917
843.917
843.917
843.917
843.917
843.917
843.917
843.917
843.917
843.917
843.917
843.917
843.917
843.917
843.917
843.917
843.917
843.917
843.917
843.917
843.917
843.917
843.917
843.917
843.917
843.917
843.917
843.917
843.917
843.917
843.917
843.917
843.917
843.917
843.917
843.917
843.917
843.917
843.917
843.917
843.917
843.917
843.917
843.917
843.917
843.917
843.917
843.917
843.917
843.917
843.917
843.917
843.917
843.917
843.917
843.917
843.917
843.917
843.917
843.917
843.917
843.917
843.917
843.917
843.917
843.917
843.917
843.917
843.917
843.917
843.917
843.917
843.917
843.917
843.917
843.917
843.917
843.917
843.917
843.917
843.917
843.917
843.917
843.917
843.917
843.917
843.917
843.917
843.917
843.917
843.917
843.917
843.917
843.917
843.917
843.917
843.917
843.917
843.917
843.917
843.917
843.917
843.917
843.917
843.917
843.917
843.917
843.917
843.917
843.917
843.917
843.917
843.917
843.917
843.917
843.917
843.917
843.917
843.917
843.917
843.917
843.917
843.917
843.917
843.917
843.917
843.917
843.917
843.917
843.917
843.917
843.917
843.917
843.917
843.917
843.917
843.917
843.917
843.917
843.917
843.917
843.917
843.917
843.917
843.917
843.917
843.917
843.917
843.917
843.917
843.917
843.917
843.917
843.917
843.917
843.917
843.917
843.917
843.917
843.917
843.917
843.917
843.917
843.917
843.917
843.917
843.917
843.917
843.917
843.917
843.917
843.917
843.917
843.917
843.917
843.917
843.917
843.917
843.917
843.917
843.917
843.917
843.917
843.917
843.917
843.917
843.917
843.917
843.917
843.917
843.917
843.917
843.917
843.917
843.917
843.917
843.917
843.917
843.917
843.917
843.917
843.917
843.917
843.917
843.917
843.917
843.917
843.917
843.917
843.917
843.917
843.917
843.917
843.917
843.917
843.917
843.917
843.917
843.917
843.917
843.917
843.917
843.917
843.917
843.917
843.917
843.917
843.917
843.917
843.917
843.917
843.917
843.917
843.917
843.917
843.917
843.917
843.917
843.917
843.917
843.917
843.917
843.917
843.917
843.917
843.917
843.917
843.917
843.917
843.917
843.917
843.917
843.917
843.917
843.917
843.917
843.917
843.917
843.917
843.917
843.917
843.917
843.917
843.917
843.917
843.917
843.917
843.917
843.917
843.917
843.917
843.917
843.917
843.917
843.917
843.917
843.917
843.917
843.917
843.917
843.917
843.917
843.917
843.917
843.917
843.917
843.917
843.917
843.917
843.917
843.917
843.917
843.917
843.917
843.917
843.917
843.917
843.917
843.917
843.917
843.917
843.917
843.917
843.917
843.917
843.917
843.917
843.917
843.917
843.917
843.917
843.917
843.917
843.917
843.917
843.917
843.917
843.917
843.917
843.917
843.917
843.917
843.917
843.917
843.917
843.917
843.917
843.917
843.917
843.917
843.917
843.917
843.917
843.917
843.917
843.917
843.917
843.917
843.917
843.917
843.917
843.917
843.917
843.917
843.917
843.917
843.917
843.917
843.917
843.917
843.917
843.917
843.917
843.917
843.917
843.917
843.917
843.917
843.917
843.917
843.917
843.917
843.917
843.917
843.917
843.917
843.917
843.917
843.917
843.917
843.917
843.917
843.917
843.917
843.917
843.917
843.917
843.917
843.917
843.917
843.917
843.917
843.917
843.917
843.917
843.917
843.917
843.917
843.917
843.917
843.917
843.917
843.917
843.917
843.917
843.917
843.917
843.917
843.917
843.917
423.923
423.923
423.923
423.923
423.923
423.923
423.923
423.923
423.923
423.923
423.923
423.923
423.923
423.923
423.923
423.923
423.923
423.923
423.923
423.923
423.923
423.923
423.923
423.923
423.923
423.923
423.923
423.923
423.923
423.923
423.923
423.923
423.923
423.923
423.923
281.628
267.588
268.72
269.804
269.889
269.722
269.593
269.515
269.47
269.445
269.436
269.44
269.456
269.476
269.5
269.519
269.536
269.546
269.55
269.552
269.547
269.55
269.549
269.566
269.577
269.614
269.64
269.694
269.73
269.797
269.836
269.913
269.945
270.037
270.034
281.467
267.571
268.644
269.674
269.735
269.559
269.425
269.346
269.3
269.276
269.264
269.269
269.276
269.302
269.318
269.355
269.371
269.406
269.414
269.441
269.442
269.469
269.473
269.512
269.527
269.584
269.611
269.685
269.72
269.806
269.839
269.937
269.946
270.078
269.973
281.134
267.395
268.468
269.462
269.495
269.305
269.162
269.076
269.024
268.997
268.987
268.998
269.014
269.047
269.066
269.103
269.114
269.144
269.147
269.173
269.176
269.211
269.227
269.285
269.321
269.403
269.456
269.559
269.623
269.741
269.805
269.94
269.981
270.157
270.093
280.567
267.016
268.169
269.134
269.13
268.923
268.775
268.688
268.637
268.612
268.605
268.617
268.638
268.673
268.703
268.746
268.774
268.814
268.838
268.877
268.901
268.953
268.99
269.065
269.122
269.223
269.296
269.419
269.501
269.638
269.72
269.869
269.929
270.112
270.072
280.149
266.779
267.819
268.712
268.683
268.466
268.311
268.221
268.174
268.158
268.164
268.19
268.227
268.277
268.326
268.387
268.439
268.504
268.554
268.622
268.674
268.754
268.816
268.916
268.994
269.116
269.209
269.35
269.449
269.605
269.7
269.871
269.938
270.159
270.104
279.342
266.187
267.262
268.106
268.041
267.808
267.646
267.553
267.5
267.478
267.478
267.501
267.533
267.583
267.627
267.692
267.743
267.816
267.873
267.958
268.025
268.131
268.216
268.348
268.455
268.613
268.734
268.912
269.04
269.232
269.354
269.563
269.65
269.919
269.855
278.5
265.568
266.576
267.347
267.247
267
266.833
266.738
266.692
266.682
266.701
266.746
266.803
266.876
266.942
267.027
267.093
267.183
267.255
267.356
267.441
267.567
267.675
267.83
267.959
268.142
268.285
268.487
268.635
268.851
268.991
269.228
269.329
269.639
269.573
277.445
264.748
265.689
266.379
266.244
265.984
265.809
265.707
265.649
265.626
265.629
265.66
265.703
265.763
265.821
265.896
265.96
266.048
266.126
266.239
266.343
266.492
266.627
266.815
266.976
267.193
267.368
267.603
267.78
268.028
268.195
268.463
268.589
268.93
268.876
276.192
263.728
264.606
265.213
265.038
264.766
264.59
264.494
264.449
264.447
264.479
264.539
264.614
264.701
264.786
264.882
264.971
265.08
265.184
265.321
265.452
265.627
265.789
266
266.185
266.423
266.618
266.87
267.064
267.328
267.511
267.795
267.935
268.303
268.252
274.957
262.698
263.423
263.936
263.733
263.452
263.268
263.157
263.094
263.068
263.075
263.109
263.158
263.223
263.29
263.377
263.463
263.581
263.702
263.864
264.025
264.233
264.43
264.674
264.891
265.157
265.379
265.657
265.874
266.161
266.365
266.671
266.829
267.219
267.177
273.28
261.25
261.922
262.352
262.113
261.825
261.647
261.547
261.501
261.5
261.535
261.598
261.674
261.764
261.858
261.972
262.093
262.246
262.408
262.608
262.808
263.049
263.274
263.542
263.779
264.061
264.296
264.586
264.813
265.111
265.324
265.643
265.811
266.222
266.18
271.662
259.839
260.274
260.595
260.331
260.038
259.847
259.725
259.649
259.613
259.61
259.632
259.671
259.729
259.806
259.917
260.053
260.236
260.436
260.68
260.924
261.207
261.47
261.769
262.034
262.339
262.596
262.903
263.149
263.463
263.694
264.028
264.212
264.636
264.604
269.374
257.789
258.143
258.382
258.092
257.803
257.624
257.516
257.46
257.448
257.472
257.521
257.59
257.686
257.813
257.986
258.194
258.451
258.724
259.028
259.324
259.641
259.932
260.247
260.524
260.834
261.097
261.407
261.659
261.978
262.215
262.557
262.749
263.186
263.156
267.102
255.713
255.773
255.903
255.599
255.309
255.115
254.977
254.881
254.822
254.792
254.787
254.814
254.89
255.03
255.245
255.521
255.855
256.205
256.578
256.931
257.291
257.615
257.952
258.247
258.57
258.847
259.168
259.434
259.764
260.016
260.368
260.573
261.017
260.994
264.03
252.871
252.759
252.813
252.502
252.231
252.054
251.925
251.839
251.791
251.775
251.798
251.878
252.042
252.307
252.669
253.099
253.568
254.026
254.473
254.873
255.252
255.583
255.914
256.203
256.518
256.792
257.111
257.38
257.712
257.969
258.326
258.537
258.988
258.964
260.544
249.576
249.183
249.175
248.883
248.63
248.442
248.278
248.133
248.006
247.908
247.875
247.954
248.183
248.572
249.084
249.663
250.256
250.804
251.309
251.74
252.132
252.469
252.8
253.095
253.415
253.702
254.032
254.315
254.657
254.926
255.289
255.508
255.964
255.938
256.366
245.567
244.801
244.724
244.468
244.263
244.09
243.904
243.71
243.538
243.44
243.482
243.714
244.157
244.781
245.516
246.278
247.004
247.623
248.16
248.573
248.94
249.243
249.554
249.834
250.159
250.446
250.795
251.081
251.444
251.714
252.1
252.321
252.803
252.766
249.965
239.579
238.829
238.907
238.787
238.66
238.486
238.204
237.822
237.414
237.134
237.086
237.327
237.86
238.601
239.45
240.287
241.066
241.688
242.221
242.599
242.964
243.262
243.6
243.919
244.28
244.611
244.989
245.306
245.682
245.975
246.363
246.609
247.091
247.088
240.757
231.459
230.68
231.21
231.559
231.713
231.483
230.829
229.969
229.24
228.972
229.236
229.877
230.694
231.524
232.263
232.84
233.282
233.572
233.87
234.094
234.413
234.669
235.02
235.335
235.702
236.04
236.412
236.728
237.098
237.399
237.78
238.058
238.515
238.637
214.414
212.899
214.494
217.006
218.537
218.985
218.552
217.873
217.697
218.226
219.238
220.51
221.832
223.007
223.888
224.459
224.808
225.081
225.277
225.489
225.638
225.926
226.149
226.529
226.843
227.235
227.61
227.988
228.355
228.723
229.073
229.424
229.77
230.06
230.647
9.10033
8.33076
8.72619
9.09527
9.39908
9.6067
9.64997
9.59069
9.49768
9.44636
9.46989
9.53781
9.60493
9.64941
9.67873
9.70414
9.7385
9.77782
9.82582
9.86733
9.91704
9.94973
9.99859
10.0228
10.0718
10.0913
10.1423
10.1571
10.215
10.2193
10.2921
10.2738
10.372
10.3036
10.4445
135.248
128.881
128.553
129.045
129.236
129.218
129.15
129.086
129.035
128.999
128.976
128.964
128.96
128.961
128.964
128.964
128.963
128.958
128.95
128.941
128.934
128.929
128.93
128.937
128.954
128.976
129.01
129.045
129.094
129.139
129.201
129.255
129.328
129.393
129.478
135.077
128.68
128.314
128.781
128.959
128.935
128.864
128.797
128.745
128.707
128.682
128.669
128.664
128.666
128.673
128.682
128.691
128.699
128.706
128.71
128.716
128.722
128.736
128.751
128.778
128.807
128.851
128.892
128.952
128.999
129.072
129.126
129.2
129.282
129.31
134.795
128.388
128.006
128.458
128.626
128.595
128.517
128.444
128.387
128.348
128.324
128.314
128.314
128.319
128.325
128.329
128.329
128.326
128.323
128.32
128.321
128.326
128.343
128.365
128.402
128.442
128.5
128.555
128.63
128.693
128.782
128.853
128.946
129.043
129.099
134.362
127.977
127.614
128.063
128.22
128.18
128.097
128.023
127.966
127.927
127.903
127.893
127.894
127.902
127.913
127.924
127.935
127.944
127.953
127.962
127.977
127.995
128.025
128.06
128.11
128.163
128.232
128.298
128.381
128.455
128.547
128.627
128.716
128.822
128.866
134.043
127.652
127.24
127.651
127.789
127.738
127.648
127.569
127.51
127.471
127.452
127.448
127.456
127.473
127.495
127.521
127.548
127.576
127.606
127.637
127.673
127.711
127.759
127.811
127.876
127.943
128.025
128.102
128.196
128.278
128.381
128.468
128.567
128.683
128.734
133.49
127.124
126.722
127.12
127.243
127.182
127.086
127.002
126.94
126.897
126.873
126.865
126.87
126.883
126.899
126.92
126.942
126.967
126.995
127.028
127.067
127.113
127.17
127.234
127.313
127.394
127.49
127.581
127.689
127.784
127.899
127.997
128.104
128.23
128.276
132.924
126.586
126.161
126.526
126.626
126.55
126.444
126.353
126.288
126.248
126.233
126.237
126.256
126.282
126.31
126.339
126.367
126.397
126.43
126.468
126.514
126.569
126.636
126.712
126.802
126.894
127
127.101
127.218
127.32
127.442
127.548
127.66
127.799
127.845
132.248
125.944
125.497
125.828
125.904
125.815
125.701
125.605
125.532
125.485
125.461
125.458
125.468
125.484
125.501
125.518
125.534
125.554
125.578
125.612
125.659
125.719
125.795
125.882
125.985
126.091
126.211
126.324
126.452
126.565
126.695
126.811
126.925
127.075
127.114
131.463
125.21
124.747
125.041
125.089
124.983
124.858
124.754
124.682
124.641
124.63
124.643
124.67
124.702
124.73
124.756
124.781
124.808
124.842
124.888
124.948
125.022
125.113
125.214
125.329
125.445
125.573
125.694
125.826
125.945
126.078
126.199
126.314
126.473
126.512
130.701
124.496
123.978
124.219
124.24
124.12
123.987
123.877
123.795
123.744
123.723
123.722
123.733
123.746
123.757
123.766
123.778
123.799
123.833
123.885
123.956
124.045
124.151
124.268
124.398
124.528
124.666
124.797
124.938
125.064
125.203
125.331
125.449
125.616
125.648
129.711
123.568
123.04
123.246
123.236
123.099
122.956
122.842
122.763
122.723
122.715
122.729
122.751
122.771
122.787
122.803
122.825
122.862
122.916
122.991
123.086
123.198
123.324
123.457
123.598
123.736
123.879
124.014
124.156
124.285
124.424
124.555
124.674
124.847
124.88
128.744
122.675
122.056
122.187
122.144
121.993
121.842
121.72
121.632
121.58
121.556
121.548
121.542
121.532
121.521
121.52
121.536
121.578
121.648
121.745
121.866
122.002
122.149
122.3
122.455
122.604
122.755
122.897
123.044
123.179
123.322
123.459
123.579
123.758
123.784
127.446
121.456
120.814
120.904
120.83
120.664
120.509
120.388
120.308
120.267
120.254
120.25
120.243
120.233
120.229
120.247
120.296
120.381
120.499
120.643
120.803
120.97
121.138
121.303
121.464
121.616
121.767
121.908
122.054
122.188
122.331
122.47
122.589
122.773
122.799
126.133
120.238
119.469
119.471
119.36
119.184
119.025
118.901
118.814
118.758
118.716
118.67
118.617
118.568
118.545
118.567
118.643
118.772
118.939
119.131
119.331
119.529
119.718
119.896
120.065
120.222
120.376
120.521
120.67
120.809
120.954
121.097
121.217
121.404
121.422
124.424
118.636
117.793
117.735
117.594
117.414
117.265
117.154
117.079
117.022
116.965
116.895
116.823
116.779
116.793
116.885
117.053
117.279
117.532
117.79
118.035
118.257
118.456
118.634
118.798
118.95
119.099
119.24
119.386
119.524
119.668
119.812
119.93
120.12
120.135
122.471
116.795
115.806
115.669
115.51
115.34
115.21
115.111
115.027
114.929
114.8
114.65
114.518
114.455
114.503
114.67
114.935
115.254
115.581
115.89
116.164
116.398
116.6
116.777
116.939
117.091
117.244
117.391
117.543
117.686
117.833
117.979
118.096
118.288
118.289
120.115
114.594
113.405
113.161
112.983
112.852
112.778
112.713
112.61
112.443
112.223
112.006
111.864
111.856
112.013
112.315
112.713
113.143
113.55
113.907
114.192
114.42
114.607
114.771
114.926
115.077
115.233
115.383
115.541
115.687
115.839
115.985
116.106
116.304
116.303
116.476
111.109
109.922
109.773
109.73
109.74
109.756
109.685
109.463
109.099
108.672
108.289
108.053
108.038
108.252
108.635
109.114
109.609
110.049
110.413
110.684
110.898
111.074
111.241
111.412
111.588
111.768
111.943
112.118
112.275
112.432
112.577
112.703
112.892
112.904
110.993
106.222
104.792
104.748
105.005
105.352
105.562
105.423
104.895
104.116
103.395
103.027
103.062
103.398
103.898
104.443
104.941
105.341
105.618
105.829
105.984
106.146
106.297
106.474
106.663
106.854
107.048
107.231
107.403
107.555
107.706
107.843
107.973
108.147
108.21
95.6829
95.7905
95.3921
96.5339
97.8754
98.7389
98.7478
97.98
97.0275
96.5248
96.5853
97.0349
97.709
98.4471
99.0926
99.5624
99.8775
100.127
100.321
100.478
100.588
100.727
100.862
101.044
101.23
101.433
101.638
101.837
102.023
102.199
102.37
102.52
102.705
102.798
103.11
11.5158
10.5679
11.0564
11.5623
11.9867
12.309
12.461
12.4728
12.3914
12.308
12.2937
12.3464
12.4254
12.4937
12.5431
12.577
12.6127
12.6498
12.701
12.7451
12.805
12.8436
12.9043
12.9349
12.9936
13.019
13.078
13.0973
13.1636
13.1704
13.2528
13.2364
13.3448
13.284
13.4261
79.7826
77.2373
76.6767
76.7686
76.8933
76.9307
76.9147
76.8794
76.8426
76.8114
76.7881
76.7734
76.7655
76.7625
76.7604
76.7578
76.7522
76.7437
76.7331
76.7199
76.7085
76.696
76.6904
76.6845
76.6902
76.6939
76.7123
76.7242
76.7541
76.7714
76.8111
76.8317
76.8805
76.9025
76.9676
79.595
77.05
76.4729
76.5502
76.666
76.6982
76.6788
76.6414
76.6032
76.5703
76.5455
76.5271
76.5177
76.5109
76.5112
76.5088
76.5115
76.5076
76.5085
76.5013
76.5016
76.4939
76.4992
76.4965
76.5128
76.5184
76.5481
76.5606
76.6024
76.6185
76.6694
76.6889
76.7401
76.7732
76.8116
79.354
76.8081
76.2212
76.2899
76.3997
76.4266
76.4018
76.3587
76.3157
76.28
76.2559
76.2415
76.2378
76.2361
76.2388
76.2345
76.2318
76.2193
76.2111
76.1946
76.1882
76.1756
76.1795
76.1773
76.1966
76.2065
76.242
76.2609
76.3102
76.3335
76.3935
76.4202
76.4831
76.523
76.5764
79.0386
76.4946
75.912
75.9805
76.0869
76.1099
76.0822
76.0377
75.9939
75.9573
75.9313
75.9148
75.9087
75.9066
75.9092
75.9086
75.9095
75.9042
75.9023
75.895
75.8963
75.8933
75.9057
75.9134
75.9419
75.9614
76.0055
76.033
76.0886
76.1196
76.1814
76.2159
76.2743
76.3215
76.363
78.7525
76.2193
75.6198
75.6687
75.7612
75.7744
75.739
75.6883
75.6399
75.6004
75.5729
75.5561
75.55
75.5499
75.5558
75.5618
75.5718
75.5785
75.5905
75.5977
75.6141
75.6253
75.6513
75.6712
75.7108
75.74
75.7932
75.8281
75.8919
75.928
75.9983
76.0355
76.1036
76.1527
76.2081
78.3535
75.8256
75.2307
75.2766
75.3628
75.3698
75.3297
75.2757
75.2247
75.1832
75.1542
75.1361
75.1292
75.1264
75.1293
75.1298
75.135
75.1358
75.1441
75.1479
75.1643
75.1759
75.2062
75.2299
75.2771
75.312
75.3742
75.4149
75.4877
75.5283
75.6071
75.6468
75.7216
75.7711
75.8287
77.9278
75.4155
74.8155
74.8472
74.9195
74.9145
74.8637
74.8004
74.7425
74.6977
74.6697
74.6565
74.6566
74.6606
74.6692
74.6727
74.6793
74.6798
74.688
74.6927
74.7114
74.7274
74.7636
74.7944
74.8494
74.8916
74.9614
75.008
75.0875
75.1321
75.2167
75.2593
75.3394
75.3926
75.4568
77.4329
74.9375
74.3352
74.3532
74.4117
74.3966
74.3391
74.2713
74.2099
74.1623
74.1322
74.1169
74.1135
74.1125
74.1126
74.1059
74.0999
74.0883
74.0854
74.0817
74.0954
74.1098
74.1481
74.183
74.2446
74.2934
74.3708
74.4238
74.5096
74.5595
74.6482
74.6955
74.7763
74.8333
74.8932
76.873
74.4031
73.8029
73.8073
73.8493
73.8189
73.7483
73.6693
73.6002
73.55
73.5223
73.5134
73.517
73.5221
73.5251
73.5201
73.5142
73.5042
73.5039
73.5059
73.5271
73.5515
73.5998
73.6457
73.7163
73.7739
73.8574
73.9162
74.0054
74.0588
74.1494
74.1993
74.2815
74.342
74.4048
76.3094
73.8746
73.2629
73.2429
73.2652
73.2227
73.1452
73.0624
72.9908
72.9389
72.9088
72.8951
72.89
72.8823
72.8699
72.8486
72.8282
72.8076
72.8016
72.803
72.8279
72.8594
72.9167
72.9718
73.0515
73.1169
73.2072
73.2713
73.365
73.4222
73.5154
73.5688
73.6514
73.7151
73.7741
75.6256
73.2225
72.6178
72.5859
72.5907
72.5321
72.4415
72.3487
72.2717
72.2196
72.1929
72.1829
72.1784
72.1674
72.149
72.123
72.1012
72.0857
72.0898
72.1067
72.1492
72.1991
72.273
72.3421
72.4323
72.5054
72.6006
72.6675
72.7629
72.8209
72.915
72.9691
73.053
73.1188
73.1808
74.9207
72.5708
71.9413
71.8714
71.8488
71.7753
71.6784
71.5836
71.5069
71.4547
71.4239
71.4028
71.3788
71.3431
71.2994
71.2528
71.2188
71.2007
71.2114
71.2413
71.3002
71.3674
71.4565
71.5388
71.6385
71.7188
71.8185
71.8892
71.9868
72.0475
72.1429
72.1999
72.2836
72.3522
72.4101
74.0358
71.7317
71.106
71.0201
70.9776
70.8887
70.7822
70.6826
70.6051
70.5535
70.5199
70.4888
70.4479
70.3933
70.3358
70.2875
70.2657
70.2735
70.3178
70.385
70.4781
70.5746
70.6849
70.7823
70.8901
70.9752
71.0755
71.1462
71.2425
71.3027
71.3973
71.4544
71.5385
71.6084
71.6682
73.0973
70.8646
70.1976
70.0608
69.9853
69.883
69.776
69.6821
69.6108
69.5583
69.5097
69.4477
69.3657
69.2713
69.1861
69.1295
69.1195
69.1554
69.2361
69.3411
69.467
69.5892
69.7165
69.8246
69.9375
70.0252
70.1261
70.1981
70.2948
70.3571
70.4523
70.5117
70.5949
70.6662
70.7206
71.9255
69.7672
69.0833
68.9153
68.8153
68.7045
68.602
68.5178
68.4511
68.3878
68.3078
68.1987
68.0681
67.941
67.8525
67.8259
67.8728
67.98
68.1315
68.2978
68.4684
68.6202
68.7624
68.8771
68.9896
69.0753
69.1725
69.2421
69.3364
69.3973
69.4913
69.5497
69.6321
69.7034
69.7575
70.5657
68.492
67.7507
67.53
67.4067
67.3025
67.2241
67.1654
67.1074
67.0201
66.8816
66.6942
66.491
66.3205
66.2309
66.2444
66.359
66.5419
66.7597
66.9751
67.1753
67.3416
67.487
67.6002
67.709
67.7935
67.8908
67.9633
68.0607
68.1247
68.2208
68.2794
68.3612
68.43
68.4793
68.9176
66.9649
66.1442
65.8496
65.6982
65.6196
65.5957
65.5781
65.508
65.3424
65.0821
64.7732
64.4901
64.3011
64.2527
64.3474
64.5611
64.8379
65.1333
65.3976
65.6229
65.7939
65.9367
66.0425
66.1498
66.2306
66.3332
66.4034
66.5082
66.5666
66.6693
66.7194
66.8067
66.8706
66.9235
66.5529
64.6025
63.754
63.5041
63.4572
63.5132
63.5979
63.6108
63.4703
63.1599
62.7253
62.2606
61.8752
61.6526
61.6345
61.7926
62.0824
62.4157
62.7476
63.018
63.2362
63.3864
63.513
63.6104
63.7187
63.8135
63.9304
64.0196
64.1351
64.2037
64.3071
64.3546
64.4404
64.4937
64.5486
63.0397
61.4313
60.3219
59.9798
60.0473
60.3624
60.7024
60.8109
60.5344
59.9023
59.1351
58.5421
58.2853
58.3423
58.6186
58.9983
59.4047
59.7442
60.0112
60.1768
60.3105
60.3976
60.502
60.5968
60.723
60.8392
60.974
61.0775
61.1974
61.265
61.3606
61.401
61.4822
61.5219
61.5956
55.4269
56.9171
55.9917
55.9751
56.5662
57.2134
57.3688
56.7984
55.7579
54.8641
54.4608
54.4857
54.794
55.2348
55.6791
56.0271
56.2813
56.4648
56.6358
56.7391
56.843
56.8997
56.9995
57.0811
57.1985
57.3109
57.4285
57.5386
57.6424
57.7258
57.815
57.8691
57.9772
57.9788
58.1695
13.0686
12.024
12.5491
13.139
13.647
14.0603
14.3224
14.4394
14.4222
14.3369
14.2786
14.2878
14.3502
14.4259
14.4915
14.5342
14.5704
14.5991
14.6461
14.6836
14.7465
14.7846
14.8516
14.8857
14.9493
14.9792
15.0414
15.0638
15.1328
15.1421
15.2255
15.2144
15.3198
15.2746
15.4033
52.8626
51.8615
51.4567
51.3894
51.4277
51.46
51.4655
51.4517
51.4297
51.407
51.3877
51.3744
51.3666
51.3641
51.3627
51.3614
51.3573
51.3498
51.34
51.326
51.3135
51.2972
51.2875
51.274
51.272
51.2645
51.2723
51.2702
51.2874
51.2881
51.3132
51.3137
51.3465
51.3431
51.3895
52.6911
51.7006
51.2927
51.2188
51.2517
51.28
51.283
51.2674
51.2447
51.2203
51.2001
51.1822
51.1724
51.1626
51.161
51.1545
51.1544
51.1459
51.1437
51.131
51.1274
51.1126
51.1118
51.0989
51.1063
51.0986
51.1165
51.1135
51.1412
51.1403
51.1747
51.1749
51.2107
51.213
51.2507
52.4924
51.5071
51.0963
51.018
51.0473
51.0722
51.071
51.0505
51.023
50.9955
50.9756
50.9617
50.959
50.9567
50.9613
50.9571
50.9561
50.9424
50.9336
50.9125
50.902
50.8806
50.8759
50.8603
50.8669
50.8595
50.8789
50.8779
50.9085
50.9104
50.9489
50.9523
50.9936
51.0003
51.0443
52.2549
51.2704
50.8612
50.7834
50.8123
50.8359
50.8334
50.8122
50.7842
50.7562
50.7339
50.7173
50.7099
50.7051
50.7059
50.7018
50.7
50.6896
50.6829
50.6674
50.6612
50.6463
50.6476
50.6391
50.653
50.6528
50.6797
50.6856
50.7221
50.7304
50.7717
50.7812
50.821
50.8332
50.87
52.0122
51.0421
50.6309
50.5454
50.566
50.5824
50.5734
50.5464
50.513
50.4803
50.4535
50.4329
50.421
50.413
50.4113
50.4078
50.409
50.4043
50.4061
50.3999
50.4043
50.3996
50.4111
50.4118
50.4343
50.4415
50.4755
50.4869
50.53
50.5416
50.5898
50.6006
50.6485
50.6601
50.7091
51.711
50.7446
50.3375
50.2525
50.2716
50.2853
50.2736
50.2446
50.2101
50.177
50.1512
50.1317
50.122
50.1137
50.1121
50.1048
50.1028
50.0924
50.0903
50.0792
50.0819
50.0746
50.0875
50.0883
50.1149
50.1239
50.1636
50.177
50.2264
50.2393
50.2938
50.3042
50.358
50.3668
50.4203
51.3806
50.4254
50.0207
49.9317
49.944
49.9499
49.9297
49.8917
49.849
49.8096
49.7805
49.7608
49.7534
49.7475
49.7479
49.7401
49.7366
49.723
49.7179
49.7045
49.7066
49.7005
49.7169
49.7218
49.7546
49.7687
49.8152
49.8328
49.8885
49.904
49.9643
49.976
50.0355
50.0453
50.106
51.0008
50.0575
49.6573
49.5654
49.5717
49.5717
49.5471
49.5066
49.4629
49.4241
49.3968
49.3796
49.3731
49.3667
49.3622
49.3473
49.3332
49.3082
49.2917
49.2682
49.2631
49.2521
49.2672
49.2725
49.3084
49.3257
49.377
49.3983
49.4584
49.4768
49.5402
49.554
49.6149
49.6256
49.6853
50.5797
49.6503
49.2577
49.1639
49.1631
49.1535
49.118
49.0663
49.0124
48.9664
48.9352
48.9175
48.9112
48.905
48.8978
48.8795
48.8602
48.8316
48.813
48.7906
48.7888
48.7845
48.8068
48.821
48.8648
48.89
48.9473
48.9741
49.038
49.0597
49.1253
49.1413
49.2038
49.217
49.2793
50.1464
49.2382
48.8491
48.7477
48.7367
48.7188
48.6787
48.6255
48.5728
48.5299
48.5021
48.4861
48.4774
48.464
48.4455
48.4132
48.3802
48.3399
48.313
48.2867
48.2849
48.2834
48.3111
48.3311
48.3812
48.4116
48.4739
48.504
48.5711
48.5948
48.6622
48.6797
48.743
48.7568
48.8183
49.639
48.7487
48.3712
48.2701
48.2523
48.2244
48.1733
48.1096
48.0483
48
47.9691
47.9501
47.9356
47.9127
47.8816
47.8374
47.7949
47.7516
47.7271
47.7096
47.7203
47.7334
47.7756
47.8086
47.8695
47.9079
47.9761
48.0097
48.0793
48.104
48.1729
48.1909
48.2557
48.2709
48.3349
49.0968
48.2386
47.8606
47.7447
47.7106
47.6718
47.6163
47.5539
47.4979
47.4562
47.4293
47.4077
47.3817
47.3404
47.2872
47.2228
47.1657
47.1156
47.0925
47.0827
47.1047
47.1311
47.1854
47.2292
47.2979
47.3421
47.4138
47.4497
47.5206
47.5465
47.6161
47.6352
47.7003
47.7162
47.7792
48.4394
47.6109
47.2462
47.1298
47.0874
47.0389
46.9753
46.907
46.8469
46.8006
46.7645
46.726
46.6751
46.6051
46.5258
46.4454
46.3853
46.347
46.3456
46.3648
46.4157
46.4693
46.5448
46.6051
46.6838
46.7349
46.8092
46.8465
46.9172
46.943
47.0124
47.0314
47.0971
47.1138
47.1782
47.7204
46.9371
46.5654
46.426
46.3624
46.3037
46.2417
46.1834
46.1362
46.0979
46.0572
45.9982
45.9139
45.8074
45.698
45.6029
45.5453
45.5253
45.5515
45.6018
45.6812
45.7584
45.8498
45.9206
46.0039
46.0572
46.1311
46.1686
46.2386
46.265
46.3344
46.3543
46.4197
46.4362
46.4986
46.8414
46.111
45.7471
45.5985
45.5223
45.4582
45.4006
45.3508
45.3067
45.2551
45.1787
45.0648
44.9183
44.7589
44.6201
44.5266
44.4985
44.5281
44.6105
44.7154
44.838
44.9475
45.0581
45.1399
45.2271
45.2816
45.3542
45.3904
45.4591
45.4844
45.5532
45.5719
45.6372
45.6526
45.7156
45.8162
45.144
44.7629
44.5862
44.4932
44.4352
44.4028
44.3845
44.3598
44.2989
44.1786
43.9962
43.777
43.5637
43.4041
43.3277
43.3456
43.4365
43.5784
43.7312
43.8853
44.0126
44.1285
44.2106
44.2937
44.3458
44.4164
44.4534
44.5238
44.5506
44.6217
44.6393
44.7059
44.7162
44.7805
44.5708
43.9853
43.5817
43.3646
43.2503
43.2114
43.2277
43.2523
43.2245
43.0947
42.8528
42.5331
42.2022
41.9284
41.7651
41.7303
41.8174
41.9833
42.1941
42.3964
42.5821
42.7232
42.8433
42.9234
43.0064
43.0563
43.1308
43.1668
43.2423
43.2658
43.3405
43.3519
43.4204
43.4254
43.4921
43.0156
42.3626
41.8953
41.676
41.6225
41.6893
41.8097
41.8865
41.831
41.605
41.2297
40.7807
40.3597
40.0497
39.9075
39.9266
40.086
40.3077
40.56
40.7725
40.9547
41.0742
41.1725
41.2365
41.3085
41.3631
41.4424
41.4931
41.5741
41.6094
41.6817
41.6954
41.756
41.7581
41.8135
40.8224
40.4364
39.7357
39.3292
39.2499
39.4653
39.8137
40.0494
39.9703
39.5287
38.8655
38.2328
37.836
37.7157
37.829
38.0761
38.3926
38.6752
38.9192
39.0625
39.18
39.233
39.3024
39.3518
39.431
39.5032
39.599
39.6656
39.7549
39.7939
39.8609
39.8701
39.9241
39.9163
39.9747
37.8403
40.2856
39.3026
38.6073
38.5102
38.74
38.8126
38.3796
37.4741
36.4971
35.8677
35.6651
35.7739
36.0435
36.3585
36.6181
36.817
36.9464
37.0832
37.1525
37.239
37.2591
37.3253
37.3604
37.4282
37.4934
37.561
37.6245
37.6855
37.7274
37.7745
37.7912
37.8494
37.8305
37.9386
14.3087
13.2021
13.7506
14.4011
14.9715
15.4541
15.8061
16.0222
16.0942
16.0456
15.9618
15.9183
15.9404
16.0029
16.0763
16.1291
16.1716
16.1941
16.2368
16.2632
16.325
16.358
16.4275
16.4631
16.5292
16.5632
16.6273
16.6527
16.7225
16.735
16.8158
16.8113
16.9091
16.8792
16.9926
37.624
37.2102
36.9838
36.8912
36.8783
36.8894
36.8968
36.8935
36.882
36.8671
36.8525
36.8418
36.8352
36.8341
36.8347
36.8362
36.8356
36.8309
36.8241
36.8114
36.8001
36.7826
36.7716
36.754
36.7481
36.7338
36.7359
36.7253
36.7356
36.7266
36.7443
36.7337
36.7586