/*--------------------------------*- C++ -*----------------------------------*\
  =========                 |
  \\      /  F ield         | OpenFOAM: The Open Source CFD Toolbox
   \\    /   O peration     | Website:  https://openfoam.org
    \\  /    A nd           | Version:  6
     \\/     M anipulation  |
\*---------------------------------------------------------------------------*/
FoamFile
{
    version     2.0;
    format      ascii;
    class       volScalarField;
    location    "3";
    object      yPlus;
}
// * * * * * * * * * * * * * * * * * * * * * * * * * * * * * * * * * * * * * //

dimensions      [0 0 0 0 0 0 0];

internalField   uniform 0;

boundaryField
{
    inlet
    {
        type            calculated;
        value           uniform 0;
    }
    outlet
    {
        type            calculated;
        value           uniform 0;
    }
    roughCylinder
    {
        type            calculated;
        value           nonuniform List<scalar> 
3840
(
15.0674
30.8192
40.9056
43.6739
46.0333
46.1308
46.7018
46.5189
46.8538
46.5974
46.384
46.3411
45.4131
44.8832
44.0529
43.4494
43.6935
43.2089
42.8095
42.9627
42.2917
40.6135
40.0478
39.9637
17.6767
30.0153
40.7857
43.5332
45.9021
46.0408
46.6304
46.5207
46.9848
46.7716
46.5629
46.4806
45.6668
45.1026
44.2484
43.8087
44.036
43.5571
43.3495
43.2678
42.5775
41.1073
40.9884
40.198
22.1224
30.6306
40.2676
43.3962
45.76
45.9982
46.6494
46.6877
47.1792
46.9312
46.7686
46.6451
45.8944
45.4472
44.566
44.1732
44.4773
44.0011
43.729
43.79
43.0638
41.5974
40.9833
40.9638
19.7916
28.6881
40.25
43.3122
45.7321
46.0681
46.7695
46.8154
47.3275
47.1245
46.9814
46.8018
46.2199
45.7408
44.8569
44.6079
44.8545
44.3749
44.3026
44.1734
43.4389
42.1601
41.917
41.1367
46.0342
30.1684
39.6447
43.1682
45.6518
46.1315
46.8765
47.0444
47.5639
47.3207
47.1883
46.9958
46.4877
46.1217
45.273
45.0404
45.3252
44.8598
44.7086
44.7917
43.9512
42.7047
42.0466
42.0322
21.6429
28.0829
39.5242
43.1424
45.7013
46.3134
47.1259
47.2595
47.7065
47.5044
47.4179
47.1904
46.8371
46.4649
45.6414
45.5362
45.7527
45.2832
45.3345
45.2178
44.41
43.3056
42.9374
42.1559
38.6581
28.4635
38.9296
42.916
45.617
46.416
47.2521
47.4657
47.9511
47.7647
47.6664
47.4488
47.1436
46.8711
46.1402
46.0254
46.2663
45.818
45.7909
45.8865
44.9287
43.8791
43.1828
43.1044
39.4154
28.3233
38.5677
42.8484
45.6695
46.6184
47.5398
47.7528
48.1428
47.9709
47.9462
47.7323
47.5287
47.2619
46.5785
46.5736
46.7515
46.2949
46.4754
46.3216
45.4702
44.4942
43.9898
43.1866
40.2243
26.9053
37.7854
42.4508
45.4878
46.6791
47.6561
47.9242
48.388
48.312
48.2948
48.0888
47.895
47.6995
47.1515
47.11
47.3034
46.8755
46.9771
47.0182
45.9741
45.0638
44.3117
44.0844
46.846
27.9959
37.177
42.2159
45.4546
46.8344
47.9124
48.2608
48.6753
48.5779
48.632
48.472
48.3307
48.1454
47.6459
47.6974
47.8394
47.4008
47.69
47.4395
46.5762
45.6536
44.9769
44.1248
56.9247
28.769
36.0542
41.5383
45.0944
46.782
48.0031
48.4117
48.9007
48.9662
49.0807
48.9152
48.763
48.6216
48.2774
48.2662
48.4146
48.0188
48.1922
48.1389
47.0188
46.1706
45.3174
44.8293
55.0408
30.6266
35.2179
41.0092
44.8683
46.8341
48.1675
48.7281
49.2625
49.296
49.4398
49.352
49.236
49.1185
48.8003
48.8672
48.9775
48.5664
48.8803
48.5131
47.6414
46.6713
45.7475
44.8358
57.494
31.9049
33.8318
39.8974
44.2236
46.5758
48.183
48.8513
49.4279
49.6487
49.9297
49.8334
49.7102
49.615
49.4548
49.4376
49.5443
49.1975
49.3302
49.1788
47.9469
47.0661
46.0702
45.1907
61.039
33.8172
32.7905
38.893
43.6199
46.4208
48.1746
49.0355
49.7684
50.0016
50.2509
50.252
50.1789
50.1324
49.9626
50.0162
50.0999
49.7233
49.9457
49.4401
48.5304
47.417
46.169
45.2179
56.6317
35.8006
31.4252
37.1159
42.4649
45.7644
47.9937
49.0835
49.833
50.2133
50.6803
50.704
50.6469
50.6067
50.5944
50.5496
50.6114
50.3205
50.2798
50.0218
48.6369
47.6577
46.4371
44.837
56.2179
36.4493
30.3866
35.3646
41.1109
45.1738
47.6472
48.9907
50.0219
50.518
50.8968
51.017
51.0426
51.0868
51.0274
51.0559
51.1072
50.7444
50.7946
50.1235
49.1579
47.7261
45.8684
44.7153
57.6057
37.8628
29.0718
32.563
38.9434
43.6348
46.9936
48.8154
49.9452
50.5309
51.1904
51.3725
51.4281
51.467
51.5703
51.5008
51.5187
51.2804
50.982
50.5814
48.9025
47.6757
45.8008
42.4979
55.0992
37.819
28.0694
29.5238
35.9088
42.0924
45.8871
48.1821
49.7772
50.6977
51.2851
51.5547
51.7178
51.8728
51.903
51.9266
51.9476
51.5544
51.3563
50.3592
49.2699
46.9487
43.4683
41.3705
55.7412
37.9442
26.3446
25.2038
31.553
38.0783
44.0697
47.3809
49.3602
50.4119
51.3389
51.76
52.0084
52.1442
52.347
52.2715
52.202
51.9472
51.2471
50.5795
48.1281
46.1258
42.0774
30.6936
55.7746
37.9387
24.7463
16.9628
21.9575
34.2167
40.7556
45.5338
48.4415
50.1777
51.1844
51.7377
52.0967
52.4073
52.5029
52.5303
52.4826
51.9057
51.3525
49.5781
47.9985
42.826
31.341
9.06663
54.5166
37.1856
21.0683
5.37501
13.7825
9.13421
35.3449
42.9413
47.101
49.2147
50.8259
51.6335
52.2093
52.4719
52.7647
52.7003
52.4352
51.9976
50.4848
49.1559
44.27
39.2715
8.50939
25.9013
51.9802
35.6871
17.9654
8.80682
4.98933
7.04867
18.0127
37.4869
44.3006
48.1183
49.9294
51.2067
51.9192
52.4678
52.588
52.5993
52.398
51.1574
49.8688
45.9907
42.5939
9.6079
26.3468
40.0357
49.157
34.2074
10.939
8.28066
7.29295
13.604
9.54075
29.5776
40.3757
44.9645
48.7466
50.3342
51.5811
52.0681
52.4511
52.3664
51.5419
50.4661
46.8965
43.6682
23.1606
18.7364
40.4437
46.2631
44.9534
30.5665
17.8509
11.4243
3.76115
14.2352
14.4285
14.6631
26.876
41.6155
45.4635
48.9132
50.4138
51.4126
51.4816
51.3057
50.6675
47.4719
44.2078
30.0243
21.9091
37.1573
45.8569
53.4213
43.0567
31.3784
18.9581
11.7853
19.4813
16.2459
3.50229
7.40445
6.56973
11.7944
41.6375
45.9079
48.9742
49.9201
50.3711
50.0975
47.4722
44.5255
31.3305
21.5688
28.8506
44.2212
52.7155
55.6424
35.2682
33.8893
23.7858
21.3191
24.1199
27.2297
17.4178
10.1236
17.0525
7.80214
11.8234
41.2437
45.4163
47.5987
47.3227
46.0543
44.187
31.8595
19.1097
17.0875
43.0709
48.6963
56.1895
57.2036
11.1198
26.6079
25.9186
24.1378
22.0607
16.7641
11.8007
14.032
22.1493
10.7999
11.886
22.979
40.9428
43.1528
43.4496
42.3045
29.2669
17.7626
15.7422
39.9007
46.5047
54.3981
57.2595
56.0448
10.539
6.41831
7.39799
8.40794
12.1875
18.8808
24.8976
28.5559
31.2477
35.1008
20.3721
14.3086
23.7704
34.8613
31.8271
15.4703
19.9472
21.202
37.9481
45.2507
51.2661
56.8115
57.0831
53.4583
11.0271
8.86942
15.9045
24.6737
29.8585
31.7906
28.7302
28.4783
33.9595
38.153
37.0518
4.21491
3.1957
18.0642
5.80235
0.625641
22.227
36.539
44.6567
49.4505
55.1786
57.5776
55.5652
50.6085
9.29705
21.8843
31.0419
33.7412
31.8409
26.503
20.7054
22.7037
26.01
41.1354
41.3
32.5178
15.5057
5.53533
19.2422
21.0221
35.0765
44.3155
48.5925
53.5707
56.9071
57.0759
53.0969
49.7396
22.4646
33.0918
35.3518
32.1717
25.7135
18.1791
15.518
25.8646
21.2697
34.2939
42.5437
37.2084
11.9722
11.1734
21.3469
34.4812
43.8104
48.2842
52.7014
55.9318
57.1863
56.03
50.4708
52.209
37.4124
37.4342
34.7198
26.4007
14.4929
12.3609
20.6414
28.8541
36.541
37.1481
41.8774
30.9709
22.5939
10.6677
34.8898
42.4966
48.2503
52.1822
55.5423
57.0228
56.8036
54.3756
49.403
56.3669
47.4208
39.1799
32.5767
17.3038
9.94437
13.593
27.8119
33.5683
38.9063
40.3173
36.1061
16.9841
22.2985
34.5287
41.7204
47.5016
51.9094
55.5278
56.7854
57.0074
56.1341
52.6766
51.2625
60.4686
47.6569
36.0499
27.8865
10.8777
5.58906
14.9433
27.0398
32.4637
37.1175
37.8138
30.7321
27.8189
35.5971
41.1683
46.1444
51.608
55.1493
57.2838
57.0243
56.7923
54.9599
51.9115
55.4769
64.407
45.5356
35.928
28.8666
11.7778
8.61118
9.49985
24.7355
31.292
34.8588
35.9451
32.8012
35.8004
40.9636
44.9917
50.2519
55.1263
57.3788
57.8428
57.0047
56.0743
53.7029
52.4797
59.8963
68.2337
46.4914
36.7489
28.6404
8.21062
8.66209
6.43967
14.8953
29.2225
31.2646
35.5686
35.3809
40.4391
44.1315
48.8132
54.155
57.6248
58.4182
57.8571
56.6414
54.8233
52.8773
54.2461
63.3791
71.8329
44.4774
37.4264
31.0225
13.3861
10.5911
10.7817
5.26849
24.4503
30.3377
35.3291
38.2997
43.4164
47.0992
52.6856
56.9196
58.9794
58.7908
57.6323
55.6298
53.4745
52.7151
56.744
66.1612
75.2507
45.6701
39.4482
32.5701
17.1525
11.202
10.5333
5.69533
22.3633
31.4419
36.1026
41.7914
45.9123
50.9097
55.8207
58.7706
59.7014
58.8404
56.8607
54.0779
52.2729
53.2211
59.5341
68.5487
78.5996
43.3874
40.1203
34.2619
21.4899
12.673
4.66763
13.6766
26.75
32.8767
39.0407
44.3677
48.597
53.9159
57.477
59.6568
59.8312
58.4245
55.3058
52.0972
51.3706
54.3245
62.2351
70.6902
81.9634
43.4661
42.4157
36.1299
21.5487
13.4449
11.7697
13.1568
30.5098
35.6275
42.138
46.8315
51.582
56.1897
58.9749
60.7128
60.105
57.4373
53.0786
50.2951
51.0088
55.9424
64.3219
72.7581
85.3812
40.8431
35.3073
33.0181
30.6225
27.7937
24.1462
32.2074
2.23177
47.4411
60.0036
58.2948
61.1798
55.2878
48.774
42.0944
43.2897
37.8903
37.1232
34.5698
34.265
33.806
35.3633
37.4027
39.1838
42.3948
44.3504
47.0248
57.8636
56.1758
61.0548
60.2131
46.3613
12.4689
31.203
24.8161
28.0631
30.7893
32.6969
35.9156
40.6023
42.6833
41.2763
39.6841
37.5701
30.3689
35.353
26.8564
9.72307
46.2848
51.892
43.9193
47.8264
42.5782
45.1038
42.3486
44.7625
43.7064
45.188
45.6283
46.66
46.6485
46.2947
45.705
44.503
45.2992
43.1135
45.2751
43.2225
47.8856
44.3333
52.1401
45.9081
15.5104
24.9323
35.163
30.4313
37.3802
39.4933
41.3537
42.688
37.5127
36.4573
34.7721
31.8226
31.8864
37.5097
3.07342
6.02788
52.8652
44.5026
46.7811
45.5992
46.3153
46.2156
46.6787
48.5418
49.2505
50.9173
52.0028
53.1447
53.2653
52.5695
51.5255
49.9775
49.3935
47.4658
46.7149
47.0544
45.7517
47.6638
44.5441
53.3393
12.0928
12.6039
36.643
32.5362
31.3293
34.4729
36.2925
37.5023
26.5251
26.8489
29.2001
32.3442
37.2946
35.8979
22.7668
40.2697
52.1905
43.0234
49.1896
46.1995
49.7579
49.4286
50.9921
52.9769
54.2007
55.6855
56.9474
58.0457
58.2069
57.4524
56.3075
54.8849
53.9114
51.8467
50.2126
50.5225
46.869
49.8223
43.8176
52.1288
42.5667
23.2831
35.6525
38.0083
32.3345
29.1654
26.7296
26.6842
3.48594
13.9281
22.0985
32.2504
40.2721
45.2415
41.4555
48.2654
49.2977
46.429
49.8908
49.1544
52.535
53.2038
54.8091
56.8238
58.0012
59.1996
60.4362
61.4365
61.613
60.908
59.8049
58.6349
57.7462
55.6906
54.0959
53.3739
50.1134
50.5769
47.4933
49.4977
49.5056
42.5176
46.0482
41.6616
32.3266
22.2959
14.0772
14.2633
12.7315
11.6098
18.2722
27.1629
38.7001
47.0841
46.5446
49.8255
49.6142
49.8832
51.375
52.6377
55.4014
56.8775
58.3434
60.0955
61.0514
61.8933
62.976
63.8648
64.0471
63.4276
62.4729
61.6249
60.9491
59.2544
57.8074
56.3362
53.6913
52.1812
50.8992
50.1429
50.9614
47.4079
48.089
40.5822
26.878
1.7077
14.4099
13.1562
7.65502
13.7155
15.9771
12.7785
32.115
46.8106
50.2783
50.6029
52.4649
52.4034
54.0922
55.7602
58.4643
60.2643
61.5605
63.0235
63.4751
63.9989
64.8919
65.708
65.9016
65.3442
64.5508
64.0108
63.7144
62.4324
61.2039
59.4434
56.8571
54.9988
53.3884
53.1783
51.7659
51.1653
47.9284
35.2082
10.1513
15.3144
15.7566
2.36475
30.277
23.6208
12.9307
14.5768
8.97453
39.311
51.0419
52.7944
54.9248
55.1885
57.14
58.6769
61.6116
62.9314
64.6728
65.3175
65.5088
65.7009
66.5205
67.3809
67.606
67.0159
66.2582
66.0103
65.9264
65.4489
63.8644
62.6428
59.7262
58.1615
56.0481
55.8526
53.5675
52.5173
40.5555
14.83
7.76034
12.1321
22.7688
29.7955
36.7918
36.3115
32.6224
18.4623
1.70581
14.5842
43.3215
53.1567
56.1305
57.9741
59.3712
61.7986
63.5671
65.7484
66.5443
67.2308
67.0346
67.2597
68.221
69.3333
69.6172
68.821
67.8932
67.5771
67.7959
67.3006
66.5645
64.5986
62.7961
60.3883
58.808
57.1435
53.9567
46.0783
12.1696
9.5202
15.8745
31.3534
36.0418
36.7353
42.7147
40.8021
38.3425
35.7518
20.6575
4.05355
12.2599
45.7948
55.2506
58.4883
61.6258
62.8835
65.8507
66.6864
67.99
68.1507
68.2044
68.7648
70.1103
71.6581
72.0154
70.8644
69.5402
68.8767
68.7675
68.6977
67.5248
66.7107
63.8981
62.5309
59.4106
56.1724
47.9119
14.351
18.5778
17.3967
35.1328
38.1249
40.4721
42.4139
48.024
47.5385
45.5797
41.7657
38.1097
24.096
18.1826
22.0306
43.7466
57.5742
59.4928
64.4014
65.1922
67.4906
67.9702
68.4833
69.0006
70.1409
72.0653
74.0067
74.3976
72.9146
71.089
69.8296
69.2327
68.6821
68.2176
66.1497
65.1087
60.7364
58.1868
46.5725
15.874
16.1819
21.2416
37.3235
41.3414
45.2476
47.4396
47.9713
52.3173
50.9804
49.3359
47.7246
42.878
39.9455
28.6905
20.5683
8.1184
41.0623
57.4558
60.0968
64.3999
65.853
67.3623
68.4374
69.4298
71.4216
73.6701
75.6951
76.035
74.4627
72.3627
70.4029
69.2949
68.2446
66.7455
65.227
61.391
57.875
44.6603
26.6859
21.3897
26.4669
39.49
42.5884
47.5481
49.2554
50.9419
52.3375
56.3749
54.8465
53.3537
50.8927
47.8716
44.0097
40.4266
28.7875
17.5981
25.4511
37.4797
54.6693
59.7096
62.9946
65.5099
67.782
70.057
72.2051
74.5824
76.3965
76.6298
75.1491
72.9963
70.8482
68.7402
66.5073
64.1186
60.8425
56.1325
42.0762
3.02054
11.5603
27.4154
40.6118
43.5106
47.6668
50.9011
53.3249
54.8489
56.4305
58.5193
56.4933
54.7069
52.4751
48.7443
47.6077
40.409
40.6461
31.6979
21.3898
23.7572
40.1161
53.7084
59.599
64.0998
67.8915
71.1114
73.2711
75.6774
77.1292
77.2521
75.9781
73.7561
71.7424
68.6962
65.1766
60.8048
55.441
42.5381
29.0647
18.0918
32.1852
39.4468
40.5081
47.7216
48.478
52.5628
54.8093
56.5038
58.6797
59.6571
57.0111
55.1606
51.0558
48.7379
44.533
41.6147
37.6802
32.094
30.5813
25.3936
21.3766
43.9969
57.3117
64.2187
69.1113
72.9352
75.0417
77.4799
78.5806
78.6282
77.6103
75.2177
73.339
69.7884
65.0503
58.9105
46.5345
25.0697
22.6154
30.3171
31.5939
38.0404
40.5646
45.0659
48.4952
50.868
55.3573
56.91
59.709
57.9266
54.898
51.3096
46.838
43.1026
40.2198
34.3531
25.5165
22.5417
19.9899
14.885
15.5245
45.3103
59.9395
66.5651
72.1169
75.7063
77.9268
80.2689
81.2627
81.2778
80.3622
77.9595
75.9833
72.5405
67.3514
60.9097
48.5775
20.361
15.1015
21.9951
19.3272
25.6889
32.9495
39.6499
43.6933
45.972
51.4768
54.7741
57.84
54.6216
50.2956
45.4694
39.8205
38.7644
34.4211
1.01236
14.321
22.4513
22.2381
29.4094
44.6626
58.1827
65.5788
71.1924
75.3356
78.4589
80.3154
82.5082
83.488
83.5117
82.649
80.3816
78.6618
75.6046
71.7927
66.2221
59.5121
47.2175
30.7501
21.6207
22.1253
10.5946
2.8225
30.9988
39.6062
39.441
44.8936
50.2442
54.3175
49.5558
44.6029
39.6654
39.0372
39.7488
29.9112
22.1527
9.91053
29.1664
38.0503
47.911
56.8832
63.6549
68.5131
72.5495
75.5928
78.1221
79.6758
81.5656
82.4827
82.5309
81.743
79.8663
78.2997
75.8581
72.9425
69.0168
64.3166
57.9741
49.1787
38.9097
30.1501
12.3385
18.853
28.0718
38.7482
39.3799
39.3348
44.1501
49.4103
47.5544
44.2072
43.1432
42.2665
42.0784
41.6974
32.7122
20.3235
1.83047
23.6951
41.891
51.024
57.5517
62.4714
66.407
69.5987
72.2964
74.4479
75.6948
76.3798
76.4246
75.8107
74.721
72.6189
69.9541
66.7954
62.9203
58.0923
51.7742
42.9781
25.4696
14.3723
23.2728
24.7528
40.8068
42.6144
41.7068
42.8758
43.8099
47.2131
50.2339
48.2507
45.4542
42.3767
39.2697
38.8788
40.3321
38.2507
31.3346
21.0266
11.5393
15.9229
29.8718
38.8134
45.7145
51.3217
55.8668
59.3488
61.6617
62.8943
62.9726
61.8864
59.7169
56.3453
51.8786
46.3198
39.4613
30.631
17.1108
9.59382
13.6274
31.4073
38.766
41.7152
38.6761
38.2063
41.9075
44.6267
47.5533
49.638
56.6111
55.2329
53.5362
51.3415
48.735
45.1719
41.589
39.95
39.0567
36.98
33.4302
29.0891
25.1702
23.0688
23.4423
25.8194
29.1207
32.2747
34.612
35.9175
36.0012
34.8491
32.6335
29.548
26.2115
23.6589
23.0408
24.8938
28.6677
33.0917
37.0159
38.5996
39.4749
41.0545
44.8235
48.398
50.7953
53.0845
54.7008
56.0203
65.0024
63.5602
62.0979
60.6469
59.1796
57.6858
56.0479
54.2451
52.6633
51.4592
50.4944
49.6131
48.7381
47.8829
47.0811
46.381
45.8329
45.4641
45.2579
45.1664
45.1671
45.2585
45.4582
45.8119
46.341
47.0249
47.813
48.657
49.5249
50.3946
51.3269
52.5547
54.1052
55.8452
57.4401
58.9249
60.4191
61.8282
63.2574
64.6543
73.754
72.7788
72.1521
71.5302
71.0356
70.611
70.2652
69.9688
69.7015
69.4678
69.2796
69.1588
69.1028
69.1016
69.1406
69.2042
69.2738
69.3348
69.3787
69.4058
69.4074
69.384
69.3418
69.2817
69.2117
69.146
69.1033
69.1001
69.151
69.2676
69.4501
69.6749
69.9339
70.2266
70.5683
70.9833
71.4559
72.0527
72.6469
73.5824
87.6414
87.5112
88.0042
88.2795
88.7057
89.1008
89.527
89.931
90.2997
90.5747
90.6358
90.5098
90.4336
90.3535
90.2728
90.1965
90.1268
90.0681
90.0228
89.9953
89.9945
90.0204
90.061
90.1164
90.1828
90.257
90.3354
90.4144
90.487
90.622
90.5395
90.2561
89.8806
89.47
89.0361
88.6327
88.1959
87.9092
87.4001
87.511
13.8824
30.3738
41.0487
43.8671
46.3828
46.522
46.9756
46.5437
46.5975
46.2327
46.1858
46.1123
45.8313
45.0441
44.4181
43.3108
43.0079
42.868
42.6336
42.2757
41.9786
40.4864
40.1635
39.9668
13.0433
30.5915
40.7177
43.7896
46.2818
46.4729
46.9019
46.4589
46.6095
46.3877
46.367
46.2297
45.9351
45.2395
44.54
43.6129
43.3662
43.2011
43.2399
42.5565
42.3151
41.0033
41.0107
40.1869
6.45396
30.0224
40.4225
43.6153
46.1529
46.4151
46.8688
46.561
46.7314
46.5649
46.6099
46.3701
46.0047
45.5821
44.7721
43.8977
43.7365
43.5642
43.7672
43.1343
42.8494
41.5492
41.1216
40.9336
4.6137
29.6808
40.1556
43.5391
46.082
46.4472
46.9531
46.6462
46.8926
46.8358
46.8656
46.547
46.2203
45.8902
45.0182
44.3645
44.1947
43.9723
44.4951
43.461
43.2945
42.1223
41.954
41.1151
12.3479
29.3125
39.7248
43.3235
45.95
46.4513
47.0075
46.8875
47.2071
47.1453
47.1593
46.7683
46.3779
46.3094
45.393
44.7784
44.6618
44.4296
45.0892
44.1307
43.8678
42.7217
42.1894
41.9702
16.8481
28.4205
39.448
43.255
45.9188
46.5626
47.241
47.1567
47.4932
47.4816
47.4704
47.0043
46.6791
46.6935
45.739
45.3103
45.1934
44.9291
45.8264
44.4829
44.3973
43.3229
42.974
42.1284
21.2199
28.3394
38.8723
42.9573
45.7638
46.6154
47.366
47.4604
47.9015
47.8862
47.8139
47.3078
46.9273
47.1511
46.2108
45.7806
45.7202
45.488
46.4069
45.2152
44.9777
43.9471
43.3109
43.0164
24.2257
27.1919
38.4691
42.8533
45.7567
46.7715
47.6753
47.8536
48.2679
48.2382
48.167
47.6197
47.3162
47.5812
46.6156
46.3382
46.2887
46.0694
47.1016
45.5855
45.5681
44.5532
44.0128
43.1565
34.3534
27.1571
37.7288
42.4126
45.5326
46.8187
47.8322
48.143
48.6612
48.6802
48.5692
48.0124
47.6623
48.0541
47.1528
46.8507
46.845
46.7148
47.6474
46.3644
46.1259
45.1656
44.4113
43.9786
43.4948
27.152
37.0498
42.1794
45.4871
46.9631
48.1185
48.5613
49.0635
49.026
48.939
48.396
48.1297
48.5134
47.5957
47.4362
47.4373
47.3531
48.2949
46.7404
46.743
45.7353
44.979
44.0965
47.4822
27.9043
36.0867
41.5016
45.1146
46.9148
48.2473
48.7867
49.3629
49.4446
49.3823
48.8572
48.5582
48.99
48.1867
47.9965
48.0129
48.0466
48.7949
47.5323
47.2266
46.2859
45.3821
44.7162
53.4895
28.0408
35.1008
40.987
44.9023
46.9642
48.4123
49.1201
49.7518
49.7779
49.7324
49.2691
49.0654
49.4662
48.6549
48.6082
48.6241
48.6891
49.392
47.8821
47.8324
46.7532
45.7273
44.8153
52.7709
30.1683
33.8374
39.9001
44.2475
46.6917
48.4303
49.2511
49.9135
50.1031
50.1725
49.7537
49.5352
49.9296
49.2803
49.1991
49.2029
49.373
49.826
48.6395
48.1613
47.1715
46.0993
45.0841
59.1419
31.9959
32.6746
38.897
43.6475
46.5132
48.3712
49.3886
50.2151
50.4046
50.4594
50.1343
50.0276
50.4025
49.7467
49.8074
49.8167
49.9552
50.3547
48.9048
48.7065
47.4845
46.1296
45.2152
54.1875
33.8265
31.171
37.1343
42.4602
45.7989
48.15
49.3872
50.2182
50.5581
50.8219
50.585
50.4886
50.8264
50.3721
50.385
50.3583
50.5622
50.6706
49.5628
48.8158
47.7246
46.4343
44.7589
59.4456
35.9781
30.2996
35.3495
41.0773
45.1568
47.696
49.1949
50.3344
50.7955
50.9971
50.8634
50.8996
51.2567
50.7865
50.9286
50.9244
51.0027
51.1235
49.713
49.294
47.7718
45.8201
44.7445
54.4033
36.8464
28.6901
32.5477
38.8474
43.5056
46.9747
48.9379
50.1563
50.7315
51.2324
51.2229
51.2853
51.59
51.3501
51.4182
51.369
51.5183
51.2897
50.2341
49.0078
47.656
45.7735
42.482
53.564
37.5925
28.0184
29.4055
35.744
41.9108
45.7109
48.1633
49.9049
50.8249
51.2884
51.3876
51.5937
51.9674
51.6902
51.8757
51.87
51.7841
51.6149
50.1377
49.3536
46.9865
43.4549
41.4707
55.1466
37.9658
26.2511
25.1378
31.2915
37.7131
43.8426
47.286
49.3701
50.455
51.3002
51.615
51.9021
52.2069
52.1799
52.2576
52.1502
52.1375
51.4817
50.3977
48.1152
45.9139
42.0101
30.7647
54.1203
37.4788
24.9058
16.8735
21.5238
33.906
40.3268
45.2788
48.3811
50.1735
51.1325
51.6021
52.0242
52.4632
52.3616
52.5294
52.4887
52.0816
51.5537
49.6469
48.0402
42.9728
31.9106
12.3441
52.8704
36.3431
20.2916
14.9558
13.6645
8.97619
35.0884
42.6823
46.9414
49.1437
50.7572
51.5548
52.1771
52.51
52.6883
52.7236
52.435
52.1368
50.6916
49.2134
44.0941
38.4367
21.9255
26.0347
50.5932
34.8823
18.317
8.55439
12.8386
14.1709
17.961
37.1168
44.1396
48.0484
49.9057
51.1733
51.9447
52.5291
52.5482
52.6027
52.4279
51.3002
50.0554
46.5624
42.6362
12.7445
25.7613
40.0048
48.5313
33.4115
1.47725
12.9359
13.4335
4.80297
17.2076
29.686
40.1863
44.9046
48.7407
50.4021
51.6747
52.1295
52.4942
52.3864
51.5151
50.5869
47.1853
44.0818
22.6147
17.5782
40.3454
46.1976
44.2255
30.0171
14.6274
9.65525
12.0644
15.2797
9.66556
14.1095
27.7769
41.7184
45.6328
49.0815
50.5886
51.5253
51.5558
51.2463
50.6398
47.6114
44.4374
32.5061
16.1272
36.5459
45.756
53.3274
42.6504
30.1873
15.0678
12.8824
19.9037
15.2199
14.1447
7.10992
9.12438
15.7277
41.9473
46.2525
49.2478
50.0359
50.5443
50.0703
47.3204
44.649
32.4333
8.08791
27.5101
44.2701
52.575
55.4529
35.4494
33.4645
24.4575
21.0918
24.5138
26.5671
19.0969
14.4069
11.9323
9.93577
16.3186
41.8436
45.8256
47.8087
47.4971
45.8015
44.0277
32.2357
19.7157
17.629
42.5211
48.5639
56.1191
56.9288
11.3535
26.3337
25.7802
23.6253
23.338
16.7469
12.7732
12.3848
18.4327
13.7061
12.4235
25.2743
41.5043
43.3135
43.7452
42.2466
28.504
22.4446
19.4204
40.0853
46.277
54.186
57.1419
55.6998
3.78319
6.71204
9.12344
10.6922
11.3961
19.3304
23.3119
28.2051
31.7515
34.5294
17.8485
19.5826
25.3625
35.3514
31.8705
13.1989
12.2821
20.9334
37.8442
45.2712
51.1889
56.6457
56.9143
53.1071
5.67328
10.8167
15.0317
23.4736
29.4215
30.9055
29.2466
28.8743
33.8466
38.2938
35.8759
12.9899
14.7113
17.4953
16.5417
2.99283
22.7076
36.7249
44.6497
49.3629
55.1179
57.4361
55.3707
50.4491
10.5397
21.2083
30.437
33.5436
31.7701
27.3687
20.8439
22.7019
26.8003
41.193
41.3546
31.6148
15.6646
18.2966
19.5931
14.4508
34.5655
44.4622
48.5555
53.5588
56.794
56.9079
52.9692
49.9706
21.3513
32.3529
34.9667
31.9294
26.0283
18.6359
15.675
26.1254
20.9889
35.1246
42.8295
37.2019
13.6609
7.1795
19.9046
33.7083
43.9983
48.1413
52.7716
55.9355
57.1033
55.8434
50.5403
52.7025
35.9972
36.7793
34.4294
26.5385
14.8928
5.00335
20.2278
28.7525
36.3329
37.2369
42.3184
32.0744
15.3515
6.40745
34.2221
42.6336
48.1419
52.1257
55.7005
56.9649
56.7355
54.2486
49.7967
56.8668
46.4918
38.8224
32.5261
17.4553
9.42057
13.625
27.6081
33.8256
39.1475
40.6407
37.1359
18.6839
20.8932
33.7408
41.3418
47.603
51.6978
55.5877
56.9376
56.8893
56.0999
52.7016
51.9352
60.928
47.0851
35.8597
27.902
9.49409
7.46121
13.7499
26.9765
32.8748
37.3844
38.389
31.6789
27.7326
34.7414
40.9123
45.9066
51.4913
55.0402
57.4138
57.0997
56.6783
54.9735
52.165
56.1652
64.8356
44.9195
35.6578
28.7356
9.35418
7.88563
7.29697
24.9658
31.9792
35.234
36.7603
33.3281
35.5781
40.571
44.897
49.9894
54.9333
57.3966
57.9536
57.0104
55.9981
53.7887
52.9633
60.4271
68.6014
46.1942
36.6386
28.6093
14.7699
2.27418
10.8026
16.0966
29.6916
31.9808
36.1993
35.6837
40.3006
43.9523
48.6792
53.8501
57.4889
58.4829
57.9354
56.6326
54.8082
53.0848
54.8726
63.7826
72.1324
44.2157
37.2402
31.0083
16.458
2.55051
10.7608
6.76365
25.1127
30.835
35.7627
38.4274
43.3615
46.9999
52.4924
56.6851
58.9077
58.8487
57.7014
55.6386
53.5305
53.05
57.4144
66.4906
75.4947
45.4486
39.3456
32.4261
15.494
10.9059
10.4824
5.74206
22.812
31.8399
36.3249
41.9635
45.879
50.8091
55.6036
58.5783
59.6524
58.9052
56.9642
54.1099
52.4255
53.691
60.1792
68.8213
78.802
43.3928
40.0525
34.2558
21.9638
12.9628
10.1496
14.7572
26.9709
33.2062
39.0151
44.5736
48.4677
53.8547
57.2758
59.5734
59.8251
58.5011
55.4148
52.1987
51.6689
54.9015
62.7669
70.9297
82.1357
43.6092
42.3778
36.1085
21.5301
9.35138
11.622
7.96554
31.7628
35.4623
42.3189
46.9897
51.4881
56.1685
58.7968
60.6315
60.0364
57.5584
53.3393
50.4647
51.4813
56.5269
64.7528
72.9655
85.5312
9.74047
17.088
14.806
9.38614
5.61245
13.5801
13.3671
9.37997
9.6999
11.7876
11.6927
11.2326
9.3429
4.49978
6.93965
8.49425
6.89864
7.07613
3.87634
3.31532
3.40734
3.5084
3.96007
7.00103
8.52862
4.25785
5.49511
9.79933
10.9487
11.5971
12.4642
13.2496
8.33069
14.3336
9.2976
4.59444
4.53022
5.59958
2.2468
3.43519
30.7382
27.7565
27.7409
24.7047
24.5672
21.7412
21.2921
18.9156
18.2689
16.3481
15.8123
14.0752
13.6014
11.8792
12.7093
11.3908
11.6118
11.3026
11.3073
11.3483
11.4541
11.4689
11.6821
11.6354
11.4714
12.8773
12.1304
13.7274
14.0655
15.8429
16.1935
18.5071
18.7707
21.3552
21.9773
24.353
25.1804
27.4322
28.3564
30.3783
40.5846
39.1336
37.8399
36.5679
35.2022
34.1037
32.8327
31.8484
30.7322
29.8698
28.7902
28.063
27.088
26.5588
25.6373
25.4195
24.8776
24.7017
24.6347
24.4641
24.4463
24.4244
24.793
25.1302
25.7652
25.9867
26.9037
27.431
28.4062
29.1149
30.1626
31.0313
32.1283
33.1656
34.2477
35.4934
36.5572
38.0143
39.0236
40.6718
43.3795
41.5831
40.4243
38.6499
37.5576
35.9356
34.9574
33.6352
32.761
31.683
30.8605
29.9257
29.2297
28.6062
28.0988
27.6264
27.3982
27.2781
27.3866
27.2712
27.1829
27.2335
27.5034
27.7981
28.1062
28.6845
29.1947
29.8255
30.4999
31.3531
32.1637
33.1834
34.1191
35.3146
36.3501
37.7184
38.8153
40.3746
41.5159
43.1946
45.8009
44.2217
42.8489
41.3739
39.9555
38.6707
37.3641
36.3292
35.2556
34.421
33.4493
32.6962
31.8012
31.298
30.6543
30.3648
29.9667
29.8881
30.1171
29.9904
29.852
29.9321
30.2438
30.5418
31.0719
31.5091
32.1809
32.693
33.4923
34.1716
35.0567
35.9179
36.9427
37.9585
39.097
40.2312
41.4602
42.7843
44.0351
45.5279
45.9085
44.3878
43.0104
41.5154
40.1404
38.7283
37.5171
36.3573
35.4112
34.5592
33.7258
32.9608
32.1707
31.5907
31.061
30.7519
30.5202
30.3946
30.8688
30.736
30.4969
30.6643
30.9607
31.3198
31.7365
32.3104
32.8286
33.3151
33.9227
34.5259
35.3041
36.1217
37.074
38.1176
39.1783
40.344
41.5495
42.8654
44.1472
45.5739
46.3743
45.0125
43.6513
42.2952
40.8976
39.5856
38.2675
37.1813
36.0907
35.3308
34.4439
33.7543
32.9084
32.3257
31.6699
31.4804
31.1424
31.0011
31.6826
31.5024
31.1492
31.4281
31.7628
32.1408
32.71
33.2591
33.7638
34.1076
34.6382
35.1443
35.9173
36.6612
37.7122
38.705
39.8337
40.9672
42.2188
43.4825
44.7875
46.1153
45.9074
44.6527
43.3463
42.0955
40.7928
39.5668
38.3149
37.2336
36.1299
35.2843
34.4606
33.7703
33.007
32.3789
31.6249
31.4379
31.1542
30.7796
31.7015
31.4203
30.8987
31.3773
31.7077
32.2207
32.7948
33.4111
33.7366
33.948
34.3075
34.7688
35.4752
36.2709
37.3716
38.387
39.5482
40.694
41.9496
43.207
44.5155
45.8307
45.9863
44.706
43.4618
42.2727
41.0726
39.9747
38.8172
37.8053
36.7016
35.7685
34.8745
34.2489
33.5794
33.0986
32.1836
31.8982
31.5018
30.9607
31.7103
31.2815
30.6564
31.3777
31.7068
32.3157
33.0239
33.5649
33.7113
33.7896
34.118
34.5795
35.4177
36.371
37.5613
38.6043
39.7932
40.8868
42.0939
43.3275
44.6525
46.0732
45.503
44.1228
42.783
41.574
40.3971
39.4066
38.436
37.6043
36.7144
35.8648
34.9208
34.3142
33.8433
33.6426
32.7627
32.2768
31.8766
31.1714
31.2413
30.599
30.1987
31.0326
31.2295
32.0096
32.7262
33.0178
33.1298
33.3162
33.8066
34.4835
35.5168
36.5797
37.7373
38.7342
39.7863
40.7475
41.8652
43.0444
44.3724
45.8042
45.3378
43.9293
42.5197
41.3084
40.1439
39.2046
38.3096
37.5811
36.7401
35.9513
34.9279
34.1886
33.6069
33.5915
33.0341
32.6922
31.7583
31.8125
30.8781
30.0906
30.1879
31.0223
31.0916
31.7734
32.3737
32.2696
32.97
33.3946
34.0918
34.8405
35.9338
36.8993
37.9299
38.7617
39.7047
40.6102
41.6957
42.8344
44.1624
45.5437
45.398
44.0534
42.7758
41.586
40.4351
39.3884
38.3397
37.483
36.5674
35.8037
34.6826
33.729
32.8073
32.8064
32.3651
31.8558
31.0802
31.3812
30.4693
29.511
30.0358
30.7844
30.8518
31.2005
31.7095
31.9924
32.6602
33.2413
34.0472
34.788
35.8279
36.6
37.5375
38.3183
39.312
40.3271
41.5027
42.769
44.1101
45.5402
45.1994
43.9452
42.7223
41.6119
40.3587
39.215
37.7784
36.5854
35.2536
34.5221
33.6098
32.9942
32.1179
31.9505
31.8419
31.2957
30.3689
30.5407
30.2515
29.1748
29.2499
30.0792
30.2084
30.7661
31.2495
31.5538
32.3517
32.9891
34.0825
34.7569
35.6037
36.1026
36.8867
37.5388
38.5753
39.5825
40.7875
41.975
43.2489
44.615
44.1493
42.8323
41.3831
40.2254
38.9195
37.9425
36.8638
36.1726
35.3669
34.7947
33.8846
32.9456
31.562
31.1911
30.915
30.4688
29.5017
29.3614
29.1618
29.5977
29.0879
29.5169
30.038
30.3701
30.7909
31.0666
31.7217
32.3163
32.9042
33.3182
34.1732
34.9696
36.0817
36.9918
38.1122
39.0159
40.1814
41.2299
42.6233
43.9495
43.6589
42.3884
40.9631
39.7375
38.3822
37.3031
36.1048
35.2036
34.1511
33.5049
32.7527
32.2628
31.2925
30.4631
29.6487
29.9385
29.2614
28.9
28.6794
28.2548
29.1862
29.3881
29.1751
29.492
29.8108
30.0835
30.3435
30.7516
31.9412
32.8969
33.9593
34.5194
35.3231
35.9415
36.9997
37.9686
39.305
40.4851
41.9309
43.2026
42.6136
41.4218
40.2663
39.203
38.0542
36.9374
35.6235
34.3915
32.9547
31.8107
30.7214
30.325
30.0105
29.487
28.695
28.8184
28.3991
28.158
28.0105
27.3175
27.4333
27.9358
27.9143
28.3424
28.2701
28.0336
29.1489
29.8241
30.6244
31.0734
32.0175
32.7695
33.8868
34.8068
36.0358
37.0988
38.4267
39.6566
41.1217
42.5278
42.1033
40.7047
39.1782
37.8833
36.4377
35.3136
33.9984
33.0714
31.8734
31.2257
30.3685
30.2346
29.7558
29.8235
29.4629
29.1809
28.4568
28.19
27.8459
27.0108
27.3437
26.9021
26.5581
26.505
27.2058
27.5199
28.1799
28.3007
29.3263
29.9178
31.1108
31.8276
33.0812
33.9269
35.2923
36.3963
37.9802
39.3618
41.0845
42.6012
41.9306
40.4853
38.8328
37.4228
35.7598
34.4599
32.9006
31.7317
30.2218
29.2347
28.0834
27.6774
26.9692
26.6352
25.7183
25.6514
25.2501
25.3249
25.1779
24.7373
26.2887
24.4535
25.7217
25.5489
25.8418
26.7272
27.2063
27.8929
28.5241
28.8456
29.671
30.2262
31.2691
32.2111
33.742
35.1725
37.0227
38.6514
40.5018
42.1037
41.6611
40.2298
38.8983
37.7192
36.5378
35.4882
34.2815
33.2474
31.9562
30.9694
29.6801
28.9236
27.9512
27.72
27.2578
27.3642
27.1287
27.2357
26.987
26.7451
26.8837
26.0422
25.677
25.8317
26.4606
26.4449
27.2022
27.5681
28.5999
29.1057
29.9612
30.5678
31.6741
32.6914
34.09
35.4209
36.9691
38.5034
40.1294
41.7873
41.2073
39.9229
38.3839
37.2541
35.9075
34.9152
33.6934
32.7526
31.5983
30.7436
29.7825
29.056
28.1714
27.4252
26.6563
26.0367
25.5962
25.2748
25.1573
25.1094
24.9861
25.1168
25.5588
25.8731
26.2578
27.1326
27.7362
28.4641
28.9911
29.6408
30.448
31.3831
32.5474
33.6948
35.0523
36.2776