/*--------------------------------*- C++ -*----------------------------------*\
  =========                 |
  \\      /  F ield         | OpenFOAM: The Open Source CFD Toolbox
   \\    /   O peration     | Website:  https://openfoam.org
    \\  /    A nd           | Version:  6
     \\/     M anipulation  |
\*---------------------------------------------------------------------------*/
FoamFile
{
    version     2.0;
    format      ascii;
    class       volScalarField;
    location    "1.2";
    object      nut;
}
// * * * * * * * * * * * * * * * * * * * * * * * * * * * * * * * * * * * * * //

dimensions      [0 2 -1 0 0 0 0];

internalField   nonuniform List<scalar> 
63432
(
4.83858e-07
5.06092e-07
5.27656e-07
5.37959e-07
5.29876e-07
5.09263e-07
4.94385e-07
4.94264e-07
5.01085e-07
4.97025e-07
4.6911e-07
4.45036e-07
4.37597e-07
4.55092e-07
4.76806e-07
4.97086e-07
5.0987e-07
5.08349e-07
4.95165e-07
4.86051e-07
4.82889e-07
4.87874e-07
4.86678e-07
4.63027e-07
3.79802e-07
3.93629e-07
4.08301e-07
4.25818e-07
4.46116e-07
4.66495e-07
4.8235e-07
4.85624e-07
4.80346e-07
4.73966e-07
4.67903e-07
4.74048e-07
4.65088e-07
3.39559e-07
3.5437e-07
3.68646e-07
3.83588e-07
4.00582e-07
4.19473e-07
4.40766e-07
4.58733e-07
4.67291e-07
4.70198e-07
4.63128e-07
4.6242e-07
4.58595e-07
3.02805e-07
3.19591e-07
3.35953e-07
3.51152e-07
3.66834e-07
3.83194e-07
4.014e-07
4.22445e-07
4.40569e-07
4.55957e-07
4.60596e-07
4.62829e-07
4.5813e-07
2.50339e-07
2.68213e-07
2.86777e-07
3.05268e-07
3.23074e-07
3.39967e-07
3.56498e-07
3.72741e-07
3.91339e-07
4.09503e-07
4.30658e-07
4.44494e-07
4.58565e-07
4.60516e-07
2.19632e-07
2.37154e-07
2.56165e-07
2.76055e-07
2.96038e-07
3.155e-07
3.34468e-07
3.51408e-07
3.70146e-07
3.86298e-07
4.06327e-07
4.2256e-07
4.41111e-07
4.54537e-07
1.93463e-07
2.10467e-07
2.29041e-07
2.49175e-07
2.70533e-07
2.91712e-07
3.13999e-07
3.33403e-07
3.54322e-07
3.71389e-07
3.89951e-07
4.0717e-07
4.22817e-07
4.41176e-07
1.57056e-07
1.71616e-07
1.87949e-07
2.06057e-07
2.25522e-07
2.47302e-07
2.69248e-07
2.93384e-07
3.16355e-07
3.39589e-07
3.60965e-07
3.80395e-07
3.99384e-07
4.14455e-07
4.3185e-07
1.3953e-07
1.53758e-07
1.6945e-07
1.87151e-07
2.06019e-07
2.27295e-07
2.49513e-07
2.73761e-07
2.98793e-07
3.24194e-07
3.49388e-07
3.72799e-07
3.94849e-07
4.1361e-07
4.30315e-07
1.25804e-07
1.39708e-07
1.55085e-07
1.72359e-07
1.91062e-07
2.1176e-07
2.33863e-07
2.57754e-07
2.82785e-07
3.09136e-07
3.35511e-07
3.61989e-07
3.87393e-07
4.10549e-07
4.31388e-07
1.16021e-07
1.29792e-07
1.45067e-07
1.62245e-07
1.80911e-07
2.01611e-07
2.2349e-07
2.47356e-07
2.71723e-07
2.97694e-07
3.23755e-07
3.50011e-07
3.76879e-07
4.00827e-07
4.26392e-07
9.82724e-08
1.10365e-07
1.24186e-07
1.39619e-07
1.57013e-07
1.75958e-07
1.96958e-07
2.19168e-07
2.42987e-07
2.67619e-07
2.92826e-07
3.18707e-07
3.43342e-07
3.6957e-07
3.91749e-07
4.17675e-07
9.67645e-08
1.08951e-07
1.22959e-07
1.38738e-07
1.56525e-07
1.76e-07
1.97434e-07
2.20238e-07
2.44408e-07
2.69449e-07
2.9488e-07
3.20606e-07
3.45055e-07
3.70659e-07
3.92424e-07
4.1557e-07
1.00185e-07
1.12357e-07
1.26531e-07
1.42555e-07
1.60672e-07
1.80518e-07
2.02306e-07
2.25436e-07
2.50005e-07
2.75265e-07
3.01127e-07
3.27034e-07
3.52159e-07
3.77628e-07
4.00416e-07
4.22522e-07
1.10194e-07
1.21934e-07
1.35878e-07
1.51761e-07
1.69785e-07
1.89549e-07
2.11215e-07
2.34183e-07
2.58543e-07
2.83607e-07
3.09209e-07
3.3504e-07
3.60183e-07
3.85632e-07
4.08899e-07
4.31834e-07
1.29233e-07
1.396e-07
1.52416e-07
1.67405e-07
1.84557e-07
2.03571e-07
2.24373e-07
2.46587e-07
2.69977e-07
2.94229e-07
3.18783e-07
3.43758e-07
3.67923e-07
3.92579e-07
4.15091e-07
4.38114e-07
1.58428e-07
1.65967e-07
1.76333e-07
1.89248e-07
2.04469e-07
2.218e-07
2.4093e-07
2.61676e-07
2.8353e-07
3.06389e-07
3.29481e-07
3.53035e-07
3.75811e-07
3.99001e-07
4.20239e-07
4.42115e-07
1.93175e-07
1.96516e-07
2.03148e-07
2.12787e-07
2.25069e-07
2.3983e-07
2.56652e-07
2.75387e-07
2.95434e-07
3.16667e-07
3.38314e-07
3.60439e-07
3.82039e-07
4.03828e-07
4.24132e-07
4.44732e-07
2.18165e-07
2.18093e-07
2.21624e-07
2.28483e-07
2.3828e-07
2.50859e-07
2.65785e-07
2.82891e-07
3.01569e-07
3.2162e-07
3.42313e-07
3.63541e-07
3.84503e-07
4.05509e-07
4.25439e-07
4.45357e-07
4.51904e-06
4.47857e-06
4.4363e-06
4.39175e-06
4.33884e-06
4.28158e-06
4.23964e-06
4.21297e-06
4.19289e-06
4.16221e-06
4.11749e-06
4.07946e-06
4.47929e-06
4.43304e-06
4.39533e-06
4.35845e-06
4.32194e-06
4.27738e-06
4.22995e-06
4.19657e-06
4.16676e-06
4.15031e-06
4.12869e-06
4.0892e-06
4.48135e-06
4.42722e-06
4.37865e-06
4.3409e-06
4.30863e-06
4.27965e-06
4.25491e-06
4.21753e-06
4.18522e-06
4.1536e-06
4.12594e-06
4.11478e-06
4.09026e-06
4.42683e-06
4.37694e-06
4.32971e-06
4.28896e-06
4.25901e-06
4.23109e-06
4.21437e-06
4.19563e-06
4.1715e-06
4.15022e-06
4.12132e-06
4.10302e-06
4.08572e-06
4.36301e-06
4.31946e-06
4.27919e-06
4.23962e-06
4.20925e-06
4.18404e-06
4.16485e-06
4.15514e-06
4.14166e-06
4.13172e-06
4.11409e-06
4.10011e-06
4.08421e-06
4.31395e-06
4.28083e-06
4.24844e-06
4.21705e-06
4.18622e-06
4.15859e-06
4.13727e-06
4.11855e-06
4.11069e-06
4.1012e-06
4.10105e-06
4.09016e-06
4.0866e-06
4.08045e-06
4.20548e-06
4.18216e-06
4.1608e-06
4.14118e-06
4.12104e-06
4.10173e-06
4.0881e-06
4.07145e-06
4.06825e-06
4.05893e-06
4.06403e-06
4.06129e-06
4.06004e-06
4.06672e-06
4.08289e-06
4.07061e-06
4.0592e-06
4.05036e-06
4.0443e-06
4.03344e-06
4.03301e-06
4.02244e-06
4.02461e-06
4.01969e-06
4.02341e-06
4.02923e-06
4.02871e-06
4.0456e-06
3.95664e-06
3.94984e-06
3.94729e-06
3.94822e-06
3.94714e-06
3.95537e-06
3.955e-06
3.96587e-06
3.96885e-06
3.97727e-06
3.98294e-06
3.98802e-06
3.99834e-06
3.9992e-06
4.02082e-06
3.80211e-06
3.80888e-06
3.81551e-06
3.82922e-06
3.83787e-06
3.85619e-06
3.86916e-06
3.88826e-06
3.90542e-06
3.92335e-06
3.94049e-06
3.95487e-06
3.97121e-06
3.97753e-06
4.00022e-06
3.64447e-06
3.6632e-06
3.68118e-06
3.70521e-06
3.72677e-06
3.75363e-06
3.77923e-06
3.80779e-06
3.83484e-06
3.86404e-06
3.88993e-06
3.91508e-06
3.94022e-06
3.95457e-06
3.98286e-06
3.49563e-06
3.52479e-06
3.55352e-06
3.58764e-06
3.61992e-06
3.65758e-06
3.69205e-06
3.7315e-06
3.76631e-06
3.80409e-06
3.83869e-06
3.86991e-06
3.90437e-06
3.92337e-06
3.95994e-06
3.34069e-06
3.37015e-06
3.40691e-06
3.44435e-06
3.48764e-06
3.52901e-06
3.57568e-06
3.61931e-06
3.66535e-06
3.70925e-06
3.75097e-06
3.7934e-06
3.82764e-06
3.86842e-06
3.89103e-06
3.93237e-06
3.24795e-06
3.27907e-06
3.31955e-06
3.36336e-06
3.41307e-06
3.46262e-06
3.51519e-06
3.56663e-06
3.61733e-06
3.667e-06
3.71245e-06
3.75828e-06
3.79571e-06
3.83856e-06
3.8652e-06
3.90703e-06
3.21221e-06
3.23566e-06
3.27316e-06
3.31735e-06
3.36888e-06
3.42194e-06
3.47793e-06
3.5326e-06
3.58701e-06
3.63889e-06
3.68763e-06
3.73479e-06
3.77526e-06
3.81838e-06
3.84849e-06
3.88928e-06
3.25946e-06
3.25897e-06
3.28038e-06
3.31412e-06
3.35895e-06
3.408e-06
3.46191e-06
3.51539e-06
3.56963e-06
3.6218e-06
3.67138e-06
3.7194e-06
3.76162e-06
3.80525e-06
3.838e-06
3.87828e-06
3.41383e-06
3.36751e-06
3.35447e-06
3.36363e-06
3.38973e-06
3.42592e-06
3.46966e-06
3.51687e-06
3.56582e-06
3.61528e-06
3.66271e-06
3.70985e-06
3.7519e-06
3.79526e-06
3.8294e-06
3.86922e-06
3.66772e-06
3.55777e-06
3.49429e-06
3.46531e-06
3.46137e-06
3.4756e-06
3.50196e-06
3.53711e-06
3.57667e-06
3.61979e-06
3.66265e-06
3.70654e-06
3.74686e-06
3.78828e-06
3.82268e-06
3.8608e-06
3.96744e-06
3.78848e-06
3.66801e-06
3.59363e-06
3.55364e-06
3.54039e-06
3.54573e-06
3.56544e-06
3.5938e-06
3.6288e-06
3.66633e-06
3.70603e-06
3.74431e-06
3.78318e-06
3.81761e-06
3.85352e-06
4.18069e-06
3.95587e-06
3.79605e-06
3.68898e-06
3.62252e-06
3.58849e-06
3.57795e-06
3.58577e-06
3.60569e-06
3.63454e-06
3.66817e-06
3.70485e-06
3.74178e-06
3.77896e-06
3.81359e-06
3.84805e-06
1.04023e-05
1.02785e-05
1.01281e-05
9.96787e-06
9.78783e-06
9.61024e-06
9.48214e-06
9.39906e-06
9.33684e-06
9.24661e-06
9.13099e-06
9.03783e-06
1.03796e-05
1.02293e-05
1.00879e-05
9.94817e-06
9.81363e-06
9.66201e-06
9.51311e-06
9.40578e-06
9.31177e-06
9.25565e-06
9.19216e-06
9.08495e-06
1.05021e-05
1.03334e-05
1.01635e-05
1.00158e-05
9.88128e-06
9.76064e-06
9.65842e-06
9.52685e-06
9.41819e-06
9.31219e-06
9.21939e-06
9.17564e-06
9.10066e-06
1.04579e-05
1.02892e-05
1.01131e-05
9.94772e-06
9.81333e-06
9.68566e-06
9.5979e-06
9.50892e-06
9.41534e-06
9.33336e-06
9.23401e-06
9.16541e-06
9.0992e-06
1.04023e-05
1.02376e-05
1.00704e-05
9.89854e-06
9.75407e-06
9.62567e-06
9.52088e-06
9.44699e-06
9.37189e-06
9.31306e-06
9.23905e-06
9.18185e-06
9.11326e-06
1.04574e-05
1.03145e-05
1.01621e-05
1.00057e-05
9.84642e-06
9.69946e-06
9.57371e-06
9.46054e-06
9.38277e-06
9.30666e-06
9.26508e-06
9.19913e-06
9.16395e-06
9.12053e-06
1.03416e-05
1.01996e-05
1.00543e-05
9.91067e-06
9.76599e-06
9.62769e-06
9.51411e-06
9.39783e-06
9.32621e-06
9.24226e-06
9.20608e-06
9.15332e-06
9.11428e-06
9.09892e-06
1.02058e-05
1.00651e-05
9.92166e-06
9.78403e-06
9.65936e-06
9.52651e-06
9.43463e-06
9.32452e-06
9.25943e-06
9.18285e-06
9.1367e-06
9.10118e-06
9.05673e-06
9.05945e-06
1.02078e-05
1.0054e-05
9.90772e-06
9.77148e-06
9.63026e-06
9.52428e-06
9.40177e-06
9.32369e-06
9.236e-06
9.17633e-06
9.11987e-06
9.07173e-06
9.04474e-06
9.00051e-06
9.00994e-06
1.00413e-05
9.88593e-06
9.72944e-06
9.59972e-06
9.4598e-06
9.35991e-06
9.25595e-06
9.18313e-06
9.11889e-06
9.07119e-06
9.03376e-06
9.00212e-06
8.98572e-06
8.95342e-06
8.96554e-06
9.8618e-06
9.69818e-06
9.53585e-06
9.40324e-06
9.27355e-06
9.17433e-06
9.08689e-06
9.02433e-06
8.97272e-06
8.94392e-06
8.9198e-06
8.90806e-06
8.90883e-06
8.89294e-06
8.91995e-06
9.68112e-06
9.50201e-06
9.33308e-06
9.19685e-06
9.07182e-06
8.98191e-06
8.90207e-06
8.85631e-06
8.81597e-06
8.80156e-06
8.79521e-06
8.79366e-06
8.81595e-06
8.8083e-06
8.85464e-06
9.76165e-06
9.51835e-06
9.3177e-06
9.13719e-06
8.99808e-06
8.87503e-06
8.79225e-06
8.72478e-06
8.68734e-06
8.66625e-06
8.6588e-06
8.67219e-06
8.67789e-06
8.71678e-06
8.71824e-06
8.77611e-06
9.68145e-06
9.39333e-06
9.1629e-06
8.96808e-06
8.82134e-06
8.70287e-06
8.62223e-06
8.56784e-06
8.53747e-06
8.5303e-06
8.53248e-06
8.55727e-06
8.57363e-06
8.62057e-06
8.6356e-06
8.69863e-06
9.69166e-06
9.33864e-06
9.06434e-06
8.84498e-06
8.68336e-06
8.56175e-06
8.48256e-06
8.43274e-06
8.41132e-06
8.41098e-06
8.42419e-06
8.45547e-06
8.48352e-06
8.53538e-06
8.5629e-06
8.62897e-06
9.88442e-06
9.42107e-06
9.06873e-06
8.79753e-06
8.60277e-06
8.46164e-06
8.37399e-06
8.32116e-06
8.30207e-06
8.30629e-06
8.32668e-06
8.36458e-06
8.40231e-06
8.46024e-06
8.4987e-06
8.5681e-06
1.03713e-05
9.72954e-06
9.24347e-06
8.87805e-06
8.61576e-06
8.43147e-06
8.3141e-06
8.24634e-06
8.21783e-06
8.22069e-06
8.24227e-06
8.28441e-06
8.3285e-06
8.39154e-06
8.43946e-06
8.512e-06
1.11908e-05
1.03116e-05
9.63597e-06
9.12783e-06
8.7569e-06
8.4975e-06
8.32564e-06
8.22422e-06
8.17355e-06
8.16475e-06
8.18101e-06
8.22163e-06
8.26851e-06
8.33281e-06
8.38797e-06
8.4612e-06
1.22666e-05
1.11187e-05
1.02163e-05
9.52616e-06
9.01284e-06
8.64879e-06
8.40178e-06
8.24956e-06
8.16623e-06
8.13693e-06
8.14286e-06
8.17711e-06
8.22422e-06
8.28684e-06
8.34741e-06
8.41935e-06
1.31153e-05
1.17806e-05
1.07125e-05
9.88141e-06
9.25365e-06
8.80139e-06
8.48986e-06
8.29219e-06
8.17911e-06
8.13023e-06
8.12557e-06
8.15282e-06
8.19858e-06
8.25885e-06
8.32248e-06
8.39292e-06
1.7701e-05
1.7536e-05
1.7281e-05
1.69897e-05
1.6646e-05
1.63164e-05
1.60812e-05
1.59297e-05
1.58142e-05
1.56401e-05
1.54406e-05
1.52873e-05
1.77412e-05
1.75201e-05
1.72781e-05
1.70194e-05
1.6761e-05
1.64667e-05
1.6187e-05
1.59859e-05
1.58124e-05
1.57043e-05
1.55869e-05
1.5391e-05
1.8005e-05
1.77638e-05
1.74921e-05
1.72342e-05
1.69793e-05
1.67416e-05
1.6535e-05
1.62745e-05
1.60639e-05
1.58591e-05
1.56798e-05
1.55944e-05
1.54463e-05
1.80326e-05
1.77839e-05
1.74901e-05
1.71892e-05
1.69314e-05
1.66724e-05
1.64891e-05
1.62991e-05
1.61092e-05
1.59404e-05
1.57434e-05
1.56076e-05
1.54641e-05
1.80404e-05
1.77903e-05
1.75059e-05
1.71834e-05
1.68987e-05
1.66315e-05
1.64102e-05
1.62413e-05
1.60783e-05
1.59452e-05
1.57856e-05
1.56714e-05
1.55154e-05
1.8192e-05
1.79976e-05
1.77597e-05
1.74886e-05
1.71826e-05
1.68846e-05
1.6615e-05
1.6368e-05
1.61853e-05
1.60088e-05
1.59033e-05
1.57474e-05
1.56655e-05
1.55532e-05
1.81212e-05
1.79153e-05
1.76776e-05
1.74192e-05
1.71344e-05
1.68427e-05
1.65904e-05
1.63283e-05
1.61502e-05
1.59481e-05
1.58442e-05
1.57058e-05
1.56075e-05
1.55388e-05
1.80292e-05
1.78103e-05
1.75615e-05
1.72981e-05
1.70404e-05
1.67484e-05
1.65264e-05
1.62683e-05
1.60946e-05
1.58999e-05
1.57691e-05
1.5655e-05
1.55392e-05
1.54951e-05
1.81623e-05
1.79264e-05
1.76791e-05
1.74272e-05
1.71391e-05
1.69012e-05
1.66162e-05
1.64074e-05
1.61793e-05
1.60062e-05
1.58402e-05
1.56985e-05
1.55941e-05
1.54726e-05
1.54333e-05
1.80722e-05
1.7816e-05
1.75275e-05
1.7268e-05
1.69621e-05
1.6717e-05
1.64519e-05
1.6239e-05
1.60406e-05
1.58781e-05
1.5735e-05
1.5614e-05
1.55209e-05
1.54157e-05
1.53782e-05
1.79872e-05
1.76936e-05
1.73685e-05
1.70775e-05
1.67681e-05
1.65017e-05
1.62479e-05
1.60384e-05
1.58466e-05
1.57054e-05
1.55745e-05
1.54785e-05
1.5408e-05
1.53252e-05
1.53135e-05
1.79328e-05
1.7579e-05
1.72116e-05
1.68821e-05
1.65527e-05
1.62775e-05
1.60137e-05
1.58145e-05
1.56266e-05
1.54957e-05
1.53865e-05
1.52983e-05
1.52612e-05
1.51866e-05
1.52065e-05
1.84215e-05
1.79413e-05
1.75082e-05
1.70794e-05
1.67072e-05
1.63464e-05
1.60529e-05
1.57855e-05
1.55781e-05
1.54081e-05
1.52753e-05
1.51922e-05
1.51094e-05
1.50979e-05
1.50359e-05
1.50743e-05
1.86692e-05
1.80549e-05
1.75152e-05
1.70098e-05
1.65761e-05
1.61829e-05
1.5856e-05
1.55831e-05
1.53637e-05
1.52016e-05
1.50721e-05
1.50016e-05
1.4932e-05
1.49311e-05
1.48907e-05
1.49396e-05
1.91451e-05
1.83458e-05
1.76577e-05
1.70451e-05
1.65257e-05
1.60766e-05
1.57103e-05
1.54116e-05
1.51819e-05
1.50131e-05
1.48896e-05
1.48218e-05
1.4767e-05
1.47726e-05
1.47511e-05
1.48081e-05
2.00593e-05
1.89662e-05
1.80441e-05
1.72531e-05
1.65998e-05
1.60521e-05
1.56204e-05
1.52769e-05
1.50223e-05
1.48404e-05
1.4716e-05
1.46506e-05
1.46071e-05
1.46219e-05
1.46176e-05
1.46822e-05
2.16671e-05
2.01242e-05
1.88373e-05
1.77624e-05
1.68886e-05
1.61805e-05
1.56302e-05
1.52103e-05
1.49036e-05
1.46948e-05
1.45571e-05
1.44902e-05
1.44534e-05
1.44759e-05
1.44888e-05
1.45606e-05
2.409e-05
2.19723e-05
2.01895e-05
1.87084e-05
1.75035e-05
1.65464e-05
1.58072e-05
1.5259e-05
1.48651e-05
1.4604e-05
1.44375e-05
1.43576e-05
1.43213e-05
1.43449e-05
1.43723e-05
1.44479e-05
2.72169e-05
2.44592e-05
2.20896e-05
2.00964e-05
1.84598e-05
1.71623e-05
1.61656e-05
1.54347e-05
1.49188e-05
1.45794e-05
1.43695e-05
1.42642e-05
1.42221e-05
1.42405e-05
1.42783e-05
1.43537e-05
2.96881e-05
2.64975e-05
2.37101e-05
2.13284e-05
1.93478e-05
1.77641e-05
1.65445e-05
1.56495e-05
1.50217e-05
1.4608e-05
1.43548e-05
1.42224e-05
1.41706e-05
1.4181e-05
1.42233e-05
1.42964e-05
2.58836e-05
2.57678e-05
2.54826e-05
2.51224e-05
2.46365e-05
2.4165e-05
2.38264e-05
2.36167e-05
2.34543e-05
2.31828e-05
2.28992e-05
2.26896e-05
2.60124e-05
2.58115e-05
2.55387e-05
2.5214e-05
2.48621e-05
2.44335e-05
2.40247e-05
2.37331e-05
2.34855e-05
2.33261e-05
2.31546e-05
2.28587e-05
2.63653e-05
2.61429e-05
2.58556e-05
2.55571e-05
2.52278e-05
2.49033e-05
2.46073e-05
2.42198e-05
2.39068e-05
2.36019e-05
2.3332e-05
2.32109e-05
2.29759e-05
2.65009e-05
2.62705e-05
2.59439e-05
2.55706e-05
2.52347e-05
2.4869e-05
2.46082e-05
2.43218e-05
2.40371e-05
2.37782e-05
2.34743e-05
2.32728e-05
2.3033e-05
2.66096e-05
2.63756e-05
2.60611e-05
2.56469e-05
2.52632e-05
2.48767e-05
2.45546e-05
2.42943e-05
2.40482e-05
2.38399e-05
2.35822e-05
2.34153e-05
2.31476e-05
2.67843e-05
2.66504e-05
2.64303e-05
2.61346e-05
2.57417e-05
2.53315e-05
2.49343e-05
2.45623e-05
2.42756e-05
2.39961e-05
2.38314e-05
2.35703e-05
2.34446e-05
2.32399e-05
2.67944e-05
2.66408e-05
2.64152e-05
2.6133e-05
2.57723e-05
2.53652e-05
2.49922e-05
2.45873e-05
2.43022e-05
2.39691e-05
2.37979e-05
2.35575e-05
2.33998e-05
2.32549e-05
2.67852e-05
2.6607e-05
2.63594e-05
2.60582e-05
2.57349e-05
2.53217e-05
2.49895e-05
2.45854e-05
2.43014e-05
2.3972e-05
2.3749e-05
2.35367e-05
2.33431e-05
2.32276e-05
2.69631e-05
2.67774e-05
2.65507e-05
2.62918e-05
2.59412e-05
2.56372e-05
2.52272e-05
2.4907e-05
2.45403e-05
2.42502e-05
2.39582e-05
2.37102e-05
2.35051e-05
2.32943e-05
2.31762e-05
2.69973e-05
2.67827e-05
2.64863e-05
2.6207e-05
2.5817e-05
2.54873e-05
2.50971e-05
2.47608e-05
2.44278e-05
2.41447e-05
2.38764e-05
2.365e-05
2.34521e-05
2.32593e-05
2.31369e-05
2.70723e-05
2.68009e-05
2.64413e-05
2.61e-05
2.56902e-05
2.5311e-05
2.49201e-05
2.4577e-05
2.42376e-05
2.39732e-05
2.371e-05
2.35092e-05
2.33338e-05
2.31645e-05
2.30783e-05
2.72382e-05
2.687e-05
2.64363e-05
2.60189e-05
2.55584e-05
2.51444e-05
2.47152e-05
2.43657e-05
2.40128e-05
2.37428e-05
2.3497e-05
2.32919e-05
2.31575e-05
2.29904e-05
2.29475e-05
2.80796e-05
2.7556e-05
2.70581e-05
2.65133e-05
2.60078e-05
2.54722e-05
2.50003e-05
2.45366e-05
2.41452e-05
2.37936e-05
2.34977e-05
2.32726e-05
2.30592e-05
2.29533e-05
2.27957e-05
2.2776e-05
2.88376e-05
2.81071e-05
2.7431e-05
2.67434e-05
2.61093e-05
2.54877e-05
2.4925e-05
2.44149e-05
2.39684e-05
2.35987e-05
2.32805e-05
2.30547e-05
2.28457e-05
2.27434e-05
2.26082e-05
2.26005e-05
3.00553e-05
2.90366e-05
2.81062e-05
2.72158e-05
2.64012e-05
2.56408e-05
2.49641e-05
2.43642e-05
2.38555e-05
2.34378e-05
2.30967e-05
2.28515e-05
2.26458e-05
2.25418e-05
2.24228e-05
2.24238e-05
3.21456e-05
3.06502e-05
2.93093e-05
2.80773e-05
2.69819e-05
2.59908e-05
2.51385e-05
2.44014e-05
2.37954e-05
2.33085e-05
2.29278e-05
2.26574e-05
2.24456e-05
2.23427e-05
2.22367e-05
2.22452e-05
3.55994e-05
3.33575e-05
3.13706e-05
2.95957e-05
2.80457e-05
2.66905e-05
2.55458e-05
2.45935e-05
2.38263e-05
2.32331e-05
2.27826e-05
2.2475e-05
2.22475e-05
2.21411e-05
2.20492e-05
2.20644e-05
4.07074e-05
3.75121e-05
3.46459e-05
3.20937e-05
2.98606e-05
2.7944e-05
2.6342e-05
2.50465e-05
2.40277e-05
2.32648e-05
2.27048e-05
2.23333e-05
2.20773e-05
2.19551e-05
2.18739e-05
2.18908e-05
4.73217e-05
4.30588e-05
3.91488e-05
3.56153e-05
3.24878e-05
2.98041e-05
2.75749e-05
2.57979e-05
2.44318e-05
2.34305e-05
2.2721e-05
2.22563e-05
2.19574e-05
2.18071e-05
2.17304e-05
2.17424e-05
5.25259e-05
4.75527e-05
4.29183e-05
3.86621e-05
3.48411e-05
3.15278e-05
2.8764e-05
2.65611e-05
2.48816e-05
2.36602e-05
2.28106e-05
2.22558e-05
2.19119e-05
2.17313e-05
2.16512e-05
2.16547e-05
3.47087e-05
3.47267e-05
3.45136e-05
3.41978e-05
3.36449e-05
3.30843e-05
3.26702e-05
3.24312e-05
3.22423e-05
3.18695e-05
3.15171e-05
3.12631e-05
3.49288e-05
3.48441e-05
3.46372e-05
3.43469e-05
3.39809e-05
3.34715e-05
3.29663e-05
3.2609e-05
3.23116e-05
3.21103e-05
3.1894e-05
3.14993e-05
3.52928e-05
3.51766e-05
3.49752e-05
3.47375e-05
3.44243e-05
3.40897e-05
3.37585e-05
3.3281e-05
3.28894e-05
3.2506e-05
3.21564e-05
3.2015e-05
3.16909e-05
3.55331e-05
3.54238e-05
3.51742e-05
3.4832e-05
3.4508e-05
3.4108e-05
3.38245e-05
3.34802e-05
3.31272e-05
3.27976e-05
3.23962e-05
3.21453e-05
3.18027e-05
3.57434e-05
3.56389e-05
3.54133e-05
3.50134e-05
3.46225e-05
3.41841e-05
3.38182e-05
3.35024e-05
3.32047e-05
3.29436e-05
3.25918e-05
3.23917e-05
3.20031e-05
3.58305e-05
3.58741e-05
3.57923e-05
3.55987e-05
3.52291e-05
3.4801e-05
3.43423e-05
3.38998e-05
3.35444e-05
3.31885e-05
3.29929e-05
3.26319e-05
3.24796e-05
3.21716e-05
3.59227e-05
3.59491e-05
3.58632e-05
3.56884e-05
3.53689e-05
3.49432e-05
3.45193e-05
3.40225e-05
3.36677e-05
3.32217e-05
3.30085e-05
3.26712e-05
3.24712e-05
3.22402e-05
3.60011e-05
3.60007e-05
3.58912e-05
3.56859e-05
3.5419e-05
3.49849e-05
3.46164e-05
3.41168e-05
3.37618e-05
3.33133e-05
3.30177e-05
3.27086e-05
3.245e-05
3.22517e-05
3.60857e-05
3.60978e-05
3.60386e-05
3.59192e-05
3.5643e-05
3.53971e-05
3.49642e-05
3.46091e-05
3.41554e-05
3.37875e-05
3.33869e-05
3.30483e-05
3.27418e-05
3.24491e-05
3.22367e-05
3.62465e-05
3.62365e-05
3.60905e-05
3.59475e-05
3.5616e-05
3.53257e-05
3.49132e-05
3.45313e-05
3.41154e-05
3.3751e-05
3.33747e-05
3.30568e-05
3.27489e-05
3.24735e-05
3.22448e-05
3.64957e-05
3.64259e-05
3.62045e-05
3.59772e-05
3.56152e-05
3.52488e-05
3.4821e-05
3.44229e-05
3.39856e-05
3.36347e-05
3.32526e-05
3.29581e-05
3.26664e-05
3.24102e-05
3.22253e-05
3.69142e-05
3.67282e-05
3.64165e-05
3.60851e-05
3.56456e-05
3.52201e-05
3.47222e-05
3.42966e-05
3.38232e-05
3.34431e-05
3.30665e-05
3.2747e-05
3.24976e-05
3.22308e-05
3.20983e-05
3.79454e-05
3.76018e-05
3.72571e-05
3.68004e-05
3.63446e-05
3.57903e-05
3.52656e-05
3.46967e-05
3.41858e-05
3.36858e-05
3.32426e-05
3.28695e-05
3.2515e-05
3.22886e-05
3.20203e-05
3.19115e-05
3.92786e-05
3.86897e-05
3.81206e-05
3.7473e-05
3.68306e-05
3.61389e-05
3.54608e-05
3.47939e-05
3.41694e-05
3.36079e-05
3.30989e-05
3.26948e-05
3.23222e-05
3.20806e-05
3.18248e-05
3.17238e-05
4.13494e-05
4.04163e-05
3.95197e-05
3.85934e-05
3.76834e-05
3.67664e-05
3.58869e-05
3.50474e-05
3.42838e-05
3.36081e-05
3.30227e-05
3.25556e-05
3.21564e-05
3.18908e-05
3.16361e-05
3.15358e-05
4.48474e-05
4.3307e-05
4.18541e-05
4.04346e-05
3.90935e-05
3.77966e-05
3.66028e-05
3.54993e-05
3.45278e-05
3.36889e-05
3.29899e-05
3.24415e-05
3.19926e-05
3.17028e-05
3.14411e-05
3.13386e-05
5.05655e-05
4.80407e-05
4.56932e-05
4.34779e-05
4.1431e-05
3.95279e-05
3.78139e-05
3.62926e-05
3.49857e-05
3.39e-05
3.30205e-05
3.23565e-05
3.18341e-05
3.15055e-05
3.1235e-05
3.1128e-05
5.90608e-05
5.52855e-05
5.17216e-05
4.83632e-05
4.52442e-05
4.23915e-05
3.98495e-05
3.76545e-05
3.5817e-05
3.4343e-05
3.31888e-05
3.23457e-05
3.17182e-05
3.13246e-05
3.10376e-05
3.0917e-05
7.02191e-05
6.50154e-05
5.99906e-05
5.518e-05
5.065e-05
4.64954e-05
4.28068e-05
3.96607e-05
3.70821e-05
3.50631e-05
3.35355e-05
3.2445e-05
3.16768e-05
3.11929e-05
3.0878e-05
3.07331e-05
7.90052e-05
7.28403e-05
6.68108e-05
6.09553e-05
5.53634e-05
5.01736e-05
4.55327e-05
4.15632e-05
3.83261e-05
3.58114e-05
3.3942e-05
3.26216e-05
3.172e-05
3.11495e-05
3.08016e-05
3.06297e-05
4.42389e-05
4.44364e-05
4.43811e-05
4.4227e-05
4.37059e-05
4.3131e-05
4.26805e-05
4.24502e-05
4.22625e-05
4.17893e-05
4.13908e-05
4.11062e-05
4.4523e-05
4.46192e-05
4.4559e-05
4.44111e-05
4.41314e-05
4.36223e-05
4.30709e-05
4.26843e-05
4.23724e-05
4.214e-05
4.18938e-05
4.14082e-05
4.48205e-05
4.48661e-05
4.48269e-05
4.47403e-05
4.45423e-05
4.42953e-05
4.4008e-05
4.34997e-05
4.30675e-05
4.26413e-05
4.22307e-05
4.20872e-05
4.16799e-05
4.51263e-05
4.52121e-05
4.51298e-05
4.49196e-05
4.47063e-05
4.4368e-05
4.41379e-05
4.37978e-05
4.34179e-05
4.30517e-05
4.25735e-05
4.22962e-05
4.18544e-05
4.53987e-05
4.55129e-05
4.54815e-05
4.52065e-05
4.49154e-05
4.45174e-05
4.41881e-05
4.38757e-05
4.35734e-05
4.32981e-05
4.28681e-05
4.26605e-05
4.21546e-05
4.52679e-05
4.55847e-05
4.57414e-05
4.57681e-05
4.55411e-05
4.52117e-05
4.47841e-05
4.43537e-05
4.39891e-05
4.36022e-05
4.34191e-05
4.29794e-05
4.28261e-05
4.24147e-05
4.54012e-05
4.57173e-05
4.5883e-05
4.59431e-05
4.57935e-05
4.5473e-05
4.50974e-05
4.45909e-05
4.42304e-05
4.37128e-05
4.34992e-05
4.30873e-05
4.28727e-05
4.25566e-05
4.55317e-05
4.58313e-05
4.59858e-05
4.60119e-05
4.59382e-05
4.56133e-05
4.53161e-05
4.48039e-05
4.44474e-05
4.39206e-05
4.35907e-05
4.3204e-05
4.29063e-05
4.26259e-05
4.53598e-05
4.57025e-05
4.59456e-05
4.61065e-05
4.6049e-05
4.60041e-05
4.56829e-05
4.5406e-05
4.49517e-05
4.45771e-05
4.41126e-05
4.37201e-05
4.33308e-05
4.29784e-05
4.26703e-05
4.56091e-05
4.59522e-05
4.61061e-05
4.62542e-05
4.61377e-05
4.60348e-05
4.57375e-05
4.5427e-05
4.50168e-05
4.46432e-05
4.42066e-05
4.38344e-05
4.34328e-05
4.30956e-05
4.27554e-05
4.60091e-05
4.63039e-05
4.63878e-05
4.6443e-05
4.62959e-05
4.60981e-05
4.57711e-05
4.54379e-05
4.49936e-05
4.4629e-05
4.41745e-05
4.38238e-05
4.34283e-05
4.31007e-05
4.28079e-05
4.66761e-05
4.68513e-05
4.68454e-05
4.6783e-05
4.65409e-05
4.62664e-05
4.58392e-05
4.54568e-05
4.49533e-05
4.45327e-05
4.4067e-05
4.3665e-05
4.33066e-05
4.29494e-05
4.2715e-05
4.77335e-05
4.77596e-05
4.77651e-05
4.7597e-05
4.73869e-05
4.6999e-05
4.65883e-05
4.60533e-05
4.55389e-05
4.49739e-05
4.4444e-05
4.39555e-05
4.34801e-05
4.31302e-05
4.27524e-05
4.25372e-05
4.96828e-05
4.94489e-05
4.92042e-05
4.88151e-05
4.8373e-05
4.78041e-05
4.71807e-05
4.64936e-05
4.57985e-05
4.51166e-05
4.44629e-05
4.38967e-05
4.33669e-05
4.29711e-05
4.25846e-05
4.23654e-05
5.26867e-05
5.20892e-05
5.14715e-05
5.07476e-05
4.99639e-05
4.90888e-05
4.81741e-05
4.7224e-05
4.62974e-05
4.5416e-05
4.46112e-05
4.39175e-05
4.33127e-05
4.28549e-05
4.24416e-05
4.22049e-05
5.77629e-05
5.6474e-05
5.5185e-05
5.38336e-05
5.24755e-05
5.10699e-05
4.96904e-05
4.83301e-05
4.70591e-05
4.589e-05
4.48658e-05
4.40064e-05
4.32809e-05
4.27525e-05
4.22945e-05
4.20336e-05
6.59755e-05
6.35442e-05
6.11724e-05
5.8813e-05
5.65184e-05
5.42633e-05
5.21143e-05
5.00943e-05
4.82626e-05
4.66506e-05
4.52795e-05
4.4178e-05
4.32793e-05
4.26457e-05
4.21302e-05
4.18373e-05
7.81461e-05
7.43219e-05
7.05268e-05
6.6753e-05
6.30494e-05
5.94591e-05
5.60689e-05
5.29655e-05
5.02231e-05
4.78989e-05
4.5989e-05
4.45107e-05
4.33642e-05
4.25696e-05
4.19745e-05
4.16317e-05
9.42996e-05
8.88478e-05
8.33261e-05
7.77535e-05
7.22025e-05
6.6795e-05
6.16918e-05
5.70619e-05
5.30387e-05
4.97064e-05
4.70531e-05
4.50529e-05
4.35761e-05
4.25654e-05
4.18656e-05
4.14526e-05
0.000107033
0.000100444
9.37248e-05
8.68776e-05
7.99782e-05
7.31822e-05
6.67105e-05
6.08036e-05
5.56711e-05
5.14385e-05
4.81137e-05
4.56362e-05
4.3856e-05
4.26464e-05
4.18462e-05
4.13652e-05
5.47881e-05
5.51664e-05
5.53095e-05
5.53922e-05
5.49868e-05
5.44655e-05
5.40115e-05
5.38234e-05
5.36632e-05
5.3092e-05
5.26645e-05
5.23589e-05
5.50868e-05
5.53837e-05
5.55076e-05
5.55769e-05
5.54671e-05
5.50388e-05
5.44884e-05
5.41048e-05
5.38135e-05
5.35568e-05
5.32951e-05
5.27253e-05
5.52534e-05
5.54791e-05
5.56345e-05
5.57461e-05
5.57346e-05
5.56582e-05
5.54939e-05
5.50163e-05
5.45798e-05
5.41492e-05
5.36938e-05
5.35636e-05
5.30799e-05
5.55642e-05
5.58779e-05
5.60086e-05
5.59938e-05
5.59622e-05
5.57712e-05
5.56685e-05
5.53998e-05
5.50357e-05
5.46698e-05
5.41369e-05
5.38543e-05
5.33206e-05
5.58315e-05
5.62125e-05
5.64372e-05
5.63655e-05
5.6257e-05
5.59842e-05
5.57689e-05
5.55258e-05
5.52668e-05
5.50208e-05
5.45327e-05
5.43403e-05
5.37263e-05
5.53556e-05
5.6005e-05
5.64597e-05
5.67844e-05
5.67897e-05
5.66579e-05
5.63493e-05
5.60142e-05
5.57067e-05
5.53382e-05
5.52146e-05
5.47238e-05
5.45964e-05
5.40869e-05
5.54546e-05
5.61326e-05
5.66217e-05
5.70063e-05
5.71278e-05
5.7024e-05
5.6794e-05
5.63645e-05
5.60705e-05
5.55311e-05
5.53627e-05
5.49062e-05
5.47083e-05
5.43147e-05
5.55671e-05
5.62512e-05
5.67561e-05
5.71144e-05
5.73453e-05
5.72505e-05
5.71345e-05
5.66998e-05
5.64217e-05
5.58694e-05
5.55505e-05
5.5114e-05
5.48081e-05
5.44541e-05
5.49826e-05
5.57478e-05
5.63887e-05
5.69321e-05
5.72058e-05
5.74829e-05
5.74006e-05
5.73213e-05
5.69627e-05
5.66654e-05
5.61956e-05
5.57953e-05
5.53524e-05
5.49691e-05
5.4573e-05
5.52535e-05
5.60537e-05
5.66157e-05
5.7171e-05
5.7397e-05
5.76116e-05
5.75616e-05
5.74476e-05
5.7145e-05
5.68483e-05
5.64157e-05
5.60382e-05
5.55726e-05
5.52031e-05
5.47583e-05
5.57616e-05
5.65331e-05
5.70439e-05
5.75108e-05
5.77181e-05
5.78305e-05
5.77402e-05
5.76002e-05
5.72555e-05
5.69661e-05
5.65051e-05
5.61506e-05
5.56814e-05
5.53086e-05
5.49115e-05
5.66701e-05
5.73239e-05
5.77552e-05
5.81034e-05
5.82069e-05
5.8233e-05
5.80165e-05
5.78058e-05
5.73811e-05
5.70095e-05
5.65189e-05
5.60852e-05
5.56436e-05
5.52167e-05
5.48813e-05
5.76957e-05
5.81951e-05
5.86713e-05
5.89287e-05
5.91118e-05
5.90437e-05
5.89001e-05
5.85393e-05
5.81486e-05
5.76236e-05
5.70906e-05
5.65447e-05
5.599e-05
5.5533e-05
5.50589e-05
5.47329e-05
6.03809e-05
6.06027e-05
6.07999e-05
6.0806e-05
6.07125e-05
6.04197e-05
6.00042e-05
5.94343e-05
5.87898e-05
5.80824e-05
5.73558e-05
5.66704e-05
5.60107e-05
5.54653e-05
5.49494e-05
5.45986e-05
6.45208e-05
6.43608e-05
6.41368e-05
6.37469e-05
6.32323e-05
6.25463e-05
6.17413e-05
6.08089e-05
5.98271e-05
5.88174e-05
5.7846e-05
5.69472e-05
5.61452e-05
5.54828e-05
5.48987e-05
5.45008e-05
7.1472e-05
7.05507e-05
6.95411e-05
6.8382e-05
6.71375e-05
6.57578e-05
6.43207e-05
6.28128e-05
6.1327e-05
5.98777e-05
5.855e-05
5.7372e-05
5.63506e-05
5.55466e-05
5.48616e-05
5.44025e-05
8.23812e-05
8.02332e-05
7.80143e-05
7.5683e-05
7.33039e-05
7.08462e-05
6.8385e-05
6.59494e-05
6.36353e-05
6.14939e-05
5.95953e-05
5.79946e-05
5.66515e-05
5.56373e-05
5.48148e-05
5.4275e-05
9.81581e-05
9.46748e-05
9.10172e-05
8.71666e-05
8.31697e-05
7.90672e-05
7.49713e-05
7.10093e-05
6.73271e-05
6.4049e-05
6.12391e-05
5.89635e-05
5.71446e-05
5.58089e-05
5.47941e-05
5.41357e-05
0.000119067
0.000113997
0.000108589
0.000102822
9.67402e-05
9.04539e-05
8.4157e-05
7.80926e-05
7.25135e-05
6.76353e-05
6.35606e-05
6.03428e-05
5.78802e-05
5.611e-05
5.4846e-05
5.40289e-05
0.000135517
0.000129258
0.000122599
0.000115479
0.000107922
0.000100044
9.20808e-05
8.43467e-05
7.71947e-05
7.09343e-05
6.57415e-05
6.16757e-05
5.86302e-05
5.64664e-05
5.49751e-05
5.40125e-05
6.68004e-05
6.73279e-05
6.766e-05
6.79879e-05
6.77363e-05
6.73036e-05
6.68601e-05
6.67318e-05
6.66159e-05
6.59503e-05
6.54945e-05
6.51701e-05
6.70639e-05
6.75401e-05
6.78372e-05
6.81406e-05
6.82371e-05
6.79406e-05
6.74165e-05
6.70514e-05
6.68048e-05
6.65246e-05
6.62545e-05
6.56006e-05
6.70653e-05
6.7453e-05
6.77914e-05
6.80952e-05
6.82902e-05
6.84219e-05
6.84336e-05
6.80288e-05
6.76078e-05
6.72014e-05
6.67085e-05
6.66005e-05
6.60408e-05
6.73219e-05
6.78525e-05
6.81913e-05
6.83814e-05
6.85508e-05
6.85507e-05
6.86228e-05
6.84772e-05
6.81583e-05
6.78206e-05
6.72466e-05
6.69728e-05
6.63512e-05
6.75144e-05
6.81618e-05
6.86482e-05
6.88044e-05
6.8909e-05
6.88087e-05
6.87549e-05
6.86341e-05
6.84529e-05
6.82733e-05
6.77426e-05
6.75789e-05
6.68637e-05
6.66134e-05
6.75996e-05
6.8359e-05
6.90003e-05
6.92734e-05
6.9388e-05
6.92509e-05
6.90652e-05
6.88677e-05
6.85549e-05
6.85306e-05
6.80125e-05
6.79337e-05
6.73312e-05
6.65973e-05
6.76473e-05
6.84732e-05
6.92116e-05
6.96489e-05
6.98264e-05
6.98056e-05
6.95145e-05
6.93447e-05
6.88248e-05
6.87401e-05
6.82653e-05
6.81133e-05
6.76507e-05
6.66139e-05
6.76994e-05
6.85771e-05
6.93061e-05
6.98953e-05
7.01048e-05
7.02495e-05
6.99603e-05
6.98274e-05
6.92967e-05
6.90287e-05
6.85681e-05
6.82826e-05
6.78661e-05
6.55404e-05
6.67334e-05
6.77932e-05
6.87518e-05
6.9404e-05
7.00659e-05
7.03029e-05
7.05119e-05
7.03263e-05
7.01797e-05
6.97598e-05
6.93947e-05
6.89266e-05
6.8541e-05
6.80665e-05
6.57726e-05