/*--------------------------------*- C++ -*----------------------------------*\
  =========                 |
  \\      /  F ield         | OpenFOAM: The Open Source CFD Toolbox
   \\    /   O peration     | Website:  https://openfoam.org
    \\  /    A nd           | Version:  6
     \\/     M anipulation  |
\*---------------------------------------------------------------------------*/
FoamFile
{
    version     2.0;
    format      ascii;
    class       volScalarField;
    location    "1.2";
    object      omega;
}
// * * * * * * * * * * * * * * * * * * * * * * * * * * * * * * * * * * * * * //

dimensions      [0 0 -1 0 0 0 0];

internalField   nonuniform List<scalar> 
63432
(
843.917
843.917
843.917
843.917
843.917
843.917
843.917
843.917
843.917
843.917
843.917
843.917
843.917
843.917
843.917
843.917
843.917
843.917
843.917
843.917
843.917
843.917
843.917
843.917
843.917
843.917
843.917
843.917
843.917
843.917
843.917
843.917
843.917
843.917
843.917
843.917
843.917
843.917
843.917
843.917
843.917
843.917
843.917
843.917
843.917
843.917
843.917
843.917
843.917
843.917
843.917
843.917
843.917
843.917
843.917
843.917
843.917
843.917
843.917
843.917
843.917
843.917
843.917
843.917
843.917
843.917
843.917
843.917
843.917
843.917
843.917
843.917
843.917
843.917
843.917
843.917
843.917
843.917
843.917
843.917
843.917
843.917
843.917
843.917
843.917
843.917
843.917
843.917
843.917
843.917
843.917
843.917
843.917
843.917
843.917
843.917
843.917
843.917
843.917
843.917
843.917
843.917
843.917
843.917
843.917
843.917
843.917
843.917
843.917
843.917
843.917
843.917
843.917
843.917
843.917
843.917
843.917
843.917
843.917
843.917
843.917
843.917
843.917
843.917
843.917
843.917
843.917
843.917
843.917
843.917
843.917
843.917
843.917
843.917
843.917
843.917
843.917
843.917
843.917
843.917
843.917
843.917
843.917
843.917
843.917
843.917
843.917
843.917
843.917
843.917
843.917
843.917
843.917
843.917
843.917
843.917
843.917
843.917
843.917
843.917
843.917
843.917
843.917
843.917
843.917
843.917
843.917
843.917
843.917
843.917
843.917
843.917
843.917
843.917
843.917
843.917
843.917
843.917
843.917
843.917
843.917
843.917
843.917
843.917
843.917
843.917
843.917
843.917
843.917
843.917
843.917
843.917
843.917
843.917
843.917
843.917
843.917
843.917
843.917
843.917
843.917
843.917
843.917
843.917
843.917
843.917
843.917
843.917
843.917
843.917
843.917
843.917
843.917
843.917
843.917
843.917
843.917
843.917
843.917
843.917
843.917
843.917
843.917
843.917
843.917
843.917
843.917
843.917
843.917
843.917
843.917
843.917
843.917
843.917
843.917
843.917
843.917
843.917
843.917
843.917
843.917
843.917
843.917
843.917
843.917
843.917
843.917
843.917
843.917
843.917
843.917
843.917
843.917
843.917
843.917
843.917
843.917
843.917
843.917
843.917
843.917
843.917
843.917
843.917
843.917
843.917
843.917
843.917
843.917
843.917
843.917
843.917
843.917
843.917
843.917
843.917
843.917
843.917
843.917
843.917
843.917
843.917
843.917
843.917
843.917
843.917
843.917
843.917
843.917
843.917
843.917
843.917
843.917
264.557
264.706
264.966
265.252
265.461
265.587
265.639
265.605
265.489
265.35
265.294
265.233
263.776
264.026
264.32
264.583
264.778
264.913
265.025
265.105
265.15
265.114
265.04
265.059
263.18
263.285
263.585
263.946
264.271
264.511
264.651
264.754
264.849
264.957
265.072
265.078
265.089
262.352
262.52
262.865
263.289
263.699
264.037
264.266
264.405
264.518
264.605
264.755
264.873
264.952
261.198
261.467
261.881
262.363
262.847
263.291
263.666
263.934
264.143
264.271
264.403
264.539
264.664
259.511
259.786
260.228
260.77
261.341
261.895
262.412
262.892
263.298
263.654
263.915
264.12
264.268
264.38
257.479
258.046
258.741
259.489
260.225
260.903
261.508
262.066
262.55
263.016
263.413
263.755
264.024
264.163
255.053
255.962
256.966
257.982
258.948
259.824
260.577
261.253
261.824
262.356
262.837
263.265
263.672
263.905
251.073
252.28
253.594
254.948
256.272
257.503
258.621
259.578
260.418
261.132
261.753
262.308
262.786
263.26
263.565
247.447
249.212
251.001
252.753
254.417
255.94
257.315
258.513
259.553
260.449
261.209
261.864
262.411
262.927
263.271
243.539
245.945
248.271
250.469
252.502
254.34
255.983
257.425
258.682
259.767
260.699
261.487
262.137
262.72
263.103
239.608
242.707
245.605
248.269
250.682
252.833
254.741
256.407
257.866
259.123
260.209
261.138
261.899
262.58
263.018
231.927
236.009
239.793
243.249
246.365
249.145
251.594
253.746
255.612
257.23
258.622
259.809
260.834
261.673
262.432
262.925
228.211
233.066
237.477
241.439
244.961
248.067
250.776
253.13
255.157
256.891
258.367
259.613
260.672
261.532
262.308
262.831
225.554
231.041
235.956
240.322
244.163
247.517
250.418
252.914
255.042
256.849
258.369
259.641
260.705
261.564
262.32
262.841
224.045
230.002
235.282
239.925
243.969
247.467
250.465
253.023
255.187
257.012
258.54
259.811
260.868
261.722
262.458
262.973
223.361
229.712
235.284
240.117
244.271
247.817
250.824
253.364
255.5
257.292
258.791
260.036
261.072
261.91
262.625
263.133
222.699
229.523
235.443
240.497
244.76
248.33
251.311
253.797
255.874
257.606
259.054
260.257
261.259
262.073
262.761
263.262
221.315
228.727
235.128
240.522
244.99
248.651
251.646
254.102
256.132
257.817
259.223
260.394
261.369
262.167
262.834
263.338
219.725
227.56
234.358
240.074
244.767
248.561
251.619
254.094
256.122
257.799
259.199
260.368
261.344
262.148
262.815
263.335
132
131.517
131.28
131.176
131.05
130.856
130.648
130.44
130.214
129.958
129.703
129.448
131.329
130.913
130.703
130.596
130.5
130.361
130.191
130.033
129.868
129.703
129.513
129.326
131.466
130.807
130.432
130.252
130.168
130.102
130.014
129.885
129.756
129.637
129.536
129.427
129.297
130.834
130.225
129.878
129.723
129.672
129.648
129.614
129.546
129.456
129.367
129.295
129.241
129.185
130.063
129.503
129.19
129.054
129.031
129.057
129.089
129.105
129.093
129.059
129.017
128.988
128.976
129.846
129.122
128.648
128.39
128.292
128.294
128.356
128.445
128.541
128.624
128.691
128.72
128.736
128.747
128.534
127.954
127.608
127.453
127.431
127.491
127.598
127.728
127.881
128.034
128.199
128.334
128.442
128.514
126.923
126.514
126.328
126.317
126.423
126.586
126.784
126.979
127.193
127.399
127.622
127.84
128.044
128.21
125.444
124.987
124.788
124.799
124.96
125.229
125.534
125.863
126.174
126.481
126.77
127.049
127.323
127.586
127.823
122.861
122.698
122.761
123.014
123.384
123.841
124.322
124.809
125.275
125.714
126.124
126.498
126.845
127.168
127.449
119.828
120.03
120.422
120.962
121.588
122.265
122.952
123.627
124.27
124.874
125.434
125.942
126.395
126.803
127.143
116.389
117.029
117.806
118.683
119.604
120.544
121.463
122.354
123.191
123.975
124.696
125.347
125.929
126.438
126.862
111.666
112.669
113.807
115.022
116.284
117.542
118.779
119.962
121.081
122.123
123.079
123.952
124.73
125.426
126.034
126.539
107.143
108.777
110.471
112.179
113.872
115.512
117.079
118.55
119.913
121.16
122.282
123.288
124.171
124.949
125.631
126.193
102.534
104.826
107.112
109.347
111.508
113.559
115.483
117.256
118.872
120.323
121.61
122.744
123.727
124.574
125.315
125.916
98.0256
100.948
103.821
106.593
109.234
111.705
113.987
116.059
117.92
119.57
121.016
122.275
123.359
124.284
125.084
125.731
93.7966
97.2749
100.699
103.992
107.1
109.978
112.6
114.953
117.039
118.871
120.462
121.837
123.015
124.016
124.876
125.572
89.9406
93.8462
97.7463
101.524
105.082
108.356
111.307
113.927
116.224
118.222
119.945
121.424
122.686
123.754
124.667
125.408
86.6662
90.7827
95.0082
99.1807
103.147
106.798
110.069
112.948
115.447
117.602
119.449
121.025
122.366
123.497
124.458
125.244
84.6318
88.752
93.0828
97.4468
101.654
105.555
109.055
112.125
114.78
117.058
119.005
120.663
122.071
123.259
124.266
125.094
82.8422
82.012
81.4013
80.9565
80.5743
80.2003
79.8647
79.5668
79.2792
78.9799
78.6826
78.3934
82.4168
81.619
81.0448
80.6254
80.2845
79.9533
79.6274
79.3446
79.0738
78.8334
78.5924
78.3433
83.0959
82.0685
81.2892
80.7314
80.3268
80.0058
79.7224
79.4267
79.1612
78.9157
78.6975
78.5087
78.3114
82.7135
81.7096
80.9432
80.3899
79.9975
79.6901
79.4366
79.192
78.9504
78.736
78.5378
78.3728
78.2308
82.2685
81.2841
80.5321
79.9806
79.5918
79.3052
79.0744
78.8796
78.6863
78.5103
78.3442
78.1991
78.0929
82.8708
81.714
80.7702
80.0391
79.5005
79.113
78.8386
78.6323
78.4795
78.343
78.2298
78.1106
78.0016
77.926
82.1066
81.0059
80.1213
79.4396
78.9326
78.5663
78.3079
78.1153
77.9961
77.9008
77.8528
77.8066
77.753
77.7315
81.1387
80.1057
79.2934
78.684
78.2439
77.9224
77.7133
77.5483
77.4609
77.4004
77.3862
77.4062
77.4164
77.4707
81.1131
79.9175
78.9747
78.2605
77.7364
77.3897
77.1432
77.0067
76.9116
76.8747
76.871
76.8915
76.956
77.0118
77.1294
79.4611
78.3947
77.5755
76.9905
76.5806
76.3418
76.2019
76.1557
76.1614
76.2069
76.2877
76.3788
76.501
76.6074
76.7674
77.3955
76.5085
75.8624
75.4384
75.182
75.075
75.0696
75.1441
75.2718
75.4362
75.626
75.8214
76.0319
76.2117
76.4273
74.8836
74.2336
73.8078
73.5861
73.5161
73.5823
73.7359
73.9689
74.2432
74.5515
74.877
75.1926
75.5176
75.7876
76.0822
72.5189
71.9257
71.5782
71.428
71.4582
71.6185
71.8982
72.252
72.6678
73.1197
73.5811
74.0551
74.4944
74.9358
75.3046
75.6838
68.7059
68.5278
68.5539
68.7456
69.0871
69.5368
70.0784
70.6784
71.3118
71.9618
72.5937
73.2143
73.7775
74.3203
74.7833
75.2354
64.3872
64.6931
65.1618
65.7606
66.4776
67.2763
68.1377
69.0266
69.9191
70.7912
71.616
72.3925
73.0891
73.7325
74.2869
74.8013
59.685
60.498
61.448
62.502
63.6462
64.8423
66.0681
67.2832
68.4635
69.5831
70.6191
71.5702
72.4153
73.1751
73.8308
74.416
54.8966
56.1638
57.5745
59.0893
60.6773
62.2951
63.9058
65.4692
66.9524
68.3348
69.5931
70.7305
71.7327
72.6198
73.3845
74.0507
50.4835
52.0451
53.8043
55.7113
57.708
59.736
61.7327
63.6506
65.4445
67.0945
68.5794
69.9041
71.0638
72.0765
72.9484
73.6946
47.0895
48.6976
50.5917
52.7212
55.0075
57.3674
59.7054
61.9497
64.038
65.942
67.6428
69.1445
70.4523
71.5823
72.553
73.3737
45.303
46.8161
48.669
50.8265
53.2118
55.7297
58.2622
60.7118
62.9981
65.0794
66.9356
68.5672
69.9859
71.2055
72.2518
73.1315
58.382
57.4773
56.6979
56.0511
55.5049
55.0256
54.6301
54.2993
53.9947
53.6885
53.3857
53.1023
58.172
57.2583
56.5155
55.9147
55.4191
54.9699
54.5608
54.2197
53.9065
53.6401
53.3869
53.1165
59.1113
58.0124
57.0851
56.3448
55.7595
55.2839
54.8817
54.4902
54.1521
53.8434
53.5707
53.3497
53.1195
58.9651
57.8567
56.9183
56.1638
55.5788
55.1031
54.7192
54.3698
54.0447
53.7601
53.4941
53.2741
53.08
58.7849
57.6675
56.7239
55.9549
55.3563
54.8831
54.4961
54.1767
53.8797
53.6212
53.3824
53.1756
53.0047
59.7877
58.5265
57.4164
56.472
55.7003
55.0869
54.6094
54.2232
53.9195
53.6515
53.4306
53.2199
53.0395
52.9002
59.4258
58.1601
57.0623
56.1342
55.3703
54.7575
54.2794
53.8885
53.5978
53.348
53.1654
53.0033
52.8516
52.7574
58.9282
57.6602
56.5758
55.673
54.9402
54.3406
53.8855
53.5005
53.2208
52.9897
52.8213
52.7069
52.5923
52.5565
59.713
58.2393
56.9823
55.9295
55.0561
54.3716
53.8069
53.3878
53.0416
52.7841
52.5883
52.4367
52.3537
52.2682
52.2825
58.7565
57.3081
56.084
55.085
54.2624
53.6325
53.1281
52.7547
52.4701
52.2591
52.1172
52.0122
51.9711
51.923
51.9743
57.4496
56.0633
54.9106
53.9878
53.2484
52.6888
52.2661
51.9631
51.7545
51.6217
51.553
51.5224
51.5491
51.5592
51.6599
55.7314
54.4539
53.413
52.5994
51.9684
51.5133
51.1895
50.9913
50.8822
50.8522
50.8866
50.9475
51.0683
51.151
51.3213
54.9184
53.543
52.4387
51.5613
50.9026
50.4171
50.1019
49.9151
49.8459
49.8716
49.9603
50.1188
50.2842
50.5081
50.6775
50.9255
51.9461
50.8411
49.9827
49.3342
48.8865
48.6032
48.4739
48.4711
48.5693
48.7569
48.9902
49.2804
49.5611
49.8833
50.1446
50.4666
48.309
47.5683
47.0393
46.6937
46.5255
46.507
46.6259
46.8551
47.1702
47.551
47.96
48.3977
48.8104
49.236
49.5943
49.986
44.0546
43.7456
43.6141
43.6376
43.8142
44.1191
44.5419
45.051
45.6234
46.2338
46.8471
47.4587
48.0257
48.5747
49.0459
49.5168
39.4805
39.5927
39.8662
40.2825
40.8336
41.4981
42.2572
43.0818
43.94
44.8086
45.6501
46.4589
47.199
47.8899
48.4889
49.0522
35.1948
35.5906
36.1673
36.9086
37.7944
38.802
39.8963
41.0451
42.2038
43.345
44.4295
45.4469
46.3693
47.2081
47.9394
48.5978
32.022
32.4747
33.1498
34.0391
35.1196
36.3646
37.7243
39.1509
40.5841
41.9806
43.2976
44.5145
45.6114
46.5902
47.4456
48.1928
30.4697
30.8585
31.4895
32.3672
33.4775
34.7982
36.2759
37.8509
39.4497
41.0115
42.4864
43.8426
45.0642
46.1446
47.0902
47.9032
43.5499
42.7576
41.9884
41.2918
40.6884
40.1809
39.7821
39.4629
39.1757
38.8903
38.605
38.3495
43.5292
42.6906
41.9474
41.2985
40.7467
40.2549
39.8248
39.4778
39.167
38.911
38.672
38.4054
44.5223
43.5438
42.6594
41.9022
41.2651
40.7321
40.2849
39.8609
39.5048
39.1829
38.9009
38.6845
38.4464
44.5848
43.567
42.646
41.8547
41.2087
40.6667
40.2319
39.8422
39.4909
39.1851
38.897
38.6665
38.4493
44.6293
43.5753
42.6278
41.8046
41.1304
40.5781
40.1247
39.7523
39.4156
39.1273
38.8589
38.6355
38.4299
45.7875
44.6175
43.5408
42.5721
41.7312
41.0285
40.4593
39.9888
39.6142
39.2861
39.0196
38.7651
38.5592
38.3824
45.7493
44.5288
43.4267
42.4469
41.5965
40.879
40.2975
39.8084
39.4308
39.1021
38.8532
38.6291
38.4332
38.2933
45.6243
44.3495
43.2156
42.2242
41.3786
40.6533
40.0768
39.5797
39.198
38.8744
38.6234
38.4311
38.2509
38.1543
46.8593
45.3592
44.0368
42.8832
41.8785
41.0469
40.3295
39.7644
39.2848
38.9067
38.6019
38.3534
38.1804
38.0138
37.9531
46.4539
44.9052
43.5485
42.3911
41.3891
40.5727
39.8827
39.3336
38.8878
38.5312
38.257
38.0352
37.8893
37.7472
37.7148
45.7619
44.1907
42.8299
41.6847
40.7131
39.9218
39.2746
38.7605
38.3562
38.0461
37.8168
37.6432
37.5458
37.4462
37.4556
44.7113
43.1549
41.8259
40.7207
39.7995
39.0617
38.4684
38.0167
37.6734
37.4296
37.2726
37.1628
37.1384
37.093
37.1613
44.9636
43.2083
41.729
40.481
39.4592
38.6211
37.967
37.4604
37.0918
36.8429
36.6828
36.6211
36.5917
36.6519
36.6759
36.8111
42.7727
41.1786
39.8508
38.7485
37.8636
37.1612
36.6325
36.2559
36.0074
35.8811
35.8331
35.8789
35.9456
36.0908
36.194
36.396
39.8436
38.5238
37.4427
36.5676
35.8902
35.3857
35.0434
34.8436
34.7643
34.7926
34.8892
35.06
35.2418
35.4798
35.6709
35.9393
36.1522
35.2148
34.476
33.9112
33.5172
33.2747
33.1778
33.205
33.3374
33.5578
33.8299
34.1527
34.4732
34.8243
35.1218
35.4666
31.9659
31.4459
31.0889
30.8784
30.8114
30.8755
31.0628
31.3565
31.7333
32.1778
32.6533
33.1549
33.6371
34.1225
34.5455
34.981
27.9657
27.7565
27.7018
27.7912
28.017
28.3718
28.84
29.4066
30.0416
30.726
31.4224
32.119
32.7775
33.4081
33.9664
34.4982
25.0622
24.9582
25.0195
25.244
25.625
26.1587
26.8259
27.6067
28.4639
29.3657
30.271
31.1544
31.984
32.7542
33.4421
34.0647
23.6935
23.5717
23.6188
23.8404
24.2365
24.8099
25.5454
26.4212
27.3968
28.4278
29.4675
30.4764
31.4246
32.2934
33.0735
33.7612
33.2572
32.6739
32.0402
31.4231
30.8633
30.3992
30.0438
29.769
29.5229
29.2772
29.0276
28.8135
33.3805
32.7299
32.1075
31.5254
31.0104
30.5477
30.1506
29.8388
29.5624
29.3409
29.1334
28.8903
34.2855
33.5326
32.8151
32.1648
31.5849
31.0827
30.6578
30.2566
29.9271
29.63
29.3714
29.1834
28.9577
34.5047
33.6963
32.924
32.2235
31.6265
31.107
30.6895
30.3141
29.9824
29.6947
29.4197
29.2102
28.9942
34.7221
33.8584
33.0429
32.2951
31.6586
31.119
30.6739
30.3064
29.98
29.7033
29.4397
29.2324
29.0191
35.8637
34.9068
33.9969
33.1428
32.3635
31.6863
31.1201
30.6449
30.2639
29.9307
29.6661
29.4058
29.2079
29.0187
36.0816
35.0432
34.0794
33.1911
32.3872
31.6815
31.0937
30.589
30.1936
29.8449
29.5827
29.339
29.1384
28.9783
36.2539
35.1256
34.0966
33.1664
32.3455
31.6154
31.0178
30.4944
30.0836
29.7287
29.4516
29.2267
29.0257
28.8961
37.6901
36.3342
35.1159
34.028
33.0498
32.2141
31.4701
30.8651
30.3427
29.9221
29.5733
29.2868
29.0708
28.8705
28.7638
37.735
36.2777
34.9745
33.8372
32.8224
31.9687
31.2255
30.6144
30.1043
29.687
29.3512
29.0752
28.8731
28.6854
28.5972
37.5598
36.0156
34.6494
33.472
32.4436
31.5783
30.8462
30.2435
29.7487
29.3531
29.0397
28.7903
28.6187
28.4586
28.4031
37.0889
35.4844
34.0848
32.8903
31.8644
31.0109
30.2966
29.7224
29.2577
28.8976
28.6297
28.4191
28.3004
28.1773
28.1691
38.0785
36.2048
34.5973
33.21
32.0394
31.0453
30.2297
29.5609
29.0315
28.626
28.318
28.117
27.9625
27.909
27.8371
27.8838
36.6148
34.8077
33.271
31.9599
30.8648
29.952
29.2122
28.6279
28.1772
27.8578
27.6297
27.5104
27.4298
27.4447
27.4357
27.5386
34.3844
32.7675
31.4043
30.2558
29.309
28.5392
27.9341
27.4791
27.1538
26.9515
26.8352
26.8152
26.8274
26.9194
26.9829
27.1436
31.3042
30.0147
28.9409
28.0515
27.3371
26.7783
26.3691
26.0938
25.9364
25.8873
25.9129
26.0169
26.1442
26.3319
26.4862
26.7146
27.6071
26.7171
25.9981
25.428
25.0007
24.7045
24.5343
24.4803
24.5251
24.6612
24.8565
25.111
25.3769
25.6811
25.9471
26.2572
24.0036
23.4394
23.0189
22.7289
22.5627
22.516
22.5807
22.7514
23.0087
23.3433
23.7248
24.1462
24.5676
25.0011
25.3922
25.7913
21.4242
21.0048
20.7199
20.5642
20.5333
20.6287
20.8438
21.1739
21.5999
22.1043
22.6566
23.2362
23.8092
24.3688
24.8822
25.3666
20.2353
19.8349
19.5633
19.4202
19.4059
19.5269
19.7825
20.17
20.6735
21.2689
21.9241
22.6054
23.281
23.9279
24.5273
25.0717
25.5723
25.2073
24.7622
24.3013
23.8549
23.4845
23.2024
22.9899
22.7974
22.5996
22.3966
22.2291
25.7707
25.3387
24.8935
24.4504
24.0391
23.6595
23.3339
23.0835
22.8603
22.6853
22.5182
22.3108
26.505
25.9997
25.4971
25.0192
24.5675
24.1608
23.8096
23.4725
23.2005
22.9529
22.7373
22.5896
22.3906
26.8035
26.2446
25.6837
25.1492
24.6755
24.2447
23.8959
23.5758
23.2958
23.0529
22.8148
22.6441
22.4474
27.1171
26.4992
25.8901
25.3011
24.7826
24.3251
23.9446
23.6254
23.3438
23.1074
22.8726
22.7012
22.5012
28.1116
27.4244
26.7504
26.0944
25.4655
24.8992
24.4092
23.9911
23.6524
23.3537
23.1232
22.8848
22.716
22.5344
28.4932
27.7141
26.9724
26.268
25.6047
24.9998
24.4817
24.0264
23.6667
23.3421
23.1039
22.8721
22.6926
22.5328
28.869
27.9847
27.1611
26.3953
25.6993
25.0574
24.5184
24.0357
23.6529
23.3135
23.0512
22.8279
22.6372
22.4975
30.2929
29.2022
28.2057
27.3003
26.463
25.7302
25.0571
24.4958
24.0009
23.5976
23.2547
22.9737
22.7512
22.5515
22.4241
30.6752
29.4542
28.3423
27.3569
26.4543
25.6772
24.9829
24.3978
23.8979
23.484
23.1405
22.8571
22.6374
22.44
22.3218
30.9118
29.5622
28.3467
27.2825
26.3315
25.5129
24.8026
24.2046
23.6995
23.2876
22.9489
22.6749
22.4696
22.2861
22.1908
30.9281
29.4635
28.165
27.0378
26.0491
25.2073
24.4844
23.8869
23.3868
22.9854
22.6689
22.4124
22.2411
22.0791
22.0193
32.3583
30.5927
29.0603
27.7172
26.5632
25.5622
24.7187
24.0059
23.4206
22.9486
22.5711
22.2956
22.0721
21.9472
21.8195
21.8021
31.5648
29.7842
28.2521
26.9238
25.791
24.8232
24.0118
23.3432
22.7996
22.3803
22.0524
21.8331
21.6613
21.5876
21.5059
21.5335
30.0262
28.3503
26.919
25.6913
24.6514
23.7762
23.0531
22.4711
22.0127
21.6755
21.4276
21.2817
21.1796
21.166
21.14
21.2146
27.6248
26.1975
24.9882
23.9605
23.0997
22.386
21.8119
21.366
21.0347
20.8137
20.6747
20.6247
20.6122
20.6748
20.721
20.8518
24.5578
23.4718
22.5623
21.8015
21.1783
20.6794
20.2989
20.0306
19.8607
19.7869
19.783
19.8533
19.9527
20.1102
20.2489
20.4491
21.5106
20.7269
20.0845
19.5658
19.1618
18.8669
18.6748
18.5835
18.5803
18.6622
18.8058
19.0101
19.2374
19.5027
19.7488
20.0265
19.3588
18.7328
18.227
17.8316
17.5404
17.3541
17.27
17.2894
17.4039
17.6069
17.8781
18.2048
18.556
18.9268
19.2803
19.6332
18.3842
17.7993
17.3228
16.9489
16.675
16.5053
16.4427
16.4918
16.6501
16.909
17.2506
17.6518
18.0845
18.5268
18.9556
19.3607
19.728
19.5305
19.2595
18.9667
18.6571
18.3978
18.1972
18.0497
17.9118
17.7605
17.6058
17.4824
19.9337
19.6845
19.4079
19.1195
18.8364
18.5638
18.3253
18.1446
17.9801
17.8521
17.726
17.5585
20.4758
20.1739
19.865
19.5605
19.2567
18.9719
18.719
18.466
18.2644
18.0763
17.9107
17.8044
17.6392
20.775
20.4347
20.0772
19.7215
19.3958
19.084
18.8295
18.5864
18.3737
18.1874
17.9972
17.8708
17.7035
21.1009
20.7127
20.3149
19.9081
19.5406
19.2001
18.9144
18.6674
18.4487
18.2663
18.0732
17.9447
17.7712
21.8743
21.4426
21.0039
20.5634
20.1176
19.7031
19.3295
19.0046
18.7366
18.4953
18.3156
18.1151
17.9846
17.8237
22.3076
21.7948
21.2922
20.8021
20.3207
19.8644
19.4611
19.0959
18.8052
18.5327
18.3396
18.1394
17.9941
17.8486
22.7693
22.159
21.5771
21.0212
20.5015
20.0025
19.5725
19.1747
18.8573
18.5648
18.3425
18.1434
17.981
17.8475
24.008
23.2353
22.5144
21.848
21.2131
20.6459
20.1057
19.644
19.2247
18.8798
18.5769
18.33
18.1258
17.9482
17.8194
24.5785
23.6761
22.8344
22.0779
21.3649
20.7382
20.1617
19.6643
19.227
18.861
18.548
18.2892
18.0793
17.8962
17.7691
25.0816
24.0394
23.0789
22.2247
21.4427
20.7549
20.1424
19.616
19.1582
18.7795
18.4578
18.1953
17.9869
17.806
17.6923
25.4499
24.2677
23.198
22.253
21.4056
20.6687
20.0198
19.4718
18.9995
18.6115
18.2932
18.0311
17.8399
17.6671
17.5773
27.0118
25.5508
24.2618
23.1096
22.1013
21.2076
20.4372
19.769
19.206
18.7355
18.3476
18.0472
17.7976
17.6351
17.4816
17.4223
26.7861
25.2519
23.9104
22.7251
21.6934
20.7919
20.0163
19.3571
18.8031
18.3551
17.989
17.7207
17.5016
17.3735
17.2503
17.2246
25.9094
24.397
23.0862
21.9416
20.9504
20.0946
19.364
18.7521
18.2462
17.8476
17.5314
17.3116
17.1399
17.055
16.971
16.9815
24.2634
22.892
21.7151
20.6976
19.8239
19.076
18.4465
17.9278
17.5097
17.1922
16.9532
16.8026
16.6956
16.6677
16.6371
16.6915
21.9938
20.856
19.8872
19.0577
18.3537
17.7613
17.2734
16.8856
16.5874
16.3795
16.2416
16.1814
16.1591
16.204
16.245
16.3549
19.6903
18.7833
18.0143
17.3629
16.8178
16.3716
16.0177
15.7553
15.5753
15.4785
15.4476
15.486
15.5609
15.689
15.8161
15.9894
18.0955
17.3251
16.6681
16.1111
15.6455
15.2694
14.9803
14.7812
14.6692
14.6447
14.6955
14.8168
14.9828
15.1912
15.4056
15.641
17.3908
16.6661
16.0402
15.5031
15.0489
14.6783
14.3937
14.2011
14.1042
14.1039
14.1934
14.3605
14.584
14.8455
15.121
15.3991
15.3409
15.2433
15.0948
14.9343
14.7435
14.5821
14.4524
14.3601
14.2691
14.1563
14.044
13.9569
15.5134
15.3826
15.2272
15.0637
14.8935
14.72
14.5618
14.4432
14.3317
14.2431
14.1525
14.0223
15.8906
15.7205
15.5464
15.3721
15.1915
15.0168
14.8573
14.6856
14.55
14.4181
14.2987
14.228
14.0965
16.1411
15.9502
15.7421
15.5291
15.3306
15.1306
14.9676
14.8015
14.6547
14.5234
14.3807
14.2945
14.1593
16.4211
16.199
15.9648
15.7115
15.4804
15.2541
15.0638
14.892
14.7373
14.6092
14.4599
14.3712
14.229
16.9732
16.7282
16.4696
16.2048
15.9208
15.6508
15.3956
15.1698
14.979
14.8005
14.6736
14.5161
14.4233
14.2889
17.3672
17.0635
16.7558
16.4509
16.1379
15.8304
15.5491
15.2849
15.0736
14.8633
14.7213
14.5608
14.4525
14.3285
17.8097
17.4311
17.0609
16.6989
16.3519
16.004
15.6967
15.3993
15.162
14.9302
14.7581
14.594
14.4667
14.3489
18.7818
18.2898
17.8208
17.3804
16.9472
16.554
16.1641
15.823
15.5
15.2325
14.987
14.7875
14.6149
14.4693
14.3512
19.3858
18.7894
18.2166
17.6956
17.1884
16.7342
16.3026
15.921
15.5731
15.2782
15.017
14.8
14.6162
14.46
14.3386
19.9886
19.2714
18.5906
17.9749
17.3955
16.8746
16.3967
15.9772
15.5997
15.2824
15.0037
14.7743
14.583
14.4203
14.3042
20.5359
19.6887
18.9002
18.1888
17.5337
16.9512
16.423
15.9673
15.5622
15.2222
14.9329
14.6916
14.5038
14.3386
14.2361
21.9711
20.9108
19.952
19.0703
18.2799
17.5603
16.9246
16.3569
15.8668
15.4434
15.0851
14.795
14.5496
14.3747
14.2162
14.133
22.1485
20.9913
19.9542
19.0123
18.1709
17.4152
16.747
16.1611
15.6539
15.2276
14.8675
14.5879
14.3537
14.1977
14.0554
13.9953
21.8498
20.6462
19.5805
18.628
17.7822
17.0316
16.3712
15.7984
15.3067
14.9005
14.5631
14.3088
14.1011
13.9722
13.8542
13.8195
20.983
19.8019
18.772
17.8656
17.0699
16.371
15.7627
15.241
14.7994
14.4412
14.151
13.9408
13.7749
13.6847
13.6024
13.5996
19.6169
18.5344
17.5986
16.7836
16.076
15.463
14.9372
14.4956
14.13
13.8433
13.6205
13.4717
13.364
13.325
13.2935
13.3319
18.1893
17.2337
16.4064
15.6876
15.0652
14.531
14.078
13.7054
13.4065
13.1842
13.026
12.9388
12.8955
12.9134
12.9443
13.0302
17.2542
16.3844
15.6231
14.9549
14.3694
13.862
13.4292
13.0736
12.7947
12.5968
12.4741
12.4282
12.4395
12.5089
12.6033
12.7354
16.8724
16.0359
15.2943
14.6343
14.0471
13.5303
13.0844
12.7143
12.4254
12.2238
12.1101
12.0817
12.125
12.2272
12.3659
12.5297
12.1012
12.0508
11.9719
11.8926
11.783
11.6903
11.611
11.558
11.5019
11.4174
11.3374
11.277
12.2308
12.1614
12.0751
11.9905
11.8973
11.7962
11.6977
11.6246
11.554
11.4941
11.4302
11.3305
12.4922
12.3912
12.2922
12.1949
12.0943
11.9966
11.9062
11.7977
11.7123
11.6252
11.5419
11.4976
11.395
12.6822
12.5724
12.4518
12.3282
12.2147
12.0958
12.002
11.8974
11.8029
11.716
11.6125
11.5575
11.4515
12.8981
12.7708
12.6361
12.4845
12.3485
12.2082
12.0926
11.9825
11.8805
11.7973
11.6859
11.6284
11.5158
13.2837
13.1427
12.9914
12.8388
12.6662
12.5024
12.3397
12.195
12.0697
11.9456
11.8636
11.7452
11.6835
11.5752
13.6002
13.4208
13.2361
13.0554
12.8631
12.6701
12.488
12.3102
12.1688
12.016
11.9194
11.7971
11.7215
11.6202
13.9698
13.7389
13.511
13.2869
13.0695
12.8435
12.6406
12.433
12.2695
12.0968
11.9722
11.844
11.7501
11.6514
14.7027
14.3916
14.0949
13.8166
13.5365
13.2818
13.0193
12.7867
12.5545
12.362
12.1753
12.0238
11.8858
11.7733
11.6714
15.2418
14.8581
14.4832
14.1429
13.803
13.4957
13.1944
12.9233
12.6651
12.4436
12.2393
12.0681
11.9165
11.7909
11.6829
15.8194
15.3472
14.8888
14.4709
14.0682
13.7002
13.3525
13.0417
12.7513
12.5031
12.2769
12.089
11.9247
11.7872
11.6787
16.3971
15.8257
15.2801
14.7793
14.306
13.8769
13.4758
13.1228
12.7984
12.5205
12.2752
12.068
11.8977
11.7502
11.647
17.6067
16.8871
16.2236
15.5961
15.0203
14.4807
13.9926
13.5429
13.1453
12.7903
12.4823
12.2228
11.9996
11.8294
11.6786
11.585
18.0152
17.201
16.4561
15.7616
15.125
14.5364
14.0014
13.5168
13.0851
12.709
12.3816
12.1151
11.8872
11.7221
11.5756
11.4952
18.1593
17.2567
16.4428
15.7006
15.0263
14.4125
13.8572
13.3597
12.918
12.5381
12.2104
11.949
11.729
11.5761
11.4406
11.3757
17.9764
17.0067
16.1474
15.3795
14.6938
14.0793
13.5307
13.0454
12.6192
12.2571
11.9494
11.7091
11.51
11.379
11.2635
11.2188
17.4608
16.4768
15.6119
14.847
14.1716
13.5745
13.0489
12.5918
12.1971
11.8683
11.5946
11.3875
11.2212
11.1205
11.036
11.0183
16.9009
15.9437
15.1001
14.3533
13.6923
13.1088
12.5957
12.152
11.7724
11.4609
11.209
11.0257
10.89
10.8186
10.7716
10.7839
16.647
15.7125
14.8811
14.1369
13.4685
12.8694
12.3349
11.8662
11.4634
11.1326
10.8725
10.6893
10.5703
10.5195
10.5091
10.5495
16.6137
15.6882
14.856
14.1016
13.4142
12.7887
12.2234
11.7212
11.2872
10.9291
10.6522
10.4605
10.3484
10.3092
10.3247
10.3843
9.71017
9.67739
9.6321
9.59317
9.52918
9.47545
9.42591
9.39666
9.36346
9.29815
9.24042
9.1977
9.80513
9.76107
9.70767
9.66338
9.61271
9.55465
9.49301
9.44756
9.40478
9.36338
9.31771
9.24076
9.99631
9.92498
9.86067
9.80021
9.74206
9.68752
9.63851
9.57089
9.51712
9.4607
9.40245
9.37546
9.29517
10.1369
10.0626
9.9839
9.90625
9.83837
9.76702
9.71524
9.65113
9.59157
9.53532
9.46009
9.42625
9.34365
10.2981
10.2138
10.1281
10.0315
9.94887
9.86089
9.79244
9.72408
9.65837
9.60675
9.5242
9.48784
9.39953
10.5825
10.4848
10.384
10.2885
10.1781
10.077
9.9728
9.88164
9.80202
9.71743
9.66749
9.57972
9.54031
9.45419
10.8277
10.7037
10.5793
10.4646
10.3416
10.2197
10.1024
9.98454
9.89336
9.78453
9.72181
9.63049
9.57995
9.49885
11.1224
10.9619
10.8076
10.661
10.5208
10.3735
10.2419
10.0994
9.99087
9.86539
9.77836
9.68066
9.61383
9.53358
11.6976
11.4709
11.2623
11.0728
10.8838
10.7157
10.5393
10.3842
10.2208
10.0872
9.9495
9.83832
9.73076
9.64674
9.56162
12.1505
11.8729
11.6066
11.3713
11.1366
10.9269
10.7178
10.5301
10.3436
10.1827
10.0281
9.89775
9.77637
9.67874
9.58638
12.658
12.3178
11.9901
11.6951
11.4103
11.1504
10.9003
10.676
10.4591
10.2715
10.0943
9.94586
9.81008
9.69837
9.60176
13.1965
12.7852
12.3923
12.032
11.6881
11.3746
11.0753
10.809
10.5574
10.3384
10.1381
9.96742
9.82012
9.69395
9.59676
14.2405
13.7124
13.2292
12.7703
12.3469
11.9439
11.5748
11.2266
10.9132
10.6256
10.371
10.1487
9.95486
9.79855
9.66181
9.56666
14.7755
14.1597
13.5981
13.0728
12.5879
12.1326
11.7122
11.3219
10.9662
10.6469
10.3618
10.1202
9.90971
9.74725
9.60512
9.51428
15.2221
14.5024
13.8514
13.2553
12.7108
12.2096
11.7497
11.3287
10.9454
10.6049
10.3022
10.0493
9.83131
9.66785
9.52543
9.44058
15.5349
14.709
13.9686
13.3017
12.7017
12.1593
11.6691
11.2274
10.8304
10.4817
10.1753
9.923
9.70749
9.55035
9.41419
9.33878
15.6765
14.7757
13.971
13.2501
12.6053
12.0278
11.5112
11.0519
10.6449
10.293
9.98838
9.74195
9.53498
9.38815
9.26445
9.20196
15.8389
14.8966
14.0527
13.2943
12.6119
11.9979
11.4455
10.9528
10.5157
10.1381
9.8148
9.55549
9.3454
9.19994
9.08806
9.03712
16.1916
15.2164
14.338
13.5414
12.815
12.151
11.5438
10.9929
10.498
10.0655
9.69653
9.40045
9.17095
9.01503
8.91145
8.86866
16.4894
15.4952
14.5932
13.7668
13.0041
12.2977
11.6439
11.0438
10.501
10.0229
9.61664
9.29053
9.04535
8.88087
8.78431
8.74747
7.91156
7.88357
7.85284
7.83043
7.78851
7.75285
7.71817
7.70105
7.68134
7.62878
7.58526
7.55353
7.98358
7.94754
7.90794
7.88087
7.84981
7.81324
7.77092
7.73957
7.71358
7.68332
7.64923
7.58839
8.13536
8.07512
8.02438
7.97877
7.9396
7.9052
7.87658
7.83185
7.79471
7.75713
7.71464
7.69791
7.6339
8.24278
8.1813
8.11998
8.06229
8.01486
7.96687
7.93599
7.89488
7.85499
7.81763
7.76083
7.73981
7.67471
8.36642
8.29806
8.23255
8.16155
8.10385
8.04268
7.9987
7.95443
7.91016
7.87811
7.81539
7.79187
7.72179
8.59708
8.51208
8.43033
8.3586
8.27786
8.20784
8.13471
8.073
8.02036
7.96046
7.93047
7.86448
7.83937
7.7703
8.79325
8.68699
8.58591
8.49961
8.40987
8.32488
8.24319
8.16034
8.09949
8.01977
7.97891
7.90998
7.87665
7.81171
9.03387
8.89827
8.77367
8.66197
8.55945
8.45458
8.3636
8.26096
8.187
8.09398
8.03278
7.95771
7.91049
7.84575
9.52435
9.32585
9.15113
8.99895
8.85355
8.72918
8.6006
8.49167
8.37228
8.27765
8.17477
8.09295
8.00875
7.94639
7.87611
9.91288
9.67316
9.45188
9.26292
9.08077
8.9229
8.76708
8.63093
8.49225
8.37365
8.25594
8.15685
8.05983
7.98465
7.90663
10.3626
10.0728
9.80224
9.56514
9.34153
9.14222
8.95122
8.78265
8.61715
8.47381
8.33487
8.21832
8.10704
8.01779
7.93345
10.8637
10.5157
10.192
9.90155
9.62821
9.3826
9.14814
8.94062
8.742
8.56848
8.40568
8.26654
8.14133
8.03587
7.94721
11.8548
11.3929
10.9803
10.5977
10.2512
9.92496
9.6286
9.34801
9.09487
8.85922
8.64879
8.46004
8.29445
8.1546
8.03382
7.94163
12.4818
11.9354
11.4442
10.9929
10.5829
10.2018
9.85239
9.52669
9.22811
8.95534
8.70855
8.4928
8.30263