/*--------------------------------*- C++ -*----------------------------------*\
  =========                 |
  \\      /  F ield         | OpenFOAM: The Open Source CFD Toolbox
   \\    /   O peration     | Website:  https://openfoam.org
    \\  /    A nd           | Version:  6
     \\/     M anipulation  |
\*---------------------------------------------------------------------------*/
FoamFile
{
    version     2.0;
    format      ascii;
    class       surfaceScalarField;
    location    "1.2";
    object      phi;
}
// * * * * * * * * * * * * * * * * * * * * * * * * * * * * * * * * * * * * * //

dimensions      [0 3 -1 0 0 0 0];

internalField   nonuniform List<scalar> 
184845
(
5.94952e-07
6.08628e-07
-7.54949e-10
6.31954e-07
6.30568e-07
1.03313e-10
-6.67673e-07
6.69081e-07
6.53326e-07
4.27246e-10
-6.90879e-07
7.05149e-07
6.75888e-07
2.87904e-10
-7.12244e-07
7.39793e-07
6.97382e-07
-1.32532e-10
-7.31894e-07
7.7453e-07
7.17921e-07
-4.83409e-10
-7.52174e-07
8.11595e-07
7.39183e-07
-6.01301e-10
-7.75647e-07
8.51442e-07
7.63075e-07
-6.96771e-10
-8.02226e-07
8.91867e-07
7.89102e-07
-9.1884e-10
-8.28608e-07
9.30278e-07
8.15368e-07
-1.43043e-09
-8.52349e-07
9.68135e-07
8.40013e-07
-2.05011e-09
-8.7582e-07
8.6408e-07
-1.16222e-09
1.00826e-06
-9.03039e-07
5.96274e-07
5.71263e-07
1.76709e-09
6.33246e-07
5.91544e-07
2.0518e-09
6.71321e-07
6.13062e-07
2.18908e-09
7.09566e-07
6.3541e-07
2.23318e-09
7.46939e-07
6.57902e-07
2.10713e-09
7.83182e-07
6.79858e-07
1.81958e-09
8.19709e-07
7.01088e-07
1.56842e-09
8.58201e-07
7.23096e-07
1.4869e-09
8.99063e-07
7.46749e-07
1.49073e-09
9.40834e-07
7.72155e-07
1.44265e-09
9.81228e-07
7.98399e-07
1.2202e-09
8.22742e-07
1.37371e-09
1.02119e-06
5.59828e-07
5.13657e-07
3.60818e-09
5.95373e-07
5.32109e-07
3.6086e-09
6.32094e-07
5.51206e-07
3.61728e-09
6.70187e-07
5.71289e-07
3.67946e-09
7.0935e-07
5.92525e-07
3.72228e-09
7.48927e-07
6.14679e-07
3.64611e-09
7.87941e-07
6.37436e-07
3.40798e-09
8.26144e-07
6.59849e-07
3.03701e-09
8.64531e-07
6.81911e-07
2.79758e-09
9.04205e-07
7.04413e-07
2.66174e-09
9.46062e-07
7.27668e-07
2.62989e-09
9.88886e-07
7.53008e-07
2.56566e-09
7.77941e-07
2.33679e-09
1.03135e-06
5.58588e-07
4.74298e-07
3.97836e-09
5.94493e-07
4.92459e-07
3.74501e-09
6.3116e-07
5.10961e-07
3.57762e-09
6.68964e-07
5.29996e-07
3.48872e-09
7.08074e-07
5.49971e-07
3.44476e-09
7.48444e-07
5.70986e-07
3.32264e-09
7.89592e-07
5.93158e-07
3.12971e-09
8.30546e-07
6.16076e-07
2.81847e-09
8.71072e-07
6.38895e-07
2.49092e-09
9.11446e-07
6.618e-07
2.23858e-09
9.52687e-07
6.84378e-07
2.04927e-09
9.95589e-07
7.0817e-07
1.9355e-09
7.32429e-07
1.51672e-09
1.03958e-06
5.57165e-07
4.33575e-07
4.23711e-09
5.93957e-07
4.51806e-07
3.86178e-09
6.31148e-07
4.70223e-07
3.54768e-09
6.69001e-07
4.88852e-07
3.29091e-09
7.07866e-07
5.07991e-07
3.11448e-09
7.47986e-07
5.27907e-07
2.9599e-09
7.8957e-07
5.48797e-07
2.77631e-09
8.32176e-07
5.70934e-07
2.53582e-09
8.75172e-07
5.93654e-07
2.24518e-09
9.18036e-07
6.16974e-07
1.96249e-09
9.60765e-07
6.39928e-07
1.72126e-09
1.004e-06
6.63389e-07
1.54391e-09
6.87012e-07
8.47241e-10
1.04857e-06
5.17206e-07
3.73378e-07
5.04373e-09
5.54843e-07
3.91402e-07
4.53618e-09
5.92812e-07
4.09759e-07
4.07841e-09
6.31057e-07
4.28318e-07
3.65836e-09
6.6964e-07
4.46998e-07
3.27126e-09
7.08797e-07
4.65885e-07
2.9485e-09
7.48789e-07
4.85223e-07
2.69222e-09
7.90058e-07
5.05081e-07
2.44823e-09
8.32755e-07
5.26023e-07
2.21277e-09
8.76769e-07
5.47681e-07
1.95956e-09
9.21573e-07
5.70444e-07
1.72517e-09
9.66715e-07
5.93321e-07
1.46494e-09
1.01205e-06
6.16766e-07
1.2877e-09
6.40355e-07
4.89662e-10
1.05822e-06
5.13249e-07
3.30303e-07
5.1057e-09
5.51795e-07
3.48292e-07
4.56301e-09
5.90837e-07
3.66651e-07
4.06664e-09
6.30264e-07
3.85295e-07
3.59589e-09
6.69991e-07
4.04127e-07
3.14449e-09
7.10102e-07
4.23054e-07
2.71976e-09
7.50654e-07
4.42305e-07
2.3666e-09
7.92034e-07
4.61674e-07
2.0266e-09
8.34537e-07
4.81779e-07
1.74008e-09
8.78411e-07
5.02298e-07
1.50944e-09
9.23696e-07
5.23829e-07
1.32997e-09
9.70032e-07
5.45877e-07
1.10912e-09
1.0173e-06
5.68528e-07
9.6555e-10
5.91925e-07
1.20266e-10
1.06561e-06
5.0941e-07
2.86822e-07
4.84053e-09
5.48635e-07
3.04785e-07
4.28233e-09
5.88445e-07
3.23068e-07
3.77276e-09
6.28842e-07
3.41615e-07
3.28379e-09
6.69678e-07
3.6047e-07
2.82091e-09
7.10992e-07
3.79393e-07
2.34704e-09
7.52687e-07
3.9867e-07
1.93961e-09
7.9487e-07
4.17945e-07
1.54531e-09
8.37791e-07
4.37628e-07
1.2311e-09
8.81609e-07
4.57498e-07
9.81215e-10
9.26777e-07
4.77902e-07
7.5902e-10
9.73167e-07
4.9888e-07
6.07074e-10
1.02095e-06
5.20221e-07
5.24194e-10
5.42814e-07
-5.66875e-10
1.07063e-06
4.66994e-07
2.2565e-07
4.83798e-09
5.06186e-07
2.43412e-07
4.21802e-09
5.45926e-07
2.61374e-07
3.67082e-09
5.86242e-07
2.79572e-07
3.18024e-09
6.27254e-07
2.97906e-07
2.69585e-09
6.68909e-07
3.16562e-07
2.25329e-09
7.11211e-07
3.35308e-07
1.78349e-09
7.54142e-07
3.54386e-07
1.35316e-09
7.9756e-07
3.73573e-07
9.54963e-10
8.4157e-07
3.9299e-07
6.28041e-10
8.86147e-07
4.12558e-07
3.6318e-10
9.31612e-07
4.32316e-07
1.2142e-10
9.78055e-07
4.52453e-07
-1.6924e-11
1.02569e-06
4.72663e-07
-7.51155e-11
4.94106e-07
-1.40083e-09
1.0758e-06
4.64504e-07
1.82731e-07
3.65223e-09
5.04119e-07
2.00682e-07
3.11555e-09
5.4422e-07
2.18651e-07
2.62227e-09
5.84876e-07
2.36727e-07
2.18874e-09
6.26212e-07
2.54821e-07
1.74892e-09
6.68315e-07
2.73106e-07
1.35346e-09
7.11193e-07
2.91484e-07
9.4533e-10
7.5493e-07
3.10099e-07
5.50587e-10
7.99414e-07
3.2889e-07
1.98373e-10
8.4463e-07
3.47899e-07
-1.24804e-10
8.90502e-07
3.67063e-07
-3.76351e-10
9.37059e-07
3.86368e-07
-6.09169e-10
9.84349e-07
4.05898e-07
-7.33802e-10
1.03237e-06
4.25351e-07
-7.04164e-10
4.45678e-07
-1.95958e-09
1.08275e-06
4.64061e-07
1.41354e-07
1.83027e-09
5.03909e-07
1.59406e-07
1.42825e-09
5.44199e-07
1.77322e-07
1.03913e-09
5.85036e-07
1.95195e-07
6.95183e-10
6.2652e-07
2.12989e-07
3.48861e-10
6.6877e-07
2.30829e-07
2.6616e-11
7.11854e-07
2.48687e-07
-2.87058e-10
7.5586e-07
2.6669e-07
-5.96958e-10
8.00825e-07
2.84795e-07
-8.70172e-10
8.46732e-07
3.03106e-07
-1.11448e-09
8.93535e-07
3.21546e-07
-1.28537e-09
9.41234e-07
3.40127e-07
-1.4578e-09
9.89745e-07
3.58912e-07
-1.52546e-09
1.03893e-06
3.77584e-07
-1.41673e-09
3.96881e-07
-2.39696e-09
1.09012e-06
4.66371e-07
1.02454e-07
-6.72156e-10
5.0624e-07
1.20441e-07
-9.03755e-10
5.46547e-07
1.38157e-07
-1.14242e-09
5.87408e-07
1.55699e-07
-1.3641e-09
6.28925e-07
1.73066e-07
-1.59436e-09
6.71183e-07
1.90379e-07
-1.80772e-09
7.14264e-07
2.07615e-07
-2.00847e-09
7.58237e-07
2.24896e-07
-2.17958e-09
8.03154e-07
2.42186e-07
-2.30845e-09
8.49107e-07
2.59568e-07
-2.41525e-09
8.96052e-07
2.77034e-07
-2.43249e-09
9.44114e-07
2.94535e-07
-2.4716e-09
9.93187e-07
3.12233e-07
-2.39427e-09
1.04323e-06
3.29758e-07
-2.21419e-09
3.47858e-07
-3.06945e-09
1.09532e-06
4.32614e-07
4.89227e-08
-3.86444e-09
4.71939e-07
6.70056e-08
-3.87646e-09
5.11614e-07
8.4665e-08
-3.89885e-09
5.51777e-07
1.01943e-07
-3.94973e-09
5.92528e-07
1.18944e-07
-3.99572e-09
6.33958e-07
1.35695e-07
-4.05997e-09
6.76137e-07
1.52307e-07
-4.10713e-09
7.19096e-07
1.68783e-07
-4.12781e-09
7.62919e-07
1.852e-07
-4.12675e-09
8.07608e-07
2.01565e-07
-4.0676e-09
8.5328e-07
2.17891e-07
-3.99584e-09
8.99908e-07
2.34227e-07
-3.82169e-09
9.47649e-07
2.50477e-07
-3.68252e-09
9.96474e-07
2.66848e-07
-3.4406e-09
1.04642e-06
2.82961e-07
-3.14377e-09
2.99592e-07
-3.98061e-09
1.09866e-06
4.42359e-07
1.85941e-08
-7.9718e-09
4.81005e-07
3.60741e-08
-7.7144e-09
5.20136e-07
5.30305e-08
-7.49667e-09
5.59869e-07
6.95306e-08
-7.32063e-09
6.00283e-07
8.56802e-08
-7.15028e-09
6.41438e-07
1.01531e-07
-6.99e-09
6.8339e-07
1.17174e-07
-6.81881e-09
7.26145e-07
1.32637e-07
-6.60897e-09
7.69757e-07
1.4797e-07
-6.38193e-09
8.14232e-07
1.63188e-07
-6.0976e-09
8.59634e-07
1.78296e-07
-5.80676e-09
9.05957e-07
1.93327e-07
-5.42325e-09
9.53348e-07
2.0821e-07
-5.12391e-09
1.00182e-06
2.23114e-07
-4.73505e-09
1.05129e-06
2.37721e-07
-4.23074e-09
2.52673e-07
-4.88628e-09
1.10309e-06
4.56378e-07
-5.56483e-09
-1.25945e-08
4.93722e-07
1.0808e-08
-1.20786e-08
5.31769e-07
2.66041e-08
-1.16206e-08
5.70598e-07
4.19022e-08
-1.11999e-08
6.10261e-07
5.68038e-08
-1.07872e-08
6.50791e-07
7.13699e-08
-1.03692e-08
6.92216e-07
8.56791e-08
-9.92993e-09
7.34546e-07
9.97624e-08
-9.45539e-09
7.77803e-07
1.13667e-07
-8.95476e-09
8.21993e-07
1.27405e-07
-8.40638e-09
8.67161e-07
1.40989e-07
-7.86094e-09
9.13305e-07
1.54442e-07
-7.25776e-09
9.6053e-07
1.6772e-07
-6.73526e-09
1.00887e-06
1.80942e-07
-6.17108e-09
1.05818e-06
1.93895e-07
-5.4836e-09
2.06972e-07
-5.80674e-09
1.10969e-06
4.75133e-07
-2.22039e-08
-1.77021e-08
5.10389e-07
-7.53131e-09
-1.69166e-08
5.46647e-07
6.54545e-09
-1.61997e-08
5.83939e-07
2.01151e-08
-1.55043e-08
6.22282e-07
3.32666e-08
-1.48062e-08
6.61684e-07
4.60642e-08
-1.4096e-08
7.02146e-07
5.85741e-08
-1.33575e-08
7.43666e-07
7.0832e-08
-1.25894e-08
7.86257e-07
8.28762e-08
-1.17994e-08
8.29907e-07
9.47268e-08
-1.09716e-08
8.74656e-07
1.06394e-07
-1.01542e-08
9.20501e-07
1.17907e-07
-9.31019e-09
9.67511e-07
1.29235e-07
-8.52503e-09
1.01574e-06
1.40464e-07
-7.74596e-09
1.06505e-06
1.51466e-07
-6.89015e-09
1.62444e-07
-6.82619e-09
1.11641e-06
4.98726e-07
-2.98541e-08
-2.33401e-08
5.31036e-07
-1.76991e-08
-2.21415e-08
5.64723e-07
-6.08989e-09
-2.10523e-08
5.99791e-07
5.06472e-09
-2.00172e-08
6.36217e-07
1.584e-08
-1.89995e-08
6.7397e-07
2.62917e-08
-1.79809e-08
7.13025e-07
3.64682e-08
-1.69494e-08
7.53347e-07
4.64046e-08
-1.58945e-08
7.94924e-07
5.61251e-08
-1.48251e-08
8.37725e-07
6.56533e-08
-1.37274e-08
8.8176e-07
7.49954e-08
-1.26369e-08
9.27021e-07
8.41799e-08
-1.15344e-08
9.73552e-07
9.31873e-08
-1.04827e-08
1.0214e-06
1.02081e-07
-9.46088e-09
1.07049e-06
1.1078e-07
-8.40378e-09
1.1941e-07
-8.02994e-09
1.12155e-06
5.25253e-07
-2.76324e-08
-2.93885e-08
5.54095e-07
-1.89394e-08
-2.76015e-08
5.84687e-07
-1.06454e-08
-2.60373e-08
6.17036e-07
-2.67582e-09
-2.46077e-08
6.51109e-07
5.02444e-09
-2.32579e-08
6.86848e-07
1.24921e-08
-2.1939e-08
7.24191e-07
1.97526e-08
-2.06274e-08
7.63068e-07
2.68278e-08
-1.93004e-08
8.03422e-07
3.37296e-08
-1.79583e-08
8.45194e-07
4.04745e-08
-1.65934e-08
8.88351e-07
4.70663e-08
-1.52281e-08
9.32864e-07
5.35264e-08
-1.3859e-08
9.78744e-07
5.98433e-08
-1.25366e-08
1.02602e-06
6.60634e-08
-1.12586e-08
1.07465e-06
7.21267e-08
-9.97457e-09
7.81369e-08
-9.26363e-09
1.12519e-06
5.4971e-07
-1.63985e-08
-3.50718e-08
5.7534e-07
-1.18779e-08
-3.26917e-08
6.02946e-07
-7.5685e-09
-3.0683e-08
6.32599e-07
-3.42801e-09
-2.89009e-08
6.64303e-07
5.73457e-10
-2.72523e-08
6.98008e-07
4.45691e-09
-2.567e-08
7.33636e-07
8.23389e-09
-2.41097e-08
7.71089e-07
1.19138e-08
-2.25389e-08
8.10265e-07
1.55011e-08
-2.09472e-08
8.51069e-07
1.90034e-08
-1.93334e-08
8.93423e-07
2.24229e-08
-1.77103e-08
9.37268e-07
2.57705e-08
-1.60893e-08
9.82578e-07
2.90406e-08
-1.45072e-08
1.02936e-06
3.2259e-08
-1.29804e-08
1.07758e-06
3.53894e-08
-1.14774e-08
3.84999e-08
-1.03813e-08
1.1276e-06
5.64557e-07
-3.8634e-08
5.88308e-07
-3.59199e-08
6.14074e-07
-3.3677e-08
6.42004e-07
-3.17308e-08
6.72153e-07
-2.99554e-08
7.04503e-07
-2.82607e-08
7.38982e-07
-2.65877e-08
7.75485e-07
-2.48959e-08
8.13889e-07
-2.31668e-08
8.54076e-07
-2.14023e-08
8.95935e-07
-1.96109e-08
9.39388e-07
-1.78159e-08
9.84378e-07
-1.60466e-08
1.0309e-06
-1.4332e-08
1.07891e-06
-1.2661e-08
-1.12452e-08
1.12864e-06
1.18013e-06
1.20948e-06
-6.34668e-09
1.24908e-06
1.2506e-06
-4.87468e-09
-1.31457e-06
1.31931e-06
1.29299e-06
-3.91288e-09
-1.35889e-06
1.38983e-06
1.33576e-06
-3.44047e-09
-1.40255e-06
1.46025e-06
1.37829e-06
-3.37354e-09
-1.44547e-06
1.53175e-06
1.42101e-06
-3.29435e-09
-1.48971e-06
1.60618e-06
1.46553e-06
-3.11031e-09
-1.53745e-06
1.68396e-06
1.51332e-06
-3.17558e-09
-1.58862e-06
1.76333e-06
1.56399e-06
-3.5855e-09
-1.64069e-06
1.8427e-06
1.61579e-06
-4.24822e-09
-1.69233e-06
1.92344e-06
1.66784e-06
-4.89646e-09
-1.74574e-06
1.72095e-06
-3.45884e-09
2.00752e-06
-1.80274e-06
1.18763e-06
1.14603e-06
-2.00395e-09
1.25717e-06
1.18443e-06
-1.32371e-09
1.32862e-06
1.22451e-06
-7.74898e-10
1.40113e-06
1.2658e-06
-3.2542e-10
1.47386e-06
1.30775e-06
-8.64043e-11
1.54679e-06
1.34999e-06
-8.95802e-11
1.62119e-06
1.39279e-06
-8.4065e-11
1.69853e-06
1.43745e-06
2.22795e-12
1.77907e-06
1.48485e-06
8.4913e-11
1.86145e-06
1.53484e-06
1.20171e-11
1.94441e-06
1.58635e-06
-2.47067e-10
1.63785e-06
1.47803e-10
2.02874e-06
1.12498e-06
1.0454e-06
1.93578e-09
1.19267e-06
1.07995e-06
1.99173e-09
1.26255e-06
1.11595e-06
2.21771e-09
1.33462e-06
1.15351e-06
2.60536e-09
1.40848e-06
1.19267e-06
3.00265e-09
1.48347e-06
1.23319e-06
3.21531e-09
1.55891e-06
1.27483e-06
3.13033e-09
1.63485e-06
1.31705e-06
2.83167e-09
1.71232e-06
1.3601e-06
2.67909e-09
1.79244e-06
1.40473e-06
2.66778e-09
1.87565e-06
1.45153e-06
2.72308e-09
1.96097e-06
1.50095e-06
2.6383e-09
1.55127e-06
2.24187e-09
2.04765e-06
1.1282e-06
9.78478e-07
3.95567e-09
1.19673e-06
1.01161e-06
3.55266e-09
1.26704e-06
1.04581e-06
3.41046e-09
1.33939e-06
1.08114e-06
3.50818e-09
1.41382e-06
1.11794e-06
3.73509e-09
1.49016e-06
1.15635e-06
3.83169e-09
1.56794e-06
1.19645e-06
3.73653e-09
1.64653e-06
1.23791e-06
3.36817e-09
1.72591e-06
1.28024e-06
2.96968e-09
1.80669e-06
1.32353e-06
2.66474e-09
1.88983e-06
1.36794e-06
2.50358e-09
1.97578e-06
1.41452e-06
2.41922e-09
1.46279e-06
1.56286e-09
2.06421e-06
1.13043e-06
9.08471e-07
5.52082e-09
1.2004e-06
9.40712e-07
4.79835e-09
1.27167e-06
9.73747e-07
4.33278e-09
1.34449e-06
1.00753e-06
4.08784e-09
1.41916e-06
1.04234e-06
4.04556e-09
1.49589e-06
1.07854e-06
4.03334e-09
1.57476e-06
1.11642e-06
3.92891e-09
1.65543e-06
1.15616e-06
3.62577e-09
1.73738e-06
1.19732e-06
3.20606e-09
1.82042e-06
1.23971e-06
2.74182e-09
1.90484e-06
1.28286e-06
2.38049e-09
1.99129e-06
1.32739e-06
2.22633e-09
1.37349e-06
7.77059e-10
2.08066e-06
1.0605e-06
8.04669e-07
8.18236e-09
1.13123e-06
8.35246e-07
7.03095e-09
1.2031e-06
8.6681e-07
6.11441e-09
1.27598e-06
8.99109e-07
5.40949e-09
1.34993e-06
9.31971e-07
4.87668e-09
1.42522e-06
9.65489e-07
4.5176e-09
1.50218e-06
9.99995e-07
4.28046e-09
1.58124e-06
1.03575e-06
4.04916e-09
1.66262e-06
1.07325e-06
3.75051e-09
1.74615e-06
1.11238e-06
3.37775e-09
1.83142e-06
1.15321e-06
2.95391e-09
1.91817e-06
1.1951e-06
2.47467e-09
2.00643e-06
1.23817e-06
2.24282e-09
1.28256e-06
4.60381e-10
2.09739e-06
1.05814e-06
7.29249e-07
9.31918e-09
1.13073e-06
7.5915e-07
8.06645e-09
1.20453e-06
7.90033e-07
7.05153e-09
1.27932e-06
8.21689e-07
6.21918e-09
1.35499e-06
8.53934e-07
5.51625e-09
1.43162e-06
8.86667e-07
4.91153e-09
1.50942e-06
9.20128e-07
4.4315e-09
1.58883e-06
9.5438e-07
3.99216e-09
1.67031e-06
9.89918e-07
3.58983e-09
1.75417e-06
1.0268e-06
3.22264e-09
1.84046e-06
1.06537e-06
2.87524e-09
1.92888e-06
1.10534e-06
2.44574e-09
2.01918e-06
1.1466e-06
2.24227e-09
1.18939e-06
2.62339e-10
2.1122e-06
1.05546e-06
6.51406e-07
9.80125e-09
1.12966e-06
6.80727e-07
8.49975e-09
1.20509e-06
7.10935e-07
7.44556e-09
1.28163e-06
7.41873e-07
6.5623e-09
1.35909e-06
7.73489e-07
5.79899e-09
1.43747e-06
8.05572e-07
5.0636e-09
1.51681e-06
8.38312e-07
4.41851e-09
1.5973e-06
8.71616e-07
3.81953e-09
1.67935e-06
9.05791e-07
3.30559e-09
1.76336e-06
9.409e-07
2.87658e-09
1.84975e-06
9.77247e-07
2.48848e-09
1.93865e-06
1.01491e-06
2.13465e-09
2.02995e-06
1.05379e-06
2.03827e-09
1.09464e-06
-4.32747e-10
2.12457e-06
9.78841e-07
5.43486e-07
1.11079e-08
1.0533e-06
5.71642e-07
9.5263e-09
1.1289e-06
6.0055e-07
8.24248e-09
1.20563e-06
6.30176e-07
7.21323e-09
1.28349e-06
6.60372e-07
6.33291e-09
1.36243e-06
6.91221e-07
5.58393e-09
1.44241e-06
7.22549e-07
4.82987e-09
1.52345e-06
7.54502e-07
4.11758e-09
1.60557e-06
7.87005e-07
3.44664e-09
1.68896e-06
8.20175e-07
2.85246e-09
1.77385e-06
8.54025e-07
2.35106e-09
1.86063e-06
8.88684e-07
1.89969e-09
1.94966e-06
9.24334e-07
1.54207e-09
2.04104e-06
9.6081e-07
1.52538e-09
9.99348e-07
-1.3833e-09
2.13631e-06
9.7669e-07
4.62478e-07
9.63042e-09
1.05256e-06
4.90673e-07
8.21578e-09
1.12935e-06
5.19331e-07
7.05239e-09
1.2071e-06
5.48476e-07
6.13705e-09
1.28589e-06
5.77992e-07
5.33548e-09
1.36582e-06
6.07988e-07
4.66044e-09
1.44691e-06
6.38415e-07
3.989e-09
1.52927e-06
6.69377e-07
3.31854e-09
1.61291e-06
7.00882e-07
2.67843e-09
1.69789e-06
7.32998e-07
2.06677e-09
1.78429e-06
7.65699e-07
1.55047e-09
1.87228e-06
7.99011e-07
1.07751e-09
1.96212e-06
8.33048e-07
7.1303e-10
2.05385e-06
8.67568e-07
8.03816e-10
9.03762e-07
-1.95978e-09
2.14944e-06
9.77353e-07
3.81232e-07
6.66418e-09
1.05435e-06
4.0955e-07
5.5512e-09
1.13205e-06
4.38044e-07
4.6296e-09
1.21055e-06
4.66757e-07
3.91135e-09
1.28997e-06
4.95637e-07
3.28362e-09
1.37047e-06
5.24784e-07
2.73496e-09
1.45217e-06
5.54217e-07
2.21311e-09
1.53521e-06
5.84055e-07
1.68374e-09
1.61972e-06
6.14328e-07
1.17524e-09
1.70577e-06
6.45139e-07
6.89027e-10
1.79342e-06
6.76468e-07
2.93356e-10
1.88276e-06
7.08318e-07
-9.63639e-11
1.97391e-06
7.40758e-07
-3.90584e-10
2.06674e-06
7.73526e-07
-2.05544e-10
8.07497e-07
-2.4348e-09
2.16305e-06
9.82267e-07
3.01261e-07
1.91058e-09
1.06003e-06
3.29661e-07
1.22737e-09
1.1383e-06
3.57948e-07
6.80352e-10
1.21724e-06
3.86192e-07
2.62668e-10
1.29699e-06
4.14396e-07
-1.0401e-10
1.37771e-06
4.42681e-07
-4.29998e-10
1.45958e-06
4.71082e-07
-7.40043e-10
1.54276e-06
4.99732e-07
-1.03569e-09
1.62741e-06
5.28667e-07
-1.30119e-09
1.71372e-06
5.57974e-07
-1.55471e-09
1.80177e-06
5.87682e-07
-1.69533e-09
1.8917e-06
6.17764e-07
-1.85122e-09
1.98365e-06
6.48316e-07
-1.90061e-09
2.07745e-06
6.79075e-07
-1.56158e-09
7.10772e-07
-3.48735e-09
2.17459e-06
9.14706e-07
1.96006e-07
-4.79761e-09
9.92472e-07
2.24611e-07
-4.99245e-09
1.07048e-06
2.5284e-07
-5.08194e-09
1.1489e-06
2.80691e-07
-5.11642e-09
1.22791e-06
3.08272e-07
-5.08835e-09
1.30768e-06
3.35634e-07
-5.0625e-09
1.38836e-06
3.62917e-07
-5.02799e-09
1.47011e-06
3.90185e-07
-4.98009e-09
1.5531e-06
4.17541e-07
-4.92957e-09
1.63749e-06
4.45038e-07
-4.8259e-09
1.72347e-06
4.7271e-07
-4.71496e-09
1.8112e-06
5.00611e-07
-4.47832e-09
1.90087e-06
5.28683e-07
-4.27131e-09
1.99268e-06
5.57054e-07
-3.98598e-09
2.08654e-06
5.85445e-07
-3.36845e-09
6.14625e-07
-5.18402e-09
2.18389e-06
9.31204e-07
1.25969e-07
-1.52279e-08
1.00851e-06
1.54047e-07
-1.44527e-08
1.08605e-06
1.81527e-07
-1.37262e-08
1.16403e-06
2.0845e-07
-1.3058e-08
1.24262e-06
2.34942e-07
-1.24147e-08
1.32199e-06
2.61094e-07
-1.18134e-08
1.40229e-06
2.87039e-07
-1.12404e-08
1.48365e-06
3.12862e-07
-1.06523e-08
1.56624e-06
3.38638e-07
-1.00695e-08
1.6502e-06
3.64417e-07
-9.42825e-09
1.73569e-06
3.90205e-07
-8.7928e-09
1.82288e-06
4.16042e-07
-8.04794e-09
1.91197e-06
4.41865e-07
-7.39966e-09
2.00321e-06
4.67801e-07
-6.72367e-09
2.09653e-06
4.93581e-07
-5.68345e-09
5.19921e-07
-7.11507e-09
2.19346e-06
9.54854e-07
6.64385e-08
-2.86946e-08
1.03059e-06
9.29298e-08
-2.6701e-08
1.1067e-06
1.18741e-07
-2.49456e-08
1.18339e-06
1.43936e-07
-2.33715e-08
1.26083e-06
1.68634e-07
-2.19155e-08
1.33916e-06
1.92932e-07
-2.05424e-08
1.41854e-06
2.16945e-07
-1.92164e-08
1.4991e-06
2.40744e-07
-1.78955e-08
1.58098e-06
2.64389e-07
-1.65824e-08
1.6643e-06
2.87914e-07
-1.52287e-08
1.74923e-06
3.1132e-07
-1.39079e-08
1.83592e-06
3.34631e-07
-1.25348e-08
1.92454e-06
3.57799e-07
-1.12874e-08
2.01534e-06
3.80924e-07
-1.00915e-08
2.10822e-06
4.03808e-07
-8.59481e-09
4.26932e-07
-9.24358e-09
2.20465e-06
9.85791e-07
2.14108e-08
-4.53273e-08
1.05876e-06
4.48964e-08
-4.1848e-08
1.13231e-06
6.77727e-08
-3.87842e-08
1.20667e-06
9.00974e-08
-3.60242e-08
1.28201e-06
1.11965e-07
-3.34789e-08
1.35848e-06
1.33454e-07
-3.10925e-08
1.43623e-06
1.54644e-07
-2.88041e-08
1.51538e-06
1.75583e-07
-2.65727e-08
1.59605e-06
1.96304e-07
-2.43908e-08
1.67838e-06
2.16827e-07
-2.22143e-08
1.7625e-06
2.37148e-07
-2.01036e-08
1.84855e-06
2.57284e-07
-1.80092e-08
1.93667e-06
2.77201e-07
-1.60466e-08
2.02708e-06
2.9697e-07
-1.42038e-08
2.1197e-06
3.16476e-07
-1.21848e-08
3.35967e-07
-1.18743e-08
2.21572e-06
1.02307e-06
-5.84523e-09
-6.46714e-08
1.0922e-06
1.29338e-08
-5.93052e-08
1.16217e-06
3.1322e-08
-5.4568e-08
1.23322e-06
4.93551e-08
-5.03308e-08
1.30557e-06
6.70907e-08
-4.64772e-08
1.37939e-06
8.45746e-08
-4.29171e-08
1.45481e-06
1.01841e-07
-3.95675e-08
1.53195e-06
1.18902e-07
-3.63556e-08
1.61093e-06
1.35757e-07
-3.32531e-08
1.69184e-06
1.52403e-07
-3.02104e-08
1.77478e-06
1.68825e-07
-2.7259e-08
1.85987e-06
1.85031e-07
-2.43706e-08
1.94723e-06
2.00995e-07
-2.1628e-08
2.03702e-06
2.16767e-07
-1.90511e-08
2.12922e-06
2.32274e-07
-1.64024e-08
2.47658e-07
-1.52309e-08
2.22473e-06
1.06242e-06
-1.50308e-08
-8.48699e-08
1.12754e-06
-2.31938e-09
-7.7468e-08
1.19356e-06
1.02305e-08
-7.09699e-08
1.26086e-06
2.26635e-08
-6.52165e-08
1.32974e-06
3.50109e-08
-6.00605e-08
1.40044e-06
4.72878e-08
-5.53513e-08
1.47313e-06
5.94872e-08
-5.09647e-08
1.54793e-06
7.15898e-08
-4.67886e-08
1.62493e-06
8.35652e-08
-4.27613e-08
1.70418e-06
9.53897e-08
-3.88312e-08
1.78575e-06
1.07037e-07
-3.50062e-08
1.86969e-06
1.18505e-07
-3.12748e-08
1.95608e-06
1.29767e-07
-2.77047e-08
2.04507e-06
1.40862e-07
-2.4337e-08
2.13663e-06
1.51728e-07
-2.09906e-08
1.6247e-07
-1.88992e-08
2.23145e-06
1.09561e-06
-1.05085e-08
-1.01804e-07
1.15786e-06
-4.21038e-09
-9.30512e-08
1.22072e-06
2.01955e-09
-8.53328e-08
1.28476e-06
8.22915e-09
-7.85035e-08
1.35046e-06
1.44458e-08
-7.23948e-08
1.41823e-06
2.06786e-08
-6.68248e-08
1.48832e-06
2.69174e-08
-6.16269e-08
1.56088e-06
3.31428e-08
-5.66613e-08
1.63601e-06
3.93286e-08
-5.18393e-08
1.71373e-06
4.54525e-08
-4.71139e-08
1.79405e-06
5.14937e-08
-4.24815e-08
1.87697e-06
5.74448e-08
-3.79531e-08
1.96253e-06
6.32883e-08
-3.35867e-08
2.05081e-06
6.90432e-08
-2.94423e-08
2.14181e-06
7.46682e-08
-2.54158e-08
8.02293e-08
-2.23205e-08
2.23599e-06
1.11361e-06
-1.10896e-07
1.17473e-06
-1.01753e-07
1.23612e-06
-9.36895e-08
1.29844e-06
-8.65515e-08
1.36233e-06
-8.01644e-08
1.42831e-06
-7.43269e-08
1.49677e-06
-6.88448e-08
1.56792e-06
-6.35549e-08
1.64187e-06
-5.83485e-08
1.71864e-06
-5.31819e-08
1.7982e-06
-4.80509e-08
1.88053e-06
-4.29907e-08
1.96562e-06
-3.80635e-08
2.05354e-06
-3.33453e-08
2.14426e-06
-2.88061e-08
-2.48969e-08
2.23808e-06
1.67013e-06
1.7043e-06
-1.3077e-08
1.76533e-06
1.7619e-06
-1.17074e-08
-1.85026e-06
1.86306e-06
1.8218e-06
-1.01449e-08
-1.9133e-06
1.96182e-06
1.8826e-06
-8.65923e-09
-1.97614e-06
2.06086e-06
1.94323e-06
-7.63464e-09
-2.03801e-06
2.1615e-06
2.00414e-06
-6.79107e-09
-2.10128e-06
2.26597e-06
2.06731e-06
-6.15199e-09
-2.16873e-06
2.37484e-06
2.13458e-06
-6.03429e-09
-2.2406e-06
2.48608e-06
2.20563e-06
-6.46689e-09
-2.31398e-06
2.59788e-06
2.27845e-06
-7.12267e-09
-2.38737e-06
2.71185e-06
2.35219e-06
-7.73587e-09
-2.46332e-06
2.42756e-06
-5.94405e-09
2.83026e-06
-2.54349e-06
1.67951e-06
1.61755e-06
-7.63444e-09
1.77565e-06
1.67145e-06
-7.01223e-09
1.87488e-06
1.7279e-06
-6.10589e-09
1.97606e-06
1.78614e-06
-5.04159e-09
2.07801e-06
1.84532e-06
-4.14097e-09
2.18064e-06
1.90499e-06
-3.56413e-09
2.2854e-06
1.96556e-06
-3.10419e-09
2.39412e-06
2.02861e-06
-2.74451e-09
2.50709e-06
2.09528e-06
-2.54335e-09
2.62275e-06
2.16539e-06
-2.58417e-09
2.73973e-06
2.23775e-06
-2.78011e-09
2.31061e-06
-2.13823e-09
2.85896e-06
1.59307e-06
1.48024e-06
-1.34838e-09
1.68632e-06
1.52816e-06
-1.86422e-09
1.78312e-06
1.57862e-06
-1.74813e-09
1.88328e-06
1.63144e-06
-1.09488e-09
1.9862e-06
1.68643e-06
-2.12855e-10
2.09097e-06
1.74325e-06
5.24018e-10
2.19674e-06
1.80149e-06
8.51951e-10
2.30359e-06
1.86068e-06
8.66074e-10
2.41275e-06
1.92118e-06
9.48512e-10
2.52563e-06
1.98392e-06
1.15116e-09
2.64268e-06
2.04971e-06
1.33576e-09
2.76275e-06
2.11899e-06
1.33439e-09
2.18975e-06
8.61928e-10
2.88499e-06
1.59726e-06
1.39038e-06
2.25719e-09
1.69175e-06
1.43603e-06
1.19728e-09
1.7893e-06
1.48365e-06
8.25988e-10
1.89003e-06
1.53314e-06
1.07339e-09
1.99385e-06
1.58466e-06
1.68985e-09
2.10044e-06
1.63828e-06
2.21597e-09
2.20916e-06
1.69407e-06
2.43744e-09
2.31932e-06
1.75166e-06
2.2265e-09
2.43093e-06
1.81062e-06
1.91193e-09
2.54477e-06
1.87105e-06
1.69994e-09
2.66205e-06
1.93329e-06
1.63976e-09
2.78322e-06
1.99855e-06
1.69012e-09
2.06622e-06
5.614e-10
2.90776e-06
1.59988e-06
1.29672e-06
5.26242e-09
1.69629e-06
1.34065e-06
3.76675e-09
1.79518e-06
1.38617e-06
2.92709e-09
1.89668e-06
1.43306e-06
2.6715e-09
2.00102e-06
1.48149e-06
2.87988e-09
2.10835e-06
1.53178e-06
3.19702e-09
2.21867e-06
1.58431e-06
3.36712e-09
2.33156e-06
1.63923e-06
3.17151e-09
2.44646e-06
1.69618e-06
2.75324e-09
2.56312e-06
1.75489e-06
2.24352e-09
2.68205e-06
1.8149e-06
1.84765e-09
2.80401e-06
1.87698e-06
1.83441e-09
1.94132e-06
-1.98261e-10
2.92989e-06
1.50388e-06
1.1583e-06
1.05094e-08
1.60048e-06
1.19899e-06
8.16659e-09
1.69939e-06
1.24147e-06
6.38313e-09
1.80039e-06
1.28539e-06
5.17843e-09
1.90343e-06
1.33043e-06
4.47338e-09
2.00868e-06
1.37656e-06
4.18827e-09
2.11652e-06
1.42409e-06
4.13951e-09
2.22736e-06
1.47341e-06
4.10428e-09
2.34142e-06
1.52502e-06
3.89725e-09
2.45853e-06
1.57894e-06
3.51275e-09
2.57817e-06
1.63519e-06
3.00761e-09
2.70007e-06
1.69309e-06
2.38405e-09
2.82429e-06
1.75277e-06
2.23152e-09
1.81434e-06
-4.46004e-10
2.95217e-06
1.49999e-06
1.05806e-06
1.2943e-08
1.5992e-06
1.0974e-06
1.0441e-08
1.70074e-06
1.13848e-06
8.50695e-09
1.80429e-06
1.18096e-06
7.09678e-09
1.90959e-06
1.22454e-06
6.10209e-09
2.01663e-06
1.26902e-06
5.40726e-09
2.12564e-06
1.31457e-06
4.94489e-09
2.23709e-06
1.36138e-06
4.56849e-09
2.35152e-06
1.40998e-06
4.1988e-09
2.46932e-06
1.46057e-06
3.79649e-09
2.5905e-06
1.51351e-06
3.37657e-09
2.71477e-06
1.56849e-06
2.78118e-09
2.84171e-06
1.62543e-06
2.64983e-09
1.68446e-06
-3.97313e-10
2.97225e-06
1.49522e-06
9.54348e-07
1.44127e-08
1.59681e-06
9.92467e-07
1.18371e-08
1.70073e-06
1.03216e-06
9.85303e-09
1.80671e-06
1.07317e-06
8.36581e-09
1.91447e-06
1.11533e-06
7.25071e-09
2.02386e-06
1.15837e-06
6.32113e-09
2.1349e-06
1.20239e-06
5.55183e-09
2.24782e-06
1.2474e-06
4.87327e-09
2.36311e-06
1.29371e-06
4.28642e-09
2.48128e-06
1.3415e-06
3.76764e-09
2.60283e-06
1.39114e-06
3.30834e-09
2.72795e-06
1.44271e-06
2.80101e-09
2.85642e-06
1.49617e-06
2.82138e-09
1.55224e-06
-9.28263e-10
2.98913e-06
1.38901e-06
8.11937e-07
1.785e-08
1.49057e-06
8.47628e-07
1.46898e-08
1.59437e-06
8.84744e-07
1.2159e-08
1.70033e-06
9.23186e-07
1.0232e-08
1.80833e-06
9.62737e-07
8.76705e-09
1.91821e-06
1.00337e-06
7.6596e-09
2.02984e-06
1.0449e-06
6.67263e-09
2.1432e-06
1.08739e-06
5.76724e-09
2.25831e-06
1.13082e-06
4.91806e-09
2.3754e-06
1.17532e-06
4.15281e-09
2.4948e-06
1.22096e-06
3.49042e-09
2.61698e-06
1.26793e-06
2.92258e-09
2.74241e-06
1.31642e-06
2.39599e-09
2.87121e-06
1.36634e-06
2.56462e-09
1.41898e-06
-1.8207e-09
3.00491e-06
1.38323e-06
7.03325e-07
1.6198e-08
1.48716e-06
7.38616e-07
1.32984e-08
1.593e-06
7.74967e-07
1.09923e-08
1.70072e-06
8.12325e-07
9.27645e-09
1.81032e-06
8.50521e-07
7.95915e-09
1.9218e-06
8.89584e-07
6.96774e-09
2.03515e-06
9.29457e-07
6.08251e-09
2.15042e-06
9.70217e-07
5.21997e-09
2.26765e-06
1.01189e-06
4.37691e-09
2.38691e-06
1.05458e-06
3.55765e-09
2.50832e-06
1.09827e-06
2.83498e-09
2.63211e-06
1.14303e-06
2.19601e-09
2.75867e-06
1.18896e-06
1.61262e-09
2.88802e-06
1.23588e-06
1.90688e-09
1.28508e-06
-2.36471e-09
3.02232e-06
1.38031e-06
5.93385e-07
1.20301e-08
1.48638e-06
6.28449e-07
9.63925e-09
1.59401e-06
6.64193e-07
7.77804e-09
1.70323e-06
7.00583e-07
6.43473e-09
1.81408e-06
7.37521e-07
5.42594e-09
1.92669e-06
7.75055e-07
4.65522e-09
2.04117e-06
8.13206e-07
3.98839e-09
2.15765e-06
8.52094e-07
3.32753e-09
2.27628e-06
8.91775e-07
2.66264e-09
2.39716e-06
9.32381e-07
1.99883e-09
2.52039e-06
9.73918e-07
1.41649e-09
2.64604e-06
1.01641e-06
8.6853e-10
2.77437e-06
1.05989e-06
3.44471e-10
2.90517e-06
1.10415e-06
7.28524e-10
1.15013e-06
-2.82868e-09
3.04051e-06
1.38205e-06
4.83914e-07
4.64367e-09
1.48992e-06
5.18773e-07
3.03754e-09
1.599e-06
5.5391e-07
1.88012e-09
1.7094e-06
5.89332e-07
1.11492e-09
1.82122e-06
6.25009e-07
5.88754e-10
1.9346e-06
6.61033e-07
2.07194e-10
2.04972e-06
6.97462e-07
-1.17268e-10
2.16678e-06
7.34437e-07
-4.31068e-10
2.28596e-06
7.72036e-07
-7.45662e-10
2.40749e-06
8.10374e-07
-1.07363e-09
2.53151e-06
8.49501e-07
-1.30041e-09
2.65817e-06
8.89415e-07
-1.52098e-09
2.7877e-06
9.30174e-07
-1.71083e-09
2.91986e-06
9.71536e-07
-1.10899e-09
1.0143e-06
-4.14476e-09
3.05636e-06
1.28195e-06
3.43014e-07
-5.96559e-09
1.39023e-06
3.77452e-07
-6.80661e-09
1.49933e-06
4.11852e-07
-7.26465e-09
1.6094e-06
4.46147e-07
-7.42467e-09
1.72058e-06
4.80403e-07
-7.33796e-09
1.833e-06
5.1466e-07
-7.13825e-09
1.94684e-06
5.49055e-07
-6.88784e-09
2.06226e-06
5.8369e-07
-6.62484e-09
2.17946e-06
6.18691e-07
-6.38147e-09
2.29864e-06
6.54148e-07
-6.12086e-09
2.42005e-06
6.90124e-07
-5.8744e-09
2.54391e-06
7.26674e-07
-5.5154e-09
2.67046e-06
7.63765e-07
-5.17235e-09
2.80001e-06
8.01477e-07
-4.8323e-09
2.93242e-06
8.39542e-07
-3.78439e-09
8.78792e-07
-6.55955e-09
3.0693e-06
1.29704e-06
2.43867e-07
-2.44432e-08
1.40588e-06
2.77526e-07
-2.3363e-08
1.5154e-06
3.10796e-07
-2.21897e-08
1.62577e-06
3.43678e-07
-2.09593e-08
1.73715e-06
3.76283e-07
-1.96798e-08
1.84969e-06
4.08718e-07
-1.84133e-08
1.96356e-06
4.41139e-07
-1.71927e-08
2.07892e-06
4.73674e-07
-1.59946e-08
2.19595e-06
5.06432e-07
-1.48433e-08
2.31485e-06
5.3949e-07
-1.36698e-08
2.43585e-06
5.72866e-07
-1.25322e-08
2.55919e-06
6.06592e-07
-1.13051e-08
2.68513e-06
6.40602e-07
-1.01735e-08
2.81403e-06
6.74982e-07
-9.13546e-09
2.94584e-06
7.09453e-07
-7.40216e-09
7.44798e-07
-9.57683e-09
3.0823e-06
1.32143e-06
1.57017e-07
-4.94964e-08
1.42953e-06
1.88619e-07
-4.58904e-08
1.53832e-06
2.19637e-07
-4.25738e-08
1.64798e-06
2.50135e-07
-3.9488e-08
1.75867e-06
2.80249e-07
-3.65752e-08
1.87054e-06
3.10113e-07
-3.38122e-08
1.98376e-06
3.39884e-07
-3.11776e-08
2.09848e-06
3.69677e-07
-2.86236e-08
2.2149e-06
3.99581e-07
-2.61504e-08
2.33322e-06
4.2964e-07
-2.36913e-08
2.45364e-06
4.59852e-07
-2.13207e-08
2.57642e-06
4.90219e-07
-1.8944e-08
2.7018e-06
5.2067e-07
-1.67337e-08
2.83016e-06
5.51271e-07
-1.47342e-08
2.96141e-06
5.81795e-07
-1.21865e-08
6.12787e-07
-1.31137e-08
3.09729e-06
1.35536e-06
8.79086e-08
-8.15489e-08
1.46125e-06
1.15716e-07
-7.48382e-08
1.56794e-06
1.42924e-07
-6.87635e-08
1.67562e-06
1.69629e-07
-6.31997e-08
1.78446e-06
1.9598e-07
-5.80423e-08
1.89459e-06
2.22113e-07
-5.32306e-08
2.00621e-06
2.48159e-07
-4.86951e-08
2.11948e-06
2.74204e-07