/*--------------------------------*- C++ -*----------------------------------*\
  =========                 |
  \\      /  F ield         | OpenFOAM: The Open Source CFD Toolbox
   \\    /   O peration     | Website:  https://openfoam.org
    \\  /    A nd           | Version:  6
     \\/     M anipulation  |
\*---------------------------------------------------------------------------*/
FoamFile
{
    version     2.0;
    format      ascii;
    class       volScalarField;
    location    "2";
    object      nut;
}
// * * * * * * * * * * * * * * * * * * * * * * * * * * * * * * * * * * * * * //

dimensions      [0 2 -1 0 0 0 0];

internalField   nonuniform List<scalar> 
63568
(
3.36892e-07
4.05817e-07
4.11877e-07
4.01658e-07
3.94701e-07
3.90208e-07
3.85988e-07
3.81327e-07
3.76442e-07
3.71867e-07
3.68096e-07
3.65422e-07
3.64022e-07
3.63797e-07
3.6456e-07
3.65878e-07
3.67512e-07
3.6928e-07
3.71081e-07
3.73159e-07
3.75279e-07
3.77911e-07
3.80678e-07
3.83959e-07
3.87648e-07
3.91649e-07
3.96506e-07
4.0144e-07
4.07839e-07
4.13968e-07
4.22478e-07
4.29925e-07
4.41538e-07
4.49868e-07
4.66149e-07
3.152e-07
3.73945e-07
3.78759e-07
3.69906e-07
3.6368e-07
3.59622e-07
3.56612e-07
3.54326e-07
3.52592e-07
3.51289e-07
3.50381e-07
3.49863e-07
3.49938e-07
3.50541e-07
3.51926e-07
3.53415e-07
3.55654e-07
3.57175e-07
3.59912e-07
3.61205e-07
3.64583e-07
3.6616e-07
3.70326e-07
3.72779e-07
3.77947e-07
3.8149e-07
3.87917e-07
3.92641e-07
4.00675e-07
4.06462e-07
4.17048e-07
4.22918e-07
4.38925e-07
4.41316e-07
4.67062e-07
2.93993e-07
3.42489e-07
3.45692e-07
3.38789e-07
3.34027e-07
3.303e-07
3.26042e-07
3.20879e-07
3.15298e-07
3.10135e-07
3.06114e-07
3.03574e-07
3.02615e-07
3.02929e-07
3.04341e-07
3.06167e-07
3.0861e-07
3.1075e-07
3.13702e-07
3.15878e-07
3.19445e-07
3.21847e-07
3.25995e-07
3.28823e-07
3.33539e-07
3.36873e-07
3.42419e-07
3.46413e-07
3.53201e-07
3.57996e-07
3.66747e-07
3.71809e-07
3.84589e-07
3.87183e-07
4.08752e-07
2.73106e-07
3.10681e-07
3.11545e-07
3.05693e-07
3.01424e-07
2.98295e-07
2.954e-07
2.92369e-07
2.89403e-07
2.86921e-07
2.8527e-07
2.84622e-07
2.85066e-07
2.86437e-07
2.88563e-07
2.90984e-07
2.93607e-07
2.96039e-07
2.98618e-07
3.00892e-07
3.03658e-07
3.06132e-07
3.09327e-07
3.12379e-07
3.16151e-07
3.19871e-07
3.24481e-07
3.28839e-07
3.34565e-07
3.39589e-07
3.46889e-07
3.52369e-07
3.62448e-07
3.67617e-07
3.8256e-07
2.52058e-07
2.83041e-07
2.83754e-07
2.78933e-07
2.75467e-07
2.72996e-07
2.71167e-07
2.69919e-07
2.69265e-07
2.69253e-07
2.69888e-07
2.71114e-07
2.72897e-07
2.75135e-07
2.77725e-07
2.80467e-07
2.83177e-07
2.85825e-07
2.88289e-07
2.90706e-07
2.93243e-07
2.95698e-07
2.98856e-07
3.01756e-07
3.05898e-07
3.09492e-07
3.14788e-07
3.19093e-07
3.25639e-07
3.30503e-07
3.38673e-07
3.4334e-07
3.54776e-07
3.56571e-07
3.74193e-07
2.30827e-07
2.53838e-07
2.53149e-07
2.49189e-07
2.46056e-07
2.43448e-07
2.40924e-07
2.38399e-07
2.36185e-07
2.34654e-07
2.34017e-07
2.34295e-07
2.35452e-07
2.3727e-07
2.39621e-07
2.4206e-07
2.44695e-07
2.4695e-07
2.49535e-07
2.51507e-07
2.54241e-07
2.56284e-07
2.59373e-07
2.61832e-07
2.65509e-07
2.6843e-07
2.72936e-07
2.76284e-07
2.81778e-07
2.85462e-07
2.92303e-07
2.9583e-07
3.05421e-07
3.06764e-07
3.22738e-07
2.10214e-07
2.27402e-07
2.26361e-07
2.23359e-07
2.21145e-07
2.19355e-07
2.17579e-07
2.15717e-07
2.14083e-07
2.13107e-07
2.13056e-07
2.13949e-07
2.15694e-07
2.17991e-07
2.20675e-07
2.23269e-07
2.25975e-07
2.28141e-07
2.30711e-07
2.32471e-07
2.35186e-07
2.36951e-07
2.39943e-07
2.42086e-07
2.45479e-07
2.48063e-07
2.52036e-07
2.55021e-07
2.59742e-07
2.62935e-07
2.68804e-07
2.71556e-07
2.79851e-07
2.79858e-07
2.9357e-07
1.89721e-07
2.02004e-07
2.00442e-07
1.97782e-07
1.9554e-07
1.93389e-07
1.90922e-07
1.88136e-07
1.85507e-07
1.83605e-07
1.82784e-07
1.83095e-07
1.84392e-07
1.86346e-07
1.88682e-07
1.91018e-07
1.93341e-07
1.95367e-07
1.97464e-07
1.9923e-07
2.01375e-07
2.03132e-07
2.05533e-07
2.07444e-07
2.10209e-07
2.12315e-07
2.15532e-07
2.17826e-07
2.21632e-07
2.24021e-07
2.28693e-07
2.30825e-07
2.37303e-07
2.37754e-07
2.48654e-07
1.70663e-07
1.78769e-07
1.77011e-07
1.7513e-07
1.73675e-07
1.72289e-07
1.70543e-07
1.68434e-07
1.66488e-07
1.65302e-07
1.65201e-07
1.6617e-07
1.67986e-07
1.70277e-07
1.72744e-07
1.75071e-07
1.77238e-07
1.79118e-07
1.80957e-07
1.82604e-07
1.84463e-07
1.86114e-07
1.88226e-07
1.89948e-07
1.92428e-07
1.94241e-07
1.97102e-07
1.99076e-07
2.02362e-07
2.04409e-07
2.08386e-07
2.10078e-07
2.15601e-07
2.15364e-07
2.24716e-07
1.53641e-07
1.59169e-07
1.57326e-07
1.55485e-07
1.53843e-07
1.5202e-07
1.49672e-07
1.46975e-07
1.44557e-07
1.43039e-07
1.42719e-07
1.43523e-07
1.45155e-07
1.47205e-07
1.49373e-07
1.51375e-07
1.53237e-07
1.54813e-07
1.56438e-07
1.57796e-07
1.59495e-07
1.60829e-07
1.62697e-07
1.641e-07
1.66143e-07
1.67615e-07
1.69931e-07
1.71457e-07
1.74161e-07
1.75703e-07
1.78986e-07
1.8028e-07
1.84777e-07
1.84787e-07
1.92438e-07
1.36928e-07
1.39714e-07
1.37841e-07
1.36622e-07
1.35566e-07
1.3428e-07
1.32388e-07
1.30135e-07
1.28254e-07
1.27376e-07
1.27714e-07
1.29083e-07
1.31098e-07
1.33325e-07
1.35477e-07
1.3734e-07
1.38976e-07
1.40343e-07
1.41715e-07
1.42931e-07
1.44374e-07
1.45619e-07
1.47205e-07
1.48492e-07
1.50251e-07
1.51515e-07
1.53552e-07
1.54786e-07
1.57167e-07
1.58381e-07
1.61233e-07
1.62186e-07
1.6606e-07
1.65659e-07
1.72311e-07
1.21628e-07
1.23077e-07
1.21295e-07
1.1998e-07
1.18689e-07
1.16966e-07
1.14603e-07
1.12036e-07
1.10038e-07
1.0918e-07
1.09581e-07
1.10958e-07
1.1286e-07
1.14859e-07
1.16705e-07
1.18255e-07
1.19596e-07
1.20721e-07
1.21878e-07
1.22897e-07
1.24159e-07
1.25162e-07
1.26553e-07
1.27527e-07
1.2901e-07
1.29972e-07
1.31613e-07
1.32592e-07
1.34493e-07
1.3547e-07
1.37766e-07
1.38551e-07
1.4166e-07
1.41525e-07
1.46842e-07
1.06204e-07
1.05996e-07
1.04352e-07
1.03497e-07
1.02567e-07
1.01153e-07
9.91183e-08
9.70408e-08
9.57477e-08
9.57107e-08
9.68691e-08
9.87907e-08
1.00969e-07
1.03004e-07
1.04717e-07
1.06058e-07
1.07159e-07
1.08078e-07
1.09014e-07
1.09888e-07
1.1092e-07
1.11829e-07
1.12956e-07
1.13872e-07
1.1507e-07
1.15971e-07
1.17329e-07
1.18206e-07
1.19806e-07
1.20656e-07
1.22574e-07
1.23234e-07
1.25833e-07
1.25552e-07
1.30118e-07
9.21823e-08
9.13835e-08
8.98878e-08
8.89197e-08
8.77484e-08
8.59821e-08
8.37214e-08
8.17005e-08
8.06834e-08
8.09782e-08
8.23643e-08
8.43223e-08
8.63437e-08
8.80959e-08
8.9482e-08
9.05267e-08
9.13809e-08
9.21157e-08
9.28873e-08
9.36189e-08
9.44907e-08
9.52126e-08
9.6168e-08
9.68349e-08
9.78559e-08
9.85102e-08
9.96513e-08
1.00326e-07
1.0166e-07
1.0232e-07
1.03926e-07
1.0443e-07
1.06568e-07
1.06422e-07
1.10073e-07
7.80835e-08
7.66275e-08
7.53583e-08
7.45885e-08
7.34749e-08
7.17833e-08
6.98378e-08
6.8491e-08
6.84034e-08
6.96376e-08
7.17331e-08
7.40582e-08
7.61314e-08
7.7733e-08
7.88836e-08
7.96998e-08
8.03534e-08
8.09217e-08
8.15146e-08
8.2094e-08
8.27621e-08
8.33648e-08
8.41146e-08
8.47279e-08
8.55533e-08
8.6195e-08
8.71381e-08
8.77792e-08
8.89044e-08
8.94858e-08
9.08375e-08
9.12509e-08
9.30484e-08
9.28095e-08
9.59601e-08
6.48653e-08
6.33458e-08
6.22835e-08
6.14513e-08
6.01344e-08
5.82797e-08
5.64639e-08
5.55716e-08
5.60382e-08
5.7682e-08
5.99158e-08
6.21037e-08
6.38498e-08
6.50626e-08
6.58673e-08
6.64301e-08
6.69095e-08
6.73665e-08
6.78567e-08
6.8341e-08
6.88698e-08
6.93363e-08
6.99218e-08
7.03737e-08
7.10602e-08
7.15439e-08
7.2353e-08
7.28575e-08
7.38077e-08
7.42686e-08
7.53847e-08
7.57079e-08
7.71633e-08
7.70058e-08
7.94992e-08
5.22604e-08
5.09376e-08
5.00343e-08
4.89934e-08
4.73672e-08
4.54535e-08
4.41362e-08
4.41629e-08
4.55972e-08
4.79152e-08
5.03849e-08
5.24321e-08
5.38382e-08
5.46982e-08
5.5242e-08
5.565e-08
5.60263e-08
5.63727e-08
5.67068e-08
5.70156e-08
5.73531e-08
5.76926e-08
5.81451e-08
5.85639e-08
5.9151e-08
5.96377e-08
6.03134e-08
6.0798e-08
6.15818e-08
6.19647e-08
6.29082e-08
6.31189e-08
6.43669e-08
6.40786e-08
6.63153e-08
3.96526e-08
3.88468e-08
3.79888e-08
3.66079e-08
3.4806e-08
3.32095e-08
3.2551e-08
3.31618e-08
3.47042e-08
3.66057e-08
3.8354e-08
3.96436e-08
4.04319e-08
4.08591e-08
4.11283e-08
4.1374e-08
4.16751e-08
4.19892e-08
4.23204e-08
4.25869e-08
4.28597e-08
4.30699e-08
4.33718e-08
4.36296e-08
4.40454e-08
4.43742e-08
4.49091e-08
4.52387e-08
4.58547e-08
4.61448e-08
4.68416e-08
4.70049e-08
4.79491e-08
4.76607e-08
4.95259e-08
2.71432e-08
2.69908e-08
2.61099e-08
2.46422e-08
2.30961e-08
2.17196e-08
2.13281e-08
2.2078e-08
2.34085e-08
2.47451e-08
2.57032e-08
2.61693e-08
2.62789e-08
2.62571e-08
2.62945e-08
2.64588e-08
2.67693e-08
2.71098e-08
2.74564e-08
2.76751e-08
2.78488e-08
2.79148e-08
2.80558e-08
2.81172e-08
2.83833e-08
2.85003e-08
2.88918e-08
2.90079e-08
2.94831e-08
2.95903e-08
3.00771e-08
3.01866e-08
3.07156e-08
3.06703e-08
3.15095e-08
1.42776e-08
1.79557e-08
1.77818e-08
1.60941e-08
1.4408e-08
1.3471e-08
1.39326e-08
1.52386e-08
1.65329e-08
1.73618e-08
1.76653e-08
1.76217e-08
1.74948e-08
1.74645e-08
1.75518e-08
1.76838e-08
1.78212e-08
1.79181e-08
1.80281e-08
1.81133e-08
1.82458e-08
1.83561e-08
1.85351e-08
1.86358e-08
1.88825e-08
1.89499e-08
1.92674e-08
1.92883e-08
1.96739e-08
1.96899e-08
2.00368e-08
2.01649e-08
2.04112e-08
2.05783e-08
2.10382e-08
4.6856e-08
4.81834e-08
5.35197e-08
6.29743e-08
7.10161e-08
7.51243e-08
7.50758e-08
7.58995e-08
7.67314e-08
7.86623e-08
8.10253e-08
8.1913e-08
8.1287e-08
8.05707e-08
8.07636e-08
8.19032e-08
8.35492e-08
8.52038e-08
8.66052e-08
8.77e-08
8.85438e-08
8.935e-08
9.00895e-08
9.08777e-08
9.18667e-08
9.26001e-08
9.38514e-08
9.45036e-08
9.60888e-08
9.64108e-08
9.83525e-08
9.8331e-08
1.00725e-07
9.94457e-08
1.02311e-07
3.84979e-06
3.90807e-06
3.88454e-06
3.90513e-06
3.91595e-06
3.9178e-06
3.91743e-06
3.91573e-06
3.91216e-06
3.90689e-06
3.90067e-06
3.89422e-06
3.88859e-06
3.88436e-06
3.88228e-06
3.882e-06
3.88298e-06
3.88487e-06
3.88629e-06
3.88838e-06
3.88937e-06
3.89128e-06
3.89281e-06
3.89458e-06
3.89747e-06
3.89919e-06
3.90351e-06
3.90508e-06
3.91094e-06
3.91221e-06
3.91988e-06
3.92067e-06
3.93095e-06
3.93064e-06
3.94517e-06
3.79241e-06
3.8694e-06
3.84775e-06
3.86708e-06
3.87659e-06
3.8765e-06
3.87364e-06
3.87029e-06
3.86699e-06
3.86394e-06
3.86126e-06
3.85858e-06
3.85653e-06
3.85449e-06
3.85472e-06
3.85422e-06
3.85783e-06
3.85732e-06
3.86319e-06
3.86117e-06
3.86753e-06
3.86504e-06
3.87103e-06
3.86913e-06
3.87553e-06
3.87439e-06
3.88177e-06
3.88134e-06
3.89032e-06
3.88973e-06
3.90131e-06
3.89929e-06
3.91537e-06
3.90897e-06
3.934e-06
3.73707e-06
3.8242e-06
3.80355e-06
3.82232e-06
3.83223e-06
3.83444e-06
3.83452e-06
3.83234e-06
3.82686e-06
3.81842e-06
3.80871e-06
3.79938e-06
3.79232e-06
3.78762e-06
3.78669e-06
3.78678e-06
3.79045e-06
3.79152e-06
3.79716e-06
3.79695e-06
3.80356e-06
3.80303e-06
3.81019e-06
3.81028e-06
3.81821e-06
3.81832e-06
3.8272e-06
3.82699e-06
3.83686e-06
3.83624e-06
3.84793e-06
3.84603e-06
3.86169e-06
3.8557e-06
3.88027e-06
3.68364e-06
3.76938e-06
3.74963e-06
3.76907e-06
3.77779e-06
3.77792e-06
3.77612e-06
3.77301e-06
3.76815e-06
3.76203e-06
3.75571e-06
3.75007e-06
3.74625e-06
3.74454e-06
3.74567e-06
3.74831e-06
3.75279e-06
3.7565e-06
3.76148e-06
3.76385e-06
3.76835e-06
3.77007e-06
3.77413e-06
3.77644e-06
3.78101e-06
3.7835e-06
3.78965e-06
3.79183e-06
3.79969e-06
3.80138e-06
3.81128e-06
3.81197e-06
3.82483e-06
3.82323e-06
3.84154e-06
3.61083e-06
3.71814e-06
3.70053e-06
3.71783e-06
3.72524e-06
3.72377e-06
3.71989e-06
3.71563e-06
3.71165e-06
3.7085e-06
3.70662e-06
3.70601e-06
3.7068e-06
3.70888e-06
3.71231e-06
3.71686e-06
3.72173e-06
3.72694e-06
3.73161e-06
3.73533e-06
3.7397e-06
3.74136e-06
3.74613e-06
3.74674e-06
3.75281e-06
3.7533e-06
3.76141e-06
3.76215e-06
3.77235e-06
3.77312e-06
3.78556e-06
3.78515e-06
3.80153e-06
3.7961e-06
3.82234e-06
3.54154e-06
3.65133e-06
3.6342e-06
3.65126e-06
3.65805e-06
3.65694e-06
3.65367e-06
3.64872e-06
3.64235e-06
3.63578e-06
3.63038e-06
3.6268e-06
3.62578e-06
3.6269e-06
3.63089e-06
3.63536e-06
3.6421e-06
3.64625e-06
3.65332e-06
3.65534e-06
3.66199e-06
3.66302e-06
3.66942e-06
3.67045e-06
3.67802e-06
3.67872e-06
3.68842e-06
3.68868e-06
3.7006e-06
3.70018e-06
3.71455e-06
3.71245e-06
3.73121e-06
3.72359e-06
3.75343e-06
3.45967e-06
3.58171e-06
3.56579e-06
3.58116e-06
3.58714e-06
3.58581e-06
3.58229e-06
3.57672e-06
3.56931e-06
3.56165e-06
3.55567e-06
3.55245e-06
3.55281e-06
3.55589e-06
3.56213e-06
3.56829e-06
3.57686e-06
3.58148e-06
3.59006e-06
3.59162e-06
3.59978e-06
3.60025e-06
3.60781e-06
3.60879e-06
3.61675e-06
3.618e-06
3.62725e-06
3.62839e-06
3.63965e-06
3.63963e-06
3.65384e-06
3.65136e-06
3.6707e-06
3.6612e-06
3.6937e-06
3.36919e-06
3.50227e-06
3.4869e-06
3.50012e-06
3.50457e-06
3.50259e-06
3.49794e-06
3.48976e-06
3.47833e-06
3.46611e-06
3.45611e-06
3.45024e-06
3.44941e-06
3.45271e-06
3.45948e-06
3.467e-06
3.47558e-06
3.48193e-06
3.48939e-06
3.49321e-06
3.50015e-06
3.50262e-06
3.51008e-06
3.51218e-06
3.52081e-06
3.52255e-06
3.53267e-06
3.53361e-06
3.54576e-06
3.54532e-06
3.56007e-06
3.5573e-06
3.57686e-06
3.5678e-06
3.59957e-06
3.27567e-06
3.41495e-06
3.39996e-06
3.41196e-06
3.41593e-06
3.41401e-06
3.40898e-06
3.39957e-06
3.38669e-06
3.37381e-06
3.36455e-06
3.36079e-06
3.3629e-06
3.36931e-06
3.37861e-06
3.38815e-06
3.39762e-06
3.40496e-06
3.41214e-06
3.41682e-06
3.42323e-06
3.42648e-06
3.43387e-06
3.43614e-06
3.4452e-06
3.44681e-06
3.45702e-06
3.45833e-06
3.46996e-06
3.47008e-06
3.48436e-06
3.48179e-06
3.50125e-06
3.49129e-06
3.52471e-06
3.17582e-06
3.32936e-06
3.31433e-06
3.32284e-06
3.32488e-06
3.32147e-06
3.31377e-06
3.30036e-06
3.28308e-06
3.26668e-06
3.25564e-06
3.25195e-06
3.25535e-06
3.2634e-06
3.27406e-06
3.28428e-06
3.29422e-06
3.30125e-06
3.30906e-06
3.31313e-06
3.3209e-06
3.32393e-06
3.33244e-06
3.33535e-06
3.34466e-06
3.34682e-06
3.35743e-06
3.35837e-06
3.37074e-06
3.37018e-06
3.38523e-06
3.38209e-06
3.40218e-06
3.39232e-06
3.42558e-06
3.07273e-06
3.22592e-06
3.21044e-06
3.21852e-06
3.22052e-06
3.21704e-06
3.20779e-06
3.19142e-06
3.17164e-06
3.15492e-06
3.14613e-06
3.14644e-06
3.15421e-06
3.16601e-06
3.17922e-06
3.19092e-06
3.20123e-06
3.20853e-06
3.21582e-06
3.22043e-06
3.22752e-06
3.23153e-06
3.23946e-06
3.24307e-06
3.25229e-06
3.25432e-06
3.26538e-06
3.26576e-06
3.27862e-06
3.27759e-06
3.29294e-06
3.28944e-06
3.3099e-06
3.29887e-06
3.33402e-06
2.954e-06
3.12399e-06
3.10748e-06
3.11078e-06
3.11022e-06
3.10361e-06
3.08936e-06
3.06733e-06
3.04324e-06
3.02502e-06
3.01763e-06
3.02114e-06
3.0323e-06
3.04661e-06
3.06106e-06
3.07302e-06
3.08301e-06
3.08991e-06
3.09711e-06
3.10163e-06
3.10963e-06
3.11344e-06
3.12284e-06
3.12603e-06
3.13601e-06
3.13807e-06
3.14887e-06
3.14963e-06
3.16205e-06
3.16142e-06
3.17657e-06
3.17341e-06
3.19376e-06
3.18363e-06
3.21757e-06
2.82892e-06
2.99474e-06
2.97721e-06
2.98041e-06
2.97916e-06
2.97035e-06
2.95165e-06
2.92527e-06
2.90043e-06
2.88626e-06
2.88623e-06
2.89767e-06
2.91519e-06
2.93358e-06
2.94989e-06
2.96233e-06
2.97192e-06
2.97855e-06
2.98505e-06
2.98989e-06
2.99699e-06
3.0017e-06
3.00976e-06
3.01415e-06
3.02272e-06
3.02585e-06
3.03579e-06
3.03732e-06
3.04918e-06
3.04941e-06
3.06383e-06
3.06155e-06
3.0813e-06
3.07112e-06
3.10594e-06
2.68491e-06
2.86481e-06
2.8452e-06
2.84338e-06
2.83821e-06
2.82331e-06
2.79707e-06
2.76551e-06
2.74058e-06
2.7313e-06
2.73859e-06
2.75687e-06
2.77902e-06
2.79946e-06
2.81582e-06
2.82737e-06
2.83586e-06
2.84182e-06
2.84806e-06
2.85303e-06
2.86066e-06
2.86524e-06
2.87428e-06
2.87774e-06
2.88724e-06
2.88957e-06
2.89993e-06
2.90128e-06
2.91356e-06
2.91363e-06
2.92877e-06
2.9263e-06
2.9465e-06
2.9369e-06
2.97054e-06
2.52539e-06
2.702e-06
2.68102e-06
2.6774e-06
2.66755e-06
2.64467e-06
2.61052e-06
2.57718e-06
2.55944e-06
2.56372e-06
2.58548e-06
2.61479e-06
2.64306e-06
2.66557e-06
2.68162e-06
2.69215e-06
2.69968e-06
2.7052e-06
2.71081e-06
2.71564e-06
2.72204e-06
2.72663e-06
2.73406e-06
2.73824e-06
2.74634e-06
2.75015e-06
2.75968e-06
2.76238e-06
2.77443e-06
2.7754e-06
2.79029e-06
2.78844e-06
2.80848e-06
2.79854e-06
2.83316e-06
2.34193e-06
2.52312e-06
2.50048e-06
2.4922e-06
2.47478e-06
2.44155e-06
2.40009e-06
2.36888e-06
2.36219e-06
2.38094e-06
2.41516e-06
2.45205e-06
2.48281e-06
2.50427e-06
2.5178e-06
2.52602e-06
2.53202e-06
2.53709e-06
2.54268e-06
2.54796e-06
2.55434e-06
2.5589e-06
2.56621e-06
2.56972e-06
2.57832e-06
2.58159e-06
2.59193e-06
2.59472e-06
2.60741e-06
2.60871e-06
2.62398e-06
2.62242e-06
2.64257e-06
2.63314e-06
2.66677e-06
2.12813e-06
2.31431e-06
2.28951e-06
2.27093e-06
2.23611e-06
2.18473e-06
2.1377e-06
2.11865e-06
2.13519e-06
2.17701e-06
2.2264e-06
2.26908e-06
2.29882e-06
2.31652e-06
2.32678e-06
2.3336e-06
2.33969e-06
2.34507e-06
2.35007e-06
2.35399e-06
2.35812e-06
2.3614e-06
2.36723e-06
2.37137e-06
2.37975e-06
2.38507e-06
2.39524e-06
2.39999e-06
2.41267e-06
2.4145e-06
2.43036e-06
2.42827e-06
2.44961e-06
2.43795e-06
2.47511e-06
1.8828e-06
2.05772e-06
2.02714e-06
1.98969e-06
1.9346e-06
1.87628e-06
1.84098e-06
1.84519e-06
1.88085e-06
1.93001e-06
1.97665e-06
2.01139e-06
2.03242e-06
2.04296e-06
2.04842e-06
2.05256e-06
2.05821e-06
2.06428e-06
2.07133e-06
2.07645e-06
2.08194e-06
2.08478e-06
2.0903e-06
2.0934e-06
2.10139e-06
2.10575e-06
2.11691e-06
2.12091e-06
2.13407e-06
2.1368e-06
2.15191e-06
2.15087e-06
2.17208e-06
2.15959e-06
2.19992e-06
1.54725e-06
1.72089e-06
1.67694e-06
1.6219e-06
1.56267e-06
1.50028e-06
1.47206e-06
1.49175e-06
1.53828e-06
1.588e-06
1.62482e-06
1.6431e-06
1.64687e-06
1.64412e-06
1.64244e-06
1.64495e-06
1.6536e-06
1.66414e-06
1.6763e-06
1.68394e-06
1.69027e-06
1.69139e-06
1.69549e-06
1.69465e-06
1.7027e-06
1.70298e-06
1.71576e-06
1.71553e-06
1.73129e-06
1.731e-06
1.74642e-06
1.7467e-06
1.76325e-06
1.75781e-06
1.78508e-06
1.09585e-06
1.41945e-06
1.39514e-06
1.29624e-06
1.19144e-06
1.11635e-06
1.12236e-06
1.18264e-06
1.24658e-06
1.2883e-06
1.30358e-06
1.30044e-06
1.29213e-06
1.28861e-06
1.29156e-06
1.29711e-06
1.30312e-06
1.30671e-06
1.31081e-06
1.31313e-06
1.31785e-06
1.32099e-06
1.3281e-06
1.33022e-06
1.34096e-06
1.34081e-06
1.35528e-06
1.3522e-06
1.36986e-06
1.367e-06
1.38134e-06
1.38529e-06
1.39355e-06
1.39853e-06
1.41734e-06
9.97435e-06
9.84753e-06
1.0284e-05
1.05751e-05
1.07571e-05
1.08216e-05
1.07693e-05
1.07858e-05
1.08001e-05
1.08573e-05
1.09403e-05
1.09723e-05
1.09461e-05
1.09134e-05
1.09141e-05
1.09505e-05
1.1005e-05
1.10585e-05
1.1102e-05
1.11342e-05
1.1157e-05
1.11785e-05
1.11975e-05
1.12159e-05
1.12443e-05
1.1258e-05
1.12959e-05
1.13036e-05
1.13546e-05
1.13488e-05
1.14107e-05
1.1394e-05
1.14706e-05
1.1418e-05
1.15142e-05
8.46059e-06
8.71259e-06
8.62663e-06
8.62291e-06
8.64404e-06
8.65727e-06
8.66477e-06
8.668e-06
8.66668e-06
8.66127e-06
8.65267e-06
8.64136e-06
8.62952e-06
8.61856e-06
8.6111e-06
8.60723e-06
8.60598e-06
8.60772e-06
8.60785e-06
8.61058e-06
8.60982e-06
8.61132e-06
8.61193e-06
8.61166e-06
8.61547e-06
8.61393e-06
8.62097e-06
8.61773e-06
8.62812e-06
8.62258e-06
8.63652e-06
8.62811e-06
8.64675e-06
8.63471e-06
8.65968e-06
8.37736e-06
8.63713e-06
8.55735e-06
8.55337e-06
8.57299e-06
8.58262e-06
8.58376e-06
8.58075e-06
8.57612e-06
8.57118e-06
8.56663e-06
8.56096e-06
8.55606e-06
8.549e-06
8.54778e-06
8.54155e-06
8.54883e-06
8.54119e-06
8.55548e-06
8.54423e-06
8.5594e-06
8.54776e-06
8.56052e-06
8.54982e-06
8.56249e-06
8.55253e-06
8.5664e-06
8.55686e-06
8.57405e-06
8.56245e-06
8.58513e-06
8.56923e-06
8.59987e-06
8.5765e-06
8.61808e-06
8.29065e-06
8.55348e-06
8.47595e-06
8.472e-06
8.49273e-06
8.50812e-06
8.51879e-06
8.52432e-06
8.52258e-06
8.51318e-06
8.49842e-06
8.48062e-06
8.46467e-06
8.45058e-06
8.44458e-06
8.43842e-06
8.44351e-06
8.4388e-06
8.45022e-06
8.44187e-06
8.45545e-06
8.44637e-06
8.46025e-06
8.45247e-06
8.46813e-06
8.4597e-06
8.47743e-06
8.46762e-06
8.48673e-06
8.47478e-06
8.49721e-06
8.48075e-06
8.51045e-06
8.48579e-06
8.52775e-06
8.19863e-06
8.45676e-06
8.37905e-06
8.37839e-06
8.39841e-06
8.40987e-06
8.41567e-06
8.41669e-06
8.41271e-06
8.40462e-06
8.39393e-06
8.38161e-06
8.37059e-06
8.36172e-06
8.3586e-06
8.35817e-06
8.36347e-06
8.3662e-06
8.37437e-06
8.37428e-06
8.38152e-06
8.38012e-06
8.38525e-06
8.38465e-06
8.39089e-06
8.38891e-06
8.3992e-06
8.39494e-06
8.40911e-06
8.40211e-06
8.42093e-06
8.40985e-06
8.43481e-06
8.41775e-06
8.45131e-06
8.09188e-06
8.36076e-06
8.29202e-06
8.29046e-06
8.30865e-06
8.31602e-06
8.31455e-06
8.30865e-06
8.30105e-06
8.29379e-06
8.28807e-06
8.28369e-06
8.28116e-06
8.28031e-06
8.28196e-06
8.28638e-06
8.29174e-06
8.29864e-06
8.30526e-06
8.3087e-06
8.31608e-06
8.31366e-06
8.32197e-06
8.31557e-06
8.3261e-06
8.3176e-06
8.33205e-06
8.32286e-06
8.34138e-06
8.33146e-06
8.35469e-06
8.34145e-06
8.37251e-06
8.35017e-06
8.39413e-06
7.97859e-06
8.24519e-06
8.17675e-06
8.17728e-06
8.19601e-06
8.20655e-06
8.21063e-06
8.20855e-06
8.20117e-06
8.19097e-06
8.18054e-06
8.17083e-06
8.16431e-06
8.16007e-06
8.16235e-06
8.16437e-06
8.17438e-06
8.17591e-06
8.18872e-06
8.18542e-06
8.19746e-06
8.19203e-06
8.20278e-06
8.19618e-06
8.20984e-06
8.20038e-06
8.21894e-06
8.2071e-06
8.23033e-06
8.21592e-06
8.24427e-06
8.22513e-06
8.2624e-06
8.23261e-06
8.28513e-06
7.85108e-06
8.12294e-06
8.06042e-06
8.06091e-06
8.07833e-06
8.08713e-06
8.08862e-06
8.08285e-06
8.07056e-06
8.05474e-06
8.03922e-06
8.02615e-06
8.01875e-06
8.01557e-06
8.0209e-06
8.02519e-06
8.03935e-06
8.04106e-06
8.05826e-06
8.05297e-06
8.06923e-06
8.06193e-06
8.07532e-06
8.06882e-06
8.08269e-06
8.07541e-06
8.09211e-06
8.08297e-06
8.10472e-06
8.09109e-06
8.1198e-06
8.09958e-06
8.13876e-06
8.10578e-06
8.16225e-06
7.70995e-06
7.98639e-06
7.92839e-06
7.92871e-06
7.94529e-06
7.95617e-06
7.96055e-06
7.95539e-06
7.94015e-06
7.91851e-06
7.89611e-06
7.87734e-06
7.86622e-06
7.86232e-06
7.86719e-06
7.87411e-06
7.88624e-06
7.89237e-06
7.9043e-06
7.90462e-06
7.91608e-06
7.91273e-06
7.92537e-06
7.92029e-06
7.93568e-06
7.92853e-06
7.94757e-06
7.93695e-06
7.96088e-06
7.94562e-06
7.97545e-06
7.95351e-06
7.99349e-06
7.95929e-06
8.01628e-06
7.56165e-06
7.83953e-06
7.78578e-06
7.78725e-06
7.80287e-06
7.81182e-06
7.81238e-06
7.80069e-06
7.77746e-06
7.74866e-06
7.72168e-06
7.70168e-06
7.69218e-06
7.69211e-06
7.70089e-06
7.71211e-06
7.72603e-06
7.73536e-06
7.74636e-06
7.74958e-06
7.75943e-06
7.75804e-06
7.7707e-06
7.76553e-06
7.78219e-06
7.77485e-06
7.79345e-06
7.78456e-06
7.80664e-06
7.79316e-06
7.82183e-06
7.80089e-06
7.84041e-06
7.80593e-06
7.86382e-06
7.40791e-06
7.69504e-06
7.64764e-06
7.64672e-06
7.66116e-06
7.67161e-06
7.67288e-06
7.65936e-06
7.6319e-06
7.59825e-06
7.56799e-06
7.54753e-06
7.53999e-06
7.54292e-06
7.55449e-06
7.5668e-06
7.58163e-06
7.58897e-06
7.60117e-06
7.60112e-06
7.61379e-06
7.61082e-06
7.62518e-06
7.62173e-06
7.63842e-06
7.63198e-06
7.65214e-06
7.64133e-06
7.66549e-06
7.64956e-06
7.67996e-06
7.65671e-06
7.69769e-06
7.66149e-06
7.72093e-06
7.24284e-06
7.52708e-06
7.48223e-06
7.48392e-06
7.49801e-06
7.50628e-06
7.50113e-06
7.4763e-06
7.43648e-06
7.39375e-06
7.35973e-06
7.34053e-06
7.33759e-06
7.34636e-06
7.36287e-06
7.37904e-06
7.39529e-06
7.4044e-06
7.41545e-06
7.41762e-06
7.42818e-06
7.42814e-06
7.44084e-06
7.43894e-06
7.45585e-06
7.44852e-06
7.47025e-06
7.4579e-06
7.48332e-06
7.46658e-06
7.49759e-06
7.47405e-06
7.51581e-06
7.47844e-06
7.53962e-06
7.06023e-06
7.35877e-06
7.32149e-06
7.3187e-06
7.33115e-06
7.33876e-06
7.33015e-06
7.29943e-06
7.25362e-06
7.20794e-06
7.17574e-06
7.1624e-06
7.16671e-06
7.18164e-06
7.20165e-06
7.21887e-06
7.23426e-06
7.24173e-06
7.25175e-06
7.25221e-06
7.26462e-06
7.26272e-06
7.27916e-06
7.2761e-06
7.29453e-06
7.28802e-06
7.30852e-06
7.29731e-06
7.32133e-06
7.30494e-06
7.3353e-06
7.31161e-06
7.35319e-06
7.316e-06
7.37684e-06
6.85998e-06
7.15404e-06
7.11977e-06
7.12037e-06
7.131e-06
7.13152e-06
7.1081e-06
7.05854e-06
6.99825e-06
6.94756e-06
6.91943e-06
6.91567e-06
6.93043e-06
6.95381e-06
6.9789e-06
6.99871e-06
7.01434e-06
7.02257e-06
7.0313e-06
7.03379e-06
7.0437e-06
7.04509e-06
7.05753e-06
7.05803e-06
7.07239e-06
7.06844e-06
7.08658e-06
7.07719e-06
7.09942e-06
7.08578e-06
7.11389e-06
7.09313e-06
7.13309e-06
7.09728e-06
7.1581e-06
6.63579e-06
6.94618e-06
6.91967e-06
6.91581e-06
6.92322e-06
6.91753e-06
6.88365e-06
6.82493e-06
6.76269e-06
6.71943e-06
6.70541e-06
6.71722e-06
6.74436e-06
6.77498e-06
6.80219e-06
6.82095e-06
6.83387e-06
6.8397e-06
6.84659e-06
6.84823e-06
6.85896e-06
6.85917e-06
6.87466e-06
6.87253e-06
6.88947e-06
6.88386e-06
6.90252e-06
6.89258e-06
6.91554e-06
6.90067e-06
6.9304e-06
6.90835e-06
6.94944e-06
6.91336e-06
6.97392e-06
6.38125e-06
6.69257e-06
6.67242e-06
6.66895e-06
6.66625e-06
6.63894e-06
6.57594e-06
6.49377e-06
6.42463e-06
6.3915e-06
6.39741e-06
6.42919e-06
6.47012e-06
6.50731e-06
6.53591e-06
6.55404e-06
6.56597e-06
6.57222e-06
6.57871e-06
6.58178e-06
6.58997e-06
6.59133e-06
6.60212e-06
6.60194e-06
6.61407e-06
6.61172e-06
6.62755e-06
6.62048e-06
6.64275e-06
6.63032e-06
6.6594e-06
6.6395e-06
6.68038e-06
6.64475e-06
6.70606e-06
6.09165e-06
6.41792e-06
6.40734e-06
6.40025e-06
6.38725e-06
6.34176e-06
6.26025e-06
6.17428e-06
6.12064e-06
6.11491e-06
6.14919e-06
6.20251e-06
6.25509e-06
6.29505e-06
6.32059e-06
6.33388e-06
6.34126e-06
6.3451e-06
6.35e-06
6.35354e-06
6.36124e-06
6.36267e-06
6.37364e-06
6.37165e-06
6.38511e-06
6.38129e-06
6.39829e-06
6.3914e-06
6.41441e-06
6.4026e-06
6.43207e-06
6.41243e-06
6.45391e-06
6.41761e-06
6.47979e-06
5.74905e-06
6.09607e-06
6.09817e-06
6.07569e-06
6.02411e-06
5.9239e-06
5.7994e-06
5.70346e-06
5.67116e-06
5.70159e-06
5.76716e-06
5.83653e-06
5.8904e-06
5.92371e-06
5.94219e-06
5.95234e-06
5.96084e-06
5.96767e-06
5.97412e-06
5.97727e-06
5.9808e-06
5.97927e-06
5.98505e-06
5.98287e-06
5.99346e-06
5.99372e-06
6.00883e-06
6.00678e-06
6.0298e-06
6.0195e-06
6.05057e-06
6.0307e-06
6.07483e-06
6.03488e-06
6.10303e-06
5.39603e-06
5.74618e-06
5.73735e-06
5.66939e-06
5.5699e-06
5.44493e-06
5.33482e-06
5.29059e-06
5.31375e-06
5.377e-06
5.44952e-06
5.50879e-06
5.54606e-06
5.56315e-06
5.56899e-06
5.56948e-06
5.57286e-06
5.57638e-06
5.58498e-06
5.58901e-06
5.59731e-06
5.59575e-06
5.60346e-06
5.59944e-06
5.61064e-06
5.60685e-06
5.6251e-06
5.62009e-06
5.64215e-06
5.63536e-06
5.66163e-06
5.64585e-06
5.68637e-06
5.64809e-06
5.71685e-06
4.92046e-06
5.25068e-06
5.20403e-06
5.10349e-06
5.02979e-06
4.92102e-06
4.8311e-06
4.81169e-06
4.85352e-06
4.92671e-06
4.99561e-06
5.03485e-06
5.04235e-06
5.03026e-06
5.01504e-06
5.00336e-06
5.00593e-06
5.01414e-06
5.03481e-06
5.04857e-06
5.06576e-06
5.06532e-06
5.07664e-06
5.06212e-06
5.07846e-06
5.05978e-06
5.08733e-06
5.06523e-06
5.09845e-06
5.08116e-06
5.10826e-06
5.09654e-06
5.12673e-06
5.09896e-06
5.15468e-06
4.57115e-06
5.39554e-06
5.33839e-06
5.00335e-06
4.69338e-06
4.37907e-06
4.2198e-06
4.24836e-06
4.3474e-06
4.42927e-06
4.46066e-06
4.44591e-06
4.41308e-06
4.39044e-06
4.38817e-06
4.39614e-06
4.40841e-06
4.41224e-06
4.41737e-06
4.41385e-06
4.41761e-06
4.41248e-06
4.42472e-06
4.41216e-06
4.43838e-06
4.4152e-06
4.45584e-06
4.42079e-06
4.46896e-06
4.44225e-06
4.46792e-06
4.47351e-06
4.47518e-06
4.48413e-06
4.51557e-06
1.20566e-05
1.18842e-05
1.23808e-05
1.26549e-05
1.2805e-05
1.28468e-05
1.2778e-05
1.27824e-05
1.27878e-05
1.28379e-05
1.29213e-05
1.29594e-05
1.29376e-05
1.29042e-05
1.29013e-05
1.2934e-05
1.29869e-05
1.30403e-05
1.30847e-05
1.3118e-05
1.31416e-05
1.31629e-05
1.31823e-05
1.31985e-05
1.32278e-05
1.32382e-05
1.32779e-05
1.32809e-05
1.33348e-05
1.33247e-05
1.33881e-05
1.33683e-05
1.34453e-05
1.33918e-05
1.34894e-05
1.4323e-05
1.4759e-05
1.46918e-05
1.46533e-05
1.4666e-05
1.4685e-05
1.47029e-05
1.47167e-05
1.47236e-05
1.47239e-05
1.47183e-05
1.47053e-05
1.46877e-05
1.46676e-05
1.46511e-05
1.46402e-05
1.46332e-05
1.46333e-05
1.46296e-05
1.46322e-05
1.46279e-05
1.4627e-05
1.46264e-05
1.46208e-05
1.46264e-05
1.46177e-05
1.46293e-05
1.46163e-05
1.46341e-05
1.46159e-05
1.46393e-05
1.46148e-05
1.46448e-05
1.46136e-05
1.46503e-05
1.42044e-05
1.46431e-05
1.45862e-05
1.45496e-05
1.45615e-05
1.45758e-05
1.4582e-05
1.45816e-05
1.45776e-05
1.45725e-05
1.45684e-05
1.45608e-05
1.45538e-05
1.45387e-05
1.45356e-05
1.45172e-05
1.45306e-05
1.45077e-05
1.45354e-05
1.45076e-05
1.45352e-05
1.45094e-05
1.4531e-05
1.45064e-05
1.45273e-05
1.45033e-05
1.45251e-05
1.45005e-05
1.45281e-05
1.44987e-05
1.45344e-05
1.44985e-05
1.45433e-05
1.44995e-05
1.45529e-05
1.4076e-05
1.45171e-05
1.44635e-05
1.44276e-05
1.4441e-05
1.44652e-05
1.44906e-05
1.45119e-05
1.45228e-05
1.45203e-05
1.45066e-05
1.44825e-05
1.4457e-05
1.44288e-05
1.44145e-05
1.43951e-05
1.44018e-05
1.43838e-05
1.44043e-05
1.43801e-05
1.44034e-05
1.43795e-05
1.44018e-05
1.43803e-05
1.44066e-05
1.43836e-05
1.44134e-05
1.43887e-05
1.44197e-05
1.4391e-05
1.4426e-05
1.43898e-05
1.44326e-05
1.4387e-05
1.44394e-05
1.39344e-05
1.43733e-05
1.43187e-05
1.42892e-05
1.43035e-05
1.43216e-05
1.43382e-05
1.43492e-05
1.43519e-05
1.43469e-05
1.4336e-05
1.43182e-05
1.42985e-05
1.42778e-05
1.42661e-05
1.42574e-05
1.42616e-05
1.42591e-05
1.42711e-05
1.42647e-05
1.4275e-05
1.42679e-05
1.42734e-05
1.42668e-05
1.4276e-05
1.42642e-05
1.42816e-05
1.42647e-05
1.42888e-05
1.42659e-05
1.4298e-05
1.42671e-05
1.43082e-05
1.42681e-05
1.43184e-05
1.37842e-05
1.42258e-05
1.41855e-05
1.41583e-05
1.4172e-05
1.41845e-05
1.41867e-05
1.41808e-05
1.41704e-05
1.41594e-05
1.41502e-05
1.41415e-05
1.41339e-05
1.41272e-05
1.41234e-05
1.41247e-05
1.41279e-05
1.41343e-05
1.41429e-05
1.41429e-05
1.41556e-05
1.41447e-05
1.41591e-05
1.41403e-05
1.41577e-05
1.41335e-05
1.41564e-05
1.41304e-05
1.41588e-05
1.41319e-05
1.4167e-05
1.41355e-05
1.41808e-05
1.41389e-05
1.41955e-05
1.3613e-05
1.40538e-05
1.40128e-05
1.39901e-05
1.40059e-05
1.4025e-05
1.40408e-05
1.40479e-05
1.40449e-05
1.40353e-05
1.4023e-05
1.40079e-05
1.39946e-05
1.39808e-05
1.39786e-05
1.39728e-05
1.39862e-05
1.39795e-05
1.40005e-05
1.39862e-05
1.40055e-05
1.39889e-05
1.40057e-05
1.39854e-05
1.40089e-05
1.39815e-05
1.4013e-05
1.39813e-05
1.40195e-05
1.39839e-05
1.4029e-05
1.39866e-05
1.40429e-05
1.3989e-05
1.40574e-05
1.34275e-05
1.38689e-05
1.38373e-05
1.3818e-05
1.3834e-05
1.38508e-05
1.3861e-05
1.38597e-05
1.38456e-05
1.38228e-05
1.37973e-05
1.3771e-05
1.37511e-05
1.37344e-05
1.37346e-05
1.37301e-05
1.37509e-05
1.3743e-05
1.37733e-05
1.37546e-05
1.37822e-05
1.37627e-05
1.37835e-05
1.37648e-05
1.37872e-05
1.37655e-05
1.37928e-05
1.37663e-05
1.38029e-05
1.37678e-05
1.38147e-05
1.37704e-05
1.38302e-05
1.37721e-05
1.38458e-05
1.32206e-05
1.36634e-05
1.36386e-05
1.36222e-05
1.36388e-05
1.36617e-05
1.3682e-05
1.36886e-05
1.36767e-05
1.365e-05
1.36161e-05
1.35813e-05
1.35542e-05
1.35357e-05
1.35334e-05