/*--------------------------------*- C++ -*----------------------------------*\
  =========                 |
  \\      /  F ield         | OpenFOAM: The Open Source CFD Toolbox
   \\    /   O peration     | Website:  https://openfoam.org
    \\  /    A nd           | Version:  6
     \\/     M anipulation  |
\*---------------------------------------------------------------------------*/
FoamFile
{
    version     2.0;
    format      ascii;
    class       volVectorField;
    location    "2";
    object      U;
}
// * * * * * * * * * * * * * * * * * * * * * * * * * * * * * * * * * * * * * //

dimensions      [0 1 -1 0 0 0 0];

internalField   nonuniform List<vector> 
63568
(
(0.101656 0.000199577 -0.000420903)
(0.110246 0.000477033 -4.64364e-05)
(0.10994 0.000574314 8.23558e-06)
(0.109197 0.000614541 2.62986e-06)
(0.108919 0.000647372 -1.99118e-07)
(0.108787 0.000701807 -2.42183e-07)
(0.108659 0.000792551 2.24335e-08)
(0.10851 0.000907113 2.91522e-07)
(0.108339 0.001016 5.59482e-07)
(0.108169 0.00109266 7.76883e-07)
(0.10802 0.00112698 9.13214e-07)
(0.107908 0.00112875 9.25355e-07)
(0.107845 0.0011173 8.04439e-07)
(0.107831 0.00111547 5.91422e-07)
(0.10786 0.00113633 3.77377e-07)
(0.107917 0.00118976 2.34721e-07)
(0.107989 0.00127377 1.61139e-07)
(0.108068 0.00138845 1.73023e-07)
(0.108149 0.00152862 1.78499e-07)
(0.108239 0.00169237 2.24929e-07)
(0.108331 0.00187691 2.33898e-07)
(0.108441 0.00208065 2.60887e-07)
(0.108558 0.0023013 3.07524e-07)
(0.108692 0.00253746 3.38267e-07)
(0.108844 0.00278695 4.34131e-07)
(0.109007 0.00304821 5.11591e-07)
(0.109198 0.00331914 6.41401e-07)
(0.109395 0.00359879 7.48994e-07)
(0.109634 0.00388398 9.08226e-07)
(0.109871 0.00417624 1.0397e-06)
(0.110169 0.00446467 1.18925e-06)
(0.110446 0.00476822 1.35904e-06)
(0.110821 0.00502881 1.28797e-06)
(0.111112 0.00535982 1.67197e-06)
(0.111608 0.00553479 -3.25502e-07)
(0.100642 0.000217224 -0.000411053)
(0.109051 0.00051715 -4.62955e-05)
(0.108781 0.000612053 7.71985e-06)
(0.108051 0.000646418 2.64854e-06)
(0.107761 0.000670308 3.04352e-08)
(0.107615 0.000713199 7.43111e-08)
(0.107503 0.000791826 2.93392e-07)
(0.107417 0.000895623 3.7934e-07)
(0.107351 0.000996055 4.23223e-07)
(0.107302 0.00106582 4.61271e-07)
(0.107269 0.00109363 4.97465e-07)
(0.10725 0.00108815 4.93214e-07)
(0.107254 0.00106933 4.17097e-07)
(0.10728 0.00105973 2.62337e-07)
(0.107341 0.001074 1.12772e-07)
(0.10741 0.00112062 -4.78351e-08)
(0.10751 0.00119878 -7.46306e-08)
(0.107588 0.0013063 -1.59324e-07)
(0.107707 0.00143861 -7.34077e-08)
(0.107781 0.00159164 -1.07415e-07)
(0.107916 0.0017633 -7.48824e-08)
(0.108006 0.00195008 -5.86252e-08)
(0.108164 0.00215133 -1.01525e-07)
(0.10829 0.00236406 -1.11337e-07)
(0.108484 0.00258799 -1.42924e-07)
(0.108651 0.00282007 -1.75395e-07)
(0.108887 0.00306014 -2.07329e-07)
(0.109097 0.00330522 -2.33042e-07)
(0.109382 0.00355444 -2.25816e-07)
(0.109631 0.00380622 -2.49488e-07)
(0.10998 0.00405625 -2.60578e-07)
(0.110248 0.00431109 -1.33599e-07)
(0.110711 0.00454977 -5.06918e-07)
(0.110904 0.00481657 3.68331e-07)
(0.111648 0.00502832 -3.87255e-06)
(0.099508 0.000265987 -0.000404263)
(0.107748 0.000579908 -4.59062e-05)
(0.107471 0.000672482 7.40151e-06)
(0.106775 0.000697558 2.4877e-06)
(0.106517 0.000709406 -2.22268e-07)
(0.10638 0.000740952 -2.51197e-07)
(0.106214 0.000809814 1.41012e-07)
(0.105996 0.000904845 6.16416e-07)
(0.105741 0.000996653 1.07462e-06)
(0.10549 0.00105749 1.36605e-06)
(0.105286 0.00107676 1.41941e-06)
(0.105154 0.00106357 1.2403e-06)
(0.105103 0.00103914 9.1019e-07)
(0.105121 0.00102532 5.30405e-07)
(0.105199 0.00103809 2.33678e-07)
(0.105302 0.00108373 2.03624e-08)
(0.105435 0.00116243 -3.65103e-08)
(0.105559 0.0012696 -1.16543e-07)
(0.105715 0.00140067 -6.15545e-08)
(0.105843 0.00155091 -1.421e-07)
(0.106023 0.00171767 -1.26482e-07)
(0.106167 0.001898 -1.59051e-07)
(0.106367 0.00209075 -1.66095e-07)
(0.106534 0.00229382 -1.40133e-07)
(0.106756 0.0025063 -7.02009e-08)
(0.106945 0.00272612 -3.63864e-08)
(0.107198 0.00295261 7.51914e-08)
(0.107415 0.0031832 1.17204e-07)
(0.107708 0.00341715 2.07075e-07)
(0.10796 0.00365211 2.39388e-07)
(0.108311 0.00388679 2.95207e-07)
(0.108582 0.00411993 3.68709e-07)
(0.109039 0.00435394 1.40679e-07)
(0.10925 0.00457568 8.15225e-07)
(0.109978 0.00485373 -2.00343e-06)
(0.0982075 0.000289429 -0.00040096)
(0.106274 0.000634227 -4.49889e-05)
(0.105917 0.000721503 7.52515e-06)
(0.105215 0.000740703 2.65407e-06)
(0.104943 0.000760496 1.14819e-07)
(0.1048 0.000815572 1.11939e-07)
(0.104666 0.000912825 4.07709e-07)
(0.104519 0.0010245 6.96242e-07)
(0.104367 0.00110998 9.1982e-07)
(0.104237 0.00114169 1.02013e-06)
(0.104149 0.00111861 9.84009e-07)
(0.104117 0.00106209 7.99231e-07)
(0.104146 0.00100246 5.03725e-07)
(0.104229 0.000964431 1.69269e-07)
(0.104355 0.000962316 -9.81476e-08)
(0.1045 0.000998212 -2.66337e-07)
(0.104656 0.001069 -3.04663e-07)
(0.104805 0.00116825 -3.04687e-07)
(0.104957 0.00129073 -2.33278e-07)
(0.105097 0.00143253 -2.33965e-07)
(0.105255 0.00159042 -2.04021e-07)
(0.105405 0.00176204 -2.01305e-07)
(0.105581 0.00194475 -2.39535e-07)
(0.105758 0.00213603 -2.31399e-07)
(0.105961 0.00233341 -2.36082e-07)
(0.106168 0.00253475 -2.7657e-07)
(0.106407 0.00273827 -2.28084e-07)
(0.106641 0.00294231 -2.74117e-07)
(0.106923 0.00314564 -2.35518e-07)
(0.107187 0.00334721 -2.75382e-07)
(0.107522 0.00354433 -2.62577e-07)
(0.107807 0.00373871 -2.59581e-07)
(0.108236 0.00392084 -4.71404e-07)
(0.10851 0.00409979 -2.02103e-08)
(0.109142 0.00426052 -1.6302e-06)
(0.0968931 0.00033491 -0.000387142)
(0.104732 0.000706614 -4.45469e-05)
(0.104441 0.000783441 6.7788e-06)
(0.103765 0.00078308 2.55007e-06)
(0.103502 0.000774478 2.48062e-07)
(0.103372 0.000794774 3.30226e-07)
(0.103276 0.00085744 5.81847e-07)
(0.103211 0.00094262 7.14259e-07)
(0.103182 0.00101396 7.68469e-07)
(0.10319 0.00104275 7.43329e-07)
(0.103239 0.00102355 6.48169e-07)
(0.103323 0.000973331 4.80258e-07)
(0.103439 0.000919484 2.62246e-07)
(0.103582 0.000886676 2.02795e-08)
(0.103745 0.000889207 -1.90639e-07)
(0.103918 0.000930682 -3.21608e-07)
(0.10409 0.00100684 -3.76683e-07)
(0.104258 0.00111086 -3.46661e-07)
(0.104415 0.00123546 -2.66397e-07)
(0.104568 0.00137535 -2.11916e-07)
(0.104726 0.00152662 -9.0764e-08)
(0.104879 0.00168693 -8.93172e-08)
(0.105063 0.00185474 -2.33041e-08)
(0.10524 0.00202869 -7.20242e-08)
(0.105465 0.00220822 -6.1117e-08)
(0.105679 0.00239154 -1.46681e-07)
(0.105951 0.00257815 -1.36762e-07)
(0.1062 0.00276565 -2.08513e-07)
(0.106517 0.0029533 -1.85186e-07)
(0.106792 0.0031389 -2.17765e-07)
(0.107158 0.00331976 -1.95805e-07)
(0.107431 0.00349829 -1.64812e-07)
(0.107888 0.00366056 -3.67504e-07)
(0.108058 0.00383124 1.94779e-07)
(0.108751 0.00395525 -4.60396e-06)
(0.0952848 0.000405347 -0.000381262)
(0.102921 0.000797683 -4.32862e-05)
(0.102565 0.000859628 6.86881e-06)
(0.101891 0.000847137 2.6175e-06)
(0.101614 0.000836134 3.38478e-07)
(0.101451 0.000862884 4.06202e-07)
(0.10129 0.0009298 7.7692e-07)
(0.101124 0.0010061 1.09703e-06)
(0.100975 0.00105256 1.26984e-06)
(0.100876 0.00104622 1.25199e-06)
(0.100843 0.00099127 1.06112e-06)
(0.10088 0.000912666 7.20788e-07)
(0.100981 0.00084081 3.06621e-07)
(0.10113 0.000799339 -1.00381e-07)
(0.101315 0.000798699 -3.85021e-07)
(0.101508 0.000839184 -5.55384e-07)
(0.10171 0.000913636 -5.49853e-07)
(0.10189 0.00101411 -5.43594e-07)
(0.102084 0.00113331 -4.19128e-07)
(0.102247 0.0012655 -4.05358e-07)
(0.102444 0.00140788 -3.39434e-07)
(0.102613 0.00155696 -3.22499e-07)
(0.102827 0.00171196 -3.35907e-07)
(0.103022 0.00187048 -3.71345e-07)
(0.103267 0.00203235 -3.5327e-07)
(0.103489 0.00219557 -4.62281e-07)
(0.103774 0.00235996 -4.22396e-07)
(0.104023 0.0025236 -5.32483e-07)
(0.10435 0.00268598 -4.86842e-07)
(0.104621 0.0028452 -5.96056e-07)
(0.104999 0.00299958 -5.65828e-07)
(0.10527 0.00315001 -6.68401e-07)
(0.105752 0.00328837 -8.48773e-07)
(0.105936 0.00342835 -4.41836e-07)
(0.106713 0.00354725 -4.59885e-06)
(0.0935857 0.000466731 -0.000369231)
(0.100965 0.000879526 -4.21904e-05)
(0.100623 0.000919073 6.42958e-06)
(0.0999838 0.000881889 2.49403e-06)
(0.0997441 0.00084822 3.40717e-07)
(0.0996196 0.000855929 4.63758e-07)
(0.0994925 0.000904898 9.19395e-07)
(0.0993542 0.000962584 1.31409e-06)
(0.0992341 0.000989725 1.49404e-06)
(0.0991713 0.000965011 1.39073e-06)
(0.0991889 0.000895297 1.05155e-06)
(0.0992867 0.000807654 5.64959e-07)
(0.0994526 0.000733385 6.06203e-08)
(0.0996604 0.000694592 -3.74922e-07)
(0.0998944 0.000700085 -6.30494e-07)
(0.100121 0.000746819 -7.54045e-07)
(0.10035 0.000826626 -6.79474e-07)
(0.100544 0.000929471 -6.5499e-07)
(0.100754 0.00104757 -4.80224e-07)
(0.100921 0.00117491 -4.81345e-07)
(0.101133 0.00130812 -3.90978e-07)
(0.101304 0.0014448 -3.65883e-07)
(0.101529 0.00158462 -3.84089e-07)
(0.101725 0.00172643 -3.74715e-07)
(0.101973 0.0018708 -3.74415e-07)
(0.102195 0.0020164 -4.2836e-07)
(0.102475 0.0021632 -4.10743e-07)
(0.102722 0.00230925 -4.92829e-07)
(0.103037 0.00245386 -4.27087e-07)
(0.103299 0.00259499 -5.74483e-07)
(0.103661 0.00273125 -4.79836e-07)
(0.103905 0.00286218 -6.50834e-07)
(0.104366 0.00298363 -7.18451e-07)
(0.104472 0.00309971 -3.88347e-07)
(0.10522 0.00320906 -6.37895e-06)
(0.0916593 0.000582393 -0.00035704)
(0.0987588 0.00100678 -4.07671e-05)
(0.0984007 0.00101458 6.20133e-06)
(0.0977547 0.000953945 2.58478e-06)
(0.0974767 0.000911927 5.86066e-07)
(0.0972855 0.000923619 8.12279e-07)
(0.0970557 0.000972405 1.46214e-06)
(0.0967886 0.00101279 2.02879e-06)
(0.0965393 0.00100414 2.24544e-06)
(0.0963713 0.00093441 2.01472e-06)
(0.0963215 0.000823492 1.42788e-06)
(0.0963907 0.000707732 6.63253e-07)
(0.0965574 0.000620758 -6.51418e-08)
(0.0967839 0.000580983 -6.25893e-07)
(0.0970408 0.000591512 -9.2709e-07)
(0.0972943 0.00064358 -1.0184e-06)
(0.09754 0.000726198 -9.34148e-07)
(0.0977602 0.000827923 -8.4138e-07)
(0.0979796 0.000941566 -6.9553e-07)
(0.0981766 0.0010622 -6.63985e-07)
(0.098395 0.00118673 -5.78571e-07)
(0.0985926 0.00131371 -5.96478e-07)
(0.0988266 0.00144185 -5.57626e-07)
(0.0990382 0.00157045 -5.9875e-07)
(0.0992953 0.00169935 -5.57732e-07)
(0.0995241 0.00182755 -6.236e-07)
(0.0998086 0.00195531 -5.73059e-07)
(0.100055 0.00208092 -6.84899e-07)
(0.100372 0.00220447 -6.07588e-07)
(0.100629 0.00232397 -7.75321e-07)
(0.100993 0.0024392 -7.03543e-07)
(0.10124 0.00254888 -9.47471e-07)
(0.101707 0.00265186 -1.03029e-06)
(0.101851 0.0027478 -8.80419e-07)
(0.102621 0.00284385 -5.54179e-06)
(0.0895793 0.000694917 -0.000345775)
(0.0963832 0.0011099 -3.8969e-05)
(0.0960177 0.00107887 6.04064e-06)
(0.0954222 0.00098929 2.50022e-06)
(0.0952005 0.000931247 5.89903e-07)
(0.0950653 0.00093734 8.97565e-07)
(0.0948812 0.000977848 1.67195e-06)
(0.0946552 0.000999153 2.27729e-06)
(0.0944582 0.000960934 2.3775e-06)
(0.0943632 0.000858362 1.92883e-06)
(0.0944028 0.000720396 1.12642e-06)
(0.0945654 0.000589304 2.32798e-07)
(0.094815 0.000499308 -5.23089e-07)
(0.0951066 0.00046546 -1.02653e-06)
(0.0954064 0.000485531 -1.21886e-06)
(0.0956849 0.000546767 -1.1944e-06)
(0.09594 0.000635075 -1.03856e-06)
(0.0961663 0.00073856 -8.91479e-07)
(0.096384 0.000849426 -7.52767e-07)
(0.0965871 0.00096333 -7.07579e-07)
(0.0968034 0.00107801 -6.34187e-07)
(0.097008 0.00119235 -6.62404e-07)
(0.0972419 0.0013067 -5.87326e-07)
(0.0974553 0.00142069 -6.62825e-07)
(0.0977139 0.00153485 -5.77752e-07)
(0.0979392 0.00164834 -6.46853e-07)
(0.0982218 0.0017613 -6.18937e-07)
(0.0984637 0.00187183 -6.88243e-07)
(0.0987723 0.00197974 -6.3818e-07)
(0.0990226 0.00208311 -8.09367e-07)
(0.0993725 0.00218151 -6.97755e-07)
(0.099599 0.00227367 -9.88632e-07)
(0.100046 0.00235833 -9.45104e-07)
(0.100127 0.00243521 -8.69686e-07)
(0.100866 0.00250938 -7.15494e-06)
(0.0875172 0.00086244 -0.000329584)
(0.0939743 0.00124554 -3.74831e-05)
(0.0936369 0.00116576 5.59688e-06)
(0.0930301 0.00104507 2.62741e-06)
(0.0927502 0.000976701 9.79206e-07)
(0.092516 0.000985382 1.50387e-06)
(0.0921985 0.00101941 2.48442e-06)
(0.0918372 0.00101395 3.13159e-06)
(0.0915348 0.00093258 3.0599e-06)
(0.0913804 0.000784465 2.27936e-06)
(0.0914058 0.000612766 1.11406e-06)
(0.091585 0.000466521 -4.43338e-08)
(0.091863 0.00037793 -9.18521e-07)
(0.0921819 0.000355019 -1.41548e-06)
(0.0925018 0.00038782 -1.53075e-06)
(0.0927932 0.000458404 -1.42496e-06)
(0.0930597 0.0005505 -1.19982e-06)
(0.093294 0.000652587 -1.03893e-06)
(0.0935268 0.000758511 -8.7032e-07)
(0.093738 0.000865389 -8.59452e-07)
(0.0939735 0.000972242 -7.64112e-07)
(0.094184 0.00107787 -7.85411e-07)
(0.0944313 0.0011827 -7.29125e-07)
(0.0946497 0.00128587 -7.25061e-07)
(0.09491 0.00138752 -6.57351e-07)
(0.0951379 0.00148734 -7.17898e-07)
(0.0954199 0.0015853 -6.32982e-07)
(0.0956584 0.00168017 -7.60481e-07)
(0.0959698 0.0017723 -6.92919e-07)
(0.0962162 0.00185986 -8.97054e-07)
(0.0965713 0.00194328 -8.03996e-07)
(0.0968 0.00202101 -1.14147e-06)
(0.0972573 0.00209354 -1.14354e-06)
(0.0973692 0.00215894 -1.1892e-06)
(0.0981366 0.00222561 -6.23555e-06)
(0.0850951 0.00104432 -0.000319733)
(0.0912219 0.00136405 -3.50047e-05)
(0.0908739 0.00123368 5.73245e-06)
(0.0903333 0.00108464 2.65101e-06)
(0.0901171 0.00100919 1.11733e-06)
(0.0899315 0.0010198 1.83567e-06)
(0.0896414 0.00104233 2.99276e-06)
(0.0893113 0.00100486 3.55633e-06)
(0.0890746 0.000878941 3.13836e-06)
(0.089026 0.000689129 1.95231e-06)
(0.0891772 0.000491097 5.15544e-07)
(0.0894751 0.00033778 -7.23447e-07)
(0.0898468 0.000257184 -1.52063e-06)
(0.090227 0.000249309 -1.84064e-06)
(0.090577 0.000296675 -1.76615e-06)
(0.0908769 0.00037686 -1.51704e-06)
(0.0911389 0.000472516 -1.225e-06)
(0.0913677 0.000572756 -1.04079e-06)
(0.0915931 0.000672985 -9.03185e-07)
(0.0918055 0.000771767 -8.94161e-07)
(0.092037 0.000868657 -8.28905e-07)
(0.092254 0.000963826 -8.36544e-07)
(0.0924975 0.00105754 -7.65934e-07)
(0.0927198 0.00114931 -7.71062e-07)
(0.0929767 0.00123949 -6.5098e-07)
(0.0932011 0.00132727 -7.54971e-07)
(0.0934811 0.00141278 -6.30399e-07)
(0.0937105 0.00149456 -7.82739e-07)
(0.0940183 0.00157318 -7.15653e-07)
(0.0942528 0.00164671 -9.20986e-07)
(0.0945998 0.00171596 -8.24018e-07)
(0.0948098 0.00177903 -1.18068e-06)
(0.0952532 0.00183754 -1.0694e-06)
(0.0953123 0.00188693 -1.19049e-06)
(0.096058 0.00194091 -7.75994e-06)
(0.0826618 0.00128977 -0.000298248)
(0.0883248 0.001495 -3.31825e-05)
(0.0880613 0.00129787 5.14471e-06)
(0.0875075 0.00111199 2.93455e-06)
(0.0872075 0.00102903 1.82017e-06)
(0.0868819 0.00104204 2.87292e-06)
(0.0864291 0.00104845 4.1416e-06)
(0.085971 0.000970634 4.45024e-06)
(0.0856723 0.000793379 3.51534e-06)
(0.085627 0.000561579 1.7714e-06)
(0.0858237 0.000344454 -4.68201e-08)
(0.0861775 0.000195746 -1.41179e-06)
(0.086594 0.000134633 -2.13067e-06)
(0.0869993 0.00014985 -2.27024e-06)
(0.087358 0.000215442 -2.01997e-06)
(0.0876591 0.000305438 -1.65414e-06)
(0.0879216 0.000402649 -1.31063e-06)
(0.0881543 0.000498535 -1.12523e-06)
(0.0883879 0.000591197 -9.95785e-07)
(0.0886088 0.000681319 -1.01171e-06)
(0.0888519 0.000769463 -9.10559e-07)
(0.089071 0.00085589 -9.29448e-07)
(0.0893231 0.000940656 -7.95186e-07)
(0.0895391 0.00102234 -7.69373e-07)
(0.0897979 0.00110155 -6.61633e-07)
(0.0900176 0.00117723 -7.07246e-07)
(0.0902938 0.00124982 -6.36824e-07)
(0.0905236 0.00131843 -7.89077e-07)
(0.0908285 0.00138388 -7.41168e-07)
(0.0910658 0.00144455 -9.90609e-07)
(0.0914135 0.00150165 -8.99142e-07)
(0.0916307 0.00155305 -1.30181e-06)
(0.0920795 0.00160207 -1.234e-06)
(0.0921736 0.00164184 -1.45673e-06)
(0.0929348 0.00169199 -6.58406e-06)
(0.0796621 0.001593 -0.000286854)
(0.0849041 0.00163341 -2.99448e-05)
(0.0846761 0.00137756 5.39694e-06)
(0.0841995 0.00116644 3.17428e-06)
(0.083949 0.00108373 2.32886e-06)
(0.0836492 0.0010942 3.65129e-06)
(0.0832239 0.00106894 4.86703e-06)
(0.0828492 0.000934722 4.61857e-06)
(0.0827124 0.000698153 2.93423e-06)
(0.0828767 0.000425977 6.79691e-07)
(0.0832756 0.000196789 -1.25411e-06)
(0.0837863 6.01006e-05 -2.42518e-06)
(0.0843006 2.32561e-05 -2.79452e-06)
(0.0847502 6.28512e-05 -2.5893e-06)
(0.0851158 0.000144999 -2.10321e-06)
(0.085405 0.00024157 -1.62375e-06)
(0.085649 0.000337173 -1.26009e-06)
(0.0858666 0.000426594 -1.08351e-06)
(0.0860862 0.000510808 -9.88531e-07)
(0.086302 0.000592095 -9.93289e-07)
(0.0865356 0.000671442 -9.19103e-07)
(0.0867573 0.00074937 -9.06788e-07)
(0.087 0.000825059 -7.99688e-07)
(0.0872227 0.000897293 -7.643e-07)
(0.0874723 0.000966172 -6.73009e-07)
(0.0876979 0.00103081 -7.55284e-07)
(0.0879673 0.00109158 -6.66027e-07)
(0.0881985 0.00114808 -8.63237e-07)
(0.0884966 0.0012011 -8.09413e-07)
(0.0887316 0.00124932 -1.05134e-06)
(0.0890683 0.00129403 -9.58807e-07)
(0.0892768 0.00133287 -1.37142e-06)
(0.0897099 0.00136955 -1.17492e-06)
(0.0897653 0.00139604 -1.48297e-06)
(0.0905025 0.00143313 -7.95412e-06)
(0.0766 0.00194009 -0.000261454)
(0.0812482 0.00172393 -2.73361e-05)
(0.0811725 0.00139216 5.00009e-06)
(0.0806766 0.00114334 3.93021e-06)
(0.0803064 0.0010552 3.65945e-06)
(0.0798349 0.00105602 5.24008e-06)
(0.0792663 0.000992914 6.07842e-06)
(0.0788495 0.000804086 4.92777e-06)
(0.0787728 0.000521673 2.32307e-06)
(0.0790527 0.000232553 -4.72742e-07)
(0.0795669 1.8486e-05 -2.4842e-06)
(0.0801581 -8.25644e-05 -3.39993e-06)
(0.0807069 -7.98278e-05 -3.38836e-06)
(0.081157 -9.08585e-06 -2.85567e-06)
(0.0815077 9.09043e-05 -2.16788e-06)
(0.0817819 0.000193321 -1.61135e-06)
(0.0820179 0.000285911 -1.25585e-06)
(0.082236 0.000367242 -1.11988e-06)
(0.0824608 0.00044073 -1.04915e-06)
(0.0826824 0.000510875 -1.05425e-06)
(0.08292 0.000579289 -9.28606e-07)
(0.0831386 0.000647019 -9.06088e-07)
(0.0833822 0.00071275 -7.21792e-07)
(0.0835938 0.000774792 -7.10845e-07)
(0.0838462 0.000833479 -6.23247e-07)
(0.084064 0.000887361 -7.06337e-07)
(0.084337 0.000937381 -6.91971e-07)
(0.0845684 0.000983388 -8.91407e-07)
(0.0848711 0.00102616 -8.6126e-07)
(0.0851078 0.00106443 -1.14228e-06)
(0.0854511 0.0010997 -1.03912e-06)
(0.0856634 0.00112908 -1.46453e-06)
(0.0861041 0.00115773 -1.32711e-06)
(0.08619 0.00117603 -1.67787e-06)
(0.0869404 0.00120823 -6.62626e-06)
(0.0728318 0.00241502 -0.000243602)
(0.0769018 0.00187034 -2.35101e-05)
(0.0769786 0.00148655 5.15621e-06)
(0.0765322 0.00121789 4.71567e-06)
(0.0761483 0.001126 4.91835e-06)
(0.0756719 0.00109457 6.46753e-06)
(0.0751966 0.000960503 6.39089e-06)
(0.0750238 0.000692395 3.8754e-06)
(0.0752938 0.000356005 3.23383e-07)
(0.0759175 5.34982e-05 -2.629e-06)
(0.0766934 -0.000139301 -4.18747e-06)
(0.0774376 -0.000201654 -4.39943e-06)
(0.0780467 -0.000160711 -3.76071e-06)
(0.0784982 -6.36657e-05 -2.84772e-06)
(0.078823 4.7021e-05 -2.03362e-06)
(0.079067 0.000147526 -1.49235e-06)
(0.0792756 0.000231078 -1.16917e-06)
(0.0794709 0.000302082 -1.02206e-06)
(0.0796734 0.000366316 -9.27027e-07)
(0.0798783 0.000429121 -8.90999e-07)
(0.0800982 0.000490805 -7.97498e-07)
(0.0803124 0.000551444 -7.94027e-07)
(0.0805472 0.00060873 -7.00696e-07)
(0.0807676 0.000661124 -7.35035e-07)
(0.0810174 0.000709024 -7.20401e-07)
(0.0812493 0.000751674 -8.2743e-07)
(0.0815204 0.000790382 -8.13161e-07)
(0.0817607 0.000825388 -1.04435e-06)
(0.0820602 0.00085767 -9.55598e-07)
(0.0822967 0.000885613 -1.24773e-06)
(0.0826327 0.000910783 -1.10919e-06)
(0.0828368 0.000929725 -1.53625e-06)
(0.0832659 0.000947237 -1.26109e-06)
(0.0833163 0.000954246 -1.70119e-06)
(0.0840504 0.000970125 -7.85757e-06)
(0.0686502 0.00288166 -0.000216661)
(0.0720201 0.00187147 -1.94378e-05)
(0.0723484 0.00142207 5.61282e-06)
(0.0718587 0.00111706 6.632e-06)
(0.0713196 0.00100561 7.24078e-06)
(0.070705 0.00092475 8.2324e-06)
(0.0702311 0.000722551 6.56905e-06)
(0.0702297 0.000406908 2.42807e-06)
(0.0707497 6.78058e-05 -1.88735e-06)
(0.0715954 -0.000192675 -4.70843e-06)
(0.0725072 -0.000317755 -5.6272e-06)
(0.0732914 -0.000311452 -5.10931e-06)
(0.0738728 -0.000219364 -3.93326e-06)
(0.0742703 -9.41731e-05 -2.74739e-06)
(0.074548 2.58305e-05 -1.86248e-06)
(0.0747656 0.000124929 -1.37251e-06)
(0.0749667 0.000200775 -1.14379e-06)
(0.0751668 0.000260493 -1.05888e-06)
(0.0753751 0.00030999 -9.60436e-07)
(0.0755829 0.000357128 -8.661e-07)
(0.0757973 0.000402964 -7.05427e-07)
(0.076004 0.000449662 -6.77055e-07)
(0.0762312 0.000494546 -5.59038e-07)
(0.0764444 0.000536513 -6.80332e-07)
(0.0766983 0.000575498 -6.83297e-07)
(0.0769292 0.000609572 -8.53472e-07)
(0.0772109 0.000641094 -8.91458e-07)
(0.0774551 0.000669097 -1.10327e-06)
(0.0777627 0.000694633 -1.039e-06)
(0.0780029 0.000715808 -1.31048e-06)
(0.0783432 0.000734436 -1.16808e-06)
(0.078551 0.000745254 -1.57973e-06)
(0.078984 0.000755546 -1.3283e-06)
(0.0790575 0.00075193 -1.80776e-06)
(0.0798057 0.000757207 -6.30976e-06)
(0.0638146 0.00355096 -0.000183489)
(0.0663517 0.00199269 -1.54504e-05)
(0.0670218 0.00152364 5.69613e-06)
(0.0664415 0.00119006 8.7877e-06)
(0.0657599 0.00103708 9.49004e-06)
(0.0651812 0.000864774 8.79161e-06)
(0.0650487 0.000558867 4.55213e-06)
(0.0655948 0.000179104 -1.12897e-06)
(0.0666478 -0.000164724 -5.37524e-06)
(0.067862 -0.000381427 -7.16547e-06)
(0.0689458 -0.000441115 -6.81282e-06)
(0.0697522 -0.000374593 -5.26544e-06)
(0.0702809 -0.000244059 -3.56324e-06)
(0.0706151 -0.000105748 -2.34782e-06)
(0.0708483 7.2555e-06 -1.6825e-06)
(0.0710398 9.03316e-05 -1.34039e-06)
(0.071218 0.000149391 -1.0461e-06)
(0.0713865 0.000198235 -7.71413e-07)
(0.071555 0.000241356 -5.37166e-07)
(0.0717266 0.000285622 -4.33699e-07)
(0.0719155 0.00032703 -4.29694e-07)
(0.0721188 0.000366558 -5.82953e-07)
(0.0723517 0.000400962 -6.56466e-07)
(0.0725881 0.000431067 -8.77779e-07)
(0.0728573 0.000457259 -9.10881e-07)
(0.0731125 0.000479747 -1.05128e-06)
(0.0733998 0.00050173 -1.04601e-06)
(0.0736569 0.000520343 -1.21212e-06)
(0.0739619 0.000538526 -1.05399e-06)
(0.0741999 0.000552286 -1.38741e-06)
(0.0745372 0.000563914 -1.12735e-06)
(0.0747301 0.00056593 -1.60869e-06)
(0.0751601 0.000567391 -1.17428e-06)
(0.0751843 0.000554405 -1.83679e-06)
(0.075952 0.000533145 -8.32554e-06)
(0.0575883 0.00413789 -0.000158705)
(0.0595026 0.001863 -8.83422e-06)
(0.0604446 0.00135919 9.54253e-06)
(0.0596006 0.000970449 1.35962e-05)
(0.0587703 0.000729224 1.21e-05)
(0.0583269 0.000434017 8.35662e-06)
(0.0585202 6.27231e-05 1.89417e-06)
(0.0593749 -0.000284999 -4.14534e-06)
(0.0605495 -0.000521457 -7.42338e-06)
(0.0617014 -0.000598916 -8.00694e-06)
(0.0626272 -0.000532591 -6.78426e-06)
(0.0632618 -0.000384748 -4.82858e-06)
(0.0636503 -0.000223055 -3.07246e-06)
(0.063891 -8.57528e-05 -1.97774e-06)
(0.0640799 1.63084e-05 -1.51407e-06)
(0.064269 9.04644e-05 -1.3905e-06)
(0.0644763 0.000141093 -1.28155e-06)
(0.0646817 0.000177517 -1.04321e-06)
(0.0648826 0.000200256 -7.06422e-07)
(0.0650625 0.000219622 -3.8698e-07)
(0.0652451 0.000234577 -1.82945e-07)
(0.0654256 0.000253098 -2.36546e-07)
(0.0656384 0.000271264 -3.12975e-07)
(0.0658584 0.000292571 -6.15716e-07)
(0.066121 0.00031262 -7.28535e-07)
(0.0663743 0.000332384 -1.02234e-06)
(0.0666716 0.000352694 -9.71445e-07)
(0.0669285 0.000367843 -1.19585e-06)
(0.0672443 0.000384181 -1.11147e-06)
(0.0674883 0.000393736 -1.31176e-06)
(0.0678256 0.000401578 -1.09722e-06)
(0.0680239 0.000394754 -1.66189e-06)
(0.0684626 0.000395369 -8.8138e-07)
(0.0684664 0.000343192 -1.96804e-06)
(0.0693303 0.000367685 -8.52641e-06)
(0.0497983 0.00477612 -0.00010461)
(0.0505015 0.00192803 -7.09132e-06)
(0.0521394 0.00143575 8.00361e-06)
(0.0510316 0.000906839 1.50764e-05)
(0.0499639 0.000512791 1.26552e-05)
(0.0493828 0.000108009 6.80626e-06)
(0.0497219 -0.000264119 -1.07868e-06)
(0.0508015 -0.000514235 -6.44915e-06)
(0.0520147 -0.000609558 -8.35589e-06)
(0.0529938 -0.000568932 -7.69132e-06)
(0.0536115 -0.000444717 -5.40927e-06)
(0.0539043 -0.00029441 -2.94032e-06)
(0.0540196 -0.000160453 -1.45811e-06)
(0.0541152 -6.06647e-05 -1.15233e-06)
(0.0542877 4.28684e-06 -1.51423e-06)
(0.0545426 4.76358e-05 -1.92199e-06)
(0.0548459 7.94066e-05 -1.95864e-06)
(0.0551227 0.000108992 -1.51366e-06)
(0.0553551 0.000134137 -8.12245e-07)
(0.055512 0.000157308 -1.27473e-07)
(0.0556467 0.000171152 1.9326e-07)
(0.0557648 0.000183253 1.74453e-07)
(0.055927 0.000187381 3.61597e-09)
(0.0560969 0.00019516 -4.73602e-07)
(0.0563406 0.000200369 -6.37438e-07)
(0.0565598 0.000209723 -1.0495e-06)
(0.0568556 0.000220738 -9.82996e-07)
(0.0570845 0.000228669 -1.36063e-06)
(0.057409 0.000241128 -1.23164e-06)
(0.0576287 0.000243523 -1.3948e-06)
(0.0579631 0.000249684 -1.45183e-06)
(0.0581575 0.000233503 -1.56716e-06)
(0.0585406 0.000242561 -1.33687e-06)
(0.0586028 0.000163843 -1.87914e-06)
(0.0592444 0.000308536 -9.3791e-07)
(0.0381589 0.00516762 -4.91886e-05)
(0.0397469 0.00162926 -5.08049e-05)
(0.0432484 0.00113455 -1.96533e-05)
(0.0424103 0.000469019 -3.97366e-06)
(0.0420584 -5.90903e-05 -7.9912e-07)
(0.0428287 -0.000507143 6.97291e-07)
(0.0442734 -0.000769122 -2.22179e-07)
(0.0457141 -0.000791285 -1.66195e-06)
(0.0466773 -0.000635111 -2.66496e-06)
(0.0471418 -0.000410177 -3.2343e-06)
(0.0472776 -0.000213275 -3.21004e-06)
(0.0472753 -8.86528e-05 -2.83795e-06)
(0.0472856 -3.13611e-05 -2.47557e-06)
(0.0473718 -1.20844e-05 -2.14776e-06)
(0.0475212 -1.67299e-06 -1.8105e-06)
(0.0476828 1.75285e-05 -1.44587e-06)
(0.0478388 4.59185e-05 -1.12745e-06)
(0.0479816 7.59954e-05 -9.06798e-07)
(0.0481464 9.7343e-05 -8.31705e-07)
(0.0483176 0.000107281 -8.01321e-07)
(0.048523 0.000105255 -9.53555e-07)
(0.048728 9.96504e-05 -1.0232e-06)
(0.0489609 9.20877e-05 -1.16728e-06)
(0.0491724 9.06252e-05 -1.37306e-06)
(0.0494343 9.13764e-05 -1.37327e-06)
(0.0496427 9.67784e-05 -1.6558e-06)
(0.0499321 0.000103481 -1.52368e-06)
(0.0501337 0.000108976 -1.99254e-06)
(0.050451 0.000114953 -1.74603e-06)
(0.0506449 0.000115804 -2.0332e-06)
(0.0509608 0.00011433 -2.32995e-06)
(0.051172 9.96886e-05 -2.21872e-06)
(0.0514933 7.07947e-05 -2.81531e-06)
(0.0517449 -1.43331e-05 -5.02395e-06)
(0.0524372 -0.000190374 1.41269e-06)
(0.0264758 0.0046283 -8.86889e-05)
(0.0312816 0.00233827 -5.70467e-06)
(0.0436405 0.0015594 -4.40892e-05)
(0.0516563 0.000602665 -5.75941e-05)
(0.0571925 -0.000237875 -6.43687e-05)
(0.0598636 -0.000780379 -6.07909e-05)
(0.0605244 -0.000911848 -5.40636e-05)
(0.0608393 -0.000719367 -4.56067e-05)
(0.0613453 -0.000402767 -3.41322e-05)
(0.0621118 -0.000129671 -2.22867e-05)
(0.0628614 2.54431e-05 -1.09413e-05)
(0.0632568 6.89284e-05 -2.0322e-06)
(0.0632868 5.23685e-05 1.73545e-06)
(0.0632266 3.15153e-05 7.39263e-07)
(0.0633068 3.2173e-05 -2.07839e-06)
(0.0635868 4.59336e-05 -4.27382e-06)
(0.0640044 5.42833e-05 -5.09962e-06)
(0.0644562 4.98228e-05 -4.77215e-06)
(0.0648713 3.75547e-05 -4.02872e-06)
(0.065219 2.60532e-05 -3.23942e-06)
(0.065509 2.03787e-05 -2.93022e-06)
(0.0657714 2.00649e-05 -2.86948e-06)
(0.0660224 2.35631e-05 -3.08897e-06)
(0.0662803 2.72175e-05 -3.49737e-06)
(0.0665599 3.13627e-05 -3.68726e-06)
(0.0668325 3.39225e-05 -4.08611e-06)
(0.0671421 3.64731e-05 -4.1481e-06)
(0.0674211 3.82734e-05 -4.63702e-06)
(0.0677567 3.82999e-05 -4.45272e-06)
(0.0680124 3.95937e-05 -4.93974e-06)
(0.0683657 3.39402e-05 -4.91368e-06)
(0.0685688 2.72793e-05 -5.72137e-06)
(0.0689442 -1.61038e-05 -5.28605e-06)
(0.0688812 -7.83433e-05 -5.98977e-06)
(0.0691923 -0.000383533 -1.77842e-05)
(0.183366 0.000194745 -0.000497691)
(0.18713 0.000581619 -9.10529e-05)
(0.187737 0.000790203 7.30982e-06)
(0.187309 0.000898465 1.00595e-05)
(0.186985 0.000971792 3.6976e-06)
(0.186811 0.00106173 1.43187e-06)
(0.186684 0.00120277 1.29612e-06)
(0.186555 0.00139068 1.79484e-06)
(0.186408 0.00158673 2.36995e-06)
(0.186254 0.00174367 2.78899e-06)
(0.186112 0.00183203 2.99599e-06)
(0.185999 0.00185379 2.89076e-06)
(0.185928 0.00183378 2.42264e-06)
(0.185901 0.00180894 1.68367e-06)
(0.185917 0.00180769 9.33218e-07)
(0.185966 0.00185124 4.00222e-07)
(0.186033 0.00194345 8.18646e-08)
(0.186113 0.00208497 7.9516e-09)
(0.186196 0.00226937 -9.80027e-08)
(0.186286 0.00249184 -1.28979e-07)
(0.18638 0.00274778 -2.8442e-07)
(0.186485 0.00303384 -4.20691e-07)
(0.186601 0.00334664 -5.19862e-07)
(0.186728 0.00368363 -6.64549e-07)
(0.186873 0.00404174 -6.78489e-07)
(0.187028 0.00441843 -7.60603e-07)
(0.187207 0.00481047 -7.51897e-07)
(0.187396 0.00521637 -8.82604e-07)
(0.187615 0.00563162 -9.14566e-07)
(0.187842 0.0060578 -1.18509e-06)
(0.188108 0.00648212 -1.31857e-06)
(0.188372 0.00692417 -1.84836e-06)
(0.188696 0.00732538 -2.43652e-06)
(0.188976 0.00778783 -2.91809e-06)
(0.189382 0.00813553 -8.68195e-06)
(0.182355 0.000212488 -0.000483482)
(0.186105 0.000632519 -8.99447e-05)
(0.186705 0.000848233 6.35133e-06)
(0.186265 0.000954226 9.63436e-06)
(0.18592 0.00101857 3.92355e-06)
(0.185727 0.00109405 2.00155e-06)
(0.185601 0.00121801 1.72767e-06)
(0.185513 0.00138965 1.74637e-06)
(0.185448 0.0015724 1.81983e-06)
(0.185399 0.00171851 1.90484e-06)
(0.185364 0.00179674 1.97284e-06)
(0.185343 0.00180723 1.89839e-06)
(0.185343 0.00177523 1.58645e-06)
(0.185363 0.00173772 1.01027e-06)
(0.185414 0.00172516 4.44455e-07)
(0.18548 0.00175782 -1.33907e-07)
(0.185576 0.00184069 -2.85853e-07)
(0.185661 0.00197235 -5.79218e-07)
(0.185775 0.00214612 -4.15532e-07)
(0.185864 0.00235533 -5.78439e-07)
(0.185985 0.00259466 -6.02895e-07)
(0.186091 0.00285942 -7.06049e-07)
(0.18623 0.00314643 -9.33803e-07)
(0.186365 0.00345274 -1.15257e-06)
(0.186536 0.00377597 -1.39092e-06)
(0.186707 0.00411352 -1.68809e-06)
(0.186916 0.00446309 -1.96832e-06)
(0.187127 0.00482249 -2.37805e-06)
(0.187378 0.00518835 -2.58579e-06)
(0.187626 0.00556036 -3.29533e-06)
(0.187925 0.00593089 -3.32737e-06)
(0.1882 0.00630892 -4.71733e-06)
(0.188573 0.00666858 -4.4824e-06)
(0.188812 0.00705629 -5.70828e-06)
(0.189383 0.0073952 -1.64274e-05)
(0.181168 0.000261619 -0.000475373)
(0.184904 0.000716771 -8.85751e-05)
(0.185487 0.000941382 5.79383e-06)
(0.185052 0.00104139 8.62559e-06)
(0.184721 0.00109206 2.75063e-06)
(0.18453 0.00115221 8.84559e-07)
(0.184361 0.00126232 1.20574e-06)
(0.184162 0.00142199 2.26964e-06)
(0.183927 0.00159353 3.39214e-06)
(0.183687 0.00172777 4.11681e-06)
(0.18348 0.00179333 4.25298e-06)
(0.183336 0.00179068 3.77347e-06)
(0.183269 0.00174714 2.83363e-06)
(0.183271 0.00169999 1.66961e-06)
(0.183336 0.00168196 6.6568e-07)
(0.183437 0.00171161 -1.22387e-07)
(0.183572 0.00179459 -4.4764e-07)
(0.183706 0.00192669 -8.0054e-07)
(0.183865 0.00210023 -7.82417e-07)
(0.184009 0.00230731 -1.08678e-06)