/*--------------------------------*- C++ -*----------------------------------*\
  =========                 |
  \\      /  F ield         | OpenFOAM: The Open Source CFD Toolbox
   \\    /   O peration     | Website:  https://openfoam.org
    \\  /    A nd           | Version:  6
     \\/     M anipulation  |
\*---------------------------------------------------------------------------*/
FoamFile
{
    version     2.0;
    format      ascii;
    class       volScalarField;
    location    "24";
    object      yPlus;
}
// * * * * * * * * * * * * * * * * * * * * * * * * * * * * * * * * * * * * * //

dimensions      [0 0 0 0 0 0 0];

internalField   uniform 0;

boundaryField
{
    inlet
    {
        type            calculated;
        value           uniform 0;
    }
    outlet
    {
        type            calculated;
        value           uniform 0;
    }
    roughCylinder
    {
        type            calculated;
        value           nonuniform List<scalar> 
5120
(
43.4933
51.313
57.5415
63.6677
68.9565
73.2462
76.6834
79.4615
81.7362
83.6417
85.2977
86.7804
88.1273
89.3723
90.5464
91.6803
92.8043
93.9468
95.1313
96.3751
97.6876
99.0712
100.523
102.036
103.599
105.201
106.824
108.447
110.028
111.5
112.712
113.43
42.7778
50.3137
56.343
62.3289
67.5444
71.7994
75.219
77.9897
80.2646
82.1765
83.8407
85.327
86.6654
87.8966
89.0529
90.1654
91.2659
92.3834
93.5423
94.7589
96.0425
97.396
98.8159
100.295
101.824
103.39
104.976
106.56
108.104
109.54
110.722
111.42
41.9939
49.281
55.1229
60.9693
66.1112
70.3344
73.7419
76.5125
78.797
80.7246
82.4028
83.8945
85.2292
86.4497
87.5895
88.6824
89.7612
90.8552
91.9881
93.1778
94.4334
95.7573
97.1462
98.5931
100.087
101.617
103.166
104.713
106.218
107.619
108.771
109.45
41.1776
48.23
53.8845
59.5869
64.6543
68.8495
72.2517
75.0312
77.336
79.2887
80.9865
82.4872
83.8238
85.0353
86.1624
87.2384
88.2969
89.3684
90.4783
91.6428
92.8712
94.1664
95.5248
96.9395
98.4001
99.894
101.407
102.916
104.384
105.749
106.871
107.531
40.3215
47.1507
52.6166
58.1725
63.1676
67.3433
70.7521
73.5524
75.8868
77.8699
79.5907
81.1043
82.4462
83.6556
84.7724
85.8335
86.8746
87.9267
89.0134
90.1533
91.3562
92.6238
93.9531
95.3366
96.7649
98.2253
99.7014
101.174
102.606
103.936
105.028
105.67
39.4441
46.0523
51.322
56.7228
61.6439
65.8055
69.2293
72.0585
74.4301
76.4513
78.2021
79.735
81.0894
82.3025
83.4147
84.466
85.4922
86.5254
87.5931
88.7118
89.8902
91.1316
92.4325
93.7857
95.1815
96.6072
98.0485
99.4852
100.881
102.177
103.24
103.864
38.5261
44.9184
49.9865
55.2264
60.0749
64.2335
67.6888
70.5632
72.9832
75.0466
76.8291
78.385
79.7541
80.9775
82.0905
83.1345
84.1495
85.1693
86.2178
87.3146
88.4706
89.6871
90.9612
92.2858
93.6506
95.0446
96.4514
97.8524
99.213
100.476
101.511
102.117
37.5801
43.7532
48.6067
53.6711
58.441
62.6021
66.0989
69.0257
71.4995
73.6152
75.4424
77.0312
78.4267
79.6658
80.7892
81.8345
82.8433
83.85
84.8849
85.9655
87.1004
88.2934
89.5413
90.8371
92.1709
93.5309
94.9046
96.2712
97.5965
98.8269
99.8326
100.42
36.5726
42.5294
47.1593
52.037
56.7252
60.8986
64.4577
67.463
70.0137
72.1906
74.0623
75.6891
77.1121
78.3752
79.5116
80.5632
81.5701
82.5727
83.5941
84.6564
85.7723
86.9433
88.1667
89.4356
90.7408
92.0712
93.4109
94.7419
96.0334
97.2313
98.2096
98.7798
35.5145
41.2461
45.6358
50.3028
54.8933
59.0822
62.7183
65.8118
68.4415
70.6948
72.6389
74.3187
75.7866
77.0792
78.2403
79.3068
80.3221
81.3215
82.3366
83.3897
84.4889
85.6394
86.8387
88.0799
89.3544
90.6505
91.9569
93.2548
94.5109
95.6758
96.6261
97.1769
34.3292
39.8467
43.9884
48.4278
52.9082
57.1158
60.8518
64.0771
66.84
69.1947
71.2031
72.9427
74.4569
75.7937
76.9827
78.0686
79.0922
80.0986
81.1091
82.1486
83.233
84.3645
85.541
86.7568
88.0033
89.2704
90.5432
91.804
93.0263
94.1611
95.0834
95.6166
33.0373
38.3433
42.215
46.3892
50.7247
54.9455
58.8057
62.1807
65.0659
67.5383
69.6742
71.5044
73.0923
74.476
75.7082
76.8253
77.8734
78.8857
79.8985
80.9378
82.011
83.1255
84.28
85.4684
86.684
87.9159
89.1535
90.3832
91.5695
92.6692
93.5633
94.0766
31.5212
36.6266
40.2117
44.0894
48.2483
52.4665
56.4643
60.0588
63.1984
65.868
68.1059
70.0309
71.6914
73.1503
74.4324
75.5873
76.6554
77.6885
78.7067
79.7369
80.7999
81.8986
83.0322
84.1971
85.3855
86.589
87.7946
88.9849
90.1366
91.2088
92.073
92.5685
29.8094
34.7293
38.0124
41.5392
45.4508
49.6375
53.8163
57.668
60.998
63.8538
66.3327
68.4228
70.2164
71.752
73.1045
74.3125
75.4283
76.4796
77.5109
78.5528
79.6114
80.6974
81.8117
82.9488
84.1055
85.2718
86.4387
87.5985
88.7138
89.7457
90.5829
91.0566
27.6413
32.3928
35.3416
38.4492
42.0366
46.1219
50.4391
54.6517
58.5275
61.8213
64.4833
66.7474
68.6566
70.3171
71.7528
73.0258
74.1757
75.2672
76.3181
77.3559
78.4097
79.4836
80.5782
81.6936
82.8234
83.9611
85.0975
86.2147
87.2929
88.3004
89.1043
89.5587
25.0031
29.6756
32.3456
35.0212
38.1758
42.1006
46.6597
51.2944
55.3916
58.9827
62.1703
64.753
66.9259
68.7306
70.289
71.6499
72.8843
74.0109
75.0885
76.1552
77.2139
78.28
79.3588
80.4449
81.5405
82.638
83.7301
84.8138
85.8535
86.815
87.5901
88.0208
21.2339
25.9331
28.2048
30.1824
32.6223
36.0366
40.5739
45.8782
51.4863
56.1806
59.6871
62.6579
65.0467
67.0706
68.7668
70.2384
71.5248
72.7214
73.8397
74.9074
75.9677
77.0266
78.0852
79.15
80.2191
81.2857
82.3466
83.3886
84.3838
85.3217
86.0615
86.4695
15.8589
20.9825
23.4133
25.2882
27.0826
30.0013
35.0892
41.0387
45.9453
51.1286
56.1127
59.7631
62.7382
65.0697
67.0131
68.6407
70.0815
71.3378
72.501
73.6243
74.7026
75.7589
76.8058
77.8395
78.868
79.8891
80.8987
81.8939
82.8515
83.7371
84.4382
84.8194
6.52903
10.8058
11.8199
12.1336
12.628
14.2089
16.295
24.2357
38.3849
46.644
51.9695
56.7567
60.1778
62.9555
65.1387
66.9698
68.4876
69.8678
71.1093
72.238
73.3257
74.3816
75.4067
76.4153
77.4179
78.4028
79.3771
80.3394
81.2335
82.0915
82.7616
83.1137
9.42787
11.8984
12.5198
12.78
16.6674
18.2866
19.8376
19.5833
22.015
34.8351
45.4135
51.3841
56.475
59.9872
62.7617
64.9055
66.7331
68.2189
69.5314
70.7632
71.8905
72.9499
73.9657
74.9419
75.8902
76.8198
77.7312
78.6146
79.4782
80.278
80.8813
81.2031
11.7575
16.4237
17.4834
16.7811
13.8041
16.0315
21.7996
22.5742
25.8462
21.2467
34.8992
46.7978
52.2886
56.9187
60.1259
62.7001
64.6505
66.3712
67.8414
69.0815
70.2287
71.2989
72.2927
73.2303
74.1535
75.0358
75.905
76.7795
77.5346
78.2979
78.8864
79.1637
20.0585
24.5392
26.4871
27.3538
26.8586
24.576
21.8166
23.6988
26.6286
22.3939
13.1921
31.2396
45.0098
51.3325
56.3038
59.5971
62.2461
64.1793
65.7685
67.2119
68.4419
69.5242
70.5033
71.4057
72.2487
73.0553
73.8356
74.5651
75.3098
75.9984
76.4634
76.7043
22.1979
27.2046
29.9231
31.9166
33.0773
33.2194
31.9603
29.1745
26.867
19.5839
14.8739
18.4816
32.6671
46.2365
51.817
56.2358
59.1
61.5318
63.4638
64.9106
66.1768
67.2939
68.2564
69.0896
69.9056
70.6379
71.3709
72.1377
72.6781
73.337
73.799
73.9691
22.8772
27.9784
30.9114
33.2645
34.9927
36.0647
36.4074
35.7768
33.5213
29.2024
23.7393
29.92
32.1249
31.9035
44.8703
50.6224
55.2735
58.1625
60.318
62.2226
63.6726
64.8123
65.7351
66.5166
67.1981
67.8093
68.3868
68.8859
69.4407
69.9465
70.2046
70.3134
22.1627
27.3992
30.4921
33.0856
35.1421
36.6552
37.631
38.0654
37.8477
36.4402
31.9845
24.7763
28.1926
15.2386
30.9864
44.53
49.5836
53.7439
56.7285
58.5435
60.054
61.2887
62.2139
62.8469
63.5051
63.9541
64.5091
65.1156
65.2851
65.896
66.0381
66.0896
20.6508
26.0166
29.1981
31.9229
34.1688
35.9383
37.2574
38.1689
38.7109
38.8309
38.0298
34.6154
25.6703
25.0902
32.0866
31.4638
42.7279
47.6534
50.9816
54.1012
56.0665
57.3191
58.1142
58.6191
58.9926
59.2327
59.4051
59.5432
59.6893
59.7133
59.6668
59.568
18.6757
24.1261
27.3278
30.0959
32.4278
34.3439
35.8774
37.0887
38.0606
38.8526
39.3877
39.1747
36.8482
30.4301
34.2036
30.768
29.7183
38.551
45.138
47.02
48.9927
50.532
51.4231
51.5036
51.959
51.6904
52.0483
52.2145
52.1112
53.4224
51.6602
52.6333
16.4532
21.8717
24.9898
27.694
30.0096
31.9795
33.6516
35.086
36.3692
37.5853
38.7443
39.6323
39.4978
36.019
34.5035
30.7051
33.0345
30.8554
29.9487
38.7091
42.6772
43.6263
44.4542
43.491
43.7242
42.8764
42.0174
42.0895
41.1909
37.9939
37.89
37.2992
14.2232
19.4721
22.4038
24.944
27.1499
29.0862
30.8155
32.4044
33.9294
35.471
37.0581
38.5841
39.6568
39.1826
34.913
25.5254
33.991
7.7812
23.7325
19.2288
22.9835
25.6668
25.657
29.0145
22.8615
34.0769
18.1543
17.6934
47.0338
29.9243
35.7003
40.2123
12.2807
17.244
19.918
22.2256
24.2561
26.0913
27.8035
29.4607
31.1296
32.8752
34.7412
36.6796
38.4778
39.6069
38.9392
34.758
27.7802
17.2855
28.3323
27.5427
6.75569
4.40695
25.0286
40.1787
32.8278
41.3717
32.4688
20.4126
46.3812
37.3965
12.2173
41.9188
10.7886
15.4063
17.8124
19.8762
21.7144
23.4206
25.0694
26.7223
28.4319
30.246
32.2105
34.3326
36.5182
38.4677
39.6003
39.1202
35.017
30.5865
26.2593
8.32601
27.0857
16.2315
31.5365
33.3853
33.4196
39.875
35.9267
35.273
41.7345
40.5389
33.3459
28.9414
9.69928
14.0778
16.2607
18.1243
19.8057
21.4002
22.9743
24.5749
26.2384
28.0003
29.9025
31.9855
34.2517
36.5738
38.594
39.7503
39.2521
37.848
33.8681
31.1584
28.0124
27.4017
28.6132
32.8578
32.7281
34.3984
37.8731
37.4923
38.4746
36.1917
43.0095
39.7719
9.13031
13.3265
15.3562
17.0937
18.6831
20.2092
21.7212
23.2473
24.8097
26.4359
28.1658
30.0521
32.1453
34.4442
36.8004
38.8255
39.9349
40.2996
39.5148
38.982
35.8723
36.9553
36.8105
39.5637
39.9964
41.4034
42.6507
41.577
43.6985
40.8652
45.2854
44.2271
8.9795
13.0945
15.0598
16.7548
18.3207
19.8257
21.2992
22.7535
24.2008
25.6646
27.1822
28.8047
30.5942
32.6071
34.8428
37.143
39.1094
40.4939
41.027
41.1641
39.9588
40.6106
40.5077
41.3726
42.098
42.7788
43.2349
42.4585
44.193
42.0407
44.7419
44.6216
9.17306
13.2832
15.2556
16.9752
18.5709
20.092
21.5518
22.9526
24.3026
25.6227
26.9455
28.3147
29.7848
31.4211
33.284
35.3706
37.5176
39.4562
40.8092
41.5313
41.2622
41.5759
41.429
41.6695
42.3057
42.3991
42.4276
42.0998
43.129
41.5761
43.2465
43.4658
9.61756
13.7726
15.798
17.5861
19.2463
20.8113
22.2824
23.6564
24.9405
26.1548
27.3289
28.4982
29.7043
31.0004
32.4508
34.1111
35.9703
37.901
39.5979
40.7855
41.1698
41.4337
41.2444
41.1886
41.4377
41.122
40.8809
40.8053
41.2179
40.1392
41.1785
41.4979
10.2599
14.4883
16.5892
18.4649
20.2041
21.8248
23.3214
24.6898
25.9387
27.0893
28.1684
29.2039
30.2247
31.2673
32.3809
33.6233
35.0375
36.6065
38.1759
39.479
40.1979
40.5252
40.3568
40.1364
39.9974
39.4378
39.0637
39.0627
39.1207
38.4501
39.179
39.4957
11.0476
15.3765
17.5646
19.5338
21.3533
23.0309
24.5579
25.9328
27.1686
28.2888
29.3187
30.2799
31.1904
32.0712
32.9533
33.88
34.8966
36.0281
37.2255
38.3272
39.072
39.4165
39.2958
38.9868
38.5702
37.9072
37.4827
37.4601
37.4032
37.0944
37.7137
38.0009
11.8913
16.3889
18.6725
20.7348
22.6311
24.3626
25.9213
27.3106
28.5489
29.6625
30.6758
31.606
32.4633
33.2571
34.0034
34.7273
35.4616
36.2354
37.0457
37.8168
38.3846
38.6429
38.5203
38.149
37.5767
36.885
36.4424
36.3826
36.3571
36.3423
36.9716
37.2455
12.8742
17.4942
19.8716
22.0243
23.993
25.7754
27.3664
28.7754
30.0267
31.1498
32.1679
33.0953
33.9365
34.6942
35.374
35.9871
36.5506
37.084
37.5966
38.0596
38.3854
38.4843
38.2916
37.8532
37.2011
36.5075
36.0589
35.9754
36.0408
36.2477
36.9332
37.2189
13.6127
14.0335
14.519
14.909
15.2861
15.5856
15.8468
16.049
16.2111
16.3251
16.402
16.4403
16.4438
16.4137
16.3543
16.2682
16.1573
16.0272
15.8891
15.7738
15.776
15.8924
16.0305
16.1604
16.2709
16.3569
16.4161
16.4459
16.4421
16.4037
16.3264
16.2122
16.0498
15.8474
15.5862
15.2869
14.9102
14.5211
14.0369
13.6175
18.354
18.791
19.2962
19.7041
20.099
20.4197
20.7033
20.93
21.1178
21.2591
21.3638
21.4308
21.4625
21.4591
21.4229
21.3557
21.2586
21.1356
20.9973
20.8768
20.88
21.0023
21.1408
21.2636
21.3605
21.4275
21.4635
21.4667
21.4347
21.3675
21.2624
21.1206
20.9325
20.7055
20.4217
20.1011
19.7065
19.2996
18.7956
18.3604
20.8061
21.2683
21.8033
22.2364
22.6595
23.0106
23.3285
23.5924
23.8203
24.0049
24.1544
24.2677
24.3465
24.3895
24.3968
24.3692
24.3069
24.2126
24.0958
23.9882
23.9915
24.1012
24.2184
24.3128
24.375
24.4025
24.3951
24.352
24.2728
24.1593
24.0094
23.8244
23.596
23.3317
23.0134
22.6624
22.2395
21.8072
21.2735
20.813
23.0171
23.4982
24.0557
24.5082
24.9554
25.3335
25.6833
25.9826
26.2496
26.477
26.6708
26.8301
26.9559
27.0455
27.0975
27.1113
27.0862
27.0245
26.9352
26.8497
26.8526
26.9406
27.0306
27.0926
27.1178
27.1042
27.0521
26.9624
26.8365
26.677
26.4827
26.2548
25.9873
25.6875
25.3372
24.9589
24.5116
24.0598
23.5034
23.0239
25.0248
25.5098
26.0746
26.5332
26.992
27.3852
27.7549
28.0786
28.3734
28.6333
28.8631
29.0601
29.2245
29.3528
29.4424
29.4914
29.4986
29.4658
29.4029
29.3399
29.3423
29.408
29.472
29.5052
29.4983
29.4496
29.3601
29.2319
29.0674
28.8702
28.64
28.3796
28.0841
27.7597
27.3892
26.9956
26.5366
26.0782
25.5142
25.0306
26.8286
27.3012
27.8594
28.312
28.7709
29.169
29.5493
29.89
30.2075
30.4943
30.7542
30.9832
31.1805
31.3418
31.4636
31.5429
31.578
31.5705
31.5299
31.4849
31.487
31.5348
31.5765
31.5849
31.5502
31.4713
31.3496
31.1886
30.9913
30.7621
30.5017
30.2144
29.8961
29.5545
29.1732
28.7743
28.3148
27.8619
27.3041
26.8325
28.4285
28.8774
29.4215
29.8627
30.3172
30.7178
31.1082
31.4655
31.8041
32.1158
32.4032
32.6615
32.8884
33.0792
33.2295
33.3353
33.3944
33.408
33.3853
33.3529
33.3549
33.39
33.4141
33.4013
33.3429
33.2374
33.0876
32.8971
32.6703
32.4118
32.124
31.8117
31.4722
31.1138
30.7222
30.3205
29.8648
29.4229
28.8786
28.4302
29.8406
30.2619
30.7916
31.2226
31.6756
32.0829
32.4852
32.86
33.2193
33.5548
33.8677
34.1526
34.4062
34.6231
34.7983
34.927
35.0063
35.0368
35.0276
35.0036
35.0055
35.0323
35.0431
35.0135
34.9349
34.8068
34.632
34.4155
34.1619
33.877
33.5637
33.2276
32.8673
32.4914
32.0876
31.6787
31.2243
30.7919
30.2615
29.84
31.0943
31.4899
32.0091
32.4352
32.8912
33.3075
33.7226
34.1145
34.4932
34.8504
35.1861
35.4945
35.7714
36.0108
36.207
36.3547
36.4503
36.494
36.4942
36.4753
36.4773
36.499
36.5005
36.4578
36.3631
36.216
36.0204
35.7814
35.5046
35.1962
34.8602
34.5024
34.1226
33.7294
33.3126
32.8944
32.4366
32.0088
31.4884
31.0919
32.2208
32.5939
33.1065
33.5319
33.9921
34.4179
34.8452
35.2524
35.6481
36.024
36.3791
36.7073
37.0038
37.2618
37.4752
37.6381
37.7465
37.7999
37.8065
37.7904
37.7925
37.8115
37.8067
37.7545
37.6471
37.4849
37.2721
37.0147
36.7186
36.3904
36.0349
35.6583
35.2615
34.8528
34.4236
33.9957
33.5333
33.1058
32.5914
32.217
33.2419
33.5941
34.1024
34.5273
34.9916
35.4257
35.8633
36.2836
36.6937
37.0851
37.4563
37.8007
38.1128
38.3856
38.6126
38.7875
38.9055
38.9662
38.9771
38.9628
38.9649
38.9825
38.9735
38.9142
38.7972
38.6233
38.3971
38.1248
37.8131
37.4688
37.0972
36.705
36.2937
35.8719
35.4321
34.9957
34.5289
34.1014
33.591
33.2371
34.1686
34.4988
35.0016
35.4255
35.8928
36.3338
36.7802
37.2113
37.6331
38.0373
38.4214
38.7787
39.1032
39.3879
39.6256
39.8097
39.9354
40.0021
40.0172
40.0048
40.0071
40.023
40.0101
39.9449
39.8204
39.6374
39.4007
39.1167
38.7926
38.4353
38.0509
37.6458
37.2226
36.7898
36.3411
35.8975
35.4273
35.0006
34.4953
34.1634
35.0023
35.308
35.8036
36.2252
36.6946
37.1413
37.5949
38.035
38.4666
38.8812
39.2758
39.6435
39.978
40.272
40.5182
40.7099
40.8425
40.9151
40.9352
40.9265
40.929
40.9414
40.9237
40.8529
40.7219
40.5314
40.2863
39.9932
39.6592
39.2916
38.8965
38.481
38.0479
37.6057
37.1496
36.7
36.2275
35.8025
35.3045
34.9969
35.7413
36.0188
36.5045
36.923
37.3936
37.8452
38.3052
38.7534
39.1934
39.6169
40.0202
40.3963
40.7388
41.0402
41.2933
41.4916
41.6304
41.7094
41.7363
41.7332
41.7358
41.7429
41.7188
41.642
41.505
41.3083
41.0564
40.7561
40.4141
40.0381
39.6343
39.2098
38.7681
38.3176
37.8548
37.3997
36.9258
36.5037
36.0154
35.7367
36.3854
36.6281
37.1003
37.5142
37.9855
38.4419
38.9081
39.3639
39.8117
40.2431
40.654
41.0373
41.3865
41.6941
41.953
42.1572
42.3024
42.3886
42.4237
42.4277
42.4303
42.4308
42.399
42.3153
42.1724
41.9701
41.7126
41.4061
41.0577
40.6744
40.263
39.8304
39.3806
38.9222
38.4528
37.9926
37.5175
37.0999
36.6254
36.3824
36.9356
37.1325
37.5861
37.9937
38.4647
38.9259
39.3986
39.8621
40.3178
40.7567
41.1747
41.5645
41.9196
42.2327
42.4971
42.707
42.8585
42.9526
42.9965
43.0078
43.0105
43.0041
42.964
42.8732
42.7241
42.5166
42.2539
41.9422
41.5878
41.198
40.7794
40.339
39.8811
39.4146
38.9382
38.4728
37.9977
37.5863
37.131
36.9358
37.3959
37.5292
37.9559
38.3538
38.8235
39.2895
39.769
40.2407
40.7044
41.1512
41.5763
41.9724
42.3332
42.6515
42.921
43.1364
43.2945
43.3963
43.4489
43.467
43.4701
43.4573
43.4091
43.311
43.156
42.9433
42.6759
42.359
41.9991
41.603
41.1771
40.7286
40.2624
39.7872
39.3034
38.8327
38.3585
37.957
37.5297
37.4016
37.7734
37.8153
38.1999
38.5848
39.0509
39.5216
40.008
40.4886
40.961
41.416
41.8484
42.2511
42.6176
42.9412
43.2159
43.4368
43.6013
43.7106
43.7712
43.7952
43.7984
43.7804
43.725
43.6201
43.4593
43.2415
42.9693
42.6474
42.2818
41.8791
41.4456
40.9886
40.5131
40.0285
39.5372
39.0612
38.59
38.2015
37.8181
37.7862
38.0756
37.9923
38.3119
38.6737
39.134
39.6083
40.1017
40.5914
41.0731
41.537
41.9774
42.3872
42.7598
43.0889
43.3689
43.5953
43.766
43.8822
43.9497
43.9788
43.9823
43.96
43.8985
43.7874
43.6211
43.3984
43.1212
42.794
42.4224
42.0126
41.5711
41.1047
40.6194
40.1249
39.6258
39.1452
38.679
38.3135
37.9972
38.0965
38.3006
38.0588
38.2872
38.6115
39.0597
39.5357
40.0355
40.5343
41.0255
41.4988
41.9477
42.3649
42.7442
43.0793
43.3648
43.5969
43.7734
43.8958
43.9694
44.0026
44.0066
43.981
43.9143
43.7979
43.6264
43.3987
43.1165
42.7837
42.4056
41.9882
41.5379
41.0618
40.5663
40.0618
39.5552
39.0709
38.6155
38.287
38.0626
38.3226
38.4166
38.002
38.1201
38.391
38.8179
39.2937
39.7979
40.3052
40.8055
41.2882
41.7457
42.1707
42.5569
42.8981
43.1894
43.4269
43.6089
43.7368
43.8155
43.8522
43.8567
43.8287
43.758
43.637
43.4609
43.2285
42.941
42.6025
42.2177
41.7925
41.3335
40.8475
40.3422
39.8282
39.3156
38.8294
38.3927
38.1147
37.9972
38.4245
38.3664
37.7959
37.803
38.0119
38.4089
38.8784
39.3867
39.9007
40.4091
40.9
41.3655
41.7979
42.1907
42.5378
42.8344
43.0769
43.2638
43.3964
43.479
43.5185
43.5237
43.4941
43.4206
43.2961
43.1162
42.8795
42.5875
42.2435
41.8524
41.42
40.9527
40.4578
39.9434
39.421
38.9013
38.4186
38.0085
37.788
37.7749
38.3479
38.1357
37.4335
37.3418
37.4882
37.8511
38.3089
38.8176
39.3349
39.8488
40.3456
40.8171
41.2552
41.6532
42.0049
42.3058
42.5521
42.7424
42.8781
42.9634
43.0049
43.0109
42.9809
42.906
42.7796
42.5974
42.3579
42.0625
41.7146
41.3187
40.8808
40.4072
39.9059
39.3846
38.8561
38.3334
37.8589
37.4768
37.3084
37.3766
38.0512
37.688
36.9041
36.7467
36.8446
37.1769
37.6196
38.1245
38.6445
39.1609
39.6609
40.1354
40.5763
40.9768
41.3308
41.6334
41.8812
42.0728
42.2094
42.2956
42.3381
42.3449
42.3156
42.2415
42.1156
41.9334
41.6936
41.3972
41.0477
40.6498
40.209
39.7323
39.2269
38.7016
38.1678
37.6453
37.1808
36.8219
36.6916
36.81
37.5464
37.0791
36.2579
36.0703
36.1407
36.4531
36.8834
37.3825
37.9012
38.4161
38.9152
39.3886
39.8285
40.2276
40.5801
40.881
41.1269
41.3164
41.4509
41.5352
41.5771
41.585
41.5584
41.4878
41.3657
41.187
40.9502
40.6564
40.3091
39.9127
39.4731
38.9966
38.4908
37.9645
37.428
36.9057
36.4456
36.0957
35.9774
36.1081
36.8586
36.4626
35.6305
35.4351
35.492
35.7914
36.21
36.7001
37.2119
37.7205
38.2138
38.6813
39.1153
39.5086
39.8552
40.1501
40.3898
40.5729
40.7012
40.7802
40.8191
40.8283
40.8068
40.7435
40.6291
40.4581
40.2285
39.9416
39.6007
39.2104
38.7763
38.3052
37.804
37.2821
36.7498
36.2327
35.7793
35.4351
35.3192
35.443
36.1785
35.9105
35.1302
34.9647
35.0302
35.3271
35.7361
36.2138
36.7123
37.2083
37.6893
38.1449
38.5673
38.949
39.2843
39.5679
39.7964
39.9684
40.0854
40.1543
40.1872
40.1979
40.1852
40.1341
40.0326
39.8739
39.6566
39.3817
39.0527
38.6742
38.2519
37.7924
37.3031
36.7932
36.2742
35.7706
35.33
34.9958
34.8857
35.0071
35.7351
35.8188
35.0273
34.8519
34.9038
35.1834
35.5725
36.0284
36.5048
36.9817
37.4448
37.8836
38.2895
38.6555
38.9754
39.2441
39.4579
39.615
39.717
39.7713
39.7944
39.8071
39.8072
39.7725
39.6873
39.5447
39.343
39.0839
38.7709
38.4088
38.003
37.5606
37.0892
36.5983
36.101
35.619
35.1976
34.8797
34.7813
34.9087
35.6425
36.0834
35.3307
35.1711
35.2126
35.4694
35.8255
36.2441
36.6847
37.1298
37.5637
37.9757
38.3567
38.6994
38.9977
39.2464
39.4414
39.5806
39.6647
39.7012
39.711
39.7267
39.7442
39.7297
39.6642
39.5411
39.3597
39.1219
38.8314
38.493
38.1123
37.696
37.2524
36.7905
36.3247
35.8702
35.4685
35.1566
35.0464
35.1338
35.8005
36.4204
35.7637
35.6591
35.7241
35.9809
36.3208
36.7146
37.129
37.5474
37.9548
38.341
38.6973
39.0166
39.2932
39.5217
39.6982
39.8201
39.8876
39.9073
39.903
39.9212
39.9548
39.9572
39.9084
39.8025
39.6394
39.4213
39.152
38.836
38.4792
38.0876
37.6693
37.2334
36.7935
36.3638
35.9792
35.6704
35.5437
35.582
36.1611
37.1488
36.4957
36.3879
36.4322
36.6608
36.9661
37.328
37.7121
38.1018
38.4821
38.8428
39.1752
39.4727
39.7293
39.9399
40.1006
40.2086
40.2638
40.2723
40.2592
40.2815
40.3279
40.3438
40.3094
40.2195
40.0744
39.8764
39.6293
39.3375
39.0066
38.643
38.2544
37.8501
37.4435
37.049
36.6977
36.4134
36.3024
36.3357
36.896
37.4894
36.9103
36.8471
36.9117
37.1446
37.4446
37.796
38.1661
38.5404
38.9048
39.2496
39.5669
39.8501
40.0935
40.2923
40.4425
40.5415
40.5891
40.5912
40.5733
40.5959
40.6466
40.6679
40.6397
40.557
40.4198
40.2304
39.9924
39.7098
39.3878
39.0326
38.651
38.2521
37.8482
37.4527
37.0948
36.7973
36.6655
36.6735
37.2067
43.4885
51.3093
57.5383
63.6651
68.9546
73.2452
76.6833
79.4622
81.7371
83.6425
85.2981
86.7804
88.127
89.3718
90.5459
91.6797
92.8036
93.9459
95.1303
96.3739
97.6861
99.0693
100.52
102.033
103.595
105.196
106.818
108.438
110.017
111.488
112.696
113.411
42.7828
50.3174
56.3462
62.3318
67.5468
71.8011
75.2197
77.9894
80.2637
82.1755
83.8399
85.3265
86.6652
87.8965
89.0526
90.1648
91.2652
92.3826
93.5413
94.7576
96.041
97.3942
98.814
100.292
101.82
103.385
104.969
106.552
108.092
109.527
110.706
111.401
41.9869
49.2752
55.1175
60.9643
66.1069
70.3311
73.74
76.512
78.7976
80.7256
82.4036
83.8948
85.229
86.4491
87.5888
88.6818
89.7605
90.8544
91.9872
93.1766
94.432
95.7556
97.1438
98.5902
100.084
101.612
103.16
104.705
106.207
107.606
108.753
109.429
41.1851
48.2362
53.8903
59.5926
64.6598
68.8543
72.2552
75.033
77.3362
79.2879
80.9856
82.4866
83.8236
85.0355
86.1625
87.238
88.2962
89.3676
90.4773
91.6416
92.8698
94.1646
95.5226
96.9366
98.3963
99.8894
101.4
102.907
104.372
105.736
106.853
107.51
40.3116
47.142
52.6082
58.1642
63.1598
67.3364
70.7467
73.5492
75.8857
77.8702
79.5915
81.1049
82.4462
83.6547
84.7714
85.8329
86.8741
87.9259
89.0125
90.1523
91.3549
92.6222
93.951
95.3338
96.7608
98.2198
99.6943
101.165
102.593
103.923
105.01
105.648
39.4546
46.0614
51.3311
56.7321
61.6533
65.8145
69.2371
72.064
74.433
76.452
78.2015
79.7342
81.0891
82.3029
83.4152
84.4659
85.4915
86.5247
87.5924
88.7107
89.889
91.13
92.4304
93.7829
95.1779
96.6022
98.0419
99.4764
100.868
102.163
103.221
103.841
38.5128
44.9062
49.9743
55.214
60.0627
64.222
67.6787
70.5556
72.9786
75.0449
76.8295
78.3859
79.7543
80.9765
82.089
83.1336
84.149
85.1686
86.2168
87.3136
88.4693
89.6856
90.9592
92.283
93.647
95.0392
96.4435
97.8437
99.2002
100.462
101.491
102.092
37.5934
43.7652
48.6191
53.684
58.4545
62.6155
66.1115
69.0362
71.5069
73.6187
75.4423
77.0299
78.426
79.6663
80.7902
81.8347
82.8425
83.8492
84.8843
85.9645
87.0992
88.2919
89.5393
90.8345
92.1673
93.5264
94.898
96.2617
97.5829
98.8122
99.8118
100.395
36.5571
42.5147
47.1441
52.0216
56.7096
60.8833
64.4431
67.4502
70.0041
72.1855
74.0626
75.6911
77.1129
78.3743
79.5096
80.5618
81.5698
82.5722
83.593
84.6554
85.7711
86.942
88.165
89.4331
90.7368
92.065
93.4018
94.7329
96.019
97.2167
98.1881
98.7523
35.5289
41.2596
45.6494
50.3167
54.9079
59.0975
62.7345
65.8278
68.4554
70.7031
72.6387
74.3151
75.7849
77.0795
78.2418
79.3074
80.3211
81.3204
82.3361
83.3888
84.4878
85.638
86.8367
88.0776
89.3509
90.6462
91.9504
93.245
94.4949
95.6612
96.6026
97.1479
34.3136
39.8323
43.9741
48.4143
52.8952
57.1022
60.8361
64.0593
66.8224
69.1827
71.2037
72.9488
74.4596
75.7931
76.9801
78.0667
79.092
80.0985
81.108
82.1475
83.2318
84.3633
85.5397
86.7545
87.9992
89.2638
90.532
91.7947
93.0112
94.1454
95.0592
95.5852
33.0521
38.356
42.2258
46.3974
50.7313
54.9536
58.8201
62.2023
65.0909
67.5588
69.6758
71.4957
73.088
74.476
75.7105
76.8265
77.8721
78.8837
79.8976
80.9369
82.01
83.124
84.2778
85.4663
86.6805
87.9111
89.148
90.3726
91.5507
92.6543
93.5367
94.0428
31.5066
36.6155
40.2045
44.0888
48.254
52.4719
56.4572
60.0363
63.1666
65.8374
68.1017
70.0432
71.6977
73.1499
74.4284
75.5843
76.6552
77.689
78.7061
79.7356
80.7985
81.8977
83.0317
84.1952
85.3815
86.5819
87.7808
88.9743
90.1198
91.1906
92.0455
92.5314
29.8334
34.7473
38.0216
41.5338
45.4304
49.6148
53.8194
57.7018
61.0478
63.9068
66.3467
68.4095
70.2089
71.7526
73.1097
74.3155
75.4271
76.4767
77.5088
78.5517
79.6106
80.6958
81.8089
82.9468
84.1017
85.2653
86.4336
87.5875
88.6895
89.7312
90.5517
91.0154
27.6204
32.3794
35.3416
38.4777
42.1001
46.1962
50.4561
54.6037
58.4552
61.7378
64.4584
66.7638
68.667
70.3168
71.7444
73.0198
74.1746
75.2681
76.3184
77.3546
78.4079
79.4828
80.5791
81.6926
82.8198
83.9549
85.0799
86.2024
87.2739
88.2804
89.0721
89.514
25.1008
29.7614
32.4064
35.0233
38.094
41.9713
46.6553
51.4208
55.5378
59.1437
62.2268
64.7402
66.9159
68.7312
70.3015
71.6579
72.8844
74.0074
75.0841
76.1533
77.213
78.2786
79.355
80.4429
81.5357
82.6267
83.7241
84.8029
85.8225
86.7991
87.5519
87.9696
21.142
25.8191
28.1149
30.1801
32.7537
36.2749
40.5252
45.5662
51.2191
55.8916
59.5906
62.6749
65.0641
67.0767
68.7506
70.2257
71.5218
72.7219
73.8422
74.9064
75.9655
77.0252
78.0881
79.1512
80.2167
81.2828
82.3257
83.3727
84.362
85.3036
86.0238
86.4145
16.6163
21.7826
24.0916
25.7152
27.3587
30.5184
35.8495
41.9505
46.5538
51.7496
56.3225
59.7668
62.7236
65.0588
67.0369
68.6589
70.0834
71.334
72.4923
73.6205
74.701
75.7584
76.801
77.8371
78.8614
79.868
80.8883
81.8844
82.8079
83.7149
84.3889
84.7535
4.83441
11.9086
13.5139
12.4612
11.1501
18.9019
10.8828
21.7661
37.5291
45.5344
51.6348
56.7477
60.2103
62.9943
65.1159
66.9463
68.4827
69.8675
71.1161
72.238
73.3236
74.3789
75.4115
76.4212
77.4172
78.4066
79.353
80.3168
81.2095
82.0807
82.7178
83.0435
8.11556
7.25671
11.1871
14.6948
8.91676
10.2426
13.9872
17.4686
19.0972
36.1098
45.9389
51.4538
56.4558
59.938
62.802
64.9418
66.7375
68.2144
69.5146
70.7555
71.886
72.9503
73.9612
74.9388
75.8812
76.7819
77.7106
78.6072
79.4083
80.2419
80.8108
81.1119
10.803
15.6167
17.1523
17.3686
13.9043
11.0296
10.0639
15.278
19.1563
21.9391
33.914
46.6591
52.3391
57.0347
60.093
62.6574
64.6417
66.3695
67.8567
69.085
70.229
71.2949
72.2977
73.2446
74.1546
75.0488
75.8754
76.7484
77.5174
78.2995
78.8383
79.0724
19.063
23.3994
25.1625
25.8664
25.5849
23.7553
21.1115
18.5698
17.0451
12.3545
11.2709
29.2986
44.6342
51.2528
56.4217
59.6756
62.2603
64.1751
65.7377
67.1955
68.4281
69.5236
70.5023
71.4052
72.2373
72.9901
73.7947
74.5509
75.1731
75.9447
76.3473
76.565
21.6361
26.6129
29.3195
31.3347
32.5758
32.9106
32.098
29.8868
25.2769
22.0755
23.0005
25.2452
35.141
46.5859
51.6771
56.1272
59.0627
61.5212
63.4962
64.9263
66.1871
67.2903
68.2573
69.1189
69.9048
70.6649
71.3251
72.1157
72.7027
73.3382
73.7554
73.845
22.597
27.6778
30.5943
32.9484
34.7057
35.8462
36.3212
35.9626
34.2743
29.4546
26.6413
24.2212
7.63072
30.6163
45.0103
50.7677
55.3331
58.1718
60.266
62.1849
63.6283
64.8063
65.7418
66.5311
67.1857
67.689
68.303
68.8124
69.1279
69.8935
69.9891
70.0678
22.1476
27.3654
30.4423
33.0176
35.0535
36.5426
37.4879
37.8786
37.6006
36.139
31.9399
26.5364
24.6325
29.4892
33.1024
44.2248
49.3355
53.6911
56.8124
58.6108
60.1004
61.2886
62.1994
62.9113
63.4715
64.0412
64.3948
65.2054
65.4622
65.7903
66.0319
65.8604
20.7197
26.0688
29.2339
31.9344
34.1436
35.8616
37.1141
37.9439
38.3874
38.3617
37.318
33.6512
24.6497
26.6741
11.46
31.5316
42.8791
47.6518
50.9207
54
55.907
57.3029
58.1276
58.6989
58.987
58.911
59.233
59.1744
58.8356
59.8585
59.2294
58.9677
18.7807
24.2185
27.4078
30.1549
32.4512
34.3115
35.7662
36.8756
37.7228
38.3738
38.7289
38.0876
34.8143
28.0563
23.5262
34.0721
30.1988
39.2203
45.559
47.4149
49.2254
50.5341
51.408
51.6244
51.6156
52.1915
51.5545
53.1774
52.6657
52.1534
51.8782
51.195
16.5669
21.9832
25.098
27.792
30.0843
32.0132
33.6224
34.9712
36.1457
37.2297
38.2424
38.9971
38.7845
35.4832
27.2156
27.7087
34.7715
25.1044
30.0997
38.1697
41.9808
43.8214
43.994
44.1758
43.4047
41.4789
41.3685
40.7877
38.9332
40.8637
38.3459
35.9536
14.3345
19.5916
22.5292
25.0698
27.2659
29.1781
30.8658
32.3936
33.8394
35.2849
36.7603
38.1712
39.2117
39.0772
36.2943
26.4057
29.4094
23.3023
27.4571
24.7318
22.5014
24.9188
27.7453
23.6595
18.5511
24.013
27.4085
21.1957
18.1877
44.8692
36.709
36.1826
12.3704
17.3486
20.0343
22.35
24.3812
26.207
27.8973
29.5187
31.1385
32.8242
34.6215
36.4916
38.2503
39.4938
39.5673
36.4225
29.1072
21.2464
30.6344
29.4746
22.3971
16.4765
33.045
9.45727
33.2511
28.5014
42.8034
29.798
29.3567
33.3942
23.8259
25.459
10.8557
15.4869
17.9051
19.9788
21.8222
23.5271
25.1672
26.8033
28.4885
30.2714
32.1989
34.2823
36.4445
38.4368
39.8182
39.7696
36.6963
30.2686
25.1
22.7099
33.1476
25.5021
33.6313
27.2144
25.7066
35.1074
38.023
36.8345
40.0455
32.2665
31.1061
33.502
9.74198
14.131
16.3233
18.1946
19.8807
21.4762
23.0477
24.6421
26.2961
28.0446
29.9291
31.9907
34.2352
36.5544
38.6406
39.9397
39.7388
37.9498
32.6054
31.2129
36.631
29.1418
28.7826
32.1963
35.853
35.0867
38.2219
35.1059
34.3833
40.1123
38.5128
41.7075
9.15246
13.3541
15.389
17.1305
18.7223
20.2492
21.761
23.286
24.8458
26.4668
28.1873
30.0581
32.1274
34.3947
36.7241
38.7436
39.8953
40.0629
38.3945
38.2717
36.401
37.0689
38.4324
39.9185
42.3751
41.4035
43.1648
40.7263
37.9092
43.4508
42.2331
43.7966
8.98669
13.1032
15.0702
16.7663
18.3327
19.838
21.3121
22.7673
24.215
25.6773
27.1896
28.7997
30.5645
32.5336
34.7011
36.9119
38.7975
40.0281
40.1628
40.5951
40.0019
40.5789
41.605
42.0645
43.3831
43.0732
43.4035
42.3907
40.5689
43.2967
42.8909
43.7201
9.17134
13.2807
15.2526
16.9715
18.5666
20.088
21.549
22.9517
24.3034
25.6237
26.9436
28.3038
29.7539
31.3513
33.1448
35.1232
37.1388
38.9313
40.0896
40.9899
41.1634
41.4953
42.2288
42.4177
43.0301
42.9601
42.5904
42.3741
41.2425
42.2768