/*--------------------------------*- C++ -*----------------------------------*\
  =========                 |
  \\      /  F ield         | OpenFOAM: The Open Source CFD Toolbox
   \\    /   O peration     | Website:  https://openfoam.org
    \\  /    A nd           | Version:  6
     \\/     M anipulation  |
\*---------------------------------------------------------------------------*/
FoamFile
{
    version     2.0;
    format      ascii;
    class       volScalarField;
    location    "24";
    object      yPlus;
}
// * * * * * * * * * * * * * * * * * * * * * * * * * * * * * * * * * * * * * //

dimensions      [0 0 0 0 0 0 0];

internalField   uniform 0;

boundaryField
{
    inlet
    {
        type            calculated;
        value           uniform 0;
    }
    outlet
    {
        type            calculated;
        value           uniform 0;
    }
    roughCylinder
    {
        type            calculated;
        value           nonuniform List<scalar> 
5120
(
43.482
51.3021
57.5305
63.6571
68.9464
73.2369
76.675
79.4539
81.7289
83.6345
85.2903
86.7729
88.1197
89.3646
90.5386
91.6721
92.7957
93.9379
95.1219
96.3652
97.6771
99.0602
100.511
102.023
103.586
105.186
106.809
108.43
110.013
111.485
112.7
113.417
42.7748
50.3093
56.3381
62.3238
67.5391
71.7938
75.2129
77.983
80.2576
82.1694
83.8336
85.3198
86.658
87.8888
89.0447
90.1568
91.257
92.3741
93.5325
94.7485
96.0316
97.3844
98.8037
100.282
101.81
103.375
104.96
106.543
108.087
109.524
110.709
111.407
41.9803
49.2678
55.1096
60.9561
66.0984
70.3223
73.7309
76.5028
78.7882
80.7163
82.3945
83.8861
85.2208
86.4413
87.5811
88.6739
89.7521
90.8457
91.9782
93.1671
94.4222
95.7453
97.1336
98.5792
100.073
101.601
103.15
104.694
106.202
107.602
108.757
109.437
41.1765
48.2276
53.8817
59.5843
64.652
68.8471
72.2488
75.0273
77.331
79.283
80.9804
82.4808
83.817
85.0277
86.154
87.2294
88.2876
89.3585
90.4678
91.6318
92.8596
94.1539
95.5115
96.9253
98.3847
99.8774
101.388
102.896
104.366
105.731
106.857
107.518
40.3049
47.1345
52.5999
58.1553
63.1504
67.3265
70.7365
73.5384
75.8745
77.8588
79.5802
81.0941
82.4362
83.6458
84.7632
85.8246
86.8651
87.9167
89.0028
90.142
91.3442
92.611
93.9394
95.322
96.7488
98.2076
99.6831
101.153
102.587
103.918
105.014
105.657
39.4455
46.0524
51.3224
56.7239
61.6461
65.8083
69.2318
72.0597
74.4296
76.4491
78.1986
79.7305
81.0841
82.2961
83.4068
84.4566
85.4823
86.5149
87.582
88.7001
89.8777
91.1182
92.4182
93.7704
95.1646
96.5887
98.0281
99.4633
100.861
102.158
103.226
103.85
38.5053
44.8978
49.9646
55.2031
60.0507
64.2092
67.6654
70.5419
72.9645
75.0302
76.8146
78.3717
79.7413
80.9652
82.0794
83.1248
84.1394
85.1588
86.2066
87.3026
88.4577
89.6734
90.9464
92.2697
93.6329
95.0249
96.4312
97.8289
99.1929
100.456
101.496
102.102
37.5849
43.7571
48.6116
53.678
58.4503
62.6132
66.1102
69.0356
71.5068
73.6193
75.4433
77.0299
78.424
79.6619
80.7829
81.825
82.8328
83.8387
84.8729
85.953
87.087
88.2791
89.526
90.8205
92.1529
93.5113
94.8818
96.2462
97.5744
98.8051
99.8176
100.406
36.5467
42.5032
47.1304
52.0049
56.6902
60.8622
64.4218
67.4297
69.9841
72.1655
74.0422
75.6716
77.0956
78.3591
79.4971
80.5519
81.5593
82.5616
83.5825
84.6434
85.7585
86.9286
88.1509
89.4183
90.7215
92.0491
93.3878
94.7158
96.011
97.2101
98.1947
98.7654
35.5236
41.2551
45.6473
50.3186
54.9143
59.1073
62.7449
65.8368
68.463
70.7105
72.6462
74.3212
75.7874
77.0789
78.2373
79.2983
80.3111
81.3092
82.3233
83.3761
84.4743
85.6238
86.8219
88.0621
89.3348
90.629
91.931
93.2245
94.4857
95.6517
96.6105
97.1618
34.2979
39.8138
43.9503
48.3831
52.8567
57.0596
60.7949
64.0233
66.7909
69.1532
71.1744
72.921
74.4362
75.773
76.9633
78.0545
79.0803
80.0869
81.0969
82.1344
83.2179
84.3485
85.5237
86.7377
87.9817
89.2455
90.5165
91.7738
93.0011
94.1367
95.0678
95.6015
33.0526
38.3597
42.2362
46.4189
50.7651
54.9951
58.8591
62.2322
65.1134
67.5776
69.6934
71.5114
73.0971
74.4797
75.7099
76.819
77.862
78.8718
79.8829
80.9227
81.9947
83.1079
84.2612
85.4487
86.662
87.891
89.1239
90.3454
91.5402
92.6419
93.5469
94.0608
31.485
36.5876
40.1641
44.0284
48.1718
52.3779
56.3719
59.9712
63.1157
65.7936
68.0614
70.0043
71.6659
73.1246
74.4066
75.5687
76.6414
77.6757
78.6942
79.7211
80.7828
81.8808
83.0132
84.1755
85.361
86.56
87.7628
88.9493
90.1073
91.179
92.0566
92.5522
29.8384
34.7597
38.0504
41.5922
45.5249
49.7294
53.9166
57.7631
61.0896
63.9416
66.3744
68.4358
70.2276
71.7615
73.1124
74.3098
75.4171
76.4638
77.4917
78.5352
79.5928
80.6771
81.7901
82.9268
84.0802
85.2429
86.4039
87.5488
88.6782
89.715
90.5644
91.0395
27.6052
32.3534
35.2906
38.3772
41.9361
46.001
50.2963
54.517
58.3955
61.6797
64.4115
66.7173
68.6233
70.2829
71.7186
73.0011
74.1586
75.2528
76.3054
77.3379
78.3897
79.4631
80.5568
81.6686
82.7951
83.9271
85.0591
86.1709
87.2562
88.2638
89.0869
89.5414
25.0916
29.7603
32.4335
35.1161
38.2705
42.1558
46.8053
51.4457
55.547
59.1845
62.2562
64.7706
66.9509
68.7549
70.3076
71.6525
72.8736
73.9927
75.0637
76.1335
77.1919
78.2559
79.3329
80.4199
81.5104
82.6024
83.6855
84.7484
85.8107
86.7781
87.5698
88.0022
21.2547
25.9333
28.2059
30.2302
32.8391
36.6719
40.5685
45.7499
51.3216
55.8625
59.5576
62.6335
64.9974
67.0136
68.7169
70.2057
71.504
72.7042
73.8268
74.8866
75.9431
77.0015
78.0604
79.1209
80.1857
81.2453
82.3003
83.3277
84.3374
85.2778
86.0427
86.452
16.3778
21.5197
23.9781
25.561
26.0322
24.2509
34.3715
40.986
46.0872
51.7394
56.3536
59.7965
62.7993
65.1383
67.0585
68.6526
70.0699
71.3165
72.468
73.5958
74.6753
75.7292
76.7738
77.8096
78.8303
79.8431
80.8383
81.8081
82.7969
83.6865
84.4165
84.7996
5.84222
11.1838
12.5804
15.0393
19.0693
19.2327
19.456
26.189
39.1244
45.714
51.5765
56.6987
60.0755
62.8328
65.0495
66.9232
68.464
69.8461
71.0948
72.2127
73.2936
74.349
75.3765
76.3816
77.3777
78.3536
79.3192
80.243
81.1719
82.0418
82.7389
83.0952
5.25279
2.8859
14.5998
14.9001
19.4449
19.7325
17.0456
22.6661
18.7975
37.5984
46.7415
51.6673
56.6785
60.1925
62.8866
64.9411
66.7187
68.1921
69.4871
70.7232
71.8545
72.9104
73.925
74.9031
75.8399
76.7575
77.6461
78.5008
79.4042
80.1987
80.8609
81.1828
11.3183
15.7833
16.6673
15.9794
16.497
16.6741
13.759
14.5259
6.15264
13.1684
29.4562
45.7342
51.9024
56.6046
59.9265
62.6238
64.6254
66.3427
67.821
69.049
70.1839
71.2536
72.2513
73.1927
74.103
74.9731
75.8259
76.6124
77.4488
78.2425
78.8571
79.142
19.8491
24.2906
26.1775
26.9709
26.5781
25.1113
23.0428
21.2408
21.9625
21.5147
25.492
31.7004
45.5021
51.9913
56.7
59.6983
62.2283
64.1412
65.7059
67.15
68.3887
69.4644
70.4488
71.3505
72.1758
72.9658
73.7079
74.392
75.1987
75.87
76.4426
76.6902
22.1648
27.1546
29.8772
31.9013
33.1339
33.4443
32.597
30.242
26.1891
23.5353
28.0149
29.0622
35.4582
45.7518
51.278
56.1016
59.0732
61.4906
63.4337
64.8675
66.1101
67.224
68.1893
69.0523
69.834
70.5538
71.2529
71.8499
72.5509
73.2537
73.7782
73.9423
22.9159
28.0126
30.9505
33.3219
35.0872
36.2178
36.6374
36.1033
33.9392
28.8401
27.0382
28.0665
8.81878
33.1294
45.9557
50.7687
55.2395
58.1027
60.2127
62.1089
63.5788
64.7048
65.6536
66.4276
67.0814
67.6703
68.162
68.5104
69.2449
69.7531
70.1582
70.3162
22.344
27.5691
30.6552
33.2355
35.2667
36.7341
37.6265
37.9016
37.3812
35.4687
30.9552
28.9435
14.241
15.2564
30.9098
44.7525
49.5395
53.6457
56.6945
58.4994
59.945
61.1615
62.0707
62.8369
63.3625
63.8501
64.3297
64.6965
65.0711
65.6691
66.1304
66.055
20.8611
26.2149
29.3867
32.0919
34.2995
36.0044
37.2224
37.9825
38.3053
38.1025
36.8471
33.6371
27.0924
21.4032
18.2973
28.7985
42.6648
47.6127
50.7657
53.8356
55.8667
57.0799
57.9688
58.4506
58.7852
58.9682
58.8577
58.3283
59.2059
59.569
59.4647
59.5295
18.9141
24.3529
27.5464
30.2957
32.5891
34.4378
35.8668
36.9282
37.6956
38.2317
38.47
37.7918
34.7053
29.3083
24.8224
23.4442
27.5386
38.6357
45.0484
47.1499
48.8061
50.289
50.9436
51.6582
51.3915
51.8526
52.0221
53.1014
51.4808
52.2156
52.8275
52.4722
16.7009
22.1239
25.2466
27.9463
30.2392
32.1611
33.7528
35.0699
36.1945
37.2093
38.1415
38.8324
38.5131
35.2029
29.048
26.9163
25.0271
25.1566
30.2896
38.2207
41.8111
43.2761
43.9963
43.6544
42.9794
41.1077
38.5076
35.3893
37.7935
39.1746
37.1378
35.5081
14.4582
19.7308
22.6813
25.2321
27.4331
29.3434
31.0213
32.5309
33.9491
35.3585
36.797
38.1812
39.1931
38.9309
35.3296
28.9674
29.3383
31.2182
23.4184
19.6594
22.513
23.3266
22.1043
23.4094
16.7712
31.2492
28.057
31.1418
20.9042
42.6657
22.2913
32.4255
12.4613
17.4599
20.1612
22.4897
24.5289
26.3568
28.0432
29.6549
31.2596
32.926
34.7041
36.5571
38.2884
39.4514
39.1717
35.6104
29.2175
32.8486
23.1995
26.6731
5.67736
23.6999
28.4791
17.5116
32.3675
37.3133
17.8203
39.458
13.0327
40.7062
30.4332
36.5122
10.9122
15.5593
17.9896
20.0731
21.9227
23.6301
25.2687
26.9001
28.5779
30.3513
32.2683
34.3387
36.4746
38.3964
39.5855
39.2286
36.3506
30.4442
24.9915
29.4552
21.8894
32.055
38.1284
34.1625
27.0287
38.3657
30.6536
33.0963
35.6658
31.2459
31.4535
31.0848
9.76407
14.1629
16.3615
18.237
19.9249
21.5203
23.0905
24.6828
26.3342
28.0797
29.9597
32.0118
34.2339
36.501
38.4728
39.6114
39.4898
37.5395
33.8807
30.8875
29.3722
28.147
38.9491
35.8205
37.1736
34.1768
38.2892
32.5304
40.2067
39.881
39.542
40.6557
9.15078
13.3552
15.3907
17.1309
18.7204
20.2448
21.7546
23.2786
24.8382
26.4596
28.1799
30.0475
32.1063
34.3466
36.621
38.5725
39.7722
39.9811
38.8946
38.2206
37.1804
37.303
37.5378
39.7321
42.5319
41.2731
43.0433
39.4476
43.2865
43.6973
43.3278
43.9852
8.9697
13.0845
15.0482
16.7399
18.302
19.8039
21.2761
22.7306
24.1783
25.641
27.1536
28.7636
30.5262
32.4879
34.6379
36.8294
38.7478
40.0308
40.3402
40.6397
40.2584
40.7252
41.2426
42.0098
43.4157
42.7735
43.5297
41.0164
43.0828
43.5741
43.6763
43.9868
9.14703
13.2524
15.2196
16.9332
18.5239
20.0423
21.5017
22.9035
24.2547
25.5747
26.8944
28.2548
29.7057
31.3041
33.098
35.08
37.1203
38.9444
40.1456
41.044
41.1812
41.6714
42.1717
42.372
43.0281
42.5866
42.8128
40.818
42.2115
42.3535
42.8022
42.7984
9.58374
13.7323
15.7522
17.5348
19.1913
20.7551
22.227
23.603
24.8888
26.1034
27.2754
28.4384
29.6313
30.9018
32.3054
33.8883
35.645
37.4599
39.0377
40.3582
40.9924
41.5131
41.8661
41.7818
41.8898
41.3787
41.2368
39.6156
40.6166
40.5348
41.1201
40.9716
10.2241
14.446
16.5422
18.4141
20.1519
21.7736
23.2726
24.6439
25.8952
27.0467
28.1246
29.1561
30.1685
31.1953
32.2806
33.4754
34.8202
36.3048
37.7891
39.1735
40.0653
40.6324
40.8736
40.6209
40.3692
39.722
39.3507
38.1072
38.7884
38.7196
39.3311
39.2024
11.0149
15.3377
17.5226
19.4901
21.3102
22.9904
24.5211
25.8996
27.1382
28.2599
29.2893
30.2481
31.1538
32.0259
32.8927
33.7936
34.7724
35.8573
37.0104
38.1624
39.0284
39.5575
39.7056
39.3691
38.9121
38.1755
37.6948
36.8186
37.2617
37.3501
37.9458
37.9337
11.8647
16.3578
18.6397
20.7021
22.6004
24.3355
25.8984
27.2915
28.5326
29.6479
30.661
31.5899
32.4446
33.2341
33.973
34.6848
35.4017
36.1556
36.9504
37.7573
38.4082
38.7918
38.828
38.4361
37.8805
37.1196
36.6103
36.0298
36.3371
36.6156
37.2069
37.3415
12.8575
17.4738
19.8506
22.0043
23.9759
25.7623
27.3574
28.7699
30.0238
31.1483
32.1664
33.0927
33.9325
34.688
35.3645
35.9725
36.5298
37.0571
37.569
38.0581
38.4383
38.615
38.5102
38.0564
37.4514
36.7055
36.2061
35.8393
36.093
36.5324
37.1391
37.4096
13.5913
14.0036
14.4829
14.8682
15.2421
15.5393
15.7995
16.002
16.1648
16.28
16.3586
16.3989
16.4051
16.3776
16.321
16.238
16.1306
16.0045
15.8718
15.7657
15.7845
15.909
16.052
16.1855
16.2991
16.3877
16.4491
16.4807
16.4781
16.4406
16.3636
16.2491
16.0856
15.8812
15.6169
15.3128
14.9304
14.5338
14.041
13.6119
18.3329
18.7594
19.2571
19.6592
20.0503
20.3683
20.6506
20.8772
21.0655
21.2081
21.3145
21.3835
21.418
21.4176
21.3844
21.3207
21.2275
21.1089
20.9766
20.8664
20.8883
21.0195
21.1632
21.29
21.3902
21.4599
21.4983
21.5033
21.4724
21.406
21.3011
21.1589
20.9695
20.7402
20.4529
20.1273
19.7264
19.3113
18.798
18.3519
20.7838
21.2347
21.7615
22.1884
22.6073
22.9556
23.2722
23.5358
23.7643
23.9502
24.1015
24.2169
24.2987
24.3449
24.3556
24.3317
24.2737
24.1843
24.0738
23.9769
23.9988
24.1178
24.2405
24.3391
24.4048
24.4353
24.4304
24.3892
24.3114
24.1989
24.0493
23.8639
23.6343
23.3677
23.0461
22.69
22.2608
21.82
21.2766
20.8046
22.9934
23.4627
24.0116
24.4574
24.9003
25.2756
25.6239
25.9229
26.1905
26.4191
26.615
26.7765
26.9053
26.9983
27.054
27.0719
27.0514
26.9949
26.9125
26.838
26.8579
26.9555
27.0515
27.1181
27.1471
27.1367
27.0873
26.9997
26.8754
26.7171
26.5233
26.2952
26.0267
25.7248
25.3714
24.9883
24.5348
24.0747
23.5085
23.0171
24.9986
25.4716
26.0275
26.4793
26.9336
27.324
27.6923
28.0157
28.3112
28.5723
28.8042
29.0036
29.1709
29.3027
29.3963
29.4497
29.4618
29.4348
29.3793
29.3274
29.345
29.4207
29.4911
29.5293
29.5264
29.4811
29.3945
29.2686
29.106
28.9102
28.6806
28.4205
28.1242
27.7981
27.4249
27.0269
26.5621
26.0959
25.5224
25.0269
26.7988
27.2592
27.8085
28.2545
28.709
29.1043
29.4833
29.8237
30.1418
30.4297
30.6916
30.9233
31.1237
31.2886
31.4145
31.4985
31.5388
31.5373
31.5047
31.4707
31.4868
31.5446
31.5932
31.6067
31.5763
31.501
31.3825
31.2239
31.0286
30.801
30.5417
30.2549
29.9363
29.5936
29.21
28.8074
28.3427
27.8826
27.3158
26.8326
28.3942
28.831
29.3665
29.8012
30.2514
30.6492
31.0382
31.3951
31.7344
32.0473
32.3368
32.5977
32.8278
33.0223
33.1769
33.2876
33.3522
33.3721
33.3575
33.3363
33.3516
33.3968
33.4279
33.4206
33.3665
33.265
33.1183
32.9304
32.7057
32.449
32.1625
31.8509
31.5114
31.1525
30.7592
30.3546
29.8946
29.4462
28.8935
28.434
29.8013
30.2107
30.732
31.1566
31.6052
32.0098
32.4106
32.785
33.145
33.4819
33.7969
34.0845
34.3415
34.5623
34.7419
34.8756
34.9605
34.9976
34.9966
34.9838
34.9989
35.0357
35.0537
35.0298
34.9558
34.8315
34.6601
34.4463
34.1951
33.912
33.6
33.2649
32.9049
32.5287
32.1238
31.7128
31.2548
30.8169
30.2787
29.8468
31.0497
31.4333
31.9442
32.3639
32.8155
33.2291
33.6428
34.0344
34.4139
34.7724
35.1104
35.4215
35.7019
35.9453
36.1461
36.299
36.4003
36.4507
36.4592
36.4517
36.4668
36.4988
36.5076
36.4707
36.3807
36.2376
36.0454
35.8092
35.5349
35.2284
34.894
34.5372
34.1581
33.7649
33.3473
32.9274
32.4666
32.0341
31.5067
31.1006
32.1703
32.5312
33.0353
33.4543
33.9102
34.3333
34.7592
35.1662
35.5627
35.9402
36.2977
36.6289
36.9288
37.1909
37.4091
37.5772
37.6915
37.7517
37.7667
37.7621
37.7776
37.8071
37.8099
37.7635
37.6609
37.5029
37.2936
37.0391
36.7455
36.4195
36.0657
35.6904
35.2943
34.8859
34.4563
34.0271
33.5623
33.1305
32.6102
32.2267
33.1839
33.5237
34.0235
34.4419
34.9019
35.3335
35.7699
36.1901
36.6012
36.9945
37.368
37.7155
38.0314
38.3085
38.5403
38.7205
38.8445
38.9121
38.9315
38.9289
38.9448
38.9732
38.9719
38.9185
38.8066
38.637
38.4145
38.1453
37.8362
37.4942
37.1246
36.7339
36.3237
35.9023
35.4624
35.025
34.5561
34.125
33.6092
33.2466
34.1012
34.4187
34.913
35.3303
35.7936
36.2322
36.6775
37.1089
37.5319
37.9382
38.325
38.6857
39.0142
39.3034
39.546
39.7356
39.8676
39.9412
39.9646
39.9641
39.9806
40.0077
40.0028
39.944
39.8247
39.6461
39.4133
39.1327
38.8114
38.4566
38.0742
37.6709
37.249
36.8171
36.3687
35.9247
35.4528
35.023
34.5124
34.1718
34.9226
35.2152
35.7023
36.1177
36.5832
37.0279
37.4808
37.9216
38.3549
38.772
39.1697
39.5412
39.8801
40.1788
40.4302
40.6276
40.7664
40.8459
40.8747
40.8779
40.8947
40.9189
40.9098
40.8458
40.7202
40.5345
40.2935
40.004
39.673
39.3081
38.9154
38.5019
38.0704
37.6295
37.1742
36.7246
36.2508
35.8233
35.3202
35.0043
35.6453
35.9094
36.3867
36.7992
37.2666
37.7168
38.1768
38.6264
39.0686
39.4951
39.9022
40.2826
40.6299
40.9365
41.1952
41.3993
41.5447
41.6309
41.6665
41.6754
41.6925
41.712
41.6971
41.6275
41.4964
41.3047
41.0573
40.7607
40.4222
40.0491
39.6481
39.2259
38.7863
38.3376
37.8759
37.4216
36.9469
36.523
36.0298
35.7427
36.267
36.496
36.9603
37.3692
37.8379
38.2938
38.7611
39.2191
39.6703
40.1056
40.521
40.9094
41.264
41.5775
41.8426
42.0532
42.2052
42.299
42.3432
42.3594
42.3766
42.39
42.3681
42.2923
42.1558
41.9589
41.7061
41.4039
41.0591
40.6793
40.2709
39.8413
39.394
38.938
38.4703
38.0115
37.5365
37.1176
36.6384
36.3868
36.7847
36.9676
37.4153
37.8192
38.2896
38.7519
39.2271
39.6943
40.1545
40.5988
41.0226
41.4185
41.7801
42.1
42.3713
42.5883
42.7474
42.8496
42.9033
42.9274
42.945
42.9518
42.9224
42.8401
42.6982
42.4965
42.2391
41.932
41.5818
41.1959
40.7809
40.3438
39.8892
39.4257
38.952
38.4888
38.0143
37.6025
37.1422
36.9381
37.1982
37.3169
37.7398
38.1379
38.61
39.0798
39.5643
40.042
40.5124
40.9663
41.3988
41.8028
42.1715
42.498
42.7757
42.9993
43.166
43.2771
43.3404
43.3721
43.3904
43.3917
43.3551
43.2665
43.1193
42.9131
42.6515
42.3398
41.9846
41.5929
41.1712
40.7268
40.2644
39.7931
39.313
38.8457
38.3732
37.972
37.5401
37.4023
37.506
37.5346
37.9183
38.3082
38.7823
39.2615
39.7568
40.2469
40.7291
41.1944
41.637
42.05
42.4267
42.7604
43.0451
43.276
43.4507
43.5707
43.6435
43.6825
43.7021
43.699
43.6564
43.562
43.41
43.1997
42.9339
42.6178
42.2576
41.86
41.4315
40.9792
40.5086
40.0289
39.5424
39.0711
38.6032
38.2167
37.8295
37.7872
37.6998
37.6065
37.9309
38.3052
38.7829
39.2739
39.7834
40.2885
40.7853
41.264
41.7188
42.1425
42.5289
42.8713
43.1641
43.4031
43.5864
43.7157
43.7979
43.844
43.8657
43.8599
43.8127
43.7136
43.5572
43.343
43.0732
42.7528
42.3874
41.9835
41.5476
41.0869
40.6075
40.1191
39.6261
39.152
38.6911
38.3304
38.0122
38.1019
37.75
37.5095
37.7531
38.1005
38.579
39.0883
39.6162
40.141
40.6558
41.1516
41.6216
42.059
42.4574
42.8106
43.1135
43.3622
43.5552
43.6944
43.786
43.8397
43.8647
43.8582
43.8081
43.7056
43.5458
43.328
43.0544
42.7293
42.3584
41.9478
41.5041
41.0346
40.546
40.049
39.55
39.0745
38.6277
38.3084
38.0876
38.3459
37.5863
37.1964
37.349
37.6607
38.1354
38.6643
39.2213
39.7729
40.3126
40.8306
41.3206
41.7758
42.19
42.5573
42.8732
43.1339
43.3385
43.4889
43.5911
43.6534
43.6836
43.6784
43.6276
43.5233
43.3612
43.1406
42.8635
42.534
42.1576
41.7403
41.2887
40.8104
40.3131
39.8077
39.3046
38.8299
38.4059
38.1437
38.0394
38.4812
37.0792
36.576
36.6526
36.934
37.4087
37.9619
38.5556
39.1489
39.7244
40.274
40.7915
41.2709
41.7065
42.0929
42.4259
42.7022
42.9212
43.0853
43.1999
43.2731
43.3111
43.3103
43.2616
43.1579
42.9953
42.7732
42.4937
42.1607
41.7795
41.3561
40.8975
40.4113
39.9056
39.3928
38.8842
38.4154
38.0222
37.8248
37.8381
38.4483
36.0801
35.5287
35.5697
35.8414
36.3315
36.923
37.5683
38.2206
38.8539
39.4525
40.012
40.5275
40.9945
41.4083
41.7653
42.0632
42.3016
42.4833
42.6141
42.702
42.7516
42.7591
42.716
42.616
42.4556
42.2342
41.9543
41.6197
41.2355
40.8082
40.3445
39.8526
39.3408
38.8221
38.3111
37.8519
37.49
37.3516
37.4598
38.1961
34.4516
33.8741
33.9067
34.208
34.7564
35.4317
36.1723
36.924
37.6534
38.3382
38.968
39.5414
40.0565
40.5111
40.9028
41.2305
41.4951
41.7001
41.8522
41.96
42.0271
42.0485
42.0165
41.9249
41.7708
41.5541
41.2774
40.9446
40.5611
40.1331
39.6677
39.1729
38.6577
38.1337
37.6222
37.1719
36.8316
36.7284
36.8858
37.6782
34.1006
32.607
32.1103
32.1784
32.6735
33.4118
34.2716
35.1682
36.0479
36.8758
37.6315
38.3082
38.9076
39.4313
39.8802
40.2559
40.561
40.8011
40.9844
41.1206
41.2121
41.2532
41.237
41.1583
41.0147
40.8068
40.5372
40.2104
39.8319
39.4081
38.9462
38.454
37.9412
37.4188
36.9126
36.4729
36.1484
36.0655
36.2386
37.0508
47.8094
38.7122
33.167
30.6262
30.0721
30.6614
31.7395
32.9398
34.1082
35.1841
36.1444
36.9827
37.7041
38.3203
38.8402
39.2713
39.6204
39.8968
40.1122
40.2792
40.3994
40.4651
40.4698
40.4089
40.2805
40.0859
39.8283
39.5125
39.144
38.7294
38.2758
37.7909
37.2842
36.768
36.2678
35.8332
35.5092
35.4186
35.5673
36.3423
67.5688
67.1059
62.4593
54.1164
43.6909
34.4956
30.2646
30.1987
31.4956
32.9506
34.2776
35.4191
36.3761
37.1705
37.8254
38.359
38.7873
39.1259
39.3917
39.6004
39.7535
39.8451
39.8709
39.8279
39.7155
39.5357
39.2921
38.9898
38.6344
38.2325
37.7915
37.3194
36.8257
36.3222
35.8341
35.4093
35.0896
34.9954
35.1259
35.8723
47.2392
41.1041
36.8112
33.6902
31.8969
31.5154
32.0446
32.9287
33.8876
34.813
35.6603
36.411
37.0648
37.6261
38.0995
38.4892
38.8006
39.0428
39.2299
39.3803
39.4979
39.5712
39.5892
39.545
39.4362
39.2637
39.0307
38.7416
38.4018
38.0177
37.5963
37.1457
36.6754
36.1981
35.734
35.3276
35.0142
34.9082
34.9925
35.6526
36.0033
34.6366
33.999
33.7281
33.8357
34.1847
34.6778
35.2384
35.8187
36.3852
36.9216
37.4175
37.8655
38.2597
38.5954
38.87
39.0835
39.2404
39.3545
39.4512
39.5414
39.6041
39.619
39.5759
39.4716
39.3068
39.0842
38.8082
38.4837
38.1168
37.7143
37.2844
36.8365
36.3845
35.9436
35.5555
35.2542
35.1523
35.2351
35.8931
36.0484
35.3285
35.1815
35.1972
35.4335
35.7767
36.1934
36.6384
37.0903
37.5324
37.9532
38.3429
38.6939
38.9999
39.2556
39.4573
39.6034
39.6961
39.7471
39.7886
39.8507
39.9048
39.9177
39.8764
39.7773
39.6212
39.4107
39.1501
38.8442
38.499
38.1211
37.7189
37.302
36.8848
36.4821
36.1292
35.8527
35.7623
35.8285
36.4388
37.0594
36.4573
36.38
36.4304
36.6621
36.9675
37.3271
37.7079
38.0946
38.4721
38.8301
39.16
39.4546
39.708
39.9152
40.0722
40.1768
40.2297
40.2405
40.2422
40.2852
40.3357
40.3494
40.3111
40.2176
40.0696
39.8696
39.6218
39.3309
39.0023
38.6425
38.2594
37.8624
37.4654
37.0833
36.7481
36.4832
36.3975
36.4603
37.0629
37.6941
37.1244
37.0602
37.1113
37.3318
37.618
37.9565
38.3143
38.677
39.03
39.3638
39.6698
39.9415
40.1732
40.36
40.498
40.5849
40.6213
40.6153
40.599
40.6315
40.6805
40.6953
40.66
40.5712
40.4295
40.2377
39.9996
39.7198
39.4037
39.0575
38.6889
38.307
37.9251
37.5565
37.2326
36.9696
36.8713
36.8978
37.4369
43.4884
51.3073
57.5347
63.6603
68.949
73.2394
76.6775
79.4568
81.7324
83.639
85.2962
86.7804
88.1291
89.3764
90.5532
91.6903
92.8184
93.9661
95.1567
96.4083
97.7305
99.1261
100.592
102.122
103.704
105.321
106.954
108.563
110.122
111.549
112.741
113.434
42.7767
50.3102
56.3379
62.3232
67.5384
71.7935
75.2131
77.9838
80.2591
82.1719
83.8373
85.3251
86.6654
87.899
89.0582
90.1741
91.2788
92.4016
93.5669
94.7917
96.0856
97.4519
98.8876
100.385
101.934
103.517
105.114
106.683
108.203
109.589
110.75
111.422
41.982
49.2682
55.1089
60.9544
66.0966
70.3207
73.7299
76.5023
78.7886
80.7178
82.3975
83.891
85.2279
86.4507
87.5933
88.6898
89.773
90.8725
92.0122
93.2103
94.4768
95.8142
97.22
98.6863
100.203
101.752
103.313
104.844
106.322
107.668
108.798
109.45
41.1758
48.2249
53.8775
59.579
64.6465
68.8419
72.244
75.0229
77.3274
79.2805
80.9793
82.4816
83.8202
85.0342
86.1645
87.2442
88.3072
89.3843
90.5012
91.6748
92.9146
94.2243
95.6008
97.0369
98.5221
100.038
101.564
103.054
104.493
105.799
106.897
107.529
40.2994
47.1276
52.5919
58.1466
63.1419
67.319
70.7302
73.5336
75.8711
77.8568
79.5799
81.0959
82.4405
83.6526
84.7726
85.8376
86.8833
87.9413
89.0354
90.1847
91.3996
92.6826
94.0315
95.4386
96.8927
98.3775
99.8702
101.323
102.721
103.986
105.054
105.665
39.4406
46.0443
51.3121
56.7122
61.6339
65.7964
69.2201
72.0482
74.4184
76.4393
78.1908
79.7251
81.0813
82.2972
83.4128
84.4681
85.4991
86.5383
87.6138
88.7422
89.9335
91.1913
92.5133
93.8924
95.3186
96.7715
98.2313
99.6439
101.003
102.227
103.264
103.857
38.4895
44.8801
49.9456
55.1835
60.0319
64.1923
67.6512
70.5308
72.9566
75.0246
76.8107
78.3699
79.7424
80.9692
82.0857
83.134
84.1539
85.1802
86.2368
87.344
88.5134
89.7476
91.0446
92.3971
93.7943
95.2205
96.6511
98.0254
99.343
100.526
101.534
102.105
37.5722
43.7403
48.5921
53.6567
58.4287
62.592
66.0893
69.0142
71.485
73.5986
75.4257
77.0158
78.4131
79.655
80.782
81.8316
82.8458
83.8589
84.902
85.9933
87.1426
88.3546
89.6272
90.9548
92.3283
93.7223
95.1185
96.4576
97.735
98.876
99.8538
100.406
36.5161
42.4697
47.0948
51.9685
56.655
60.8302
64.3946
67.4085
69.9695
72.1556
74.034
75.6653
77.0924
78.3596
79.5
80.5564
81.5689
82.5785
83.6088
84.6826
85.8136
87.005
88.2559
89.5591
90.9047
92.2794
93.656
94.9481
96.1837
97.2793
98.2295
98.7609
35.4959
41.2228
45.6122
50.2817
54.8776
59.0722
62.7111
65.8024
68.4266
70.6743
72.6149
74.2951
75.7656
77.0614
78.2265
79.2975
80.3185
81.3247
82.3487
83.4135
84.5288
85.7013
86.93
88.2112
89.5384
90.8804
92.2163
93.4817
94.6731
95.7244
96.6425
97.1544
34.245
39.7572
43.89
48.3205
52.7948
57.0018
60.7447
63.9838
66.7642
69.1362
71.1594
72.9081
74.4272
75.7681
76.9617
78.0532
79.0831
80.0971
81.1175
82.1698
83.2714
84.4269
85.6372
86.8968
88.196
89.5281
90.8584
92.061
93.2055
94.205
95.0977
95.5868
32.9963
38.2986
42.1717
46.353
50.7013
54.9364
58.8053
62.1796
65.0573
67.5202
69.6455
71.4706
73.0604
74.4489
75.6862
76.8076
77.8614
78.8808
79.903
80.9551
82.0466
83.1867
84.3772
85.6172
86.9061
88.2043
89.4873
90.6714
91.7639
92.7163
93.5727
94.0424
31.3979
36.4959
40.0659
43.9241
48.0645
52.2733
56.2781
59.8954
63.0638
65.761
68.0285
69.9757
71.6475
73.1109
74.3972
75.5595
76.6352
77.6768
78.706
79.7502
80.8327
81.9601
83.1362
84.3585
85.6194
86.9182
88.2089
89.3153
90.3547
91.2423
92.08
92.5249
29.7232
34.6388
37.9241
41.4649
45.4054
49.6261
53.8279
57.6826
61.0064
63.855
66.3132
68.3858
70.1731
71.7134
73.074
74.2848
75.4048
76.4631
77.5038
78.5596
79.6389
80.7546
81.9128
83.1175
84.3768
85.6471
86.8944
87.9772
88.9516
89.79
90.58
91.006
27.4514
32.2002
35.1299
38.201
41.7381
45.7842
50.0959
54.3506
58.2774
61.608
64.3276
66.6404
68.5818
70.255
71.6936
72.9779
74.1397
75.2407
76.3036
77.3565
78.4323
79.5407
80.6899
81.8826
83.1175
84.3963
85.6529
86.6546
87.5643
88.3121
89.0997
89.4967
24.8169
29.4832
32.1488
34.8387
38.0459
42.0392
46.6892
51.342
55.4421
59.0556
62.1995
64.7406
66.8855
68.6834
70.2528
71.6127
72.8452
73.9776
75.0641
76.1453
77.2268
78.3269
79.4582
80.6342
81.8738
83.1433
84.3806
85.3288
86.1515
86.8522
87.5681
87.9472
20.9009
25.6231
27.8846
29.8152
32.1656
35.554
39.8753
45.2356
50.9541
55.686
59.335
62.4189
64.8881
66.9573
68.6631
70.1554
71.4649
72.6733
73.804
74.8878
75.9719
77.0721
78.2039
79.3738
80.6021
81.8827
83.1234
83.9942
84.7308
85.2926
86.0377
86.3819
15.4632
20.684
23.1475
25.0249
26.594
29.1087
35.1898
41.2338
46.1735
51.4708
56.3154
59.857
62.7523
65.0379
66.9827
68.598
70.0205
71.279
72.4501
73.5867
74.6894
75.7831
76.8893
78.0459
79.2796
80.5928
81.8513
82.6212
83.2308
83.7536
84.3861
84.7142
5.99492
10.1486
10.9188
10.8853
14.5612
14.0453
13.6784
21.3527
37.0797
45.538
51.0984
56.1602
59.7896
62.7061
64.9411
66.8209
68.3891
69.7869
71.0399
72.1851
73.2968
74.4024
75.5311
76.681
77.9325
79.2587
80.5302
81.206
81.6939
81.9921
82.7016
82.9874
7.38486
10.1856
10.5283
15.653
18.4681
18.8781
20.5068
20.6616
21.5463
34.3962
46.1314
51.8343
56.6894
60.0563
62.7781
64.8694
66.6405
68.1176
69.437
70.6772
71.8297
72.9256
73.9995
75.1522
76.4045
77.8425
79.1719
79.6904
79.9695
80.2352
80.7818
81.0509
11.4214
16.5025
17.7007
16.716
17.1837
22.0841
24.7587
22.9932
18.7259
24.4165
30.9106
44.9388
51.2013
56.2847
59.6959
62.417
64.4812
66.2367
67.7158
68.9739
70.1392
71.2696
72.4205
73.5434
74.8701
76.3324
77.7217
78.0866
78.1782
78.0751
78.7565
78.9763
19.5125
23.9065
25.7594
26.5573
25.9173
24.0344
23.2387
16.3921
11.5035
25.2374
31.3626
31.4303
45.7707
51.7892
56.5206
59.5994
62.1065
64.0003
65.5928
67.0279
68.2854
69.3919
70.4076
71.5786
72.9004
74.6411
76.1585
76.2648
75.9678
75.7946
76.2742
76.4708
21.6017
26.6191
29.3298
31.3256
32.5123
32.7278
31.6573
29.1538
24.6196
21.6984
29.1291
19.6674
29.8184
44.3972
50.6668
55.648
58.775
61.2951
63.2381
64.714
65.9676
67.1549
68.3742
69.446
70.961
72.7695
74.445
74.2733
73.6384
72.8522
73.5331
73.6794
22.3709
27.457
30.367
32.7158
34.4757
35.6357
36.1636
35.9017
34.2784
30.3497
25.653
19.3772
17.344
32.5702
45.6103
50.6403
55.0579
57.8245
59.9663
61.8006
63.2972
64.4175
65.3078
66.4996
68.025
70.5239
72.5127
71.8496
70.3873
69.3036
69.7965
69.9033
21.773
26.9928
30.061
32.6366
34.6903
36.2255
37.2625
37.8218
37.8383
36.822
33.362
27.8688
15.699
6.13204
29.2365
43.7616
48.842
53.2649
56.3089
58.2294
59.5746
60.8771
62.2534
63.2136
65.1864
67.9194
70.2961
69.0445
66.8257
64.6662
65.5001
65.5777
20.3662
25.7111
28.8664
31.5658
33.7894
35.5443
36.8638
37.8022
38.4166
38.6863
38.1932
35.5157
27.6621
15.2015
16.3482
28.4896
42.6276
46.9557
50.1923
52.9603
55.1069
56.1834
56.7227
57.6821
59.9013
64.5574
67.7199
65.4594
61.1572
57.8029
58.5626
58.5854
18.5029
23.9249
27.099
29.8382
32.1388
34.0202
35.5176
36.6975
37.65
38.4497
39.0446
38.9282
36.4105
27.9011
23.5317
24.1243
25.013
37.6991
44.1618
46.9321
47.956
49.5067
51.003
51.9658
54.6844
60.3463
64.6141
60.8442
54.2992
49.2078
50.9354
51.0407
16.359
21.7505
24.8442
27.522
29.8062
31.7372
33.3615
34.7425
35.971
37.1378
38.27
39.1874
39.1718
36.1449
28.7251
27.8714
25.4473
23.4637
29.441
35.9456
39.0224
39.9731
40.3471
35.5069
42.8974
54.8177
60.9714
55.0229
41.6745
36.8484
33.1532
33.7666
14.1958
19.4274
22.344
24.8663
27.0483
28.9511
30.6356
32.1692
33.6335
35.1138
36.6433
38.1339
39.2439
39.038
34.8454
31.5613
30.5479
13.5895
11.8617
18.0809
27.4106
30.7293
19.4315
32.7499
19.642
46.3315
56.5035
46.1342
25.9308
42.5709
19.9078
14.8124
12.2899
17.2502
19.9213
22.2235
24.2424
26.0569
27.7371
29.3505
30.966
32.6545
34.4588
36.3348
38.0782
39.201
38.5894
34.4956
27.2179
23.8463
18.8847
25.0572
34.7726
36.9576
27.1454
34.9991
28.8949
36.1388
51.3823
35.4701
25.5137
42.2998
30.4656
29.9976
10.82
15.4465
17.8579
19.9255
21.7627
23.4607
25.0925
26.7184
28.3909
30.1597
32.0693
34.1293
36.2494
38.1409
39.2319
38.732
35.9639
31.4219
22.7825
29.6777
32.5636
36.3369
19.8952
34.5497
46.8628
24.6934
45.5846
20.6573
44.568
36.8454
35.2771
34.3399
9.74414
14.1368
16.3289
18.2007
19.887
21.4815
23.0498
24.6376
26.2802
28.0114
29.871
31.8989
34.0977
36.3467
38.2985
39.4428
39.4206
37.9091
34.651
30.1093
28.7884
28.0921
34.6277
42.2598
55.3453
30.2695
39.9773
28.1515
53.3772
42.802
42.3738
42.0362
9.17771
13.3898
15.4296
17.1763
18.7726
20.3026
21.815
23.3374
24.8904
26.4992
28.2013
30.0467
32.0821
34.3058
36.5796
38.5585
39.7945
39.9774
39.2129
36.5372
37.5616
36.8458
39.9891
43.244
56.2536
46.3295
37.6701
46.2539
55.3704
44.1295
43.5399
43.9157
9.02161
13.1522
15.1264
16.8296
18.402
19.9117
21.3879
22.8425
24.2867
25.7424
27.2446
28.8411
30.5885
32.5376
34.6862
36.8942
38.8174
40.0177
40.372
39.4952
40.1154
39.643
40.4834
41.8003
53.8614
57.5337
40.0102
57.4603
54.1305
43.0512
43.0021
43.5523
9.20738
13.3313
15.3103
17.0359
18.6362
20.161
21.6233
23.0256
24.3753
25.6924
27.0077
28.3619
29.8048
31.395
33.1851
35.1708
37.2023
38.9474
40.0924
40.2687
40.705
40.2688
40.1411
39.9081
49.7419
64.2073
44.5641
63.7315