/*--------------------------------*- C++ -*----------------------------------*\
  =========                 |
  \\      /  F ield         | OpenFOAM: The Open Source CFD Toolbox
   \\    /   O peration     | Website:  https://openfoam.org
    \\  /    A nd           | Version:  6
     \\/     M anipulation  |
\*---------------------------------------------------------------------------*/
FoamFile
{
    version     2.0;
    format      ascii;
    class       volScalarField;
    location    "0.2";
    object      p;
}
// * * * * * * * * * * * * * * * * * * * * * * * * * * * * * * * * * * * * * //

dimensions      [0 2 -2 0 0 0 0];

internalField   nonuniform List<scalar> 
380496
(
0.00815953
0.00856582
0.00830281
0.00825403
0.00821269
0.00814961
0.00808182
0.00800953
0.00793369
0.00786171
0.00779125
0.00770594
0.00761572
0.00753892
0.007468
0.00739464
0.00732029
0.00724642
0.00717272
0.00709876
0.00702412
0.00694838
0.00687109
0.00679176
0.00670996
0.00662501
0.00653688
0.00644381
0.00634549
0.0062436
0.00613847
0.00602518
0.00590645
0.00577649
0.00564759
0.00811291
0.00853071
0.00828907
0.00824761
0.00820993
0.00814824
0.00807993
0.0080062
0.00792907
0.00785359
0.00777769
0.00769055
0.0076
0.00751965
0.00744367
0.00736603
0.00728775
0.00720967
0.00713148
0.00705281
0.00697333
0.00689264
0.00681038
0.00672609
0.00663943
0.00654981
0.00645735
0.00636026
0.00625886
0.00615431
0.00604935
0.00593468
0.00582894
0.00569447
0.00563393
0.00810824
0.00848891
0.00827373
0.00824299
0.0082108
0.00815137
0.00808259
0.00800735
0.00792781
0.0078502
0.0077725
0.00768218
0.00758837
0.00750521
0.00742589
0.00734424
0.00726154
0.00717879
0.00709567
0.00701183
0.00692691
0.00684055
0.00675239
0.00666203
0.00656919
0.00647331
0.00637459
0.00627118
0.00616351
0.0060528
0.0059414
0.00581929
0.00570071
0.00555251
0.00544207
0.00805366
0.00846877
0.00826806
0.00823982
0.00821033
0.00815154
0.00808131
0.00800364
0.00792057
0.00783982
0.00776019
0.00766658
0.00756911
0.00748407
0.0074021
0.0073163
0.00722899
0.00714168
0.00705407
0.00696572
0.00687628
0.0067854
0.00669278
0.00659805
0.00650099
0.00640113
0.00629874
0.00619206
0.00608153
0.00596846
0.00585471
0.00573103
0.00560806
0.00546207
0.00533335
0.00796458
0.00839646
0.00824071
0.00823619
0.00821642
0.008159
0.0080874
0.00800834
0.00792491
0.00784255
0.00775867
0.00766159
0.00755944
0.00746656
0.00737837
0.00728979
0.00720074
0.00711107
0.00702033
0.00692833
0.0068349
0.00673983
0.0066429
0.00654382
0.00644246
0.00633843
0.00623208
0.0061218
0.00600834
0.00589323
0.00578026
0.00565849
0.0055519
0.00541296
0.00536345
0.00798204
0.00841179
0.00826269
0.00824563
0.00822411
0.00816551
0.00809068
0.00800736
0.00791738
0.00782869
0.00774165
0.00764424
0.00754596
0.00745809
0.00736958
0.00727549
0.00717959
0.00708375
0.00698768
0.0068909
0.00679302
0.0066937
0.00659272
0.00648976
0.00638475
0.00627731
0.00616784
0.00605465
0.00593843
0.00582011
0.00570253
0.00557279
0.00544817
0.00528557
0.00516523
0.00780837
0.00827808
0.00821942
0.00824158
0.00823434
0.00817594
0.00809887
0.00801449
0.0079254
0.00783892
0.00775081
0.00764483
0.00753186
0.00743131
0.00733735
0.00724321
0.00714839
0.00705254
0.00695519
0.00685626
0.00675573
0.00665352
0.00654953
0.00644359
0.0063357
0.00622559
0.00611374
0.00599864
0.00588139
0.00576321
0.00564933
0.00552622
0.00542418
0.00528554
0.00524898
0.00784124
0.00834206
0.00827128
0.0082639
0.00825121
0.0081884
0.00810604
0.00801607
0.00791902
0.00782243
0.00772667
0.00762438
0.00752543
0.00743492
0.00734016
0.00723876
0.00713582
0.00703316
0.00693038
0.00682693
0.00672243
0.0066166
0.00650927
0.00640023
0.00628949
0.00617678
0.00606261
0.00594542
0.00582602
0.00570546
0.00558669
0.00545659
0.00533269
0.00517054
0.00505201
0.00760361
0.00820095
0.00823145
0.00826723
0.00826886
0.00820217
0.00811588
0.00802461
0.0079282
0.00783599
0.00774282
0.0076299
0.00751054
0.0074056
0.00730753
0.00720878
0.00710877
0.00700732
0.0069042
0.00679949
0.00669325
0.00658547
0.00647612
0.0063651
0.0062525
0.00613814
0.00602257
0.00590438
0.00578466
0.0056647
0.00554944
0.00542524
0.00532235
0.0051828
0.00515036
0.00760146
0.00829408
0.00829304
0.00829553
0.00829158
0.00821725
0.00812487
0.00802818
0.00792475
0.00782153
0.00771792
0.00761078
0.00751016
0.00741602
0.00731557
0.00720891
0.00710144
0.00699443
0.00688723
0.00677929
0.00667031
0.00656008
0.0064485
0.00633547
0.00622106
0.00610512
0.0059882
0.0058689
0.00574817
0.00562726
0.00550962
0.00538182
0.00526408
0.00510723
0.00500207
0.00731481
0.00819636
0.00827042
0.00830816
0.00831441
0.00823154
0.00813424
0.00803622
0.00793256
0.00783517
0.00773721
0.0076182
0.00749525
0.00738823
0.00728758
0.00718556
0.0070817
0.00697608
0.00686878
0.00675998
0.00664981
0.00653826
0.00642535
0.00631104
0.00619546
0.00607851
0.00596077
0.00584091
0.00572006
0.00559953
0.00548407
0.00535976
0.00525709
0.00511647
0.00508561
0.00724983
0.00833658
0.00834036
0.00834316
0.00834289
0.00824816
0.00814413
0.00804087
0.00793121
0.00782201
0.0077115
0.0076004
0.00749941
0.00740269
0.00729783
0.00718742
0.00707678
0.00696666
0.00685629
0.00674516
0.00663302
0.00651974
0.00640527
0.00628957
0.00617278
0.00605479
0.0059362
0.0058157
0.00569431
0.00557341
0.00545659
0.00533051
0.00521633
0.00506397
0.00496615
0.00688109
0.00831318
0.00833478
0.00836427
0.00836946
0.00826183
0.00815258
0.00804817
0.0079376
0.00783548
0.00773253
0.00760819
0.00748426
0.00737655
0.00727393
0.00716939
0.00706253
0.00695369
0.00684326
0.00673151
0.00661852
0.00650432
0.00638895
0.00627241
0.00615486
0.00603622
0.00591712
0.0057963
0.00567485
0.00555421
0.00543879
0.00531489
0.00521194
0.00507159
0.00503851
0.00671837
0.00852845
0.00841089
0.00840577
0.00840152
0.00827797
0.00816209
0.00805297
0.0079375
0.00782385
0.00770814
0.00759297
0.00749141
0.00739233
0.00728441
0.00717188
0.00705934
0.0069471
0.00683449
0.00672111
0.00660676
0.00649137
0.00637496
0.00625748
0.00613913
0.00601984
0.00590019
0.005779
0.00565724
0.00553651
0.00542022
0.00529558
0.00518361
0.00503557
0.00494254
0.00625553
0.00862477
0.00842145
0.00843246
0.00842827
0.00828932
0.00816891
0.00805895
0.00794231
0.00783518
0.00772634
0.00759909
0.00747856
0.00737118
0.00726623
0.00715921
0.00704981
0.0069385
0.0068258
0.00671197
0.00659704
0.00648105
0.00636405
0.00624604
0.00612722
0.00600753
0.00588756
0.00576617
0.00564433
0.00552376
0.0054083
0.00528507
0.0051807
0.00504129
0.00499983
0.00594662
0.00893539
0.0085017
0.00847922
0.00845997
0.00830297
0.00817707
0.0080635
0.00794325
0.00782837
0.00770944
0.00758756
0.00748372
0.00738267
0.00727373
0.00716097
0.00704765
0.00693409
0.00681999
0.00670511
0.00658931
0.00647255
0.00635488
0.0062363
0.00611698
0.00599691
0.0058766
0.00575501
0.00563294
0.00551231
0.00539637
0.00527302
0.0051629
0.00501879
0.00493083
0.00541441
0.00918639
0.00852105
0.00850712
0.00848316
0.00831096
0.00818181
0.00806732
0.0079462
0.00783151
0.00771425
0.00759094
0.00748101
0.00737376
0.00726456
0.00715429
0.00704246
0.0069292
0.00681491
0.00669968
0.00658351
0.00646638
0.00634836
0.00622947
0.00610989
0.00598961
0.00586914
0.00574743
0.0056252
0.00550469
0.00538909
0.0052668
0.00515963
0.00502165
0.00495817
0.00491313
0.00962466
0.0086096
0.00855216
0.00850817
0.00832065
0.00818822
0.00807209
0.00794868
0.00783674
0.00771381
0.00758042
0.00747554
0.0073747
0.0072663
0.00715414
0.00704052
0.00692615
0.00681114
0.00669534
0.00657868
0.00646112
0.00634272
0.00622351
0.00610365
0.0059832
0.00586248
0.00574058
0.00561793
0.00549711
0.00538194
0.00526029
0.00515511
0.00501363
0.00496883
0.00438522
0.00997329
0.00863517
0.00858292
0.0085255
0.00832541
0.00819108
0.00807331
0.0079507
0.00782943
0.00769913
0.0075807
0.00748671
0.00738161
0.00726764
0.00715345
0.00703927
0.0069246
0.00680933
0.0066933
0.00657642
0.00645868
0.00634014
0.00622081
0.0061009
0.00598039
0.00585982
0.00573822
0.00561515
0.00549406
0.00537834
0.00525741
0.00514851
0.00501413
0.00492642
0.00373218
0.0104135
0.00865792
0.00859362
0.00853368
0.00832818
0.00819315
0.00807585
0.00795226
0.0078383
0.00770895
0.00757506
0.00747671
0.00737473
0.00726448
0.00715163
0.00703746
0.00692259
0.00680714
0.00669095
0.00657392
0.00645604
0.00633734
0.00621788
0.00609787
0.00597719
0.0058566
0.00573481
0.00561047
0.00548865
0.00537384
0.00525556
0.00514647
0.00501829
0.00491678
0.00341766
0.0108564
0.0087379
0.0086195
0.00854187
0.00833054
0.00819493
0.00807684
0.00795721
0.00784194
0.00769658
0.00756335
0.0074824
0.00738369
0.00726947
0.00715358
0.00703829
0.00692313
0.00680759
0.00669134
0.00657427
0.00645638
0.00633769
0.00621827
0.00609832
0.00597788
0.00585756
0.00573772
0.00561204
0.0054862
0.00537133
0.00525466
0.00515057
0.00502819
0.0049682
0.00815827
0.00856417
0.00830283
0.00825406
0.00821268
0.00814959
0.00808181
0.00800952
0.0079337
0.00786171
0.00779113
0.00770584
0.00761579
0.00753901
0.00746804
0.00739466
0.00732031
0.00724644
0.00717274
0.00709878
0.00702414
0.0069484
0.00687112
0.00679179
0.00670999
0.00662506
0.00653691
0.00644386
0.0063456
0.0062437
0.00613853
0.00602524
0.00590651
0.0057766
0.00564769
0.00811159
0.00852914
0.0082891
0.00824763
0.00820991
0.00814822
0.00807991
0.00800618
0.00792905
0.00785354
0.00777759
0.00769052
0.00760007
0.00751974
0.00744372
0.00736606
0.00728778
0.0072097
0.0071315
0.00705283
0.00697335
0.00689267
0.00681041
0.00672612
0.00663946
0.00654985
0.00645737
0.0063603
0.00625896
0.0061544
0.0060494
0.00593474
0.00582896
0.00569464
0.00563394
0.00810654
0.00848725
0.00827375
0.00824302
0.00821079
0.00815135
0.00808258
0.00800735
0.00792781
0.00785017
0.00777241
0.00768217
0.00758843
0.00750527
0.00742591
0.00734425
0.00726155
0.0071788
0.00709569
0.00701185
0.00692693
0.00684057
0.00675241
0.00666206
0.00656922
0.00647334
0.0063746
0.00627122
0.00616361
0.00605287
0.00594142
0.00581932
0.00570072
0.00555259
0.00544203
0.00805218
0.00846721
0.00826811
0.00823986
0.00821032
0.00815153
0.0080813
0.00800363
0.00792057
0.00783976
0.00776003
0.00766654
0.00756924
0.00748417
0.00740215
0.00731633
0.00722902
0.0071417
0.00705409
0.00696575
0.00687631
0.00678543
0.00669281
0.00659808
0.00650103
0.00640118
0.00629877
0.00619212
0.00608164
0.00596854
0.00585476
0.00573107
0.0056081
0.00546213
0.00533344
0.00796302
0.00839498
0.00824074
0.00823622
0.0082164
0.00815898
0.00808739
0.00800832
0.00792489
0.00784247
0.00775858
0.0076616
0.00755953
0.00746664
0.00737843
0.00728982
0.00720077
0.00711109
0.00702036
0.00692835
0.00683493
0.00673986
0.00664293
0.00654385
0.0064425
0.00633848
0.00623211
0.00612185
0.00600845
0.0058933
0.0057803
0.00565851
0.00555192
0.00541299
0.00536359
0.00798028
0.00841027
0.00826273
0.00824567
0.00822411
0.0081655
0.00809067
0.00800734
0.00791739
0.0078286
0.0077415
0.00764426
0.00754609
0.00745817
0.00736962
0.00727551
0.00717961
0.00708377
0.0069877
0.00689092
0.00679304
0.00669373
0.00659274
0.00648979
0.00638478
0.00627735
0.00616785
0.00605469
0.00593853
0.00582017
0.00570254
0.0055728
0.00544817
0.00528561
0.00516512
0.00780666
0.00827665
0.00821947
0.00824161
0.00823432
0.00817593
0.00809886
0.00801447
0.00792539
0.00783882
0.00775067
0.00764485
0.007532
0.00743141
0.0073374
0.00724324
0.00714841
0.00705256
0.00695521
0.00685628
0.00675576
0.00665355
0.00654956
0.00644362
0.00633574
0.00622563
0.00611376
0.00599869
0.00588149
0.00576328
0.00564935
0.00552623
0.00542418
0.00528563
0.00524899
0.00783929
0.00834063
0.00827134
0.00826394
0.00825121
0.00818839
0.00810603
0.00801606
0.00791902
0.00782234
0.00772654
0.00762442
0.00752555
0.00743498
0.00734018
0.00723878
0.00713584
0.00703318
0.0069304
0.00682695
0.00672246
0.00661663
0.00650929
0.00640026
0.00628951
0.00617682
0.00606262
0.00594546
0.00582612
0.00570551
0.00558669
0.00545658
0.00533269
0.00517055
0.00505194
0.00760178
0.0081996
0.00823151
0.00826726
0.00826885
0.00820216
0.00811587
0.00802459
0.0079282
0.00783587
0.00774266
0.00762996
0.0075107
0.00740569
0.00730757
0.00720881
0.0071088
0.00700735
0.00690423
0.00679951
0.00669328
0.00658549
0.00647614
0.00636513
0.00625253
0.00613817
0.00602259
0.00590442
0.00578476
0.00566476
0.00554944
0.00542524
0.00532235
0.00518287
0.00515045
0.00759939
0.00829276
0.00829311
0.00829557
0.00829158
0.00821724
0.00812486
0.00802818
0.00792476
0.00782144
0.00771783
0.00761084
0.00751025
0.00741606
0.00731559
0.00720893
0.00710146
0.00699445
0.00688725
0.00677931
0.00667033
0.0065601
0.00644853
0.00633549
0.00622108
0.00610515
0.00598821
0.00586894
0.00574827
0.0056273
0.00550961
0.00538181
0.00526407
0.00510723
0.00500196
0.00731294
0.00819511
0.00827049
0.00830819
0.0083144
0.00823153
0.00813423
0.0080362
0.00793256
0.00783503
0.00773705
0.00761829
0.00749541
0.00738831
0.00728761
0.00718558
0.00708172
0.0069761
0.00686879
0.00676
0.00664983
0.00653828
0.00642538
0.00631106
0.00619549
0.00607854
0.00596078
0.00584096
0.00572016
0.00559957
0.00548407
0.00535975
0.00525708
0.00511652
0.00508569
0.00724773
0.00833539
0.00834046
0.00834319
0.00834289
0.00824816
0.00814413
0.00804087
0.00793121
0.00782194
0.00771142
0.00760046
0.00749948
0.00740272
0.00729785
0.00718743
0.0070768
0.00696668
0.00685631
0.00674518
0.00663304
0.00651975
0.00640529
0.00628959
0.0061728
0.00605482
0.0059362
0.00581575
0.0056944
0.00557345
0.00545658
0.00533049
0.00521631
0.00506397
0.00496604
0.00687926
0.00831207
0.00833486
0.00836429
0.00836945
0.00826182
0.00815257
0.00804816
0.00793761
0.00783534
0.00773238
0.00760828
0.0074844
0.00737662
0.00727395
0.0071694
0.00706254
0.00695371
0.00684328
0.00673152
0.00661854
0.00650434
0.00638898
0.00627243
0.00615488
0.00603625
0.00591713
0.00579635
0.00567494
0.00555425
0.00543878
0.00531487
0.00521193
0.00507163
0.00503859
0.00671636
0.00852742
0.00841099
0.00840579
0.00840152
0.00827796
0.00816208
0.00805296
0.0079375
0.00782377
0.00770808
0.00759303
0.00749147
0.00739236
0.00728442
0.00717189
0.00705935
0.00694711
0.0068345
0.00672112
0.00660678
0.00649139
0.00637497
0.0062575
0.00613915
0.00601986
0.00590019
0.00577905
0.00565732
0.00553654
0.0054202
0.00529555
0.00518358
0.00503556
0.00494243
0.00625384
0.00862389
0.00842154
0.00843246
0.00842827
0.00828931
0.0081689
0.00805894
0.00794231
0.00783505
0.00772621
0.00759918
0.00747868
0.00737124
0.00726625
0.00715923
0.00704983
0.00693852
0.00682582
0.00671198
0.00659706
0.00648107
0.00636407
0.00624606
0.00612724
0.00600756
0.00588757
0.00576622
0.00564441
0.00552378
0.00540828
0.00528505
0.00518068
0.00504132
0.0049999
0.00594489
0.00893458
0.0085018
0.00847923
0.00845998
0.00830296
0.00817706
0.00806349
0.00794325
0.00782828
0.00770937
0.00758764
0.00748379
0.00738269
0.00727374
0.00716099
0.00704766
0.0069341
0.00682
0.00670512
0.00658932
0.00647257
0.0063549
0.00623632
0.006117
0.00599693
0.00587661
0.00575505
0.00563302
0.00551233
0.00539635
0.005273
0.00516287
0.00501878
0.00493073
0.00541297
0.00918584
0.00852111
0.00850709
0.00848317
0.00831096
0.0081818
0.00806731
0.00794619
0.0078314
0.00771414
0.00759101
0.00748112
0.00737382
0.00726459
0.0071543
0.00704247
0.00692921
0.00681493
0.0066997
0.00658352
0.0064664
0.00634838
0.00622949
0.00610991
0.00598963
0.00586915
0.00574748
0.00562528
0.00550471
0.00538908
0.00526678
0.00515961
0.00502165
0.00495819
0.00491186
0.0096242
0.00860972
0.00855213
0.00850819
0.00832064
0.00818821
0.00807208
0.00794868
0.00783666
0.00771373
0.00758049
0.00747561
0.00737473
0.00726632
0.00715415
0.00704053
0.00692616
0.00681115
0.00669535
0.00657869
0.00646113
0.00634273
0.00622353
0.00610366
0.00598321
0.00586248
0.00574062
0.00561799
0.00549712
0.00538192
0.00526027
0.00515509
0.00501365
0.00496888
0.00438396
0.00997307
0.00863526
0.00858291
0.00852554
0.0083254
0.00819107
0.00807331
0.0079507
0.00782939
0.00769911
0.00758074
0.00748674
0.00738161
0.00726765
0.00715345
0.00703928
0.00692461
0.00680934
0.0066933
0.00657643
0.00645869
0.00634015
0.00622082
0.00610091
0.0059804
0.00585982
0.00573825
0.00561519
0.00549406
0.00537833
0.0052574
0.00514849
0.00501411
0.00492633
0.00373045
0.0104141
0.00865779
0.00859357
0.00853372
0.00832817
0.00819315
0.00807585
0.00795227
0.00783823
0.00770888
0.00757511
0.00747678
0.00737477
0.00726449
0.00715164
0.00703747
0.0069226
0.00680715
0.00669096
0.00657393
0.00645605
0.00633736
0.00621789
0.00609789
0.00597721
0.00585661
0.00573485
0.00561052
0.00548865
0.00537382
0.00525555
0.00514646
0.00501827
0.00491669
0.00342122
0.0108582
0.00873765
0.00861944
0.00854192
0.00833055
0.00819493
0.00807685
0.00795722
0.0078419
0.00769655
0.00756338
0.00748243
0.00738371
0.00726948
0.00715358
0.00703829
0.00692313
0.00680759
0.00669134
0.00657427
0.00645637
0.00633768
0.00621827
0.00609832
0.00597787
0.00585756
0.00573771
0.00561202
0.00548619
0.00537134
0.00525467
0.00515059
0.00502823
0.00496833
0.00815994
0.00856119
0.00830292
0.00825417
0.00821268
0.00814957
0.00808178
0.00800947
0.00793366
0.00786131
0.00779062
0.00770599
0.00761626
0.00753932
0.00746816
0.00739472
0.00732036
0.00724648
0.00717278
0.00709881
0.00702418
0.00694844
0.00687115
0.00679183
0.00671003
0.00662511
0.00653692
0.00644393
0.00634576
0.00624377
0.0061385
0.00602516
0.00590644
0.00577651
0.00564756
0.00811333
0.0085263
0.0082892
0.00824774
0.00820991
0.00814819
0.00807988
0.00800613
0.00792899
0.00785327
0.00777728
0.0076906
0.00760037
0.00751996
0.00744384
0.00736613
0.00728783
0.00720974
0.00713155
0.00705287
0.00697339
0.00689271
0.00681045
0.00672616
0.0066395
0.00654991
0.00645739
0.00636039
0.00625915
0.00615449
0.00604938
0.00593469
0.0058289
0.00569471
0.00563404
0.008108
0.00848435
0.00827382
0.00824313
0.00821079
0.00815133
0.00808256
0.00800731
0.00792778
0.00784992
0.00777211
0.00768227
0.00758873
0.00750545
0.00742599
0.00734429
0.00726159
0.00717884
0.00709572
0.00701188
0.00692696
0.0068406
0.00675245
0.00666209
0.00656925
0.00647339
0.0063746
0.00627129
0.00616378
0.00605294
0.00594139
0.00581925
0.00570065
0.00555252
0.00544183
0.00805377
0.00846442
0.00826821
0.00823997
0.00821032
0.0081515
0.00808127
0.00800358
0.00792055
0.00783936
0.00775954
0.00766671
0.00756969
0.00748445
0.00740226
0.00731638
0.00722906
0.00714174
0.00705413
0.00696578
0.00687634
0.00678547
0.00669285
0.00659812
0.00650106
0.00640123
0.00629878
0.00619219
0.00608182
0.00596862
0.00585473
0.005731
0.00560805
0.00546203
0.00533334
0.00796467
0.00839235
0.00824083
0.00823631
0.0082164
0.00815896
0.00808736
0.00800828
0.00792483
0.00784226
0.00775835
0.00766166
0.00755975
0.00746682
0.00737853
0.00728988
0.00720081
0.00711114
0.0070204
0.00692839
0.00683497
0.0067399
0.00664296
0.00654389
0.00644254
0.00633852
0.00623211
0.00612192
0.00600862
0.00589338
0.00578027
0.00565844
0.00555189
0.00541295
0.00536386
0.00798171
0.00840761
0.00826282
0.00824577
0.00822411
0.00816548
0.00809064
0.00800731
0.00791738
0.00782826
0.00774109
0.00764443
0.00754648
0.00745839
0.0073697
0.00727555
0.00717965
0.0070838
0.00698774
0.00689095
0.00679307
0.00669376
0.00659277
0.00648983
0.00638481
0.00627739
0.00616786
0.00605477
0.0059387
0.00582024
0.00570251
0.00557273
0.00544809
0.00528556
0.00516483
0.00780813
0.0082741
0.00821956
0.00824169
0.00823432
0.00817591
0.00809883
0.00801443
0.00792536
0.00783852
0.00775032
0.00764499
0.00753233
0.00743161
0.00733749
0.00724329
0.00714845
0.0070526
0.00695524
0.00685631
0.00675579
0.00665358
0.00654959
0.00644366
0.00633577
0.00622568
0.00611377
0.00599876
0.00588167
0.00576335
0.00564932
0.00552618
0.00542411
0.00528571
0.00524912
0.00784051
0.0083381
0.00827144
0.00826404
0.00825121
0.00818838
0.00810601
0.00801603
0.00791902
0.00782206
0.00772623
0.00762457
0.00752584
0.00743514
0.00734024
0.00723882
0.00713587
0.00703321
0.00693043
0.00682698
0.00672249
0.00661666
0.00650933
0.00640029
0.00628955
0.00617686
0.00606263
0.00594554
0.00582629
0.00570558
0.00558665
0.00545652
0.00533261
0.00517047
0.00505171
0.00760308
0.00819717
0.0082316
0.00826733
0.00826884
0.00820214
0.00811584
0.00802456
0.00792819
0.00783555
0.00774229
0.00763013
0.00751104
0.00740587
0.00730764
0.00720884
0.00710883
0.00700738
0.00690426
0.00679955
0.00669331
0.00658553
0.00647618
0.00636516
0.00625256
0.00613822
0.00602259
0.0059045
0.00578493
0.00566482
0.00554941
0.00542518
0.0053223
0.00518292
0.00515072
0.0076004
0.0082904
0.00829323
0.00829566
0.00829158
0.00821723
0.00812484
0.00802815
0.00792475
0.00782123
0.00771759
0.00761096
0.00751047
0.00741617
0.00731563
0.00720896
0.00710149
0.00699448
0.00688728
0.00677934
0.00667036
0.00656013
0.00644856
0.00633552
0.00622111
0.00610519
0.00598821
0.00586902
0.00574843
0.00562736
0.00550958
0.00538175
0.00526399
0.00510717
0.0050017
0.00731406
0.00819282
0.00827059
0.00830824
0.00831439
0.00823151
0.00813421
0.00803617
0.00793258
0.00783472
0.00773669
0.00761848
0.00749573
0.00738847
0.00728766
0.00718561
0.00708175
0.00697613
0.00686882
0.00676003
0.00664986
0.00653831
0.00642541
0.0063111
0.00619552
0.00607859
0.00596078
0.00584104
0.00572032
0.00559964
0.00548404
0.0053597
0.00525703
0.00511658
0.00508595
0.0072485
0.00833321
0.0083406
0.00834326
0.00834289
0.00824815
0.00814411
0.00804085
0.00793121
0.00782177
0.00771125
0.00760057
0.00749964
0.0074028
0.00729788
0.00718746
0.00707683
0.00696671
0.00685634
0.00674521
0.00663307
0.00651978
0.00640532
0.00628963
0.00617283
0.00605486
0.00593621
0.00581582
0.00569456
0.00557351
0.00545654
0.00533043
0.00521625
0.00506391
0.00496579
0.0068802
0.00831001
0.00833499
0.00836431
0.00836945
0.0082618
0.00815255
0.00804813
0.00793762
0.00783505
0.00773207
0.00760847
0.00748468
0.00737675
0.007274
0.00716943
0.00706257
0.00695374
0.00684331
0.00673155
0.00661857
0.00650437
0.00638901
0.00627246
0.00615491
0.0060363
0.00591713
0.00579642
0.0056751
0.00555431
0.00543874
0.00531482
0.00521187
0.00507169
0.00503885
0.00671693
0.00852549
0.00841115
0.00840582
0.00840153
0.00827795
0.00816206
0.00805294
0.0079375
0.00782361
0.00770792
0.00759314
0.00749162
0.00739242
0.00728444
0.00717191
0.00705938
0.00694714
0.00683453
0.00672115
0.00660681
0.00649142
0.006375
0.00625753
0.00613918
0.0060199
0.0059002
0.00577912
0.00565748
0.00553659
0.00542017
0.00529549
0.00518352
0.00503551
0.00494219
0.00625462
0.0086222
0.00842168
0.00843243
0.00842828
0.00828929
0.00816887
0.00805891
0.00794232
0.00783481
0.00772594
0.00759933
0.00747893
0.00737135
0.00726629
0.00715925
0.00704985
0.00693854
0.00682585
0.00671201
0.00659709
0.0064811
0.0063641
0.00624609
0.00612727
0.0060076
0.00588758
0.00576629
0.00564457
0.00552384
0.00540825
0.00528499
0.00518062
0.00504136
0.00500014
0.00594532
0.00893303
0.00850197
0.00847922
0.00846001
0.00830295
0.00817704
0.00806348
0.00794326
0.0078281
0.0077092
0.00758777
0.00748394
0.00738275
0.00727376
0.00716101
0.00704769
0.00693412
0.00682003
0.00670514
0.00658935
0.0064726
0.00635493
0.00623634
0.00611703
0.00599697
0.00587661
0.00575512
0.00563317
0.00551237
0.00539631
0.00527294
0.00516282
0.00501873
0.00493049
0.00541365
0.00918481
0.00852122
0.008507
0.0084832
0.00831094
0.00818178
0.00806729
0.0079462
0.00783119
0.00771391
0.00759113
0.00748134
0.00737393
0.00726463
0.00715433
0.0070425
0.00692924
0.00681495
0.00669972
0.00658355
0.00646642
0.00634841
0.00622952
0.00610994
0.00598967
0.00586915
0.00574755
0.00562542
0.00550476
0.00538904
0.00526673
0.00515957
0.00502165
0.00495831
0.00491225
0.00962324
0.00860994
0.00855204
0.00850823
0.00832062
0.00818819
0.00807207
0.0079487
0.00783648
0.00771356
0.00758062
0.00747576
0.0073748
0.00726634
0.00715417
0.00704055
0.00692618
0.00681117
0.00669538
0.00657871
0.00646115
0.00634276
0.00622355
0.00610369
0.00598325
0.00586248
0.00574069
0.00561812
0.00549716
0.00538188
0.00526022
0.00515503
0.00501371
0.00496907
0.00438389
0.00997267
0.00863542
0.00858285
0.0085256
0.00832539
0.00819106
0.00807331
0.0079507
0.00782933
0.00769904
0.00758077
0.00748682
0.00738166
0.00726766
0.00715347
0.00703929
0.00692462
0.00680935
0.00669332
0.00657644
0.00645871
0.00634017
0.00622084
0.00610093
0.00598042
0.00585982
0.00573831
0.0056153
0.00549407
0.00537829
0.00525736
0.00514847
0.00501408
0.00492614
0.00372959
0.010415
0.00865747
0.00859342
0.00853381
0.00832816
0.00819314
0.00807584
0.00795227
0.00783808
0.00770874
0.00757521
0.00747692
0.00737484
0.00726452
0.00715165
0.00703749
0.00692261
0.00680717
0.00669097
0.00657394
0.00645606
0.00633737
0.00621791
0.00609791
0.00597723
0.00585661
0.00573491
0.00561063
0.00548867
0.00537378
0.00525551
0.00514642
0.00501818
0.00491628
0.00342084
0.0108623
0.00873758
0.0086193
0.00854202
0.00833054
0.00819493
0.00807685
0.00795725
0.00784178
0.00769648
0.00756349
0.00748247
0.00738373
0.00726949
0.00715358
0.00703829
0.00692313
0.00680759
0.00669134
0.00657427
0.00645637
0.00633768
0.00621827
0.00609831
0.00597787
0.00585755
0.00573768
0.00561202
0.00548622
0.00537133
0.00525467
0.0051506
0.00502829
0.00496868
0.0081631
0.00855713
0.008303
0.0082543
0.0082127
0.00814956
0.00808177
0.00800946
0.00793369
0.00786113
0.00779031
0.00770602
0.00761651
0.00753949
0.00746823
0.00739475
0.00732038
0.0072465
0.0071728
0.00709883
0.00702419
0.00694845
0.00687117
0.00679184
0.00671004
0.00662513
0.0065369
0.00644395
0.00634586
0.00624382
0.00613848
0.00602512
0.0059064
0.00577647
0.00564743
0.00811648
0.0085224
0.0082893
0.00824786
0.00820992
0.00814818
0.00807986
0.00800611
0.00792897
0.00785313
0.00777708
0.00769061
0.00760053
0.00752008
0.0074439
0.00736617
0.00728786
0.00720977
0.00713157
0.0070529
0.00697341
0.00689273
0.00681047
0.00672618
0.00663952
0.00654994
0.00645738
0.00636042
0.00625926
0.00615455
0.00604938
0.00593468
0.00582888
0.00569489
0.00563445
0.00811092
0.00848035
0.00827386
0.00824325
0.00821081
0.00815133
0.00808255
0.00800731
0.00792779
0.00784981
0.00777194
0.0076823
0.00758887
0.00750555
0.00742602
0.00734431
0.0072616
0.00717885
0.00709574
0.0070119
0.00692698
0.00684062
0.00675247
0.00666211
0.00656927
0.00647342
0.00637459
0.00627132
0.00616388
0.00605299
0.00594137
0.00581921
0.0057006
0.0055525
0.00544161
0.00805678
0.00846058
0.0082683
0.00824009
0.00821033
0.00815149
0.00808126
0.00800357
0.00792058
0.00783919
0.00775924
0.00766674
0.00756993
0.0074846
0.00740231
0.00731641
0.00722908
0.00714176
0.00705415
0.0069658
0.00687636
0.00678549
0.00669287
0.00659814
0.00650108
0.00640126
0.00629877
0.00619222
0.00608192
0.00596867
0.00585472
0.00573096
0.00560803
0.00546198
0.00533324
0.00796767
0.0083887
0.00824091
0.00823642
0.0082164
0.00815895
0.00808734
0.00800827
0.00792481
0.00784214
0.0077582
0.00766168
0.00755988
0.00746692
0.00737859
0.00728992
0.00720084
0.00711116
0.00702041
0.00692841
0.00683498
0.00673991
0.00664298
0.00654391
0.00644255
0.00633855
0.0062321
0.00612195
0.00600873
0.00589343
0.00578026
0.0056584
0.0055519
0.00541299
0.00536439
0.0079845
0.00840393
0.0082629
0.00824589
0.00822412
0.00816547
0.00809063
0.0080073
0.00791741
0.00782812
0.00774084
0.00764446
0.00754667
0.00745851
0.00736973
0.00727557
0.00717967
0.00708382
0.00698775
0.00689097
0.00679308
0.00669377
0.00659279
0.00648984
0.00638482
0.00627741
0.00616784
0.00605479
0.0059388
0.00582029
0.00570249
0.0055727
0.00544804
0.00528556
0.00516453
0.00781094
0.00827052
0.00821964
0.00824179
0.00823432
0.00817589
0.00809882
0.00801442
0.00792537
0.00783838
0.0077501
0.00764502
0.0075325
0.00743173
0.00733753
0.00724331
0.00714847
0.00705261
0.00695526
0.00685633
0.0067558
0.0066536
0.00654961
0.00644368
0.00633579
0.0062257
0.00611376
0.00599879
0.00588177
0.0057634
0.0056493
0.00552616
0.00542407
0.00528587
0.00524953
0.00784306
0.00833458
0.00827155
0.00826416
0.00825122
0.00818837
0.008106
0.00801602
0.00791904
0.00782196
0.00772605
0.00762461
0.00752598
0.00743521
0.00734026
0.00723883
0.00713588
0.00703323
0.00693044
0.00682699
0.0067225
0.00661667
0.00650934
0.0064003
0.00628956
0.00617688
0.00606261
0.00594556
0.00582638
0.00570562
0.00558663
0.00545649
0.00533257
0.00517044
0.00505149
0.00760568
0.00819373
0.0082317
0.00826742
0.00826884
0.00820213
0.00811583
0.00802455
0.00792822
0.00783542
0.00774207
0.00763018
0.00751122
0.00740597
0.00730767
0.00720886
0.00710884
0.00700739
0.00690427
0.00679956
0.00669332
0.00658554
0.00647619
0.00636518
0.00625258
0.00613824
0.00602258
0.00590452
0.00578503
0.00566487
0.00554939
0.00542516
0.00532227
0.00518304
0.00515129
0.00760267
0.00828705
0.00829338
0.00829577
0.00829159
0.00821723
0.00812483
0.00802815
0.00792478
0.00782116
0.00771747
0.007611
0.00751056
0.00741621
0.00731564
0.00720897
0.0071015
0.00699449
0.00688729
0.00677935
0.00667037
0.00656014
0.00644857
0.00633553
0.00622112
0.00610521
0.0059882
0.00586904
0.00574852
0.00562741
0.00550956
0.00538172
0.00526395
0.00510715
0.00500143
0.00731643
0.00818954
0.00827073
0.00830831
0.00831439
0.00823151
0.00813419
0.00803616
0.00793261
0.0078346
0.00773648
0.00761853
0.0074959
0.00738855
0.00728768
0.00718561
0.00708176
0.00697614
0.00686883
0.00676004
0.00664987
0.00653833
0.00642542
0.00631111
0.00619553
0.0060786
0.00596077
0.00584106
0.00572041
0.00559968
0.00548402
0.00535967
0.005257
0.00511671
0.00508652
0.00725049
0.00833006
0.0083408
0.00834334
0.00834291
0.00824815
0.0081441
0.00804084
0.00793123
0.00782172
0.00771117
0.0076006
0.0074997
0.00740281
0.00729788
0.00718746
0.00707684
0.00696672
0.00685635
0.00674522
0.00663308
0.00651979
0.00640533
0.00628964
0.00617284
0.00605487
0.00593619
0.00581584
0.00569464
0.00557354
0.00545652
0.0053304
0.00521621
0.00506389
0.00496553
0.00688232
0.00830701
0.0083352
0.00836434
0.00836945
0.0082618
0.00815253
0.00804812
0.00793766
0.00783494
0.00773188
0.00760853
0.00748483
0.00737682
0.00727401
0.00716944
0.00706258
0.00695375
0.00684332
0.00673156
0.00661858
0.00650438
0.00638902
0.00627247
0.00615492
0.00603631
0.00591712
0.00579645
0.00567519
0.00555435
0.00543872
0.00531479
0.00521184
0.00507181
0.0050394
0.00671863
0.00852267
0.00841143
0.00840586
0.00840157
0.00827796
0.00816206
0.00805294
0.00793752
0.00782356
0.00770785
0.00759318
0.00749167
0.00739243
0.00728444
0.00717192
0.00705939
0.00694715
0.00683454
0.00672116
0.00660681
0.00649143
0.00637501
0.00625754
0.00613919
0.00601991
0.00590018
0.00577914
0.00565756
0.00553663
0.00542015