/*--------------------------------*- C++ -*----------------------------------*\
  =========                 |
  \\      /  F ield         | OpenFOAM: The Open Source CFD Toolbox
   \\    /   O peration     | Website:  https://openfoam.org
    \\  /    A nd           | Version:  6
     \\/     M anipulation  |
\*---------------------------------------------------------------------------*/
FoamFile
{
    version     2.0;
    format      ascii;
    class       volVectorField;
    location    "0.2";
    object      wallShearStress;
}
// * * * * * * * * * * * * * * * * * * * * * * * * * * * * * * * * * * * * * //

dimensions      [0 2 -2 0 0 0 0];

internalField   uniform (0 0 0);

boundaryField
{
    inlet
    {
        type            calculated;
        value           uniform (0 0 0);
    }
    outlet
    {
        type            calculated;
        value           uniform (0 0 0);
    }
    roughCylinder
    {
        type            calculated;
        value           nonuniform List<vector> 
3840
(
(-0.000409745 -0.000645461 -0.000347222)
(-0.000336871 -0.000573908 -1.69373e-05)
(-0.000416741 -0.000652852 9.24904e-05)
(-0.000479017 -0.000661104 0.00015137)
(-0.000524893 -0.000638829 0.000177513)
(-0.000554159 -0.000606601 0.000184697)
(-0.000575596 -0.0005872 0.000187959)
(-0.0005885 -0.00057269 0.000188362)
(-0.000595913 -0.000564042 0.000186449)
(-0.000598669 -0.000558435 0.000182156)
(-0.000600091 -0.000556388 0.000176421)
(-0.00060184 -0.000557387 0.000169612)
(-0.000603909 -0.000560307 0.000161763)
(-0.000605401 -0.000563538 0.000152717)
(-0.000607636 -0.000567634 0.000142873)
(-0.000611399 -0.000573275 0.000132463)
(-0.000611098 -0.000575468 0.000120538)
(-0.000610988 -0.000577607 0.000108108)
(-0.000612257 -0.000580712 9.53919e-05)
(-0.000609521 -0.000580162 8.16445e-05)
(-0.000606343 -0.000578824 6.72701e-05)
(-0.00060341 -0.000577201 5.15931e-05)
(-0.0005998 -0.000574432 3.39534e-05)
(-0.000598275 -0.000573079 1.23906e-05)
(-0.000447906 -0.000631541 -0.00034179)
(-0.000369698 -0.000577507 -2.92119e-05)
(-0.000458186 -0.000669398 8.63082e-05)
(-0.000521397 -0.00067637 0.000147773)
(-0.00057068 -0.000657431 0.000175245)
(-0.000602595 -0.00062858 0.000184572)
(-0.000625153 -0.000607995 0.00018927)
(-0.000638272 -0.000592144 0.000189937)
(-0.000646338 -0.00058309 0.00018813)
(-0.000649709 -0.000577506 0.000183868)
(-0.000651146 -0.000575238 0.000177959)
(-0.000652792 -0.00057596 0.000170933)
(-0.000655309 -0.000579089 0.00016301)
(-0.000657674 -0.000582962 0.000154002)
(-0.000660275 -0.00058733 0.000144112)
(-0.00066453 -0.000593287 0.000133699)
(-0.000665172 -0.000596391 0.000121928)
(-0.000665831 -0.000599328 0.000109599)
(-0.000667488 -0.00060283 9.68961e-05)
(-0.000665673 -0.000603326 8.32354e-05)
(-0.000663096 -0.000602694 6.88159e-05)
(-0.000660118 -0.000601204 5.29194e-05)
(-0.000656686 -0.000598781 3.49277e-05)
(-0.000654485 -0.000596888 1.2753e-05)
(-0.000493097 -0.000615479 -0.000330061)
(-0.000405726 -0.000577611 -4.28816e-05)
(-0.000501812 -0.000680419 7.84222e-05)
(-0.000566528 -0.000688015 0.000143057)
(-0.000620106 -0.00067375 0.000172885)
(-0.000654571 -0.000647985 0.000184651)
(-0.000678252 -0.000626439 0.000190682)
(-0.000691396 -0.000609193 0.000191465)
(-0.000700035 -0.000599685 0.000189596)
(-0.000704176 -0.000594227 0.000185339)
(-0.0007059 -0.000591958 0.000179303)
(-0.000707434 -0.00059242 0.000172072)
(-0.000710512 -0.000595764 0.0001641)
(-0.000713639 -0.000600067 0.000155098)
(-0.000716821 -0.000604781 0.000145207)
(-0.000721605 -0.00061099 0.000134798)
(-0.000723357 -0.00061501 0.000123197)
(-0.000725044 -0.000618862 0.000111005)
(-0.000726921 -0.000622593 9.8307e-05)
(-0.000725916 -0.000623934 8.4724e-05)
(-0.000723723 -0.000623795 7.02608e-05)
(-0.000720983 -0.000622697 5.42008e-05)
(-0.000716974 -0.000619953 3.58395e-05)
(-0.000714737 -0.00061814 1.31072e-05)
(-0.00054774 -0.000602148 -0.000316047)
(-0.000442668 -0.000573516 -5.76263e-05)
(-0.000546001 -0.000686166 6.88457e-05)
(-0.000613061 -0.000696581 0.000137205)
(-0.000671492 -0.000687903 0.000170208)
(-0.000708604 -0.000664955 0.000184685)
(-0.000733468 -0.000642698 0.000192081)
(-0.000746567 -0.000623988 0.00019294)
(-0.00075571 -0.000613969 0.000190867)
(-0.000760713 -0.00060869 0.000186576)
(-0.000763059 -0.00060667 0.000180473)
(-0.000764595 -0.000607001 0.000173079)
(-0.000768449 -0.000610662 0.000165104)
(-0.000772261 -0.000615255 0.000156094)
(-0.000776163 -0.00062034 0.000146232)
(-0.000781486 -0.000626726 0.000135832)
(-0.000784377 -0.000631543 0.000124391)
(-0.000787256 -0.000636287 0.000112343)
(-0.000789331 -0.000640217 9.96612e-05)
(-0.00078929 -0.000642421 8.6172e-05)
(-0.000787269 -0.000642589 7.16602e-05)
(-0.000783822 -0.000641081 5.53865e-05)
(-0.000779267 -0.000638093 3.66974e-05)
(-0.000776251 -0.000635753 1.34303e-05)
(-0.00058315 -0.00056154 -0.000285334)
(-0.000480516 -0.000565293 -7.32678e-05)
(-0.000590203 -0.000686474 5.77127e-05)
(-0.00066052 -0.000701742 0.000130256)
(-0.000724228 -0.00069915 0.000167058)
(-0.000764141 -0.000678813 0.000184449)
(-0.000790344 -0.000656083 0.000193307)
(-0.000803289 -0.000635771 0.000194239)
(-0.000812868 -0.000625197 0.000191873)
(-0.000818725 -0.000620058 0.000187511)
(-0.000821937 -0.000618431 0.000181387)
(-0.000823829 -0.000618909 0.000173917)
(-0.00082829 -0.000622743 0.000165917)
(-0.000832991 -0.000627703 0.000156964)
(-0.000837685 -0.000633124 0.000147157)
(-0.000843622 -0.000639672 0.000136792)
(-0.000847658 -0.000645153 0.000125503)
(-0.000851839 -0.000650725 0.000113609)
(-0.000854119 -0.000654814 0.000100956)
(-0.000854856 -0.000657618 8.75407e-05)
(-0.000852323 -0.000657554 7.29426e-05)
(-0.000848532 -0.00065597 5.65176e-05)
(-0.000842986 -0.000652432 3.75061e-05)
(-0.000839183 -0.000649628 1.37376e-05)
(-0.000664135 -0.000556084 -0.000271343)
(-0.000518426 -0.000552851 -8.94221e-05)
(-0.000634159 -0.000681571 4.50569e-05)
(-0.00070866 -0.000703613 0.00012222)
(-0.000778021 -0.000707277 0.000163333)
(-0.00082104 -0.000689421 0.000183811)
(-0.000848811 -0.0006665 0.000194265)
(-0.000861596 -0.000644386 0.000195305)
(-0.000871526 -0.00063318 0.000192572)
(-0.000878195 -0.000628097 0.000188107)
(-0.000882404 -0.000626892 0.000181983)
(-0.000885031 -0.00062775 0.000174523)
(-0.000890047 -0.000631714 0.000166512)
(-0.000895607 -0.000636963 0.000157638)
(-0.000901334 -0.000642811 0.000147954)
(-0.000907938 -0.00064949 0.000137658)
(-0.000913196 -0.000655563 0.000126537)
(-0.000918641 -0.000661775 0.000114791)
(-0.00092109 -0.000665948 0.000102178)
(-0.000922225 -0.000668981 8.88069e-05)
(-0.000919368 -0.000668844 7.41669e-05)
(-0.000914451 -0.000666622 5.75605e-05)
(-0.000907303 -0.000662163 3.82381e-05)
(-0.000902644 -0.0006589 1.40177e-05)
(-0.000684672 -0.000494914 -0.000228998)
(-0.000557026 -0.000536605 -0.000106094)
(-0.000677406 -0.000671845 3.08442e-05)
(-0.000757051 -0.000702172 0.000113081)
(-0.000832403 -0.000712125 0.000158883)
(-0.000878994 -0.000696784 0.000182666)
(-0.000908545 -0.000673906 0.000194834)
(-0.000921354 -0.000649877 0.000196039)
(-0.000931594 -0.000637967 0.000192931)
(-0.000939035 -0.000632836 0.000188333)
(-0.000944317 -0.000632023 0.000182224)
(-0.000948005 -0.00063341 0.000174843)
(-0.000953632 -0.000637538 0.000166859)
(-0.000960148 -0.000643096 0.000158111)
(-0.000966825 -0.000649233 0.000148568)
(-0.000974288 -0.000656115 0.000138404)
(-0.000980728 -0.000662631 0.000127459)
(-0.00098733 -0.000669276 0.000115861)
(-0.000989926 -0.000673472 0.000103308)
(-0.000991222 -0.000676516 8.99788e-05)
(-0.000987626 -0.000676018 7.52892e-05)
(-0.000981241 -0.000672991 5.85138e-05)
(-0.000972639 -0.000667825 3.89251e-05)
(-0.000966333 -0.000663623 1.42716e-05)
(-0.000734877 -0.000454138 -0.000194779)
(-0.000596163 -0.000516092 -0.000123435)
(-0.000719395 -0.000657411 1.53422e-05)
(-0.000805113 -0.000697065 0.000102824)
(-0.000886764 -0.00071333 0.000153549)
(-0.000937501 -0.000700718 0.000180883)
(-0.000969036 -0.000677991 0.000194843)
(-0.00098224 -0.00065218 0.000196328)
(-0.000992774 -0.000639484 0.000192907)
(-0.00100098 -0.000634211 0.000188156)
(-0.00100738 -0.000633726 0.000182068)
(-0.00101235 -0.000635691 0.000174816)
(-0.00101875 -0.000640053 0.000166918)
(-0.00102617 -0.000645845 0.000158319)
(-0.001034 -0.00065235 0.000148986)
(-0.00104239 -0.000659421 0.000138999)
(-0.00105001 -0.000666294 0.000128256)
(-0.00105756 -0.000673127 0.000116808)
(-0.00106032 -0.000677329 0.000104347)
(-0.00106139 -0.000680114 9.10509e-05)
(-0.00105687 -0.000679157 7.63257e-05)
(-0.00104888 -0.000675343 5.94056e-05)
(-0.00103762 -0.000668791 3.95329e-05)
(-0.00103015 -0.000664078 1.45058e-05)
(-0.000781865 -0.000407101 -0.000156914)
(-0.000634933 -0.000491295 -0.000141141)
(-0.0007597 -0.000638194 -1.21757e-06)
(-0.000852226 -0.000687893 9.14315e-05)
(-0.000940439 -0.000710469 0.000147183)
(-0.000995895 -0.000700869 0.000178292)
(-0.00102978 -0.000678441 0.00019413)
(-0.0010439 -0.000651181 0.000196084)
(-0.00105469 -0.000637564 0.000192456)
(-0.00106365 -0.000632044 0.000187536)
(-0.00107118 -0.000631811 0.000181474)
(-0.00107759 -0.00063434 0.000174387)
(-0.00108502 -0.000639034 0.000166646)
(-0.00109349 -0.000645114 0.000158253)
(-0.00110239 -0.000651876 0.000149156)
(-0.0011118 -0.000659151 0.000139402)
(-0.00112044 -0.000666202 0.000128878)
(-0.00112867 -0.000673015 0.000117592)
(-0.00113155 -0.000677168 0.000105256)
(-0.00113212 -0.000679545 9.20064e-05)
(-0.00112641 -0.000678022 7.72621e-05)
(-0.00111601 -0.000673031 6.0188e-05)
(-0.00110222 -0.000665378 4.00844e-05)
(-0.00109242 -0.000659537 1.47054e-05)
(-0.000807432 -0.000347361 -0.000114525)
(-0.000672879 -0.000462395 -0.000158805)
(-0.00079797 -0.000614209 -1.86558e-05)
(-0.000897747 -0.00067428 7.89291e-05)
(-0.000992696 -0.000703117 0.000139672)
(-0.00105346 -0.000696866 0.000174718)
(-0.00109017 -0.000674972 0.000192525)
(-0.00110581 -0.000646738 0.000195199)
(-0.0011169 -0.000632055 0.000191526)
(-0.00112662 -0.000626177 0.000186429)
(-0.0011353 -0.000626107 0.000180402)
(-0.00114319 -0.000629119 0.000173503)
(-0.00115181 -0.000634162 0.000165974)
(-0.00116138 -0.000640507 0.000157834)
(-0.00117157 -0.000647597 0.000149044)
(-0.001182 -0.000655021 0.000139567)
(-0.00119159 -0.000662168 0.000129297)
(-0.00120025 -0.000668799 0.000118197)
(-0.00120313 -0.000672819 0.000106019)
(-0.00120273 -0.000674581 9.28222e-05)
(-0.00119562 -0.00067244 7.80839e-05)
(-0.0011824 -0.000666235 6.08795e-05)
(-0.00116536 -0.000657251 4.05603e-05)
(-0.00115362 -0.000650677 1.48853e-05)
(-0.000820575 -0.000284064 -7.19199e-05)
(-0.000709593 -0.000429077 -0.000176109)
(-0.000833903 -0.000585718 -3.67073e-05)
(-0.000941057 -0.000655938 6.5423e-05)
(-0.00104276 -0.000690909 0.000130954)
(-0.00110932 -0.000688307 0.000169972)
(-0.00114951 -0.000667322 0.000189847)
(-0.00116745 -0.000638646 0.000193566)
(-0.00117888 -0.000622873 0.000190062)
(-0.00118936 -0.000616476 0.000184786)
(-0.00119919 -0.000616471 0.000178811)
(-0.0012086 -0.000619854 0.000172119)
(-0.00121861 -0.00062526 0.000164863)
(-0.00122948 -0.000631902 0.00015704)
(-0.00124088 -0.000639219 0.00014859)
(-0.00125229 -0.00064672 0.000139433)
(-0.00126255 -0.000653792 0.000129438)
(-0.00127127 -0.000660062 0.000118549)
(-0.0012741 -0.000663932 0.000106577)
(-0.00127267 -0.000665134 9.34829e-05)
(-0.00126353 -0.000662148 7.87565e-05)
(-0.00124731 -0.000654844 6.14652e-05)
(-0.0012266 -0.000644556 4.09645e-05)
(-0.00121224 -0.000637028 1.50327e-05)
(-0.000916439 -0.00024507 -3.47314e-05)
(-0.000744992 -0.000392088 -0.000192975)
(-0.000867098 -0.000552893 -5.49433e-05)
(-0.000981394 -0.000632633 5.10461e-05)
(-0.00108975 -0.00067356 0.000120999)
(-0.00116257 -0.000674895 0.00016387)
(-0.00120709 -0.000655455 0.000185895)
(-0.00122846 -0.000627215 0.000191161)
(-0.00123988 -0.000609854 0.000188007)
(-0.00125128 -0.000602912 0.000182533)
(-0.0012623 -0.000602843 0.000176656)
(-0.00127321 -0.000606444 0.000170194)
(-0.00128468 -0.000612135 0.000163256)
(-0.00129693 -0.000619019 0.000155798)
(-0.00130957 -0.000626507 0.000147736)
(-0.00132189 -0.000634008 0.000138942)
(-0.00133278 -0.000640969 0.000129275)
(-0.00134152 -0.000646904 0.000118655)
(-0.00134399 -0.000650469 0.000106914)
(-0.0013411 -0.00065101 9.39478e-05)
(-0.00132972 -0.000647238 7.92768e-05)
(-0.00130996 -0.000638792 6.19266e-05)
(-0.0012851 -0.000627232 4.12822e-05)
(-0.00126816 -0.000618961 1.51517e-05)
(-0.000936498 -0.000181572 6.97364e-06)
(-0.00077935 -0.000351787 -0.000209149)
(-0.000897126 -0.000516005 -7.32145e-05)
(-0.00101808 -0.00060436 3.59438e-05)
(-0.00113276 -0.000650914 0.00010979)
(-0.00121223 -0.000656507 0.000156278)
(-0.001262 -0.000639451 0.000180595)
(-0.00128762 -0.000612638 0.000187821)
(-0.00129928 -0.000592849 0.000185215)
(-0.00131161 -0.000585476 0.000179599)
(-0.00132391 -0.000585205 0.000173863)
(-0.00133636 -0.000588892 0.000167681)
(-0.00134937 -0.00059476 0.00016111)
(-0.00136308 -0.000601813 0.000154071)
(-0.0013769 -0.000609346 0.000146435)
(-0.00139002 -0.00061675 0.000138045)
(-0.00140129 -0.000623467 0.000128739)
(-0.00140965 -0.000628925 0.000118417)
(-0.00141187 -0.000632277 0.000106978)
(-0.00140733 -0.000632187 9.4189e-05)
(-0.0013934 -0.000627653 7.96143e-05)
(-0.00136988 -0.000618234 6.22565e-05)
(-0.00134105 -0.000605775 4.15299e-05)
(-0.00132096 -0.000596688 1.52411e-05)
(-0.000954664 -0.000120019 4.62605e-05)
(-0.000808611 -0.000306362 -0.000223745)
(-0.000923477 -0.000475509 -9.11813e-05)
(-0.00105041 -0.000571154 2.02848e-05)
(-0.00117107 -0.000622983 9.73521e-05)
(-0.00125736 -0.000633101 0.000147126)
(-0.00131301 -0.000619108 0.000173924)
(-0.00134327 -0.000594258 0.00018313)
(-0.00135689 -0.000572139 0.000181496)
(-0.00136968 -0.000563983 0.000176005)
(-0.00138329 -0.000563444 0.000170357)
(-0.00139729 -0.000567156 0.000164508)
(-0.0014119 -0.000573121 0.000158363)
(-0.00142705 -0.000580229 0.000151793)
(-0.00144197 -0.00058769 0.000144627)
(-0.00145587 -0.000594938 0.000136692)
(-0.00146756 -0.000601427 0.000127813)
(-0.00147582 -0.00060657 0.000117875)
(-0.00147713 -0.000609451 0.000106743)
(-0.00147095 -0.000608857 9.41954e-05)
(-0.00145422 -0.000603644 7.97642e-05)
(-0.00142677 -0.000593428 6.24513e-05)
(-0.00139349 -0.000580138 4.16843e-05)
(-0.00137073 -0.000570639 1.5304e-05)
(-0.000967758 -6.05229e-05 8.20779e-05)
(-0.000840736 -0.000258591 -0.000236656)
(-0.000945951 -0.000431688 -0.000109166)
(-0.00107788 -0.00053317 4.22645e-06)
(-0.00120381 -0.000589741 8.37687e-05)
(-0.0012969 -0.000604546 0.00013639)
(-0.00135884 -0.000594208 0.000165695)
(-0.00139443 -0.000571958 0.000176746)
(-0.00141244 -0.000549178 0.000176745)
(-0.00142541 -0.000538605 0.000171814)
(-0.00143995 -0.000537449 0.000166182)
(-0.00145536 -0.000541044 0.00016064)
(-0.00147151 -0.000547048 0.000154949)
(-0.00148799 -0.000554121 0.000148886)
(-0.00150396 -0.000561474 0.000142243)
(-0.00151854 -0.000568518 0.000134817)
(-0.00153047 -0.000574717 0.000126414)
(-0.00153821 -0.000579438 0.000116894)
(-0.00153915 -0.000582122 0.000106174)
(-0.00153088 -0.00058099 9.39059e-05)
(-0.00151138 -0.000575299 7.96887e-05)
(-0.00148009 -0.000564582 6.24913e-05)
(-0.00144242 -0.000550765 4.17474e-05)
(-0.00141668 -0.000540897 1.53324e-05)
(-0.000967881 -1.65394e-06 0.00011479)
(-0.000867698 -0.000206965 -0.000245621)
(-0.000964165 -0.000384549 -0.000126691)
(-0.00110001 -0.000490631 -1.2008e-05)
(-0.00123052 -0.000551431 6.92239e-05)
(-0.00132994 -0.000570846 0.000124149)
(-0.0013982 -0.000564628 0.000155823)
(-0.0014396 -0.000545701 0.000168679)
(-0.00146343 -0.000524621 0.000170505)
(-0.00147886 -0.000511189 0.000166757)
(-0.00149403 -0.000508054 0.000161451)
(-0.0015105 -0.000510806 0.000156165)
(-0.00152788 -0.000516471 0.000150893)
(-0.00154543 -0.000523334 0.000145333)
(-0.00156226 -0.000530487 0.000139236)
(-0.00157747 -0.000537338 0.000132368)
(-0.00158971 -0.000543348 0.00012451)
(-0.00159726 -0.00054786 0.000115497)
(-0.00159696 -0.000550155 0.000105196)
(-0.00158729 -0.000548927 9.33243e-05)
(-0.00156463 -0.000542849 7.9368e-05)
(-0.00152961 -0.000531954 6.23617e-05)
(-0.00148747 -0.00051788 4.17054e-05)
(-0.00145892 -0.000507895 1.53261e-05)
(-0.00098192 5.66912e-05 0.000149014)
(-0.000899657 -0.00015426 -0.000253887)
(-0.000978232 -0.000334529 -0.000143327)
(-0.0011165 -0.000443951 -2.81642e-05)
(-0.00125047 -0.000508232 5.39577e-05)
(-0.00135567 -0.000532045 0.000110556)
(-0.00143002 -0.000530296 0.000144323)
(-0.00147724 -0.000515251 0.000159118)
(-0.00150695 -0.000497275 0.000162515)
(-0.00152781 -0.000483874 0.000160295)
(-0.00154517 -0.00047803 0.000155989)
(-0.00156295 -0.000478604 0.000151178)
(-0.00158135 -0.000482813 0.000146345)
(-0.00159961 -0.000488722 0.000141262)
(-0.00161704 -0.000495188 0.000135692)
(-0.0016326 -0.000501566 0.00012938)
(-0.00164482 -0.000507183 0.000122075)
(-0.00165179 -0.0005114 0.000113593)
(-0.00165084 -0.000513622 0.000103813)
(-0.00163892 -0.000512186 9.23534e-05)
(-0.00161361 -0.000506211 7.87657e-05)
(-0.00157465 -0.000495401 6.20195e-05)
(-0.00152893 -0.000481722 4.15554e-05)
(-0.00149733 -0.000471779 1.52805e-05)
(-0.000964128 0.000112898 0.000178662)
(-0.000923473 -9.84349e-05 -0.000258696)
(-0.000987989 -0.000282028 -0.000158779)
(-0.00112703 -0.000393694 -4.40395e-05)
(-0.0012634 -0.000460588 3.82374e-05)
(-0.00137328 -0.000488258 9.57737e-05)
(-0.00145325 -0.000491052 0.000131267)
(-0.0015061 -0.000480269 0.000147989)
(-0.00154158 -0.000466096 0.000153113)
(-0.00156766 -0.000454742 0.00015223)
(-0.00158978 -0.000448657 0.000149159)
(-0.00161073 -0.000447613 0.000145363)
(-0.00163113 -0.000449754 0.000141274)
(-0.0016505 -0.000453648 0.000136788)
(-0.00166869 -0.000458419 0.000131787)
(-0.00168457 -0.000463436 0.000126035)
(-0.00169675 -0.000467982 0.000119284)
(-0.00170315 -0.000471445 0.000111346)
(-0.00170088 -0.000473079 0.000102067)
(-0.00168713 -0.000471493 9.10865e-05)
(-0.00165882 -0.000465574 7.79018e-05)
(-0.0016161 -0.000455159 6.14893e-05)
(-0.00156616 -0.000441985 4.12705e-05)
(-0.0015323 -0.000432578 1.51958e-05)
(-0.000959433 0.000169576 0.000209962)
(-0.000944955 -4.17399e-05 -0.000261852)
(-0.000993124 -0.000227197 -0.00017264)
(-0.00113149 -0.000340543 -5.95418e-05)
(-0.001269 -0.00040899 2.23015e-05)
(-0.00138255 -0.000439933 8.00363e-05)
(-0.00146718 -0.00044692 0.00011682)
(-0.00152518 -0.000440466 0.00013528)
(-0.00156596 -0.00043037 0.000142185)
(-0.00159711 -0.000421898 0.000142799)
(-0.00162366 -0.000417252 0.000140946)
(-0.00164857 -0.00041633 0.000138216)
(-0.00167237 -0.00041779 0.000135111)
(-0.00169449 -0.000420491 0.000131528)
(-0.00171483 -0.000423835 0.000127353)
(-0.00173209 -0.000427115 0.000122326)
(-0.00174501 -0.000429936 0.000116229)
(-0.0017513 -0.000431718 0.00010888)
(-0.0017483 -0.000431946 0.000100147)
(-0.00173254 -0.000429237 8.96422e-05)
(-0.00170121 -0.000422704 7.68773e-05)
(-0.00165431 -0.000412134 6.08126e-05)
(-0.00160059 -0.000399458 4.08992e-05)
(-0.0015636 -0.000390352 1.50719e-05)
(-0.000890412 0.000211174 0.000225292)
(-0.000959636 1.57226e-05 -0.000262708)
(-0.000995336 -0.000171075 -0.000185025)
(-0.00112974 -0.000285201 -7.44848e-05)
(-0.00126725 -0.00035417 6.40381e-06)
(-0.00138282 -0.00038749 6.35976e-05)
(-0.00147129 -0.000398182 0.000101209)
(-0.00153374 -0.000395818 0.000121126)
(-0.00157912 -0.00038967 0.000129679)
(-0.00161484 -0.000384345 0.000131854)
(-0.00164563 -0.000381744 0.000131338)
(-0.00167429 -0.000381892 0.000129756)
(-0.0017013 -0.000383752 0.000127687)
(-0.00172641 -0.000386413 0.000125087)
(-0.00174952 -0.000389438 0.000121846)
(-0.00176948 -0.000392173 0.000117727)
(-0.00178467 -0.000394258 0.000112498)
(-0.00179271 -0.00039514 0.000105959)
(-0.00179059 -0.000394186 9.79461e-05)
(-0.00177409 -0.000389935 8.80321e-05)
(-0.00174111 -0.000381921 7.57743e-05)
(-0.00169118 -0.000370115 6.0111e-05)
(-0.00163329 -0.000356676 4.04977e-05)
(-0.00159387 -0.000347393 1.4942e-05)
(-0.000969616 0.000290013 0.000279084)
(-0.000971231 7.29534e-05 -0.000262648)
(-0.000992825 -0.000113984 -0.000195615)
(-0.00112171 -0.000228537 -8.86597e-05)
(-0.00125807 -0.000297004 -9.20265e-06)
(-0.0013744 -0.000331819 4.67803e-05)
(-0.00146516 -0.000345374 8.46882e-05)
(-0.0015312 -0.000346579 0.000105753)
(-0.00158038 -0.000343984 0.000115759)
(-0.00161996 -0.000341677 0.000119409)
(-0.00165449 -0.000341269 0.000120245)
(-0.00168661 -0.000342826 0.000119877)
(-0.0017167 -0.000345544 0.00011892)
(-0.00174477 -0.000348757 0.000117384)
(-0.00177067 -0.000352164 0.000115164)
(-0.00179331 -0.000355213 0.000112035)
(-0.00181102 -0.000357544 0.000107768)
(-0.00182133 -0.000358601 0.000102145)
(-0.00182134 -0.000357719 9.49922e-05)
(-0.00180644 -0.000353457 8.58812e-05)
(-0.00177434 -0.000345164 7.43423e-05)
(-0.0017237 -0.000332659 5.92538e-05)
(-0.00166347 -0.000317942 4.00449e-05)
(-0.00162163 -0.000307348 1.47929e-05)
(-0.000858758 0.000311674 0.00027846)
(-0.000976232 0.000129597 -0.000261002)
(-0.000987833 -5.69464e-05 -0.000204741)
(-0.00110783 -0.000171496 -0.000101959)
(-0.00124195 -0.000238704 -2.43482e-05)
(-0.00135723 -0.000273864 2.99563e-05)
(-0.00144906 -0.000289414 6.75805e-05)
(-0.00151739 -0.000293384 8.94315e-05)
(-0.0015694 -0.000293704 0.000100682)
(-0.00161197 -0.000293988 0.000105672)
(-0.00164954 -0.000295624 0.000107796)
(-0.00168463 -0.000298639 0.00010863)
(-0.00171745 -0.000302408 0.000108808)
(-0.00174832 -0.000306451 0.000108378)
(-0.00177691 -0.000310549 0.000107233)
(-0.00180227 -0.000314274 0.000105161)
(-0.00182266 -0.000317304 0.000101936)
(-0.00183553 -0.000319109 9.73249e-05)
(-0.001838 -0.00031909 9.11483e-05)
(-0.00182513 -0.000315871 8.29614e-05)
(-0.001795 -0.000308719 7.22885e-05)
(-0.00174566 -0.000297242 5.79525e-05)
(-0.00168668 -0.000283223 3.93659e-05)
(-0.00164551 -0.00027252 1.45873e-05)
(-0.000881196 0.000378974 0.000320759)
(-0.000978263 0.000185592 -0.00025994)
(-0.000979829 -8.4387e-07 -0.000212427)
(-0.00108811 -0.000114942 -0.000114161)
(-0.00121839 -0.000180274 -3.88189e-05)
(-0.0013316 -0.000214807 1.34566e-05)
(-0.00142301 -0.000231377 5.02284e-05)
(-0.00149247 -0.000237244 7.24814e-05)
(-0.00154617 -0.000239654 8.47269e-05)
(-0.00159079 -0.000241882 9.09005e-05)
(-0.00163058 -0.000245132 9.42215e-05)
(-0.00166795 -0.000249415 9.62068e-05)
(-0.001703 -0.000254214 9.74965e-05)
(-0.00173623 -0.000259167 9.81627e-05)
(-0.00176724 -0.0002641 9.80986e-05)
(-0.00179519 -0.000268685 9.71075e-05)
(-0.00181823 -0.000272626 9.49653e-05)
(-0.00183382 -0.000275465 9.14384e-05)
(-0.00183904 -0.00027665 8.6331e-05)
(-0.00182908 -0.000274999 7.92024e-05)
(-0.0018016 -0.000269683 6.95373e-05)
(-0.00175475 -0.000260307 5.61385e-05)
(-0.00169783 -0.00024831 3.8359e-05)
(-0.00165782 -0.000238716 1.42645e-05)
(-0.000836811 0.000420063 0.000339596)
(-0.000968202 0.000237394 -0.000257318)
(-0.000968254 5.36625e-05 -0.00021863)
(-0.00106349 -5.98483e-05 -0.000125192)
(-0.00118811 -0.000122978 -5.25072e-05)
(-0.00129826 -0.000156072 -2.45336e-06)
(-0.00138739 -0.0001726 3.30354e-05)
(-0.00145667 -0.00017945 5.52667e-05)
(-0.00151102 -0.000183106 6.8231e-05)
(-0.00155667 -0.00018653 7.53967e-05)
(-0.00159779 -0.000190812 7.97901e-05)
(-0.00163672 -0.000195956 8.28458e-05)
(-0.00167341 -0.000201538 8.51934e-05)
(-0.00170852 -0.000207262 8.69162e-05)
(-0.00174158 -0.000212975 8.7912e-05)
(-0.00177181 -0.000218437 8.79925e-05)
(-0.00179732 -0.000223368 8.69458e-05)
(-0.00181564 -0.000227389 8.45394e-05)
(-0.00182382 -0.000229981 8.0563e-05)
(-0.00181724 -0.000230166 7.45846e-05)
(-0.00179322 -0.0002271 6.6057e-05)
(-0.00175008 -0.000220367 5.37681e-05)
(-0.00169654 -0.000211036 3.69996e-05)
(-0.00165872 -0.000203244 1.38207e-05)
(-0.000731398 0.000424136 0.000330958)
(-0.000949133 0.000285541 -0.000254257)
(-0.000953479 0.000105874 -0.000223905)
(-0.00103429 -7.04958e-06 -0.000134879)
(-0.00115117 -6.77693e-05 -6.52593e-05)
(-0.00125723 -9.89977e-05 -1.7529e-05)
(-0.00134338 -0.000114588 1.64223e-05)
(-0.00141071 -0.00012153 3.81972e-05)
(-0.00146442 -0.000125613 5.15738e-05)
(-0.0015101 -0.000129503 5.95107e-05)
(-0.00155164 -0.000134202 6.48152e-05)
(-0.00159131 -0.000139713 6.88191e-05)
(-0.00162899 -0.000145695 7.21338e-05)
(-0.00166531 -0.00015187 7.48383e-05)
(-0.00169993 -0.000158112 7.68405e-05)
(-0.00173199 -0.000164234 7.79576e-05)
(-0.00175968 -0.000170012 7.7992e-05)
(-0.00178057 -0.000175135 7.67154e-05)
(-0.0017917 -0.000179154 7.39064e-05)
(-0.00178876 -0.000181283 6.91436e-05)
(-0.00176878 -0.000180713 6.18544e-05)
(-0.00173022 -0.000176956 5.08181e-05)
(-0.00168097 -0.000170659 3.52502e-05)
(-0.00164591 -0.000165004 1.32344e-05)
(-0.000723696 0.00048332 0.000367816)
(-0.000926784 0.000331102 -0.000253434)
(-0.000935999 0.000155034 -0.000228697)
(-0.00100211 4.26248e-05 -0.000143252)
(-0.00110876 -1.56217e-05 -7.68446e-05)
(-0.0012089 -4.476e-05 -3.15934e-05)
(-0.00129125 -5.89236e-05 6.95105e-07)
(-0.00135583 -6.51052e-05 2.1747e-05)
(-0.00140757 -6.89047e-05 3.5173e-05)
(-0.00145211 -7.26113e-05 4.36316e-05)
(-0.0014931 -7.71601e-05 4.96526e-05)
(-0.00153267 -8.25543e-05 5.44489e-05)
(-0.00157067 -8.8521e-05 5.8606e-05)
(-0.0016076 -9.47769e-05 6.21894e-05)
(-0.00164323 -0.000101197 6.51138e-05)
(-0.00167663 -0.000107645 6.72038e-05)
(-0.00170611 -0.00011396 6.82787e-05)
(-0.00172936 -0.000119913 6.81174e-05)
(-0.00174348 -0.000125147 6.64928e-05)
(-0.00174441 -0.000129068 6.29896e-05)
(-0.00172895 -0.000130949 5.70158e-05)
(-0.00169582 -0.000130284 4.7355e-05)
(-0.00165178 -0.00012725 3.31537e-05)
(-0.00162039 -0.000123984 1.25231e-05)
(-0.000633518 0.000487538 0.000365815)
(-0.000897149 0.000372907 -0.000253731)
(-0.000914229 0.00020032 -0.000233231)
(-0.000965902 8.8413e-05 -0.000150055)
(-0.00106149 3.25171e-05 -8.70001e-05)
(-0.00115436 5.63013e-06 -4.43885e-05)
(-0.00123143 -6.90769e-06 -1.39351e-05)
(-0.0012926 -1.1953e-05 6.23675e-06)
(-0.00134165 -1.48099e-05 1.949e-05)
(-0.00138402 -1.77248e-05 2.81735e-05)
(-0.00142349 -2.1661e-05 3.46653e-05)
(-0.00146205 -2.65168e-05 4.00698e-05)
(-0.00149958 -3.20671e-05 4.49133e-05)
(-0.00153631 -3.80219e-05 4.92379e-05)
(-0.00157221 -4.42466e-05 5.29656e-05)
(-0.00160632 -5.0644e-05 5.59354e-05)
(-0.00163706 -5.71156e-05 5.798e-05)
(-0.00166225 -6.35151e-05 5.88875e-05)
(-0.00167904 -6.95869e-05 5.84265e-05)
(-0.00168367 -7.49199e-05 5.619e-05)
(-0.00167297 -7.89264e-05 5.15829e-05)
(-0.00164563 -8.10801e-05 4.33909e-05)
(-0.00160743 -8.11862e-05 3.07087e-05)
(-0.00157978 -8.02784e-05 1.16791e-05)
(-0.000527305 0.000471291 0.000353398)
(-0.000853328 0.000407589 -0.000254256)
(-0.000891292 0.000241866 -0.00023882)
(-0.000928681 0.000129881 -0.000155654)
(-0.00101025 7.58927e-05 -9.54443e-05)
(-0.0010948 5.12768e-05 -5.56444e-05)
(-0.0011654 4.04416e-05 -2.71966e-05)
(-0.00122195 3.66056e-05 -8.08711e-06)
(-0.0012677 3.48718e-05 4.7892e-06)
(-0.00130744 3.3e-05 1.35063e-05)
(-0.00134459 3.00997e-05 2.02733e-05)
(-0.00138126 2.62349e-05 2.60703e-05)
(-0.00141752 2.15446e-05 3.13895e-05)
(-0.00145346 1.62379e-05 3.62807e-05)
(-0.00148898 1.05426e-05 4.06773e-05)
(-0.00152319 4.5559e-06 4.44172e-05)
(-0.00155461 -1.69114e-06 4.73393e-05)
(-0.00158128 -8.13666e-06 4.92441e-05)
(-0.0016005 -1.46232e-05 4.99045e-05)
(-0.00160881 -2.0907e-05 4.892e-05)
(-0.001603 -2.65519e-05 4.5697e-05)
(-0.00158176 -3.10364e-05 3.90337e-05)
(-0.00154989 -3.38712e-05 2.79835e-05)
(-0.00152679 -3.51013e-05 1.07328e-05)
(-0.000455319 0.000478313 0.000363498)
(-0.000800137 0.000436605 -0.000255882)
(-0.000861009 0.000277867 -0.000244689)
(-0.000888552 0.000166205 -0.000159822)
(-0.00095536 0.000113855 -0.000101821)
(-0.00103047 9.13811e-05 -6.50553e-05)
(-0.00109405 8.22311e-05 -3.88001e-05)
(-0.00114514 7.95697e-05 -2.09543e-05)
(-0.0011868 7.88777e-05 -8.67428e-06)
(-0.0012233 7.80374e-05 -1.03819e-07)
(-0.00125778 7.62195e-05 6.74014e-06)
(-0.00129209 7.34422e-05 1.27337e-05)
(-0.00132645 6.97998e-05 1.83535e-05)
(-0.00136077 6.55206e-05 2.36484e-05)
(-0.001395 6.08285e-05 2.85457e-05)
(-0.00142843 5.57353e-05 3.28927e-05)
(-0.00145986 5.01198e-05 3.65572e-05)
(-0.00148736 4.40095e-05 3.93613e-05)
(-0.00150835 3.7549e-05 4.10686e-05)
(-0.0015197 3.08121e-05 4.12803e-05)
(-0.00151837 2.41033e-05 3.94191e-05)
(-0.00150304 1.79104e-05 3.43106e-05)
(-0.00147752 1.29365e-05 2.49826e-05)
(-0.00145879 9.9787e-06 9.67698e-06)
(-0.000417662 0.000524701 0.000409705)
(-0.000745549 0.000463669 -0.000260553)
(-0.000829313 0.000310033 -0.000252726)
(-0.000849067 0.000197585 -0.000163417)
(-0.000898777 0.000146091 -0.000106001)
(-0.000962678 0.000125404 -7.23508e-05)
(-0.00101832 0.000117728 -4.84657e-05)
(-0.00106338 0.000116088 -3.2067e-05)
(-0.00110044 0.000116275 -2.06167e-05)
(-0.0011332 0.000116299 -1.24105e-05)
(-0.00116452 0.000115397 -5.69406e-06)
(-0.00119611 0.0001136 3.17926e-07)
(-0.00122821 0.000111019 6.06375e-06)
(-0.00126058 0.000107875 1.15895e-05)
(-0.00129313 0.000104335 1.68263e-05)
(-0.00132532 0.000100351 2.16435e-05)
(-0.00135608 9.57922e-05 2.59305e-05)
(-0.00138371 9.06285e-05 2.95115e-05)
(-0.00140597 8.47972e-05 3.21501e-05)
(-0.00142011 7.81184e-05 3.34803e-05)
(-0.00142302 7.09269e-05 3.29393e-05)
(-0.00141342 6.36793e-05 2.93758e-05)
(-0.00139424 5.7227e-05 2.18106e-05)
(-0.00138018 5.30266e-05 8.55403e-06)
(-0.00031882 0.000486776 0.000395848)
(-0.000678329 0.000482079 -0.000262225)
(-0.00079114 0.000336859 -0.000261682)
(-0.000808515 0.000223418 -0.000166409)
(-0.000841099 0.000172313 -0.000107767)
(-0.000892465 0.000153016 -7.72429e-05)
(-0.000939492 0.000146453 -5.59747e-05)
(-0.000977843 0.000145522 -4.11799e-05)
(-0.00100985 0.000146292 -3.07744e-05)
(-0.00103856 0.000146914 -2.31539e-05)
(-0.00106641 0.000146701 -1.67842e-05)
(-0.00109487 0.000145692 -1.09572e-05)
(-0.00112425 0.000144032 -5.27477e-06)
(-0.0011543 0.000141927 3.10069e-07)
(-0.00118477 0.000139502 5.73275e-06)
(-0.00121513 0.000136682 1.08789e-05)
(-0.00124455 0.00013335 1.56471e-05)
(-0.00127164 0.000129366 1.98681e-05)
(-0.00129437 0.000124527 2.33226e-05)
(-0.00131023 0.000118645 2.56603e-05)
(-0.0013165 0.000111804 2.63394e-05)
(-0.00131198 0.000104225 2.42696e-05)
(-0.00129864 9.69846e-05 1.84825e-05)