/*--------------------------------*- C++ -*----------------------------------*\
  =========                 |
  \\      /  F ield         | OpenFOAM: The Open Source CFD Toolbox
   \\    /   O peration     | Website:  https://openfoam.org
    \\  /    A nd           | Version:  6
     \\/     M anipulation  |
\*---------------------------------------------------------------------------*/
FoamFile
{
    version     2.0;
    format      ascii;
    class       volScalarField;
    location    "18";
    object      omega;
}
// * * * * * * * * * * * * * * * * * * * * * * * * * * * * * * * * * * * * * //

dimensions      [0 0 -1 0 0 0 0];

internalField   nonuniform List<scalar> 
380496
(
843.917
843.917
843.917
843.917
843.917
843.917
843.917
843.917
843.917
843.917
843.917
843.917
843.917
843.917
843.917
843.917
843.917
843.917
843.917
843.917
843.917
843.917
843.917
843.917
843.917
843.917
843.917
843.917
843.917
843.917
843.917
843.917
843.917
843.917
843.917
843.917
843.917
843.917
843.917
843.917
843.917
843.917
843.917
843.917
843.917
843.917
843.917
843.917
843.917
843.917
843.917
843.917
843.917
843.917
843.917
843.917
843.917
843.917
843.917
843.917
843.917
843.917
843.917
843.917
843.917
843.917
843.917
843.917
843.917
843.917
843.917
843.917
843.917
843.917
843.917
843.917
843.917
843.917
843.917
843.917
843.917
843.917
843.917
843.917
843.917
843.917
843.917
843.917
843.917
843.917
843.917
843.917
843.917
843.917
843.917
843.917
843.917
843.917
843.917
843.917
843.917
843.917
843.917
843.917
843.917
843.917
843.917
843.917
843.917
843.917
843.917
843.917
843.917
843.917
843.917
843.917
843.917
843.917
843.917
843.917
843.917
843.917
843.917
843.917
843.917
843.917
843.917
843.917
843.917
843.917
843.917
843.917
843.917
843.917
843.917
843.917
843.917
843.917
843.917
843.917
843.917
843.917
843.917
843.917
843.917
843.917
843.917
843.917
843.917
843.917
843.917
843.917
843.917
843.917
843.917
843.917
843.917
843.917
843.917
843.917
843.917
843.917
843.917
843.917
843.917
843.917
843.917
843.917
843.917
843.917
843.917
843.917
843.917
843.917
843.917
843.917
843.917
843.917
843.917
843.917
843.917
843.917
843.917
843.917
843.917
843.917
843.917
843.917
843.917
843.917
843.917
843.917
843.917
843.917
843.917
843.917
843.917
843.917
843.917
843.917
843.917
843.917
843.917
843.917
843.917
843.917
843.917
843.917
843.917
843.917
843.917
843.917
843.917
843.917
843.917
843.917
843.917
843.917
843.917
843.917
843.917
843.917
843.917
843.917
843.917
843.917
843.917
843.917
843.917
843.917
843.917
843.917
843.917
843.917
843.917
843.917
843.917
843.917
843.917
843.917
843.917
843.917
843.917
843.917
843.917
843.917
843.917
843.917
843.917
843.917
843.917
843.917
843.917
843.917
843.917
843.917
843.917
843.917
843.917
843.917
843.917
843.917
843.917
843.917
843.917
843.917
843.917
843.917
843.917
843.917
843.917
843.917
843.917
843.917
843.917
843.917
843.917
843.917
843.917
843.917
843.917
843.917
843.917
843.917
843.917
843.917
843.917
843.917
843.917
843.917
843.917
843.917
843.917
843.917
843.917
843.917
843.917
843.917
843.917
843.917
843.917
843.917
843.917
843.917
843.917
843.917
843.917
843.917
843.917
843.917
843.917
843.917
843.917
843.917
843.917
843.917
843.917
843.917
843.917
843.917
843.917
843.917
843.917
843.917
843.917
843.917
843.917
843.917
843.917
843.917
843.917
843.917
843.917
843.917
843.917
843.917
843.917
843.917
843.917
843.917
843.917
843.917
843.917
843.917
843.917
843.917
843.917
843.917
843.917
843.917
843.917
843.917
843.917
843.917
843.917
843.917
843.917
843.917
843.917
843.917
843.917
843.917
843.917
843.917
843.917
843.917
843.917
843.917
843.917
843.917
843.917
843.917
843.917
843.917
843.917
843.917
843.917
843.917
843.917
843.917
843.917
843.917
843.917
843.917
843.917
843.917
843.917
843.917
843.917
843.917
843.917
843.917
843.917
843.917
843.917
843.917
843.917
843.917
843.917
843.917
843.917
843.917
843.917
843.917
843.917
843.917
843.917
843.917
843.917
843.917
843.917
843.917
843.917
843.917
843.917
843.917
843.917
843.917
843.917
843.917
843.917
843.917
843.917
843.917
843.917
843.917
843.917
843.917
843.917
843.917
843.917
843.917
843.917
843.917
843.917
843.917
843.917
843.917
843.917
843.917
843.917
843.917
843.917
843.917
843.917
843.917
843.917
843.917
843.917
843.917
843.917
843.917
843.917
843.917
843.917
843.917
843.917
843.917
843.917
843.917
843.917
843.917
843.917
843.917
843.917
843.917
843.917
843.917
843.917
843.917
843.917
843.917
843.917
843.917
843.917
843.917
843.917
843.917
843.917
843.917
843.917
843.917
843.917
843.917
843.917
843.917
843.917
843.917
843.917
843.917
843.917
843.917
843.917
843.917
843.917
843.917
843.917
843.917
843.917
843.917
843.917
843.917
843.917
843.917
843.917
843.917
843.917
843.917
843.917
843.917
843.917
843.917
843.917
843.917
843.917
843.917
843.917
843.917
843.917
843.917
843.917
843.917
843.917
843.917
843.917
843.917
843.917
843.917
843.917
843.917
843.917
843.917
843.917
843.917
843.917
843.917
843.917
843.917
843.917
843.917
843.917
843.917
843.917
843.917
843.917
843.917
843.917
843.917
843.917
843.917
843.917
843.917
843.917
843.917
843.917
843.917
843.917
843.917
843.917
843.917
843.917
843.917
843.917
843.917
843.917
843.917
843.917
843.917
843.917
843.917
843.917
843.917
843.917
843.917
843.917
843.917
843.917
843.917
843.917
843.917
843.917
843.917
843.917
843.917
843.917
843.917
843.917
843.917
843.917
843.917
843.917
843.917
843.917
843.917
843.917
843.917
843.917
843.917
843.917
843.917
843.917
843.917
843.917
843.917
843.917
843.917
843.917
843.917
843.917
843.917
843.917
843.917
843.917
843.917
843.917
843.917
843.917
843.917
843.917
843.917
843.917
843.917
843.917
843.917
843.917
843.917
843.917
843.917
843.917
843.917
843.917
843.917
843.917
843.917
843.917
843.917
843.917
843.917
843.917
843.917
843.917
843.917
843.917
843.917
843.917
843.917
843.917
843.917
843.917
843.917
843.917
843.917
843.917
843.917
843.917
843.917
843.917
843.917
843.917
843.917
843.917
843.917
843.917
843.917
843.917
843.917
843.917
843.917
843.917
843.917
843.917
843.917
843.917
843.917
843.917
843.917
843.917
843.917
843.917
843.917
843.917
843.917
843.917
843.917
843.917
843.917
843.917
843.917
843.917
843.917
843.917
843.917
843.917
843.917
843.917
843.917
843.917
843.917
843.917
843.917
423.923
423.923
423.923
423.923
423.923
424.288
423.923
424.276
424.272
424.295
424.32
424.34
424.363
424.382
424.405
424.425
424.45
424.471
424.498
424.521
424.551
424.576
424.609
424.636
424.672
424.702
424.742
424.772
424.818
424.846
424.9
424.921
424.988
424.989
425.071
275.638
262.144
263.673
264.573
264.559
264.419
264.333
264.29
264.265
264.255
264.248
264.251
264.252
264.26
264.267
264.279
264.29
264.306
264.32
264.341
264.359
264.387
264.409
264.445
264.472
264.517
264.552
264.606
264.649
264.713
264.765
264.839
264.894
264.987
265.021
275.379
261.96
263.393
264.253
264.226
264.084
263.996
263.955
263.93
263.923
263.918
263.925
263.928
263.943
263.952
263.972
263.985
264.011
264.028
264.059
264.081
264.12
264.148
264.195
264.23
264.285
264.328
264.393
264.444
264.519
264.575
264.663
264.71
264.832
264.788
274.938
261.626
263.023
263.851
263.811
263.668
263.58
263.542
263.52
263.519
263.519
263.533
263.544
263.566
263.583
263.611
263.634
263.669
263.697
263.739
263.774
263.824
263.866
263.926
263.975
264.047
264.104
264.187
264.252
264.347
264.418
264.526
264.59
264.736
264.711
274.255
261.102
262.54
263.34
263.28
263.131
263.045
263.012
262.997
263.003
263.012
263.034
263.053
263.085
263.11
263.15
263.18
263.229
263.264
263.321
263.363
263.43
263.481
263.557
263.617
263.703
263.774
263.87
263.952
264.058
264.145
264.267
264.342
264.51
264.481
273.787
260.732
262.024
262.77
262.702
262.553
262.469
262.438
262.427
262.437
262.452
262.479
262.505
262.543
262.576
262.623
262.663
262.719
262.766
262.833
262.887
262.966
263.028
263.119
263.191
263.295
263.376
263.493
263.584
263.713
263.81
263.955
264.04
264.235
264.21
272.915
260.038
261.328
262.034
261.947
261.796
261.717
261.695
261.693
261.715
261.739
261.779
261.814
261.864
261.906
261.966
262.016
262.085
262.143
262.222
262.29
262.38
262.458
262.561
262.65
262.765
262.864
262.993
263.101
263.244
263.356
263.519
263.614
263.835
263.805
272.061
259.34
260.531
261.18
261.08
260.929
260.857
260.842
260.85
260.88
260.914
260.962
261.007
261.066
261.12
261.189
261.25
261.329
261.4
261.491
261.572
261.676
261.767
261.884
261.986
262.118
262.231
262.376
262.498
262.659
262.785
262.965
263.073
263.318
263.29
271.026
258.479
259.567
260.157
260.044
259.896
259.832
259.828
259.847
259.889
259.933
259.992
260.047
260.117
260.18
260.26
260.332
260.423
260.506
260.609
260.702
260.819
260.924
261.056
261.172
261.318
261.445
261.606
261.742
261.918
262.058
262.256
262.374
262.642
262.611
269.807
257.456
258.457
258.985
258.857
258.715
258.666
258.677
258.712
258.768
258.825
258.897
258.964
259.045
259.121
259.212
259.296
259.399
259.493
259.609
259.715
259.846
259.964
260.109
260.239
260.4
260.54
260.717
260.866
261.058
261.21
261.425
261.553
261.843
261.809
268.657
256.454
257.277
257.74
257.61
257.478
257.442
257.466
257.512
257.579
257.647
257.727
257.804
257.893
257.978
258.079
258.173
258.286
258.391
258.519
258.636
258.778
258.908
259.066
259.208
259.383
259.535
259.725
259.886
260.092
260.256
260.486
260.622
260.932
260.894
267.087
255.101
255.846
256.251
256.111
255.995
255.985
256.033
256.102
256.187
256.273
256.369
256.46
256.563
256.661
256.774
256.881
257.006
257.124
257.263
257.393
257.548
257.691
257.863
258.017
258.205
258.371
258.574
258.748
258.968
259.143
259.387
259.532
259.861
259.819
265.666
253.803
254.279
254.616
254.485
254.389
254.4
254.465
254.549
254.645
254.742
254.847
254.949
255.06
255.169
255.291
255.409
255.544
255.674
255.824
255.966
256.134
256.289
256.473
256.641
256.842
257.02
257.237
257.423
257.657
257.843
258.102
258.255
258.603
258.556
263.602
251.962
252.321
252.61
252.487
252.426
252.479
252.58
252.695
252.817
252.936
253.059
253.179
253.306
253.43
253.565
253.697
253.846
253.989
254.153
254.309
254.49
254.659
254.857
255.038
255.253
255.445
255.676
255.875
256.123
256.321
256.595
256.757
257.124
257.07
261.657
250.111
250.128
250.362
250.265
250.245
250.335
250.462
250.599
250.738
250.874
251.01
251.143
251.282
251.419
251.566
251.711
251.871
252.028
252.204
252.374
252.568
252.751
252.962
253.157
253.386
253.591
253.837
254.049
254.312
254.522
254.81
254.981
255.369
255.305
258.961
247.586
247.37
247.584
247.529
247.576
247.73
247.906
248.083
248.253
248.415
248.572
248.725
248.88
249.033
249.194
249.355
249.527
249.699
249.887
250.071
250.277
250.474
250.699
250.909
251.152
251.371
251.631
251.856
252.134
252.356
252.661
252.842
253.251
253.178
255.939
244.637
244.052
244.272
244.29
244.421
244.641
244.868
245.083
245.283
245.469
245.645
245.815
245.982
246.149
246.32
246.492
246.673
246.856
247.054
247.251
247.468
247.678
247.915
248.139
248.396
248.63
248.905
249.146
249.44
249.677
249.999
250.193
250.623
250.544
252.317
240.988
239.927
240.186
240.311
240.557
240.862
241.145
241.394
241.616
241.812
241.995
242.167
242.336
242.504
242.676
242.851
243.037
243.228
243.433
243.642
243.87
244.097
244.348
244.592
244.865
245.121
245.416
245.679
245.994
246.255
246.598
246.817
247.271
247.207
246.448
235.384
234.178
234.679
234.989
235.387
235.784
236.121
236.391
236.625
236.818
237.001
237.168
237.342
237.512
237.697
237.886
238.092
238.305
238.537
238.775
239.033
239.294
239.579
239.859
240.168
240.463
240.792
241.095
241.444
241.744
242.118
242.379
242.853
242.837
238.155
227.579
225.862
226.733
227.334
227.911
228.379
228.738
229.006
229.248
229.451
229.666
229.864
230.088
230.303
230.549
230.788
231.059
231.324
231.621
231.914
232.235
232.553
232.898
233.237
233.602
233.957
234.34
234.704
235.102
235.464
235.883
236.214
236.715
236.834
218.095
211.367
210.037
211.657
212.786
213.68
214.36
214.896
215.336
215.74
216.089
216.437
216.749
217.081
217.383
217.719
218.031
218.386
218.721
219.102
219.463
219.867
220.255
220.685
221.1
221.548
221.984
222.445
222.895
223.362
223.816
224.278
224.713
225.114
225.367
9.50424
8.83565
9.16122
9.29923
9.37672
9.4257
9.47087
9.50671
9.53637
9.57153
9.61544
9.64917
9.69244
9.72555
9.77074
9.80559
9.85435
9.89213
9.94522
9.98627
10.044
10.0882
10.1512
10.198
10.2673
10.3149
10.392
10.437
10.5252
10.5616
10.6665
10.6838
10.8148
10.7925
10.9543
133.591
127.215
127.094
127.665
127.852
127.835
127.782
127.738
127.708
127.688
127.675
127.669
127.666
127.667
127.67
127.675
127.683
127.692
127.704
127.717
127.733
127.75
127.771
127.793
127.82
127.847
127.882
127.916
127.96
128.003
128.057
128.113
128.174
128.253
128.316
133.311
126.951
126.79
127.334
127.509
127.487
127.432
127.389
127.358
127.339
127.328
127.324
127.323
127.327
127.333
127.343
127.354
127.368
127.384
127.402
127.423
127.445
127.472
127.499
127.533
127.566
127.608
127.648
127.7
127.746
127.81
127.863
127.934
128.01
128.051
132.938
126.596
126.417
126.944
127.109
127.085
127.028
126.985
126.956
126.941
126.933
126.933
126.936
126.945
126.957
126.972
126.989
127.009
127.031
127.056
127.085
127.115
127.15
127.186
127.229
127.271
127.323
127.372
127.434
127.491
127.565
127.631
127.71
127.805
127.849
132.435
126.122
125.96
126.48
126.635
126.605
126.547
126.505
126.479
126.468
126.465
126.47
126.48
126.494
126.511
126.533
126.556
126.583
126.612
126.644
126.679
126.717
126.76
126.804
126.854
126.905
126.964
127.022
127.092
127.157
127.238
127.311
127.396
127.495
127.547
132.014
125.739
125.522
126
126.14
126.104
126.044
126.002
125.977
125.967
125.967
125.975
125.987
126.006
126.027
126.053
126.081
126.113
126.147
126.185
126.227
126.271
126.321
126.372
126.43
126.488
126.555
126.621
126.699
126.771
126.86
126.943
127.033
127.145
127.196
131.387
125.155
124.944
125.405
125.53
125.487
125.426
125.387
125.366
125.362
125.367
125.382
125.4
125.426
125.453
125.486
125.52
125.559
125.6
125.645
125.694
125.746
125.802
125.861
125.926
125.992
126.067
126.14
126.225
126.306
126.401
126.49
126.586
126.704
126.761
130.745
124.568
124.324
124.747
124.852
124.801
124.739
124.701
124.684
124.685
124.695
124.715
124.739
124.77
124.802
124.841
124.881
124.926
124.973
125.025
125.08
125.139
125.202
125.268
125.341
125.414
125.496
125.577
125.669
125.757
125.859
125.957
126.056
126.185
126.241
129.997
123.88
123.603
123.985
124.068
124.01
123.947
123.913
123.9
123.907
123.923
123.949
123.979
124.015
124.054
124.099
124.145
124.196
124.249
124.308
124.369
124.435
124.505
124.578
124.657
124.738
124.827
124.915
125.014
125.109
125.217
125.321
125.425
125.562
125.617
129.152
123.104
122.799
123.139
123.199
123.132
123.07
123.041
123.036
123.051
123.075
123.108
123.145
123.189
123.234
123.285
123.338
123.395
123.455
123.52
123.588
123.661
123.738
123.818
123.904
123.992
124.088
124.183
124.288
124.39
124.503
124.615
124.722
124.868
124.923
128.333
122.355
121.978
122.26
122.296
122.222
122.163
122.139
122.141
122.161
122.191
122.23
122.273
122.322
122.373
122.429
122.487
122.55
122.616
122.686
122.76
122.839
122.921
123.008
123.1
123.194
123.296
123.397
123.508
123.616
123.735
123.853
123.963
124.117
124.17
127.304
121.401
120.996
121.234
121.245
121.165
121.112
121.098
121.111
121.143
121.184
121.232
121.284
121.341
121.399
121.463
121.528
121.598
121.67
121.748
121.828
121.913
122.003
122.096
122.194
122.296
122.404
122.512
122.629
122.743
122.867
122.991
123.105
123.268
123.318
126.312
120.489
119.958
120.117
120.1
120.017
119.971
119.966
119.988
120.028
120.076
120.132
120.189
120.252
120.317
120.386
120.457
120.533
120.611
120.694
120.781
120.873
120.968
121.068
121.173
121.28
121.395
121.509
121.632
121.753
121.882
122.014
122.13
122.302
122.35
125.004
119.264
118.671
118.778
118.737
118.654
118.621
118.634
118.674
118.729
118.792
118.859
118.928
119.001
119.074
119.152
119.231
119.314
119.4
119.491
119.585
119.684
119.787
119.894
120.006
120.12
120.242
120.363
120.493
120.621
120.756
120.894
121.015
121.196
121.24
123.705
118.045
117.265
117.276
117.207
117.129
117.114
117.143
117.198
117.266
117.34
117.418
117.496
117.577
117.658
117.743
117.829
117.92
118.013
118.111
118.211
118.318
118.427
118.542
118.66
118.782
118.91
119.039
119.176
119.31
119.452
119.598
119.722
119.914
119.952
122.019
116.445
115.512
115.453
115.364
115.301
115.313
115.371
115.45
115.54
115.631
115.723
115.814
115.906
115.997
116.091
116.186
116.285
116.386
116.491
116.599
116.713
116.83
116.952
117.078
117.207
117.342
117.479
117.622
117.764
117.913
118.066
118.195
118.399
118.433
120.108
114.604
113.423
113.275
113.175
113.137
113.185
113.274
113.38
113.491
113.601
113.707
113.811
113.912
114.013
114.115
114.217
114.322
114.429
114.541
114.655
114.776
114.899
115.028
115.161
115.298
115.441
115.585
115.736
115.886
116.042
116.204
116.34
116.555
116.583
117.825
112.372
110.841
110.583
110.476
110.478
110.574
110.704
110.84
110.973
111.097
111.214
111.325
111.431
111.537
111.642
111.748
111.857
111.968
112.085
112.205
112.331
112.462
112.598
112.74
112.886
113.038
113.193
113.355
113.516
113.683
113.856
114.005
114.235
114.271
114.184
108.832
107.096
106.874
106.837
106.924
107.089
107.27
107.438
107.594
107.729
107.855
107.968
108.079
108.186
108.296
108.408
108.525
108.646
108.775
108.908
109.049
109.196
109.35
109.509
109.674
109.845
110.019
110.2
110.381
110.569
110.76
110.93
111.174
111.226
108.727
103.939
101.682
101.432
101.489
101.683
101.915
102.133
102.312
102.478
102.619
102.763
102.894
103.036
103.171
103.319
103.465
103.623
103.78
103.95
104.12
104.301
104.485
104.677
104.872
105.074
105.28
105.489
105.704
105.919
106.14
106.362
106.571
106.842
106.962
94.0524
94.1823
91.3701
90.7408
90.7687
91.0939
91.5102
91.9159
92.2901
92.6446
92.966
93.2732
93.5514
93.8229
94.0717
94.3211
94.5555
94.7966
95.0272
95.2644
95.4918
95.728
95.9602
96.2024
96.4427
96.6914
96.9393
97.1927
97.4474
97.7011
97.9636
98.2029
98.4867
98.6467
98.9485
11.5219
10.7696
11.096
11.221
11.3001
11.3518
11.4004
11.4367
11.4739
11.506
11.5485
11.5798
11.6229
11.6544
11.7003
11.7341
11.7842
11.8211
11.8759
11.9162
11.9758
12.0193
12.0843
12.1301
12.2014
12.2475
12.3268
12.3695
12.46
12.493
12.6004
12.6132
12.7467
12.7203
12.8839
79.3736
76.7492
76.2134
76.3798
76.5395
76.5868
76.5787
76.5549
76.5315
76.5121
76.4978
76.4871
76.4805
76.4758
76.4745
76.474
76.4765
76.4789
76.4846
76.4892
76.4982
76.5046
76.5171
76.5252
76.5418
76.552
76.573
76.5862
76.6116
76.6298
76.6587
76.6867
76.7145
76.7639
76.7816
79.1304
76.5263
75.9807
76.1315
76.2814
76.3232
76.3122
76.2864
76.2624
76.2425
76.2291
76.2189
76.2141
76.2106
76.2119
76.2126
76.2185
76.2223
76.2321
76.2383
76.2517
76.2601
76.2774
76.2879
76.3098
76.3222
76.3497
76.3636
76.3986
76.4131
76.4571
76.4728
76.5229
76.5457
76.596
78.8429
76.2491
75.6996
75.841
75.9838
76.0211
76.0075
75.9805
75.9563
75.9371
75.925
75.9165
75.9139
75.9128
75.9168
75.9207
75.9295
75.9372
75.9502
75.9607
75.9779
75.9909
76.0127
76.0278
76.0551
76.072
76.1058
76.1245
76.1658
76.1865
76.2354
76.2611
76.312
76.3541
76.3946
78.4941
75.9018
75.3598
75.5004
75.6382
75.6707
75.654
75.6257
75.6017
75.5838
75.5738
75.5678
75.5683
75.5702
75.5779
75.5849
75.5982
75.6087
75.627
75.6403
75.6632
75.6794
75.7069
75.726
75.7584
75.7806
75.8186
75.8436
75.8887
75.9152
75.9691
75.9973
76.0568
76.0932
76.1503
78.1501
75.5902
75.0361
75.1538
75.276
75.3
75.2787
75.2481
75.2232
75.2054
75.1961
75.1915
75.1935
75.1976
75.2073
75.2169
75.2326
75.2463
75.2672
75.284
75.3103
75.3298
75.3618
75.3837
75.422
75.4462
75.4914
75.5178
75.5705
75.5994
75.6592
75.6929
75.7541
75.8021
75.8547
77.7112
75.162
74.6156
74.7272
74.8399
74.8565
74.8309
74.7989
74.7745
74.7584
74.7517
74.75
74.7555
74.7629
74.7765
74.7897
74.8093
74.8269
74.8517
74.873
74.9029
74.9276
74.9628
74.9905
75.0319
75.0621
75.1107
75.1426
75.1996
75.2324
75.2983
75.3329
75.4029
75.4471
75.5127
77.2391
74.7181
74.1676
74.2598
74.3559
74.3621
74.331
74.297
74.2726
74.2579
74.2533
74.2544
74.2626
74.2732
74.2898
74.3065
74.3293
74.3505
74.3788
74.4037
74.4375
74.4658
74.5054
74.5368
74.5828
74.6168
74.67
74.706
74.7673
74.8046
74.8742
74.914
74.9865
75.0366
75.1038
76.6973
74.2067
73.6529
73.7238
73.8012
73.7957
73.7589
73.7231
73.6992
73.6865
73.6846
73.6888
73.7004
73.7145
73.7345
73.7548
73.7812
73.806
73.838
73.8668
73.9045
73.9367
73.9804
74.0158
74.0661
74.1042
74.1619
74.2018
74.2677
74.3086
74.3827
74.426
74.5022
74.5556
74.6256
76.0999
73.6405
73.0851
73.1342
73.1911
73.1723
73.1295
73.0926
73.0703
73.0607
73.0625
73.0709
73.0865
73.1047
73.1287
73.1529
73.1832
73.212
73.2479
73.2805
73.3222
73.3584
73.4062
73.4456
73.5001
73.5422
73.6042
73.648
73.7183
73.7628
73.8413
73.888
73.968
74.0247
74.098
75.4988
73.0835
72.509
72.5232
72.5547
72.5223
72.4742
72.4367
72.4161
72.4095
72.4145
72.4265
72.4455
72.4673
72.4946
72.5223
72.5559
72.5881
72.6274
72.6635
72.7087
72.7484
72.7999
72.8429
72.9013
72.9469
73.0129
73.0601
73.1345
73.1824
73.2646
73.3146
73.3977
73.4579
73.5331
74.7877
72.4069
71.8275
71.8171
71.8252
71.7785
71.7255
71.6888
71.6718
71.6702
71.6806
71.698
71.7221
71.7489
71.7809
71.8132
71.851
71.8875
71.9309
71.9712
72.0204
72.0642
72.1198
72.1668
72.2293
72.2789
72.3491
72.4001
72.4787
72.5301
72.6164
72.6699
72.7562
72.8203
72.8973
74.0535
71.7341
71.1101
71.0453
71.0185
70.9556
70.8985
70.8635
70.8504
70.8537
70.8689
70.8912
70.9198
70.9509
70.9869
71.0232
71.0648
71.1053
71.1524
71.1965
71.2496
71.2973
71.3568
71.4077
71.4744
71.5277
71.6022
71.6569
71.7399
71.7948
71.8853
71.9423
72.0318
72.1001
72.1782
73.1494
70.8786
70.2307
70.1295
70.0732
69.9955
69.936
69.9051
69.8989
69.9101
69.933
69.9626
69.9978
70.0353
70.077
70.1189
70.1657
70.2112
70.2631
70.312
70.3697
70.422
70.4861
70.5415
70.6128
70.6704
70.7496
70.8084
70.8961
70.9549
71.05
71.1109
71.204
71.2772
71.3564
72.1923
69.9974
69.2694
69.0937
68.9939
68.8996
68.8397
68.8149
68.8169
68.8365
68.8674
68.9044
68.9461
68.9898
69.037
69.0843
69.1359
69.1863
69.2428
69.2964
69.3585
69.4153
69.4839
69.5437
69.6196
69.6815
69.7656
69.8284
69.9212
69.9837
70.0838
70.1486
70.2455
70.3239
70.4034
71.0025
68.881
68.0803
67.8421
67.7033
67.5955
67.539
67.5244
67.5385
67.57
67.6115
67.658
67.7081
67.7594
67.8131
67.8668
67.924
67.98
68.0414
68.1003
68.1671
68.2289
68.3023
68.3668
68.4477
68.5142
68.6035
68.6706
68.769
68.8355
68.9413
69.0102
69.112
69.1964
69.2777
69.6099
67.5791
66.6556
66.3306
66.147
66.0288
65.9803
65.9794
66.008
66.0529
66.106
66.1626
66.2211
66.2798
66.3398
66.3994
66.4614
66.5226
66.5883
66.6521
66.7232
66.7899
66.8677
66.9372
67.0229
67.0943
67.1889
67.2608
67.3651
67.4361
67.5486
67.6217
67.7299
67.8196
67.9033
67.9186
65.9889
64.882
64.4394
64.1988
64.0706
64.0341
64.0508
64.0961
64.1549
64.2191
64.2844
64.3497
64.4142
64.4789
64.5432
64.6092
64.6749
64.7443
64.8129
64.888
64.9602
65.0425
65.1182
65.2093
65.2874
65.3884
65.4672
65.579
65.6568
65.7782
65.8575
65.9763
66.0736
66.1686
65.3965
63.5126
62.2588
61.7692
61.5195
61.409
61.3991
61.4407
61.5061
61.5805
61.6562
61.73
61.8019
61.8718
61.9416
62.0111
62.0828
62.1553
62.232
62.3095
62.3933
62.4764
62.5687
62.6569
62.7589
62.8506
62.9633
63.0561
63.1806
63.2717
63.4072
63.4979
63.6333
63.7383
63.8502
61.5623
60.0531
58.4392
57.7749
57.4766
57.38
57.4013
57.4699
57.558
57.651
57.7468
57.8409
57.9374
58.032
58.1307
58.2281
58.3306
58.432
58.5392
58.6455
58.7581
58.8695
58.9881
59.1042
59.2297
59.349
59.4825
59.6026
59.7457
59.8632
60.017
60.1312
60.29
60.4132
60.5677
52.9315
55.1642
53.2042
51.9869
51.3897
51.1883
51.2128
51.3257
51.487
51.6575
51.8419
52.0158
52.1956
52.3587
52.5279
52.6792
52.8397
52.9829
53.1372
53.2736
53.4214
53.5536
53.6984
53.8317
53.9764
54.113
54.2587
54.398
54.5471
54.6836
54.8445
54.9602
55.1586
55.2037
55.4695
13.0788
12.358
12.7412
12.8832
12.967
13.0168
13.0623
13.0938
13.1305
13.1574
13.1966
13.2234
13.2649
13.2932
13.3387
13.37
13.4205
13.4556
13.5113
13.5502
13.6113
13.6535
13.7203
13.7648
13.8382
13.8829
13.9645
14.0055
14.0986
14.1295
14.2396
14.2505
14.3858
14.3598
14.523
52.7832
51.7579
51.3203
51.2782
51.3467
51.394
51.4081
51.4019
51.3894
51.3747
51.3627
51.3513
51.3436
51.3363
51.3325
51.3284
51.3278
51.3258
51.328
51.3272
51.3321
51.3318
51.3395
51.3394
51.3499
51.3502
51.363
51.3646
51.3787
51.3838
51.3969
51.4105
51.4163
51.4504
51.4357
52.5868
51.5748
51.1396
51.0913
51.1538
51.196
51.2073
51.1983
51.185
51.1689
51.1573
51.1453
51.1391
51.1314
51.1301
51.1255
51.1281
51.1256
51.1315
51.1303
51.1392
51.1389
51.1507
51.1508
51.166
51.1658
51.1853
51.1839
51.209
51.2054
51.2371
51.2311
51.2691
51.2592
51.3101
52.3671
51.3604
50.9262
50.8741
50.9322
50.9705
50.9789
50.9679
50.9533
50.9366
50.9249
50.9132
50.9077
50.901
50.9007
50.8978
50.9014
50.9012
50.9083
50.9097
50.9202
50.9223
50.9367
50.9387
50.9574
50.9588
50.9822
50.983
51.0114
51.0119
51.0448
51.0472
51.0813
51.0898
51.1249
52.1144
51.1047
50.6739
50.6226
50.6788
50.7141
50.7195
50.7064
50.6906
50.6735
50.6623
50.6511
50.6471
50.6413
50.6436
50.6413
50.6486
50.6486
50.6602
50.6617
50.6769
50.6798
50.6982
50.7024
50.7239
50.7291
50.7545
50.7597
50.7905
50.794
50.8319
50.833
50.8773
50.8764
50.9291
51.844
50.8526
50.4247
50.3646
50.4106
50.438
50.4381
50.4217
50.4038
50.3857
50.374
50.3632
50.3595
50.355
50.3578
50.3573
50.3654
50.3674
50.3803
50.3836
50.401
50.405
50.427
50.4312
50.4579
50.462
50.4937
50.4977
50.5343
50.5386
50.5795
50.5858
50.628
50.6388
50.6834
51.5236
50.5345
50.1128
50.0522
50.0935
50.1152
50.1109
50.0912
50.072
50.053
50.042
50.0317
50.0298
50.0263
50.0314
50.0325
50.0429
50.0472
50.0619
50.0683
50.087
50.095
50.1178
50.1265
50.1541
50.1626
50.196
50.2033
50.2434
50.2486
50.296
50.2994
50.352
50.3551
50.4142
51.1696
50.1936
49.7765
49.7091
49.7402
49.753
49.7423
49.7188
49.6974
49.6779
49.6669
49.6576
49.6567
49.6549
49.6614
49.6644
49.6765
49.6827
49.6995
49.7078
49.729
49.7386
49.7644
49.7747
49.8054
49.8158
49.8521
49.8617
49.9045
49.9124
49.9621
49.9688
50.0231
50.0301
50.0904
50.7657
49.8042
49.3929
49.318
49.3373
49.3398
49.3217
49.294
49.2704
49.2504
49.2398
49.2316
49.2322
49.2321
49.2405
49.2455
49.2597
49.268
49.287
49.2975
49.3211
49.333
49.3613
49.374
49.4075
49.4201
49.4596
49.4711
49.5174
49.5271
49.5804
49.5888
49.6464
49.6547
49.7183
50.3251
49.3784
48.9731
48.8904
48.8966
48.8874
48.8612
48.829
48.8034
48.7833
48.7735
48.7668
48.7692
48.7712
48.7817
48.789
48.8054
48.8159
48.8373
48.85
48.8761
48.8902
48.9212
48.936
48.9724
48.987
49.0296
49.0431
49.0928
49.1042
49.161
49.1707
49.2321
49.2413
49.3089
49.8716
48.9497
48.5449
48.4466
48.4346
48.4115
48.3769
48.3406
48.3134
48.2935
48.2848
48.2798
48.284
48.2882
48.3007
48.3102
48.3287
48.3414
48.3649
48.3798
48.4081
48.4243
48.4578
48.4746
48.5137
48.5304
48.5758
48.5912
48.6439
48.657
48.717
48.7283
48.7926
48.8034
48.8736
49.3498
48.4479
48.0479
47.9395
47.9116
47.8746
47.8309
47.7902
47.7616
47.7423
47.735
47.7323
47.7389
47.7457
47.7607
47.7728
47.7938
47.8091
47.8351
47.8525
47.8834
47.902
47.9382
47.9574
47.9993
48.0182
48.0666
48.0841
48.14
48.155
48.2182
48.2314
48.2986
48.3112
48.3841
48.7893
47.9266
47.5169
47.3802
47.3246
47.2688
47.2153
47.171
47.1419
47.1243
47.1193
47.1196
47.1289
47.1387
47.1565
47.1714
47.195
47.213
47.2415
47.2614
47.2949
47.316
47.3549
47.3764
47.4212
47.4424
47.4939
47.5135
47.5726
47.5896
47.6561
47.6712
47.7415
47.756
47.8314
48.1201
47.293
46.8805
46.7253
46.6467
46.5732
46.5096
46.4614
46.4319
46.4162
46.4139
46.4177
46.4303
46.4437
46.4647
46.4831
46.5098
46.531
46.5625
46.5855
46.622
46.6459
46.6879
46.7121
46.7602
46.7838
46.8388
46.8607
46.9235
46.9425
47.0128
47.0299
47.1035
47.1204
47.1984
47.384
46.6132
46.1743
45.9756
45.8588
45.7621
45.6882
45.638
45.6101
45.5985
45.6004
45.609
45.6257
45.6436
45.6681
45.6904
45.7203
45.7449
45.7795
45.8056
45.8451
45.8719
45.9169
45.9439
45.9953
46.0213
46.08
46.104
46.1708
46.1918
46.2662
46.2853
46.3625
46.3818
46.4624
46.4841
45.7767
45.3134
45.0764
44.9236
44.8041
44.72
44.668
44.6421
44.6348
44.6411
44.6549
44.6758
44.6984
44.7265
44.7529
44.7859
44.8143
44.8518
44.8813
44.9238
44.9539
45.0021
45.032
45.0869
45.1157
45.1784
45.2047
45.2761
45.2991
45.3783
45.3994
45.4813
45.5032
45.588
45.4148
44.7866
44.275
43.9805
43.7816
43.6367
43.5436
43.4914
43.4691
43.4673
43.4787
43.4978
43.5229
43.55
43.5813
43.6118
43.6474
43.6796
43.7194
43.7527
43.7977
43.8315
43.8825
43.9161
43.9744
44.0065
44.0733
44.1027
44.1788
44.2044
44.2893
44.3125
44.4003
44.4244
44.5145
44.1
43.5679
42.9759
42.5983
42.3372
42.1594
42.0547
42.0009
41.9817
41.984
41.9998
42.0233
42.052
42.0833
42.1176
42.1524
42.1908
42.2276
42.2701
42.3085
42.3562
42.3954
42.4495
42.4887
42.5507
42.5886
42.6598
42.6946
42.7763
42.8066
42.8985
42.9255
43.0221
43.0499
43.1512
42.3715
41.8215
41.1163
40.6655
40.3557
40.1518
40.0391
39.9835
39.9685
39.9749
39.9975
40.026
40.0614
40.098
40.1388
40.1794
40.2239
40.2677
40.3165
40.3631
40.417
40.4659
40.5262
40.5763
40.6444
40.6937
40.7715
40.8177
40.9067
40.9475
41.0481
41.0836
41.1916
41.2244
41.3395
39.7933
39.442
38.4703
37.8254
37.4174
37.1809
37.0766
37.0385
37.051
37.0791
37.1297
37.1786
37.2414
37.2976
37.3651
37.4248
37.4949
37.5573
37.6291
37.6941
37.7677
37.8351
37.9112
37.9803
38.0602
38.1296
38.2152
38.2824
38.3763
38.4383
38.5428
38.5976
38.7126
38.7619
38.8927
35.627
38.2627
37.0517
35.8411
35.0303
34.5623
34.3387
34.2392
34.229
34.2504
34.3132
34.3751
34.4635
34.5376
34.6339
34.7096
34.8067
34.8806
34.9757
35.0468
35.1377
35.2068
35.2937
35.3635
35.4476
35.5199
35.6022
35.6764
35.7602
35.8313
35.9254
35.9793
36.1035
36.1148
36.286
14.3882
13.784
14.2555
14.4353
14.5281
14.5734
14.6112
14.6326
14.6629
14.681
14.7142
14.7341
14.7717
14.7947
14.838
14.8651
14.9146
14.9462
15.0019
15.0377
15.0994
15.1389
15.2068
15.2489
15.3237
15.3661
15.4493
15.4881
15.5829
15.6119
15.7233
15.7335
15.8683
15.8456
16.0045
37.6296
37.2291
36.9732
36.8767
36.8773
36.8993
36.9146
36.9168
36.9129
36.9037
36.8955
36.8856
36.8787
36.8707
36.8662
36.8604
36.8582
36.8538
36.8541
36.8501
36.8528
36.8487
36.8538
36.8492
36.8564
36.8516
36.8599
36.8559
36.8639
36.8626
36.8677