/*--------------------------------*- C++ -*----------------------------------*\
  =========                 |
  \\      /  F ield         | OpenFOAM: The Open Source CFD Toolbox
   \\    /   O peration     | Website:  https://openfoam.org
    \\  /    A nd           | Version:  6
     \\/     M anipulation  |
\*---------------------------------------------------------------------------*/
FoamFile
{
    version     2.0;
    format      ascii;
    class       volScalarField;
    location    "35";
    object      yPlus;
}
// * * * * * * * * * * * * * * * * * * * * * * * * * * * * * * * * * * * * * //

dimensions      [0 0 0 0 0 0 0];

internalField   uniform 0;

boundaryField
{
    inlet
    {
        type            calculated;
        value           uniform 0;
    }
    outlet
    {
        type            calculated;
        value           uniform 0;
    }
    roughCylinder
    {
        type            calculated;
        value           nonuniform List<scalar> 
5120
(
17.6453
25.2888
37.2931
41.1379
44.3016
45.5243
46.2537
46.2508
46.1871
45.9925
46.0234
46.1153
46.083
46.0155
45.9834
45.9918
45.8408
45.4411
44.8688
44.5081
43.6929
42.6565
43.2337
44.263
44.5372
43.0789
43.1896
42.8221
41.9052
41.4405
41.0206
40.6898
3.49623
25.0079
36.8462
40.8644
44.0666
45.4183
46.202
46.1789
46.1066
45.9972
46.1006
46.2634
46.3628
46.3697
46.389
46.3774
46.2327
45.8062
45.2273
44.9365
44.0786
43.2939
43.8355
44.8194
44.6973
43.4418
43.5006
43.1493
42.3108
41.9586
41.5984
41.3443
7.51463
24.7794
36.4367
40.6611
43.874
45.2712
46.0862
46.1936
46.2772
46.2207
46.3142
46.3603
46.3563
46.367
46.4339
46.4844
46.351
45.9313
45.316
45.0083
44.1179
43.713
44.3411
45.4395
45.057
44.0992
44.1477
43.8142
43.0393
42.7031
42.2935
42.0251
14.439
24.5779
35.9024
40.3112
43.5894
45.1499
46.0686
46.2083
46.3043
46.343
46.5003
46.6475
46.7501
46.8376
46.9156
46.9406
46.8272
46.4247
45.8455
45.5207
44.6333
44.4675
45.0164
46.0411
45.3492
44.56
44.5572
44.2326
43.5371
43.2866
42.9324
42.7346
8.30948
23.8638
35.3453
40.0345
43.3808
45.0049
45.9677
46.2736
46.5591
46.6499
46.806
46.8281
46.8605
46.9253
47.049
47.1433
47.0567
46.7064
46.1298
45.7114
44.8431
44.9367
45.5245
46.6195
45.8104
45.2586
45.2524
44.9623
44.3312
44.0889
43.7046
43.4912
10.7944
23.9188
34.7556
39.6173
43.0689
44.8932
46.0129
46.3873
46.6712
46.851
47.0583
47.2304
47.3593
47.4921
47.5918
47.6349
47.5675
47.2631
46.7585
46.2969
45.5233
45.7354
46.234
47.2268
46.2415
45.782
45.7389
45.4537
44.8962
44.7175
44.3893
44.2373
10.1581
22.6948
34.0133
39.2373
42.8375
44.7597
45.9295
46.479
46.9675
47.1883
47.4203
47.4652
47.5522
47.6466
47.7835
47.8907
47.8498
47.6204
47.15
46.5924
45.9069
46.2226
46.7314
47.7506
46.7868
46.4946
46.4666
46.2228
45.7251
45.5509
45.2102
45.0408
15.6853
23.1231
33.3054
38.6903
42.4459
44.614
45.9998
46.6525
47.1158
47.4286
47.6989
47.9364
48.1126
48.2673
48.3549
48.3789
48.3438
48.1696
47.7968
47.2241
46.6984
47.0276
47.447
48.3544
47.3269
47.0501
47.0062
46.7626
46.3308
46.2077
45.9249
45.808
16.1637
22.0738
32.4115
38.1245
42.1066
44.4326
45.8848
46.7095
47.4006
47.7463
48.0736
48.1816
48.3319
48.4438
48.5685
48.6516
48.6402
48.5464
48.2291
47.5946
47.191
47.5228
47.9262
48.8354
47.9273
47.7591
47.7618
47.5551
47.1794
47.0601
46.7782
46.6436
21.9897
22.3741
31.4458
37.3055
41.4994
44.1339
45.8791
46.8612
47.5145
47.9768
48.3319
48.6609
48.8995
49.0661
49.1289
49.116
49.0958
49.0581
48.8497
48.2444
48.0179
48.3153
48.6285
49.4404
48.534
48.3211
48.3279
48.1133
47.7945
47.7184
47.4937
47.4034
25.0062
22.3018
30.4112
36.432
40.9091
43.7839
45.64
46.7999
47.7285
48.2181
48.6607
48.8581
49.0789
49.2144
49.3273
49.3764
49.3908
49.4308
49.2828
48.6551
48.5412
48.7964
49.0745
49.8812
49.1375
48.9978
49.0892
48.8982
48.6354
48.5634
48.3473
48.2415
30.0209
22.7924
29.2048
35.1928
39.8932
43.1587
45.4177
46.8251
47.716
48.373
48.8426
49.2824
49.6018
49.7938
49.8455
49.8072
49.8036
49.892
49.8443
49.2871
49.3289
49.5427
49.7432
50.4764
49.75
49.5322
49.6355
49.4292
49.2148
49.1798
49.0179
48.9504
35.3483
23.9895
28.0904
33.9311
38.8808
42.4635
44.9048
46.5246
47.7907
48.4763
49.061
49.3671
49.6725
49.8631
49.9942
50.0352
50.0889
50.2456
50.2451
49.6963
49.8074
49.9647
50.1333
50.8548
50.2958
50.1447
50.3619
50.1654
50.0103
49.979
49.8283
49.7489
39.506
25.61
27.0301
32.1689
37.2128
41.2537
44.2634
46.2854
47.5285
48.4749
49.1082
49.6822
50.1064
50.3583
50.4401
50.4162
50.4487
50.6394
50.716
50.2692
50.4966
50.6265
50.7499
51.4064
50.8467
50.6104
50.8163
50.6019
50.4849
50.4834
50.381
50.3361
43.4825
27.5262
26.233
30.5941
35.6156
39.9472
43.2101
45.5171
47.347
48.3549
49.1556
49.5955
49.9995
50.2843
50.4842
50.5734
50.6929
50.9405
51.041
50.6198
50.8549
50.9261
51.0367
51.6564
51.2542
51.1079
51.444
51.2394
51.1907
51.1984
51.1094
51.0585
46.342
29.7686
25.682
28.283
32.9907
37.7296
41.7952
44.7831
46.6066
48.0641
48.9929
49.7785
50.3395
50.6845
50.8355
50.8604
50.9501
51.2117
51.3622
51.0647
51.3912
51.4721
51.5859
52.1487
51.7171
51.4967
51.7618
51.5423
51.518
51.5463
51.4961
51.4768
47.806
31.8122
25.5131
26.6516
30.7042
35.4247
39.673
43.0396
45.92
47.5167
48.7425
49.429
49.9956
50.4372
50.7439
50.9303
51.138
51.4483
51.6047
51.3359
51.6105
51.6287
51.7412
52.226
51.9504
51.8662
52.252
52.0575
52.1033
52.141
52.1004
52.0797
47.9048
33.5778
25.6382
23.7408
26.5641
31.3173
36.7507
41.3592
44.1646
46.6454
48.1681
49.3882
50.2117
50.6983
50.9729
51.0978
51.267
51.5669
51.7507
51.6286
51.9816
52.0576
52.1974
52.6044
52.2599
52.107
52.3107
52.1133
52.1609
52.2032
52.1876
52.1922
46.2761
34.4606
25.8801
22.3135
23.3792
27.3483
32.2271
37.1912
42.402
45.1485
47.2983
48.4951
49.4099
50.144
50.6362
50.9926
51.3195
51.6684
51.8395
51.7247
51.9655
51.9566
52.0663
52.3302
52.1685
52.2432
52.5287
52.4009
52.5177
52.5728
52.5598
52.5643
43.7489
34.5324
25.9088
18.2231
15.483
16.8895
24.9547
33.5099
37.9319
42.9816
45.8124
47.9805
49.3376
50.0943
50.6051
50.8882
51.1589
51.4665
51.6475
51.7173
52.0601
52.1797
52.3212
52.5095
52.204
52.1269
52.0356
51.8704
51.9131
51.9162
51.8862
51.8966
40.7429
33.8007
25.4317
16.2437
13.3008
12.2173
8.15107
16.4651
33.4205
38.8914
43.5032
45.8577
47.5214
48.8463
49.6823
50.3446
50.8678
51.2608
51.4328
51.4451
51.5581
51.4734
51.4306
51.3348
51.2308
51.5666
51.4902
51.5025
51.6204
51.6513
51.6093
51.6173
37.5061
32.6183
24.6357
6.78063
6.11306
11.6672
11.7538
13.0776
11.6613
33.3492
39.7787
44.3197
46.8135
48.036
48.9661
49.4935
49.901
50.2001
50.3438
50.5992
50.9006
51.0584
51.0521
50.9632
50.5586
50.4077
49.5105
49.275
49.0363
48.781
48.547
48.4602
33.8254
31.121
23.4371
5.04878
6.55729
12.3508
12.0939
12.1294
14.0789
18.9247
33.9758
39.0484
42.3558
45.0163
46.5171
47.7653
48.6481
49.1219
49.3064
49.3691
49.0951
48.6241
47.911
47.0215
46.7228
47.4363
46.5554
46.7388
46.5974
46.4092
46.1009
45.9729
29.1871
29.4277
23.1559
9.69904
13.138
9.9844
1.49598
12.6966
12.8926
8.31148
26.6643
35.7932
40.4444
42.1383
43.8003
44.6535
45.2194
45.4474
45.4983
45.8539
46.0005
46.0627
45.4917
45.007
43.8259
42.1934
37.9776
35.7943
32.2399
28.4635
24.5736
21.7111
23.331
27.2292
21.7701
10.0431
7.30377
3.56553
10.2743
14.1383
13.0677
14.129
10.2053
2.94737
19.8112
30.1217
34.5495
38.0125
40.2006
41.2892
41.2976
40.9983
38.9245
35.2364
29.1722
20.3677
10.9332
9.21665
18.4073
21.4173
1.6406
16.2702
14.7473
7.00338
12.0782
24.4612
21.6542
5.60256
10.0485
4.42068
4.18656
13.0169
16.6087
13.619
9.02085
15.0653
8.99267
11.0065
18.5266
16.5029
13.5385
9.58406
16.3578
17.8727
9.0642
12.5008
15.0666
12.1776
13.3937
17.2551
12.5641
14.3912
6.61957
14.2455
9.42595
4.86499
15.5288
17.9866
21.7616
13.3864
11.197
15.7769
20.9116
23.9061
25.311
24.2633
19.2924
17.0422
4.98787
16.3235
16.1899
10.8403
10.7438
10.638
3.58857
16.9643
12.9351
5.92957
6.56247
20.031
17.4299
11.1462
10.8174
14.0105
18.2724
20.1473
21.6661
22.5005
7.59685
11.3954
17.2176
14.781
11.7162
14.3541
21.9735
27.4534
30.0391
31.1494
30.924
26.7246
19.6861
19.6611
19.3389
16.4482
12.5726
11.4836
14.0913
7.67239
13.825
12.9829
18.4411
22.472
25.8334
27.6937
28.6514
29.6906
29.3441
28.8698
28.3666
28.127
6.70702
13.0685
15.46
15.7245
13.7141
12.746
17.9455
24.8024
29.8356
32.7929
32.6984
27.9769
25.6485
27.3135
28.2037
28.6798
29.4795
29.0749
28.2947
28.9796
28.3746
30.3097
30.8053
31.3301
30.8962
30.8341
30.9846
30.2638
30.0868
29.5683
28.9724
28.5657
7.59772
14.3155
17.1287
19.1205
19.0851
17.6602
18.305
22.4861
27.5995
31.436
31.3919
27.3143
26.3566
28.0204
28.303
28.2748
28.9565
30.2496
30.9318
31.1445
31.6145
31.4748
31.9722
32.5726
32.5104
32.3268
32.1327
31.237
29.9776
28.2594
26.3705
25.183
5.21139
11.5191
15.2784
18.9424
21.1594
21.3967
21.1291
22.6159
25.5826
27.8203
25.723
22.2257
23.135
24.0189
23.6423
24.7079
27.683
30.229
31.8872
32.7483
33.0207
33.123
32.6958
32.1134
30.9678
30.1008
29.3505
27.6945
25.8833
23.5725
21.1837
19.7924
3.41844
9.59222
11.4019
15.1447
18.5291
20.3613
20.7478
20.9601
21.5142
20.9713
17.8556
17.0242
17.7322
15.9333
11.8092
10.6182
15.6748
21.7425
26.0585
28.6706
29.832
29.7765
29.2747
28.5869
27.8111
27.3578
26.8823
25.7039
24.1658
22.4151
20.9943
20.4147
2.51057
7.56851
9.36381
10.9917
13.5176
15.8819
16.93
16.8617
16.2717
15.4942
15.7906
17.3542
18.2396
18.0883
18.1694
19.4616
20.5304
21.7248
23.5917
25.5495
26.9349
27.6575
27.8264
27.5283
26.9795
26.4959
25.8611
24.4559
22.8299
21.1547
19.9254
19.4703
2.21154
7.0998
7.64879
9.38771
10.9202
11.8789
13.234
14.1043
14.6688
15.4867
16.7717
17.8534
18.0721
16.6809
14.7558
15.0406
18.3107
21.77
24.1772
25.7462
26.651
26.9224
26.6912
26.0207
25.1785
24.4138
23.55
22.3165
21.1185
20.036
19.2919
19.0343
2.27187
7.86016
8.45071
9.49966
10.8545
11.4737
12.464
13.6949
14.7915
15.854
16.8197
17.3862
16.8819
15.4618
15.737
17.6981
19.2972
20.8936
22.686
24.1839
25.0332
25.2023
24.8934
24.4568
23.9217
23.3242
22.6064
21.5888
20.5426
19.6906
19.2016
19.1022
2.33623
8.66937
10.1006
11.4652
12.5792
13.8575
14.9439
15.903
16.7717
17.5488
18.0585
17.9199
16.7415
15.9737
16.8
18.3549
20.2907
22.0287
23.3536
24.3125
24.9294
25.2041
25.165
24.8357
24.2844
23.579
22.7376
21.7744
20.8997
20.2711
19.9476
19.9189
2.32197
8.75701
10.5992
12.342
14.1975
15.9163
17.3017
18.3327
19.0291
19.3673
19.1299
18.1014
16.9284
17.1882
18.6512
20.4438
22.0721
23.5054
24.7134
25.6026
26.1273
26.3009
26.1506
25.7603
25.163
24.3914
23.5018
22.5524
21.7111
21.1561
20.9243
20.9546
2.49115
9.20442
11.0573
12.6109
14.3201
16.0045
17.4632
18.5313
19.1052
19.1255
18.4289
17.5763
17.8482
19.2542
20.8893
22.5104
24.0921
25.4866
26.5941
27.3869
27.8602
28.0137
27.8522
27.3935
26.6795
25.7737
24.7695
23.7873
22.9895
22.5214
22.3683
22.4453
2.74132
9.66349
11.6657
12.9504
14.3083
15.6353
16.7845
17.6396
18.0669
18.0001
17.7816
18.5698
20.1552
21.7231
23.2785
24.9024
26.4538
27.8258
28.94
29.7456
30.2179
30.3463
30.1229
29.567
28.7219
27.6809
26.5734
25.5558
24.7804
24.375
24.2883
24.4109
2.74339
9.718
11.8643
13.337
14.5571
15.5905
16.4333
17.0588
17.5072
18.0815
19.404
21.2312
22.7894
24.2898
25.9281
27.5958
29.1721
30.5671
31.7076
32.5447
33.0403
33.1631
32.8895
32.2298
31.249
30.0714
28.8595
27.8043
27.0533
26.7033
26.6688
26.8287
3.38495
2.88352
2.44934
2.66013
2.99617
3.26665
3.4901
3.69324
3.48621
3.15565
3.12668
3.09423
4.28039
5.13154
6.09064
7.16974
8.33007
9.56614
11.2491
11.4894
12.0519
11.8424
12.1834
11.6425
11.9904
11.9767
11.8856
11.0766
11.3606
10.3245
8.50715
6.60829
5.06423
4.09016
3.23512
3.04788
3.0125
2.62891
2.03513
2.12906
11.4984
10.7987
9.42514
9.27443
9.56789
9.87232
9.99622
10.1484
9.56579
8.47697
8.527
8.19474
10.2303
11.5602
12.6767
13.8525
14.8478
15.6632
16.3355
16.8768
17.3027
17.6178
17.844
17.9742
18.0213
17.9825
17.8581
17.6067
17.2814
16.8208
16.1275
15.2646
14.0946
13.0939
11.4927
11.4845
11.4746
10.6836
8.94674
8.4134
14.8448
13.2482
12.0251
11.6286
11.5292
11.3812
11.1151
11.0601
10.5748
9.78998
11.5078
11.9748
13.4714
15.0525
16.4043
17.5018
18.3853
19.0975
19.676
20.1423
20.5147
20.8009
21.0064
21.1313
21.1763
21.135
21.0044
20.7686
20.4178
19.9397
19.29
18.503
17.4301
16.3268
14.858
13.611
12.6609
11.9569
11.3176
11.1201
16.7424
15.0412
13.8798
13.222
12.3824
11.6335
11.4992
11.5512
11.6712
12.4879
14.3773
16.1622
17.6667
18.9403
20.0146
20.9085
21.6511
22.2648
22.7736
23.1884
23.5193
23.7721
23.9473
24.0446
24.0623
23.9952
23.8362
23.5732
23.1907
22.6752
21.9905
21.1545
20.0731
18.871
17.3898
15.8866
14.4277
13.3793
12.3957
12.2624
17.7907
16.1922
15.0726
14.0591
12.557
11.6591
11.6479
12.6049
14.7747
16.7606
18.402
19.8072
21.0234
22.0751
22.9797
23.7423
24.3885
24.9311
25.3883
25.764
26.0643
26.2933
26.4485
26.5294
26.5336
26.4564
26.2885
26.0191
25.6297
25.107
24.4163
23.5622
22.4781
21.2279
19.7234
18.1036
16.4507
15.0936
13.7238
13.4467
18.3262
16.8298
15.5569
13.7833
11.987
11.8346
14.2621
16.6958
18.6145
20.1995
21.5574
22.7649
23.811
24.7043
25.4699
26.1263
26.703
27.1946
27.6151
27.9629
28.2398
28.4489
28.5863
28.6524
28.6453
28.5604
28.3883
28.1175
27.7298
27.2098
26.528
25.6761
24.6108
23.3513
21.8645
20.1995
18.4533
16.9768
15.2758
14.5672
18.4531
16.8492
14.9297
12.5074
12.8039
15.6804
18.1616
20.0644
21.6771
23.0973
24.321
25.365
26.244
26.9843
27.623
28.1898
28.7145
29.1759
29.5781
29.9117
30.1727
30.3658
30.4872
30.5394
30.5216
30.4294
30.2538
29.9822
29.5977
29.0812
28.409
27.5631
26.5164
25.2648
23.7958
22.1503
20.3311
18.8229
17.013
15.6888
17.9874
15.8374
13.3439
13.8748
16.8012
19.3098
21.2717
22.9538
24.3915
25.6338
26.7017
27.5923
28.3172
28.9277
29.4786
29.9923
30.4939
30.9504
31.3563
31.6889
31.9419
32.1242
32.2315
32.2709
32.2427
32.1434
31.9647
31.6936
31.3125
30.8021
30.1383
29.3026
28.268
27.0347
25.571
23.9656
22.1136
20.5238
18.8338
16.9188
16.558
14.4132
15.0622
17.8258
20.2953
22.317
24.0214
25.4745
26.7366
27.8396
28.7803
29.5077
30.0943
30.6277
31.1338
31.6199
32.0822
32.5529
32.9947
33.3478
33.6045
33.7782
33.8726
33.8997
33.8612
33.7547
33.573
33.3033
32.9269
32.4241
31.7702
30.9469
29.9252
28.7097
27.2605
25.6679
23.8585
22.096
20.6102
18.4008
15.548
16.359
18.87
21.2226
23.2373
24.9357
26.3932
27.6685
28.8024
29.8057
30.6026
31.184
31.7048
32.2079
32.6983
33.1709
33.627
34.0588
34.5137
34.9206
35.1944
35.3658
35.4498
35.4625
35.4133
35.2998
35.1152
34.8471
34.4764
33.9826
33.3409
32.531
31.5282
30.3254
28.9081
27.3035
25.5696
23.6641
22.1968
20.2256
17.8337
19.9327
22.1759
24.09
25.7552
27.1932
28.468
29.6177
30.666
31.5894
32.2211
32.7329
33.2275
33.7218
34.2075
34.6757
35.1194
35.5492
35.9473
36.4236
36.7318
36.9117
36.9889
36.9893
36.9267
36.8053
36.6175
36.3506
35.9862
35.5021
34.8746
34.0802
33.0988
31.9134
30.5266
28.9312
27.2196
25.3356
23.5969
22.0566
21.2238
23.0776
24.9413
26.5083
27.9201
29.1695
30.3181
31.3871
32.3779
33.2055
33.739
34.2162
34.7031
35.1974
35.6838
36.1497
36.5914
37.0041
37.417
37.8022
38.2164
38.4313
38.5125
38.5037
38.4282
38.2948
38.1016
37.8345
37.4748
37.0007
36.3874
35.6116
34.6514
33.4918
32.1278
30.5688
28.845
27.036
25.1078
23.5684
24.1703
25.6881
27.2589
28.581
29.8106
30.9313
32.001
33.0214
33.9762
34.7275
35.2112
35.671
36.1568
36.655
37.1449
37.6133
38.0539
38.4678
38.8663
39.2357
39.7048
39.9566
40.0474
40.0322
39.9428
39.7943
39.5883
39.317
38.959
38.4922
37.8914
37.1343
36.1957
35.0644
33.7259
32.2039
30.492
28.7089
26.7683
25.0499
26.6102
27.8791
29.2384
30.3855
31.4901
32.5321
33.5561
34.5521
35.4938
36.2161
36.6725
37.121
37.6078
38.112
38.6094
39.0844
39.5305
39.9474
40.3395
40.7292
41.1116
41.4834
41.6118
41.5976
41.4937
41.3252
41.1003
40.8138
40.4517
39.9877
39.3956
38.6538
37.7355
36.631
35.3216
33.8327
32.1501
30.386
28.4596
26.695
28.6635
29.7501
30.9535
31.9812
33.0094
34.008
35.011
36.0031
36.9543
37.7003
38.1456
38.5838
39.0709
39.5838
40.093
40.5801
41.037
41.4611
41.8593
42.2452
42.5948
43.0645
43.221
43.2079
43.0904
42.9
42.6497
42.3407
41.9616
41.4923
40.9029
40.1709
39.2688
38.1871
36.9051
35.4476
33.7956
32.0619
30.1497
28.4035
30.415
31.3658
32.4588
33.4141
34.4014
35.3821
36.3839
37.3895
38.3696
39.1878
39.6433
40.0696
40.5547
41.077
41.6019
42.1063
42.5789
43.0155
43.4236
43.7995
44.1721
44.5847
44.837
44.8572
44.735
44.5205
44.2385
43.8971
43.4905
43.0051
42.4084
41.6776
40.7846
39.7195
38.4586
37.0281
35.4026
33.6994
31.8061
30.0863
31.9143
32.7681
33.792
34.7104
35.6822
36.6644
37.6811
38.7131
39.7344
40.6528
41.1628
41.5771
42.0539
42.5835
43.1254
43.6502
44.1426
44.5962
45.0154
45.3944
45.7742
46.124
46.4939
46.5413
46.4067
46.1628
45.844
45.4633
45.0206
44.5049
43.8921
43.1539
42.2607
41.2022
39.9533
38.5404
36.9338
35.2524
33.3691
31.6726
33.1872
33.9778
34.9684
35.8749
36.8503
37.8483
38.8907
39.9567
41.0215
42.0179
42.6757
43.0872
43.546
44.0744
44.6296
45.1752
45.69
46.1638
46.5977
46.9875
47.3632
47.6936
48.1341
48.1913
48.0467
47.7766
47.4204
46.9971
46.5114
45.9575
45.3178
44.5601
43.655
42.5926
41.3443
39.9376
38.3375
36.6611
34.775
33.0898
34.2323
34.9909
35.9752
36.8882
37.8808
38.9042
39.9784
41.0815
42.1896
43.2493
44.1083
44.5588
44.9918
45.5021
46.0587
46.6197
47.1564
47.6528
48.1059
48.5111
48.8893
49.2247
49.6733
49.7415
49.5859
49.2895
48.895
48.4272
47.8957
47.2987
46.6211
45.835
44.9089
43.8307
42.5704
41.1563
39.5465
37.8602
35.9581
34.2686
35.0213
35.7759
36.7727
37.7052
38.7224
39.775
40.8815
42.0196
43.1662
44.2754
45.2769
45.916
46.3393
46.8099
47.3455
47.9061
48.4567
48.9743
49.4497
49.8744
50.2708
50.6113
51.0666
51.1139
50.929
50.5968
50.1645
49.6555
49.0804
48.4404
47.7215
46.8999
45.9425
44.8357
43.5508
42.1156
40.483
38.7759
36.8502
35.147
35.5032
36.2779
37.3004
38.2604
39.3039
40.3843
41.5184
42.6855
43.8629
45.0081
46.0655
46.9683
47.4955
47.9365
48.4236
48.9551
49.4991
50.0269
50.5225
50.9696
51.3934
51.7735
52.1537
52.159
51.9381
51.5722
51.1058
50.5635
49.9527
49.2744
48.5157
47.6535
46.6562
45.5116
44.1927
42.726
41.0636
39.3318
37.3834
35.6704
35.6056
36.4215
37.481
38.4744
39.5435
40.6475
41.8024
42.9901
44.1905
45.3644
46.4573
47.4139
48.2438
48.7858
49.2438
49.7206
50.2257
50.738
51.2366
51.7089
52.1351
52.6427
52.7988
52.7188
52.4654
52.0824
51.6002
51.038
50.4041
49.6969
48.9038
47.9985
46.9555
45.7672
44.4091
42.9057
41.2129
39.4601
37.4992
35.7918
35.2389
36.1135
37.2243
38.2622
39.3591
40.4841
41.6539
42.8548
44.0707
45.2689
46.3998
47.3998
48.2508
49.0083
49.6618
50.1659
50.6401
51.1181
51.6004
52.0816
52.5219
52.7741
52.8293
52.7109
52.4473
52.0645
51.5827
51.016
50.3702
49.642
48.816
47.8688
46.7782
45.542
44.14
42.5992
40.8799
39.1154
37.1579
35.4782
34.3175
35.2532
36.431
37.5371
38.6777
39.8312
41.0172
42.2289
43.4552
44.6723
45.8419
46.9105
47.819
48.586
49.2608
49.8698
50.4252
50.9268
51.3708
51.7492
52.0624
52.2637
52.3081
52.1962
51.9452
51.5749
51.1016
50.5359
49.8808
49.1314
48.2638
47.2673
46.1267
44.8412
43.3944
41.817
40.0761
38.3094
36.373
34.7418
32.8283
33.7933
35.0311
36.2291
37.4473
38.6588
39.8799
41.1127
42.3531
43.586
44.7863
45.9182
46.9311
47.7781
48.4869
49.0979
49.6391
50.1243
50.5603
50.9438
51.2672
51.456
51.4899
51.3756
51.1279
50.7616
50.2888
49.7166
49.0429
48.2573
47.3441
46.2947
45.0982
43.7593
42.2662
40.6539
38.8972
37.1354
35.2322
33.6618
30.9264
31.8578
33.1036
34.3783
35.6933
37.0026
38.3003
39.5864
40.8621
42.1221
43.353
44.5336
45.6307
46.6031
47.4198
48.1027
48.6857
49.1965
49.6523
50.0566
50.3543
50.515
50.5292
50.404
50.1508
49.7807
49.3011
48.7144
48.0149
47.1874
46.2238
45.1213
43.8719
42.4815
40.9433
39.2972
37.5266
35.7694
33.9003
32.3847
28.9621
29.8063
30.9934
32.2868
33.6658
35.0723
36.4733
37.8493
39.1944
40.5072
41.7825
43.0083
44.1651
45.2274
46.1711
46.9823
47.672
48.2651
48.7788
49.1843
49.4627
49.6036
49.6042
49.472
49.2154
48.8417
48.355
47.7527
47.0243
46.1611
45.1562
44.0072
42.7094
41.2702
39.6884
38.0053
36.2131
34.4464
32.5929
31.1026
27.3686
28.1127
29.2042
30.4631
31.8493
33.304
34.7806
36.2426
37.6687
39.0497
40.3811
41.656
42.8636
43.9875
45.0098
45.918
46.7105
47.3891
47.9509
48.3814
48.6749
48.8293
48.844
48.726
48.4822
48.1178
47.6349
47.029
46.2868
45.4029
44.3715
43.1903
41.8559
40.377
38.7557
37.033
35.2082
33.411
31.5421
30.0317
26.4052
27.0832
28.0922
29.2997
30.6584
32.1122
33.6119
35.1154
36.5914
38.0213
39.3954
40.7076
41.9503
43.113
44.1833
45.1484
45.9992
46.729
47.329
47.7905
48.1117
48.2928
48.3335
48.2401
48.0184
47.6728
47.2043
46.6078
45.8703
44.9855
43.947
42.7528
41.4001
39.8969
38.2472
36.4898
34.629
32.7876
30.879
29.3127
25.9543
26.6095
27.5721
28.7415
30.0702
31.5056
32.9992
34.5085
35.9988
37.4468
38.8389
40.1675
41.4253
42.6038
43.6924
44.6798
45.5551
46.3086
46.9324
47.419
47.7659
47.973
48.04
47.9721
47.7744
47.4504
47.0011
46.4216
45.7008
44.8288
43.7992
42.61
41.259
39.753
38.0963
36.3255
34.4461
32.5752
30.6325
29.0114
25.7827
26.4506
27.403
28.556
29.8648
31.2804
32.7569
34.2527
35.7338
37.1756
38.5637
39.8896
41.1465
42.3261
43.4185
44.4127
45.2979
46.0641
46.7032
47.2074
47.5736
47.8005
47.8884
47.8415
47.6643
47.3603
46.9299
46.3695
45.6693
44.8164
43.8043
42.6316
41.2954
39.802
38.1552
36.3898
34.5108
32.6309
30.6716
29.0164
25.7413
26.4184
27.3624
28.4998
29.7885
31.1826
32.6385
34.1162
35.5823
37.0127
38.3924
39.7131
40.9678
42.1484
43.245
44.2468
45.1426
45.9222
46.5767
47.0985
47.4833
47.7297
47.8375
47.8106
47.6529
47.3676
46.9554
46.4139
45.7341
44.9014
43.91
42.7579
41.4414
39.9666
38.3368
36.5855
34.7161
32.8388
30.8739
29.2019
14.4903
20.4024
34.5698
38.4149
41.607
42.9653
43.9331
44.2802
44.5558
44.7249
44.9253
44.874
44.9338
45.0486
44.8979
44.4548
44.0917
43.6582
42.9183
42.4008
41.8663
41.845
42.4088
41.468
43.2219
41.3718
41.3399
40.8988
40.1345
39.5651
39.1725
38.7927
10.0991
21.137
34.1649
38.206
41.4387
42.8983
43.8531
44.1705
44.5668
44.8525
45.0728
45.1153
45.1524
45.1822
44.9973
44.6033
44.3167
43.9013
43.227
42.6683
42.1697
42.1584
42.9488
42.1225
43.4316
41.7857
41.6915
41.281
40.531
40.0522
39.6746
39.3191
9.60875
19.33
33.5703
37.8687
41.1739
42.6674
43.677
44.1334
44.5268
44.7617
45.0853
45.1558
45.238
45.3247
45.1961
44.8847
44.6189
44.1852
43.5318
42.9093
42.3619
42.389
43.3525
42.7067
43.5897
42.226
42.178
41.8364
41.1384
40.7178
40.3618
40.0256
16.2639
19.6219
32.9128
37.5012
40.8952
42.593
43.7168
44.1194
44.5618
44.9851
45.2974
45.4325
45.5345
45.5349
45.3659
45.0708
44.8331
44.4287
43.8533
43.2648
42.7028
42.8067
43.8405
43.3858
43.8944
42.715
42.618
42.2989
41.6232
41.2879
40.9499
40.6405
10.4452
17.5597
32.0609
37.0572
40.6541
42.4416
43.5505
44.1499
44.7029
44.9701
45.3193
45.4641
45.5346
45.5908
45.5096
45.3074
45.0817
44.6737
44.1316
43.5726
42.9483
43.1193
44.1839
43.9482
44.1726
43.227
43.1875
42.9153
42.2869
41.9974
41.6865
41.3967
4.18015
16.6274
31.0076
36.429
40.1646
42.1965
43.5866
44.1931
44.6608
45.1598
45.5376
45.7172
45.8672
45.8752
45.745
45.5246
45.3002
44.9176
44.452
43.9955
43.3733
43.6086
44.6302
44.575
44.6039
43.767
43.7038
43.4343
42.8422
42.6223
42.3316
42.07
3.26076
15.6347
29.7809
35.6974
39.7971
42.0618
43.3734
44.1422
44.8872
45.2196
45.571
45.7707
45.8316
45.8676
45.8372
45.7255
45.5309
45.1567
44.7227
44.3423
43.7035
43.9666
44.9385
45.0639
44.9946
44.3146
44.3231
44.0779
43.539
43.3534
43.0958
42.8547
10.6559
11.6113
28.1259
34.6321
38.9619
41.4707
43.2422
44.189
44.7346
45.3069
45.7604
45.9776
46.1788
46.2342
46.1705
46.0178
45.8145
45.454
45.0786
44.8093
44.231
44.5079
45.3941
45.6364
45.5373
44.887
44.8937
44.6325
44.1438
44.0082
43.7705
43.5591
12.7395
13.9113
26.2721
33.3159
38.211
41.2116
42.9109
43.9349
44.9447
45.4145
45.8
46.0716
46.1602
46.1998
46.2222
46.2052
46.0641
45.731
45.3824
45.1817
44.6469
44.894
45.7099
46.0615
45.9959
45.4453
45.5295
45.2823
44.8564
44.7469
44.5459
44.3551
12.4737
3.76378
23.9395
31.551
36.8144
40.0497
42.4345
43.9089
44.6386
45.3442
45.9158
46.1987
46.478
46.6231
46.6536
46.5784
46.4244
46.0999
45.7952
45.6795
45.2586
45.4753
46.2115
46.6062
46.597
46.0234
46.1126
45.8358
45.4697
45.3905
45.2053
45.0449
13.8698
7.77481
20.6375
29.1997
35.2778
39.4452
41.8211
43.2777
44.7128
45.4198
45.9056
46.3009
46.4768
46.5574
46.6373
46.7239
46.666
46.3979
46.1264
46.0533
45.708
45.8555
46.5313
46.97
47.0422
46.5498
46.7124
46.4577
46.1627
46.1086
45.9615
45.822
15.5088
10.8449
17.7625
26.2498
32.9049
37.243
40.7241
43.056
44.1232
45.1021
45.8856
46.286
46.6835
46.9624
47.1211
47.1376
47.059
46.7997
46.5684
46.5543
46.3417
46.4477
47.0665
47.4936
47.6334
47.0923
47.251
46.9551
46.7219
46.6773
46.5386
46.4289
16.2919
5.08916
11.6119
22.2539
29.8413
35.9537
39.4161
41.6393
43.8822
45.0063
45.7084
46.3222
46.6484
46.8093
46.9583
47.1609
47.2136
47.0493
46.8725
46.8827
46.7368
46.7662
47.3336
47.7584
47.9633
47.5194
47.7435
47.4934
47.3362
47.3244
47.2247
47.1367
15.8806
6.95908
10.0502
17.0026
25.5724
31.3056
37.062
40.9885
42.6366
44.2142
45.444
46.075
46.6547
47.1035
47.4189
47.5381
47.556
47.401
47.2688
47.3258
47.299
47.3144
47.8422
48.2227
48.467
47.9605
48.1697
47.8659
47.7664
47.7461
47.6486
47.5882
13.383
8.60582
10.4333
4.12226
18.4132
28.9
33.7975
37.552
41.7044
43.6546
44.8313
45.8968
46.5048
46.807
47.039
47.3595
47.5297
47.4974
47.4426
47.5234
47.5336
47.4954
47.9812
48.3447
48.6165
48.2537
48.5256
48.2999
48.2823
48.3085
48.2518
48.2146
11.6316
3.82121
9.54922
10.3258
8.13226
12.2358
27.9147
35.8579
38.5562
41.7517
44.045
45.1784
46.1444
46.9001
47.4448
47.6686
47.7907
47.7626
47.7557
47.8825
47.9898
47.9847
48.4339
48.7385
49.0015
48.5469
48.7658
48.4648
48.481
48.4772
48.4132
48.3985
11.4026
6.62778
9.82691
9.94097
2.55908
10.9175
6.08509
23.234
35.9111
39.8966
42.3095
44.4531
45.6395
46.2582
46.6571
47.1684
47.491
47.6316
47.7284
47.8715
47.9688
47.9386
48.3078
48.5539
48.7795
48.5647
48.8708
48.7015
48.8112
48.873
48.8542
48.867
9.51769
9.35431
10.2033
10.4965
6.52254
10.9796
4.18017
9.84623
21.8999
34.7058
40.3305
42.641
44.5018
45.8931
46.8809
47.2696
47.5382
47.6706
47.8159
48.0205
48.2091
48.2726
48.6026
48.7975
48.9604
48.5778
48.723
48.4199
48.492
48.477
48.4205
48.4372
7.83067
9.42902
9.88432
8.00017
5.05674
11.6092
7.71625
5.88827
15.8636
27.504
35.243
40.6749
43.1251
44.3769
45.1163
46.0447
46.6387
47.0281
47.3023
47.4995
47.617
47.6352
47.7766
47.8139
47.8029
47.8344
48.1352
48.0466
48.2452
48.3343
48.3388
48.3985
3.71003
6.72731
10.6566
10.4778
8.79078
13.2458
9.42288
6.75682
4.62573
7.83772
31.3533
35.9353
40.0764
42.9616
44.9145
45.5594
46.0614
46.3971
46.7157
47.0117
47.2516
47.4291
47.5499
47.5849
47.4674
47.105
46.9411
46.5253
46.4695
46.3222
46.1744
46.166
12.7708
6.32142
3.14917
10.7959
15.3935
17.1293
7.6469
11.8979
12.9021
12.8311
11.526
31.2823
36.5416
38.9445
40.305
42.3679
43.5871
44.411
44.887
45.0657
45.0969
45.0178
44.6147
44.1507
43.3802
43.8781
44.0195
44.0731
44.2347
44.3179
44.2993
44.3862
7.47621
9.11976
9.55001
2.93411
11.1996
13.6538
19.1258
18.8387
5.99203
8.64779
4.24592
17.3338
23.9807
33.8832
39.3307
40.2141
41.0883
41.6493
42.1066
42.5186
42.7969
43.0252
42.7578
42.5288
41.8032
40.9408
39.2153
37.624
35.9405
34.4759
32.8646
32.0823
7.33939
13.5215
14.4523
14.1869
15.3633
16.6055
18.2968
18.7899
13.0951
11.3563
9.01326
6.7774
15.6857
14.7325
12.645
26.8806
31.7658
34.3134
35.3238
34.6399
33.6084
31.434
27.9397
23.3633
12.706
13.902
7.29498
8.24952
18.528
19.9241
14.3002
9.67847
9.49857
18.8064
21.6735
23.252
24.1316
24.5271
24.3957
23.0591
18.7765
7.21907
5.2682
14.8751
6.64871
14.7498
14.5193
13.3132
10.7231
15.949
18.9128
7.62331
10.8224
12.7165
18.4002
9.09104
12.8772
17.2678
12.4028
16.906
10.0395
1.91496
4.65038
17.9644
9.04353
19.2235
23.0896
25.7097
27.3
27.8969
27.5029
25.9564
23.0587
19.4997
15.6011
15.1985
14.1555
9.79712
3.94759
12.7144
16.9297
16.9837
9.73917
7.21356
16.9432
17.7157
10.9835
11.071
13.2006
14.1293
9.56493
12.5213
15.136
16.6835
17.8107
18.227
8.37823
18.7252
22.8203
25.6819
27.5136
28.3036
28.048
26.8198
25.0382
23.86
24.4595
25.2786
25.713
26.486
26.1069
24.6493
23.1521
21.4025
20.0282
19.5049
20.3041
21.5962
22.682
24.2472
25.363
26.7154
28.0988
28.2533
27.96
27.4617
26.9295
26.6399
7.76423
17.9974
22.1126
24.9983
26.8874
27.7721
27.6737
26.7431
25.4483
24.437
24.0192
24.3162
25.0668
26.093
27.9072
29.0089
29.338
29.4182
29.4682
29.5699
29.6765
29.8741
30.2482
30.575
30.7571
30.5096
30.1574
29.7284
29.2494
28.4505
27.6757
27.2194
7.13705
17.0737
21.1032
23.9484
25.8635
26.8427
26.8867
26.0279
24.3218
21.9102
19.8789
19.2513
20.535
23.8079
27.6048
30.1556
31.3204
31.6961
31.7913
31.821
31.8967
32.0993
32.4181
32.6927
32.6111
32.3469
31.6155
30.5899
29.2347
27.5254
25.7417
24.6571
6.55392
16.152
20.0843
22.8941
24.8475
25.9341
26.1307
25.417
23.8483
21.8302
20.0962
18.6214
16.1864
14.8333
19.2789
24.4458
27.9891
30.0173
31.1087
31.6328
31.8526
31.9093
31.8745
31.6341
31.0192
30.3266
29.1342
27.5515
25.5215
23.0952
20.8348
19.4879
6.15085
15.4991
19.349
22.1232
24.1062
25.2915
25.6699
25.2787
24.3234
23.2402
22.2834
21.1307
20.1047
20.569
21.7548
23.0386
24.5697
26.1333
27.3609
28.2028
28.777
29.15
29.3497
29.2207
28.8042
28.3054
27.4417
26.1807
24.4692
22.552
21.0485
20.3007
5.76527
14.9603
18.7079
21.3847
23.3198
24.506
24.9371
24.6486
23.7749
22.4848
20.7201
18.3121
14.9251
13.1037
16.9419
21.2559
24.2024
26.1076
27.1721
27.7825
28.1555
28.4087
28.4974
28.2044
27.6297
26.959
25.8717
24.4008
22.6979
21.2218
19.97
19.2391
5.24053
14.1717
17.7666
20.3125
22.185
23.3798
23.9033
23.8135
23.2561
22.4098
21.3312
19.8482
18.3376
17.7241
17.7581
18.9803
20.9302
22.7783
24.1825
25.0964
25.6277
25.8369
25.7907
25.5432
25.1288
24.59
23.7332
22.6137
21.355
20.2833
19.4116
18.922
4.73728
13.1855
16.64
19.1533
21.0899
22.4551
23.2685
23.5931
23.51
22.985
21.7375
19.381
15.8298
14.0946
16.2474
18.8524
20.7926
22.2657
23.3614
24.1431
24.6556
24.9345
24.9843
24.7986
24.4196
23.8964
23.1186
22.1412
21.1107
20.256
19.5519
19.1329
4.5657
12.5271
15.8865
18.476
20.5702
22.1567
23.2439
23.8431
23.908
23.2416
21.6102
18.9573
16.1942
15.0164
15.9193
17.8463
19.901
21.6534
23.0036
23.9568
24.5508
24.8219
24.8098
24.5687
24.1575
23.624
22.9054
22.073
21.2279
20.5274
19.9434
19.5993
4.61689
12.168
15.5065
18.2308
20.4644
22.192
23.4071
24.0679
24.0396
23.1065
21.1981
18.3646
15.5776
15.4208
17.3812
19.4352
21.1395
22.5627
23.7029
24.5414
25.0721
25.2998
25.2374
24.9156
24.3986
23.7706
23.0214
22.2301
21.4848
20.8996
20.4241
20.15