/*--------------------------------*- C++ -*----------------------------------*\
  =========                 |
  \\      /  F ield         | OpenFOAM: The Open Source CFD Toolbox
   \\    /   O peration     | Website:  https://openfoam.org
    \\  /    A nd           | Version:  6
     \\/     M anipulation  |
\*---------------------------------------------------------------------------*/
FoamFile
{
    version     2.0;
    format      ascii;
    class       volScalarField;
    location    "1.8";
    object      k;
}
// * * * * * * * * * * * * * * * * * * * * * * * * * * * * * * * * * * * * * //

dimensions      [0 2 -2 0 0 0 0];

internalField   nonuniform List<scalar> 
63432
(
0.000502625
0.000494267
0.000505029
0.00051822
0.000518952
0.000510424
0.00050153
0.000497108
0.00048869
0.000464714
0.000441035
0.000417721
0.000429425
0.000438419
0.000451731
0.000466971
0.000478154
0.000480454
0.000474955
0.000468703
0.000465563
0.000457031
0.000445169
0.000425097
0.000371672
0.000376378
0.000383284
0.000393272
0.000406968
0.000422346
0.000435292
0.00044036
0.000438118
0.00043572
0.000430455
0.000427737
0.000418617
0.000318764
0.000324077
0.000330249
0.00033873
0.000350857
0.000365839
0.000382505
0.000397157
0.00040441
0.00040805
0.000405904
0.000405095
0.00040415
0.000269512
0.000276403
0.000284192
0.000293099
0.000304295
0.000317911
0.000333786
0.0003515
0.000366257
0.000378313
0.000383755
0.000386119
0.000389615
0.000217156
0.000224525
0.000233151
0.000242877
0.000253247
0.000264814
0.000277828
0.000292338
0.000309342
0.000326059
0.000343308
0.000356521
0.00036534
0.000374888
0.000177324
0.000185289
0.000194675
0.000205526
0.000217225
0.000229838
0.000243535
0.000257648
0.000273889
0.000290059
0.000308058
0.000325526
0.000339293
0.000356456
0.000143672
0.000151706
0.000161121
0.000172112
0.000184514
0.000197814
0.000212658
0.000227477
0.00024391
0.000260232
0.000277378
0.000296222
0.000311314
0.000333856
0.000109144
0.00011546
0.000123174
0.000132366
0.000142895
0.000155279
0.000168696
0.000184025
0.000199936
0.000217038
0.000234722
0.00025194
0.000271671
0.000286804
0.000311027
8.55619e-05
9.1756e-05
9.90552e-05
0.000107873
0.000117907
0.00012976
0.000142971
0.000158031
0.000174512
0.000192182
0.000211297
0.00022983
0.000251062
0.000267608
0.000292051
6.63152e-05
7.21481e-05
7.90568e-05
8.73728e-05
9.69698e-05
0.000108217
0.000120997
0.000135571
0.000151904
0.000169735
0.000189546
0.000209422
0.000232347
0.000251487
0.000277114
5.13222e-05
5.66211e-05
6.30833e-05
7.09396e-05
8.01028e-05
9.08919e-05
0.00010322
0.000117334
0.000133293
0.000150859
0.000170779
0.000191176
0.000215227
0.000236461
0.000264032
3.80289e-05
4.12496e-05
4.58783e-05
5.17856e-05
5.91658e-05
6.7947e-05
7.83552e-05
9.04132e-05
0.000104162
0.000119912
0.000137138
0.000156984
0.000177371
0.000201812
0.000224048
0.00025268
3.627e-05
3.84788e-05
4.22126e-05
4.74108e-05
5.41766e-05
6.25566e-05
7.25978e-05
8.44825e-05
9.80275e-05
0.000113732
0.000130864
0.000150734
0.000171188
0.000195702
0.000218617
0.000246829
5.03075e-05
5.01445e-05
5.18611e-05
5.54417e-05
6.09097e-05
6.83434e-05
7.76911e-05
8.91616e-05
0.00010249
0.000118181
0.000135455
0.000155562
0.000176423
0.00020108
0.000224964
0.000252061
9.93106e-05
9.27859e-05
8.92722e-05
8.8616e-05
9.06995e-05
9.54933e-05
0.00010284
0.000112867
0.000125183
0.000140224
0.000157106
0.000176987
0.000197824
0.000222198
0.000246509
0.000272291
0.000212379
0.000194693
0.000181291
0.000172203
0.000167128
0.000165838
0.000167908
0.000173392
0.000181691
0.000193238
0.000206912
0.000223854
0.000241913
0.000263533
0.000285427
0.000308388
0.00039158
0.000371801
0.00035236
0.000334786
0.00031996
0.000308496
0.000300242
0.000295558
0.000293811
0.000295628
0.000299812
0.00030762
0.000316852
0.000330115
0.000344078
0.000360219
0.000596762
0.000600271
0.000593097
0.000576837
0.000555025
0.000531365
0.00050798
0.00048658
0.000467315
0.000451168
0.000437425
0.000427562
0.000420013
0.000417535
0.000417207
0.000421521
0.000739654
0.000774408
0.000788979
0.000781939
0.000758399
0.00072557
0.00068893
0.000652161
0.00061671
0.000583846
0.000553522
0.000527159
0.000504144
0.000487015
0.000473868
0.000467491
0.00126379
0.00125471
0.00123919
0.00121978
0.00120071
0.00118578
0.00117428
0.00116494
0.00115459
0.00113966
0.00112651
0.00111056
0.00126223
0.00124489
0.00122576
0.00120819
0.00119275
0.00117944
0.00116739
0.00115658
0.00114755
0.00113561
0.00112546
0.00111129
0.00127209
0.00124963
0.00122749
0.00120823
0.00119273
0.00118
0.00116957
0.00115979
0.00114904
0.00114069
0.00112948
0.0011216
0.0011107
0.00125469
0.00123043
0.00120864
0.00119032
0.00117606
0.00116466
0.00115566
0.001149
0.00114038
0.00113365
0.0011237
0.00111611
0.00110809
0.00122826
0.00120616
0.00118697
0.0011703
0.00115681
0.0011464
0.00113808
0.00113321
0.00112739
0.0011233
0.00111604
0.0011095
0.00110384
0.00121554
0.00119361
0.00117509
0.00115937
0.00114552
0.00113393
0.00112494
0.00111763
0.00111389
0.00110979
0.00110831
0.00110437
0.00109997
0.00109761
0.00116931
0.00115082
0.00113571
0.00112386
0.0011137
0.00110539
0.00109931
0.00109376
0.00109176
0.00108904
0.00108914
0.00108841
0.00108603
0.0010881
0.0011115
0.00109734
0.00108625
0.00107859
0.00107328
0.00106899
0.00106748
0.00106516
0.00106587
0.0010657
0.00106697
0.00106928
0.00106819
0.00107468
0.00105381
0.00104032
0.00103124
0.00102581
0.00102279
0.00102324
0.00102393
0.00102759
0.00103041
0.00103472
0.00103887
0.00104214
0.00104782
0.00104806
0.00105804
0.000958706
0.000953199
0.000950846
0.000952627
0.000956015
0.000962753
0.000969963
0.000979118
0.000988344
0.00099746
0.00100704
0.00101405
0.00102382
0.0010266
0.00103948
0.000847419
0.000850807
0.000857112
0.000867097
0.000878666
0.000892686
0.00090742
0.000923171
0.00093916
0.000954306
0.00096987
0.00098201
0.000996762
0.00100351
0.00101981
0.000727673
0.000739324
0.000754683
0.000773714
0.000794185
0.000816646
0.000839418
0.00086258
0.000885641
0.000907118
0.000929006
0.000946598
0.000966914
0.000978389
0.000998971
0.000613978
0.000620612
0.000636588
0.000658046
0.000684244
0.000712534
0.000742646
0.000773255
0.000803343
0.000833403
0.000860707
0.000888583
0.000911158
0.000936644
0.000952673
0.000977347
0.000569756
0.000568929
0.000580028
0.000599653
0.000625963
0.00065671
0.000689929
0.000724869
0.000759001
0.000793567
0.000824759
0.000856621
0.000882692
0.000911545
0.000931187
0.000958031
0.000658709
0.000633985
0.000623945
0.000626479
0.000639242
0.000660167
0.000686368
0.00071688
0.00074835
0.000781644
0.000812496
0.000844489
0.000871362
0.000900535
0.000922039
0.000947976
0.00089781
0.000835298
0.000791444
0.00076384
0.000750193
0.000748682
0.000756328
0.000771708
0.000791119
0.000814748
0.000838251
0.00086418
0.000886919
0.000911894
0.000931688
0.000953564
0.00119738
0.00109638
0.00102107
0.000966984
0.000929733
0.000906151
0.000892925
0.000888748
0.000890291
0.00089761
0.000906901
0.000920046
0.000932489
0.000947968
0.000961085
0.00097578
0.00143046
0.00130638
0.00121252
0.00114359
0.00109388
0.00105888
0.00103433
0.00101817
0.00100741
0.00100187
0.000998686
0.000999028
0.000999695
0.00100333
0.00100643
0.00101149
0.00159729
0.00145921
0.0013522
0.00127096
0.00121027
0.00116585
0.00113387
0.00111181
0.00109662
0.00108675
0.00107931
0.00107387
0.00106791
0.00106287
0.00105695
0.00105255
0.00170066
0.00155401
0.00143743
0.00134595
0.00127525
0.00122194
0.00118305
0.00115617
0.00113848
0.00112757
0.00112019
0.00111442
0.00110761
0.00109987
0.00109009
0.00108069
0.00146789
0.00144471
0.00142087
0.0013926
0.00136057
0.00133182
0.00130881
0.00129121
0.00127381
0.00125156
0.001233
0.00121005
0.00146441
0.00143811
0.00141196
0.00138565
0.00135842
0.00133212
0.00130783
0.0012872
0.00127119
0.00125211
0.00123713
0.0012153
0.00149178
0.00145985
0.00142822
0.0013989
0.00137293
0.00134889
0.00132686
0.00130574
0.00128407
0.00126782
0.00124847
0.00123578
0.00121769
0.00148435
0.00145033
0.00141672
0.0013857
0.0013594
0.00133649
0.00131618
0.00129933
0.00127989
0.00126494
0.00124607
0.00123271
0.00121747
0.00147106
0.00143651
0.00140358
0.00137274
0.00134578
0.00132304
0.0013026
0.00128741
0.00127086
0.00125854
0.00124226
0.00122937
0.00121607
0.0014865
0.00145029
0.0014167
0.00138575
0.00135679
0.00133058
0.00130814
0.00128755
0.00127253
0.00125693
0.0012467
0.00123356
0.00122245
0.00121258
0.00146088
0.0014241
0.00139093
0.00136184
0.00133503
0.00131074
0.00129009
0.00126998
0.00125568
0.00124035
0.00123054
0.00122005
0.00120991
0.00120481
0.00142645
0.00139024
0.00135772
0.00132991
0.00130575
0.00128333
0.00126589
0.00124762
0.0012349
0.00122132
0.0012113
0.00120333
0.001193
0.00119222
0.00142382
0.00138238
0.00134673
0.00131605
0.00128903
0.00126779
0.00124755
0.00123311
0.00121846
0.00120769
0.0011978
0.00118846
0.00118353
0.00117335
0.00117572
0.00136297
0.00132406
0.00128986
0.00126215
0.00123749
0.00121905
0.00120252
0.00119075
0.00118076
0.0011728
0.00116739
0.00116058
0.00115933
0.00115095
0.00115609
0.00128596
0.00124929
0.00121802
0.00119363
0.00117309
0.00115823
0.00114645
0.00113859
0.00113349
0.00112978
0.00112923
0.00112646
0.00112974
0.00112476
0.00113339
0.00119492
0.00115927
0.00113129
0.00111119
0.00109573
0.00108606
0.0010798
0.00107723
0.00107769
0.00107899
0.00108406
0.001086
0.0010947
0.00109411
0.00110722
0.00116146
0.00110607
0.00106757
0.00104005
0.00102273
0.00101181
0.00100718
0.00100705
0.00101
0.00101681
0.00102334
0.00103444
0.00104125
0.00105556
0.00105975
0.00107752
0.00114105
0.00106758
0.00101549
0.000979651
0.000957441
0.000945584
0.00094148
0.000944279
0.000950304
0.000961499
0.000971965
0.000987691
0.000998668
0.00101729
0.00102616
0.00104713
0.00127712
0.00116438
0.00107721
0.00101278
0.000967895
0.000939672
0.000923954
0.000919565
0.000921405
0.000930869
0.000941203
0.000957739
0.000970648
0.000990601
0.00100296
0.00102405
0.00159404
0.00142309
0.00128301
0.00117252
0.00108881
0.00102899
0.000988197
0.000964147
0.000951085
0.000949236
0.000951631
0.000961907
0.000971314
0.000987441
0.000999496
0.00101703
0.00196105
0.00174003
0.00155581
0.00140629
0.00128788
0.00119707
0.00112877
0.00108035
0.00104598
0.0010251
0.00101158
0.00100775
0.00100657
0.0010128
0.00101892
0.00102923
0.00221394
0.00197283
0.00177048
0.00160398
0.00146893
0.00136121
0.00127591
0.00121032
0.0011599
0.00112363
0.00109657
0.00107944
0.00106697
0.00106156
0.00105845
0.00105902
0.00240522
0.00215013
0.00193417
0.00175366
0.00160446
0.00148288
0.00138509
0.00130846
0.00124936
0.0012057
0.00117312
0.00115001
0.00113183
0.0011186
0.00110732
0.00109862
0.00254082
0.00227261
0.0020432
0.00184886
0.00168616
0.00155225
0.0014443
0.00135985
0.00129564
0.00124865
0.00121453
0.0011901
0.00117084
0.00115516
0.00114026
0.00112695
0.00157103
0.00154051
0.00151241
0.00148062
0.00144237
0.00140507
0.00137339
0.00134863
0.00132505
0.00129766
0.00127557
0.00124816
0.00157018
0.00153834
0.00150927
0.00148015
0.00144741
0.00141299
0.00137942
0.00135065
0.00132851
0.00130369
0.00128533
0.00125755
0.00161117
0.00157385
0.00153793
0.00150462
0.00147446
0.00144459
0.00141498
0.00138514
0.00135428
0.00133115
0.00130486
0.00128856
0.00126401
0.00161242
0.0015748
0.00153669
0.00149995
0.00146762
0.00143814
0.00141016
0.00138545
0.00135678
0.00133447
0.00130757
0.00128967
0.0012674
0.00161152
0.00157277
0.00153419
0.00149625
0.00146157
0.00143128
0.00140242
0.00137945
0.00135379
0.00133411
0.0013093
0.0012912
0.00127001
0.00164489
0.00160405
0.00156471
0.00152686
0.00148998
0.00145498
0.00142404
0.00139408
0.00137068
0.00134549
0.00132768
0.00130564
0.00128892
0.00127081
0.0016373
0.00159313
0.00155188
0.00151423
0.0014784
0.00144441
0.00141444
0.00138402
0.00136062
0.00133488
0.00131673
0.00129678
0.00128012
0.00126673
0.00162234
0.00157606
0.00153297
0.00149456
0.00145991
0.00142644
0.00139886
0.00136935
0.00134674
0.00132216
0.00130276
0.00128484
0.00126668
0.00125721
0.00165512
0.00160056
0.00155173
0.00150785
0.00146752
0.00143382
0.0014006
0.00137456
0.00134765
0.00132584
0.00130446
0.00128472
0.00126942
0.00125035
0.00124344
0.00162203
0.00156646
0.00151565
0.00147192
0.00143109
0.00139771
0.00136609
0.00134058
0.00131696
0.00129641
0.00127871
0.00126046
0.00124833
0.00123021
0.00122576
0.00157678
0.00151845
0.00146626
0.00142215
0.00138225
0.00134941
0.00132018
0.00129619
0.0012757
0.00125771
0.00124371
0.00122835
0.00122011
0.0012045
0.00120347
0.00152112
0.00145698
0.00140258
0.00135819
0.0013196
0.00128856
0.00126211
0.00124091
0.00122402
0.00120925
0.00119965
0.00118777
0.00118439
0.00117224
0.00117575
0.00157042
0.00147202
0.0013961
0.00133483
0.0012872
0.0012483
0.00121823
0.00119472
0.00117633
0.00116384
0.00115255
0.00114798
0.00113992
0.00114182
0.00113381
0.00114216
0.00160606
0.00147848
0.0013789
0.00130065
0.00124067
0.0011948
0.00116012
0.00113557
0.00111691
0.00110642
0.00109708
0.00109593
0.00109104
0.00109686
0.0010932
0.00110489
0.00181086
0.0016336
0.00148784
0.00137032
0.0012777
0.00120694
0.00115336
0.00111579
0.00108826
0.00107256
0.0010605
0.0010584
0.00105437
0.0010608
0.00106051
0.00107234
0.00219135
0.00194936
0.00174297
0.00157114
0.00143131
0.00132075
0.00123458
0.00117089
0.00112311
0.00109171
0.0010683
0.00105714
0.00104774
0.00104873
0.00104755
0.00105516
0.00259103
0.00229864
0.00204687
0.00183419
0.00165733
0.00151302
0.00139601
0.00130376
0.00123018
0.00117502
0.00113145
0.00110213
0.00107916
0.00106757
0.00105922
0.00105824
0.00283782
0.00253318
0.00226938
0.00204399
0.00185301
0.00169257
0.00155787
0.00144652
0.00135413
0.00128013
0.00121982
0.00117413
0.00113775
0.0011125
0.00109398
0.00108188
0.00304176
0.00272448
0.00244838
0.00220996
0.00200518
0.00183045
0.00168211
0.00155788
0.00145469
0.00137099
0.00130306
0.00124938
0.00120577
0.00117125
0.00114333
0.0011206
0.00320524
0.00287053
0.00257786
0.00232328
0.00210319
0.0019147
0.00175506
0.0016221
0.00151291
0.00142496
0.00135429
0.00129795
0.00125157
0.00121311
0.00117978
0.00115116
0.00160851
0.00157957
0.00155335
0.00152384
0.0014858
0.00144536
0.00140851
0.0013784
0.00134968
0.00131852
0.00129354
0.0012633
0.00161543
0.00158402
0.00155636
0.00152926
0.00149689
0.00145977
0.00142072
0.00138604
0.00135885
0.0013296
0.0013087
0.00127622
0.00166434
0.00162812
0.00159292
0.00156037
0.00153114
0.0015009
0.00146878
0.001434
0.00139658
0.00136791
0.00133601
0.00131721
0.00128709
0.0016745
0.00163886
0.00160196
0.00156518
0.00153223
0.00150135
0.00147035
0.00144143
0.00140627
0.0013782
0.00134447
0.00132331
0.00129473
0.00168552
0.00164866
0.00161079
0.00157186
0.00153494
0.00150201
0.00146911
0.0014419
0.00140989
0.0013847
0.00135249
0.00133049
0.00130199
0.00172971
0.00169103
0.00165284
0.00161475
0.00157618
0.00153785
0.00150321
0.00146808
0.00143982
0.00140784
0.00138456
0.0013548
0.00133391
0.00130791
0.00174022
0.00169619
0.00165407
0.00161451
0.0015758
0.00153748
0.00150295
0.00146634
0.00143731
0.00140397
0.00137977
0.00135163
0.00133008
0.00130866
0.00174545
0.00169702
0.00165074
0.00160837
0.00156933
0.00153018
0.00149718
0.00146056
0.00143155
0.0013987
0.00137236
0.0013457
0.00132152
0.00130354
0.00180681
0.00174788
0.00169386
0.00164408
0.00159706
0.0015569
0.00151606
0.00148314
0.00144805
0.0014188
0.00138858
0.00136099
0.00133645
0.00131034
0.00129417
0.00180431
0.00174074
0.00168134
0.00162889
0.00157852
0.00153615
0.00149473
0.0014602
0.00142693
0.00139742
0.00136999
0.00134288
0.0013209
0.00129486
0.00128064
0.00179635
0.00172445
0.00165904
0.00160235
0.00154955
0.00150455
0.00146298
0.00142744
0.00139534
0.00136655
0.00134149
0.001316
0.00129712
0.00127253
0.00126148
0.0017849
0.00169939
0.0016256
0.00156359
0.00150799
0.00146111
0.00141927
0.00138373
0.0013529
0.0013252
0.00130293
0.00127938
0.00126445
0.00124207
0.00123534
0.00192561
0.0017892
0.00168141
0.00159218
0.00151992
0.00145839
0.00140776
0.00136507
0.00132909
0.00130015
0.00127364
0.00125482
0.00123347
0.00122301
0.00120353
0.00120144
0.00203037
0.0018532
0.0017113
0.00159602
0.00150356
0.00142854
0.00136767
0.00131937
0.00127915
0.00124912
0.00122182
0.00120447
0.00118447
0.00117682
0.00116051
0.0011614
0.00230453
0.00206999
0.00187332
0.0017103
0.00157699
0.00146967
0.00138315
0.00131599
0.00126177
0.00122234
0.00118882
0.00116779
0.0011465
0.00113784
0.00112363
0.00112389
0.00273509
0.00243474
0.00217433
0.00195256
0.00176678
0.00161422
0.00148978
0.00139147
0.00131235
0.00125287
0.00120411
0.00117041
0.00114074
0.00112388
0.0011068
0.00110111
0.00314504
0.00279886
0.00249652
0.00223659
0.00201572
0.00183033
0.00167489
0.00154666
0.00143939
0.00135278
0.00128003
0.00122381
0.00117661
0.00114322
0.00111622
0.00109924
0.00336769
0.00302031
0.00271481
0.00244916
0.00221952
0.00202192
0.00185133
0.00170501
0.00157865
0.00147162
0.00137997
0.0013045
0.00124125
0.00119113
0.00115173
0.00112089
0.00357841
0.00321983
0.00290352
0.00262622
0.00238393
0.00217287
0.00198921
0.00183042
0.00169352
0.00157682
0.00147726
0.00139308
0.00132136
0.00126014
0.00120901
0.0011647
0.00376952
0.00338772
0.00305081
0.00275457
0.00249512
0.00226922
0.00207385
0.00190656
0.00176433
0.00164435
0.00154276
0.00145635
0.00138125
0.00131507
0.00125617
0.00120366
0.00158763
0.00156675
0.00154799
0.00152614
0.00149445
0.00145675
0.00141934
0.0013869
0.00135501
0.0013219
0.00129497
0.00126365
0.00160377
0.00157926
0.00155769
0.00153697
0.00151033
0.00147631
0.0014367
0.0013996
0.00136929
0.0013375
0.00131508
0.00127948
0.00165351
0.0016261
0.00159743
0.00157027
0.00154627
0.00152058
0.00149128
0.00145637
0.00141628
0.00138433
0.00134877
0.00132881
0.00129447
0.00167272
0.00164574
0.00161584
0.00158428
0.00155559
0.00152815
0.00149911
0.00147039
0.00143267
0.00140147
0.00136292
0.00134013
0.00130653
0.00169538
0.00166666
0.00163552
0.00160139
0.00156756
0.00153691
0.00150471
0.00147745
0.00144284
0.00141497
0.00137741
0.00135325
0.00131871
0.00174246
0.00171288
0.00168241
0.00165052
0.00161642
0.00158037
0.0015471
0.00151146
0.00148245
0.0014473
0.00142148
0.00138609
0.00136292
0.00133023
0.00177056
0.00173401
0.00169801
0.00166308
0.00162774
0.00159074
0.00155678
0.0015186
0.00148802
0.00145061
0.00142344
0.00138921
0.00136485
0.00133653
0.00179551
0.00175292
0.00171088
0.0016713
0.00163413
0.00159497
0.00156164
0.00152252
0.0014912
0.00145351
0.00142338
0.00139011
0.00136213
0.00133674
0.00187777
0.00182345
0.00177243
0.00172425
0.00167732
0.00163685
0.00159399
0.00155922
0.00152046
0.00148787
0.00145217
0.00141994
0.00138824
0.0013574
0.00133302
0.00190839
0.00184569
0.00178594
0.00173227
0.00167909
0.00163382
0.00158807
0.00154947
0.00151087
0.00147649
0.00144258
0.00140983
0.00138003
0.00134843
0.00132537
0.00194406
0.00186649
0.00179546
0.00173328
0.00167399
0.00162264
0.00157391
0.00153156
0.00149193
0.00145626
0.0014232
0.00139074
0.00136313
0.00133188
0.00131156
0.00198682
0.00188632
0.00179959
0.0017262
0.00165941
0.00160202
0.00154954
0.00150404
0.001463
0.00142598
0.00139378
0.00136144
0.00133664
0.00130617
0.00128975
0.00223173
0.00206054
0.00192482
0.00181204
0.00171976
0.00164012
0.00157327
0.00151532
0.00146549
0.00142324
0.00138466
0.0013539
0.00132176
0.00130024
0.0012711
0.00125882
0.00242384
0.00219859
0.00201656
0.00186699
0.00174515
0.00164421
0.00156044
0.00149143
0.00143265
0.00138559
0.00134289
0.00131113
0.001278
0.00125776
0.00123006
0.00121999
0.00277485
0.00248544
0.00224081
0.00203551
0.00186486
0.00172419
0.00160784
0.00151381
0.00143545
0.00137428
0.00132126
0.00128253
0.00124531
0.00122189
0.00119434
0.0011823
0.00324862
0.00289565
0.00258679
0.00232049
0.00209402
0.00190433
0.00174609
0.00161695
0.00150978
0.00142465
0.0013526
0.00129742
0.00124834
0.00121336
0.00118008
0.00115954
0.0036528
0.00326276
0.00291898
0.00262003
0.00236273
0.0021433
0.00195603
0.00179771
0.00166195
0.00154791
0.00144914
0.00136763
0.00129704
0.00124109
0.00119423
0.00115871
0.00383886
0.00346186
0.00312624
0.00283063
0.00257171
0.00234555
0.00214712
0.00197318
0.00181953
0.00168498
0.00156644
0.00146386
0.00137521
0.00129963
0.00123785
0.00118498
0.00405978
0.00367132
0.00332509
0.00301837
0.00274743
0.0025085
0.00229769
0.00211214
0.00194897
0.00180598
0.00168073
0.00157047
0.00147371
0.00138658
0.00131135
0.00124216
0.00428486
0.00386432
0.00349123
0.00316125
0.00287028
0.0026148
0.00239155
0.00219779
0.00203031
0.00188586
0.00176042
0.00165
0.00155087
0.00145954
0.0013753
0.00129638
0.00151916
0.00150881
0.00150017
0.00148904
0.00146804
0.00143819
0.00140505
0.00137411
0.00134198
0.00130935
0.00128184
0.00125127
0.00154092
0.00152745
0.00151532
0.00150392
0.00148698
0.00146115
0.00142619
0.001391
0.00136043
0.00132861
0.00130611
0.00126932
0.00158396
0.00157056
0.00155308
0.00153512
0.00151959
0.00150215
0.0014804
0.0014504
0.0014124
0.00138038
0.00134386
0.0013244
0.00128772
0.0016089
0.00159616
0.00157832
0.00155651
0.00153611
0.00151607
0.00149351
0.00146964
0.00143409
0.00140335
0.00136288
0.00134049
0.0013038
0.00164077
0.00162576
0.00160665
0.00158245
0.0015565
0.00153255
0.00150561
0.0014827
0.00144993
0.00142308
0.00138322
0.00135916
0.00132061
0.00168125
0.00166717
0.00165044
0.00163054
0.00160664
0.00157829
0.00155136
0.00151999
0.00149464
0.00146057
0.00143594
0.001398
0.00137498
0.00133761
0.00172421
0.00170205
0.00167871
0.00165463
0.00162876
0.0015988
0.0015707
0.00153593
0.00150835
0.00147107
0.0014447
0.00140746
0.00138294
0.00134968
0.0017653
0.00173656
0.00170626
0.00167631
0.00164751
0.00161435
0.0015862
0.00154968
0.00152072
0.0014824
0.00145234
0.00141551
0.00138654
0.00135572
0.00185731
0.00181703
0.00177774
0.00173927
0.00169974
0.00166569
0.00162697
0.00159593
0.00155862
0.00152747
0.00149044
0.00145752
0.0014217
0.00138909
0.00135841
0.0019198
0.001868
0.00181725
0.00177098
0.00172271
0.00168152
0.0016377
0.00160072
0.00156186
0.00152739
0.00149107
0.00145666
0.00142204
0.00138792
0.00135785
0.00200296
0.00192909
0.00186149
0.00180232
0.00174422
0.00169346
0.0016437
0.00160015
0.00155789
0.00152
0.00148289
0.00144735
0.0014139
0.00137907
0.00135119
0.00210839
0.00200091
0.00190927
0.00183229
0.00176152
0.00170019
0.00164291
0.0015928
0.00154615
0.00150422
0.00146572
0.00142829
0.00139626
0.00136065
0.00133604
0.00246832
0.00226785
0.00210987
0.00197945
0.00187311
0.00178113
0.0017035
0.00163521
0.00157614
0.00152457
0.00147781
0.00143827
0.00139866
0.0013684
0.0013323
0.00131105
0.00276777
0.00249882
0.00228062
0.00210066
0.00195346
0.00183056
0.00172786
0.0016418
0.00156806
0.00150712
0.0014522
0.00140862
0.00136514
0.00133419
0.00129741
0.00127722
0.00320638
0.00286736
0.00257939
0.0023359
0.00213173
0.00196118
0.00181826
0.00170022
0.00160048
0.00151989
0.00144974
0.00139518
0.00134416
0.0013073
0.00126821
0.00124417
0.00372018
0.00332274
0.00297257
0.00266794
0.00240618
0.00218399
0.00199604
0.00183954
0.00170741
0.00159911
0.00150607
0.00143102
0.00136418
0.00131186
0.00126344
0.00122762
0.00410978
0.00368757
0.00331236
0.00298281
0.00269621
0.00244883
0.00223517
0.00205149
0.00189154
0.00175354
0.00163178
0.00152698
0.00143466
0.00135655
0.00129025
0.00123491
0.0042597
0.00386663
0.00351203
0.00319557
0.00291497
0.00266667
0.00244604
0.00224944
0.00207307
0.00191488
0.00177297
0.00164581
0.00153398
0.00143373
0.00135014
0.00127377
0.00451058
0.00410063
0.00373164
0.00340166
0.00310753
0.0028456
0.00261215
0.00240407
0.00221876
0.00205344
0.00190647
0.00177373
0.00165542
0.00154485
0.0014474
0.00135311
0.00478476
0.0043286
0.00392256
0.00356215
0.00324306
0.00296147
0.00271392
0.00249738
0.0023086
0.00214385
0.00199907
0.00186925
0.00175074
0.00163838
0.0015321
0.00142827
0.0014205
0.00141958
0.00142032
0.00141958
0.00141042
0.0013911
0.0013659
0.0013402
0.00131126
0.00128186
0.00125547
0.00122744
0.00144188
0.00143975
0.00143761
0.00143594
0.00142999
0.00141521
0.00138899
0.00135987
0.00133234
0.00130345
0.00128264
0.00124679
0.00147296
0.00147376
0.0014687
0.00146143
0.00145551
0.00144786
0.00143646
0.00141531
0.00138402
0.00135554
0.00132129
0.00130428
0.00126755
0.00149706
0.00149992
0.00149618
0.00148649
0.00147657
0.00146606
0.00145295
0.00143758
0.00140879
0.00138247
0.00134365
0.001324
0.00128668
0.00153258
0.00153334
0.00152888
0.00151762
0.0015027
0.00148838
0.00147008
0.00145511
0.0014285
0.00140671
0.00136832
0.00134706
0.00130721
0.0015576
0.00156156
0.00156159
0.00155713
0.00154722
0.00153061
0.00151386
0.00149073
0.00147293
0.00144417
0.00142474
0.00138804
0.00136809
0.00132886
0.00160862
0.00160456
0.00159789
0.00158888
0.00157695
0.0015587
0.001541
0.00151417
0.00149389
0.00146108
0.00143962
0.00140317
0.0013816
0.00134619
0.00165737
0.001648
0.00163506
0.00162018
0.00160518
0.00158336
0.00156549
0.00153658
0.00151471
0.00148027
0.00145458
0.00141804
0.00139143
0.00135793
0.00174504
0.00172573
0.00170523
0.00168347
0.00165796
0.00163663
0.00160804
0.00158631
0.00155575
0.00153109
0.00149741
0.00146829
0.00143225
0.00140145
0.00136723
0.00183028
0.00179829
0.00176538
0.00173503
0.00169958
0.00166973
0.00163453
0.00160531
0.00157174
0.0015425
0.00150855
0.00147711
0.00144158
0.00140872
0.00137435
0.00195687
0.00189648
0.00184202
0.00179527
0.00174706
0.00170483
0.00166119
0.00162295
0.0015838
0.00154912
0.00151275
0.00147881
0.00144337
0.00140885
0.00137602
0.00212574
0.00202128
0.00193463
0.00186368
0.00179793
0.00174095
0.00168622
0.00163819
0.00159174
0.00155034
0.00151021
0.00147228
0.00143667
0.00139978
0.0013694
0.00259929
0.00238061
0.00220998
0.00207092
0.00195917
0.001863
0.00178219
0.00171033
0.00164825
0.00159272
0.00154289
0.00149886
0.00145608
0.00142039
0.00138102
0.00135291
0.00301815
0.00271871
0.00247429
0.00227223
0.00210705
0.00196892
0.00185354
0.001756
0.0016725
0.00160218
0.00153941
0.00148765
0.00143761
0.00139874
0.00135625
0.00132758
0.00354967
0.00317686
0.00285777
0.00258587
0.00235627
0.00216264
0.00199901
0.00186189
0.00174509
0.00164865
0.00156476
0.00149708
0.00143519
0.00138696
0.00133911
0.00130408
0.00410054
0.00367718
0.003301
0.00297056
0.00268381
0.00243748
0.00222669
0.00204832
0.00189581
0.00176786
0.00165691
0.00156417
0.0014818
0.00141334
0.00135168
0.00130064
0.00447913
0.00404514
0.00365541
0.00330903
0.00300427
0.00273792
0.00250524
0.00230214
0.00212299
0.00196486
0.00182337
0.00169731
0.00158513
0.00148532
0.00140059
0.00132446
0.00462021
0.00422871
0.00386939
0.00354343
0.0032501
0.00298673
0.00274963
0.00253499
0.00233978
0.00216095
0.00199834
0.00184831
0.00171503
0.00159061
0.00148619
0.00138532
0.00494741
0.00452261
0.00413653
0.00378808
0.00347478
0.00319324
0.00294007
0.00271197
0.00250682
0.00232124
0.00215473
0.00200152
0.00186399
0.00173185
0.00161433
0.00149568
0.00529685
0.00480398
0.00436465
0.00397406
0.00362753
0.00332081
0.00305017
0.00281227
0.00260383
0.00242071
0.00225894
0.00211238
0.00197762
0.00184745
0.00172242
0.00159628
0.00131239
0.00131755
0.00132451
0.00133109
0.00133162
0.00132234
0.0013062
0.00128806
0.00126527
0.00124162
0.00121807
0.00119409
0.00132871
0.00133474
0.00134022
0.00134596
0.00134921
0.00134514
0.00132913
0.00130865
0.00128695
0.0012637
0.00124637
0.00121356
0.00134731
0.00135776
0.00136226
0.00136391
0.00136609
0.00136699
0.00136574
0.00135489
0.00133328
0.00131132
0.00128237
0.0012697
0.00123534
0.00136468
0.00137894
0.00138678
0.00138798
0.00138786
0.00138637
0.001383
0.00137744
0.00135838
0.00133976
0.00130604
0.00129135
0.00125613
0.00139747
0.00141036
0.00141846
0.00141937
0.0014156
0.00141123
0.00140256
0.00139704
0.00137943
0.00136596
0.00133277
0.00131692
0.00127887
0.00140418
0.00142158
0.00143552
0.00144511
0.001449
0.00144506
0.00143974
0.00142671
0.00141854
0.00139804
0.00138703
0.00135539
0.00134134
0.00130359
0.00145401
0.0014647
0.00147295
0.0014785
0.0014811
0.00147615
0.00147093
0.0014547
0.00144454
0.00141954
0.0014064
0.0013746
0.00135908
0.00132486
0.00149875
0.00150713
0.00151152
0.00151268
0.00151327
0.00150538
0.00150072
0.00148282
0.00147156
0.00144483
0.00142732
0.00139506
0.00137422
0.00134142
0.0015719
0.00157151
0.00157
0.00156677
0.00155796
0.00155257
0.00153782
0.00152925
0.00150951
0.00149551
0.00146942
0.00144837
0.00141627
0.00139106
0.00135674
0.00166248
0.00165121
0.00163895
0.00162868
0.00161084
0.00159735
0.00157588
0.00155943
0.00153601
0.0015168
0.0014899
0.00146607
0.00143395
0.0014065
0.00137129
0.00181577
0.00177296
0.00173717
0.00170935
0.00167791
0.00165102
0.00161996
0.00159318
0.0015628
0.00153675
0.00150614
0.00147877
0.00144579
0.00141597
0.00138164
0.00203287
0.00193938
0.00186597
0.00180969
0.00175764
0.00171338
0.00166896
0.00163022
0.00159041
0.00155556
0.00151912
0.00148592
0.00145115
0.00141751
0.00138464
0.00259335
0.00237298
0.00220262
0.00206611
0.0019593
0.00186865
0.00179378
0.00172658
0.00166906
0.00161619
0.00156946
0.00152625
0.00148556
0.00144865
0.00141054
0.0013786
0.00311673
0.0028132
0.00256166
0.00235213
0.00218098
0.00203786
0.0019189
0.00181779
0.00173168
0.00165812
0.00159323
0.0015381
0.00148637
0.00144334
0.00139945
0.00136481
0.00372761
0.00335416
0.00302902
0.00274806
0.00250843
0.00230412
0.00213005
0.00198218
0.00185531
0.00174857
0.00165585
0.00157886
0.00151004
0.00145317
0.00140027
0.00135586
0.00430972
0.0038964
0.00352315
0.0031902
0.00289722
0.00264176
0.00242014
0.00222929
0.00206391
0.00192188
0.00179758
0.00169019
0.00159524
0.00151207
0.00143968
0.00137358
0.00470215
0.00429003
0.00391345
0.00357268
0.00326776
0.00299667
0.00275626
0.00254253
0.00235118
0.00217805
0.00202095
0.00187598
0.00174607
0.00162478
0.00152277
0.00142451
0.00490391
0.00453615
0.00419026
0.00386933
0.00357476
0.00330528
0.00305874
0.00283141
0.00262164
0.00242515
0.00224429
0.00207256
0.00191911
0.00177027
0.00164575
0.00151898
0.00538639
0.00495096
0.00455176
0.00418835
0.0038589
0.00356025
0.00328944
0.00304293
0.00281932
0.00261449
0.00242949
0.00225658
0.00210105
0.00194815
0.0018121
0.00166959
0.00584785
0.00531298
0.0048366
0.00441324
0.0040376
0.00370473
0.00341049
0.00315104
0.00292315
0.00272213
0.00254427
0.00238223
0.002233
0.00208701
0.00194566
0.00179942
0.00121331
0.00122043
0.00122964
0.00123938
0.00124562
0.00124336
0.00123471
0.00122412
0.00120889
0.00119239
0.00117288
0.00115389
0.00122345
0.00123265
0.00124157