/*--------------------------------*- C++ -*----------------------------------*\
  =========                 |
  \\      /  F ield         | OpenFOAM: The Open Source CFD Toolbox
   \\    /   O peration     | Website:  https://openfoam.org
    \\  /    A nd           | Version:  6
     \\/     M anipulation  |
\*---------------------------------------------------------------------------*/
FoamFile
{
    version     2.0;
    format      ascii;
    class       volScalarField;
    location    "1.8";
    object      omega;
}
// * * * * * * * * * * * * * * * * * * * * * * * * * * * * * * * * * * * * * //

dimensions      [0 0 -1 0 0 0 0];

internalField   nonuniform List<scalar> 
63432
(
843.917
843.917
843.917
843.917
843.917
843.917
843.917
843.917
843.917
843.917
843.917
843.917
843.917
843.917
843.917
843.917
843.917
843.917
843.917
843.917
843.917
843.917
843.917
843.917
843.917
843.917
843.917
843.917
843.917
843.917
843.917
843.917
843.917
843.917
843.917
843.917
843.917
843.917
843.917
843.917
843.917
843.917
843.917
843.917
843.917
843.917
843.917
843.917
843.917
843.917
843.917
843.917
843.917
843.917
843.917
843.917
843.917
843.917
843.917
843.917
843.917
843.917
843.917
843.917
843.917
843.917
843.917
843.917
843.917
843.917
843.917
843.917
843.917
843.917
843.917
843.917
843.917
843.917
843.917
843.917
843.917
843.917
843.917
843.917
843.917
843.917
843.917
843.917
843.917
843.917
843.917
843.917
843.917
843.917
843.917
843.917
843.917
843.917
843.917
843.917
843.917
843.917
843.917
843.917
843.917
843.917
843.917
843.917
843.917
843.917
843.917
843.917
843.917
843.917
843.917
843.917
843.917
843.917
843.917
843.917
843.917
843.917
843.917
843.917
843.917
843.917
843.917
843.917
843.917
843.917
843.917
843.917
843.917
843.917
843.917
843.917
843.917
843.917
843.917
843.917
843.917
843.917
843.917
843.917
843.917
843.917
843.917
843.917
843.917
843.917
843.917
843.917
843.917
843.917
843.917
843.917
843.917
843.917
843.917
843.917
843.917
843.917
843.917
843.917
843.917
843.917
843.917
843.917
843.917
843.917
843.917
843.917
843.917
843.917
843.917
843.917
843.917
843.917
843.917
843.917
843.917
843.917
843.917
843.917
843.917
843.917
843.917
843.917
843.917
843.917
843.917
843.917
843.917
843.917
843.917
843.917
843.917
843.917
843.917
843.917
843.917
843.917
843.917
843.917
843.917
843.917
843.917
843.917
843.917
843.917
843.917
843.917
843.917
843.917
843.917
843.917
843.917
843.917
843.917
843.917
843.917
843.917
843.917
843.917
843.917
843.917
843.917
843.917
843.917
843.917
843.917
843.917
843.917
843.917
843.917
843.917
843.917
843.917
843.917
843.917
843.917
843.917
843.917
843.917
843.917
843.917
843.917
843.917
843.917
843.917
843.917
843.917
843.917
843.917
843.917
843.917
843.917
843.917
843.917
843.917
843.917
843.917
843.917
843.917
843.917
843.917
843.917
843.917
843.917
843.917
843.917
843.917
843.917
843.917
843.917
843.917
843.917
843.917
843.917
843.917
843.917
843.917
843.917
843.917
843.917
843.917
843.917
843.917
843.917
843.917
843.917
843.917
843.917
269.257
267.18
265.599
264.887
264.854
265.147
265.488
265.724
265.82
265.809
265.654
265.452
267.071
265.559
264.675
264.318
264.312
264.533
264.856
265.145
265.307
265.364
265.311
265.19
267.424
265.819
264.901
264.417
264.186
264.135
264.255
264.515
264.824
265.067
265.221
265.243
265.154
266.061
264.959
264.33
263.974
263.78
263.727
263.812
264.026
264.32
264.59
264.815
264.936
264.921
264.831
263.991
263.464
263.155
263.004
263.002
263.132
263.372
263.686
263.99
264.26
264.466
264.517
264.434
263.409
262.706
262.253
262.01
261.934
262.011
262.223
262.541
262.934
263.318
263.66
263.953
264.049
262.343
261.473
260.91
260.594
260.485
260.54
260.735
261.061
261.481
261.982
262.486
262.94
263.364
263.533
259.477
258.801
258.453
258.369
258.484
258.759
259.147
259.645
260.21
260.835
261.476
262.055
262.64
262.913
256.282
255.521
255.173
255.161
255.425
255.88
256.482
257.171
257.93
258.723
259.524
260.329
261.044
261.789
262.18
250.324
250.108
250.306
250.823
251.593
252.534
253.589
254.702
255.834
256.958
258.03
259.061
259.955
260.866
261.389
242.061
242.78
243.86
245.198
246.714
248.337
250.01
251.679
253.307
254.865
256.309
257.651
258.795
259.914
260.607
231.151
233.289
235.681
238.207
240.779
243.328
245.811
248.183
250.418
252.497
254.383
256.103
257.558
258.939
259.849
214.922
218.441
222.326
226.347
230.345
234.217
237.894
241.339
244.527
247.442
250.092
252.447
254.56
256.336
257.991
259.122
202.228
207.181
212.541
217.998
223.345
228.435
233.176
237.525
241.469
245
248.149
250.899
253.331
255.361
257.227
258.539
195.323
200.925
207.077
213.4
219.578
225.409
230.783
235.653
240.017
243.882
247.29
250.241
252.826
254.977
256.931
258.337
191.896
198.059
204.971
212.086
218.976
225.377
231.146
236.245
240.708
244.584
247.956
250.849
253.367
255.458
257.346
258.719
188.195
194.771
202.41
210.453
218.327
225.616
232.091
237.682
242.424
246.4
249.733
252.508
254.858
256.772
258.47
259.682
184.771
191.296
198.951
207.201
215.513
223.463
230.742
237.171
242.679
247.282
251.06
254.095
256.53
258.406
259.954
260.986
182.867
188.85
195.889
203.624
211.664
219.653
227.286
234.335
240.634
246.093
250.684
254.416
257.356
259.544
261.18
262.197
181.792
187.299
193.847
201.156
208.909
216.784
224.48
231.75
238.409
244.334
249.452
253.725
257.153
259.739
261.611
262.788
137.224
135.282
133.544
132.243
131.422
131.013
130.868
130.829
130.758
130.576
130.265
129.911
135.815
134.094
132.705
131.659
130.952
130.56
130.398
130.346
130.294
130.177
129.979
129.695
136.775
134.854
133.339
132.162
131.261
130.614
130.222
130.043
129.991
129.974
129.914
129.799
129.595
135.872
134.133
132.755
131.68
130.852
130.236
129.833
129.634
129.572
129.576
129.566
129.515
129.402
135.06
133.446
132.147
131.122
130.328
129.739
129.341
129.133
129.068
129.087
129.118
129.121
129.085
136.081
134.223
132.685
131.434
130.439
129.671
129.105
128.728
128.532
128.482
128.529
128.605
128.665
128.69
135.035
133.224
131.729
130.521
129.562
128.828
128.297
127.952
127.787
127.768
127.858
127.994
128.127
128.225
133.701
131.913
130.458
129.304
128.407
127.736
127.272
126.985
126.873
126.903
127.045
127.25
127.469
127.66
134.004
131.853
130.108
128.722
127.654
126.866
126.306
125.958
125.781
125.765
125.881
126.096
126.381
126.687
126.974
131.265
129.2
127.567
126.321
125.408
124.793
124.417
124.251
124.256
124.401
124.666
125.003
125.4
125.812
126.197
127.145
125.327
123.96
122.991
122.359
122.024
121.931
122.038
122.31
122.701
123.192
123.727
124.294
124.858
125.366
121.101
119.794
118.935
118.461
118.302
118.414
118.744
119.248
119.89
120.618
121.417
122.225
123.031
123.808
124.486
114.028
112.982
112.481
112.4
112.666
113.202
113.956
114.878
115.917
117.044
118.201
119.381
120.52
121.615
122.648
123.538
104.11
103.926
104.299
105.092
106.207
107.558
109.067
110.687
112.348
114.032
115.67
117.269
118.765
120.165
121.467
122.578
95.8247
96.1386
97.1025
98.5724
100.403
102.475
104.677
106.946
109.193
111.395
113.482
115.463
117.286
118.955
120.497
121.792
90.3919
90.7897
91.9543
93.7613
96.0539
98.6754
101.446
104.249
106.971
109.584
112.019
114.29
116.362
118.23
119.952
121.372
86.3342
86.8717
88.1963
90.1946
92.7289
95.6633
98.8233
102.072
105.242
108.266
111.06
113.628
115.941
117.991
119.854
121.358
82.5822
83.3001
84.7235
86.7756
89.3516
92.3633
95.6875
99.2226
102.813
106.348
109.682
112.751
115.488
117.86
119.937
121.563
80.0313
80.7223
82.0103
83.8619
86.2271
89.0683
92.3204
95.9191
99.7393
103.66
107.509
111.152
114.454
117.318
119.756
121.641
78.7942
79.3705
80.4956
82.1596
84.3427
87.0259
90.1693
93.7173
97.5682
101.601
105.659
109.589
113.239
116.469
119.227
121.4
87.4169
85.7828
84.231
82.8439
81.6976
80.883
80.384
80.1018
79.8876
79.6389
79.3088
78.9382
86.6831
85.1049
83.7248
82.5179
81.497
80.7192
80.1969
79.8734
79.6466
79.4228
79.1695
78.8447
87.9937
86.1967
84.6599
83.3516
82.2355
81.2953
80.5586
80.0353
79.6894
79.4607
79.2472
79.0417
78.7788
87.5893
85.8488
84.3373
83.0519
81.9727
81.0708
80.3513
79.8286
79.4665
79.2365
79.0407
78.8609
78.6635
87.2551
85.5375
84.0422
82.765
81.6948
80.8083
80.0926
79.5626
79.1873
78.9494
78.7713
78.6116
78.4728
88.8875
86.9334
85.2157
83.7251
82.4483
81.3759
80.4901
79.7753
79.2396
78.8558
78.6117
78.4489
78.3062
78.2147
88.5621
86.5661
84.8259
83.3273
82.0443
80.9666
80.0793
79.3628
78.8277
78.4434
78.1998
78.0577
77.9382
77.8945
88.1362
86.0802
84.3015
82.7834
81.4958
80.4147
79.535
78.8232
78.2946
77.9202
77.6824
77.5677
77.4771
77.4926
89.9351
87.4745
85.3544
83.5405
82.0021
80.7217
79.6539
78.7988
78.1173
77.6103
77.266
77.0435
76.9645
76.9053
76.9845
88.9289
86.3936
84.2237
82.3947
80.8607
79.6077
78.5879
77.7859
77.1738
76.7245
76.4449
76.2689
76.2439
76.2303
76.3722
87.1558
84.6003
82.4437
80.654
79.1832
78.0072
77.086
76.3887
75.8945
75.5586
75.3931
75.3169
75.3855
75.4549
75.6736
84.1644
81.7138
79.6932
78.0575
76.7525
75.7495
75.0079
74.4929
74.1847
74.0287
74.0399
74.1253
74.3437
74.549
74.8843
82.1853
79.5272
77.3961
75.6968
74.3814
73.3917
72.6935
72.2514
72.0194
71.9887
72.0881
72.3444
72.6503
73.0739
73.4649
73.9659
75.5343
73.4083
71.7851
70.5784
69.7327
69.1993
68.9284
68.8983
69.0455
69.3751
69.8002
70.3594
70.9354
71.6044
72.2202
72.9159
68.5359
66.9121
65.788
65.0872
64.7402
64.6998
64.9015
65.3261
65.8969
66.6212
67.4044
68.2881
69.158
70.0838
70.9451
71.835
62.7672
61.343
60.4598
60.0652
60.0868
60.4603
61.0918
61.9406
62.9154
64.0156
65.1453
66.3404
67.5009
68.6776
69.7884
70.8644
58.0975
56.8464
56.1089
55.8552
56.0364
56.6151
57.5064
58.6621
59.9722
61.418
62.8966
64.4271
65.9128
67.3775
68.7626
70.0435
53.7192
52.7513
52.2126
52.0858
52.338
52.9591
53.9066
55.1737
56.6837
58.4155
60.2563
62.1874
64.0913
65.9462
67.6853
69.2417
50.4747
49.7196
49.2996
49.2116
49.4461
50.0128
50.9049
52.1371
53.6761
55.5117
57.5582
59.7704
62.0297
64.2643
66.3852
68.2808
48.911
48.2322
47.8422
47.7463
47.9501
48.4689
49.3117
50.4906
51.9917
53.7986
55.8582
58.1179
60.494
62.893
65.2321
67.3662
61.9507
60.7121
59.4968
58.3053
57.1672
56.2227
55.5369
55.0826
54.7453
54.4437
54.1086
53.7398
61.7545
60.4535
59.2873
58.2052
57.1748
56.2652
55.5492
55.0447
54.6841
54.3805
54.1007
53.7511
63.1877
61.6761
60.3324
59.1499
58.0981
57.135
56.2794
55.5721
55.0342
54.6525
54.327
54.0681
53.7577
63.1982
61.6773
60.2997
59.0774
58.0102
57.0649
56.2355
55.5463
54.9924
54.5958
54.2608
53.9984
53.7267
63.2577
61.7044
60.2961
59.0382
57.9398
56.9844
56.1533
55.4658
54.9018
54.4889
54.1528
53.8846
53.6475
65.1303
63.352
61.7432
60.2962
59.0047
57.873
56.8932
56.0462
55.3471
54.77
54.3386
54.0013
53.7244
53.5167
65.3372
63.4542
61.7677
60.2687
58.9375
57.7714
56.7637
55.8928
55.177
54.5865
54.1363
53.7995
53.5145
53.334
65.5433
63.5361
61.7533
60.1838
58.8048
57.5971
56.5623
55.6661
54.9301
54.3288
53.8594
53.5265
53.2353
53.0871
68.0863
65.6599
63.5196
61.6364
59.9847
58.5541
57.3054
56.2443
55.3334
54.5782
53.9745
53.4877
53.1623
52.8653
52.753
68.1671
65.5758
63.2985
61.3151
59.5859
58.103
56.8264
55.7459
54.8389
54.0805
53.4907
53.0027
52.6936
52.3989
52.321
67.8426
65.0942
62.7005
60.633
58.8506
57.334
56.0516
54.9765
54.0972
53.3684
52.8205
52.3654
52.0967
51.8305
51.7945
66.7899
63.9291
61.4716
59.374
57.5887
56.0893
54.8441
53.8195
53.0077
52.3515
51.8874
51.5099
51.3222
51.1251
51.1617
67.8758
64.5288
61.6994
59.2986
57.2782
55.5861
54.1891
53.06
52.1535
51.4729
50.944
50.6157
50.3634
50.3041
50.2192
50.3741
63.7812
60.717
58.147
55.994
54.2063
52.7433
51.5609
50.647
49.942
49.4645
49.1247
48.9848
48.9046
49.0146
49.0832
49.3908
58.1986
55.6199
53.4884
51.742
50.326
49.2115
48.3489
47.7367
47.3094
47.0943
46.9952
47.0819
47.2117
47.5158
47.7746
48.2485
52.4746
50.244
48.4584
47.0708
46.0246
45.284
44.785
44.5191
44.4144
44.497
44.6725
45.0093
45.3785
45.897
46.3794
47.0336
47.2141
45.2406
43.6821
42.5151
41.6982
41.2081
40.982
41.0052
41.1974
41.5768
42.0505
42.677
43.3386
44.1278
44.8888
45.7676
42.1328
40.5227
39.252
38.3062
37.6568
37.2987
37.196
37.3567
37.7255
38.3213
39.0616
39.9843
40.9783
42.0968
43.201
44.368
38.2033
36.9572
35.9593
35.2043
34.6809
34.3948
34.3367
34.5238
34.9353
35.5897
36.4386
37.4983
38.692
40.0313
41.4172
42.8471
36.2947
35.2368
34.3781
33.7192
33.2607
33.0114
32.9751
33.1637
33.5724
34.2057
35.0438
36.0829
37.2932
38.6568
40.1373
41.6728
46.0834
45.2431
44.4078
43.542
42.6104
41.7417
41.0278
40.4948
40.0779
39.7431
39.4113
39.0587
46.2727
45.3147
44.4425
43.6157
42.7591
41.9131
41.164
40.583
40.1434
39.79
39.5019
39.1409
47.6371
46.5121
45.4679
44.5251
43.6753
42.8561
42.0584
41.3205
40.7025
40.2358
39.8406
39.5597
39.2165
47.983
46.7996
45.688
44.668
43.7588
42.9265
42.1471
41.4357
40.8037
40.318
39.8936
39.5909
39.264
48.3597
47.1053
45.9335
44.8489
43.8737
43.0009
42.2044
41.4985
40.861
40.3598
39.9215
39.5954
39.281
50.2527
48.7892
47.4398
46.1961
45.0504
44.0139
43.0899
42.2567
41.5322
40.8809
40.3599
39.9125
39.5626
39.261
50.8729
49.2613
47.793
46.4606
45.2463
44.1499
43.1746
42.2962
41.54
40.8673
40.3191
39.863
39.488
39.1985
51.5683
49.782
48.1702
46.7246
45.4265
44.2591
43.2302
42.3037
41.5073
40.8097
40.2282
39.763
39.3612
39.0856
54.4893
52.2762
50.3
48.5347
46.9582
45.5636
44.316
43.2253
42.2536
41.411
40.6896
40.0708
39.596
39.1651
38.9045
55.3906
52.9358
50.7531
48.8224
47.108
45.6043
44.2758
43.1166
42.1047
41.2191
40.4788
39.8283
39.3457
38.8885
38.6407
56.1294
53.4147
51.0216
48.9201
47.0718
45.4592
44.0546
42.8338
41.7887
40.8755
40.1287
39.4655
38.9878
38.5203
38.2889
56.4966
53.5192
50.9237
48.665
46.6984
44.9966
43.5325
42.2718
41.2124
40.2959
39.567
38.9201
38.4743
38.0248
37.8325
59.7145
56.0482
52.8926
50.1632
47.8082
45.778
44.0363
42.5592
41.2996
40.2659
39.3821
38.7068
38.1105
37.7329
37.3338
37.2193
57.823
54.1978
51.079
48.3914
46.0798
44.1038
42.4168
41.008
39.8172
38.8671
38.0658
37.4872
36.9797
36.7055
36.3917
36.388
53.7719
50.5353
47.7504
45.3559
43.2974
41.5483
40.0596
38.8337
37.8066
37.0131
36.3547
35.917
35.5398
35.3963
35.2069
35.3314
48.3729
45.5707
43.1909
41.1846
39.4963
38.0979
36.9335
36.0046
35.2443
34.6908
34.2474
34.0033
33.8084
33.8309
33.814
34.0898
42.6096
40.159
38.1015
36.4073
35.0308
33.9494
33.1043
32.4911
32.0372
31.7747
31.6108
31.6283
31.6908
31.9496
32.1785
32.6597
36.7882
34.7932
33.1209
31.7505
30.6489
29.8056
29.1805
28.7791
28.5472
28.5132
28.5999
28.8726
29.2159
29.7442
30.2721
31.0027
32.1751
30.6751
29.4005
28.3409
27.4798
26.8157
26.3318
26.0377
25.9087
25.9648
26.1629
26.5389
27.0264
27.6861
28.4145
29.3078
29.927
28.6994
27.6419
26.7504
26.0199
25.4521
25.0435
24.7988
24.7097
24.7798
24.993
25.3554
25.8491
26.4868
27.2524
28.1533
34.9309
34.4239
33.9234
33.3931
32.749
32.0786
31.4602
30.9424
30.5048
30.1678
29.8533
29.534
35.3157
34.6962
34.1216
33.5801
32.9781
32.3178
31.6629
31.1066
30.6526
30.2883
30.011
29.6579
36.4547
35.7357
35.028
34.3646
33.7662
33.1711
32.5445
31.8988
31.3064
30.8279
30.4112
30.1373
29.7834
36.9975
36.2031
35.4204
34.6694
33.9881
33.353
32.7287
32.1091
31.5039
31.0092
30.5508
30.2467
29.892
37.5767
36.6944
35.8409
35.0164
34.2522
33.5538
32.8936
32.2766
31.6673
31.1623
30.6823
30.3453
29.9854
39.2951
38.2365
37.2385
36.2955
35.3968
34.5557
33.7874
33.07
32.4253
31.7994
31.2773
30.785
30.4173
30.0561
40.2003
38.9718
37.8322
36.7781
35.7928
34.8754
34.0395
33.2586
32.5681
31.9125
31.3593
30.8541
30.4531
30.0935
41.2522
39.8184
38.5049
37.3074
36.2122
35.2019
34.2932
33.4464
32.6994
32.007
31.411
30.8888
30.4498
30.0914
44.2512
42.4077
40.7438
39.2383
37.8735
36.6474
35.5271
34.5302
33.6155
32.8022
32.07
31.423
30.88
30.3979
30.0392
45.8093
43.6562
41.7272
40.0032
38.4519
37.0719
35.8297
34.7271
33.7393
32.854
32.079
31.3795
30.8124
30.2859
29.9232
47.4156
44.9092
42.6874
40.72
38.9698
37.4216
36.0493
34.8343
33.7678
32.8125
31.9955
31.2504
30.6631
30.0997
29.7339
48.9485
46.053
43.5122
41.2819
39.3194
37.5971
36.0901
34.7653
33.622
32.6049
31.7559
30.9804
30.3885
29.8049
29.4524
53.7247
50.0048
46.766
43.9372
41.4687
39.3146
37.4369
35.8136
34.3967
33.1955
32.1354
31.2747
30.4894
29.9181
29.3355
29.0271
53.829
49.9217
46.5138
43.5393
40.9447
38.6911
36.7303
35.051
33.5917
32.3751
31.3087
30.4687
29.702
29.1792
28.6236
28.388
51.4899
47.7905
44.5556
41.7266
39.2489
37.0955
35.2156
33.6106
32.2149
31.0641
30.0572
29.2858
28.5808
28.1342
27.6428
27.4983
46.78
43.5041
40.6594
38.1939
36.0506
34.2042
32.5997
31.2414
30.0618
29.1026
28.2625
27.6407
27.0706
26.7503
26.382
26.3588
40.7392
37.8898
35.4422
33.3582
31.5872
30.1059
28.8562
27.8373
26.9779
26.3147
25.7496
25.3773
25.0433
24.9349
24.7798
24.9384
34.2689
31.9709
30.0057
28.3446
26.949
25.8031
24.8627
24.1296
23.547
23.1448
22.8428
22.7172
22.6425
22.7673
22.8748
23.2417
29.0489
27.3607
25.8999
24.6506
23.5916
22.7153
21.9993
21.4465
21.0278
20.76
20.5986
20.584
20.6474
20.8693
21.1376
21.598
26.4976
25.1495
23.9666
22.9406
22.062
21.327
20.727
20.2612
19.9174
19.6965
19.5807
19.5764
19.6642
19.8642
20.1591
20.5852
26.614
26.3501
26.0949
25.8293
25.4559
25.0192
24.5644
24.1354
23.7374
23.4339
23.1548
22.8845
27.0263
26.6848
26.3583
26.0606
25.708
25.2755
24.7889
24.3343
23.9277
23.5946
23.3487
23.0262
27.856
27.4794
27.0757
26.673
26.3112
25.9458
25.5333
25.0534
24.568
24.1446
23.7563
23.5159
23.1785
28.4269
27.9907
27.5293
27.0536
26.6106
26.1931
25.7686
25.3101
24.8129
24.3802
23.9449
23.6744
23.3245
29.0529
28.5411
28.02
27.4828
26.9618
26.4752
26.0018
25.5408
25.0376
24.6017
24.1417
23.8363
23.4687
30.4248
29.79
29.1703
28.5643
27.9587
27.3641
26.8052
26.2632
25.7674
25.2428
24.7938
24.3205
23.9839
23.6047
31.4285
30.6361
29.8804
29.1633
28.4713
27.7995
27.1708
26.5565
26.0063
25.4443
24.9627
24.4742
24.1026
23.7175
32.6424
31.6497
30.7191
29.8522
29.0424
28.2702
27.5621
26.8735
26.2572
25.6495
25.1189
24.6084
24.1937
23.8012
35.3812
34.043
32.8151
31.6836
30.6363
29.6804
28.7831
27.9729
27.2036
26.509
25.8504
25.2601
24.7208
24.256
23.8515
37.3588
35.6788
34.1572
32.7806
31.5205
30.3845
29.3395
28.3996
27.5353
26.7494
26.0314
25.3747
24.7998
24.2802
23.8589
39.6049
37.5064
35.6339
33.9633
32.4593
31.114
29.9015
28.8133
27.8376
26.9511
26.165
25.4393
24.8257
24.2517
23.8121
42.0741
39.4892
37.2042
35.1854
33.3944
31.8079
30.4024
29.1507
28.0504
27.0571
26.2001
25.408
24.7612
24.1394
23.692
47.8138
44.3706
41.3234
38.631
36.2591
34.1714
32.334
30.7274
29.3074
28.0814
26.9827
26.0605
25.2087
24.5432
23.8832
23.451
49.6482
45.8342
42.4501
39.4563
36.8144
34.4955
32.4559
30.6863
29.1281
27.8016
26.6195
25.6525
24.7583
24.0937
23.4118
23.018
49.1265
45.2802
41.8698
38.8509
36.1774
33.8278
31.7536
29.9557
28.3692
27.0276
25.8313
24.8699
23.9772
23.3419
22.6716
22.3353
45.5587
42.0008
38.8718
36.1222
33.6977
31.5764
29.7052
28.0893
26.6606
25.4606
24.3853
23.5352
22.7375
22.1969
21.6075
21.3669
39.7102
36.5885
33.8731
31.521
29.4799
27.7281
26.2099
24.9273
23.8095
22.8951
22.0815
21.4668
20.8855
20.5379
20.1329
20.0545
32.9709
30.4565
28.2834
26.4175
24.8167
23.4632
22.3115
21.3614
20.5551
19.9214
19.378
19.0031
18.6652
18.5244
18.3518
18.447
27.426
25.5846
23.9795
22.5898
21.3907
20.3704
19.5029
18.7867
18.1898
17.7258
17.3489
17.0987
16.9045
16.8501
16.8201
16.9707
24.6839
23.2239
21.9347
20.8042
19.8193
18.9719
18.2495
17.6476
17.1514
16.7594
16.4522
16.2349
16.0854
16.0231
16.0259
16.1348
20.3222
20.211
20.1077
20.0077
19.8305
19.5915
19.3068
19.0024
18.6881
18.4478
18.2199
18.0091
20.6615
20.5089
20.355
20.2242
20.0585
19.8253
19.5184
19.2016
18.8849
18.6173
18.4206
18.1484
21.1936
21.0456
20.8613
20.6571
20.4744
20.2899
20.0692
19.769
19.4301
19.1061
18.7867
18.6005
18.3053
21.6658
21.4868
21.2729
21.0233
20.7799
20.5476
20.3087
20.0256
19.6767
19.3528
18.9877
18.7774
18.464
22.2048
21.9784
21.7288
21.4417
21.1419
20.8521
20.5629
20.2745
19.9172
19.5977
19.2091
18.9682
18.6309
23.1569
22.8614
22.5588
22.2484
21.9148
21.5609
21.214
20.8591
20.5359
20.1536
19.8255
19.4245
19.1573
18.8022
24.0578
23.6472
23.241
22.8425
22.4412
22.0255
21.6232
21.2014
20.8256
20.4024
20.0432
19.6261
19.327
18.9617
25.1915
24.6268
24.0801
23.5551
23.0524
22.5474
22.0758
21.5853
21.1456
20.6743
20.2651
19.8233
19.4813
19.1029
27.3737
26.5639
25.8062
25.0901
24.4054
23.7694
23.1461
22.5767
22.0073
21.4896
20.9646
20.4936
20.0188
19.6254
19.2268
29.3839
28.2721
27.2501
26.3102
25.4253
24.6147
23.8437
23.141
22.4709
21.8561
21.2647
20.7219
20.2048
19.7534
19.3285
31.8525
30.3376
28.9688
27.7345
26.6013
25.5733
24.6242
23.7603
22.9642
22.2337
21.5594
20.9347
20.3668
19.8521
19.3976
34.8166
32.8048
30.9973
29.3824
27.93
26.6283
25.4562
24.3989
23.4501
22.5847
21.8135
21.0982
20.476
19.8954
19.4162
40.6497
37.9045
35.3996
33.1355
31.1079
29.2979
27.6857
26.2575
24.9804
23.859
22.8432
21.9666
21.1534
20.4806
19.8327
19.3435
43.6866
40.4868
37.5593
34.9063
32.5206
30.3936
28.4977
26.8304
25.3442
24.058
22.8983
21.9239
21.0179
20.3052
19.5952
19.1132
44.8229
41.3588
38.2137
35.3757
32.823
30.5499
28.5199
26.7387
25.1487
23.7819
22.5475
21.5272
20.5723
19.8491
19.1065
18.6517
42.8412
39.4135
36.3495
33.6175
31.1771
29.0169
27.0916
25.41
23.9082
22.6266
21.4649
20.5184
19.6216
18.9663
18.2682
17.8879
37.9596
34.8566
32.1197
29.7118
27.5877
25.733
24.0994
22.694
21.4513
20.41
19.4697
18.7252
18.0122
17.5245
16.979
16.7408
31.7671
29.2118
26.9765
25.0283
23.3287
21.8629
20.5893
19.5088
18.5668
17.7904
17.0997
16.569
16.0699
15.756
15.4075
15.3084
26.5104
24.5736
22.8747
21.3904
20.0948
18.9743
18.0021
17.1738
16.4573
15.8633
15.3469
14.944
14.5864
14.3513
14.1301
14.0645
23.8178
22.2524
20.8663
19.6443
18.5706
17.634
16.8191
16.1187
15.5164
15.0088
14.576
14.2215
13.9218
13.6932
13.5113
13.4111
15.6243
15.588
15.5599
15.5394
15.4736
15.3626
15.2084
15.0227
14.8079
14.6434
14.4742
14.3245
15.8618
15.8083
15.7504
15.7087
15.6509
15.5506
15.3854
15.1972
14.9826
14.7963
14.6569
14.4464
16.1804
16.1424
16.077
15.9912
15.9156
15.8409
15.7503
15.5938
15.3933
15.1796
14.9488
14.8254
14.5898
16.5109
16.4634
16.3907
16.2843
16.1731
16.064
15.9563
15.8145
15.6074
15.403
15.1326
14.9939
14.74
16.9084
16.8364
16.7489
16.6269
16.4841
16.3375
16.1879
16.0416
15.8251
15.6319
15.3426
15.1818
14.9036
17.5103
17.3984
17.2839
17.1635
17.0201
16.8478
16.6683
16.4675
16.294
16.0523
15.8557
15.5564
15.3777
15.0805
18.1974
18.0147
17.8349
17.6573
17.4723
17.2609
17.0496
16.7991
16.5854
16.306
16.0831
15.7688
15.5649
15.2561
19.0796
18.8028
18.5337
18.2701
18.0163
17.7403
17.4825
17.181
16.9179
16.5965
16.3295
15.991
15.7493
15.4245
20.6435
20.2008
19.7954
19.4124
19.0339
18.6825
18.3146
17.9804
17.6161
17.2889
16.9213
16.5991
16.2283
15.9401
15.5906
22.3098
21.659
21.0658
20.5228
19.9942
19.5071
19.0196
18.5726
18.121
17.7072
17.2785
16.8897
16.4766
16.1343
15.7535
24.4878
23.5404
22.6802
21.9039
21.1734
20.503
19.8615
19.2695
18.7009
18.1766
17.6653
17.1952
16.7273
16.3219
15.905
27.2581
25.9362
24.7232
23.6247
22.6146
21.6951
20.8449
20.0659
19.3448
18.6815
18.065
17.4957
16.9625
16.4839
16.0306
32.1611
30.3672
28.6622
27.0662
25.5991
24.2554
23.0337
21.926
20.9185
20.0114
19.1803
18.4384
17.7505
17.1454
16.5821
16.0987
35.4628
33.2977
31.2222
29.2673
27.4537
25.7921
24.2757
22.9114
21.6714
20.5733
19.5678
18.6974
17.8842
17.2089
16.5551
16.0521
37.6111
35.0907
32.7045
30.4776
28.419
26.5433
24.8343
23.3067
21.919
20.7024
19.5858
18.6371
17.7408
17.0264
16.3071
15.8058
37.3514
34.6166
32.0946
29.7877
27.6821
25.7843
24.0657
22.5427
21.1641
19.9692
18.8723
17.9573
17.0822
16.41
15.7032
15.2575
34.3152
31.6704
29.2794
27.1261
25.1837
23.4517
21.8973
20.5353
19.3129
18.2692
17.3163
16.5397
15.7924
15.2449
14.6479
14.3161
29.8164
27.4847
25.4035
23.5517
21.902
20.4482
19.1594
18.0409
17.0471
16.2038
15.4405
14.8224
14.2358
13.8131
13.3644
13.1298
25.7465
23.8099
22.0955
20.5815
19.2442
18.0711
17.0375
16.1387
15.3448
14.664
14.0558
13.5497
13.0859
12.7274
12.3828
12.1647
23.478
21.8276
20.3622
19.0648
17.918
16.9085
16.0197
15.2421
14.5588
13.9649
13.441
12.9887
12.5854
12.2426
11.9373
11.6946
12.1886
12.1731
12.1682
12.1715
12.1532
12.1055
12.0278
11.9275
11.7996
11.7038
11.5893
11.4927
12.3422
12.3206
12.2992
12.2894
12.2765
12.2428
12.1628
12.065
11.9365
11.8252
11.7389
11.5894
12.5447
12.533
12.5074
12.4709
12.4411
12.4144
12.3886
12.3188
12.2171
12.0939
11.9467
11.88
11.7081
12.759
12.7453
12.7221
12.6785
12.6317
12.5833
12.5441
12.4868
12.382
12.2746
12.0956
12.0225
11.8356
13.0323
13.0038
12.9753
12.9275
12.866
12.7978
12.7278
12.6686
12.5541
12.4625
12.2705
12.1845
11.9776
13.4294
13.3645
13.3125
13.268
13.2144
13.1411
13.0606
12.9567
12.8808
12.744
12.6532
12.4547
12.3597
12.1366
13.9135
13.8036
13.7108
13.6307
13.5548
13.46
13.3682
13.234
13.1345
12.9678
12.858
12.6469
12.5352
12.3017
14.5308
14.3659
14.222
14.09
13.9751
13.8398
13.7245
13.5597
13.4307
13.2343
13.0914
12.8598
12.7188
12.4694
15.6477
15.3488
15.1015
14.889
14.6837
14.5088
14.3124
14.1475
13.9417
13.7699
13.5416
13.3574
13.0992
12.9216
12.6469
16.8575
16.4303
16.064
15.7538
15.4535
15.1915
14.9156
14.6716
14.4037
14.1678
13.8935
13.6576
13.3635
13.1425
12.8363
18.4808
17.8777
17.343
16.8815
16.447
16.058
15.6732
15.3215
14.9642
14.6401
14.2978
13.9938
13.6506
13.3754
13.0326
20.5613
19.754
19.01
18.3428
17.7211
17.1546
16.615
16.117
15.6353
15.1929
14.7562
14.3617
13.954
13.61
13.226
24.0353
22.9876
21.9748
21.0053
20.1009
19.2514
18.4639
17.7265
17.0422
16.402
15.8088
15.2527
14.7414
14.2549
13.823
13.3961
26.6914
25.4489
24.216
23.0151
21.8702
20.7895
19.7759
18.8342
17.9545
17.1474
16.3918
15.7091
15.0673
14.4981
13.9639
13.4983
28.8952
27.396
25.9118
24.473
23.0994
21.811
20.6051
19.4983
18.4674
17.5379
16.665
15.8966
15.1603
14.539
13.9226
13.4413
29.8319
28.0596
26.3536
24.7355
23.2116
21.8003
20.4903
19.3029
18.2049
17.2322
16.3228
15.5433
14.7889
14.1816
13.5482
13.103
28.9455
27.0553
25.2834
23.6334
22.0973
20.6868
19.3863
18.2171
17.1448
16.2067
15.3373
14.6072
13.9023
13.3565
12.7762
12.4027
26.9391
25.0389
23.2979
21.7072
20.2526
18.9366
17.7416
16.6778
15.7136
14.8724
14.1006
13.4496
12.832
12.3476
11.8537
11.5266
24.8139
22.9787
21.3354
19.8658
18.5504
17.379
16.3317
15.4043
14.5722
13.8408
13.1775
12.6033
12.0722
11.6279
11.2044
10.8766
23.3621
21.6637
20.1496
18.8024
17.6044
16.5418
15.5975
14.761
14.0157
13.3555
12.7626
12.2362
11.7567
11.3299
10.9372
10.5925
9.69872
9.67845
9.67032
9.67059
9.66433
9.63943
9.59558
9.54277
9.47419
9.42659
9.35371
9.29607
9.80053
9.77664
9.75817
9.74922
9.74506
9.73392
9.69282
9.64333
9.57115
9.51379
9.4666
9.3672
9.95402
9.93099
9.90448
9.87638
9.85514
9.83876
9.83304
9.80174
9.75364
9.68747
9.60155
9.57495
9.45797
10.099
10.0728
10.0488
10.0174
9.98831
9.95782
9.94128
9.91935
9.8701
9.82223
9.71182
9.68477
9.55745
10.2904
10.2511
10.223
10.1898
10.1538
10.1136
10.0749
10.0522
9.99318
9.9622
9.84387
9.81124
9.66982
10.6006
10.5204
10.4627
10.4231
10.3879
10.3469
10.3054
10.2454
10.2143
10.1362
10.108
9.98582
9.95114
9.79832
10.9467
10.832
10.7442
10.6786
10.6292
10.5743
10.5318
10.4547
10.4132
10.3135
10.2729
10.1407
10.0968
9.93627
11.3823
11.2273
11.1051
11.0045
10.9319
10.8502
10.7976
10.7038
10.6489
10.5313
10.4693
10.3218
10.2576
10.0832
12.2467
11.9714
11.7544
11.5855
11.4349
11.3255
11.2039
11.1213
11.003
10.9237
10.7881
10.7002
10.5338
10.4449
10.2477
13.1097
12.7488
12.4488
12.2152
12.0019
11.838
11.6665
11.5336
11.3761
11.2553
11.0906
10.969
10.7767
10.6585
10.4337
14.2413
13.7826
13.3812
13.0544
12.7569
12.5114
12.2703
12.066
11.8485
11.6666
11.4535
11.2835
11.0533
10.8957
10.6389
15.6362
15.0823
14.5766
14.1392
13.7376
13.3864
13.0496
12.7493
12.4463
12.1789
11.8937
11.6533
11.3688
11.1554
10.8592
17.9555
17.2658
16.6179
16.0054
15.4474
14.9255
14.4494
13.9955
13.5764
13.1667
12.79
12.4123
12.0763
11.7207
11.4297
11.0867
19.7925
19.0102
18.2512
17.5175
16.8254
16.1705
15.5574
14.9773
14.4298
13.9081
13.4135
12.9393
12.4956
12.0648
11.6792
11.2896
21.5786
20.656
19.7473
18.8617
18.0109
17.2031
16.4386
15.7238
15.0474
14.4203
13.8216
13.2712
12.7401
12.2586
11.7915
11.3781
22.9709
21.8567
20.7717
19.7246
18.7197
17.769
16.8679
16.0317
15.2426
14.5246
13.8421
13.237
12.6478
12.1472
11.6346
11.2334
23.6274
22.3409
21.1145
19.9473
18.8338
17.7834
16.7886
15.8677
15.0022
14.2209
13.4847
12.8422
12.2224
11.7119
11.189
10.805
23.8356
22.3391
20.9494
19.6572
18.4512
17.3341
16.296
15.3469
14.4687
13.6792
12.9456
12.3009
11.6922
11.1787
10.6772
10.2874
23.7101
22.022
20.4982
19.1218
17.8758
16.7509
15.7314
14.813
13.9777
13.2274
12.5395
11.9251
11.3558
10.8528
10.381
9.97372
23.2683
21.5657
20.0401
18.6748
17.453
16.361
15.3826
14.5067
13.718
13.0091
12.3651
11.7821
11.2457
10.7547
10.2979
9.87731
7.87037
7.84016
7.82165
7.81164
7.80316
7.78272
7.74979
7.71737
7.68138
7.65952
7.61242
7.57846
7.94553
7.91105
7.88439
7.86616
7.85662
7.84759
7.81931
7.78867
7.74584
7.71864
7.69401
7.62874
8.08056
8.04086
8.00301
7.96875
7.94175
7.92065
7.91407
7.89391
7.86713
7.82844
7.77826
7.77281
7.69502
8.19125
8.14546
8.10713
8.06888
8.03698
8.00495
7.98837
7.97375
7.94651
7.92528
7.85594
7.85275
7.76863
8.33603
8.27678
8.233
8.19162
8.15494
8.11738
8.08372
8.06762
8.03026
8.02422
7.95023
7.94551
7.85245
8.61235
8.51186
8.43447
8.37843
8.33312
8.29165
8.25551
8.20721
8.18674
8.13256
8.12887
8.0524
8.04925
7.94926
8.87752
8.74753
8.64463
8.56599
8.50818
8.45393
8.41884
8.35936
8.33531
8.26519
8.25295
8.16821
8.16035
8.05533
9.21202
9.04591
8.91385
8.80594
8.73014
8.65393
8.61241
8.54183
8.51246
8.43187
8.40647
8.31043
8.28935
8.17289
9.93294
9.66295
9.44358
9.27262
9.12417
9.02103
8.91463
8.85239
8.76486
8.72132
8.63113
8.59119
8.48254
8.44669
8.31123
10.585
10.2521
9.96748
9.74543
9.54733
9.40332
9.26063
9.16344
9.04915
8.97846
8.87007
8.81045
8.68448
8.63218
8.47467
11.3984
11.0056
10.6548
10.3701
10.1142
9.91376
9.72321
9.577
9.42173
9.30928
9.16732
9.07603
8.9229
8.84574
8.66297
12.3608
11.9117
11.5014
11.1527
10.8367
10.5735
10.3256
10.12
9.90991
9.74092
9.54779
9.40691
9.21161
9.09423
8.87775
14.0502
13.4841
12.9718
12.4982
12.0805
11.698
11.3653
11.0528
10.7797
10.5074
10.2712
10.0168
9.80949
9.55873
9.38185
9.12151
15.3983
14.7571
14.1662
13.6146
13.1127
12.6486
12.2305
11.8403
11.4864
11.1447