/*--------------------------------*- C++ -*----------------------------------*\
  =========                 |
  \\      /  F ield         | OpenFOAM: The Open Source CFD Toolbox
   \\    /   O peration     | Website:  https://openfoam.org
    \\  /    A nd           | Version:  6
     \\/     M anipulation  |
\*---------------------------------------------------------------------------*/
FoamFile
{
    version     2.0;
    format      ascii;
    class       surfaceScalarField;
    location    "1.8";
    object      phi;
}
// * * * * * * * * * * * * * * * * * * * * * * * * * * * * * * * * * * * * * //

dimensions      [0 3 -1 0 0 0 0];

internalField   nonuniform List<scalar> 
184845
(
5.82945e-07
6.41486e-07
6.61443e-09
6.20899e-07
6.62391e-07
-2.86297e-09
-6.97482e-07
6.60513e-07
6.85636e-07
-4.593e-09
-7.20658e-07
6.99462e-07
7.09185e-07
-2.21903e-09
-7.45914e-07
7.37326e-07
7.3178e-07
-2.89272e-10
-7.69355e-07
7.7526e-07
7.53614e-07
5.55397e-10
-7.92103e-07
8.14406e-07
7.75476e-07
8.99531e-10
-8.15521e-07
8.54454e-07
7.98122e-07
1.04564e-09
-8.39216e-07
8.93681e-07
8.21239e-07
7.16453e-10
-8.61182e-07
9.32066e-07
8.43249e-07
-1.2945e-10
-8.81505e-07
9.713e-07
8.6581e-07
-7.07197e-10
-9.04337e-07
8.88052e-07
-1.34307e-09
1.01252e-06
-9.27925e-07
5.83755e-07
6.06067e-07
-1.92537e-09
6.22472e-07
6.25724e-07
-2.05009e-09
6.61688e-07
6.46395e-07
2.54682e-11
7.00999e-07
6.67967e-07
1.90669e-09
7.40115e-07
6.90048e-07
2.61621e-09
7.79031e-07
7.12032e-07
2.66602e-09
8.18361e-07
7.33512e-07
2.63423e-09
8.58859e-07
7.54875e-07
2.7489e-09
9.00008e-07
7.77098e-07
2.99084e-09
9.40941e-07
7.9934e-07
2.97596e-09
9.81584e-07
8.22304e-07
2.86386e-09
8.44914e-07
2.19576e-09
1.02253e-06
5.44163e-07
5.50338e-07
6.2457e-10
5.81357e-07
5.67356e-07
1.5159e-09
6.19056e-07
5.84826e-07
3.19908e-09
6.57697e-07
6.03323e-07
4.43064e-09
6.97487e-07
6.23289e-07
4.88736e-09
7.38109e-07
6.44572e-07
4.85465e-09
7.78902e-07
6.66581e-07
4.65697e-09
8.19462e-07
6.88447e-07
4.50492e-09
8.60342e-07
7.09577e-07
4.4178e-09
9.0196e-07
7.3093e-07
4.55004e-09
9.44318e-07
7.52353e-07
4.62934e-09
9.87165e-07
7.74967e-07
4.49057e-09
7.9812e-07
3.71406e-09
1.03024e-06
5.39012e-07
5.09657e-07
3.87324e-09
5.75828e-07
5.25391e-07
5.14839e-09
6.13251e-07
5.41668e-07
5.73552e-09
6.51906e-07
5.58948e-07
5.71939e-09
6.92093e-07
5.77662e-07
5.44054e-09
7.33684e-07
5.97826e-07
5.15534e-09
7.76213e-07
6.19162e-07
4.88995e-09
8.18847e-07
6.4113e-07
4.6832e-09
8.6134e-07
6.62663e-07
4.42185e-09
9.03927e-07
6.84064e-07
4.27808e-09
9.47028e-07
7.05058e-07
4.19431e-09
9.91204e-07
7.26813e-07
3.97724e-09
7.49835e-07
3.14409e-09
1.03635e-06
5.30983e-07
4.65161e-07
7.40084e-09
5.6843e-07
4.80459e-07
7.48573e-09
6.06553e-07
4.96474e-07
7.06998e-09
6.45729e-07
5.13299e-07
6.47347e-09
6.86274e-07
5.31198e-07
5.9182e-09
7.28296e-07
5.50304e-07
5.50024e-09
7.71755e-07
5.70556e-07
5.14667e-09
8.16111e-07
5.91891e-07
4.88341e-09
8.60767e-07
6.13436e-07
4.57125e-09
9.05366e-07
6.35166e-07
4.29869e-09
9.49876e-07
6.56437e-07
4.11093e-09
9.95114e-07
6.77812e-07
3.76337e-09
7.00615e-07
2.5441e-09
1.04179e-06
4.81836e-07
4.02535e-07
1.03207e-08
5.20074e-07
4.17029e-07
9.89443e-09
5.58947e-07
4.32454e-07
9.13243e-09
5.9846e-07
4.48705e-07
8.25625e-09
6.3872e-07
4.65626e-07
7.41242e-09
6.79966e-07
4.83284e-07
6.66886e-09
7.22401e-07
5.01796e-07
6.07227e-09
7.66267e-07
5.21123e-07
5.56851e-09
8.11458e-07
5.41508e-07
5.19261e-09
8.5765e-07
5.62404e-07
4.83876e-09
9.04386e-07
5.8394e-07
4.49066e-09
9.5109e-07
6.05479e-07
4.25356e-09
9.98189e-07
6.26886e-07
3.82703e-09
6.49823e-07
2.25924e-09
1.04672e-06
4.66785e-07
3.50797e-07
1.27058e-08
5.06643e-07
3.65594e-07
1.15768e-08
5.47249e-07
3.81402e-07
1.0445e-08
5.88503e-07
3.98081e-07
9.37062e-09
6.30342e-07
4.15423e-07
8.36264e-09
6.72878e-07
4.33302e-07
7.44617e-09
7.16211e-07
4.51807e-07
6.65634e-09
7.60625e-07
4.70732e-07
5.9768e-09
8.06271e-07
4.90425e-07
5.43683e-09
8.53148e-07
5.1054e-07
4.9863e-09
9.01211e-07
5.31333e-07
4.54404e-09
9.49817e-07
5.52623e-07
4.25011e-09
9.99106e-07
5.738e-07
3.79715e-09
5.96964e-07
1.99077e-09
1.04997e-06
4.49241e-07
2.95521e-07
1.43981e-08
4.90908e-07
3.10963e-07
1.29638e-08
5.33307e-07
3.27375e-07
1.16288e-08
5.76405e-07
3.44584e-07
1.0399e-08
6.20086e-07
3.62501e-07
9.24168e-09
6.64369e-07
3.80846e-07
8.17207e-09
7.0923e-07
3.99723e-07
7.22417e-09
7.54781e-07
4.18798e-07
6.38299e-09
8.01236e-07
4.38296e-07
5.67381e-09
8.48652e-07
4.58033e-07
5.09064e-09
8.97363e-07
4.78102e-07
4.51889e-09
9.46999e-07
4.98845e-07
4.14275e-09
9.97832e-07
5.19338e-07
3.62848e-09
5.42407e-07
1.50119e-09
1.05089e-06
3.86699e-07
2.21484e-07
1.7359e-08
4.29654e-07
2.36975e-07
1.55909e-08
4.73246e-07
2.53389e-07
1.39823e-08
5.17471e-07
2.7066e-07
1.24893e-08
5.6238e-07
2.88563e-07
1.11124e-08
6.07926e-07
3.07117e-07
9.8369e-09
6.54084e-07
3.26036e-07
8.65263e-09
7.00825e-07
3.45385e-07
7.59728e-09
7.48075e-07
3.649e-07
6.64807e-09
7.95978e-07
3.84589e-07
5.80362e-09
8.44486e-07
4.04417e-07
5.10806e-09
8.93983e-07
4.24209e-07
4.39579e-09
9.4431e-07
4.44584e-07
3.93488e-09
9.95916e-07
4.64384e-07
3.34716e-09
4.86986e-07
8.7361e-10
1.05046e-06
3.6349e-07
1.58862e-07
1.77594e-08
4.08692e-07
1.75835e-07
1.59379e-08
4.54322e-07
1.93515e-07
1.42445e-08
5.00449e-07
2.11867e-07
1.26662e-08
5.47141e-07
2.30671e-07
1.12008e-08
5.9446e-07
2.49938e-07
9.85923e-09
6.42396e-07
2.69478e-07
8.62216e-09
6.90981e-07
2.89291e-07
7.50844e-09
7.4011e-07
3.0925e-07
6.52129e-09
7.89841e-07
3.29256e-07
5.6029e-09
8.40043e-07
3.4936e-07
4.85443e-09
8.90959e-07
3.69247e-07
4.04493e-09
9.42449e-07
3.89578e-07
3.51671e-09
9.94851e-07
4.09071e-07
2.91058e-09
4.31109e-07
2.42726e-10
1.05049e-06
3.40547e-07
9.531e-08
1.63908e-08
3.87924e-07
1.13699e-07
1.47588e-08
4.3556e-07
1.32708e-07
1.3171e-08
4.83551e-07
1.52218e-07
1.16587e-08
5.31972e-07
1.72014e-07
1.0235e-08
5.80922e-07
1.92062e-07
8.92608e-09
6.30444e-07
2.12222e-07
7.7343e-09
6.80615e-07
2.32471e-07
6.64904e-09
7.31397e-07
2.52758e-07
5.70936e-09
7.82854e-07
2.72987e-07
4.81194e-09
8.3485e-07
2.93271e-07
4.09372e-09
8.87543e-07
3.13271e-07
3.28315e-09
9.40756e-07
3.33634e-07
2.73108e-09
9.94541e-07
3.53086e-07
2.20041e-09
3.74646e-07
-4.72632e-10
1.05148e-06
3.2099e-07
3.3555e-08
1.28762e-08
3.70086e-07
5.29425e-08
1.16616e-08
4.194e-07
7.30111e-08
1.03822e-08
4.68988e-07
9.35242e-08
9.1061e-09
5.18911e-07
1.1422e-07
7.87052e-09
5.69259e-07
1.34997e-07
6.71712e-09
6.20084e-07
1.5572e-07
5.67801e-09
6.71497e-07
1.76329e-07
4.72945e-09
7.23503e-07
1.9682e-07
3.93151e-09
7.76238e-07
2.17089e-07
3.16294e-09
8.29612e-07
2.37323e-07
2.57312e-09
8.83802e-07
2.57197e-07
1.88517e-09
9.38668e-07
2.77363e-07
1.4043e-09
9.94058e-07
2.96652e-07
1.0433e-09
3.17719e-07
-1.55759e-09
1.05254e-06
2.60607e-07
-4.24712e-08
8.62579e-09
3.10116e-07
-2.39487e-08
7.99535e-09
3.59931e-07
-4.02407e-09
7.15125e-09
4.10046e-07
1.67429e-08
6.15279e-09
4.60494e-07
3.79744e-08
5.1017e-09
5.11286e-07
5.93416e-08
4.08707e-09
5.62485e-07
8.06491e-08
3.14928e-09
6.14103e-07
1.01763e-07
2.3383e-09
6.66253e-07
1.22563e-07
1.61599e-09
7.18946e-07
1.43073e-07
1.05394e-09
7.72348e-07
1.63171e-07
5.15102e-10
8.26433e-07
1.83085e-07
1.5285e-10
8.81416e-07
2.0253e-07
-3.16494e-10
9.3726e-07
2.22154e-07
-6.34413e-10
9.93737e-07
2.40942e-07
-7.66611e-10
2.61267e-07
-3.30417e-09
1.05349e-06
2.68945e-07
-9.58003e-08
5.80396e-09
3.16889e-07
-7.65343e-08
4.64192e-09
3.65431e-07
-5.58635e-08
3.29728e-09
4.14577e-07
-3.43635e-08
1.96053e-09
4.64288e-07
-1.2498e-08
7.61585e-10
5.14521e-07
9.38952e-09
-2.81123e-10
5.6531e-07
3.10339e-08
-1.174e-09
6.16638e-07
5.22859e-08
-1.85116e-09
6.68577e-07
7.30153e-08
-2.39131e-09
7.21129e-07
9.32553e-08
-2.73365e-09
7.74438e-07
1.12907e-07
-3.04442e-09
8.28502e-07
1.32191e-07
-3.17131e-09
8.83522e-07
1.50907e-07
-3.39728e-09
9.39551e-07
1.69637e-07
-3.51128e-09
9.96236e-07
1.876e-07
-3.34391e-09
2.06749e-07
-5.62546e-09
1.05638e-06
3.13547e-07
-1.41841e-07
2.81821e-09
3.56415e-07
-1.21013e-07
1.61053e-09
3.99753e-07
-9.91675e-08
-3.37549e-11
4.44057e-07
-7.69072e-08
-1.75992e-09
4.89584e-07
-5.46563e-08
-3.36961e-09
5.36352e-07
-3.26811e-08
-4.69678e-09
5.843e-07
-1.11985e-08
-5.71546e-09
6.33313e-07
9.67068e-09
-6.39841e-09
6.8336e-07
2.9819e-08
-6.85084e-09
7.34376e-07
4.92834e-08
-7.04352e-09
7.86426e-07
6.80283e-08
-7.17203e-09
8.3947e-07
8.62596e-08
-7.1118e-09
8.93618e-07
1.03878e-07
-7.11842e-09
9.48992e-07
1.21343e-07
-7.08009e-09
1.00504e-06
1.3818e-07
-6.6253e-09
1.55663e-07
-8.40294e-09
1.06453e-06
3.99696e-07
-1.6846e-07
-1.33215e-08
4.36682e-07
-1.46943e-07
-1.10555e-08
4.72589e-07
-1.25018e-07
-1.00565e-08
5.08828e-07
-1.03242e-07
-9.90495e-09
5.4635e-07
-8.19653e-08
-1.02129e-08
5.85681e-07
-6.1351e-08
-1.06609e-08
6.27061e-07
-4.14622e-08
-1.11165e-08
6.70473e-07
-2.22855e-08
-1.14556e-08
7.1583e-07
-3.84338e-09
-1.16948e-08
7.62943e-07
1.39176e-08
-1.17472e-08
8.11727e-07
3.09872e-08
-1.17429e-08
8.6205e-07
4.75221e-08
-1.15852e-08
9.13886e-07
6.34859e-08
-1.14439e-08
9.67354e-07
7.91832e-08
-1.13089e-08
1.02175e-06
9.44064e-08
-1.06173e-08
1.09699e-07
-1.18135e-08
1.07952e-06
5.05141e-07
-1.62052e-07
-4.71104e-08
5.39833e-07
-1.43481e-07
-3.81536e-08
5.70996e-07
-1.24879e-07
-3.13017e-08
6.00749e-07
-1.06557e-07
-2.64369e-08
6.30678e-07
-8.87521e-08
-2.31422e-08
6.61864e-07
-7.15716e-08
-2.09661e-08
6.95015e-07
-5.50411e-08
-1.95722e-08
7.30501e-07
-3.91158e-08
-1.86553e-08
7.68503e-07
-2.37657e-08
-1.80799e-08
8.08999e-07
-8.93132e-09
-1.76465e-08
8.51942e-07
5.37008e-09
-1.73259e-08
8.9716e-07
1.92183e-08
-1.69143e-08
9.44557e-07
3.25818e-08
-1.64931e-08
9.94199e-07
4.56369e-08
-1.60958e-08
1.04537e-06
5.83247e-08
-1.50903e-08
7.07296e-08
-1.57999e-08
1.10014e-06
5.96025e-07
-1.23608e-07
-8.20551e-08
6.32102e-07
-1.11458e-07
-6.80997e-08
6.6303e-07
-9.9184e-08
-5.66241e-08
6.9103e-07
-8.68341e-08
-4.77234e-08
7.17861e-07
-7.45124e-08
-4.10703e-08
7.44768e-07
-6.23312e-08
-3.61478e-08
7.72641e-07
-5.03964e-08
-3.25175e-08
8.02077e-07
-3.87837e-08
-2.97675e-08
8.33524e-07
-2.75579e-08
-2.76553e-08
8.67233e-07
-1.67445e-08
-2.58958e-08
9.03421e-07
-6.36952e-09
-2.44487e-08
9.42147e-07
3.59945e-09
-2.31074e-08
9.83484e-07
1.31642e-08
-2.19194e-08
1.02757e-06
2.24407e-08
-2.08846e-08
1.0739e-06
3.14388e-08
-1.94486e-08
4.01413e-08
-1.97243e-08
1.12421e-06
6.56642e-07
-6.63327e-08
-1.04413e-07
6.95885e-07
-6.09552e-08
-8.97464e-08
7.29153e-07
-5.52929e-08
-7.71586e-08
7.58442e-07
-4.93141e-08
-6.68093e-08
7.85513e-07
-4.30633e-08
-5.85202e-08
8.11711e-07
-3.66428e-08
-5.18863e-08
8.37999e-07
-3.01825e-08
-4.65018e-08
8.65003e-07
-2.38155e-08
-4.19728e-08
8.93174e-07
-1.76549e-08
-3.80732e-08
9.22797e-07
-1.17827e-08
-3.4585e-08
9.54174e-07
-6.23619e-09
-3.15103e-08
9.87546e-07
-1.01153e-09
-2.87612e-08
1.02325e-06
3.92523e-09
-2.64658e-08
1.06167e-06
8.65888e-09
-2.46421e-08
1.10275e-06
1.32211e-08
-2.28604e-08
1.76547e-08
-2.26493e-08
1.14789e-06
6.85773e-07
-1.16408e-07
7.27782e-07
-1.02786e-07
7.63205e-07
-9.04293e-08
7.93847e-07
-7.95862e-08
8.21506e-07
-7.03029e-08
8.47716e-07
-6.24226e-08
8.73625e-07
-5.56905e-08
8.99965e-07
-4.98198e-08
9.27167e-07
-4.46125e-08
9.55443e-07
-3.99211e-08
9.84983e-07
-3.57483e-08
1.016e-06
-3.21001e-08
1.04885e-06
-2.90793e-08
1.08408e-06
-2.67781e-08
1.12193e-06
-2.48751e-08
-2.41311e-08
1.16347e-06
1.15952e-06
1.25934e-06
1.39581e-09
1.2267e-06
1.29647e-06
-1.11003e-08
-1.35542e-06
1.29703e-06
1.33713e-06
-1.40681e-08
-1.39798e-06
1.36927e-06
1.38042e-06
-1.09557e-08
-1.44393e-06
1.44286e-06
1.42503e-06
-7.63873e-09
-1.49126e-06
1.51811e-06
1.4704e-06
-5.57738e-09
-1.53952e-06
1.59555e-06
1.51655e-06
-4.35223e-09
-1.58873e-06
1.67485e-06
1.56358e-06
-3.59268e-09
-1.63824e-06
1.75481e-06
1.61125e-06
-3.46727e-09
-1.68703e-06
1.83533e-06
1.65885e-06
-3.97081e-09
-1.73552e-06
1.91779e-06
1.70788e-06
-4.29708e-09
-1.78676e-06
1.75783e-06
-4.99142e-09
2.00342e-06
-1.83981e-06
1.16435e-06
1.19919e-06
-7.1799e-09
1.23308e-06
1.23462e-06
-8.92563e-09
1.30446e-06
1.27273e-06
-6.95064e-09
1.3778e-06
1.3132e-06
-4.2175e-09
1.45257e-06
1.3554e-06
-2.5308e-09
1.52875e-06
1.39868e-06
-1.78109e-09
1.60674e-06
1.44255e-06
-1.35057e-09
1.68693e-06
1.48695e-06
-8.14718e-10
1.76885e-06
1.5324e-06
-7.53658e-11
1.85175e-06
1.57849e-06
4.29362e-10
1.93578e-06
1.62593e-06
7.82498e-10
1.67416e-06
5.51301e-11
2.02159e-06
1.09891e-06
1.1045e-06
-9.73244e-10
1.16579e-06
1.13552e-06
-1.69275e-09
1.23533e-06
1.16873e-06
-4.57768e-10
1.30737e-06
1.20408e-06
1.04582e-09
1.3817e-06
1.2417e-06
2.05505e-09
1.45799e-06
1.28145e-06
2.51356e-09
1.53586e-06
1.32284e-06
2.62668e-09
1.61512e-06
1.36511e-06
2.68244e-09
1.69609e-06
1.40755e-06
2.8369e-09
1.77901e-06
1.45066e-06
3.3692e-09
1.86368e-06
1.49449e-06
3.96177e-09
1.94989e-06
1.53997e-06
4.24199e-09
1.58677e-06
3.18815e-09
2.03781e-06
1.09593e-06
1.03824e-06
4.25576e-09
1.16404e-06
1.06772e-06
4.8333e-09
1.23437e-06
1.09887e-06
5.26993e-09
1.30708e-06
1.1318e-06
5.2808e-09
1.38236e-06
1.16681e-06
5.05788e-09
1.46008e-06
1.20406e-06
4.82758e-09
1.53991e-06
1.24331e-06
4.58203e-09
1.62128e-06
1.28403e-06
4.38875e-09
1.70395e-06
1.32516e-06
4.15353e-09
1.78809e-06
1.36665e-06
4.14721e-09
1.87398e-06
1.40843e-06
4.3724e-09
1.96188e-06
1.45158e-06
4.47033e-09
1.49658e-06
3.12848e-09
2.05208e-06
1.08951e-06
9.66965e-07
1.08163e-08
1.15924e-06
9.95137e-07
1.03379e-08
1.23089e-06
1.0248e-06
9.49826e-09
1.3047e-06
1.05596e-06
8.50802e-09
1.38097e-06
1.08886e-06
7.59742e-09
1.45984e-06
1.12376e-06
6.92214e-09
1.54126e-06
1.16066e-06
6.37852e-09
1.62479e-06
1.1994e-06
5.98875e-09
1.70986e-06
1.23909e-06
5.56403e-09
1.79616e-06
1.27942e-06
5.22413e-09
1.88371e-06
1.31987e-06
5.11516e-09
1.973e-06
1.3611e-06
4.94724e-09
1.40428e-06
2.78251e-09
2.06507e-06
1.00859e-06
8.64332e-07
1.82868e-08
1.07875e-06
8.89822e-07
1.68819e-08
1.15074e-06
9.17037e-07
1.52408e-08
1.2245e-06
9.45765e-07
1.35279e-08
1.30011e-06
9.75856e-07
1.19039e-08
1.37782e-06
1.00735e-06
1.0472e-08
1.45787e-06
1.04044e-06
9.34429e-09
1.54048e-06
1.07517e-06
8.44428e-09
1.62558e-06
1.11169e-06
7.79768e-09
1.71279e-06
1.14948e-06
7.23896e-09
1.80164e-06
1.18836e-06
6.71087e-09
1.89168e-06
1.2277e-06
6.38456e-09
1.98304e-06
1.26754e-06
6.01803e-09
1.30932e-06
3.02159e-09
2.07724e-06
9.90532e-07
7.81562e-07
2.46847e-08
1.06341e-06
8.06328e-07
2.21917e-08
1.1382e-06
8.32918e-07
1.97756e-08
1.21473e-06
8.61105e-07
1.75006e-08
1.2929e-06
8.9065e-07
1.53948e-08
1.3728e-06
9.21393e-07
1.35045e-08
1.45457e-06
9.53412e-07
1.19112e-08
1.53851e-06
9.8661e-07
1.05984e-08
1.62482e-06
1.02123e-06
9.59244e-09
1.71347e-06
1.057e-06
8.80939e-09
1.8043e-06
1.09398e-06
8.09168e-09
1.89681e-06
1.13185e-06
7.59545e-09
1.99074e-06
1.17027e-06
7.14058e-09
1.21095e-06
3.50099e-09
2.08759e-06
9.67485e-07
6.91486e-07
3.04752e-08
1.04353e-06
7.16003e-07
2.72401e-08
1.12149e-06
7.42347e-07
2.4245e-08
1.2012e-06
7.70289e-07
2.15022e-08
1.28249e-06
7.99636e-07
1.89702e-08
1.36529e-06
8.30093e-07
1.66707e-08
1.4496e-06
8.6166e-07
1.46638e-08
1.53556e-06
8.94089e-07
1.29411e-08
1.62343e-06
9.27509e-07
1.1533e-08
1.71334e-06
9.61757e-07
1.04257e-08
1.8055e-06
9.96905e-07
9.4329e-09
1.8997e-06
1.03306e-06
8.72761e-09
1.99574e-06
1.0697e-06
8.16862e-09
1.10917e-06
3.79562e-09
2.09522e-06
8.61936e-07
5.70413e-07
3.99455e-08
9.39798e-07
5.93454e-07
3.57613e-08
1.01949e-06
6.18335e-07
3.19542e-08
1.10094e-06
6.44935e-07
2.84579e-08
1.18406e-06
6.73009e-07
2.52727e-08
1.26872e-06
7.02445e-07
2.23665e-08
1.35481e-06
7.32933e-07
1.97175e-08
1.44227e-06
7.64416e-07
1.73803e-08
1.53105e-06
7.96633e-07
1.53276e-08
1.62128e-06
8.29528e-07
1.35573e-08
1.71303e-06
8.62989e-07
1.21211e-08
1.80662e-06
8.96922e-07
1.07882e-08
1.90212e-06
9.31683e-07
9.81851e-09
1.9995e-06
9.66555e-07
9.10887e-09
1.00462e-06
3.97722e-09
2.10095e-06
8.25734e-07
4.6263e-07
4.46611e-08
9.08146e-07
4.86936e-07
4.00442e-08
9.92028e-07
5.12898e-07
3.57995e-08
1.07735e-06
5.40378e-07
3.19002e-08
1.1641e-06
5.69126e-07
2.83381e-08
1.25224e-06
5.99044e-07
2.51172e-08
1.34172e-06
6.29884e-07
2.21951e-08
1.4325e-06
6.61549e-07
1.95965e-08
1.52448e-06
6.93852e-07
1.73199e-08
1.61768e-06
7.26646e-07
1.52828e-08
1.71206e-06
7.59855e-07
1.36055e-08
1.80781e-06
7.93245e-07
1.19747e-08
1.90504e-06
8.27236e-07
1.07355e-08
2.00371e-06
8.60901e-07
9.88796e-09
8.97636e-07
4.24379e-09
2.10669e-06
7.86919e-07
3.46056e-07
4.67209e-08
8.7436e-07
3.72148e-07
4.21063e-08
9.62865e-07
3.99844e-07
3.77203e-08
1.05241e-06
4.28866e-07
3.36292e-08
1.14299e-06
4.58917e-07
2.9857e-08
1.23467e-06
4.89856e-07
2.64379e-08
1.32745e-06
5.21472e-07
2.33652e-08
1.42138e-06
5.5365e-07
2.0618e-08
1.51643e-06
5.86266e-07
1.82427e-08
1.61263e-06
6.19175e-07
1.60868e-08
1.70989e-06
6.52371e-07
1.43138e-08
1.80831e-06
6.85569e-07
1.25455e-08
1.90794e-06
7.19213e-07
1.11245e-08
2.00855e-06
7.52259e-07
1.02328e-08
7.88002e-07
4.43085e-09
2.11328e-06
7.49785e-07
2.22679e-07
4.47342e-08
8.42261e-07
2.50664e-07
4.06694e-08
9.35456e-07
2.80477e-07
3.65536e-08
1.02928e-06
3.11586e-07
3.25675e-08
1.12371e-06
3.4354e-07
2.88148e-08
1.21882e-06
3.76087e-07
2.53763e-08
1.31467e-06
4.08992e-07
2.23048e-08
1.41138e-06
4.421e-07
1.95684e-08
1.50901e-06
4.75325e-07
1.72438e-08
1.60767e-06
5.08528e-07
1.51509e-08
1.70736e-06
5.41791e-07
1.34664e-08
1.80817e-06
5.74848e-07
1.17937e-08
1.91019e-06
6.08196e-07
1.03958e-08
2.01306e-06
6.40803e-07
9.63609e-09
6.75774e-07
3.90189e-09
2.11983e-06
6.2733e-07
7.15032e-08
4.00783e-08
7.23051e-07
9.73195e-08
3.76335e-08
8.19575e-07
1.26745e-07
3.4546e-08
9.16583e-07
1.58548e-07
3.10747e-08
1.01391e-06
1.91872e-07
2.74907e-08
1.11149e-06
2.26031e-07
2.40173e-08
1.20937e-06
2.60558e-07
2.07969e-08
1.30762e-06
2.95128e-07
1.79467e-08
1.4064e-06
3.29489e-07
1.54466e-08
1.50582e-06
3.63561e-07
1.33989e-08
1.60608e-06
3.97186e-07
1.16036e-08
1.70726e-06
4.30516e-07
1.02413e-08
1.80956e-06
4.63329e-07
8.90508e-09
1.91315e-06
4.96193e-07
7.78202e-09
2.01763e-06
5.28172e-07
7.37689e-09
5.62223e-07
1.85856e-09
2.12602e-06
6.25451e-07
-4.42111e-08
2.53223e-08
7.22596e-07
-1.94362e-08
2.42527e-08
8.20419e-07
9.9129e-09
2.23062e-08
9.18636e-07
4.2529e-08
1.97633e-08
1.01707e-06
7.72281e-08
1.69735e-08
1.11563e-06
1.13003e-07
1.4188e-08
1.21433e-06
1.49098e-07
1.15791e-08
1.31325e-06
1.85025e-07
9.3322e-09
1.41254e-06
2.20394e-07
7.4177e-09
1.51233e-06
2.55077e-07
5.96311e-09
1.61283e-06
2.88892e-07
4.7436e-09
1.71421e-06
3.22011e-07
3.95465e-09
1.81668e-06
3.54279e-07
3.17962e-09
1.92054e-06
3.8629e-07
2.53666e-09
2.02533e-06
4.17304e-07
2.7294e-09
4.49923e-07
-2.19507e-09
2.1342e-06
6.77608e-07
-1.31253e-07
-4.92121e-09
7.71712e-07
-1.08466e-07
-3.46399e-09
8.65584e-07
-8.12641e-08
-2.72838e-09
9.59568e-07
-5.0572e-08
-2.64298e-09
1.05393e-06
-1.74268e-08
-3.0744e-09
1.14879e-06
1.72261e-08
-3.78121e-09
1.2442e-06
5.25211e-08
-4.54576e-09
1.34021e-06
8.77941e-08
-5.17909e-09
1.43695e-06
1.22496e-07
-5.70028e-09
1.53455e-06
1.56385e-07
-5.94711e-09
1.63316e-06
1.89237e-07
-6.13019e-09
1.73291e-06
2.21184e-07
-6.03533e-09
1.83396e-06
2.52126e-07
-6.01003e-09
1.93663e-06
2.82573e-07
-6.03767e-09
2.04037e-06
3.12076e-07
-5.13309e-09
3.42459e-07
-8.87547e-09
2.14831e-06
7.80732e-07
-1.74524e-07
-6.5371e-08
8.7248e-07
-1.53563e-07
-5.77061e-08
9.61413e-07
-1.29732e-07
-5.0522e-08
1.04846e-06
-1.03463e-07
-4.40595e-08
1.13461e-06
-7.52837e-08
-3.85107e-08
1.22082e-06
-4.56988e-08
-3.39478e-08
1.30791e-06
-1.52672e-08
-3.04135e-08
1.39636e-06
1.55318e-08
-2.76451e-08
1.48641e-06
4.62231e-08
-2.54735e-08
1.57817e-06
7.651e-08
-2.36254e-08
1.67173e-06
1.06093e-07
-2.21611e-08
1.76715e-06
1.34974e-07
-2.07998e-08
1.86448e-06
1.63036e-07
-1.96815e-08
1.964e-06
1.90589e-07
-1.88428e-08
2.06504e-06
2.17435e-07
-1.70143e-08
2.44395e-07
-1.91342e-08
2.17042e-06
8.99282e-07
-1.70395e-07
-1.49136e-07
9.9149e-07
-1.53103e-07
-1.30822e-07
1.07882e-06
-1.34403e-07
-1.13958e-07
1.16227e-06
-1.14329e-07
-9.90217e-08
1.24296e-06
-9.3044e-08
-8.607e-08
1.32205e-06
-7.07558e-08
-7.50058e-08
1.40072e-06
-4.7705e-08
-6.58026e-08
1.48003e-06
-2.40964e-08
-5.83377e-08
1.5609e-06
-1.97085e-10
-5.253e-08
1.6439e-06
2.37722e-08
-4.79035e-08
1.72935e-06
4.75298e-08
-4.42158e-08
1.81743e-06
7.09601e-08
-4.09798e-08
1.90823e-06
9.39029e-08
-3.81592e-08
2.00202e-06
1.16485e-07
-3.57851e-08
2.09819e-06
1.38658e-07
-3.24833e-08
1.60504e-07
-3.28462e-08
2.19913e-06
9.97158e-07
-1.28667e-07
-2.23272e-07
1.09025e-06
-1.17884e-07
-1.96413e-07
1.17785e-06
-1.06287e-07
-1.72334e-07
1.26095e-06
-9.36626e-08
-1.51497e-07
1.34058e-06
-7.99576e-08
-1.33783e-07
1.41766e-06
-6.52467e-08
-1.18742e-07
1.49312e-06
-4.97117e-08
-1.0597e-07
1.56786e-06
-3.35803e-08
-9.50204e-08
1.64281e-06
-1.71194e-08
-8.56796e-08
1.71884e-06
-5.63001e-10
-7.75952e-08
1.79676e-06
1.58626e-08
-7.06984e-08
1.87711e-06
3.2032e-08
-6.45303e-08
1.96033e-06
4.78465e-08
-5.90806e-08
2.04689e-06
6.3393e-08
-5.43574e-08
2.13656e-06
7.87272e-08
-4.91841e-08
9.37311e-08
-4.77911e-08
2.2314e-06
1.05674e-06
-6.78099e-08
-2.65548e-07
1.15061e-06
-6.34832e-08
-2.38018e-07
1.239e-06
-5.85664e-08
-2.13267e-07
1.32294e-06
-5.28677e-08
-1.91546e-07
1.40342e-06
-4.63054e-08
-1.72652e-07
1.48127e-06
-3.89156e-08
-1.56074e-07
1.55723e-06
-3.08382e-08
-1.41328e-07
1.63192e-06
-2.2289e-08
-1.27952e-07
1.70598e-06
-1.35192e-08
-1.15739e-07
1.78005e-06
-4.7689e-09
-1.04447e-07
1.8548e-06
3.77718e-09
-9.41754e-08
1.93087e-06
1.20259e-08
-8.48254e-08
2.00891e-06
1.99573e-08
-7.66161e-08
2.08966e-06
2.76569e-08
-6.96594e-08
2.17343e-06
3.52125e-08
-6.31083e-08
4.26113e-08
-6.01393e-08
2.26204e-06
1.08039e-06
-2.85468e-07
1.17524e-06
-2.60859e-07
1.26446e-06
-2.37822e-07
1.34911e-06
-2.16577e-07
1.4302e-06
-1.97093e-07
1.50866e-06
-1.79149e-07
1.58526e-06
-1.62505e-07
1.66067e-06
-1.46961e-07
1.73544e-06
-1.32472e-07
1.81003e-06
-1.19014e-07
1.88487e-06
-1.06723e-07
1.96036e-06
-9.56625e-08
2.037e-06
-8.60236e-08
2.11553e-06
-7.80418e-08
2.19652e-06
-7.11191e-08
-6.69518e-08
2.28145e-06
1.65369e-06
1.77211e-06
-2.46963e-09
1.74331e-06
1.82249e-06
-1.7136e-08
-1.90608e-06
1.83757e-06
1.87731e-06
-2.21437e-08
-1.96349e-06
1.93581e-06
1.93647e-06
-1.99106e-08
-2.02575e-06
2.03735e-06
1.99894e-06
-1.63821e-08
-2.09174e-06
2.14213e-06
2.06374e-06
-1.35767e-08
-2.16053e-06
2.25041e-06
2.13031e-06
-1.14485e-08
-2.23149e-06
2.36156e-06
2.19824e-06
-9.75512e-09
-2.30322e-06
2.47399e-06
2.26687e-06
-8.71198e-09
-2.37405e-06
2.58731e-06
2.33539e-06
-8.44251e-09
-2.44424e-06
2.70323e-06
2.40545e-06
-8.31095e-09
-2.51735e-06
2.47689e-06
-8.7336e-09
2.82311e-06
-2.59302e-06
1.6583e-06
1.68819e-06
-1.00197e-08
1.74992e-06
1.73619e-06
-1.42467e-08
1.84607e-06
1.78819e-06
-1.39806e-08
1.94612e-06
1.84402e-06
-1.18156e-08
2.04937e-06
1.90308e-06
-9.91884e-09
2.15546e-06
1.96456e-06
-8.69205e-09
2.26459e-06
2.02759e-06
-7.75901e-09
2.37698e-06
2.09171e-06
-6.67746e-09
2.49196e-06
2.1571e-06
-5.27746e-09
2.60853e-06
2.22327e-06
-4.02836e-09
2.72684e-06
2.29096e-06
-3.03078e-09
2.35964e-06
-3.40623e-09
2.84755e-06
1.57037e-06
1.55902e-06
2.06805e-10
1.6591e-06
1.60091e-06
-3.1431e-09
1.75237e-06
1.64631e-06
-3.85308e-09
1.84998e-06
1.69511e-06
-3.47688e-09
1.9516e-06
1.74733e-06
-2.88467e-09
2.05677e-06
1.80285e-06
-2.42101e-09
2.16493e-06
1.86116e-06
-2.14195e-09
2.27573e-06
1.92134e-06
-1.86092e-09
2.38931e-06
1.98235e-06
-1.38385e-09
2.50581e-06
2.04432e-06
-3.50503e-10
2.62489e-06
2.10723e-06
9.25311e-10
2.74621e-06
2.17204e-06
1.83328e-09
2.23835e-06
9.64428e-10
2.86972e-06
1.56569e-06
1.46963e-06
6.8528e-09
1.65655e-06
1.50961e-06
5.27626e-09
1.7514e-06
1.55244e-06
4.29138e-09
1.85028e-06
1.59808e-06
3.42729e-09
1.95325e-06
1.64674e-06
2.68119e-09
2.06017e-06
1.6986e-06
2.15759e-09
2.17065e-06
1.75351e-06
1.75907e-09
2.28398e-06
1.81086e-06
1.5284e-09
2.39974e-06
1.86937e-06
1.37422e-09
2.51795e-06
1.92864e-06
1.6161e-09
2.63883e-06
1.98841e-06
2.31244e-09
2.76256e-06
2.04985e-06
2.92926e-09
2.11338e-06
1.59388e-09
2.88907e-06
1.55713e-06
1.37505e-06
1.55975e-08
1.65046e-06
1.41323e-06
1.33923e-08
1.74727e-06
1.45384e-06
1.1292e-08
1.8477e-06
1.49681e-06
9.34437e-09
1.95204e-06
1.54232e-06
7.67389e-09
2.06045e-06
1.59069e-06
6.42204e-09
2.17288e-06
1.642e-06
5.45768e-09
2.28882e-06
1.69611e-06
4.80461e-09
2.40752e-06
1.75198e-06
4.24998e-09
2.52847e-06
1.80899e-06
3.91947e-09
2.65159e-06
1.86638e-06
4.02697e-09
2.77733e-06
1.92483e-06
4.23025e-09
1.98547e-06
1.67346e-09
2.90635e-06
1.45037e-06
1.2401e-06
2.82749e-08
1.54339e-06
1.27405e-06
2.48638e-08
1.63973e-06
1.31057e-06
2.15636e-08
1.73926e-06
1.34939e-06
1.84442e-08
1.84201e-06
1.39035e-06
1.56097e-08
1.94823e-06
1.43344e-06
1.31302e-08
2.05821e-06
1.47891e-06
1.11482e-08
2.17221e-06
1.52686e-06
9.57994e-09
2.29016e-06
1.57749e-06
8.46291e-09
2.41157e-06
1.63021e-06
7.60379e-09
2.53572e-06
1.68463e-06
6.91575e-09
2.66204e-06
1.73986e-06
6.5858e-09
2.79052e-06
1.79592e-06
6.45699e-09
1.85412e-06
2.53655e-09
2.92235e-06
1.42727e-06
1.13321e-06
3.85841e-08
1.52383e-06
1.16565e-06
3.40305e-08
1.6237e-06
1.20071e-06
2.97577e-08
1.72669e-06
1.23811e-06
2.58001e-08
1.83264e-06
1.27761e-06
2.21844e-08
1.94164e-06
1.31901e-06
1.8947e-08
2.05386e-06
1.36238e-06
1.62072e-08
2.16966e-06
1.40771e-06
1.39566e-08
2.28925e-06
1.45524e-06
1.22442e-08
2.41261e-06
1.5047e-06
1.09743e-08
2.53936e-06
1.55602e-06
9.95035e-09
2.66889e-06
1.60864e-06
9.2831e-09
2.80072e-06
1.66225e-06
8.98122e-09
1.71839e-06
3.95271e-09
2.936e-06
1.39752e-06
1.01764e-06
4.90058e-08
1.49807e-06
1.04893e-06
4.34131e-08
1.60195e-06
1.08284e-06
3.82422e-08
1.70894e-06
1.11912e-06
3.35009e-08
1.81882e-06
1.15754e-06
2.91521e-08
1.93151e-06
1.19779e-06
2.52088e-08
2.04699e-06
1.2398e-06
2.17581e-08
2.16545e-06
1.28339e-06
1.88075e-08
2.28714e-06
1.32866e-06
1.6418e-08
2.41225e-06
1.37543e-06
1.45839e-08
2.54088e-06
1.42373e-06
1.30939e-08
2.67275e-06
1.47346e-06
1.20426e-08
2.80743e-06
1.52417e-06
1.15678e-08
1.57811e-06
5.37996e-09
2.94612e-06
1.25915e-06
8.63963e-07
6.65956e-08
1.36104e-06
8.92079e-07
5.9431e-08
1.46621e-06
9.22844e-07
5.28647e-08
1.57456e-06
9.56128e-07
4.68214e-08
1.68595e-06
9.91701e-07
4.12984e-08
1.80021e-06
1.02939e-06
3.62623e-08
1.91717e-06
1.06886e-06
3.16761e-08
2.03675e-06
1.11e-06
2.76105e-08
2.15889e-06
1.15253e-06
2.40482e-08
2.28371e-06
1.19638e-06
2.10154e-08
2.41132e-06
1.24136e-06
1.85783e-08
2.54195e-06
1.28739e-06
1.64983e-08
2.67568e-06
1.3346e-06
1.4945e-08
2.81232e-06
1.38242e-06
1.4213e-08
1.43391e-06
6.80893e-09
2.95369e-06
1.21034e-06
7.26675e-07
7.72832e-08
1.31805e-06
7.55217e-07
6.91962e-08
1.42868e-06
7.86284e-07
6.17367e-08
1.54213e-06
8.19694e-07
5.48782e-08
1.65837e-06
8.55198e-07
4.86066e-08
1.7773e-06
8.9265e-07
4.29232e-08
1.89883e-06
9.31766e-07
3.77639e-08
2.02287e-06
9.72394e-07
3.31597e-08
2.14931e-06
1.01429e-06
2.91117e-08
2.27813e-06
1.0573e-06
2.55534e-08
2.40927e-06
1.10121e-06
2.2615e-08
2.54285e-06
1.14581e-06
1.99758e-08
2.67899e-06
1.19132e-06
1.78726e-08
2.81753e-06
1.23693e-06
1.68416e-08
1.28612e-06
8.46923e-09
2.96109e-06
1.15556e-06
5.76605e-07
8.50625e-08
1.27e-06
6.06323e-07
7.65563e-08
1.38692e-06
6.38575e-07
6.85143e-08
1.50619e-06
6.73005e-07
6.10403e-08
1.6278e-06
7.09285e-07
5.41675e-08
1.75172e-06
7.47229e-07
4.79337e-08
1.87795e-06
7.86582e-07
4.23173e-08
2.00649e-06
8.27177e-07
3.72951e-08
2.1373e-06
8.68818e-07
3.29139e-08
2.27032e-06
9.11331e-07
2.90233e-08
2.40548e-06
9.54582e-07
2.57862e-08
2.54273e-06
9.98301e-07
2.28057e-08
2.68217e-06
1.04273e-06
2.02762e-08
2.82339e-06
1.08691e-06
1.90286e-08
1.13433e-06
1.01487e-08
2.96947e-06
1.09889e-06
4.15014e-07
8.70711e-08
1.22062e-06
4.46284e-07
7.89798e-08
1.34441e-06
4.80391e-07
7.09467e-08
1.47005e-06
5.16679e-07
6.32559e-08
1.59745e-06
5.54633e-07
5.60706e-08
1.72661e-06
5.93935e-07
4.95021e-08
1.85759e-06
6.34295e-07
4.36122e-08
1.99046e-06
6.75503e-07
3.83721e-08
2.12527e-06
7.17387e-07
3.38629e-08
2.26209e-06
7.59773e-07
2.98978e-08
2.40088e-06
8.02613e-07
2.66431e-08
2.54165e-06
8.45653e-07
2.36722e-08
2.68451e-06
8.89218e-07
2.10505e-08
2.82888e-06
9.32315e-07
1.9853e-08
9.78339e-07
1.08735e-08
2.9779e-06
9.24017e-07
2.20022e-07
8.45423e-08
1.05024e-06
2.47527e-07
7.89022e-08
1.17876e-06
2.79971e-07
7.23318e-08
1.30903e-06
3.15949e-07
6.52456e-08
1.4407e-06
3.54423e-07
5.80774e-08
1.57359e-06
3.94585e-07
5.11758e-08
1.70767e-06
4.35875e-07
4.47782e-08
1.84298e-06
4.77874e-07
3.90572e-08
1.97964e-06
5.20264e-07
3.40284e-08
2.11776e-06
5.62853e-07
2.9813e-08
2.2575e-06
6.05436e-07
2.62028e-08
2.39895e-06
6.48033e-07
2.33638e-08
2.54224e-06
6.90423e-07
2.08459e-08
2.6876e-06
7.33045e-07
1.85973e-08
2.83445e-06
7.74965e-07
1.78741e-08
8.19529e-07
9.1645e-09
2.98596e-06
8.98457e-07
6.24282e-08
5.48912e-08
1.02923e-06
8.84687e-08
5.25399e-08
1.16208e-06
1.20479e-07
4.8948e-08
1.29643e-06
1.56954e-07
4.44067e-08
1.43188e-06
1.96565e-07
3.93824e-08
1.56818e-06
2.38196e-07
3.42776e-08
1.70525e-06
2.80976e-07
2.94044e-08
1.84313e-06
3.24282e-07
2.50507e-08
1.98193e-06
3.67618e-07
2.12645e-08
2.1218e-06
4.10715e-07
1.82309e-08
2.26294e-06
4.53304e-07
1.57277e-08
2.40555e-06
4.95426e-07
1.39516e-08
2.54982e-06
5.36895e-07
1.24391e-08
2.69613e-06
5.78218e-07
1.10521e-08
2.84393e-06
6.18628e-07
1.12716e-08
6.61173e-07
3.5022e-09
2.99659e-06
9.35165e-07
-6.07996e-08
-1.08431e-08
1.06555e-06
-3.709e-08
-8.28656e-09
1.19719e-06
-7.73963e-09
-6.15399e-09
1.33001e-06
2.62028e-08
-4.70922e-09
1.46382e-06
6.36162e-08
-3.93489e-09
1.59848e-06
1.03455e-07
-3.70569e-09
1.73396e-06
1.44766e-07
-3.81706e-09
1.87031e-06
1.86782e-07
-4.02411e-09
2.00766e-06
2.28851e-07
-4.28177e-09
2.14617e-06
2.70588e-07
-4.33521e-09
2.28606e-06
3.11641e-07
-4.35493e-09
2.42752e-06
3.52002e-07
-4.06673e-09
2.57071e-06
3.91506e-07
-3.81934e-09
2.71611e-06
4.306e-07
-3.81101e-09
2.86303e-06
4.68796e-07
-2.2297e-09
5.08297e-07
-8.03383e-09
3.01507e-06
1.0388e-06
-1.29992e-07
-1.26824e-07
1.16781e-06
-1.08279e-07
-1.15531e-07
1.29561e-06
-8.27959e-08
-1.03267e-07
1.42271e-06
-5.40069e-08
-9.0948e-08
1.5497e-06
-2.25086e-08
-7.93717e-08
1.67712e-06
1.11076e-08
-6.90247e-08
1.80541e-06
4.62501e-08
-6.01884e-08
1.9349e-06
8.24024e-08
-5.27599e-08
2.0659e-06
1.19027e-07
-4.6647e-08
2.19865e-06
1.55733e-07