/*--------------------------------*- C++ -*----------------------------------*\
  =========                 |
  \\      /  F ield         | OpenFOAM: The Open Source CFD Toolbox
   \\    /   O peration     | Website:  https://openfoam.org
    \\  /    A nd           | Version:  6
     \\/     M anipulation  |
\*---------------------------------------------------------------------------*/
FoamFile
{
    version     2.0;
    format      ascii;
    class       volVectorField;
    location    "1.8";
    object      U;
}
// * * * * * * * * * * * * * * * * * * * * * * * * * * * * * * * * * * * * * //

dimensions      [0 1 -1 0 0 0 0];

internalField   nonuniform List<vector> 
63432
(
(0.108834 0.0184168 -7.23516e-05)
(0.109789 0.0167371 -6.29814e-05)
(0.111048 0.0153026 -4.14599e-05)
(0.112059 0.0140005 -2.23323e-05)
(0.112579 0.0127366 -1.39329e-05)
(0.112777 0.0115228 -1.1249e-05)
(0.112895 0.0103641 -1.01805e-05)
(0.113022 0.0092515 -9.51184e-06)
(0.112977 0.00817666 -9.10728e-06)
(0.112525 0.00717532 -8.64181e-06)
(0.112038 0.0063036 -7.82658e-06)
(0.111534 0.00549842 -6.54063e-06)
(0.107459 0.0188124 -3.81967e-05)
(0.10877 0.0171117 -1.82722e-05)
(0.109952 0.0156018 -8.05635e-07)
(0.110922 0.0142334 7.21235e-06)
(0.111634 0.0129568 7.48956e-06)
(0.11206 0.0117419 5.69812e-06)
(0.112262 0.0105751 4.63606e-06)
(0.112386 0.00946904 4.56556e-06)
(0.112516 0.00843568 4.93886e-06)
(0.11243 0.00746578 5.1991e-06)
(0.112179 0.00659253 5.07206e-06)
(0.111727 0.00572267 3.71485e-06)
(0.104119 0.0203769 -1.78829e-05)
(0.105522 0.0184789 2.95881e-06)
(0.106717 0.0167523 1.66943e-05)
(0.107788 0.0152027 2.17095e-05)
(0.108809 0.0138171 2.04731e-05)
(0.109758 0.012563 1.70825e-05)
(0.110537 0.0113964 1.3952e-05)
(0.111043 0.0102737 1.18468e-05)
(0.111291 0.00918734 1.05533e-05)
(0.111469 0.00816638 9.92761e-06)
(0.111522 0.00722023 9.40127e-06)
(0.111539 0.00638331 8.37536e-06)
(0.111392 0.00560235 5.941e-06)
(0.101486 0.0195876 1.62748e-05)
(0.102933 0.0177173 2.71894e-05)
(0.104162 0.0160131 2.88985e-05)
(0.105304 0.0144811 2.58662e-05)
(0.106445 0.0131187 2.17143e-05)
(0.107574 0.0119029 1.81256e-05)
(0.108631 0.0107977 1.51659e-05)
(0.109514 0.00975544 1.28605e-05)
(0.110086 0.00874133 1.08901e-05)
(0.110465 0.0077716 9.46035e-06)
(0.11064 0.0068593 8.48649e-06)
(0.110773 0.00605717 7.35387e-06)
(0.110885 0.00532763 4.61807e-06)
(0.0982836 0.0184825 4.22196e-05)
(0.0999581 0.0166764 4.04931e-05)
(0.101443 0.0150411 3.50223e-05)
(0.1028 0.0135692 2.92249e-05)
(0.1041 0.0122577 2.44408e-05)
(0.105367 0.0110915 2.07924e-05)
(0.106587 0.0100444 1.77074e-05)
(0.107737 0.00908179 1.51685e-05)
(0.108664 0.00816063 1.28825e-05)
(0.109379 0.00727822 1.09561e-05)
(0.109818 0.00642807 9.51981e-06)
(0.110081 0.00567162 8.04432e-06)
(0.110371 0.0049897 4.35589e-06)
(0.0921773 0.0187362 6.39218e-05)
(0.0944704 0.0168494 5.74093e-05)
(0.0965556 0.0151655 4.89193e-05)
(0.0984443 0.0136571 4.08031e-05)
(0.100141 0.012302 3.39946e-05)
(0.10169 0.0110903 2.84992e-05)
(0.103134 0.0100096 2.41604e-05)
(0.104487 0.00904098 2.05391e-05)
(0.105794 0.00816417 1.75945e-05)
(0.106958 0.00734219 1.50713e-05)
(0.107986 0.00656855 1.28262e-05)
(0.108772 0.00581644 1.10708e-05)
(0.109293 0.00513607 9.24161e-06)
(0.109825 0.00452738 4.83397e-06)
(0.0873812 0.0163275 7.79861e-05)
(0.0901765 0.0146166 6.56851e-05)
(0.0927565 0.0131183 5.4938e-05)
(0.0951193 0.0117968 4.58998e-05)
(0.0972435 0.0106195 3.83083e-05)
(0.0991474 0.00956705 3.20061e-05)
(0.100869 0.00862563 2.6848e-05)
(0.102413 0.0077763 2.26132e-05)
(0.103867 0.00701021 1.91825e-05)
(0.105177 0.00629832 1.63895e-05)
(0.106395 0.00564201 1.39079e-05)
(0.10747 0.00500839 1.1974e-05)
(0.108264 0.00443464 1.00444e-05)
(0.109123 0.00391946 5.06134e-06)
(0.082114 0.0131788 8.50601e-05)
(0.0854905 0.0117299 7.10756e-05)
(0.088604 0.0104877 5.93711e-05)
(0.0914627 0.00941368 4.96212e-05)
(0.0940631 0.0084737 4.13172e-05)
(0.0963884 0.00763906 3.43724e-05)
(0.0984891 0.00689567 2.86487e-05)
(0.100327 0.00621921 2.39366e-05)
(0.102 0.00560568 2.0096e-05)
(0.103482 0.00503228 1.70086e-05)
(0.104821 0.00450674 1.43165e-05)
(0.106085 0.00400279 1.22278e-05)
(0.107053 0.00355263 1.02902e-05)
(0.108216 0.0031605 4.53037e-06)
(0.0721543 0.0105205 0.000104281)
(0.0764997 0.00920227 8.68971e-05)
(0.0805034 0.00811471 7.25195e-05)
(0.0841865 0.00721334 6.03746e-05)
(0.0875487 0.00645607 5.02065e-05)
(0.0906341 0.0058149 4.16457e-05)
(0.0934049 0.00525593 3.44865e-05)
(0.0959215 0.0047657 2.86425e-05)
(0.0981404 0.00431895 2.38347e-05)
(0.100116 0.00390905 1.9867e-05)
(0.101863 0.00351914 1.67018e-05)
(0.103368 0.00315569 1.3903e-05)
(0.104801 0.0028038 1.17883e-05)
(0.105876 0.00248699 9.87271e-06)
(0.107231 0.00224849 3.56549e-06)
(0.0655748 0.00514142 9.61908e-05)
(0.0707004 0.00434115 8.03002e-05)
(0.0753695 0.00372719 6.68331e-05)
(0.0796473 0.00326214 5.53798e-05)
(0.0835311 0.00290324 4.57254e-05)
(0.0870867 0.00262675 3.77033e-05)
(0.0903001 0.00240258 3.10432e-05)
(0.0932174 0.0022165 2.56284e-05)
(0.0958334 0.00204942 2.12875e-05)
(0.0981553 0.00189197 1.76425e-05)
(0.100231 0.00173268 1.48432e-05)
(0.101995 0.00157354 1.22418e-05)
(0.103651 0.0014097 1.0404e-05)
(0.104882 0.00124715 8.69702e-06)
(0.106358 0.00117977 2.50729e-06)
(0.0591996 -0.00120262 7.16683e-05)
(0.0650709 -0.00137289 6.03697e-05)
(0.0703989 -0.00140663 5.03068e-05)
(0.0752531 -0.00134337 4.15348e-05)
(0.0796516 -0.00122191 3.40165e-05)
(0.0836542 -0.00106518 2.77648e-05)
(0.0872772 -0.00089653 2.2668e-05)
(0.0905608 -0.000728597 1.85175e-05)
(0.093527 -0.00057359 1.53629e-05)
(0.0961774 -0.000438316 1.26623e-05)
(0.0985717 -0.000328929 1.07672e-05)
(0.100629 -0.000245628 8.85079e-06)
(0.102554 -0.000186271 7.65444e-06)
(0.104022 -0.000159978 6.5819e-06)
(0.105644 -4.83244e-05 1.05222e-06)
(0.0537385 -0.00830937 3.04088e-05)
(0.060209 -0.00778219 2.62923e-05)
(0.0660904 -0.00716143 2.2001e-05)
(0.0714413 -0.00649659 1.79114e-05)
(0.0762837 -0.00582732 1.42116e-05)
(0.0806784 -0.00517614 1.1092e-05)
(0.0846476 -0.00456211 8.68094e-06)
(0.0882371 -0.00399468 6.76083e-06)
(0.0914819 -0.00348017 5.55441e-06)
(0.0943876 -0.00302108 4.49171e-06)
(0.097034 -0.00261692 4.04476e-06)
(0.0993319 -0.0022663 3.37266e-06)
(0.1015 -0.00196219 3.19885e-06)
(0.103206 -0.00171724 3.22318e-06)
(0.105014 -0.00141508 -1.53145e-06)
(0.0429315 -0.0169273 -1.62118e-05)
(0.0503045 -0.0158649 -1.35721e-05)
(0.0570814 -0.0146258 -1.20526e-05)
(0.0632642 -0.0133188 -1.1531e-05)
(0.0689064 -0.0120104 -1.13379e-05)
(0.0740244 -0.010747 -1.10332e-05)
(0.0786673 -0.00955643 -1.05495e-05)
(0.0828647 -0.00845592 -9.70075e-06)
(0.0866467 -0.00745381 -8.7744e-06)
(0.0900698 -0.00655125 -7.4692e-06)
(0.093124 -0.00574654 -6.3692e-06)
(0.0959186 -0.00503288 -4.94634e-06)
(0.0983514 -0.00440383 -4.01788e-06)
(0.100665 -0.003847 -2.9251e-06)
(0.102527 -0.00337323 -1.63349e-06)
(0.104472 -0.00286396 -5.67385e-06)
(0.0435756 -0.0257744 -7.04103e-06)
(0.0506515 -0.0238604 -1.67725e-05)
(0.0571908 -0.0218047 -2.44063e-05)
(0.0632191 -0.0197232 -2.90158e-05)
(0.0687524 -0.0176972 -3.08052e-05)
(0.0738056 -0.0157815 -3.06957e-05)
(0.0784018 -0.0140061 -2.94178e-05)
(0.0825811 -0.012385 -2.70394e-05)
(0.0863488 -0.010923 -2.43065e-05)
(0.0897731 -0.00961665 -2.11099e-05)
(0.092827 -0.00845751 -1.82177e-05)
(0.0956313 -0.00743251 -1.51199e-05)
(0.0980782 -0.00652816 -1.26608e-05)
(0.10041 -0.00572301 -1.02557e-05)
(0.102322 -0.00502779 -7.64313e-06)
(0.104264 -0.00430927 -1.04257e-05)
(0.0517852 -0.0356283 6.84765e-05)
(0.0576677 -0.0325182 4.0828e-05)
(0.0630242 -0.0293502 1.39132e-05)
(0.0679817 -0.0262683 -7.61898e-06)
(0.0726075 -0.0233648 -2.2679e-05)
(0.076934 -0.0206865 -3.14881e-05)
(0.0809498 -0.0182572 -3.55226e-05)
(0.0846694 -0.0160835 -3.59464e-05)
(0.0880701 -0.0141527 -3.43182e-05)
(0.0912011 -0.0124478 -3.11818e-05)
(0.0940221 -0.0109474 -2.77787e-05)
(0.0966348 -0.00962823 -2.39124e-05)
(0.0989347 -0.00846705 -2.05076e-05)
(0.101126 -0.00743311 -1.72799e-05)
(0.102972 -0.00653159 -1.36664e-05)
(0.104754 -0.00563372 -1.47479e-05)
(0.0685307 -0.0441231 8.16787e-05)
(0.0728194 -0.0398557 7.53658e-05)
(0.0763257 -0.0356487 5.29208e-05)
(0.0793864 -0.0316651 2.6058e-05)
(0.0822126 -0.0279912 2.04062e-06)
(0.0849231 -0.024661 -1.57638e-05)
(0.0875564 -0.0216797 -2.72231e-05)
(0.0901293 -0.019035 -3.32137e-05)
(0.0925991 -0.0167079 -3.54599e-05)
(0.0949752 -0.0146705 -3.48231e-05)
(0.0971878 -0.0128862 -3.27832e-05)
(0.099298 -0.0113208 -2.9674e-05)
(0.101201 -0.00994257 -2.64201e-05)
(0.10304 -0.00871832 -2.32111e-05)
(0.104643 -0.00763878 -1.91936e-05)
(0.106135 -0.00661998 -1.88774e-05)
(0.0894526 -0.0463239 -8.92173e-05)
(0.092608 -0.0418002 -2.40195e-05)
(0.0945499 -0.0373881 3.14897e-06)
(0.0957989 -0.0332351 6.47363e-06)
(0.0967146 -0.0294251 -1.69646e-06)
(0.0975282 -0.025985 -1.31274e-05)
(0.0983608 -0.0229053 -2.35082e-05)
(0.0992857 -0.0201603 -3.0805e-05)
(0.100299 -0.0177206 -3.50259e-05)
(0.101413 -0.0155587 -3.64677e-05)
(0.102563 -0.0136502 -3.61039e-05)
(0.103774 -0.0119668 -3.4144e-05)
(0.104935 -0.0104804 -3.14311e-05)
(0.106141 -0.00916369 -2.8493e-05)
(0.107243 -0.00799544 -2.43583e-05)
(0.108298 -0.00694787 -2.34149e-05)
(0.107896 -0.0396144 -0.000334847)
(0.110542 -0.0360398 -0.000205733)
(0.111699 -0.032546 -0.000126019)
(0.111937 -0.0292072 -8.23695e-05)
(0.111678 -0.0260808 -6.15323e-05)
(0.111205 -0.0231979 -5.31466e-05)
(0.110682 -0.0205679 -5.06844e-05)
(0.110221 -0.0181857 -5.00725e-05)
(0.109865 -0.0160386 -4.94765e-05)
(0.109661 -0.0141116 -4.77834e-05)
(0.109585 -0.0123896 -4.5261e-05)
(0.109672 -0.0108578 -4.18494e-05)
(0.109846 -0.00950016 -3.81062e-05)
(0.110179 -0.00829816 -3.44306e-05)
(0.110541 -0.00722992 -2.98529e-05)
(0.110996 -0.00629741 -2.84943e-05)
(0.120392 -0.0260994 -0.000511337)
(0.123044 -0.0240888 -0.000358055)
(0.124071 -0.0220576 -0.000253447)
(0.124003 -0.0200321 -0.000185874)
(0.123274 -0.0180496 -0.000143936)
(0.122201 -0.0161484 -0.00011812)
(0.120986 -0.0143611 -0.000101651)
(0.119755 -0.0127114 -8.98597e-05)
(0.118569 -0.0112129 -8.02437e-05)
(0.117478 -0.00986916 -7.13168e-05)
(0.116486 -0.00867449 -6.29444e-05)
(0.115635 -0.007618 -5.49888e-05)
(0.114902 -0.00668425 -4.79304e-05)
(0.114368 -0.00585727 -4.20448e-05)
(0.113952 -0.00512185 -3.63004e-05)
(0.113749 -0.00447748 -3.37888e-05)
(0.126398 -0.00913786 -0.000613677)
(0.129298 -0.00854937 -0.000454279)
(0.13046 -0.00791662 -0.000339617)
(0.130375 -0.00724783 -0.000259723)
(0.129485 -0.00656004 -0.000205168)
(0.12815 -0.00587515 -0.000167978)
(0.126617 -0.00521476 -0.000141907)
(0.125042 -0.00459706 -0.000122279)
(0.1235 -0.00403427 -0.000106142)
(0.122029 -0.00353319 -9.18167e-05)
(0.120632 -0.00309409 -7.88401e-05)
(0.119337 -0.00271335 -6.7209e-05)
(0.118137 -0.00238328 -5.71566e-05)
(0.11711 -0.00209446 -4.91116e-05)
(0.116225 -0.00184015 -4.20878e-05)
(0.11559 -0.00161532 -3.7777e-05)
(0.184703 0.0290383 0.000125265)
(0.185445 0.0265652 -2.09961e-05)
(0.1864 0.024349 -5.62466e-05)
(0.187354 0.0223718 -3.31943e-05)
(0.188123 0.0205389 -1.05798e-05)
(0.188692 0.0188012 2.06976e-07)
(0.189137 0.0171135 4.51743e-06)
(0.189478 0.0154452 5.94504e-06)
(0.189616 0.0138059 3.57794e-06)
(0.189437 0.0122691 -1.89716e-06)
(0.189164 0.0109061 -5.14833e-06)
(0.188855 0.00964148 -9.09385e-06)
(0.183103 0.0298763 -2.42238e-05)
(0.184149 0.0273321 -4.10802e-05)
(0.185263 0.0250313 -2.12367e-05)
(0.186331 0.0229485 1.00964e-06)
(0.187239 0.0210316 1.13138e-05)
(0.187937 0.019232 1.33944e-05)
(0.18845 0.0175047 1.31549e-05)
(0.188844 0.015831 1.33804e-05)
(0.189149 0.0142171 1.42483e-05)
(0.189237 0.0126808 1.33129e-05)
(0.189141 0.0112815 1.19885e-05)
(0.18889 0.00992862 7.509e-06)
(0.179712 0.0330145 7.32764e-06)
(0.180919 0.0301816 1.91307e-06)
(0.182168 0.0275861 1.6722e-05)
(0.183398 0.0252154 3.02256e-05)
(0.184586 0.0230561 3.60257e-05)
(0.18568 0.0210837 3.59029e-05)
(0.186616 0.0192554 3.31482e-05)
(0.187342 0.0175155 3.02095e-05)
(0.187852 0.0158316 2.77743e-05)
(0.188244 0.0142143 2.70621e-05)
(0.188489 0.0126817 2.61039e-05)
(0.188613 0.0112852 2.39302e-05)
(0.188582 0.00997717 1.79288e-05)
(0.17667 0.0328918 4.18049e-05)
(0.178214 0.0300351 5.06897e-05)
(0.179674 0.0274077 5.49264e-05)
(0.18106 0.0249957 5.30282e-05)
(0.182401 0.0227949 4.82625e-05)
(0.183693 0.0207937 4.33556e-05)
(0.184888 0.0189605 3.86946e-05)
(0.185919 0.0172409 3.46582e-05)
(0.18669 0.0155851 3.04846e-05)
(0.187257 0.0139897 2.75283e-05)
(0.187633 0.0124702 2.53616e-05)
(0.187903 0.0110867 2.27046e-05)
(0.18809 0.00981565 1.62108e-05)
(0.173088 0.0323621 9.43453e-05)
(0.175023 0.0295004 8.8777e-05)
(0.1768 0.0268676 7.85751e-05)
(0.178441 0.0244482 6.71283e-05)
(0.179991 0.0222384 5.70202e-05)
(0.181479 0.0202314 4.92736e-05)
(0.182893 0.0184056 4.29728e-05)
(0.184205 0.0167191 3.80015e-05)
(0.185302 0.0151174 3.3069e-05)
(0.186167 0.0135807 2.88408e-05)
(0.186772 0.0121027 2.56796e-05)
(0.187187 0.0107479 2.21705e-05)
(0.187541 0.00951701 1.32444e-05)
(0.166139 0.0343067 0.000157446)
(0.168764 0.0312084 0.000139196)
(0.171205 0.0283817 0.00011904)
(0.173444 0.0257941 9.95508e-05)
(0.175481 0.0234222 8.24367e-05)
(0.177346 0.0212548 6.83576e-05)
(0.179082 0.0192843 5.75274e-05)
(0.180703 0.0174941 4.89618e-05)
(0.182237 0.0158571 4.24673e-05)
(0.183609 0.0143264 3.68074e-05)
(0.184794 0.0128784 3.17079e-05)
(0.185723 0.0114842 2.78453e-05)
(0.186386 0.0101934 2.36466e-05)
(0.186953 0.00903176 1.21645e-05)
(0.160403 0.0322936 0.000207258)
(0.163673 0.0292708 0.0001743)
(0.166731 0.0265402 0.00014502)
(0.169553 0.0240636 0.000119824)
(0.172117 0.0218079 9.84659e-05)
(0.174428 0.0197511 8.07853e-05)
(0.176522 0.0178797 6.67004e-05)
(0.178413 0.0161759 5.55013e-05)
(0.180164 0.014623 4.69114e-05)
(0.18175 0.0131844 4.00366e-05)
(0.183181 0.0118451 3.39691e-05)
(0.184416 0.010567 2.94607e-05)
(0.18537 0.00938262 2.49264e-05)
(0.186232 0.00832289 1.15822e-05)
(0.153809 0.0292557 0.00024793)
(0.157847 0.026395 0.000205605)
(0.161619 0.0238416 0.00016989)
(0.165107 0.0215532 0.000139988)
(0.168293 0.0194907 0.000114773)
(0.17116 0.0176216 9.37403e-05)
(0.173736 0.0159261 7.6668e-05)
(0.176014 0.0143797 6.28371e-05)
(0.178061 0.0129688 5.19331e-05)
(0.17988 0.0116635 4.33994e-05)
(0.181505 0.0104586 3.59942e-05)
(0.182972 0.00932044 3.06582e-05)
(0.184155 0.00827354 2.5625e-05)
(0.185315 0.00736005 1.00385e-05)
(0.141137 0.0278975 0.00034092)
(0.146425 0.0249642 0.00028194)
(0.15136 0.0223863 0.000232955)
(0.155942 0.0201187 0.000191961)
(0.16016 0.0181146 0.000157781)
(0.164027 0.0163349 0.000129231)
(0.167515 0.0147396 0.000105365)
(0.170655 0.0133045 8.5881e-05)
(0.17343 0.0119994 6.99241e-05)
(0.175881 0.0108077 5.69448e-05)
(0.178031 0.00970276 4.6793e-05)
(0.179892 0.00868172 3.78399e-05)
(0.181571 0.00772153 3.15409e-05)
(0.182922 0.00683672 2.59033e-05)
(0.184301 0.00611533 7.87487e-06)
(0.131911 0.0216357 0.000368383)
(0.138379 0.0191598 0.000304672)
(0.144345 0.0170255 0.000251351)
(0.149838 0.0151869 0.000206709)
(0.154858 0.0135937 0.00016942)
(0.159442 0.0122079 0.000138495)
(0.163583 0.0109877 0.000112751)
(0.167314 0.00990564 9.16112e-05)
(0.170636 0.00893165 7.43845e-05)
(0.173563 0.00804539 6.00087e-05)
(0.176133 0.00722317 4.8779e-05)
(0.178328 0.00645819 3.86027e-05)
(0.180279 0.00573846 3.14094e-05)
(0.18183 0.00505782 2.54482e-05)
(0.183371 0.00456517 5.84072e-06)
(0.122255 0.0134022 0.000366831)
(0.130009 0.0115909 0.000304884)
(0.137107 0.0100968 0.000251776)
(0.143585 0.00886504 0.000206804)
(0.149464 0.00784299 0.000168994)
(0.154793 0.00699119 0.000137598)
(0.159594 0.00626974 0.000111658)
(0.163907 0.00564994 9.026e-05)
(0.167759 0.00510501 7.30133e-05)
(0.171165 0.0046151 5.84439e-05)
(0.174173 0.00416148 4.7117e-05)
(0.176753 0.00373369 3.66578e-05)
(0.179038 0.00332867 2.90373e-05)
(0.180865 0.00291975 2.33418e-05)
(0.182599 0.00269113 3.46981e-06)
(0.112984 0.00299561 0.000325751)
(0.122006 0.00206665 0.000273316)
(0.130236 0.00143327 0.000226314)
(0.137705 0.00101876 0.000185443)
(0.144442 0.000760321 0.000150569)
(0.150504 0.000614794 0.000121419)
(0.155934 0.000542908 9.7495e-05)
(0.160786 0.000516979 7.78172e-05)
(0.165108 0.000514485 6.22081e-05)
(0.168928 0.000518801 4.90519e-05)
(0.172314 0.000519155 3.90199e-05)
(0.175237 0.000505709 2.96928e-05)
(0.17784 0.000483505 2.27373e-05)
(0.179959 0.000417225 1.81633e-05)
(0.181928 0.000497614 -1.10502e-06)
(0.0947925 -0.00922272 0.000284134)
(0.105687 -0.00956455 0.000247093)
(0.115729 -0.00942307 0.000208973)
(0.124881 -0.00897921 0.000172196)
(0.133166 -0.00835311 0.00013881)
(0.140612 -0.00763343 0.000109967)
(0.147276 -0.00687739 8.58738e-05)
(0.153215 -0.00612727 6.64814e-05)
(0.158488 -0.00541181 5.08383e-05)
(0.163164 -0.00474754 3.89481e-05)
(0.167278 -0.0041472 2.90984e-05)
(0.170922 -0.003611 2.20409e-05)
(0.174073 -0.00314366 1.53444e-05)
(0.176892 -0.00272855 1.04118e-05)
(0.179218 -0.0024012 7.99747e-06)
(0.181372 -0.00196332 -1.00824e-05)
(0.0918701 -0.0246541 0.000174696)
(0.103184 -0.0238576 0.000150924)
(0.1136 -0.0224832 0.00012316)
(0.123099 -0.0207802 9.52646e-05)
(0.131691 -0.0189197 7.01545e-05)
(0.139409 -0.0170284 4.88261e-05)
(0.1463 -0.015191 3.14887e-05)
(0.152427 -0.0134599 1.85327e-05)
(0.157845 -0.011869 8.79929e-06)
(0.162636 -0.0104293 2.37266e-06)
(0.166834 -0.00914779 -2.61331e-06)
(0.170544 -0.0080119 -5.29505e-06)
(0.173748 -0.00701744 -8.07248e-06)
(0.176613 -0.00613095 -9.81073e-06)
(0.179003 -0.00538491 -8.78632e-06)
(0.181182 -0.00456579 -2.40165e-05)
(0.098979 -0.0396889 -2.81274e-05)
(0.109616 -0.0379239 -1.83182e-05)
(0.119222 -0.0354485 -1.85902e-05)
(0.127908 -0.0325374 -2.42487e-05)
(0.135752 -0.0294418 -3.2196e-05)
(0.142826 -0.0263581 -3.95876e-05)
(0.149168 -0.0234119 -4.49996e-05)
(0.154833 -0.0206745 -4.7734e-05)
(0.159862 -0.0181885 -4.86677e-05)
(0.164328 -0.015963 -4.74712e-05)
(0.168256 -0.0139972 -4.59068e-05)
(0.171738 -0.0122656 -4.30149e-05)
(0.174756 -0.0107514 -4.08015e-05)
(0.177453 -0.00940541 -3.86441e-05)
(0.179736 -0.00824712 -3.34248e-05)
(0.181755 -0.00707637 -4.34781e-05)
(0.115598 -0.0493319 -0.000539992)
(0.125356 -0.0468449 -0.000420504)
(0.133684 -0.0437985 -0.000330006)
(0.140824 -0.0403754 -0.000263455)
(0.147004 -0.0367541 -0.000215587)
(0.152423 -0.0330871 -0.000181364)
(0.157242 -0.0295196 -0.000157308)
(0.161581 -0.0261618 -0.000139327)
(0.165485 -0.0230832 -0.000125234)
(0.169007 -0.0203071 -0.000112871)
(0.172152 -0.0178374 -0.000102533)
(0.174982 -0.0156489 -9.27476e-05)
(0.177471 -0.0137204 -8.44331e-05)
(0.179715 -0.0120036 -7.73481e-05)
(0.181655 -0.0104972 -6.70475e-05)
(0.183331 -0.0090677 -7.02729e-05)
(0.135683 -0.0501298 -0.00135843)
(0.144784 -0.0473488 -0.00105467)
(0.152134 -0.044275 -0.00081476)
(0.158031 -0.0410048 -0.000632146)
(0.162761 -0.0376377 -0.000495927)
(0.166582 -0.0342609 -0.000395414)
(0.169721 -0.0309481 -0.00032207)
(0.172371 -0.0277545 -0.000268516)
(0.17468 -0.024736 -0.000229711)
(0.176758 -0.0219321 -0.000200126)
(0.178638 -0.0193728 -0.000176949)
(0.180369 -0.017058 -0.000156876)
(0.181929 -0.0149832 -0.000139635)
(0.183383 -0.013121 -0.000124927)
(0.184677 -0.0114585 -0.000107726)
(0.18581 -0.00994898 -0.00010374)
(0.152982 -0.0416577 -0.00213069)
(0.161471 -0.0394202 -0.00167426)
(0.168118 -0.0370451 -0.00131077)
(0.17325 -0.0345515 -0.00103014)
(0.177158 -0.0319791 -0.000817144)
(0.180091 -0.0293751 -0.000656007)
(0.182254 -0.0267883 -0.000534051)
(0.183829 -0.0242603 -0.000440815)
(0.184971 -0.0218297 -0.000369122)
(0.18582 -0.0195254 -0.000312573)
(0.186482 -0.0173759 -0.000267877)
(0.187044 -0.0153971 -0.000230754)
(0.187529 -0.0135971 -0.000199985)
(0.188007 -0.0119655 -0.000174437)
(0.188447 -0.0104879 -0.000149237)
(0.188874 -0.00917044 -0.000138268)
(0.163942 -0.026713 -0.00259904)
(0.172032 -0.0255607 -0.00209495)
(0.17829 -0.0242799 -0.00168494)
(0.183049 -0.022862 -0.00135849)
(0.186603 -0.0213213 -0.00110138)
(0.189191 -0.0196909 -0.00089864)
(0.191002 -0.0180163 -0.000737802)
(0.192189 -0.0163476 -0.000608721)
(0.192881 -0.0147328 -0.000504612)
(0.193195 -0.0132105 -0.000419593)
(0.193227 -0.0118048 -0.000350598)
(0.193076 -0.0105241 -0.000294178)
(0.1928 -0.00936604 -0.000249016)
(0.192496 -0.00831673 -0.000213263)
(0.192173 -0.00735948 -0.000182212)
(0.191918 -0.00650194 -0.000165154)
(0.168441 -0.00916989 -0.00283918)
(0.176485 -0.00888868 -0.00234061)
(0.18267 -0.00853166 -0.00192022)
(0.18733 -0.00809406 -0.00157175)
(0.190765 -0.0075819 -0.0012864)
(0.193225 -0.00701093 -0.0010539)
(0.194914 -0.00640381 -0.000864512)
(0.19599 -0.00578697 -0.000709759)
(0.19658 -0.00518636 -0.000583278)
(0.196785 -0.00462391 -0.000479823)
(0.196681 -0.00411413 -0.000395922)
(0.19634 -0.00366222 -0.000328352)
(0.195812 -0.00326505 -0.000275023)
(0.195188 -0.0029137 -0.000234021)
(0.194503 -0.00259859 -0.000200861)
(0.193875 -0.00231698 -0.000179168)
(0.224644 0.0329708 -4.0285e-05)
(0.224973 0.0303183 -0.000135511)
(0.225516 0.0278821 -0.00014764)
(0.226207 0.0256945 -0.000114481)
(0.226899 0.0236932 -8.20295e-05)
(0.227504 0.0218187 -6.0079e-05)
(0.22803 0.0200019 -4.5607e-05)
(0.228451 0.0181875 -3.57392e-05)
(0.228641 0.016376 -3.02318e-05)
(0.228474 0.0146483 -2.82762e-05)
(0.228152 0.0130897 -2.63446e-05)
(0.227784 0.0116307 -2.64634e-05)
(0.222552 0.034107 -9.34887e-05)
(0.223167 0.0313526 -0.000106099)
(0.223963 0.0288236 -8.72241e-05)
(0.224855 0.0265176 -6.17833e-05)
(0.225724 0.0244031 -4.39946e-05)
(0.226476 0.0224338 -3.35834e-05)
(0.227085 0.0205508 -2.65882e-05)
(0.227574 0.0187126 -2.01746e-05)
(0.227945 0.0169115 -1.35381e-05)
(0.228076 0.0151704 -8.61861e-06)
(0.227978 0.0135623 -5.08763e-06)
(0.227704 0.0120038 -6.91988e-06)
(0.219176 0.0378539 -1.73129e-05)
(0.219895 0.0347921 -3.1041e-05)
(0.220798 0.0319601 -2.50527e-05)
(0.221816 0.0293491 -1.47157e-05)
(0.222898 0.0269505 -6.56626e-06)
(0.223973 0.0247508 -1.79948e-06)
(0.224959 0.0227159 4.22129e-07)
(0.225782 0.0207879 1.8665e-06)
(0.226406 0.0189192 3.64915e-06)
(0.226891 0.0171026 7.24862e-06)
(0.227209 0.0153536 1.08934e-05)
(0.227368 0.0137324 1.25851e-05)
(0.227338 0.0121924 7.71992e-06)
(0.215639 0.0381984 4.55629e-05)
(0.216785 0.0350723 3.85209e-05)
(0.217996 0.0321792 3.44172e-05)
(0.219242 0.0295031 2.9799e-05)
(0.220516 0.0270372 2.53225e-05)
(0.221799 0.0247767 2.19382e-05)
(0.223038 0.0226993 1.90403e-05)
(0.224157 0.020754 1.68627e-05)
(0.225048 0.0188838 1.48432e-05)
(0.225728 0.0170692 1.44249e-05)
(0.226202 0.0153191 1.54484e-05)
(0.22654 0.0136958 1.58327e-05)
(0.226758 0.0121768 9.15698e-06)
(0.21159 0.0381511 0.000123535)
(0.21322 0.034979 0.000102829)
(0.21481 0.0320421 8.38118e-05)
(0.216351 0.0293227 6.71481e-05)
(0.217858 0.0268145 5.37287e-05)
(0.219352 0.0245145 4.40371e-05)
(0.220816 0.0224091 3.66899e-05)
(0.222218 0.0204602 3.13974e-05)
(0.223438 0.0186111 2.67309e-05)
(0.224429 0.0168295 2.3212e-05)
(0.225152 0.0151026 2.14851e-05)
(0.225666 0.0134923 2.00165e-05)
(0.226077 0.0120012 8.97576e-06)
(0.20455 0.0409743 0.000245113)
(0.206817 0.0375112 0.000203113)
(0.209015 0.034323 0.000165853)
(0.211102 0.0313806 0.000133647)
(0.213063 0.0286616 0.000106804)
(0.214907 0.0261541 8.51915e-05)
(0.216669 0.0238527 6.89189e-05)
(0.21836 0.0217469 5.66044e-05)
(0.219997 0.0198122 4.77254e-05)
(0.221506 0.0180012 4.06847e-05)
(0.222835 0.0162806 3.47991e-05)
(0.2239 0.0146162 3.07089e-05)
(0.224691 0.0130528 2.743e-05)
(0.225335 0.0116183 1.14602e-05)
(0.198262 0.0395629 0.000340458)
(0.201232 0.036108 0.00027963)
(0.204089 0.032951 0.000227905)
(0.20679 0.0300583 0.00018444)
(0.209304 0.0273995 0.000148299)
(0.21162 0.0249535 0.000118776)
(0.213766 0.0227082 9.56137e-05)
(0.215752 0.0206505 7.77339e-05)
(0.217631 0.0187643 6.44532e-05)
(0.219375 0.0170132 5.44584e-05)
(0.220976 0.015374 4.62679e-05)
(0.222371 0.0138039 4.01773e-05)
(0.223486 0.0123294 3.56444e-05)
(0.224449 0.0109861 1.55138e-05)
(0.191017 0.0371435 0.000434303)
(0.194802 0.0337637 0.000356532)
(0.198416 0.0307055 0.000291363)
(0.201825 0.0279308 0.000237131)
(0.205 0.025403 0.000191974)
(0.207912 0.0230911 0.000154753)
(0.210575 0.0209752 0.000124841)
(0.212984 0.0190346 0.000101122)
(0.215189 0.0172547 8.2855e-05)
(0.217194 0.0156052 6.905e-05)
(0.219021 0.014074 5.79247e-05)
(0.220674 0.0126227 4.96109e-05)
(0.222058 0.0112694 4.38147e-05)
(0.223347 0.0100632 1.92064e-05)
(0.177818 0.0370333 0.000638136)
(0.182801 0.0334552 0.000525911)
(0.187542 0.0302533 0.000432415)
(0.192025 0.0273893 0.000354331)
(0.196229 0.0248213 0.000289492)
(0.200143 0.0225097 0.000235735)
(0.203735 0.020416 0.000191257)
(0.207017 0.0185137 0.000155158)
(0.209971 0.0167744 0.000126034)
(0.212627 0.0151796 0.000102856)
(0.214998 0.0137004 8.49672e-05)
(0.217099 0.0123286 7.02984e-05)
(0.218996 0.0110357 5.9278e-05)
(0.220587 0.00983055 5.1913e-05)
(0.222125 0.00880837 2.26563e-05)
(0.167395 0.0314443 0.000736689)
(0.173647 0.028183 0.000608394)
(0.179516 0.0253065 0.000500987)
(0.185004 0.0227712 0.0004113)
(0.190102 0.0205311 0.00033674)
(0.194823 0.0185454 0.000275166)
(0.199153 0.0167718 0.000224292)
(0.203106 0.0151789 0.000182762)
(0.206677 0.0137346 0.000149172)
(0.209876 0.0124161 0.000121838)
(0.21272 0.0111947 0.000100451)
(0.215204 0.0100596 8.24368e-05)
(0.217411 0.00899219 6.85948e-05)
(0.219242 0.00798211 5.9595e-05)
(0.220976 0.00718544 2.67235e-05)
(0.156084 0.0237188 0.000800835)
(0.163782 0.0209779 0.000664565)
(0.170939 0.0186219 0.000548515)
(0.177564 0.0165949 0.00045086)
(0.18366 0.0148454 0.000369328)
(0.189257 0.0133304 0.000301943)
(0.194366 0.0120065 0.000246547)
(0.199013 0.0108397 0.000201221)
(0.203213 0.00979753 0.000164756)
(0.20698 0.0088558 0.000134851)
(0.210338 0.00798881 0.000111377)
(0.213273 0.00718189 9.1312e-05)
(0.215867 0.00642474 7.53966e-05)
(0.218022 0.00568636 6.53133e-05)
(0.219987 0.0051614 3.06418e-05)
(0.144544 0.0134865 0.000803717)
(0.153776 0.0115037 0.000672332)
(0.162315 0.00990679 0.000556774)
(0.170161 0.00861586 0.000457619)
(0.177324 0.00756657 0.000373999)
(0.183842 0.00671076 0.000304604)
(0.189748 0.00600387 0.000247837)
(0.195083 0.00541092 0.000201598)
(0.199885 0.00490123 0.000164801)
(0.20418 0.00445146 0.000134821)
(0.208014 0.00404188 0.000111534)
(0.211375 0.00365746 9.17166e-05)
(0.214357 0.00329563 7.56287e-05)
(0.216862 0.00291463 6.59143e-05)
(0.219109 0.00272133 3.11166e-05)
(0.12293 0.00217933 0.000824864)
(0.134315 0.000591896 0.000711182)
(0.144956 -0.000405927 0.000601177)
(0.154778 -0.000992372 0.00049937)
(0.163766 -0.00129101 0.000408978)
(0.171928 -0.00139355 0.000331465)
(0.179305 -0.00136332 0.000266809)
(0.185941 -0.0012503 0.000214324)
(0.191889 -0.00109205 0.000172149)
(0.197207 -0.00091633 0.000139399)
(0.201934 -0.000744845 0.000113264)
(0.206139 -0.000588943 9.36283e-05)
(0.209823 -0.000460438 7.71619e-05)
(0.213097 -0.000350583 6.37055e-05)
(0.215874 -0.000303945 5.66927e-05)
(0.218359 -0.000101676 2.35591e-05)
(0.116026 -0.014003 0.000524452)
(0.128391 -0.0145504 0.000465036)
(0.139922 -0.0143877 0.000398948)
(0.150553 -0.0137573 0.000331744)
(0.160261 -0.0128395 0.00026883)
(0.169054 -0.0117675 0.000213333)
(0.176965 -0.0106347 0.000166579)
(0.184048 -0.00950505 0.000129238)
(0.19036 -0.00842451 9.99234e-05)
(0.19597 -0.00741898 7.83634e-05)
(0.200928 -0.00650808 6.18374e-05)
(0.205316 -0.00569276 5.05632e-05)
(0.209147 -0.00497877 4.12944e-05)
(0.212544 -0.00434065 3.36609e-05)
(0.215444 -0.00382138 3.22345e-05)
(0.218013 -0.00318585 3.98667e-06)
(0.119046 -0.0301994 -0.000133323)
(0.131332 -0.0297479 -9.2007e-05)
(0.142642 -0.0284873 -6.32748e-05)
(0.153017 -0.0266846 -4.63204e-05)
(0.162469 -0.0245645 -3.81635e-05)
(0.171025 -0.0223066 -3.53474e-05)
(0.17872 -0.020043 -3.48673e-05)
(0.185605 -0.0178614 -3.44337e-05)
(0.191736 -0.0158231 -3.3847e-05)
(0.197183 -0.0139577 -3.17054e-05)
(0.201994 -0.012284 -2.94797e-05)
(0.206248 -0.0107938 -2.58563e-05)
(0.209964 -0.00948419 -2.29773e-05)
(0.21325 -0.00831452 -2.11691e-05)
(0.216079 -0.00731529 -1.40768e-05)
(0.218529 -0.00626581 -3.25415e-05)
(0.132796 -0.0412998 -0.00134767)
(0.144498 -0.0400058 -0.00111598)
(0.154879 -0.0380687 -0.000908588)
(0.164091 -0.0356544 -0.000729931)
(0.17228 -0.0329333 -0.000582345)
(0.179583 -0.0300563 -0.000464579)
(0.186104 -0.0271565 -0.000373567)
(0.191929 -0.0243373 -0.000303398)
(0.197123 -0.0216773 -0.000249466)
(0.201756 -0.0192189 -0.00020693)
(0.20587 -0.0169898 -0.000173973)
(0.20953 -0.0149851 -0.000146946)
(0.212749 -0.0132013 -0.000125347)
(0.215606 -0.0115999 -0.000108748)
(0.218097 -0.0101909 -8.8728e-05)
(0.220213 -0.00882521 -9.2393e-05)
(0.151128 -0.0434959 -0.00291173)
(0.162233 -0.0416816 -0.00239872)
(0.171753 -0.0395178 -0.00195673)
(0.179901 -0.0370942 -0.00158526)
(0.186873 -0.0345008 -0.0012779)
(0.192838 -0.0318148 -0.0010268)
(0.197958 -0.0291023 -0.00082586)
(0.202383 -0.0264161 -0.00066796)
(0.206234 -0.0238131 -0.000546272)
(0.20961 -0.0213369 -0.000451512)
(0.212581 -0.0190271 -0.000377441)
(0.215214 -0.0168976 -0.000317302)
(0.217535 -0.0149592 -0.000268276)
(0.219606 -0.0131951 -0.000228892)
(0.221435 -0.0116031 -0.000189525)
(0.222984 -0.0101302 -0.000174905)
(0.167318 -0.0365208 -0.00424111)
(0.177729 -0.0349741 -0.00349081)
(0.186484 -0.033256 -0.00286368)
(0.193844 -0.0313828 -0.0023491)
(0.20003 -0.0293882 -0.00193025)
(0.205216 -0.0273137 -0.00158901)
(0.209541 -0.0252018 -0.00131047)
(0.213119 -0.0230908 -0.00108205)
(0.216064 -0.0210153 -0.000895608)
(0.218483 -0.0190078 -0.000742909)
(0.220471 -0.017102 -0.000618779)
(0.222118 -0.0153185 -0.000516076)
(0.223482 -0.0136719 -0.000431524)
(0.224643 -0.0121574 -0.000362707)
(0.225631 -0.0107648 -0.000300355)
(0.226455 -0.0095002 -0.000266376)
(0.177279 -0.023306 -0.0049711)
(0.187175 -0.0225813 -0.00415475)
(0.195425 -0.0217113 -0.0034714)
(0.202315 -0.0206854 -0.00290497)
(0.208087 -0.019513 -0.002436)
(0.212923 -0.0182212 -0.00204494)
(0.21696 -0.0168496 -0.00171608)
(0.220289 -0.0154449 -0.00143701)
(0.222988 -0.0140558 -0.00119977)
(0.225118 -0.0127233 -0.000997735)
(0.22675 -0.0114788 -0.000827649)
(0.227952 -0.0103385 -0.000685037)
(0.228787 -0.00930503 -0.000567704)