/*--------------------------------*- C++ -*----------------------------------*\
  =========                 |
  \\      /  F ield         | OpenFOAM: The Open Source CFD Toolbox
   \\    /   O peration     | Website:  https://openfoam.org
    \\  /    A nd           | Version:  6
     \\/     M anipulation  |
\*---------------------------------------------------------------------------*/
FoamFile
{
    version     2.0;
    format      ascii;
    class       volVectorField;
    location    "44";
    object      wallShearStress;
}
// * * * * * * * * * * * * * * * * * * * * * * * * * * * * * * * * * * * * * //

dimensions      [0 2 -2 0 0 0 0];

internalField   uniform (0 0 0);

boundaryField
{
    inlet
    {
        type            calculated;
        value           uniform (0 0 0);
    }
    outlet
    {
        type            calculated;
        value           uniform (0 0 0);
    }
    roughCylinder
    {
        type            calculated;
        value           nonuniform List<vector> 
3840
(
(-0.000270335 -0.000396404 -0.000162852)
(-0.000326586 -0.000509698 -2.23701e-05)
(-0.000375669 -0.000631218 4.15524e-05)
(-0.000450711 -0.000734725 0.000123521)
(-0.000538737 -0.000808804 0.000206008)
(-0.000630048 -0.000849195 0.000278162)
(-0.000714973 -0.000859983 0.000334893)
(-0.000788759 -0.000852496 0.000374754)
(-0.000851851 -0.000846078 0.000402037)
(-0.000900489 -0.000844682 0.000416366)
(-0.000939207 -0.00085233 0.000419726)
(-0.000971384 -0.000867475 0.000414288)
(-0.00100011 -0.000888502 0.000402595)
(-0.00102829 -0.000913922 0.000386717)
(-0.00105794 -0.000942796 0.000368084)
(-0.00109021 -0.000974609 0.000347356)
(-0.00112543 -0.00100904 0.000324611)
(-0.00116341 -0.00104576 0.000299549)
(-0.00120361 -0.00108422 0.00027156)
(-0.00124526 -0.00112362 0.00023983)
(-0.00128708 -0.00116266 0.000202814)
(-0.0013274 -0.00119955 0.000158537)
(-0.00136167 -0.00123063 0.000103026)
(-0.00138398 -0.0012509 3.56572e-05)
(-0.000289753 -0.000383984 -0.000155457)
(-0.000349452 -0.000494209 -2.62328e-05)
(-0.00040114 -0.000615278 3.30395e-05)
(-0.000478497 -0.000720003 0.000111487)
(-0.000568445 -0.000796682 0.000192)
(-0.000661729 -0.000840057 0.000263084)
(-0.000749662 -0.00085496 0.000319785)
(-0.000828375 -0.000853609 0.000361681)
(-0.000896414 -0.000850399 0.000391505)
(-0.000949056 -0.000847799 0.000407353)
(-0.000989755 -0.000854115 0.000411371)
(-0.00102388 -0.000868599 0.00040625)
(-0.00105449 -0.00088942 0.00039479)
(-0.00108459 -0.000914859 0.000379141)
(-0.00111625 -0.000943851 0.000360799)
(-0.00115061 -0.000975792 0.000340449)
(-0.001188 -0.00101032 0.000318182)
(-0.00122823 -0.00104707 0.000293699)
(-0.00127072 -0.00108551 0.000266373)
(-0.00131463 -0.00112484 0.000235386)
(-0.00135862 -0.00116374 0.000199173)
(-0.00140096 -0.00120045 0.000155801)
(-0.00143686 -0.00123132 0.000101288)
(-0.00146027 -0.00125146 3.50352e-05)
(-0.00030936 -0.000366357 -0.000142588)
(-0.000371744 -0.000473196 -3.067e-05)
(-0.000425824 -0.000592693 2.37493e-05)
(-0.000505004 -0.000697904 9.82742e-05)
(-0.000596743 -0.000777005 0.000176512)
(-0.000692344 -0.000824077 0.000246648)
(-0.000783981 -0.000844222 0.000303983)
(-0.000867589 -0.000848807 0.000347989)
(-0.000940183 -0.000848528 0.0003797)
(-0.000997522 -0.000845961 0.000397235)
(-0.00104033 -0.000850576 0.000401887)
(-0.00107649 -0.000864204 0.000397109)
(-0.0011091 -0.000884593 0.000385951)
(-0.00114121 -0.000909853 0.00037061)
(-0.00117494 -0.000938743 0.000352632)
(-0.00121144 -0.000970582 0.000332744)
(-0.00125105 -0.00100497 0.000311039)
(-0.00129355 -0.00104152 0.000287215)
(-0.00133831 -0.00107968 0.000260634)
(-0.00138446 -0.00111865 0.000230471)
(-0.00143058 -0.00115713 0.000195144)
(-0.00147491 -0.00119342 0.000152771)
(-0.00151236 -0.00122384 9.93606e-05)
(-0.00153684 -0.0012437 3.43461e-05)
(-0.000326732 -0.000344258 -0.000125954)
(-0.000391013 -0.000447104 -3.52909e-05)
(-0.000446953 -0.000564094 1.40203e-05)
(-0.000527388 -0.000669268 8.42736e-05)
(-0.000620852 -0.000750785 0.000159918)
(-0.000719127 -0.000802193 0.000229076)
(-0.0008148 -0.000828236 0.000287256)
(-0.00090325 -0.000838541 0.000333306)
(-0.000980533 -0.000841359 0.000366768)
(-0.00104296 -0.000840129 0.000386162)
(-0.00108858 -0.000842567 0.000391483)
(-0.00112688 -0.000855124 0.00038716)
(-0.00116165 -0.000874901 0.000376392)
(-0.00119585 -0.000899797 0.000361441)
(-0.0012317 -0.000928434 0.000343916)
(-0.00127036 -0.000960014 0.000324564)
(-0.00131216 -0.000994068 0.000303486)
(-0.00135686 -0.0010302 0.000280385)
(-0.00140381 -0.00106786 0.000254605)
(-0.00145208 -0.00110626 0.000225321)
(-0.0015002 -0.00114411 0.000190928)
(-0.00154639 -0.00117975 0.000149604)
(-0.00158527 -0.00120955 9.73479e-05)
(-0.00161074 -0.00122902 3.36248e-05)
(-0.000341095 -0.000318429 -0.000107333)
(-0.000406665 -0.000416752 -3.97583e-05)
(-0.000463751 -0.000530291 4.19529e-06)
(-0.000544815 -0.000634812 6.98201e-05)
(-0.000639909 -0.000718631 0.00014249)
(-0.00074111 -0.000774686 0.000210499)
(-0.000840964 -0.000806734 0.00026943)
(-0.000934166 -0.000822406 0.00031734)
(-0.0010162 -0.000828327 0.000352576)
(-0.00108325 -0.000828604 0.000373542)
(-0.0011334 -0.000829532 0.000380022)
(-0.0011741 -0.000840836 0.000376421)
(-0.00121116 -0.000859718 0.000366142)
(-0.00124756 -0.00088406 0.000351698)
(-0.00128553 -0.000912225 0.000334708)
(-0.00132631 -0.000943328 0.000315969)
(-0.00137024 -0.000976848 0.000295596)
(-0.00141706 -0.00101235 0.000273283)
(-0.00146606 -0.00104928 0.000248362)
(-0.00151628 -0.00108686 0.000220003)
(-0.00156624 -0.00112383 0.000186582)
(-0.00161411 -0.0011586 0.000146346)
(-0.00165426 -0.00118758 9.52791e-05)
(-0.00168063 -0.00120656 3.28817e-05)
(-0.000352213 -0.000290079 -8.79686e-05)
(-0.000418069 -0.000382995 -4.38926e-05)
(-0.000475498 -0.000492255 -5.49547e-06)
(-0.000556584 -0.000595539 5.51037e-05)
(-0.000653148 -0.000681481 0.00012436)
(-0.000757411 -0.000742244 0.000190942)
(-0.000861547 -0.000780105 0.00025038)
(-0.00095955 -0.000800752 0.000299921)
(-0.00104644 -0.000809673 0.000336915)
(-0.00111834 -0.000811529 0.000359372)
(-0.00117425 -0.000812538 0.000367589)
(-0.00121768 -0.000821515 0.000364789)
(-0.00125722 -0.00083928 0.000355166)
(-0.0012959 -0.000862747 0.00034135)
(-0.00133607 -0.000890247 0.000325021)
(-0.00137896 -0.000920668 0.000306991)
(-0.00142494 -0.000953421 0.000287397)
(-0.00147373 -0.000988057 0.000265937)
(-0.00152461 -0.001024 0.000241927)
(-0.00157662 -0.00106053 0.00021454)
(-0.0016282 -0.00109641 0.000182125)
(-0.00167755 -0.00113009 0.000143011)
(-0.00171877 -0.00115808 9.31641e-05)
(-0.00174594 -0.00117643 3.21196e-05)
(-0.00035878 -0.000259499 -6.85913e-05)
(-0.000424563 -0.000346766 -4.7478e-05)
(-0.000481523 -0.000450945 -1.48613e-05)
(-0.000561886 -0.000552349 4.02745e-05)
(-0.000659575 -0.000640058 0.000105602)
(-0.000766849 -0.00070536 0.00017035)
(-0.000875345 -0.000748732 0.000229948)
(-0.000978274 -0.000774001 0.000280842)
(-0.00107025 -0.000785861 0.000319565)
(-0.00114735 -0.000789379 0.000343666)
(-0.00120876 -0.000791099 0.000353613)
(-0.0012569 -0.000798163 0.000352137)
(-0.00129917 -0.000814171 0.000343413)
(-0.00134036 -0.000836578 0.000330405)
(-0.00138272 -0.000863107 0.000314847)
(-0.00142768 -0.00089261 0.000297628)
(-0.00147562 -0.000924395 0.000278901)
(-0.00152626 -0.000957962 0.000258367)
(-0.00157887 -0.000992751 0.000235331)
(-0.00163243 -0.00102801 0.000208956)
(-0.00168539 -0.00106257 0.000177576)
(-0.00173603 -0.00109498 0.000139616)
(-0.0017781 -0.00112181 9.1013e-05)
(-0.00180594 -0.00113943 3.13415e-05)
(-0.000361606 -0.000228372 -5.00514e-05)
(-0.000425742 -0.000309006 -5.0539e-05)
(-0.000481147 -0.000407266 -2.36818e-05)
(-0.000559856 -0.000505904 2.55693e-05)
(-0.000658108 -0.000594793 8.63419e-05)
(-0.000768198 -0.000664287 0.000148696)
(-0.000881052 -0.000712817 0.000207979)
(-0.000989139 -0.000742481 0.000259917)
(-0.00108654 -0.000757268 0.000300306)
(-0.00116925 -0.000762568 0.000326264)
(-0.00123623 -0.00076508 0.000337983)
(-0.00129003 -0.000771404 0.00033825)
(-0.00133608 -0.000785302 0.000330796)
(-0.0013799 -0.000805846 0.000318761)
(-0.0014246 -0.000831227 0.000304161)
(-0.00147164 -0.000859611 0.000287879)
(-0.00152142 -0.000890216 0.000270115)
(-0.00157373 -0.000922501 0.00025058)
(-0.0016278 -0.000955901 0.000228571)
(-0.00168266 -0.000989748 0.000203258)
(-0.00173672 -0.00102293 0.000172947)
(-0.00178836 -0.00105394 0.00013617)
(-0.00183101 -0.00107956 8.88327e-05)
(-0.00185938 -0.00109641 3.05494e-05)
(-0.00035774 -0.000195786 -3.25325e-05)
(-0.000420534 -0.000269897 -5.26467e-05)
(-0.00047361 -0.000361603 -3.17968e-05)
(-0.000549722 -0.00045675 1.11631e-05)
(-0.000647785 -0.000546091 6.67513e-05)
(-0.000760306 -0.00061925 0.000126023)
(-0.000877512 -0.000672617 0.000184397)
(-0.000990925 -0.000706479 0.000236976)
(-0.00109413 -0.000724213 0.000278916)
(-0.00118281 -0.000731343 0.000306869)
(-0.00125578 -0.000734782 0.000320655)
(-0.0013152 -0.000740862 0.000322838)
(-0.00136614 -0.000753324 0.000317061)
(-0.00141378 -0.000772225 0.000306484)
(-0.00146081 -0.000795864 0.000293005)
(-0.00150985 -0.000822811 0.000277786)
(-0.00156137 -0.000852073 0.000261096)
(-0.00161515 -0.000883001 0.000242649)
(-0.00167046 -0.000914989 0.000221737)
(-0.00172622 -0.000947325 0.000197515)
(-0.00178085 -0.000978898 0.000168265)
(-0.00183308 -0.00100836 0.000132685)
(-0.0018759 -0.00103261 8.66234e-05)
(-0.00190455 -0.00104859 2.97404e-05)
(-0.000350777 -0.000164434 -1.68313e-05)
(-0.000409336 -0.000231104 -5.44875e-05)
(-0.000458727 -0.000315428 -3.87436e-05)
(-0.00053095 -0.000405717 -2.44028e-06)
(-0.000627746 -0.000494418 4.71429e-05)
(-0.000742155 -0.000570597 0.00010246)
(-0.000863503 -0.000628408 0.00015917)
(-0.000982521 -0.000666416 0.000211924)
(-0.00109195 -0.000687154 0.000255241)
(-0.00118717 -0.000696232 0.000285316)
(-0.00126643 -0.000700556 0.000301419)
(-0.00133167 -0.000706479 0.000305801)
(-0.00138758 -0.000717891 0.000301976)
(-0.00143899 -0.000735266 0.000293061)
(-0.00148899 -0.00075718 0.000281019)
(-0.00154018 -0.000782531 0.000267098)
(-0.00159321 -0.00081021 0.000251612)
(-0.00164803 -0.000839512 0.000234333)
(-0.00170397 -0.00086981 0.000214559)
(-0.00176009 -0.00090038 0.000191465)
(-0.0018149 -0.000930108 0.000163321)
(-0.00186731 -0.000957814 0.000128998)
(-0.0019099 -0.000980528 8.42801e-05)
(-0.00193866 -0.00099552 2.88792e-05)
(-0.000334006 -0.000133658 -2.95091e-06)
(-0.000391301 -0.000191212 -5.37531e-05)
(-0.000435803 -0.000268303 -4.48971e-05)
(-0.000502958 -0.000353135 -1.52833e-05)
(-0.000597189 -0.000440173 2.78112e-05)
(-0.000712582 -0.000518528 7.82206e-05)
(-0.000837943 -0.000580544 0.000132381)
(-0.000962659 -0.000622657 0.000184685)
(-0.00107882 -0.000646564 0.000229143)
(-0.00118096 -0.00065757 0.000261348)
(-0.00126716 -0.000662853 0.000280063)
(-0.00133868 -0.000668664 0.000286998)
(-0.00139976 -0.000679027 0.000285423)
(-0.00145518 -0.000694868 0.000278436)
(-0.00150808 -0.000714992 0.000268052)
(-0.00156128 -0.000738536 0.000255614)
(-0.00161567 -0.000764405 0.00024149)
(-0.00167131 -0.000791845 0.000225499)
(-0.00172758 -0.000820219 0.000206959)
(-0.00178367 -0.000848795 0.000185059)
(-0.00183829 -0.000876515 0.000158083)
(-0.00189055 -0.000902348 0.000125097)
(-0.00193256 -0.000923435 8.17988e-05)
(-0.00196125 -0.000937354 2.79634e-05)
(-0.00031193 -0.000105498 5.27222e-06)
(-0.000368996 -0.000155878 -5.01887e-05)
(-0.000406538 -0.000222099 -4.90339e-05)
(-0.00046611 -0.000300256 -2.65935e-05)
(-0.000555873 -0.000384126 9.27046e-06)
(-0.000671204 -0.000463752 5.37133e-05)
(-0.000799891 -0.000529459 0.000104236)
(-0.0009305 -0.000575802 0.000155354)
(-0.00105367 -0.000603001 0.000200562)
(-0.00116349 -0.000616167 0.000234919)
(-0.00125698 -0.000622254 0.000256416)
(-0.00133516 -0.000627838 0.000266231)
(-0.00140186 -0.000637125 0.000267285)
(-0.00146143 -0.000651276 0.00026252)
(-0.00151742 -0.000669516 0.000254076)
(-0.00157269 -0.000691125 0.000243348)
(-0.00162827 -0.000714984 0.000230748)
(-0.00168442 -0.000740359 0.00021617)
(-0.00174063 -0.000766608 0.000198955)
(-0.00179624 -0.000793009 0.000178321)
(-0.00185014 -0.000818567 0.000152565)
(-0.00190177 -0.000842378 0.000120982)
(-0.00194272 -0.000861731 7.91751e-05)
(-0.00197115 -0.000874519 2.69917e-05)
(-0.000280525 -7.69411e-05 1.2521e-05)
(-0.000339272 -0.000123456 -4.83091e-05)
(-0.000369526 -0.000178577 -5.07667e-05)
(-0.000419979 -0.000248292 -3.53429e-05)
(-0.000503298 -0.000327026 -7.62229e-06)
(-0.000616576 -0.000406256 2.9564e-05)
(-0.000748146 -0.000475316 7.51336e-05)
(-0.000884417 -0.000525897 0.00012403)
(-0.00101526 -0.000556882 0.000169505)
(-0.00113312 -0.000572319 0.000205846)
(-0.0012348 -0.000579395 0.000230359)
(-0.0013203 -0.000584697 0.000243412)
(-0.0013929 -0.000592711 0.000247448)
(-0.00145708 -0.000605093 0.000245301)
(-0.0015162 -0.000621249 0.000239084)
(-0.00157337 -0.000640685 0.000230279)
(-0.00162996 -0.000662368 0.000219385)
(-0.00168633 -0.000685529 0.000206357)
(-0.0017421 -0.000709526 0.000190573)
(-0.00179678 -0.00073366 0.00017128)
(-0.00184957 -0.000756994 0.000146799)
(-0.00190017 -0.000778726 0.000116686)
(-0.00193967 -0.000796336 7.64349e-05)
(-0.00196759 -0.000807939 2.59704e-05)
(-0.00024396 -5.06798e-05 1.85638e-05)
(-0.000303323 -9.43044e-05 -4.73265e-05)
(-0.000326806 -0.000139326 -5.07841e-05)
(-0.000366221 -0.00019879 -4.13185e-05)
(-0.000440392 -0.000270197 -2.20313e-05)
(-0.00055022 -0.000347694 6.76183e-06)
(-0.000683002 -0.000418997 4.58445e-05)
(-0.000824961 -0.00047405 9.13243e-05)
(-0.000963211 -0.000508914 0.00013624)
(-0.00108983 -0.000527076 0.000174336)
(-0.00119981 -0.000535039 0.000201869)
(-0.00129297 -0.000539913 0.000218436)
(-0.00137213 -0.000546587 0.000225888)
(-0.00144102 -0.000556925 0.000226709)
(-0.00150352 -0.000570881 0.000223068)
(-0.00156273 -0.000588047 0.000216471)
(-0.00162012 -0.000607401 0.000207471)
(-0.00167636 -0.000628224 0.000196128)
(-0.00173118 -0.000649867 0.000181866)
(-0.00178433 -0.000671636 0.000163965)
(-0.00183536 -0.000692656 0.000140787)
(-0.00188442 -0.000712267 0.000112204)
(-0.00192183 -0.000728084 7.35665e-05)
(-0.00194912 -0.000738502 2.48963e-05)
(-0.000199993 -2.793e-05 2.27075e-05)
(-0.000258287 -6.73516e-05 -4.52498e-05)
(-0.000276729 -0.000103593 -4.9147e-05)
(-0.000305368 -0.00015226 -4.42178e-05)
(-0.000368007 -0.000214384 -3.29839e-05)
(-0.000469787 -0.000286801 -1.35895e-05)
(-0.000602827 -0.000359739 1.73066e-05)
(-0.00074921 -0.000418994 5.7663e-05)
(-0.000895764 -0.000458833 0.000101053)
(-0.00103137 -0.000480221 0.000140364)
(-0.00115094 -0.000489759 0.000170986)
(-0.00125263 -0.000494406 0.000191357)
(-0.00133848 -0.000499522 0.000202548)
(-0.00141264 -0.000507755 0.000206772)
(-0.00147857 -0.000519308 0.000206039)
(-0.00153956 -0.000533985 0.000201894)
(-0.00159752 -0.000550912 0.000194988)
(-0.00165328 -0.000569331 0.000185475)
(-0.0017067 -0.000588595 0.000172835)
(-0.00175789 -0.000608044 0.000156394)
(-0.00180681 -0.000626853 0.000134564)
(-0.0018538 -0.000644343 0.000107563)
(-0.00188878 -0.000658478 7.05972e-05)
(-0.00191512 -0.000667699 2.37749e-05)
(-0.000153347 -1.03301e-05 2.46099e-05)
(-0.000209486 -4.46605e-05 -4.24099e-05)
(-0.000224573 -7.35179e-05 -4.68747e-05)
(-0.000241322 -0.000110823 -4.44941e-05)
(-0.000287685 -0.000160695 -3.93105e-05)
(-0.000382223 -0.000227599 -2.95532e-05)
(-0.000511137 -0.000299265 -8.84525e-06)
(-0.000661584 -0.000363084 2.46425e-05)
(-0.000814762 -0.000407711 6.49613e-05)
(-0.000959704 -0.000433162 0.000104729)
(-0.00108809 -0.000444316 0.00013801)
(-0.00119815 -0.000448781 0.000162209)
(-0.00129149 -0.00045253 0.000177512)
(-0.00137095 -0.00045848 0.000185471)
(-0.0014405 -0.000467545 0.000188006)
(-0.00150345 -0.000479724 0.000186628)
(-0.00156174 -0.000494159 0.000182013)
(-0.00161661 -0.000510146 0.000174464)
(-0.00166808 -0.000527052 0.000163534)
(-0.00171649 -0.000544177 0.000148577)
(-0.00176239 -0.000560733 0.000128092)
(-0.00180693 -0.000576212 0.000102741)
(-0.00183865 -0.000588677 6.74944e-05)
(-0.00186395 -0.000596766 2.2597e-05)
(-0.000100751 2.72495e-06 2.41655e-05)
(-0.000151667 -2.47223e-05 -3.71992e-05)
(-0.00016547 -4.68502e-05 -4.21687e-05)
(-0.000175619 -7.36572e-05 -3.9364e-05)
(-0.000214485 -0.00011059 -4.02558e-05)
(-0.000282113 -0.000164156 -4.15405e-05)
(-0.000405729 -0.000236 -3.05423e-05)
(-0.000556407 -0.000302419 -6.41276e-06)
(-0.000717441 -0.000353824 2.89546e-05)
(-0.000871178 -0.000384294 6.78239e-05)
(-0.00101009 -0.000398718 0.000103328)
(-0.0011297 -0.000403899 0.000131339)
(-0.00123027 -0.000406337 0.000150854)
(-0.00131551 -0.000410167 0.000162897)
(-0.00138868 -0.000416696 0.000169015)
(-0.00145313 -0.000426232 0.000170635)
(-0.00151143 -0.000438175 0.000168502)
(-0.00156499 -0.000451778 0.000163055)
(-0.00161395 -0.000466419 0.000153924)
(-0.00165924 -0.000481423 0.000140517)
(-0.00170201 -0.000495998 0.000121423)
(-0.00174325 -0.000509473 9.77493e-05)
(-0.0017715 -0.000520522 6.42883e-05)
(-0.00179541 -0.000527501 2.13679e-05)
(-5.38482e-05 9.59927e-06 2.26395e-05)
(-9.81511e-05 -1.1053e-05 -3.16261e-05)
(-0.000115103 -2.70755e-05 -3.81418e-05)
(-0.000119732 -4.48126e-05 -4.18627e-05)
(-0.000126846 -7.44595e-05 -3.67765e-05)
(-0.000201816 -0.000112903 -3.56674e-05)
(-0.000295752 -0.000168091 -4.47626e-05)
(-0.000445095 -0.000241703 -3.28498e-05)
(-0.000608764 -0.000298378 -4.86101e-06)
(-0.000771522 -0.000335615 3.146e-05)
(-0.00091865 -0.000353609 6.79164e-05)
(-0.00104639 -0.000359899 9.91198e-05)
(-0.00115486 -0.000361773 0.000122878)
(-0.00124561 -0.00036364 0.000139147)
(-0.0013224 -0.00036776 0.000149116)
(-0.0013886 -0.000374853 0.000154029)
(-0.00144659 -0.000384391 0.000154553)
(-0.00149835 -0.000395693 0.000151322)
(-0.00154418 -0.000408209 0.000144063)
(-0.00158529 -0.000421154 0.000132191)
(-0.00162363 -0.000433729 0.000114445)
(-0.00166161 -0.000445492 9.25465e-05)
(-0.00168526 -0.000455134 6.09157e-05)
(-0.00170773 -0.000461128 2.00702e-05)
(-1.01447e-05 9.39044e-06 1.76971e-05)
(-3.50406e-05 8.85878e-07 -2.01762e-05)
(-4.8828e-05 -1.02377e-05 -3.51903e-05)
(-5.06543e-05 -2.89812e-05 -3.54449e-05)
(-5.74408e-05 -4.11975e-05 -2.93228e-05)
(-9.49197e-05 -6.87043e-05 -2.35685e-05)
(-0.000210136 -0.000111393 -3.35001e-05)
(-0.000321467 -0.000169517 -5.13752e-05)
(-0.000487963 -0.000239507 -3.4355e-05)
(-0.000655379 -0.000283564 -3.08251e-06)
(-0.00081214 -0.000307856 3.28712e-05)
(-0.000949539 -0.00031724 6.6421e-05)
(-0.00106501 -0.000319184 9.39695e-05)
(-0.00116147 -0.000319735 0.000114492)
(-0.0012417 -0.000321738 0.000128466)
(-0.00130871 -0.000326429 0.000136789)
(-0.00136585 -0.000333707 0.000140091)
(-0.00141537 -0.000342892 0.00013918)
(-0.00145746 -0.000353496 0.000133864)
(-0.00149424 -0.000364725 0.000123584)
(-0.00152848 -0.000375748 0.000107246)
(-0.00156184 -0.000385734 8.7116e-05)
(-0.00158107 -0.00039435 5.74119e-05)
(-0.00160174 -0.000399413 1.87115e-05)
(1.02254e-05 9.64935e-06 1.13699e-05)
(2.09955e-06 3.46595e-07 -1.40161e-05)
(-1.18969e-05 -7.90653e-06 -2.52321e-05)
(-2.16654e-05 -1.67423e-05 -2.7676e-05)
(-3.67915e-05 -1.41121e-05 -4.4352e-05)
(-4.65322e-05 -7.49421e-05 -6.29212e-05)
(-7.23317e-05 -8.40154e-05 -1.77696e-05)
(-0.00022144 -0.000119436 -2.71595e-05)
(-0.000358921 -0.000172978 -5.32521e-05)
(-0.000533326 -0.000231432 -3.22496e-05)
(-0.000695486 -0.000262118 1.22768e-07)
(-0.000838967 -0.000275283 3.422e-05)
(-0.000961638 -0.000278813 6.48167e-05)
(-0.00106287 -0.000278753 8.92448e-05)
(-0.00114604 -0.00027916 0.0001072)
(-0.00121428 -0.000282035 0.00011911)
(-0.00127026 -0.000287388 0.000125271)
(-0.0013169 -0.000294664 0.000126725)
(-0.00135455 -0.000303595 0.000123383)
(-0.0013857 -0.000313194 0.00011463)
(-0.00141408 -0.000322581 9.96047e-05)
(-0.00144352 -0.000331232 8.13887e-05)
(-0.00145686 -0.000338745 5.36696e-05)
(-0.00147569 -0.00034304 1.7262e-05)
(3.14334e-05 1.14471e-05 2.26089e-05)
(3.08582e-05 4.30288e-06 -6.17848e-06)
(1.98028e-05 2.73952e-06 -6.64182e-06)
(3.35419e-06 5.19796e-06 -2.16625e-05)
(-1.88849e-05 -2.14494e-05 -4.4873e-05)
(-2.86585e-05 -4.00892e-05 -4.78712e-05)
(-4.16899e-05 -5.31393e-05 -4.26125e-05)
(-7.83238e-05 -7.24409e-05 -2.72087e-05)
(-0.000239169 -0.000119152 -4.21717e-05)
(-0.000397272 -0.000170553 -5.35881e-05)
(-0.000565539 -0.000214215 -2.80449e-05)
(-0.000717792 -0.000234009 4.16651e-06)
(-0.000845651 -0.000240292 3.63071e-05)
(-0.000951501 -0.000240988 6.40247e-05)
(-0.00103725 -0.000240631 8.57221e-05)
(-0.00110473 -0.000241948 0.000101038)
(-0.00115855 -0.00024572 0.000109984)
(-0.0012019 -0.000251413 0.000113816)
(-0.00123457 -0.000258984 0.00011247)
(-0.00126027 -0.000267355 0.000105286)
(-0.00128382 -0.000275666 9.16599e-05)
(-0.00130764 -0.000282801 7.53225e-05)
(-0.00131586 -0.000289609 4.97391e-05)
(-0.00133262 -0.000293257 1.57395e-05)
(4.58537e-05 1.46529e-05 3.33594e-05)
(5.48704e-05 8.03376e-06 -1.01565e-05)
(5.30218e-05 -2.30847e-06 -1.42692e-05)
(4.44674e-05 -1.55444e-05 -1.47559e-05)
(3.99146e-05 -2.35065e-05 -2.28842e-07)
(-5.09173e-06 -3.55851e-07 -1.1618e-05)
(-3.36431e-05 -1.38795e-05 -4.03509e-05)
(-4.59355e-05 -2.71811e-05 -3.68976e-05)
(-0.000100212 -5.35136e-05 -3.59146e-05)
(-0.000276428 -0.000113367 -6.04813e-05)
(-0.000434358 -0.000164051 -5.04584e-05)
(-0.000586598 -0.000192071 -2.24569e-05)
(-0.000719672 -0.00020321 9.68099e-06)
(-0.000827753 -0.000205773 3.94778e-05)
(-0.000914501 -0.000205583 6.42852e-05)
(-0.00098232 -0.000206532 8.29122e-05)
(-0.00103375 -0.000209353 9.4502e-05)
(-0.00107306 -0.000213771 0.000100604)
(-0.00109997 -0.00022025 0.000101199)
(-0.00111876 -0.000227384 9.5439e-05)
(-0.00113539 -0.000234397 8.30697e-05)
(-0.00115467 -0.00024038 6.87831e-05)
(-0.00115611 -0.000246173 4.54394e-05)
(-0.00117064 -0.000249333 1.40937e-05)
(5.84861e-05 1.49254e-05 3.54695e-05)
(7.44235e-05 8.49396e-06 -1.05747e-05)
(7.90502e-05 5.81504e-07 -1.767e-05)
(7.65856e-05 -1.2111e-05 -1.94972e-05)
(6.7814e-05 -2.16329e-05 -1.63323e-05)
(4.00096e-05 -3.8101e-05 4.0711e-07)
(3.24219e-06 -3.84743e-06 8.80668e-06)
(-3.75674e-05 2.20003e-05 -3.21325e-05)
(-2.77392e-05 -1.31771e-05 -2.9562e-05)
(-0.000134977 -6.33613e-05 -4.50664e-05)
(-0.000293509 -0.000107772 -5.61014e-05)
(-0.000452865 -0.000149577 -4.29655e-05)
(-0.000586117 -0.000166486 -1.38198e-05)
(-0.000695974 -0.000172858 1.67154e-05)
(-0.000783541 -0.000174223 4.37e-05)
(-0.00084753 -0.00017504 6.48952e-05)
(-0.000894854 -0.000177381 7.86776e-05)
(-0.00092984 -0.000180921 8.68647e-05)
(-0.000950722 -0.000186645 8.93283e-05)
(-0.000963488 -0.000192892 8.5015e-05)
(-0.000974874 -0.000199091 7.40195e-05)
(-0.000988814 -0.000203778 6.17751e-05)
(-0.000985236 -0.000208885 4.08929e-05)
(-0.000997551 -0.000211735 1.23757e-05)
(6.8424e-05 1.36273e-05 3.62493e-05)
(8.91863e-05 7.30702e-06 -1.09181e-05)
(9.76544e-05 -3.04658e-08 -1.91414e-05)
(9.88349e-05 -1.18015e-05 -2.30699e-05)
(9.28811e-05 -2.33301e-05 -2.32045e-05)
(7.86911e-05 -3.11475e-05 -2.03375e-05)
(4.56811e-05 -3.5992e-05 -1.6045e-05)
(1.08653e-05 -2.72036e-05 -2.11974e-05)
(-2.3063e-05 -1.44938e-05 -3.97455e-05)
(-5.87851e-05 -3.0359e-05 -3.32212e-05)
(-0.000211183 -6.09842e-05 -4.63102e-05)
(-0.000316288 -0.00010312 -5.61182e-05)
(-0.000450627 -0.000129843 -3.20756e-05)
(-0.000557335 -0.000140582 -3.24448e-06)
(-0.000641963 -0.000144429 2.43742e-05)
(-0.000705177 -0.000146988 4.75831e-05)
(-0.00074851 -0.000149645 6.30111e-05)
(-0.000778342 -0.000152604 7.28979e-05)
(-0.000792472 -0.000157722 7.70127e-05)
(-0.000797443 -0.000162751 7.38718e-05)
(-0.000801941 -0.000167722 6.4093e-05)
(-0.000810153 -0.000170864 5.39797e-05)
(-0.000799758 -0.000174483 3.57597e-05)
(-0.000809715 -0.00017727 1.04967e-05)
(7.33023e-05 1.24891e-05 3.67979e-05)
(9.75725e-05 6.38775e-06 -1.08394e-05)
(0.000109114 -2.1509e-07 -2.04462e-05)
(0.000113221 -1.15618e-05 -2.58651e-05)
(0.00011056 -2.36438e-05 -2.7568e-05)
(0.000101186 -3.38238e-05 -2.59363e-05)
(8.45578e-05 -3.90149e-05 -2.24623e-05)
(5.83113e-05 -3.28064e-05 -1.7477e-05)
(1.61371e-05 -2.00443e-05 -2.55492e-05)
(-4.02239e-05 8.42676e-06 -5.67021e-05)
(-8.28075e-05 -9.83133e-05 -6.10589e-05)
(-0.000197686 -7.31826e-05 -2.70408e-05)
(-0.000317034 -8.92393e-05 -4.40829e-05)
(-0.000419831 -0.000108846 -1.8918e-05)
(-0.000502957 -0.000116784 7.49123e-06)
(-0.000556816 -0.000120501 3.11877e-05)
(-0.000593325 -0.00012365 4.72699e-05)
(-0.000618211 -0.000126315 5.83598e-05)
(-0.000625893 -0.000131126 6.38813e-05)
(-0.000625914 -0.0001352 6.19877e-05)
(-0.000625097 -0.000138942 5.35845e-05)
(-0.000632018 -0.000141191 4.58065e-05)
(-0.000618531 -0.000143809 3.04486e-05)
(-0.000625695 -0.000146526 8.58763e-06)
(7.23569e-05 9.96881e-06 3.56435e-05)
(9.8757e-05 4.81657e-06 -9.23689e-06)
(0.000111481 -6.0167e-07 -1.96634e-05)
(0.000118519 -1.11544e-05 -2.62124e-05)
(0.000119342 -2.35224e-05 -2.898e-05)
(0.0001143 -3.49527e-05 -2.81355e-05)
(0.000103395 -4.27783e-05 -2.41238e-05)
(8.57669e-05 -4.43987e-05 -1.90356e-05)
(5.51712e-05 -3.12624e-05 -2.05101e-05)
(-5.17401e-05 -3.36637e-05 -4.95423e-05)
(-2.81019e-05 -2.87781e-05 -4.54115e-05)
(-8.78492e-05 -3.08734e-05 -3.12871e-05)
(-0.000200444 -5.31456e-05 -4.37008e-05)
(-0.000284188 -7.0029e-05 -2.92313e-05)
(-0.000359722 -8.8584e-05 -6.32926e-06)
(-0.000412699 -9.54318e-05 1.6838e-05)
(-0.000443309 -9.92628e-05 3.24736e-05)
(-0.000462728 -0.000102129 4.39723e-05)
(-0.000463307 -0.000106201 5.04162e-05)
(-0.000455016 -0.00010864 4.92194e-05)
(-0.000449457 -0.000109145 4.20264e-05)
(-0.000445946 -0.000111377 3.62022e-05)
(-0.000426436 -0.000111604 2.41729e-05)
(-0.000433152 -0.00011472 6.53298e-06)
(6.61887e-05 6.87808e-06 3.28076e-05)
(9.34453e-05 2.7122e-06 -6.80083e-06)
(0.000106849 -1.72444e-06 -1.68125e-05)
(0.000115141 -1.05805e-05 -2.37107e-05)
(0.000119355 -2.22004e-05 -2.75073e-05)
(0.000118364 -3.42314e-05 -2.77258e-05)
(0.000112173 -4.42544e-05 -2.43586e-05)
(9.94995e-05 -5.06734e-05 -1.78611e-05)
(7.84496e-05 -4.89119e-05 -6.46442e-06)
(4.14026e-05 -4.96155e-05 1.41002e-05)
(-5.56088e-05 6.8958e-05 -2.44599e-05)
(-4.48162e-05 -1.27944e-05 -5.16646e-05)
(-9.38282e-05 -2.94555e-05 -2.51492e-05)
(-0.00021543 -3.39182e-05 -2.96867e-05)
(-0.000234908 -6.0402e-05 -1.63576e-05)
(-0.000270037 -6.89827e-05 4.32085e-06)
(-0.000290725 -6.98358e-05 1.8054e-05)
(-0.000304982 -7.60258e-05 2.91549e-05)
(-0.000301478 -7.86436e-05 3.60473e-05)
(-0.000292642 -8.00969e-05 3.60154e-05)
(-0.00029672 -7.90174e-05 3.04942e-05)
(-0.000289568 -7.58281e-05 2.82029e-05)
(-0.000273517 -7.31147e-05 1.88706e-05)
(-0.000273151 -7.90235e-05 4.438e-06)
(5.72032e-05 3.98468e-06 2.90884e-05)
(8.38839e-05 3.36884e-07 -4.53959e-06)
(9.72753e-05 -3.44595e-06 -1.31914e-05)
(0.000106205 -1.08573e-05 -1.94531e-05)
(0.00011211 -2.06123e-05 -2.36071e-05)
(0.000114899 -3.18425e-05 -2.5089e-05)
(0.00011328 -4.23221e-05 -2.34225e-05)
(0.000106001 -5.00347e-05 -1.88119e-05)
(9.00913e-05 -5.22932e-05 -1.10456e-05)
(5.73099e-05 -4.32888e-05 -2.64864e-06)
(-1.58573e-05 -3.50465e-05 -1.09927e-05)
(-2.84691e-05 2.20321e-06 -4.44868e-05)
(-3.79588e-05 -9.15259e-06 -3.86278e-05)
(-9.35014e-05 -9.88146e-05 -3.52562e-05)
(-0.000125715 -3.57766e-05 -1.65303e-06)
(-0.000160223 -4.17092e-05 -4.76146e-06)
(-0.000199289 -4.17782e-05 6.88543e-06)
(-0.000184989 -4.53449e-05 1.66991e-05)
(-0.000181298 -5.0601e-05 2.27355e-05)
(-0.000160079 -4.72292e-05 2.08975e-05)
(-0.000148735 -6.59795e-05 1.70701e-05)
(-0.000151245 -4.51475e-05 1.84326e-05)
(-0.000133608 -4.41348e-05 1.08254e-05)
(-0.000132695 -4.55449e-05 2.47308e-06)
(4.78061e-05 2.14458e-06 2.55799e-05)
(7.26045e-05 -1.57759e-06 -3.26604e-06)
(8.51526e-05 -5.32708e-06 -1.02384e-05)
(9.39872e-05 -1.17522e-05 -1.52141e-05)
(0.000100636 -1.99646e-05 -1.88332e-05)
(0.00010575 -2.94323e-05 -2.08041e-05)
(0.000108296 -3.91583e-05 -2.06129e-05)
(0.000106495 -4.72367e-05 -1.82457e-05)
(9.78678e-05 -5.1906e-05 -1.35756e-05)
(7.66105e-05 -5.14314e-05 -9.45559e-06)
(3.9193e-05 -4.2191e-05 -7.36035e-06)
(3.10663e-06 -1.67747e-05 -2.57443e-05)
(-4.37201e-05 -2.03175e-05 -4.92603e-05)
(-3.71491e-05 -3.38864e-05 -3.81187e-05)
(-3.8008e-05 -1.33533e-05 -1.06056e-05)
(-3.81214e-05 -1.33275e-05 -8.2334e-06)
(-6.74998e-05 -5.38553e-05 -5.38239e-06)
(-6.66006e-05 -2.46654e-05 6.14695e-06)
(-5.19432e-05 -2.92735e-05 6.44846e-06)
(-4.6215e-05 -2.39107e-05 6.68844e-06)
(-6.10365e-05 -4.50904e-05 7.65065e-06)
(-4.90037e-05 -3.13306e-05 7.82594e-06)
(-3.81895e-05 -3.13922e-05 4.76879e-06)
(-2.9974e-05 -2.37344e-05 2.22055e-06)
(3.84733e-05 1.06963e-06 2.19618e-05)
(6.08079e-05 -2.99097e-06 -2.78019e-06)
(7.21263e-05 -7.1027e-06 -8.20653e-06)
(8.04799e-05 -1.31058e-05 -1.17961e-05)
(8.73716e-05 -2.02996e-05 -1.43937e-05)
(9.35986e-05 -2.81682e-05 -1.60856e-05)
(9.89853e-05 -3.63528e-05 -1.6622e-05)
(0.000101449 -4.36584e-05 -1.58721e-05)
(9.90911e-05 -4.9138e-05 -1.39249e-05)
(8.76887e-05 -5.16312e-05 -1.16173e-05)
(6.52722e-05 -4.91678e-05 -1.07717e-05)
(3.02696e-05 -3.25808e-05 -1.45843e-05)
(1.24572e-05 -2.6186e-05 -1.60729e-05)
(-3.09615e-05 5.15855e-05 -3.40855e-05)
(-2.81118e-05 -1.38047e-05 -4.45973e-05)
(-2.46477e-05 -1.96982e-05 -1.77264e-05)
(-3.81874e-05 -4.10033e-05 -1.36694e-05)
(-2.23941e-05 -2.50506e-05 -1.29783e-06)
(-3.30535e-05 -3.93578e-05 4.6555e-06)
(-1.40148e-05 -2.73886e-05 5.9398e-06)
(-1.82021e-05 -2.06792e-05 5.52719e-06)
(-8.95306e-06 -3.1942e-05 8.75138e-06)
(-1.32769e-05 -1.60365e-05 7.18459e-06)
(-9.43997e-06 -2.0949e-05 1.75958e-06)
(3.08944e-05 2.6963e-07 1.86322e-05)
(5.04554e-05 -4.32938e-06 -2.81236e-06)
(6.03438e-05 -8.99899e-06 -6.94551e-06)
(6.79738e-05 -1.49499e-05 -9.29834e-06)
(7.47679e-05 -2.15735e-05 -1.08202e-05)
(8.14637e-05 -2.83572e-05 -1.18804e-05)
(8.80023e-05 -3.49321e-05 -1.2522e-05)
(9.31032e-05 -4.10122e-05 -1.26845e-05)
(9.49852e-05 -4.60153e-05 -1.241e-05)
(9.10989e-05 -4.97661e-05 -1.21097e-05)
(7.85717e-05 -4.99914e-05 -1.23108e-05)
(5.50477e-05 -4.31217e-05 -1.59422e-05)
(2.93736e-05 -2.77075e-05 -2.38494e-05)
(-1.94604e-05 -2.62105e-05 -3.44437e-05)
(-7.56833e-07 -1.2377e-05 -3.2884e-05)
(-1.5929e-06 -1.20945e-05 -2.34882e-05)
(-4.80442e-06 1.02374e-05 -1.68057e-05)