/*--------------------------------*- C++ -*----------------------------------*\
  =========                 |
  \\      /  F ield         | OpenFOAM: The Open Source CFD Toolbox
   \\    /   O peration     | Website:  https://openfoam.org
    \\  /    A nd           | Version:  6
     \\/     M anipulation  |
\*---------------------------------------------------------------------------*/
FoamFile
{
    version     2.0;
    format      ascii;
    class       volScalarField;
    location    "44";
    object      omega;
}
// * * * * * * * * * * * * * * * * * * * * * * * * * * * * * * * * * * * * * //

dimensions      [0 0 -1 0 0 0 0];

internalField   nonuniform List<scalar> 
380496
(
843.917
843.917
843.917
843.917
843.917
843.917
843.917
843.917
843.917
843.917
843.917
843.917
843.917
843.917
843.917
843.917
843.917
843.917
843.917
843.917
843.917
843.917
843.917
843.917
843.917
843.917
843.917
843.917
843.917
843.917
843.917
843.917
843.917
843.917
843.917
843.917
843.917
843.917
843.917
843.917
843.917
843.917
843.917
843.917
843.917
843.917
843.917
843.917
843.917
843.917
843.917
843.917
843.917
843.917
843.917
843.917
843.917
843.917
843.917
843.917
843.917
843.917
843.917
843.917
843.917
843.917
843.917
843.917
843.917
843.917
843.917
843.917
843.917
843.917
843.917
843.917
843.917
843.917
843.917
843.917
843.917
843.917
843.917
843.917
843.917
843.917
843.917
843.917
843.917
843.917
843.917
843.917
843.917
843.917
843.917
843.917
843.917
843.917
843.917
843.917
843.917
843.917
843.917
843.917
843.917
843.917
843.917
843.917
843.917
843.917
843.917
843.917
843.917
843.917
843.917
843.917
843.917
843.917
843.917
843.917
843.917
843.917
843.917
843.917
843.917
843.917
843.917
843.917
843.917
843.917
843.917
843.917
843.917
843.917
843.917
843.917
843.917
843.917
843.917
843.917
843.917
843.917
843.917
843.917
843.917
843.917
843.917
843.917
843.917
843.917
843.917
843.917
843.917
843.917
843.917
843.917
843.917
843.917
843.917
843.917
843.917
843.917
843.917
843.917
843.917
843.917
843.917
843.917
843.917
843.917
843.917
843.917
843.917
843.917
843.917
843.917
843.917
843.917
843.917
843.917
843.917
843.917
843.917
843.917
843.917
843.917
843.917
843.917
843.917
843.917
843.917
843.917
843.917
843.917
843.917
843.917
843.917
843.917
843.917
843.917
843.917
843.917
843.917
843.917
843.917
843.917
843.917
843.917
843.917
843.917
843.917
843.917
843.917
843.917
843.917
843.917
843.917
843.917
843.917
843.917
843.917
843.917
843.917
843.917
843.917
843.917
843.917
843.917
843.917
843.917
843.917
843.917
843.917
843.917
843.917
843.917
843.917
843.917
843.917
843.917
843.917
843.917
843.917
843.917
843.917
843.917
843.917
843.917
843.917
843.917
843.917
843.917
843.917
843.917
843.917
843.917
843.917
843.917
843.917
843.917
843.917
843.917
843.917
843.917
843.917
843.917
843.917
843.917
843.917
843.917
843.917
843.917
843.917
843.917
843.917
843.917
843.917
843.917
843.917
843.917
843.917
843.917
843.917
843.917
843.917
843.917
843.917
843.917
843.917
843.917
843.917
843.917
843.917
843.917
843.917
843.917
843.917
843.917
843.917
843.917
843.917
843.917
843.917
843.917
843.917
843.917
843.917
843.917
843.917
843.917
843.917
843.917
843.917
843.917
843.917
843.917
843.917
843.917
843.917
843.917
843.917
843.917
843.917
843.917
843.917
843.917
843.917
843.917
843.917
843.917
843.917
843.917
843.917
843.917
843.917
843.917
843.917
843.917
843.917
843.917
843.917
843.917
843.917
843.917
843.917
843.917
843.917
843.917
843.917
843.917
843.917
843.917
843.917
843.917
843.917
843.917
843.917
843.917
843.917
843.917
843.917
843.917
843.917
843.917
843.917
843.917
843.917
843.917
843.917
843.917
843.917
843.917
843.917
843.917
843.917
843.917
843.917
843.917
843.917
843.917
843.917
843.917
843.917
843.917
843.917
843.917
843.917
843.917
843.917
843.917
843.917
843.917
843.917
843.917
843.917
843.917
843.917
843.917
843.917
843.917
843.917
843.917
843.917
843.917
843.917
843.917
843.917
843.917
843.917
843.917
843.917
843.917
843.917
843.917
843.917
843.917
843.917
843.917
843.917
843.917
843.917
843.917
843.917
843.917
843.917
843.917
843.917
843.917
843.917
843.917
843.917
843.917
843.917
843.917
843.917
843.917
843.917
843.917
843.917
843.917
843.917
843.917
843.917
843.917
843.917
843.917
843.917
843.917
843.917
843.917
843.917
843.917
843.917
843.917
843.917
843.917
843.917
843.917
843.917
843.917
843.917
843.917
843.917
843.917
843.917
843.917
843.917
843.917
843.917
843.917
843.917
843.917
843.917
843.917
843.917
843.917
843.917
843.917
843.917
843.917
843.917
843.917
843.917
843.917
843.917
843.917
843.917
843.917
843.917
843.917
843.917
843.917
843.917
843.917
843.917
843.917
843.917
843.917
843.917
843.917
843.917
843.917
843.917
843.917
843.917
843.917
843.917
843.917
843.917
843.917
843.917
843.917
843.917
843.917
843.917
843.917
843.917
843.917
843.917
843.917
843.917
843.917
843.917
843.917
843.917
843.917
843.917
843.917
843.917
843.917
843.917
843.917
843.917
843.917
843.917
843.917
843.917
843.917
843.917
843.917
843.917
843.917
843.917
843.917
843.917
843.917
843.917
843.917
843.917
843.917
843.917
843.917
843.917
843.917
843.917
843.917
843.917
843.917
843.917
843.917
843.917
843.917
843.917
843.917
843.917
843.917
843.917
843.917
843.917
843.917
843.917
843.917
843.917
843.917
843.917
843.917
843.917
843.917
843.917
843.917
843.917
843.917
843.917
843.917
843.917
843.917
843.917
843.917
843.917
843.917
843.917
843.917
843.917
843.917
843.917
843.917
843.917
843.917
843.917
843.917
843.917
843.917
843.917
843.917
843.917
843.917
843.917
843.917
843.917
843.917
843.917
843.917
843.917
843.917
843.917
843.917
843.917
843.917
843.917
843.917
843.917
843.917
843.917
843.917
843.917
843.917
843.917
843.917
843.917
843.917
843.917
843.917
843.917
843.917
843.917
843.917
843.917
843.917
843.917
843.917
843.917
843.917
843.917
843.917
843.917
843.917
843.917
843.917
843.917
843.917
843.917
843.917
843.917
843.917
843.917
843.917
843.917
843.917
843.917
843.917
843.917
843.917
843.917
843.917
843.917
843.917
843.917
843.917
843.917
843.917
843.917
843.917
843.917
843.917
843.917
843.917
843.917
843.917
843.917
843.917
843.917
843.917
843.917
843.917
843.917
843.917
843.917
843.917
843.917
843.917
843.917
843.917
843.917
843.917
843.917
843.917
843.917
843.917
843.917
843.917
423.923
423.923
423.923
423.923
423.923
423.923
423.923
423.923
423.923
423.923
423.923
423.923
423.923
423.923
423.923
423.923
423.923
423.923
423.923
423.923
423.923
423.923
423.923
423.923
423.923
423.923
423.923
423.923
423.923
423.923
423.923
423.923
423.923
423.923
423.923
281.629
267.582
268.717
269.796
269.895
269.744
269.642
269.584
269.563
269.549
269.551
269.552
269.562
269.57
269.585
269.596
269.613
269.628
269.647
269.667
269.688
269.714
269.738
269.77
269.797
269.836
269.864
269.911
269.937
269.993
270.013
270.078
270.084
270.169
270.133
281.467
267.567
268.64
269.673
269.746
269.593
269.484
269.431
269.405
269.398
269.396
269.406
269.413
269.433
269.444
269.469
269.483
269.514
269.53
269.567
269.586
269.631
269.653
269.705
269.73
269.79
269.818
269.885
269.915
269.987
270.013
270.092
270.096
270.204
270.098
281.132
267.392
268.466
269.467
269.516
269.355
269.244
269.193
269.167
269.166
269.168
269.186
269.199
269.228
269.247
269.282
269.305
269.347
269.373
269.423
269.453
269.512
269.547
269.615
269.654
269.733
269.774
269.863
269.904
270.005
270.04
270.155
270.163
270.322
270.217
280.564
267.014
268.169
269.145
269.161
268.988
268.874
268.825
268.804
268.809
268.818
268.845
268.866
268.905
268.933
268.98
269.012
269.067
269.104
269.168
269.211
269.285
269.332
269.417
269.47
269.566
269.623
269.73
269.789
269.907
269.962
270.094
270.122
270.302
270.208
280.147
266.778
267.822
268.729
268.727
268.55
268.436
268.389
268.371
268.381
268.396
268.43
268.459
268.506
268.543
268.599
268.643
268.709
268.758
268.835
268.891
268.98
269.042
269.144
269.213
269.327
269.401
269.528
269.605
269.746
269.819
269.978
270.022
270.24
270.153
279.34
266.186
267.268
268.131
268.097
267.91
267.798
267.757
267.748
267.768
267.794
267.839
267.881
267.94
267.99
268.06
268.117
268.197
268.261
268.353
268.425
268.53
268.61
268.728
268.815
268.948
269.041
269.188
269.284
269.446
269.539
269.722
269.784
270.032
269.952
278.498
265.568
266.587
267.38
267.319
267.127
267.018
266.982
266.982
267.011
267.048
267.104
267.158
267.228
267.291
267.373
267.444
267.538
267.618
267.725
267.813
267.935
268.032
268.169
268.274
268.427
268.539
268.707
268.823
269.007
269.119
269.327
269.408
269.687
269.615
277.443
264.749
265.703
266.421
266.332
266.136
266.032
266.005
266.016
266.056
266.106
266.174
266.241
266.324
266.401
266.496
266.582
266.69
266.785
266.908
267.013
267.152
267.267
267.421
267.545
267.717
267.848
268.036
268.171
268.376
268.508
268.738
268.836
269.145
269.077
276.189
263.73
264.626
265.266
265.146
264.947
264.853
264.839
264.865
264.92
264.987
265.069
265.152
265.249
265.341
265.451
265.553
265.676
265.787
265.926
266.048
266.204
266.336
266.509
266.651
266.841
266.991
267.197
267.351
267.576
267.726
267.978
268.093
268.428
268.365
274.955
262.702
263.448
263.999
263.859
263.664
263.579
263.574
263.613
263.679
263.757
263.85
263.945
264.053
264.158
264.28
264.395
264.531
264.657
264.809
264.947
265.117
265.265
265.453
265.612
265.818
265.984
266.208
266.378
266.62
266.786
267.056
267.185
267.543
267.482
273.277
261.257
261.953
262.426
262.259
262.069
262.004
262.021
262.083
262.17
262.269
262.38
262.494
262.618
262.74
262.877
263.008
263.16
263.302
263.47
263.625
263.811
263.976
264.181
264.357
264.579
264.763
265.003
265.19
265.449
265.631
265.918
266.061
266.44
266.381
271.66
259.848
260.311
260.68
260.499
260.319
260.268
260.299
260.374
260.474
260.585
260.708
260.833
260.969
261.104
261.252
261.397
261.561
261.718
261.9
262.07
262.27
262.452
262.671
262.863
263.101
263.301
263.557
263.76
264.035
264.231
264.535
264.69
265.09
265.031
269.372
257.802
258.186
258.478
258.279
258.121
258.104
258.169
258.275
258.403
258.54
258.685
258.832
258.986
259.14
259.305
259.469
259.649
259.825
260.023
260.211
260.427
260.627
260.863
261.073
261.327
261.544
261.817
262.036
262.327
262.54
262.86
263.028
263.448
263.389
267.102
255.733
255.825
256.009
255.805
255.669
255.678
255.765
255.892
256.038
256.192
256.352
256.515
256.683
256.853
257.032
257.212
257.407
257.599
257.811
258.016
258.247
258.465
258.716
258.943
259.213
259.447
259.735
259.971
260.277
260.505
260.841
261.022
261.46
261.401
264.032
252.896
252.816
252.925
252.724
252.633
252.691
252.824
252.989
253.168
253.352
253.537
253.723
253.913
254.104
254.302
254.502
254.714
254.926
255.155
255.379
255.627
255.864
256.131
256.378
256.664
256.916
257.221
257.474
257.797
258.041
258.392
258.588
259.044
258.984
260.55
249.611
249.241
249.278
249.095
249.057
249.164
249.343
249.544
249.758
249.968
250.179
250.387
250.597
250.807
251.024
251.242
251.471
251.701
251.945
252.188
252.451
252.707
252.989
253.255
253.556
253.827
254.146
254.418
254.756
255.017
255.382
255.593
256.065
256.004
256.376
245.605
244.857
244.814
244.662
244.694
244.86
245.089
245.324
245.57
245.802
246.037
246.261
246.491
246.715
246.948
247.18
247.424
247.667
247.926
248.185
248.462
248.734
249.03
249.314
249.629
249.919
250.256
250.543
250.904
251.178
251.57
251.793
252.289
252.237
249.996
239.623
238.827
238.836
238.748
238.877
239.128
239.431
239.721
240.016
240.279
240.547
240.79
241.043
241.279
241.531
241.772
242.033
242.286
242.562
242.832
243.128
243.417
243.736
244.041
244.382
244.695
245.057
245.372
245.753
246.057
246.464
246.721
247.223
247.207
240.797
231.46
230.492
230.668
230.751
231.01
231.329
231.661
231.955
232.244
232.493
232.75
232.978
233.225
233.449
233.701
233.936
234.202
234.454
234.739
235.013
235.336
235.653
236.007
236.348
236.724
237.081
237.473
237.837
238.249
238.605
239.044
239.363
239.88
239.976
214.295
212.13
212.392
213.327
213.971
214.714
215.442
216.118
216.72
217.289
217.802
218.307
218.772
219.245
219.686
220.145
220.576
221.033
221.464
221.925
222.361
222.829
223.273
223.747
224.198
224.676
225.132
225.607
226.065
226.529
226.982
227.425
227.869
228.236
228.853
9.02161
7.66299
7.58995
7.55633
7.60824
7.67932
7.77004
7.86079
7.96083
8.05199
8.14778
8.23201
8.32055
8.3974
8.48002
8.55132
8.63035
8.698
8.77559
8.8408
8.91876
8.98178
9.06179
9.12177
9.20561
9.26027
9.35042
9.39558
9.49621
9.52464
9.64262
9.64134
9.78809
9.72798
9.92262
135.248
128.879
128.552
129.047
129.248
129.247
129.202
129.159
129.129
129.108
129.094
129.086
129.083
129.084
129.087
129.094
129.103
129.114
129.128
129.145
129.164
129.186
129.211
129.238
129.27
129.302
129.343
129.381
129.432
129.475
129.541
129.589
129.671
129.727
129.83
135.076
128.678
128.312
128.782
128.972
128.966
128.917
128.873
128.842
128.821
128.808
128.801
128.799
128.802
128.808
128.817
128.829
128.844
128.862
128.882
128.906
128.931
128.962
128.993
129.031
129.067
129.115
129.156
129.213
129.261
129.328
129.384
129.452
129.539
129.56
134.794
128.385
128.004
128.461
128.641
128.63
128.578
128.534
128.502
128.483
128.472
128.469
128.471
128.478
128.488
128.502
128.52
128.54
128.565
128.591
128.622
128.654
128.692
128.73
128.777
128.82
128.877
128.926
128.995
129.047
129.13
129.188
129.276
129.361
129.411
134.361
127.975
127.612
128.065
128.235
128.217
128.161
128.116
128.086
128.069
128.062
128.063
128.069
128.081
128.097
128.117
128.14
128.166
128.197
128.229
128.267
128.305
128.35
128.395
128.449
128.5
128.563
128.619
128.694
128.755
128.84
128.908
128.994
129.092
129.131
134.043
127.65
127.238
127.654
127.806
127.781
127.722
127.675
127.643
127.627
127.621
127.624
127.633
127.648
127.668
127.692
127.719
127.75
127.786
127.823
127.866
127.911
127.962
128.013
128.074
128.131
128.202
128.265
128.347
128.414
128.507
128.582
128.675
128.781
128.825
133.489
127.122
126.72
127.124
127.261
127.227
127.164
127.117
127.087
127.075
127.073
127.081
127.096
127.117
127.143
127.173
127.206
127.244
127.285
127.33
127.38
127.431
127.489
127.548
127.615
127.68
127.757
127.827
127.915
127.99
128.088
128.169
128.264
128.38
128.42
132.924
126.584
126.159
126.531
126.648
126.603
126.536
126.487
126.459
126.448
126.45
126.463
126.482
126.508
126.539
126.574
126.614
126.657
126.704
126.755
126.811
126.869
126.934
126.999
127.073
127.144
127.228
127.305
127.399
127.481
127.584
127.674
127.772
127.897
127.936
132.248
125.942
125.496
125.833
125.928
125.872
125.8
125.75
125.724
125.717
125.723
125.741
125.765
125.797
125.833
125.874
125.919
125.968
126.022
126.079
126.141
126.205
126.276
126.348
126.429
126.507
126.597
126.681
126.781
126.869
126.977
127.073
127.173
127.307
127.342
131.463
125.209
124.747
125.048
125.118
125.049
124.973
124.924
124.901
124.9
124.912
124.936
124.967
125.005
125.047
125.095
125.146
125.202
125.261
125.325
125.393
125.465
125.542
125.621
125.707
125.793
125.889
125.979
126.084
126.179
126.292
126.395
126.496
126.641
126.671
130.701
124.495
123.979
124.228
124.271
124.191
124.111
124.062
124.042
124.044
124.06
124.089
124.124
124.167
124.214
124.267
124.323
124.384
124.449
124.518
124.592
124.669
124.752
124.837
124.929
125.02
125.121
125.218
125.328
125.428
125.545
125.654
125.757
125.909
125.936
129.711
123.569
123.042
123.256
123.271
123.178
123.097
123.052
123.039
123.049
123.074
123.111
123.154
123.205
123.259
123.319
123.382
123.45
123.522
123.598
123.678
123.762
123.851
123.942
124.04
124.138
124.245
124.348
124.463
124.569
124.69
124.806
124.91
125.071
125.093
128.745
122.677
122.06
122.202
122.183
122.078
121.995
121.952
121.942
121.957
121.987
122.028
122.077
122.133
122.193
122.258
122.326
122.4
122.477
122.559
122.645
122.735
122.83
122.927
123.031
123.135
123.247
123.355
123.476
123.588
123.713
123.835
123.941
124.11
124.128
127.448
121.46
120.821
120.919
120.87
120.755
120.674
120.64
120.642
120.668
120.71
120.762
120.821
120.885
120.954
121.027
121.104
121.185
121.269
121.359
121.452
121.549
121.651
121.756
121.866
121.976
122.095
122.21
122.336
122.455
122.585
122.713
122.822
123
123.013
126.136
120.247
119.484
119.494
119.406
119.28
119.2
119.172
119.182
119.216
119.266
119.326
119.392
119.464
119.54
119.62
119.704
119.792
119.884
119.98
120.08
120.184
120.292
120.404
120.521
120.638
120.763
120.885
121.017
121.142
121.276
121.411
121.523
121.711
121.717
124.43
118.648
117.81
117.757
117.634
117.501
117.432
117.418
117.444
117.493
117.557
117.629
117.708
117.79
117.876
117.966
118.059
118.155
118.255
118.36
118.468
118.58
118.696
118.815
118.94
119.064
119.197
119.325
119.464
119.596
119.737
119.879
119.994
120.192
120.193
122.481
116.821
115.842
115.704
115.544
115.408
115.349
115.351
115.393
115.458
115.536
115.621
115.711
115.805
115.901
116
116.101
116.206
116.314
116.427
116.542
116.662
116.785
116.912
117.043
117.176
117.315
117.451
117.596
117.735
117.882
118.031
118.15
118.358
118.353
120.129
114.623
113.444
113.189
112.982
112.846
112.804
112.827
112.885
112.966
113.056
113.153
113.252
113.354
113.457
113.563
113.67
113.782
113.896
114.015
114.137
114.263
114.393
114.526
114.665
114.804
114.95
115.094
115.248
115.395
115.551
115.709
115.838
116.058
116.053
116.507
111.184
110.005
109.763
109.555
109.436
109.415
109.462
109.537
109.635
109.735
109.843
109.948
110.058
110.166
110.279
110.392
110.511
110.632
110.758
110.888
111.023
111.163
111.308
111.459
111.612
111.771
111.93
112.097
112.259
112.429
112.6
112.745
112.974
112.987
111.046
106.319
104.835
104.503
104.279
104.184
104.187
104.255
104.346
104.463
104.577
104.706
104.828
104.963
105.092
105.234
105.372
105.523
105.671
105.83
105.992
106.16
106.328
106.502
106.679
106.861
107.047
107.234
107.428
107.616
107.814
108.01
108.192
108.434
108.52
95.7378
95.784
94.6653
94.3768
94.1735
94.1503
94.2653
94.4614
94.6913
94.946
95.2023
95.4672
95.7253
95.9888
96.2442
96.5049
96.7582
97.0172
97.2698
97.5285
97.7819
98.041
98.2957
98.5555
98.8118
99.0722
99.3293
99.589
99.8448
100.101
100.354
100.599
100.861
101.054
101.408
11.4423
9.87556
9.84017
9.88378
9.999
10.1211
10.2554
10.3811
10.5127
10.6297
10.7498
10.8541
10.9623
11.0553
11.1546
11.2395
11.3332
11.4128
11.5038
11.5798
11.6706
11.7434
11.836
11.9051
12.0016
12.0644
12.1677
12.2199
12.3346
12.3686
12.5019
12.5052
12.6677
12.6173
12.8176
79.7825
77.236
76.6739
76.7672
76.8953
76.9423
76.9393
76.9203
76.8976
76.8784
76.8615
76.8492
76.8391
76.833
76.8284
76.8273
76.8274
76.83
76.8343
76.8403
76.8488
76.8575
76.8705
76.8818
76.9
76.9131
76.9378
76.952
76.9854
76.9993
77.0445
77.0572
77.1175
77.1279
77.2142
79.595
77.0485
76.4698
76.5476
76.6673
76.7087
76.7031
76.681
76.6576
76.6364
76.6202
76.6066
76.5984
76.5913
76.5897
76.5876
76.5916
76.5934
76.6025
76.6075
76.6217
76.6294
76.6489
76.6589
76.684
76.6963
76.7273
76.7421
76.7794
76.7971
76.8404
76.864
76.9063
76.9475
76.9746
79.3539
76.8064
76.2179
76.2867
76.4006
76.4378
76.4294
76.4051
76.3807
76.3589
76.3432
76.3304
76.3237
76.3183
76.319
76.3191
76.3259
76.3303
76.3427
76.3504
76.3684
76.379
76.403
76.4157
76.4464
76.4607
76.4991
76.514
76.5619
76.5764
76.6348
76.6509
76.7143
76.7435
76.7998
79.0385
76.4929
75.9083
75.9763
76.0865
76.1193
76.1075
76.0811
76.0558
76.0341
76.0194
76.008
76.0034
76.0001
76.0036
76.0062
76.0162
76.0234
76.0393
76.0501
76.0718
76.0857
76.1136
76.13
76.1644
76.1829
76.2246
76.2443
76.2944
76.3149
76.3732
76.3967
76.4563
76.4942
76.5421
78.7526
76.2178
75.6157
75.664
75.7608
75.7854
75.7683
75.7383
75.7106
75.6876
75.6722
75.661
75.657
75.6548
75.6595
75.6639
75.6756
75.6849
75.703
75.7162
75.7405
75.7571
75.7879
75.8072
75.845
75.8663
75.9119
75.9342
75.9886
76.0111
76.0745
76.0994
76.1645
76.2036
76.258
78.3535
75.8241
75.2262
75.2706
75.3603
75.3783
75.3562
75.3234
75.2944
75.2715
75.2571
75.2477
75.2458
75.2462
75.2536
75.261
75.2757
75.2882
75.3094
75.3261
75.3537
75.3738
75.408
75.4309
75.4722
75.4971
75.5462
75.5719
75.6297
75.6554
75.7216
75.7496
75.8163
75.858
75.9128
77.928
75.4141
74.8108
74.8407
74.9169
74.9251
74.8964
74.8596
74.8284
74.8049
74.7907
74.7825
74.7821
74.7846
74.794
74.8038
74.8209
74.8362
74.86
74.8796
74.91
74.9333
74.9705
74.9966
75.0411
75.0692
75.1215
75.1503
75.2113
75.24
75.3089
75.34
75.4086
75.4537
75.5097
77.4333
74.9364
74.3302
74.3454
74.4067
74.4037
74.3676
74.3266
74.2933
74.2694
74.2558
74.249
74.2504
74.2552
74.267
74.2795
74.2992
74.3173
74.3439
74.3666
74.4
74.4264
74.4668
74.4962
74.5438
74.5751
74.6306
74.6625
74.7264
74.758
74.8294
74.8634
74.9332
74.9814
75.0369
76.8736
74.4022
73.7978
73.7989
73.8438
73.8281
73.7839
73.7386
73.7036
73.68
73.6678
73.6632
73.667
73.6747
73.6893
73.7049
73.7275
73.7488
73.7784
73.8044
73.8408
73.8706
73.914
73.9467
73.9974
74.0319
74.0904
74.1254
74.1922
74.2268
74.3005
74.3375
74.4085
74.4603
74.5155
76.3105
73.8742
73.258
73.2339
73.2578
73.2283
73.1759
73.1263
73.0894
73.0656
73.054
73.051
73.0566
73.0665
73.0832
73.1014
73.1263
73.1503
73.1824
73.2112
73.2503
73.283
73.3292
73.3649
73.4184
73.4558
73.517
73.5547
73.6241
73.6612
73.7371
73.7768
73.8487
73.9036
73.9582
75.6271
73.2227
72.6133
72.5761
72.5819
72.5381
72.4773
72.424
72.3865
72.3642
72.3551
72.3554
72.3642
72.3778
72.3979
72.4197
72.4479
72.4755
72.5108
72.5431
72.5854
72.6215
72.6708
72.7098
72.7664
72.807
72.8713
72.912
72.9841
73.024
73.1023
73.1449
73.2181
73.2765
73.3305
74.9229
72.5723
71.9387
71.8629
71.839
71.7772
71.707
71.6496
71.6108
71.5891
71.5816
71.584
71.5953
71.6116
71.6343
71.659
71.69
71.7208
71.7589
71.7945
71.8396
71.8791
71.9313
71.9736
72.0331
72.0768
72.144
72.1876
72.2627
72.3053
72.3861
72.4314
72.506
72.5679
72.6212
74.0388
71.7344
71.1042
71.0102
70.9636
70.8852
70.8067
70.7468
70.7091
70.6905
70.6869
70.6938
70.7095
70.7304
70.7572
70.7864
70.8213
70.8563
70.8982
70.9378
70.9866
71.03
71.0857
71.1318
71.1947
71.242
71.3126
71.3596
71.4379
71.4837
71.5673
71.6159
71.6922
71.7582
71.811
73.1017
70.8709
70.2025
70.0572
69.9725
69.8725
69.7844
69.7215
69.6844
69.6683
69.668
69.6789
69.6984
69.7235
69.7543
69.7876
69.8263
69.8655
69.9111
69.9549
70.0072
70.0547
70.1139
70.1639
70.2303
70.2814
70.3554
70.4059
70.4875
70.5367
70.6234
70.6754
70.7536
70.8239
70.8757
71.9317
69.7753
69.0896
68.909
68.7912
68.6713
68.5755
68.5119
68.4779
68.4667
68.472
68.4885
68.5135
68.544
68.5798
68.6183
68.6616
68.7057
68.7554
68.8039
68.8601
68.9121
68.9749
69.0293
69.0993
69.1545
69.2322
69.2866
69.3719
69.4246
69.5149
69.5704
69.6512
69.7264
69.778
70.5751
68.5118
67.7776
67.5413
67.3815
67.2389
67.1351
67.071
67.0406
67.0344
67.0457
67.0681
67.0989
67.1349
67.1758
67.2193
67.2669
67.3156
67.369
67.4219
67.4814
67.5376
67.6036
67.6622
67.7353
67.7947
67.8756
67.934
68.0229
68.0793
68.1734
68.2323
68.3163
68.3957
68.4472
68.9306
66.9873
66.1746
65.8563
65.6387
65.4688
65.357
65.293
65.2664
65.2645
65.2802
65.3059
65.3401
65.3785
65.4219
65.4673
65.517
65.5676
65.623
65.6785
65.7401
65.7997
65.868
65.9306
66.0064
66.07
66.1549
66.2156
66.3115
66.3675
66.471
66.5289
66.6219
66.7047
66.7598
66.5753
64.6699
63.8504
63.5276
63.2907
63.1055
62.9852
62.9156
62.8849
62.8785
62.891
62.9129
62.9449
62.9808
63.024
63.069
63.1205
63.1731
63.232
63.2912
63.3579
63.4223
63.4968
63.5647
63.6478
63.7176
63.8104
63.8792
63.9826
64.0481
64.1602
64.2259
64.3314
64.4171
64.4897
63.0743
61.5359
60.4584
59.9542
59.6065
59.3644
59.2165
59.1349
59.1022
59.1005
59.1234
59.1594
59.21
59.2661
59.333
59.4019
59.4804
59.5589
59.6467
59.7326
59.8302
59.9218
60.021
60.114
60.2178
60.3134
60.4237
60.5193
60.6384
60.7278
60.8559
60.9404
61.0682
61.1621
61.2772
55.4847
57.2205
56.1499
55.3635
54.7664
54.3564
54.1174
53.9913
53.9509
53.9578
54.0067
54.0724
54.1618
54.2546
54.3639
54.47
54.5902
54.7037
54.8306
54.9489
55.0804
55.2021
55.3365
55.4612
55.5975
55.7254
55.8624
55.9936
56.13
56.2626
56.4003
56.5249
56.6805
56.7683
56.9886
13.0138
11.4068
11.4193
11.5473
11.7307
11.9025
12.075
12.2276
12.3807
12.5129
12.6462
12.7595
12.8765
12.975
13.0805
13.1687
13.267
13.3485
13.4431
13.5201
13.6137
13.6871
13.7822
13.8514
13.9502
14.0131
14.1185
14.1709
14.2875
14.3227
14.4567
14.4645
14.6237
14.5887
14.7746
52.8625
51.861
51.4538
51.3864
51.4241
51.4603
51.472
51.4685
51.4558
51.4422
51.4274
51.4151
51.4032
51.3943
51.3861
51.3804
51.3757
51.3727
51.3712
51.3702
51.3719
51.3724
51.3774
51.3787
51.3876
51.3885
51.4025
51.4018
51.4225
51.4186
51.4482
51.4398
51.4812
51.4657
51.5275
52.6912
51.6999
51.2898
51.2145
51.2473
51.2785
51.2881
51.2813
51.2682
51.2519
51.2379
51.2232
51.2132
51.202
51.1965
51.1887
51.1875
51.1822
51.1851
51.1816
51.1886
51.1863
51.1973
51.1958
51.2107
51.2098
51.2285
51.2283
51.2506
51.2515
51.2766
51.2803
51.3051
51.3142
51.3388
52.4926
51.5062
51.0932
51.0129
51.0421
51.0699
51.0773
51.0679
51.0534
51.0356
51.0211
51.0059
50.9962
50.9851
50.9806
50.9732
50.9735
50.9689
50.9736
50.9709
50.9801
50.9784
50.9924
50.991
51.01
51.0081
51.0331
51.0295
51.0614
51.0555
51.0944
51.0876
51.1309
51.1267
51.175
52.2551
51.2694
50.8579
50.7774
50.8054
50.831
50.836
50.8245
50.8085
50.7896
50.7748
50.7594
50.7504
50.7398
50.7366
50.7301
50.7321
50.7286
50.7354
50.734
50.7454
50.7454
50.7616
50.7623
50.7835
50.7842
50.8107
50.8107
50.843
50.842
50.8797
50.879
50.9189
50.9212
50.9639
52.0125
51.0412
50.6274
50.5386
50.5582
50.5773
50.5771
50.5619
50.543
50.5222
50.506
50.49
50.4804
50.4699
50.4669
50.4609
50.4635
50.4607
50.4685
50.468
50.4808
50.4818
50.4996
50.5014
50.5246
50.5262
50.5553
50.5558
50.5914
50.5903
50.6321
50.6308
50.6754
50.6768
50.7253
51.7113
50.7438
50.3336
50.2446
50.2614
50.2766
50.2724
50.254
50.2326
50.2104
50.1933
50.1772
50.168
50.1582
50.1561
50.1513
50.1553
50.154
50.1633
50.1645
50.1789
50.1817
50.2014
50.205
50.2303
50.2337
50.265
50.2673
50.3052
50.3057
50.3497
50.3497
50.3964
50.3982
50.4488
51.381
50.4247
50.0166
49.923
49.9326
49.9408
49.9307
49.9079
49.8833
49.8592
49.8408
49.8243
49.815
49.8057
49.8041
49.8003
49.8051
49.805
49.8154
49.818
49.8338
49.8381
49.8593
49.8644
49.8914
49.8963
49.9295
49.9332
49.9731
49.9748
50.021
50.0221
50.0707
50.0736
50.1262
51.0014
50.0571
49.653
49.5554
49.5572
49.5575
49.5405
49.5128
49.4846
49.4584
49.4387
49.4219
49.4126
49.4039
49.403
49.4003
49.4062
49.4074
49.4192
49.4233
49.4406
49.4465
49.4695
49.4763
49.5051
49.5117
49.5469
49.5521
49.594
49.5971
49.6452
49.6476
49.6978
49.7017
49.7555
50.5805
49.6502
49.2534
49.1529
49.1467
49.138
49.1135
49.0803
49.0484
49.02
48.9993
48.9824
48.9733
48.9655
48.9655
48.9641
48.9712
48.9739
48.9871
48.9928
49.0116
49.0192
49.0438
49.0523
49.0829
49.0911
49.1281
49.1348
49.1787
49.1832
49.233
49.2368
49.2884
49.2936
49.3485
50.1474
49.2386
48.845
48.7361
48.7175
48.6978
48.6648
48.626
48.5904
48.56
48.5382
48.5212
48.5122
48.5053
48.506
48.5058
48.514
48.5182
48.5326
48.5398
48.5601
48.5693
48.5955
48.6056
48.6379
48.6476
48.6864
48.6945
48.7402
48.746
48.7975
48.8025
48.8554
48.8618
48.9177
49.6404
48.7496
48.3673
48.2573
48.2302
48.2003
48.1586
48.1138
48.0743
48.0421
48.0194
48.0027
47.9943
47.9886
47.9906
47.9919
48.0015
48.0075
48.0234
48.0325
48.0544
48.0654
48.0933
48.1051
48.1392
48.1506
48.1913
48.2009
48.2485
48.2556
48.3089
48.3152
48.3697
48.3773
48.4344
49.0986
48.2405
47.8582
47.7327
47.6866
47.641
47.5887
47.5374
47.4941
47.4603
47.437
47.4208
47.4131
47.4088
47.4119
47.415
47.426
47.4339
47.4514
47.4625
47.4861
47.4991
47.5287
47.5424
47.5784
47.5915
47.6342
47.6454
47.695
47.7035
47.7589
47.7665
47.8225
47.8315
47.8897
48.442
47.6137
47.2445
47.1163
47.0582
46.9994
46.9367
46.8787
46.8316
46.7962
46.7725
46.7571
46.7505
46.7479
46.7525
46.7578
46.7704
46.7806
46.7999
46.8132
46.8386
46.8538
46.8853
46.9012
46.9391
46.9541
46.9989
47.0118
47.0636
47.0737
47.1312
47.1403
47.1983
47.2088
47.2684
47.7238
46.9425
46.5691
46.418
46.3341
46.2552
46.1799
46.1149
46.0644
46.0281
46.0046
45.9907
45.9856
45.9852
45.9918
45.9996
46.0143
46.0272
46.0484
46.0644
46.0918
46.1096
46.1431
46.1613
46.2013
46.2186
46.2655
46.2804
46.3346
46.3464
46.4063
46.417
46.4769
46.4891
46.5502
46.8461
46.1178
45.7522
45.5886
45.4834
45.3854
45.2973
45.2249
45.1707
45.1333
45.1101
45.0973
45.0937
45.0955
45.1038
45.1141
45.1306
45.146
45.169
45.1876
45.2166
45.2369
45.272
45.2927
45.3344
45.354
45.4029
45.4198
45.4762
45.4897
45.5522
45.5644
45.6268
45.6406
45.704
45.8229
45.1592
44.7861
44.5952
44.459
44.3368
44.2341
44.1531
44.0953
44.0564
44.0336
44.0219
44.0199
44.0236
44.0336
44.0461
44.0639
44.0816
44.1056
44.1265
44.1563
44.179
44.2149
44.238
44.2807
44.3025
44.3529
44.3718
44.4303
44.4455
44.5106
44.524
44.5895
44.6041
44.6707
44.5802
44.0028
43.6092
43.3734
43.1921
43.0377
42.917
42.8254
42.7627
42.7202
42.696
42.6823
42.6793
42.6815
42.6905
42.7019
42.7188
42.7361
42.7592
42.7807
42.8099
42.8342
42.8699
42.8954
42.9383
42.9629
43.0149
43.0353
43.0976
43.1128
43.183
43.1963
43.2666
43.2832
43.3541
43.0294
42.4151
41.989
41.7318
41.5227
41.34
41.1971
41.0852
41.0073
40.9495
40.9146
40.8894
40.8794
40.8736
40.879
40.8859
40.9019
40.9179
40.9421
40.9649
40.9965
41.0239
41.0627
41.0923
41.1387
41.1685
41.2237
41.2509
41.3161
41.3389
41.4131
41.4327
41.5102
41.5298
41.6114
40.8419
40.5279
39.9108
39.4667
39.1207
38.8474
38.6502
38.5035
38.4086
38.3405
38.3062
38.2831
38.2837
38.2867
38.3082
38.3273
38.3622
38.3923
38.4366
38.4744
38.5265
38.5704
38.6256
38.6716
38.7301
38.7777
38.8413
38.8879
38.9591
39.0004
39.0799
39.1157
39.2004
39.2321
39.3267
37.8609
40.688
39.8752
38.9244
38.1248
37.5097
37.0725
36.758
36.5486
36.399
36.31
36.2462
36.2208
36.2027
36.2126
36.22
36.2507
36.2734
36.3171
36.3499
36.4021
36.4421
36.4995
36.5453
36.6059
36.6574
36.7194
36.7763
36.8389
36.8993
36.9655
37.0209
37.1045
37.1362
37.2689
14.2728
12.6909
12.7692
12.9798
13.2298
13.4479
13.6542
13.8285
13.9979
14.1396
14.281
14.3979
14.5189
14.6181
14.7253
14.8124
14.9111
14.9904
15.0847
15.1588
15.2515
15.3217
15.4155
15.4813
15.5785
15.6382
15.7416
15.7917
15.9053
15.9401
16.0689
16.0806
16.2299
16.2083
16.3768
37.6239
37.2103
36.9815
36.8882
36.8732
36.8848
36.8938
36.8962
36.8906
36.8826
36.8718
36.8617
36.851
36.8419
36.833
36.8257
36.8191
36.8133
36.8092
36.8045
36.8029
36.7988
36.7999
36.7956
36.8
36.7942
36.8028
36.7941
36.8083