/*--------------------------------*- C++ -*----------------------------------*\
  =========                 |
  \\      /  F ield         | OpenFOAM: The Open Source CFD Toolbox
   \\    /   O peration     | Website:  https://openfoam.org
    \\  /    A nd           | Version:  6
     \\/     M anipulation  |
\*---------------------------------------------------------------------------*/
FoamFile
{
    version     2.0;
    format      ascii;
    class       volScalarField;
    location    "2";
    object      yPlus;
}
// * * * * * * * * * * * * * * * * * * * * * * * * * * * * * * * * * * * * * //

dimensions      [0 0 0 0 0 0 0];

internalField   uniform 0;

boundaryField
{
    inlet
    {
        type            calculated;
        value           uniform 0;
    }
    outlet
    {
        type            calculated;
        value           uniform 0;
    }
    roughCylinder
    {
        type            calculated;
        value           nonuniform List<scalar> 
5120
(
11.0296
24.4731
38.0281
41.4024
44.1485
45.0919
45.628
45.5996
45.671
45.755
46.1766
46.4436
46.5855
46.5458
46.1941
45.321
44.4499
44.2879
43.724
42.4738
43.6378
43.8417
41.533
41.3923
42.0321
43.2729
41.5931
41.4688
40.6579
40.0043
39.5889
39.1345
19.2518
29.3625
37.4391
41.3128
44.1302
45.1819
45.7197
45.6592
45.7694
45.9354
46.3161
46.5514
46.6765
46.6469
46.2667
45.4548
44.6541
44.4692
43.9548
42.8541
43.7179
43.7168
42.6005
42.1822
42.1138
43.8408
42.3049
41.9163
41.0899
40.4782
40.0736
39.6124
12.089
23.5994
37.4503
41.234
44.0025
45.087
45.6823
45.7655
45.969
46.1494
46.5498
46.7467
46.8434
46.7443
46.3509
45.5728
44.9066
44.7533
44.209
43.218
44.1647
44.3336
42.7943
42.8275
43.0907
43.9842
42.5546
42.4039
41.6903
41.0776
40.6859
40.2584
21.48
29.239
37.0396
41.1138
44.0004
45.2413
45.8948
45.9825
46.2061
46.4397
46.7619
46.9162
46.9875
46.9048
46.5353
45.8753
45.2726
45.0749
44.5938
43.7527
44.4024
44.4195
44.0197
43.6705
43.2189
44.6993
43.3559
42.9066
42.2071
41.6718
41.3013
40.8705
7.89768
23.6883
36.7204
41.016
43.9079
45.1975
45.9197
46.1666
46.4948
46.7175
47.0602
47.1816
47.2272
47.1081
46.761
46.1427
45.6638
45.5067
45.0376
44.2586
44.9305
45.2115
44.3161
44.4428
44.2593
44.8281
43.6555
43.4907
42.8459
42.2803
41.8954
41.504
34.3811
27.9157
36.4377
40.8792
43.9151
45.3914
46.2147
46.492
46.8243
47.1003
47.3578
47.4412
47.4671
47.3633
47.0549
46.578
46.15
45.9542
45.5403
44.8943
45.3397
45.4621
45.5325
45.2124
44.4526
45.698
44.5094
44.0094
43.4105
42.96
42.6074
42.2178
20.5762
25.4342
35.9182
40.685
43.8032
45.3588
46.2738
46.7241
47.1733
47.4211
47.7156
47.7949
47.8023
47.6837
47.4202
46.9644
46.6398
46.4921
46.1037
45.4836
45.9431
46.3413
45.8383
46.003
45.5176
45.7788
44.8479
44.6862
44.0834
43.5645
43.1757
42.8272
32.6663
26.3228
35.5149
40.4943
43.7935
45.5676
46.6161
47.1108
47.5491
47.8746
48.1032
48.1478
48.1545
48.0519
47.8134
47.4991
47.2091
47.0294
46.6753
46.1753
46.4982
46.6676
46.9682
46.652
45.7871
46.8076
45.7182
45.1769
44.6561
44.2893
43.9416
43.5964
38.3
27.9426
35.054
40.1336
43.5799
45.482
46.6574
47.3494
47.9347
48.2237
48.5008
48.5782
48.5771
48.4756
48.2976
47.974
47.7639
47.6317
47.3042
46.812
47.1465
47.5619
47.2709
47.4301
46.8364
46.81
46.1033
45.948
45.3547
44.8689
44.4703
44.165
40.0506
25.4556
34.0662
39.7868
43.4914
45.6639
47.0079
47.7508
48.3059
48.7067
48.9528
48.9965
49.012
48.936
48.7587
48.5662
48.3793
48.2228
47.9168
47.541
47.8095
47.908
48.306
47.9708
47.18
47.986
46.9298
46.3418
45.8766
45.5802
45.2289
44.9246
54.7998
32.7786
34.1295
39.1998
43.0775
45.4369
46.9555
47.9341
48.6915
49.0549
49.3493
49.4611
49.4829
49.4115
49.3132
49.0911
48.9638
48.856
48.5836
48.2067
48.4622
48.7853
48.6124
48.7312
48.157
47.8567
47.359
47.1996
46.5752
46.0964
45.6848
45.4171
52.4567
29.5448
32.8686
38.6312
42.8173
45.5215
47.2593
48.2977
48.9959
49.5087
49.8177
49.8982
49.9482
49.9179
49.7945
49.6926
49.5924
49.473
49.2208
48.9572
49.1842
49.1196
49.553
49.175
48.5409
49.1464
48.0523
47.3963
46.9664
46.713
46.3493
46.0769
67.7467
38.0357
33.0958
37.7212
42.0905
45.0338
47.0108
48.3416
49.3318
49.8132
50.1626
50.3436
50.4193
50.3887
50.3623
50.2266
50.1671
50.1005
49.8945
49.6178
49.7854
49.9615
49.8459
49.9083
49.3868
48.811
48.5092
48.3181
47.6079
47.1151
46.6996
46.4649
66.1215
38.718
33.0069
36.9665
41.5349
44.9047
47.1748
48.5976
49.4899
50.1679
50.5897
50.7467
50.858
50.8935
50.827
50.7971
50.7779
50.7095
50.5206
50.3498
50.5114
50.2615
50.688
50.2416
49.7377
50.1577
48.9398
48.2092
47.8221
47.5913
47.2143
46.9662
77.5483
44.7566
33.6713
35.8595
40.3746
43.9728
46.5741
48.3792
49.7132
50.3777
50.8278
51.1166
51.2814
51.3101
51.3545
51.3048
51.3061
51.2922
51.1597
50.9534
51.0025
51.0469
50.9126
50.9057
50.3892
49.5536
49.4536
49.2073
48.3606
47.8199
47.3966
47.1864
66.973
47.2937
34.6848
34.8856
39.3676
43.4579
46.4355
48.4131
49.6117
50.5541
51.1561
51.4304
51.6312
51.7588
51.7714
51.8078
51.8663
51.8483
51.7144
51.6029
51.6742
51.2683
51.6396
51.1101
50.6437
50.9281
49.5038
48.6591
48.3073
48.0446
47.6199
47.373
76.2864
51.5269
37.0249
33.9923
37.6817
41.7785
45.2051
47.7139
49.6173
50.5952
51.235
51.6792
51.9713
52.0752
52.195
52.2424
52.2966
52.3306
52.2578
52.0768
51.9988
51.9855
51.7556
51.6736
51.109
49.9529
50.0122
49.6568
48.5393
47.8058
47.3097
47.0911
73.2053
51.8611
38.2405
33.2083
36.129
40.6799
44.4973
47.306
49.0298
50.4666
51.3937
51.8692
52.2089
52.4495
52.5644
52.6524
52.7748
52.792
52.6935
52.6173
52.6138
52.1101
52.3824
51.698
51.0464
51.2538
49.4675
48.2855
47.8547
47.3934
46.754
46.4152
72.8421
52.7711
39.8589
32.5923
33.8821
37.7018
42.0657
45.6684
48.6118
50.1492
51.1933
51.9385
52.4241
52.6694
52.8654
53.0127
53.1049
53.172
53.1377
52.9476
52.7428
52.7314
52.235
51.9874
51.3196
49.5941
49.5275
48.8835
47.0081
45.5248
44.6411
44.275
72.735
53.9149
41.5253
32.4139
31.7721
35.9575
40.3867
44.3807
46.9785
49.4411
51.0021
51.8788
52.4755
52.8775
53.1552
53.3071
53.4835
53.5024
53.393
53.3197
53.2409
52.6214
52.6958
51.6896
50.3163
50.436
47.7933
45.2897
44.2555
42.9714
41.1798
40.0991
71.6793
54.6518
43.0014
32.2601
28.9764
30.2426
35.2148
40.5579
45.7278
48.2882
50.202
51.5744
52.4444
52.9396
53.2418
53.5039
53.6194
53.6957
53.6659
53.3988
53.0443
53.0522
51.9398
51.124
50.2157
46.9037
45.6511
44.1585
38.1446
29.5106
21.7953
17.538
69.1751
54.1582
43.407
32.0165
26.0213
28.3309
31.9371
37.3514
41.2013
46.3175
49.2559
50.9486
52.0915
52.8256
53.3602
53.6001
53.8318
53.8088
53.5993
53.4984
53.3093
52.2785
51.7925
49.968
46.3291
46.13
40.1524
24.4653
8.61852
15.862
18.5737
11.9357
66.5171
53.3671
43.445
30.7907
20.5508
8.16124
10.9965
23.841
38.1973
42.7917
47.0032
49.838
51.505
52.5023
53.0203
53.4685
53.5767
53.6199
53.581
53.0503
52.2686
52.0902
49.511
46.7543
45.1989
32.9289
1.04059
19.5233
12.9623
13.3921
18.9055
18.5535
62.9379
51.5372
42.3818
29.6779
12.9962
13.0942
4.81369
8.20203
11.8686
37.3488
44.2562
47.9011
50.2464
51.6502
52.7028
53.0792
53.4034
53.2835
52.7153
52.3922
51.92
49.416
47.0659
42.5286
22.5888
10.744
20.7455
23.7127
31.4291
33.0426
32.0404
30.9299
59.8362
50.4675
41.9839
27.6082
14.9157
13.6645
12.6259
13.0723
8.3365
21.4752
37.8173
44.9216
48.4053
50.4878
51.3634
52.1984
52.2406
52.0835
51.9954
50.7736
48.3419
47.1413
39.8047
18.8508
5.92302
17.0857
34.45
36.3612
36.7492
35.9988
34.1837
31.984
54.4134
47.8686
40.7449
28.6777
6.03938
8.0388
6.53588
13.8954
5.10288
18.2651
32.8654
39.8437
44.8772
47.6829
50.0871
50.659
51.1329
50.8258
49.0541
47.5172
46.3201
36.5948
10.2446
8.78537
28.1697
36.4493
38.7574
41.818
42.664
41.0904
37.8012
34.09
48.6315
46.968
41.3085
28.3329
19.2361
13.768
12.703
11.1524
15.9345
7.17448
4.56669
30.9124
38.9043
44.4715
45.9106
47.9555
47.7695
46.5565
46.1778
43.0774
29.6963
19.4332
21.9526
32.468
37.4199
43.154
46.2787
47.8689
47.355
44.8565
40.7009
35.8433
27
39.2736
41.1756
37.67
30.1552
26.3332
23.0818
24.6877
24.5231
8.21729
4.27766
17.9105
12.2615
29.7281
42.2781
43.3371
43.9924
43.3802
35.8718
19.6601
9.04919
11.2141
34.283
40.1045
45.0735
49.3221
52.3252
53.0386
52.4042
49.8039
45.4524
40.2539
4.05013
18.2604
25.1558
27.8726
27.1244
26.3941
26.0388
24.985
25.4812
21.2131
22.0377
16.4478
16.0197
18.1163
14.6175
34.311
33.5386
21.1315
15.547
19.4468
19.969
34.3723
41.9929
46.7625
52.051
55.7258
57.8117
58.4606
56.8793
53.6235
48.7973
43.3964
6.81359
10.1221
12.4781
11.1925
10.0739
7.70761
8.8673
10.1031
18.4147
10.3485
5.59283
13.6896
17.7354
11.0969
16.9759
15.6203
16.3753
13.5476
11.9215
22.3669
35.6263
42.5873
48.3769
53.9788
58.2976
61.2049
62.7129
62.0794
60.0187
56.5301
51.6641
46.3257
8.49708
10.7918
8.18148
7.0188
14.9873
10.9066
14.8666
15.682
11.5582
19.1041
16.641
15.5864
19.7318
10.3295
7.08183
10.6881
18.5004
8.93393
24.5149
36.0702
43.0614
49.1472
55.5171
60.3551
63.7173
65.7164
66.0475
64.8956
62.0893
58.238
53.3991
48.3742
11.4585
11.1693
13.9433
16.9445
20.0834
21.7296
22.3244
20.4079
13.244
16.4725
23.1543
33.244
33.3001
24.1293
16.73
15.2268
17.3786
25.3442
35.8265
43.0193
49.4183
56.4328
62.0563
65.6786
67.9848
68.9441
68.4119
66.0469
62.3441
58.1982
53.6774
49.234
7.63572
16.9571
20.4104
23.0118
25.2184
26.8287
27.3507
26.0579
19.2908
15.9217
26.8909
32.8566
31.2886
19.2327
17.0603
10.729
27.4822
34.8067
42.4403
49.0995
56.7601
63.3077
67.3176
69.8138
71.1607
70.9892
68.9097
64.9281
60.2682
55.9975
52.1175
48.6668
9.36942
17.1523
20.8969
24.1697
26.8745
28.5522
28.7802
26.5633
18.7443
18.1862
16.1513
27.6241
28.1005
21.7373
21.8949
26.811
34.8635
40.6536
48.4864
56.3657
63.9039
68.6056
71.3826
73.0526
73.0711
71.084
66.7403
61.231
55.9538
51.8413
48.7883
46.5169
8.36321
16.9438
21.1183
24.532
27.2318
28.8273
28.8491
26.5909
18.9988
8.37342
8.41242
20.7492
24.8233
24.2571
27.7361
33.0236
39.632
46.5901
55.7288
63.584
69.3428
72.7739
74.731
74.8944
72.8246
68.4132
62.3525
55.8253
50.4528
46.7431
44.4064
43.1575
8.69117
17.3561
21.6009
24.8704
27.3223
28.6266
28.4012
26.3682
21.0621
5.59466
6.17581
13.032
22.1001
25.5325
30.8653
37.0489
44.8884
53.9196
62.8952
69.2601
73.6523
76.1061
76.5154
74.6723
70.4427
63.7016
55.35
49.6177
45.4146
41.593
39.7261
39.2124
8.24197
17.5044
21.7597
24.6882
26.7549
27.7197
27.3194
25.4041
19.3574
11.7412
4.32882
14.4987
18.8026
26.0623
33.7036
42.226
51.9669
61.2605
68.6276
73.7101
77.1726
78.4558
77.1827
72.5063
64.627
55.5025
52.4044
46.8473
37.5767
33.4631
33.7841
34.7561
9.12476
19.4393
23.7084
26.3948
28.0925
28.7061
28.0297
25.6165
19.392
9.40373
13.2887
11.2061
18.2046
28.9756
39.0448
49.312
59.1638
67.2815
73.45
77.8227
80.1439
79.1933
73.9992
65.3473
56.9295
55.8188
42.7533
20.9524
13.275
17.7904
16.1144
26.7699
10.5389
21.9955
26.4584
28.9807
30.2239
30.1631
28.5301
24.735
16.3732
10.8787
12.0208
2.65645
23.0812
34.815
45.971
56.2644
65.2037
72.1952
77.3722
80.5335
80.8368
77.3847
68.9987
60.0832
58.5728
36.5971
21.3684
11.0416
16.0905
23.432
18.2845
12.2713
11.8785
24.7671
28.9084
30.9173
31.3482
30.0798
26.8832
21.3787
12.4292
7.05839
14.3715
22.1276
32.8137
43.3836
53.5949
62.779
70.5392
76.5652
80.9292
82.8379
80.9373
71.9402
60.6224
57.9093
27.2414
17.3659
27.565
14.4437
31.803
32.6611
14.5338
6.97096
14.4483
14.6809
11.9795
6.17306
9.4745
16.7902
13.4982
54.6932
78.907
76.0145
76.9137
78.7112
70.8751
69.0601
67.7914
63.8267
63.065
61.0174
58.9872
57.5382
57.8537
59.0373
61.4979
62.5203
63.4421
68.0776
69.2111
74.7584
70.8669
74.2304
80.1306
79.5581
52.1814
11.3679
15.0073
8.41369
6.48531
12.2239
14.5778
14.195
26.8013
25.6837
19.0462
11.1925
23.5999
35.6542
37.765
60.9283
65.6323
62.1126
63.959
64.3165
62.8352
64.3186
65.3227
65.8844
67.8416
69.2992
70.2119
70.6846
70.7282
70.0992
69.2774
67.4641
65.4027
65.0601
63.9957
63.9452
62.6941
63.0672
62.443
66.4836
59.7496
37.1451
35.0594
20.6301
14.6508
19.3541
25.6207
26.5004
29.8405
26.1186
10.2358
20.1409
49.8014
43.1317
52.4547
61.2455
58.964
59.9076
60.921
63.1256
63.9091
66.8725
68.7387
70.8455
73.5803
76.1326
77.8536
78.7719
78.7373
77.7029
75.9567
73.2108
70.4564
68.3303
66.4583
63.9761
62.4845
60.6355
59.5307
59.2552
61.0447
51.3526
43.9473
49.6654
14.1557
0.878707
26.1732
29.5548
30.4037
22.4471
16.2974
36.7749
54.0987
53.8712
57.0859
59.5412
58.165
61.2821
62.4797
65.9772
67.6807
71.078
73.2678
75.8469
78.8665
81.8332
83.8512
84.9493
84.8864
83.6821
81.5968
78.4613
75.4967
72.842
70.6666
67.3942
65.5346
62.0935
60.9477
57.8995
59.6018
56.4565
54.0637
53.834
35.0782
3.77464
22.8511
30.1457
28.8494
15.2403
11.731
37.0406
57.2912
56.4647
58.7789
59.7222
60.9163
63.9603
66.1664
69.7717
71.9977
75.1612
77.4167
79.9908
83.0676
86.1796
88.2904
89.4125
89.3456
88.1107
85.9097
82.6433
79.6503
77.0121
74.7782
71.6157
69.385
65.6758
63.6338
60.4457
59.6536
58.3711
56.544
57.0911
34.6042
10.6472
16.1019
28.6007
25.3455
2.25602
16.4143
30.8385
56.418
57.5601
60.2848
61.8684
64.3998
67.2498
70.1762
73.4986
75.897
78.59
80.7337
83.0871
86.108
89.209
91.0712
92.2075
92.1399
90.9135
88.9197
85.6777
82.7537
80.3678
78.2433
75.5187
73.1398
69.6637
66.8921
63.8907
61.6631
59.8688
57.6001
55.9168
27.9374
12.6211
6.97985
25.0718
20.8714
6.51727
5.99328
16.0412
52.1823
58.3184
61.6381
64.64
67.62
70.6071
73.7442
76.6965
78.8848
81.0647
82.9957
85.1474
87.9929
90.875
92.5089
93.6446
93.5792
92.356
90.631
87.5784
84.8362
82.656
80.7509
78.5413
76.3735
73.2507
70.2334
67.1054
64.3601
61.165
58.2307
51.1954
11.5231
17.1298
8.82971
20.4211
17.201
15.2389
14.4621
7.48291
39.8804
58.8251
61.8005
67.3195
70.1385
73.6786
76.5727
79.1553
80.9119
82.5749
84.2188
86.1612
88.7572
91.376
92.8162
93.9343
93.8729
92.6646
91.1652
88.3732
85.8806
83.9168
82.3148
80.6218
78.8951
76.1461
73.3161
69.6623
66.9596
61.3917
58.2273
38.808
21.0523
14.8377
16.2158
16.3563
15.7888
18.7714
7.31638
19.9685
8.08139
55.9172
61.0863
68.9551
71.9072
76.1412
78.453
80.7347
81.9245
83.0881
84.4446
86.1106
88.4874
90.929
92.2044
93.3269
93.2677
92.0483
90.7428
88.1412
85.8649
84.1796
82.8956
81.709
80.5622
78.1159
75.7951
71.5399
68.3779
61.1248
53.4818
19.0113
14.1723
16.9557
19.8004
15.3845
18.2851
23.0035
21.2143
17.1448
24.2695
39.7117
61.3278
67.8834
73.4676
77.2382
79.4227
81.2748
81.8524
82.6427
83.7177
85.0071
87.3579
89.7752
91.0026
92.2206
92.1573
90.8291
89.5838
87.0382
84.8111
83.4667
82.4751
81.7164
81.1572
79.244
76.9142
73.211
67.2834
60.9797
36.8766
14.3489
17.3297
22.4799
23.775
18.6843
22.7537
28.1773
28.8432
13.6959
24.0629
32.0176
56.1839
65.2393
73.5094
76.6309
79.3587
80.4133
80.6417
81.1418
81.8941
83.0534
85.668
88.3427
89.8227
91.3148
91.2356
89.6163
88.055
85.3315
82.8392
81.7824
81.0503
80.6124
80.3829
79.2982
76.4569
73.1747
65.0012
54.6388
30.8099
24.7911
18.6661
29.6554
28.7252
23.1045
29.6567
34.6152
36.2386
35.5972
26.1826
15.9755
32.3191
62.5054
69.6337
75.0093
77.5204
78.1566
78.3039
78.4692
78.9437
80.7441
84.0754
87.5657
89.7508
91.7296
91.6251
89.484
87.1612
83.6714
80.4364
78.8868
78.412
78.3326
78.2233
77.5155
75.0307
69.1911
62.3022
28.705
27.1527
26.8176
36.0157
36.9619
35.2432
30.0843
38.8531
42.8298
43.9258
40.6929
35.8877
20.3378
24.8243
50.0096
63.7298
71.3296
73.5081
74.5354
74.3192
74.4679
75.7558
79.2479
83.9901
88.7906
91.8838
94.3787
94.2553
91.5589
88.2915
83.4695
78.8046
75.5414
74.5129
74.4122
74.6957
73.6088
71.267
63.7003
48.6507
32.2052
15.0465
37.0406
41.5024
44.5061
43.3422
39.2053
48.3959
51.3787
52.1004
50.46
46.0883
34.7991
22.6767
30.9851
56.3221
63.1527
67.7525
68.3219
68.8294
70.2937
74.2483
80.001
86.2917
92.0808
95.768
98.5656
98.4384
95.4186
91.5516
85.6971
79.4323
73.8226
70.1389
68.9525
68.5124
67.9135
63.2258
55.367
20.7212
24.5067
36.3127
46.5512
51.1408
52.5113
51.7941
48.658
57.6389
59.6464
60.0219
58.6726
53.9278
51.0437
31.544
23.6102
29.5861
53.3646
57.4056
60.4789
63.0682
68.3876
75.2851
82.7035
89.7061
95.7356
99.6899
102.615
102.491
99.3133
95.3071
89.1589
82.1249
74.7434
67.9914
62.9181
60.6244
57.4894
53.5115
26.316
16.6166
33.2122
51.3919
54.3831
59.1302
60.3237
60.0066
57.8402
65.9102
67.1501
67.1999
64.9973
63.2854
55.9041
53.9164
32.7311
24.8525
25.7268
44.9899
50.6116
59.3082
68.7545
77.6512
85.7335
92.751
98.5663
102.787
105.808
105.683
102.41
98.1601
92.2442
85.1896
77.1108
68.2256
58.8997
50.3105
44.9273
23.9961
24.8372
34.3496
53.8121
56.6677
63.3218
65.4765
67.3566
67.4724
66.0761
72.8905
73.5879
72.448
71.1254
67.431
64.4484
57.5022
53.5799
36.7907
9.12004
19.3165
37.2382
57.0207
69.858
80.0045
88.2794
95.0514
100.447
104.989
108.089
107.962
104.619
100.052
94.5771
87.7888
79.4976
69.3699
56.404
36.6775
17.8805
24.4986
37.0231
53.7118
57.6599
64.771
67.5331
71.4144
72.5979
73.8059
73.0581
78.2664
77.5557
76.2941
73.6845
70.6516
66.926
62.1767
56.8284
51.409
35.6526
14.8626
21.0576
54.9809
70.9688
82.0846
90.2429
96.6026
101.473
106.24
109.355
109.229
105.884
101.077
96.1926
89.8188
81.6537
70.51
54.4876
17.7462
16.2892
36.0944
51.549
56.9281
62.2577
67.0565
70.7505
73.8192
76.4302
77.6781
78.4751
81.2515
79.4003
77.3956
72.8707
70.5134
64.3826
62.9528
55.0823
54.7904
44.5895
17.8284
17.8994
51.2943
72.8601
83.7078
91.7045
97.234
101.886
106.471
109.472
109.356
106.141
101.522
96.8661
91.3394
83.3204
72.5139
50.761
13.3862
14.6526
45.2506
54.6808
55.094
62.9653
64.2656
70.607
72.8415
77.5022
79.353
81.558
80.8393
77.9198
73.6226
67.8284
63.0389
58.1268
52.1344
53.3504
46.6182
55.2786
28.8376
12.3892
57.2861
75.6797
85.7221
92.4682
97.1331
101.212
105.378
108.019
107.923
105.101
100.89
96.8151
92.1511
85.4158
75.3681
57.1333
25.3216
33.4981
54.5166
47.4153
52.5617
52.2722
57.5531
63.0126
67.6973
73.7238
77.5582
81.2564
75.2842
71.8376
63.0554
54.8376
44.5126
35.2524
24.1147
20.1281
37.7612
32.4098
12.9983
49.5201
69.9193
80.3673
87.5832
92.2525
95.8094
99.2002
102.628
104.72
104.65
102.421
98.9437
95.5354
92.0093
87.3307
80.2184
69.6965
50.4309
11.7928
29.7999
38.0394
20.0636
22.8659
34.5844
43.5702
54.4604
63.2758
71.3135
75.5333
67.9268
58.3071
43.9692
28.0157
22.3852
29.2856
41.3564
38.4375
44.3697
47.9485
59.7168
71.5358
78.3483
84.2888
87.898
90.8253
93.1897
95.8631
98.3473
99.8532
99.809
98.2137
95.6779
92.9879
90.612
87.7064
84.1295
78.2056
71.4663
60.1423
47.8423
44.3129
38.3312
40.969
29.5974
22.3121
28.133
43.4566
58.6204
67.4591
61.3737
23.096
27.7773
14.0444
25.5806
43.5708
50.301
55.4958
61.4266
66.9983
73.1123
77.5699
81.0966
83.7321
85.5688
87.379
89.1828
91.1082
92.8432
93.8714
93.849
92.7724
90.9972
89.0448
87.2207
85.4039
83.5686
80.9511
77.4167
73.0604
66.9136
61.3759
55.3728
50.2703
43.2431
26.5783
21.7463
28.1993
21.3225
62.0437
29.3077
29.6924
40.7872
46.3971
45.0967
48.4701
53.7737
58.2773
62.9136
66.8154
70.4126
73.1546
75.5232
77.3241
78.8909
80.4996
82.0982
83.6824
85.0179
85.7949
85.7953
85.0137
83.669
82.0728
80.4605
78.8422
77.2731
75.4792
73.1174
70.401
66.8305
62.9668
58.3904
53.9283
48.7864
45.3854
46.7309
40.8455
29.6776
29.7522
10.6431
29.8187
52.0551
55.8871
58.9399
59.6649
60.9813
62.0554
63.476
64.8219
66.272
67.6315
69.0518
70.4882
72.0147
73.6182
75.1946
76.4052
77.2818
77.7855
77.8061
77.3431
76.4874
75.3343
73.7825
72.1916
70.6636
69.2353
67.8178
66.4701
65.0204
63.6921
62.259
61.1977
59.8334
59.1008
55.9071
52.1458
29.0723
10.4173
17.7079
49.1032
57.5514
63.5873
66.503
68.9264
70.2304
71.3196
71.9552
72.5576
73.0968
73.7435
74.4951
75.3213
76.1671
76.9168
77.4551
77.9482
78.3017
78.4676
78.4888
78.366
78.0436
77.5782
77.0495
76.3363
75.5007
74.6701
73.9073
73.2606
72.7119
72.1021
71.445
70.3447
69.002
66.5791
63.6006
57.524
49.0265
28.3869
34.9603
55.9691
60.9373
66.8374
69.4486
72.3358
73.8656
75.446
76.3754
77.3434
78.0087
78.6596
79.077
79.548
79.991
80.4252
80.8078
81.103
81.2792
81.3123
81.3204
81.3029
81.1399
80.8563
80.4817
80.0523
79.6127
79.141
78.7361
78.0847
77.4225
76.4425
75.5193
73.9072
72.3967
69.4337
66.8872
60.7834
55.9619
34.0355
52.5048
58.2718
65.4334
68.8144
71.9445
73.8691
75.4784
76.5785
77.4376
78.0597
78.4222
78.4633
78.5891
78.753
78.9737
79.1708
79.3609
79.4918
79.5585
79.538
79.5409
79.5653
79.5021
79.3744
79.1866
78.9913
78.7714
78.6067
78.4862
78.4399
78.0766
77.442
76.5836
75.4567
73.8527
71.8605
68.7871
65.1698
58.3954
51.1217
57.4399
61.5387
69.032
71.8755
75.385
77.1809
78.9974
80.0721
81.0272
81.6248
81.985
81.9206
81.5744
81.5915
81.4763
81.4843
81.4409
81.4291
81.3922
81.3433
81.3479
81.4037
81.4414
81.4508
81.4938
81.4771
81.5921
81.5624
81.9252
81.9647
81.6008
80.9738
80.0408
78.8962
77.1527
75.1903
71.8684
68.6546
61.5625
56.7604
57.3346
61.7925
69.1509
72.4853
76.1099
78.3791
80.4412
81.9454
83.208
84.2203
84.9735
85.4214
85.3387
85.1518
85.1354
85.0642
85.0355
84.9904
84.9448
84.8898
84.8932
84.9528
84.9976
85.0432
85.0677
85.1447
85.1482
85.3563
85.4084
84.9436
84.1812
83.1594
81.8893
80.3736
78.2862
76.0113
72.3077
69.0211
61.3526
57.2998
50.9862
57.5363
64.0578
68.755
72.0106
74.9245
76.9674
78.8199
80.1928
81.43
82.3888
83.1194
83.4762
83.2538
83.2238
83.1664
83.1424
83.0986
83.0485
82.9843
82.9857
83.0491
83.098
83.1404
83.1678
83.2184
83.273
83.4602
83.0928
82.3459
81.3935
80.1299
78.7795
76.8665
74.863
71.8477
68.6251
63.8244
57.0576
50.9871
32.9123
50.9807
55.9869
62.1194
65.7644
68.8202
71.257
73.092
74.6977
75.9006
76.9641
77.7157
78.1972
78.2094
77.9733
77.9719
77.8996
77.857
77.7954
77.7284
77.7288
77.7922
77.8514
77.8893
77.9657
77.9559
78.217
78.1709
77.6687
76.9068
75.8231
74.617
72.9835
71.1212
68.6702
65.4859
61.9575
55.2341
51.0563
29.8805
2.92778
24.4226
37.6843
41.0587
43.8082
44.8919
45.6056
45.7805
45.9194
45.857
45.9214
45.8778
46.0232
46.0473
45.6802
45.2605
44.8228
43.4815
43.6958
42.6372
41.9612
42.5715
43.0665
43.5179
42.806
42.5404
41.934
41.3903
40.4228
40.0478
39.5452
39.1819
14.7921
28.8966
37.0755
40.9749
43.7735
44.9672
45.6855
45.8184
45.9924
46.0342
46.105
46.064
46.2008
46.1997
45.8228
45.4933
45.0636
43.8515
44.0787
42.9952
42.3034
42.827
44.0023
44.1085
42.7882
43.2262
42.6196
41.8584
40.8993
40.5454
40.0561
39.6682
7.20313
25.9241
37.1369
40.9079
43.6607
44.8564
45.6039
45.87
46.149
46.2226
46.3455
46.3129
46.424
46.3336
45.9855
45.6989
45.3677
44.3609
44.4542
43.3621
43.0737
43.6419
43.9719
44.5298
43.623
43.427
42.8682
42.3764
41.5189
41.135
40.6488
40.3003
17.4944
26.8531
36.7533
40.8414
43.6835
45.0145
45.8095
46.0571
46.3406
46.4859
46.5834
46.537
46.6204
46.5385
46.2439
46.0705
45.7724
44.9001
44.8927
43.8638
43.6353
43.9023
44.9916
45.141
43.6628
44.2658
43.6263
42.8876
42.0768
41.7422
41.2859
40.9175
15.1285
27.6445
36.6224
40.793
43.6412
44.9924
45.8152
46.1971
46.5907
46.7366
46.8751
46.831
46.8917
46.7785
46.5535
46.4032
46.2116
45.5294
45.3537
44.3371
44.4487
44.7056
45.0596
45.6791
44.5874
44.45
43.9265
43.5009
42.7439
42.3378
41.869
41.5387
20.1257
25.1409
36.2948
40.719
43.7088
45.2204
46.1351
46.5233
46.8912
47.0928
47.1866
47.1231
47.163
47.0831
46.9226
46.8906
46.7279
46.1248
45.8185
44.9024
45.0798
44.9874
46.1208
46.2509
44.7173
45.4282
44.7288
44.0121
43.3398
43.0182
42.5954
42.252
34.7795
26.7082
35.8389
40.6076
43.6622
45.2382
46.2043
46.7336
47.2206
47.3999
47.5333
47.4868
47.515
47.434
47.3515
47.3071
47.2291
46.7565
46.3203
45.4244
45.8413
45.8116
46.2647
46.8465
45.7018
45.5475
45.0795
44.7188
44.0434
43.6108
43.1606
42.852
41.3294
29.6146
35.7817
40.4599
43.7131
45.4893
46.5884
47.1485
47.5882
47.832
47.9261
47.8568
47.8814
47.8383
47.7895
47.8542
47.7843
47.3332
46.8032
46.0338
46.4799
46.14
47.3091
47.3556
45.942
46.6537
45.8898
45.1844
44.6345
44.3251
43.9304
43.6139
34.9799
24.4373
34.6124
40.1569
43.5664
45.4646
46.6552
47.3738
47.9627
48.1775
48.3144
48.2879
48.3112
48.2729
48.2926
48.306
48.2881
47.9219
47.3389
46.6034
47.1722
47.0112
47.5071
47.9841
46.9479
46.6744
46.3016
45.9877
45.3612
44.8973
44.4621
44.1765
53.3818
32.8099
35.018
39.8818
43.5165
45.6712
47.0365
47.8103
48.3366
48.6428
48.7679
48.7183
48.7508
48.7506
48.7614
48.868
48.8427
48.4719
47.8626
47.2765
47.8211
47.3878
48.4987
48.4378
47.2939
47.8921
47.0543
46.3399
45.8902
45.5906
45.2133
44.9228
48.4022
28.3765
33.582
39.2899
43.1571
45.5034
47.0116
47.9733
48.7051
48.9919
49.1616
49.1864
49.2307
49.2255
49.301
49.3325
49.3327
49.032
48.4487
47.9055
48.46
48.3008
48.7334
49.0808
48.2555
47.772
47.5254
47.2332
46.6103
46.1044
45.677
45.4127
64.4061
35.7977
33.6526
38.7563
42.9117
45.5836
47.3186
48.3652
49.0181
49.4293
49.6341
49.6408
49.7026
49.7421
49.7739
49.8857
49.8822
49.5806
49.0333
48.6447
49.1311
48.6903
49.6471
49.4775
48.6605
49.0704
48.1248
47.3758
47.001
46.6989
46.3227
46.0545
64.6504
37.5688
33.485
37.9217
42.2241
45.1465
47.091
48.3711
49.3171
49.7373
49.985
50.0985
50.1942
50.217
50.3194
50.3558
50.3603
50.1302
49.6611
49.306
49.7136
49.6085
49.8913
50.1117
49.5024
48.7528
48.6406
48.3355
47.6531
47.1022
46.6858
46.4443
76.3573
42.6633
33.5036
37.1034
41.6614
44.9824
47.2313
48.6504
49.5003
50.078
50.4201
50.5287
50.6472
50.7344
50.7799
50.8833
50.9019
50.6833
50.2824
50.0658
50.3982
49.9612
50.71
50.4275
49.8777
50.0776
48.9514
48.1693
47.8669
47.5563
47.1733
46.9239
71.2894
45.8407
34.484
36.0303
40.5073
44.0955
46.6414
48.3733
49.6523
50.2887
50.6729
50.9164
51.1015
51.1684
51.2947
51.348
51.3623
51.2162
50.9086
50.6964
50.8921
50.8373
50.9114
51.0053
50.5259
49.52
49.5417
49.2021
48.3959
47.7827
47.3709
47.1487
66.7212
49.1917
36.2983
35.2798
39.5232
43.5136
46.4621
48.4316
49.6068
50.4611
51.0101
51.2649
51.4715
51.631
51.7165
51.8199
51.8719
51.7423
51.4983
51.3978
51.5526
51.0864
51.6108
51.2163
50.801
50.839
49.4443
48.6065
48.3478
47.9881
47.5623
47.3097
67.7282
50.2027
37.3814
34.1759
37.7692
41.8866
45.2322
47.6553
49.5028
50.4904
51.1076
51.5274
51.8405
51.973
52.1378
52.2372
52.2738
52.2109
52.0486
51.9078
51.8963
51.8855
51.7346
51.7095
51.245
49.945
50.0394
49.6213
48.5317
47.7333
47.2644
47.0309
73.2643
53.3429
39.7828
33.7478
36.3211
40.6723
44.4694
47.2815
49.0024
50.3694
51.2714
51.7551
52.1021
52.3568
52.5168
52.6262
52.7176
52.6639
52.5383
52.5035
52.5288
52.0058
52.321
51.7462
51.1977
51.1619
49.321
48.2289
47.8612
47.3033
46.6745
46.3206
69.9453
53.1351
41.164
33.2044
33.9143
37.7953
42.0434
45.536
48.4364
50.028
51.0868
51.8289
52.334
52.6052
52.8192
52.9857
53.05
53.0584
53.0022
52.8706
52.6732
52.689
52.2203
51.9997
51.4181
49.6086
49.4571
48.8062
46.89
45.3855
44.5575
44.1712
70.2645
53.4312
42.2026
33.0892
32.116
35.8204
40.2451
44.3136
46.9305
49.3245
50.8903
51.8
52.4114
52.811
53.116
53.2635
53.4028
53.3902
53.3055
53.2781
53.2057
52.5376
52.6127
51.6743
50.4448
50.3495
47.4938
45.2242
44.1421
42.799
41.0345
39.895
70.9908
54.5724
43.5943
32.842
28.9017
30.3492
35.1512
40.2728
45.4418
48.1365
50.0974
51.4828
52.3737
52.8987
53.2015
53.4641
53.5604
53.6187
53.6131
53.3997
52.9863
53.0019
51.9535
51.157
50.2379
46.908
45.4884
44.0163
37.6428
28.9444
21.4015
16.7732
69.7318
54.759
44.2689
32.7312
26.235
27.9375
31.4362
37.2489
41.1365
46.1427
49.1202
50.8779
52.044
52.7619
53.3186
53.5458
53.7478
53.7231
53.5535
53.463
53.2847
52.1248
51.6803
49.8389
46.4351
46.0097
38.9595
24.0036
21.7317
15.8662
16.1069
12.0233
67.3771
54.3563
44.608
31.9524
21.7815
5.64472
9.44789
22.3329
37.5182
42.524
46.8544
49.7116
51.4136
52.4617
52.9672
53.4147
53.5296
53.5943
53.5932
53.0917
52.1384
51.9711
49.5666
46.7849
45.1024
32.8048
18.3777
17.0836
17.9664
13.8789
20.6854
18.9466
63.6535
52.5025
43.4297
30.2825
6.96634
4.95059
12.7697
7.57333
11.1534
36.9282
43.9862
47.807
50.1798
51.5452
52.6403
53.014
53.3199
53.2047
52.6402
52.2275
51.806
49.0113
46.8659
42.3305
22.6853
7.16542
9.98881
23.4745
31.4961
33.1449
31.1656
30.941
60.2631
51.2581
42.9741
28.5783
10.7739
9.23289
7.93014
13.368
8.20189
19.9072
37.5687
44.6044
48.2187
50.4208
51.266
52.1114
52.2016
52.0994
52.041
50.8252
47.9752
46.9751
39.9392
15.9201
7.61536
17.2973
34.4868
36.4273
36.7875
36.0531
34.5745
32.0819
54.5298
48.3248
41.3373
29.0657
10.6196
6.08095
7.58343
13.9057
14.2414
10.9841
31.9298
39.8364
44.7096
47.4325
49.969
50.5846
51.0433
50.7076
48.8029
46.8892
45.9576
35.2306
22.4487
21.422
29.0958
36.1708
38.8159
41.8662
42.7129
41.1796
37.6798
34.1544
48.1896
47.1588
41.8836
29.1216
15.7178
13.6202
8.73549
12.3317
13.1287
6.93208
8.43143
28.5918
38.2787
44.3228
45.6797
47.7598
47.6999
46.5636
46.2069
43.3414
27.9943
7.08426
21.3028
32.3091
37.6609
43.1223
46.2987
47.9117
47.3846
44.9255
40.8088
36.0071
25.5465
38.577
40.9027
37.7504
31.1795
27.0862
24.1032
25.0566
26.0832
11.1995
16.0704
17.1804
16.1905
27.9788
41.9598
43.2833
43.8701
43.139
35.2671
14.3268
13.307
11.5279
34.2522
40.2044
45.0815
49.3868
52.2797
53.0706
52.4158
49.8874
45.5103
40.4094
11.9204
17.1679
24.1491
27.0029
26.603
25.7469
25.5336
24.418
24.8643
20.6168
21.8601
16.657
5.94862
9.92816
10.8447
33.5062
33.2661
20.661
5.28732
9.73011
19.5952
34.2474
42.0876
46.7517
52.1023
55.7453
57.8065
58.4551
56.8569
53.625
48.8131
43.506
9.21554
11.2342
8.78079
8.07663
3.93007
7.52411
8.76433
10.7541
18.5573
11.6682
17.8605
17.3013
14.334
16.7353
15.6559
5.15423
8.18912
13.9122
11.3931
22.5984
35.4981
42.516
48.4188
53.9605
58.3241
61.2001
62.6861
62.0127
59.9639
56.5021
51.6481
46.409
9.90858
8.59683
8.91754
10.9694
4.16254
12.1592
15.7129
16.7997
12.9346
3.61586
1.68621
14.9328
20.8668
10.9388
16.7445
11.1876
12.8959
9.69599
24.4668
35.9441
42.9493
49.1489
55.4749
60.3575
63.7012
65.693
66.0124
64.7998
61.9852
58.1485
53.3286
48.3985
5.38898
11.5148
14.7362
17.6737
20.4842
22.1525
22.855
21.2061
16.1498
13.42
23.6907
33.7208
34.104
25.1156
3.51463
11.3965
14.9533
25.1317
35.8501
42.8457
49.3575
56.4046
62.0061
65.6529
67.936
68.9037
68.3409
65.9052
62.1746
58.0502
53.5448
49.1919
7.71317
17.0344
20.4192
23.0464
25.3656
27.0754
27.7278
26.6377
19.9238
16.2855
25.4607
32.7755
32.075
20.0072
20.7967
13.2006
27.3727
34.7039
42.3989
48.9462
56.7298
63.2426
67.2787
69.7441
71.107
70.9139
68.7946
64.7293
60.0271
55.7964
51.9136
48.5387
9.12019
16.9262
20.7407
24.0503
26.8052
28.5595
28.9077
26.9154
19.6795
12.1461
13.0339
27.2849
28.368
22.0391
20.9463
26.847
34.816
40.5434
48.3937
56.2609
63.8477
68.5267
71.3333
72.9681
73.0047
70.959
66.5729
60.9834
55.6641
51.6158
48.5246
46.3048
8.47134
17.0285
21.1885
24.5743
27.2792
28.9155
29.0378
27.0075
20.3612
16.0735
6.98949
19.9395
24.9056
24.2409
27.4623
32.8568
39.5815
46.4773
55.6402
63.514
69.282
72.7235
74.6794
74.8167
72.7119
68.254
62.1987
55.5321