/*--------------------------------*- C++ -*----------------------------------*\
  =========                 |
  \\      /  F ield         | OpenFOAM: The Open Source CFD Toolbox
   \\    /   O peration     | Website:  https://openfoam.org
    \\  /    A nd           | Version:  6
     \\/     M anipulation  |
\*---------------------------------------------------------------------------*/
FoamFile
{
    version     2.0;
    format      ascii;
    class       volScalarField;
    location    "1.4";
    object      omega;
}
// * * * * * * * * * * * * * * * * * * * * * * * * * * * * * * * * * * * * * //

dimensions      [0 0 -1 0 0 0 0];

internalField   nonuniform List<scalar> 
380496
(
843.917
843.917
843.917
843.917
843.917
843.917
843.917
843.917
843.917
843.917
843.917
843.917
843.917
843.917
843.917
843.917
843.917
843.917
843.917
843.917
843.917
843.917
843.917
843.917
843.917
843.917
843.917
843.917
843.917
843.917
843.917
843.917
843.917
843.917
843.917
843.917
843.917
843.917
843.917
843.917
843.917
843.917
843.917
843.917
843.917
843.917
843.917
843.917
843.917
843.917
843.917
843.917
843.917
843.917
843.917
843.917
843.917
843.917
843.917
843.917
843.917
843.917
843.917
843.917
843.917
843.917
843.917
843.917
843.917
843.917
843.917
843.917
843.917
843.917
843.917
843.917
843.917
843.917
843.917
843.917
843.917
843.917
843.917
843.917
843.917
843.917
843.917
843.917
843.917
843.917
843.917
843.917
843.917
843.917
843.917
843.917
843.917
843.917
843.917
843.917
843.917
843.917
843.917
843.917
843.917
843.917
843.917
843.917
843.917
843.917
843.917
843.917
843.917
843.917
843.917
843.917
843.917
843.917
843.917
843.917
843.917
843.917
843.917
843.917
843.917
843.917
843.917
843.917
843.917
843.917
843.917
843.917
843.917
843.917
843.917
843.917
843.917
843.917
843.917
843.917
843.917
843.917
843.917
843.917
843.917
843.917
843.917
843.917
843.917
843.917
843.917
843.917
843.917
843.917
843.917
843.917
843.917
843.917
843.917
843.917
843.917
843.917
843.917
843.917
843.917
843.917
843.917
843.917
843.917
843.917
843.917
843.917
843.917
843.917
843.917
843.917
843.917
843.917
843.917
843.917
843.917
843.917
843.917
843.917
843.917
843.917
843.917
843.917
843.917
843.917
843.917
843.917
843.917
843.917
843.917
843.917
843.917
843.917
843.917
843.917
843.917
843.917
843.917
843.917
843.917
843.917
843.917
843.917
843.917
843.917
843.917
843.917
843.917
843.917
843.917
843.917
843.917
843.917
843.917
843.917
843.917
843.917
843.917
843.917
843.917
843.917
843.917
843.917
843.917
843.917
843.917
843.917
843.917
843.917
843.917
843.917
843.917
843.917
843.917
843.917
843.917
843.917
843.917
843.917
843.917
843.917
843.917
843.917
843.917
843.917
843.917
843.917
843.917
843.917
843.917
843.917
843.917
843.917
843.917
843.917
843.917
843.917
843.917
843.917
843.917
843.917
843.917
843.917
843.917
843.917
843.917
843.917
843.917
843.917
843.917
843.917
843.917
843.917
843.917
843.917
843.917
843.917
843.917
843.917
843.917
843.917
843.917
843.917
843.917
843.917
843.917
843.917
843.917
843.917
843.917
843.917
843.917
843.917
843.917
843.917
843.917
843.917
843.917
843.917
843.917
843.917
843.917
843.917
843.917
843.917
843.917
843.917
843.917
843.917
843.917
843.917
843.917
843.917
843.917
843.917
843.917
843.917
843.917
843.917
843.917
843.917
843.917
843.917
843.917
843.917
843.917
843.917
843.917
843.917
843.917
843.917
843.917
843.917
843.917
843.917
843.917
843.917
843.917
843.917
843.917
843.917
843.917
843.917
843.917
843.917
843.917
843.917
843.917
843.917
843.917
843.917
843.917
843.917
843.917
843.917
843.917
843.917
843.917
843.917
843.917
843.917
843.917
843.917
843.917
843.917
843.917
843.917
843.917
843.917
843.917
843.917
843.917
843.917
843.917
843.917
843.917
843.917
843.917
843.917
843.917
843.917
843.917
843.917
843.917
843.917
843.917
843.917
843.917
843.917
843.917
843.917
843.917
843.917
843.917
843.917
843.917
843.917
843.917
843.917
843.917
843.917
843.917
843.917
843.917
843.917
843.917
843.917
843.917
843.917
843.917
843.917
843.917
843.917
843.917
843.917
843.917
843.917
843.917
843.917
843.917
843.917
843.917
843.917
843.917
843.917
843.917
843.917
843.917
843.917
843.917
843.917
843.917
843.917
843.917
843.917
843.917
843.917
843.917
843.917
843.917
843.917
843.917
843.917
843.917
843.917
843.917
843.917
843.917
843.917
843.917
843.917
843.917
843.917
843.917
843.917
843.917
843.917
843.917
843.917
843.917
843.917
843.917
843.917
843.917
843.917
843.917
843.917
843.917
843.917
843.917
843.917
843.917
843.917
843.917
843.917
843.917
843.917
843.917
843.917
843.917
843.917
843.917
843.917
843.917
843.917
843.917
843.917
843.917
843.917
843.917
843.917
843.917
843.917
843.917
843.917
843.917
843.917
843.917
843.917
843.917
843.917
843.917
843.917
843.917
843.917
843.917
843.917
843.917
843.917
843.917
843.917
843.917
843.917
843.917
843.917
843.917
843.917
843.917
843.917
843.917
843.917
843.917
843.917
843.917
843.917
843.917
843.917
843.917
843.917
843.917
843.917
843.917
843.917
843.917
843.917
843.917
843.917
843.917
843.917
843.917
843.917
843.917
843.917
843.917
843.917
843.917
843.917
843.917
843.917
843.917
843.917
843.917
843.917
843.917
843.917
843.917
843.917
843.917
843.917
843.917
843.917
843.917
843.917
843.917
843.917
843.917
843.917
843.917
843.917
843.917
843.917
843.917
843.917
843.917
843.917
843.917
843.917
843.917
843.917
843.917
843.917
843.917
843.917
843.917
843.917
843.917
843.917
843.917
843.917
843.917
843.917
843.917
843.917
843.917
843.917
843.917
843.917
843.917
843.917
843.917
843.917
843.917
843.917
843.917
843.917
843.917
843.917
843.917
843.917
843.917
843.917
843.917
843.917
843.917
843.917
843.917
843.917
843.917
843.917
843.917
843.917
843.917
843.917
843.917
843.917
843.917
843.917
843.917
843.917
843.917
843.917
843.917
843.917
843.917
843.917
843.917
843.917
843.917
843.917
843.917
843.917
843.917
843.917
843.917
843.917
843.917
843.917
843.917
843.917
843.917
843.917
843.917
843.917
843.917
843.917
843.917
843.917
843.917
843.917
843.917
843.917
843.917
843.917
843.917
843.917
843.917
843.917
843.917
843.917
843.917
843.917
843.917
843.917
843.917
843.917
843.917
843.917
843.917
843.917
843.917
843.917
843.917
843.917
843.917
843.917
843.917
843.917
843.917
843.917
843.917
843.917
843.917
843.917
843.917
843.917
423.923
424.261
424.542
424.799
424.908
424.927
424.935
424.984
424.977
425.03
425.04
424.99
424.956
424.968
425.008
425.05
425.08
425.097
425.106
425.113
425.121
425.13
425.138
425.151
425.158
425.171
425.183
425.191
425.206
425.213
425.236
425.226
425.255
425.224
425.266
275.627
262.12
263.717
264.696
264.72
264.54
264.383
264.2
264.056
263.979
263.933
263.922
263.959
264.02
264.065
264.082
264.08
264.077
264.081
264.099
264.123
264.155
264.188
264.222
264.256
264.292
264.333
264.373
264.424
264.477
264.534
264.602
264.658
264.751
264.779
275.366
261.938
263.435
264.342
264.31
264.117
263.987
263.885
263.818
263.789
263.774
263.778
263.813
263.865
263.911
263.937
263.947
263.95
263.954
263.966
263.985
264.013
264.047
264.095
264.125
264.197
264.22
264.299
264.333
264.414
264.454
264.548
264.578
264.726
264.641
274.93
261.597
263.051
263.963
263.97
263.763
263.527
263.262
263.048
262.931
262.887
262.899
262.953
263.021
263.077
263.114
263.14
263.17
263.21
263.26
263.313
263.366
263.416
263.467
263.509
263.576
263.615
263.701
263.752
263.85
263.916
264.028
264.083
264.248
264.205
274.245
261.084
262.577
263.421
263.358
263.121
262.924
262.722
262.59
262.55
262.552
262.589
262.667
262.763
262.841
262.889
262.916
262.936
262.961
262.997
263.038
263.088
263.143
263.198
263.256
263.322
263.378
263.456
263.521
263.601
263.683
263.771
263.841
263.97
263.97
273.773
260.706
262.043
262.817
262.735
262.531
262.399
262.31
262.274
262.293
262.339
262.404
262.485
262.574
262.651
262.707
262.745
262.77
262.792
262.82
262.856
262.908
262.973
263.039
263.122
263.198
263.279
263.367
263.444
263.543
263.621
263.738
263.793
263.978
263.908
272.904
260.021
261.359
262.089
261.966
261.688
261.461
261.248
261.125
261.104
261.134
261.201
261.306
261.42
261.516
261.583
261.631
261.671
261.713
261.765
261.824
261.894
261.968
262.052
262.127
262.231
262.301
262.414
262.498
262.614
262.702
262.838
262.9
263.101
263.01
272.045
259.305
260.526
261.205
261.09
260.841
260.642
260.471
260.404
260.447
260.541
260.661
260.798
260.928
261.029
261.098
261.149
261.193
261.241
261.298
261.362
261.435
261.511
261.599
261.673
261.786
261.85
261.973
262.052
262.175
262.259
262.405
262.463
262.686
262.577
271.013
258.457
259.581
260.18
259.992
259.635
259.305
259.011
258.868
258.88
258.972
259.107
259.264
259.411
259.526
259.612
259.679
259.743
259.81
259.884
259.962
260.047
260.134
260.226
260.316
260.42
260.512
260.628
260.726
260.86
260.955
261.107
261.176
261.401
261.292
269.787
257.408
258.426
258.976
258.805
258.489
258.219
258.004
257.965
258.082
258.256
258.446
258.635
258.796
258.911
258.991
259.054
259.116
259.184
259.261
259.343
259.433
259.524
259.62
259.716
259.821
259.921
260.033
260.138
260.27
260.361
260.525
260.583
260.834
260.71
268.638
256.422
257.267
257.718
257.442
256.983
256.557
256.236
256.149
256.258
256.448
256.66
256.861
257.028
257.152
257.248
257.332
257.417
257.506
257.599
257.69
257.785
257.878
257.975
258.072
258.19
258.285
258.423
258.528
258.674
258.784
258.949
259.019
259.271
259.14
267.059
255.037
255.79
256.2
255.934
255.507
255.158
254.951
255.022
255.275
255.56
255.825
256.054
256.227
256.344
256.427
256.501
256.582
256.671
256.768
256.864
256.965
257.063
257.166
257.268
257.386
257.489
257.619
257.734
257.87
257.982
258.149
258.214
258.489
258.342
265.636
253.754
254.243
254.527
254.113
253.503
252.991
252.72
252.792
253.069
253.387
253.672
253.901
254.071
254.194
254.295
254.395
254.502
254.613
254.721
254.82
254.918
255.012
255.113
255.219
255.343
255.453
255.602
255.716
255.879
255.991
256.173
256.245
256.514
256.372
263.556
251.884
252.246
252.476
252.048
251.483
251.131
251.097
251.43
251.901
252.316
252.64
252.881
253.045
253.154
253.239
253.326
253.423
253.528
253.637
253.741
253.847
253.952
254.063
254.176
254.304
254.42
254.563
254.688
254.835
254.959
255.13
255.208
255.491
255.343
261.604
250.05
250.069
250.135
249.498
248.741
248.3
248.305
248.714
249.243
249.687
250.012
250.238
250.393
250.506
250.611
250.727
250.852
250.975
251.088
251.188
251.287
251.387
251.499
251.62
251.756
251.884
252.046
252.172
252.347
252.468
252.66
252.741
253.021
252.878
258.886
247.524
247.283
247.238
246.55
245.934
245.872
246.329
247.112
247.847
248.358
248.684
248.894
249.034
249.137
249.229
249.323
249.423
249.528
249.637
249.747
249.866
249.987
250.117
250.251
250.393
250.527
250.683
250.818
250.978
251.113
251.289
251.383
251.67
251.524
255.849
244.628
243.978
243.699
242.751
242.057
242.119
242.781
243.726
244.51
245.003
245.298
245.484
245.61
245.719
245.836
245.964
246.089
246.204
246.309
246.411
246.524
246.646
246.784
246.932
247.087
247.238
247.41
247.554
247.741
247.871
248.076
248.169
248.461
248.32
252.219
241.07
239.794
239.248
238.311
238.133
238.996
240.332
241.639
242.547
243.032
243.263
243.403
243.531
243.658
243.762
243.835
243.897
243.978
244.091
244.234
244.396
244.559
244.724
244.886
245.045
245.203
245.37
245.525
245.699
245.845
246.041
246.142
246.454
246.256
246.413
235.832
234.086
233.187
232.106
232.101
233.133
234.513
235.805
236.629
237.043
237.244
237.362
237.482
237.648
237.838
238.003
238.115
238.188
238.261
238.364
238.507
238.674
238.861
239.049
239.237
239.423
239.621
239.797
240.008
240.165
240.402
240.508
240.86
240.634
238.327
228.417
225.417
223.681
221.843
221.778
223.248
224.946
226.146
226.749
227.022
227.092
227.12
227.302
227.69
228.134
228.437
228.523
228.471
228.409
228.427
228.542
228.715
228.934
229.151
229.368
229.596
229.822
230.04
230.272
230.485
230.732
230.906
231.216
231.213
220.532
214.461
210.721
209.449
210.171
213.331
216.509
218.528
219.459
219.805
219.933
220.018
220.156
220.294
220.438
220.577
220.702
220.832
220.985
221.163
221.358
221.565
221.769
221.99
222.202
222.421
222.649
222.874
223.098
223.32
223.55
223.757
223.955
224.044
224.181
9.97507
9.99972
10.4933
10.7869
10.8639
10.8493
10.8403
10.9363
10.8969
11.0046
11.0313
10.9278
10.8515
10.8718
10.9483
11.0247
11.0752
11.1011
11.1136
11.1225
11.1313
11.1439
11.1522
11.1714
11.1776
11.1946
11.2134
11.2179
11.2415
11.2432
11.2889
11.2546
11.3122
11.2404
11.3256
133.583
127.192
127.111
127.767
128.023
128.008
127.9
127.745
127.604
127.517
127.467
127.445
127.46
127.504
127.549
127.573
127.576
127.569
127.563
127.566
127.577
127.594
127.613
127.635
127.656
127.679
127.703
127.73
127.76
127.795
127.833
127.876
127.919
127.976
128.018
133.304
126.931
126.81
127.42
127.637
127.613
127.531
127.437
127.36
127.313
127.287
127.278
127.295
127.333
127.373
127.4
127.409
127.407
127.403
127.402
127.411
127.424
127.449
127.474
127.507
127.539
127.578
127.608
127.656
127.688
127.744
127.78
127.84
127.904
127.924
132.931
126.567
126.433
127.066
127.325
127.296
127.134
126.91
126.711
126.587
126.529
126.52
126.549
126.598
126.644
126.675
126.694
126.71
126.731
126.759
126.791
126.822
126.853
126.879
126.908
126.936
126.971
127.005
127.052
127.092
127.152
127.201
127.263
127.334
127.367
132.428
126.103
125.99
126.592
126.804
126.751
126.612
126.435
126.296
126.231
126.212
126.223
126.272
126.346
126.416
126.461
126.482
126.49
126.496
126.509
126.53
126.557
126.59
126.622
126.659
126.696
126.735
126.776
126.82
126.866
126.916
126.973
127.013
127.094
127.098
132.005
125.717
125.536
126.075
126.255
126.217
126.132
126.045
125.987
125.973
125.988
126.023
126.077
126.144
126.208
126.254
126.28
126.291
126.295
126.303
126.318
126.347
126.385
126.43
126.482
126.534
126.588
126.64
126.698
126.751
126.815
126.873
126.937
127.021
127.054
131.379
125.14
124.989
125.539
125.713
125.628
125.464
125.274
125.136
125.078
125.071
125.099
125.164
125.249
125.328
125.384
125.416
125.434
125.451
125.472
125.502
125.538
125.583
125.629
125.679
125.731
125.785
125.837
125.899
125.955
126.021
126.084
126.142
126.23
126.232
130.735
124.538
124.332
124.833
124.994
124.916
124.764
124.596
124.491
124.477
124.519
124.59
124.685
124.786
124.871
124.928
124.961
124.982
125.002
125.027
125.06
125.099
125.147
125.194
125.247
125.3
125.356
125.411
125.476
125.532
125.601
125.667
125.73
125.83
125.845
129.986
123.866
123.661
124.151
124.28
124.129
123.872
123.598
123.419
123.368
123.397
123.471
123.575
123.684
123.776
123.841
123.886
123.92
123.953
123.99
124.032
124.078
124.128
124.177
124.229
124.282
124.339
124.395
124.459
124.521
124.589
124.658
124.713
124.813
124.8
129.138
123.07
122.808
123.241
123.35
123.203
122.968
122.736
122.622
122.646
122.74
122.863
123
123.128
123.226
123.288
123.327
123.356
123.386
123.424
123.468
123.517
123.57
123.623
123.679
123.736
123.796
123.854
123.921
123.983
124.053
124.124
124.186
124.294
124.304
128.317
122.34
122.056
122.466
122.525
122.278
121.922
121.594
121.43
121.436
121.534
121.667
121.808
121.932
122.027
122.096
122.149
122.197
122.247
122.298
122.349
122.399
122.45
122.499
122.553
122.608
122.668
122.729
122.798
122.864
122.937
123.012
123.068
123.176
123.156
127.283
121.365
121.025
121.375
121.394
121.125
120.783
120.51
120.445
120.559
120.736
120.92
121.093
121.235
121.334
121.395
121.437
121.476
121.521
121.571
121.624
121.678
121.733
121.787
121.845
121.904
121.966
122.029
122.099
122.166
122.24
122.315
122.377
122.492
122.495
126.286
120.481
120.078
120.384
120.318
119.916
119.441
119.101
119.023
119.148
119.347
119.543
119.711
119.839
119.929
119.996
120.058
120.122
120.188
120.251
120.308
120.358
120.406
120.453
120.507
120.565
120.629
120.695
120.769
120.84
120.917
120.996
121.053
121.168
121.142
124.968
119.245
118.762
118.975
118.818
118.364
117.934
117.725
117.828
118.109
118.399
118.64
118.831
118.969
119.059
119.118
119.165
119.215
119.27
119.328
119.384
119.439
119.495
119.551
119.611
119.675
119.742
119.811
119.885
119.957
120.034
120.113
120.175
120.297
120.292
123.658
118.072
117.483
117.615
117.316
116.706
116.186
115.986
116.141
116.468
116.783
117.025
117.199
117.315
117.394
117.46
117.529
117.605
117.681
117.746
117.8
117.848
117.895
117.945
118.005
118.069
118.141
118.214
118.293
118.37
118.451
118.534
118.594
118.715
118.685
121.959
116.505
115.753
115.702
115.217
114.555
114.195
114.285
114.726
115.239
115.631
115.89
116.063
116.182
116.265
116.326
116.378
116.428
116.48
116.534
116.589
116.649
116.711
116.776
116.847
116.92
116.994
117.071
117.15
117.228
117.307
117.392
117.455
117.584
117.57
120.025
114.765
113.863
113.658
112.957
112.175
111.861
112.084
112.652
113.222
113.617
113.856
114.002
114.095
114.166
114.236
114.312
114.387
114.453
114.508
114.557
114.608
114.665
114.731
114.805
114.882
114.963
115.045
115.131
115.214
115.299
115.388
115.45
115.581
115.544
117.738
112.707
111.41
110.794
109.793
109.089
109.199
109.907
110.791
111.499
111.914
112.116
112.232
112.337
112.437
112.514
112.555
112.575
112.598
112.642
112.709
112.792
112.88
112.969
113.056
113.141
113.225
113.311
113.398
113.484
113.57
113.662
113.727
113.872
113.827
114.096
109.607
108.181
107.251
105.921
105.137
105.288
106.012
106.894
107.568
107.946
108.12
108.199
108.27
108.378
108.516
108.639
108.713
108.742
108.753
108.778
108.831
108.908
109
109.099
109.196
109.296
109.393
109.497
109.59
109.697
109.791
109.876
110.019
109.984
108.715
105.425
103.495
101.885
99.7215
98.5419
98.9037
99.9586
100.929
101.531
101.831
101.892
101.843
101.873
102.087
102.413
102.683
102.79
102.754
102.668
102.617
102.632
102.698
102.8
102.91
103.018
103.131
103.242
103.355
103.463
103.582
103.691
103.793
103.933
103.942
95.6239
98.3406
95.0919
92.0318
90.1848
91.1838
93.2685
94.9399
95.8511
96.2427
96.3718
96.4239
96.5134
96.6052
96.6983
96.7945
96.8736
96.9326
96.9865
97.0511
97.1313
97.2252
97.3235
97.4308
97.5346
97.6414
97.747
97.8591
97.964
98.0734
98.1854
98.2717
98.4025
98.3635
98.543
12.0364
12.0569
12.5429
12.7838
12.8326
12.8044
12.7805
12.8764
12.8333
12.9388
12.9756
12.8774
12.7954
12.808
12.8809
12.9577
13.0101
13.0375
13.0506
13.0592
13.0672
13.0791
13.0862
13.1048
13.1104
13.1253
13.1448
13.1474
13.1712
13.1682
13.2175
13.18
13.2407
13.1664
13.2519
79.3709
76.7321
76.2109
76.4457
76.6924
76.7895
76.7701
76.6799
76.5721
76.4903
76.4386
76.4096
76.4074
76.4313
76.4655
76.4911
76.5
76.4955
76.4869
76.4803
76.4797
76.4839
76.4912
76.5009
76.5094
76.5203
76.529
76.5416
76.553
76.5676
76.585
76.6014
76.624
76.6419
76.6731
79.1276
76.5127
75.9834
76.1884
76.3997
76.4779
76.4692
76.4165
76.353
76.3026
76.269
76.2505
76.2519
76.2731
76.3031
76.3274
76.3387
76.3371
76.33
76.3213
76.3197
76.3189
76.3323
76.3369
76.3634
76.366
76.4008
76.401
76.4395
76.4395
76.483
76.4836
76.5278
76.5429
76.5765
78.8406
76.2269
75.6982
75.9354
76.197
76.2926
76.2394
76.0968
75.9403
75.8254
75.7615
75.7378
75.7452
75.7725
75.8041
75.8277
75.8416
75.85
75.8601
75.8725
75.8893
75.9032
75.9204
75.928
75.9463
75.9481
75.9736
75.975
76.0083
76.0131
76.0538
76.0611
76.1075
76.1199
76.1648
78.4911
75.8878
75.3725
75.5927
75.818
75.8874
75.8377
75.7219
75.604
75.5289
75.4936
75.4863
75.5077
75.5534
75.6054
75.6452
75.6657
75.6707
75.6699
75.6694
75.6748
75.6844
75.6995
75.715
75.7348
75.7504
75.7729
75.7896
75.8125
75.8346
75.8563
75.885
75.9028
75.9402
75.9446
78.1468
75.5753
75.0356
75.2045
75.3892
75.4539
75.4385
75.384
75.3273
75.2937
75.2849
75.2954
75.3242
75.3677
75.4147
75.452
75.4729
75.4777
75.4741
75.469
75.4696
75.4792
75.4962
75.5212
75.5488
75.577
75.6099
75.6333
75.6713
75.6897
75.7341
75.7508
75.8001
75.8235
75.8738
77.7066
75.1501
74.6457
74.8544
75.0608
75.1065
75.0349
74.9044
74.7812
74.7069
74.6765
74.6778
74.7091
74.7625
74.8199
74.8644
74.8904
74.9012
74.9061
74.9102
74.9212
74.935
74.959
74.9785
75.0109
75.0292
75.0664
75.0839
75.1237
75.1423
75.1864
75.2041
75.2491
75.27
75.3043
77.2351
74.6973
74.1651
74.3316
74.5137
74.5518
74.4785
74.3524
74.2442
74.1952
74.1972
74.2313
74.2888
74.3584
74.4231
74.4695
74.4955
74.5067
74.5132
74.5196
74.5336
74.549
74.5764
74.5958
74.6334
74.65
74.6941
74.7096
74.7561
74.7731
74.8236
74.842
74.8936
74.924
74.9719
76.6905
74.1942
73.7008
73.8997
74.0856
74.0805
73.9285
73.7172
73.5446
73.4596
73.4472
73.4796
73.5403
73.6131
73.6804
73.7311
73.7647
73.7861
73.8033
73.8199
73.8405
73.862
73.8881
73.9116
73.9411
73.9631
73.9977
74.0181
74.0592
74.0792
74.126
74.1472
74.1908
74.2171
74.2477
76.0933
73.6161
73.0891
73.2345
73.3837
73.3611
73.2066
73.0097
72.8714
72.8342
72.8696
72.9417
73.0321
73.1248
73.2018
73.2536
73.2829
73.2987
73.3117
73.3263
73.3472
73.3709
73.3994
73.4273
73.4591
73.4865
73.5225
73.5473
73.5911
73.6106
73.6652
73.6826
73.7378
73.7683
73.817
75.4874
73.0719
72.5853
72.7622
72.9023
72.8161
72.57
72.2937
72.109
72.0542
72.0897
72.1676
72.2589
72.3454
72.4156
72.4671
72.5055
72.5367
72.5663
72.5941
72.6225
72.6474
72.6746
72.6963
72.7269
72.7465
72.7852
72.8054
72.8505
72.8731
72.9231
72.946
72.9943
73.0216
73.0539
74.7749
72.383
71.862
71.9804
72.0632
71.9292
71.6602
71.3987
71.2679
71.2849
71.3829
71.505
71.6273
71.7344
71.8142
71.8651
71.8961
71.9182
71.9407
71.965
71.9931
72.0204
72.0507
72.0772
72.1101
72.136
72.1744
72.2011
72.2452
72.2706
72.3244
72.3446
72.404
72.4313
72.4855
74.0323
71.7308
71.244
71.3812
71.4262
71.1977
70.8257
70.5015
70.3539
70.3793
70.4935
70.6262
70.7444
70.8365
70.9027
70.9519
70.995
71.0376
71.0803
71.1183
71.1515
71.1766
71.201
71.2204
71.2489
71.2694
71.3098
71.3315
71.3818
71.404
71.4602
71.4829
71.5345
71.5638
71.5962
73.1233
70.8736
70.3447
70.3948
70.328
70.0067
69.6118
69.3464
69.3115
69.4515
69.6448
69.8211
69.9644
70.0726
70.1469
70.1947
70.2283
70.2576
70.2881
70.3183
70.3491
70.3765
70.4058
70.4323
70.4655
70.494
70.5347
70.5653
70.6109
70.6418
70.6943
70.721
70.777
70.8112
70.8576
72.1514
70.0309
69.5256
69.5641
69.4088
68.9657
68.4914
68.2208
68.2245
68.405
68.6231
68.8041
68.9333
69.0188
69.076
69.1224
69.1704
69.2216
69.2713
69.312
69.3437
69.3656
69.3876
69.4075
69.4376
69.463
69.5072
69.5333
69.5876
69.6129
69.6721
69.6971
69.7507
69.7823
69.8155
70.951
68.9531
68.3769
68.2502
67.8815
67.3031
66.8574
66.75
66.9536
67.2856
67.5811
67.7878
67.9244
68.0184
68.0858
68.135
68.1724
68.2028
68.2307
68.2571
68.2853
68.3131
68.3455
68.3776
68.4162
68.4515
68.4968
68.5321
68.5812
68.6165
68.6696
68.7014
68.756
68.7942
68.8372
69.5313
67.7369
67.1741
66.9739
66.442
65.7471
65.3099
65.2956
65.5994
65.9909
66.302
66.4975
66.6096
66.6755
66.7239
66.772
66.8243
66.8754
66.9188
66.9505
66.976
66.9977
67.0251
67.0545
67.0931
67.129
67.1784
67.2107
67.2698
67.2975
67.3613
67.3886
67.4441
67.4809
67.513
67.8267
66.3087
65.5801
65.0217
64.1163
63.2931
63.0225
63.3103
63.8608
64.3829
64.7304
64.9101
65.0043
65.0816
65.1598
65.2232
65.2581
65.2688
65.2735
65.2866
65.316
65.3563
65.405
65.4538
65.503
65.5508
65.5995
65.6425
65.6981
65.7343
65.7983
65.8288
65.8902
65.9303
65.9749
65.2662
64.1643
63.4926
62.7178
61.4883
60.5014
60.2116
60.5136
61.0658
61.5747
61.9053
62.0611
62.1136
62.1466
62.2135
62.3149
62.4137
62.4753
62.4939
62.4883
62.4848
62.4975
62.5301
62.5745
62.6283
62.6783
62.7388
62.7794
62.8522
62.8814
62.9658
62.9857
63.0688
63.0941
63.1586
61.394
61.3024
60.6278
59.4208
57.5085
56.075
55.846
56.4048
57.0991
57.6151
57.9001
57.9654
57.9021
57.8682
57.9716
58.1917
58.4096
58.5232
58.5196
58.4539
58.3941
58.3715
58.3903
58.4349
58.4903
58.5467
58.6064
58.6574
58.7244
58.7662
58.8463
58.8779
58.9612
58.9919
59.0627
53.4826
57.9291
56.2347
53.2379
50.7087
50.4524
51.5789
52.7495
53.4687
53.8186
53.9354
53.9661
54.027
54.0976
54.1653
54.2316
54.2817
54.3088
54.3229
54.3385
54.3675
54.4066
54.4563
54.5103
54.5631
54.6203
54.6717
54.7292
54.7824
54.8356
54.9035
54.9251
55.0349
54.9632
55.1294
13.6152
13.6818
14.2003
14.4356
14.4881
14.4567
14.4127
14.4999
14.4542
14.5506
14.6002
14.5156
14.43
14.4306
14.4954
14.5714
14.6273
14.6589
14.6748
14.6847
14.6928
14.7051
14.7117
14.7305
14.7372
14.7502
14.7717
14.7736
14.7996
14.7918
14.8459
14.8075
14.8727
14.7987
14.8838
52.7828
51.7504
51.3094
51.3035
51.4441
51.5625
51.5999
51.5672
51.4985
51.4294
51.379
51.3485
51.3373
51.3447
51.3641
51.3838
51.3954
51.3962
51.3915
51.3841
51.3797
51.3781
51.3786
51.3821
51.384
51.3889
51.39
51.3951
51.3987
51.4013
51.4102
51.4104
51.4251
51.4203
51.4459
52.5861
51.5708
51.134
51.111
51.2232
51.3181
51.355
51.3425
51.3026
51.2578
51.2219
51.1991
51.1915
51.1992
51.2169
51.2353
51.247
51.2485
51.2444
51.2345
51.2304
51.2216
51.2307
51.221
51.2459
51.2316
51.2628
51.2488
51.28
51.265
51.299
51.2838
51.3163
51.3074
51.34
52.3671
51.3485
50.9143
50.923
51.0868
51.2135
51.2332
51.1624
51.0534
50.9552
50.8909
50.8599
50.8541
50.8646
50.8817
50.8969
50.9074
50.9135
50.9201
50.9258
50.9356
50.9407
50.9519
50.9486
50.964
50.9511
50.9724
50.9579
50.9825
50.9701
50.9997
50.9856
51.0221
51.0064
51.0476
52.1138
51.0992
50.6742
50.6735
50.8097
50.9123
50.9241
50.8655
50.7799
50.707
50.663
50.6455
50.6501
50.6725
50.7043
50.7336
50.7532
50.7606
50.7614
50.7581
50.7576
50.7589
50.7646
50.7698
50.7815
50.7848
50.7987
50.8036
50.8141
50.8241
50.8328
50.8434
50.8534
50.8636
50.8723
51.8435
50.8483
50.4153
50.3769
50.474
50.5595
50.5901
50.5724
50.5314
50.4928
50.4702
50.4655
50.477
50.5018
50.533
50.5609
50.5786
50.5832
50.5792
50.5707
50.5644
50.5651
50.5692
50.5822
50.597
50.61
50.6325
50.6385
50.6662
50.6658
50.6987
50.6932
50.7323
50.7256
50.7726
51.5218
50.5292
50.1262
50.1359
50.2704
50.3599
50.3546
50.2819
50.1879
50.1117
50.0684
50.0549
50.0653
50.093
50.1281
50.16
50.1822
50.1926
50.1964
50.195
50.1983
50.2
50.2135
50.2168
50.2409
50.2406
50.2679
50.2682
50.2951
50.2938
50.3264
50.3194
50.357
50.3439
50.3862
51.1691
50.1843
49.7638
49.739
49.8475
49.9228
49.909
49.8309
49.7387
49.6743
49.6509
49.6606
49.6921
49.7353
49.7793
49.8144
49.8366
49.8461
49.8499
49.8491
49.8549
49.857
49.8751
49.8762
49.9077
49.9032
49.9392
49.9361
49.9706
49.9672
50.0061
50.0011
50.042
50.0393
50.0888
50.7624
49.7969
49.4198
49.4469
49.5837
49.6416
49.5719
49.4262
49.2785
49.1804
49.1425
49.1488
49.1807
49.224
49.2677
49.3046
49.3321
49.3498
49.3626
49.3708
49.3814
49.3901
49.4039
49.4127
49.4311
49.4356
49.4592
49.4601
49.4896
49.4871
49.5216
49.5176
49.555
49.5441
49.5868
50.3232
49.3658
48.9652
48.9475
49.0449
49.0767
48.991
48.8424
48.7079
48.6367
48.6315
48.6687
48.7259
48.7877
48.8426
48.8832
48.9087
48.9217
48.9297
48.9349
48.9445
48.9546
48.9698
48.983
49.0022
49.0129
49.0369
49.0418
49.0759
49.0704
49.1154
49.107
49.1528
49.1489
49.1994
49.8647
48.941
48.5953
48.6368
48.7571
48.7556
48.6036
48.3895
48.2125
48.1243
48.1181
48.1591
48.2165
48.2725
48.3199
48.3575
48.3877
48.4119
48.4336
48.4505
48.4679
48.4794
48.4951
48.501
48.5215
48.5211
48.5488
48.5481
48.5794
48.5786
48.6168
48.6106
48.6546
48.6425
48.6889
49.3432
48.4336
48.066
48.0603
48.1238
48.0678
47.8738
47.6485
47.4938
47.4486
47.4882
47.5664
47.651
47.7261
47.7848
47.8258
47.8526
47.87
47.8848
47.8971
47.9128
47.9253
47.9426
47.9533
47.9742
47.9816
48.0071
48.0143
48.0455
48.0459
48.0913
48.0806
48.136
48.123
48.1843
48.774
47.9212
47.6184
47.6697
47.7352
47.618
47.3448
47.0625
46.8877
46.8487
46.9029
46.9907
47.0734
47.1366
47.1821
47.2176
47.2505
47.2825
47.3141
47.3395
47.3616
47.3739
47.3872
47.3913
47.4087
47.408
47.4371
47.4349
47.4723
47.4682
47.5129
47.5054
47.5528
47.5409
47.5893
48.1017
47.2895
46.9708
46.9581
46.9209
46.7013
46.3673
46.0943
45.9817
46.0207
46.1387
46.267
46.3732
46.452
46.5076
46.5465
46.5752
46.5978
46.6186
46.6357
46.6535
46.666
46.6818
46.6919
46.7115
46.7204
46.7465
46.7571
46.7873
46.794
46.8361
46.8321
46.8832
46.8774
46.9305
47.3502
46.6316
46.3878
46.4151
46.3375
46.0269
45.6235
45.3354
45.2492
45.3252
45.4693
45.6055
45.7025
45.7624
45.8008
45.8335
45.8693
45.9077
45.945
45.973
45.9941
46.0038
46.0143
46.0181
46.035
46.0375
46.0689
46.0693
46.1098
46.1073
46.1547
46.1482
46.1979
46.1862
46.2369
46.4399
45.8261
45.5741
45.4884
45.2193
44.7457
44.2921
44.0764
44.1184
44.3094
44.5239
44.6896
44.7965
44.8648
44.9142
44.954
44.9861
45.0106
45.0299
45.0437
45.0582
45.0692
45.0855
45.099
45.1213
45.1352
45.1646
45.1784
45.2106
45.2213
45.2626
45.2631
45.3134
45.3084
45.3624
45.342
44.8917
44.732
44.6449
44.2675
43.6886
43.2187
43.0658
43.1887
43.4378
43.6763
43.839
43.9266
43.9696
43.9988
44.0316
44.0709
44.1101
44.1429
44.1641
44.1793
44.1872
44.1999
44.2103
44.2317
44.2431
44.2776
44.2822
44.3271
44.3249
44.3765
44.3714
44.422
44.4124
44.466
44.0045
43.7962
43.62
43.2879
42.5628
41.7651
41.3015
41.3066
41.6032
41.9637
42.2448
42.4047
42.4809
42.5315
42.5853
42.6373
42.6725
42.686
42.6874
42.6874
42.6972
42.7134
42.7386
42.7649
42.7928
42.8188
42.8492
42.8684
42.9072
42.9149
42.9671
42.9645
43.022
43.0113
43.0811
42.2218
42.258
42.2051
41.7559
40.767
39.7993
39.2982
39.3323
39.6456
40.0056
40.2814
40.4255
40.4646
40.4684
40.496
40.5618
40.6399
40.697
40.719
40.7146
40.7035
40.6986
40.7082
40.7268
40.7544
40.7778
40.8161
40.827
40.8782
40.8774
40.9404
40.9292
40.9978
40.9778
41.0546
39.5454
40.2406
40.3906
39.7455
38.2811
36.9419
36.4392
36.6561
37.1141
37.5195
37.7721
37.847
37.7944
37.7309
37.7573
37.8886
38.0523
38.1629
38.1881
38.1515
38.103
38.0689
38.0648
38.0797
38.1044
38.132
38.1642
38.1828
38.2236
38.2317
38.2859
38.2815
38.3473
38.3293
38.4095
35.6654
39.6158
38.7548
36.3011
33.8816
33.036
33.5182
34.2867
34.8221
35.1109
35.2157
35.2354
35.2747
35.3321
35.3877
35.4366
35.4675
35.4758
35.47
35.462
35.4656
35.4769
35.5005
35.528
35.5537
35.5858
35.6112
35.6406
35.6683
35.6913
35.7372
35.7305
35.8148
35.7539
35.869
14.9336
15.0794
15.6389
15.8894
15.9649
15.9409
15.8767
15.9486
15.9018
15.9834
16.0454
15.9814
15.8964
15.883
15.9355
16.0079
16.067
16.1039
16.1242
16.1365
16.1456
16.1586
16.1653
16.1842
16.1932
16.2042
16.2284
16.2299
16.2598
16.2467
16.3057
16.2673
16.3377
16.2668
16.3496
37.6293
37.2306
36.9633
36.8724
36.9143
37.0044
37.0611
37.0663
37.0324
36.9807
36.9349
36.9057
36.8916
36.8889
36.895
36.905
36.9144
36.9186
36.9191
36.9153
36.9118
36.9091
36.9071
36.9078
36.9068
36.9091
36.9075
36.9082
36.9102
36.9061