/*--------------------------------*- C++ -*----------------------------------*\
  =========                 |
  \\      /  F ield         | OpenFOAM: The Open Source CFD Toolbox
   \\    /   O peration     | Website:  https://openfoam.org
    \\  /    A nd           | Version:  6
     \\/     M anipulation  |
\*---------------------------------------------------------------------------*/
FoamFile
{
    version     2.0;
    format      ascii;
    class       volScalarField;
    location    "1.4";
    object      p;
}
// * * * * * * * * * * * * * * * * * * * * * * * * * * * * * * * * * * * * * //

dimensions      [0 2 -2 0 0 0 0];

internalField   nonuniform List<scalar> 
380496
(
0.0124719
0.0128522
0.0125977
0.0125347
0.0124881
0.012435
0.0123838
0.0123308
0.0122767
0.0122221
0.0121668
0.01211
0.0120506
0.0119881
0.0119227
0.0118548
0.0117848
0.0117131
0.0116396
0.0115642
0.0114865
0.0114064
0.0113232
0.0112365
0.0111458
0.0110503
0.0109499
0.0108436
0.0107313
0.0106117
0.0104861
0.0103507
0.0102128
0.0100567
0.00991606
0.0124407
0.0128131
0.0125732
0.0125176
0.0124766
0.0124273
0.0123777
0.0123249
0.0122699
0.0122135
0.0121558
0.0120958
0.0120326
0.0119657
0.0118953
0.011822
0.0117463
0.0116682
0.0115882
0.0115056
0.0114209
0.0113329
0.011242
0.0111472
0.0110483
0.0109448
0.0108363
0.0107222
0.0106024
0.0104756
0.0103439
0.0102012
0.010062
0.00989216
0.00977607
0.0124045
0.0127718
0.012545
0.0124961
0.0124597
0.0124136
0.0123659
0.0123139
0.0122588
0.0122015
0.0121418
0.012079
0.0120121
0.0119406
0.0118647
0.0117851
0.0117025
0.0116169
0.0115288
0.0114377
0.0113441
0.011247
0.0111467
0.0110423
0.0109336
0.0108201
0.0107017
0.0105775
0.0104481
0.0103115
0.0101709
0.0100188
0.00987135
0.00969119
0.0095588
0.0123598
0.0127276
0.012518
0.0124793
0.0124501
0.0124084
0.0123626
0.0123108
0.0122547
0.0121954
0.0121332
0.0120672
0.0119964
0.0119202
0.0118393
0.0117542
0.0116658
0.0115742
0.0114798
0.0113822
0.0112817
0.0111776
0.0110702
0.0109585
0.0108426
0.0107221
0.0105966
0.0104657
0.0103298
0.010187
0.0100405
0.00988247
0.00972789
0.00954227
0.00939034
0.0123166
0.0126782
0.0124882
0.0124588
0.0124358
0.0123982
0.0123545
0.0123037
0.0122477
0.0121877
0.0121239
0.0120552
0.0119808
0.0119003
0.0118142
0.0117233
0.0116285
0.0115303
0.0114288
0.0113242
0.0112164
0.011105
0.0109901
0.0108709
0.0107476
0.0106195
0.0104869
0.0103489
0.0102067
0.010058
0.00990729
0.00974524
0.00959402
0.00940672
0.00929021
0.0122593
0.0126268
0.0124605
0.012444
0.0124296
0.0123969
0.0123556
0.0123054
0.0122487
0.0121871
0.0121207
0.0120486
0.0119698
0.0118842
0.0117927
0.0116962
0.0115957
0.0114916
0.0113842
0.0112733
0.0111595
0.0110418
0.0109206
0.0107953
0.0106659
0.0105319
0.0103935
0.0102501
0.0101027
0.0099489
0.00979332
0.00962549
0.00946725
0.00926888
0.00913337
0.0121972
0.0125701
0.0124293
0.0124249
0.0124185
0.0123907
0.0123521
0.0123035
0.0122472
0.0121849
0.0121167
0.0120418
0.0119593
0.0118693
0.0117729
0.0116711
0.011565
0.011455
0.0113417
0.0112248
0.0111051
0.0109815
0.0108546
0.0107236
0.0105886
0.0104493
0.0103059
0.0101578
0.0100062
0.00984887
0.00969117
0.00952212
0.00936801
0.00917278
0.009062
0.0121237
0.0125128
0.0124037
0.012415
0.0124185
0.0123956
0.0123593
0.0123115
0.0122549
0.0121909
0.0121199
0.0120409
0.0119534
0.0118579
0.0117559
0.0116487
0.0115373
0.011422
0.0113034
0.0111814
0.0110564
0.0109277
0.0107957
0.0106597
0.0105199
0.0103759
0.0102282
0.010076
0.00992063
0.00975957
0.00959814
0.00942472
0.00926382
0.00906037
0.00892758
0.0120376
0.0124532
0.0123753
0.0124012
0.0124136
0.0123953
0.0123619
0.0123158
0.0122596
0.0121949
0.0121218
0.0120397
0.0119483
0.0118485
0.0117421
0.0116302
0.0115141
0.0113941
0.0112709
0.0111443
0.0110148
0.0108819
0.0107458
0.0106059
0.0104624
0.0103149
0.010164
0.0100088
0.00985099
0.00968799
0.00952572
0.00935237
0.00919562
0.00899662
0.00888625
0.0119507
0.0124032
0.0123576
0.0123991
0.0124205
0.0124058
0.0123744
0.0123293
0.0122728
0.0122064
0.0121302
0.0120436
0.0119471
0.0118423
0.0117311
0.0116149
0.0114947
0.0113709
0.0112438
0.0111136
0.0109805
0.010844
0.0107045
0.0105612
0.0104146
0.0102642
0.0101105
0.00995289
0.00979285
0.00962776
0.00946337
0.00928754
0.00912635
0.00892186
0.00879327
0.0118412
0.0123516
0.0123371
0.0123937
0.0124231
0.0124113
0.0123821
0.0123384
0.0122822
0.0122148
0.0121361
0.0120461
0.0119458
0.011837
0.011722
0.0116022
0.0114785
0.0113512
0.0112207
0.0110873
0.010951
0.0108116
0.0106693
0.0105235
0.0103745
0.0102219
0.0100663
0.00990697
0.00974562
0.00957946
0.00941488
0.00923939
0.00908152
0.0088809
0.00877092
0.0117275
0.0123112
0.0123265
0.0123991
0.0124364
0.012427
0.0123997
0.012357
0.0123004
0.0122306
0.0121478
0.0120527
0.011947
0.0118334
0.0117143
0.011591
0.0114641
0.011334
0.0112007
0.0110646
0.0109257
0.0107837
0.010639
0.0104908
0.0103397
0.0101852
0.0100278
0.00986701
0.00970425
0.009537
0.00937112
0.00919432
0.00903305
0.00882893
0.00870171
0.0115833
0.0122756
0.0123165
0.0124046
0.0124477
0.0124389
0.0124127
0.0123709
0.0123139
0.0122423
0.0121563
0.0120573
0.0119476
0.0118304
0.0117081
0.011582
0.0114526
0.0113199
0.0111842
0.0110457
0.0109045
0.0107605
0.0106138
0.010464
0.0103114
0.0101555
0.00999696
0.00983522
0.00967174
0.00950402
0.00933827
0.00916203
0.00900344
0.00880284
0.00869114
0.0114294
0.0122541
0.0123136
0.0124178
0.0124667
0.012459
0.0124346
0.0123936
0.0123356
0.0122605
0.0121695
0.0120646
0.0119497
0.0118282
0.0117028
0.0115741
0.0114424
0.0113077
0.01117
0.0110296
0.0108866
0.0107409
0.0105926
0.0104412
0.0102873
0.0101301
0.00997056
0.00980792
0.00964369
0.00947551
0.00930913
0.0091324
0.00897144
0.00876881
0.00864178
0.0112441
0.0122498
0.0123184
0.0124371
0.0124876
0.0124775
0.0124526
0.0124114
0.012352
0.0122739
0.0121787
0.0120696
0.0119508
0.0118262
0.0116984
0.0115679
0.0114347
0.0112984
0.011159
0.0110169
0.0108723
0.0107251
0.0105756
0.0104232
0.0102684
0.0101104
0.00995019
0.00978714
0.00962254
0.00945434
0.00928832
0.00911235
0.00895361
0.0087541
0.00863976
0.0110347
0.0122587
0.0123231
0.0124581
0.0125113
0.0125011
0.0124775
0.0124364
0.0123748
0.0122922
0.0121911
0.0120761
0.0119526
0.0118248
0.0116948
0.0115626
0.0114279
0.0112902
0.0111496
0.0110063
0.0108605
0.0107124
0.0105619
0.0104085
0.0102529
0.0100941
0.00993331
0.00976976
0.00960486
0.0094366
0.00927052
0.00909478
0.00893472
0.0087345
0.00860817
0.0108063
0.0123024
0.0123462
0.0124931
0.0125415
0.0125254
0.0124992
0.0124567
0.0123923
0.0123052
0.0121993
0.0120802
0.0119534
0.0118232
0.0116916
0.0115586
0.0114233
0.0112848
0.0111432
0.0109987
0.0108519
0.0107027
0.0105516
0.0103976
0.0102416
0.0100823
0.00992125
0.00975751
0.00959246
0.00942455
0.0092589
0.00908431
0.00892612
0.00872937
0.00861301
0.0105297
0.0123521
0.0123587
0.0125217
0.0125684
0.0125509
0.0125249
0.0124814
0.0124136
0.012321
0.0122091
0.0120847
0.0119543
0.0118221
0.0116894
0.0115555
0.0114193
0.0112799
0.0111376
0.0109925
0.0108453
0.0106956
0.0105441
0.0103894
0.010233
0.0100732
0.00991185
0.00974772
0.00958283
0.00941505
0.00924954
0.00907609
0.0089175
0.00872127
0.00860542
0.0102701
0.0124528
0.0124003
0.0125697
0.0126054
0.0125798
0.0125491
0.0125027
0.0124299
0.012331
0.0122143
0.0120871
0.0119549
0.0118212
0.0116875
0.011553
0.0114167
0.0112771
0.0111345
0.0109889
0.0108414
0.0106913
0.0105397
0.0103846
0.0102281
0.0100679
0.00990658
0.0097421
0.00957751
0.00940999
0.00924489
0.00907345
0.00891515
0.00872786
0.00859999
0.00995724
0.0125303
0.0124211
0.0126053
0.0126347
0.0126053
0.0125713
0.0125202
0.0124432
0.0123408
0.0122203
0.0120896
0.0119549
0.0118202
0.0116864
0.011552
0.0114154
0.0112755
0.0111327
0.010987
0.0108395
0.0106892
0.0105374
0.0103819
0.0102252
0.0100645
0.00990329
0.00973836
0.00957414
0.00940665
0.0092417
0.00907168
0.00891052
0.00872626
0.0085731
0.00972168
0.0126669
0.0124846
0.0126708
0.0126855
0.0126424
0.0125941
0.0125303
0.0124441
0.0123373
0.0122173
0.0120884
0.0119544
0.0118194
0.0116855
0.0115512
0.0114148
0.0112751
0.0111323
0.0109865
0.0108389
0.0106884
0.0105366
0.0103809
0.0102242
0.0100635
0.00990224
0.00973735
0.00957319
0.009406
0.00924181
0.00907314
0.00891866
0.00874557
0.00864598
0.0124712
0.0128505
0.0125977
0.0125347
0.0124881
0.012435
0.0123838
0.0123308
0.0122767
0.0122221
0.0121668
0.01211
0.0120506
0.0119881
0.0119227
0.0118548
0.0117849
0.0117132
0.0116396
0.0115642
0.0114866
0.0114064
0.0113232
0.0112365
0.0111458
0.0110504
0.01095
0.0108436
0.0107314
0.0106118
0.0104862
0.0103509
0.0102129
0.0100569
0.00991629
0.0124398
0.0128114
0.0125732
0.0125177
0.0124766
0.0124273
0.0123777
0.0123249
0.0122698
0.0122135
0.0121558
0.0120958
0.0120326
0.0119657
0.0118953
0.011822
0.0117463
0.0116682
0.0115883
0.0115056
0.0114209
0.0113329
0.011242
0.0111472
0.0110484
0.0109449
0.0108364
0.0107223
0.0106025
0.0104757
0.010344
0.0102013
0.0100621
0.00989239
0.0097763
0.0124035
0.0127701
0.012545
0.0124962
0.0124597
0.0124135
0.0123658
0.0123139
0.0122588
0.0122015
0.0121418
0.012079
0.0120121
0.0119406
0.0118647
0.0117851
0.0117025
0.0116169
0.0115288
0.0114377
0.0113441
0.011247
0.0111467
0.0110423
0.0109337
0.0108202
0.0107018
0.0105776
0.0104481
0.0103116
0.010171
0.0100189
0.00987145
0.00969137
0.00955892
0.0123589
0.0127259
0.012518
0.0124794
0.0124502
0.0124084
0.0123626
0.0123108
0.0122547
0.0121955
0.0121333
0.0120673
0.0119964
0.0119202
0.0118393
0.0117542
0.0116658
0.0115742
0.0114798
0.0113822
0.0112817
0.0111777
0.0110702
0.0109586
0.0108427
0.0107221
0.0105967
0.0104657
0.0103299
0.0101871
0.0100406
0.00988259
0.00972801
0.00954242
0.0093905
0.0123155
0.0126766
0.0124881
0.0124589
0.0124358
0.0123982
0.0123545
0.0123038
0.0122477
0.0121877
0.0121239
0.0120552
0.0119808
0.0119003
0.0118142
0.0117233
0.0116286
0.0115303
0.0114289
0.0113242
0.0112164
0.011105
0.0109901
0.0108709
0.0107476
0.0106195
0.010487
0.010349
0.0102068
0.010058
0.00990738
0.00974535
0.00959411
0.00940689
0.00929037
0.0122582
0.0126253
0.0124605
0.012444
0.0124296
0.0123969
0.0123556
0.0123054
0.0122487
0.0121871
0.0121207
0.0120486
0.0119698
0.0118842
0.0117927
0.0116962
0.0115957
0.0114916
0.0113842
0.0112734
0.0111595
0.0110418
0.0109207
0.0107954
0.0106659
0.0105319
0.0103936
0.0102502
0.0101028
0.00994897
0.00979339
0.00962558
0.00946732
0.00926902
0.00913345
0.0121961
0.0125686
0.0124292
0.0124249
0.0124185
0.0123907
0.0123522
0.0123035
0.0122472
0.0121849
0.0121167
0.0120418
0.0119593
0.0118693
0.0117729
0.0116711
0.011565
0.011455
0.0113417
0.0112249
0.0111051
0.0109815
0.0108546
0.0107236
0.0105887
0.0104494
0.0103059
0.0101579
0.0100062
0.00984893
0.00969124
0.00952221
0.00936808
0.00917292
0.00906211
0.0121225
0.0125114
0.0124037
0.012415
0.0124185
0.0123955
0.0123593
0.0123115
0.0122549
0.012191
0.0121199
0.0120409
0.0119534
0.0118579
0.011756
0.0116487
0.0115373
0.011422
0.0113034
0.0111814
0.0110564
0.0109277
0.0107957
0.0106597
0.0105199
0.010376
0.0102283
0.010076
0.00992068
0.00975962
0.00959818
0.00942478
0.00926387
0.00906047
0.00892761
0.0120364
0.0124518
0.0123752
0.0124012
0.0124136
0.0123952
0.0123619
0.0123158
0.0122596
0.0121949
0.0121218
0.0120397
0.0119483
0.0118486
0.0117421
0.0116303
0.0115141
0.0113942
0.0112709
0.0111444
0.0110148
0.0108819
0.0107458
0.0106059
0.0104625
0.0103149
0.010164
0.0100088
0.00985103
0.00968805
0.00952576
0.00935244
0.00919567
0.00899673
0.00888633
0.0119494
0.0124019
0.0123576
0.0123992
0.0124205
0.0124058
0.0123744
0.0123293
0.0122728
0.0122065
0.0121302
0.0120436
0.0119471
0.0118423
0.0117311
0.0116149
0.0114947
0.0113709
0.0112439
0.0111136
0.0109805
0.010844
0.0107045
0.0105612
0.0104146
0.0102642
0.0101105
0.00995292
0.00979289
0.0096278
0.0094634
0.00928759
0.00912638
0.00892194
0.00879328
0.01184
0.0123503
0.012337
0.0123937
0.0124231
0.0124113
0.0123821
0.0123384
0.0122823
0.0122148
0.0121361
0.0120461
0.0119458
0.011837
0.011722
0.0116022
0.0114785
0.0113512
0.0112207
0.0110873
0.010951
0.0108116
0.0106693
0.0105235
0.0103745
0.0102219
0.0100663
0.009907
0.00974566
0.00957951
0.00941492
0.00923944
0.00908155
0.008881
0.00877099
0.0117261
0.01231
0.0123265
0.0123991
0.0124364
0.012427
0.0123997
0.0123571
0.0123004
0.0122306
0.0121478
0.0120527
0.011947
0.0118334
0.0117143
0.011591
0.0114642
0.011334
0.0112007
0.0110646
0.0109257
0.0107837
0.010639
0.0104908
0.0103398
0.0101852
0.0100278
0.00986703
0.00970428
0.00953704
0.00937115
0.00919436
0.00903308
0.008829
0.00870171
0.0115821
0.0122745
0.0123165
0.0124046
0.0124477
0.012439
0.0124127
0.0123709
0.012314
0.0122423
0.0121563
0.0120573
0.0119476
0.0118304
0.0117081
0.011582
0.0114526
0.0113199
0.0111842
0.0110457
0.0109045
0.0107605
0.0106138
0.010464
0.0103114
0.0101555
0.00999698
0.00983524
0.00967177
0.00950406
0.0093383
0.00916207
0.00900346
0.00880292
0.00869119
0.0114281
0.0122531
0.0123136
0.0124178
0.0124667
0.0124591
0.0124346
0.0123937
0.0123356
0.0122605
0.0121694
0.0120646
0.0119497
0.0118282
0.0117028
0.0115741
0.0114425
0.0113077
0.01117
0.0110296
0.0108866
0.0107409
0.0105926
0.0104412
0.0102873
0.0101301
0.00997057
0.00980795
0.00964371
0.00947554
0.00930916
0.00913244
0.00897146
0.00876887
0.00864178
0.0112429
0.0122489
0.0123184
0.0124372
0.0124876
0.0124775
0.0124527
0.0124115
0.012352
0.0122739
0.0121787
0.0120696
0.0119508
0.0118262
0.0116984
0.0115679
0.0114347
0.0112984
0.0111591
0.0110169
0.0108723
0.0107251
0.0105756
0.0104232
0.0102684
0.0101104
0.00995021
0.00978716
0.00962256
0.00945437
0.00928835
0.00911239
0.00895363
0.00875417
0.0086398
0.0110336
0.0122579
0.0123231
0.0124581
0.0125114
0.0125012
0.0124776
0.0124365
0.0123748
0.0122922
0.0121911
0.0120761
0.0119526
0.0118248
0.0116948
0.0115626
0.0114279
0.0112902
0.0111496
0.0110063
0.0108606
0.0107124
0.0105619
0.0104085
0.0102529
0.0100941
0.00993333
0.00976978
0.00960488
0.00943663
0.00927054
0.0090948
0.00893473
0.00873455
0.00860815
0.0108052
0.0123017
0.0123461
0.0124932
0.0125417
0.0125256
0.0124993
0.0124567
0.0123923
0.0123052
0.0121993
0.0120802
0.0119534
0.0118232
0.0116916
0.0115586
0.0114233
0.0112848
0.0111432
0.0109987
0.0108519
0.0107027
0.0105516
0.0103976
0.0102416
0.0100823
0.00992127
0.00975753
0.00959249
0.00942458
0.00925892
0.00908434
0.00892614
0.00872943
0.00861304
0.0105288
0.0123515
0.0123588
0.0125219
0.0125686
0.012551
0.012525
0.0124814
0.0124135
0.012321
0.0122091
0.0120847
0.0119543
0.0118221
0.0116894
0.0115555
0.0114193
0.0112799
0.0111376
0.0109925
0.0108453
0.0106956
0.0105441
0.0103894
0.010233
0.0100732
0.00991186
0.00974773
0.00958284
0.00941508
0.00924955
0.00907611
0.00891751
0.00872134
0.00860545
0.0102676
0.0124525
0.0124003
0.0125699
0.0126055
0.0125798
0.0125491
0.0125026
0.0124298
0.012331
0.0122143
0.0120871
0.0119549
0.0118212
0.0116875
0.011553
0.0114167
0.0112771
0.0111345
0.010989
0.0108414
0.0106913
0.0105397
0.0103846
0.0102281
0.0100679
0.00990659
0.00974212
0.00957752
0.00941001
0.00924491
0.00907348
0.00891516
0.00872789
0.00859995
0.0099526
0.0125312
0.0124216
0.0126056
0.0126346
0.0126051
0.0125711
0.0125201
0.0124431
0.0123407
0.0122203
0.0120896
0.0119549
0.0118202
0.0116864
0.011552
0.0114154
0.0112755
0.0111327
0.010987
0.0108395
0.0106892
0.0105374
0.0103819
0.0102253
0.0100646
0.00990331
0.00973838
0.00957416
0.00940667
0.00924172
0.0090717
0.00891054
0.00872629
0.00857305
0.00973176
0.0126714
0.0124851
0.0126689
0.0126825
0.0126396
0.0125921
0.0125292
0.0124437
0.0123372
0.0122173
0.0120884
0.0119543
0.0118193
0.0116854
0.0115512
0.0114148
0.0112751
0.0111323
0.0109866
0.0108388
0.0106884
0.0105365
0.0103809
0.0102242
0.0100635
0.00990223
0.00973734
0.00957317
0.00940598
0.0092418
0.00907312
0.00891865
0.00874551
0.00864564
0.0124743
0.0128475
0.0125976
0.0125349
0.0124882
0.012435
0.0123838
0.0123308
0.0122767
0.0122221
0.0121668
0.01211
0.0120506
0.0119881
0.0119227
0.0118548
0.0117848
0.0117132
0.0116396
0.0115642
0.0114865
0.0114064
0.0113232
0.0112365
0.0111458
0.0110504
0.01095
0.0108436
0.0107314
0.0106118
0.0104862
0.0103509
0.0102129
0.0100569
0.00991633
0.0124428
0.0128086
0.0125731
0.0125178
0.0124767
0.0124273
0.0123777
0.0123249
0.0122699
0.0122135
0.0121557
0.0120958
0.0120326
0.0119657
0.0118954
0.011822
0.0117463
0.0116682
0.0115882
0.0115056
0.0114209
0.0113329
0.011242
0.0111472
0.0110484
0.0109449
0.0108364
0.0107223
0.0106025
0.0104757
0.010344
0.0102013
0.0100621
0.00989244
0.00977642
0.0124065
0.0127673
0.0125449
0.0124963
0.0124598
0.0124136
0.0123658
0.0123139
0.0122588
0.0122014
0.0121418
0.012079
0.0120121
0.0119406
0.0118647
0.0117851
0.0117025
0.0116169
0.0115288
0.0114377
0.0113441
0.011247
0.0111467
0.0110423
0.0109336
0.0108202
0.0107017
0.0105776
0.0104481
0.0103116
0.010171
0.0100189
0.00987143
0.00969138
0.0095589
0.0123619
0.0127231
0.0125179
0.0124795
0.0124503
0.0124084
0.0123626
0.0123108
0.0122547
0.0121955
0.0121332
0.0120672
0.0119964
0.0119202
0.0118393
0.0117543
0.0116658
0.0115742
0.0114798
0.0113822
0.0112817
0.0111777
0.0110702
0.0109586
0.0108427
0.0107221
0.0105967
0.0104658
0.0103299
0.0101871
0.0100406
0.00988261
0.00972803
0.00954243
0.00939047
0.0123184
0.012674
0.012488
0.012459
0.0124359
0.0123982
0.0123546
0.0123038
0.0122477
0.0121877
0.0121239
0.0120552
0.0119808
0.0119003
0.0118142
0.0117233
0.0116286
0.0115303
0.0114288
0.0113242
0.0112164
0.011105
0.0109901
0.0108709
0.0107476
0.0106195
0.010487
0.010349
0.0102068
0.0100581
0.00990738
0.00974537
0.00959412
0.00940694
0.0092905
0.012261
0.0126227
0.0124604
0.0124442
0.0124297
0.012397
0.0123556
0.0123054
0.0122487
0.0121871
0.0121207
0.0120486
0.0119698
0.0118842
0.0117927
0.0116962
0.0115957
0.0114916
0.0113842
0.0112734
0.0111595
0.0110418
0.0109207
0.0107954
0.0106659
0.0105319
0.0103936
0.0102502
0.0101028
0.00994899
0.0097934
0.00962561
0.00946732
0.00926906
0.00913346
0.0121988
0.0125661
0.0124291
0.012425
0.0124186
0.0123907
0.0123522
0.0123036
0.0122473
0.0121849
0.0121167
0.0120418
0.0119593
0.0118693
0.0117729
0.0116711
0.011565
0.011455
0.0113417
0.0112249
0.0111051
0.0109815
0.0108546
0.0107237
0.0105887
0.0104494
0.010306
0.0101579
0.0100062
0.00984896
0.00969126
0.00952224
0.00936809
0.009173
0.00906226
0.0121251
0.012509
0.0124036
0.0124151
0.0124186
0.0123956
0.0123594
0.0123116
0.0122549
0.012191
0.0121199
0.0120409
0.0119534
0.0118579
0.0117559
0.0116487
0.0115373
0.011422
0.0113034
0.0111814
0.0110564
0.0109277
0.0107957
0.0106597
0.01052
0.010376
0.0102283
0.0100761
0.00992069
0.00975965
0.0095982
0.00942481
0.00926388
0.00906052
0.00892764
0.012039
0.0124496
0.0123751
0.0124012
0.0124137
0.0123952
0.0123619
0.0123158
0.0122596
0.0121949
0.0121218
0.0120397
0.0119483
0.0118486
0.0117421
0.0116303
0.0115141
0.0113942
0.0112709
0.0111444
0.0110148
0.0108819
0.0107458
0.0106059
0.0104625
0.0103149
0.0101641
0.0100089
0.00985104
0.00968808
0.00952579
0.00935248
0.00919569
0.00899682
0.00888649
0.0119518
0.0123998
0.0123575
0.0123992
0.0124206
0.0124058
0.0123744
0.0123293
0.0122729
0.0122065
0.0121302
0.0120436
0.0119471
0.0118423
0.0117311
0.0116149
0.0114947
0.0113709
0.0112439
0.0111136
0.0109805
0.010844
0.0107045
0.0105612
0.0104146
0.0102642
0.0101105
0.00995294
0.0097929
0.00962783
0.00946342
0.00928763
0.00912639
0.008922
0.00879331
0.0118424
0.0123483
0.0123369
0.0123937
0.0124231
0.0124113
0.0123821
0.0123384
0.0122823
0.0122148
0.0121361
0.0120461
0.0119458
0.011837
0.011722
0.0116022
0.0114785
0.0113512
0.0112207
0.0110873
0.010951
0.0108116
0.0106693
0.0105235
0.0103745
0.010222
0.0100664
0.00990703
0.00974568
0.00957954
0.00941494
0.00923949
0.00908157
0.0088811
0.00877114
0.0117283
0.0123081
0.0123264
0.0123992
0.0124364
0.0124271
0.0123997
0.0123571
0.0123004
0.0122306
0.0121478
0.0120527
0.011947
0.0118334
0.0117143
0.011591
0.0114642
0.011334
0.0112008
0.0110646
0.0109257
0.0107837
0.010639
0.0104908
0.0103398
0.0101852
0.0100279
0.00986706
0.0097043
0.00953706
0.00937117
0.0091944
0.00903309
0.00882906
0.00870175
0.0115842
0.0122726
0.0123163
0.0124046
0.0124477
0.012439
0.0124128
0.0123709
0.012314
0.0122423
0.0121563
0.0120572
0.0119476
0.0118304
0.0117081
0.011582
0.0114526
0.0113199
0.0111842
0.0110457
0.0109045
0.0107605
0.0106138
0.010464
0.0103114
0.0101555
0.00999701
0.00983527
0.00967179
0.00950409
0.00933832
0.00916212
0.00900348
0.00880302
0.00869134
0.01143
0.0122515
0.0123134
0.0124178
0.0124668
0.0124591
0.0124347
0.0123937
0.0123356
0.0122605
0.0121694
0.0120646
0.0119496
0.0118282
0.0117028
0.0115741
0.0114425
0.0113077
0.01117
0.0110296
0.0108866
0.0107409
0.0105926
0.0104412
0.0102874
0.0101301
0.00997059
0.00980797
0.00964373
0.00947557
0.00930918
0.00913247
0.00897148
0.00876894
0.00864182
0.0112446
0.0122474
0.0123183
0.0124372
0.0124877
0.0124776
0.0124527
0.0124115
0.012352
0.0122738
0.0121786
0.0120696
0.0119508
0.0118262
0.0116984
0.0115679
0.0114347
0.0112984
0.0111591
0.0110169
0.0108723
0.0107252
0.0105756
0.0104232
0.0102684
0.0101104
0.00995023
0.00978719
0.00962259
0.0094544
0.00928837
0.00911243
0.00895364
0.00875427
0.00863993
0.0110351
0.0122566
0.0123229
0.0124582
0.0125115
0.0125013
0.0124777
0.0124365
0.0123747
0.0122921
0.0121911
0.0120761
0.0119526
0.0118248
0.0116948
0.0115626
0.0114279
0.0112902
0.0111496
0.0110063
0.0108606
0.0107124
0.0105619
0.0104085
0.010253
0.0100941
0.00993334
0.00976981
0.0096049
0.00943666
0.00927056
0.00909484
0.00893475
0.00873462
0.00860817
0.0108064
0.0123006
0.012346
0.0124932
0.0125418
0.0125257
0.0124994
0.0124567
0.0123922
0.0123051
0.0121992
0.0120801
0.0119534
0.0118232
0.0116916
0.0115586
0.0114233
0.0112849
0.0111432
0.0109987
0.0108519
0.0107028
0.0105516
0.0103976
0.0102416
0.0100823
0.00992129
0.00975756
0.00959251
0.00942462
0.00925895
0.0090844
0.00892615
0.00872954
0.00861316
0.0105298
0.0123505
0.0123587
0.012522
0.0125689
0.0125512
0.012525
0.0124813
0.0124134
0.0123209
0.012209
0.0120847
0.0119543
0.0118221
0.0116894
0.0115554
0.0114193
0.0112799
0.0111376
0.0109925
0.0108454
0.0106956
0.0105441
0.0103894
0.010233
0.0100732
0.00991187
0.00974776
0.00958286
0.00941511
0.00924957
0.00907616
0.00891751
0.00872145
0.00860555
0.0102672
0.0124521
0.0124004
0.0125702
0.0126058
0.0125799
0.0125489
0.0125024
0.0124296
0.0123309
0.0122142
0.0120871
0.0119549
0.0118212
0.0116875
0.0115531
0.0114167
0.0112771
0.0111345
0.010989
0.0108415
0.0106913
0.0105397
0.0103846
0.0102281
0.010068
0.0099066
0.00974214
0.00957754
0.00941004
0.00924492
0.00907352
0.00891517
0.00872793
0.00859986
0.00994772
0.0125329
0.0124226
0.0126062
0.0126348
0.0126049
0.0125707
0.0125197
0.0124428
0.0123406
0.0122202
0.0120896
0.0119549
0.0118202
0.0116864
0.011552
0.0114154
0.0112755
0.0111327
0.010987
0.0108395
0.0106892
0.0105374
0.0103819
0.0102253
0.0100646
0.00990333
0.0097384
0.00957419
0.0094067
0.00924174
0.00907175
0.00891057
0.00872632
0.00857274
0.00973995
0.0126753
0.0124868
0.0126691
0.0126817
0.0126382
0.0125909
0.0125284
0.0124434
0.0123372
0.0122174
0.0120884
0.0119543
0.0118192
0.0116853
0.0115511
0.0114149
0.0112752
0.0111324
0.0109866
0.0108389
0.0106884
0.0105365
0.0103809
0.0102242
0.0100635
0.00990224
0.00973736
0.00957319
0.00940602
0.00924182
0.00907316
0.00891868
0.00874558
0.00864567
0.012478
0.0128437
0.0125974
0.0125349
0.0124883
0.0124351
0.0123838
0.0123308
0.0122767
0.0122221
0.0121668
0.01211
0.0120506
0.0119881
0.0119227
0.0118548
0.0117849
0.0117131
0.0116396
0.0115642
0.0114865
0.0114064
0.0113232
0.0112365
0.0111458
0.0110504
0.01095
0.0108436
0.0107314
0.0106118
0.0104862
0.0103509
0.0102129
0.010057
0.00991648
0.0124463
0.0128048
0.0125728
0.0125179
0.0124768
0.0124274
0.0123778
0.012325
0.0122699
0.0122135
0.0121557
0.0120958
0.0120326
0.0119657
0.0118954
0.011822
0.0117463
0.0116682
0.0115882
0.0115056
0.0114209
0.0113329
0.011242
0.0111472
0.0110484
0.0109449
0.0108364
0.0107223
0.0106026
0.0104758
0.0103441
0.0102014
0.0100622
0.00989255
0.00977673
0.01241
0.0127637
0.0125447
0.0124963
0.0124598
0.0124136
0.0123658
0.0123139
0.0122588
0.0122014
0.0121418
0.012079
0.0120121
0.0119406
0.0118647
0.0117851
0.0117025
0.0116169
0.0115288
0.0114377
0.0113441
0.011247
0.0111467
0.0110423
0.0109336
0.0108202
0.0107017
0.0105776
0.0104481
0.0103116
0.010171
0.010019
0.00987144
0.00969142
0.00955897
0.0123653
0.0127195
0.0125177
0.0124796
0.0124503
0.0124085
0.0123627
0.0123108
0.0122547
0.0121954
0.0121332
0.0120672
0.0119964
0.0119202
0.0118393
0.0117543
0.0116658
0.0115742
0.0114798
0.0113822
0.0112817
0.0111777
0.0110702
0.0109586
0.0108427
0.0107221
0.0105967
0.0104658
0.0103299
0.0101872
0.0100407
0.00988265
0.00972806
0.00954249
0.00939052
0.0123217
0.0126705
0.0124878
0.012459
0.012436
0.0123983
0.0123546
0.0123038
0.0122477
0.0121877
0.0121239
0.0120552
0.0119808
0.0119003
0.0118142
0.0117233
0.0116285
0.0115303
0.0114288
0.0113242
0.0112164
0.011105
0.0109901
0.0108709
0.0107476
0.0106195
0.010487
0.010349
0.0102068
0.0100581
0.00990739
0.00974541
0.00959413
0.00940704
0.00929078
0.0122643
0.0126193
0.0124602
0.0124442
0.0124298
0.012397
0.0123556
0.0123054
0.0122487
0.0121871
0.0121207
0.0120486
0.0119698
0.0118842
0.0117927
0.0116962
0.0115957
0.0114916
0.0113842
0.0112734
0.0111595
0.0110418
0.0109207
0.0107954
0.0106659
0.0105319
0.0103936
0.0102502
0.0101028
0.00994902
0.00979341
0.00962566
0.00946734
0.00926914
0.00913359
0.012202
0.0125628
0.0124289
0.012425
0.0124186
0.0123907
0.0123522
0.0123036
0.0122473
0.0121849
0.0121167
0.0120418
0.0119593
0.0118693
0.0117729
0.0116711
0.011565
0.011455
0.0113417
0.0112249
0.0111051
0.0109815
0.0108546
0.0107237
0.0105887
0.0104494
0.010306
0.0101579
0.0100063
0.00984899
0.00969128
0.00952228
0.00936811
0.00917311
0.00906256
0.0121282
0.0125059
0.0124034
0.0124152
0.0124186
0.0123956
0.0123594
0.0123116
0.0122549
0.012191
0.0121199
0.0120409
0.0119534
0.0118579
0.0117559
0.0116487
0.0115373
0.011422
0.0113034
0.0111814
0.0110564
0.0109277
0.0107957
0.0106597
0.01052
0.010376
0.0102283
0.0100761
0.0099207
0.00975967
0.00959821
0.00942486
0.00926389
0.0090606
0.00892779
0.0120419
0.0124465
0.0123749
0.0124012
0.0124137
0.0123952
0.0123619
0.0123158
0.0122596
0.0121949
0.0121218
0.0120397
0.0119483
0.0118486
0.0117421
0.0116303
0.0115141
0.0113942
0.0112709
0.0111444
0.0110148
0.0108819
0.0107458
0.0106059
0.0104625
0.0103149
0.0101641
0.0100089
0.00985105
0.00968811
0.0095258
0.00935252
0.00919571
0.00899693
0.00888679
0.0119546
0.0123968
0.0123573
0.0123993
0.0124206
0.0124059
0.0123745
0.0123293
0.0122729
0.0122065
0.0121301
0.0120436
0.0119471
0.0118423
0.0117311
0.0116149
0.0114947
0.0113709
0.0112439
0.0111137
0.0109805
0.010844
0.0107045
0.0105612
0.0104146
0.0102642
0.0101105
0.00995296
0.00979291
0.00962785
0.00946343
0.00928767
0.0091264
0.00892208
0.00879348
0.0118451
0.0123454
0.0123367
0.0123937
0.0124231
0.0124113
0.0123821
0.0123384
0.0122823
0.0122148
0.012136
0.0120461
0.0119458
0.011837
0.011722
0.0116022
0.0114785
0.0113512
0.0112207
0.0110873
0.010951
0.0108116
0.0106693
0.0105235
0.0103745
0.010222
0.0100664
0.00990705
0.00974568
0.00957958
0.00941494
0.00923954
0.00908158
0.0088812
0.00877143
0.0117309
0.0123055
0.0123262
0.0123992
0.0124365
0.0124271
0.0123998
0.0123571
0.0123004
0.0122306
0.0121478
0.0120526
0.011947
0.0118334
0.0117143
0.011591
0.0114642
0.011334
0.0112008
0.0110646
0.0109257
0.0107837
0.010639
0.0104908
0.0103398
0.0101852
0.0100279
0.00986707
0.00970431
0.00953709
0.00937118
0.00919444
0.0090331
0.00882915
0.00870193
0.0115867
0.0122701
0.0123162
0.0124046
0.0124477
0.012439
0.0124128
0.012371
0.0123139
0.0122422
0.0121562
0.0120572
0.0119475
0.0118304
0.0117081
0.0115821
0.0114526
0.0113199
0.0111842
0.0110457
0.0109045
0.0107605
0.0106138
0.010464
0.0103114
0.0101556
0.00999702
0.00983529
0.0096718
0.00950412
0.00933833
0.00916216
0.00900349
0.00880312
0.00869161
0.0114323
0.0122492
0.0123133
0.0124178
0.0124668
0.0124592
0.0124348
0.0123938
0.0123356
0.0122604
0.0121694
0.0120645
0.0119496
0.0118282
0.0117028
0.0115741
0.0114425
0.0113077
0.01117
0.0110296
0.0108866
0.0107409
0.0105926
0.0104413
0.0102874
0.0101302
0.00997059
0.00980799
0.00964374
0.00947559
0.00930918
0.00913251
0.00897148
0.00876902
0.00864198
0.0112468
0.0122452
0.0123182
0.0124371
0.0124877
0.0124777
0.0124528
0.0124115
0.0123519
0.0122738
0.0121786
0.0120695
0.0119508
0.0118262
0.0116984
0.0115679
0.0114347
0.0112984
0.0111591
0.0110169
0.0108723
0.0107252
0.0105756
0.0104232
0.0102684
0.0101105
0.00995025
0.00978721
0.0096226
0.00945443
0.00928838
0.00911248
0.00895364
0.00875437
0.00864018
0.011037
0.0122547
0.0123228
0.0124581
0.0125116
0.0125015
0.0124778
0.0124365
0.0123747
0.012292
0.012191
0.0120761
0.0119526
0.0118248
0.0116947
0.0115626
0.0114279
0.0112902
0.0111496
0.0110063
0.0108606
0.0107124
0.0105619
0.0104085
0.010253
0.0100941
0.00993334
0.00976983
0.0096049
0.00943668
0.00927056
0.00909488
0.00893475
0.00873469
0.00860831
0.0108081
0.0122991
0.012346
0.0124933
0.0125421
0.0125259
0.0124995
0.0124566
0.0123921
0.012305
0.0121991
0.0120801
0.0119534
0.0118232
0.0116916
0.0115586
0.0114233
0.0112848
0.0111433
0.0109988
0.0108519
0.0107028
0.0105516
0.0103976
0.0102417
0.0100824
0.0099213
0.00975758
0.00959252
0.00942465
0.00925895
0.00908444
0.00892614
0.00872965
0.00861344
0.0105313
0.0123491
0.0123587
0.0125223
0.0125694
0.0125516
0.0125251
0.0124811
0.0124131
0.0123207
0.0122089
0.0120847
0.0119543
0.0118221
0.0116894
0.0115554
0.0114192
0.0112799
0.0111376
0.0109926
0.0108454
0.0106956
0.0105441
0.0103895
0.010233
0.0100732
0.00991187
0.00974777
0.00958286
0.00941514
0.00924956
0.00907619
0.00891749
0.00872155
0.00860579
0.0102676
0.0124514
0.0124007
0.0125707
0.0126064
0.0125801
0.0125487
0.012502
0.0124293
0.0123306
0.0122141
0.012087
0.0119549
0.0118212
0.0116875
0.011553
0.0114167
0.0112771
0.0111345
0.010989
0.0108415
0.0106913
0.0105397
0.0103846
0.0102281
0.010068
0.0099066
0.00974215
0.00957753
0.00941006
0.00924491
0.00907354
0.00891515
0.00872795
0.00859978
0.00994481
0.0125344
0.012424
0.0126076
0.0126354
0.0126046
0.0125701
0.0125191
0.0124424
0.0123404
0.0122202
0.0120896
0.011955
0.0118202
0.0116863
0.0115519
0.0114154
0.0112756
0.0111328
0.0109871
0.0108395
0.0106892
0.0105374
0.0103819
0.0102253
0.0100646
0.00990333
0.0097384
0.00957419
0.00940672
0.00924174