/*--------------------------------*- C++ -*----------------------------------*\
  =========                 |
  \\      /  F ield         | OpenFOAM: The Open Source CFD Toolbox
   \\    /   O peration     | Website:  https://openfoam.org
    \\  /    A nd           | Version:  6
     \\/     M anipulation  |
\*---------------------------------------------------------------------------*/
FoamFile
{
    version     2.0;
    format      ascii;
    class       volScalarField;
    location    "16";
    object      yPlus;
}
// * * * * * * * * * * * * * * * * * * * * * * * * * * * * * * * * * * * * * //

dimensions      [0 0 0 0 0 0 0];

internalField   uniform 0;

boundaryField
{
    inlet
    {
        type            calculated;
        value           uniform 0;
    }
    outlet
    {
        type            calculated;
        value           uniform 0;
    }
    roughCylinder
    {
        type            calculated;
        value           nonuniform List<scalar> 
5120
(
42.637
50.4027
56.5708
62.5787
67.7189
71.8623
75.1697
77.8354
80.0142
81.8419
83.4378
84.8679
86.1704
87.3773
88.5183
89.6231
90.7215
91.8401
93.0012
94.2208
95.5072
96.8623
98.2828
99.7613
101.288
102.849
104.429
106.003
107.532
108.946
110.107
110.79
41.9495
49.4333
55.4068
61.2796
66.3497
70.4588
73.7477
76.405
78.5838
80.4187
82.0221
83.455
84.7482
85.9401
87.0626
88.1463
89.2212
90.3152
91.4511
92.6438
93.902
95.2276
96.6171
98.0632
99.556
101.082
102.625
104.162
105.654
107.034
108.165
108.832
41.1857
48.424
54.2143
59.9532
64.9543
69.0342
72.3129
74.9717
77.1614
79.0118
80.6273
82.0636
83.3506
84.5313
85.6375
86.7013
87.7547
88.8253
89.9356
91.1019
92.3325
93.6291
94.9881
96.4021
97.861
99.3525
100.859
102.36
103.815
105.161
106.263
106.912
40.4062
47.4096
53.016
58.6162
63.5464
67.5988
70.871
73.5373
75.7465
77.6211
79.2543
80.6981
81.9857
83.1564
84.2486
85.2952
86.3281
87.3765
88.464
89.6055
90.8095
92.0779
93.407
94.7898
96.2156
97.6725
99.1436
100.607
102.027
103.337
104.411
105.043
39.565
46.3485
51.7705
57.2303
62.0936
66.1302
69.412
72.102
74.3424
76.2466
77.9007
79.3555
80.6472
81.8137
82.8958
83.9273
84.9428
85.9717
87.0362
88.1536
89.3324
90.5739
91.8746
93.2268
94.6209
96.0441
97.4804
98.9086
100.293
101.571
102.616
103.232
38.7341
45.2953
50.5249
55.8363
60.6306
64.654
67.9484
70.664
72.9385
74.8781
76.5593
78.0313
79.3329
80.5013
81.5765
82.597
83.597
84.6073
85.6532
86.7493
87.9041
89.1198
90.3925
91.7154
93.078
94.4678
95.8696
97.2623
98.6116
99.8551
100.874
101.473
37.823
44.1721
49.2042
54.3612
59.0893
63.1146
66.4447
69.2097
71.5347
73.5157
75.2268
76.72
78.0358
79.2131
80.2887
81.3019
82.2905
83.2867
84.3131
85.3881
86.5207
87.7121
88.9589
90.2531
91.5852
92.9438
94.3121
95.6712
96.9862
98.1985
99.1899
99.773
36.9365
43.0649
47.8878
52.8787
57.5361
61.5656
64.9326
67.7421
70.1141
72.1425
73.8939
75.4174
76.7555
77.9461
79.0287
80.0397
81.0208
82.0039
83.017
84.0752
85.1871
86.3554
87.5761
88.8431
90.1455
91.4715
92.8064
94.1308
95.412
96.5904
97.5557
98.1234
35.9275
41.843
46.4449
51.2552
55.8377
59.8856
63.3213
66.2163
68.6689
70.7583
72.554
74.1124
75.4779
76.691
77.7869
78.8058
79.7839
80.7614
81.76
82.8009
83.8941
85.0407
86.2383
87.478
88.7513
90.0473
91.3505
92.6419
93.8901
95.0382
95.9772
96.529
34.9447
40.635
45.005
49.6192
54.1183
58.1867
61.6917
64.6591
67.1773
69.3344
71.1925
72.8013
74.2065
75.4463
76.5619
77.5892
78.5735
79.5473
80.54
81.5703
82.6468
83.7736
84.9464
86.1605
87.4052
88.6687
89.9383
91.1952
92.4088
93.5229
94.4356
94.9732
33.7552
39.2315
43.352
47.7409
52.1341
56.2274
59.8426
62.9554
65.6134
67.8717
69.8001
71.4641
72.9139
74.1946
75.3387
76.3894
77.3813
78.36
79.3461
80.364
81.4261
82.5338
83.6861
84.8736
86.0891
87.323
88.5608
89.7847
90.966
92.0504
92.937
93.4579
32.5555
37.8232
41.6883
45.837
50.1133
54.235
57.964
61.1961
63.9524
66.3166
68.3477
70.0958
71.6132
72.9385
74.1192
75.1898
76.2021
77.1859
78.1752
79.1906
80.2409
81.3323
82.4608
83.6242
84.8115
86.0122
87.2154
88.4039
89.5489
90.5987
91.4586
91.967
31.0413
36.1049
39.6744
43.5173
47.6106
51.7315
55.6169
59.1008
62.1231
64.6727
66.8249
68.6645
70.2516
71.645
72.8753
73.9916
75.0242
76.0261
77.0171
78.0249
79.0655
80.1409
81.2523
82.3897
83.5478
84.7192
85.8905
87.0461
88.1593
89.1784
90.0122
90.5036
29.443
34.3279
37.6186
41.1558
45.0604
49.1923
53.2471
56.9209
60.09
62.8265
65.1653
67.1527
68.8591
70.3258
71.6176
72.7678
73.8404
74.8587
75.8644
76.8805
77.9156
78.979
80.0675
81.1818
82.3119
83.4485
84.5829
85.7011
86.7758
87.7571
88.5636
89.0443
27.2989
32.0065
34.9423
38.0272
41.5692
45.582
49.8143
53.9505
57.6887
60.793
63.359
65.5145
67.3362
68.9183
70.2914
71.5224
72.6319
73.6875
74.7065
75.7202
76.7512
77.8022
78.8771
79.9659
81.0658
82.1721
83.2745
84.3588
85.4014
86.3514
87.1298
87.5928
24.8388
29.4771
32.1631
34.889
38.1131
42.0656
46.5392
50.9029
54.7883
58.2843
61.2433
63.6862
65.7383
67.4487
68.9289
70.2118
71.3907
72.4767
73.5254
74.5635
75.5974
76.6415
77.6942
78.7601
79.8308
80.8996
81.9603
83.0031
84.0021
84.909
85.6588
86.1144
21.0687
25.7008
27.9732
29.941
32.3932
35.8193
40.2927
45.7548
51.1481
55.3867
58.8071
61.6066
63.871
65.7967
67.4145
68.8416
70.0815
71.2354
72.3147
73.3553
74.3919
75.4277
76.4704
77.5105
78.5491
79.585
80.6125
81.6201
82.5851
83.4586
84.1762
84.6126
16.4117
21.4533
23.8363
25.7724
27.553
30.7179
35.9187
40.8224
45.7275
51.1975
55.6239
59.0522
61.8323
64.0072
65.8307
67.3391
68.7005
69.9033
71.0326
72.123
73.1749
74.2101
75.2306
76.2468
77.2524
78.2454
79.2231
80.1806
81.0945
81.9136
82.6023
83.036
4.66432
10.594
11.9886
11.8574
10.5724
10.5791
15.6932
29.4357
40.1006
46.1467
51.6234
55.9928
59.1915
61.8311
63.9144
65.7032
67.1675
68.4953
69.6861
70.7825
71.8448
72.8774
73.8917
74.88
75.8495
76.8043
77.7457
78.6668
79.5415
80.3256
80.9706
81.3854
0.798856
7.71648
11.3728
14.0449
15.1314
15.2275
10.1742
1.43707
19.286
37.4301
45.6557
51.4658
56.1447
59.344
61.8773
63.8031
65.5014
66.9069
68.177
69.3698
70.469
71.5089
72.4995
73.4608
74.3893
75.2898
76.1676
77.0206
77.8326
78.5379
79.157
79.575
12.3222
16.4404
16.825
15.6571
16.1645
18.4007
18.3093
16.2351
15.783
18.5007
37.0328
46.4696
51.5713
55.9413
59.0486
61.6084
63.492
65.1479
66.5491
67.7475
68.8669
69.9129
70.9021
71.8295
72.7136
73.5665
74.4002
75.2177
75.9774
76.6494
77.1986
77.6035
19.0101
23.3745
25.1348
25.5676
24.3244
22.1189
21.2072
17.1349
16.7986
19.8887
18.6289
33.2762
45.842
51.756
56.0429
58.8351
61.2514
63.0376
64.562
65.9572
67.1579
68.2239
69.1853
70.078
70.9035
71.6773
72.4223
73.1321
73.8118
74.3456
74.8858
75.2985
21.6389
26.5272
29.1217
30.9458
31.8924
31.7417
30.1669
27.2112
21.9663
21.6436
17.3688
22.9745
34.6399
45.303
50.892
55.4235
58.1567
60.5172
62.3658
63.751
64.9857
66.0758
67.0408
67.8856
68.6492
69.355
70.0381
70.7197
71.3141
71.8359
72.2343
72.6658
22.4711
27.4844
30.3448
32.6046
34.2328
35.2141
35.4899
34.8453
32.5754
27.173
25.6132
17.6722
18.8312
33.7599
45.6092
50.4639
54.766
57.315
59.3215
61.1624
62.5892
63.719
64.649
65.4376
66.0996
66.6707
67.2083
67.6906
68.1812
68.3837
68.8534
69.2751
22.0023
27.158
30.1993
32.7216
34.6917
36.1054
36.9653
37.2558
36.8432
35.1674
30.6246
27.9482
28.6936
30.2332
32.8298
44.3812
48.7352
52.9689
55.9621
57.6878
59.1488
60.3576
61.2825
61.9872
62.5538
62.9918
63.4428
63.907
64.2384
64.5638
64.6684
65.2421
20.6206
25.9136
29.0567
31.7278
33.9053
35.5938
36.819
37.6183
38.0168
37.9443
36.9165
33.4473
29.4167
31.0093
25.3183
32.74
43.6962
47.4076
50.3649
53.3259
55.3291
56.5703
57.459
58.0404
58.357
58.553
58.6592
58.7281
58.9299
58.189
58.8328
59.1756
18.7161
24.108
27.2841
30.0114
32.2865
34.1274
35.5652
36.6572
37.4757
38.0621
38.2974
37.5298
34.1074
32.4751
17.2509
13.5489
26.9435
38.2408
44.4982
46.933
48.6501
50.2207
51.0254
51.3183
51.571
51.3437
51.4268
51.2929
51.5857
51.6612
51.5647
52.1164
16.511
21.8944
25.0043
27.686
29.9618
31.8723
33.4619
34.7888
35.9348
36.9749
37.9074
38.5033
38.0603
34.5878
26.46
14.7396
8.37152
22.894
33.4948
38.8553
42.4619
43.8414
44.2442
44.531
43.9074
42.7592
42.1343
41.1516
39.6894
35.8395
37.0684
38.4315
14.2662
19.5004
22.4383
24.9717
27.1546
29.0488
30.7142
32.215
33.6258
35.0211
36.4213
37.7237
38.6092
38.0493
34.6454
26.3671
28.0042
13.244
5.16639
21.0538
23.246
25.7657
28.3254
24.4194
23.0635
29.0316
17.8161
11.6447
41.5184
22.8688
40.1153
22.8008
12.2677
17.2259
19.9132
22.2243
24.2455
26.0559
27.7255
29.3202
30.9048
32.542
34.2644
36.0136
37.5964
38.5565
38.2121
34.2093
29.5253
19.5384
19.6468
28.1081
19.2835
22.5473
34.0427
12.4069
25.5009
39.2265
24.8071
7.27786
42.3206
25.4493
40.9223
26.5493
10.731
15.3351
17.7509
19.8186
21.6526
23.3447
24.9674
26.5804
28.2341
29.9737
31.8372
33.8213
35.8282
37.5799
38.6647
37.997
35.0264
29.9628
27.6729
33.3393
21.5726
25.9799
29.4063
23.2983
32.0038
36.569
34.5207
29.0127
40.1693
32.6209
30.7803
36.1817
9.603
13.9607
16.1468
18.0101
19.6867
21.2711
22.8286
24.4045
26.033
27.7459
29.5786
31.5627
33.6909
35.836
37.6979
38.6965
38.2754
37.3035
33.1854
29.2484
26.8988
25.6172
28.9139
30.246
32.4754
35.3768
36.5174
39.1484
36.9112
41.4074
36.2703
39.1924
9.01413
13.1812
15.2072
16.9398
18.5225
20.0393
21.5386
23.0471
24.5854
26.1782
27.861
29.6798
31.675
33.8373
36.036
37.8992
38.9671
39.4714
38.1675
36.5585
36.3581
35.7967
37.2773
39.3547
39.6229
41.7873
42.1508
43.7028
41.9393
43.8593
40.6042
43.0596
8.85701
12.9392
14.8971
16.585
18.1429
19.638
21.0987
22.5366
23.9632
25.4009
26.8847
28.4613
30.1857
32.1054
34.2194
36.3851
38.2807
39.6819
39.8786
39.7158
39.8373
39.687
40.718
41.6954
41.4477
42.7854
42.8772
43.8315
42.4345
43.4231
41.0306
43.4883
9.0579
13.1351
15.0988
16.8101
18.3964
19.9056
21.3499
22.732
24.0607
25.357
26.653
27.9896
29.4173
30.9957
32.7804
34.772
36.8474
38.7492
39.9112
40.5233
40.8845
40.8433
41.4987
42.0307
41.4791
42.3725
42.326
42.8393
41.5285
41.9099
40.4508
42.7799
9.51664
13.64
15.6575
17.437
19.0863
20.6366
22.0887
23.4407
24.7013
25.8917
27.0415
28.1846
29.3604
30.6189
32.0209
33.6205
35.4206
37.2998
38.8799
40.0039
40.6965
40.8441
41.2754
41.4039
40.6396
41.0721
40.8451
41.0537
39.8898
39.8603
39.2103
41.164
10.1754
14.3735
16.4671
18.3339
20.0606
21.6639
23.1383
24.4817
25.705
26.8307
27.8861
28.8979
29.8938
30.9087
31.9895
33.1919
34.5613
36.0808
37.5713
38.8276
39.7165
40.0507
40.3436
40.1976
39.3225
39.3659
38.9884
38.9986
38.0593
37.9097
37.8519
39.3254
10.9781
15.2774
17.4589
19.4188
21.2241
22.8816
24.3837
25.7312
26.9398
28.0343
29.0403
29.9784
30.8658
31.7226
32.5785
33.4749
34.4567
35.5465
36.6877
37.7528
38.591
38.9885
39.1674
38.8714
38.0043
37.7564
37.2901
37.1961
36.5497
36.4861
36.7974
37.8522
11.8323
16.3021
18.5794
20.6317
22.512
24.221
25.7526
27.1129
28.3229
29.4102
30.3992
31.3062
32.1404
32.9111
33.6331
34.3306
35.0348
35.7727
36.539
37.2783
37.8883
38.1958
38.2414
37.8647
37.0551
36.6234
36.1252
35.998
35.6379
35.7473
36.2642
37.0366
12.8239
17.4155
19.7868
21.9286
23.8796
25.6377
27.1999
28.5789
29.8016
30.8979
31.8915
32.795
33.6126
34.3466
35.0023
35.5899
36.1252
36.6259
37.1002
37.5313
37.8644
37.9888
37.8757
37.4289
36.6676
36.1296
35.6338
35.5132
35.3916
35.6793
36.3069
36.9186
13.4166
13.8359
14.3169
14.7046
15.0782
15.376
15.6352
15.8367
15.9982
16.1129
16.1918
16.2324
16.2386
16.213
16.1589
16.0785
15.9743
15.8519
15.7235
15.6243
15.651
15.7763
15.9199
16.055
16.1712
16.2633
16.3288
16.3653
16.3691
16.338
16.2679
16.1606
16.0053
15.8087
15.5529
15.2571
14.8828
14.4911
14.0042
13.5736
18.1141
18.5483
19.0478
19.4523
19.8427
20.1608
20.442
20.6677
20.8548
20.997
21.1039
21.1739
21.2091
21.2106
21.1806
21.1201
21.0307
20.9164
20.7893
20.6881
20.7224
20.8571
21.0028
21.132
21.2353
21.3088
21.3514
21.3613
21.3364
21.276
21.1773
21.0417
20.8598
20.6378
20.3586
20.0408
19.6484
19.2392
18.7333
18.2875
20.5447
21.0033
21.532
21.9611
22.3792
22.7273
23.0427
23.3059
23.5336
23.7195
23.8717
23.9893
24.0729
24.1216
24.1363
24.117
24.0639
23.98
23.8759
23.7889
23.8248
23.9486
24.0743
24.1759
24.2451
24.2796
24.2791
24.243
24.1709
24.0636
23.9199
23.7407
23.5177
23.2579
22.9436
22.5949
22.174
21.7396
21.2041
20.7336
22.7293
23.2058
23.756
24.2034
24.6448
25.0192
25.366
25.6644
25.9314
26.1603
26.3571
26.5213
26.6529
26.7494
26.8098
26.8329
26.8184
26.7683
26.6935
26.6298
26.6634
26.7672
26.8671
26.9378
26.9709
26.9651
26.9207
26.8386
26.7199
26.5671
26.3793
26.1574
25.8952
25.5997
25.2533
24.8773
24.4322
23.9787
23.4212
22.9327
24.7084
25.1872
25.7434
26.1958
26.6476
27.0361
27.402
27.7243
28.0194
28.2812
28.5144
28.7167
28.8876
29.0235
29.1221
29.1814
29.1999
29.1801
29.1329
29.092
29.1223
29.2052
29.2808
29.3236
29.3257
29.2855
29.2045
29.0845
28.9278
28.7378
28.5144
28.2599
27.9698
27.6499
27.2836
26.8925
26.4358
25.9764
25.4119
24.9205
26.4829
26.9476
27.4959
27.9411
28.3923
28.7852
29.1612
29.5007
29.8186
30.1076
30.3712
30.6059
30.8101
30.9795
31.1109
31.2009
31.2479
31.2538
31.2297
31.2066
31.2346
31.3004
31.3549
31.3739
31.3491
31.2795
31.167
31.0146
30.8254
30.6037
30.3503
30.0688
29.7559
29.4184
29.0412
28.6446
28.1873
27.7334
27.1754
26.697
28.0545
28.4939
29.0269
29.4597
29.9061
30.3018
30.6883
31.0443
31.3834
31.6975
31.9889
32.2529
32.4869
32.6861
32.8461
32.9629
33.0343
33.0616
33.0554
33.0447
33.0714
33.1252
33.1629
33.1616
33.1137
33.0183
32.8781
32.6967
32.4784
32.2278
31.947
31.6406
31.3061
30.9515
30.5631
30.1627
29.7086
29.2652
28.7203
28.2654
29.4402
29.851
30.3687
30.791
31.2359
31.6382
32.0366
32.4101
32.7698
33.1075
33.4245
33.715
33.9758
34.2011
34.3862
34.5259
34.6175
34.6619
34.669
34.6664
34.6927
34.7385
34.7637
34.7462
34.6788
34.5612
34.3966
34.1897
33.9451
33.6682
33.3621
33.032
32.6767
32.3042
31.9032
31.4949
31.0407
30.6059
30.0739
29.6453
30.67
31.054
31.5606
31.9779
32.4256
32.8365
33.2476
33.6378
34.0167
34.3759
34.7153
35.0292
35.3131
35.561
35.7669
35.9257
36.0336
36.0912
36.1076
36.1099
36.1361
36.1773
36.1936
36.1636
36.0804
35.9444
35.7594
35.5304
35.263
34.9631
34.6345
34.283
33.9084
33.5187
33.1042
32.6862
32.2281
31.7965
31.2733
30.869
31.7744
32.1348
32.6345
33.0502
33.5017
33.9216
34.3444
34.7496
35.1451
35.5229
35.8815
36.215
36.5182
36.7845
37.0076
37.1816
37.3021
37.3693
37.3921
37.3972
37.4238
37.4625
37.4728
37.4335
37.338
37.1872
36.9854
36.7383
36.4521
36.1327
35.785
35.4151
35.0235
34.6184
34.1917
33.764
33.3008
32.8692
32.351
31.9678
32.7744
33.1127
33.6071
34.0218
34.4767
34.9044
35.3372
35.7549
36.1645
36.5574
36.9318
37.2812
37.5999
37.8811
38.1176
38.3034
38.4338
38.5083
38.5356
38.5426
38.5695
38.6068
38.613
38.5665
38.4615
38.2993
38.0843
37.8227
37.5211
37.186
36.8227
36.4373
36.0316
35.6137
35.1764
34.7402
34.2726
33.8408
33.3265
32.9634
33.6805
33.9954
34.4831
34.896
35.3534
35.7873
36.2284
36.6566
37.0776
37.4829
37.8699
38.232
38.5631
38.8558
39.1029
39.298
39.4362
39.5169
39.5486
39.5579
39.585
39.6203
39.6224
39.5702
39.4577
39.2865
39.0612
38.7883
38.4745
38.1267
37.7507
37.3529
36.9356
36.5069
36.061
35.6179
35.147
34.7162
34.2068
33.8653
34.4938
34.7825
35.2617
35.6717
36.1304
36.5695
37.0175
37.4544
37.8847
38.3002
38.6974
39.0697
39.4104
39.7122
39.9677
40.1704
40.3154
40.4023
40.4397
40.4532
40.48
40.5113
40.5084
40.4504
40.3316
40.153
39.9196
39.6376
39.3142
38.9564
38.5702
38.1622
37.7353
37.2976
36.8445
36.3957
35.9227
35.4939
34.9918
34.6747
35.2141
35.4721
35.9396
36.3454
36.8046
37.2483
37.7024
38.147
38.5854
39.0094
39.415
39.7954
40.1438
40.4529
40.7153
40.9245
41.0761
41.1699
41.2146
41.2344
41.2605
41.2858
41.2761
41.212
41.0871
40.9023
40.6622
40.3731
40.042
39.676
39.2813
38.8645
38.4292
37.9836
37.524
37.0701
36.5959
36.1703
35.6783
35.3901
35.8413
36.0613
36.513
36.913
37.372
37.8199
38.2797
38.7316
39.1776
39.6092
40.0221
40.4095
40.7644
41.0795
41.3477
41.563
41.7212
41.8228
41.8765
41.9034
41.9287
41.9466
41.9289
41.8579
41.727
41.5365
41.2907
40.9957
40.658
40.2849
39.8827
39.458
39.0149
38.5616
38.0957
37.6371
37.1623
36.7414
36.2635
36.0111
36.379
36.5485
36.9778
37.3694
37.8272
38.2792
38.7448
39.2041
39.6575
40.0964
40.5162
40.9098
41.2704
41.591
41.8645
42.0855
42.2504
42.3602
42.4232
42.4574
42.4819
42.4923
42.4662
42.3879
42.2509
42.055
41.804
41.5035
41.16
40.7804
40.371
39.9386
39.4876
39.0265
38.554
38.0906
37.6158
37.2018
36.7435
36.5391
36.8307
36.9304
37.3284
37.7077
38.1624
38.6181
39.0899
39.5569
40.018
40.4643
40.8909
41.2905
41.6566
41.9822
42.2608
42.4874
42.6589
42.7768
42.8487
42.8893
42.9133
42.917
42.8827
42.7972
42.6541
42.453
42.197
41.8913
41.5421
41.156
40.7394
40.2991
39.8398
39.3702
38.8908
38.4224
37.949
37.545
37.1149
36.9771
37.2052
37.2063
37.5566
37.9188
38.3673
38.8262
39.3039
39.7789
40.2481
40.7023
41.1358
41.5416
41.9132
42.2438
42.5275
42.7595
42.9374
43.0628
43.1426
43.1886
43.2122
43.2103
43.1689
43.0764
42.9275
42.7211
42.4601
42.1491
41.794
41.4012
40.9768
40.528
40.0596
39.5809
39.0942
38.6207
38.1505
37.7597
37.3733
37.3307
37.5083
37.377
37.6563
37.9913
38.4299
38.89
39.3731
39.8562
40.3339
40.7963
41.2373
41.6496
42.0269
42.3626
42.6513
42.8887
43.0727
43.2049
43.2913
43.3418
43.3652
43.3587
43.3111
43.2125
43.0578
42.8462
42.5799
42.2633
41.9018
41.5017
41.069
40.6107
40.1325
39.644
39.1494
38.6713
38.2059
37.8378
37.5179
37.6049
37.7369
37.4415
37.6233
37.9156
38.3384
38.7965
39.2836
39.7741
40.2602
40.7311
41.1798
41.5991
41.9824
42.3237
42.6175
42.8599
43.0495
43.1876
43.2796
43.3338
43.357
43.3471
43.2941
43.19
43.0298
42.8129
42.541
42.2183
41.8497
41.4416
40.9999
40.5316
40.0429
39.5441
39.0417
38.5594
38.1047
37.7742
37.5474
37.7968
37.859
37.3876
37.453
37.6861
38.0825
38.5364
39.0251
39.5219
40.0155
40.4944
40.9507
41.3769
41.7664
42.113
42.4118
42.6592
42.8538
42.9968
43.0933
43.1504
43.1736
43.1609
43.1036
42.9946
42.8293
42.607
42.3294
42.0002
41.6244
41.2078
40.7566
40.278
39.779
39.27
38.7605
38.2763
37.8419
37.5651
37.4525
37.8823
37.8178
37.1891
37.1375
37.303
37.6644
38.1078
38.5962
39.0969
39.5964
40.0821
40.545
40.9773
41.3723
41.7238
42.0271
42.2787
42.4771
42.6241
42.724
42.7831
42.8065
42.7919
42.7313
42.6182
42.4485
42.2213
41.9381
41.6027
41.2198
40.7952
40.3351
39.847
39.3382
38.8201
38.3031
37.8232
37.4183
37.2055
37.2101
37.8054
37.5436
36.8076
36.6675
36.7737
37.1001
37.5289
38.0145
38.5158
39.0183
39.5077
39.9747
40.4111
40.8097
41.1645
41.4706
41.7247
41.9256
42.0747
42.1764
42.237
42.2606
42.2451
42.1826
42.067
41.8942
41.6633
41.3759
41.0356
40.6471
40.216
39.7488
39.2529
38.7362
38.2097
37.6897
37.2199
36.8478
36.6967
36.8021
37.5313
37.0838
36.2684
36.0652
36.1247
36.4207
36.8339
37.3139
37.8145
38.3169
38.8073
39.2754
39.7128
40.1121
40.4676
40.774
41.0281
41.2289
41.3778
41.4796
41.5405
41.5649
41.5498
41.4877
41.3717
41.1982
40.9661
40.677
40.3344
39.9432
39.5088
39.038
38.5379
38.0171
37.4858
36.9673
36.5099
36.1648
36.057
36.2193
37.0149
36.4087
35.5833
35.3695
35.4134
35.6959
36.0984
36.5723
37.0694
37.5683
38.0552
38.5199
38.9539
39.3498
39.7017
40.0044
40.2548
40.4519
40.5974
40.6965
40.7568
40.7824
40.7702
40.7115
40.599
40.4284
40.199
39.9122
39.5718
39.1824
38.7497
38.2802
37.7809
37.2604
36.7304
36.217
35.7692
35.4366
35.3417
35.5051
36.2874
35.7202
34.9135
34.7129
34.7569
35.0338
35.4279
35.8932
36.3827
36.8737
37.353
37.81
38.2363
38.6246
38.9686
39.2637
39.5062
39.6953
39.8335
39.9269
39.9851
40.0133
40.0072
39.956
39.8509
39.6877
39.4653
39.1854
38.8516
38.4686
38.0422
37.5787
37.0853
36.5704
36.0479
35.5448
35.1101
34.7922
34.7136
34.8917
35.6984
35.1674
34.4126
34.2441
34.2993
34.5755
34.9608
35.4136
35.8892
36.3669
36.833
37.2769
37.6904
38.0659
38.3974
38.68
38.91
39.0866
39.2127
39.2964
39.3507
39.3838
39.3885
39.3501
39.258
39.1076
38.8978
38.6307
38.3098
37.94
37.5268
37.077
36.5977
36.0975
35.59
35.1005
34.6774
34.3652
34.2841
34.4456
35.2263
35.0989
34.3378
34.1596
34.1974
34.4527
34.8142
35.242
35.6929
36.1495
36.5963
37.0224
37.4186
37.7777
38.0931
38.3598
38.5743
38.7351
38.8451
38.9146
38.9631
39.0038
39.0243
39.003
38.9277
38.7936
38.6004
38.3502
38.0469
37.6954
37.3014
36.8716
36.4135
35.9364
35.4527
34.9865
34.5836
34.2856
34.21
34.3635
35.1272
35.3744
34.6306
34.4571
34.4817
34.7142
35.0446
35.4383
35.8589
36.2876
36.7084
37.1101
37.4834
37.8209
38.1158
38.3634
38.5594
38.702
38.7933
38.845
38.8847
38.9362
38.9758
38.9739
38.9172
38.802
38.6285
38.3993
38.1183
37.7904
37.4213
37.0176
36.5868
36.138
35.6841
35.2424
34.8543
34.5533
34.4504
34.5361
35.1849
35.7458
35.0766
34.9462
34.9848
35.2121
35.5241
35.8953
36.2918
36.6959
37.0922
37.4699
37.8201
38.1355
38.4101
38.6384
38.8165
38.942
39.0163
39.0506
39.0804
39.1425
39.1992
39.2137
39.1734
39.0756
38.9209
38.7125
38.4541
38.1508
37.808
37.4323
37.0313
36.6138
36.1933
35.7826
35.418
35.1252
35.011
35.0481
35.6138
36.4263
35.7583
35.622
35.6398
35.8409
36.1247
36.4692
36.8397
37.219
37.5915
37.9467
38.2758
38.5715
38.828
39.0399
39.2032
39.3154
39.3773
39.3993
39.421
39.4899
39.5569
39.5819
39.553
39.4678
39.3276
39.1351
38.8944
38.6103
38.2882
37.9347
37.5576
37.1661
36.7735
36.3938
36.0583
35.7888
35.6925
35.7331
36.2933
36.7903
36.1603
36.0439
36.0682
36.2682
36.5457
36.881
37.2402
37.6074
37.9676
38.3106
38.6278
38.9126
39.1588
39.3615
39.5165
39.6215
39.677
39.6933
39.7102
39.7797
39.8496
39.8785
39.8544
39.7749
39.641
39.4557
39.2227
38.9468
38.6332
38.2885
37.9203
37.5379
37.155
36.786
36.4629
36.2082
36.1299
36.2018
36.8125
42.5862
50.3491
56.515
62.5218
67.6621
71.8058
75.114
77.7806
79.9602
81.7887
83.3849
84.8152
86.1176
87.3241
88.4646
89.5689
90.6667
91.7847
92.9451
94.1639
95.4495
96.8036
98.2231
99.7007
101.226
102.787
104.365
105.939
107.468
108.883
110.042
110.722
41.8993
49.3798
55.3507
61.2225
66.2927
70.4023
73.6918
76.3497
78.5292
80.3644
81.9676
83.4002
84.6932
85.885
87.0072
88.0905
89.1649
90.2583
91.3934
92.5854
93.8427
95.1674
96.5559
98.0008
99.4921
101.017
102.56
104.096
105.589
106.969
108.099
108.761
41.1294
48.3641
54.1516
59.8892
64.8904
68.9711
72.2508
74.9109
77.1019
78.9534
80.5697
82.0065
83.2939
84.4746
85.5804
86.6437
87.6967
88.7668
89.8764
91.0418
92.2716
93.5672
94.9251
96.3381
97.7959
99.2861
100.793
102.292
103.748
105.095
106.195
106.84
40.347
47.3474
52.9511
58.5507
63.4816
67.5355
70.8091
73.4765
75.6865
77.5616
79.1948
80.6387
81.9263
83.097
84.1891
85.2357
86.2683
87.316
88.4029
89.5438
90.7469
92.0143
93.3425
94.7237
96.1484
97.6039
99.0742
100.538
101.957
103.269
104.342
104.969
39.5024
46.2811
51.6992
57.157
62.0204
66.0581
69.3413
72.0331
74.2754
76.1814
77.8368
79.2929
80.5855
81.7526
82.8348
83.8658
84.881
85.9096
86.9736
88.0902
89.2681
90.5085
91.8079
93.1592
94.552
95.9739
97.4094
98.8372
100.222
101.501
102.545
103.155
38.6622
45.2201
50.4471
55.758
60.5541
64.5805
67.8777
70.5954
72.8712
74.8116
76.4932
77.9657
79.2677
80.4366
81.5121
82.5332
83.5333
84.543
85.5883
86.6838
87.8378
89.0526
90.3244
91.6454
93.0065
94.395
95.796
97.1889
98.5378
99.7844
100.801
101.394
37.752
44.0947
49.1214
54.2756
59.0036
63.0302
66.3623
69.1296
71.4574
73.4413
75.1549
76.6503
77.9676
79.1463
80.2228
81.2358
82.2242
83.2207
84.2466
85.3209
86.4527
87.6429
88.8881
90.1815
91.5122
92.8688
94.2369
95.5953
96.9113
98.1258
99.1154
99.6912
36.8462
42.9708
47.79
52.7806
57.4412
61.476
64.8485
67.6623
70.0368
72.0666
73.819
75.3433
76.6827
77.8744
78.9581
79.9705
80.9524
81.9351
82.9477
84.0055
85.1166
86.2839
87.504
88.7685
90.0693
91.394
92.7277
94.0523
95.3337
96.5165
97.4791
98.0388
35.8438
41.7511
46.3458
51.152
55.7339
59.7838
63.2222
66.1204
68.5772
70.6715
72.4715
74.0337
75.4016
76.617
77.7146
78.7334
79.7117
80.6905
81.6891
82.7293
83.8218
84.9673
86.1626
87.4017
88.6735
89.9676
91.27
92.5608
93.8101
94.9622
95.8985
96.4411
34.8286
40.5133
44.8776
49.4903
53.9935
58.0706
61.5859
64.5621
67.0857
69.2455
71.1056
72.7155
74.1232
75.3652
76.4828
77.5129
78.4993
79.4727
80.4653
81.4954
82.571
83.6967
84.8693
86.0804
87.323
88.5849
89.8534
91.1102
92.3249
93.4455
94.3552
94.8815
33.6491
39.116
43.2278
47.611
52.0034
56.0993
59.7184
62.8358
65.5006
67.7669
69.7022
71.3734
72.8273
74.1112
75.2579
76.3087
77.301
78.2825
79.2691
80.2866
81.3481
82.4549
83.604
84.7911
86.0048
87.2366
88.4741
89.6974
90.8794
91.9703
92.8539
93.3627
32.4009
37.6607
41.5156
45.6585
49.938
54.0728
57.821
61.0713
63.8392
66.209
68.2444
69.9936
71.5147
72.844
74.0286
75.104
76.1205
77.1037
78.093
79.1087
80.1582
81.2482
82.3773
83.5366
84.7212
85.9199
87.1212
88.3102
89.4581
90.517
91.3735
91.8653
30.8941
35.9497
39.5097
43.3468
47.4397
51.5628
55.451
58.9403
61.9743
64.5393
66.7034
68.5566
70.1513
71.5498
72.783
73.8999
74.9327
75.9395
76.9322
77.9398
78.9802
80.055
81.1619
82.2989
83.4551
84.6238
85.7954
86.9503
88.0643
89.0938
89.9242
90.3981
29.229
34.1028
37.3731
40.8891
44.786
48.9378
53.0337
56.7501
59.9439
62.6909
65.0387
67.0268
68.7388
70.2117
71.5112
72.6694
73.7495
74.7669
75.7724
76.7896
77.8238
78.8854
79.9755
81.0845
82.2109
83.3448
84.4763
85.5952
86.6763
87.6711
88.4725
88.9298
27.0738
31.7811
34.7131
37.8048
41.3582
45.3616
49.5727
53.699
57.4614
60.6029
63.1946
65.3794
67.2157
68.8077
70.1841
71.4158
72.5248
73.5879
74.611
75.6248
76.6563
77.7071
78.7757
79.8641
80.9613
82.065
83.1686
84.2527
85.2945
86.2616
87.0366
87.4736
24.5148
29.14
31.7854
34.4303
37.5842
41.5808
46.1796
50.6729
54.6065
58.1105
61.0836
63.5224
65.5851
67.3046
68.7993
70.096
71.2874
72.3727
73.4205
74.4605
75.4935
76.535
77.5907
78.6497
79.7152
80.78
81.8361
82.8799
83.891
84.8185
85.5607
85.9808
20.6952
25.3497
27.6161
29.6813
32.2187
35.5328
39.838
45.1705
50.6641
55.0394
58.5414
61.4203
63.7169
65.6647
67.2867
68.7138
69.9523
71.1171
72.2046
73.246
74.2839
75.3203
76.3544
77.3936
78.428
79.4612
80.4921
81.5006
82.4618
83.3639
84.0785
84.4752
15.8065
20.8442
23.3206
24.8373
26.4833
30.0017
35.4163
40.7997
45.6265
51.0003
55.4206
58.8205
61.623
63.8135
65.6653
67.1988
68.5804
69.7836
70.9102
72.0039
73.0543
74.0861
75.1116
76.1182
77.1159
78.1033
79.073
80.0317
80.9674
81.8187
82.4941
82.8744
6.43298
11.0681
11.6286
11.7675
9.34855
6.10563
12.0006
26.097
38.5361
45.2299
51.0541
55.673
58.9698
61.665
63.7553
65.5416
67.0052
68.3493
69.5553
70.6536
71.7189
72.7528
73.7553
74.7417
75.7038
76.6567
77.6053
78.5292
79.3943
80.2269
80.8713
81.2219
7.78995
5.95185
13.4969
14.7272
6.10481
15.0992
6.2523
4.59296
17.8945
37.0285
45.2965
51.1425
55.8349
59.0587
61.6524
63.6278
65.3572
66.7655
68.0302
69.2283
70.3245
71.3596
72.3585
73.3059
74.22
75.1135
75.9765
76.8312
77.6808
78.4394
79.0342
79.3687
12.0063
16.44
17.6851
17.4966
15.8271
12.6931
15.9484
17.898
13.9662
13.453
35.5409
45.3835
51.1583
55.7189
58.8279
61.3769
63.2719
64.9584
66.3877
67.5893
68.7145
69.7631
70.7361
71.6592
72.5286
73.3827
74.2309
75.0553
75.7934
76.5512
77.1054
77.3994
19.7793
24.1037
25.9323
26.6924
26.3142
24.5925
21.0807
16.6672
14.0948
18.2156
13.2602
34.3041
45.4254
51.2748
55.7227
58.6137
61.0683
62.8592
64.3767
65.7823
66.9769
68.0362
69.0107
69.8829
70.6779
71.4439
72.1603
72.8705
73.6159
74.2463
74.7339
75.0124
21.7357
26.6817
29.3762
31.3559
32.5368
32.7975
31.8545
29.1772
23.9102
19.7315
15.9235
20.2421
34.7063
45.1995
50.4737
54.9901
57.8194
60.2613
62.156
63.5441
64.7879
65.8824
66.8275
67.6616
68.3904
69.1115
69.8217
70.523
71.0678
71.7541
72.171
72.3899
22.4981
27.5259
30.4191
32.7331
34.437
35.5117
35.8963
35.3749
33.3281
28.3477
26.5695
29.8119
21.3906
32.8996
45.4076
50.1965
54.4882
57.0425
59.0627
60.9302
62.3439
63.4667
64.4162
65.1753
65.7624
66.3238
66.8095
67.278
67.8841
68.2934
68.6193
68.821
21.8537
27.0216
30.0753
32.6197
34.6237
36.0853
37.0128
37.4042
37.1572
35.7455
31.5635
28.4751
17.4149
27.0427
30.0531
43.3082
48.2102
52.6868
55.7011
57.3853
58.8575
60.072
60.9826
61.6663
62.1147
62.6387
63.1301
63.6686
63.8697
64.5719
64.6914
64.8269
20.4037
25.7016
28.8449
31.5205
33.7086
35.4139
36.6637
37.5017
37.9725
38.0466
37.3019
34.363
25.4159
28.2257
26.0418
30.5033
42.9057
46.7358
49.8304
52.982
54.9406
56.2047
57.1069
57.657
57.7883
57.9327
57.9691
57.9493
58.3283
58.1438
58.2271
58.2362
18.4989
23.8843
27.0519
29.7746
32.0502
33.897
35.3455
36.4525
37.2911
37.903
38.1606
37.307
33.163
31.1455
25.8748
22.1022
25.614
38.758
44.7866
46.3235
48.1397
49.6768
50.5041
50.8495
50.6605
50.6866
51.0242
51.0138
50.755
52.2043
51.0465
51.6031
16.3376
21.7039
24.7982
27.4681
29.7381
31.6488
33.2443
34.5809
35.738
36.7846
37.7016
38.2025
37.3494
32.568
26.2246
27.477
14.6477
20.3602
30.4273
37.9724
41.5552
43.4882
43.6268
44.2455
42.4902
42.0056
39.8079
39.9161
39.4839
37.4087
36.7003
35.1062
14.1459
19.3589
22.2782
24.796
26.9682
28.8569
30.5223
32.0281
33.4481
34.855
36.2632
37.5476
38.3306
37.5513
34.3933
28.8923
22.3442
8.27034
13.3205
26.8022
21.6086
24.421
26.1683
22.6748
27.1593
15.0721
25.7669
12.2655
42.13
21.5803
34.6791
19.3304
12.2052
17.1435
19.8119
22.1053
24.1116
25.9109
27.5738
29.1674
30.7586
32.4102
34.1576
35.9387
37.5328
38.4771
38.1977
34.9075
28.4654
16.624
26.1826
33.5404
17.6756
18.8598
30.1865
28.9789
34.2526
23.7352
34.6017
12.5525
31.4667
29.3751
17.4649
27.7762
10.7059
15.2977
17.6971
19.7466
21.5628
23.2388
24.849
26.4559
28.1133
29.8686
31.7639
33.798
35.8681
37.69
38.8289
38.6513
35.8435
30.5255
24.1378
29.6919
12.4787
28.2933
20.5651
27.6125
35.7074
31.0741
35.9464
28.4497
32.6176
29.9345
30.1388
30.1996
9.6005
13.9508
16.1222
17.967
19.6239
21.1893
22.7316
24.2993
25.9303
27.6593
29.5251
31.5608
33.7588
35.9909
37.9362
39.1127
38.9172
37.9237
33.2238
30.4519
27.3697
29.2405
28.7294
29.2671
30.2948
36.8023
36.576
38.6679
38.9721
37.1217
41.522
41.0352
9.01772
13.1809
15.1933
16.9069
18.4689
19.9666
21.4516
22.9537
24.4954
26.1036
27.8157
29.6802
31.7394
33.9827
36.2632
38.2353
39.3858
39.8772
38.516
37.7454
37.5623
35.1303
37.1401
38.5228
39.4407
42.138
42.1351
42.5517
42.8964
41.4902
43.8039
43.6963
8.85354
12.9319
14.8761
16.5444
18.0822
19.5606
21.0113
22.447
23.8795
25.3312
26.8384
28.4503
30.2244
32.2089
34.3933
36.6259
38.5461
39.9553
40.1766
40.2279
40.3298
39.1876
40.1102
41.0975
41.7337
42.7584
42.8019
42.7422
42.9327
42.1551
43.7213
43.7761
9.03491
13.1059
15.0554
16.7477
18.3162
19.8134
21.2532
22.638
23.9752
25.2849
26.5995
27.9619
29.4248
31.0493
32.8865
34.9276
37.0137
38.9164
40.0904
40.7708
41.1009
40.5409
40.8024
41.612
41.9421
42.2929
42.0641
41.9047