/*--------------------------------*- C++ -*----------------------------------*\
  =========                 |
  \\      /  F ield         | OpenFOAM: The Open Source CFD Toolbox
   \\    /   O peration     | Website:  https://openfoam.org
    \\  /    A nd           | Version:  6
     \\/     M anipulation  |
\*---------------------------------------------------------------------------*/
FoamFile
{
    version     2.0;
    format      ascii;
    class       volScalarField;
    location    "23";
    object      yPlus;
}
// * * * * * * * * * * * * * * * * * * * * * * * * * * * * * * * * * * * * * //

dimensions      [0 0 0 0 0 0 0];

internalField   uniform 0;

boundaryField
{
    inlet
    {
        type            calculated;
        value           uniform 0;
    }
    outlet
    {
        type            calculated;
        value           uniform 0;
    }
    roughCylinder
    {
        type            calculated;
        value           nonuniform List<scalar> 
3840
(
72.3681
50.6928
53.6884
62.012
68.4298
73.5414
77.6539
81.1149
84.1745
86.9543
89.5833
92.1035
94.6152
97.2144
99.9568
102.864
105.949
109.194
112.563
115.992
119.373
122.535
125.164
126.769
72.712
50.0626
52.2769
60.3331
66.693
71.7892
75.8875
79.3351
82.3646
85.1208
87.6583
90.0993
92.5289
95.0278
97.6642
100.478
103.456
106.591
109.844
113.156
116.423
119.478
122.019
123.569
62.4022
49.1794
50.8044
58.6589
64.954
70.0041
74.1153
77.5821
80.6179
83.286
85.7789
88.1405
90.4745
92.8878
95.4372
98.1372
101.008
104.029
107.17
110.366
113.519
116.47
118.924
120.419
77.5894
48.8551
49.375
56.9039
63.1579
68.2428
72.3761
75.8492
78.8431
81.5249
83.935
86.2235
88.4896
90.8093
93.2529
95.8699
98.6408
101.559
104.586
107.67
110.713
113.56
115.928
117.369
71.442
48.2558
47.8444
55.1607
61.3941
66.443
70.6114
74.12
77.1621
79.7601
82.1458
84.3756
86.5518
88.7976
91.1718
93.6784
96.3482
99.1579
102.082
105.057
107.993
110.742
113.028
114.417
59.8586
47.8862
46.4375
53.3055
59.4999
64.6432
68.8703
72.4144
75.3983
78.0593
80.3871
82.5553
84.6883
86.8533
89.1234
91.5643
94.1466
96.865
99.6832
102.553
105.386
108.037
110.243
111.581
76.7281
46.9412
44.7855
51.4292
57.677
62.786
67.0639
70.6497
73.7508
76.3277
78.6641
80.8078
82.8592
84.9657
87.1916
89.525
92.0124
94.6291
97.3529
100.124
102.857
105.417
107.547
108.836
60.4463
46.6455
43.3525
49.3967
55.5748
60.8621
65.2474
68.9262
71.9423
74.64
76.9503
79.0514
81.0968
83.1418
85.2625
87.5524
89.9669
92.506
95.132
97.805
100.442
102.912
104.967
106.208
70.4965
46.0836
41.5878
47.2192
53.5904
58.8506
63.3169
67.0346
70.2804
72.8949
75.24
77.3639
79.3404
81.3462
83.4583
85.6423
87.9675
90.4088
92.9502
95.5318
98.0777
100.463
102.447
103.642
68.7654
45.441
39.9462
44.8636
51.0567
56.6419
61.2991
65.2327
68.3434
71.1583
73.5195
75.6089
77.6256
79.5961
81.598
83.7666
86.0376
88.4174
90.8669
93.357
95.8127
98.1136
100.027
101.176
56.7918
43.7556
37.8585
42.0092
48.6868
54.2751
59.1012
63.0527
66.5936
69.3322
71.758
73.9324
75.8824
77.8312
79.8725
81.9328
84.1166
86.3989
88.7728
91.1779
93.5471
95.7686
97.6159
98.7185
60.4639
42.7646
35.7446
39.0357
45.2351
51.4767
56.6476
61.0882
64.3955
67.4542
69.9645
72.1081
74.1607
76.106
78.018
80.098
82.2502
84.4913
86.7782
89.0959
91.3785
93.5183
95.2966
96.3542
53.2963
41.942
33.4177
34.6367
41.9891
48.2872
53.9144
58.3139
62.4394
65.4454
68.0599
70.3843
72.3677
74.3093
76.3307
78.2938
80.3572
82.4945
84.715
86.9542
89.1543
91.2175
92.9328
93.9446
57.9119
41.2175
30.6794
30.2492
36.1773
44.1948
50.4687
56.0232
59.7413
63.2804
66.0969
68.3863
70.5669
72.5524
74.4063
76.438
78.5006
80.6269
82.7636
84.918
87.0338
89.0168
90.6637
91.631
50.7627
39.4602
27.3983
21.4988
30.8071
38.756
46.6191
52.0255
57.3807
60.9161
63.9062
66.5383
68.6351
70.633
72.7058
74.6017
76.5677
78.5728
80.6538
82.7353
84.7711
86.6805
88.2663
89.1875
32.1995
33.2997
23.5027
18.7255
10.2742
30.3715
40.4098
48.9262
53.6219
58.2053
61.6216
64.197
66.6442
68.7655
70.5958
72.6341
74.6445
76.6852
78.6834
80.6803
82.6323
84.4599
85.9766
86.8531
2.77794
12.917
8.09869
15.842
4.2383
18.2619
32.5487
41.9456
50.5231
55.1326
58.8845
62.1124
64.447
66.5828
68.8141
70.6764
72.5684
74.4528
76.4079
78.3372
80.2093
81.9643
83.4208
84.2485
9.44273
11.5441
14.2904
16.4704
17.5809
6.82659
21.1427
36.543
43.9611
51.3317
55.9986
59.126
62.0714
64.4879
66.3293
68.4563
70.4704
72.4633
74.3321
76.173
77.9587
79.6274
81.0103
81.7927
4.27385
1.98772
4.1888
12.3493
19.2598
19.2751
20.534
10.4494
39.3034
46.5589
52.1575
56.595
59.4061
61.8011
64.3759
66.2437
68.0793
69.8527
71.6972
73.4758
75.1783
76.7731
78.0965
78.8235
8.77128
11.6339
11.7234
11.2655
4.82088
21.5027
10.454
11.3579
20.5018
40.4072
47.9448
52.3246
56.2613
59.2854
61.169
63.5288
65.6522
67.6508
69.3955
71.0756
72.6849
74.184
75.4245
76.1048
11.534
20.5529
22.6099
17.6795
10.582
9.24108
17.3099
22.6088
23.1737
28.4035
41.6279
48.8987
52.7101
55.6086
58.9255
60.848
62.6246
64.2992
66.0562
67.6817
69.1998
70.6213
71.8033
72.4154
11.5135
21.8389
26.6949
29.2753
24.5352
26.9799
26.4119
10.3117
14.8484
14.2458
32.7684
41.3403
47.8979
52.3056
54.2296
57.1497
59.6191
61.7309
63.3577
64.8645
66.2775
67.588
68.6706
69.236
11.5571
22.2061
27.9727
31.0906
32.0548
26.7051
19.8367
7.72651
18.824
16.6357
14.8531
36.0641
42.2053
46.3676
51.5711
53.6119
55.3094
56.8715
58.5851
60.0576
61.3663
62.5937
63.6251
64.0965
11.7291
20.4237
26.8308
31.4221
33.3166
32.9898
23.9362
18.1804
23.9165
8.97973
23.3249
5.41547
33.0854
41.4154
43.125
47.6754
51.0504
53.6864
55.2425
56.5578
57.7432
58.8374
59.7403
60.1745
11.3772
18.6171
25.0672
29.7665
32.8359
33.4972
32.7907
21.5678
13.3503
28.4581
18.9739
23.0044
9.97962
27.3308
40.1839
42.3224
44.1638
45.1989
46.9835
48.3312
49.4025
50.4249
51.3147
51.5709
8.78771
16.7963
23.1179
27.82
30.9887
32.8229
32.2861
31.8341
20.0004
27.0213
16.4984
24.5949
24.2769
20.7587
13.4689
29.3322
35.2731
40.9427
42.7059
43.8413
44.7319
45.4837
46.1874
46.6024
7.35764
15.3464
20.9913
25.2219
28.4
30.3565
31.3943
30.3512
31.3717
20.4916
22.6022
17.3481
17.6007
25.881
24.515
2.59523
19.7393
15.8392
18.4511
20.6804
21.2623
23.991
25.0373
23.3558
5.18127
13.4846
18.0284
21.5755
24.4801
26.7499
27.9709
29.329
29.0729
31.6
21.187
12.9272
21.6231
19.3619
5.53478
9.3769
27.0062
28.1264
21.3049
8.00523
23.0084
30.7735
31.07
11.4623
4.90136
12.1802
14.7607
16.9173
19.2178
21.4776
23.695
25.4445
28.3091
29.1024
32.1262
22.5813
29.7423
3.16749
25.8442
27.5316
12.3345
20.8762
29.0106
23.4522
30.2376
11.8561
7.89973
23.3656
3.87379
11.5187
12.4903
13.0953
14.2134
16.3055
18.8685
22.0335
24.6146
28.3682
29.7803
32.5433
24.1719
13.3987
27.7872
24.6679
10.3322
17.3059
28.6482
17.9414
30.4371
30.4302
16.9628
25.8553
3.29749
11.5577
11.6821
11.8981
12.3661
14.097
16.7266
19.2702
22.5411
25.1009
28.8657
30.5938
32.6877
26.6785
10.1944
20.6046
29.1076
23.799
30.1361
29.7439
18.5202
31.8785
24.126
35.197
3.03528
11.1874
11.6315
11.7564
12.3768
14.5955
17.0086
19.2874
21.1356
23.8273
26.0309
29.4825
31.3158
32.497
30.4491
19.4749
30.9485
21.9409
31.2395
23.2262
30.5627
15.1056
11.5917
30.0132
1.99205
9.48009
11.5739
11.557
12.6393
15.4265
18.0052
19.9524
21.7888
23.0986
25.1064
26.9811
30.0182
31.8452
32.2839
32.2213
29.0418
22.6465
18.4581
14.1001
13.4814
12.0121
11.9238
12.5856
2.37841
10.0884
11.6634
11.7847
14.1773
17.1511
19.4501
21.281
22.6332
23.9799
24.8217
26.2175
27.8471
30.2542
32.2034
31.9567
31.2523
30.7969
30.4677
30.2594
29.8254
29.5737
29.5275
29.7077
3.29854
11.3959
11.7829
13.2255
16.334
18.9955
21.0902
22.7267
24.1138
25.033
25.8637
26.2786
27.1546
28.5569
30.2863
31.7095
31.452
30.4002
28.8043
27.1352
25.6704
24.7826
24.6367
24.7862
3.50124
11.7846
12.9009
15.8807
18.6839
20.9974
22.8717
24.4244
25.6389
26.6319
27.1397
27.4703
27.525
27.9337
29.0524
29.9953
30.2689
29.8718
28.8931
27.6449
26.4052
25.7318
25.7442
26.0533
3.92246
11.9601
15.5561
18.3844
20.8024
22.8853
24.6571
26.151
27.4113
28.2934
28.8713
28.973
28.8465
28.6101
28.6109
29.117
29.2984
28.7804
27.3993
25.4814
23.6285
22.6263
22.7014
23.1751
5.78266
14.8792
18.075
20.5655
22.7772
24.7369
26.4529
27.9551
29.1993
30.1647
30.6941
30.854
30.5738
30.0422
29.5243
29.1173
28.7947
28.2073
27.0446
25.4414
23.8899
23.15
23.4269
24.0518
7.91077
16.9306
20.0416
22.4062
24.5366
26.4679
28.2057
29.7502
31.074
32.0602
32.6855
32.8521
32.6036
31.9688
31.0811
30.1964
29.3278
28.3233
26.9036
25.0743
23.3175
22.4789
22.848
23.5928
10.333
18.7981
21.7403
24.0589
26.1927
28.1477
29.9398
31.5608
32.9433
34.0239
34.7019
34.9712
34.7695
34.124
33.1289
31.8921
30.565
29.1649
27.5698
25.7839
24.2024
23.5531
24.0397
24.8524
11.4263
13.1868
15.1344
16.4558
17.3893
17.7497
17.7186
17.2967
16.6802
15.8999
15.1004
14.2839
13.5341
12.8493
12.2708
11.8096
11.5241
11.5493
11.0975
10.9025
10.9018
11.0958
11.5387
11.5988
11.8117
12.2632
12.8389
13.5207
14.267
15.0791
15.8735
16.648
17.2575
17.6732
17.6944
17.3309
16.3829
15.0764
13.0697
11.5856
20.0709
20.8782
21.4591
21.7503
21.9325
21.9392
21.9113
21.7966
21.6864
21.5432
21.4212
21.2916
21.1797
21.0718
20.9805
20.9
20.8344
20.7836
20.7497
20.7309
20.7303
20.7479
20.7807
20.8305
20.8948
20.9742
21.0646
21.1713
21.2823
21.4108
21.5318
21.6736
21.7822
21.8956
21.9202
21.9127
21.7235
21.4341
20.838
20.0419
22.8758
23.3979
23.803
24.0317
24.2163
24.2964
24.3625
24.368
24.3662
24.3308
24.2952
24.2489
24.2065
24.1636
24.1258
24.0933
24.0659
24.0454
24.0302
24.0209
24.0202
24.0281
24.0419
24.0611
24.0872
24.1185
24.1551
24.1969
24.2383
24.2835
24.3182
24.3526
24.3533
24.3468
24.2793
24.1981
24.0113
23.7807
23.3721
22.8448
25.1802
25.6493
26.075
26.3426
26.5835
26.7306
26.8651
26.9516
27.032
27.085
27.1339
27.1704
27.2054
27.2354
27.2627
27.2874
27.3074
27.3232
27.3326
27.3354
27.3346
27.3303
27.3191
27.3018
27.2803
27.2542
27.2256
27.1944
27.1583
27.1207
27.071
27.0169
26.9356
26.8482
26.7127
26.5643
26.3223
26.0525
25.6254
25.1517
27.3306
27.7743
28.2273
28.5234
28.8228
29.0364
29.2508
29.4174
29.5845
29.7245
29.8617
29.9844
30.102
30.2094
30.3075
30.3941
30.4663
30.5221
30.5586
30.5743
30.5734
30.5557
30.5172
30.4596
30.3856
30.2975
30.1979
30.0892
29.9705
29.8469
29.7086
29.5677
29.3998
29.2325
29.0173
28.8029
28.5026
28.2051
27.7509
27.3043
29.328
29.7608
30.2611
30.6
30.9703
31.2504
31.5447
31.7898
32.0399
32.2626
32.483
32.6863
32.8813
33.0608
33.2247
33.3685
33.4884
33.5805
33.6412
33.668
33.6668
33.6378
33.5749
33.4806
33.3587
33.2131
33.0477
32.8667
32.6705
32.4661
32.2448
32.0211
31.7704
31.5246
31.2297
30.9491
30.5782
30.2386
29.7373
29.303
31.1879
31.6217
32.1808
32.5573
32.9918
33.3294
33.6919
34.0039
34.3237
34.6158
34.9051
35.1751
35.4335
35.6717
35.8885
36.0779
36.2354
36.3558
36.4348
36.4694
36.4681
36.431
36.3495
36.2267
36.067
35.8756
35.6571
35.4173
35.1576
34.8863
34.5962
34.3032
33.9828
33.6701
33.3072
32.9692
32.5342
32.1575
31.5979
31.1634
32.8789
33.3153
33.922
34.3293
34.8132
35.1972
35.6118
35.9768
36.35
36.696
37.0374
37.358
37.6636
37.9451
38.2004
38.4227
38.6067
38.7468
38.8386
38.8783
38.8769
38.8344
38.7402
38.5975
38.411
38.1867
37.9294
37.6463
37.3392
37.0174
36.6749
36.328
35.9541
35.5886
35.1737
34.7895
34.3052
33.8978
33.2908
32.8545
34.3362
34.7618
35.4126
35.8399
36.3638
36.7823
37.2374
37.6421
38.0557
38.4417
38.8213
39.1783
39.5171
39.8286
40.1099
40.3539
40.5552
40.708
40.8077
40.8508
40.8494
40.8035
40.7012
40.5457
40.342
40.0957
39.8124
39.4991
39.1587
38.8004
38.4197
38.0328
37.6185
37.2132
36.7577
36.339
35.8149
35.3877
34.7366
34.3111
35.468
35.899
36.5823
37.0331
37.5885
38.0387
38.5262
38.9643
39.4097
39.8269
40.2353
40.6191
40.9816
41.3138
41.6124
41.8703
42.0824
42.2428
42.3472
42.3922
42.3908
42.343
42.2359
42.0729
41.8584
41.598
41.2974
40.9633
40.5991
40.2139
39.8043
39.3862
38.9401
38.5013
38.0134
37.563
37.0075
36.5566
35.8734
35.4424
36.2341
36.6654
37.3966
37.8709
38.4637
38.9449
39.4658
39.935
40.4101
40.8547
41.2878
41.6935
42.0748
42.4228
42.734
43.0018
43.2211
43.3866
43.494
43.5404
43.5391
43.4899
43.3797
43.2117
42.9899
42.7198
42.4064
42.0566
41.6736
41.2663
40.8319
40.3862
39.9103
39.4405
38.9192
38.4377
37.8448
37.3705
36.6393
36.2079
36.5756
37.0449
37.8252
38.3415
38.9757
39.4965
40.0536
40.5572
41.0628
41.5353
41.9923
42.4187
42.817
43.1787
43.5006
43.7765
44.0016
44.171
44.2811
44.3288
44.3275
44.277
44.1644
43.9923
43.7648
43.4866
43.1626
42.7988
42.3988
41.9708
41.5125
41.039
40.5324
40.0282
39.4706
38.9495
38.315
37.7987
37.0184
36.5491
36.473
37.0001
37.8504
38.4226
39.1097
39.6788
40.2786
40.8213
41.3606
41.863
42.3449
42.7925
43.2078
43.583
43.9153
44.1988
44.4294
44.6027
44.7153
44.7648
44.7635
44.7114
44.5963
44.4204
44.1874
43.9015
43.5672
43.19
42.773
42.3239
41.8405
41.337
40.7967
40.2533
39.653
39.0834
38.3962
37.8237
36.9733
36.446
35.8963
36.4901
37.4297
38.0765
38.8284
39.4555
40.1051
40.6925
41.2696
41.8049
42.3141
42.7845
43.218
43.6077
43.951
44.2429
44.4795
44.6572
44.7727
44.8241
44.8228
44.7689
44.6508
44.4707
44.2318
43.9377
43.5922
43.2006
42.7653
42.2934
41.7828
41.2464
40.6683
40.0802
39.4301
38.8025
38.0505
37.4033
36.4637
35.8698
34.861
35.5046
36.5086
37.2482
38.0731
38.7693
39.4738
40.1118
40.7307
41.3028
41.8424
42.3384
42.7925
43.1988
43.5551
43.8569
44.101
44.284
44.4035
44.4572
44.4559
44.3998
44.278
44.0925
43.8462
43.5422
43.1839
42.7757
42.3199
41.8224
41.2814
40.7082
40.0885
39.4497
38.7447
38.0481
37.2231
36.4836
35.4796
34.8362
33.4762
34.0712
35.0912
35.8917
36.7865
37.5581
38.3203
39.0122
39.6755
40.2876
40.8606
41.3852
41.863
42.2889
42.6608
42.975
43.2287
43.4188
43.5431
43.5999
43.5987
43.5395
43.4129
43.2204
42.9647
42.6483
42.2745
41.8468
41.3674
40.8414
40.2673
39.6542
38.9902
38.2978
37.5354
36.7638
35.869
35.0689
34.0494
33.4547
31.8608
32.2987
33.2478
34.0425
34.9659
35.793
36.6103
37.3512
38.0566
38.7071
39.3135
39.8678
40.3709
40.8184
41.2083
41.5371
41.8023
42.0011
42.1315
42.192
42.1908
42.1281
41.9955
41.7944
41.5272
41.1964
40.8049
40.3557
39.8513
39.2958
38.6884
38.0372
37.3315
36.5905
35.7736
34.947
34.0243
33.2303
32.2817
31.8441
30.1081
30.318
31.1122
31.8223
32.7098
33.5414
34.3841
35.1592
35.8941
36.5738
37.2069
37.7863
38.3119
38.7797
39.1869
39.5305
39.8076
40.0157
40.1527
40.2171
40.2161
40.1495
40.0105
39.8004
39.5214
39.1762
38.7673
38.2983
37.7716
37.1913
36.5577
35.8779
35.1433
34.369
33.5274
32.6969
31.8104
31.1011
30.3067
30.0958
28.2136
28.2283
28.8414
29.4222
30.2216
31.0047
31.8283
32.6049
33.3462
34.0358
34.6807
35.2735
35.8127
36.2936
36.7132
37.0677
37.3542
37.5698
37.7121
37.7799
37.7789
37.7093
37.565
37.3477
37.0597
36.7037
36.283
35.801
35.2611
34.668
34.0231
33.334
32.5939
31.8189
30.997
30.2152
29.4171
28.8365
28.2231
28.2051
26.2158
26.1599
26.6269
27.1024
27.8033
28.5167
29.2908
30.0387
30.7649
31.4452
32.0855
32.6771
33.2175
33.7013
34.1243
34.4827
34.7729
34.9917
35.1368
35.2065
35.2056
35.1342
34.9876
34.7672
34.4757
34.1161
33.6921
33.2077
32.667
32.0754
31.4356
30.7564
30.0322
29.2863
28.5142
27.8025
27.1025
26.6276
26.1585
26.213
24.5038
24.5033
24.8884
25.3283
25.9566
26.6177
27.3369
28.0428
28.7332
29.3877
30.0075
30.5832
31.1111
31.585
32.0005
32.3531
32.639
32.8549
32.9984
33.0676
33.0667
32.9959
32.851
32.6336
32.3464
31.9927
31.5764
31.1019
30.5738
29.9981
29.379
28.7258
28.0376
27.3337
26.6168
25.9571
25.3303
24.89
24.5045
24.501
23.8029
23.8885
24.238
24.6754
25.2496
25.8653
26.5215
27.1707
27.809
28.4218
29.0045
29.5483
30.0479
30.4974
30.892
31.2271
31.4991
31.7047
31.8412
31.907
31.9062
31.8389
31.7009
31.494
31.2208
30.8845
30.4892
30.0393
29.5395
28.9959
28.4139
27.8022
27.1659
26.5192
25.8661
25.2524
24.6807
24.2429
23.8949
23.8043
24.3289
24.4378
24.7712
25.183
25.7058
26.2619
26.8488
27.4351
28.0166
28.5783
29.114
29.6151
30.0762
30.4914
30.8562
31.1663
31.4181
31.6082
31.7343
31.7947
31.7939
31.7316
31.6039
31.4121
31.1589
30.8475
30.4817
30.0656
29.6041
29.103
28.5676
28.0065
27.4263
26.8418
26.2579
25.7041
25.1842
24.7731
24.4407
24.3296
25.1914
25.2906
25.616
25.998
26.4865
26.9987
27.5447
28.091
28.6352
29.1609
29.6631
30.1331
30.5658
30.9558
31.2986
31.5901
31.8267
32.0055
32.1238
32.1801
32.1791
32.1209
32.0009
31.8206
31.5824
31.2896
30.9457
30.5548
30.1214
29.6512
29.1492
28.6238
28.0807
27.5357
26.9918
26.482
25.9962
25.6159
25.2907
25.1915
72.2325
50.5734
53.7048
62.0142
68.4322
73.5444
77.6592
81.1212
84.1791
86.9602
89.5891
92.1095
94.6203
97.22
99.9623
102.87
105.955
109.2
112.57
115.999
119.381
122.543
125.172
126.778
71.6404
49.9935
52.2556
60.3396
66.6997
71.7972
75.8926
79.3388
82.3703
85.1253
87.663
90.104
92.535
95.0336
97.6703
100.484
103.463
106.598
109.851
113.163
116.43
119.487
122.027
123.578
71.4914
49.7366
50.8371
58.6609
64.9559
70.0056
74.1197
77.5892
80.6228
83.2923
85.7855
88.1475
90.4798
92.8938
95.4432
98.1434
101.015
104.035
107.177
110.374
113.528
116.479
118.933
120.428
70.7594
49.2206
49.3719
56.9125
63.1664
68.253
72.3835
75.8526
78.8492
81.5296
83.9398
86.2279
88.4961
90.8155
93.2593
95.8766
98.6482
101.567
104.594
107.678
110.721
113.569
115.937
117.379
69.9097
48.8429
47.9083
55.1647
61.3964
66.4427
70.6134
74.1276
77.1676
79.7669
82.1531
84.3836
86.5578
88.8037
91.1781
93.6848
96.3542
99.1647
102.089
105.065
108.002
110.75
113.037
114.426
68.2595
48.2839
46.4452
53.3154
59.5102
64.6566
68.8822
72.4187
75.4045
78.0647
80.3922
82.5597
84.6946
86.8601
89.1303
91.5714
94.1544
96.8731
99.691
102.562
105.394
108.047
110.253
111.592
67.6102
47.8372
44.9053
51.433
57.6784
62.7825
67.0613
70.6566
73.7571
76.3349
78.6715
80.8164
82.8665
84.972
87.1981
89.5318
92.0187
94.6358
97.3612
100.132
102.866
105.427
107.557
108.847
66.6352
47.2703
43.3706
49.4042
55.5854
60.8797
65.2661
68.9326
71.9491
74.6459
76.9564
79.0565
81.1024
83.1492
85.27
87.5599
89.9755
92.515
95.1399
97.8139
100.451
102.922
104.977
106.219
56.7429
45.7254
41.6696
47.2311
53.5945
58.844
63.3079
67.0416
70.2872
72.9028
75.2475
77.3723
79.3498
81.3529
83.4653
85.6494
87.9739
90.416
92.9589
95.5411
98.0877
100.474
102.458
103.654
68.197
45.4241
39.9812
44.8626
51.0649
56.6645
61.3265
65.2379
68.3511
71.1646
73.5267
75.6158
77.6298
79.6043
81.6061
83.7749
86.0473
88.4278
90.8761
93.3672
95.8227
98.1249
100.038
101.187
60.1061
44.3465
37.9693
42.0525
48.6977
54.2664
59.0838
63.0676
66.6013
69.3413
71.766
73.9397
75.8948
77.8384
79.8799
81.9404
84.1232
86.4057
88.7829
91.1886
93.5588
95.7808
97.6283
98.7316
55.2942
42.7834
35.7276
39.0006
45.2445
51.505
56.6909
61.0812
64.403
67.461
69.9724
72.118
74.163
76.1148
78.027
80.1073
82.2616
84.5039
86.7881
89.1075
91.3898
93.5314
95.3095
96.3669
53.1404
41.8631
33.3982
34.6907
41.9949
48.279
53.8716
58.3501
62.4517
65.4563
68.0694
70.3901
72.3836
74.3176
76.339
78.302
80.3636
82.5008
84.7265
86.9659
89.1674
91.2315
92.947
93.9599
59.2121
41.6405
30.7697
30.2566
36.214
44.2149
50.5748
55.9985
59.7464
63.2878
66.1056
68.4003
70.5684
72.5618
74.4161
76.4486
78.5148
80.6429
82.7748
84.9312
87.047
89.0322
90.6781
91.6461
51.4045
39.802
27.5521
21.447
30.8448
38.8442
46.4601
52.0743
57.3977
60.9301
63.918
66.5415
68.6512
70.6428
72.7155
74.611
76.5731
78.5779
80.6676
82.7491
84.7867
86.6966
88.2829
89.2052
32.2482
33.3894
23.5002
18.7519
9.70442
30.2631
40.7509
48.9259
53.6377
58.2152
61.6316
64.2175
66.6549
68.7763
70.6062
72.6459
74.663
76.7069
78.6965
80.6962
82.6478
84.4786
85.9931
86.8707
7.01781
13.1531
8.27378
6.34589
7.97446
13.6102
32.164
41.981
50.5226
55.149
58.9009
62.1134
64.4448
66.5932
68.8263
70.688
72.5729
74.4552
76.4247
78.3538
80.2286
81.9839
83.4413
84.2701
5.07204
6.97593
8.53774
16.84
17.7278
19.584
19.2884
36.3021
44.0195
51.3533
56.0072
59.1499
62.1245
64.5037
66.3406
68.4697
70.4935
72.494
74.3478
76.1929
77.9774
79.6508
81.0303
81.8139
6.80307
12.1837
4.98701
11.2286
9.73539
8.39445
10.9664
15.7942
39.4143
46.5823
52.1917
56.6109
59.3369
61.807
64.3918
66.2574
68.0869
69.8505
71.7187
73.4966
75.2031
76.7978
78.1227
78.8508
9.55402
11.7527
9.35731
15.2678
14.4196
21.8406
21.5084
21.2436
19.9156
40.3752
47.9511
52.3171
56.4252
59.3168
61.1825
63.5487
65.6713
67.6958
69.4152
71.1015
72.708
74.2145
75.4489
76.1313
11.326
20.5536
22.7747
18.1193
24.0806
6.11339
18.4531
22.8379
13.981
29.1793
41.6201
48.9947
52.5009
55.6008
58.9449
60.8565
62.6597
64.2885
66.0854
67.7095
69.2339
70.6542
71.8389
72.4522
11.8755
21.8948
26.7498
29.2825
25.4371
27.459
14.166
10.1273
16.1507
4.0768
33.3463
41.258
48.2252
52.3636
54.2515
57.1972
59.5914
61.8043
63.3841
64.8996
66.3065
67.6293
68.701
69.2691
11.9758
22.2511
28.0151
31.1564
32.0061
26.8623
23.0233
8.01628
10.9873
21.9795
8.48566
36.1085
41.9641
46.3521
51.5924
53.5847
55.4457
56.8287
58.6283
60.0992
61.4193
62.6431
63.6791
64.1529
11.7903
20.4836
26.8919
31.4841
33.4081
32.9972
24.1492
13.2295
17.5891
25.1129
14.4066
9.75698
32.8486
41.4864
43.1679
47.8086
50.926
53.8595
55.2832
56.6064
57.7782
58.8957
59.7765
60.2114
11.1051
18.6568
25.1215
29.8319
32.898
33.5958
32.7773
21.6793
4.83589
17.8236
10.1665
23.7956
15.9889
27.587
40.2356
42.2748
44.2647
44.9644
47.0487
48.4238
49.507
50.5162
51.415
51.6964
8.77286
16.8234
23.1604
27.8717
31.0543
32.8785
32.3952
31.9785
19.987
13.6794
10.8879
18.6794
24.9423
13.5614
13.3108
28.8025
36.2216
41.6259
42.8206
43.8071
44.7666
45.5855
46.3039
46.5902
7.38349
15.3689
21.0229
25.2624
28.4455
30.4178
31.4355
30.3753
31.5615
20.3934
27.2421
11.0889
18.33
19.1198
25.0851
18.383
10.6529
12.1701
18.9458
22.4207
21.7244
24.249
23.8302
23.6274
5.17715
13.4867
18.0366
21.5924
24.5092
26.7826
28.0252
29.4052
29.0777
31.6618
21.494
7.64838
12.2108
13.2732
24.8999
26.7588
26.2322
4.62972
6.37918
29.2164
22.967
30.7918
24.3737
24.6413
4.89056
12.2057
14.7478
16.9086
19.2192
21.4967
23.7186
25.471
28.3858
29.1817
32.185
22.5163
11.5772
27.1179
4.63917
19.5023
12.5741
28.0092
21.8407
7.89509
30.0467
7.55231
31.2274
31.4416
3.88214
12.1295
12.4986
13.0715
14.1978
16.3072
18.8918
22.0763
24.6415
28.4018
29.8277
32.6025
23.82
15.5647
28.078
24.406
11.9924
17.4758
31.3147
26.8268
30.7688
19.188
6.72146
31.6559
3.32552
11.2429
11.6803
11.8944
12.3698
14.1174
16.7463
19.2853
22.5786
25.1464
28.91
30.6529
32.7082
26.5298
12.6956
18.1054
12.8039
27.724
24.4307
23.3938
18.9514
7.66734
13.8114
20.2793
2.98314
11.2316
11.6183
11.7504
12.396
14.6292
17.0407
19.319
21.1545
23.8467
26.0597
29.5125
31.3633
32.543
30.2487
18.3552
19.3474
5.47832
22.6081
26.1747
11.3914
8.48
9.36863
31.174
2.00109
9.49605
11.5144
11.7283
12.6801
15.4695
18.0375
19.975
21.8155
23.1265
25.1318
27.0117
30.0319
31.912
32.3432
32.3922
27.6537
23.3344
17.0679
14.3314
13.0131
12.4803
12.2417
12.7047
2.40598
10.1324
11.3902
11.5243
14.22
17.1956
19.4844
21.311
22.656
23.9998
24.8427
26.238
27.8714
30.2811
32.249
32.0109
31.4316
30.96
30.5553
30.3577
29.9799
29.6469
29.6422
29.7821
3.32976
11.4449
11.6394
13.3154
16.3928
19.0377
21.1225
22.7526
24.1398
25.0587
25.8876
26.301
27.1741
28.5872
30.3109
31.7652
31.4879
30.505
28.8728
27.1896
25.7888
24.8951
24.7499
24.8773
3.46158
11.542
12.9579
15.9434
18.7325
21.0353
22.9025
24.4522
25.6635
26.655
27.1626
27.4931
27.546
27.9558
29.0763
30.0339
30.3126
29.9653
28.9702
27.7389
26.4915
25.8182
25.8167
26.1385
3.96558
12.0497
15.6256
18.4381
20.8447
22.9197
24.6859
26.1765
27.4366
28.3187
28.8962
28.9971
28.87
28.6319
28.6305
29.1484
29.3282
28.8414
27.4553
25.5249
23.6881
22.6883
22.7652
23.2179
5.8288
14.9292
18.1213
20.6062
22.8125
24.7677
26.48
27.9809
29.224
30.189
30.7185
30.8789
30.5982
30.0655
29.5447
29.1386
28.8201
28.2477
27.0815
25.4794
23.9197
23.1733
23.4455
24.0784
7.9679
16.9796
20.0853
22.4436
24.5689
26.4964
28.2315
29.7749
31.0989
32.0854
32.711
32.8777
32.6295
31.9935
31.1031
30.2171
29.3454
28.3468
26.927
25.0893
23.3342
22.4919
22.8607
23.6016
10.3582
18.8334
21.7726
24.0888
26.2207
28.1741
29.9649
31.5858
32.9681
34.049
34.7274
34.9974
34.7961
34.1499
33.1527
31.9126
30.5823
29.1814
27.5827
25.7956
24.209
23.553
24.0417
24.858
71.0204
68.754
73.1089
60.5962
76.2636
66.6555
67.6144
68.6685
56.4401
59.1139
12.6428
48.6547
19.9589
19.1663
16.5548
13.1427
15.0025
13.734
13.5944
13.4043
13.4106
13.5009
14.3078
12.9586
16.5588
16.1396
9.37414
20.6332
30.3268
6.61638
46.9575
60.3
70.3219
66.8391
60.3108
62.5326
61.7798
57.5081
75.0755
70.1395
50.0754
47.6841
46.748
44.6478
43.6396
41.106
40.2327
38.3772
37.0115
35.4269
34.1037
33.5008
33.0611
32.1171
31.6977
31.3468
30.8271
30.6137
30.3904
30.2741
30.2733
30.4
30.5549
30.9865
31.138
31.7048
32.4084
32.8068
33.1575
34.5554
34.8838
36.8228
38.418
39.8753
41.3187
43.1692
44.5306
46.6387
47.8567
49.9307
54.256
52.6847
52.2264
50.7332
50.1728
48.8335
48.2429
47.0843
46.4895
45.525
44.9196
44.0375
43.5072
42.9057
42.4251
41.9642
41.6534
41.3693
41.1909
41.086
41.0862
41.1871
41.3836
41.6205
41.9911
42.4314
42.8606
43.5046
44.0989
44.9014
45.5263
46.4968
47.0926
48.2604
48.8442
50.1835
50.7459
52.2202
52.6823
54.2628
62.6801
61.1781
60.6644
59.2232
58.5746
57.2529
56.5435
55.3821
54.6678
53.6943
53.0225
52.2351
51.6284
51.0277
50.533
50.1056
49.7532
49.4917
49.3062
49.2043
49.2042
49.3068
49.4866
49.7612
50.0963
50.5303
51.0304
51.6267
52.2347
53.0282
53.6964
54.6636
55.3749
56.5353
57.248
58.5692
59.2195
60.655
61.1746
62.6719
69.0857
67.5361
66.9392
65.476
64.7557
63.4375
62.6613
61.5184
60.7388
59.7812
59.0482
58.2663
57.6306
57.0232
56.5168
56.0751
55.7269
55.454
55.2692
55.1674
55.1674
55.2682
55.4556
55.7223
56.076
56.5169
57.0196
57.6287
58.269
59.0477
59.7781
60.7348
61.5145
62.658
63.4348
64.7524
65.4727
66.9334
67.5326
69.0795
74.1794
72.5922
71.9172
70.446
69.6508
68.344
67.4983
66.3714
65.5383
64.5892
63.8236
63.0433
62.3872
61.7744
61.2578
60.8135
60.4552
60.1824
59.9943
59.8927
59.8926
59.9943
60.1808
60.4559
60.8119
61.256
61.7734
62.3862
63.0425
63.8224
64.5871
65.5356
66.3681
67.4951
68.3404
69.6472
70.4418
71.9118
72.5879
74.1728
78.2452
76.6436
75.8892
74.4268
73.5663
72.2766
71.3815
70.2659
69.4003
68.4533
67.6684
66.8862
66.2192
65.6025
65.0795
64.631
64.2708
63.9939
63.805
63.703
63.7029
63.8045
63.9939
64.2693
64.6301
65.0786
65.6011
66.2178
66.8849
67.6666
68.4511
69.3975
70.2629
71.3782
72.273
73.563
74.4222
75.8854
76.6382
78.2411
81.6674
80.0559
79.2443
77.7869
76.8827
75.5986
74.673
73.5584
72.6726
71.7226
70.9238
70.1372
69.4603
68.8387
68.3091
67.8562
67.4907
67.2112
67.0191
66.9154
66.9152
67.0189
67.2103
67.4902
67.8553
68.3079
68.8374
69.4588
70.1355
70.9219
71.7204
72.6699
73.5556
74.6696
75.5954
76.8788
77.7829
79.2401
80.0508
81.6633
84.7112
83.0695
82.228
80.7581
79.8297
78.5387
77.5934
76.4729
75.5709
74.6149
73.8031
73.01
72.3231
71.6948
71.1577
70.6987
70.3278
70.0431
69.8472
69.7401
69.74
69.8468
70.0426
70.327
70.6978
71.1565
71.6934
72.3215
73.0082
73.8011
74.6127
75.5683
76.4701
77.5902
78.5354
79.8259
80.7543
82.2234
83.0652
84.7058
87.5279
85.8308
84.9816
83.4851
82.5412
81.236
80.2732
79.1426
78.2244
77.2591
76.4335
75.6311
74.9332
74.2963
73.7505
73.2842
72.9063
72.616
72.4149
72.3036
72.3034
72.4146
72.6154
72.9056
73.2832
73.7493
74.2949
74.9316
75.6293
76.4314
77.2568
78.2218
79.1397
80.2702
81.2325
82.5377
83.4809
84.9776
85.8257
87.5234
90.1739
88.4379
87.5718
86.0523
85.089
83.7675
82.7859
81.6414
80.7063
79.7281
78.8879
78.0738
77.3636
76.7165
76.1608
75.686
75.3006
75.0036
74.7969
74.6805
74.6803
74.7965
75.003
75.2998
75.685
76.1595
76.715
77.3619
78.0719
78.8858
79.7257
80.7036
81.6386
82.7827
83.7641
85.0852
86.0483
87.5675
88.433
90.1692
92.7429
90.9426
90.0815
88.5202
87.55
86.2005
85.2059
84.0411
83.0908
82.0966
81.2417
80.4144
79.6913
79.0332
78.4671
77.9834
77.59
77.2862
77.0735
76.9518
76.9517
77.0732
77.2856
77.5892
77.9823
78.4658
79.0317
79.6896
80.4125
81.2395
82.0942
83.088
84.0381
85.2026
86.197
87.5462
88.516
90.0771
90.9376
92.7381
95.3107
93.443
92.5881
90.985
90.0056
88.6293
87.6184
86.4343
85.4664
84.4566
83.5855
82.7447
82.0081
81.3385
80.7617
80.2688
79.8675
79.5568
79.3382
79.2112
79.211
79.3378
79.5561
79.8666
80.2678
80.7604
81.337
82.0063
82.7428
83.5832
84.4541
85.4636
86.4313
87.615
88.6257
90.0015
90.9808
92.5835
93.4384
95.3052
97.9584
96.0301
95.1751
93.5324
92.54
91.1368
90.1076
88.9029
87.9162
86.8892
86.0011
85.1455
84.3947
83.7128
83.1248
82.6224
82.2126
81.895
81.6705
81.5383
81.5381
81.6701
81.8943
82.2117
82.6212
83.1234
83.7112
84.3929
85.1435
85.9987
86.8866
87.9133
88.8997
90.1042
91.1331
92.5359
93.5281
95.1704
96.0251
97.953
100.752
98.758
97.9029
96.2166
95.2105
93.7764
92.7278
91.4997
90.4923
89.446
88.5393
87.6675
86.9013
86.2058
85.6056
85.0928
84.6743
84.3493
84.1189
83.9816
83.9814
84.1184
84.3486
84.6734
85.0917
85.6042
86.2042
86.8991
87.6654
88.537
89.4433
90.4896
91.4965
92.7242
93.7727
95.2063
96.2123
97.8981
98.7531
100.746
103.723
101.652
100.8
99.0631
98.0428
96.5739
95.5037
94.2488
93.2195
92.1512
91.2241
90.334
89.5502
88.8403
88.2267
87.7026
87.2744
86.9418
86.7054
86.5627
86.5627
86.7046
86.9414
87.2736
87.7013
88.2251
88.8386
89.5485
90.3319
91.2215
92.1486
93.2165
94.2458
95.5001
96.5698
98.0382
99.0584
100.795
101.646
103.718
106.868
104.72
103.866
102.078
101.038
99.5333
98.4374
97.1548
96.0997
95.0079
94.058
93.148
92.3454
91.6189
90.9911
90.4546
90.0163
89.6753
89.4321
89.285
89.2846
89.4317
89.6745
90.0155
90.4534
90.9895
91.6172
92.3433
93.1455
94.0551
95.005
96.0963
97.1513
98.4339
99.5294
101.033
102.073
103.86
104.715
106.862
110.174
107.946
107.086
105.246
104.183
102.642
101.518
100.205
99.1218
98.0049
97.0302
96.0985
95.276
94.5322
93.8882
93.339
92.8897
92.5401
92.2903
92.1379
92.1375
92.2899
92.5393
92.8889
93.3379
93.887
94.5303
95.2736
96.0962
97.0274
98.0017
99.1185
100.201
101.514
102.637
104.179
105.241
107.081
107.941
110.168
113.603
111.296
110.427
108.535
107.446
105.867
104.712
103.368
102.256
101.112
100.111
99.1573
98.313
97.5507
96.8905
96.3274
95.8666
95.5081
95.2516
95.0941
95.0937
95.2508
95.5073
95.8659
96.3263
96.889
97.5488
98.3107
99.1546
100.109
101.109
102.252
103.365
104.708
105.863
107.441
108.53
110.422
111.29
113.597
117.093
114.707
113.827
111.883
110.767
109.15
107.963
106.588
105.444
104.274
103.246
102.268
101.402
100.621
99.9442
99.3668
98.8943
98.5263
98.2631
98.1006
98.1006
98.2624
98.5256
98.8932
99.3654
99.9424
100.619
101.4
102.266
103.243
104.27
105.441
106.584
107.959
109.145
110.762