/*--------------------------------*- C++ -*----------------------------------*\
  =========                 |
  \\      /  F ield         | OpenFOAM: The Open Source CFD Toolbox
   \\    /   O peration     | Website:  https://openfoam.org
    \\  /    A nd           | Version:  6
     \\/     M anipulation  |
\*---------------------------------------------------------------------------*/
FoamFile
{
    version     2.0;
    format      ascii;
    class       surfaceScalarField;
    location    "40";
    object      phi;
}
// * * * * * * * * * * * * * * * * * * * * * * * * * * * * * * * * * * * * * //

dimensions      [0 3 -1 0 0 0 0];

internalField   nonuniform List<scalar> 
5598
(
4.67771e-07
6.20099e-13
1.60589e-12
4.67773e-07
-9.58609e-13
-1.29408e-12
3.36169e-13
-3.10664e-13
4.48218e-07
3.8583e-12
3.75287e-14
4.48221e-07
-5.75946e-12
1.47154e-12
1.92149e-12
-1.53173e-12
6.28427e-07
8.03767e-12
2.25831e-13
6.28432e-07
-1.30487e-11
1.81194e-12
5.05418e-12
-2.06061e-12
8.28325e-07
1.08064e-11
1.27941e-12
8.28332e-07
-1.83281e-11
-1.63959e-12
7.58047e-12
3.4456e-13
1.05554e-06
9.57501e-12
2.64139e-12
1.05555e-06
-1.74526e-11
-8.26698e-12
7.94219e-12
5.61978e-12
1.31855e-06
5.41389e-12
3.14675e-12
1.31856e-06
-1.16865e-11
-1.46472e-11
6.33447e-12
1.15033e-11
1.62539e-06
5.65756e-13
1.33085e-12
1.6254e-06
-4.47457e-12
-1.64989e-11
3.96215e-12
1.51766e-11
1.9846e-06
-3.30805e-12
-2.38573e-12
1.98461e-06
1.11837e-12
-1.36348e-11
2.23227e-12
1.60313e-11
2.40614e-06
-6.05995e-12
-7.01279e-12
2.40615e-06
4.97389e-12
-1.00984e-11
1.11643e-12
1.71235e-11
2.90096e-06
-7.63649e-12
-1.12428e-11
2.90096e-06
7.2847e-12
-6.93115e-12
3.72516e-13
1.81836e-11
3.48107e-06
-7.54148e-12
-1.41833e-11
3.48107e-06
7.4603e-12
-1.41762e-12
9.59876e-14
1.56069e-11
4.15857e-06
-6.46135e-12
-1.81944e-11
4.15857e-06
6.43091e-12
1.24325e-12
3.99275e-14
1.69565e-11
4.9411e-06
-4.64526e-12
-2.14908e-11
4.9411e-06
4.21391e-12
8.10151e-12
4.3318e-13
1.3397e-11
5.83809e-06
-2.09122e-12
-3.18486e-11
5.83805e-06
1.41317e-12
4.0944e-11
6.78438e-13
-9.09396e-12
6.85544e-06
-3.88034e-14
-7.27671e-11
6.85535e-06
3.27633e-14
1.00655e-10
3.18715e-15
-2.78851e-11
6.85541e-06
2.01609e-12
-7.29939e-11
6.85531e-06
-1.33568e-12
1.009e-10
-6.85138e-13
-2.7904e-11
5.83786e-06
4.55461e-12
-3.20135e-11
5.83783e-06
-4.12538e-12
4.10565e-11
-4.35214e-13
-9.04168e-12
4.94072e-06
6.35071e-12
-2.15272e-11
4.94071e-06
-6.3785e-12
8.21159e-12
1.80115e-14
1.33194e-11
4.15812e-06
7.44718e-12
-1.82392e-11
4.15812e-06
-7.38519e-12
1.36908e-12
-7.2601e-14
1.6871e-11
3.48059e-06
7.59966e-12
-1.42161e-11
3.48059e-06
-7.27179e-12
-1.18445e-12
-3.34657e-13
1.53968e-11
2.90059e-06
6.07039e-12
-1.12756e-11
2.9006e-06
-4.97882e-12
-6.68782e-12
-1.09841e-12
1.79635e-11
2.40581e-06
3.35481e-12
-7.12295e-12
2.40581e-06
-1.11946e-12
-9.87771e-12
-2.24352e-12
1.7002e-11
1.98429e-06
-5.06953e-13
-2.44799e-12
1.9843e-06
4.44874e-12
-1.33595e-11
-3.94909e-12
1.58066e-11
1.62507e-06
-5.39226e-12
1.26394e-12
1.62508e-06
1.1735e-11
-1.64082e-11
-6.35065e-12
1.51448e-11
1.31821e-06
-9.61209e-12
3.17649e-12
1.31822e-06
1.75718e-11
-1.46254e-11
-7.96832e-12
1.14496e-11
1.05521e-06
-1.08775e-11
2.67148e-12
1.05522e-06
1.84481e-11
-8.22156e-12
-7.57913e-12
5.54997e-12
8.28044e-07
-8.08199e-12
1.28202e-12
8.28051e-07
1.30949e-11
-1.5484e-12
-5.02061e-12
2.65639e-13
6.28221e-07
-3.8818e-12
2.41906e-13
6.28227e-07
5.75385e-12
1.89828e-12
-1.87706e-12
-2.14293e-12
4.48082e-07
-6.24845e-13
3.19762e-14
4.48085e-07
9.53353e-13
1.52842e-12
-3.28334e-13
-1.56558e-12
4.67645e-07
1.59886e-12
4.67648e-07
-1.27836e-12
-3.2032e-13
7.10997e-07
1.92293e-12
2.49804e-12
7.11e-07
-2.67258e-12
-1.46494e-12
7.50497e-13
-1.03281e-12
1.15942e-06
8.87762e-12
-1.64714e-12
1.15942e-06
-1.28172e-11
6.24067e-12
3.98807e-12
-4.6638e-12
1.52398e-06
1.75981e-11
-1.78063e-12
1.52399e-06
-2.75492e-11
8.25174e-12
1.00509e-11
-6.54527e-12
1.91854e-06
2.27705e-11
2.11809e-12
1.91855e-06
-3.76934e-11
-1.50573e-12
1.5053e-11
-6.5823e-13
2.36401e-06
2.00507e-11
7.49425e-12
2.36402e-06
-3.49031e-11
-2.13389e-11
1.49919e-11
1.38295e-11
2.87588e-06
1.14193e-11
1.04542e-11
2.87589e-06
-2.26272e-11
-3.88904e-11
1.1338e-11
2.84484e-11
3.46806e-06
1.56597e-12
6.49682e-12
3.46807e-06
-8.99484e-12
-4.2257e-11
7.54e-12
3.57877e-11
4.15474e-06
-6.23971e-12
-2.59016e-12
4.15475e-06
1.9057e-12
-3.45284e-11
4.42139e-12
3.71531e-11
4.95145e-06
-1.15605e-11
-1.35955e-11
4.95146e-06
9.08572e-12
-2.45643e-11
2.53602e-12
3.81982e-11
5.87397e-06
-1.44626e-11
-2.26608e-11
5.87397e-06
1.32568e-11
-1.61137e-11
1.24653e-12
3.88047e-11
6.93787e-06
-1.41606e-11
-2.8406e-11
6.93788e-06
1.35136e-11
-2.99058e-12
6.76347e-13
3.14139e-11
8.15755e-06
-1.20253e-11
-3.3937e-11
8.15755e-06
1.14855e-11
2.99824e-12
5.56694e-13
3.09566e-11
9.54597e-06
-8.44945e-12
-3.66063e-11
9.54596e-06
7.46123e-12
1.54211e-11
9.94293e-13
2.12038e-11
1.11271e-05
-3.8308e-12
-4.75777e-11
1.11271e-05
2.644e-12
6.2651e-11
1.19267e-12
-1.50716e-11
1.29358e-05
-7.08676e-14
-9.3522e-11
1.29358e-05
5.87543e-14
1.34157e-10
7.20614e-15
-4.06208e-11
1.29358e-05
3.69426e-12
-9.38011e-11
1.29358e-05
-2.50413e-12
1.34436e-10
-1.20005e-12
-4.06285e-11
1.1127e-05
8.28195e-12
-4.78019e-11
1.1127e-05
-7.30803e-12
6.28157e-11
-9.85308e-13
-1.50111e-11
9.54574e-06
1.1795e-11
-3.66278e-11
9.54574e-06
-1.13837e-11
1.56344e-11
-4.30226e-13
2.10047e-11
8.15718e-06
1.39776e-11
-3.40532e-11
8.15718e-06
-1.34172e-11
3.25709e-12
-5.80234e-13
3.07979e-11
6.9374e-06
1.43981e-11
-2.85394e-11
6.9374e-06
-1.32271e-11
-2.52512e-12
-1.185e-12
3.10548e-11
5.87355e-06
1.15775e-11
-2.27654e-11
5.87355e-06
-9.07973e-12
-1.56031e-11
-2.51182e-12
3.83686e-11
4.95104e-06
6.3324e-12
-1.38711e-11
4.95105e-06
-1.91433e-12
-2.40693e-11
-4.43476e-12
3.79443e-11
4.15434e-06
-1.45035e-12
-2.75166e-12
4.15435e-06
8.96797e-12
-3.39465e-11
-7.53351e-12
3.66965e-11
3.46762e-06
-1.13836e-11
6.39312e-12
3.46764e-06
2.27327e-11
-4.20968e-11
-1.13655e-11
3.57047e-11
2.8754e-06
-2.01341e-11
1.05616e-11
2.87541e-06
3.51487e-11
-3.88975e-11
-1.50332e-11
2.8339e-11
2.36353e-06
-2.29144e-11
7.5751e-12
2.36354e-06
3.79434e-11
-2.12478e-11
-1.50483e-11
1.36733e-11
1.91812e-06
-1.76934e-11
2.11146e-12
1.91813e-06
2.76493e-11
-1.25427e-12
-9.97406e-12
-8.5917e-13
1.52366e-06
-8.91375e-12
-1.77064e-12
1.52367e-06
1.27992e-11
8.49587e-12
-3.89716e-12
-6.73439e-12
1.15919e-06
-1.92704e-12
-1.66576e-12
1.15919e-06
2.65372e-12
6.38e-12
-7.27945e-13
-4.72986e-12
7.10838e-07
2.48251e-12
7.10841e-07
-1.44141e-12
-1.0422e-12
9.35026e-07
2.99341e-12
2.94173e-12
9.35029e-07
-4.02961e-12
-9.11375e-13
1.04144e-12
-2.03528e-12
1.71622e-06
1.25783e-11
-4.71887e-12
1.71622e-06
-1.78434e-11
1.32785e-11
5.33653e-12
-8.69603e-12
2.23009e-06
2.443e-11
-5.28477e-12
2.2301e-06
-3.75833e-11
1.76343e-11
1.32957e-11
-1.24947e-11
2.77912e-06
3.13506e-11
2.74804e-12
2.77913e-06
-5.11652e-11
-2.47476e-13
1.99984e-11
-2.58782e-12
3.39913e-06
2.77294e-11
1.38822e-11
3.39914e-06
-4.71251e-11
-3.77946e-11
1.95913e-11
2.38853e-11
4.11177e-06
1.59934e-11
2.05532e-11
4.11179e-06
-3.03615e-11
-6.99182e-11
1.45498e-11
4.93911e-11
4.93634e-06
2.47138e-12
1.41174e-11
4.93636e-06
-1.22853e-11
-7.46515e-11
9.96949e-12
6.05878e-11
5.89267e-06
-8.31124e-12
-1.71731e-12
5.89268e-06
2.41445e-12
-6.08985e-11
6.01879e-12
6.26839e-11
7.00258e-06
-1.56353e-11
-2.1174e-11
7.00259e-06
1.20576e-11
-4.25194e-11
3.66313e-12
6.37683e-11
8.2887e-06
-1.96117e-11
-3.67983e-11
8.2887e-06
1.7659e-11
-2.73714e-11
2.00929e-12
6.42288e-11
9.77388e-06
-1.92376e-11
-4.66519e-11
9.77388e-06
1.80388e-11
-4.68551e-12
1.2397e-12
5.13705e-11
1.14799e-05
-1.63365e-11
-5.44449e-11
1.14799e-05
1.52463e-11
5.22174e-12
1.11298e-12
4.92591e-11
1.34268e-05
-1.144e-11
-5.64801e-11
1.34268e-05
9.88408e-12
2.38826e-11
1.56472e-12
3.263e-11
1.56483e-05
-5.25241e-12
-6.85073e-11
1.56483e-05
3.60877e-12
8.913e-11
1.65275e-12
-2.06214e-11
1.81921e-05
-9.83636e-14
-1.21966e-10
1.81921e-05
7.94889e-14
1.77763e-10
1.17071e-14
-5.57672e-11
1.81921e-05
5.06423e-12
-1.2232e-10
1.81921e-05
-3.42117e-12
1.78094e-10
-1.6573e-12
-5.57604e-11
1.56482e-05
1.12098e-11
-6.88082e-11
1.56481e-05
-9.68251e-12
8.93693e-11
-1.54308e-12
-2.05567e-11
1.34265e-05
1.60693e-11
-5.65243e-11
1.34265e-05
-1.5105e-11
2.42191e-11
-9.90641e-13
3.2327e-11
1.14795e-05
1.90369e-11
-5.46635e-11
1.14795e-05
-1.79224e-11
5.65725e-12
-1.14179e-12
4.9009e-11
9.77326e-06
1.95292e-11
-4.68754e-11
9.77326e-06
-1.76181e-11
-3.94812e-12
-1.93071e-12
5.08062e-11
8.28816e-06
1.56586e-11
-3.70023e-11
8.28816e-06
-1.20452e-11
-2.6543e-11
-3.63306e-12
6.35453e-11
7.00205e-06
8.43704e-12
-2.16668e-11
7.00206e-06
-2.42706e-12
-4.16952e-11
-6.03313e-12
6.33695e-11
5.89214e-06
-2.31615e-12
-2.02063e-12
5.89216e-06
1.22604e-11
-5.99894e-11
-9.96686e-12
6.20079e-11
4.93579e-06
-1.59491e-11
1.40111e-11
4.9358e-06
3.05081e-11
-7.44364e-11
-1.45816e-11
6.04263e-11
4.11117e-06
-2.7846e-11
2.07703e-11
4.11118e-06
4.74588e-11
-6.99964e-11
-1.9639e-11
4.92327e-11
3.39852e-06
-3.15442e-11
1.40246e-11
3.39853e-06
5.15055e-11
-3.76791e-11
-1.99892e-11
2.36569e-11
2.77858e-06
-2.456e-11
2.72459e-12
2.77859e-06
3.77252e-11
1.93864e-13
-1.31911e-11
-2.92248e-12
2.22968e-06
-1.2623e-11
-5.2993e-12
2.22969e-06
1.78246e-11
1.80685e-11
-5.21842e-12
-1.27875e-11
1.71592e-06
-2.9967e-12
-4.75996e-12
1.71593e-06
4.00318e-12
1.35083e-11
-1.00915e-12
-8.7781e-12
9.34831e-07
2.91764e-12
9.34835e-07
-8.81602e-13
-2.03981e-12
1.21562e-06
4.11308e-12
3.0737e-12
1.21563e-06
-5.43157e-12
2.14218e-13
1.32974e-12
-3.30408e-12
2.2563e-06
1.61109e-11
-8.77571e-12
2.25631e-06
-2.25667e-11
2.1901e-11
6.5506e-12
-1.33453e-11
2.93388e-06
3.08121e-11
-9.75176e-12
2.93389e-06
-4.684e-11
2.90101e-11
1.62111e-11
-1.94918e-11
3.64792e-06
3.94551e-11
3.44125e-12
3.64793e-06
-6.36475e-11
1.51892e-12
2.44278e-11
-5.09958e-12
4.45239e-06
3.51132e-11
2.16523e-11
4.4524e-06
-5.8596e-11
-5.75786e-11
2.3733e-11
3.58843e-11
5.37637e-06
2.05332e-11
3.31305e-11
5.37638e-06
-3.77615e-11
-1.07192e-10
1.74607e-11
7.41052e-11
6.44504e-06
3.46966e-12
2.40321e-11
6.44506e-06
-1.54507e-11
-1.13119e-10
1.21804e-11
8.9174e-11
7.68421e-06
-1.02443e-11
8.74544e-14
7.68422e-06
2.8896e-12
-9.19799e-11
7.51115e-12
9.20035e-11
9.12231e-06
-1.95792e-11
-2.99588e-11
9.12231e-06
1.49714e-11
-6.31532e-11
4.7175e-12
9.32336e-11
1.07889e-05
-2.46412e-11
-5.40789e-11
1.07889e-05
2.20078e-11
-3.9984e-11
2.7062e-12
9.41591e-11
1.27142e-05
-2.42231e-11
-6.94075e-11
1.27142e-05
2.25149e-11
-6.16779e-12
1.7608e-12
7.56286e-11
1.49274e-05
-2.05844e-11
-8.01308e-11
1.49274e-05
1.89187e-11
8.01962e-12
1.69438e-12
7.2171e-11
1.74555e-05
-1.44232e-11
-8.09377e-11
1.74555e-05
1.22393e-11
3.24314e-11
2.1952e-12
4.85564e-11
2.03425e-05
-6.70291e-12
-9.41574e-11
2.03424e-05
4.57632e-12
1.16896e-10
2.13841e-12
-2.2738e-11
2.365e-05
-1.27013e-13
-1.57239e-10
2.36499e-05
1.0034e-13
2.25627e-10
1.71823e-14
-6.83367e-11
2.365e-05
6.46165e-12
-1.5769e-10
2.36499e-05
-4.34235e-12
2.26032e-10
-2.1378e-12
-6.83193e-11
2.03423e-05
1.41313e-11
-9.45552e-11
2.03423e-05
-1.19902e-11
1.17237e-10
-2.1612e-12
-2.26761e-11
1.74551e-05
2.02713e-11
-8.10321e-11
1.74551e-05
-1.87386e-11
3.29089e-11
-1.56626e-12
4.81584e-11
1.49267e-05
2.39972e-11
-8.0474e-11
1.49267e-05
-2.23744e-11
8.66391e-12
-1.65747e-12
7.18141e-11
1.27134e-05
2.45439e-11
-6.97225e-11
1.27134e-05
-2.19579e-11
-5.12071e-12
-2.61129e-12
7.48165e-11
1.07882e-05
1.96103e-11
-5.44312e-11
1.07882e-05
-1.49551e-11
-3.87988e-11
-4.68038e-12
9.32297e-11
9.12163e-06
1.04014e-11
-3.07328e-11
9.12164e-06
-2.90443e-12
-6.19606e-11
-7.52655e-12
9.27053e-11
7.68355e-06
-3.2783e-12
-4.11531e-13
7.68356e-06
1.54274e-11
-9.07296e-11
-1.21781e-11
9.11384e-11
6.44434e-06
-2.04816e-11
2.39561e-11
6.44435e-06
3.7947e-11
-1.12866e-10
-1.74941e-11
8.89105e-11
5.3756e-06
-3.52604e-11
3.34857e-11
5.37561e-06
5.90118e-11
-1.07385e-10
-2.37848e-11
7.39108e-11
4.45161e-06
-3.96946e-11
2.18706e-11
4.45163e-06
6.40719e-11
-5.74772e-11
-2.44133e-11
3.56116e-11
3.64724e-06
-3.09734e-11
3.39786e-12
3.64725e-06
4.70252e-11
2.16256e-12
-1.60851e-11
-5.56722e-12
2.93335e-06
-1.61643e-11
-9.80619e-12
2.93337e-06
2.25535e-11
2.96546e-11
-6.41097e-12
-1.98781e-11
2.25592e-06
-4.1162e-12
-8.84814e-12
2.25593e-06
5.40081e-12
2.22281e-11
-1.28883e-12
-1.34273e-11
1.21538e-06
3.04022e-12
1.21539e-06
2.53719e-13
-3.30193e-12
1.56852e-06
5.45324e-12
2.89877e-12
1.56853e-06
-7.08973e-12
1.92349e-12
1.6564e-12
-4.85833e-12
2.84246e-06
1.98742e-11
-1.36727e-11
2.84247e-06
-2.75558e-11
3.17887e-11
7.80266e-12
-1.84372e-11
3.70713e-06
3.74228e-11
-1.5022e-11
3.70714e-06
-5.63494e-11
4.19296e-11
1.91527e-11
-2.7246e-11
4.60891e-06
4.78744e-11
4.26154e-12
4.60893e-06
-7.64344e-11
3.5157e-12
2.88494e-11
-7.97996e-12
5.62154e-06
4.29007e-11
3.06822e-11
5.62155e-06
-7.04849e-11
-8.05479e-11
2.78919e-11
4.98054e-11
6.78334e-06
2.54589e-11
4.81079e-11
6.78336e-06
-4.55793e-11
-1.50275e-10
2.04067e-11
1.02232e-10
8.12643e-06
4.65218e-12
3.63137e-11
8.12645e-06
-1.88141e-11
-1.57133e-10
1.44079e-11
1.20946e-10
9.68342e-06
-1.22066e-11
2.82202e-12
9.68343e-06
3.40109e-12
-1.26981e-10
8.99891e-12
1.24323e-10
1.14902e-05
-2.37276e-11
-4.01325e-11
1.14902e-05
1.81443e-11
-8.54544e-11
5.71923e-12
1.25766e-10
1.35843e-05
-2.99732e-11
-7.49981e-11
1.35843e-05
2.67617e-11
-5.29523e-11
3.30171e-12
1.28092e-10
1.6004e-05
-2.95296e-11
-9.74592e-11
1.6004e-05
2.74127e-11
-6.7013e-12
2.18208e-12
1.04239e-10
1.8787e-05
-2.51664e-11
-1.11941e-10
1.8787e-05
2.29157e-11
1.19323e-11
2.28608e-12
1.00098e-10
2.1968e-05
-1.77114e-11
-1.10499e-10
2.1968e-05
1.48187e-11
4.06043e-11
2.90656e-12
6.99665e-11
2.56021e-05
-8.32666e-12
-1.25013e-10
2.5602e-05
5.67317e-12
1.43607e-10
2.668e-12
-1.85938e-11
2.97663e-05
-1.59483e-13
-1.99842e-10
2.97662e-05
1.23539e-13
2.7389e-10
2.40833e-14
-7.397e-11
2.97662e-05
8.02608e-12
-2.00413e-10
2.97662e-05
-5.38867e-12
2.74398e-10
-2.66022e-12
-7.39515e-11
2.56018e-05
1.73549e-11
-1.25538e-10
2.56018e-05
-1.45169e-11
1.44086e-10
-2.86282e-12
-1.85399e-11
2.19675e-05
2.48027e-11
-1.1067e-10
2.19675e-05
-2.26927e-11
4.12443e-11
-2.15143e-12
6.94775e-11
1.87862e-05
2.92752e-11
-1.12431e-10
1.87862e-05
-2.7245e-11
1.28174e-11
-2.07303e-12
9.96187e-11
1.6003e-05
2.98631e-11
-9.78789e-11
1.6003e-05
-2.67037e-11
-5.31805e-12
-3.19091e-12
1.03159e-10
1.35834e-05
2.37683e-11
-7.55547e-11
1.35834e-05
-1.81251e-11
-5.13833e-11
-5.6744e-12
1.26937e-10
1.14894e-05
1.23961e-11
-4.12676e-11
1.14894e-05
-3.41802e-12
-8.38682e-11
-9.01448e-12
1.25153e-10
9.68259e-06
-4.42492e-12
2.04344e-12
9.6826e-06
1.87926e-11
-1.25383e-10
-1.44033e-11
1.23336e-10
8.12555e-06
-2.54009e-11
3.63182e-11
8.12557e-06
4.58057e-11
-1.5686e-10
-2.04402e-11
1.20542e-10
6.78238e-06
-4.30794e-11
4.86282e-11
6.7824e-06
7.09854e-11
-1.50634e-10
-2.79471e-11
1.02023e-10
5.62057e-06
-4.81609e-11
3.09955e-11
5.62059e-06
7.69457e-11
-8.05073e-11
-2.88292e-11
4.95201e-11
4.60806e-06
-3.76161e-11
4.19831e-12
4.60808e-06
5.6584e-11
4.36208e-12
-1.90088e-11
-8.57064e-12
3.70647e-06
-1.99379e-11
-1.5132e-11
3.70648e-06
2.75549e-11
4.27969e-11
-7.64425e-12
-2.77083e-11
2.84198e-06
-5.45739e-12
-1.37851e-11
2.84199e-06
7.05727e-12
3.22193e-11
-1.60607e-12
-1.85026e-11
1.56822e-06
2.85381e-12
1.56823e-06
1.98086e-12
-4.84883e-12
2.01182e-06
7.13903e-12
2.3542e-12
2.01183e-06
-9.14077e-12
4.29097e-12
2.03423e-12
-6.71372e-12
3.50875e-06
2.40657e-11
-1.92712e-11
3.50876e-06
-3.30627e-11
4.26552e-11
9.14836e-12
-2.3824e-11
4.58927e-06
4.45446e-11
-2.10109e-11
4.58929e-06
-6.65095e-11
5.60111e-11
2.22377e-11
-3.54601e-11
5.71082e-06
5.69327e-11
5.19025e-12
5.71084e-06
-9.00185e-11
5.50042e-12
3.34335e-11
-1.09684e-11
6.96559e-06
5.14118e-11
4.08592e-11
6.96561e-06
-8.32838e-11
-1.06471e-10
3.22421e-11
6.55292e-11
8.40325e-06
3.1004e-11
6.53929e-11
8.40326e-06
-5.41846e-11
-1.9859e-10
2.35257e-11
1.33287e-10
1.00642e-05
6.09881e-12
5.09461e-11
1.00642e-05
-2.25391e-11
-2.05943e-10
1.67372e-11
1.55172e-10
1.1989e-05
-1.42504e-11
6.29974e-12
1.1989e-05
3.99128e-12
-1.64924e-10
1.04933e-11
1.58851e-10
1.42225e-05
-2.82242e-11
-5.19993e-11
1.42225e-05
2.177e-11
-1.08081e-10
6.61944e-12
1.60328e-10
1.68112e-05
-3.59486e-11
-1.00054e-10
1.68112e-05
3.22018e-11
-6.48325e-11
3.85681e-12
1.65084e-10
1.9803e-05
-3.55212e-11
-1.31783e-10
1.9803e-05
3.30203e-11
-4.96871e-12
2.58037e-12
1.3686e-10
2.32454e-05
-3.03122e-11
-1.51328e-10
2.32454e-05
2.75025e-11
1.81757e-11
2.85242e-12
1.33279e-10
2.71816e-05
-2.14196e-11
-1.46212e-10
2.71816e-05
1.77212e-11
4.88846e-11
3.71583e-12
9.74244e-11
3.16796e-05
-1.01056e-11
-1.61871e-10
3.16796e-05
6.8737e-12
1.67649e-10
3.24965e-12
-5.77777e-12
3.68341e-05
-1.97779e-13
-2.50554e-10
3.6834e-05
1.51101e-13
3.19143e-10
3.24005e-14
-6.8479e-11
3.6834e-05
9.7393e-12
-2.51277e-10
3.6834e-05
-6.53381e-12
3.19799e-10
-3.23308e-12
-6.84744e-11
3.16793e-05
2.09967e-11
-1.62567e-10
3.16793e-05
-1.73599e-11
1.68314e-10
-3.66713e-12
-5.73625e-12
2.71809e-05
2.9895e-11
-1.46487e-10
2.71809e-05
-2.72292e-11
4.97136e-11
-2.71579e-12
9.68443e-11
2.32444e-05
3.5231e-11
-1.51986e-10
2.32444e-05
-3.28167e-11
1.93297e-11
-2.46632e-12
1.32664e-10
1.98017e-05
3.58224e-11
-1.3233e-10
1.98017e-05
-3.21317e-11
-3.22833e-12
-3.72936e-12
1.35507e-10
1.68101e-05
2.82768e-11
-1.0087e-10
1.68101e-05
-2.17487e-11
-6.28591e-11
-6.56611e-12
1.63728e-10
1.42214e-05
1.44744e-11
-5.36001e-11
1.42215e-05
-4.01114e-12
-1.06089e-10
-1.05073e-11
1.59712e-10
1.1988e-05
-5.8342e-12
5.17698e-12
1.1988e-05
2.25195e-11
-1.62977e-10
-1.67283e-11
1.57795e-10
1.00631e-05
-3.09403e-11
5.10672e-11
1.00631e-05
5.44556e-11
-2.05679e-10
-2.3558e-11
1.54612e-10
8.40205e-06
-5.16247e-11
6.61092e-11
8.40207e-06
8.3875e-11
-1.99171e-10
-3.22998e-11
1.33085e-10
6.9644e-06
-5.72692e-11
4.12948e-11
6.96442e-06
9.06234e-11
-1.0654e-10
-3.34076e-11
6.52577e-11
5.70976e-06
-4.47723e-11
5.10804e-12
5.70979e-06
6.68019e-11
6.54031e-12
-2.20789e-11
-1.16627e-11
4.58845e-06
-2.41421e-11
-2.11915e-11
4.58847e-06
3.30815e-11
5.7108e-11
-8.97288e-12
-3.59758e-11
3.50815e-06
-7.14571e-12
-1.94316e-11
3.50816e-06
9.10932e-12
4.31963e-11
-1.97241e-12
-2.38578e-11
2.01145e-06
2.29415e-12
2.01146e-06
4.37931e-12
-6.69643e-12
2.5663e-06
9.29471e-12
1.3235e-12
2.56631e-06
-1.17044e-11
7.41116e-12
2.4601e-12
-8.85363e-12
4.2842e-06
2.8842e-11
-2.5391e-11
4.28421e-06
-3.92524e-11
5.4165e-11
1.05972e-11
-2.93503e-11
5.61302e-06
5.23454e-11
-2.76281e-11
5.61304e-06
-7.75154e-11
7.08482e-11
2.54944e-11
-4.38176e-11
6.99447e-06
6.67997e-11
6.1191e-12
6.9945e-06
-1.04619e-10
7.21798e-12
3.82305e-11
-1.37018e-11
8.53491e-06
6.08439e-11
5.20546e-11
8.53493e-06
-9.72642e-11
-1.34998e-10
3.68585e-11
8.28342e-11
1.02971e-05
3.73507e-11
8.48424e-11
1.02971e-05
-6.38448e-11
-2.51246e-10
2.69039e-11
1.66522e-10
1.23313e-05
7.89646e-12
6.78527e-11
1.23313e-05
-2.67497e-11
-2.58454e-10
1.92065e-11
1.90833e-10
1.46879e-05
-1.63774e-11
1.0139e-11
1.46879e-05
4.70218e-12
-2.04475e-10
1.19543e-11
1.94636e-10
1.74219e-05
-3.31364e-11
-6.61938e-11
1.74219e-05
2.60315e-11
-1.29187e-10
7.30302e-12
1.9571e-10
2.05907e-05
-4.269e-11
-1.29961e-10
2.05907e-05
3.85471e-11
-7.34369e-11
4.27522e-12
2.03661e-10
2.42534e-05
-4.24933e-11
-1.73472e-10
2.42534e-05
3.95411e-11
1.211e-12
3.04781e-12
1.72406e-10
2.84692e-05
-3.62258e-11
-2.00297e-10
2.84692e-05
3.28916e-11
2.90014e-11
3.38564e-12
1.71466e-10
3.32911e-05
-2.55119e-11
-1.90382e-10
3.32911e-05
2.10628e-11
5.92267e-11
4.47043e-12
1.31283e-10
3.88019e-05
-1.20512e-11
-2.05697e-10
3.88019e-05
8.18321e-12
1.88744e-10
3.88997e-12
1.6952e-11
4.51169e-05
-2.40374e-13
-3.10613e-10
4.51169e-05
1.81751e-13
3.59466e-10
4.1935e-14
-4.87035e-11
4.51169e-05
1.16145e-11
-3.11529e-10
4.51168e-05
-7.78439e-12
3.60327e-10
-3.86311e-12
-4.87346e-11
3.88016e-05
2.50234e-11
-2.06623e-10
3.88016e-05
-2.06353e-11
1.89657e-10
-4.42451e-12
1.69801e-11
3.32903e-05
3.57489e-11
-1.90786e-10
3.32903e-05
-3.2555e-11
6.02709e-11
-3.25387e-12
1.30611e-10
2.84679e-05
4.21531e-11
-2.01141e-10
2.84679e-05
-3.92868e-11
3.04502e-11
-2.92889e-12
1.70701e-10
2.42519e-05
4.25435e-11
-1.74181e-10
2.42519e-05
-3.84598e-11
3.32948e-12
-4.13054e-12
1.70785e-10
2.05893e-05
3.32037e-11
-1.31098e-10
2.05893e-05
-2.60095e-11
-7.1045e-11
-7.24006e-12
2.02141e-10
1.74206e-05
1.66387e-11
-6.82573e-11
1.74206e-05
-4.72687e-12
-1.26788e-10
-1.19639e-11
1.95075e-10
1.46866e-05
-7.59263e-12
8.68948e-12
1.46866e-05
2.67324e-11
-2.02187e-10
-1.91906e-11
1.93492e-10
1.233e-05
-3.72825e-11
6.80749e-11
1.233e-05
6.4165e-11
-2.58239e-10
-2.69333e-11
1.90165e-10
1.02956e-05
-6.10943e-11
8.57257e-11
1.02956e-05
9.79537e-11
-2.52111e-10
-3.69181e-11
1.66417e-10
8.53345e-06
-6.71905e-11
5.26227e-11
8.53347e-06
1.05326e-10
-1.35229e-10
-3.81992e-11
8.26229e-11
6.99318e-06
-5.26108e-11
6.02332e-12
6.99321e-06
7.7876e-11
8.43336e-12
-2.53238e-11
-1.44758e-11
5.612e-06
-2.89339e-11
-2.78922e-11
5.61203e-06
3.92992e-11
7.21762e-11
-1.04057e-11
-4.43614e-11
4.28346e-06
-9.30583e-12
-2.56071e-11
4.28348e-06
1.16772e-11
5.4826e-11
-2.38362e-12
-2.93401e-11
2.56585e-06
1.2429e-12
2.56585e-06
7.5491e-12
-8.82726e-12
3.2554e-06
1.2045e-11
-3.51764e-13
3.25541e-06
-1.48817e-11
1.13502e-11
2.912e-12
-1.11927e-11
5.19915e-06
3.436e-11
-3.18086e-11
5.19917e-06
-4.62536e-11
6.59055e-11
1.21221e-11
-3.48263e-11
6.81201e-06
6.09565e-11
-3.47408e-11
6.81203e-06
-8.94643e-11
8.59842e-11
2.88893e-11
-5.19938e-11
8.50121e-06
7.75789e-11
6.89081e-12
8.50124e-06
-1.20316e-10
8.42495e-12
4.3217e-11
-1.57794e-11
1.03808e-05
7.13424e-11
6.4036e-11
1.03808e-05
-1.12603e-10
-1.6558e-10
4.17723e-11
1.01403e-10
1.25275e-05
4.46711e-11
1.06101e-10
1.25275e-05
-7.48177e-11
-3.06904e-10
3.06269e-11
2.00953e-10
1.50034e-05
1.01518e-11
8.68308e-11
1.50034e-05
-3.15739e-11
-3.13145e-10
2.1837e-11
2.26612e-10
1.78703e-05
-1.87422e-11
1.40989e-11
1.78703e-05
5.57839e-12
-2.43881e-10
1.34929e-11
2.30169e-10
2.11955e-05
-3.88694e-11
-8.34804e-11
2.11955e-05
3.10424e-11
-1.46223e-10
8.06175e-12
2.30127e-10
2.50494e-05
-5.04067e-11
-1.6603e-10
2.50493e-05
4.58651e-11
-7.53538e-11
4.69925e-12
2.41724e-10
2.95043e-05
-5.04879e-11
-2.24169e-10
2.95043e-05
4.70617e-11
1.52666e-11
3.53984e-12
2.09092e-10
3.46333e-05
-4.30038e-11
-2.61272e-10
3.46333e-05
3.92686e-11
4.81007e-11
3.79664e-12
2.13394e-10
4.05011e-05
-3.00781e-11
-2.464e-10
4.05011e-05
2.50123e-11
7.49726e-11
5.09148e-12
1.7159e-10
4.72073e-05
-1.42256e-11
-2.58172e-10
4.72073e-05
9.66214e-12
2.08617e-10
4.59065e-12
4.95522e-11
5.48918e-05
-2.8789e-13
-3.81772e-10
5.48918e-05
2.16075e-13
3.95145e-10
5.27829e-14
-1.31778e-11
5.48918e-05
1.37076e-11
-3.82923e-10
5.48918e-05
-9.19503e-12
3.96283e-10
-4.55175e-12
-1.3277e-11
4.72069e-05
2.9518e-11
-2.594e-10
4.72069e-05
-2.45049e-11
2.09863e-10
-5.05568e-12
4.95546e-11
4.05001e-05
4.24576e-11
-2.46962e-10
4.05001e-05
-3.88512e-11
7.62587e-11
-3.67761e-12
1.70827e-10
3.46317e-05
5.00797e-11
-2.6232e-10
3.46317e-05
-4.67367e-11
4.98668e-11
-3.4173e-12
2.12466e-10
2.95024e-05
5.02224e-11
-2.25077e-10
2.95024e-05
-4.57427e-11
1.77752e-11
-4.53597e-12
2.07217e-10
2.50477e-05
3.89392e-11
-1.6755e-10
2.50477e-05
-3.10064e-11
-7.25256e-11
-7.98754e-12
2.40071e-10
2.11939e-05
1.90392e-11
-8.59171e-11
2.11939e-05
-5.60552e-12
-1.43401e-10
-1.34948e-11
2.29354e-10
1.78687e-05
-9.8074e-12
1.23273e-11
1.78687e-05
3.15584e-11
-2.41268e-10
-2.18104e-11
2.28933e-10
1.50018e-05
-4.46005e-11
8.70816e-11
1.50018e-05
7.51919e-11
-3.13031e-10
-3.06511e-11
2.2595e-10
1.25257e-05
-7.16337e-11
1.07141e-10
1.25257e-05
1.13399e-10
-3.08117e-10
-4.18341e-11
2.01016e-10
1.0379e-05
-7.80289e-11
6.47409e-11
1.0379e-05
1.21136e-10
-1.66024e-10
-4.31812e-11
1.01306e-10
8.49963e-06
-6.12638e-11
6.78789e-12
8.49966e-06
8.99052e-11
9.78955e-12
-2.87102e-11
-1.66017e-11
6.81077e-06
-3.44717e-11
-3.50973e-11
6.81079e-06
4.63382e-11
8.75394e-11
-1.19151e-11
-5.25398e-11
5.19825e-06
-1.20629e-11
-3.20871e-11
5.19827e-06
1.48626e-11
6.66975e-11
-2.81665e-12
-3.47631e-11
3.25483e-06
-4.60574e-13
3.25484e-06
1.15623e-11
-1.11539e-11
4.10507e-06
1.55043e-11
-2.84784e-12
4.10508e-06
-1.87401e-11
1.60795e-11
3.34427e-12
-1.35344e-11
6.28817e-06
4.0791e-11
-3.82775e-11
6.28819e-06
-5.41681e-11
7.73804e-11
1.36551e-11
-4.00018e-11
8.22449e-06
7.05022e-11
-4.21635e-11
8.22453e-06
-1.02382e-10
1.00911e-10
3.23239e-11
-5.96645e-11
1.02768e-05
8.93393e-11
7.31578e-12
1.02768e-05
-1.37079e-10
8.96209e-12
4.82941e-11
-1.68514e-11
1.25599e-05
8.30154e-11
7.63465e-11
1.25599e-05
-1.29418e-10
-1.97364e-10
4.69936e-11
1.2084e-10
1.51639e-05
5.31307e-11
1.28501e-10
1.51639e-05
-8.73994e-11
-3.63644e-10
3.48251e-11
2.35328e-10
1.81644e-05
1.30023e-11
1.07492e-10
1.81644e-05
-3.71733e-11
-3.68077e-10
2.46521e-11
2.60958e-10
2.16367e-05
-2.1179e-11
1.76257e-11
2.16366e-05
6.49685e-12
-2.80808e-10
1.50665e-11
2.63665e-10
2.56629e-05
-4.50911e-11
-1.05057e-10
2.56629e-05
3.65162e-11
-1.55183e-10
8.8502e-12
2.60772e-10
3.03287e-05
-5.86395e-11
-2.10149e-10
3.03287e-05
5.37787e-11
-6.54035e-11
5.04636e-12
2.75982e-10
3.57225e-05
-5.9184e-11
-2.85844e-10
3.57225e-05
5.53349e-11
4.22653e-11
3.98292e-12
2.4382e-10
4.19337e-05
-5.08185e-11
-3.36696e-10
4.19337e-05
4.66984e-11
8.09322e-11
4.19273e-12
2.56048e-10
4.90409e-05
-3.55191e-11
-3.18307e-10
4.90409e-05
2.98076e-11
1.01122e-10
5.74297e-12
2.17388e-10
5.71634e-05
-1.6763e-11
-3.22959e-10
5.71634e-05
1.1447e-11
2.31653e-10
5.34937e-12
9.1302e-11
6.647e-05
-3.40676e-13
-4.66761e-10
6.647e-05
2.5458e-13
4.29746e-10
6.49023e-14
3.72646e-11
6.64699e-05
1.61481e-11
-4.68191e-10
6.64699e-05
-1.08972e-11
4.31249e-10
-5.29663e-12
3.70499e-11
5.71628e-05
3.48668e-11
-3.24561e-10
5.71628e-05
-2.91974e-11
2.3334e-10
-5.71939e-12
9.12429e-11
4.90396e-05
5.01813e-11
-3.19057e-10
4.90396e-05
-4.6174e-11
1.02684e-10
-4.091e-12
2.1653e-10
4.19318e-05
5.8684e-11
-3.37965e-10
4.19318e-05
-5.49117e-11
8.3035e-11
-3.85947e-12
2.54946e-10
3.57202e-05
5.83894e-11
-2.86978e-10
3.57201e-05
-5.35925e-11
4.51592e-11
-4.86368e-12
2.41713e-10
3.03267e-05
4.5139e-11
-2.121e-10
3.03267e-05
-3.64406e-11
-6.21227e-11
-8.76306e-12
2.74217e-10
2.56609e-05
2.15042e-11
-1.07832e-10
2.56609e-05
-6.52064e-12
-1.51902e-10
-1.50553e-11
2.59777e-10
2.16347e-05
-1.26176e-11
1.54304e-11
2.16347e-05
3.71581e-11
-2.77886e-10
-2.46086e-11
2.62444e-10
1.81624e-05
-5.30588e-11
1.07624e-10
1.81624e-05
8.78325e-11
-3.68124e-10
-3.48432e-11
2.60502e-10
1.51617e-05
-8.33481e-11
1.29788e-10
1.51617e-05
1.30329e-10
-3.65256e-10
-4.70612e-11
2.35519e-10
1.25577e-05
-8.98542e-11
7.72109e-11
1.25578e-05
1.38025e-10
-1.98074e-10
-4.82558e-11
1.20891e-10
1.02749e-05
-7.08568e-11
7.20961e-12
1.02749e-05
1.02917e-10
1.04421e-11
-3.21404e-11
-1.76811e-11
8.22298e-06
-4.09274e-11
-4.26208e-11
8.22301e-06
5.43019e-11
1.02684e-10
-1.34324e-11
-6.01831e-11
6.28706e-06
-1.55315e-11
-3.86246e-11
6.28709e-06
1.87338e-11
7.83156e-11
-3.22502e-12
-3.9879e-11
4.10436e-06
-2.99493e-12
4.10437e-06
1.63964e-11
-1.34763e-11
5.14373e-06
1.97627e-11
-6.31783e-12
5.14375e-06
-2.32992e-11
2.13941e-11
3.68732e-12
-1.55298e-11
7.59206e-06
4.83193e-11
-4.45706e-11
7.59208e-06
-6.30632e-11
8.80127e-11
1.50799e-11
-4.45262e-11
9.89596e-06
8.11142e-11
-4.96691e-11
9.896e-06
-1.16223e-10
1.1509e-10
3.56225e-11
-6.65158e-11
1.23741e-05
1.02132e-10
7.14962e-12
1.23742e-05
-1.54756e-10
8.85462e-12
5.32569e-11
-1.66965e-11
1.51369e-05
9.58998e-11
8.82738e-11
1.5137e-05
-1.47774e-10
-2.29034e-10
5.25477e-11
1.40541e-10
1.82856e-05
6.28436e-11
1.51111e-10
1.82856e-05
-1.01971e-10
-4.18761e-10
3.97588e-11
2.67876e-10
2.19105e-05
1.64489e-11
1.29119e-10
2.19105e-05
-4.37882e-11
-4.20971e-10
2.78955e-11
2.923e-10
2.61026e-05
-2.36396e-11
1.96461e-11
2.61026e-05
7.24231e-12
-3.11884e-10
1.68407e-11
2.92834e-10
3.09618e-05
-5.13155e-11
-1.33141e-10
3.09618e-05
4.20272e-11
-1.50487e-10
9.60745e-12
2.84284e-10
3.6592e-05
-6.68275e-11
-2.65014e-10
3.6592e-05
6.18449e-11
-3.66101e-11
5.19915e-12
3.02157e-10
4.31006e-05
-6.79595e-11
-3.61267e-10
4.31006e-05
6.38507e-11
8.93296e-11
4.26491e-12
2.7224e-10
5.05969e-05
-5.92335e-11
-4.29479e-10
5.05969e-05
5.48357e-11
1.35458e-10
4.48291e-12
2.94377e-10
5.91757e-05
-4.18586e-11
-4.10467e-10
5.91757e-05
3.55185e-11
1.45213e-10
6.37788e-12
2.65506e-10
6.89795e-05
-1.97544e-11
-4.06342e-10
6.89795e-05
1.36381e-11
2.65597e-10
6.15657e-12
1.40738e-10
8.0211e-05
-3.98749e-13
-5.69833e-10
8.0211e-05
2.97701e-13
4.71147e-10
7.80202e-14
9.89985e-11
8.02109e-05
1.90216e-11
-5.71577e-10
8.02109e-05
-1.29853e-11
4.73112e-10
-6.08857e-12
9.86027e-11
6.89788e-05
4.10853e-11
-4.0838e-10
6.89788e-05
-3.47753e-11
2.67857e-10
-6.36739e-12
1.4055e-10
5.91742e-05
5.84908e-11
-4.11443e-10
5.91741e-05
-5.41847e-11
1.47106e-10
-4.40341e-12
2.64534e-10
5.05946e-05
6.73629e-11
-4.31002e-10
5.05946e-05
-6.33188e-11
1.37913e-10
-4.14562e-12
2.9311e-10
4.30977e-05
6.65059e-11
-3.6265e-10
4.30977e-05
-6.15864e-11
9.25798e-11
-4.99792e-12
2.69941e-10
3.65895e-05
5.1336e-11
-2.67421e-10
3.65895e-05
-4.19053e-11
-3.28885e-11
-9.50616e-12
3.00301e-10
3.09593e-05
2.39917e-11
-1.36258e-10
3.09593e-05
-7.26347e-12
-1.4673e-10
-1.6811e-11
2.83038e-10
2.61002e-05
-1.60266e-11
1.69232e-11
2.61002e-05
4.37728e-11
-3.08661e-10
-2.78283e-11
2.91726e-10
2.1908e-05
-6.2775e-11
1.29037e-10
2.1908e-05
1.02467e-10
-4.2124e-10
-3.97666e-11
2.92198e-10
1.8283e-05
-9.62784e-11
1.52696e-10
1.8283e-05
1.48809e-10
-4.20821e-10
-5.26215e-11
2.68192e-10
1.51343e-05
-1.02718e-10
8.93203e-11
1.51343e-05
1.55839e-10
-2.30054e-10
-5.3219e-11
1.40768e-10
1.23718e-05
-8.15229e-11
7.0462e-12
1.23719e-05
1.16868e-10
1.041e-11
-3.54384e-11
-1.74903e-11
9.89413e-06
-4.84872e-11
-5.02395e-11
9.89416e-06
6.32585e-11
1.17064e-10
-1.48398e-11
-6.6969e-11
7.59071e-06
-1.98015e-11
-4.49903e-11
7.59074e-06
2.33106e-11
8.9101e-11
-3.53875e-12
-4.43376e-11
5.14285e-06
-6.51521e-12
5.14287e-06
2.18514e-11
-1.54407e-11
6.4027e-06
2.48781e-11
-1.0842e-11
6.40272e-06
-2.8536e-11
2.68352e-11
3.85962e-12
-1.66484e-11
9.15957e-06
5.71348e-11
-5.05503e-11
9.15961e-06
-7.30272e-11
9.71971e-11
1.62957e-11
-4.79325e-11
1.18815e-05
9.29371e-11
-5.70255e-11
1.18815e-05
-1.30949e-10
1.27986e-10
3.86005e-11