/*--------------------------------*- C++ -*----------------------------------*\
  =========                 |
  \\      /  F ield         | OpenFOAM: The Open Source CFD Toolbox
   \\    /   O peration     | Website:  https://openfoam.org
    \\  /    A nd           | Version:  6
     \\/     M anipulation  |
\*---------------------------------------------------------------------------*/
FoamFile
{
    version     2.0;
    format      ascii;
    class       volScalarField;
    location    "44";
    object      yPlus;
}
// * * * * * * * * * * * * * * * * * * * * * * * * * * * * * * * * * * * * * //

dimensions      [0 0 0 0 0 0 0];

internalField   uniform 0;

boundaryField
{
    inlet
    {
        type            calculated;
        value           uniform 0;
    }
    outlet
    {
        type            calculated;
        value           uniform 0;
    }
    roughCylinder
    {
        type            calculated;
        value           nonuniform List<scalar> 
5120
(
43.5013
51.3205
57.5488
63.6751
68.9642
73.2546
76.6923
79.4711
81.7461
83.6517
85.3075
86.79
88.1368
89.3818
90.5559
91.6896
92.8134
93.9556
95.1397
96.3831
97.695
99.0779
100.529
102.041
103.603
105.203
106.824
108.444
110.024
111.493
112.705
113.42
42.7843
50.3201
56.3495
62.3359
67.5518
71.8074
75.2274
77.9982
80.2732
82.1854
83.85
85.3367
86.6752
87.9064
89.0624
90.1747
91.2751
92.3923
93.5508
94.7669
96.05
97.4028
98.8218
100.301
101.828
103.392
104.976
106.558
108.1
109.532
110.714
111.41
42.003
49.2893
55.131
60.9772
66.1192
70.3426
73.7504
76.5216
78.8068
80.7347
82.4128
83.9042
85.2389
86.4593
87.5992
88.692
89.7706
90.8643
91.9968
93.186
94.4411
95.7643
97.1525
98.5979
100.091
101.62
103.166
104.71
106.214
107.611
108.763
109.439
41.1837
48.2361
53.8907
59.5938
64.662
68.8583
72.2613
75.0411
77.3458
79.2984
80.9963
82.4974
83.8341
85.0455
86.1724
87.248
88.3064
89.3776
90.4871
91.6511
92.879
94.1734
95.5309
96.9447
98.4038
99.8963
101.406
102.913
104.379
105.741
106.862
107.52
40.3312
47.1597
52.6255
58.181
63.1759
67.3513
70.7599
73.5604
75.8953
77.879
79.6001
81.1139
82.4559
83.6652
84.7822
85.8435
86.8843
87.936
89.0222
90.1617
91.3641
92.631
93.9594
95.3417
96.7682
98.2267
99.7014
101.171
102.601
103.927
105.02
105.658
39.4513
46.059
51.3288
56.7299
61.6521
65.8152
69.2404
72.0704
74.442
76.463
78.2136
79.7462
81.1003
82.3134
83.4252
84.4758
85.5018
86.5348
87.6022
88.7203
89.8981
91.1387
92.4387
93.7908
95.1852
96.609
98.0481
99.4812
100.875
102.167
103.231
103.851
38.5346
44.927
49.9951
55.2349
60.0831
64.2413
67.6958
70.5698
72.9901
75.0539
76.8367
78.3936
79.7635
80.9868
82.1
83.1446
84.1592
85.1787
86.2267
87.3232
88.4785
89.6943
90.9675
92.2904
93.6538
95.0455
96.451
97.8485
99.2074
100.465
101.501
102.102
37.5911
43.7631
48.6162
53.6806
58.4511
62.6135
66.1117
69.0395
71.5136
73.6293
75.4566
77.0444
78.4386
79.6777
80.8006
81.8445
82.8531
83.8596
84.8941
85.974
87.1083
88.3005
89.5474
90.8421
92.1745
93.5331
94.9033
96.266
97.5893
98.8143
99.8218
100.405
36.578
42.5357
47.1661
52.0441
56.7322
60.9054
64.4639
67.469
70.0199
72.197
74.0686
75.6961
77.1207
78.3838
79.5202
80.5732
81.5798
82.582
83.603
84.6649
85.7801
86.9505
88.1731
89.4404
90.7435
92.0712
93.4091
94.7368
96.0262
97.2176
98.1981
98.7625
35.5325
41.2626
45.6514
50.3178
54.9084
59.0978
62.7347
65.8285
68.4579
70.7107
72.6546
74.3339
75.8002
77.0927
78.2533
79.3173
80.3319
81.3311
82.3457
83.3981
84.4966
85.6463
86.8444
88.0847
89.3575
90.6523
91.9548
93.2475
94.5012
95.6604
96.6125
97.1581
34.3314
39.8502
43.9923
48.4323
52.9128
57.1202
60.8558
64.0813
66.8449
69.2006
71.21
72.95
74.4647
75.8006
76.9893
78.0778
79.1019
80.1077
81.118
82.1568
83.2407
84.3714
85.5473
86.7613
88.0055
89.2686
90.5394
91.7968
93.0175
94.1425
95.069
95.595
33.0657
38.3704
42.2414
46.4147
50.7495
54.9701
58.8307
62.2051
65.0893
67.5604
69.6922
71.5199
73.1077
74.4924
75.7245
76.8371
77.8832
78.8948
79.9068
80.9458
82.0182
83.1318
84.2849
85.4724
86.6861
87.9167
89.1505
90.3726
91.5566
92.6489
93.5469
94.0522
31.5227
36.6296
40.2149
44.0933
48.2532
52.4715
56.4659
60.0586
63.1969
65.8653
68.1103
70.0401
71.699
73.1539
74.4347
75.5944
76.6646
77.6975
78.7158
79.7448
80.8071
81.9052
83.0384
84.2012
85.3874
86.5853
87.7881
88.9735
90.1249
91.1823
92.055
92.5404
29.8562
34.7746
38.0567
41.58
45.4842
49.6639
53.8508
57.7091
61.0424
63.9022
66.3653
68.4415
70.2349
71.7752
73.1281
74.3276
75.4382
76.488
77.5176
78.5598
79.6178
80.7026
81.8152
82.9514
84.105
85.2707
86.434
87.5832
88.6966
89.7187
90.5611
91.024
27.6496
32.4019
35.3525
38.4708
42.0849
46.1983
50.4781
54.651
58.5065
61.7801
64.4661
66.7544
68.6623
70.3124
71.7449
73.0276
74.1839
75.2761
76.3278
77.3634
78.4162
79.4898
80.5844
81.6976
82.8257
83.9555
85.0875
86.1973
87.2764
88.263
89.0812
89.5222
25.0985
29.7664
32.429
35.0628
38.1016
41.8834
46.5778
51.3562
55.4999
59.1314
62.2639
64.7888
66.9552
68.7707
70.3295
71.6734
72.8949
74.0179
75.0924
76.1603
77.2189
78.2836
79.36
80.445
81.535
82.6326
83.7222
84.7928
85.8306
86.7773
87.5611
87.9758
21.2694
25.9553
28.2319
30.3371
33.1927
37.1812
41.1856
45.9332
51.4037
55.9857
59.5794
62.6513
65.0441
67.0438
68.735
70.2272
71.5308
72.73
73.8507
74.9147
75.9729
77.0317
78.0915
79.1548
80.2233
81.2793
82.3325
83.3605
84.3636
85.268
86.0326
86.4199
16.0888
21.2237
23.8053
25.4275
26.0832
26.95
33.6431
41.0973
46.3016
51.6856
56.4382
59.8521
62.7951
65.1522
67.0933
68.6852
70.094
71.3428
72.4999
73.626
74.7055
75.7603
76.8041
77.8352
78.8538
79.8745
80.8857
81.8645
82.816
83.6792
84.3975
84.7565
6.28735
10.7582
11.3452
12.3956
13.6495
11.5094
17.9105
25.8416
38.3651
45.8822
51.5487
56.7173
60.1573
62.8733
65.0504
66.9257
68.4879
69.8765
71.1236
72.2455
73.3288
74.3843
75.4125
76.4223
77.4257
78.4005
79.3573
80.292
81.2146
82.0133
82.7255
83.044
9.16854
11.6745
11.6203
10.7769
11.0275
9.89903
7.01352
20.6486
21.043
37.023
46.4561
51.5881
56.5927
60.1759
62.9354
65.0031
66.7541
68.2199
69.5203
70.7581
71.8899
72.9484
73.961
74.9308
75.8617
76.7834
77.7106
78.5737
79.4157
80.1812
80.8222
81.1064
11.1962
15.7169
16.8721
16.2259
13.1011
11.3486
12.9723
10.6505
21.4631
14.8562
33.5626
46.6691
52.2121
56.7006
59.9067
62.574
64.6312
66.3805
67.8654
69.0919
70.2288
71.2968
72.2951
73.241
74.167
75.0526
75.8751
76.6932
77.5311
78.1756
78.8383
79.0672
19.8657
24.3284
26.2765
27.1497
26.8155
24.958
22.1881
19.4234
18.3855
21.994
19.012
30.9521
45.3387
51.8096
56.7038
59.8269
62.3016
64.1761
65.7357
67.1911
68.434
69.5179
70.4957
71.3861
72.1953
72.9683
73.8043
74.5048
75.1933
75.8227
76.3753
76.5319
22.1471
27.1458
29.8783
31.9153
33.1603
33.4656
32.5529
30.1415
25.4094
23.4927
15.1407
15.0433
32.6351
46.1232
51.3355
55.9067
59.0143
61.538
63.513
64.9347
66.1729
67.2804
68.2481
69.1056
69.9263
70.7121
71.321
71.9748
72.7175
73.1163
73.7281
73.8429
22.8305
27.9265
30.863
33.234
35.0003
36.1376
36.5857
36.1415
34.2389
29.2451
25.8107
22.0682
25.4853
30.031
45.3229
51.1452
55.4481
58.1689
60.2498
62.1606
63.6474
64.7993
65.7229
66.4875
67.0956
67.6148
68.3387
68.7757
69.2277
69.5876
70.0639
69.9477
22.1676
27.3934
30.4772
33.0613
35.1062
36.6017
37.5477
37.931
37.6451
36.2103
32.1965
27.7591
28.9535
30.2107
32.0024
43.9807
49.2815
53.7307
56.8321
58.625
60.0419
61.2461
62.168
62.8795
63.5323
64.1914
64.4147
64.8304
65.4226
65.4094
65.9273
65.9109
20.6828
26.0357
29.2038
31.9107
34.1305
35.8615
37.1248
37.9557
38.382
38.3257
37.2497
33.4001
32.8674
34.594
33.2662
32.0167
43.1505
47.6795
50.9576
53.9254
55.9989
57.3066
58.084
58.5914
58.7595
58.7992
59.3326
59.2744
59.3037
58.806
59.4046
58.5445
18.7495
24.1857
27.3757
30.1269
32.4314
34.3027
35.7675
36.8777
37.6995
38.2635
38.3985
37.1704
32.2768
35.3229
29.513
32.8429
28.4301
38.963
45.1205
47.4213
48.9368
50.3983
51.2049
51.5674
52.095
52.3198
51.821
52.6347
52.0781
52.271
51.5228
51.9244
16.5564
21.9711
25.0878
27.7871
30.0887
32.0296
33.6524
35.0117
36.1848
37.2373
38.1461
38.613
37.5795
33.5249
29.17
34.0414
32.4051
26.4518
31.8779
38.2012
42.3722
44.0798
43.8912
44.0765
42.6643
42.6347
41.7764
40.0229
40.7424
34.8463
37.3871
34.3984
14.3436
19.6025
22.5445
25.0923
27.2979
29.2214
30.9218
32.4617
33.9142
35.353
36.7979
38.1291
38.9692
38.4654
35.3766
32.3332
29.5324
30.8061
33.3443
26.5902
20.6535
25.2416
25.6499
22.8333
26.8295
18.8109
19.8631
41.5781
14.8898
23.2688
1.60499
13.5749
12.3846
17.3691
20.0621
22.3867
24.4278
26.2642
27.9655
29.5973
31.2243
32.9092
34.6941
36.5311
38.2195
39.344
39.1933
35.9079
28.4182
24.3168
29.6099
34.3074
16.5887
14.221
33.8518
19.199
33.1727
19.2013
22.4497
43.6711
26.8193
36.7639
17.721
33.3005
10.8736
15.5131
17.9391
20.0212
21.8731
23.5864
25.2344
26.8775
28.5675
30.3511
32.274
34.3451
36.4821
38.4368
39.7532
39.6845
36.5178
30.283
24.2456
32.1136
19.6172
27.7742
36.0217
28.9045
37.0354
32.7046
34.5365
39.9992
38.6086
42.9155
33.6019
32.5485
9.7617
14.1597
16.3589
18.2367
19.9283
21.5284
23.104
24.7019
26.3587
28.1093
29.9945
32.0543
34.2958
36.6162
38.7144
40.0818
39.9367
38.2215
33.176
30.9353
28.3256
26.97
31.966
31.8193
32.7873
35.5881
36.8351
34.609
37.3726
36.028
42.1311
38.1721
9.17184
13.382
15.4221
17.1669
18.7602
20.2871
21.7982
23.323
24.8839
26.5084
28.2351
30.1152
32.1998
34.4955
36.8758
38.99
40.2331
40.3888
38.7621
38.011
38.0607
36.1795
39.1564
39.3586
40.2837
40.8871
42.0131
41.3364
39.6559
40.9219
44.4745
41.8902
8.99981
13.1229
15.0921
16.7875
18.3507
19.8512
21.3204
22.7719
24.2186
25.6833
27.2026
28.8266
30.6162
32.6285
34.8667
37.1826
39.1643
40.3839
40.3972
40.5731
40.946
40.4002
42.1007
41.9552
42.536
42.32
42.8498
43.0518
40.8762
42.2824
44.125
42.5015
9.17256
13.2855
15.2559
16.9696
18.5568
20.0691
21.5213
22.917
24.265
25.5856
26.9109
28.2836
29.757
31.395
33.2553
35.332
37.4452
39.2487
40.3006
41.0874
41.7152
41.6837
42.6284
42.534
42.7393
42.3001
42.2874
42.6351
40.7598
41.9379
42.9369
41.8836
9.59515
13.7489
15.7682
17.5459
19.1936
20.7464
22.2074
23.5746
24.8551
26.0685
27.2439
28.4159
29.6253
30.9237
32.3719
34.0196
35.8406
37.6724
39.1893
40.4277
41.3238
41.6148
42.116
41.9919
41.8414
41.2361
40.8275
41.083
39.6741
40.5697
41.1082
40.4251
10.2134
14.4374
16.5291
18.3916
20.1163
21.7237
23.2094
24.5701
25.8143
26.9626
28.0412
29.0776
30.1004
31.1451
32.2584
33.4936
34.8829
36.3939
37.8632
39.1961
40.2161
40.6811
40.9692
40.7756
40.3896
39.6606
39.043
39.1998
38.202
38.9558
39.2425
38.9247
10.9757
15.2973
17.4743
19.4289
21.2334
22.8978
24.4144
25.7817
27.0124
28.1292
29.1569
30.1173
31.0282
31.9104
32.7938
33.7183
34.7246
35.8307
36.9851
38.1107
39.0338
39.5232
39.698
39.4504
38.9382
38.1702
37.5085
37.5886
36.9535
37.6541
37.8288
37.8456
11.7956
16.2823
18.5534
20.6008
22.4826
24.2017
25.7508
27.1329
28.3658
29.4752
30.4852
31.4132
32.2698
33.0643
33.8124
34.5377
35.2713
36.0398
36.8406
37.6386
38.3173
38.6964
38.764
38.4688
37.9032
37.1589
36.5355
36.5737
36.2272
36.9212
37.0984
37.3696
12.7545
17.3621
19.7265
21.8645
23.8196
25.5905
27.1726
28.5746
29.8204
30.9386
31.9525
32.8766
33.7162
34.4741
35.1558
35.7722
36.3401
36.8787
37.3988
37.891
38.2928
38.4874
38.4239
38.0675
37.4769
36.7776
36.2174
36.2366
36.1096
36.8124
37.0586
37.4961
13.5146
13.9256
14.4026
14.7862
15.1586
15.4548
15.7139
15.9147
16.076
16.1894
16.266
16.3039
16.3069
16.2764
16.2164
16.1295
16.0179
15.8872
15.7493
15.6364
15.6453
15.7616
15.8967
16.0226
16.1288
16.2103
16.2652
16.2909
16.2828
16.2407
16.1603
16.0434
15.879
15.6753
15.4139
15.1155
14.7423
14.3596
13.8849
13.4794
18.2479
18.6748
19.1717
19.5732
19.9635
20.2811
20.5627
20.7881
20.9749
21.1157
21.2199
21.2863
21.3172
21.3128
21.2754
21.2067
21.108
20.9834
20.8442
20.725
20.7333
20.8545
20.9892
21.1075
21.1997
21.2621
21.2937
21.2928
21.2568
21.1865
21.0787
20.9348
20.7452
20.5175
20.2339
19.9149
19.5241
19.1239
18.6297
18.2087
20.6916
21.1437
21.6704
22.0973
22.516
22.8639
23.1799
23.4425
23.6695
23.8534
24.0021
24.1145
24.1922
24.2336
24.2391
24.2093
24.1446
24.0478
23.9291
23.8216
23.8284
23.936
24.0488
24.1381
24.1952
24.218
24.2063
24.1592
24.0767
23.9606
23.8087
23.6222
23.393
23.1287
22.8114
22.4627
22.0439
21.6184
21.0944
20.6481
22.8925
23.3638
23.9135
24.3601
24.8032
25.1786
25.5266
25.8247
26.0908
26.3173
26.5103
26.6684
26.7927
26.8803
26.93
26.9409
26.9127
26.8475
26.7554
26.669
26.6733
26.7582
26.8432
26.8998
26.9196
26.9011
26.8447
26.7513
26.6223
26.4609
26.2649
26.0363
25.7686
25.4694
25.1209
24.7453
24.3026
23.8576
23.3107
22.8448
24.8892
25.365
25.9227
26.3761
26.8313
27.2221
27.5904
27.9132
28.2073
28.4664
28.6953
28.891
29.0535
29.1794
29.2662
29.3117
29.3152
29.2786
29.212
29.147
29.1488
29.2109
29.2695
29.2969
29.2841
29.2304
29.1365
29.0047
28.8376
28.6387
28.4074
28.1469
27.8518
27.5286
27.1604
26.77
26.3158
25.8643
25.3093
24.8386
26.6818
27.1461
27.6981
28.1465
28.6025
28.9988
29.3781
29.7182
30.0352
30.3212
30.5801
30.8077
31.0029
31.1615
31.2801
31.3555
31.3863
31.3742
31.3295
31.2814
31.2816
31.3251
31.3609
31.3631
31.3225
31.2383
31.1123
30.9476
30.748
30.5172
30.2563
29.9695
29.6523
29.3127
28.9341
28.5389
28.0845
27.6384
27.0894
26.6299
28.2716
28.7132
29.252
29.6898
30.1423
30.5418
30.9316
31.2886
31.6268
31.9379
32.2241
32.4808
32.7054
32.8931
33.0397
33.1413
33.1955
33.2041
33.1767
33.1406
33.1395
33.1698
33.1875
33.1683
33.1035
32.9927
32.8383
32.6443
32.4151
32.1555
31.8674
31.5559
31.218
30.8623
30.4741
30.0769
29.6267
29.1917
28.6561
28.2192
29.675
30.0902
30.6154
31.0439
31.4955
31.9024
32.3043
32.679
33.0379
33.3726
33.6843
33.9675
34.2186
34.4322
34.6033
34.7274
34.8014
34.8265
34.8119
34.7836
34.7818
34.8031
34.8072
34.7707
34.6857
34.5519
34.3726
34.1525
33.8967
33.6105
33.2972
32.9621
32.6038
32.2309
31.8311
31.4272
30.979
30.554
30.0325
29.6223
30.9221
31.3122
31.8277
32.2521
32.7071
33.1234
33.5384
33.9302
34.3085
34.6649
34.9994
35.3057
35.5799
35.8158
36.0077
36.1504
36.2404
36.2782
36.2726
36.2489
36.2465
36.2623
36.2568
36.207
36.1056
35.9528
35.7523
35.5097
35.2307
34.9211
34.585
34.2284
33.8508
33.461
33.0484
32.6356
32.1844
31.7643
31.2532
30.8683
32.0436
32.4119
32.9214
33.3455
33.8051
34.231
34.6583
35.0655
35.461
35.8361
36.1898
36.5158
36.8093
37.0635
37.2724
37.43
37.5324
37.5795
37.5799
37.5586
37.556
37.5689
37.5568
37.4971
37.3829
37.2147
36.9971
36.7358
36.4372
36.1079
35.7525
35.377
34.9825
34.5772
34.1526
33.7302
33.2746
32.8551
32.3506
31.9881
33.0615
33.4089
33.9143
34.3384
34.8023
35.2367
35.6746
36.095
36.5047
36.8955
37.2651
37.6072
37.9162
38.1851
38.4073
38.5764
38.6883
38.7424
38.7468
38.7267
38.7239
38.7351
38.7186
38.6517
38.5278
38.3478
38.1165
37.8404
37.5261
37.1805
36.809
36.4179
36.0089
35.5906
35.1554
34.7245
34.2645
33.8454
33.345
33.0034
33.9862
34.3117
34.8119
35.235
35.7022
36.1436
36.5904
37.0216
37.4433
37.8466
38.2292
38.5842
38.9055
39.186
39.4187
39.5969
39.7162
39.776
39.7841
39.7656
39.7626
39.7719
39.7516
39.6789
39.5473
39.358
39.1162
38.8284
38.5015
38.1429
37.7583
37.3544
36.9335
36.504
36.0599
35.622
35.1588
34.7405
34.2453
33.9257
34.8193
35.1201
35.6129
36.034
36.5034
36.9507
37.4048
37.8453
38.2768
38.6906
39.0836
39.449
39.7802
40.0698
40.3109
40.4966
40.6224
40.6878
40.7006
40.6853
40.682
40.688
40.6629
40.5847
40.4467
40.25
39.9998
39.7027
39.3659
38.9967
38.6015
38.1871
37.7561
37.3173
36.8657
36.4217
35.9562
35.5397
35.0518
34.757
35.5595
35.8313
36.3141
36.7321
37.2028
37.6553
38.1161
38.5647
39.0047
39.4274
39.8291
40.2029
40.542
40.839
41.0869
41.2789
41.4109
41.4825
41.5017
41.4915
41.4879
41.4886
41.4574
41.3733
41.2293
41.0265
40.7696
40.4651
40.1203
39.7427
39.3387
38.9151
38.4755
38.0283
37.5698
37.1206
36.6535
36.24
35.7622
35.4963
36.2064
36.4424
36.9112
37.3246
37.7961
38.2536
38.7208
39.1772
39.6253
40.056
40.4654
40.8463
41.192
41.4953
41.749
41.9469
42.085
42.1636
42.1908
42.1873
42.1832
42.1772
42.1384
42.0478
41.8981
41.6898
41.4272
41.1167
40.7653
40.3805
39.9687
39.5369
39.0892
38.6341
38.1691
37.7146
37.2467
36.8377
36.3737
36.1438
36.762
36.9504
37.3995
37.8063
38.2777
38.7403
39.2142
39.6788
40.1347
40.5734
40.9899
41.3775
41.7292
42.0379
42.297
42.5005
42.6451
42.7312
42.767
42.7705
42.7663
42.7532
42.7063
42.6086
42.4531
42.2396
41.972
41.6562
41.299
40.9077
40.4886
40.0491
39.5933
39.13
38.6582
38.1988
37.7307
37.3282
36.8835
36.7014
37.2306
37.3523
37.7734
38.1699
38.6403
39.1078
39.5889
40.062
40.5265
40.9731
41.397
41.7911
42.1486
42.4627
42.7268
42.9359
43.0869
43.1808
43.2252
43.2353
43.2308
43.2113
43.1563
43.0516
42.8903
42.6718
42.3995
42.0788
41.7161
41.3184
40.8923
40.4447
39.9806
39.5089
39.03
38.5655
38.0987
37.7064
37.2896
37.1739
37.6197
37.6458
38.0229
38.4058
38.8726
39.3452
39.8338
40.3162
40.7898
41.2452
41.6769
42.0777
42.4413
42.7607
43.0301
43.2447
43.402
43.5034
43.5556
43.5714
43.567
43.5418
43.4796
43.3682
43.2013
42.978
42.701
42.3754
42.0072
41.6031
41.1695
40.7136
40.2406
39.7598
39.2738
38.8045
38.3414
37.9627
37.5896
37.5686
37.9374
37.8329
38.1422
38.5015
38.9624
39.4391
39.9355
40.4277
40.9112
41.3762
41.8162
42.2245
42.5945
42.9196
43.1945
43.4147
43.5781
43.6863
43.7454
43.7659
43.7616
43.7321
43.6636
43.5461
43.3738
43.1457
42.8641
42.5333
42.1593
41.7483
41.3069
40.842
40.3597
39.8697
39.3764
38.9036
38.4466
38.0918
37.7856
37.8938
38.1819
37.9128
38.1278
38.448
38.8969
39.3764
39.8799
40.3822
40.8762
41.3512
41.8005
42.2167
42.5937
42.9251
43.2057
43.4315
43.6008
43.7151
43.7801
43.8046
43.8004
43.7674
43.6937
43.5709
43.3935
43.1606
42.874
42.5379
42.1577
41.7395
41.2897
40.8156
40.3237
39.8245
39.3251
38.8504
38.4062
38.0905
37.8784
38.1493
38.3138
37.8698
37.973
38.2394
38.6679
39.1484
39.6576
40.1695
40.6735
41.1587
41.6173
42.0419
42.4262
42.764
43.0504
43.2818
43.4566
43.5763
43.646
43.6737
43.6698
43.6341
43.5563
43.4289
43.2471
43.0095
42.7181
42.3764
41.9899
41.5643
41.1062
40.623
40.1222
39.6148
39.1111
38.6373
38.2154
37.9554
37.8574
38.3076
38.2928
37.6841
37.6725
37.8764
38.2757
38.7514
39.267
39.7873
40.3008
40.7953
41.2626
41.6952
42.0863
42.4303
42.7222
42.9584
43.1378
43.2619
43.3354
43.3656
43.362
43.3244
43.2437
43.1127
42.9272
42.6856
42.3898
42.0432
41.6508
41.2185
40.7531
40.2622
39.7538
39.24
38.7328
38.2659
37.8752
37.6793
37.6954
38.3065
38.0266
37.3114
37.2168
37.3685
37.7403
38.2084
38.7273
39.2535
39.774
40.2753
40.7492
41.1877
41.5841
41.9326
42.2284
42.4682
42.6507
42.7775
42.8532
42.8849
42.8815
42.8432
42.761
42.6282
42.4405
42.1965
41.8978
41.5477
41.1514
40.7147
40.2444
39.7485
39.2355
38.7193
38.212
37.757
37.399
37.2621
37.3711
38.1036
37.4869
36.7443
36.6193
36.7431
37.0965
37.5565
38.0756
38.607
39.1313
39.6364
40.1135
40.5548
40.9534
41.3036
41.6007
41.8414
42.0245
42.1515
42.2274
42.2594
42.2565
42.2186
42.137
42.0049
41.8174
41.5735
41.2746
40.9241
40.527
40.0892
39.6176
39.1203
38.6064
38.089
37.5862
37.1455
36.8148
36.72
36.8831
37.681
36.7973
36.0664
35.9459
36.0657
36.4137
36.8699
37.3883
37.921
38.445
38.9494
39.425
39.8645
40.261
40.6087
40.9031
41.1407
41.3205
41.4443
41.5173
41.5476
41.545
41.5095
41.4315
41.3033
41.1198
40.8797
40.5846
40.2377
39.8441
39.4098
38.9416
38.4476
37.9372
37.4227
36.9261
36.4957
36.1791
36.1003
36.2745
37.0807
36.2359
35.4904
35.3613
35.4706
35.8087
36.256
36.767
37.294
37.8124
38.311
38.7807
39.2137
39.6037
39.9445
40.2319
40.4622
40.6347
40.7511
40.8175
40.844
40.8418
40.811
40.7402
40.6199
40.4445
40.2126
39.9255
39.5869
39.2016
38.7756
38.316
37.8305
37.3286
36.8226
36.3348
35.9127
35.5999
35.5166
35.6676
36.4334
35.8841
35.1455
35.0174
35.1167
35.4403
35.8699
36.3628
36.8719
37.3745
37.8582
38.3135
38.7327
39.1089
39.4365
39.7106
39.9279
40.0872
40.1905
40.245
40.2636
40.2616
40.2387
40.1796
40.0717
39.9086
39.6891
39.4147
39.0889
38.7167
38.304
37.8579
37.3859
36.8976
36.4055
35.9301
35.5164
35.2043
35.1089
35.228
35.9395
35.924
35.1697
35.025
35.1002
35.3967
35.7968
36.2594
36.7393
37.217
37.6782
38.1128
38.5125
38.87
39.1796
39.4364
39.6369
39.7795
39.8659
39.9041
39.9111
39.9093
39.8977
39.8537
39.7611
39.6132
39.409
39.1503
38.841
38.4862
38.092
37.6653
37.2148
36.75
36.2854
35.8384
35.4524
35.165
35.092
35.2245
35.9497
35.9861
35.3458
35.2657
35.3687
35.6679
36.0536
36.4923
36.9442
37.3946
37.8288
38.2372
38.6116
38.9451
39.2318
39.467
39.6468
39.7696
39.8362
39.8547
39.8461
39.8448
39.8481
39.8216
39.7461
39.6152
39.4286
39.1886
38.8993
38.5655
38.1933
37.7893
37.3619
36.9205
36.4792
36.0523
35.6779
35.3868
35.2873
35.3605
35.9815
36.6164
35.9692
35.8767
35.953
36.2199
36.5676
36.967
37.3847
37.8036
38.2091
38.5909
38.9403
39.2504
39.5156
39.7306
39.8921
39.9973
40.0471
40.0484
40.0249
40.0248
40.0423
40.0306
39.9696
39.854
39.6841
39.4625
39.1934
38.882
38.5343
38.157
37.7591
37.3507
36.9468
36.5637
36.2353
35.9868
35.9287
36.0293
36.6823
37.0989
36.4931
36.4272
36.5135
36.7783
37.1139
37.4981
37.8982
38.2986
38.6849
39.0476
39.3784
39.6707
39.919
40.1186
40.2657
40.358
40.3959
40.3861
40.3534
40.3556
40.3837
40.383
40.3337
40.2307
40.0748
39.8686
39.6161
39.3222
38.9922
38.6327
38.2514
37.8574
37.4643
37.0863
36.7545
36.4885
36.3946
36.4402
37.0145
37.6629
37.0482
36.9683
37.0281
37.2642
37.5708
37.9302
38.3081
38.6887
39.0573
39.4039
39.7199
39.9989
40.2351
40.4237
40.5611
40.6449
40.6754
40.6589
40.6211
40.6235
40.6557
40.6602
40.617
40.5217
40.3748
40.1793
39.9392
39.6595
39.3455
39.0041
38.643
38.2715
37.9037
37.5533
37.2532
37.0155
36.9444
36.99
37.5409
43.4873
51.3083
57.5372
63.6636
68.9522
73.2417
76.6786
79.4566
81.7311
83.6364
85.292
86.7745
88.1209
89.3654
90.5389
91.6721
92.7955
93.9373
95.121
96.364
97.6756
99.0581
100.509
102.02
103.582
105.182
106.803
108.424
110.003
111.473
112.684
113.4
42.7749
50.3113
56.3411
62.3273
67.5426
71.7973
75.2164
77.9866
80.2609
82.1723
83.8358
85.3214
86.6591
87.8898
89.0455
90.1573
91.2571
92.3739
93.5319
94.7476
96.0304
97.3829
98.8017
100.28
101.807
103.371
104.954
106.536
108.078
109.512
110.694
111.39
41.9872
49.2759
55.1185
60.965
66.1066
70.3293
73.7365
76.507
78.7914
80.719
82.3972
83.8888
85.2233
86.4431
87.582
88.6744
89.7524
90.8457
91.9779
93.1666
94.4213
95.7441
97.1316
98.5768
100.069
101.598
103.144
104.689
106.193
107.591
108.742
109.419
41.1792
48.2319
53.8867
59.5894
64.6566
68.8514
72.2531
75.0317
77.3356
79.2872
80.9837
82.4829
83.8181
85.0289
86.1556
87.2307
88.2884
89.359
90.468
91.6316
92.8591
94.1531
95.5103
96.9234
98.3824
99.8742
101.384
102.891
104.358
105.72
106.841
107.5
40.3135
47.1451
52.6119
58.1678
63.1624
67.3374
70.7457
73.5457
75.88
77.8632
79.5845
81.0989
82.4413
83.6498
84.7653
85.8258
86.8661
87.9174
89.0033
90.1423
91.3441
92.6106
93.9384
95.3206
96.7465
98.2044
99.6786
101.149
102.579
103.907
104.998
105.638
39.4526
46.0608
51.3312
56.7322
61.653
65.814
69.2369
72.0649
74.4351
76.4546
78.2031
79.7331
81.0846
82.2966
83.4088
84.4591
85.4842
86.5164
87.5832
88.7007
89.8782
91.1183
92.4179
93.7695
95.1632
96.5869
98.025
99.4594
100.853
102.147
103.21
103.831
38.5171
44.9125
49.9816
55.2215
60.0693
64.2269
67.6811
70.5549
72.9747
75.0384
76.8221
78.3797
79.7507
80.9734
82.0842
83.1272
84.1412
85.1603
86.2079
87.3037
88.4586
89.6739
90.9465
92.2687
93.6316
95.0227
96.4277
97.8263
99.1856
100.446
101.479
102.083
37.5981
43.7715
48.6261
53.6911
58.4606
62.6205
66.1157
69.0409
71.5126
73.6254
75.4484
77.0327
78.4234
79.6605
80.7844
81.8286
82.8363
83.8417
84.8754
85.9547
87.0885
88.2801
89.5267
90.8208
92.1529
93.5105
94.8796
96.244
97.568
98.795
99.8006
100.386
36.5648
42.5251
47.1562
52.0341
56.7211
60.8927
64.4498
67.4534
70.0031
72.1808
74.0556
75.685
77.1112
78.3741
79.5067
80.5568
81.5623
82.5641
83.5845
84.6457
85.7604
86.9304
88.1521
89.4188
90.7211
92.0483
93.3852
94.7149
96.0046
97.1996
98.1766
98.7436
35.5453
41.278
45.6694
50.3373
54.9273
59.1144
62.7486
65.8402
68.4676
70.7159
72.6512
74.3239
75.785
77.0746
78.2369
79.3024
80.3164
81.3142
82.3279
83.3795
84.4774
85.6262
86.8241
88.064
89.3362
90.6299
91.931
93.2254
94.4806
95.6425
96.5924
97.1401
34.3277
39.849
43.9923
48.4324
52.9116
57.1159
60.8472
64.067
66.8253
69.1803
71.197
72.9421
74.46
75.7964
76.9802
78.0638
79.0853
80.0906
81.0999
82.1383
83.2215
84.3523
85.5268
86.7398
87.9827
89.2459
90.5157
91.776
92.9969
94.1272
95.0485
95.5779
33.0877
38.3953
42.2697
46.4451
50.7799
54.9984
58.8564
62.2306
65.1159
67.583
69.6994
71.5149
73.0935
74.4733
75.7073
76.8227
77.8695
78.8799
79.891
80.9286
82.0003
83.1124
84.2655
85.4529
86.6656
87.8945
89.126
90.3505
91.5377
92.6336
93.5281
94.0371
31.5324
36.6424
40.2308
44.1112
48.2697
52.4825
56.4703
60.0516
63.1758
65.8373
68.094
70.0335
71.6995
73.1564
74.4316
75.5845
76.6499
77.6812
78.6982
79.7271
80.7887
81.8873
83.0189
84.1801
85.3644
86.563
87.7641
88.9548
90.106
91.1712
92.0361
92.5261
29.9008
34.8219
38.1087
41.6376
45.5489
49.7338
53.9088
57.7578
61.0932
63.9526
66.3913
68.4484
70.2253
71.7564
73.1106
74.3131
75.4267
76.4759
77.5049
78.5448
79.6019
80.6845
81.7973
82.9339
84.0867
85.2493
86.4099
87.5616
88.679
89.708
90.5451
91.0129
27.6704
32.4245
35.3774
38.4922
42.0826
46.1577
50.4588
54.653
58.4937
61.7466
64.449
66.7456
68.6662
70.3223
71.7482
73.0241
74.1721
75.2608
76.3104
77.3469
78.3991
79.4736
80.5665
81.677
82.8021
83.9331
85.0616
86.1815
87.2617
88.2588
89.0643
89.5123
25.2119
29.885
32.5635
35.2429
38.3963
42.3319
46.8846
51.485
55.5834
59.2153
62.3042
64.8167
66.9572
68.754
70.3144
71.6583
72.8857
74.0102
75.0843
76.1486
77.2058
78.2676
79.3444
80.4308
81.5207
82.6139
83.6982
84.7723
85.8149
86.7739
87.5499
87.9712
21.2539
25.9248
28.1819
30.1671
32.6388
35.9927
40.4939
45.8739
51.4377
55.9735
59.6042
62.6409
65.0467
67.0641
68.7442
70.2333
71.5243
72.7162
73.8332
74.8997
75.958
77.0181
78.0761
79.1353
80.1979
81.2551
82.3039
83.3481
84.3557
85.2761
86.0163
86.4178
16.4099
21.6169
24.115
25.991
27.6311
30.9912
36.1127
41.4624
46.3554
51.7849
56.4134
59.91
62.8253
65.1378
67.0841
68.6672
70.0856
71.3405
72.4991
73.619
74.6958
75.7473
76.7917
77.826
78.8467
79.8625
80.8611
81.8482
82.8033
83.6876
84.3964
84.7615
5.12866
11.0089
12.3593
11.8253
11.5611
10.3945
13.6871
26.3851
38.8011
45.9792
51.8269
56.6949
60.1364
62.9077
65.0674
66.9513
68.4938
69.8658
71.1048
72.2324
73.3179
74.3748
75.4012
76.4049
77.397
78.3689
79.3239
80.2824
81.2161
82.0444
82.7069
83.054
4.56203
7.5195
8.13552
6.31466
9.27712
16.7701
15.5855
21.2821
18.185
36.7593
45.8816
51.7818
56.717
60.1748
62.9353
64.9701
66.7388
68.2235
69.5321
70.7593
71.8847
72.9393
73.9538
74.9282
75.8671
76.7882
77.6827
78.5661
79.4125
80.2106
80.8428
81.1344
11.7299
16.0276
17.1098
16.867
14.8813
16.0018
15.5204
11.559
8.06903
15.5592
35.4875
46.237
52.0235
56.7128
59.9338
62.6516
64.6695
66.378
67.8413
69.0797
70.2254
71.2948
72.2914
73.2295
74.1331
75.0012
75.8323
76.6868
77.5408
78.2564
78.8134
79.0912
19.5292
23.9749
25.8378
26.605
26.2631
25.1518
25.7594
21.7047
21.0704
18.0515
16.6563
33.5658
45.8828
51.9599
56.7329
59.7372
62.2591
64.1849
65.7718
67.2091
68.4349
69.5128
70.4977
71.393
72.2225
73.0083
73.7662
74.512
75.2191
75.8945
76.4354
76.6193
22.0988
27.0423
29.7156
31.6681
32.7769
32.8318
31.5783
29.4318
26.0566
25.7001
19.0484
16.3792
30.9186
45.2819
51.2992
56.1322
59.1292
61.5521
63.4738
64.9173
66.1858
67.2938
68.261
69.107
69.8858
70.6285
71.2539
71.9704
72.7258
73.312
73.7043
73.8807
22.8489
27.9177
30.8185
33.135
34.8231
35.8496
36.1287
35.4319
33.0344
28.2485
29.3867
26.4691
30.8639
32.8089
45.6204
50.8749
55.3468
58.1884
60.3293
62.2203
63.6552
64.7936
65.7437
66.5115
67.1624
67.6997
68.272
68.8026
69.329
69.7826
70.187
70.1878
22.359
27.5639
30.6284
33.1781
35.169
36.5856
37.4213
37.654
37.1514
35.3598
31.2186
28.3312
32.3099
32.8792
32.5538
44.2759
49.4219
53.7297
56.7558
58.5733
60.099
61.2883
62.229
62.9019
63.4803
64.1411
64.2616
64.7785
65.3932
65.8769
65.9862
65.989
20.9322
26.2732
29.4353
32.1278
34.3216
36.0134
37.2217
37.9787
38.3084
38.1377
36.8889
33.1869
30.553
29.2779
28.3939
32.7192
43.5172
47.8153
51.0505
54.1055
56.001
57.2663
58.1506
58.6523
58.9189
58.8162
59.1921
59.2804
59.6
59.5498
59.5836
59.2181
18.9677
24.4036
27.5948
30.3406
32.6318
34.4821
35.9196
37.0006
37.8039
38.3924
38.701
38.1898
34.8749
26.1338
26.3667
7.62958
25.6305
38.6113
45.1577
47.1675
49.1749
50.4653
51.4542
51.6192
51.8881
53.3699
51.3203
51.4489
51.7555
52.7498
52.7414
52.4699
16.6886
22.1136
25.2355
27.9329
30.2251
32.1499
33.7512
35.0879
36.249
37.3266
38.3537
39.177
39.093
36.2829
28.4771
16.7885
13.2455
23.2434
30.3756
38.854
42.3121
43.4629
44.2574
43.8552
42.8985
41.4357
41.1616
40.352
41.0688
40.7129
36.2261
35.1871
14.3951
19.6629
22.6071
25.1504
27.345
29.2513
30.9289
32.4436
33.8768
35.3187
36.8167
38.2991
39.4557
39.486
36.2092
26.9178
27.064
22.6492
28.7273
21.3507
21.5319
24.5118
25.4241
27.54
29.1544
30.7274
31.9235
6.46308
9.63064
21.9495
28.6318
28.9276
12.3813
17.3663
20.0559
22.3725
24.4004
26.218
27.8948
29.4978
31.096
32.7614
34.5493
36.4328
38.2311
39.501
39.2862
36.0213
29.3862
21.536
32.5494
29.0879
19.7898
30.2144
29.1807
39.0496
40.7847
35.89
43.9845
19.8566
14.2672
30.6923
33.8914
36.2194
10.8426
15.4747
17.894
19.9671
21.8069
23.504
25.1308
26.7474
28.4067
30.1589
32.054
34.1097
36.2502
38.2052
39.4277
39.2668
35.7024
30.125
28.7644
26.8604
26.6127
21.1901
30.0525
30.7286
32.9708
35.6112
40.3651
34.4014
31.0864
40.8697
33.7954
30.9976
9.71654
14.1041
16.297
18.1678
19.8512
21.4408
23.0022
24.5813
26.2138
27.9342
29.7845
31.808
34.0147
36.2958
38.3189
39.5851
39.3431
37.8914
33.6689
31.1504
28.5634
31.7111
31.6334
33.3893
35.2564
29.7019
36.5166
39.5753
37.7349
35.0315
39.7441
39.8903
9.123
13.3222
15.3574
17.0987
18.6885
20.2113
21.7159
23.2304
24.7758
26.3782
28.0756
29.9204
31.965
34.2166
36.548
38.6255
39.8924
40.3187
39.1836
38.8173
37.7016
38.1601
37.7848
40.7477
42.212
37.8828
41.652
43.6664
41.7363
38.3267
43.148
43.3635
8.9548
13.0684
15.0354
16.7308
18.295
19.7963
21.2644
22.7119
24.1501
25.6015
27.1017
28.7004
30.4587
32.4358
34.6414
36.9491
38.9944
40.4174
40.8315
41.1171
40.8042
41.1729
41.1303
42.4092
43.3742
41.4019
42.322
43.8042
42.2201
41.0095
43.3463
43.8278
9.13722
13.2432
15.2138
16.9304
18.5215
20.0373
21.4914
22.8867
24.2314
25.5452
26.8599
28.2175
29.6713
31.2868
33.1273
35.2042
37.3741
39.3246
40.611
41.4264
41.5776
41.8883
41.8305
42.2581
42.871
42.067
41.9523
42.9737
41.6483