/*--------------------------------*- C++ -*----------------------------------*\
  =========                 |
  \\      /  F ield         | OpenFOAM: The Open Source CFD Toolbox
   \\    /   O peration     | Website:  https://openfoam.org
    \\  /    A nd           | Version:  6
     \\/     M anipulation  |
\*---------------------------------------------------------------------------*/
FoamFile
{
    version     2.0;
    format      ascii;
    class       volScalarField;
    location    "49";
    object      yPlus;
}
// * * * * * * * * * * * * * * * * * * * * * * * * * * * * * * * * * * * * * //

dimensions      [0 0 0 0 0 0 0];

internalField   uniform 0;

boundaryField
{
    inlet
    {
        type            calculated;
        value           uniform 0;
    }
    outlet
    {
        type            calculated;
        value           uniform 0;
    }
    roughCylinder
    {
        type            calculated;
        value           nonuniform List<scalar> 
5120
(
74.3192
58.8907
52.0628
55.5562
61.5736
66.6523
70.8696
74.4052
77.4115
80.0375
82.4127
84.5987
86.6401
88.5816
90.4446
92.2737
94.0979
95.9747
97.9184
99.9421
102.054
104.253
106.535
108.887
111.293
113.726
116.15
118.514
120.742
122.725
124.28
125.148
92.3546
60.6054
51.6675
54.0855
59.8997
64.9392
69.1373
72.6561
75.652
78.2859
80.6505
82.806
84.8132
86.6983
88.5075
90.2692
92.0441
93.8444
95.7115
97.6644
99.7054
101.831
104.036
106.308
108.631
110.981
113.322
115.605
117.756
119.672
121.173
122.01
91.4667
59.4365
50.5281
52.625
58.2539
63.2174
67.3703
70.8877
73.9087
76.5438
78.9073
81.0523
83.0142
84.8597
86.6104
88.3219
90.0133
91.7567
93.564
95.4445
97.407
99.4545
101.579
103.77
106.012
108.279
110.539
112.742
114.818
116.666
118.114
118.919
92.9638
61.116
50.3923
51.1094
56.4844
61.4296
65.6049
69.1439
72.1683
74.8313
77.1973
79.3159
81.2578
83.0531
84.7607
86.4043
88.063
89.7348
91.4649
93.2783
95.1773
97.156
99.2083
101.324
103.486
105.673
107.852
109.976
111.978
113.761
115.156
115.931
89.3114
59.4
49.3639
49.6579
54.7897
59.6739
63.8099
67.3549
70.4414
73.1202
75.4903
77.6205
79.5314
81.3044
82.9613
84.5751
86.1473
87.7699
89.4543
91.2036
93.0274
94.931
96.907
98.946
101.032
103.143
105.244
107.293
109.224
110.943
112.289
113.033
75.0051
58.4776
48.6501
48.0462
52.8877
57.7674
61.9762
65.5993
68.692
71.4126
73.8106
75.9185
77.8352
79.5722
81.2076
82.7535
84.3183
85.881
87.4888
89.1769
90.9478
92.7925
94.7057
96.6761
98.6892
100.723
102.75
104.726
106.587
108.245
109.541
110.257
80.4926
57.5817
47.8322
46.5776
51.0953
55.9434
60.1226
63.731
66.926
69.6855
72.0907
74.2436
76.1429
77.8889
79.4845
81.0341
82.5104
84.0321
85.614
87.2497
88.9493
90.723
92.5633
94.4629
96.4052
98.3692
100.324
102.229
104.024
105.622
106.872
107.559
93.7116
59.7928
47.4672
44.8889
48.975
53.8064
58.1125
61.8989
65.1035
67.9163
70.3933
72.5296
74.4639
76.1859
77.7965
79.277
80.7809
82.2622
83.7672
85.3472
87.0073
88.7339
90.5225
92.3615
94.2374
96.131
98.0152
99.8525
101.582
103.123
104.326
104.986
86.3084
60.1379
47.6199
43.4983
46.9697
51.8105
56.1234
59.8357
63.2019
66.1044
68.5899
70.821
72.7538
74.5204
76.0973
77.631
79.0469
80.4953
82.0011
83.5455
85.138
86.7966
88.5153
90.2862
92.0967
93.9255
95.7439
97.5135
99.1815
100.668
101.827
102.458
76.9281
57.3188
46.4055
41.6637
44.4569
49.2065
53.7039
57.8014
61.1994
64.1678
66.8034
69.0253
71.0357
72.7874
74.4241
75.8761
77.3615
78.7981
80.2257
81.7189
83.2888
84.9151
86.5937
88.3161
90.0655
91.8272
93.5781
95.2853
96.8915
98.3224
99.4374
100.041
67.7859
56.9042
46.4801
40.1623
42.0065
46.8167
51.434
55.321
58.9904
62.1602
64.8043
67.2015
69.2315
71.0834
72.6848
74.2557
75.6452
77.0498
78.5124
79.9926
81.497
83.0557
84.6659
86.3179
88.0063
89.7087
91.3975
93.0389
94.5863
95.965
97.0378
97.6123
72.9435
54.6994
44.7744
38.2124
38.753
43.225
48.0824
52.8481
56.6146
59.8702
62.8156
65.2153
67.3935
69.2368
70.9692
72.4314
73.9451
75.378
76.7542
78.182
79.6838
81.2287
82.8122
84.4318
86.0644
87.7021
89.3257
90.9077
92.3951
93.7204
94.7499
95.2974
74.3609
56.1371
44.6795
36.1142
35.4078
39.95
45.259
49.4443
53.7556
57.47
60.4218
63.1478
65.3763
67.4157
69.1003
70.7839
72.1889
73.5828
75.0405
76.4878
77.9239
79.3978
80.9125
82.4536
84.0289
85.6116
87.1768
88.6933
90.1236
91.3988
92.387
92.9052
64.8065
54.2808
44.6781
34.8528
30.488
34.0037
39.532
46.0516
50.5821
54.4349
58.0293
60.7807
63.296
65.3269
67.2638
68.7856
70.3943
71.8798
73.2354
74.6225
76.0831
77.5699
79.0753
80.6083
82.1329
83.6522
85.1525
86.6132
87.9848
89.2062
90.1512
90.6432
47.3053
47.2344
41.5947
32.1012
25.8321
28.0843
35.4248
40.0539
46.2091
51.2207
54.8199
58.241
60.8588
63.2707
65.1261
67.0416
68.5172
69.9421
71.4477
72.9042
74.2955
75.7006
77.1333
78.5699
80.0401
81.5092
82.9545
84.347
85.6612
86.8334
87.7382
88.198
25.1995
36.0153
35.2647
29.267
13.0204
11.296
19.8779
34.7035
40.9333
46.3982
51.5957
55.0896
58.3185
60.7153
63.0547
64.7009
66.509
68.1296
69.5023
70.8776
72.3327
73.7916
75.2404
76.7066
78.1314
79.5362
80.9142
82.2554
83.5102
84.6273
85.4876
85.9225
5.83044
19.3528
19.7524
10.8543
6.75191
15.8968
7.89982
10.2271
31.9717
41.0061
46.3924
51.5972
55.0385
58.2261
60.3999
62.7671
64.3889
65.8993
67.5314
69.0581
70.433
71.786
73.1492
74.4843
75.8563
77.2154
78.5409
79.8059
81.0016
82.0694
82.8883
83.2864
10.9392
3.68421
12.4225
13.6475
4.07114
15.9425
16.7998
5.83589
5.29684
30.6025
41.2238
46.5361
51.5681
54.7278
57.907
59.7721
61.9706
63.863
65.3005
66.6987
68.1997
69.6747
71.0991
72.5229
73.8556
75.1461
76.3978
77.617
78.7511
79.7598
80.5318
80.9059
11.7926
8.202
8.84717
14.3782
15.9781
17.221
17.9894
18.3157
18.2286
21.995
27.9415
40.8235
46.3132
51.4119
54.2022
57.512
59.3963
61.0738
62.9699
64.6677
66.0626
67.38
68.6775
69.9147
71.1926
72.4421
73.6435
74.7696
75.8384
76.7955
77.5231
77.8513
6.68987
11.9367
9.24709
16.5253
12.6621
12.8696
11.979
10.3084
10.0531
5.9845
17.7806
28.3157
40.645
45.6703
50.9275
53.1664
56.1928
58.6321
60.2008
61.6676
63.3028
64.8695
66.3358
67.7427
68.9927
70.1639
71.2778
72.3688
73.3723
74.263
74.9388
75.2466
6.6237
15.9304
19.4777
20.5342
16.674
14.777
17.3802
22.7014
21.9099
21.4513
20.9831
10.5513
28.294
40.5067
44.6635
50.3496
52.7186
54.7176
57.1846
59.2574
60.7274
62.0246
63.2304
64.388
65.5699
66.7069
67.7735
68.7359
69.6602
70.4948
71.1205
71.3621
8.01107
18.3954
23.2661
26.7321
28.6246
26.9357
17.1364
24.8428
7.26871
18.0197
14.6332
12.1562
7.01632
26.2799
39.7831
42.6556
47.8359
51.5431
53.3349
54.9569
56.9239
58.7449
60.4216
61.8356
63.0283
64.0681
65.0202
65.974
66.8306
67.5868
68.1528
68.3855
7.82559
18.2692
24.0119
28.21
30.7943
31.9316
31.7483
25.0901
28.2011
19.9402
11.2301
18.2241
22.805
17.0599
23.0627
38.6489
42.1589
44.9399
48.9512
51.8953
53.5385
54.839
55.8323
56.9784
58.0439
59.0657
59.9799
60.7256
61.4719
62.1638
62.6701
62.7893
7.46139
17.1312
23.1844
27.898
31.3536
33.388
33.5993
32.8321
27.8631
29.2014
27.6301
13.4055
17.8949
15.4896
5.3516
16.1555
32.9385
40.2665
42.3527
44.4257
47.3572
49.8706
52.2977
53.7544
54.9891
55.8775
56.6166
57.4336
58.1216
58.7168
59.1517
59.2996
6.70723
15.5928
21.5697
26.2655
29.8395
32.4218
34.0445
34.0806
33.0246
29.7759
25.4186
20.7863
4.28525
11.4403
16.1834
13.9291
5.96961
23.8441
34.1869
40.2133
42.2795
43.6519
43.8463
45.2598
46.1215
47.0354
47.7869
48.1668
48.6511
49.1796
49.5323
49.423
5.97855
14.3487
19.9951
24.4791
27.9889
30.6537
32.4437
33.4524
33.2541
32.0507
29.5562
14.4162
17.7562
26.9445
11.713
15.6012
14.4956
24.5313
22.5751
20.1699
27.6879
33.834
39.3313
40.8781
42.5575
43.3009
43.6442
44.3518
44.947
45.2342
45.5679
45.581
5.23136
13.2316
18.2567
22.2552
25.4491
28.019
30.0011
31.2442
31.8174
31.6998
30.6272
31.8208
22.4181
12.7131
24.606
21.2179
25.4478
23.2225
16.2218
25.2572
21.5443
9.21894
6.57172
14.557
14.0862
15.5591
16.1899
16.7069
14.3234
16.8744
14.7069
15.2892
4.63501
12.2893
16.0834
19.1747
21.8342
24.1712
26.1243
27.6199
28.5786
29.2251
30.1543
29.5332
31.3636
26.7719
24.3276
21.5279
22.9233
26.1939
19.058
4.46067
26.4589
7.50706
25.7766
27.5337
20.2895
7.36489
21.1639
30.0241
8.39947
31.0298
22.5006
31.441
4.36606
11.9489
13.666
15.3073
17.0433
18.8833
20.7296
22.4251
23.9619
25.455
26.8313
29.1303
29.8029
31.3988
30.1365
17.132
18.0736
20.9158
8.68694
26.2863
19.8198
26.996
9.78997
18.9956
10.6294
29.1404
30.1789
21.2074
29.6331
22.8001
11.8193
22.703
3.94765
11.3994
12.0936
12.5712
13.1426
14.0035
15.3096
17.0606
19.0625
21.2072
23.608
25.5043
28.21
29.9594
31.0316
32.7935
25.384
15.6308
23.1955
16.4627
13.8063
18.5617
7.98674
23.5208
9.90639
23.9874
18.4833
9.03311
32.1527
21.2067
31.6093
13.182
3.69528
11.6846
11.5991
11.8393
11.9909
12.2006
13.0335
14.6385
16.614
18.6903
20.7404
23.2862
25.3536
27.8173
30.298
31.1409
32.4421
30.2026
20.1997
22.896
10.9943
22.0511
27.7872
27.2335
14.8474
29.2667
25.3548
20.9826
29.2591
20.0192
12.8297
7.60524
3.56239
11.374
11.5665
11.7405
11.8617
12.1196
13.2958
15.1315
16.9763
18.6298
20.2651
21.7034
23.6569
25.5775
27.5512
30.2294
31.7093
32.3409
32.6466
29.1043
21.3599
14.8555
23.7874
20.2014
17.7931
27.008
21.5052
18.7557
17.4422
7.56336
33.3297
8.13018
2.46016
9.17206
11.3711
11.6036
11.6666
11.9951
13.7981
15.9811
17.9046
19.5104
20.828
22.1493
23.2148
24.4849
26.0962
27.6387
29.8097
31.8123
32.4619
32.4255
32.3958
29.9399
26.6044
22.9889
20.0137
18.4884
17.8079
17.9645
17.733
18.6302
19.8926
20.2479
2.22513
8.45672
10.7693
11.5852
11.701
13.1674
15.5264
17.6647
19.3936
20.8033
22.0201
22.9789
23.9151
24.6938
25.4031
26.5843
27.9384
29.5555
31.4403
32.5366
32.3452
32.0345
31.3761
31.0055
30.7651
30.5246
30.1194
29.7653
29.4559
29.3707
29.4126
29.5151
2.8702
9.69674
11.4434
11.5476
12.8372
15.2299
17.5276
19.4375
21.0165
22.3402
23.4372
24.3969
25.1083
25.6725
26.165
26.4785
27.091
28.1665
29.4215
30.7185
31.6802
31.9015
31.4215
30.5091
29.3492
28.1185
26.9806
26.124
25.5213
25.3348
25.5334
25.8223
3.71414
11.2627
11.555
13.0836
15.4405
17.7379
19.7162
21.3925
22.8172
24.0332
25.0831
25.9326
26.6299
27.1119
27.3538
27.5345
27.6136
27.7841
28.3918
29.2965
30.0883
30.4683
30.3942
29.917
29.165
28.2034
27.0833
26.1658
25.6252
25.5656
25.7833
26.0068
3.84307
11.8204
13.5305
15.7881
17.9811
19.9559
21.7046
23.2426
24.5961
25.7857
26.8141
27.6896
28.3499
28.795
29.0412
29.0258
28.8813
28.7194
28.604
28.7177
29.0765
29.4179
29.347
28.7962
27.7541
26.3773
24.8799
23.6703
23.0142
23.0166
23.4236
23.8676
4.27883
12.3868
15.5898
18.0961
20.1814
21.9983
23.622
25.0825
26.3984
27.5771
28.6215
29.4969
30.1902
30.6602
30.8739
30.8782
30.659
30.2628
29.8303
29.4601
29.1895
28.9832
28.71
28.1758
27.3075
26.1466
24.8497
23.772
23.2573
23.4093
23.9057
24.3679
5.53535
14.6204
17.813
20.142
22.0571
23.7753
25.3563
26.8103
28.147
29.3646
30.4499
31.3802
32.1097
32.6151
32.8903
32.8997
32.6699
32.2405
31.6413
30.9535
30.2815
29.6579
29.0092
28.2203
27.174
25.8758
24.4749
23.3282
22.8125
23.0377
23.6605
24.2372
6.70932
16.1524
19.4206
21.7664
23.6971
25.4292
27.0236
28.5042
29.8839
31.1537
32.2959
33.2741
34.0616
34.6292
34.9509
35.0292
34.8513
34.4167
33.7669
32.9534
32.0277
31.0526
30.0527
28.9931
27.8173
26.519
25.2093
24.1771
23.7755
24.0901
24.7598
25.3443
8.04202
9.38195
10.7074
11.442
11.7097
11.8305
11.4409
11.4412
11.6716
11.4994
11.5061
11.431
11.3519
11.227
10.4071
9.92555
9.50244
9.20427
9.00779
8.91233
8.91233
9.00782
9.20431
9.50248
9.92559
10.4072
11.2265
11.504
11.5481
11.5104
11.7843
11.9925
12.0475
11.4232
11.4281
11.2967
11.4651
10.7125
9.38281
8.04277
17.4256
18.2214
18.8728
19.2327
19.5103
19.6606
19.7518
19.7671
19.768
19.7032
19.6266
19.516
19.4002
19.259
19.1139
19.0125
18.9199
18.8547
18.8096
18.7878
18.7878
18.8096
18.8546
18.9199
19.0124
19.114
19.2585
19.4006
19.5208
19.6288
19.7116
19.7686
19.7838
19.7542
19.6505
19.4986
19.2329
18.8725
18.2216
17.4262
20.6385
21.2501
21.7534
22.0303
22.2616
22.3625
22.4346
22.4289
22.4106
22.3521
22.2898
22.2089
22.1303
22.0475
21.9735
21.9115
21.8586
21.8199
21.7927
21.7788
21.7788
21.7926
21.8198
21.8586
21.9114
21.9735
22.0472
22.1305
22.2086
22.2901
22.3521
22.4102
22.43
22.4348
22.3622
22.2609
22.0298
21.7532
21.2502
20.6389
22.9074
23.4313
23.8837
24.153
24.3845
24.5049
24.6053
24.6421
24.6682
24.663
24.6571
24.638
24.6203
24.5991
24.5792
24.5628
24.5486
24.5388
24.5315
24.5272
24.5272
24.5314
24.5388
24.5485
24.5626
24.5791
24.5989
24.6202
24.6378
24.657
24.6628
24.668
24.6421
24.6052
24.5047
24.3844
24.1528
23.8838
23.4313
22.9077
24.8048
25.2955
25.7391
26.0229
26.2775
26.4371
26.5822
26.677
26.7653
26.8262
26.8856
26.9326
26.9777
27.017
27.052
27.0839
27.1104
27.1321
27.1461
27.1524
27.1522
27.1461
27.1319
27.1103
27.0838
27.0519
27.0168
26.9776
26.9325
26.8854
26.826
26.7651
26.6768
26.5821
26.4369
26.2774
26.0227
25.7392
25.2954
24.805
26.5358
27.0039
27.4578
27.761
28.0546
28.2639
28.4699
28.6277
28.7841
28.9136
29.0417
29.1561
29.2659
29.3664
29.458
29.5395
29.608
29.6617
29.6979
29.7148
29.7148
29.6977
29.6616
29.6077
29.5393
29.4578
29.3662
29.2656
29.1558
29.0414
28.9135
28.7838
28.6275
28.4697
28.2637
28.0544
27.7608
27.4578
27.0038
26.536
28.1528
28.6044
29.0866
29.4164
29.763
30.0229
30.2908
30.5098
30.7317
30.9264
31.1197
31.2975
31.4684
31.6261
31.7704
31.898
32.0052
32.0888
32.145
32.1714
32.1714
32.1449
32.0886
32.0051
31.8978
31.7702
31.6259
31.4681
31.2971
31.1193
30.926
30.7313
30.5095
30.2905
30.0226
29.7628
29.4162
29.0866
28.6042
28.1529
29.6754
30.1193
30.6419
31.0015
31.3988
31.7051
32.0291
32.3032
32.5833
32.8361
33.0873
33.3212
33.546
33.754
33.9443
34.1116
34.2521
34.361
34.434
34.4682
34.4682
34.4339
34.3609
34.2519
34.1114
33.9439
33.7536
33.5457
33.3209
33.0869
32.8357
32.583
32.3028
32.0287
31.7049
31.3985
31.0012
30.6418
30.1191
29.6754
31.1081
31.5481
32.1131
32.497
32.9394
33.2855
33.6572
33.9784
34.3078
34.61
34.9099
35.191
35.4608
35.7104
35.9384
36.1383
36.3057
36.4347
36.5208
36.5609
36.5609
36.5207
36.4345
36.3054
36.1381
35.9381
35.7101
35.4605
35.1907
34.9096
34.6096
34.3075
33.978
33.6568
33.2853
32.9391
32.4967
32.1129
31.5479
31.1081
32.4342
32.8715
33.4724
33.8767
34.3558
34.7353
35.1456
35.5058
35.8754
36.2179
36.5571
36.8765
37.1821
37.4646
37.722
37.9472
38.135
38.2793
38.3754
38.4198
38.4197
38.3753
38.2792
38.1347
37.9469
37.7216
37.4642
37.1817
36.8761
36.5568
36.2175
35.875
35.5054
35.1452
34.7349
34.3556
33.8764
33.4721
32.8712
32.434
33.6266
34.0595
34.6909
35.1115
35.6204
36.027
36.4684
36.8603
37.2621
37.6368
38.0071
38.3562
38.6892
38.9968
39.276
39.5197
39.7223
39.8777
39.9807
40.028
40.028
39.9805
39.8775
39.7221
39.5194
39.2757
38.9964
38.6889
38.3558
38.0067
37.6364
37.2616
36.86
36.4679
36.0265
35.6199
35.1111
34.6905
34.0592
33.6263
34.6561
35.0815
35.7415
36.1752
36.7097
37.139
37.6065
38.0247
38.4524
38.853
39.2476
39.6197
39.9734
40.2993
40.5943
40.851
41.0636
41.2262
41.3337
41.3827
41.3827
41.3335
41.226
41.0634
40.8506
40.594
40.299
39.973
39.6193
39.2472
38.8526
38.452
38.0242
37.6062
37.1386
36.7092
36.1748
35.7412
35.081
34.6558
35.4903
35.914
36.601
37.0492
37.6074
38.0582
38.5492
38.9905
39.4407
39.863
40.2776
40.668
41.0378
41.3776
41.6839
41.9496
42.169
42.3362
42.4466
42.4967
42.4966
42.4464
42.3361
42.1688
41.9493
41.6836
41.3773
41.0374
40.6676
40.2771
39.8626
39.4403
38.9901
38.5488
38.0577
37.6069
37.0487
36.6006
35.9136
35.49
36.1075
36.5386
37.2543
37.7219
38.3048
38.779
39.2932
39.7572
40.2286
40.6708
41.1031
41.5093
41.8924
42.2433
42.5584
42.8307
43.0549
43.2253
43.3374
43.3882
43.3882
43.3373
43.2251
43.0547
42.8305
42.558
42.2429
41.892
41.509
41.1027
40.6704
40.2282
39.7568
39.2928
38.7785
38.3044
37.7215
37.2539
36.538
36.1071
36.4974
36.9401
37.6951
38.1865
38.7994
39.2995
39.8396
40.3274
40.8206
41.2826
41.7319
42.1528
42.5479
42.9085
43.2311
43.5089
43.7368
43.9096
44.0231
44.0746
44.0746
44.0231
43.9095
43.7366
43.5086
43.2309
42.9083
42.5477
42.1525
41.7315
41.2822
40.8202
40.3271
39.8392
39.2992
38.799
38.186
37.6946
36.9396
36.497
36.6376
37.1154
37.9135
38.4397
39.0874
39.6188
40.1877
40.702
41.2183
41.7009
42.1677
42.6033
43.0102
43.3802
43.7095
43.9923
44.2236
44.3986
44.5135
44.5656
44.5656
44.5135
44.3985
44.2235
43.9921
43.7093
43.3799
43.01
42.603
42.1673
41.7006
41.218
40.7017
40.1874
39.6185
39.0869
38.4393
37.9131
37.1149
36.6371
36.5221
37.0525
37.9015
38.4739
39.161
39.7303
40.3313
40.8753
41.4167
41.9214
42.4064
42.8573
43.2763
43.6556
43.9919
44.2797
44.5143
44.6916
44.8079
44.8608
44.8608
44.8079
44.6916
44.5143
44.2795
43.9917
43.6554
43.2761
42.8571
42.4062
41.9212
41.4164
40.875
40.331
39.73
39.1607
38.4736
37.901
37.0518
36.5216
36.1503
36.7308
37.6465
38.2725
39.0068
39.6186
40.2559
40.8325
41.4013
41.93
42.4345
42.9017
43.3334
43.7227
44.0664
44.3596
44.598
44.7778
44.8958
44.9497
44.9497
44.8958
44.7778
44.5979
44.3595
44.0663
43.7226
43.3333
42.9015
42.4344
41.9298
41.4011
40.8323
40.2556
39.6184
39.0065
38.2722
37.6461
36.7303
36.1496
35.5207
36.1448
37.1238
37.8158
38.6018
39.2617
39.9385
40.551
41.1497
41.7041
42.23
42.7147
43.1605
43.5608
43.9129
44.2122
44.4552
44.6381
44.7582
44.8133
44.8133
44.7581
44.6381
44.4551
44.2122
43.9128
43.5607
43.1604
42.7146
42.2298
41.704
41.1495
40.5508
39.9383
39.2615
38.6015
37.8154
37.1234
36.1442
35.5203
34.6553
35.2984
36.3179
37.0749
37.9198
38.6324
39.3519
40.0029
40.6336
41.2161
41.765
42.2692
42.7307
43.1435
43.5054
43.8122
44.0607
44.2476
44.3704
44.4271
44.4271
44.3704
44.2476
44.0606
43.8122
43.5053
43.1434
42.7306
42.2691
41.7649
41.216
40.6335
40.0028
39.3516
38.6323
37.9196
37.0748
36.3173
35.2983
34.6543
33.6056
34.2146
35.2391
36.0415
36.9371
37.7075
38.4699
39.1617
39.8253
40.4376
41.0111
41.5367
42.0155
42.4426
42.816
43.1318
43.3871
43.5792
43.7053
43.764
43.764
43.7053
43.5791
43.3871
43.1318
42.816
42.4426
42.0155
41.5366
41.0111
40.4375
39.8252
39.1616
38.4699
37.7074
36.937
36.0413
35.2391
34.2139
33.6055
32.433
32.9379
33.9223
34.732
35.6568
36.4744
37.2793
38.0094
38.7054
39.3472
39.9461
40.4936
40.9912
41.4342
41.8204
42.1467
42.4102
42.6083
42.7386
42.7998
42.7998
42.7386
42.6083
42.4102
42.1467
41.8204
41.4342
40.9912
40.4936
39.946
39.3472
38.7053
38.0094
37.2793
36.4743
35.6565
34.7319
33.9218
32.9374
32.4317
31.1809
31.5266
32.4204
33.1921
34.1127
34.9534
35.7906
36.5514
37.2746
37.9422
38.5641
39.1328
39.6488
40.1078
40.5076
40.845
41.1175
41.3223
41.4573
41.5212
41.5212
41.4573
41.3223
41.1175
40.845
40.5076
40.1078
39.6488
39.1328
38.5641
37.9422
37.2745
36.5513
35.7904
34.9532
34.1124
33.1916
32.4198
31.5258
31.1792
29.863
30.0297
30.795
31.4866
32.3657
33.1961
34.0427
34.8245
35.5659
36.2523
36.8918
37.4776
38.0093
38.4825
38.895
39.243
39.5241
39.7356
39.8754
39.942
39.942
39.8754
39.7356
39.5241
39.243
38.895
38.4825
38.0092
37.4776
36.8918
36.252
35.5656
34.8243
34.0424
33.1957
32.3653
31.4861
30.7944
30.0289
29.8618
28.466
28.4848
29.1129
29.7047
30.5159
31.3077
32.1387
32.9208
33.6664
34.36
35.0085
35.6043
36.1463
36.6297
37.0514
37.4078
37.696
37.913
38.0569
38.1259
38.1259
38.0569
37.913
37.696
37.4078
37.0514
36.6297
36.1463
35.6043
35.0084
34.3599
33.6662
32.9206
32.1385
31.3074
30.5157
29.7045
29.113
28.4848
28.4671
27.008
26.9456
27.4585
27.9599
28.6951
29.433
30.2287
30.9918
31.7292
32.4187
33.0664
33.6639
34.2091
34.6966
35.1228
35.4836
35.7758
35.9962
36.1426
36.2132
36.2132
36.1426
35.9963
35.7759
35.4837
35.1229
34.6967
34.2092
33.6641
33.0666
32.4188
31.7294
30.9919
30.2289
29.4333
28.6954
27.9604
27.4594
26.9471
27.01
25.5991
25.5406
25.9757
26.4252
27.0967
27.7866
28.5412
29.2752
29.9918
30.6666
31.3041
31.8946
32.435
32.9196
33.3439
33.7039
33.9957
34.2162
34.3628
34.4339
34.4339
34.3629
34.2163
33.9959
33.7041
33.3443
32.9199
32.4355
31.895
31.3046
30.6673
29.9925
29.2761
28.5423
27.7877
27.0981
26.4262
25.9774
25.5411
25.6012
24.5291
24.5209
24.9246
25.359
25.9886
26.6427
27.3567
28.0551
28.7391
29.3896
30.0069
30.5809
31.1076
31.5807
31.9956
32.348
32.6338
32.85
32.9938
33.0637
33.0637
32.9938
32.85
32.6339
32.3481
31.9958
31.5808
31.1078
30.5811
30.0071
29.3898
28.7394
28.0554
27.3569
26.643
25.9886
25.359
24.9237
24.5205
24.5262
24.1286
24.1782
24.5702
25.0006
25.5942
26.2115
26.877
27.5294
28.1734
28.7902
29.3773
29.9247
30.4277
30.8799
31.2769
31.6143
31.8881
32.0952
32.2331
32.2998
32.2998
32.2331
32.0952
31.8881
31.6143
31.277
30.8799
30.4277
29.9248
29.3773
28.7903
28.1735
27.5294
26.877
26.2116
25.5941
25.0006
24.5699
24.1781
24.1279
24.4758
24.5392
24.9206
25.3277
25.8805
26.4488
27.059
27.6604
28.2592
28.8351
29.3847
29.8982
30.3703
30.7953
31.1687
31.486
31.7437
31.9386
32.0683
32.1308
32.1308
32.0683
31.9386
31.7437
31.486
31.1687
30.7954
30.3704
29.8982
29.3849
28.8353
28.2593
27.6605
27.059
26.449
25.8803
25.3278
24.9194
24.5392
24.4721
25.1907
25.2441
25.6183
25.9951
26.5132
27.0362
27.6029
28.1631
28.7234
29.2627
29.7783
30.26
30.7035
31.1029
31.4539
31.7523
31.9947
32.178
32.2996
32.3581
32.358
32.2996
32.1779
31.9946
31.7522
31.4538
31.1028
30.7033
30.2598
29.7781
29.2625
28.7232
28.1627
27.6027
27.0359
26.5131
25.9951
25.6189
25.2446
25.1929
25.8214
25.8479
26.2229
26.5728
27.0717
27.5656
28.1093
28.6446
29.1826
29.6997
30.1947
30.6573
31.0835
31.4674
31.8049
32.0919
32.3251
32.5012
32.6181
32.6741
32.6741
32.6182
32.5013
32.3252
32.0921
31.8051
31.4677
31.0838
30.6576
30.1951
29.7001
29.1831
28.6452
28.11
27.5663
27.0726
26.5739
26.2242
25.8497
25.8232
94.7241
61.2218
52.4219
55.5561
61.567
66.6471
70.8654
74.4019
77.4095
80.0366
82.4119
84.5981
86.6398
88.5815
90.4444
92.2737
94.0979
95.9749
97.9186
99.9424
102.054
104.254
106.535
108.887
111.293
113.726
116.151
118.515
120.742
122.726
124.28
125.149
81.873
61.5229
52.1632
54.1208
59.8941
64.9354
69.1352
72.6549
75.6509
78.2843
80.6494
82.8053
84.8127
86.698
88.5075
90.2693
92.0444
93.8445
95.7117
97.6643
99.7059
101.831
104.036
106.308
108.631
110.981
113.323
115.606
117.757
119.673
121.174
122.011
78.2104
59.828
50.9219
52.6509
58.2497
63.2135
67.3663
70.8838
73.9058
76.5426
78.9065
81.0516
83.0139
84.8595
86.6102
88.3218
90.0133
91.7569
93.5642
95.445
97.4075
99.4545
101.579
103.77
106.012
108.28
110.539
112.742
114.818
116.667
118.115
118.92
78.9489
60.8063
50.5026
51.1171
56.4799
61.4259
65.6028
69.1432
72.168
74.8298
77.196
79.3151
81.2573
83.0527
84.7607
86.4045
88.0633
89.7349
91.4651
93.2781
95.1776
97.156
99.2088
101.324
103.486
105.673
107.852
109.977
111.979
113.761
115.157
115.932
72.3257
58.2715
49.4923
49.6828
54.7822
59.6683
63.805
67.3502
70.4371
73.1185
75.4896
77.6198
79.5311
81.3043
82.9612
84.575
86.1472
87.7701
89.4544
91.2043
93.0274
94.931
96.9074
98.9465
101.033
103.143
105.244
107.293
109.224
110.944
112.289
113.034
78.5009
59.7121
48.8364
48.0549
52.884
57.764
61.9741
65.5988
68.693
71.4116
73.8091
75.9177
77.8346
79.5718
81.2075
82.7537
84.3185
85.881
87.489
89.1763
90.9482
92.7926
94.7057
96.6766
98.6897
100.724
102.751
104.726
106.587
108.245
109.541
110.257
90.7123
60.1769
48.0818
46.5622
51.0839
55.9357
60.1167
63.7257
66.9198
69.6829
72.0902
74.2431
76.1427
77.889
79.4845
81.034
82.5103
84.0323
85.614
87.2507
88.9493
90.7232
92.5642
94.4629
96.4056
98.3696
100.324
102.229
104.024
105.623
106.872
107.56
77.7699
60.7778
48.1195
44.9441
48.9733
53.8051
58.1113
61.8984
65.1067
67.9167
70.3919
72.5288
74.4633
76.1853
77.7964
79.2772
80.7812
82.2623
83.7676
85.3462
87.0077
88.7341
90.5225
92.362
94.2378
96.1314
98.016
99.8525
101.583
103.123
104.326
104.986
78.5234
58.2295
47.2872
43.4606
46.9561
51.7969
56.1142
59.8302
63.1931
66.1002
68.5895
70.8207
72.7538
74.5209
76.0975
77.631
79.0471
80.4955
82.001
83.547
85.138
86.7966
88.5152
90.2862
92.0967
93.9255
95.7435
97.5139
99.1819
100.668
101.827
102.458
87.0015
59.4147
46.7255
41.681
44.4608
49.2169
53.7096
57.8015
61.206
64.1709
66.8025
69.0246
71.0354
72.7868
74.4239
75.8763
77.3615
78.7981
80.2263
81.7174
83.2893
84.9157
86.5952
88.3162
90.066
91.828
93.5798
95.2849
96.8919
98.3228
99.4382
100.042
81.1497
58.559
46.6585
40.1563
41.9797
46.7743
51.4077
55.3129
58.977
62.1529
64.8038
67.2017
69.2315
71.0843
72.6854
74.256
75.6457
77.0502
78.512
79.9948
81.4968
83.055
84.663
86.3181
88.0064
89.7083
91.3966
93.0393
94.5863
95.9659
97.0382
97.6131
76.4826
55.8122
44.9933
38.2161
38.7594
43.2822
48.118
52.8522
56.6283
59.8785
62.8157
65.2149
67.3938
69.2361
70.9689
72.4316
73.9448
75.3778
76.7552
78.1796
79.6843
81.2302
82.8178
84.4315
86.0646
87.7029
89.3278
90.9073
92.3955
93.7204
94.7507
95.2982
74.8002
56.2189
44.5943
36.0389
35.3585
39.8231
45.1799
49.4311
53.7332
57.4565
60.4211
63.1488
65.3766
67.4171
69.1014
70.7842
72.1899
73.5837
75.0396
76.4912
77.9236
79.3961
80.9037
82.4546
84.0289
85.6109
87.1751
88.6941
90.1236
91.3992
92.3874
92.906
64.5805
54.1228
44.5438
34.7812
30.4726
34.2
39.6564
46.0616
50.6099
54.4553
58.0314
60.7803
63.2961
65.3258
67.2632
68.7861
70.3937
71.8791
73.237
74.6186
76.0838
77.5723
79.0888
80.6066
82.1331
83.6533
85.1558
86.6128
87.9848
89.2062
90.1521
90.644
47.1779
47.1165
41.5277
32.1119
25.8768
27.614
35.2328
40.0543
46.1877
51.1945
54.8182
58.2436
60.8606
63.2734
65.1279
67.0413
68.5184
69.9436
71.4459
72.9094
74.2952
75.6978
77.114
78.5727
80.0399
81.5081
82.951
84.3481
85.6613
86.8346
87.7382
88.1993
25.1211
36.1235
35.3766
29.445
13.2173
15.6748
20.4181
34.6801
40.8884
46.4218
51.6017
55.0884
58.3167
60.7127
63.0532
64.7028
66.5086
68.1283
69.5051
70.8712
72.3333
73.7951
75.2672
76.7021
78.1318
79.5378
80.9197
82.2542
83.5104
84.6272
85.4889
85.9233
10.8191
19.7741
20.0235
10.7865
7.29111
16.0771
6.73351
11.1462
32.4415
41.1303
46.4017
51.6013
55.0433
58.2312
60.4029
62.764
64.3894
65.9012
67.528
69.0667
70.4327
71.782
73.1127
74.4907
75.8556
77.2136
78.5347
79.8076
81.0016
82.0706
82.8879
83.2879
7.56765
8.6642
6.61648
7.15467
4.97337
15.9844
16.7089
17.1837
21.8597
29.5709
41.1114
46.5438
51.5641
54.7221
57.9035
59.7782
61.9709
63.8613
65.3055
66.6877
68.2
69.6793
71.1469
72.5132
73.8563
75.1482
76.4074
77.6149
78.7512
79.7592
80.5333
80.907
8.30221
8.12658
12.4159
14.0083
15.7761
17.0929
6.30346
3.55816
6.26406
10.2699
28.9644
40.7281
46.3158
51.4197
54.2072
57.5028
59.396
61.0761
62.9631
64.6828
66.063
67.3749
68.6155
69.9268
71.1908
72.4393
73.6321
74.7724
75.8382
76.7973
77.5221
77.8533
5.38511
11.4194
10.1893
1.33653
5.98004
19.0031
19.4757
19.7585
19.862
9.73331
22.6734
29.233
40.6799
45.659
50.92
53.1767
56.1928
58.6291
60.2116
61.6473
63.3021
64.875
66.4122
67.7264
68.9943
70.1673
71.2955
72.3648
73.3721
74.2616
74.9412
75.2481
6.61609
15.9412
19.4528
20.5365
16.9385
20.2553
9.85194
1.59824
21.9403
20.9573
19.9713
22.8541
27.7147
40.4886
44.6769
50.352
52.7175
54.7228
57.1661
59.286
60.7295
62.0186
63.1363
64.4037
65.5664
66.7016
67.7514
68.7409
69.6597
70.498
71.1179
71.3648
7.99947
18.3647
23.2086
26.6826
28.6086
27.1962
17.3313
16.9364
12.8494
24.135
13.1851
9.66094
18.7272
26.9024
39.7145
42.5665
47.8421
51.5337
53.3705
54.9161
56.9211
58.7522
60.5322
61.8218
63.0306
64.0752
65.0555
65.9664
66.83
67.5829
68.1575
68.3879
7.84521
18.289
24.0396
28.2288
30.7962
31.8787
31.7169
24.4506
22.2219
27.2378
19.4936
24.2271
21.3738
22.8143
23.7199
39.0587
42.1199
44.9494
48.8911
51.9563
53.5441
54.8301
55.6933
56.9711
58.0386
59.0537
59.9328
60.7348
61.4709
62.1716
62.6634
62.7936
7.45893
17.1229
23.1713
27.8878
31.3475
33.3848
33.5881
32.7986
26.8698
8.44349
11.367
20.6058
24.5544
21.8965
22.2711
13.2577
33.0828
40.3001
42.3596
44.3208
47.3515
49.8838
52.4683
53.7956
54.9906
55.8923
56.6974
57.4196
58.1186
58.7068
59.1625
59.3031
6.70399
15.5942
21.5726
26.2661
29.8369
32.417
34.0362
34.0743
33.035
29.0531
17.0317
23.6067
21.3626
19.4312
22.3966
21.7723
4.92618
22.8696
35.1083
40.4201
42.2926
43.6364
43.5858
45.1252
46.1048
47.0181
47.6592
48.1766
48.6604
49.1874
49.5135
49.4348
5.98738
14.3622
20.0055
24.4876
27.9956
30.6573
32.4436
33.4448
33.2363
32.1376
29.5416
14.6303
17.4223
19.5627
25.0323
22.7234
22.5463
16.9255
26.2662
19.2325
27.6803
33.8589
39.6908
41.1103
42.5996
43.2371
43.888
44.4148
44.8895
45.3193
45.5993
45.5775
5.24102
13.2427
18.2697
22.2649
25.4569
28.0258
30.0066
31.2485
31.8201
31.6866
30.8678
31.8708
22.213
19.3648
19.5855
12.729
4.53395
16.1302
23.3843
25.4771
21.6424
9.2951
28.8654
12.3379
13.9462
17.2476
15.3119
14.8214
14.3654
14.7237
14.5625
15.4041
4.63826
12.2415
16.0956
19.1884
21.8462
24.1819
26.1331
27.6261
28.5823
29.2178
30.0803
29.4989
31.3906
26.8155
29.7838
28.6704
15.5843
20.9872
25.3822
17.0518
26.8183
7.41473
25.9808
19.7128
6.77297
28.8499
21.4006
7.43703
22.2779
8.32571
22.6579
31.2853
4.27183
11.5632
13.6482
15.3186
17.0539
18.8941
20.7397
22.4333
23.9656
25.4619
26.8325
29.1321
29.7704
31.2912
31.2368
18.0458
27.2239
19.1416
15.9912
12.2667
20.6512
27.5482
9.76658
9.29231
27.4703
19.1552
11.0382
30.4575
12.4347
30.5907
12.2316
20.8913
4.00194
12.0079
12.1767
12.582
13.1418
14.0037
15.311
17.0617
19.0639
21.2039
23.612
25.4983
28.2265
29.9854
30.8889
32.7791
25.6172
17.5562
21.8706
26.2874
19.9551
24.2342
11.3664
28.043
29.3434
24.1207
30.0644
26.1723
8.76509
19.2934
31.8709
26.1937
3.6962
11.51
11.6148
11.8436
11.9874
12.1968
13.0299
14.6351
16.6102
18.6884
20.7367
23.2887
25.3419
27.813
30.2867
31.1356
32.4204
30.059
20.1208
21.3798
21.7262
16.5517
14.5667
5.91037
19.8561
31.3566
32.4879
21.8439
32.7558
24.8859
14.7508
29.3651
3.55886
11.3627
11.52
11.7251
11.8556
12.1152
13.2921
15.128
16.9739
18.6275
20.2621
21.6985
23.6618
25.5799
27.5696
30.2313
31.7171
32.3646
32.6272
29.0733
21.1013
17.5321
23.5621
16.3535
19.169
31.8548
29.9899
18.0226
20.8636
13.0495
26.7867
31.1995
2.45793
9.16804
11.3698
11.6682
11.7253
11.991
13.7935
15.9772
17.9016
19.5087
20.828
22.1502
23.2107
24.4821
26.0874
27.6397
29.8102
31.8132
32.466
32.5121
32.2737
29.7308
26.8145
23.5312
19.74
19.6462
18.8863
18.2294
17.5795
18.2504
18.273
20.2451
2.22366
8.45443
10.7751
11.5015
11.7584
13.1648
15.5227
17.662
19.392
20.802
22.0188
22.9781
23.9175
24.696
25.4078
26.5849
27.9433
29.5674
31.4329
32.5571
32.4104
32.0457
31.3311
30.9844
30.7902
30.4967
30.0989
29.7174
29.424
29.3823
29.3453
29.4155
2.87004
9.70204
11.4883
11.6887
12.8423
15.226
17.5245
19.4355
21.0151
22.3394
23.4369
24.3968
25.1072
25.6724
26.1639
26.4804
27.092
28.1679
29.4288
30.7449
31.6477
31.9735
31.5271
30.543
29.3335
28.1257