/*--------------------------------*- C++ -*----------------------------------*\
  =========                 |
  \\      /  F ield         | OpenFOAM: The Open Source CFD Toolbox
   \\    /   O peration     | Website:  https://openfoam.org
    \\  /    A nd           | Version:  6
     \\/     M anipulation  |
\*---------------------------------------------------------------------------*/
FoamFile
{
    version     2.0;
    format      ascii;
    class       volVectorField;
    location    "18";
    object      wallShearStress;
}
// * * * * * * * * * * * * * * * * * * * * * * * * * * * * * * * * * * * * * //

dimensions      [0 2 -2 0 0 0 0];

internalField   uniform (0 0 0);

boundaryField
{
    inlet
    {
        type            calculated;
        value           uniform (0 0 0);
    }
    outlet
    {
        type            calculated;
        value           uniform (0 0 0);
    }
    roughCylinder
    {
        type            calculated;
        value           nonuniform List<vector> 
5120
(
(-0.00025063 -0.000356978 -0.000183878)
(-0.000307194 -0.000461326 -4.20863e-05)
(-0.00034073 -0.000555121 -7.28714e-07)
(-0.000386439 -0.000645148 5.40087e-05)
(-0.000443429 -0.000723298 0.000117228)
(-0.000508148 -0.000785111 0.000180762)
(-0.000577131 -0.000827747 0.000240095)
(-0.000645719 -0.000851639 0.000292451)
(-0.000709836 -0.000859257 0.000335737)
(-0.0007674 -0.000855654 0.000369238)
(-0.000818654 -0.000849095 0.000394442)
(-0.000863895 -0.000845229 0.00041324)
(-0.000900144 -0.000844099 0.000424376)
(-0.000930703 -0.000848449 0.000428965)
(-0.000956867 -0.000857492 0.000428047)
(-0.000979978 -0.000870519 0.000422677)
(-0.00100146 -0.000886752 0.000413911)
(-0.00102254 -0.000905538 0.000402642)
(-0.00104418 -0.000926397 0.00038954)
(-0.00106701 -0.000949038 0.000375024)
(-0.00109138 -0.000973278 0.000359301)
(-0.00111743 -0.000998996 0.000342395)
(-0.0011451 -0.00102606 0.000324202)
(-0.00117423 -0.0010543 0.000304534)
(-0.00120456 -0.00108348 0.00028312)
(-0.00123576 -0.00111325 0.000259606)
(-0.00126739 -0.00114318 0.000233495)
(-0.00129887 -0.00117257 0.000204103)
(-0.00132928 -0.00120049 0.000170248)
(-0.00135721 -0.00122554 0.000130448)
(-0.00137961 -0.0012457 8.25075e-05)
(-0.00139236 -0.00125766 2.79124e-05)
(-0.00026918 -0.000345335 -0.000173734)
(-0.000328848 -0.000446922 -4.45597e-05)
(-0.000364967 -0.000539405 -6.48839e-06)
(-0.000412788 -0.00062914 4.48444e-05)
(-0.000471457 -0.000708301 0.000105439)
(-0.000537724 -0.000771902 0.000167186)
(-0.000608103 -0.000816711 0.00022537)
(-0.000678181 -0.000843025 0.000277101)
(-0.000744484 -0.000853698 0.00032039)
(-0.000805452 -0.000854362 0.000354944)
(-0.000860886 -0.000851872 0.000382145)
(-0.000909666 -0.000849579 0.000402788)
(-0.000948763 -0.000847179 0.000415014)
(-0.000980867 -0.000850432 0.000420188)
(-0.00100856 -0.000858764 0.000419586)
(-0.00103311 -0.000871432 0.000414446)
(-0.001056 -0.000887534 0.000405856)
(-0.00107851 -0.000906328 0.000394754)
(-0.0011016 -0.000927279 0.000381852)
(-0.00112594 -0.00095003 0.00036758)
(-0.00115188 -0.000974378 0.000352156)
(-0.00117954 -0.00100018 0.0003356)
(-0.00120888 -0.00102731 0.00031782)
(-0.0012397 -0.00105557 0.000298615)
(-0.00127174 -0.00108474 0.000277709)
(-0.00130464 -0.00111447 0.000254746)
(-0.00133794 -0.00114431 0.000229225)
(-0.00137103 -0.0011736 0.000200466)
(-0.00140296 -0.00120138 0.000167291)
(-0.00143224 -0.00122629 0.000128236)
(-0.0014557 -0.00124632 8.11309e-05)
(-0.00146904 -0.00125817 2.74441e-05)
(-0.000287541 -0.000328448 -0.000156303)
(-0.000349983 -0.00042705 -4.75514e-05)
(-0.00038849 -0.000517466 -1.29152e-05)
(-0.000438032 -0.000606248 3.4808e-05)
(-0.000498082 -0.000685891 9.24775e-05)
(-0.000565743 -0.000751043 0.000152188)
(-0.00063759 -0.000798187 0.000209141)
(-0.000709516 -0.000827581 0.000260399)
(-0.000778546 -0.000842247 0.00030414)
(-0.000843227 -0.000847508 0.000340124)
(-0.000902565 -0.000848657 0.000369116)
(-0.00095462 -0.000847878 0.000391045)
(-0.000997276 -0.000845516 0.000404569)
(-0.00103105 -0.000847224 0.000410266)
(-0.0010603 -0.000854665 0.000409978)
(-0.00108638 -0.000866791 0.000405105)
(-0.00111078 -0.000882604 0.000396744)
(-0.00113478 -0.000901255 0.000385877)
(-0.00115939 -0.000922121 0.000373227)
(-0.00118529 -0.000944822 0.000359259)
(-0.00121283 -0.000969107 0.000344192)
(-0.00124214 -0.000994823 0.000328052)
(-0.00127315 -0.00102182 0.000310744)
(-0.00130567 -0.00104992 0.000292062)
(-0.00133941 -0.00107887 0.000271728)
(-0.00137399 -0.00110835 0.000249375)
(-0.00140895 -0.00113791 0.000224507)
(-0.00144362 -0.00116688 0.000196444)
(-0.00147703 -0.00119433 0.000164016)
(-0.00150762 -0.00121892 0.000125783)
(-0.0015321 -0.00123867 7.96061e-05)
(-0.00154601 -0.00125033 2.69264e-05)
(-0.000303891 -0.000307694 -0.000134412)
(-0.000368688 -0.000402786 -5.06134e-05)
(-0.000409145 -0.000490402 -1.9589e-05)
(-0.000459815 -0.00057758 2.43405e-05)
(-0.000520804 -0.000657206 7.88152e-05)
(-0.000589635 -0.000723709 0.000136225)
(-0.000663019 -0.000773362 0.000191793)
(-0.00073712 -0.000806325 0.000242589)
(-0.000809195 -0.000825496 0.00028691)
(-0.000877564 -0.000835397 0.000324374)
(-0.000940611 -0.000839908 0.000355022)
(-0.000996097 -0.000840826 0.000378157)
(-0.00104243 -0.00083937 0.000392977)
(-0.00107878 -0.000839523 0.000399358)
(-0.00110973 -0.000845989 0.000399512)
(-0.00113748 -0.000857409 0.000394961)
(-0.00116347 -0.000872788 0.000386896)
(-0.00118904 -0.000891159 0.000376328)
(-0.00121523 -0.000911838 0.000364002)
(-0.00124271 -0.00093437 0.000350396)
(-0.00127186 -0.000958466 0.00033574)
(-0.0013028 -0.000983954 0.000320072)
(-0.00133545 -0.00101067 0.000303282)
(-0.00136961 -0.00103845 0.00028517)
(-0.00140498 -0.00106703 0.000265449)
(-0.00144117 -0.00109609 0.000243747)
(-0.00147768 -0.00112518 0.000219566)
(-0.00151384 -0.00115368 0.000192236)
(-0.00154862 -0.00118064 0.00016059)
(-0.00158044 -0.00120477 0.000123219)
(-0.00160586 -0.00122412 7.80159e-05)
(-0.00162028 -0.00123552 2.63885e-05)
(-0.00031712 -0.000283311 -0.000110165)
(-0.000383877 -0.000374366 -5.3399e-05)
(-0.000425792 -0.000458533 -2.61661e-05)
(-0.00047701 -0.000543486 1.37818e-05)
(-0.000538518 -0.000622599 6.47663e-05)
(-0.000608362 -0.000690272 0.000119547)
(-0.000683405 -0.000742596 0.00017349)
(-0.00075998 -0.000779456 0.000223738)
(-0.000835286 -0.000803251 0.000268603)
(-0.000907258 -0.000817541 0.000307412)
(-0.000973875 -0.000825185 0.000339579)
(-0.00103289 -0.000827888 0.000363977)
(-0.00108276 -0.000827539 0.0003799)
(-0.001123 -0.000827284 0.000387433)
(-0.00115589 -0.000832208 0.000388153)
(-0.00118544 -0.000842721 0.000384027)
(-0.00121314 -0.000857481 0.000376356)
(-0.00124036 -0.000875424 0.000366165)
(-0.00126815 -0.000895753 0.000354234)
(-0.00129721 -0.000917951 0.000341057)
(-0.00132795 -0.000941705 0.000326877)
(-0.00136047 -0.000966812 0.000311729)
(-0.00139469 -0.0009931 0.000295512)
(-0.00143042 -0.00102038 0.000278017)
(-0.00146732 -0.00104841 0.000258951)
(-0.00150499 -0.00107687 0.000237934)
(-0.00154294 -0.00110533 0.000214474)
(-0.00158044 -0.00113316 0.000187903)
(-0.00161648 -0.00115947 0.000157065)
(-0.0016494 -0.00118297 0.000120583)
(-0.00167566 -0.00120181 7.63844e-05)
(-0.00169051 -0.00121288 2.58384e-05)
(-0.000327227 -0.000256742 -8.53535e-05)
(-0.00039543 -0.000343215 -5.5769e-05)
(-0.000438231 -0.000423369 -3.24389e-05)
(-0.000489387 -0.000505516 3.37326e-06)
(-0.000550941 -0.000583607 5.05681e-05)
(-0.000621553 -0.000652183 0.000102366)
(-0.000698251 -0.00070714 0.000154404)
(-0.000777397 -0.000747885 0.00020392)
(-0.000855987 -0.000776105 0.000249175)
(-0.000931547 -0.000794397 0.00028913)
(-0.00100174 -0.000804907 0.00032266)
(-0.00106438 -0.000809396 0.000348336)
(-0.00111798 -0.000810201 0.00036537)
(-0.00116232 -0.000810389 0.000374156)
(-0.0011983 -0.000813712 0.000375767)
(-0.00122985 -0.000823069 0.000372254)
(-0.0012594 -0.000836935 0.000365083)
(-0.00128835 -0.000854199 0.000355371)
(-0.00131779 -0.000874011 0.000343929)
(-0.00134846 -0.000895723 0.000331259)
(-0.00138075 -0.000918977 0.00031762)
(-0.0014148 -0.00094353 0.000303058)
(-0.00145052 -0.000969206 0.000287466)
(-0.00148769 -0.000995808 0.000270631)
(-0.00152599 -0.0010231 0.000252258)
(-0.001565 -0.00105078 0.000231962)
(-0.00160421 -0.00107842 0.000209249)
(-0.00164291 -0.00110543 0.000183464)
(-0.00168004 -0.00113091 0.000153454)
(-0.00171394 -0.00115365 0.000117884)
(-0.00174093 -0.00117185 7.47199e-05)
(-0.00175612 -0.00118253 2.52798e-05)
(-0.000333007 -0.000228295 -6.09294e-05)
(-0.000402136 -0.000309716 -5.75506e-05)
(-0.000445236 -0.000385303 -3.81999e-05)
(-0.000495668 -0.000464039 -6.71803e-06)
(-0.000556709 -0.000540555 3.63331e-05)
(-0.000627772 -0.000609696 8.47203e-05)
(-0.000706069 -0.000667192 0.000134474)
(-0.000787881 -0.000711791 0.00018299)
(-0.00086986 -0.000744247 0.000228411)
(-0.000949095 -0.000766236 0.000269278)
(-0.00102304 -0.000779458 0.000304029)
(-0.00108953 -0.000785792 0.000331009)
(-0.00114712 -0.000787824 0.000349304)
(-0.00119558 -0.000788736 0.00035931)
(-0.00123593 -0.000791615 0.000362237)
(-0.00126997 -0.000799021 0.000359533)
(-0.00130157 -0.000811755 0.000353033)
(-0.00133243 -0.000828185 0.000343934)
(-0.00136357 -0.000847236 0.000333075)
(-0.00139584 -0.000868263 0.000320998)
(-0.00142967 -0.000890842 0.000307979)
(-0.00146518 -0.00091469 0.000294068)
(-0.0015023 -0.000939603 0.000279159)
(-0.00154082 -0.000965391 0.000263039)
(-0.00158038 -0.000991814 0.000245404)
(-0.00162056 -0.00101855 0.000225859)
(-0.00166089 -0.00104523 0.000203921)
(-0.00170059 -0.00107124 0.000178938)
(-0.00173866 -0.00109576 0.000149775)
(-0.00177337 -0.00111759 0.000115136)
(-0.00180096 -0.00113505 7.3032e-05)
(-0.00181639 -0.00114528 2.47161e-05)
(-0.000334516 -0.000199079 -3.7886e-05)
(-0.000403939 -0.000275027 -5.87439e-05)
(-0.000446723 -0.000345606 -4.33453e-05)
(-0.000495763 -0.000420391 -1.63027e-05)
(-0.000555658 -0.000494751 2.22963e-05)
(-0.000626702 -0.000563977 6.68389e-05)
(-0.000706307 -0.000623654 0.000113871)
(-0.000790583 -0.000671743 0.000160994)
(-0.000875849 -0.00070806 0.00020622)
(-0.000958855 -0.000733482 0.000247719)
(-0.00103678 -0.000749336 0.000283536)
(-0.00110736 -0.000757534 0.000311817)
(-0.00116918 -0.00076085 0.000331525)
(-0.00122191 -0.000762499 0.000342893)
(-0.00126647 -0.00076548 0.000347136)
(-0.00130466 -0.000771847 0.000345726)
(-0.00133874 -0.000782763 0.000340115)
(-0.00137162 -0.000797715 0.000331754)
(-0.00140459 -0.000815853 0.000321637)
(-0.00143853 -0.000836041 0.000310266)
(-0.00147386 -0.000857782 0.000297955)
(-0.00151077 -0.000880765 0.00028477)
(-0.00154917 -0.000904755 0.000270606)
(-0.00158884 -0.000929555 0.000255247)
(-0.00162947 -0.000954921 0.000238387)
(-0.00167063 -0.000980578 0.000219628)
(-0.00171183 -0.00100617 0.000198488)
(-0.00175234 -0.00103116 0.000174338)
(-0.00179111 -0.00105462 0.000146032)
(-0.00182649 -0.00107547 0.000112344)
(-0.00185451 -0.00109212 7.13257e-05)
(-0.00187006 -0.00110193 2.41508e-05)
(-0.000330494 -0.000169181 -1.67497e-05)
(-0.000399611 -0.000239325 -5.91833e-05)
(-0.000441432 -0.000304432 -4.76882e-05)
(-0.000488308 -0.000374651 -2.51821e-05)
(-0.000546248 -0.000446122 8.642e-06)
(-0.000616616 -0.000514778 4.88445e-05)
(-0.000697162 -0.000576196 9.26101e-05)
(-0.000783837 -0.000627538 0.000137844)
(-0.000872514 -0.000667567 0.00018246)
(-0.000959448 -0.000696278 0.000224253)
(-0.00104157 -0.00071469 0.000260938)
(-0.00111659 -0.000724823 0.000290497)
(-0.00118296 -0.000729514 0.000311744)
(-0.00124028 -0.000731997 0.000324717)
(-0.00128918 -0.000735143 0.000330442)
(-0.00133142 -0.000741046 0.000330411)
(-0.0013692 -0.000750741 0.00032606)
(-0.00140512 -0.000764431 0.000318874)
(-0.00143997 -0.00078111 0.000309643)
(-0.00147556 -0.000800109 0.000299083)
(-0.00151236 -0.000820811 0.000287584)
(-0.00155057 -0.000842796 0.00027521)
(-0.00159013 -0.000865796 0.000261866)
(-0.00163082 -0.000889575 0.000247332)
(-0.00167234 -0.000913898 0.0002313)
(-0.00171423 -0.00093846 0.000213355)
(-0.00175603 -0.000962923 0.000193031)
(-0.00179688 -0.000986672 0.000169697)
(-0.00183606 -0.00100897 0.000142249)
(-0.00187185 -0.00102873 0.00010952)
(-0.00190008 -0.0010445 6.96081e-05)
(-0.00191545 -0.00105379 2.35844e-05)
(-0.000321448 -0.000139895 1.82062e-06)
(-0.000389415 -0.000203573 -5.91124e-05)
(-0.00042967 -0.000263212 -5.11819e-05)
(-0.000473762 -0.000328352 -3.31567e-05)
(-0.000528951 -0.000396257 -4.3071e-06)
(-0.000597872 -0.000463607 3.11171e-05)
(-0.000678728 -0.000526092 7.10371e-05)
(-0.000767286 -0.000580075 0.00011376)
(-0.000859017 -0.000623324 0.000157175)
(-0.000949926 -0.000655157 0.000198841)
(-0.00103662 -0.000676198 0.000236189)
(-0.00111641 -0.000688297 0.000266959)
(-0.00118767 -0.000694377 0.000289811)
(-0.00124976 -0.000697643 0.000304553)
(-0.00130328 -0.000701006 0.000312021)
(-0.00134966 -0.000706501 0.000313562)
(-0.00139114 -0.000715348 0.00031067)
(-0.00143 -0.000727884 0.00030478)
(-0.00146737 -0.000743191 0.000296699)
(-0.00150494 -0.00076095 0.000287193)
(-0.00154325 -0.000780452 0.000276661)
(-0.0015826 -0.000801253 0.000265202)
(-0.00162302 -0.000823058 0.000252741)
(-0.00166432 -0.00084561 0.000239072)
(-0.00170622 -0.00086866 0.00022389)
(-0.00174834 -0.000891937 0.000206776)
(-0.00179025 -0.000915027 0.000187276)
(-0.00183123 -0.000937423 0.0001648)
(-0.00187046 -0.000958384 0.000138243)
(-0.00190643 -0.000976964 0.000106528)
(-0.00193464 -0.000991753 6.77925e-05)
(-0.00194969 -0.00100041 2.29882e-05)
(-0.000304363 -0.000110665 1.7426e-05)
(-0.000373041 -0.000168493 -5.81769e-05)
(-0.000410288 -0.000222089 -5.37441e-05)
(-0.00045061 -0.000281489 -3.99727e-05)
(-0.000501942 -0.000344923 -1.62263e-05)
(-0.000568285 -0.00040992 1.39584e-05)
(-0.000648633 -0.000472642 4.93271e-05)
(-0.000738827 -0.000528901 8.87917e-05)
(-0.000833861 -0.000575401 0.000130378)
(-0.000928992 -0.000610416 0.000171424)
(-0.00102039 -0.000634074 0.0002091)
(-0.00110534 -0.000648232 0.000240977)
(-0.00118188 -0.000655738 0.000265476)
(-0.00124927 -0.000659861 0.000282178)
(-0.00130768 -0.000663392 0.000291616)
(-0.00135854 -0.000668529 0.000295018)
(-0.00140387 -0.000676548 0.000293818)
(-0.00144587 -0.000687942 0.00028942)
(-0.00148575 -0.000701919 0.000282667)
(-0.00152519 -0.000718309 0.000274368)
(-0.00156494 -0.000736466 0.000264947)
(-0.00160534 -0.000755917 0.000254523)
(-0.00164646 -0.000776343 0.000243047)
(-0.00168818 -0.000797488 0.000230326)
(-0.00173026 -0.000819096 0.000216064)
(-0.0017723 -0.000840873 0.000199823)
(-0.00181411 -0.000862482 0.000181197)
(-0.0018548 -0.000883338 0.000159615)
(-0.00189389 -0.000902898 0.000134002)
(-0.00192974 -0.000920199 0.000103356)
(-0.00195771 -0.000933955 6.58721e-05)
(-0.00197227 -0.000941934 2.23608e-05)
(-0.000280681 -8.27317e-05 3.00031e-05)
(-0.000350496 -0.00013531 -5.64359e-05)
(-0.000384554 -0.000182589 -5.53389e-05)
(-0.000420292 -0.000235963 -4.5472e-05)
(-0.000466824 -0.000294231 -2.6722e-05)
(-0.000529517 -0.000355921 -2.05655e-06)
(-0.000608338 -0.000417901 2.81182e-05)
(-0.000699166 -0.000475534 6.34696e-05)
(-0.000796559 -0.000524541 0.000102354)
(-0.000895634 -0.000562526 0.000142113)
(-0.000992197 -0.000589059 0.000179756)
(-0.0010827 -0.000605433 0.000212564)
(-0.00116498 -0.000614434 0.000238713)
(-0.00123784 -0.00061925 0.000257449)
(-0.00130161 -0.000622937 0.000269103)
(-0.00135722 -0.000627625 0.000274627)
(-0.00140668 -0.000634777 0.000275391)
(-0.0014519 -0.000644896 0.000272705)
(-0.0014944 -0.000657478 0.000267501)
(-0.00153587 -0.00067244 0.00026061)
(-0.00157702 -0.000689105 0.00025245)
(-0.00161832 -0.000707053 0.000243189)
(-0.00165996 -0.000725947 0.0002328)
(-0.00170181 -0.000745519 0.000221107)
(-0.0017437 -0.000765516 0.000207826)
(-0.00178536 -0.000785676 0.000192512)
(-0.00182661 -0.000805618 0.000174791)
(-0.00186677 -0.000824888 0.000154158)
(-0.00190524 -0.000842902 0.000129519)
(-0.00194072 -0.000858865 0.000100002)
(-0.00196817 -0.00087152 6.38482e-05)
(-0.00198208 -0.000878785 2.17036e-05)
(-0.000249764 -5.68724e-05 3.93019e-05)
(-0.000319834 -0.000103842 -5.3644e-05)
(-0.000350752 -0.000144766 -5.56307e-05)
(-0.000381122 -0.00019165 -4.92508e-05)
(-0.000421483 -0.000243723 -3.52799e-05)
(-0.000478808 -0.000300651 -1.63318e-05)
(-0.000554533 -0.000360508 7.93467e-06)
(-0.000645349 -0.000418875 3.8189e-05)
(-0.000745577 -0.000470649 7.34556e-05)
(-0.000849014 -0.000511931 0.000111175)
(-0.000950596 -0.000541353 0.000148187)
(-0.00104693 -0.000560124 0.000181619)
(-0.00113531 -0.000570742 0.000209328)
(-0.00121447 -0.000576473 0.000230265)
(-0.00128384 -0.000580167 0.000244305)
(-0.00134464 -0.000584344 0.000252244)
(-0.00139848 -0.0005905 0.000255256)
(-0.00144733 -0.000599308 0.000254597)
(-0.00149259 -0.000610385 0.000251188)
(-0.00153595 -0.00062371 0.000245877)
(-0.00157844 -0.000638753 0.000239151)
(-0.00162053 -0.000655061 0.000231194)
(-0.00166246 -0.000672297 0.000222006)
(-0.0017042 -0.000690196 0.000211436)
(-0.00174565 -0.000708508 0.000199216)
(-0.00178653 -0.000726948 0.000184875)
(-0.00182699 -0.000745203 0.000168112)
(-0.00186612 -0.000762767 0.000148453)
(-0.0019038 -0.00077925 0.000124833)
(-0.00193858 -0.000793824 9.64914e-05)
(-0.00196525 -0.000805343 6.17396e-05)
(-0.00197828 -0.000811879 2.10242e-05)
(-0.000213628 -3.44825e-05 4.52045e-05)
(-0.000282558 -7.53298e-05 -4.99504e-05)
(-0.000310943 -0.000110311 -5.47858e-05)
(-0.000336104 -0.000150823 -5.13733e-05)
(-0.000369707 -0.000196284 -4.16508e-05)
(-0.000420457 -0.000247467 -2.82073e-05)
(-0.000491683 -0.000303942 -1.02533e-05)
(-0.000580655 -0.000361623 1.39552e-05)
(-0.000681342 -0.00041467 4.44106e-05)
(-0.000787958 -0.000458704 7.90496e-05)
(-0.00089512 -0.000491546 0.000114778)
(-0.00099772 -0.000513113 0.000148413)
(-0.00109273 -0.000525651 0.000177516)
(-0.00117806 -0.000532143 0.000200568)
(-0.00125375 -0.000535968 0.000217223)
(-0.00132005 -0.000539503 0.000227828)
(-0.00137863 -0.000544546 0.000233395)
(-0.00143113 -0.000551816 0.000235027)
(-0.0014793 -0.000561258 0.000233684)
(-0.00152485 -0.00057291 0.000230221)
(-0.00156865 -0.000586207 0.000225119)
(-0.00161136 -0.000600766 0.000218614)
(-0.00165336 -0.000616252 0.000210744)
(-0.00169466 -0.000632388 0.000201383)
(-0.00173521 -0.000648905 0.000190281)
(-0.00177488 -0.00066557 0.00017695)
(-0.001814 -0.000682032 0.000161159)
(-0.00185182 -0.000697918 0.00014252)
(-0.0018881 -0.000712758 0.00011993)
(-0.0019219 -0.000725929 9.28139e-05)
(-0.00194749 -0.000736308 5.9542e-05)
(-0.00195944 -0.000742132 2.03234e-05)
(-0.000171598 -1.59687e-05 4.73204e-05)
(-0.000237186 -4.997e-05 -4.49521e-05)
(-0.000263112 -7.89705e-05 -5.23276e-05)
(-0.00028294 -0.000112829 -5.13357e-05)
(-0.000308783 -0.000150832 -4.5146e-05)
(-0.000350826 -0.000194586 -3.67316e-05)
(-0.000414696 -0.000245476 -2.52875e-05)
(-0.00050037 -0.000301239 -8.06577e-06)
(-0.000602734 -0.000356206 1.63296e-05)
(-0.000713308 -0.00040365 4.66869e-05)
(-0.000825042 -0.000439745 8.00655e-05)
(-0.000933757 -0.000464407 0.000113215)
(-0.00103543 -0.000479137 0.000143307)
(-0.00112818 -0.000487045 0.000168511)
(-0.00121021 -0.000490947 0.000187814)
(-0.00128246 -0.000493856 0.000201337)
(-0.00134603 -0.000497666 0.000209745)
(-0.0014027 -0.000503376 0.000214018)
(-0.00145393 -0.000511055 0.000215022)
(-0.0015014 -0.0005208 0.000213603)
(-0.00154641 -0.000532228 0.000210325)
(-0.00158959 -0.000544952 0.000205429)
(-0.00163139 -0.000558619 0.000198996)
(-0.00167192 -0.000572954 0.000190937)
(-0.00171128 -0.0005877 0.000181034)
(-0.00174935 -0.000602602 0.000168752)
(-0.0017869 -0.000617345 0.000153972)
(-0.00182282 -0.000631516 0.000136366)
(-0.00185759 -0.000644842 0.000114845)
(-0.00189008 -0.000656613 8.89962e-05)
(-0.00191428 -0.000665872 5.72752e-05)
(-0.00192487 -0.000671011 1.96075e-05)
(-0.000126795 -2.31844e-06 4.59299e-05)
(-0.000186903 -2.91739e-05 -3.89127e-05)
(-0.000211493 -5.25854e-05 -4.85871e-05)
(-0.000227646 -8.04137e-05 -4.96761e-05)
(-0.000246427 -0.000111294 -4.61797e-05)
(-0.000279343 -0.000147301 -4.16852e-05)
(-0.000335003 -0.000191604 -3.62141e-05)
(-0.000414188 -0.000243087 -2.65907e-05)
(-0.000511732 -0.0002962 -9.51182e-06)
(-0.000622769 -0.000345497 1.52267e-05)
(-0.000740008 -0.000385901 4.51176e-05)
(-0.000855208 -0.000414416 7.68339e-05)
(-0.000964318 -0.000432154 0.000107355)
(-0.00106357 -0.00044139 0.000134252)
(-0.00115285 -0.000445883 0.000156278)
(-0.00123133 -0.000448272 0.000172869)
(-0.00130025 -0.000450874 0.000184388)
(-0.00136098 -0.000454844 0.000191541)
(-0.00141539 -0.000460663 0.000195171)
(-0.0014652 -0.000468537 0.0001961)
(-0.00151139 -0.000478046 0.000194859)
(-0.00155483 -0.000488879 0.000191729)
(-0.00159619 -0.000500703 0.000186851)
(-0.0016356 -0.000513246 0.000180183)
(-0.00167324 -0.000526209 0.00017153)
(-0.00170912 -0.000539368 0.00016031)
(-0.00174442 -0.000552353 0.000146531)
(-0.00177814 -0.000564923 0.000129997)
(-0.00181064 -0.000576678 0.000109539)
(-0.00184146 -0.000587078 8.50045e-05)
(-0.00186398 -0.000595275 5.49205e-05)
(-0.001873 -0.000599802 1.88732e-05)
(-7.95184e-05 6.58887e-06 4.12357e-05)
(-0.000131482 -1.27155e-05 -3.1102e-05)
(-0.000153146 -2.97147e-05 -4.27601e-05)
(-0.000165221 -5.10343e-05 -4.51795e-05)
(-0.000177196 -7.41415e-05 -4.32935e-05)
(-0.000198604 -0.000100506 -4.16777e-05)
(-0.000240542 -0.000135047 -4.10197e-05)
(-0.00031061 -0.000180753 -3.84016e-05)
(-0.000409557 -0.000234603 -2.99312e-05)
(-0.000522653 -0.000286329 -1.31864e-05)
(-0.000641353 -0.00032983 1.13824e-05)
(-0.000761974 -0.000362781 4.03226e-05)
(-0.000877463 -0.000383908 7.02057e-05)
(-0.000985181 -0.000395941 9.84617e-05)
(-0.00108114 -0.000401225 0.000122909)
(-0.00116605 -0.000403396 0.00014261)
(-0.00124038 -0.00040489 0.000157392)
(-0.00130574 -0.000407312 0.000167723)
(-0.00136341 -0.000411256 0.000174234)
(-0.00141505 -0.000417067 0.00017768)
(-0.00146222 -0.000424594 0.000178669)
(-0.0015057 -0.000433537 0.000177461)
(-0.00154628 -0.000443534 0.000174252)
(-0.00158413 -0.000454317 0.000169058)
(-0.00161969 -0.000465589 0.000161729)
(-0.00165304 -0.000477155 0.000151603)
(-0.00168596 -0.000488571 0.000138857)
(-0.00171683 -0.000499577 0.000123401)
(-0.00174699 -0.000509962 0.00010404)
(-0.00177592 -0.000519092 8.08653e-05)
(-0.00179637 -0.000526289 5.24956e-05)
(-0.0018035 -0.000530278 1.81263e-05)
(-3.74514e-05 1.03552e-05 3.24674e-05)
(-7.5796e-05 -3.10296e-06 -2.21861e-05)
(-9.8664e-05 -1.45662e-05 -3.19067e-05)
(-0.000112217 -2.98621e-05 -3.88334e-05)
(-0.000119582 -4.72235e-05 -3.77328e-05)
(-0.000134868 -6.49581e-05 -3.67581e-05)
(-0.00016786 -9.03107e-05 -4.05119e-05)
(-0.00022372 -0.000125347 -4.5567e-05)
(-0.000298959 -0.000170233 -4.61275e-05)
(-0.000406055 -0.000222964 -3.57485e-05)
(-0.000529866 -0.000272164 -1.818e-05)
(-0.00065443 -0.000309013 5.47137e-06)
(-0.000777718 -0.000335123 3.32281e-05)
(-0.000891375 -0.000349917 6.17539e-05)
(-0.000995115 -0.000357233 8.83159e-05)
(-0.00108657 -0.000359772 0.000110969)
(-0.00116654 -0.000360578 0.000129066)
(-0.001236 -0.00036148 0.000142645)
(-0.00129691 -0.000363645 0.00015223)
(-0.00135094 -0.000367634 0.000158474)
(-0.00139905 -0.00037326 0.000161895)
(-0.00144227 -0.000380362 0.000162745)
(-0.00148178 -0.000388599 0.000161306)
(-0.00151771 -0.000397737 0.000157667)
(-0.00155066 -0.000407415 0.000151711)
(-0.00158064 -0.000417451 0.000142651)
(-0.0016103 -0.000427294 0.00013089)
(-0.00163806 -0.000436929 0.000116556)
(-0.0016651 -0.00044597 9.82802e-05)
(-0.00169159 -0.000453848 7.65091e-05)
(-0.00170972 -0.000460162 4.99625e-05)
(-0.00171468 -0.000463702 1.73551e-05)
(-1.5764e-05 8.78785e-06 2.20834e-05)
(-2.5009e-05 7.07617e-09 -1.04657e-05)
(-3.15597e-05 -2.42593e-06 -1.78935e-05)
(-3.7097e-05 -1.08294e-05 -2.30107e-05)
(-3.98544e-05 -1.86874e-05 -2.08713e-05)
(-4.17068e-05 -2.34379e-05 -1.84605e-05)
(-5.43364e-05 -3.18257e-05 -2.0425e-05)
(-0.000112965 -6.89029e-05 -3.33316e-05)
(-0.000200651 -0.000109505 -4.4017e-05)
(-0.000291912 -0.000152863 -5.01152e-05)
(-0.000397764 -0.000203582 -4.11951e-05)
(-0.000533438 -0.000252262 -2.47806e-05)
(-0.000662902 -0.00028347 -2.12097e-06)
(-0.000785903 -0.000304038 2.56556e-05)
(-0.000895611 -0.000313926 5.34527e-05)
(-0.000993153 -0.000317609 7.8602e-05)
(-0.00107824 -0.000318234 9.97801e-05)
(-0.00115238 -0.00031824 0.000116663)
(-0.00121643 -0.000318894 0.000129413)
(-0.00127184 -0.000321016 0.000138499)
(-0.00132047 -0.000324826 0.000144481)
(-0.00136311 -0.000330227 0.000147501)
(-0.00140114 -0.000336817 0.000147906)
(-0.00143464 -0.000344432 0.000145881)
(-0.00146447 -0.000352661 0.000141355)
(-0.00149091 -0.000361449 0.000133387)
(-0.00151751 -0.000370021 0.00012264)
(-0.0015414 -0.000378354 0.000109427)
(-0.00156517 -0.000386272 9.22656e-05)
(-0.00158936 -0.000393116 7.19697e-05)
(-0.00160472 -0.000398633 4.7336e-05)
(-0.00160731 -0.000401834 1.65665e-05)
(7.91996e-06 1.00282e-05 2.42575e-05)
(-5.85458e-08 5.12249e-06 -1.07395e-05)
(-6.38339e-06 -2.06343e-07 -1.81926e-05)
(-1.1487e-05 -5.91054e-06 -2.00863e-05)
(-1.75709e-05 -1.12415e-05 -2.2228e-05)
(-3.12918e-05 -2.2058e-05 -3.44454e-05)
(-3.22147e-05 -2.65872e-05 -2.89657e-05)
(-3.353e-05 -3.1551e-05 -1.90398e-05)
(-7.96032e-05 -5.32632e-05 -1.88805e-05)
(-0.0002154 -9.37114e-05 -2.90708e-05)
(-0.000333178 -0.000136793 -4.86545e-05)
(-0.000407066 -0.000185069 -5.91661e-05)
(-0.000539346 -0.000231009 -3.59301e-05)
(-0.000666183 -0.000256222 -8.51613e-06)
(-0.000783221 -0.000270704 1.96985e-05)
(-0.000886525 -0.000276733 4.65077e-05)
(-0.000976802 -0.000278246 7.02793e-05)
(-0.00105428 -0.000277738 9.00992e-05)
(-0.00112107 -0.000277324 0.000105935)
(-0.00117862 -0.000278183 0.00011801)
(-0.00122768 -0.00028048 0.000126665)
(-0.00126927 -0.000284388 0.000131906)
(-0.00130548 -0.000289524 0.000134195)
(-0.00133613 -0.00029582 0.00013383)
(-0.00136245 -0.00030279 0.000130779)
(-0.00138423 -0.000310399 0.000123816)
(-0.0014065 -0.000317647 0.000113965)
(-0.00142643 -0.00032491 0.000101942)
(-0.00144644 -0.000331834 8.59063e-05)
(-0.00146738 -0.00033757 6.7122e-05)
(-0.00147981 -0.00034245 4.45438e-05)
(-0.00147961 -0.000345343 1.57324e-05)
(2.22965e-05 1.01428e-05 2.76563e-05)
(2.79776e-05 7.75825e-06 -5.13753e-06)
(2.42224e-05 6.87825e-06 -9.08481e-06)
(1.58245e-05 4.01125e-06 -1.40791e-05)
(6.87712e-06 9.90012e-07 -1.84665e-05)
(-3.18663e-06 -3.46343e-06 -2.21895e-05)
(-1.20716e-05 -1.01298e-05 -2.69635e-05)
(-1.67123e-05 -1.24564e-05 -2.56673e-05)
(-3.03088e-05 -1.31394e-05 -4.06341e-05)
(-7.52417e-05 -8.58936e-05 -7.10783e-05)
(-0.000117936 -0.000139884 -3.03123e-05)
(-0.00028956 -0.000149947 -2.06007e-05)
(-0.000409431 -0.000166984 -5.71789e-05)
(-0.000542623 -0.000208084 -3.87306e-05)
(-0.000661593 -0.000227364 -1.11155e-05)
(-0.000768855 -0.000236902 1.60451e-05)
(-0.000862256 -0.00024011 4.14186e-05)
(-0.000943717 -0.00024032 6.36843e-05)
(-0.00101294 -0.000239524 8.2325e-05)
(-0.00107072 -0.000239293 9.71346e-05)
(-0.00111943 -0.000240396 0.000108419)
(-0.0011595 -0.000243154 0.000115862)
(-0.0011934 -0.000247056 0.000120002)
(-0.00122068 -0.00025225 0.000121304)
(-0.00124287 -0.000258089 0.000119747)
(-0.00126007 -0.00026485 0.0001138)
(-0.00127898 -0.000271216 0.000104892)
(-0.00129429 -0.000277466 9.40692e-05)
(-0.00130998 -0.000283504 7.91684e-05)
(-0.00132843 -0.000288416 6.20157e-05)
(-0.00133767 -0.000292798 4.16095e-05)
(-0.00133471 -0.00029546 1.48628e-05)
(3.86384e-05 1.56597e-05 4.43019e-05)
(4.98387e-05 1.32013e-05 -8.53656e-06)
(5.17086e-05 8.13704e-06 -1.38778e-05)
(4.95282e-05 -3.35618e-08 -1.60888e-05)
(4.43398e-05 -7.21059e-06 -1.57214e-05)
(3.56935e-05 -1.1832e-05 -1.13872e-05)
(2.08806e-05 -5.62397e-06 -1.06439e-05)
(3.85784e-06 -5.73213e-07 -2.89804e-05)
(-4.16389e-05 -2.44984e-05 -6.17548e-05)
(-3.7895e-05 -4.56675e-05 -6.27092e-05)
(-5.37687e-05 -6.75217e-05 -4.85183e-05)
(-0.000109963 -9.75999e-05 -2.76039e-05)
(-0.000287283 -0.000117915 -5.06726e-05)
(-0.00040785 -0.000152905 -5.70453e-05)
(-0.000531136 -0.000182748 -3.5645e-05)
(-0.000640864 -0.000196932 -1.06581e-05)
(-0.000738168 -0.000203733 1.4641e-05)
(-0.000820885 -0.000205253 3.81392e-05)
(-0.000891399 -0.000204857 5.89715e-05)
(-0.000950626 -0.000204644 7.63545e-05)
(-0.000998847 -0.000205144 9.0162e-05)
(-0.00103662 -0.000207146 9.96618e-05)
(-0.0010679 -0.000210127 0.000105547)
(-0.00109134 -0.000214467 0.000108474)
(-0.00110923 -0.000219379 0.000108437)
(-0.00112056 -0.00022523 0.000103348)
(-0.00113419 -0.000230529 9.5147e-05)
(-0.0011447 -0.000235854 8.56101e-05)
(-0.00115659 -0.000241308 7.19472e-05)
(-0.00117128 -0.000245126 5.64621e-05)
(-0.00117678 -0.000249086 3.83879e-05)
(-0.00117072 -0.000251394 1.38986e-05)
(4.87853e-05 1.56895e-05 4.81349e-05)
(6.59711e-05 1.30812e-05 -7.81821e-06)
(7.27119e-05 8.92725e-06 -1.5124e-05)
(7.49639e-05 8.02367e-07 -1.87621e-05)
(7.31708e-05 -8.74152e-06 -1.93779e-05)
(6.72512e-05 -1.80847e-05 -1.74034e-05)
(5.56616e-05 -2.69195e-05 -1.33334e-05)
(4.10911e-05 -3.09342e-05 -3.81658e-06)
(2.29765e-05 -2.4131e-05 2.14728e-05)
(-5.34548e-05 4.3896e-05 -1.22724e-05)
(-3.41205e-05 1.4194e-06 -6.40699e-05)
(-5.77717e-05 -3.89869e-05 -4.2282e-05)
(-0.000143144 -6.62597e-05 -3.85587e-05)
(-0.000294808 -0.000102591 -5.89056e-05)
(-0.000401301 -0.00013613 -5.30582e-05)
(-0.000510105 -0.000158126 -3.2166e-05)
(-0.000605061 -0.000167908 -8.83476e-06)
(-0.00068998 -0.000172328 1.46224e-05)
(-0.000761526 -0.000173333 3.67793e-05)
(-0.000818602 -0.000173354 5.59751e-05)
(-0.000864952 -0.000173769 7.19278e-05)
(-0.000899797 -0.000175535 8.31997e-05)
(-0.00092788 -0.000177877 9.05651e-05)
(-0.000947111 -0.000181634 9.50185e-05)
(-0.000960162 -0.000185615 9.64644e-05)
(-0.000965976 -0.000190622 9.22134e-05)
(-0.000976664 -0.000195571 8.48165e-05)
(-0.000982961 -0.000200166 7.66641e-05)
(-0.000989204 -0.000204749 6.41733e-05)
(-0.00100134 -0.000207538 5.05382e-05)
(-0.00100428 -0.000211644 3.4962e-05)
(-0.000995194 -0.000213361 1.28608e-05)
(5.50172e-05 1.39045e-05 4.70839e-05)
(7.67302e-05 1.11462e-05 -6.84172e-06)
(8.68649e-05 7.23605e-06 -1.51937e-05)
(9.23567e-05 -7.27636e-07 -2.01273e-05)