/*--------------------------------*- C++ -*----------------------------------*\
  =========                 |
  \\      /  F ield         | OpenFOAM: The Open Source CFD Toolbox
   \\    /   O peration     | Website:  https://openfoam.org
    \\  /    A nd           | Version:  6
     \\/     M anipulation  |
\*---------------------------------------------------------------------------*/
FoamFile
{
    version     2.0;
    format      ascii;
    class       volVectorField;
    location    "45";
    object      wallShearStress;
}
// * * * * * * * * * * * * * * * * * * * * * * * * * * * * * * * * * * * * * //

dimensions      [0 2 -2 0 0 0 0];

internalField   uniform (0 0 0);

boundaryField
{
    inlet
    {
        type            calculated;
        value           uniform (0 0 0);
    }
    outlet
    {
        type            calculated;
        value           uniform (0 0 0);
    }
    roughCylinder
    {
        type            calculated;
        value           nonuniform List<vector> 
5120
(
(-0.000433202 -0.000624252 -0.000324571)
(-0.000386732 -0.000556222 -3.93381e-05)
(-0.00034561 -0.000541129 1.3588e-06)
(-0.000383654 -0.000603376 4.93381e-05)
(-0.000450437 -0.000681796 0.000104671)
(-0.000520907 -0.000742095 0.000157027)
(-0.000592184 -0.000782024 0.00020321)
(-0.000659933 -0.000803745 0.000241952)
(-0.000721637 -0.000811212 0.000272491)
(-0.000777242 -0.000812033 0.000295629)
(-0.000827751 -0.000813442 0.000313368)
(-0.000870291 -0.000816027 0.00032494)
(-0.000906146 -0.000822869 0.000330686)
(-0.000936792 -0.000834076 0.000331621)
(-0.000963261 -0.000849048 0.000328881)
(-0.000987179 -0.000867016 0.000323573)
(-0.00101 -0.00088711 0.000316519)
(-0.00103314 -0.000908953 0.000308319)
(-0.00105729 -0.000932143 0.0002992)
(-0.00108282 -0.000956543 0.000289236)
(-0.00110987 -0.000982118 0.000278416)
(-0.00113841 -0.00100883 0.00026667)
(-0.00116831 -0.00103656 0.000253886)
(-0.00119937 -0.00106515 0.000239909)
(-0.00123134 -0.00109434 0.000224495)
(-0.00126383 -0.00112376 0.000207279)
(-0.00129636 -0.00115293 0.00018771)
(-0.00132823 -0.00118116 0.000165039)
(-0.00135843 -0.00120756 0.000138138)
(-0.00138545 -0.00123081 0.000105849)
(-0.00140657 -0.00124921 6.64567e-05)
(-0.00141812 -0.00125993 2.22229e-05)
(-0.000550158 -0.000720354 -0.000375412)
(-0.000416853 -0.000549753 -4.30333e-05)
(-0.000367295 -0.000527054 -4.34419e-06)
(-0.000402975 -0.000585734 4.0201e-05)
(-0.000471133 -0.000664499 9.33608e-05)
(-0.000543566 -0.000726562 0.000144418)
(-0.000616798 -0.000768707 0.000189763)
(-0.000686908 -0.000793125 0.000228099)
(-0.000751933 -0.000804415 0.000258969)
(-0.000811846 -0.000809503 0.000283395)
(-0.000866048 -0.00081316 0.000302517)
(-0.000912013 -0.00081549 0.000315278)
(-0.000949595 -0.000821015 0.000321623)
(-0.000981763 -0.000831201 0.000322853)
(-0.00100976 -0.000845527 0.000320347)
(-0.00103506 -0.000862981 0.000315174)
(-0.00105941 -0.000882883 0.000308288)
(-0.00108382 -0.000904405 0.000300199)
(-0.00110928 -0.000927319 0.000291241)
(-0.00113622 -0.000951508 0.000281515)
(-0.00116474 -0.000976874 0.000270998)
(-0.00119478 -0.00100333 0.000259607)
(-0.0012262 -0.00103078 0.000247231)
(-0.00125879 -0.00105904 0.000233709)
(-0.00129227 -0.00108787 0.000218789)
(-0.00132626 -0.0011169 0.000202111)
(-0.00136025 -0.00114565 0.000183122)
(-0.00139352 -0.00117348 0.000161081)
(-0.001425 -0.00119947 0.000134875)
(-0.00145313 -0.00122235 0.000103371)
(-0.00147511 -0.00124048 6.48942e-05)
(-0.00148714 -0.00125101 2.169e-05)
(-0.000597482 -0.000701569 -0.000360341)
(-0.000448581 -0.000540307 -4.65591e-05)
(-0.000391572 -0.000511032 -1.09406e-05)
(-0.000421354 -0.00056269 3.02289e-05)
(-0.000490133 -0.000640905 8.10594e-05)
(-0.000564166 -0.000704228 0.000130674)
(-0.000639223 -0.000748543 0.000175157)
(-0.000712067 -0.00077635 0.000213362)
(-0.000780901 -0.000792043 0.00024497)
(-0.000844843 -0.000801001 0.000270618)
(-0.000902691 -0.000806906 0.000290782)
(-0.000952378 -0.000810279 0.000304681)
(-0.000992037 -0.000814125 0.000311561)
(-0.00102583 -0.000823277 0.00031318)
(-0.00105535 -0.000836668 0.000310912)
(-0.00108221 -0.000853538 0.000305969)
(-0.00110777 -0.000872753 0.000299207)
(-0.00113367 -0.000893916 0.000291338)
(-0.00116059 -0.000916507 0.000282633)
(-0.00118892 -0.000940286 0.000273186)
(-0.00121881 -0.000965181 0.000262995)
(-0.00125025 -0.000991159 0.000251994)
(-0.00128311 -0.00101809 0.000240063)
(-0.00131716 -0.00104582 0.000227036)
(-0.0013521 -0.00107407 0.00021266)
(-0.00138753 -0.00110251 0.000196565)
(-0.00142291 -0.00113066 0.000178202)
(-0.00145748 -0.00115787 0.000156838)
(-0.00149016 -0.00118328 0.000131378)
(-0.00151934 -0.00120564 0.000100717)
(-0.00154212 -0.00122335 6.32232e-05)
(-0.0015546 -0.00123362 2.11213e-05)
(-0.000623099 -0.0006554 -0.000323027)
(-0.00046861 -0.000511856 -5.0167e-05)
(-0.000409602 -0.000485887 -1.77585e-05)
(-0.000435054 -0.000533374 1.99277e-05)
(-0.000503838 -0.000610494 6.80439e-05)
(-0.000579656 -0.000675428 0.000116002)
(-0.000657141 -0.000722736 0.000159607)
(-0.000733064 -0.000754457 0.000197728)
(-0.000805458 -0.000774422 0.000230037)
(-0.000873424 -0.000787266 0.000256913)
(-0.000934912 -0.000795426 0.000278097)
(-0.000987821 -0.000799981 0.000292821)
(-0.00103111 -0.000803464 0.000300635)
(-0.00106658 -0.000811025 0.00030269)
(-0.00109782 -0.000823398 0.000300764)
(-0.00112612 -0.000839327 0.000296068)
(-0.00115346 -0.000858099 0.000289639)
(-0.00118069 -0.000878621 0.000282003)
(-0.00120888 -0.000900581 0.000273557)
(-0.00123859 -0.000923834 0.000264448)
(-0.00126994 -0.000948228 0.000254661)
(-0.00130282 -0.000973641 0.000244108)
(-0.0013371 -0.000999965 0.000232673)
(-0.00137256 -0.00102702 0.000220182)
(-0.00140886 -0.00105455 0.000206377)
(-0.0014456 -0.00108222 0.000190891)
(-0.00148223 -0.00110959 0.000173177)
(-0.00151799 -0.00113604 0.000152511)
(-0.00155175 -0.00116072 0.000127816)
(-0.00158186 -0.00118242 9.80159e-05)
(-0.00160537 -0.0011996 6.15243e-05)
(-0.00161822 -0.00120956 2.05439e-05)
(-0.000653237 -0.000614826 -0.000284775)
(-0.0004938 -0.000486288 -5.40891e-05)
(-0.000425533 -0.000458053 -2.47189e-05)
(-0.000444564 -0.000499853 9.50712e-06)
(-0.000512985 -0.000575702 5.469e-05)
(-0.000590101 -0.00064174 0.000100687)
(-0.000669452 -0.000691451 0.000143104)
(-0.000748292 -0.000726924 0.000180971)
(-0.000824632 -0.000751458 0.000213982)
(-0.000896249 -0.000767791 0.000241905)
(-0.000961277 -0.000778154 0.00026411)
(-0.00101788 -0.000784226 0.000279722)
(-0.00106493 -0.000788219 0.000288509)
(-0.00110332 -0.000794318 0.000291324)
(-0.0011363 -0.000805359 0.000289866)
(-0.00116654 -0.000820394 0.000285606)
(-0.00119509 -0.000838027 0.000279435)
(-0.0012239 -0.000857883 0.000272173)
(-0.00125367 -0.000879296 0.00026413)
(-0.00128474 -0.00090187 0.000255417)
(-0.00131734 -0.000925493 0.000246051)
(-0.00135148 -0.000950119 0.000235976)
(-0.00138702 -0.000975601 0.000225064)
(-0.00142372 -0.00100179 0.000213139)
(-0.00146126 -0.00102843 0.000199941)
(-0.00149921 -0.00105519 0.000185097)
(-0.00153698 -0.00108163 0.000168058)
(-0.00157378 -0.00110714 0.000148109)
(-0.0016085 -0.00113093 0.000124197)
(-0.00163943 -0.00115184 9.52749e-05)
(-0.00166356 -0.00116841 5.98036e-05)
(-0.00167673 -0.00117799 1.99607e-05)
(-0.000661825 -0.000552226 -0.000239165)
(-0.000507007 -0.000451127 -5.65077e-05)
(-0.000438554 -0.000427113 -3.16078e-05)
(-0.000448613 -0.000462204 -9.33294e-07)
(-0.000514772 -0.000535232 4.0894e-05)
(-0.000593191 -0.000602447 8.45763e-05)
(-0.00067524 -0.000655444 0.00012568)
(-0.000757597 -0.000695136 0.000163233)
(-0.000837232 -0.000723378 0.00019662)
(-0.000912643 -0.000743092 0.000225478)
(-0.000981437 -0.000755772 0.000248729)
(-0.00104146 -0.00076304 0.000265214)
(-0.00109251 -0.000768069 0.000274976)
(-0.00113483 -0.000773736 0.000278822)
(-0.00117031 -0.000782952 0.000278081)
(-0.00120214 -0.000796437 0.000274287)
(-0.00123292 -0.000813374 0.000268709)
(-0.0012632 -0.000832244 0.000261871)
(-0.00129416 -0.000852631 0.000254227)
(-0.00132658 -0.000874347 0.000245984)
(-0.00136059 -0.000897193 0.000237147)
(-0.00139609 -0.000920964 0.000227628)
(-0.00143292 -0.000945551 0.000217304)
(-0.00147084 -0.000970754 0.000205993)
(-0.0015095 -0.000996347 0.00019343)
(-0.00154848 -0.00102202 0.000179248)
(-0.00158722 -0.00104734 0.0001629)
(-0.00162495 -0.00107177 0.000143683)
(-0.00166047 -0.00109454 0.000120562)
(-0.00169209 -0.00111452 9.25239e-05)
(-0.00171675 -0.00113037 5.80796e-05)
(-0.00173018 -0.00113953 1.93779e-05)
(-0.000574818 -0.000426992 -0.000166868)
(-0.000501505 -0.00039933 -5.71699e-05)
(-0.000439375 -0.000387139 -3.7761e-05)
(-0.000446678 -0.000421775 -1.10046e-05)
(-0.000510972 -0.000492606 2.70689e-05)
(-0.000590131 -0.000560528 6.80199e-05)
(-0.000673667 -0.000615603 0.000107336)
(-0.000758429 -0.000658366 0.000144113)
(-0.000842193 -0.000690799 0.000177825)
(-0.000921369 -0.000713581 0.000207409)
(-0.000993757 -0.000728303 0.000231571)
(-0.00105808 -0.000737346 0.000249214)
(-0.00111293 -0.000743146 0.000259985)
(-0.00115946 -0.000749205 0.000264928)
(-0.00119866 -0.000757358 0.000265201)
(-0.00123343 -0.000769364 0.00026229)
(-0.00126551 -0.000784276 0.00025719)
(-0.00129754 -0.000801994 0.000250954)
(-0.00133035 -0.000821568 0.000243933)
(-0.00136418 -0.000842323 0.000236252)
(-0.00139932 -0.000864059 0.000227961)
(-0.0014359 -0.000886721 0.000219025)
(-0.00147375 -0.000910142 0.000209313)
(-0.00151269 -0.000934175 0.000198651)
(-0.00155234 -0.000958574 0.000186764)
(-0.00159226 -0.000983029 0.000173279)
(-0.00163184 -0.00100713 0.00015765)
(-0.0016703 -0.00103034 0.000139183)
(-0.0017065 -0.00105196 0.000116873)
(-0.0017387 -0.00107092 8.97352e-05)
(-0.00176379 -0.00108596 5.63355e-05)
(-0.00177737 -0.00109465 1.87897e-05)
(-0.000628219 -0.000411073 -0.000147462)
(-0.000504386 -0.000362848 -5.84601e-05)
(-0.000438992 -0.000349203 -4.27884e-05)
(-0.00043696 -0.000378153 -2.04486e-05)
(-0.000497247 -0.000445187 1.31491e-05)
(-0.000576501 -0.000513253 5.07552e-05)
(-0.000662439 -0.000571263 8.79643e-05)
(-0.000751199 -0.000618355 0.000123862)
(-0.000837995 -0.000653821 0.000157372)
(-0.000921096 -0.000679563 0.000187477)
(-0.000997965 -0.000696793 0.000212615)
(-0.001066 -0.000707076 0.000231293)
(-0.00112541 -0.000714041 0.000243383)
(-0.00117576 -0.000720201 0.000249457)
(-0.00121914 -0.000728173 0.000250934)
(-0.0012568 -0.000738651 0.000248943)
(-0.00129259 -0.000752685 0.000244973)
(-0.00132665 -0.000768908 0.000239524)
(-0.00136061 -0.00078684 0.000233099)
(-0.00139577 -0.000806287 0.000226059)
(-0.00143238 -0.000826926 0.000218458)
(-0.00147026 -0.00084845 0.000210212)
(-0.00150931 -0.000870705 0.000201202)
(-0.00154924 -0.00089348 0.000191238)
(-0.00158974 -0.000916561 0.000180058)
(-0.00163038 -0.000939659 0.000167289)
(-0.00167061 -0.000962395 0.000152392)
(-0.00170967 -0.000984285 0.000134686)
(-0.00174637 -0.00100462 0.000113188)
(-0.00177899 -0.00102243 8.69505e-05)
(-0.00180438 -0.00103659 5.45987e-05)
(-0.00181804 -0.00104483 1.8207e-05)
(-0.000574679 -0.000332006 -0.000103968)
(-0.000503833 -0.000323343 -5.89303e-05)
(-0.000435901 -0.0003126 -4.83356e-05)
(-0.000422689 -0.00033521 -2.95581e-05)
(-0.000477009 -0.000397239 -3.51635e-07)
(-0.000555881 -0.000465104 3.35015e-05)
(-0.00064251 -0.000524505 6.79557e-05)
(-0.000732266 -0.000573353 0.000102085)
(-0.00082343 -0.000612763 0.000135202)
(-0.000910852 -0.000641561 0.000165575)
(-0.000991564 -0.000660685 0.000191376)
(-0.00106485 -0.000673078 0.000211373)
(-0.00112851 -0.00068086 0.000224809)
(-0.00118372 -0.000687625 0.000232412)
(-0.00123071 -0.000695038 0.000235136)
(-0.00127284 -0.000705199 0.000234541)
(-0.00131065 -0.000717569 0.000231505)
(-0.00134714 -0.000732403 0.000227035)
(-0.00138369 -0.000749256 0.000221592)
(-0.00142065 -0.000767443 0.000215396)
(-0.00145838 -0.00078663 0.000208539)
(-0.00149723 -0.000806713 0.000201029)
(-0.00153707 -0.000827499 0.00019275)
(-0.00157778 -0.000848855 0.00018354)
(-0.00161896 -0.000870502 0.000173117)
(-0.00166019 -0.000892173 0.000161111)
(-0.0017009 -0.000913479 0.000146984)
(-0.00174033 -0.000933943 0.000130065)
(-0.0017774 -0.000952958 0.000109407)
(-0.00181036 -0.000969605 8.41012e-05)
(-0.00183595 -0.000982843 5.28288e-05)
(-0.00184946 -0.000990548 1.7615e-05)
(-0.000650738 -0.000332432 -8.14027e-05)
(-0.000501376 -0.000282369 -6.15269e-05)
(-0.000419044 -0.000270877 -5.21513e-05)
(-0.000397459 -0.000288889 -3.71961e-05)
(-0.000444617 -0.000345158 -1.3105e-05)
(-0.000521009 -0.000411188 1.61236e-05)
(-0.000608896 -0.000472469 4.71583e-05)
(-0.000703575 -0.000526068 7.93398e-05)
(-0.000797411 -0.000568023 0.000111281)
(-0.00088879 -0.000599516 0.000141489)
(-0.000975166 -0.000621606 0.000168059)
(-0.00105261 -0.000635206 0.000189078)
(-0.00112174 -0.000644339 0.000204144)
(-0.00118118 -0.000651157 0.000213306)
(-0.00123321 -0.000658668 0.000217754)
(-0.001278 -0.000667435 0.000218421)
(-0.00132011 -0.000679282 0.000216881)
(-0.00135934 -0.000692877 0.000213583)
(-0.00139728 -0.000707996 0.000209082)
(-0.00143573 -0.000724703 0.000203828)
(-0.00147514 -0.000742657 0.000197927)
(-0.00151536 -0.000761472 0.000191321)
(-0.00155636 -0.000780958 0.00018392)
(-0.00159779 -0.000800844 0.000175537)
(-0.0016395 -0.000820984 0.000165926)
(-0.00168104 -0.000841091 0.00015472)
(-0.00172194 -0.000860854 0.000141393)
(-0.00176155 -0.000879851 0.000125295)
(-0.00179872 -0.000897477 0.000105505)
(-0.00183176 -0.000912897 8.11608e-05)
(-0.00185736 -0.000925163 5.10038e-05)
(-0.00187066 -0.000932272 1.70059e-05)
(-0.000599269 -0.000265502 -5.19798e-05)
(-0.000484685 -0.000243714 -6.08017e-05)
(-0.000404502 -0.000234514 -5.55924e-05)
(-0.000368322 -0.000245287 -4.38083e-05)
(-0.000405193 -0.000294157 -2.46368e-05)
(-0.000479549 -0.000358589 -5.14492e-07)
(-0.000567046 -0.000420366 2.6376e-05)
(-0.000659827 -0.000473622 5.53158e-05)
(-0.000758226 -0.000519501 8.56804e-05)
(-0.000854861 -0.000554538 0.000115396)
(-0.000945182 -0.00057843 0.000142149)
(-0.00102924 -0.000594614 0.000164482)
(-0.00110328 -0.000604551 0.000181086)
(-0.00116873 -0.000612173 0.000192252)
(-0.00122468 -0.00061896 0.000198424)
(-0.00127518 -0.000627716 0.000201083)
(-0.00131933 -0.000637699 0.000200857)
(-0.00136104 -0.000649788 0.000198881)
(-0.00140206 -0.000663887 0.000195733)
(-0.00144252 -0.000679257 0.000191627)
(-0.00148288 -0.000695529 0.000186697)
(-0.00152376 -0.00071264 0.000181014)
(-0.00156511 -0.00073038 0.000174494)
(-0.00160701 -0.00074866 0.000167008)
(-0.00164897 -0.000767164 0.000158273)
(-0.00169067 -0.000785668 0.000147936)
(-0.00173158 -0.000803832 0.000135468)
(-0.00177103 -0.000821252 0.000120235)
(-0.00180809 -0.000837439 0.000101367)
(-0.00184103 -0.000851603 7.80419e-05)
(-0.00186647 -0.000862866 4.90699e-05)
(-0.00187943 -0.00086933 1.63618e-05)
(-0.000513022 -0.000194528 -2.64969e-05)
(-0.000433464 -0.000194494 -5.62827e-05)
(-0.000368818 -0.000191354 -5.59792e-05)
(-0.000329878 -0.00020129 -4.8415e-05)
(-0.000352763 -0.000240513 -3.40392e-05)
(-0.000419508 -0.000299191 -1.57159e-05)
(-0.000505821 -0.000360816 5.94796e-06)
(-0.000605736 -0.000420173 3.11376e-05)
(-0.000706056 -0.00046819 5.88039e-05)
(-0.00080616 -0.000505725 8.72115e-05)
(-0.000903787 -0.000533541 0.000114207)
(-0.000992366 -0.000551017 0.000137334)
(-0.00107319 -0.000562646 0.000155747)
(-0.00114336 -0.000570163 0.000168803)
(-0.00120573 -0.000577263 0.000177289)
(-0.00125878 -0.000584243 0.000181667)
(-0.00130833 -0.000593775 0.000183506)
(-0.00135355 -0.000604654 0.000183199)
(-0.00139587 -0.000616732 0.000181322)
(-0.00143772 -0.000630348 0.000178434)
(-0.00147991 -0.00064525 0.000174728)
(-0.00152224 -0.000660967 0.00017018)
(-0.00156478 -0.000677304 0.000164735)
(-0.00160708 -0.00069393 0.000158219)
(-0.0016492 -0.000710771 0.000150421)
(-0.00169073 -0.000727558 0.000140982)
(-0.00173132 -0.000744036 0.000129397)
(-0.00177047 -0.000759873 0.000115061)
(-0.00180713 -0.000774566 9.71338e-05)
(-0.00183971 -0.000787427 7.4849e-05)
(-0.0018648 -0.000797645 4.7092e-05)
(-0.00187735 -0.000803457 1.57054e-05)
(-0.000448836 -0.000145819 -8.32594e-06)
(-0.000394032 -0.000156685 -5.36877e-05)
(-0.000332787 -0.000154952 -5.59731e-05)
(-0.000284675 -0.000159591 -5.05623e-05)
(-0.000295244 -0.000190102 -4.05883e-05)
(-0.000357438 -0.000245001 -2.87189e-05)
(-0.000441605 -0.000305662 -1.30798e-05)
(-0.000533033 -0.000360511 7.0237e-06)
(-0.000638079 -0.000412811 3.12108e-05)
(-0.000744798 -0.000455053 5.77049e-05)
(-0.000845819 -0.000484684 8.39218e-05)
(-0.000942747 -0.000505748 0.000108019)
(-0.00102909 -0.00051838 0.000127953)
(-0.00110689 -0.000527138 0.000143378)
(-0.00117332 -0.000533212 0.000154)
(-0.00123388 -0.000540477 0.000161026)
(-0.00128554 -0.000547835 0.000164683)
(-0.0013333 -0.000556891 0.000166135)
(-0.00137949 -0.00056793 0.000166059)
(-0.00142384 -0.000580132 0.000164682)
(-0.00146682 -0.000593101 0.0001622)
(-0.00150946 -0.00060687 0.000158772)
(-0.00155182 -0.000621199 0.000154363)
(-0.00159429 -0.000636086 0.000148897)
(-0.00163623 -0.000651149 0.000142096)
(-0.00167747 -0.000666225 0.000133629)
(-0.00171756 -0.000681024 0.000122989)
(-0.001756 -0.000695201 0.000109587)
(-0.00179204 -0.000708391 9.26538e-05)
(-0.00182408 -0.000719945 7.14712e-05)
(-0.00184867 -0.000729116 4.50031e-05)
(-0.00186066 -0.000734251 1.50147e-05)
(-0.000330278 -9.1873e-05 9.54252e-06)
(-0.000325677 -0.000111546 -4.93349e-05)
(-0.000285055 -0.000119766 -5.4936e-05)
(-0.000237988 -0.000123199 -5.14065e-05)
(-0.00022474 -0.000137924 -4.25921e-05)
(-0.000269422 -0.000180081 -3.62814e-05)
(-0.000347811 -0.000236935 -2.77601e-05)
(-0.00045297 -0.000301955 -1.49366e-05)
(-0.000557497 -0.000355371 4.03872e-06)
(-0.000665872 -0.000399778 2.73428e-05)
(-0.000776479 -0.000435239 5.25169e-05)
(-0.000877685 -0.000457957 7.66655e-05)
(-0.000972386 -0.000473247 9.8225e-05)
(-0.00105502 -0.000481965 0.000115643)
(-0.00112976 -0.000488906 0.000129056)
(-0.0011923 -0.000493915 0.000138202)
(-0.0012507 -0.000500933 0.000144492)
(-0.00130306 -0.000508844 0.00014816)
(-0.00135033 -0.000517541 0.000149727)
(-0.00139589 -0.000527689 0.000149879)
(-0.001441 -0.000539197 0.000148921)
(-0.00148532 -0.000551507 0.000146883)
(-0.00152908 -0.000564439 0.000143766)
(-0.00157162 -0.000577561 0.00013942)
(-0.00161338 -0.000590902 0.000133682)
(-0.00165394 -0.000604196 0.000126207)
(-0.00169315 -0.00061726 0.00011652)
(-0.00173078 -0.000629847 0.000104076)
(-0.00176592 -0.000641522 8.81402e-05)
(-0.00179712 -0.00065175 6.80637e-05)
(-0.001821 -0.000659861 4.28995e-05)
(-0.00183237 -0.000664361 1.43225e-05)
(-0.000190998 -4.35315e-05 1.68641e-05)
(-0.000229806 -6.79393e-05 -4.08721e-05)
(-0.000215137 -8.22887e-05 -5.01755e-05)
(-0.000178925 -8.69964e-05 -4.7782e-05)
(-0.000158693 -9.40523e-05 -4.01261e-05)
(-0.000191996 -0.000126853 -3.92036e-05)
(-0.000267934 -0.000181644 -3.94009e-05)
(-0.000347749 -0.000232027 -3.28762e-05)
(-0.000459164 -0.000292133 -2.05241e-05)
(-0.000576248 -0.000343496 -2.0853e-06)
(-0.000687869 -0.000380658 2.04594e-05)
(-0.000799656 -0.000409089 4.43514e-05)
(-0.000899788 -0.000426078 6.68065e-05)
(-0.000992013 -0.000437275 8.65153e-05)
(-0.00107022 -0.000443134 0.000102187)
(-0.00114263 -0.000449186 0.000114461)
(-0.00120291 -0.000453824 0.000122983)
(-0.00125752 -0.000459602 0.000128787)
(-0.0013097 -0.000467323 0.000132598)
(-0.00135846 -0.000476074 0.000134641)
(-0.00140414 -0.000485456 0.000135168)
(-0.00144831 -0.000495611 0.000134449)
(-0.00149116 -0.000506317 0.000132515)
(-0.00153356 -0.000517647 0.000129371)
(-0.00157462 -0.000529166 0.000124746)
(-0.00161443 -0.000540766 0.000118343)
(-0.00165262 -0.000552174 0.000109676)
(-0.00168892 -0.000563109 9.82227e-05)
(-0.0017229 -0.00057331 8.33401e-05)
(-0.00175311 -0.000582264 6.44399e-05)
(-0.00177613 -0.000589353 4.06665e-05)
(-0.00178669 -0.000593211 1.35898e-05)
(-7.04643e-05 -1.18971e-05 1.28215e-05)
(-0.000129029 -3.45959e-05 -2.7122e-05)
(-0.000136614 -4.75162e-05 -4.04906e-05)
(-0.000122193 -5.59294e-05 -4.28999e-05)
(-6.82928e-05 -4.02605e-05 -2.40388e-05)
(-9.08861e-05 -6.08967e-05 -2.7444e-05)
(-0.0001301 -9.00026e-05 -3.10151e-05)
(-0.00025171 -0.000169424 -4.40062e-05)
(-0.000351724 -0.00022582 -4.09302e-05)
(-0.000466208 -0.000279402 -2.84345e-05)
(-0.000591334 -0.000326321 -1.00096e-05)
(-0.000705225 -0.00035696 1.21214e-05)
(-0.000815499 -0.000378812 3.501e-05)
(-0.00091144 -0.000390548 5.60943e-05)
(-0.00100023 -0.000398777 7.44425e-05)
(-0.00107291 -0.000402381 8.88761e-05)
(-0.00114137 -0.00040723 0.000100329)
(-0.00120194 -0.000412251 0.000108751)
(-0.00125465 -0.000417418 0.000114493)
(-0.00130414 -0.000423901 0.00011832)
(-0.00135233 -0.000431831 0.000120655)
(-0.00139859 -0.000440598 0.000121579)
(-0.00144327 -0.000450027 0.000121165)
(-0.00148545 -0.000459608 0.000119288)
(-0.00152599 -0.000469464 0.000115846)
(-0.00156456 -0.000479334 0.000110519)
(-0.00160125 -0.000489083 0.000102866)
(-0.00163624 -0.000498534 9.24158e-05)
(-0.00166878 -0.000507314 7.85731e-05)
(-0.00169767 -0.000515014 6.08353e-05)
(-0.00171961 -0.000521107 3.8449e-05)
(-0.00172937 -0.000524404 1.28666e-05)
(-1.46116e-05 -6.83591e-07 1.01854e-05)
(-4.08552e-05 -9.6608e-06 -9.28617e-06)
(-5.09189e-05 -1.4832e-05 -2.22798e-05)
(-3.6994e-05 -1.61589e-05 -2.06851e-05)
(-3.97093e-05 -2.55159e-05 -2.28485e-05)
(-4.55248e-05 -3.47129e-05 -2.19568e-05)
(-5.77019e-05 -4.42897e-05 -2.15149e-05)
(-9.17374e-05 -6.47203e-05 -2.60219e-05)
(-0.000230007 -0.000150207 -4.854e-05)
(-0.000352289 -0.000213883 -4.89425e-05)
(-0.000471929 -0.00026247 -3.62456e-05)
(-0.000600505 -0.000303568 -1.77422e-05)
(-0.000714089 -0.000328336 4.05291e-06)
(-0.000821977 -0.000345313 2.6053e-05)
(-0.0009119 -0.000352929 4.59373e-05)
(-0.00099744 -0.000359421 6.32304e-05)
(-0.00106668 -0.000362135 7.69007e-05)
(-0.00112843 -0.000365018 8.75403e-05)
(-0.00118726 -0.000369627 9.57854e-05)
(-0.00124089 -0.000374994 0.000101792)
(-0.00128923 -0.000380759 0.000105813)
(-0.00133461 -0.000387275 0.000108216)
(-0.00137734 -0.000394358 0.000109093)
(-0.00141892 -0.000402199 0.000108545)
(-0.00145821 -0.000410318 0.000106323)
(-0.00149552 -0.000418632 0.000102154)
(-0.00153064 -0.000426895 9.55832e-05)
(-0.00156359 -0.000434831 8.61655e-05)
(-0.0015944 -0.000442281 7.3429e-05)
(-0.00162184 -0.000448832 5.69423e-05)
(-0.00164255 -0.000454007 3.6056e-05)
(-0.00165123 -0.000456744 1.20869e-05)
(2.03579e-06 3.43559e-06 1.64114e-05)
(-2.28057e-06 4.74721e-07 -1.19542e-06)
(-7.16815e-06 -1.54854e-06 -1.20252e-05)
(-1.46276e-05 -1.04737e-05 -2.20682e-05)
(-1.69377e-05 -1.67038e-05 -2.08585e-05)
(-2.87721e-05 -3.10276e-05 -2.69409e-05)
(-4.29382e-05 -4.16486e-05 -2.86554e-05)
(-4.84206e-05 -3.95897e-05 -2.30887e-05)
(-7.22347e-05 -5.0118e-05 -2.44485e-05)
(-0.000218198 -0.000133561 -5.18889e-05)
(-0.000356265 -0.000199542 -5.59128e-05)
(-0.000478508 -0.000243464 -4.24001e-05)
(-0.000605445 -0.000277972 -2.3733e-05)
(-0.000713146 -0.000296539 -2.47621e-06)
(-0.000816591 -0.000309716 1.84052e-05)
(-0.000898247 -0.00031399 3.6999e-05)
(-0.000977195 -0.000318421 5.31003e-05)
(-0.00104646 -0.000321658 6.62498e-05)
(-0.00110447 -0.000323849 7.6418e-05)
(-0.00115769 -0.000326978 8.42662e-05)
(-0.00120895 -0.00033158 9.02605e-05)
(-0.00125698 -0.000337005 9.44969e-05)
(-0.00130226 -0.000343145 9.7091e-05)
(-0.00134344 -0.00034944 9.7941e-05)
(-0.00138183 -0.000356092 9.70024e-05)
(-0.00141727 -0.000362874 9.39734e-05)
(-0.00145022 -0.000369689 8.84526e-05)
(-0.00148138 -0.000376389 8.00712e-05)
(-0.00151022 -0.000382624 6.8406e-05)
(-0.00153585 -0.000388097 5.31314e-05)
(-0.00155511 -0.000392419 3.3716e-05)
(-0.00156283 -0.000394718 1.13298e-05)
(7.20678e-06 8.25178e-06 2.54275e-05)
(1.56481e-05 7.19285e-06 -1.36228e-06)
(1.83833e-05 4.77433e-06 -1.20358e-05)
(1.79296e-05 -3.01924e-06 -1.88158e-05)
(1.15861e-05 -1.14944e-05 -2.17721e-05)
(1.74813e-06 -2.00924e-05 -2.39522e-05)
(-1.18393e-05 -2.76221e-05 -2.53657e-05)
(-3.18668e-05 -3.61553e-05 -2.93846e-05)
(-6.13559e-05 -4.85242e-05 -3.4376e-05)
(-0.000117983 -7.52063e-05 -4.4424e-05)
(-0.000207403 -0.000116304 -5.29279e-05)
(-0.000356572 -0.000182168 -5.84279e-05)
(-0.000477777 -0.000220649 -4.51403e-05)
(-0.000601655 -0.000249918 -2.7262e-05)
(-0.000700406 -0.000263225 -7.10417e-06)
(-0.000799405 -0.00027407 1.23576e-05)
(-0.000876224 -0.000277184 2.97284e-05)
(-0.000944126 -0.0002788 4.45178e-05)
(-0.00100963 -0.000281567 5.69482e-05)
(-0.00106816 -0.000284404 6.69691e-05)
(-0.00111867 -0.000287095 7.46691e-05)
(-0.00116457 -0.0002904 8.04145e-05)
(-0.00120626 -0.00029425 8.43119e-05)
(-0.00124606 -0.000298996 8.65466e-05)
(-0.00128254 -0.00030417 8.68876e-05)
(-0.00131618 -0.000309692 8.50742e-05)
(-0.00134697 -0.000315321 8.06749e-05)
(-0.00137528 -0.000320761 7.33466e-05)
(-0.0014018 -0.00032592 6.28375e-05)
(-0.00142551 -0.000330471 4.89e-05)
(-0.00144319 -0.000334052 3.11152e-05)
(-0.00144954 -0.000335898 1.04855e-05)
(1.63456e-05 1.21518e-05 3.16405e-05)
(2.91474e-05 1.15634e-05 -3.8312e-06)
(3.34072e-05 8.24919e-06 -1.28628e-05)
(3.24965e-05 1.18459e-06 -1.59363e-05)
(4.00251e-05 -8.20389e-06 -2.18972e-05)
(2.0898e-05 -1.16381e-05 -1.40116e-05)
(1.03897e-05 -1.42647e-05 -1.15902e-05)
(-1.47639e-06 -1.61662e-05 -1.19654e-05)
(-1.76578e-05 -1.92205e-05 -1.6405e-05)
(-4.02788e-05 -2.78701e-05 -2.32553e-05)
(-0.000118623 -6.72529e-05 -4.53598e-05)
(-0.000204395 -0.000104323 -5.22324e-05)
(-0.000354209 -0.000164235 -5.75541e-05)
(-0.000467592 -0.000195752 -4.50536e-05)
(-0.000585734 -0.000220526 -2.87176e-05)
(-0.000671968 -0.000229108 -1.00817e-05)
(-0.000760755 -0.000236922 7.68146e-06)
(-0.000838119 -0.00024111 2.38073e-05)
(-0.00089991 -0.000242052 3.75651e-05)
(-0.000955656 -0.000243098 4.9064e-05)
(-0.00100942 -0.000245415 5.86011e-05)
(-0.00105871 -0.000248335 6.61802e-05)
(-0.00110409 -0.000251925 7.18805e-05)
(-0.00114346 -0.000255595 7.5573e-05)
(-0.00117861 -0.000259683 7.72436e-05)
(-0.00120967 -0.000264023 7.65871e-05)
(-0.00123755 -0.000268552 7.32374e-05)
(-0.00126371 -0.000273129 6.69567e-05)
(-0.00128774 -0.00027739 5.75361e-05)
(-0.00130918 -0.000281123 4.48573e-05)
(-0.00132507 -0.000284056 2.86311e-05)
(-0.00133042 -0.00028561 9.68538e-06)
(2.59853e-05 1.34182e-05 3.33795e-05)
(5.24746e-05 1.53528e-05 -6.46548e-06)
(6.90394e-05 1.26151e-05 -1.90474e-05)
(7.03356e-05 3.84602e-06 -2.32442e-05)
(5.62214e-05 -5.76232e-06 -2.02052e-05)
(4.12101e-05 -1.20577e-05 -1.50209e-05)
(4.45255e-05 -2.46736e-05 -1.58637e-05)
(2.52932e-05 -2.63306e-05 -9.67982e-06)
(4.09262e-06 -2.4249e-05 -9.38834e-06)
(-2.55331e-05 -2.32629e-05 -2.00655e-05)
(-6.35403e-05 -3.70049e-05 -3.47e-05)
(-6.93704e-05 -3.5545e-05 -2.54275e-05)
(-0.000203294 -9.34375e-05 -4.96315e-05)
(-0.000345176 -0.000145557 -5.53335e-05)
(-0.000445027 -0.000169929 -4.31073e-05)
(-0.000558497 -0.00019183 -2.88369e-05)
(-0.000638516 -0.000198978 -1.19412e-05)
(-0.000709432 -0.000202412 4.30566e-06)
(-0.000780746 -0.000206151 1.9129e-05)
(-0.000843306 -0.000208543 3.21676e-05)
(-0.000894505 -0.000209624 4.3055e-05)
(-0.000939459 -0.000210865 5.19004e-05)
(-0.000978432 -0.000212417 5.86897e-05)
(-0.00101513 -0.000214936 6.36553e-05)
(-0.0010475 -0.000217996 6.65547e-05)
(-0.00107618 -0.000221531 6.70937e-05)
(-0.00110134 -0.0002253 6.48545e-05)
(-0.00112371 -0.000228945 5.96148e-05)
(-0.00114482 -0.000232455 5.13996e-05)
(-0.00116391 -0.00023556 4.01653e-05)
(-0.00117789 -0.000237973 2.57334e-05)
(-0.00118158 -0.000239171 8.74132e-06)
(3.33068e-05 1.35726e-05 3.4836e-05)
(7.15647e-05 1.81341e-05 -5.03066e-06)
(9.42856e-05 1.61168e-05 -2.01388e-05)
(0.000106059 7.39956e-06 -2.90411e-05)
(0.000106491 -5.33781e-06 -3.22868e-05)
(9.15991e-05 -1.73418e-05 -2.89455e-05)
(5.50628e-05 -2.02671e-05 -1.71133e-05)
(5.57796e-05 -3.54069e-05 -1.48749e-05)
(2.37863e-05 -2.6694e-05 -3.51217e-06)
(6.49884e-06 -2.72948e-05 -2.02834e-06)
(-1.74468e-05 -1.50189e-05 -1.00665e-05)
(-4.51084e-05 -2.29458e-05 -2.15264e-05)
(-6.80894e-05 -3.14308e-05 -2.38876e-05)
(-0.000189407 -7.99462e-05 -4.48685e-05)
(-0.000326097 -0.000126527 -5.15618e-05)
(-0.000405153 -0.000142795 -3.98267e-05)
(-0.000504038 -0.000160055 -2.71922e-05)
(-0.000587892 -0.000169537 -1.25738e-05)
(-0.000649532 -0.000172089 2.1939e-06)
(-0.00070478 -0.000173424 1.56871e-05)
(-0.00075958 -0.000175633 2.76691e-05)
(-0.000808978 -0.000177816 3.79278e-05)
(-0.00085375 -0.000180377 4.63501e-05)
(-0.000890147 -0.000182604 5.2657e-05)
(-0.00092075 -0.000185163 5.6806e-05)
(-0.000946058 -0.000187986 5.84227e-05)
(-0.000967531 -0.000191075 5.71599e-05)
(-0.000987666 -0.000194312 5.29471e-05)
(-0.00100595 -0.000197288 4.58173e-05)
(-0.00102238 -0.000199874 3.58778e-05)
(-0.00103435 -0.000201874 2.30845e-05)
(-0.00103718 -0.000202917 7.88633e-06)
(3.93508e-05 1.37022e-05 3.74973e-05)
(8.05785e-05 1.91956e-05 -2.69174e-06)
(0.000108708 1.93459e-05 -1.91988e-05)
(0.000125437 1.24814e-05 -3.00416e-05)
(0.000129809 1.85715e-07 -3.61612e-05)
(0.000123556 -1.41945e-05 -3.72933e-05)
(0.000109117 -2.7799e-05 -3.35468e-05)
(7.60077e-05 -3.34798e-05 -2.15228e-05)
(3.04867e-05 -2.13033e-05 -6.2843e-06)
(3.38725e-05 -4.0129e-05 -1.14645e-06)
(4.76493e-06 -2.42548e-05 2.64877e-06)
(-2.72628e-05 -2.13923e-05 -1.21887e-05)
(-6.18127e-05 -2.99649e-05 -2.87039e-05)
(-0.000113125 -4.94996e-05 -3.82593e-05)
(-0.000154771 -6.19353e-05 -3.62685e-05)
(-0.000298608 -0.000107592 -4.70192e-05)
(-0.000370916 -0.000121891 -3.74605e-05)
(-0.000439168 -0.000131039 -2.48779e-05)
(-0.000514986 -0.000140084 -1.19267e-05)
(-0.00058008 -0.000145515 1.35366e-06)
(-0.000628734 -0.000147349 1.37419e-05)
(-0.000669818 -0.000148408 2.45537e-05)
(-0.000702975 -0.000149135 3.34223e-05)
(-0.000734671 -0.000150777 4.05561e-05)
(-0.000761364 -0.000152895 4.56339e-05)
(-0.000783708 -0.000155452 4.82554e-05)
(-0.00080203 -0.000158249 4.79906e-05)
(-0.000817237 -0.000160816 4.47449e-05)
(-0.000832014 -0.000163323 3.88743e-05)
(-0.000845778 -0.000165569 3.05262e-05)
(-0.000855585 -0.000167255 1.97412e-05)
(-0.000856429 -0.000167958 6.78021e-06)
(4.33006e-05 1.35858e-05 4.09684e-05)
(8.22998e-05 1.93435e-05 2.25329e-07)