/*--------------------------------*- C++ -*----------------------------------*\
  =========                 |
  \\      /  F ield         | OpenFOAM: The Open Source CFD Toolbox
   \\    /   O peration     | Website:  https://openfoam.org
    \\  /    A nd           | Version:  6
     \\/     M anipulation  |
\*---------------------------------------------------------------------------*/
FoamFile
{
    version     2.0;
    format      ascii;
    class       volScalarField;
    location    "8";
    object      yPlus;
}
// * * * * * * * * * * * * * * * * * * * * * * * * * * * * * * * * * * * * * //

dimensions      [0 0 0 0 0 0 0];

internalField   uniform 0;

boundaryField
{
    inlet
    {
        type            calculated;
        value           uniform 0;
    }
    outlet
    {
        type            calculated;
        value           uniform 0;
    }
    roughCylinder
    {
        type            calculated;
        value           nonuniform List<scalar> 
3840
(
80.5859
50.3754
54.0104
62.3238
68.7334
73.8377
77.9472
81.4033
84.4746
87.257
89.8893
92.4178
94.9294
97.5397
100.282
103.196
106.285
109.533
112.901
116.327
119.706
122.864
125.491
127.095
72.4569
50.0969
52.5683
60.6549
67.0171
72.1057
76.1943
79.6504
82.6697
85.4292
87.9721
90.4115
92.8522
95.3492
97.9986
100.814
103.796
106.929
110.181
113.489
116.752
119.804
122.342
123.891
62.3078
49.437
51.1719
58.9939
65.2743
70.3154
74.4291
77.8816
80.9283
83.5993
86.0918
88.4635
90.7926
93.2195
95.7642
98.4711
101.344
104.368
107.505
110.698
113.847
116.793
119.245
120.738
77.8607
48.9036
49.6583
57.2446
63.505
68.5856
72.7005
76.1883
79.1674
81.845
84.2608
86.5419
88.822
91.1344
93.5934
96.2099
98.9834
101.896
104.921
108
111.037
113.88
116.245
117.685
71.6941
48.7415
48.2671
55.5288
61.7383
66.7729
70.9549
74.4354
77.4861
80.0879
82.4672
84.7101
86.8754
89.1382
91.5023
94.0151
96.6851
99.4983
102.416
105.385
108.316
111.06
113.343
114.73
60.7759
47.6845
46.6852
53.665
59.8769
65.0257
69.2154
72.7839
75.7503
78.3978
80.731
82.8835
85.0338
87.1845
89.4736
91.9119
94.4945
97.2032
100.018
102.88
105.706
108.353
110.555
111.893
74.7026
47.409
45.2534
51.8466
58.0587
63.136
67.4493
70.9883
74.0917
76.6767
78.997
81.1585
83.1917
85.3198
87.5284
89.8676
92.3525
94.9731
97.6882
100.451
103.177
105.732
107.859
109.147
64.79
46.9486
43.628
49.7824
55.9907
61.3078
65.6183
69.3334
72.3338
75.0043
77.3229
79.3958
81.4628
83.483
85.6282
87.9126
90.326
92.8489
95.4685
98.1319
100.762
103.225
105.276
106.517
73.744
46.6336
42.0487
47.7214
54.0396
59.2193
63.7614
67.4091
70.6422
73.2726
75.5897
77.739
79.6887
81.722
83.8069
85.9958
88.3155
90.7622
93.2909
95.8617
98.3987
100.779
102.76
103.954
62.1545
45.103
40.2223
45.2783
51.5171
57.1947
61.705
65.685
68.7904
71.5582
73.9343
75.9799
78.0235
79.9553
81.9898
84.1496
86.417
88.7716
91.2118
93.6889
96.1349
98.4286
100.339
101.487
58.7901
44.8263
38.4293
42.6756
49.2734
54.6508
59.6303
63.4863
66.9812
69.7483
72.1281
74.3408
76.2529
78.2412
80.241
82.3047
84.479
86.7686
89.1244
91.5152
93.8737
96.0889
97.9333
99.0356
63.27
44.0948
36.3831
39.4889
45.7345
52.2365
57.109
61.5932
64.9218
67.9024
70.4407
72.5171
74.6042
76.4912
78.4489
80.5158
82.6608
84.8625
87.1352
89.4359
91.7067
93.8385
95.6141
96.671
58.2218
42.5795
33.9982
35.693
42.8984
48.6169
54.5723
58.8463
62.8604
65.9148
68.4529
70.8375
72.7677
74.7693
76.7273
78.6912
80.739
82.8878
85.0826
87.3018
89.4891
91.5468
93.2593
94.2716
59.8913
41.8551
31.3331
30.6491
36.6846
45.476
51.0416
56.6116
60.3901
63.795
66.6648
68.8494
71.0774
72.9723
74.8944
76.9075
78.9572
81.0219
83.138
85.2695
87.3715
89.3453
90.99
91.958
53.2534
40.3267
27.8139
23.6916
32.6579
38.6785
47.5036
52.6869
57.8351
61.4648
64.3223
67.0527
69.072
71.1699
73.1416
75.034
76.9752
78.9998
81.0437
83.0983
85.1189
87.0227
88.6073
89.5304
35.9844
34.9417
24.7207
5.84513
11.2998
34.3445
41.2268
49.8033
54.5158
58.8153
62.3318
64.7386
67.2612
69.2283
71.1698
73.1803
75.1701
77.1133
79.0814
81.0476
82.9832
84.8008
86.3156
87.194
13.9542
17.1547
11.6919
6.51516
3.13513
23.0037
35.0693
42.6191
50.9446
55.8114
59.3211
62.7185
64.922
67.2474
69.3052
71.1587
73.0094
74.928
76.8287
78.7215
80.5758
82.3272
83.7844
84.6161
6.03034
12.3949
14.6562
16.5648
4.05428
3.55562
9.26693
38.6183
45.502
52.0862
56.9529
59.7812
62.8805
64.9961
67.038
69.1189
71.1011
72.9362
74.7616
76.5608
78.3278
79.9853
81.3683
82.154
11.6057
8.71537
9.90178
11.0373
19.5624
19.3148
5.36842
11.1434
39.6103
47.544
52.5854
57.3715
59.8981
62.6985
64.9468
66.7984
68.5661
70.4003
72.1618
73.8901
75.5722
77.1679
78.4952
79.2297
9.31359
11.6836
8.94213
9.19898
15.0338
22.1912
11.7896
11.7662
23.8811
41.2194
49.4604
53.1412
57.4685
59.8307
62.1074
64.3815
66.4455
68.1842
69.8674
71.4899
73.0784
74.5647
75.8086
76.4946
10.9258
19.4784
21.6261
16.119
24.1346
8.78357
23.7121
22.328
16.4457
30.8234
41.6978
50.0836
53.1386
56.9684
59.6138
61.5092
63.1837
64.9629
66.5856
68.1404
69.6365
71.0689
72.2603
72.8855
11.6715
21.7489
26.784
29.7877
25.9705
26.2501
12.9964
6.96188
13.7906
20.5279
36.7309
42.4492
50.0799
52.8889
55.6309
58.3578
60.6875
62.3505
63.8878
65.3129
66.7041
67.9979
69.0893
69.6649
11.571
21.4516
27.4519
30.8787
32.3901
27.962
10.1921
22.7783
18.0204
15.7007
11.0202
38.5814
42.2941
48.7401
52.4179
54.4258
55.9617
57.7356
59.2237
60.5909
61.8815
63.1436
64.1942
64.6868
11.7477
19.1903
25.862
30.8568
33.2318
33.3905
27.6255
12.0401
24.8658
9.0719
23.2595
11.8978
38.3944
42.2346
45.8104
49.7376
52.81
54.4685
55.8558
57.052
58.2141
59.2803
60.2005
60.6557
10.5562
16.9982
23.5293
28.3698
31.8597
33.1842
32.8181
24.9729
24.1019
29.3207
18.0943
23.157
10.3395
33.4297
41.0824
43.3514
44.5297
46.4598
47.8689
49.032
50.1158
51.2367
52.1741
52.4623
6.90815
15.3293
21.3494
26.0503
29.4631
31.6845
31.9777
32.0355
21.8763
27.4744
16.1976
24.8827
13.6974
17.4432
25.6993
33.9998
40.3987
42.2242
43.4484
44.3997
45.2614
45.9456
46.6617
47.1326
6.87741
13.2571
18.1193
22.3299
25.9195
28.4782
30.2449
30.3621
31.742
19.1979
26.1238
20.7574
17.0502
25.3753
26.12
25.2497
12.9435
19.098
21.028
22.4993
23.3399
26.3053
27.5927
26.1007
3.79958
11.7223
14.7097
17.9299
21.2502
24.2618
26.5595
28.933
29.4327
31.9333
11.6379
14.3486
21.1043
18.1222
6.18126
8.36179
19.6752
5.78338
22.2471
9.86629
23.7478
30.9412
31.6538
13.1736
4.81658
11.5273
12.4049
13.8105
16.3852
19.3504
22.4644
25.1233
28.4143
29.204
31.9564
22.0372
28.5489
27.4579
25.8895
25.821
6.48658
20.5801
29.8142
21.7661
30.3182
6.34336
11.6286
24.8754
3.63791
11.7103
11.8577
12.3683
13.8525
16.0966
18.6984
21.9135
24.6432
28.4751
29.5021
28.7669
13.5958
21.6965
14.1454
27.924
16.2922
23.9131
16.8904
25.8743
30.808
18.4961
2.92009
5.25279
3.35688
11.3546
11.8657
12.2314
13.6874
15.4063
17.3011
19.2832
22.1928
24.7102
28.7451
30.6937
29.5218
11.6127
9.34132
19.6479
26.6525
32.5956
21.7935
23.8674
19.2808
3.90537
31.9478
18.5521
3.15816
11.564
11.5061
12.511
14.2417
16.0521
17.6006
19.0731
20.3328
22.742
25.1378
28.8078
30.8718
31.5325
20.1932
28.6979
32.5269
28.2464
32.3742
25.6191
1.27394
7.39637
13.9576
8.86802
3.10199
11.5022
11.6334
13.229
15.1395
16.8822
18.4058
19.5858
20.6942
21.3883
23.3323
25.9785
29.3572
30.593
31.5675
27.6751
22.6631
17.1137
14.9649
13.9562
13.5437
12.773
12.2224
12.6597
3.15498
11.2282
12.5442
14.5235
16.442
18.1386
19.5331
20.6617
21.3932
22.1164
22.438
23.8906
26.6381
29.9558
30.5831
30.5734
30.5588
30.4055
30.4143
30.2376
30.3857
30.5074
30.6333
30.7383
3.36377
11.4639
13.7908
16.041
17.8982
19.4904
20.8456
21.8961
22.6953
23.0291
23.3607
23.5511
24.7404
27.0501
29.7216
30.3271
29.7513
28.525
27.4221
26.718
26.2362
26.1068
26.1572
26.2914
3.96797
12.0765
15.5235
17.7447
19.4631
21.0003
22.3109
23.3649
24.0806
24.5503
24.5535
24.4802
24.5393
25.643
27.2294
28.6175
29.1244
28.7813
28.1497
27.5461
27.2855
27.3142
27.5118
27.6782
5.71566
14.4675
17.4179
19.3469
20.9929
22.5073
23.8308
24.9062
25.7125
26.1199
26.2482
26.0023
25.6639
25.5091
26.31
27.2126
27.548
26.9922
26.0153
25.1926
24.758
24.7595
24.9779
25.2294
7.64247
16.007
18.909
20.8298
22.4925
24.0352
25.3939
26.5318
27.381
27.9268
28.041
27.8197
27.3174
26.8329
26.4725
26.638
26.8711
26.6327
26.0373
25.479
25.3008
25.4963
25.8609
26.1999
9.87231
17.7012
20.3808
22.2207
23.9246
25.5237
26.9551
28.1757
29.1387
29.7491
30.0069
29.8446
29.3332
28.567
27.9017
27.3657
26.9688
26.4275
25.7137
25.1599
25.0129
25.2814
25.7241
26.1295
11.4012
18.9598
21.5725
23.4983
25.3071
26.9962
28.5196
29.8415
30.8981
31.6454
31.9975
31.9514
31.4983
30.7365
29.7432
28.8085
28.0175
27.2919
26.6203
26.1892
26.1986
26.596
27.1382
27.6038
12.0108
14.5266
16.0508
17.4356
18.1806
18.5031
18.3203
17.8165
17.0451
16.146
15.1814
14.238
13.3598
12.5924
11.9834
11.5961
11.51
10.9069
10.4145
10.1946
10.1879
10.3939
10.8558
11.5031
11.525
11.9171
12.5154
13.2652
14.1231
15.0455
15.9897
16.8694
17.6261
18.1198
18.3041
17.989
17.2672
15.9011
14.415
11.8925
20.038
20.7196
21.0834
21.312
21.3573
21.3069
21.1852
21.0269
20.8625
20.6978
20.5487
20.4088
20.2885
20.1797
20.0881
20.0084
19.9465
19.8991
19.8688
19.8506
19.8483
19.8603
19.8846
19.9263
19.9824
20.0567
20.1432
20.2468
20.3621
20.4967
20.6405
20.7996
20.958
21.1109
21.2278
21.275
21.2288
21.0008
20.6422
19.9635
22.4685
22.8044
23.0588
23.2005
23.298
23.3323
23.348
23.3266
23.2997
23.2564
23.218
23.1744
23.139
23.105
23.0784
23.0545
23.0365
23.0233
23.0133
23.005
23.0027
23.0044
23.0079
23.0149
23.0269
23.0451
23.0662
23.0951
23.1256
23.1649
23.1994
23.2393
23.2633
23.283
23.2655
23.2309
23.1327
22.9928
22.7394
22.4087
24.4186
24.7387
25.0538
25.2477
25.4338
25.5476
25.6618
25.7366
25.8142
25.8712
25.9344
25.9895
26.0502
26.1078
26.1665
26.2203
26.2686
26.3077
26.3338
26.343
26.3403
26.324
26.2912
26.2458
26.1912
26.1315
26.0671
26.0041
25.9383
25.8787
25.8113
25.7509
25.6703
25.5936
25.4775
25.3636
25.1774
24.9855
24.6719
24.3571
26.3077
26.6367
27.0114
27.2497
27.5146
27.703
27.9092
28.0736
28.251
28.4074
28.5739
28.7315
28.8938
29.0499
29.2015
29.3403
29.4626
29.5603
29.627
29.6558
29.6528
29.6165
29.5431
29.4387
29.3103
29.1654
29.008
28.8467
28.6792
28.517
28.3464
28.1863
28.0059
27.8394
27.6314
27.4424
27.177
26.9398
26.5665
26.242
28.077
28.4151
28.8523
29.1369
29.4772
29.7334
30.0229
30.2695
30.5364
30.7835
31.0427
31.2927
31.5456
31.7885
32.0213
32.2334
32.418
32.5646
32.6641
32.708
32.7049
32.6534
32.547
32.3937
32.2029
31.9847
31.746
31.4976
31.2396
30.9851
30.7218
30.4713
30.2015
29.9528
29.6616
29.4046
29.064
28.7801
28.3441
28.0104
29.6865
30.0375
30.5398
30.8648
31.2719
31.5874
31.9477
32.2645
32.606
32.9289
33.2638
33.589
33.9141
34.2254
34.5206
34.7878
35.018
35.1995
35.3218
35.3756
35.3726
35.3112
35.1819
34.9936
34.757
34.4837
34.1827
33.8659
33.5358
33.206
32.867
32.5408
32.1966
31.8777
31.5158
31.1997
30.7923
30.4684
29.9671
29.6206
31.0954
31.4623
32.0232
32.3857
32.8488
33.2155
33.6332
34.0079
34.4082
34.7905
35.1831
35.5644
35.9417
36.3011
36.6386
36.9418
37.2005
37.4029
37.538
37.5968
37.5938
37.5275
37.3853
37.1763
36.9111
36.6018
36.2585
35.8936
35.5112
35.1255
34.729
34.3434
33.9403
33.5637
33.1445
32.7775
32.3141
31.9527
31.3929
31.0308
32.2503
32.6332
33.254
33.6513
34.1651
34.5761
35.0419
35.4636
35.9102
36.3376
36.7723
37.1928
37.6048
37.9945
38.3567
38.6792
38.952
39.1633
39.3032
39.3631
39.3602
39.2929
39.1462
38.9281
38.6488
38.3202
37.9521
37.557
37.14
36.7151
36.2766
35.846
35.3967
34.9732
34.5059
34.0946
33.5807
33.1847
32.5648
32.1869
33.0837
33.5103
34.1862
34.6286
35.1886
35.6446
36.1526
36.6161
37.1004
37.5637
38.0295
38.4777
38.912
39.3195
39.6945
40.0254
40.3027
40.5157
40.6553
40.714
40.7112
40.6452
40.4988
40.2791
39.9954
39.6584
39.2775
38.8647
38.4254
37.973
37.5033
37.0371
36.5501
36.0849
35.5755
35.1194
34.559
34.118
33.4423
33.0215
33.5677
34.0446
34.7977
35.2904
35.9053
36.4077
36.9593
37.4624
37.9816
38.4758
38.9671
39.4362
39.886
40.3044
40.6856
41.019
41.2959
41.5069
41.6441
41.7011
41.6983
41.6343
41.4903
41.2727
40.9893
40.6499
40.263
39.8395
39.3848
38.9116
38.4165
37.9192
37.3975
36.8927
36.3398
35.8369
35.222
34.73
33.9777
33.5055
33.6474
34.2102
35.058
35.6197
36.2989
36.8555
37.4552
38.0001
38.5549
39.079
39.5941
40.0816
40.5443
40.9705
41.3553
41.6891
41.9641
42.1724
42.3069
42.3623
42.3596
42.2973
42.156
41.9414
41.66
41.3203
40.9299
40.4985
40.0312
39.5396
39.0209
38.4937
37.9365
37.3899
36.7888
36.2315
35.5523
34.9911
34.1443
33.5853
33.3093
33.9697
34.9303
35.5871
36.3429
36.9662
37.6207
38.2132
38.8067
39.3631
39.9033
40.4098
40.8854
41.3199
41.7086
42.0432
42.3171
42.5234
42.6562
42.7107
42.7081
42.6468
42.5075
42.295
42.0149
41.6745
41.2804
40.8409
40.3606
39.8501
39.3064
38.747
38.151
37.5566
36.9007
36.2769
35.5207
34.8647
33.9043
33.2487
32.5599
33.3192
34.3719
35.1485
35.9951
36.7019
37.4188
38.0684
38.7058
39.3001
39.8689
40.3981
40.8898
41.3353
41.7306
42.0686
42.3437
42.5501
42.6828
42.7376
42.7352
42.6738
42.5349
42.3224
42.0414
41.6977
41.2972
40.8468
40.3506
39.8174
39.245
38.6477
38.0077
37.3562
36.638
35.9305
35.0842
34.3082
33.2568
32.5003
31.5339
32.2728
33.404
34.2671
35.2169
36.0183
36.8102
37.5245
38.2144
38.8532
39.4574
40.015
40.5284
40.9901
41.3967
41.7426
42.0228
42.2325
42.3676
42.4244
42.4222
42.3591
42.2182
42.0028
41.717
41.3658
40.9541
40.4878
39.97
39.4084
38.8007
38.1588
37.4665
36.7503
35.9573
35.156
34.2068
33.3452
32.2155
31.4808
30.3436
30.9818
32.0938
33.0001
34.0187
34.9089
35.7824
36.5666
37.3148
38.0043
38.6504
39.2432
39.7847
40.2688
40.6928
41.0518
41.3419
41.5588
41.6991
41.7599
41.7578
41.6914
41.5459
41.3238
41.0287
40.6648
40.2362
39.7477
39.2021
38.6056
37.9562
37.2639
36.5136
35.728
34.8548
33.9656
32.9489
32.0451
30.9363
30.3025
29.1705
29.6252
30.6198
31.4991
32.5284
33.4708
34.4063
35.2555
36.0585
36.7984
37.4877
38.1184
38.6917
39.2025
39.6482
40.0246
40.3284
40.5559
40.7042
40.7709
40.7689
40.6976
40.5449
40.3132
40.0052
39.6247
39.1751
38.6605
38.0838
37.45
36.7581
36.0162
35.2121
34.3636
33.4301
32.49
31.4643
30.5886
29.5989
29.1477
28.1004
28.3791
29.2097
30.0093
30.9922
31.9364
32.8938
33.7828
34.6221
35.3989
36.1218
36.7838
37.3846
37.9194
38.3856
38.7792
39.097
39.3359
39.4931
39.567
39.5653
39.4882
39.3278
39.0861
38.7654
38.369
37.9001
37.3627
36.7596
36.0956
35.3711
34.5936
33.755
32.8686
31.9153
30.9758
29.998
29.204
28.3771
28.1037
27.218
27.4073
28.1011
28.8175
29.7282
30.6372
31.5762
32.4664
33.3117
34.1001
34.8359
35.5116
36.1256
36.6729
37.1502
37.5538
37.8803
38.1269
38.2914
38.3721
38.3706
38.2884
38.1229
37.875
37.5474
37.1427
36.6643
36.116
35.5013
34.825
34.0894
33.302
32.459
31.5735
30.6406
29.7377
28.8336
28.1226
27.4324
27.245
26.7097
26.894
27.512
28.1744
29.0186
29.8787
30.7738
31.6335
32.4565
33.2295
33.9537
34.6208
35.2281
35.7704
36.244
36.6453
36.9709
37.2182
37.3849
37.4701
37.4689
37.3841
37.2183
36.9719
36.6471
36.2467
35.7737
35.2323
34.6259
33.9599
33.2375
32.467
31.6479
30.7947
29.9067
29.0541
28.2156
27.5598
26.942
26.7616
26.7224
26.9404
27.533
28.17
28.9674
29.7808
30.6247
31.4374
32.2211
32.9608
33.6553
34.2965
34.8807
35.4031
35.8599
36.2473
36.5625
36.803
36.9666
37.0528
37.0517
36.9676
36.8065
36.5687
36.2558
35.8705
35.4159
34.8958
34.3136
33.6747
32.9829
32.2465
31.4673
30.6614
29.8246
29.0182
28.2258
27.5937
27.0008
26.7824
27.159
27.4176
28.0142
28.6435
29.4136
30.191
30.99
31.7568
32.4993
33.2019
33.8619
34.4715
35.027
35.5238
35.9583
36.3271
36.6275
36.857
37.0141
37.0982
37.0973
37.0163
36.8628
36.6367
36.3397
35.974
35.5424
35.0484
34.4957
33.8887
33.2314
32.532
31.793
31.0311
30.2387
29.4687
28.7043
28.0807
27.4849
27.2283
27.766
28.0531
28.6637
29.2911
30.0461
30.7978
31.565
32.3017
33.0154
33.6897
34.3227
34.9068
35.4388
35.9141
36.3297
36.6823
36.9695
37.189
37.3393
37.42
37.4193
37.342
37.1956
36.9799
36.6964
36.3471
35.9346
35.4622
34.9328
34.3512
33.7207
33.0489
32.3384
31.6053
30.8438
30.0977
29.3476
28.7233
28.1146
27.8251
28.2682
28.5735
29.1953
29.8223
30.5701
31.3067
32.0559
32.7754
33.4726
34.1309
34.7486
35.3183
35.8368
36.3
36.7047
37.048
37.3274
37.5409
37.6869
37.7648
37.7641
37.6896
37.5476
37.338
37.0623
36.7223
36.3208
35.8605
35.3447
34.7775
34.1624
33.5068
32.8127
32.0972
31.3541
30.6234
29.8808
29.258
28.6377
28.3329
73.1246
51.1106
54.0274
62.3404
68.7518
73.8539
77.9611
81.4175
84.4897
87.2719
89.9036
92.4331
94.9444
97.5549
100.297
103.211
106.3
109.548
112.915
116.341
119.719
122.878
125.504
127.108
71.3205
50.2205
52.5931
60.6639
67.0261
72.1173
76.2091
79.6658
82.6836
85.4439
87.988
90.4263
92.8674
95.3641
98.0133
100.828
103.81
106.943
110.195
113.503
116.765
119.817
122.355
123.904
71.6474
50.0868
51.1616
59.0113
65.2963
70.3362
74.4448
77.8961
80.9453
83.6157
86.1067
88.4795
90.8083
93.2353
95.7797
98.4859
101.359
104.382
107.519
110.712
113.86
116.807
119.258
120.752
71.7309
49.6141
49.7403
57.2607
63.5163
68.5964
72.7171
76.2078
79.1822
81.8603
84.278
86.5576
88.8377
91.1494
93.6088
96.2257
98.9982
101.911
104.935
108.014
111.051
113.894
116.259
117.699
61.7944
48.6379
48.2523
55.5472
61.7644
66.8007
70.9743
74.449
77.506
80.1068
82.4833
84.7274
86.8923
89.1556
91.5184
94.0307
96.7003
99.5131
102.431
105.4
108.33
111.074
113.357
114.745
75.8611
48.1803
46.7973
53.6948
59.8956
65.0367
69.2342
72.8103
75.7666
78.4138
80.7496
82.9
85.0502
87.1993
89.4898
91.9282
94.5102
97.2189
100.032
102.895
105.721
108.367
110.569
111.907
66.0929
47.9652
45.32
51.8649
58.0845
63.1709
67.4725
70.9986
74.1143
76.699
79.0148
81.1778
83.2101
85.3398
87.5453
89.8837
92.369
94.9892
97.7038
100.466
103.193
105.747
107.873
109.162
76.9723
47.4991
43.7068
49.8224
56.0201
61.3196
65.642
69.3713
72.353
75.021
77.3432
79.4129
81.4803
83.4967
85.6453
87.9299
90.3422
92.8654
95.4841
98.1475
100.776
103.24
105.291
106.532
65.0867
46.6815
42.1951
47.7428
54.0635
59.2639
63.7847
67.4124
70.667
73.2995
75.6102
77.7615
79.7087
81.7461
83.825
86.0125
88.3327
90.7788
93.3074
95.8777
98.4147
100.794
102.775
103.97
63.2477
45.6527
40.3216
45.3356
51.5621
57.202
61.7422
65.7417
68.8153
71.5755
73.9561
75.9969
78.0428
79.9667
82.008
84.1683
86.4346
88.7889
91.2283
93.7059
96.1507
98.4448
100.355
101.503
55.6812
44.9686
38.5923
42.6983
49.2954
54.729
59.6505
63.4752
67.0073
69.7819
72.1535
74.3692
76.2747
78.2716
80.261
82.3228
84.4969
86.7866
89.1427
91.5326
93.8912
96.1059
97.9501
99.0529
60.5325
43.4655
36.4613
39.5984
45.8184
52.206
57.1605
61.684
64.9576
67.9208
70.4633
72.5323
74.6263
76.499
78.468
80.5358
82.6806
84.8813
87.1532
89.4543
91.7242
93.8561
95.6309
96.6884
55.7507
42.6375
34.0459
35.6837
42.9067
48.8084
54.6213
58.8105
62.8854
65.9579
68.4869
70.8759
72.7917
74.8088
76.7504
78.7115
80.7573
82.9076
85.103
87.3216
89.5089
91.5653
93.2779
94.2912
51.9419
40.8276
31.2559
30.9189
36.8645
45.3005
51.0519
56.7501
60.4459
63.8148
66.6865
68.8598
71.1035
72.9752
74.9143
76.9288
78.9812
81.0428
83.1578
85.2903
87.3907
89.3653
91.0088
91.9774
52.7735
40.2392
27.7908
23.3604
32.677
39.2542
47.7071
52.6415
57.8591
61.5242
64.3707
67.1076
69.0991
71.221
73.1693
75.0579
76.9927
79.0222
81.0674
83.1208
85.1422
87.0442
88.6285
89.5529
36.7161
35.3756
25.2255
8.86375
12.6672
33.6446
41.0638
49.9614
54.5976
58.8316
62.3504
64.7394
67.2928
69.2261
71.1905
73.2035
75.2011
77.1371
79.1035
81.0716
83.0045
84.8236
86.337
87.2166
6.61236
17.5681
11.1016
16.2324
17.0571
6.21871
35.6447
42.709
50.9924
55.9103
59.395
62.8015
64.954
67.311
69.3393
71.186
73.0249
74.9541
76.8574
78.7482
80.6039
82.3525
83.8096
84.6433
6.1633
5.19749
8.67412
16.7358
17.5503
18.3255
7.30531
38.3598
45.5924
52.0864
56.9631
59.7619
62.9184
64.9933
67.0603
69.1477
71.1427
72.9641
74.7868
76.5897
78.3523
80.0124
81.3931
82.1805
4.47066
9.71418
2.22828
10.6942
8.98593
6.70647
7.79476
18.0198
39.8663
47.7079
52.7062
57.5065
59.942
62.7711
64.9889
66.8265
68.5781
70.4319
72.1983
73.923
75.6073
77.1986
78.5263
79.2639
3.2195
11.1568
16.0292
8.92814
16.0285
22.0629
21.3646
21.8217
24.1427
41.2998
49.4752
53.089
57.5101
59.8361
62.1337
64.4237
66.504
68.2181
69.8965
71.5259
73.1082
74.5984
75.8381
76.5269
10.9082
19.5176
21.7388
15.7509
16.5456
10.399
18.0546
22.7918
16.0789
31.3493
41.9045
50.2761
53.2086
57.0592
59.6658
61.5314
63.1858
65.0035
66.6357
68.1833
69.6819
71.1079
72.301
72.9312
11.7304
21.8184
26.7818
29.7894
24.9869
21.6903
13.1138
6.58524
16.0516
10.4797
36.6826
42.5047
50.1359
52.8566
55.664
58.4331
60.7834
62.3935
63.9215
65.36
66.7429
68.0418
69.1256
69.7047
11.5284
21.5493
27.5624
30.9524
32.4975
27.5819
12.6921
16.5365
7.99386
22.2556
11.2176
38.3368
42.402
49.059
52.4941
54.413
55.9217
57.7929
59.3004
60.6527
61.9433
63.1964
64.2514
64.7554
11.2889
19.3241
26.0136
30.9971
33.3158
33.4919
27.1502
17.2202
17.6097
25.1938
14.7984
16.1254
38.4013
41.5147
45.8219
49.9281
53.02
54.5259
55.8959
57.1145
58.2686
59.3412
60.2478
60.7003
10.8556
17.1237
23.6528
28.498
31.9908
33.2559
32.9544
24.5827
31.2681
17.3196
8.99535
15.2031
13.3123
36.1168
41.334
43.1735
44.3225
46.5665
48.0021
49.1598
50.2178
51.3225
52.2578
52.6062
6.89552
15.4054
21.4634
26.174
29.5764
31.8089
32.0394
32.1432
22.8104
13.8342
10.2104
17.8875
14.0142
27.4176
24.6106
34.5403
40.9099
42.2797
43.5274
44.3742
45.3351
46.0319
46.8274
47.1254
7.0668
13.3096
18.2107
22.4426
26.0376
28.5772
30.3706
30.48
31.8106
18.6528
9.88631
9.14755
18.6179
14.8764
20.3098
25.79
12.2243
19.3162
21.8199
24.225
23.7289
26.6151
26.2951
26.3991
3.46068
11.7713
14.7672
18.0292
21.3615
24.3851
26.6692
29.0461
29.5548
32.044
12.2935
28.1601
15.3812
10.2209
3.26212
27.8945
19.092
21.0429
9.18905
29.5704
23.6501
31.3722
24.9904
25.3706
5.0166
12.2094
12.4936
13.8805
16.4773
19.4551
22.5944
25.2671
28.5488
29.3265
32.0931
14.4272
12.4598
26.4813
20.0608
21.3278
9.69354
29.6949
23.0869
7.97829
30.912
12.0317
31.3307
32.9467
3.59101
12.0004
11.8736
12.4219
13.9203
16.1905
18.8083
22.0372
24.7846
28.6001
29.6612
29.3866
13.6774
2.04494
23.6798
17.8452
4.55789
24.7801
16.7211
27.1972
17.6029
5.18452
4.60105
24.9213
3.33109
11.2789
11.5308
12.2463
13.7352
15.4623
17.38
19.3934
22.3181
24.8515
28.8019
30.8806
29.0417
20.3028
26.5415
30.7222
23.3089
23.5452
28.4664
22.93
22.6852
3.15008
11.305
33.2577
3.14146
11.5091
11.7667
12.5587
14.2897
16.107
17.6568
19.1372
20.4252
22.8515
25.2908
28.7893
31.1475
29.7503
19.638
25.1072
16.5897
20.1147
28.6785
11.7783
32.9275
6.84751
7.2073
5.57213
3.07965
11.4757
11.6262
13.2671
15.1833
16.9297
18.4595
19.6465
20.7601
21.473
23.4184
26.1206
29.4593
31.1244
31.7364
27.0866
21.5526
16.2484
14.4478
12.6232
14.153
12.783
12.6943
12.9703
3.15962
11.593
12.5923
14.559
16.4816
18.1827
19.579
20.7101
21.4489
22.179
22.5196
23.9799
26.7153
30.0167
30.6854
30.7545
30.7187
30.519
30.4889
30.5033
30.497
30.6092
30.6819
30.8476
3.33626
11.7969
13.8253
16.074
17.9348
19.5321
20.8914
21.9452
22.747
23.0852
23.4189
23.6154
24.8637
27.1268
29.7947
30.3873
29.8108
28.6197
27.5124
26.7438
26.366
26.1785
26.252
26.3919
3.99421
12.1186
15.55
17.7726
19.4998
21.0426
22.3552
23.4106
24.1293
24.6032
24.6123
24.5439
24.5841
25.749
27.3081
28.6844
29.1917
28.8751
28.2436
27.6497
27.3942
27.3908
27.5489
27.738
5.7473
14.5041
17.4511
19.3817
21.0342
22.553
23.8785
24.9548
25.7621
26.171
26.3012
26.0586
25.7314
25.5514
26.3574
27.2542
27.5935
27.0358
26.0587
25.2074
24.7875
24.7604
24.995
25.2437
7.67798
16.05
18.9463
20.8695
22.5389
24.0852
25.4447
26.5826
27.4323
27.9799
28.0959
27.8751
27.3718
26.8921
26.5197
26.6729
26.8948
26.6596
26.0534
25.4874
25.303
25.4805
25.8384
26.1747
9.90204
17.7492
20.4246
22.2679
23.9778
25.5796
27.0111
28.2312
29.1937
29.8039
30.0629
29.9024
29.3903
28.6212
27.9488
27.3991
26.9888
26.4278
25.6999
25.123
24.9752
25.2281
25.6838
26.0821
11.3579
19.0223
21.628
23.5544
25.3671
27.0577
28.5804
29.9014
30.9573
31.7046
32.0563
32.01
31.5576
30.7921
29.7927
28.8443
28.0343
27.2919
26.5994
26.1524
26.1527
26.5399
27.0865
27.5484
70.4471
69.5545
72.9367
61.4988
76.3484
66.1314
65.6302
64.114
51.9906
30.9817
47.1308
11.938
14.6013
19.3181
12.7722
16.9232
13.2242
14.4848
13.643
13.5648
13.5592
13.6964
14.2741
13.4011
18.1303
3.4286
25.1279
20.4317
49.0737
42.8001
62.2558
57.5304
71.2131
60.9102
58.3675
62.4146
66.7862
58.1874
77.0042
84.5363
50.1239
48.3089
46.8525
45.1727
43.5502
41.13
39.7769
37.71
36.3948
34.9166
34.6333
33.4977
33.3132
32.1858
32.0751
31.3188
31.1652
30.7435
30.5888
30.4605
30.4605
30.5821
30.7659
31.1435
31.2492
32.2342
32.2167
33.0216
33.8379
34.4765
35.7893
37.2018
38.4358
40.4562
41.1775
43.5324
44.894
46.8147
48.0407
50.5107
54.5443
52.9918
52.4936
51.0207
50.4456
49.1245
48.536
47.3806
46.7731
45.7574
45.0636
44.2748
43.6837
43.1024
42.5812
42.1763
41.8023
41.5598
41.362
41.2606
41.2601
41.3633
41.553
41.8031
42.1877
42.5742
43.0782
43.7323
44.2389
45.0532
45.678
46.6871
47.319
48.4791
49.0942
50.4412
51.0111
52.5003
52.9753
54.5564
62.9823
61.4714
60.9367
59.4844
58.8218
57.4911
56.7769
55.6097
54.8941
53.9158
53.2256
52.4276
51.828
51.2063
50.7229
50.2771
49.9393
49.6636
49.4823
49.3787
49.3784
49.481
49.6644
49.9365
50.2739
50.7207
51.2137
51.8185
52.4152
53.2164
53.9038
54.8868
55.6004
56.7721
57.4879
58.8205
59.4771
60.9302
61.4594
62.9744
69.3917
67.8269
67.2176
65.7398
65.0108
63.6794
62.8968
61.7429
60.9591
59.991
59.2486
58.4629
57.8196
57.2094
56.6955
56.2552
55.8988
55.6294
55.4406
55.3389
55.3386
55.4401
55.6273
55.8974
56.2541
56.6939
57.2034
57.8153
58.4569
59.2398
59.9784
60.9463
61.7321
62.8866
63.6693
65.002
65.728
67.208
67.8123
69.3823
74.4796
72.8736
72.1896
70.7015
69.8997
68.5793
67.7284
66.5911
65.7525
64.7948
64.0219
63.2354
62.5744
61.9556
61.4365
60.9874
60.6289
60.352
60.1639
60.0613
60.061
60.1628
60.3511
60.6269
60.9848
61.4331
61.9528
62.5699
63.2283
64.0141
64.7866
65.7439
66.5828
67.7196
68.5713
69.8908
70.6919
72.1789
72.8612
74.4678
78.5429
76.9191
76.1591
74.6786
73.8122
72.5088
71.6071
70.4821
69.6099
68.6556
67.864
67.0759
66.4038
65.7826
65.2554
64.8041
64.4406
64.163
63.9721
63.8697
63.8693
63.9713
64.1613
64.4387
64.8018
65.2526
65.7785
66.3988
67.0704
67.8576
68.6482
69.602
70.474
71.5986
72.5
73.8026
74.6683
76.1477
76.9072
78.5298
81.9689
80.3315
79.5149
78.0411
77.1289
75.8336
74.8993
73.7763
72.8828
71.9258
71.1206
70.328
69.646
69.0197
68.4865
68.0302
67.6624
67.3804
67.1875
67.0829
67.0826
67.1865
67.3792
67.6605
68.0275
68.4831
69.0159
69.6416
70.3226
71.1144
71.919
72.8755
73.7685
74.8909
75.8246
77.1192
78.0307
79.5039
80.3193
81.9559
85.0076
83.3553
82.4982
81.019
80.0782
78.7781
77.8232
76.6942
75.7849
74.8212
74.0033
73.204
72.5121
71.8792
71.3382
70.876
70.5024
70.216
70.0185
69.9108
69.9105
70.0176
70.2144
70.5004
70.8734
71.335
71.8753
72.5075
73.1987
73.9974
74.8147
75.7776
76.6864
77.8147
78.7691
80.0683
81.0084
82.4869
83.3429
84.9947
87.8328
86.1179
85.2601
83.7481
82.7967
81.4784
80.5087
79.3676
78.4427
77.4693
76.6376
75.8291
75.126
74.4845
73.9347
73.4651
73.0847
72.7923
72.59
72.4778
72.4775
72.5889
72.7907
73.0827
73.4625
73.9314
74.4806
75.1215
75.8239
76.6317
77.4628
78.4354
79.3598
80.5
81.4693
82.7866
83.7375
85.2484
86.1055
87.8193
90.4845
88.73
87.8545
86.3208
85.3482
84.0154
83.0249
81.8713
80.9283
79.9428
79.0958
78.2758
77.5603
76.9085
76.349
75.8709
75.4828
75.1838
74.9756
74.8585
74.8581
74.9746
75.1821
75.4806
75.8681
76.3456
76.9046
77.5557
78.2706
79.09
79.9362
80.921
81.8634
83.0162
84.0061
85.3378
86.3101
87.8425
88.7176
90.4703
93.0549
91.2416
90.3675
88.7943
87.8134
86.4532
85.4494
84.2754
83.3174
82.3156
81.4542
80.6207
79.8925
79.2297
78.6597
78.1727
77.7766
77.4708
77.2567
77.1343
77.1339
77.2557
77.4692
77.7744
78.1699
78.6563
79.2257
79.8879
80.6155
81.4483
82.309
83.3101
84.2674
85.4406
86.4437
87.803
88.7832
90.3557
91.2287
93.0412
95.6316
93.7446
92.8815
91.263
90.2753
88.8868
87.8678
86.6739
85.6986
84.681
83.8035
82.9566
82.2149
81.5407
80.9599
80.4638
80.0597
79.747
79.5271
79.3993
79.3989
79.526
79.7454
80.0575
80.461
80.9565
81.5367
82.2102
82.9514
83.7975
84.6744
85.6912
86.6659
87.8589
88.8773
90.2648
91.252
92.8694
93.7319
95.6174
98.2812
96.3406
95.4723
93.8183
92.8148
91.4014
90.3629
89.1492
88.1547
87.1202
86.2256
85.3641
84.6082
83.9217
83.3298
82.8241
82.4117
82.092
81.8662
81.7333
81.7329
81.8651
82.0904
82.4094
82.8212
83.3263
83.9177
84.6035
85.3588
86.2196
87.1135
88.1473
89.1411
90.3541
91.3917
92.8044
93.8071
95.4603
96.3276
98.2672
101.085
99.0709
98.2092
96.5065
95.4934
94.0466
92.9908
91.7523
90.7381
89.6839
88.771
87.8932
87.1219
86.422
85.818
85.302
84.8808
84.5539
84.3221
84.1841
84.1837
84.321
84.5522
84.8785
85.299
85.8146
86.4181
87.1171
87.888
88.7653
89.6772
90.7309
91.7441
92.9817
94.0369
95.4831
96.4956
98.1977
99.0577
101.071
104.061
101.971
101.112
99.3599
98.3307
96.8511
95.7728
94.5086
93.4717
92.3963
91.4627
90.567
89.7781
89.064
88.4463
87.9191
87.4886
87.1538
86.9159
86.7731
86.7727
86.9151
87.1521
87.4862
87.9162
88.443
89.0598
89.7735
90.5615
91.4568
92.3894
93.4643
94.5007
95.7639
96.8417
98.3207
99.3488
101.099
101.959
104.047
107.209
105.044
104.181
102.38
101.331
99.8158
98.7122
97.4204
96.3582
95.259
94.3031
93.3875
92.5799
91.8491
91.2173
90.6782
90.2372
89.8945
89.6501
89.5021
89.5017
89.649
89.8929
90.2352
90.6754
91.2141
91.8455
92.5754
93.3821
94.2969
95.2523
96.3506
97.4123
98.7036
99.8067
101.321
102.369
104.169
105.031
107.195
110.515
108.273
107.404
105.552
104.48
102.928
101.796
100.475
99.385
98.2609
97.2806
96.3434
95.5159
94.7679
94.1207
93.5686
93.1169
92.7652
92.5143
92.3615
92.3611
92.5132
92.7637
93.1146
93.5659
94.1176
94.764
95.5116
96.3387
97.2746
98.2548
99.3777
100.468
101.788
102.919
104.47
105.541
107.392
108.261
110.502
113.945
111.623
110.746
108.842
107.745
106.156
104.993
103.642
102.522
101.372
100.366
99.4062
98.5574
97.791
97.1276
96.5615
96.0984
95.7382
95.4806
95.3227
95.3223
95.4795
95.7367
96.0965
96.5589
97.1242
97.7872
98.5528
99.4012
100.36
101.366
102.515
103.634
104.985
106.147
107.735
108.831
110.735
111.611
113.931
117.433
115.033
114.145
112.19
111.066
109.439
108.245
106.863
105.713
104.536
103.502
102.52
101.649
100.865
100.184
99.604
99.1296
98.7599
98.4956
98.3327
98.3323
98.4946
98.7585
99.1274
99.6015
100.181
100.861
101.645
102.515
103.497
104.529
105.706
106.855
108.237
109.43
111.056
112.179
114.133