/*--------------------------------*- C++ -*----------------------------------*\
  =========                 |
  \\      /  F ield         | OpenFOAM: The Open Source CFD Toolbox
   \\    /   O peration     | Website:  https://openfoam.org
    \\  /    A nd           | Version:  6
     \\/     M anipulation  |
\*---------------------------------------------------------------------------*/
FoamFile
{
    version     2.0;
    format      ascii;
    class       volScalarField;
    location    "0.4";
    object      yPlus;
}
// * * * * * * * * * * * * * * * * * * * * * * * * * * * * * * * * * * * * * //

dimensions      [0 0 0 0 0 0 0];

internalField   uniform 0;

boundaryField
{
    inlet
    {
        type            calculated;
        value           uniform 0;
    }
    outlet
    {
        type            calculated;
        value           uniform 0;
    }
    roughCylinder
    {
        type            calculated;
        value           nonuniform List<scalar> 
5120
(
35.0633
42.3847
47.4319
52.0877
55.9193
58.9964
61.5497
63.8652
66.0852
68.2445
70.3538
72.4166
74.4374
76.4251
78.3904
80.3444
82.2949
84.2481
86.2078
88.1771
90.1584
92.1529
94.1611
96.1835
98.2196
100.268
102.327
104.386
106.428
108.378
110.106
111.29
34.5706
41.6533
46.5608
51.1223
54.9165
57.9858
60.5314
62.8202
65.0128
67.1404
69.2141
71.2385
73.2191
75.1655
77.0892
79.0016
80.9107
82.8231
84.7429
86.6724
88.6136
90.5674
92.5349
94.5161
96.5105
98.5165
100.532
102.547
104.544
106.45
108.138
109.299
34.0399
40.924
45.7002
50.1626
53.911
56.9673
59.5092
61.777
63.944
66.04
68.0772
70.0622
72.0014
73.9047
75.7848
77.6537
79.5196
81.3898
83.2678
85.1558
87.0555
88.9674
90.8929
92.8317
94.7832
96.7454
98.7164
100.687
102.638
104.5
106.15
107.287
33.5251
40.2353
44.8891
49.2549
52.957
56.0002
58.5397
60.7876
62.9284
64.9925
66.9924
68.9376
70.8347
72.6947
74.5309
76.3562
78.1791
80.007
81.8438
83.6908
85.5494
87.4203
89.3044
91.2018
93.1112
95.0309
96.9584
98.8856
100.792
102.611
104.224
105.338
33.0401
39.5945
44.1317
48.4017
52.0555
55.0838
57.6209
59.8495
61.9648
63.997
65.9599
67.8649
69.7197
71.5362
73.3285
75.1102
76.8904
78.6767
80.4727
82.2795
84.098
85.9287
87.7728
89.6297
91.4984
93.3768
95.2625
97.1468
99.0115
100.788
102.365
103.457
32.5975
39.0104
43.4342
47.608
51.2109
54.2221
56.755
58.9648
61.0536
63.0541
64.9804
66.845
68.6574
70.4302
72.1787
73.9167
75.6544
77.3995
79.1553
80.9226
82.7018
84.4934
86.2983
88.1162
89.9453
91.7839
93.6292
95.4728
97.2959
99.0331
100.575
101.645
32.2049
38.4877
42.8001
46.8762
50.4244
53.4144
55.9392
58.1326
60.1963
62.1655
64.0559
65.88
67.6498
69.379
71.0835
72.7783
74.4737
76.1778
77.8938
79.6221
81.3628
83.1163
84.8833
86.6631
88.4539
90.2537
92.06
93.8644
95.6481
97.3468
98.8545
99.904
31.8676
38.0298
42.2313
46.2074
49.6969
52.662
55.1764
57.3561
59.3937
61.3326
63.1878
64.9719
66.6992
68.3849
70.0458
71.6975
73.3511
75.0146
76.6913
78.3811
80.084
81.8002
83.5302
85.2728
87.0266
88.7892
90.5579
92.3242
94.07
95.7315
97.2068
98.2358
31.5872
37.6364
41.7267
45.6001
49.0267
51.9628
54.4644
56.6324
58.6465
60.5556
62.377
64.1219
65.8073
67.4499
69.0677
70.6767
72.2888
73.9122
75.5499
77.2018
78.8675
80.5473
82.2412
83.9478
85.6654
87.3919
89.1242
90.8538
92.563
94.1887
95.632
96.6411
31.3618
37.3053
41.2834
45.0514
48.4108
51.3147
53.803
55.9626
57.9526
59.8351
61.6237
63.331
64.9752
66.5753
68.1505
69.7176
71.2889
72.8727
74.4719
76.0865
77.7158
79.3599
81.0184
82.6899
84.3726
86.0641
87.7614
89.4558
91.1294
92.7201
94.1329
95.1221
31.19
37.0334
40.8983
44.5576
47.8457
50.7143
53.189
55.3427
57.3136
59.1693
60.9271
62.599
64.2036
65.7624
67.296
68.8218
70.3526
71.8972
73.4584
75.0362
76.6298
78.239
79.863
81.5001
83.1488
84.8062
86.4694
88.1294
89.7691
91.3258
92.708
93.6775
31.0663
36.8155
40.5662
44.1141
47.327
50.1577
52.6194
54.7721
56.7226
58.5572
60.2875
61.9258
63.4925
65.0116
66.5047
67.9903
69.4817
70.9876
72.5112
74.0528
75.6113
77.1863
78.7765
80.3803
81.9957
83.6201
85.2501
86.8769
88.4828
90.0068
91.3592
92.3096
30.9866
36.6476
40.2832
43.7162
46.8501
49.6406
52.0901
54.2421
56.1825
57.9967
59.7013
61.3102
62.842
64.3228
65.777
67.2235
68.6761
70.1439
71.6305
73.1361
74.6598
76.201
77.7579
79.3289
80.9118
82.5038
84.1017
85.6961
87.2694
88.7609
90.0838
91.0147
30.9444
36.5223
40.0447
43.3602
46.4106
49.1579
51.5949
53.7469
55.6823
57.4823
59.1676
60.7493
62.2502
63.6963
65.1134
66.5221
67.9369
69.3672
70.8169
72.2871
73.7768
75.2847
76.8091
78.3479
79.8988
81.4589
83.0248
84.5871
86.1283
87.5875
88.8822
89.7946
30.9241
36.4299
39.8433
43.0405
46.0037
48.7043
51.128
53.2827
55.2241
57.0123
58.6804
60.2407
61.7134
63.128
64.5112
65.8844
67.2627
68.656
70.0693
71.5039
72.9591
74.4337
75.9255
77.4324
78.9519
80.4806
82.0151
83.5456
85.0545
86.4815
87.7474
88.6417
30.9235
36.3684
39.6753
42.7538
45.6257
48.2754
50.6842
52.844
54.7947
56.5772
58.2349
59.7793
61.2305
62.6173
63.9693
65.3091
66.6524
68.0099
69.3869
70.7861
72.2072
73.6487
75.1082
76.5837
78.072
79.57
81.0736
82.5728
84.0499
85.4446
86.6821
87.5573
30.941
36.3351
39.5381
42.4977
45.2742
47.8675
50.2582
52.424
54.3863
56.1744
57.8265
59.3579
60.7921
62.1576
63.4835
64.793
66.1032
67.4256
68.7672
70.1309
71.5173
72.9254
74.3524
75.7963
77.2536
78.7209
80.194
81.6623
83.1073
84.4696
85.6781
86.5342
30.9791
36.331
39.433
42.2727
44.9492
47.4793
49.8469
52.018
53.994
55.7956
57.4447
58.9739
60.3963
61.7442
63.0481
64.3318
65.6128
66.9026
68.2093
69.5379
70.8901
72.2649
73.6598
75.0725
76.4994
77.9366
79.3795
80.8172
82.2306
83.5604
84.7391
85.5757
31.0343
36.3532
39.3579
42.0783
44.6505
47.1099
49.4474
51.6212
53.6117
55.4295
57.0894
58.6137
60.0334
61.3717
62.6596
63.9219
65.1765
66.4363
67.7102
69.0039
70.3208
71.6617
73.0236
74.4046
75.8007
77.2075
78.6201
80.027
81.4085
82.7053
83.8541
84.6705
31.1083
36.4002
39.3121
41.9148
44.3794
46.7603
49.0591
51.2305
53.2349
55.0707
56.7463
58.2786
59.6953
61.0292
62.3079
63.5562
64.7912
66.0255
67.2686
68.5287
69.8111
71.1173
72.4462
73.7958
75.1615
76.5386
77.9217
79.2983
80.6482
81.9118
83.0301
83.8262
31.1934
36.4641
39.2907
41.7792
44.1349
46.4307
48.6812
50.8428
52.859
54.7132
56.407
57.9536
59.3781
60.7117
61.9863
63.2254
64.4459
65.66
66.8773
68.1058
69.3534
70.625
71.9196
73.2362
74.5706
75.917
77.2696
78.6153
79.9332
81.1631
82.2499
83.0253
31.2877
36.5431
39.2923
41.6723
43.919
46.1237
48.3157
50.4573
52.4807
54.3517
56.0643
57.6289
59.0669
60.4089
61.6864
62.9243
64.1383
65.3388
66.5345
67.7354
68.9509
70.1871
71.4469
72.7304
74.0329
75.3489
76.6717
77.9872
79.2735
80.4698
81.5252
82.2793
31.3849
36.6312
39.3109
41.5894
43.729
45.8379
47.962
50.0731
52.0978
53.9818
55.7126
57.2946
58.7487
60.1046
61.3921
62.6349
63.8487
65.0432
66.2255
67.4033
68.588
69.7904
71.0148
72.2627
73.532
74.8162
76.1083
77.3926
78.6464
79.8081
80.8309
81.5637
31.4814
36.726
39.3445
41.5298
43.5664
45.5763
47.6224
49.6902
51.705
53.597
55.3427
56.943
58.4148
59.7861
61.0878
62.3439
63.5675
64.7648
65.9407
67.1037
68.2652
69.4363
70.6262
71.8399
73.0758
74.3281
75.5899
76.8438
78.0656
79.1925
80.1826
80.8939
31.5734
36.8228
39.3829
41.4825
43.4218
45.3321
47.2931
49.3069
51.3013
53.1959
54.9504
56.5639
58.0519
59.442
60.7619
62.0345
63.2724
64.481
65.6617
66.8176
67.9595
69.1036
70.2611
71.439
72.6394
73.8578
75.0871
76.3091
77.4977
78.5887
79.5449
80.2346
31.6631
36.9209
39.4255
41.4476
43.2975
45.1093
46.9768
48.9225
50.882
52.7678
54.5256
56.1482
57.6493
59.0541
60.3932
61.6885
62.9499
64.1779
65.3706
66.5297
67.6649
68.7893
69.9183
71.0641
72.2308
73.4161
74.6137
75.8043
76.9602
78.0154
78.9377
79.6061
31.7443
37.0162
39.4602
41.4087
43.1771
44.8944
46.6649
48.5331
50.4463
52.3118
54.0654
55.688
57.1947
58.6134
59.9701
61.286
62.5708
63.8241
65.04
66.2129
67.3471
68.4584
69.5648
70.68
71.8124
72.9626
74.126
75.2831
76.4048
77.4236
78.3111
78.9585
31.8333
37.1256
39.4979
41.3732
43.0681
44.6958
46.3627
48.1381
49.9878
51.8178
53.5543
55.1704
56.6756
58.0966
59.4658
60.8039
62.1178
63.4028
64.6471
65.8424
66.9905
68.1023
69.1951
70.287
71.3904
72.5095
73.6413
74.767
75.8558
76.8385
77.6921
78.3192
31.9298
37.2474
39.5266
41.3178
42.9432
44.49
46.0552
47.7309
49.5061
51.2875
52.9928
54.5886
56.082
57.5004
58.8743
60.2249
61.5604
62.8738
64.1525
65.3811
66.5511
67.67
68.7568
69.8314
70.9089
71.9974
73.0963
74.1885
75.2438
76.1908
77.0105
77.6184
32.0729
37.4173
39.5791
41.2677
42.8226
44.2942
45.7535
47.3116
48.9907
50.7051
52.3627
53.9223
55.3886
56.7899
58.158
59.5157
60.8709
62.2172
63.5353
64.8019
66.0052
67.1472
68.243
69.3129
70.3755
71.4425
72.516
73.5801
74.6048
75.518
76.3059
76.8966
32.2556
37.6222
39.6391
41.1915
42.664
44.0682
45.432
46.8699
48.4414
50.0748
51.6685
53.1739
54.5944
55.9601
57.3056
58.656
60.0211
61.3914
62.7414
64.0477
65.291
66.4643
67.5784
68.6531
69.7082
70.7579
71.8072
72.8436
73.8393
74.7215
75.4798
76.0556
32.5466
37.9142
39.7697
41.1486
42.5158
43.8487
45.1131
46.4093
47.8413
49.3678
50.8777
52.308
53.6597
54.9666
56.2679
57.5934
58.9551
60.3396
61.7259
63.084
64.3837
65.6072
66.7589
67.8564
68.9205
69.9686
71.0086
72.0294
73.0039
73.8611
74.5943
75.1587
32.8906
38.2355
39.9247
41.0883
42.3143
43.5715
44.7534
45.9154
47.1927
48.5887
49.991
51.3233
52.5813
53.8022
55.0331
56.3099
57.6423
59.0242
60.4324
61.8315
63.183
64.46
65.6596
66.7944
67.8824
68.94
69.9777
70.9886
71.9488
72.7884
73.504
74.063
33.3445
38.6415
40.1884
41.1155
42.1587
43.3117
44.3953
45.3967
46.471
47.6876
48.9526
50.1568
51.2861
52.3837
53.5053
54.691
55.9629
57.3277
58.7617
60.2226
61.658
63.0234
64.3027
65.5017
66.6367
67.7259
68.7829
69.8043
70.7672
71.6035
72.312
72.8729
33.756
38.9974
40.4383
41.1197
41.9385
42.965
43.9644
44.8375
45.6984
46.6744
47.7286
48.7508
49.7033
50.6259
51.5874
52.647
53.8455
55.1875
56.6411
58.1511
59.6514
61.0963
62.4584
63.7382
64.9446
66.0896
67.1876
68.2391
69.2232
70.0732
70.79
71.3633
34.1809
39.3739
40.7777
41.2568
41.8272
42.6742
43.5496
44.2636
44.8687
45.5228
46.2581
46.9844
47.648
48.2878
48.9943
49.8592
50.9457
52.2618
53.7643
55.3858
57.0432
58.6583
60.1862
61.616
62.9483
64.1917
65.3648
66.4763
67.5093
68.3991
69.1432
69.7398
34.3461
39.5235
40.942
41.2667
41.5905
42.2511
43.0229
43.622
43.992
44.2717
44.5617
44.8279
45.0269
45.2079
45.4982
46.0402
46.9328
48.1877
49.7443
51.5082
53.3597
55.2046
56.9454
58.5869
60.1072
61.5065
62.8094
64.0349
65.1666
66.1395
66.9471
67.5924
34.4386
39.6317
41.141
41.4187
41.5363
41.964
42.5475
42.9692
43.0728
42.9269
42.6474
42.2519
41.7291
41.1632
40.7564
40.7543
41.3287
42.5296
44.2385
46.3058
48.5563
50.8043
52.9526
54.9711
56.8256
58.4986
60.0236
61.4356
62.7228
63.8232
64.7216
65.4217
34.0054
39.2468
40.8506
41.127
41.1117
41.3944
41.868
42.1637
42.0201
41.4116
40.4325
39.138
37.5591
35.8278
34.2503
33.2621
33.1272
34.1544
35.8326
38.3344
41.0441
44.1987
46.7387
49.3867
51.802
53.9307
55.8301
57.5629
59.1218
60.4465
61.5048
62.2982
33.7208
39.0359
40.801
41.1656
41.0235
41.0597
41.3017
41.4075
41.0294
40.0134
38.36
36.082
33.1892
29.835
26.4911
23.9526
24.5777
22.9118
28.7672
30.2973
33.0048
36.4452
40.5403
43.9922
47.2176
49.974
52.3554
54.4731
56.3429
57.9131
59.1291
59.9826
31.8619
29.4483
27.105
24.8797
22.8316
21.0874
19.7787
18.8425
18.0191
17.1118
16.1109
15.0853
14.0998
13.2034
12.4201
11.7632
11.2704
10.9126
10.6704
10.5576
10.5582
10.6724
10.916
11.2751
11.7686
12.426
13.2091
14.1046
15.0878
16.1113
17.1126
18.0237
18.8512
19.7871
21.091
22.8298
24.8766
27.1039
29.4469
31.8593
37.0681
34.6069
32.2543
30.037
28.0113
26.3075
25.1108
24.3698
23.745
22.955
21.9457
20.7919
19.5994
18.4625
17.4397
16.5609
15.8438
15.3057
14.9521
14.7855
14.7862
14.9542
15.3094
15.8489
16.5669
17.4457
18.4677
19.6027
20.7929
21.9455
22.9564
23.7504
24.3786
25.1192
26.3113
28.0103
30.035
32.2536
34.6055
37.065
38.8851
36.4147
34.0528
31.8415
29.8455
28.1941
27.0925
26.5477
26.1823
25.6189
24.7396
23.6034
22.3346
21.068
19.9021
18.8912
18.0637
17.4389
17.0319
16.8435
16.8442
17.034
17.4427
18.0686
18.8965
19.9069
21.0713
22.3358
23.6028
24.7393
25.6213
26.1892
26.5577
27.1011
28.1973
29.8438
31.8389
34.0512
36.4125
38.8822
39.4089
36.9691
34.5918
32.3681
30.3942
28.8092
27.8239
27.4916
27.4318
27.1717
26.5155
25.4976
24.2532
22.9468
21.714
20.6354
19.7508
19.0838
18.653
18.4574
18.4581
18.6551
19.0872
19.7548
20.6391
21.7164
22.9472
24.2518
25.4958
26.5156
27.176
27.4409
27.5029
27.8321
28.8105
30.3909
32.3644
34.5892
36.9668
39.4073
39.4219
37.0013
34.5456
32.211
30.1553
28.5532
27.626
27.4516
27.675
27.7511
27.3854
26.5717
25.4481
24.2004
22.9915
21.9216
21.0397
20.374
19.9472
19.7573
19.758
19.9492
20.3768
21.0423
21.9229
22.9907
24.1976
25.4444
26.5696
27.3873
27.7581
27.6864
27.4636
27.6325
28.552
30.1507
32.2077
34.5443
37.0017
39.4234
39.5262
37.1172
34.5644
32.0428
29.7693
27.9877
26.9606
26.7953
27.1593
27.4863
27.4175
26.877
25.9751
24.8974
23.8177
22.8431
22.0255
21.4008
21.0013
20.8276
20.8283
21.0031
21.4027
22.0263
22.8415
23.8132
24.8911
25.9696
26.8754
27.4215
27.4957
27.172
26.8065
26.9643
27.9841
29.7649
32.042
34.5667
37.1213
39.5291
39.7004
37.2571
34.6309
31.9617
29.4896
27.4949
26.2703
25.9691
26.3085
26.7155
26.8178
26.5278
25.9147
25.1191
24.2814
23.4877
22.7873
22.2323
21.8749
21.7234
21.724
21.8762
22.2331
22.7861
23.4831
24.2733
25.1094
25.9072
26.5257
26.8219
26.7245
26.3198
25.9773
26.2704
27.4896
29.4864
31.9633
34.6354
37.2626
39.7004
39.5948
36.9892
34.2266
31.4355
28.894
26.8831
25.6121
25.2065
25.4689
25.8726
26.028
25.8882
25.5392
25.0703
24.538
23.9689
23.4047
22.9246
22.6099
22.4804
22.4809
22.6106
22.9242
23.4016
23.9619
24.5269
25.0568
25.5275
25.8819
26.0281
25.878
25.4766
25.2105
25.6083
26.8761
28.8908
31.4376
34.2306
36.9927
39.5878
38.821
35.8495
32.7692
29.7834
27.3157
25.6456
24.7308
24.4953
24.8059
25.2672
25.5053
25.4836
25.3365
25.1264
24.8349
24.4324
23.9592
23.5243
23.2354
23.1202
23.1203
23.2351
23.5225
23.9547
24.4243
24.8227
25.1102
25.3188
25.469
25.497
25.2658
24.808
24.4937
24.7223
25.6352
27.3102
29.7842
32.7719
35.8495
38.8045
37.1106
33.4687
29.797
26.5255
24.4206
23.6303
23.5931
23.9114
24.5137
25.1944
25.638
25.7676
25.7423
25.6261
25.3867
24.9945
24.5091
24.0614
23.7692
23.6555
23.6551
23.7675
24.0579
24.5034
24.9866
25.3762
25.6107
25.7215
25.745
25.6193
25.1831
24.507
23.9026
23.5792
23.6151
24.4107
26.5245
29.7998
33.4667
37.0838
34.3117
29.5678
25.0251
21.7326
20.957
22.0523
23.3752
24.3907
25.3283
26.2257
26.8186
26.9836
26.8843
26.6237
26.2088
25.6558
25.0548
24.5424
24.2231
24.1003
24.0992
24.2195
24.5363
25.047
25.6477
26.2006
26.6125
26.867
26.9605
26.7949
26.2067
25.3133
24.3747
23.3557
22.0312
20.9405
21.7293
25.0313
29.5674
34.2752
30.2559
23.8292
18.3635
16.5979
19.7791
23.5707
25.8576
27.0971
27.9975
28.7273
29.0612
28.9118
28.4591
27.8374
27.0958
26.2967
25.5464
24.9633
24.6171
24.4831
24.4811
24.6107
24.9531
25.534
26.2847
27.0859
27.8283
28.447
28.895
29.0421
28.7104
27.9833
27.0817
25.8375
23.5458
19.7529
16.5895
18.3802
23.8374
30.2094
24.6866
15.5035
9.14385
14.9632
23.0762
27.8869
30.1419
31.1685
31.696
31.8874
31.6099
30.896
29.9505
28.9088
27.8444
26.8407
25.9918
25.3765
25.0213
24.88
24.8769
25.0114
25.3605
25.9714
26.819
27.8243
28.8915
29.9341
30.8789
31.5927
31.873
31.6844
31.156
30.1236
27.8606
23.0417
14.9347
9.21192
15.5429
24.6278
17.118
20.136
21.2886
18.094
27.8365
32.2249
34.1996
34.9439
35.0649
34.7121
33.8518
32.6345
31.2905
29.9458
28.6841
27.5827
26.7041
26.0858
25.7245
25.5712
25.5668
25.7109
26.0634
26.6739
27.5472
28.6465
29.9086
31.2549
32.6008
33.8208
34.6858
35.0432
34.9229
34.1736
32.1918
27.7878
18.0617
21.2498
20.0882
17.0355
5.26383
22.2726
19.5174
19.787
31.554
35.4967
37.3477
37.9493
37.861
37.2286
36.0752
34.6173
33.0969
31.6297
30.2997
29.1682
28.2727
27.6303
27.2328
27.0475
27.0424
27.2166
27.6031
28.2349
29.1209
30.2454
31.5714
33.0374
34.5591
36.0208
37.1801
37.8189
37.9104
37.3084
35.4457
31.514
19.6667
19.4536
22.2041
4.90237
9.71128
19.003
24.0759
22.7589
33.6325
37.9547
39.8145
40.4986
40.4616
39.8498
38.7055
37.2584
35.749
34.2854
32.9492
31.7945
30.8539
30.1478
29.6819
29.4482
29.4426
29.6642
30.1182
30.8122
31.7407
32.8849
34.2136
35.6733
37.1828
38.6339
39.785
40.4044
40.4485
39.7601
37.9137
33.4742
22.8446
24.2591
18.9291
10.3906
28.4121
17.9148
19.1278
23.5074
35.7817
39.8542
41.9039
42.7985
42.9669
42.5473
41.5725
40.2658
38.8581
37.4536
36.133
34.9536
33.9561
33.1751
32.6366
32.355
32.3491
32.6177
33.1438
33.9118
34.8963
36.064
37.3756
38.7754
40.1834
41.495
42.4785
42.9079
42.7513
41.861
39.8165
35.7303
23.3472
18.8463
19.7785
28.5992
24.2928
22.226
20.0021
23.0425
37.282
41.488
43.7694
44.9189
45.3231
45.1329
44.362
43.2249
41.9407
40.6117
39.3185
38.1242
37.0809
36.2391
35.6421
35.3224
35.3162
35.6219
36.2059
37.0346
38.0647
39.2475
40.5319
41.8572
43.1432
44.2883
45.0708
45.279
44.8857
43.7866
41.4397
37.5144
22.4063
20.5445
23.5848
19.2095
35.4375
28.9391
18.7341
27.1501
37.5166
43.4103
45.5138
47.0061
47.5869
47.6007
47.0023
46.0123
44.8361
43.5749
42.3096
41.1081
40.0333
39.1477
38.5084
38.1606
38.1541
38.4871
39.1134
39.986
41.0484
42.2388
43.4968
44.756
45.9372
46.9397
47.5558
47.5693
47.0162
45.5955
43.4959
37.8917
27.7383
17.6457
26.9964
34.3514
31.0773
15.6393
26.4307
32.0679
37.1804
44.9757
47.3455
49.0968
49.8634
50.0208
49.5484
48.662
47.5619
46.3475
45.1004
43.8928
42.795
41.8785
41.2092
40.8414
40.8349
41.1879
41.8443
42.7484
43.8347
45.0327
46.274
47.489
48.5984
49.5037
50.0065
49.8927
49.2101
47.5773
45.4128
38.6437
29.5803
23.0342
21.434
34.1473
30.2403
30.3457
28.2095
33.4507
39.8289
47.4564
49.7403
51.4915
52.2762
52.4731
52.0526
51.217
50.1556
48.9646
47.7243
46.5092
45.3947
44.4571
43.7679
43.3867
43.3806
43.7475
44.4246
45.3509
46.4551
47.6618
48.8978
50.0914
51.1643
52.022
52.4743
52.3232
51.6053
49.9734
47.7476
40.7498
32.7482
26.8289
9.21434
9.28048
12.5557
16.0486
29.7361
34.8203
44.0027
50.2837
52.6902
54.1417
54.8252
54.9548
54.5204
53.6887
52.6357
51.4502
50.2098
48.9886
47.864
46.9146
46.2141
45.8252
45.8199
46.1957
46.8856
47.8253
48.941
50.1551
51.3926
52.5815
53.6468
54.5004
54.964
54.8753
54.2385
52.8839
50.3068
44.6664
30.0589
32.0518
32.5639
25.2014
29.1839
36.4937
31.5075
36.1198
48.3424
53.5205
55.8111
56.9062
57.3886
57.398
56.9145
56.0638
55.0044
53.8182
52.578
51.3564
50.2302
49.2781
48.5744
48.1831
48.179
48.5592
49.2544
50.1987
51.3178
52.5338
53.7716
54.9606
56.0298
56.8969
57.3996
57.4172
56.9733
55.9432
53.7254
48.823
36.8088
25.0105
23.8281
22.9663
30.8197
18.6624
22.4254
40.6188
51.3526
56.3626
58.5187
59.4213
59.751
59.6737
59.1654
58.31
57.2531
56.0746
54.8439
53.6319
52.5145
51.5693
50.8699
50.4808
50.4782
50.8591
51.5526
52.4924
53.6047
54.8123
56.0406
57.2198
58.2816
59.1441
59.6575
59.7422
59.4223
58.5292
56.3731
51.3517
40.6666
21.8979
14.64
30.9981
36.5896
24.8579
27.7491
42.4089
52.9079
58.2771
60.6057
61.5106
61.7893
61.6909
61.212
60.3929
59.367
58.2182
57.0147
55.8276
54.7316
53.8036
53.1161
52.7338
52.733
53.1105
53.7953
54.7208
55.8137
56.9976
58.1981
59.3449
60.37
61.1869
61.6595
61.7538
61.4725
60.5611
58.215
52.8207
42.3159
27.7418
24.9407
36.6428
40.9932
31.6513
32.3149
43.6522
53.6974
59.4344
62.0825
63.1228
63.4371
63.3783
62.9896
62.265
61.3154
60.2314
59.0831
57.9423
56.8845
55.9859
55.3189
54.9481
54.9492
55.3191
55.9869
56.8856
57.9423
59.0805
60.2246
61.303
62.2459
62.9601
63.3359
63.386
63.0651
62.0157
59.3543
53.6049
43.5611
32.2864
31.6894
40.9741
44.5172
36.5429
35.7937
44.4665
53.8366
59.8454
62.883
64.1742
64.6144
64.6506
64.4037
63.8434
63.0338
62.0665
61.0147
59.9523
58.9564
58.1044
57.4691
57.1157
57.1189
57.4751
58.1143
58.9687
59.9647
61.0243
62.07
63.0278
63.8248
64.3689
64.6018
64.557
64.1107
62.8139
59.7729
53.7642
44.4017
35.7651
36.5326
44.4684
47.4758
40.3724
38.5845
44.884
53.3566
59.495
62.9247
64.5547
65.2189
65.4154
65.3481
65.0166
64.4237
63.6405
62.7405
61.7999
60.8982
60.1155
59.5266
59.198
59.203
59.5378
60.1332
60.9201
61.8226
62.7597
63.6513
64.4217
64.9977
65.3116
65.3674
65.1646
64.4976
62.8684
59.444
53.3143
44.8545
38.5701
40.3493
47.4237
49.9713
43.4606
40.9346
45.1187
52.4438
58.5125
62.2676
64.2624
65.2228
65.6478
65.7954
65.7249
65.405
64.8656
64.171
63.3957
62.6214
61.9313
61.4038
61.1073
61.1136
61.4189
61.9548
62.6503
63.4259
64.1973
64.8825
65.4076
65.7104
65.7665
65.6113
65.1836
64.2248
62.2368
58.4937
52.4416
45.1317
40.9447
43.4485
49.9306
52.0079
45.9103
42.8929
45.3244
51.3512
57.1298
61.1044
63.4402
64.7254
65.4282
65.8198
66.0049
65.9644
65.6888
65.2215
64.6314
64.0001
63.4136
62.9539
62.6922
62.6993
62.9712
63.4405
64.0333
64.6664
65.2533
65.712
65.9748
66.0015
65.8074
65.4121
64.7103
63.4306
61.106
57.1496
51.3942
45.3802
42.9325
45.9208
51.9855
53.5331
47.685
44.367
45.5753
50.4555
55.8187
59.8796
62.4759
64.0461
65.0127
65.6353
66.0304
66.2068
66.1413
65.8584
65.4191
64.9043
64.401
63.994
63.7587
63.7662
64.0124
64.4291
64.939
65.4563
65.8935
66.1697
66.2254
66.0402
65.6407
65.0176
64.0548
62.4931
59.9116
55.8741
50.5361
45.6633
44.4327
47.7195
53.5294
54.5331
48.752
45.1776
45.6357
49.7928
54.8683
58.972
61.7437
63.5115
64.6623
65.4427
65.9674
66.2601
66.3033
66.1139
65.7487
65.2869
64.8162
64.4228
64.189
64.1973
64.443
64.8461
65.3235
65.7881
66.1521
66.3363
66.2855
65.9867
65.4594
64.6795
63.533
61.7744
59.0191
54.9419
49.891
45.7396
45.2602
48.8043
54.5452
34.9382
42.2734
47.3337
52.008
55.8611
58.9586
61.5247
63.8478
66.0734
68.2372
70.3502
72.4165
74.4407
76.4316
78.3998
80.3562
82.3088
84.2635
86.2243
88.1941
90.1754
92.1694
94.1767
96.1977
98.232
100.278
102.334
104.391
106.429
108.376
110.1
111.28
34.4328
41.5319
46.4488
51.0214
54.8295
57.9134
60.4713
62.7699
64.9693
67.1015
69.1783
71.2049
73.187
75.1342
77.0583
78.9707
80.8792
82.7906
84.7089
86.6364
88.5753
90.5263
92.4906
94.4683
96.4587
98.4603
100.471
102.482
104.473
106.375
108.059
109.216
33.9186
40.8182
45.6038
50.0775
53.8391
56.9085
59.4612
61.7379
63.9107
66.0103
68.0497
70.0362
71.9759
73.8792
75.7589
77.6269
79.4914
81.3597
83.2355
85.1209
87.0175
88.9261
90.8478
92.7825
94.7296
96.6872
98.6533
100.619
102.565
104.422
106.068
107.2
33.4194
40.1432
44.8059
49.1823
52.8965
55.9516
58.5008
60.7567
62.9025
64.9697
66.9712
68.917
70.8141
72.6735
74.5086
76.3323
78.1532
79.9788
81.8127
83.6567
85.5119
87.379
89.259
91.152
93.0569
94.9719
96.8945
98.8164
100.718
102.533
104.141
105.251
32.9499
39.5164
44.0616
48.3411
52.0058
55.0447
57.5905
59.8265
61.9461
63.9807
65.9446
67.8498
69.704
71.5192
73.3097
75.0892
76.8669
78.6503
80.443
82.2463
84.0611
85.8878
87.7275
89.58
91.444
93.3175
95.1983
97.0778
98.937
100.71
102.283
103.37
32.5232
38.9465
43.3775
47.5598
51.1723
54.1928
56.7336
58.9498
61.0422
63.0446
64.9712
66.8354
68.6465
70.4175
72.1635
73.8989
75.6335
77.3752
79.1274
80.8908
82.6659
84.4533
86.2537
88.0669
89.8914
91.7251
93.5655
95.404
97.2225
98.9557
100.494
101.56
32.1462
38.4378
42.7568
46.8404
50.397
53.3951
55.9268
58.1257
60.1922
62.1624
64.0527
65.8758
67.6437
69.3705
71.0721
72.7636
74.4555
76.1558
77.8678
79.592
81.3285
83.0776
84.84
86.615
88.4011
90.1962
91.9976
93.797
95.5761
97.2713
98.7754
99.8207
31.8232
37.9928
42.2001
46.1831
49.68
52.6521
55.1723
57.3563
59.396
61.3354
63.1899
64.9724
66.6974
68.3801
70.0377
71.6857
73.3353
74.9948
76.6671
78.3527
80.0511
81.7627
83.4881
85.2261
86.9753
88.7332
90.4972
92.2586
94.0003
95.6582
97.1304
98.1551
31.555
37.6101
41.7058
45.5857
49.0189
51.9611
54.4676
56.6389
58.6544
60.5633
62.3834
64.1263
65.809
67.4483
69.0623
70.6673
72.2751
73.8941
75.5273
77.1748
78.836
80.5112
82.2005
83.9026
85.6157
87.3376
89.0654
90.7908
92.4959
94.118
95.5585
96.5634
31.3391
37.287
41.2703
45.0446
48.4103
51.3195
53.8119
55.9738
57.9646
59.8464
61.6335
63.3384
64.9795
66.576
68.1473
69.7101
71.2768
72.856
74.4506
76.0606
77.6855
79.325
80.979
82.6461
84.3245
86.0116
87.7046
89.3949
91.0648
92.6523
94.0624
95.0472
31.1734
37.0204
40.8901
44.5558
47.8502
50.7239
53.202
55.3575
57.3288
59.1837
60.9397
62.6091
64.2103
65.7654
67.2947
68.8159
70.3422
71.882
73.4385
75.0117
76.6008
78.2055
79.8251
81.4581
83.1025
84.7558
86.4149
88.0711
89.7074
91.2613
92.6411
93.6063
31.054
36.8057
40.561
44.1155
47.335
50.1708
52.6356
54.7898
56.7405
58.5741
60.3025
61.9381
63.5013
65.0165
66.5053
67.9863
69.4729
70.974
72.4929
74.0298
75.5838
77.1545
78.7405
80.3402
81.9517
83.5721
85.1984
86.8216
88.4243
89.9455
91.2959
92.2424
30.9758
36.6388
40.2789
43.719
46.8599
49.6558
52.1086
54.2621
56.2027
58.0161
59.7189
61.325
62.8533
64.3302
65.7801
67.2219
68.6697
70.1327
71.6145
73.1155
74.6349
76.1718
77.7247
79.2918
80.871
82.4594
84.0536
85.6447
87.2153
88.7043
90.0252
90.9521
30.9349
36.5144
40.041
43.3636
46.4215
49.1746
51.6153
53.769
55.7048
57.504
59.1875
60.7666
62.2641
63.7064
65.1192
66.5233
67.9334
69.3589
70.8039
72.2695
73.7549
75.2589
76.7793
78.3145
79.8618
81.4185
82.9811
84.5404
86.0788
87.5357
88.8282
89.7366
30.9145
36.4215
39.839
43.0435
46.0146
48.7218
51.1496
53.3065
55.2485
57.0363
58.703
60.2608
61.7304
63.1412
64.5203
65.8891
67.2628
68.6515
70.0602
71.4904
72.9414
74.4121
75.9003
77.4037
78.9198
80.4454
81.9769
83.5045
85.011
86.436
87.7001
88.5899
30.9153
36.3606
39.6712
42.7568
45.6369
48.2936
50.707
52.8693
54.821
56.6034
58.2598
59.802
61.2502
62.6336
63.9817
65.3173
66.6564
68.0093
69.3819
70.7769
72.1939
73.6317
75.0877
76.5598
78.0452
79.5402
81.041
82.5377
84.0124
85.4055
86.641
87.5121
30.9318
36.3265
39.533
42.4996
45.2846
47.8855
50.2817
52.4506
54.4142
56.2024
57.8537
59.3831
60.8148
62.177
63.4994
64.8051
66.1113
67.4296
68.7669
70.1265
71.509
72.9136
74.3373
75.7779
77.2325
78.6971
80.1677
81.6336
83.0766
84.4372
85.6436
86.4954
30.9723
36.324
39.4289
42.2749
44.9596
47.4975
49.8709
52.0455
54.0232
55.8251
57.4736
59.0012
60.4211
61.7662
63.067
64.3473
65.6246
66.9106
68.2133
69.538
70.8864
72.2577
73.6495
75.0593
76.4836
77.9184
79.3591
80.7947
82.2063
83.5345
84.7116
85.5435
31.0261
36.3449
39.3526
42.0791
44.6595
47.1272
49.4711
51.6491
53.6417
55.4601
57.1194
58.6425
60.0602
61.396
62.6811
63.9404
65.1919
66.4482
67.7184
69.0084
70.3217
71.6592
73.0181
74.3964
75.7901
77.1947
78.6054
80.0106
81.3906
82.6862
83.8333
84.6452
31.1039
36.3948
39.3088
41.9165
44.3885
46.7774
49.0826
51.2583
53.265
55.1016
56.7769
58.308
59.7229
61.0548
62.3312
63.5769
64.8092
66.0405
67.2802
68.5368
69.8158
71.1188
72.4447
73.7919
75.1554
76.5307
77.9121
79.2873
80.636
81.8986
83.0151
83.8066
31.1863
36.4568
39.2855
41.7789
44.1421
46.4461
48.7036
50.8698
52.8887
54.7439
56.4376
57.9831
59.406
60.7378
62.0105
63.2476
64.4657
65.6773
66.8915
68.1169
69.3612
70.6296
71.9215
73.2357
74.5682
75.913
77.2644
78.6091
79.9263
81.1556
82.2411
83.0118
31.2856
36.5398
39.2902
41.6738
43.9266
46.1384
48.3369
50.4831
52.5092
54.3813
56.0939
57.6575
59.0942
60.4345
61.7104
62.9466
64.1588
65.3572
66.5505
67.7486
68.9611
70.1943
71.4514
72.7327
74.0336
75.3483
76.6703
77.9852
79.271
80.4669
81.521
82.2705
31.3783
36.6243
39.3059
41.5882
43.7339
45.8502
47.9811
50.0971
52.1246
54.0097
55.7405
57.3216
58.7745
60.1289
61.4149
62.6564
63.8688
65.0617
66.242
67.4173
68.5992
69.7989
71.0206
72.2664
73.5342
74.8176
76.1093
77.3937
78.6478
79.8096
80.8317
81.5602
31.4806
36.7238
39.3433
41.5309
43.5719
45.5878
47.6397
49.712
51.7293
53.6223
55.3679
56.9674
58.438
59.8079
61.1085
62.3636
63.5862
64.7823
65.9569
67.1179
68.2771
69.4456
70.6331
71.845
73.0795
74.3312
75.5928
76.8472
78.0695
79.1968
80.1863
80.8934
31.5662
36.8157
39.3777
41.4802
43.4243
45.3409
47.3079
49.3261
51.3227
53.2181
54.9725
56.585
58.0717
59.4603
60.7792
62.0508
63.2881
64.496
65.6758
66.8302
67.9702
69.1122
70.2675
71.4435
72.6427
73.8609
75.0907
76.314
77.504
78.5965
79.5528
80.2388
31.6617
36.9188
39.4244
41.448
43.3008
45.117
46.9894
48.9388
50.9003
52.7865
54.5437
56.1652
57.6649
59.0683
60.4063
61.701
62.962
64.1899
65.3821
66.5407
67.6746
68.7975
69.9245
71.0686
72.2341
73.4192
74.6173
75.8093
76.9668
78.0235
78.9461
79.611
31.7358
37.0086
39.4547
41.4055
43.1773
44.8996
46.6751
48.5468
50.4616
52.3271
54.0797
55.7006
57.2055
58.6227
59.9781
61.2932
62.5777
63.831
65.047
66.2199
67.3535
68.4639
69.5688
70.6826
71.814
72.9644
74.1289
75.2885
76.413
77.4346
78.3235
78.968
31.8298
37.1227
39.4961
41.3722
43.0688
44.6999
46.3708
48.1492
50.0001
51.8295
53.5645
55.1786
56.6817
58.1008
59.4688
60.8062
62.1199
63.4051
64.65
65.846
66.9945
68.1061
69.1979
70.2887
71.3911
72.5102
73.6429
74.7705
75.8619
76.8472
77.7022
78.3267
31.9212
37.2407
39.5213
41.3139
42.9416
44.492
46.0614
47.7401
49.516
51.2964
52.9994
54.5926
56.0833
57.4992
58.8712
60.2206
61.5556
62.8693
64.1487
65.3785
66.5497
67.6694
68.7562
69.8302
70.9072
71.9961
73.0964
74.1917
75.251
76.2021
77.0245
77.6306
32.0673
37.414
39.5761
41.2647
42.8206
44.2949
45.7579
47.3188
48.9985
50.7114
52.3662
53.9226
55.3859
56.7845
58.1505
59.5067
60.8614
62.2078
63.5267
64.7948
66
67.1438
68.2405
69.3104
70.3727
71.44
72.5144
73.5808
74.6086
75.5254
76.3157
76.9046
32.2502
37.6195
39.6361
41.1878
42.6611
44.068
45.4354
46.8761
48.4481
50.0797
51.67
53.1713
54.5877
55.9497
57.2921
58.6404
60.0042
61.374
62.7245
64.0325
65.2784
66.4546
67.5707
68.6465
69.7023
70.7528
71.8036
72.8433
73.8433
74.7305
75.4925
76.0674
32.543
37.9134
39.7676
41.1445
42.5117
43.8471
45.1152
46.4148
47.8478
49.3724
50.8785
52.3045
53.6518
54.9548
56.2528
57.5756
58.9353
60.3188
61.705
63.0645
64.3669
65.5939
66.7486
67.8482
68.9137
69.963
71.004
72.0269
73.0047
73.8659
74.6022
75.1656
32.8927
38.2394
39.9264
41.0863
42.3108
43.5697
44.7552
45.9208
47.1995
48.5939
49.9922
51.3192
52.5716
53.7874
55.0137
56.2866
57.6158
58.9955
60.4027
61.8026
63.1569
64.4382
65.6419
66.7798
67.8704
68.9303
69.9699
70.9837
71.9481
72.7926
73.5123
74.0712
33.3468
38.6458
40.1901
41.113
42.1543
43.3092
44.3972
45.4034
46.4802
47.6962
48.9575
50.1568
51.2807
52.3731
53.49
54.6712
55.9389
57.3002
58.7314
60.1915
61.6283
62.9981
64.2821
65.4855
66.6247
67.7174
68.7762
69.7995
70.7651
71.6049
72.3164
72.8765
33.7642
39.0064
40.4445
41.1201
41.935
42.9622
43.966
44.8444
45.7091
46.6854
47.7366
48.7534
49.6997
50.6161
51.5715
52.6253
53.8182
55.155
56.604
58.1116
59.6117
61.0599
62.4277
63.7122
64.9239
66.0743