/*--------------------------------*- C++ -*----------------------------------*\
  =========                 |
  \\      /  F ield         | OpenFOAM: The Open Source CFD Toolbox
   \\    /   O peration     | Website:  https://openfoam.org
    \\  /    A nd           | Version:  6
     \\/     M anipulation  |
\*---------------------------------------------------------------------------*/
FoamFile
{
    version     2.0;
    format      ascii;
    class       volVectorField;
    location    "18";
    object      wallShearStress;
}
// * * * * * * * * * * * * * * * * * * * * * * * * * * * * * * * * * * * * * //

dimensions      [0 2 -2 0 0 0 0];

internalField   uniform (0 0 0);

boundaryField
{
    inlet
    {
        type            calculated;
        value           uniform (0 0 0);
    }
    outlet
    {
        type            calculated;
        value           uniform (0 0 0);
    }
    roughCylinder
    {
        type            calculated;
        value           nonuniform List<vector> 
3840
(
(-0.000271797 -0.000396705 -0.000162656)
(-0.000326781 -0.000510643 -2.34902e-05)
(-0.000376087 -0.000632103 4.18072e-05)
(-0.00045139 -0.000735687 0.000123777)
(-0.000539575 -0.000809781 0.000206196)
(-0.000630979 -0.000850168 0.000278351)
(-0.00071595 -0.00086092 0.00033508)
(-0.000789753 -0.000853386 0.000374922)
(-0.00085285 -0.000846963 0.000402193)
(-0.000901466 -0.000845563 0.000416506)
(-0.00094017 -0.000853216 0.000419854)
(-0.000972339 -0.000868364 0.000414402)
(-0.00100105 -0.000889397 0.000402702)
(-0.00102922 -0.000914822 0.000386817)
(-0.00105888 -0.000943697 0.000368178)
(-0.00109114 -0.000975512 0.000347444)
(-0.00112635 -0.00100995 0.000324692)
(-0.00116434 -0.00104666 0.000299627)
(-0.00120453 -0.00108512 0.00027163)
(-0.00124619 -0.00112454 0.000239898)
(-0.00128799 -0.00116355 0.0002029)
(-0.00132826 -0.0012004 0.000158568)
(-0.00136263 -0.00123156 0.000103071)
(-0.00138477 -0.00125169 3.57287e-05)
(-0.000290837 -0.000384469 -0.000155289)
(-0.000349946 -0.000494884 -2.67688e-05)
(-0.000401719 -0.000616062 3.30762e-05)
(-0.000479247 -0.000720928 0.000111618)
(-0.000569334 -0.000797663 0.00019218)
(-0.000662717 -0.00084104 0.00026329)
(-0.000750711 -0.000855905 0.000319998)
(-0.000829458 -0.000854515 0.000361878)
(-0.000897502 -0.000851294 0.00039169)
(-0.000950112 -0.000848679 0.000407518)
(-0.000990794 -0.000854995 0.000411516)
(-0.00102491 -0.00086949 0.00040638)
(-0.00105551 -0.000890311 0.000394908)
(-0.00108559 -0.000915756 0.000379247)
(-0.00111724 -0.000944752 0.000360898)
(-0.0011516 -0.000976689 0.000340541)
(-0.00118899 -0.00101122 0.000318267)
(-0.00122923 -0.00104798 0.000293782)
(-0.0012717 -0.00108641 0.000266446)
(-0.00131563 -0.00112575 0.000235457)
(-0.00135959 -0.00116462 0.000199267)
(-0.00140188 -0.0012013 0.000155832)
(-0.00143789 -0.00123224 0.000101335)
(-0.0014611 -0.00125223 3.51155e-05)
(-0.00031021 -0.000366816 -0.000142442)
(-0.000372423 -0.000473784 -3.09377e-05)
(-0.000426538 -0.000593438 2.36963e-05)
(-0.000505837 -0.000698805 9.83528e-05)
(-0.000597713 -0.000777985 0.000176693)
(-0.000693418 -0.000825056 0.000246872)
(-0.000785124 -0.000845171 0.000304217)
(-0.000868771 -0.000849719 0.000348217)
(-0.000941368 -0.000849415 0.000379911)
(-0.000998668 -0.000846817 0.000397415)
(-0.00104145 -0.000851445 0.000402048)
(-0.00107758 -0.00086508 0.000397251)
(-0.00111018 -0.000885476 0.000386082)
(-0.00114229 -0.000910739 0.000370727)
(-0.001176 -0.000939632 0.000352741)
(-0.0012125 -0.000971478 0.000332844)
(-0.00125211 -0.00100586 0.000311128)
(-0.00129462 -0.00104242 0.000287301)
(-0.00133936 -0.00108056 0.000260708)
(-0.00138554 -0.00111956 0.000230546)
(-0.00143162 -0.00115801 0.000195248)
(-0.00147588 -0.00119425 0.000152801)
(-0.00151348 -0.00122477 9.94114e-05)
(-0.00153773 -0.00124447 3.44361e-05)
(-0.000327565 -0.000344767 -0.00012587)
(-0.000391852 -0.000447732 -3.54298e-05)
(-0.000447826 -0.000564869 1.3966e-05)
(-0.000528359 -0.000670193 8.43462e-05)
(-0.000621947 -0.000751789 0.000160109)
(-0.000720324 -0.000803189 0.000229327)
(-0.000816065 -0.000829194 0.000287524)
(-0.000904553 -0.000839457 0.000333566)
(-0.000981838 -0.000842246 0.00036701)
(-0.00104423 -0.000840982 0.000386378)
(-0.0010898 -0.000843423 0.000391668)
(-0.00112808 -0.000855991 0.00038732)
(-0.00116282 -0.000875777 0.000376537)
(-0.001197 -0.000900671 0.000361568)
(-0.00123284 -0.000929313 0.000344031)
(-0.0012715 -0.000960895 0.000324668)
(-0.0013133 -0.000994952 0.000303579)
(-0.00135801 -0.0010311 0.000280476)
(-0.00140494 -0.00106875 0.000254683)
(-0.00145324 -0.00110716 0.0002254)
(-0.00150131 -0.00114497 0.000191041)
(-0.00154742 -0.00118057 0.000149632)
(-0.00158647 -0.00121047 9.7401e-05)
(-0.00161168 -0.00122978 3.3726e-05)
(-0.000341917 -0.000318934 -0.000107296)
(-0.000407592 -0.0004174 -3.98234e-05)
(-0.000464741 -0.000531062 4.17178e-06)
(-0.000545897 -0.000635714 6.99019e-05)
(-0.000641111 -0.000719612 0.000142694)
(-0.000742429 -0.000775669 0.000210776)
(-0.000842365 -0.000807691 0.000269731)
(-0.000935608 -0.000823327 0.00031764)
(-0.00101763 -0.00082921 0.000352856)
(-0.00108464 -0.000829441 0.000373791)
(-0.00113472 -0.000830365 0.000380233)
(-0.00117538 -0.000841679 0.000376598)
(-0.00121241 -0.000860571 0.000366296)
(-0.00124879 -0.000884923 0.000351835)
(-0.00128675 -0.000913093 0.000334832)
(-0.00132753 -0.000944198 0.000316081)
(-0.00137146 -0.000977719 0.000295693)
(-0.00141827 -0.00101323 0.000273378)
(-0.00146725 -0.00105015 0.00024844)
(-0.00151753 -0.00108775 0.000220085)
(-0.00156743 -0.00112469 0.000186706)
(-0.00161521 -0.0011594 0.000146371)
(-0.00165556 -0.00118851 9.53356e-05)
(-0.00168162 -0.00120729 3.29955e-05)
(-0.000353199 -0.000290707 -8.80008e-05)
(-0.000419188 -0.000383757 -4.3923e-05)
(-0.00047671 -0.00049314 -5.4827e-06)
(-0.000557897 -0.000596542 5.52219e-05)
(-0.000654576 -0.000682542 0.000124602)
(-0.000758931 -0.000743282 0.000191261)
(-0.000863117 -0.00078108 0.000250726)
(-0.00096114 -0.000801665 0.000300264)
(-0.00104802 -0.000810543 0.000337239)
(-0.00111988 -0.000812359 0.000359662)
(-0.00117568 -0.000813332 0.000367823)
(-0.00121907 -0.000822338 0.000364992)
(-0.00125857 -0.000840118 0.000355345)
(-0.00129723 -0.000863588 0.000341503)
(-0.00133737 -0.000891092 0.000325153)
(-0.00138026 -0.000921518 0.000307109)
(-0.00142623 -0.000954279 0.000287499)
(-0.00147503 -0.000988919 0.000266037)
(-0.0015259 -0.00102486 0.000242009)
(-0.00157796 -0.00106141 0.000214626)
(-0.00162946 -0.00109725 0.000182261)
(-0.00167872 -0.00113088 0.000143033)
(-0.00172017 -0.00115899 9.32236e-05)
(-0.00174698 -0.00117715 3.22477e-05)
(-0.000359778 -0.000260088 -6.86362e-05)
(-0.000425736 -0.000347503 -4.74825e-05)
(-0.000482809 -0.000451788 -1.48181e-05)
(-0.000563271 -0.000553278 4.04137e-05)
(-0.000661075 -0.000641038 0.000105857)
(-0.000768474 -0.000706345 0.000170693)
(-0.000877074 -0.000749701 0.000230337)
(-0.000980054 -0.000774928 0.000281241)
(-0.00107201 -0.000786727 0.000319942)
(-0.00114903 -0.00079018 0.000343995)
(-0.00121035 -0.000791859 0.000353888)
(-0.0012584 -0.000798934 0.000352363)
(-0.00130061 -0.000814968 0.000343604)
(-0.00134178 -0.000837392 0.00033057)
(-0.00138412 -0.000863929 0.000314991)
(-0.00142907 -0.000893432 0.000297752)
(-0.001477 -0.000925222 0.000279006)
(-0.00152764 -0.000958799 0.000258471)
(-0.00158022 -0.000993574 0.00023541)
(-0.00163387 -0.00102887 0.000209046)
(-0.00168674 -0.0010634 0.000177728)
(-0.00173725 -0.00109574 0.000139634)
(-0.00177961 -0.00112271 9.1076e-05)
(-0.00180702 -0.00114013 3.14859e-05)
(-0.0003629 -0.0002291 -5.01367e-05)
(-0.000427217 -0.000309886 -5.05545e-05)
(-0.000482766 -0.000408288 -2.36194e-05)
(-0.000561622 -0.000507037 2.57526e-05)
(-0.000659997 -0.000595965 8.66587e-05)
(-0.000770165 -0.000665405 0.000149109)
(-0.00088303 -0.00071383 0.00020843)
(-0.000991099 -0.000743396 0.000260369)
(-0.00108846 -0.000758112 0.000300734)
(-0.00117112 -0.000763361 0.00032665)
(-0.00123798 -0.000765813 0.000338303)
(-0.00129169 -0.000772142 0.000338519)
(-0.00133766 -0.000786061 0.000331015)
(-0.00138142 -0.000806631 0.000318943)
(-0.00142609 -0.000832018 0.000304315)
(-0.00147312 -0.000860409 0.00028801)
(-0.0015229 -0.000891019 0.000270225)
(-0.00157522 -0.000923314 0.000250691)
(-0.00162927 -0.000956709 0.000228653)
(-0.00168421 -0.000990572 0.000203353)
(-0.00173814 -0.00102371 0.000173116)
(-0.00178964 -0.00105468 0.000136183)
(-0.00183263 -0.00108041 8.88983e-05)
(-0.00186053 -0.00109707 3.07127e-05)
(-0.000359018 -0.000196426 -3.26013e-05)
(-0.000422011 -0.000270683 -5.26474e-05)
(-0.000475219 -0.000362497 -3.17138e-05)
(-0.000551448 -0.000457707 1.13619e-05)
(-0.00064963 -0.000547062 6.70726e-05)
(-0.000762299 -0.00062023 0.000126445)
(-0.000879642 -0.000673591 0.000184893)
(-0.000993119 -0.000707404 0.000237499)
(-0.00109629 -0.000725059 0.000279417)
(-0.00118484 -0.000732092 0.00030731)
(-0.00125772 -0.00073549 0.000321027)
(-0.00131702 -0.000741561 0.000323145)
(-0.00136784 -0.000754022 0.000317308)
(-0.00141541 -0.000772948 0.000306683)
(-0.00146241 -0.000796602 0.000293169)
(-0.00151143 -0.00082356 0.000277924)
(-0.00156295 -0.00085283 0.00026121)
(-0.00161673 -0.000883765 0.000242764)
(-0.00167201 -0.000915746 0.000221814)
(-0.00172792 -0.000948117 0.000197617)
(-0.00178239 -0.000979647 0.000168457)
(-0.00183443 -0.00100906 0.000132691)
(-0.00187769 -0.00103344 8.66936e-05)
(-0.00190574 -0.00104921 2.99254e-05)
(-0.000352451 -0.000165188 -1.69066e-05)
(-0.000411242 -0.00023205 -5.45208e-05)
(-0.000460844 -0.000316557 -3.86771e-05)
(-0.000533279 -0.000406998 -2.22049e-06)
(-0.000630246 -0.000495751 4.75286e-05)
(-0.000744706 -0.000571848 0.000102975)
(-0.000866002 -0.000629489 0.000159753)
(-0.000984952 -0.000667343 0.00021252)
(-0.00109432 -0.000687976 0.000255814)
(-0.00118946 -0.000696988 0.000285838)
(-0.00126856 -0.000701232 0.000301851)
(-0.00133367 -0.000707145 0.000306157)
(-0.00138948 -0.000718565 0.000302267)
(-0.00144078 -0.000735938 0.000293288)
(-0.00149073 -0.000757869 0.000281202)
(-0.0015419 -0.000783236 0.000267249)
(-0.00159492 -0.000810922 0.000251735)
(-0.00164975 -0.000840241 0.000234458)
(-0.00170566 -0.000870537 0.000214641)
(-0.00176194 -0.000901147 0.000191575)
(-0.00181654 -0.000930828 0.000163538)
(-0.00186873 -0.000958481 0.000128998)
(-0.00191184 -0.000981325 8.43542e-05)
(-0.00193992 -0.000996123 2.90888e-05)
(-0.000335689 -0.000134316 -2.99741e-06)
(-0.00039312 -0.000192006 -5.37695e-05)
(-0.000437779 -0.000269219 -4.48128e-05)
(-0.000505049 -0.000354106 -1.50528e-05)
(-0.000599408 -0.000441146 2.81917e-05)
(-0.000715004 -0.000519524 7.87366e-05)
(-0.000840573 -0.000581553 0.000133008)
(-0.000965371 -0.000623602 0.000185366)
(-0.00108146 -0.000647387 0.000229806)
(-0.00118342 -0.000658261 0.000261932)
(-0.00126951 -0.000663502 0.000280565)
(-0.00134088 -0.000669294 0.00028741)
(-0.00140179 -0.000679638 0.000285748)
(-0.00145712 -0.000695495 0.000278694)
(-0.00150997 -0.000715636 0.000268257)
(-0.00156314 -0.000739198 0.00025578)
(-0.00161753 -0.000765077 0.000241624)
(-0.00167316 -0.000792527 0.000225636)
(-0.00172939 -0.000820893 0.000207037)
(-0.00178569 -0.000849523 0.000185179)
(-0.00184003 -0.000877197 0.00015833)
(-0.00189203 -0.000902978 0.000125087)
(-0.00193471 -0.000924219 8.18784e-05)
(-0.00196253 -0.00093792 2.82006e-05)
(-0.000314102 -0.000106265 5.22993e-06)
(-0.000371341 -0.000156785 -5.02536e-05)
(-0.000409198 -0.000223281 -4.90139e-05)
(-0.000469107 -0.000301684 -2.63971e-05)
(-0.000559128 -0.000385675 9.68305e-06)
(-0.000674452 -0.000465173 5.43138e-05)
(-0.000802972 -0.000530616 0.000104949)
(-0.000933457 -0.000576745 0.000156114)
(-0.00105655 -0.000603804 0.000201313)
(-0.00116631 -0.000616893 0.000235616)
(-0.00125956 -0.000622876 0.000256999)
(-0.00133756 -0.00062842 0.000266704)
(-0.00140412 -0.00063771 0.000267662)
(-0.00146354 -0.000651853 0.000262811)
(-0.00151947 -0.000670113 0.000254305)
(-0.0015747 -0.000691739 0.000243529)
(-0.00163028 -0.000715611 0.000230894)
(-0.00168642 -0.000741004 0.000216322)
(-0.0017426 -0.000767253 0.000199036)
(-0.00179845 -0.000793714 0.000178454)
(-0.00185203 -0.000819218 0.00015285)
(-0.00190331 -0.000842967 0.000120962)
(-0.00194504 -0.000862466 7.92584e-05)
(-0.00197248 -0.000875053 2.72602e-05)
(-0.000282689 -7.75999e-05 1.2473e-05)
(-0.000341536 -0.000124228 -4.83784e-05)
(-0.000371882 -0.000179511 -5.07241e-05)
(-0.000422394 -0.000249271 -3.51255e-05)
(-0.000505833 -0.000328007 -7.21384e-06)
(-0.00061948 -0.000407337 3.01658e-05)
(-0.00075144 -0.000476474 7.59079e-05)
(-0.000887826 -0.00052696 0.0001249)
(-0.00101852 -0.000557741 0.000170368)
(-0.00113608 -0.000572959 0.000206612)
(-0.00123761 -0.000579966 0.000231019)
(-0.00132294 -0.000585244 0.000243954)
(-0.00139533 -0.000593235 0.000247871)
(-0.00145938 -0.000605622 0.000245631)
(-0.00151842 -0.000621799 0.000239338)
(-0.00157555 -0.000641253 0.000230477)
(-0.00163214 -0.000662943 0.000219545)
(-0.00168848 -0.000686123 0.000206524)
(-0.00174418 -0.000710116 0.000190648)
(-0.00179918 -0.000734308 0.000171422)
(-0.00185155 -0.000757585 0.000147121)
(-0.00190177 -0.00077928 0.000116654)
(-0.00194224 -0.00079705 7.65249e-05)
(-0.00196895 -0.000808434 2.62741e-05)
(-0.000246536 -5.13998e-05 1.85084e-05)
(-0.000306137 -9.51508e-05 -4.7435e-05)
(-0.000329946 -0.000140508 -5.08484e-05)
(-0.000369946 -0.00020041 -4.12427e-05)
(-0.000444594 -0.000272129 -2.17137e-05)
(-0.000554258 -0.000349412 7.36041e-06)
(-0.000686637 -0.000420279 4.66505e-05)
(-0.000828361 -0.000475003 9.22315e-05)
(-0.000966552 -0.000509691 0.000137168)
(-0.00109318 -0.000527768 0.00017522)
(-0.00120293 -0.000535605 0.000202627)
(-0.00129582 -0.000540401 0.000219046)
(-0.00137479 -0.000547061 0.000226367)
(-0.0014435 -0.000557394 0.000227075)
(-0.00150592 -0.000571373 0.000223351)
(-0.00156509 -0.00058856 0.000216686)
(-0.00162249 -0.000607927 0.000207646)
(-0.00167869 -0.00062877 0.000196316)
(-0.00173346 -0.000650415 0.00018194)
(-0.001787 -0.000672249 0.000164124)
(-0.00183753 -0.000693219 0.000141162)
(-0.00188603 -0.000712764 0.000112157)
(-0.00192459 -0.00072873 7.36599e-05)
(-0.0019505 -0.00073897 2.52399e-05)
(-0.000202546 -2.85298e-05 2.24932e-05)
(-0.000261099 -6.8176e-05 -4.54217e-05)
(-0.000279416 -0.000104555 -4.92061e-05)
(-0.000307704 -0.000153172 -4.40892e-05)
(-0.00037017 -0.00021515 -3.25931e-05)
(-0.000472957 -0.000288048 -1.29401e-05)
(-0.000606891 -0.000361287 1.81893e-05)
(-0.000753537 -0.000420423 5.87156e-05)
(-0.000899868 -0.000459905 0.000102128)
(-0.00103499 -0.000480912 0.000141331)
(-0.00115427 -0.000490271 0.000171813)
(-0.00125575 -0.000494858 0.000192039)
(-0.00134135 -0.000499934 0.000203079)
(-0.00141537 -0.000508176 0.000207186)
(-0.00148116 -0.000519737 0.000206352)
(-0.00154209 -0.000534429 0.000202125)
(-0.00160009 -0.000551373 0.000195181)
(-0.00165577 -0.000569811 0.000185684)
(-0.00170911 -0.000589072 0.000172897)
(-0.00176078 -0.000608575 0.000156564)
(-0.00180901 -0.000627315 0.000134987)
(-0.00185549 -0.000644807 0.000107503)
(-0.00189187 -0.000659087 7.06987e-05)
(-0.00191651 -0.000668127 2.41634e-05)
(-0.000156182 -1.11972e-05 2.42976e-05)
(-0.00021261 -4.56706e-05 -4.25469e-05)
(-0.000227988 -7.48771e-05 -4.69233e-05)
(-0.000246177 -0.000113036 -4.44922e-05)
(-0.00029489 -0.000164019 -3.94279e-05)
(-0.000387597 -0.000230139 -2.94315e-05)
(-0.000515148 -0.000301016 -8.10224e-06)
(-0.000665181 -0.000364241 2.5646e-05)
(-0.000818346 -0.000408549 6.60229e-05)
(-0.000963445 -0.000433851 0.000105747)
(-0.00109174 -0.000444845 0.000138911)
(-0.0012015 -0.000449181 0.000162953)
(-0.00129461 -0.000452887 0.000178098)
(-0.00137385 -0.000458814 0.00018592)
(-0.00144332 -0.000467906 0.000188354)
(-0.00150621 -0.000480098 0.000186877)
(-0.00156455 -0.000494548 0.000182228)
(-0.0016193 -0.000510569 0.000174704)
(-0.00167071 -0.000527479 0.000163588)
(-0.00171975 -0.000544656 0.000148771)
(-0.00176491 -0.000561187 0.000128593)
(-0.00180856 -0.000576598 0.000102657)
(-0.00184194 -0.000589187 6.75987e-05)
(-0.00186531 -0.000597159 2.30361e-05)
(-0.000103022 1.65969e-06 2.31543e-05)
(-0.00015459 -2.60481e-05 -3.74062e-05)
(-0.000168232 -4.82855e-05 -4.2765e-05)
(-0.000175933 -7.52259e-05 -4.1073e-05)
(-0.000208168 -0.000112163 -4.01435e-05)
(-0.000283113 -0.000166722 -3.89611e-05)
(-0.000410448 -0.000238363 -2.9157e-05)
(-0.000561578 -0.000304622 -5.28131e-06)
(-0.000722301 -0.000355419 3.01342e-05)
(-0.000875506 -0.000385267 6.89024e-05)
(-0.00101401 -0.000399271 0.000104262)
(-0.00113335 -0.000404281 0.000132136)
(-0.00123361 -0.000406627 0.000151485)
(-0.00131871 -0.000410444 0.000163396)
(-0.00139167 -0.000416959 0.000169392)
(-0.00145609 -0.00042652 0.000170896)
(-0.00151448 -0.000438474 0.000168742)
(-0.00156785 -0.000452121 0.000163327)
(-0.00161672 -0.000466754 0.000153957)
(-0.00166275 -0.000481787 0.000140722)
(-0.00170444 -0.000496305 0.000121983)
(-0.001745 -0.000509835 9.76525e-05)
(-0.00177524 -0.000520985 6.44038e-05)
(-0.00179676 -0.000527863 2.18637e-05)
(-5.5244e-05 8.89825e-06 2.11436e-05)
(-0.000100362 -1.22637e-05 -3.22228e-05)
(-0.000115226 -2.83292e-05 -3.8244e-05)
(-0.000120606 -4.76948e-05 -3.73305e-05)
(-0.000140847 -7.36044e-05 -3.6065e-05)
(-0.000203885 -0.000113992 -4.16293e-05)
(-0.000299507 -0.000171785 -4.53364e-05)
(-0.000448753 -0.000244008 -3.16737e-05)
(-0.000612525 -0.000299833 -3.79645e-06)
(-0.000775414 -0.000336554 3.24144e-05)
(-0.000922764 -0.000354221 6.88148e-05)
(-0.00105024 -0.000360252 9.99356e-05)
(-0.00115849 -0.000362023 0.000123552)
(-0.001249 -0.000363817 0.000139677)
(-0.00132573 -0.000367961 0.000149544)
(-0.00139183 -0.000375056 0.000154307)
(-0.00144995 -0.00038459 0.000154825)
(-0.00150143 -0.000395965 0.000151639)
(-0.00154721 -0.000408481 0.000144079)
(-0.0015893 -0.000421452 0.000132428)
(-0.00162653 -0.000434035 0.000115114)
(-0.00166318 -0.000445741 9.2418e-05)
(-0.00168917 -0.000455456 6.10327e-05)
(-0.00170898 -0.000461447 2.06278e-05)
(-1.09479e-05 8.34042e-06 1.51324e-05)
(-3.72094e-05 -2.45702e-06 -1.83065e-05)
(-5.43383e-05 -1.20261e-05 -2.75121e-05)
(-4.83946e-05 -1.94078e-05 -2.48239e-05)
(-4.81596e-05 -2.84953e-05 -2.10675e-05)
(-8.49757e-05 -5.66602e-05 -2.64233e-05)
(-0.000216311 -0.00011859 -4.24371e-05)
(-0.000323684 -0.000174827 -5.00661e-05)
(-0.000491819 -0.000241997 -3.29485e-05)
(-0.000660044 -0.00028524 -2.17967e-06)
(-0.000816628 -0.000308657 3.36337e-05)
(-0.000953789 -0.000317671 6.72418e-05)
(-0.00106881 -0.000319376 9.46626e-05)
(-0.00116518 -0.000319838 0.00011506)
(-0.00124507 -0.000321781 0.000128915)
(-0.00131212 -0.000326505 0.000137071)
(-0.00136954 -0.000333795 0.000140401)
(-0.0014186 -0.000343078 0.000139547)
(-0.00146061 -0.000353655 0.000133841)
(-0.00149851 -0.000364875 0.000123834)
(-0.00153119 -0.000375856 0.000107986)
(-0.00156359 -0.000385948 8.69759e-05)
(-0.00158556 -0.000394624 5.75462e-05)
(-0.00160298 -0.000399721 1.93378e-05)
(7.87719e-06 1.09824e-05 1.48556e-05)
(-1.91841e-06 1.27846e-06 -1.25652e-05)
(-1.32993e-05 -3.83351e-06 -2.22239e-05)
(-3.02296e-05 -1.79627e-05 -4.69799e-05)
(-2.09746e-05 -3.17426e-05 -2.97402e-05)
(-2.99581e-05 -2.68648e-05 -2.48402e-05)
(-6.89436e-05 -8.97321e-05 -3.45031e-05)
(-0.000218495 -0.00012164 -2.2258e-05)
(-0.000362327 -0.000173754 -5.47138e-05)
(-0.000536386 -0.000232989 -3.23909e-05)
(-0.000700156 -0.000263206 5.94379e-07)
(-0.000843323 -0.000275756 3.50033e-05)
(-0.000965752 -0.000279023 6.55323e-05)
(-0.00106684 -0.000278763 8.98345e-05)
(-0.00115006 -0.000279181 0.000107734)
(-0.00121802 -0.000281993 0.000119404)
(-0.00127429 -0.000287346 0.000125628)
(-0.00132034 -0.000294782 0.000127161)
(-0.001358 -0.000303678 0.000123328)
(-0.00139058 -0.000313268 0.000114921)
(-0.00141731 -0.000322667 0.000100476)
(-0.00144498 -0.000331266 8.12117e-05)
(-0.0014615 -0.000338856 5.38069e-05)
(-0.00147671 -0.000343282 1.79582e-05)
(2.7169e-05 1.31888e-05 2.40992e-05)
(2.87331e-05 6.63005e-06 -1.18604e-05)
(2.03529e-05 9.24849e-07 -2.03599e-05)
(1.61189e-06 -1.31069e-05 -2.93416e-05)
(-3.22522e-06 -1.68078e-05 -3.07864e-05)
(-3.84851e-05 -3.10612e-05 -3.48373e-05)
(-4.39602e-05 -4.3602e-05 -3.7739e-05)
(-7.80926e-05 -5.80008e-05 -2.67843e-05)
(-0.000255066 -0.000118278 -5.19528e-05)
(-0.000404924 -0.000174281 -5.54352e-05)
(-0.000570975 -0.000215601 -2.85022e-05)
(-0.000722708 -0.000234774 4.89251e-06)
(-0.000849799 -0.000240494 3.70191e-05)
(-0.000955722 -0.000240893 6.4612e-05)
(-0.00104084 -0.000240351 8.62532e-05)
(-0.00110865 -0.000241724 0.000101326)
(-0.001163 -0.000245546 0.000110404)
(-0.00120543 -0.000251453 0.000114328)
(-0.00123812 -0.000258942 0.000112358)
(-0.00126542 -0.00026727 0.000105591)
(-0.00128699 -0.00027556 9.26258e-05)
(-0.00130935 -0.000282722 7.51408e-05)
(-0.00132102 -0.000289633 4.98983e-05)
(-0.00133361 -0.000293457 1.65105e-05)
(4.60054e-05 1.37555e-05 3.3578e-05)
(5.50658e-05 7.90646e-06 -9.69329e-06)
(5.50369e-05 -1.21167e-06 -1.22088e-05)
(4.62856e-05 -1.39394e-05 2.79617e-06)
(9.78321e-06 1.04753e-05 -4.5059e-06)
(1.12242e-05 -1.41225e-05 -1.38729e-05)
(-3.39655e-05 1.50093e-05 -2.49449e-05)
(-2.77387e-05 -1.9139e-05 -4.03021e-05)
(-9.78435e-05 -7.88906e-05 -4.09023e-05)
(-0.000271262 -0.000125646 -4.99104e-05)
(-0.000440634 -0.000166491 -4.93345e-05)
(-0.000591874 -0.000193064 -2.15938e-05)
(-0.000724063 -0.000203584 1.0415e-05)
(-0.000832369 -0.000205623 4.005e-05)
(-0.00091943 -0.00020539 6.49695e-05)
(-0.000986481 -0.000206043 8.31939e-05)
(-0.00103857 -0.000209032 9.49963e-05)
(-0.00107673 -0.000213757 0.000101218)
(-0.00110379 -0.000220119 0.000101035)
(-0.00112458 -0.000227233 9.57932e-05)
(-0.00113866 -0.000234145 8.41441e-05)
(-0.00115599 -0.000239932 6.85708e-05)
(-0.00116168 -0.000246075 4.56214e-05)
(-0.00117141 -0.00024939 1.49311e-05)
(5.86312e-05 1.65038e-05 3.85111e-05)
(7.38758e-05 1.07174e-05 -1.03463e-05)
(7.79557e-05 2.97675e-06 -1.76803e-05)
(7.37031e-05 -7.92129e-06 -1.92326e-05)
(5.39837e-05 -2.4185e-05 -2.02711e-05)
(4.74961e-05 -2.42978e-05 -1.92232e-05)
(1.3625e-05 -2.79986e-05 -1.79825e-05)
(-2.49738e-05 -1.80739e-05 -3.80024e-05)
(-4.95558e-05 -4.60358e-05 -4.23236e-05)
(-0.000139994 -6.89064e-05 -4.03331e-05)
(-0.000300947 -0.000114539 -5.95501e-05)
(-0.000458706 -0.000151575 -4.16201e-05)
(-0.000590101 -0.000166942 -1.28491e-05)
(-0.000700761 -0.000172594 1.71943e-05)
(-0.000787065 -0.000173429 4.4372e-05)
(-0.000852249 -0.000174294 6.51989e-05)
(-0.000900208 -0.000176949 7.92742e-05)
(-0.000933432 -0.000180828 8.75847e-05)
(-0.000954633 -0.000186386 8.90918e-05)
(-0.000969446 -0.000192552 8.53854e-05)
(-0.000978906 -0.000198781 7.52374e-05)
(-0.000990623 -0.000202976 6.15798e-05)
(-0.000990525 -0.000208446 4.10813e-05)
(-0.000997874 -0.000211396 1.32713e-05)
(6.7342e-05 1.61142e-05 3.97015e-05)
(8.78021e-05 1.02269e-05 -1.14058e-05)
(9.60623e-05 2.85518e-06 -2.02656e-05)
(9.69548e-05 -8.88527e-06 -2.47629e-05)
(9.0557e-05 -2.07188e-05 -2.59441e-05)
(7.89073e-05 -3.02949e-05 -2.37431e-05)
(5.83646e-05 -3.26208e-05 -1.52196e-05)
(2.34237e-05 -2.97543e-05 -5.85881e-06)
(-3.00928e-05 3.67588e-06 -2.23518e-05)
(-3.33295e-05 -1.33078e-05 -2.20958e-05)
(-0.000181635 -6.87017e-05 -5.6963e-05)
(-0.000320498 -0.000107656 -5.36373e-05)
(-0.000454934 -0.000131251 -3.09957e-05)
(-0.000562599 -0.000140325 -2.93456e-06)
(-0.000647941 -0.000143732 2.52654e-05)
(-0.00070876 -0.000145049 4.7811e-05)
(-0.0007541 -0.000149107 6.37264e-05)
(-0.000781936 -0.000152396 7.37569e-05)
(-0.000796493 -0.000157352 7.67029e-05)
(-0.000804158 -0.000162276 7.43041e-05)
(-0.000804721 -0.00016703 6.52996e-05)
(-0.000811369 -0.000169075 5.37944e-05)
(-0.000806503 -0.000173811 3.60379e-05)
(-0.000810614 -0.000176409 1.14284e-05)
(7.25965e-05 1.41568e-05 3.9121e-05)
(9.63377e-05 8.36647e-06 -1.10898e-05)
(0.000107846 1.75389e-06 -2.10522e-05)
(0.000112176 -9.75543e-06 -2.6811e-05)
(0.000109867 -2.22671e-05 -2.89039e-05)
(0.000101354 -3.27463e-05 -2.74158e-05)
(8.56738e-05 -3.92401e-05 -2.25272e-05)
(5.73953e-05 -3.58755e-05 -1.35929e-05)
(6.56214e-06 -2.41629e-05 -1.76586e-05)
(-1.42785e-05 -8.78743e-06 -1.814e-05)
(-5.12085e-05 -2.05193e-05 -2.42745e-05)
(-0.000202257 -6.48071e-05 -5.40997e-05)
(-0.000316642 -9.3125e-05 -4.32706e-05)
(-0.000425926 -0.000109332 -1.87319e-05)
(-0.000506618 -0.000115354 8.5682e-06)
(-0.000564986 -0.000118756 3.16285e-05)
(-0.000599773 -0.000123247 4.80285e-05)
(-0.00062142 -0.000125847 5.933e-05)
(-0.000630036 -0.000130599 6.35125e-05)
(-0.000631969 -0.000134092 6.24403e-05)
(-0.000630859 -0.000138624 5.50763e-05)
(-0.000634694 -0.000138441 4.56709e-05)
(-0.000623168 -0.000142704 3.06248e-05)
(-0.000624255 -0.000144375 9.49352e-06)
(7.19218e-05 1.12376e-05 3.7367e-05)
(9.78494e-05 6.25173e-06 -9.48275e-06)
(0.000110481 9.28414e-07 -2.01217e-05)
(0.00011763 -9.51368e-06 -2.68791e-05)
(0.00011874 -2.1816e-05 -2.99526e-05)
(0.000114109 -3.32002e-05 -2.9401e-05)
(0.000103604 -4.11328e-05 -2.5447e-05)
(8.51039e-05 -4.34558e-05 -2.02787e-05)
(5.07635e-05 -3.5326e-05 -1.66331e-05)
(2.69136e-06 -1.98866e-05 -2.76777e-05)
(-1.89702e-05 -1.25249e-05 -1.87297e-05)
(-8.11855e-05 -2.82598e-05 -3.16832e-05)
(-0.000206864 -5.31873e-05 -4.47537e-05)
(-0.000289571 -7.53536e-05 -3.10976e-05)
(-0.000363429 -8.57478e-05 -5.40142e-06)
(-0.000405869 -8.96529e-05 1.70702e-05)
(-0.000449235 -9.92387e-05 3.37529e-05)
(-0.000465465 -0.000101246 4.51042e-05)
(-0.000467413 -0.000105707 4.99834e-05)
(-0.000462333 -0.000106354 4.9785e-05)
(-0.000451313 -0.000110366 4.31784e-05)
(-0.000446236 -0.000106644 3.6276e-05)
(-0.000429421 -0.00010637 2.47397e-05)
(-0.000430605 -0.000104274 7.45038e-06)
(6.57905e-05 7.87832e-06 3.40487e-05)
(9.26867e-05 3.8077e-06 -7.02668e-06)
(0.000106015 -5.03242e-07 -1.72052e-05)
(0.000114336 -9.20067e-06 -2.43092e-05)
(0.000118723 -2.06045e-05 -2.83985e-05)
(0.000118044 -3.23072e-05 -2.90247e-05)
(0.000112396 -4.17179e-05 -2.63485e-05)
(0.000100535 -4.65518e-05 -2.14883e-05)
(7.97186e-05 -4.42385e-05 -1.61716e-05)
(4.30127e-05 -3.12527e-05 -1.61342e-05)
(-5.46225e-06 -1.44817e-05 -3.13047e-05)
(-2.86757e-05 -1.28324e-05 -2.48209e-05)
(-8.83566e-05 -3.01093e-05 -2.95729e-05)
(-0.000186977 -4.11978e-05 -3.01455e-05)
(-0.00025103 -5.25445e-05 -1.26245e-05)
(-0.000301693 -4.70886e-05 5.31726e-06)
(-0.000299765 -7.3973e-05 1.66756e-05)
(-0.000306031 -7.1569e-05 3.03257e-05)
(-0.000305102 -7.92006e-05 3.56151e-05)
(-0.000299421 -7.23971e-05 3.66389e-05)
(-0.00028964 -7.96721e-05 3.28868e-05)
(-0.000294769 -6.38665e-05 2.88814e-05)
(-0.00029765 -5.97343e-05 1.83998e-05)
(-0.000312418 -6.18576e-05 4.84938e-06)
(5.67765e-05 4.5994e-06 2.97373e-05)
(8.32485e-05 1.04786e-06 -4.67942e-06)
(9.65926e-05 -2.61309e-06 -1.35e-05)
(0.000105533 -9.88548e-06 -1.99523e-05)
(0.000111534 -1.94347e-05 -2.43561e-05)
(0.000114585 -3.0356e-05 -2.61935e-05)
(0.000113506 -4.0289e-05 -2.51084e-05)
(0.000107418 -4.69839e-05 -2.17067e-05)
(9.40638e-05 -4.79808e-05 -1.68403e-05)
(6.86934e-05 -4.05547e-05 -1.41015e-05)
(3.09819e-05 -2.71407e-05 -1.71093e-05)
(-1.90101e-05 -9.38283e-06 -3.68602e-05)
(-4.21255e-05 -2.10477e-05 -3.44643e-05)
(-7.84789e-05 -2.86837e-05 -2.42559e-05)
(-0.000131005 -3.90278e-05 -1.97637e-05)
(-0.000169942 -5.24765e-05 -3.52532e-06)
(-0.000177008 -4.73501e-05 1.14163e-05)
(-0.000202916 -3.8231e-05 1.77828e-05)
(-0.000177508 -4.8742e-05 2.18168e-05)
(-0.000192057 -4.19506e-05 2.35855e-05)
(-0.000155612 -4.68727e-05 2.16846e-05)
(-0.000168728 -3.53224e-05 1.54606e-05)
(-0.000144007 -6.64188e-05 8.76258e-06)
(-0.00014457 -9.94944e-05 3.50378e-06)
(4.74846e-05 2.39384e-06 2.57687e-05)
(7.21677e-05 -1.25577e-06 -3.30137e-06)
(8.47055e-05 -4.89689e-06 -1.03915e-05)
(9.35569e-05 -1.12026e-05 -1.55298e-05)
(0.000100269 -1.92693e-05 -1.9362e-05)
(0.000105537 -2.85157e-05 -2.16138e-05)
(0.000108442 -3.78817e-05 -2.18387e-05)
(0.000107469 -4.53362e-05 -2.01863e-05)
(0.00010073 -4.90814e-05 -1.68458e-05)
(8.41119e-05 -4.72973e-05 -1.41373e-05)
(5.67558e-05 -3.67261e-05 -1.1691e-05)
(1.47611e-05 -2.05747e-05 -1.75361e-05)
(-2.40636e-05 -2.42088e-06 -4.08959e-05)
(-3.97805e-05 -2.29571e-05 -3.67108e-05)
(-6.61298e-05 -3.25521e-05 -2.73412e-05)
(-7.34882e-05 -4.80664e-05 -8.49211e-06)
(-7.08438e-05 -2.61437e-05 3.66431e-06)
(-8.15053e-05 -4.73637e-05 2.99032e-06)
(-5.6779e-05 -2.25215e-05 5.79725e-06)
(-8.4661e-05 -7.41206e-05 1.01949e-05)
(-3.81926e-05 -1.88542e-05 5.76753e-06)
(-7.0461e-05 -4.08758e-05 5.88968e-06)
(-5.89535e-05 -5.81681e-05 1.08117e-05)
(-6.35492e-05 -6.51194e-05 6.09237e-06)
(3.83157e-05 1.14436e-06 2.19761e-05)
(6.06008e-05 -2.88917e-06 -2.79528e-06)
(7.19246e-05 -6.93365e-06 -8.2928e-06)
(8.02983e-05 -1.28593e-05 -1.19986e-05)
(8.72388e-05 -1.99661e-05 -1.47555e-05)
(9.35671e-05 -2.77177e-05 -1.66531e-05)
(9.91666e-05 -3.57136e-05 -1.7471e-05)
(0.000102104 -4.27193e-05 -1.71225e-05)
(0.000100808 -4.77348e-05 -1.57297e-05)
(9.18486e-05 -4.94309e-05 -1.38673e-05)
(7.31616e-05 -4.53946e-05 -1.23498e-05)
(3.98112e-05 -3.09556e-05 -1.23857e-05)
(4.54206e-06 -1.68373e-05 -2.26655e-05)
(-1.84773e-05 1.98542e-06 -3.53234e-05)
(-2.40725e-05 -4.70183e-06 -2.45349e-05)
(-4.14338e-05 5.63165e-06 -2.01964e-05)
(-1.49254e-05 -1.17595e-05 -8.94558e-06)
(-3.49334e-05 -4.11704e-05 -3.31348e-06)
(-1.93608e-05 -2.37958e-05 7.78062e-07)
(-2.61155e-05 -4.12763e-05 8.16695e-06)
(-1.18364e-05 -2.42393e-05 3.22253e-06)
(-1.7703e-05 -2.91211e-05 1.46406e-05)
(-2.40133e-05 1.61328e-07 1.98001e-05)
(-2.66881e-05 1.43181e-05 4.6092e-06)
(3.08304e-05 2.72993e-07 1.85853e-05)
(5.0388e-05 -4.327e-06 -2.82433e-06)
(6.02999e-05 -8.96653e-06 -6.99963e-06)
(6.79666e-05 -1.48822e-05 -9.42752e-06)
(7.48207e-05 -2.14681e-05 -1.10561e-05)
(8.16093e-05 -2.82045e-05 -1.22573e-05)
(8.8295e-05 -3.47048e-05 -1.30793e-05)
(9.36754e-05 -4.06795e-05 -1.34567e-05)
(9.61304e-05 -4.55118e-05 -1.33901e-05)
(9.34208e-05 -4.895e-05 -1.31547e-05)
(8.25755e-05 -4.8712e-05 -1.27813e-05)
(5.97614e-05 -4.16802e-05 -1.45781e-05)
(2.78666e-05 -2.76073e-05 -2.05203e-05)
(4.03649e-07 -1.61975e-05 -2.5781e-05)
(-1.02661e-05 -6.7234e-06 -3.03292e-05)
(-2.01429e-05 5.67656e-07 -2.58785e-05)
(-2.36294e-06 -1.30779e-05 -1.93089e-05)