/*--------------------------------*- C++ -*----------------------------------*\
  =========                 |
  \\      /  F ield         | OpenFOAM: The Open Source CFD Toolbox
   \\    /   O peration     | Website:  https://openfoam.org
    \\  /    A nd           | Version:  6
     \\/     M anipulation  |
\*---------------------------------------------------------------------------*/
FoamFile
{
    version     2.0;
    format      ascii;
    class       volScalarField;
    location    "15";
    object      p;
}
// * * * * * * * * * * * * * * * * * * * * * * * * * * * * * * * * * * * * * //

dimensions      [0 2 -2 0 0 0 0];

internalField   nonuniform List<scalar> 
380496
(
0.0141729
0.0146468
0.014247
0.0141463
0.0140349
0.0139205
0.0138122
0.0137035
0.0135953
0.0134881
0.013382
0.0132773
0.013174
0.0130721
0.0129716
0.0128722
0.0127737
0.0126758
0.012578
0.0124799
0.0123809
0.0122805
0.0121781
0.012073
0.0119645
0.0118519
0.0117347
0.0116118
0.0114833
0.0113476
0.0112063
0.0110554
0.0109048
0.0107357
0.0105961
0.0141486
0.0146152
0.0142275
0.0141311
0.0140229
0.0139102
0.013802
0.0136924
0.0135824
0.0134727
0.0133634
0.0132549
0.0131473
0.0130406
0.0129348
0.0128295
0.0127247
0.0126199
0.0125147
0.0124088
0.0123016
0.0121926
0.0120813
0.011967
0.0118493
0.0117273
0.0116008
0.0114686
0.0113311
0.011186
0.0110363
0.010874
0.0107144
0.010521
0.0103711
0.0141209
0.0145827
0.0142062
0.0141146
0.0140095
0.013898
0.0137893
0.0136781
0.0135655
0.0134523
0.013339
0.0132259
0.0131131
0.0130007
0.0128885
0.0127763
0.012664
0.0125512
0.0124374
0.0123223
0.0122054
0.0120861
0.011964
0.0118385
0.0117092
0.0115753
0.0114368
0.0112924
0.011143
0.010986
0.0108256
0.0106526
0.0104864
0.0102848
0.0101383
0.0140853
0.0145473
0.0141846
0.0140995
0.0139984
0.0138889
0.0137802
0.0136678
0.0135531
0.0134372
0.0133205
0.0132035
0.0130863
0.012969
0.0128515
0.0127336
0.012615
0.0124955
0.0123747
0.0122522
0.0121275
0.0120001
0.0118698
0.0117358
0.0115979
0.0114555
0.0113084
0.0111557
0.0109983
0.0108333
0.0106655
0.0104843
0.0103114
0.0100991
0.00994694
0.0140529
0.0145095
0.0141632
0.0140852
0.0139883
0.0138804
0.0137714
0.0136574
0.0135401
0.013421
0.0133005
0.0131792
0.0130573
0.0129349
0.0128118
0.0126879
0.0125629
0.0124365
0.0123084
0.0121782
0.0120455
0.0119098
0.0117709
0.0116281
0.0114814
0.01133
0.0111741
0.0110126
0.0108467
0.0106736
0.0104984
0.0103102
0.0101322
0.00991441
0.00976178
0.0140073
0.0144692
0.0141417
0.0140723
0.0139804
0.0138744
0.0137652
0.0136497
0.0135301
0.013408
0.0132841
0.0131589
0.0130328
0.0129057
0.0127776
0.0126484
0.0125177
0.0123853
0.0122509
0.0121141
0.0119745
0.0118318
0.0116857
0.0115358
0.0113818
0.0112233
0.0110604
0.0108922
0.0107199
0.0105408
0.0103601
0.0101663
0.00998399
0.00976086
0.00960575
0.013959
0.0144268
0.0141209
0.0140612
0.0139746
0.0138704
0.0137606
0.0136433
0.0135211
0.0133958
0.0132683
0.0131392
0.0130087
0.0128771
0.0127441
0.0126096
0.0124734
0.0123352
0.0121947
0.0120515
0.0119054
0.011756
0.0116031
0.0114462
0.0112854
0.0111202
0.0109507
0.0107762
0.010598
0.0104132
0.0102275
0.0100292
0.00984363
0.00961694
0.0094615
0.0139006
0.0143835
0.014102
0.0140532
0.0139721
0.0138692
0.0137586
0.0136393
0.0135144
0.013386
0.0132551
0.0131223
0.0129879
0.012852
0.0127146
0.0125754
0.0124343
0.0122909
0.012145
0.0119962
0.0118444
0.0116892
0.0115304
0.0113678
0.0112012
0.0110304
0.0108556
0.010676
0.0104931
0.010304
0.0101146
0.00991271
0.00972473
0.00949501
0.00933929
0.0138309
0.0143404
0.0140847
0.0140482
0.0139727
0.0138708
0.0137591
0.0136376
0.0135099
0.0133785
0.0132442
0.013108
0.01297
0.0128304
0.012689
0.0125457
0.0124001
0.0122522
0.0121016
0.0119481
0.0117913
0.0116312
0.0114674
0.0112998
0.0111285
0.010953
0.0107737
0.0105899
0.0104031
0.0102105
0.0100182
0.00981355
0.00962396
0.00939196
0.00923671
0.013761
0.0143053
0.0140732
0.0140479
0.0139768
0.0138748
0.0137615
0.0136376
0.0135073
0.0133731
0.013236
0.0130968
0.0129558
0.012813
0.0126682
0.0125215
0.0123723
0.0122207
0.0120663
0.0119088
0.0117481
0.011584
0.0114163
0.0112448
0.0110696
0.0108905
0.0107078
0.0105209
0.0103312
0.0101361
0.00994167
0.00973507
0.00954454
0.00931068
0.00915626
0.0136692
0.0142702
0.0140624
0.0140502
0.0139837
0.0138811
0.0137659
0.0136395
0.0135064
0.0133694
0.0132295
0.0130875
0.0129437
0.012798
0.0126502
0.0125004
0.0123481
0.0121932
0.0120354
0.0118746
0.0117104
0.0115428
0.0113717
0.0111969
0.0110185
0.0108363
0.0106508
0.0104612
0.0102692
0.010072
0.00987603
0.00966789
0.00947687
0.00924148
0.00908852
0.0135758
0.0142465
0.0140581
0.0140577
0.0139939
0.0138893
0.0137716
0.0136424
0.0135065
0.0133669
0.0132245
0.01308
0.0129336
0.0127854
0.0126351
0.0124826
0.0123276
0.0121699
0.0120093
0.0118455
0.0116785
0.011508
0.011334
0.0111565
0.0109754
0.0107908
0.0106029
0.0104113
0.0102175
0.0100187
0.00982162
0.00961234
0.00942122
0.00918446
0.00903335
0.0134517
0.014227
0.0140553
0.0140686
0.0140071
0.0138998
0.0137791
0.0136469
0.0135081
0.0133658
0.013221
0.0130742
0.0129256
0.0127751
0.0126225
0.0124677
0.0123103
0.0121502
0.0119872
0.011821
0.0116514
0.0114786
0.0113022
0.0111224
0.0109391
0.0107524
0.0105627
0.0103694
0.0101742
0.00997425
0.00977638
0.00956634
0.00937546
0.0091377
0.00898901
0.0133219
0.0142237
0.0140589
0.0140842
0.0140223
0.013911
0.013787
0.0136516
0.0135101
0.0133654
0.0132184
0.0130696
0.012919
0.0127665
0.012612
0.0124553
0.0122959
0.0121339
0.0119688
0.0118006
0.011629
0.0114541
0.0112758
0.0110941
0.0109091
0.0107208
0.0105296
0.0103351
0.0101388
0.009938
0.00973961
0.00952909
0.00933846
0.00909986
0.00895343
0.0131596
0.0142327
0.0140661
0.0141048
0.0140411
0.0139247
0.0137967
0.0136578
0.0135134
0.0133663
0.0132172
0.0130665
0.0129142
0.0127601
0.0126039
0.0124455
0.0122845
0.0121208
0.011954
0.0117841
0.0116109
0.0114344
0.0112545
0.0110713
0.0108849
0.0106953
0.010503
0.0103075
0.0101105
0.00990918
0.00971052
0.00949997
0.00930981
0.00907147
0.00892749
0.0129788
0.0142615
0.0140777
0.0141274
0.0140592
0.0139371
0.0138052
0.0136631
0.0135162
0.0133671
0.0132163
0.0130641
0.0129103
0.0127549
0.0125974
0.0124377
0.0122754
0.0121103
0.0119423
0.0117711
0.0115966
0.0114188
0.0112377
0.0110533
0.0108658
0.0106752
0.010482
0.0102859
0.0100883
0.0098867
0.00968782
0.00947741
0.00928702
0.009049
0.00890456
0.0127755
0.0143105
0.0140959
0.0141572
0.0140817
0.0139523
0.0138157
0.0136701
0.0135206
0.0133695
0.0132171
0.0130635
0.0129086
0.0127519
0.0125934
0.0124326
0.0122693
0.0121031
0.0119341
0.0117618
0.0115863
0.0114075
0.0112255
0.0110402
0.0108519
0.0106606
0.0104669
0.0102702
0.0100724
0.00987069
0.00967186
0.00946223
0.00927215
0.00903727
0.00889297
0.0125357
0.0143822
0.0141133
0.0141831
0.0140992
0.0139637
0.0138236
0.0136753
0.0135239
0.0133713
0.0132178
0.0130632
0.0129074
0.0127499
0.0125906
0.012429
0.0122649
0.012098
0.0119282
0.0117552
0.011579
0.0113995
0.0112169
0.0110309
0.0108421
0.0106503
0.0104561
0.0102591
0.0100612
0.00985946
0.00966052
0.00945162
0.00925985
0.00902692
0.00887229
0.0122916
0.0144702
0.0141416
0.0142197
0.0141239
0.0139806
0.0138357
0.013684
0.0135304
0.0133762
0.0132214
0.0130658
0.0129091
0.0127509
0.0125909
0.0124287
0.012264
0.0120965
0.0119262
0.0117526
0.0115759
0.0113959
0.0112128
0.0110264
0.0108373
0.0106451
0.0104508
0.0102536
0.0100557
0.00985412
0.00965557
0.00944806
0.00925754
0.00903181
0.00887895
0.0120257
0.0145734
0.0141648
0.0142485
0.0141416
0.0139928
0.0138447
0.0136908
0.0135357
0.0133804
0.0132247
0.0130684
0.0129111
0.0127524
0.0125919
0.0124292
0.0122642
0.0120963
0.0119256
0.0117517
0.0115748
0.0113944
0.0112112
0.0110245
0.0108353
0.0106428
0.0104485
0.0102511
0.0100532
0.00985181
0.00965324
0.00944674
0.00925314
0.00903078
0.00884594
0.0117748
0.0146813
0.0142109
0.0142925
0.0141707
0.0140135
0.0138599
0.0137024
0.0135447
0.0133877
0.0132307
0.0130735
0.0129155
0.0127562
0.0125953
0.0124323
0.012267
0.0120988
0.011928
0.0117539
0.0115769
0.0113964
0.0112131
0.0110263
0.0108371
0.0106446
0.0104504
0.0102531
0.0100554
0.00985405
0.00965615
0.0094505
0.00926208
0.00904695
0.00890923
0.014176
0.0146397
0.014247
0.0141467
0.0140351
0.0139206
0.0138122
0.0137035
0.0135953
0.0134881
0.013382
0.0132773
0.013174
0.0130721
0.0129716
0.0128722
0.0127737
0.0126758
0.012578
0.0124799
0.0123809
0.0122805
0.0121781
0.012073
0.0119646
0.011852
0.0117347
0.0116119
0.0114834
0.0113476
0.0112064
0.0110555
0.0109049
0.0107358
0.0105962
0.0141515
0.0146082
0.0142275
0.0141314
0.0140231
0.0139103
0.013802
0.0136924
0.0135824
0.0134727
0.0133634
0.0132549
0.0131473
0.0130406
0.0129348
0.0128295
0.0127247
0.0126199
0.0125148
0.0124088
0.0123017
0.0121927
0.0120814
0.0119671
0.0118493
0.0117273
0.0116008
0.0114686
0.0113312
0.0111861
0.0110364
0.0108741
0.0107145
0.0105211
0.0103712
0.0141237
0.0145758
0.0142062
0.014115
0.0140096
0.0138981
0.0137893
0.0136781
0.0135654
0.0134523
0.013339
0.0132259
0.0131131
0.0130007
0.0128885
0.0127763
0.012664
0.0125512
0.0124374
0.0123223
0.0122054
0.0120861
0.011964
0.0118385
0.0117092
0.0115754
0.0114368
0.0112925
0.011143
0.0109861
0.0108257
0.0106527
0.0104865
0.0102849
0.0101383
0.0140881
0.0145405
0.0141846
0.0140998
0.0139985
0.0138889
0.0137802
0.0136678
0.0135531
0.0134372
0.0133205
0.0132035
0.0130863
0.012969
0.0128515
0.0127336
0.0126151
0.0124956
0.0123748
0.0122522
0.0121275
0.0120001
0.0118698
0.0117358
0.011598
0.0114555
0.0113085
0.0111558
0.0109983
0.0108334
0.0106656
0.0104844
0.0103115
0.0100993
0.00994704
0.0140554
0.0145029
0.0141633
0.0140855
0.0139884
0.0138804
0.0137714
0.0136574
0.0135401
0.013421
0.0133005
0.0131792
0.0130573
0.0129349
0.0128118
0.0126879
0.0125629
0.0124365
0.0123084
0.0121782
0.0120455
0.0119098
0.0117709
0.0116281
0.0114814
0.01133
0.0111741
0.0110127
0.0108468
0.0106737
0.0104985
0.0103103
0.0101323
0.00991453
0.00976187
0.0140098
0.0144627
0.0141418
0.0140726
0.0139805
0.0138745
0.0137652
0.0136497
0.0135301
0.013408
0.0132841
0.0131589
0.0130328
0.0129057
0.0127776
0.0126484
0.0125177
0.0123853
0.0122509
0.0121141
0.0119746
0.0118319
0.0116858
0.0115358
0.0113819
0.0112234
0.0110605
0.0108923
0.01072
0.0105409
0.0103602
0.0101665
0.00998411
0.009761
0.00960585
0.0139613
0.0144205
0.0141209
0.0140615
0.0139747
0.0138704
0.0137606
0.0136433
0.0135211
0.0133958
0.0132683
0.0131392
0.0130087
0.0128771
0.0127441
0.0126096
0.0124734
0.0123352
0.0121947
0.0120515
0.0119054
0.011756
0.0116031
0.0114463
0.0112855
0.0111202
0.0109508
0.0107763
0.010598
0.0104133
0.0102276
0.0100293
0.00984375
0.00961708
0.00946159
0.0139028
0.0143775
0.014102
0.0140535
0.0139722
0.0138692
0.0137586
0.0136393
0.0135144
0.013386
0.0132551
0.0131223
0.0129879
0.0128521
0.0127146
0.0125755
0.0124343
0.0122909
0.012145
0.0119962
0.0118444
0.0116892
0.0115305
0.0113678
0.0112013
0.0110305
0.0108557
0.0106761
0.0104932
0.0103041
0.0101147
0.00991284
0.00972486
0.00949515
0.00933939
0.013833
0.0143345
0.0140848
0.0140484
0.0139728
0.0138708
0.0137591
0.0136376
0.0135099
0.0133785
0.0132442
0.013108
0.01297
0.0128304
0.012689
0.0125457
0.0124002
0.0122523
0.0121016
0.0119481
0.0117914
0.0116312
0.0114675
0.0112999
0.0111285
0.010953
0.0107738
0.01059
0.0104032
0.0102106
0.0100183
0.00981367
0.00962409
0.00939211
0.0092368
0.0137629
0.0142996
0.0140733
0.0140481
0.0139769
0.0138748
0.0137615
0.0136376
0.0135073
0.0133731
0.013236
0.0130968
0.0129558
0.012813
0.0126682
0.0125215
0.0123724
0.0122208
0.0120663
0.0119089
0.0117482
0.011584
0.0114163
0.0112449
0.0110697
0.0108906
0.0107079
0.010521
0.0103313
0.0101362
0.00994178
0.00973519
0.00954466
0.00931083
0.00915635
0.0136711
0.0142647
0.0140625
0.0140504
0.0139838
0.0138811
0.0137658
0.0136395
0.0135064
0.0133693
0.0132295
0.0130875
0.0129437
0.012798
0.0126503
0.0125004
0.0123481
0.0121933
0.0120355
0.0118746
0.0117105
0.0115429
0.0113718
0.011197
0.0110186
0.0108364
0.0106508
0.0104613
0.0102693
0.0100721
0.00987614
0.00966801
0.009477
0.00924164
0.0090886
0.0135773
0.0142412
0.0140581
0.0140579
0.0139939
0.0138893
0.0137715
0.0136424
0.0135065
0.0133668
0.0132244
0.01308
0.0129336
0.0127854
0.0126351
0.0124826
0.0123276
0.0121699
0.0120093
0.0118456
0.0116785
0.0115081
0.0113341
0.0111565
0.0109755
0.0107909
0.010603
0.0104114
0.0102176
0.0100188
0.00982173
0.00961247
0.00942135
0.00918461
0.00903342
0.0134532
0.014222
0.0140553
0.0140688
0.0140071
0.0138998
0.0137791
0.0136469
0.0135081
0.0133658
0.013221
0.0130742
0.0129255
0.0127751
0.0126225
0.0124677
0.0123103
0.0121503
0.0119872
0.011821
0.0116515
0.0114786
0.0113022
0.0111224
0.0109391
0.0107525
0.0105627
0.0103695
0.0101743
0.00997436
0.0097765
0.00956647
0.00937558
0.00913785
0.00898908
0.0133231
0.014219
0.0140589
0.0140844
0.0140224
0.013911
0.013787
0.0136516
0.0135101
0.0133654
0.0132184
0.0130695
0.0129189
0.0127665
0.012612
0.0124553
0.0122959
0.0121339
0.0119688
0.0118006
0.011629
0.0114542
0.0112758
0.0110942
0.0109091
0.0107209
0.0105296
0.0103351
0.0101389
0.00993812
0.00973973
0.00952922
0.00933859
0.00910002
0.00895349
0.0131608
0.0142283
0.0140661
0.0141049
0.0140411
0.0139246
0.0137966
0.0136577
0.0135133
0.0133663
0.0132172
0.0130665
0.0129142
0.0127601
0.0126039
0.0124455
0.0122845
0.0121208
0.011954
0.0117842
0.011611
0.0114345
0.0112546
0.0110714
0.010885
0.0106954
0.0105031
0.0103076
0.0101106
0.00990931
0.00971065
0.00950011
0.00930996
0.00907165
0.00892756
0.0129797
0.0142575
0.0140776
0.0141275
0.0140592
0.013937
0.0138051
0.013663
0.0135161
0.013367
0.0132163
0.013064
0.0129103
0.0127549
0.0125974
0.0124377
0.0122754
0.0121104
0.0119423
0.0117711
0.0115966
0.0114188
0.0112377
0.0110534
0.0108659
0.0106753
0.0104821
0.010286
0.0100885
0.00988685
0.00968797
0.00947758
0.00928718
0.0090492
0.00890464
0.0127761
0.0143068
0.0140958
0.0141572
0.0140816
0.0139522
0.0138156
0.01367
0.0135206
0.0133695
0.0132171
0.0130635
0.0129086
0.012752
0.0125935
0.0124327
0.0122693
0.0121032
0.0119341
0.0117619
0.0115864
0.0114076
0.0112256
0.0110404
0.0108521
0.0106608
0.010467
0.0102704
0.0100726
0.00987086
0.00967204
0.00946242
0.00927235
0.00903751
0.0088931
0.0125364
0.0143789
0.0141131
0.0141831
0.0140991
0.0139637
0.0138236
0.0136753
0.0135239
0.0133714
0.0132179
0.0130633
0.0129075
0.01275
0.0125907
0.0124291
0.0122651
0.0120981
0.0119283
0.0117553
0.0115792
0.0113996
0.011217
0.0110311
0.0108423
0.0106504
0.0104563
0.0102593
0.0100613
0.00985965
0.00966072
0.00945182
0.00926006
0.00902715
0.00887241
0.0122906
0.0144676
0.0141413
0.0142197
0.0141239
0.0139807
0.0138358
0.0136842
0.0135306
0.0133764
0.0132216
0.0130659
0.0129093
0.012751
0.0125911
0.0124288
0.0122641
0.0120966
0.0119263
0.0117527
0.0115761
0.011396
0.011213
0.0110266
0.0108375
0.0106453
0.010451
0.0102538
0.0100558
0.00985429
0.00965575
0.00944824
0.00925774
0.00903203
0.00887916
0.0120229
0.0145724
0.0141649
0.0142489
0.0141419
0.0139931
0.0138449
0.013691
0.0135358
0.0133805
0.0132248
0.0130685
0.0129112
0.0127525
0.012592
0.0124293
0.0122643
0.0120964
0.0119257
0.0117517
0.0115748
0.0113945
0.0112112
0.0110245
0.0108353
0.0106428
0.0104485
0.0102512
0.0100533
0.00985186
0.00965329
0.00944679
0.00925321
0.00903079
0.008846
0.0117891
0.0146846
0.0142104
0.0142914
0.0141694
0.0140123
0.0138589
0.0137015
0.013544
0.013387
0.0132301
0.0130729
0.012915
0.0127557
0.0125949
0.0124319
0.0122666
0.0120984
0.0119276
0.0117535
0.0115765
0.011396
0.0112127
0.011026
0.0108367
0.0106443
0.01045
0.0102527
0.010055
0.00985367
0.00965574
0.0094501
0.00926166
0.00904651
0.00890859
0.0141844
0.0146343
0.0142469
0.0141467
0.0140351
0.0139206
0.0138122
0.0137035
0.0135953
0.0134881
0.013382
0.0132773
0.013174
0.0130721
0.0129716
0.0128722
0.0127737
0.0126758
0.012578
0.0124799
0.0123809
0.0122805
0.0121781
0.012073
0.0119646
0.011852
0.0117347
0.0116119
0.0114834
0.0113476
0.0112064
0.0110555
0.0109049
0.0107358
0.0105963
0.0141597
0.0146029
0.0142274
0.0141315
0.0140231
0.0139103
0.013802
0.0136924
0.0135824
0.0134727
0.0133634
0.0132549
0.0131473
0.0130406
0.0129348
0.0128295
0.0127247
0.0126199
0.0125148
0.0124088
0.0123017
0.0121927
0.0120814
0.0119671
0.0118494
0.0117274
0.0116009
0.0114687
0.0113312
0.0111862
0.0110364
0.0108742
0.0107146
0.0105212
0.0103713
0.0141318
0.0145706
0.0142061
0.014115
0.0140096
0.0138981
0.0137893
0.0136781
0.0135654
0.0134523
0.013339
0.0132259
0.0131131
0.0130007
0.0128885
0.0127763
0.012664
0.0125512
0.0124374
0.0123223
0.0122054
0.0120861
0.011964
0.0118385
0.0117092
0.0115754
0.0114368
0.0112925
0.011143
0.0109861
0.0108257
0.0106527
0.0104865
0.0102849
0.0101384
0.0140962
0.0145354
0.0141845
0.0140999
0.0139986
0.013889
0.0137803
0.0136678
0.0135531
0.0134372
0.0133205
0.0132035
0.0130863
0.012969
0.0128515
0.0127336
0.0126151
0.0124956
0.0123748
0.0122522
0.0121275
0.0120002
0.0118698
0.0117358
0.011598
0.0114556
0.0113085
0.0111558
0.0109984
0.0108335
0.0106657
0.0104845
0.0103116
0.0100993
0.00994714
0.0140632
0.0144979
0.0141632
0.0140856
0.0139884
0.0138805
0.0137714
0.0136574
0.0135401
0.013421
0.0133005
0.0131792
0.0130573
0.0129349
0.0128118
0.0126879
0.0125629
0.0124365
0.0123084
0.0121782
0.0120455
0.0119098
0.0117709
0.0116281
0.0114814
0.01133
0.0111741
0.0110127
0.0108468
0.0106737
0.0104986
0.0103103
0.0101323
0.00991456
0.00976195
0.0140175
0.0144578
0.0141417
0.0140727
0.0139805
0.0138745
0.0137652
0.0136497
0.0135301
0.013408
0.0132841
0.0131589
0.0130328
0.0129057
0.0127776
0.0126484
0.0125177
0.0123854
0.012251
0.0121141
0.0119746
0.0118319
0.0116858
0.0115358
0.0113819
0.0112234
0.0110605
0.0108924
0.0107201
0.0105409
0.0103602
0.0101665
0.00998418
0.00976105
0.00960596
0.0139689
0.0144157
0.0141208
0.0140616
0.0139748
0.0138704
0.0137606
0.0136433
0.0135211
0.0133958
0.0132683
0.0131392
0.0130087
0.0128771
0.0127441
0.0126096
0.0124734
0.0123352
0.0121947
0.0120515
0.0119054
0.011756
0.0116031
0.0114463
0.0112855
0.0111203
0.0109508
0.0107763
0.0105981
0.0104133
0.0102277
0.0100294
0.00984381
0.00961713
0.00946169
0.0139102
0.0143728
0.014102
0.0140536
0.0139722
0.0138693
0.0137586
0.0136393
0.0135144
0.013386
0.0132551
0.0131223
0.0129879
0.0128521
0.0127146
0.0125755
0.0124343
0.0122909
0.012145
0.0119963
0.0118444
0.0116893
0.0115305
0.0113679
0.0112013
0.0110305
0.0108557
0.0106762
0.0104932
0.0103041
0.0101147
0.00991289
0.00972493
0.00949521
0.0093395
0.0138402
0.0143299
0.0140847
0.0140485
0.0139729
0.0138708
0.0137591
0.0136376
0.0135099
0.0133784
0.0132442
0.013108
0.01297
0.0128304
0.012689
0.0125457
0.0124002
0.0122523
0.0121017
0.0119481
0.0117914
0.0116312
0.0114675
0.0112999
0.0111286
0.0109531
0.0107738
0.0105901
0.0104033
0.0102106
0.0100183
0.00981373
0.00962415
0.00939216
0.00923691
0.0137698
0.0142952
0.0140732
0.0140482
0.0139769
0.0138748
0.0137615
0.0136376
0.0135073
0.013373
0.013236
0.0130968
0.0129558
0.012813
0.0126682
0.0125215
0.0123724
0.0122208
0.0120663
0.0119089
0.0117482
0.0115841
0.0114163
0.0112449
0.0110697
0.0108906
0.0107079
0.010521
0.0103314
0.0101362
0.00994183
0.00973525
0.00954473
0.00931088
0.00915646
0.0136779
0.0142605
0.0140624
0.0140505
0.0139838
0.0138811
0.0137658
0.0136395
0.0135064
0.0133693
0.0132295
0.0130875
0.0129437
0.012798
0.0126503
0.0125004
0.0123481
0.0121933
0.0120355
0.0118746
0.0117105
0.0115429
0.0113718
0.011197
0.0110186
0.0108364
0.0106509
0.0104614
0.0102694
0.0100722
0.00987619
0.00966806
0.00947706
0.00924169
0.00908871
0.0135839
0.0142371
0.0140581
0.014058
0.013994
0.0138893
0.0137715
0.0136424
0.0135065
0.0133668
0.0132244
0.01308
0.0129336
0.0127854
0.0126351
0.0124826
0.0123276
0.0121699
0.0120093
0.0118456
0.0116785
0.0115081
0.0113341
0.0111566
0.0109755
0.0107909
0.010603
0.0104114
0.0102177
0.0100189
0.00982179
0.00961252
0.00942141
0.00918467
0.00903354
0.0134596
0.0142181
0.0140553
0.0140689
0.0140071
0.0138998
0.0137791
0.0136468
0.0135081
0.0133658
0.013221
0.0130742
0.0129255
0.012775
0.0126225
0.0124677
0.0123103
0.0121503
0.0119872
0.011821
0.0116515
0.0114786
0.0113022
0.0111224
0.0109392
0.0107525
0.0105628
0.0103696
0.0101744
0.00997441
0.00977655
0.00956653
0.00937565
0.00913792
0.0089892
0.0133291
0.0142153
0.0140588
0.0140844
0.0140223
0.013911
0.0137869
0.0136515
0.01351
0.0133653
0.0132183
0.0130695
0.0129189
0.0127665
0.012612
0.0124553
0.0122959
0.0121339
0.0119688
0.0118006
0.011629
0.0114542
0.0112759
0.0110942
0.0109092
0.0107209
0.0105297
0.0103352
0.010139
0.00993817
0.00973979
0.00952928
0.00933866
0.00910009
0.00895361
0.0131666
0.0142248
0.014066
0.0141049
0.0140411
0.0139246
0.0137965
0.0136576
0.0135133
0.0133662
0.0132171
0.0130664
0.0129141
0.01276
0.0126039
0.0124455
0.0122845
0.0121208
0.011954
0.0117842
0.011611
0.0114345
0.0112546
0.0110714
0.010885
0.0106955
0.0105031
0.0103077
0.0101107
0.00990938
0.00971072
0.00950019
0.00931004
0.00907174
0.00892771
0.0129852
0.0142542
0.0140775
0.0141275
0.0140591
0.0139369
0.013805
0.0136629
0.0135161
0.013367
0.0132162
0.013064
0.0129103
0.0127549
0.0125974
0.0124377
0.0122754
0.0121104
0.0119423
0.0117711
0.0115967
0.0114189
0.0112378
0.0110534
0.0108659
0.0106754
0.0104822
0.0102861
0.0100886
0.00988694
0.00968806
0.00947767
0.00928729
0.00904931
0.00890479
0.0127812
0.0143039
0.0140956
0.0141571
0.0140815
0.0139521
0.0138155
0.0136699
0.0135205
0.0133694
0.0132171
0.0130635
0.0129086
0.012752
0.0125935
0.0124327
0.0122694
0.0121033
0.0119342
0.0117619
0.0115865
0.0114077
0.0112257
0.0110404
0.0108522
0.0106609
0.0104671
0.0102705
0.0100727
0.00987098
0.00967216
0.00946255
0.00927249
0.00903765
0.0088933
0.0125411
0.0143762
0.0141129
0.014183
0.014099
0.0139636
0.0138235
0.0136752
0.0135239
0.0133714
0.0132179
0.0130633
0.0129075
0.0127501
0.0125908
0.0124292
0.0122652
0.0120982
0.0119284
0.0117554
0.0115793
0.0113997
0.0112171
0.0110312
0.0108424
0.0106505
0.0104564
0.0102594
0.0100615
0.00985979
0.00966086
0.00945196
0.0092602
0.00902729
0.00887258
0.0122942
0.0144658
0.0141411
0.0142196
0.0141239
0.0139808
0.013836
0.0136844
0.0135308
0.0133766
0.0132218
0.0130661
0.0129094
0.0127512
0.0125912
0.0124289
0.0122643
0.0120967
0.0119264
0.0117528
0.0115762
0.0113961
0.0112131
0.0110267
0.0108376
0.0106454
0.0104511
0.0102539
0.010056
0.0098544
0.00965587
0.00944835
0.00925788
0.00903215
0.00887937
0.012025
0.0145726
0.0141653
0.0142494
0.0141424
0.0139934
0.0138451
0.0136912
0.013536
0.0133806
0.0132249
0.0130685
0.0129112
0.0127525
0.012592
0.0124293
0.0122643
0.0120964
0.0119257
0.0117518
0.0115748
0.0113945
0.0112112
0.0110245
0.0108353
0.0106428
0.0104485
0.0102512
0.0100533
0.00985185
0.00965329
0.00944677
0.00925321
0.00903073
0.00884588
0.0117974
0.0146867
0.0142104
0.0142909
0.0141688
0.0140117
0.0138584
0.0137011
0.0135436
0.0133867
0.0132298
0.0130726
0.0129147
0.0127555
0.0125946
0.0124316
0.0122664
0.0120983
0.0119274
0.0117533
0.0115763
0.0113959
0.0112125
0.0110258
0.0108366
0.0106441
0.0104498
0.0102525
0.0100548
0.00985349
0.00965555
0.00944991
0.00926146
0.00904634
0.00890832
0.0141895
0.0146291
0.0142466
0.0141466
0.0140352
0.0139206
0.0138122
0.0137035
0.0135953
0.0134881
0.013382
0.0132773
0.0131739
0.0130721
0.0129716
0.0128722
0.0127737
0.0126758
0.012578
0.0124799
0.0123809
0.0122805
0.0121781
0.012073
0.0119645
0.011852
0.0117347
0.0116119
0.0114833
0.0113476
0.0112064
0.0110555
0.0109049
0.0107358
0.0105964
0.0141647
0.0145978
0.0142271
0.0141314
0.0140231
0.0139103
0.013802
0.0136924
0.0135824
0.0134727
0.0133634
0.0132549
0.0131473
0.0130406
0.0129348
0.0128295
0.0127247
0.0126199
0.0125148
0.0124088
0.0123017
0.0121927
0.0120814
0.0119671
0.0118494
0.0117274
0.0116009
0.0114687
0.0113312
0.0111862
0.0110365
0.0108743
0.0107146
0.0105212
0.0103714
0.0141367
0.0145656
0.0142058
0.0141149
0.0140097
0.0138981
0.0137893
0.0136781
0.0135654
0.0134523
0.013339
0.0132259
0.0131131
0.0130006
0.0128885
0.0127763
0.012664
0.0125512
0.0124374
0.0123223
0.0122054
0.0120861
0.011964
0.0118385
0.0117092
0.0115753
0.0114368
0.0112925
0.011143
0.0109861
0.0108257
0.0106527
0.0104865
0.0102849
0.0101384
0.0141011
0.0145304
0.0141842
0.0140998
0.0139986
0.013889
0.0137803
0.0136678
0.0135531
0.0134372
0.0133205
0.0132035
0.0130863
0.012969
0.0128515
0.0127336
0.0126151
0.0124956
0.0123748
0.0122522
0.0121275
0.0120002
0.0118698
0.0117359
0.011598
0.0114556
0.0113085
0.0111559
0.0109984
0.0108335
0.0106657
0.0104845
0.0103116
0.0100994
0.00994723
0.014068
0.0144931
0.0141629
0.0140855
0.0139884
0.0138805
0.0137714
0.0136574
0.0135401
0.013421
0.0133005
0.0131792
0.0130573
0.0129349
0.0128118
0.0126879
0.0125629
0.0124365
0.0123084
0.0121782
0.0120455
0.0119098
0.0117709
0.0116281
0.0114814
0.01133
0.0111741
0.0110127
0.0108468
0.0106737
0.0104985
0.0103103
0.0101323
0.00991459
0.00976203
0.0140222
0.014453
0.0141414
0.0140726
0.0139805
0.0138745
0.0137652
0.0136497
0.0135301
0.013408
0.0132841
0.0131589
0.0130328
0.0129057
0.0127776
0.0126484
0.0125177
0.0123854
0.012251
0.0121141
0.0119746
0.0118319
0.0116858
0.0115359
0.0113819
0.0112234
0.0110605
0.0108924
0.0107201
0.0105409
0.0103602
0.0101665
0.00998419
0.00976109
0.00960607
0.0139735
0.014411
0.0141206
0.0140615
0.0139748
0.0138705
0.0137606
0.0136433
0.0135211
0.0133958
0.0132683
0.0131392
0.0130087
0.0128771
0.0127441
0.0126096
0.0124734
0.0123352
0.0121947
0.0120515
0.0119054
0.011756
0.0116031
0.0114463
0.0112855
0.0111203
0.0109508
0.0107763
0.0105981
0.0104133
0.0102277
0.0100294
0.00984382
0.00961716
0.0094618
0.0139147
0.0143682
0.0141017
0.0140535
0.0139722
0.0138693
0.0137586
0.0136393
0.0135144
0.013386
0.0132551
0.0131223
0.0129879
0.0128521
0.0127146
0.0125754
0.0124343
0.0122909
0.012145
0.0119963
0.0118444
0.0116893
0.0115305
0.0113679
0.0112013
0.0110305
0.0108557
0.0106762
0.0104932
0.0103041
0.0101147
0.00991292
0.00972494
0.00949525
0.00933962
0.0138446
0.0143254
0.0140845
0.0140484
0.0139729
0.0138709
0.0137591
0.0136376
0.0135099
0.0133784
0.0132442
0.013108
0.01297
0.0128304
0.012689
0.0125457
0.0124002
0.0122523
0.0121016
0.0119481
0.0117914
0.0116312
0.0114675
0.0112999
0.0111286
0.0109531
0.0107738
0.0105901
0.0104033
0.0102107
0.0100183
0.00981375
0.00962416
0.0093922
0.00923704
0.0137741
0.0142909
0.014073
0.0140481
0.013977
0.0138748
0.0137614
0.0136376
0.0135073
0.013373
0.0132359
0.0130968
0.0129557
0.0128129
0.0126682
0.0125215
0.0123724
0.0122208
0.0120663
0.0119089
0.0117482
0.0115841
0.0114163
0.0112449
0.0110697
0.0108906
0.0107079
0.010521
0.0103314
0.0101362
0.00994184
0.00973528
0.00954474
0.00931093
0.0091566
0.0136821
0.0142562
0.0140622
0.0140504
0.0139838
0.0138811
0.0137658
0.0136394
0.0135063
0.0133693
0.0132295
0.0130875
0.0129436
0.0127979
0.0126502
0.0125004
0.0123481
0.0121932
0.0120355
0.0118746
0.0117105
0.0115429
0.0113718
0.011197
0.0110186
0.0108364
0.0106509
0.0104614
0.0102694
0.0100722
0.0098762
0.00966809
0.00947707
0.00924174
0.00908886
0.0135879
0.0142331
0.0140579
0.0140579
0.013994
0.0138893
0.0137715
0.0136423
0.0135065
0.0133668
0.0132244
0.0130799
0.0129336
0.0127853
0.0126351
0.0124826
0.0123276
0.0121699
0.0120093
0.0118456
0.0116785
0.0115081
0.0113341
0.0111566
0.0109755
0.0107909
0.010603
0.0104114
0.0102177
0.0100189
0.0098218
0.00961255
0.00942142
0.00918472
0.00903369
0.0134636
0.0142141
0.0140551
0.0140688
0.0140071
0.0138997
0.013779
0.0136468
0.013508
0.0133657
0.0132209
0.0130741
0.0129255
0.012775
0.0126224
0.0124676
0.0123103
0.0121502
0.0119871
0.011821
0.0116515
0.0114786
0.0113022
0.0111224
0.0109392
0.0107525
0.0105628
0.0103696
0.0101744
0.00997443
0.00977656
0.00956656
0.00937566
0.00913797
0.00898937
0.0133329
0.0142116
0.0140587
0.0140843
0.0140223
0.0139109
0.0137868
0.0136515
0.01351
0.0133653
0.0132183
0.0130694
0.0129189
0.0127664
0.012612
0.0124552
0.0122959
0.0121338
0.0119688
0.0118006
0.011629
0.0114542
0.0112758
0.0110942
0.0109092
0.0107209
0.0105297
0.0103352
0.010139
0.0099382
0.0097398
0.00952932
0.00933868
0.00910016
0.0089538
0.0131702
0.0142213
0.0140659
0.0141048
0.014041
0.0139245
0.0137964
0.0136576
0.0135132
0.0133661
0.0132171
0.0130664
0.0129141
0.01276
0.0126039
0.0124455
0.0122845
0.0121208
0.011954
0.0117842
0.011611
0.0114345
0.0112546
0.0110714
0.010885
0.0106955
0.0105031
0.0103077
0.0101107
0.00990941
0.00971075
0.00950024
0.00931007
0.00907182
0.00892791
0.0129887
0.014251
0.0140774
0.0141273
0.014059
0.0139368
0.0138049
0.0136628
0.013516
0.0133669
0.0132161
0.0130639
0.0129102
0.0127548
0.0125974
0.0124377
0.0122754
0.0121104
0.0119423
0.0117711
0.0115967
0.0114189
0.0112378
0.0110535
0.010866
0.0106754
0.0104822
0.0102861
0.0100886
0.00988698
0.0096881
0.00947774
0.00928733
0.0090494
0.00890502
0.0127844
0.0143009
0.0140954
0.0141569
0.0140814
0.013952
0.0138154
0.0136698
0.0135204
0.0133694
0.0132171
0.0130635
0.0129086
0.012752
0.0125935
0.0124327
0.0122694
0.0121033
0.0119342
0.011762
0.0115865
0.0114077
0.0112257
0.0110405
0.0108522
0.0106609
0.0104672
0.0102706
0.0100727
0.00987105
0.00967223
0.00946263
0.00927255
0.00903776
0.00889354
0.0125441
0.0143737
0.0141128
0.0141828
0.0140989
0.0139635
0.0138234
0.0136752
0.0135239
0.0133714
0.0132179
0.0130634
0.0129076
0.0127501
0.0125908
0.0124293
0.0122652
0.0120983
0.0119285
0.0117555
0.0115793
0.0113998
0.0112172
0.0110312
0.0108425
0.0106506
0.0104565
0.0102595
0.0100615
0.00985986
0.00966093
0.00945204
0.00926027
0.00902739
0.00887279
0.0122966
0.0144643
0.0141412
0.0142196
0.014124
0.0139808
0.013836
0.0136844
0.0135308
0.0133766
0.0132218
0.0130662
0.0129095
0.0127512
0.0125912
0.012429
0.0122643
0.0120968
0.0119265
0.0117529
0.0115762
0.0113962
0.0112131
0.0110267
0.0108376
0.0106454
0.0104511
0.0102539
0.010056
0.00985445
0.00965592
0.00944839
0.00925792
0.00903221
0.00887951
0.0120269
0.0145731
0.0141656
0.0142496
0.0141425
0.0139935
0.0138452
0.0136912
0.013536
0.0133806
0.0132249
0.0130685
0.0129112
0.0127525
0.012592
0.0124293
0.0122642
0.0120963
0.0119257
0.0117517
0.0115748
0.0113944
0.0112112
0.0110245
0.0108352
0.0106428
0.0104484
0.0102511
0.0100532
0.00985179
0.00965323
0.0094467
0.00925315
0.00903063
0.00884537
0.011796
0.0146879
0.0142111
0.0142909
0.0141689
0.0140117
0.0138583
0.013701
0.0135435
0.0133866
0.0132298
0.0130726
0.0129147
0.0127554
0.0125946
0.0124316
0.0122663
0.0120982
0.0119274
0.0117533
0.0115763
0.0113959
0.0112125