/*--------------------------------*- C++ -*----------------------------------*\
  =========                 |
  \\      /  F ield         | OpenFOAM: The Open Source CFD Toolbox
   \\    /   O peration     | Website:  https://openfoam.org
    \\  /    A nd           | Version:  6
     \\/     M anipulation  |
\*---------------------------------------------------------------------------*/
FoamFile
{
    version     2.0;
    format      ascii;
    class       volScalarField;
    location    "35";
    object      p;
}
// * * * * * * * * * * * * * * * * * * * * * * * * * * * * * * * * * * * * * //

dimensions      [0 2 -2 0 0 0 0];

internalField   nonuniform List<scalar> 
380496
(
0.0142075
0.0146815
0.0142817
0.0141812
0.0140701
0.0139559
0.0138478
0.0137395
0.0136317
0.013525
0.0134194
0.0133152
0.0132124
0.0131111
0.0130113
0.0129126
0.0128148
0.0127176
0.0126206
0.0125233
0.0124251
0.0123256
0.0122241
0.0121199
0.0120124
0.0119008
0.0117846
0.0116628
0.0115353
0.0114007
0.0112606
0.0111108
0.0109613
0.0107934
0.0106551
0.0141833
0.01465
0.0142624
0.0141662
0.0140582
0.0139458
0.0138378
0.0137286
0.013619
0.0135097
0.013401
0.013293
0.013186
0.0130799
0.0129746
0.0128701
0.0127659
0.0126619
0.0125575
0.0124523
0.012346
0.0122379
0.0121275
0.012014
0.0118973
0.0117762
0.0116507
0.0115195
0.011383
0.011239
0.0110903
0.0109292
0.0107706
0.0105784
0.0104296
0.0141558
0.0146176
0.0142412
0.0141498
0.0140449
0.0139337
0.0138253
0.0137144
0.0136022
0.0134896
0.0133768
0.0132642
0.013152
0.0130401
0.0129286
0.0128171
0.0127055
0.0125934
0.0124804
0.012366
0.01225
0.0121315
0.0120103
0.0118857
0.0117573
0.0116244
0.0114868
0.0113434
0.0111949
0.011039
0.0108796
0.0107076
0.0105424
0.0103418
0.0101963
0.0141203
0.0145824
0.0142198
0.0141348
0.014034
0.0139248
0.0138164
0.0137044
0.0135901
0.0134746
0.0133584
0.0132419
0.0131253
0.0130086
0.0128918
0.0127745
0.0126567
0.0125379
0.0124179
0.0122961
0.0121722
0.0120457
0.0119162
0.0117831
0.0116461
0.0115045
0.0113584
0.0112066
0.0110501
0.0108861
0.0107192
0.010539
0.010367
0.0101557
0.0100044
0.014088
0.0145447
0.0141985
0.0141207
0.014024
0.0139164
0.0138077
0.013694
0.0135772
0.0134586
0.0133386
0.0132179
0.0130966
0.0129747
0.0128523
0.012729
0.0126047
0.0124791
0.0123517
0.0122223
0.0120904
0.0119555
0.0118174
0.0116755
0.0115296
0.0113791
0.011224
0.0110635
0.0108984
0.0107263
0.010552
0.0103646
0.0101875
0.0099706
0.00981876
0.0140425
0.0145045
0.0141771
0.0141079
0.0140162
0.0139105
0.0138016
0.0136865
0.0135674
0.0134457
0.0133223
0.0131977
0.0130721
0.0129457
0.0128183
0.0126897
0.0125597
0.0124281
0.0122944
0.0121583
0.0120195
0.0118776
0.0117324
0.0115832
0.0114301
0.0112724
0.0111104
0.010943
0.0107716
0.0105932
0.0104134
0.0102205
0.0100389
0.00981659
0.00966221
0.0139944
0.0144622
0.0141564
0.0140969
0.0140105
0.0139066
0.0137972
0.0136803
0.0135585
0.0134337
0.0133067
0.0131781
0.0130483
0.0129172
0.0127849
0.0126511
0.0125156
0.0123781
0.0122383
0.0120958
0.0119505
0.0118019
0.0116498
0.0114937
0.0113337
0.0111693
0.0110006
0.0108269
0.0106495
0.0104655
0.0102806
0.0100831
0.0098982
0.00967225
0.00951746
0.0139361
0.014419
0.0141376
0.014089
0.0140081
0.0139056
0.0137953
0.0136764
0.0135519
0.013424
0.0132936
0.0131613
0.0130275
0.0128923
0.0127555
0.012617
0.0124765
0.0123339
0.0121887
0.0120407
0.0118896
0.0117352
0.0115772
0.0114153
0.0112495
0.0110795
0.0109054
0.0107266
0.0105444
0.0103561
0.0101674
0.00996625
0.00977894
0.00954989
0.00939477
0.0138665
0.014376
0.0141204
0.0140841
0.0140089
0.0139072
0.0137959
0.0136748
0.0135475
0.0134165
0.0132829
0.0131472
0.0130098
0.0128708
0.01273
0.0125873
0.0124425
0.0122953
0.0121454
0.0119926
0.0118366
0.0116772
0.0115142
0.0113474
0.0111767
0.011002
0.0108235
0.0106404
0.0104543
0.0102624
0.0100708
0.00986682
0.00967786
0.00944648
0.00929178
0.0137967
0.014341
0.014109
0.0140838
0.014013
0.0139113
0.0137983
0.0136749
0.013545
0.0134112
0.0132747
0.0131361
0.0129956
0.0128534
0.0127093
0.0125632
0.0124148
0.0122639
0.0121102
0.0119534
0.0117934
0.01163
0.0114631
0.0112923
0.0111179
0.0109395
0.0107575
0.0105713
0.0103823
0.0101878
0.00999409
0.00978811
0.00959817
0.00936488
0.00921097
0.0137049
0.014306
0.0140983
0.0140862
0.01402
0.0139177
0.0138028
0.0136768
0.0135441
0.0134076
0.0132683
0.0131269
0.0129836
0.0128385
0.0126914
0.0125422
0.0123906
0.0122365
0.0120794
0.0119192
0.0117558
0.0115889
0.0114185
0.0112445
0.0110668
0.0108853
0.0107004
0.0105116
0.0103202
0.0101236
0.00992828
0.00972073
0.00953027
0.00929542
0.00914292
0.0136116
0.0142823
0.014094
0.0140938
0.0140302
0.0139259
0.0138085
0.0136798
0.0135443
0.0134052
0.0132633
0.0131194
0.0129736
0.012826
0.0126763
0.0125245
0.0123702
0.0122132
0.0120532
0.0118902
0.0117239
0.0115541
0.0113808
0.011204
0.0110237
0.0108397
0.0106525
0.0104616
0.0102684
0.0100702
0.00987372
0.00966501
0.00947441
0.00923815
0.00908747
0.0134875
0.0142629
0.0140913
0.0141047
0.0140434
0.0139365
0.0138161
0.0136843
0.013546
0.0134042
0.0132599
0.0131137
0.0129656
0.0128157
0.0126638
0.0125096
0.0123529
0.0121936
0.0120312
0.0118657
0.0116969
0.0115247
0.011349
0.0111699
0.0109873
0.0108013
0.0106122
0.0104196
0.010225
0.0100257
0.00982836
0.00961885
0.00942846
0.00919118
0.0090429
0.0133577
0.0142596
0.0140949
0.0141204
0.0140587
0.0139478
0.0138241
0.0136891
0.013548
0.0134038
0.0132573
0.0131091
0.012959
0.0128072
0.0126534
0.0124973
0.0123386
0.0121772
0.0120128
0.0118453
0.0116744
0.0115003
0.0113226
0.0111416
0.0109573
0.0107696
0.0105791
0.0103852
0.0101896
0.00998932
0.00979147
0.00958147
0.00939131
0.00915317
0.00900712
0.0131955
0.0142686
0.0141021
0.014141
0.0140775
0.0139614
0.0138337
0.0136953
0.0135513
0.0134047
0.0132562
0.013106
0.0129543
0.0128008
0.0126453
0.0124875
0.0123272
0.0121642
0.0119981
0.0118289
0.0116564
0.0114806
0.0113014
0.0111189
0.0109331
0.0107442
0.0105525
0.0103576
0.0101612
0.00996043
0.00976229
0.00955224
0.00936254
0.00912464
0.00898103
0.0130147
0.0142975
0.0141137
0.0141636
0.0140957
0.0139738
0.0138423
0.0137006
0.0135542
0.0134056
0.0132553
0.0131036
0.0129505
0.0127957
0.0126388
0.0124798
0.0123181
0.0121538
0.0119864
0.0118158
0.011642
0.011465
0.0112845
0.0111008
0.010914
0.0107241
0.0105315
0.0103359
0.010139
0.00993789
0.00973952
0.0095296
0.00933966
0.00910206
0.00895797
0.0128114
0.0143464
0.014132
0.0141935
0.0141182
0.0139891
0.0138529
0.0137076
0.0135586
0.013408
0.0132562
0.0131031
0.0129487
0.0127927
0.0126348
0.0124747
0.012312
0.0121466
0.0119782
0.0118066
0.0116318
0.0114537
0.0112724
0.0110878
0.0109001
0.0107095
0.0105163
0.0103203
0.010123
0.00992184
0.00972351
0.00951436
0.00932472
0.00909024
0.00894628
0.0125716
0.0144182
0.0141494
0.0142194
0.0141357
0.0140006
0.0138608
0.0137128
0.0135619
0.0134098
0.0132568
0.0131028
0.0129476
0.0127907
0.0126321
0.0124711
0.0123077
0.0121415
0.0119723
0.0118
0.0116245
0.0114457
0.0112637
0.0110784
0.0108903
0.0106991
0.0105056
0.0103092
0.0101117
0.00991058
0.00971214
0.00950371
0.00931236
0.00907983
0.00892554
0.0123276
0.0145062
0.0141777
0.014256
0.0141604
0.0140174
0.0138729
0.0137216
0.0135684
0.0134147
0.0132605
0.0131054
0.0129493
0.0127917
0.0126324
0.0124708
0.0123068
0.01214
0.0119703
0.0117974
0.0116215
0.0114421
0.0112597
0.011074
0.0108855
0.0106939
0.0105003
0.0103036
0.0101063
0.00990523
0.00970717
0.00950012
0.00931002
0.00908468
0.00893216
0.0120616
0.0146093
0.0142009
0.0142848
0.0141781
0.0140297
0.0138819
0.0137284
0.0135737
0.0134189
0.0132638
0.013108
0.0129514
0.0127932
0.0126334
0.0124714
0.012307
0.0121398
0.0119698
0.0117966
0.0116203
0.0114406
0.0112581
0.011072
0.0108835
0.0106916
0.0104979
0.0103011
0.0101038
0.00990291
0.00970483
0.00949879
0.0093056
0.00908363
0.00889912
0.0118108
0.0147173
0.014247
0.0143288
0.0142072
0.0140503
0.0138971
0.01374
0.0135828
0.0134262
0.0132698
0.0131131
0.0129557
0.012797
0.0126368
0.0124744
0.0123098
0.0121423
0.0119721
0.0117987
0.0116224
0.0114426
0.01126
0.0110739
0.0108853
0.0106935
0.0104998
0.0103031
0.010106
0.00990517
0.00970775
0.00950256
0.00931455
0.0090998
0.0089624
0.0142106
0.0146743
0.0142818
0.0141816
0.0140702
0.013956
0.0138478
0.0137395
0.0136317
0.013525
0.0134194
0.0133151
0.0132124
0.0131111
0.0130113
0.0129126
0.0128148
0.0127176
0.0126206
0.0125233
0.0124251
0.0123256
0.0122241
0.0121199
0.0120124
0.0119008
0.0117846
0.0116628
0.0115354
0.0114007
0.0112606
0.0111109
0.0109614
0.0107936
0.0106552
0.0141862
0.014643
0.0142624
0.0141665
0.0140583
0.0139458
0.0138378
0.0137286
0.013619
0.0135097
0.013401
0.013293
0.013186
0.0130799
0.0129746
0.0128701
0.0127659
0.0126619
0.0125575
0.0124524
0.012346
0.0122379
0.0121275
0.0120141
0.0118973
0.0117763
0.0116507
0.0115195
0.0113831
0.0112391
0.0110904
0.0109293
0.0107708
0.0105785
0.0104297
0.0141586
0.0146107
0.0142413
0.0141502
0.014045
0.0139338
0.0138253
0.0137144
0.0136022
0.0134896
0.0133768
0.0132642
0.013152
0.0130401
0.0129286
0.0128171
0.0127055
0.0125934
0.0124804
0.0123661
0.01225
0.0121315
0.0120104
0.0118857
0.0117574
0.0116244
0.0114868
0.0113434
0.011195
0.011039
0.0108796
0.0107076
0.0105425
0.0103419
0.0101964
0.0141232
0.0145756
0.0142198
0.0141352
0.0140341
0.0139248
0.0138164
0.0137044
0.0135901
0.0134746
0.0133584
0.0132419
0.0131253
0.0130086
0.0128918
0.0127746
0.0126567
0.012538
0.0124179
0.0122961
0.0121723
0.0120457
0.0119162
0.0117831
0.0116462
0.0115046
0.0113585
0.0112067
0.0110502
0.0108862
0.0107193
0.0105391
0.0103671
0.0101559
0.0100045
0.0140906
0.0145381
0.0141986
0.014121
0.0140241
0.0139164
0.0138077
0.013694
0.0135772
0.0134586
0.0133386
0.0132179
0.0130966
0.0129747
0.0128523
0.012729
0.0126047
0.0124791
0.0123518
0.0122223
0.0120904
0.0119555
0.0118174
0.0116755
0.0115296
0.0113791
0.0112241
0.0110635
0.0108985
0.0107263
0.0105521
0.0103647
0.0101876
0.00997072
0.00981885
0.0140451
0.014498
0.0141772
0.0141082
0.0140163
0.0139106
0.0138016
0.0136865
0.0135674
0.0134457
0.0133223
0.0131977
0.0130722
0.0129457
0.0128183
0.0126897
0.0125597
0.0124281
0.0122944
0.0121583
0.0120196
0.0118777
0.0117324
0.0115833
0.0114301
0.0112725
0.0111104
0.0109431
0.0107716
0.0105933
0.0104135
0.0102206
0.010039
0.00981674
0.00966231
0.0139967
0.0144559
0.0141565
0.0140972
0.0140106
0.0139066
0.0137972
0.0136803
0.0135585
0.0134337
0.0133067
0.0131781
0.0130483
0.0129172
0.0127849
0.0126511
0.0125156
0.0123781
0.0122383
0.0120959
0.0119505
0.0118019
0.0116498
0.0114938
0.0113338
0.0111693
0.0110007
0.010827
0.0106495
0.0104656
0.0102807
0.0100832
0.00989832
0.00967239
0.00951755
0.0139383
0.014413
0.0141377
0.0140893
0.0140082
0.0139056
0.0137953
0.0136764
0.0135519
0.013424
0.0132936
0.0131613
0.0130276
0.0128923
0.0127555
0.012617
0.0124766
0.0123339
0.0121887
0.0120407
0.0118896
0.0117352
0.0115772
0.0114153
0.0112496
0.0110795
0.0109055
0.0107267
0.0105445
0.0103562
0.0101675
0.00996637
0.00977907
0.00955004
0.00939487
0.0138686
0.0143701
0.0141205
0.0140844
0.0140089
0.0139073
0.0137959
0.0136748
0.0135475
0.0134165
0.0132829
0.0131472
0.0130098
0.0128708
0.01273
0.0125874
0.0124425
0.0122953
0.0121454
0.0119926
0.0118366
0.0116772
0.0115142
0.0113474
0.0111768
0.0110021
0.0108235
0.0106405
0.0104544
0.0102625
0.0100709
0.00986695
0.00967799
0.00944663
0.00929187
0.0137985
0.0143353
0.0141091
0.0140841
0.0140131
0.0139113
0.0137983
0.0136749
0.013545
0.0134112
0.0132747
0.0131361
0.0129956
0.0128534
0.0127093
0.0125632
0.0124148
0.0122639
0.0121102
0.0119535
0.0117935
0.0116301
0.0114631
0.0112924
0.011118
0.0109396
0.0107576
0.0105714
0.0103824
0.0101879
0.0099942
0.00978824
0.00959829
0.00936504
0.00921106
0.0137068
0.0143005
0.0140984
0.0140865
0.01402
0.0139177
0.0138028
0.0136768
0.0135441
0.0134076
0.0132683
0.0131269
0.0129836
0.0128385
0.0126914
0.0125423
0.0123907
0.0122365
0.0120794
0.0119193
0.0117558
0.011589
0.0114186
0.0112445
0.0110668
0.0108854
0.0107005
0.0105117
0.0103203
0.0101237
0.00992839
0.00972085
0.00953039
0.00929557
0.009143
0.0136131
0.014277
0.014094
0.014094
0.0140303
0.0139259
0.0138085
0.0136798
0.0135443
0.0134052
0.0132633
0.0131194
0.0129736
0.012826
0.0126763
0.0125245
0.0123702
0.0122132
0.0120533
0.0118903
0.0117239
0.0115542
0.0113809
0.0112041
0.0110237
0.0108398
0.0106526
0.0104617
0.0102685
0.0100703
0.00987384
0.00966513
0.00947453
0.0092383
0.00908755
0.013489
0.0142579
0.0140913
0.014105
0.0140435
0.0139365
0.0138161
0.0136843
0.013546
0.0134042
0.0132599
0.0131136
0.0129656
0.0128157
0.0126638
0.0125096
0.0123529
0.0121936
0.0120312
0.0118657
0.0116969
0.0115247
0.0113491
0.0111699
0.0109874
0.0108014
0.0106123
0.0104197
0.0102251
0.0100258
0.00982847
0.00961898
0.00942859
0.00919134
0.00904298
0.0133589
0.0142549
0.0140949
0.0141206
0.0140588
0.0139477
0.013824
0.013689
0.013548
0.0134038
0.0132573
0.013109
0.012959
0.0128072
0.0126534
0.0124973
0.0123386
0.0121772
0.0120128
0.0118453
0.0116745
0.0115003
0.0113227
0.0111417
0.0109573
0.0107697
0.0105792
0.0103853
0.0101897
0.00998944
0.00979159
0.0095816
0.00939145
0.00915334
0.00900719
0.0131966
0.0142642
0.0141021
0.0141411
0.0140775
0.0139614
0.0138337
0.0136952
0.0135513
0.0134047
0.0132562
0.013106
0.0129543
0.0128008
0.0126453
0.0124875
0.0123272
0.0121642
0.0119981
0.0118289
0.0116564
0.0114806
0.0113014
0.0111189
0.0109332
0.0107443
0.0105526
0.0103577
0.0101613
0.00996056
0.00976243
0.00955239
0.00936269
0.00912482
0.0089811
0.0130156
0.0142934
0.0141137
0.0141637
0.0140956
0.0139737
0.0138422
0.0137005
0.0135541
0.0134055
0.0132553
0.0131036
0.0129505
0.0127957
0.0126388
0.0124798
0.0123182
0.0121538
0.0119864
0.0118159
0.0116421
0.011465
0.0112846
0.0111009
0.0109141
0.0107242
0.0105316
0.0103361
0.0101391
0.00993804
0.00973968
0.00952977
0.00933982
0.00910226
0.00895805
0.012812
0.0143427
0.0141318
0.0141935
0.0141181
0.013989
0.0138528
0.0137076
0.0135586
0.013408
0.0132562
0.0131031
0.0129488
0.0127928
0.0126349
0.0124747
0.0123121
0.0121466
0.0119783
0.0118067
0.0116319
0.0114538
0.0112725
0.0110879
0.0109003
0.0107096
0.0105165
0.0103204
0.0101232
0.00992201
0.00972369
0.00951455
0.00932491
0.00909048
0.00894642
0.0125723
0.0144149
0.0141492
0.0142194
0.0141356
0.0140005
0.0138607
0.0137128
0.0135619
0.0134099
0.0132569
0.0131029
0.0129477
0.0127908
0.0126322
0.0124712
0.0123078
0.0121416
0.0119725
0.0118001
0.0116247
0.0114458
0.0112639
0.0110786
0.0108905
0.0106993
0.0105057
0.0103093
0.0101119
0.00991078
0.00971234
0.00950391
0.00931257
0.00908006
0.00892567
0.0123265
0.0145036
0.0141774
0.014256
0.0141604
0.0140175
0.013873
0.0137218
0.0135686
0.0134149
0.0132607
0.0131056
0.0129495
0.0127919
0.0126325
0.0124709
0.0123069
0.0121401
0.0119704
0.0117975
0.0116216
0.0114422
0.0112599
0.0110741
0.0108857
0.0106941
0.0105004
0.0103038
0.0101064
0.0099054
0.00970735
0.0095003
0.00931022
0.0090849
0.00893237
0.0120589
0.0146084
0.014201
0.0142852
0.0141784
0.0140299
0.0138821
0.0137286
0.0135739
0.0134191
0.0132639
0.0131081
0.0129514
0.0127933
0.0126335
0.0124714
0.0123071
0.0121398
0.0119698
0.0117966
0.0116204
0.0114407
0.0112581
0.0110721
0.0108835
0.0106917
0.010498
0.0103012
0.0101039
0.00990296
0.00970489
0.00949884
0.00930567
0.00908364
0.00889918
0.0118251
0.0147206
0.0142465
0.0143277
0.0142059
0.0140491
0.0138961
0.0137391
0.0135821
0.0134256
0.0132692
0.0131126
0.0129552
0.0127966
0.0126364
0.012474
0.0123094
0.0121419
0.0119718
0.0117984
0.011622
0.0114423
0.0112596
0.0110735
0.010885
0.0106931
0.0104995
0.0103027
0.0101056
0.00990478
0.00970735
0.00950216
0.00931413
0.00909936
0.00896176
0.014219
0.0146689
0.0142817
0.0141816
0.0140703
0.013956
0.0138479
0.0137395
0.0136317
0.013525
0.0134194
0.0133151
0.0132124
0.0131111
0.0130112
0.0129126
0.0128148
0.0127176
0.0126206
0.0125233
0.0124251
0.0123256
0.0122241
0.0121199
0.0120124
0.0119008
0.0117846
0.0116628
0.0115354
0.0114007
0.0112606
0.0111109
0.0109614
0.0107936
0.0106553
0.0141945
0.0146377
0.0142623
0.0141666
0.0140584
0.0139459
0.0138379
0.0137286
0.013619
0.0135097
0.013401
0.013293
0.013186
0.0130799
0.0129747
0.0128701
0.012766
0.0126619
0.0125575
0.0124524
0.0123461
0.0122379
0.0121275
0.0120141
0.0118973
0.0117763
0.0116508
0.0115196
0.0113832
0.0112392
0.0110905
0.0109294
0.0107708
0.0105785
0.0104298
0.0141667
0.0146056
0.0142412
0.0141502
0.0140451
0.0139338
0.0138253
0.0137144
0.0136022
0.0134896
0.0133768
0.0132642
0.013152
0.0130401
0.0129286
0.0128171
0.0127055
0.0125934
0.0124804
0.0123661
0.01225
0.0121315
0.0120104
0.0118857
0.0117574
0.0116244
0.0114868
0.0113434
0.011195
0.0110391
0.0108796
0.0107076
0.0105425
0.0103419
0.0101964
0.0141312
0.0145705
0.0142197
0.0141353
0.0140342
0.0139248
0.0138164
0.0137044
0.0135901
0.0134746
0.0133584
0.0132419
0.0131253
0.0130086
0.0128918
0.0127746
0.0126567
0.012538
0.0124179
0.0122961
0.0121723
0.0120457
0.0119163
0.0117831
0.0116462
0.0115046
0.0113585
0.0112068
0.0110502
0.0108863
0.0107194
0.0105392
0.0103672
0.0101559
0.0100046
0.0140984
0.0145331
0.0141985
0.0141211
0.0140241
0.0139164
0.0138077
0.013694
0.0135772
0.0134586
0.0133386
0.0132179
0.0130965
0.0129747
0.0128523
0.012729
0.0126047
0.0124791
0.0123518
0.0122223
0.0120904
0.0119555
0.0118174
0.0116755
0.0115297
0.0113791
0.0112241
0.0110636
0.0108985
0.0107264
0.0105521
0.0103647
0.0101876
0.00997075
0.00981894
0.0140528
0.0144931
0.0141771
0.0141083
0.0140164
0.0139106
0.0138017
0.0136865
0.0135674
0.0134457
0.0133223
0.0131977
0.0130722
0.0129457
0.0128183
0.0126897
0.0125598
0.0124281
0.0122944
0.0121584
0.0120196
0.0118777
0.0117324
0.0115833
0.0114302
0.0112725
0.0111105
0.0109431
0.0107717
0.0105934
0.0104135
0.0102206
0.0100391
0.00981679
0.00966242
0.0140043
0.0144511
0.0141564
0.0140973
0.0140107
0.0139067
0.0137972
0.0136803
0.0135585
0.0134337
0.0133067
0.0131781
0.0130483
0.0129172
0.0127849
0.0126511
0.0125156
0.0123781
0.0122383
0.0120959
0.0119506
0.0118019
0.0116498
0.0114938
0.0113338
0.0111694
0.0110007
0.010827
0.0106496
0.0104656
0.0102808
0.0100832
0.00989838
0.00967243
0.00951765
0.0139457
0.0144083
0.0141376
0.0140894
0.0140083
0.0139056
0.0137953
0.0136764
0.0135519
0.013424
0.0132936
0.0131613
0.0130276
0.0128923
0.0127555
0.012617
0.0124766
0.0123339
0.0121887
0.0120407
0.0118897
0.0117352
0.0115772
0.0114154
0.0112496
0.0110796
0.0109056
0.0107268
0.0105446
0.0103562
0.0101676
0.00996643
0.00977914
0.0095501
0.00939498
0.0138758
0.0143656
0.0141204
0.0140844
0.014009
0.0139073
0.0137959
0.0136748
0.0135475
0.0134165
0.0132828
0.0131472
0.0130098
0.0128708
0.01273
0.0125874
0.0124425
0.0122953
0.0121454
0.0119926
0.0118366
0.0116772
0.0115143
0.0113475
0.0111768
0.0110021
0.0108236
0.0106406
0.0104545
0.0102626
0.0100709
0.009867
0.00967805
0.00944668
0.00929198
0.0138055
0.0143309
0.014109
0.0140842
0.0140131
0.0139113
0.0137983
0.0136749
0.013545
0.0134112
0.0132747
0.013136
0.0129956
0.0128534
0.0127093
0.0125632
0.0124148
0.0122639
0.0121102
0.0119535
0.0117935
0.0116301
0.0114631
0.0112924
0.011118
0.0109396
0.0107576
0.0105714
0.0103825
0.010188
0.00999425
0.0097883
0.00959836
0.00936509
0.00921117
0.0137136
0.0142962
0.0140983
0.0140865
0.0140201
0.0139177
0.0138027
0.0136768
0.0135441
0.0134076
0.0132683
0.0131269
0.0129836
0.0128385
0.0126914
0.0125423
0.0123907
0.0122365
0.0120794
0.0119193
0.0117558
0.011589
0.0114186
0.0112445
0.0110668
0.0108854
0.0107005
0.0105117
0.0103204
0.0101238
0.00992844
0.0097209
0.00953046
0.00929562
0.00914311
0.0136196
0.0142729
0.014094
0.014094
0.0140303
0.0139259
0.0138085
0.0136797
0.0135443
0.0134051
0.0132633
0.0131194
0.0129736
0.012826
0.0126763
0.0125245
0.0123702
0.0122132
0.0120533
0.0118903
0.0117239
0.0115542
0.0113809
0.0112041
0.0110237
0.0108398
0.0106526
0.0104617
0.0102686
0.0100704
0.00987389
0.00966519
0.0094746
0.00923836
0.00908766
0.0134954
0.0142539
0.0140912
0.014105
0.0140435
0.0139364
0.0138161
0.0136842
0.013546
0.0134041
0.0132598
0.0131136
0.0129656
0.0128157
0.0126638
0.0125096
0.0123529
0.0121936
0.0120312
0.0118657
0.0116969
0.0115247
0.0113491
0.01117
0.0109874
0.0108014
0.0106123
0.0104197
0.0102252
0.0100258
0.00982853
0.00961904
0.00942866
0.00919141
0.00904309
0.013365
0.0142512
0.0140948
0.0141206
0.0140588
0.0139477
0.013824
0.013689
0.013548
0.0134037
0.0132573
0.013109
0.012959
0.0128072
0.0126533
0.0124973
0.0123386
0.0121772
0.0120128
0.0118453
0.0116745
0.0115003
0.0113227
0.0111417
0.0109574
0.0107698
0.0105792
0.0103853
0.0101897
0.0099895
0.00979165
0.00958167
0.00939152
0.00915341
0.00900731
0.0132025
0.0142607
0.014102
0.0141411
0.0140775
0.0139613
0.0138336
0.0136951
0.0135512
0.0134046
0.0132561
0.013106
0.0129542
0.0128008
0.0126453
0.0124875
0.0123272
0.0121642
0.0119981
0.0118289
0.0116565
0.0114807
0.0113015
0.011119
0.0109332
0.0107443
0.0105526
0.0103578
0.0101614
0.00996063
0.0097625
0.00955247
0.00936278
0.00912492
0.00898125
0.0130211
0.0142902
0.0141136
0.0141637
0.0140956
0.0139736
0.0138421
0.0137004
0.013554
0.0134054
0.0132552
0.0131036
0.0129505
0.0127956
0.0126388
0.0124798
0.0123182
0.0121538
0.0119864
0.0118159
0.0116421
0.0114651
0.0112846
0.011101
0.0109141
0.0107242
0.0105317
0.0103361
0.0101392
0.00993813
0.00973977
0.00952987
0.00933993
0.00910237
0.00895821
0.0128171
0.0143398
0.0141316
0.0141934
0.014118
0.0139889
0.0138527
0.0137075
0.0135585
0.0134079
0.0132561
0.0131031
0.0129488
0.0127928
0.0126349
0.0124748
0.0123121
0.0121467
0.0119783
0.0118067
0.011632
0.0114539
0.0112726
0.011088
0.0109004
0.0107097
0.0105166
0.0103205
0.0101233
0.00992213
0.00972382
0.00951468
0.00932505
0.00909063
0.00894662
0.0125771
0.0144122
0.014149
0.0142192
0.0141355
0.0140004
0.0138607
0.0137128
0.013562
0.01341
0.013257
0.013103
0.0129477
0.0127909
0.0126323
0.0124713
0.0123079
0.0121417
0.0119726
0.0118002
0.0116248
0.0114459
0.011264
0.0110787
0.0108906
0.0106994
0.0105059
0.0103095
0.0101121
0.00991091
0.00971248
0.00950405
0.00931272
0.0090802
0.00892584
0.0123302
0.0145017
0.0141771
0.0142559
0.0141604
0.0140176
0.0138732
0.013722
0.0135688
0.0134151
0.0132608
0.0131057
0.0129496
0.012792
0.0126327
0.012471
0.0123071
0.0121402
0.0119705
0.0117976
0.0116217
0.0114423
0.01126
0.0110742
0.0108858
0.0106942
0.0105005
0.0103039
0.0101065
0.00990551
0.00970747
0.00950041
0.00931036
0.00908502
0.00893258
0.0120609
0.0146085
0.0142013
0.0142857
0.0141789
0.0140302
0.0138823
0.0137288
0.013574
0.0134191
0.013264
0.0131082
0.0129515
0.0127933
0.0126335
0.0124715
0.0123071
0.0121398
0.0119698
0.0117966
0.0116204
0.0114407
0.0112581
0.0110721
0.0108835
0.0106917
0.0104979
0.0103012
0.0101039
0.00990296
0.00970488
0.00949882
0.00930568
0.00908358
0.00889906
0.0118333
0.0147227
0.0142465
0.0143272
0.0142053
0.0140486
0.0138956
0.0137387
0.0135817
0.0134252
0.0132689
0.0131123
0.0129549
0.0127963
0.0126361
0.0124738
0.0123092
0.0121417
0.0119716
0.0117982
0.0116219
0.0114421
0.0112594
0.0110734
0.0108848
0.0106929
0.0104993
0.0103025
0.0101054
0.0099046
0.00970716
0.00950197
0.00931393
0.00909918
0.00896148
0.0142241
0.0146637
0.0142813
0.0141815
0.0140703
0.013956
0.0138479
0.0137395
0.0136317
0.013525
0.0134194
0.0133151
0.0132124
0.0131111
0.0130112
0.0129125
0.0128148
0.0127176
0.0126206
0.0125233
0.0124251
0.0123256
0.0122241
0.0121199
0.0120124
0.0119008
0.0117846
0.0116628
0.0115353
0.0114007
0.0112606
0.0111109
0.0109614
0.0107936
0.0106554
0.0141994
0.0146326
0.014262
0.0141665
0.0140584
0.0139459
0.0138379
0.0137286
0.013619
0.0135097
0.013401
0.013293
0.013186
0.0130799
0.0129747
0.0128701
0.012766
0.0126619
0.0125575
0.0124524
0.0123461
0.0122379
0.0121275
0.0120141
0.0118974
0.0117763
0.0116508
0.0115196
0.0113832
0.0112392
0.0110905
0.0109294
0.0107709
0.0105786
0.0104298
0.0141716
0.0146005
0.0142408
0.0141501
0.0140451
0.0139338
0.0138253
0.0137144
0.0136022
0.0134896
0.0133768
0.0132642
0.013152
0.0130401
0.0129286
0.0128171
0.0127055
0.0125934
0.0124804
0.0123661
0.01225
0.0121315
0.0120103
0.0118857
0.0117573
0.0116244
0.0114868
0.0113434
0.011195
0.0110391
0.0108796
0.0107076
0.0105425
0.0103419
0.0101965
0.0141361
0.0145654
0.0142194
0.0141352
0.0140342
0.0139249
0.0138164
0.0137044
0.0135901
0.0134746
0.0133584
0.0132419
0.0131253
0.0130086
0.0128918
0.0127746
0.0126567
0.012538
0.0124179
0.0122962
0.0121723
0.0120458
0.0119163
0.0117831
0.0116462
0.0115046
0.0113585
0.0112068
0.0110502
0.0108863
0.0107194
0.0105392
0.0103672
0.010156
0.0100047
0.0141032
0.0145283
0.0141982
0.014121
0.0140242
0.0139165
0.0138077
0.013694
0.0135772
0.0134586
0.0133386
0.0132179
0.0130965
0.0129747
0.0128523
0.012729
0.0126047
0.0124791
0.0123517
0.0122223
0.0120904
0.0119555
0.0118174
0.0116755
0.0115297
0.0113791
0.0112241
0.0110636
0.0108985
0.0107264
0.0105521
0.0103648
0.0101876
0.00997078
0.00981902
0.0140575
0.0144883
0.0141768
0.0141082
0.0140164
0.0139106
0.0138017
0.0136865
0.0135674
0.0134457
0.0133223
0.0131977
0.0130721
0.0129457
0.0128183
0.0126897
0.0125597
0.0124281
0.0122944
0.0121584
0.0120196
0.0118777
0.0117324
0.0115833
0.0114302
0.0112725
0.0111105
0.0109432
0.0107717
0.0105934
0.0104135
0.0102207
0.0100391
0.00981683
0.00966253
0.0140089
0.0144464
0.0141561
0.0140972
0.0140107
0.0139067
0.0137972
0.0136803
0.0135585
0.0134336
0.0133066
0.0131781
0.0130483
0.0129172
0.0127849
0.0126511
0.0125156
0.0123781
0.0122383
0.0120959
0.0119505
0.0118019
0.0116498
0.0114938
0.0113338
0.0111694
0.0110007
0.010827
0.0106496
0.0104656
0.0102808
0.0100832
0.00989839
0.00967247
0.00951776
0.0139502
0.0144037
0.0141373
0.0140893
0.0140083
0.0139056
0.0137953
0.0136764
0.0135519
0.013424
0.0132936
0.0131613
0.0130275
0.0128923
0.0127555
0.012617
0.0124766
0.0123339
0.0121887
0.0120407
0.0118896
0.0117352
0.0115772
0.0114154
0.0112496
0.0110796
0.0109056
0.0107268
0.0105446
0.0103562
0.0101676
0.00996646
0.00977915
0.00955014
0.00939511
0.0138802
0.0143611
0.0141202
0.0140843
0.014009
0.0139073
0.0137959
0.0136747
0.0135475
0.0134165
0.0132828
0.0131472
0.0130098
0.0128708
0.01273
0.0125874
0.0124425
0.0122953
0.0121454
0.0119926
0.0118366
0.0116772
0.0115143
0.0113475
0.0111768
0.0110021
0.0108236
0.0106406
0.0104545
0.0102626
0.0100709
0.00986702
0.00967806
0.00944672
0.00929211
0.0138098
0.0143265
0.0141088
0.0140841
0.0140132
0.0139113
0.0137983
0.0136749
0.013545
0.0134112
0.0132746
0.013136
0.0129956
0.0128534
0.0127093
0.0125632
0.0124148
0.0122639
0.0121102
0.0119535
0.0117935
0.0116301
0.0114631
0.0112924
0.011118
0.0109396
0.0107576
0.0105715
0.0103825
0.010188
0.00999426
0.00978832
0.00959837
0.00936514
0.00921131
0.0137178
0.0142919
0.0140981
0.0140865
0.0140201
0.0139177
0.0138027
0.0136768
0.0135441
0.0134075
0.0132682
0.0131268
0.0129835
0.0128385
0.0126914
0.0125422
0.0123906
0.0122365
0.0120794
0.0119193
0.0117558
0.011589
0.0114186
0.0112445
0.0110668
0.0108854
0.0107005
0.0105117
0.0103204
0.0101238
0.00992845
0.00972093
0.00953047
0.00929567
0.00914326
0.0136237
0.0142688
0.0140938
0.014094
0.0140303
0.0139259
0.0138085
0.0136797
0.0135443
0.0134051
0.0132632
0.0131193
0.0129735
0.0128259
0.0126763
0.0125245
0.0123702
0.0122132
0.0120532
0.0118902
0.0117239
0.0115542
0.0113809
0.0112041
0.0110237
0.0108398
0.0106526
0.0104617
0.0102686
0.0100704
0.0098739
0.00966522
0.00947461
0.00923841
0.00908782
0.0134994
0.01425
0.0140911
0.0141049
0.0140435
0.0139364
0.013816
0.0136842
0.0135459
0.0134041
0.0132598
0.0131136
0.0129655
0.0128157
0.0126637
0.0125096
0.0123529
0.0121935
0.0120312
0.0118657
0.0116969
0.0115247
0.0113491
0.01117
0.0109874
0.0108014
0.0106123
0.0104198
0.0102252
0.0100258
0.00982853
0.00961907
0.00942867
0.00919146
0.00904326
0.0133688
0.0142474
0.0140947
0.0141205
0.0140587
0.0139476
0.0138239
0.0136889
0.0135479
0.0134037
0.0132572
0.0131089
0.0129589
0.0128072
0.0126533
0.0124972
0.0123386
0.0121772
0.0120128
0.0118453
0.0116745
0.0115003
0.0113227
0.0111417
0.0109574
0.0107698
0.0105792
0.0103854
0.0101897
0.00998952
0.00979167
0.0095817
0.00939153
0.00915347
0.0090075
0.0132061
0.0142572
0.0141019
0.014141
0.0140775
0.0139612
0.0138335
0.0136951
0.0135512
0.0134046
0.013256
0.0131059
0.0129542
0.0128007
0.0126452
0.0124875
0.0123272
0.0121642
0.0119981
0.0118289
0.0116564
0.0114807
0.0113015
0.011119
0.0109332
0.0107443
0.0105526
0.0103578
0.0101614
0.00996066
0.00976253
0.00955252
0.0093628
0.00912499
0.00898145
0.0130246
0.0142869
0.0141134
0.0141635
0.0140955
0.0139735
0.013842
0.0137003
0.0135539
0.0134054
0.0132551
0.0131035
0.0129504
0.0127956
0.0126388
0.0124797
0.0123182
0.0121538
0.0119864
0.0118159
0.0116421
0.0114651
0.0112847
0.011101
0.0109142
0.0107243
0.0105317
0.0103362
0.0101392
0.00993818
0.00973981
0.00952993
0.00933997
0.00910247
0.00895843
0.0128203
0.0143369
0.0141315
0.0141932
0.0141179
0.0139888
0.0138526
0.0137074
0.0135584
0.0134079
0.0132561
0.0131031
0.0129488
0.0127928
0.0126349
0.0124748
0.0123122
0.0121467
0.0119783
0.0118068
0.011632
0.0114539
0.0112726
0.011088
0.0109004
0.0107098
0.0105166
0.0103206
0.0101233
0.0099222
0.00972389
0.00951476
0.00932511
0.00909074
0.00894686
0.01258
0.0144096
0.0141489
0.0142191
0.0141354
0.0140003
0.0138606
0.0137128
0.013562
0.01341
0.013257
0.013103
0.0129478
0.012791
0.0126323
0.0124714
0.012308
0.0121418
0.0119726
0.0118003
0.0116248
0.011446
0.011264
0.0110788
0.0108906
0.0106994
0.0105059
0.0103095
0.0101121
0.00991099
0.00971255
0.00950413
0.00931279
0.00908031
0.00892604
0.0123326
0.0145002
0.0141772
0.0142559
0.0141605
0.0140177
0.0138732
0.013722
0.0135689
0.0134152
0.0132609
0.0131058
0.0129497
0.0127921
0.0126327
0.0124711
0.0123071
0.0121403
0.0119706
0.0117977
0.0116217
0.0114424
0.01126
0.0110743
0.0108858
0.0106942
0.0105006
0.010304
0.0101066
0.00990556
0.00970752
0.00950046
0.0093104
0.00908508
0.00893272
0.0120628
0.0146091
0.0142017
0.0142858
0.0141791
0.0140303
0.0138824
0.0137288
0.013574
0.0134191
0.013264
0.0131082
0.0129515
0.0127933
0.0126335
0.0124714
0.012307
0.0121398
0.0119698
0.0117966
0.0116203
0.0114406
0.011258
0.011072
0.0108834
0.0106916
0.0104979
0.0103011
0.0101038
0.0099029
0.00970482
0.00949875
0.00930561
0.00908348
0.00889855
0.0118319
0.0147239
0.0142472
0.0143272
0.0142054
0.0140485
0.0138955
0.0137386
0.0135816
0.0134252
0.0132689
0.0131122
0.0129549
0.0127963
0.0126361
0.0124738
0.0123092
0.0121417
0.0119716
0.0117982
0.0116219
0.0114421