/*--------------------------------*- C++ -*----------------------------------*\
  =========                 |
  \\      /  F ield         | OpenFOAM: The Open Source CFD Toolbox
   \\    /   O peration     | Website:  https://openfoam.org
    \\  /    A nd           | Version:  6
     \\/     M anipulation  |
\*---------------------------------------------------------------------------*/
FoamFile
{
    version     2.0;
    format      ascii;
    class       volVectorField;
    location    "35";
    object      wallShearStress;
}
// * * * * * * * * * * * * * * * * * * * * * * * * * * * * * * * * * * * * * //

dimensions      [0 2 -2 0 0 0 0];

internalField   uniform (0 0 0);

boundaryField
{
    inlet
    {
        type            calculated;
        value           uniform (0 0 0);
    }
    outlet
    {
        type            calculated;
        value           uniform (0 0 0);
    }
    roughCylinder
    {
        type            calculated;
        value           nonuniform List<vector> 
3840
(
(-0.000269907 -0.000396188 -0.000163096)
(-0.000326216 -0.00050951 -2.21177e-05)
(-0.000375369 -0.000630752 4.17565e-05)
(-0.000450323 -0.000734073 0.000123553)
(-0.000538252 -0.000808041 0.000205914)
(-0.000629472 -0.00084841 0.000278028)
(-0.00071433 -0.000859198 0.000334744)
(-0.000788074 -0.000851733 0.000374609)
(-0.000851138 -0.000845319 0.000401898)
(-0.000899758 -0.00084393 0.000416232)
(-0.000938467 -0.000851577 0.000419606)
(-0.000970645 -0.000866719 0.000414177)
(-0.000999365 -0.000887742 0.000402494)
(-0.00102754 -0.00091316 0.000386629)
(-0.0010572 -0.000942029 0.000368015)
(-0.00108946 -0.000973834 0.000347303)
(-0.00112466 -0.00100826 0.000324581)
(-0.00116262 -0.00104495 0.000299529)
(-0.0012028 -0.00108339 0.000271575)
(-0.0012444 -0.00112275 0.000239816)
(-0.00128626 -0.00116182 0.000202901)
(-0.00132633 -0.0011985 0.000158541)
(-0.00136089 -0.00122982 0.000103125)
(-0.00138251 -0.00124954 3.59142e-05)
(-0.000289421 -0.000383784 -0.000155612)
(-0.000349037 -0.000493983 -2.61106e-05)
(-0.000400763 -0.00061483 3.32356e-05)
(-0.000478067 -0.000719368 0.000111534)
(-0.000567925 -0.000795939 0.000191909)
(-0.000661116 -0.000839292 0.000262946)
(-0.000748989 -0.0008542 0.000319636)
(-0.000827658 -0.000852864 0.000361533)
(-0.000895666 -0.00084966 0.00039136)
(-0.000948286 -0.000847063 0.000407216)
(-0.000988976 -0.000853374 0.000411245)
(-0.0010231 -0.000867859 0.000406134)
(-0.00105371 -0.000888676 0.000394689)
(-0.0010838 -0.00091411 0.000379048)
(-0.00111546 -0.000943096 0.000360726)
(-0.00114982 -0.000975028 0.000340396)
(-0.0011872 -0.00100955 0.000318154)
(-0.0012274 -0.00104627 0.000293682)
(-0.00126986 -0.00108469 0.000266393)
(-0.00131371 -0.00112397 0.000235371)
(-0.00135776 -0.00116291 0.000199273)
(-0.00139982 -0.0011994 0.000155806)
(-0.00143605 -0.00123053 0.000101402)
(-0.00145865 -0.00125007 3.53283e-05)
(-0.000309046 -0.000366065 -0.000142588)
(-0.000371277 -0.00047285 -3.0659e-05)
(-0.00042535 -0.000592211 2.38759e-05)
(-0.000504503 -0.000697281 9.83055e-05)
(-0.000596168 -0.000776283 0.000176425)
(-0.000691682 -0.000823327 0.000246506)
(-0.000783255 -0.000843478 0.000303824)
(-0.000866817 -0.000848074 0.000347835)
(-0.000939378 -0.000847795 0.000379547)
(-0.000996707 -0.000845237 0.000397092)
(-0.00103951 -0.00084985 0.000401753)
(-0.00107566 -0.000863475 0.000396985)
(-0.00110828 -0.000883862 0.000385843)
(-0.00114039 -0.000909118 0.000370517)
(-0.00117411 -0.000938003 0.000352558)
(-0.00121061 -0.00096984 0.000332691)
(-0.00125021 -0.00100421 0.000311014)
(-0.00129267 -0.00104073 0.000287201)
(-0.00133741 -0.00107887 0.000260659)
(-0.00138349 -0.0011178 0.000230455)
(-0.00142969 -0.00115632 0.000195258)
(-0.00147368 -0.00119237 0.000152775)
(-0.00151154 -0.00122308 9.94913e-05)
(-0.00153507 -0.00124229 3.468e-05)
(-0.000326381 -0.000343859 -0.000125832)
(-0.000390494 -0.000446647 -3.53444e-05)
(-0.000446382 -0.000563556 1.40653e-05)
(-0.000526791 -0.000668634 8.42702e-05)
(-0.000620202 -0.000750085 0.000159827)
(-0.000718412 -0.000801473 0.000228935)
(-0.000814029 -0.000827522 0.0002871)
(-0.000902435 -0.000837828 0.00033315)
(-0.000979689 -0.000840646 0.000366611)
(-0.0010421 -0.000839428 0.000386014)
(-0.00108772 -0.00084186 0.000391345)
(-0.00112602 -0.000854412 0.00038703)
(-0.00116078 -0.00087419 0.000376277)
(-0.00119499 -0.000899079 0.000361342)
(-0.00123084 -0.000927716 0.000343838)
(-0.00126949 -0.000959283 0.00032451)
(-0.00131128 -0.000993329 0.000303465)
(-0.00135594 -0.00102944 0.000280376)
(-0.00140285 -0.00106707 0.000254637)
(-0.00145105 -0.00110542 0.000225302)
(-0.00149926 -0.00114332 0.000191056)
(-0.00154507 -0.00117871 0.000149606)
(-0.00158443 -0.00120882 9.74975e-05)
(-0.00160881 -0.0012276 3.40053e-05)
(-0.000340719 -0.000318008 -0.000107155)
(-0.000406144 -0.000416263 -3.98268e-05)
(-0.000463144 -0.000529745 4.17929e-06)
(-0.000544169 -0.000634203 6.97833e-05)
(-0.000639208 -0.00071797 0.000142397)
(-0.000740338 -0.000773989 0.000210361)
(-0.000840133 -0.000806033 0.000269271)
(-0.000933292 -0.000821708 0.000317175)
(-0.00101529 -0.000827631 0.000352413)
(-0.00108233 -0.000827909 0.000373383)
(-0.00113249 -0.000828842 0.000379875)
(-0.00117319 -0.000840141 0.000376288)
(-0.00121026 -0.00085902 0.00036602)
(-0.00124666 -0.000883363 0.000351594)
(-0.00128463 -0.00091153 0.000334631)
(-0.00132541 -0.000942622 0.000315916)
(-0.00136932 -0.000976127 0.00029558)
(-0.00141608 -0.0010116 0.000273279)
(-0.00146505 -0.00104851 0.000248402)
(-0.0015152 -0.00108603 0.000219981)
(-0.00156527 -0.00112307 0.000186726)
(-0.0016127 -0.00115757 0.000146346)
(-0.00165342 -0.00118689 9.54501e-05)
(-0.00167851 -0.00120512 3.33154e-05)
(-0.000351684 -0.000289565 -8.77633e-05)
(-0.000417456 -0.000382438 -4.39319e-05)
(-0.000474804 -0.000491639 -5.54119e-06)
(-0.000555835 -0.000594886 5.5037e-05)
(-0.00065236 -0.000680808 0.000124256)
(-0.000756587 -0.000741572 0.000190805)
(-0.000860675 -0.000779434 0.000250225)
(-0.000958629 -0.000800075 0.000299755)
(-0.00104549 -0.000808999 0.00033675)
(-0.00111739 -0.000810864 0.000359211)
(-0.0011733 -0.000811877 0.000367438)
(-0.00121673 -0.000820846 0.000364649)
(-0.00125628 -0.000838612 0.00035504)
(-0.00129497 -0.000862075 0.000341242)
(-0.00133514 -0.000889569 0.00032494)
(-0.00137803 -0.000919986 0.000306938)
(-0.00142398 -0.000952728 0.000287388)
(-0.00147271 -0.000987325 0.00026594)
(-0.00152355 -0.00102325 0.000241975)
(-0.00157548 -0.00105973 0.000214515)
(-0.00162718 -0.00109567 0.000182286)
(-0.00167605 -0.00112908 0.000143008)
(-0.00171794 -0.00115743 9.33595e-05)
(-0.00174361 -0.00117499 3.26142e-05)
(-0.000358351 -0.000259115 -6.84207e-05)
(-0.000424044 -0.000346319 -4.75058e-05)
(-0.000480912 -0.000450431 -1.49116e-05)
(-0.000561194 -0.000551791 4.02024e-05)
(-0.000658804 -0.000639456 0.0001055)
(-0.000765984 -0.000704712 0.000170214)
(-0.000874401 -0.000748059 0.000229786)
(-0.000977293 -0.000773333 0.000280669)
(-0.00106924 -0.000785201 0.000319389)
(-0.00114633 -0.000788725 0.000343491)
(-0.00120774 -0.000790453 0.000353448)
(-0.0012559 -0.000797518 0.000351987)
(-0.00129819 -0.000813522 0.000343277)
(-0.00133939 -0.000835932 0.000330291)
(-0.00138177 -0.000862461 0.000314763)
(-0.00142672 -0.000891952 0.000297575)
(-0.00147463 -0.000923725 0.0002789)
(-0.00152521 -0.00095726 0.00025838)
(-0.00157777 -0.000992024 0.000235388)
(-0.00163123 -0.00102724 0.000208926)
(-0.00168436 -0.00106187 0.000177759)
(-0.00173441 -0.00109398 0.000139607)
(-0.00177729 -0.00112121 9.12357e-05)
(-0.00180338 -0.001138 3.19056e-05)
(-0.000360929 -0.000227863 -4.9863e-05)
(-0.000425033 -0.000308462 -5.05277e-05)
(-0.000480375 -0.000406636 -2.37179e-05)
(-0.000559009 -0.000505234 2.54885e-05)
(-0.000657211 -0.000594116 8.62285e-05)
(-0.000767281 -0.000663633 0.00014856)
(-0.000880104 -0.000712184 0.000207822)
(-0.000988129 -0.000741847 0.000259742)
(-0.00108548 -0.000756633 0.000300121)
(-0.00116818 -0.000761947 0.000326082)
(-0.00123517 -0.00076447 0.000337811)
(-0.00128899 -0.000770797 0.000338088)
(-0.00133507 -0.00078469 0.000330648)
(-0.00137891 -0.000805231 0.000318636)
(-0.00142361 -0.000830609 0.000304069)
(-0.00147066 -0.000858985 0.000287829)
(-0.00152041 -0.000889573 0.000270124)
(-0.00157262 -0.000921822 0.000250603)
(-0.00162662 -0.000955193 0.000228637)
(-0.0016814 -0.000989001 0.000203222)
(-0.00173565 -0.00102225 0.000173151)
(-0.00178663 -0.00105299 0.000136155)
(-0.00183024 -0.00107898 8.90863e-05)
(-0.00185656 -0.00109502 3.11939e-05)
(-0.000357358 -0.000195507 -3.24024e-05)
(-0.000420072 -0.000269565 -5.26433e-05)
(-0.000473076 -0.000361192 -3.18261e-05)
(-0.000549093 -0.000456292 1.11005e-05)
(-0.000647043 -0.000545575 6.66612e-05)
(-0.000759412 -0.000618655 0.000125894)
(-0.000876476 -0.000671967 0.000184228)
(-0.000989821 -0.000705828 0.000236784)
(-0.001093 -0.000723588 0.000278717)
(-0.00118166 -0.000730733 0.000306672)
(-0.00125465 -0.000734188 0.000320462)
(-0.0013141 -0.000740281 0.000322657)
(-0.00136507 -0.000752744 0.000316899)
(-0.00141276 -0.000771641 0.000306346)
(-0.00145982 -0.000795287 0.00029291)
(-0.00150885 -0.000822215 0.000277737)
(-0.00156033 -0.000851463 0.000261117)
(-0.00161401 -0.000882363 0.000242688)
(-0.00166926 -0.000914333 0.000221819)
(-0.0017249 -0.000946612 0.000197469)
(-0.00177977 -0.00097826 0.000168496)
(-0.0018312 -0.00100743 0.000132659)
(-0.00187522 -0.00103208 8.69133e-05)
(-0.00190137 -0.00104723 3.04765e-05)
(-0.000350055 -0.000164026 -1.67015e-05)
(-0.000408575 -0.000230638 -5.44347e-05)
(-0.000457909 -0.000314851 -3.8733e-05)
(-0.000530031 -0.00040506 -2.4892e-06)
(-0.000626742 -0.000493721 4.70402e-05)
(-0.00074113 -0.000569942 0.000102324)
(-0.000862475 -0.000627805 0.000159014)
(-0.000981433 -0.000665834 0.000211744)
(-0.0010908 -0.000686576 0.000255044)
(-0.00118599 -0.000695668 0.000285112)
(-0.00126526 -0.000700009 0.000301217)
(-0.00133052 -0.000705935 0.000305603)
(-0.00138648 -0.00071735 0.000301795)
(-0.00143794 -0.00073472 0.000292907)
(-0.00148796 -0.000756624 0.000280913)
(-0.00153918 -0.000781974 0.000267053)
(-0.00159216 -0.000809637 0.000251651)
(-0.00164682 -0.000838894 0.000234386)
(-0.00170265 -0.000869162 0.000214647)
(-0.00175869 -0.000899706 0.000191406)
(-0.0018138 -0.000929503 0.000163577)
(-0.00186529 -0.00095693 0.000128959)
(-0.00190933 -0.000980053 8.46115e-05)
(-0.0019351 -0.000994199 2.97188e-05)
(-0.000333662 -0.000133472 -2.86512e-06)
(-0.000390892 -0.000190967 -5.37193e-05)
(-0.000435342 -0.000267995 -4.48986e-05)
(-0.000502424 -0.000352782 -1.53142e-05)
(-0.000596546 -0.000439769 2.77504e-05)
(-0.000711731 -0.000518025 7.81165e-05)
(-0.000836862 -0.000579945 0.000132226)
(-0.000961437 -0.000622032 0.00018449)
(-0.00107754 -0.000645968 0.000228925)
(-0.00117966 -0.000657009 0.00026112)
(-0.00126587 -0.000662316 0.000279831)
(-0.00133746 -0.000668148 0.000286774)
(-0.0013986 -0.000678516 0.000285214)
(-0.00145411 -0.000694368 0.000278264)
(-0.00150709 -0.000714488 0.000267941)
(-0.00156028 -0.000738021 0.000255571)
(-0.00161462 -0.00076387 0.000241549)
(-0.00167009 -0.000791282 0.000225579)
(-0.00172627 -0.000819648 0.000207068)
(-0.0017822 -0.000848154 0.000184983)
(-0.00183719 -0.000875955 0.000158369)
(-0.00188836 -0.000901499 0.00012504)
(-0.00193213 -0.000923017 8.21759e-05)
(-0.00195723 -0.000936067 2.8919e-05)
(-0.000311255 -0.000105213 5.33655e-06)
(-0.000368281 -0.00015554 -5.01092e-05)
(-0.000405744 -0.000221628 -4.89697e-05)
(-0.000465175 -0.000299651 -2.65845e-05)
(-0.000554771 -0.000383413 9.2154e-06)
(-0.000670026 -0.00046304 5.36028e-05)
(-0.000798704 -0.00052882 0.000104088)
(-0.000929276 -0.000575227 0.000155179)
(-0.00105238 -0.000602464 0.000200361)
(-0.00116216 -0.000615664 0.000234695)
(-0.00125566 -0.000621777 0.000256175)
(-0.00133388 -0.000627362 0.000265977)
(-0.00140067 -0.000636659 0.000267042)
(-0.00146033 -0.000650806 0.000262316)
(-0.00151639 -0.000669034 0.000253943)
(-0.00157171 -0.000690649 0.000243309)
(-0.00162723 -0.000714489 0.000230833)
(-0.0016831 -0.000739815 0.000216271)
(-0.00173913 -0.000766026 0.000199064)
(-0.0017947 -0.00079242 0.000178225)
(-0.00184906 -0.000818054 0.000152883)
(-0.00189941 -0.000841576 0.000120904)
(-0.00194246 -0.000861363 7.96034e-05)
(-0.00196664 -0.000873286 2.80779e-05)
(-0.000280192 -7.67763e-05 1.26199e-05)
(-0.00033886 -0.000123254 -4.82885e-05)
(-0.000369085 -0.000178328 -5.07366e-05)
(-0.000419522 -0.000248012 -3.53309e-05)
(-0.000502809 -0.000326736 -7.6363e-06)
(-0.000615893 -0.000405884 2.95193e-05)
(-0.000747175 -0.000474827 7.5042e-05)
(-0.000883185 -0.000525349 0.000123885)
(-0.00101386 -0.00055634 0.000169311)
(-0.00113163 -0.000571803 0.000205601)
(-0.0012333 -0.000578909 0.000230071)
(-0.00131892 -0.000584256 0.000243111)
(-0.00139167 -0.000592295 0.000247164)
(-0.00145601 -0.00060468 0.000245068)
(-0.00151527 -0.00062084 0.000238945)
(-0.00157243 -0.000640251 0.000230244)
(-0.00162893 -0.000661911 0.000219501)
(-0.00168502 -0.000685054 0.000206501)
(-0.00174063 -0.000709043 0.000190712)
(-0.00179514 -0.000733107 0.000171154)
(-0.00184849 -0.000756517 0.00014715)
(-0.00189763 -0.000777983 0.000116584)
(-0.00193964 -0.00079602 7.69206e-05)
(-0.0019625 -0.000806765 2.72044e-05)
(-0.000243397 -5.04828e-05 1.86492e-05)
(-0.000302723 -9.40351e-05 -4.72389e-05)
(-0.00032617 -0.000138973 -5.0703e-05)
(-0.000365412 -0.000198287 -4.12622e-05)
(-0.000439266 -0.000269489 -2.20146e-05)
(-0.000548886 -0.000346895 6.73203e-06)
(-0.00068157 -0.00041823 4.57717e-05)
(-0.000823466 -0.000473379 9.12103e-05)
(-0.000961614 -0.00050833 0.000136069)
(-0.00108822 -0.000526594 0.000174097)
(-0.00119828 -0.000534636 0.000201567)
(-0.00129152 -0.000539526 0.000218086)
(-0.00137083 -0.000546204 0.000225541)
(-0.00143989 -0.000556533 0.00022642)
(-0.00150254 -0.00057047 0.000222892)
(-0.00156185 -0.000587649 0.00021644)
(-0.00161913 -0.000606984 0.000207627)
(-0.00167492 -0.000627762 0.000196306)
(-0.00172944 -0.000649365 0.000182)
(-0.00178263 -0.000671137 0.000163806)
(-0.00183434 -0.000692232 0.000141177)
(-0.00188162 -0.00071157 0.000112068)
(-0.00192209 -0.000727808 7.41169e-05)
(-0.00194338 -0.000737424 2.62971e-05)
(-0.000199788 -2.77925e-05 2.28477e-05)
(-0.000257924 -6.716e-05 -4.52368e-05)
(-0.000276275 -0.000103365 -4.91096e-05)
(-0.000304965 -0.000152037 -4.41668e-05)
(-0.000367808 -0.000214269 -3.29438e-05)
(-0.000469539 -0.00028666 -1.35554e-05)
(-0.000602267 -0.000359477 1.73487e-05)
(-0.000748152 -0.000418573 5.7689e-05)
(-0.000894334 -0.000458395 0.000100992)
(-0.00102965 -0.000479786 0.000140145)
(-0.00114911 -0.000489337 0.000170617)
(-0.001251 -0.000494044 0.000190923)
(-0.00133715 -0.000499195 0.000202126)
(-0.00141163 -0.000507441 0.000206434)
(-0.00147779 -0.000518982 0.000205852)
(-0.00153877 -0.000533623 0.000201871)
(-0.0015966 -0.000550526 0.000195195)
(-0.00165186 -0.000568943 0.000185716)
(-0.00170502 -0.000588212 0.000173002)
(-0.00175607 -0.000607587 0.000156188)
(-0.00180578 -0.00062644 0.000134989)
(-0.00185085 -0.000643749 0.000107395)
(-0.00188937 -0.000658235 7.12195e-05)
(-0.00190864 -0.000666738 2.53642e-05)
(-0.000152794 -1.013e-05 2.475e-05)
(-0.000209039 -4.44171e-05 -4.22853e-05)
(-0.000224285 -7.32662e-05 -4.68239e-05)
(-0.000240869 -0.000110515 -4.45077e-05)
(-0.000286496 -0.000160117 -3.93111e-05)
(-0.000380736 -0.000226781 -2.94622e-05)
(-0.000509484 -0.000298366 -8.65497e-06)
(-0.000659886 -0.000362334 2.48302e-05)
(-0.000812701 -0.000407028 6.49896e-05)
(-0.000957504 -0.000432644 0.00010451)
(-0.00108616 -0.000443985 0.000137592)
(-0.00119646 -0.000448501 0.000161683)
(-0.00129009 -0.000452249 0.000176982)
(-0.00136986 -0.000458169 0.000185037)
(-0.00143967 -0.000467205 0.000187762)
(-0.00150278 -0.00047938 0.00018661)
(-0.00156091 -0.0004938 0.000182286)
(-0.00161503 -0.00050978 0.000174765)
(-0.00166603 -0.00052666 0.000163694)
(-0.00171462 -0.000543793 0.000148319)
(-0.00176153 -0.000560379 0.000128567)
(-0.00180355 -0.000575649 0.000102521)
(-0.00183968 -0.000588455 6.81983e-05)
(-0.0018566 -0.000595959 2.43974e-05)
(-0.000101395 2.6677e-06 2.46368e-05)
(-0.000151581 -2.45509e-05 -3.72456e-05)
(-0.000164979 -4.67006e-05 -4.21528e-05)
(-0.00017539 -7.36368e-05 -3.90297e-05)
(-0.000215403 -0.000110909 -4.01155e-05)
(-0.000283543 -0.000164956 -4.1813e-05)
(-0.000406578 -0.000236324 -3.04052e-05)
(-0.000555594 -0.000302093 -5.94683e-06)
(-0.000715611 -0.000353446 2.93114e-05)
(-0.000868947 -0.000383966 6.76957e-05)
(-0.00100773 -0.000398374 0.000102791)
(-0.00112771 -0.000403636 0.000130652)
(-0.00122881 -0.000406111 0.000150187)
(-0.00131462 -0.000409936 0.000162378)
(-0.00138815 -0.000416425 0.000168744)
(-0.00145266 -0.000425916 0.00017063)
(-0.00151073 -0.000437833 0.000168859)
(-0.0015634 -0.00045148 0.000163452)
(-0.00161192 -0.000466142 0.000154116)
(-0.00165721 -0.000481073 0.000140182)
(-0.0017011 -0.00049561 0.000121934)
(-0.00173984 -0.000509076 9.74946e-05)
(-0.00177298 -0.000520285 6.50801e-05)
(-0.00178711 -0.000526877 2.34041e-05)
(-5.29251e-05 9.87619e-06 2.26686e-05)
(-9.89325e-05 -1.12243e-05 -3.1203e-05)
(-0.000115023 -2.64328e-05 -3.86741e-05)
(-0.000122033 -4.63919e-05 -4.30082e-05)
(-0.000124773 -7.64702e-05 -3.78769e-05)
(-0.000194124 -0.000114199 -3.56515e-05)
(-0.000293775 -0.000169426 -4.35151e-05)
(-0.000444293 -0.000241719 -3.13401e-05)
(-0.000606489 -0.000297885 -4.12487e-06)
(-0.000768221 -0.000335125 3.13033e-05)
(-0.000916009 -0.000353366 6.72016e-05)
(-0.00104435 -0.000359751 9.82423e-05)
(-0.0011534 -0.000361619 0.000122035)
(-0.00124469 -0.000363396 0.000138482)
(-0.00132196 -0.000367459 0.000148776)
(-0.00138832 -0.000374526 0.000154032)
(-0.00144607 -0.00038404 0.000155015)
(-0.00149658 -0.000395423 0.000151822)
(-0.00154174 -0.000407942 0.000144246)
(-0.00158324 -0.000420873 0.000131773)
(-0.00162309 -0.000433379 0.00011502)
(-0.0016575 -0.000445082 9.22147e-05)
(-0.00168739 -0.000454904 6.18083e-05)
(-0.00169834 -0.000460713 2.23652e-05)
(-1.11286e-05 9.09125e-06 1.49667e-05)
(-3.41407e-05 -1.7886e-06 -1.76897e-05)
(-5.12658e-05 -7.71066e-06 -3.67694e-05)
(-5.08367e-05 -3.72113e-05 -4.1583e-05)
(-5.41114e-05 -4.49673e-05 -2.14586e-05)
(-8.86473e-05 -6.06996e-05 -2.23134e-05)
(-0.000200223 -0.000109036 -4.07103e-05)
(-0.000318836 -0.000170407 -4.97247e-05)
(-0.000483587 -0.000239441 -3.22154e-05)
(-0.000651527 -0.000283394 -3.05527e-06)
(-0.000808819 -0.000307588 3.1793e-05)
(-0.000947121 -0.000317114 6.52466e-05)
(-0.00106342 -0.000319067 9.28939e-05)
(-0.00116086 -0.00031955 0.00011368)
(-0.00124155 -0.000321438 0.000128065)
(-0.00130876 -0.000326089 0.000136811)
(-0.0013656 -0.000333338 0.000140689)
(-0.00141355 -0.000342685 0.000139825)
(-0.00145493 -0.00035333 0.000134067)
(-0.00149198 -0.000364453 0.000123046)
(-0.00152781 -0.000375248 0.00010785)
(-0.00155792 -0.000385545 8.6755e-05)
(-0.00158378 -0.000394078 5.84084e-05)
(-0.00159119 -0.000399217 2.12874e-05)
(7.79993e-06 9.73754e-06 1.37547e-05)
(-2.30567e-07 1.26549e-06 -1.46564e-05)
(-1.55902e-05 -1.0686e-05 -2.60685e-05)
(-2.36256e-05 -2.2084e-05 -2.4407e-05)
(-3.29565e-05 -1.57947e-05 -2.30428e-05)
(-3.10198e-05 -1.99948e-05 -2.39551e-05)
(-7.06422e-05 -5.35478e-05 -2.55024e-05)
(-0.000230342 -0.000115194 -4.00049e-05)
(-0.000354332 -0.000173031 -5.25355e-05)
(-0.000525993 -0.000230648 -3.2916e-05)
(-0.000691831 -0.000262025 -1.59137e-06)
(-0.000836559 -0.000275304 3.26917e-05)
(-0.000960179 -0.000278807 6.34854e-05)
(-0.00106236 -0.000278535 8.82281e-05)
(-0.0011464 -0.000278856 0.000106742)
(-0.0012147 -0.000281646 0.00011915)
(-0.00127028 -0.00028695 0.000126032)
(-0.00131488 -0.000294489 0.000127536)
(-0.00135157 -0.000303437 0.000123569)
(-0.00138347 -0.000312954 0.000113964)
(-0.00141414 -0.000322048 0.000100294)
(-0.00143863 -0.000330952 8.09352e-05)
(-0.00146036 -0.000338481 5.47796e-05)
(-0.00146392 -0.000343037 2.01322e-05)
(2.65781e-05 1.20412e-05 2.48985e-05)
(2.9194e-05 6.85617e-06 -9.57634e-06)
(2.34784e-05 -1.77276e-06 -6.34159e-06)
(-1.00427e-06 8.9644e-06 -1.24166e-05)
(-7.04099e-06 -3.12383e-06 -2.43294e-05)
(-1.88691e-05 -1.18853e-05 -2.78095e-05)
(-3.03966e-05 -2.33744e-05 -3.37123e-05)
(-8.01593e-05 -8.7263e-05 -3.66065e-05)
(-0.000236636 -0.000119438 -3.13653e-05)
(-0.00039408 -0.000169571 -5.70165e-05)
(-0.000561562 -0.00021418 -3.17496e-05)
(-0.000715244 -0.000234197 2.2213e-06)
(-0.000844041 -0.000240331 3.46825e-05)
(-0.000951435 -0.000240786 6.27863e-05)
(-0.00103762 -0.000240166 8.51523e-05)
(-0.00110558 -0.000241486 0.000101101)
(-0.00115907 -0.000245204 0.000110958)
(-0.00119976 -0.000251291 0.000114841)
(-0.00123141 -0.00025886 0.000112657)
(-0.0012578 -0.000267014 0.000104434)
(-0.00128365 -0.000274725 9.23615e-05)
(-0.00130307 -0.000282665 7.48583e-05)
(-0.00132013 -0.00028937 5.09632e-05)
(-0.0013195 -0.000293339 1.89067e-05)
(4.37605e-05 1.55266e-05 3.31579e-05)
(5.24163e-05 1.03743e-05 -1.0733e-05)
(5.16658e-05 2.71159e-06 -1.60456e-05)
(3.86301e-05 -1.14721e-05 -1.79682e-05)
(3.0001e-05 -1.4032e-05 -1.7151e-05)
(8.24077e-06 -1.31518e-05 -2.35308e-05)
(-3.99951e-05 -2.20541e-05 -4.59789e-05)
(-4.59438e-05 -4.3945e-05 -5.10465e-05)
(-9.18139e-05 -6.51558e-05 -3.60571e-05)
(-0.000257031 -0.000118767 -5.74553e-05)
(-0.000430691 -0.000164458 -5.28959e-05)
(-0.000584526 -0.00019233 -2.45044e-05)
(-0.000718265 -0.000203427 7.82855e-06)
(-0.000827957 -0.000205503 3.79783e-05)
(-0.000916283 -0.000205209 6.37144e-05)
(-0.000983837 -0.000206006 8.30105e-05)
(-0.00103469 -0.000208684 9.57155e-05)
(-0.00107068 -0.000213677 0.000101874)
(-0.00109632 -0.00022003 0.000101344)
(-0.00111647 -0.000226893 9.4401e-05)
(-0.00113643 -0.000233111 8.38801e-05)
(-0.00114924 -0.000239986 6.82552e-05)
(-0.00116113 -0.000246066 4.6768e-05)
(-0.00115656 -0.000249404 1.75414e-05)
(5.63766e-05 1.56522e-05 3.59703e-05)
(7.10045e-05 9.80075e-06 -1.07522e-05)
(7.54725e-05 2.21689e-06 -1.77321e-05)
(7.30829e-05 -9.5662e-06 -1.98863e-05)
(6.48586e-05 -2.03201e-05 -1.76305e-05)
(4.80714e-05 -2.47016e-05 -1.08621e-05)
(2.1948e-05 -2.31567e-05 -2.23833e-06)
(-4.51245e-05 2.16435e-05 -3.75535e-05)
(-3.98375e-05 -2.83727e-05 -4.71561e-05)
(-0.000130276 -6.70097e-05 -4.05228e-05)
(-0.000291106 -0.000108081 -6.12903e-05)
(-0.000451726 -0.000150153 -4.49839e-05)
(-0.000584582 -0.000166912 -1.56344e-05)
(-0.000696946 -0.00017261 1.49189e-05)
(-0.000784541 -0.000173388 4.29854e-05)
(-0.000849464 -0.000174393 6.50179e-05)
(-0.000896622 -0.000176574 8.01994e-05)
(-0.000927268 -0.00018087 8.84274e-05)
(-0.000946856 -0.000186222 8.94343e-05)
(-0.000960881 -0.000191872 8.37093e-05)
(-0.000975782 -0.000196763 7.48305e-05)
(-0.000983464 -0.000203095 6.12758e-05)
(-0.000990937 -0.00020902 4.23166e-05)
(-0.000981999 -0.000211419 1.60544e-05)
(6.60301e-05 1.34028e-05 3.5013e-05)
(8.57899e-05 6.96538e-06 -1.09581e-05)
(9.39857e-05 -1.2506e-07 -1.89742e-05)
(9.51092e-05 -1.16268e-05 -2.28672e-05)
(8.94138e-05 -2.30312e-05 -2.27278e-05)
(7.5965e-05 -3.23885e-05 -1.85133e-05)
(5.18369e-05 -3.1883e-05 -7.01205e-06)
(1.33795e-06 -2.62431e-05 -7.61041e-06)
(-3.46277e-05 1.43529e-06 -3.08347e-05)
(-3.12858e-05 -1.20054e-05 -2.05344e-05)
(-0.000201789 -6.49063e-05 -5.76025e-05)
(-0.000314473 -0.000105733 -5.6199e-05)
(-0.000448967 -0.000130725 -3.36103e-05)
(-0.000558377 -0.000140237 -5.32075e-06)
(-0.00064602 -0.000143903 2.37645e-05)
(-0.000708223 -0.000146375 4.77533e-05)
(-0.000750856 -0.000148644 6.484e-05)
(-0.000775499 -0.00015259 7.478e-05)
(-0.00078808 -0.000156726 7.70264e-05)
(-0.000795402 -0.000160778 7.23481e-05)
(-0.000804341 -0.000163745 6.50559e-05)
(-0.000804807 -0.000169192 5.35517e-05)
(-0.000806399 -0.000175349 3.72342e-05)
(-0.000794092 -0.000176179 1.43198e-05)
(7.13756e-05 1.16502e-05 3.52216e-05)
(9.52622e-05 5.55926e-06 -1.05707e-05)
(0.000106519 -8.92542e-07 -2.01979e-05)
(0.000110362 -1.21863e-05 -2.57306e-05)
(0.000107423 -2.431e-05 -2.73444e-05)
(9.75985e-05 -3.48704e-05 -2.51927e-05)
(7.99477e-05 -4.0506e-05 -1.97068e-05)
(4.70344e-05 -3.67503e-05 -1.17415e-05)
(2.87569e-06 -1.88625e-05 -2.18968e-05)
(-1.38603e-05 -3.37712e-06 -2.92079e-05)
(-6.58403e-05 -7.73692e-05 -4.91625e-05)
(-0.000196349 -7.08971e-05 -3.35819e-05)
(-0.000314309 -9.22954e-05 -4.49476e-05)
(-0.000422626 -0.000108706 -2.14177e-05)
(-0.000504475 -0.000115262 6.76133e-06)
(-0.000559934 -0.000119847 3.14083e-05)
(-0.000596991 -0.000122563 4.94877e-05)
(-0.000615108 -0.000126443 6.05684e-05)
(-0.000621462 -0.000129014 6.38091e-05)
(-0.000623418 -0.000131564 6.01643e-05)
(-0.000629184 -0.000133301 5.46411e-05)
(-0.000626803 -0.000138999 4.54454e-05)
(-0.000623845 -0.000145163 3.19101e-05)
(-0.000609816 -0.000144618 1.24587e-05)
(7.11685e-05 9.57005e-06 3.46946e-05)
(9.74832e-05 4.44885e-06 -9.15361e-06)
(0.000110199 -8.3544e-07 -1.97625e-05)
(0.000117089 -1.12883e-05 -2.66918e-05)
(0.000117728 -2.37371e-05 -2.98775e-05)
(0.000112334 -3.54855e-05 -2.93661e-05)
(0.000100645 -4.37782e-05 -2.55878e-05)
(8.08632e-05 -4.58038e-05 -2.13711e-05)
(4.80599e-05 -3.7423e-05 -2.73371e-05)
(-1.6384e-05 -3.72801e-05 -4.2677e-05)
(-3.53846e-05 -3.85686e-05 -3.79909e-05)
(-8.11055e-05 -2.66268e-05 -2.59484e-05)
(-0.000193641 -5.56445e-05 -4.70138e-05)
(-0.000285158 -7.12009e-05 -3.1963e-05)
(-0.000367172 -8.74796e-05 -6.76935e-06)
(-0.000417468 -9.51054e-05 1.7039e-05)
(-0.000447994 -9.85498e-05 3.49516e-05)
(-0.00045914 -0.000102174 4.64673e-05)
(-0.000458088 -0.00010187 5.01954e-05)
(-0.000448485 -9.68924e-05 4.72572e-05)
(-0.000444761 -9.58763e-05 4.33748e-05)
(-0.000435051 -0.000103206 3.63928e-05)
(-0.000436414 -0.000114436 2.56081e-05)
(-0.00041428 -0.000109779 1.01075e-05)
(6.55583e-05 6.68363e-06 3.23485e-05)
(9.29395e-05 2.69776e-06 -6.66404e-06)
(0.000106415 -1.51537e-06 -1.70136e-05)
(0.000114764 -1.02285e-05 -2.43593e-05)
(0.000119085 -2.18e-05 -2.8735e-05)
(0.000118307 -3.39576e-05 -2.96834e-05)
(0.000112341 -4.42522e-05 -2.7291e-05)
(0.000100067 -5.03927e-05 -2.24225e-05)
(8.02725e-05 -4.98014e-05 -1.69316e-05)
(5.48134e-05 -4.89239e-05 4.77037e-07)
(-2.63961e-05 3.33844e-05 -1.573e-05)
(-4.64322e-05 -2.05872e-05 -4.9266e-05)
(-8.26628e-05 -2.55191e-05 -2.83727e-05)
(-0.000215544 -3.55499e-05 -3.56358e-05)
(-0.000236605 -5.80105e-05 -1.69297e-05)
(-0.000274472 -6.94687e-05 4.69825e-06)
(-0.000296671 -7.29976e-05 2.0929e-05)
(-0.000302733 -7.65226e-05 3.18448e-05)
(-0.000297812 -6.71422e-05 3.64929e-05)
(-0.00033013 -5.38466e-05 3.58774e-05)
(-0.000328838 -4.36934e-05 3.35992e-05)
(-0.000310966 -5.46563e-05 2.71665e-05)
(-0.000272096 -8.20431e-05 1.91675e-05)
(-0.000271386 -6.55469e-05 8.44316e-06)
(5.68683e-05 3.97091e-06 2.89126e-05)
(8.36895e-05 4.83795e-07 -4.47285e-06)
(9.71789e-05 -3.12556e-06 -1.33653e-05)
(0.000106247 -1.03483e-05 -1.99636e-05)
(0.00011237 -1.99327e-05 -2.46214e-05)
(0.000115638 -3.10828e-05 -2.68206e-05)
(0.000114779 -4.16921e-05 -2.60895e-05)
(0.000108787 -4.94147e-05 -2.27309e-05)
(9.52627e-05 -5.19653e-05 -1.74644e-05)
(7.08808e-05 -4.34333e-05 -1.15307e-05)
(7.74397e-06 -3.79063e-05 -1.57543e-05)
(-1.26005e-05 -9.90354e-06 -3.18801e-05)
(-4.90642e-05 -1.1743e-05 -5.06126e-05)
(-9.27392e-05 -8.49765e-05 -4.01692e-05)
(-0.000138039 -2.87601e-05 -4.59546e-06)
(-0.000162812 -4.31318e-05 -4.11917e-06)
(-0.000181728 -4.38238e-05 9.73814e-06)
(-0.000178211 -4.95116e-05 1.83481e-05)
(-0.000203257 -3.44556e-05 1.55252e-05)
(-0.000185102 -8.46573e-05 1.07968e-05)
(-0.000189467 -7.50518e-05 2.02238e-05)
(-0.000158154 -6.77767e-05 1.98242e-05)
(-0.000134149 -4.64751e-05 1.40184e-05)
(-0.00012533 -4.8994e-05 4.52963e-06)
(4.75352e-05 2.14502e-06 2.5434e-05)
(7.24712e-05 -1.4616e-06 -3.2051e-06)
(8.51141e-05 -5.08058e-06 -1.03205e-05)
(9.40905e-05 -1.13358e-05 -1.55193e-05)
(0.000100959 -1.9374e-05 -1.94946e-05)
(0.00010644 -2.86458e-05 -2.20132e-05)
(0.000109789 -3.83301e-05 -2.2589e-05)
(0.000109214 -4.63821e-05 -2.11665e-05)
(0.000102515 -5.10609e-05 -1.80493e-05)
(8.56271e-05 -4.98476e-05 -1.45205e-05)
(5.32705e-05 -3.90877e-05 -1.36742e-05)
(1.69226e-05 -2.04007e-05 -2.71641e-05)
(-2.54699e-05 -2.29878e-05 -4.06703e-05)
(-4.40869e-05 -3.48429e-05 -4.27835e-05)
(-5.62176e-05 -1.79379e-05 -1.32914e-05)
(-4.96112e-05 -1.54285e-05 -5.13282e-06)
(-6.55789e-05 -2.2568e-05 -7.78173e-07)
(-5.79171e-05 -2.15729e-05 -2.66595e-07)
(-9.16571e-05 -8.11299e-05 6.47724e-07)
(-9.80495e-05 -8.8418e-05 6.47971e-06)
(-9.86758e-05 -8.14206e-05 2.10167e-05)
(-6.64861e-05 -6.17159e-05 1.92883e-05)
(-2.40347e-05 -1.6977e-05 4.93784e-06)
(-4.18678e-05 -4.43545e-05 3.63751e-06)
(3.83053e-05 1.07557e-06 2.18511e-05)
(6.07398e-05 -2.93401e-06 -2.77163e-06)
(7.21097e-05 -6.97276e-06 -8.27681e-06)
(8.05566e-05 -1.28632e-05 -1.19971e-05)
(8.76154e-05 -1.99283e-05 -1.48142e-05)
(9.41282e-05 -2.7662e-05 -1.68588e-05)
(0.000100067 -3.57105e-05 -1.79234e-05)
(0.00010355 -4.30452e-05 -1.78468e-05)
(0.000102645 -4.85787e-05 -1.68152e-05)
(9.39917e-05 -5.10543e-05 -1.50839e-05)
(7.38364e-05 -4.77761e-05 -1.43759e-05)
(4.31542e-05 -3.44782e-05 -1.98101e-05)
(2.43791e-05 -3.04522e-05 -1.45098e-05)
(-3.12678e-05 4.15762e-05 -3.53992e-05)
(-2.78056e-05 -2.00981e-05 -3.63769e-05)
(-3.25803e-05 -2.38602e-05 -1.693e-05)
(-2.07291e-05 -1.94643e-05 -5.60999e-06)
(-1.64121e-05 -1.39091e-05 -3.85187e-06)
(-2.74307e-05 -4.082e-05 3.17074e-06)
(-2.62977e-05 -3.06797e-05 8.42501e-06)
(-3.80681e-05 -3.44638e-06 1.76456e-05)
(-2.87753e-05 -2.55014e-06 1.18039e-05)
(-6.99663e-06 -2.14194e-05 5.28499e-06)
(-1.39878e-05 -7.74924e-06 6.57251e-06)
(3.08266e-05 2.51221e-07 1.85233e-05)
(5.04756e-05 -4.34691e-06 -2.83473e-06)
(6.03961e-05 -8.98774e-06 -7.01699e-06)
(6.80857e-05 -1.48793e-05 -9.4468e-06)
(7.49947e-05 -2.14317e-05 -1.10987e-05)
(8.18917e-05 -2.81321e-05 -1.23632e-05)
(8.87864e-05 -3.4624e-05 -1.33255e-05)
(9.4647e-05 -4.07446e-05 -1.39039e-05)
(9.75774e-05 -4.58504e-05 -1.41133e-05)
(9.54512e-05 -4.97749e-05 -1.41464e-05)
(8.47791e-05 -5.01172e-05 -1.4211e-05)
(6.33848e-05 -4.41388e-05 -1.78986e-05)
(4.18519e-05 -3.1491e-05 -2.00279e-05)
(-1.15771e-05 -2.65178e-05 -2.21703e-05)
(-7.92197e-06 4.42055e-06 -4.14501e-05)
(-4.81624e-06 -1.03388e-05 -2.74758e-05)
(-5.01828e-06 -1.02479e-05 -1.62618e-05)