/*--------------------------------*- C++ -*----------------------------------*\
  =========                 |
  \\      /  F ield         | OpenFOAM: The Open Source CFD Toolbox
   \\    /   O peration     | Website:  https://openfoam.org
    \\  /    A nd           | Version:  6
     \\/     M anipulation  |
\*---------------------------------------------------------------------------*/
FoamFile
{
    version     2.0;
    format      ascii;
    class       volScalarField;
    location    "160";
    object      p;
}
// * * * * * * * * * * * * * * * * * * * * * * * * * * * * * * * * * * * * * //

dimensions      [0 2 -2 0 0 0 0];

internalField   nonuniform List<scalar> 
2160
(
-1.13136e-15
-1.25843e-08
-5.43045e-09
-7.20428e-11
-1.26547e-08
-5.32967e-09
-4.9793e-11
-1.2549e-08
-5.47638e-09
9.21808e-12
-1.24927e-08
-5.60128e-09
1.25331e-10
-1.24097e-08
-5.807e-09
2.29498e-10
-1.23295e-08
-5.99608e-09
3.45897e-10
-1.22662e-08
-6.18082e-09
4.49116e-10
-1.22077e-08
-6.34554e-09
6.03332e-10
-1.22454e-08
-6.46565e-09
8.01187e-10
-1.23143e-08
-6.59978e-09
9.24968e-10
-1.23934e-08
-6.64431e-09
1.03428e-09
-1.25255e-08
-6.6196e-09
1.08358e-09
-1.2494e-08
-6.70522e-09
1.17197e-09
-1.25967e-08
-6.68584e-09
1.18e-09
-1.26184e-08
-6.69923e-09
1.19135e-09
-1.26032e-08
-6.72132e-09
1.17093e-09
-1.25759e-08
-6.73416e-09
1.11599e-09
-1.24636e-08
-6.79096e-09
1.04372e-09
-1.24417e-08
-6.74106e-09
9.77026e-10
-1.23411e-08
-6.77348e-09
8.37368e-10
-1.22146e-08
-6.75767e-09
6.25863e-10
-1.20925e-08
-6.66816e-09
4.67149e-10
-1.20547e-08
-6.54516e-09
3.59562e-10
-1.21219e-08
-6.3695e-09
2.32204e-10
-1.21897e-08
-6.17375e-09
1.07927e-10
-1.22782e-08
-5.96072e-09
-2.23223e-11
-1.23785e-08
-5.72988e-09
-9.32644e-11
-1.24528e-08
-5.5847e-09
-1.24616e-10
-1.2583e-08
-5.42308e-09
-9.57808e-11
-1.25068e-08
-5.52835e-09
-8.35669e-12
-1.25802e-08
-5.42932e-09
-7.54823e-11
-1.26512e-08
-5.32988e-09
-5.33327e-11
-1.2546e-08
-5.4759e-09
5.15387e-12
-1.24903e-08
-5.59957e-09
1.21608e-10
-1.24079e-08
-5.80509e-09
2.26585e-10
-1.23288e-08
-5.99387e-09
3.43846e-10
-1.22665e-08
-6.17844e-09
4.47661e-10
-1.22087e-08
-6.34304e-09
6.02053e-10
-1.22463e-08
-6.46351e-09
8.00376e-10
-1.23147e-08
-6.59857e-09
9.24879e-10
-1.23934e-08
-6.64409e-09
1.03447e-09
-1.25248e-08
-6.62046e-09
1.08487e-09
-1.24933e-08
-6.70709e-09
1.17299e-09
-1.25947e-08
-6.68879e-09
1.18111e-09
-1.26162e-08
-6.70255e-09
1.19242e-09
-1.2601e-08
-6.72463e-09
1.17199e-09
-1.2574e-08
-6.73709e-09
1.1171e-09
-1.24628e-08
-6.79279e-09
1.04403e-09
-1.24412e-08
-6.74182e-09
9.76671e-10
-1.23408e-08
-6.77339e-09
8.36447e-10
-1.22148e-08
-6.7565e-09
6.24576e-10
-1.20935e-08
-6.66581e-09
4.65626e-10
-1.20558e-08
-6.54259e-09
3.57425e-10
-1.21221e-08
-6.36713e-09
2.29063e-10
-1.21888e-08
-6.17144e-09
1.0399e-10
-1.22763e-08
-5.95871e-09
-2.65578e-11
-1.23762e-08
-5.72801e-09
-9.69336e-11
-1.24497e-08
-5.58416e-09
-1.28159e-10
-1.25792e-08
-5.42331e-09
-1.01581e-10
-1.25022e-08
-5.52716e-09
-1.87273e-11
-1.25764e-08
-5.42906e-09
-7.98903e-11
-1.26452e-08
-5.33194e-09
-5.75715e-11
-1.25408e-08
-5.47693e-09
1.47352e-13
-1.24862e-08
-5.59868e-09
1.16987e-10
-1.24047e-08
-5.80366e-09
2.22927e-10
-1.23273e-08
-5.99165e-09
3.41196e-10
-1.22665e-08
-6.17578e-09
4.45636e-10
-1.22096e-08
-6.34002e-09
6.00011e-10
-1.2247e-08
-6.46076e-09
7.99012e-10
-1.2315e-08
-6.5968e-09
9.2487e-10
-1.23937e-08
-6.64359e-09
1.03455e-09
-1.25236e-08
-6.62165e-09
1.08698e-09
-1.24928e-08
-6.70945e-09
1.17427e-09
-1.25919e-08
-6.69292e-09
1.1827e-09
-1.26132e-08
-6.70711e-09
1.19389e-09
-1.25981e-08
-6.72916e-09
1.17337e-09
-1.25713e-08
-6.74118e-09
1.11875e-09
-1.24622e-08
-6.79508e-09
1.04441e-09
-1.24407e-08
-6.74276e-09
9.76024e-10
-1.23404e-08
-6.77316e-09
8.34836e-10
-1.22149e-08
-6.75479e-09
6.22532e-10
-1.20948e-08
-6.66252e-09
4.63472e-10
-1.20568e-08
-6.53939e-09
3.54641e-10
-1.2122e-08
-6.36445e-09
2.25056e-10
-1.21872e-08
-6.16909e-09
9.90279e-11
-1.22729e-08
-5.95713e-09
-3.18616e-11
-1.23719e-08
-5.72694e-09
-1.01423e-10
-1.24442e-08
-5.58515e-09
-1.32632e-10
-1.25726e-08
-5.42545e-09
-1.06301e-10
-1.24978e-08
-5.52687e-09
-2.67953e-11
-1.2575e-08
-5.43009e-09
-8.08703e-11
-1.26378e-08
-5.33919e-09
-5.78453e-11
-1.25347e-08
-5.48293e-09
-1.1842e-12
-1.24811e-08
-5.60241e-09
1.1537e-10
-1.24006e-08
-5.80619e-09
2.21543e-10
-1.23248e-08
-5.99272e-09
3.40229e-10
-1.22651e-08
-6.17607e-09
4.4474e-10
-1.22091e-08
-6.33958e-09
5.98208e-10
-1.22462e-08
-6.45977e-09
7.97062e-10
-1.23145e-08
-6.59514e-09
9.24462e-10
-1.23943e-08
-6.64225e-09
1.0338e-09
-1.25226e-08
-6.62177e-09
1.089e-09
-1.24945e-08
-6.7094e-09
1.17492e-09
-1.25909e-08
-6.69443e-09
1.18404e-09
-1.2613e-08
-6.70859e-09
1.19505e-09
-1.2598e-08
-6.73059e-09
1.17416e-09
-1.25706e-08
-6.74267e-09
1.11999e-09
-1.24637e-08
-6.79492e-09
1.04419e-09
-1.24408e-08
-6.74243e-09
9.74548e-10
-1.23399e-08
-6.77219e-09
8.32498e-10
-1.22142e-08
-6.75315e-09
6.2074e-10
-1.20949e-08
-6.66053e-09
4.62398e-10
-1.20566e-08
-6.53857e-09
3.53522e-10
-1.21208e-08
-6.3646e-09
2.23418e-10
-1.21845e-08
-6.17014e-09
9.71119e-11
-1.22686e-08
-5.9595e-09
-3.3429e-11
-1.23667e-08
-5.73063e-09
-1.01892e-10
-1.24376e-08
-5.59135e-09
-1.33459e-10
-1.25642e-08
-5.43304e-09
-1.07175e-10
-1.24959e-08
-5.52789e-09
-3.37037e-11
-1.25738e-08
-5.43187e-09
-7.84245e-11
-1.26291e-08
-5.35162e-09
-5.41236e-11
-1.25275e-08
-5.49404e-09
1.09036e-12
-1.2475e-08
-5.61079e-09
1.16634e-10
-1.23954e-08
-5.81264e-09
2.2236e-10
-1.23213e-08
-5.99703e-09
3.40915e-10
-1.22625e-08
-6.17927e-09
4.44968e-10
-1.22071e-08
-6.34169e-09
5.96643e-10
-1.22439e-08
-6.46046e-09
7.94431e-10
-1.23133e-08
-6.5935e-09
9.23531e-10
-1.23952e-08
-6.64005e-09
1.0322e-09
-1.25218e-08
-6.62073e-09
1.09088e-09
-1.24983e-08
-6.70688e-09
1.17497e-09
-1.25921e-08
-6.69321e-09
1.18518e-09
-1.26158e-08
-6.70689e-09
1.1959e-09
-1.2601e-08
-6.72882e-09
1.17437e-09
-1.2572e-08
-6.74144e-09
1.12081e-09
-1.24672e-08
-6.79226e-09
1.04331e-09
-1.24416e-08
-6.74077e-09
9.72162e-10
-1.23393e-08
-6.77045e-09
8.29353e-10
-1.22128e-08
-6.75151e-09
6.19194e-10
-1.20941e-08
-6.6598e-09
4.62412e-10
-1.20551e-08
-6.54013e-09
3.54029e-10
-1.21183e-08
-6.36754e-09
2.24164e-10
-1.21808e-08
-6.17467e-09
9.81018e-11
-1.22633e-08
-5.96581e-09
-3.13239e-11
-1.23603e-08
-5.73911e-09
-9.82826e-11
-1.24297e-08
-5.60289e-09
-1.30611e-10
-1.25541e-08
-5.44606e-09
-1.07122e-10
-1.24942e-08
-5.52966e-09
-3.98154e-11
-1.25721e-08
-5.43449e-09
-7.28083e-11
-1.2619e-08
-5.369e-09
-4.65013e-11
-1.25191e-08
-5.51041e-09
6.87019e-12
-1.24677e-08
-5.62388e-09
1.20647e-10
-1.2389e-08
-5.82303e-09
2.253e-10
-1.23166e-08
-6.00459e-09
3.43195e-10
-1.22587e-08
-6.18532e-09
4.46277e-10
-1.22036e-08
-6.34629e-09
5.95276e-10
-1.22402e-08
-6.46274e-09
7.91045e-10
-1.23113e-08
-6.59184e-09
9.21969e-10
-1.23961e-08
-6.637e-09
1.02975e-09
-1.25213e-08
-6.61847e-09
1.09255e-09
-1.25043e-08
-6.70185e-09
1.17445e-09
-1.25955e-08
-6.68918e-09
1.1861e-09
-1.26215e-08
-6.70208e-09
1.19646e-09
-1.26069e-08
-6.7239e-09
1.17402e-09
-1.25757e-08
-6.73743e-09
1.12115e-09
-1.24728e-08
-6.78706e-09
1.04173e-09
-1.2443e-08
-6.73775e-09
9.68804e-10
-1.23384e-08
-6.76791e-09
8.2534e-10
-1.22105e-08
-6.7498e-09
6.17846e-10
-1.20922e-08
-6.66028e-09
4.6348e-10
-1.20523e-08
-6.54402e-09
3.56098e-10
-1.21147e-08
-6.37327e-09
2.27089e-10
-1.21759e-08
-6.18249e-09
1.01864e-10
-1.22568e-08
-5.97608e-09
-2.56296e-11
-1.23527e-08
-5.75245e-09
-9.06545e-11
-1.24203e-08
-5.61996e-09
-1.24351e-10
-1.25422e-08
-5.46427e-09
-1.06875e-10
-1.24919e-08
-5.53229e-09
-4.44662e-11
-1.25698e-08
-5.43834e-09
-6.37732e-11
-1.26076e-08
-5.3914e-09
-3.44587e-11
-1.25094e-08
-5.53259e-09
1.67942e-11
-1.24592e-08
-5.6423e-09
1.2794e-10
-1.23815e-08
-5.83788e-09
2.30796e-10
-1.23107e-08
-6.0159e-09
3.47395e-10
-1.22533e-08
-6.19474e-09
4.48901e-10
-1.21984e-08
-6.35387e-09
5.94217e-10
-1.22349e-08
-6.46682e-09
7.86869e-10
-1.23084e-08
-6.59021e-09
9.19562e-10
-1.23971e-08
-6.63301e-09
1.02635e-09
-1.25214e-08
-6.61463e-09
1.09372e-09
-1.25126e-08
-6.69381e-09
1.17325e-09
-1.26015e-08
-6.68179e-09
1.18671e-09
-1.26301e-08
-6.69398e-09
1.19661e-09
-1.26158e-08
-6.71567e-09
1.173e-09
-1.25821e-08
-6.73005e-09
1.1208e-09
-1.24808e-08
-6.77883e-09
1.03929e-09
-1.24453e-08
-6.73304e-09
9.6436e-10
-1.23374e-08
-6.76449e-09
8.20451e-10
-1.22074e-08
-6.74808e-09
6.16799e-10
-1.20892e-08
-6.66224e-09
4.6586e-10
-1.2048e-08
-6.5507e-09
3.60061e-10
-1.21097e-08
-6.38225e-09
2.32302e-10
-1.217e-08
-6.19367e-09
1.08972e-10
-1.22492e-08
-5.99084e-09
-1.56499e-11
-1.23438e-08
-5.77135e-09
-7.84467e-11
-1.24094e-08
-5.64312e-09
-1.14453e-10
-1.25287e-08
-5.48768e-09
-1.06043e-10
-1.24889e-08
-5.5362e-09
-4.71664e-11
-1.25669e-08
-5.44399e-09
-5.10163e-11
-1.25952e-08
-5.41883e-09
-1.72008e-11
-1.24987e-08
-5.56115e-09
3.1974e-11
-1.24498e-08
-5.66694e-09
1.39521e-10
-1.2373e-08
-5.85792e-09
2.39606e-10
-1.23036e-08
-6.03166e-09
3.54032e-10
-1.22463e-08
-6.20825e-09
4.53229e-10
-1.21912e-08
-6.36519e-09
5.93666e-10
-1.22279e-08
-6.47313e-09
7.8188e-10
-1.23045e-08
-6.58876e-09
9.1608e-10
-1.23979e-08
-6.62807e-09
1.02182e-09
-1.25223e-08
-6.6088e-09
1.09407e-09
-1.25236e-08
-6.68219e-09
1.17123e-09
-1.26104e-08
-6.67066e-09
1.18685e-09
-1.26421e-08
-6.68197e-09
1.19621e-09
-1.26282e-08
-6.70351e-09
1.17115e-09
-1.25913e-08
-6.71895e-09
1.11947e-09
-1.24913e-08
-6.767e-09
1.03579e-09
-1.24485e-08
-6.72627e-09
9.58684e-10
-1.23361e-08
-6.76012e-09
8.14697e-10
-1.22033e-08
-6.74648e-09
6.16255e-10
-1.20846e-08
-6.66617e-09
4.69976e-10
-1.20419e-08
-6.56093e-09
3.66445e-10
-1.21033e-08
-6.3951e-09
2.40573e-10
-1.21631e-08
-6.20887e-09
1.20395e-10
-1.22407e-08
-6.01083e-09
-2.29092e-13
-1.23339e-08
-5.79673e-09
-6.08278e-11
-1.23972e-08
-5.67295e-09
-1.0063e-10
-1.2514e-08
-5.51634e-09
-1.04021e-10
-1.24852e-08
-5.54199e-09
-4.72102e-11
-1.25633e-08
-5.45216e-09
-3.44413e-11
-1.2582e-08
-5.4511e-09
6.24632e-12
-1.24878e-08
-5.59626e-09
5.40536e-11
-1.24403e-08
-5.69858e-09
1.5683e-10
-1.23643e-08
-5.88398e-09
2.53031e-10
-1.22956e-08
-6.05303e-09
3.63723e-10
-1.22375e-08
-6.22654e-09
4.5994e-10
-1.21816e-08
-6.38125e-09
5.93902e-10
-1.22188e-08
-6.4823e-09
7.76207e-10
-1.22993e-08
-6.58775e-09
9.11334e-10
-1.23983e-08
-6.62217e-09
1.01606e-09
-1.25239e-08
-6.60088e-09
1.09331e-09
-1.25372e-08
-6.6668e-09
1.16827e-09
-1.26228e-08
-6.65522e-09
1.18644e-09
-1.26586e-08
-6.66482e-09
1.19518e-09
-1.26452e-08
-6.68619e-09
1.16833e-09
-1.2604e-08
-6.70354e-09
1.11694e-09
-1.25045e-08
-6.75138e-09
1.03108e-09
-1.24527e-08
-6.71736e-09
9.51668e-10
-1.23344e-08
-6.75477e-09
8.08231e-10
-1.21981e-08
-6.74527e-09
6.16531e-10
-1.20782e-08
-6.67281e-09
4.76524e-10
-1.20337e-08
-6.57572e-09
3.75958e-10
-1.20954e-08
-6.41258e-09
2.537e-10
-1.21557e-08
-6.22943e-09
1.37617e-10
-1.22319e-08
-6.03689e-09
2.21768e-11
-1.23239e-08
-5.82921e-09
-3.67014e-11
-1.23846e-08
-5.70974e-09
-8.28379e-11
-1.2498e-08
-5.55013e-09
-9.99151e-11
-1.24809e-08
-5.55043e-09
-4.35376e-11
-1.25593e-08
-5.46381e-09
-1.40423e-11
-1.25681e-08
-5.48793e-09
3.61507e-11
-1.24774e-08
-5.63748e-09
8.41885e-11
-1.24312e-08
-5.73801e-09
1.80633e-10
-1.23551e-08
-5.91691e-09
2.72406e-10
-1.22869e-08
-6.08097e-09
3.77388e-10
-1.2227e-08
-6.25042e-09
4.70347e-10
-1.21694e-08
-6.40359e-09
5.9551e-10
-1.22072e-08
-6.49533e-09
7.70338e-10
-1.22928e-08
-6.58785e-09
9.05215e-10
-1.23983e-08
-6.61524e-09
1.00908e-09
-1.25266e-08
-6.59068e-09
1.09126e-09
-1.25535e-08
-6.64734e-09
1.16432e-09
-1.26397e-08
-6.63421e-09
1.18538e-09
-1.26807e-08
-6.64143e-09
1.19343e-09
-1.26678e-08
-6.66262e-09
1.16448e-09
-1.26211e-08
-6.6826e-09
1.11309e-09
-1.25205e-08
-6.73168e-09
1.02513e-09
-1.2458e-08
-6.70616e-09
9.433e-10
-1.23325e-08
-6.74834e-09
8.01561e-10
-1.21917e-08
-6.74509e-09
6.18163e-10
-1.20694e-08
-6.68318e-09
4.86805e-10
-1.20232e-08
-6.59657e-09
3.89708e-10
-1.20859e-08
-6.43583e-09
2.72941e-10
-1.21479e-08
-6.25649e-09
1.61603e-10
-1.2223e-08
-6.06989e-09
5.24437e-11
-1.23144e-08
-5.86905e-09
-5.68764e-12
-1.23723e-08
-5.75313e-09
-6.11213e-11
-1.24812e-08
-5.58872e-09
-9.26497e-11
-1.24763e-08
-5.56238e-09
-3.50531e-11
-1.25552e-08
-5.47988e-09
1.07349e-11
-1.25542e-08
-5.52905e-09
7.24511e-11
-1.2467e-08
-5.68518e-09
1.22335e-10
-1.24216e-08
-5.78612e-09
2.11344e-10
-1.23453e-08
-5.9574e-09
2.97835e-10
-1.22772e-08
-6.11602e-09
3.96718e-10
-1.22157e-08
-6.28081e-09
4.85185e-10
-1.21544e-08
-6.43326e-09
5.99821e-10
-1.21924e-08
-6.51416e-09
7.64569e-10
-1.22847e-08
-6.58959e-09
8.97721e-10
-1.23981e-08
-6.60721e-09
1.00089e-09
-1.25309e-08
-6.57761e-09
1.08776e-09
-1.25734e-08
-6.62284e-09
1.1594e-09
-1.26622e-08
-6.60665e-09
1.18368e-09
-1.27092e-08
-6.61087e-09
1.19099e-09
-1.26969e-08
-6.63188e-09
1.15964e-09
-1.26439e-08
-6.65513e-09
1.10782e-09
-1.25401e-08
-6.70687e-09
1.01792e-09
-1.24649e-08
-6.6921e-09
9.33682e-10
-1.23304e-08
-6.74073e-09
7.94997e-10
-1.21838e-08
-6.7465e-09
6.22466e-10
-1.20576e-08
-6.69928e-09
5.01492e-10
-1.20099e-08
-6.62453e-09
4.09154e-10
-1.20756e-08
-6.46563e-09
2.9812e-10
-1.21389e-08
-6.29076e-09
1.92945e-10
-1.22135e-08
-6.11075e-09
9.12641e-11
-1.23043e-08
-5.91799e-09
3.15752e-11
-1.236e-08
-5.80272e-09
-3.48901e-11
-1.24646e-08
-5.63169e-09
-8.19567e-11
-1.24716e-08
-5.57787e-09
-2.19385e-11
-1.2551e-08
-5.50006e-09
3.94522e-11
-1.2541e-08
-5.57335e-09
1.14679e-10
-1.24561e-08
-5.73936e-09
1.68631e-10
-1.24113e-08
-5.84311e-09
2.50304e-10
-1.23355e-08
-6.00618e-09
3.29351e-10
-1.22659e-08
-6.15877e-09
4.22401e-10
-1.22029e-08
-6.31902e-09
5.04082e-10
-1.21359e-08
-6.47035e-09
6.07447e-10
-1.21738e-08
-6.5401e-09
7.58995e-10
-1.22748e-08
-6.59329e-09
8.89012e-10
-1.23979e-08
-6.59791e-09
9.9163e-10
-1.25375e-08
-6.56115e-09
1.08274e-09
-1.25978e-08
-6.59244e-09
1.15362e-09
-1.26915e-08
-6.57157e-09
1.1815e-09
-1.27453e-08
-6.57218e-09
1.18804e-09
-1.27336e-08
-6.59299e-09
1.15389e-09
-1.26732e-08
-6.62018e-09
1.1011e-09
-1.25642e-08
-6.67611e-09
1.00957e-09
-1.24739e-08
-6.67468e-09
9.23049e-10
-1.23287e-08
-6.73177e-09
7.88673e-10
-1.21742e-08
-6.7498e-09
6.3013e-10
-1.2042e-08
-6.72251e-09
5.20245e-10
-1.19936e-08
-6.65966e-09
4.34677e-10
-1.20639e-08
-6.50291e-09
3.29505e-10
-1.21284e-08
-6.33271e-09
2.33035e-10
-1.22042e-08
-6.16022e-09
1.3947e-10
-1.22933e-08
-5.97729e-09
7.50576e-11
-1.23475e-08
-5.85882e-09
-4.29075e-12
-1.24491e-08
-5.67779e-09
-6.71847e-11
-1.24668e-08
-5.5975e-09
-3.83467e-12
-1.25468e-08
-5.52489e-09
7.02441e-11
-1.25276e-08
-5.6197e-09
1.61073e-10
-1.24448e-08
-5.79832e-09
2.23098e-10
-1.24007e-08
-5.90872e-09
2.9801e-10
-1.23257e-08
-6.06381e-09
3.68066e-10
-1.22532e-08
-6.21012e-09
4.53942e-10
-1.2187e-08
-6.36622e-09
5.26767e-10
-1.2115e-08
-6.5137e-09
6.18048e-10
-1.21515e-08
-6.57261e-09
7.54244e-10
-1.22632e-08
-6.59945e-09
8.79541e-10
-1.23985e-08
-6.58719e-09
9.81585e-10
-1.25475e-08
-6.54059e-09
1.07623e-09
-1.26276e-08
-6.55517e-09
1.14717e-09
-1.27289e-08
-6.52769e-09
1.17914e-09
-1.27908e-08
-6.52378e-09
1.18489e-09
-1.27798e-08
-6.54441e-09
1.14743e-09
-1.27106e-08
-6.57638e-09
1.09303e-09
-1.25938e-08
-6.63856e-09
1.00032e-09
-1.24861e-08
-6.65324e-09
9.11891e-10
-1.23281e-08
-6.72127e-09
7.83216e-10
-1.21631e-08
-6.75551e-09
6.40856e-10
-1.20231e-08
-6.75217e-09
5.43131e-10
-1.19754e-08
-6.70087e-09
4.6589e-10
-1.20494e-08
-6.54875e-09
3.68448e-10
-1.21168e-08
-6.38342e-09
2.82393e-10
-1.2195e-08
-6.21892e-09
1.96244e-10
-1.22817e-08
-6.04578e-09
1.23631e-10
-1.23344e-08
-5.92058e-09
2.85868e-11
-1.24337e-08
-5.72618e-09
-4.64961e-11
-1.24618e-08
-5.62324e-09
2.13e-11
-1.25425e-08
-5.55655e-09
1.02978e-10
-1.25142e-08
-5.6679e-09
2.10263e-10
-1.2433e-08
-5.86047e-09
2.84267e-10
-1.23891e-08
-5.98211e-09
3.53797e-10
-1.23147e-08
-6.13065e-09
4.14424e-10
-1.22384e-08
-6.27126e-09
4.91486e-10
-1.21676e-08
-6.42279e-09
5.53541e-10
-1.20921e-08
-6.56311e-09
6.32165e-10
-1.21272e-08
-6.61057e-09
7.51827e-10
-1.22512e-08
-6.60837e-09
8.70116e-10
-1.24007e-08
-6.57485e-09
9.71142e-10
-1.25622e-08
-6.51483e-09
1.06844e-09
-1.26647e-08
-6.50948e-09
1.14035e-09
-1.27772e-08
-6.4726e-09
1.17696e-09
-1.28489e-08
-6.46289e-09
1.18194e-09
-1.28387e-08
-6.48332e-09
1.14058e-09
-1.2759e-08
-6.52133e-09
1.08384e-09
-1.26306e-08
-6.59266e-09
9.90535e-10
-1.25029e-08
-6.6267e-09
9.00999e-10
-1.23294e-08
-6.70898e-09
7.80173e-10
-1.21517e-08
-6.7639e-09
6.55119e-10
-1.20022e-08
-6.78727e-09
5.70402e-10
-1.19556e-08
-6.74797e-09
5.03334e-10
-1.20316e-08
-6.60405e-09
4.15441e-10
-1.21031e-08
-6.4442e-09
3.40353e-10
-1.21847e-08
-6.28726e-09
2.59966e-10
-1.2269e-08
-6.12235e-09
1.75032e-10
-1.23208e-08
-5.98572e-09
6.30738e-11
-1.24179e-08
-5.77644e-09
-1.88694e-11
-1.24567e-08
-5.65598e-09
5.42131e-11
-1.25384e-08
-5.59566e-09
1.38386e-10
-1.25017e-08
-5.71769e-09
2.60605e-10
-1.24208e-08
-5.92424e-09
3.4921e-10
-1.23751e-08
-6.06176e-09
4.15762e-10
-1.23006e-08
-6.20689e-09
4.68008e-10
-1.22195e-08
-6.34365e-09
5.35245e-10
-1.21436e-08
-6.49027e-09
5.8458e-10
-1.20654e-08
-6.62064e-09
6.50232e-10
-1.21015e-08
-6.65389e-09
7.53039e-10
-1.22401e-08
-6.61997e-09
8.61863e-10
-1.24062e-08
-6.56053e-09
9.60722e-10
-1.25838e-08
-6.48227e-09
1.05951e-09
-1.27114e-08
-6.45315e-09
1.13332e-09
-1.28397e-08
-6.40319e-09
1.17514e-09
-1.29233e-08
-6.38606e-09
1.17939e-09
-1.29138e-08
-6.40633e-09
1.13349e-09
-1.28214e-08
-6.45199e-09
1.07371e-09
-1.2677e-08
-6.53619e-09
9.80596e-10
-1.25262e-08
-6.59346e-09
8.91481e-10
-1.23344e-08
-6.69451e-09
7.80904e-10
-1.21415e-08
-6.77495e-09
6.73363e-10
-1.19797e-08
-6.828e-09
6.02166e-10
-1.19321e-08
-6.80334e-09
5.47467e-10
-1.20093e-08
-6.67062e-09
4.70069e-10
-1.20854e-08
-6.51669e-09
4.04951e-10
-1.21712e-08
-6.36548e-09
3.27608e-10
-1.22537e-08
-6.20538e-09
2.2761e-10
-1.23068e-08
-6.05246e-09
1.00468e-10
-1.24036e-08
-5.82823e-09
1.65506e-11
-1.24519e-08
-5.69626e-09
9.51509e-11
-1.25346e-08
-5.64233e-09
1.76858e-10
-1.24906e-08
-5.76904e-09
3.10176e-10
-1.24073e-08
-5.9884e-09
4.13863e-10
-1.23564e-08
-6.14573e-09
4.80808e-10
-1.228e-08
-6.29267e-09
5.276e-10
-1.21937e-08
-6.42908e-09
5.84332e-10
-1.21118e-08
-6.57093e-09
6.19806e-10
-1.20331e-08
-6.68789e-09
6.72286e-10
-1.20733e-08
-6.70359e-09
7.58266e-10
-1.22302e-08
-6.63428e-09
8.55964e-10
-1.24166e-08
-6.54371e-09
9.50684e-10
-1.2615e-08
-6.4406e-09
1.04946e-09
-1.27709e-08
-6.38306e-09
1.12508e-09
-1.2919e-08
-6.31583e-09
1.17253e-09
-1.30166e-08
-6.28943e-09
1.17611e-09
-1.30078e-08
-6.30952e-09
1.12519e-09
-1.29006e-08
-6.3647e-09
1.06266e-09
-1.27361e-08
-6.46611e-09
9.70804e-10
-1.25587e-08
-6.5512e-09
8.84521e-10
-1.23446e-08
-6.67729e-09
7.8568e-10
-1.21326e-08
-6.78868e-09
6.95785e-10
-1.19547e-08
-6.87547e-09
6.38607e-10
-1.19032e-08
-6.86874e-09
5.97633e-10
-1.19795e-08
-6.75071e-09
5.31084e-10
-1.20605e-08
-6.60271e-09
4.7293e-10
-1.21511e-08
-6.45374e-09
3.94977e-10
-1.22338e-08
-6.29276e-09
2.797e-10
-1.2292e-08
-6.11947e-09
1.41444e-10
-1.23913e-08
-5.88155e-09
6.01451e-11
-1.24476e-08
-5.74418e-09
1.43539e-10
-1.25309e-08
-5.69617e-09
2.1885e-10
-1.24807e-08
-5.82256e-09
3.57212e-10
-1.23916e-08
-6.05236e-09
4.73719e-10
-1.23306e-08
-6.2322e-09
5.44924e-10
-1.2249e-08
-6.38806e-09
5.90456e-10
-1.21565e-08
-6.52915e-09
6.35469e-10
-1.20671e-08
-6.66646e-09
6.59561e-10
-1.19946e-08
-6.76584e-09
6.98817e-10
-1.20431e-08
-6.75969e-09
7.68114e-10
-1.22222e-08
-6.65128e-09
8.53459e-10
-1.24336e-08
-6.52383e-09
9.40658e-10
-1.26592e-08
-6.38589e-09
1.03843e-09
-1.28485e-08
-6.2941e-09
1.11356e-09
-1.30174e-08
-6.20637e-09
1.16648e-09
-1.31303e-08
-6.16886e-09
1.16945e-09
-1.31221e-08
-6.1888e-09
1.11361e-09
-1.29984e-08
-6.2554e-09
1.05077e-09
-1.28132e-08
-6.37723e-09
9.61191e-10
-1.26042e-08
-6.49606e-09
8.812e-10
-1.23617e-08
-6.65688e-09
7.95192e-10
-1.21257e-08
-6.80511e-09
7.23038e-10
-1.19277e-08
-6.9297e-09
6.79762e-10
-1.18684e-08
-6.94482e-09
6.50379e-10
-1.19373e-08
-6.84584e-09
5.95858e-10
-1.20242e-08
-6.70394e-09
5.40043e-10
-1.212e-08
-6.55202e-09
4.57385e-10
-1.22067e-08
-6.38244e-09
3.29289e-10
-1.22755e-08
-6.18574e-09
1.86299e-10
-1.2381e-08
-5.93677e-09
1.11557e-10
-1.24439e-08
-5.79937e-09
1.98327e-10
-1.25266e-08
-5.75705e-09
2.64953e-10
-1.2471e-08
-5.87992e-09
4.00306e-10
-1.2372e-08
-6.11619e-09
5.24797e-10
-1.22947e-08
-6.31989e-09
6.03467e-10
-1.22033e-08
-6.49264e-09
6.50967e-10
-1.21018e-08
-6.64442e-09
6.85554e-10
-1.20064e-08
-6.777e-09
7.04555e-10
-1.19518e-08
-6.85324e-09
7.31187e-10
-1.20147e-08
-6.81989e-09
7.83945e-10
-1.22184e-08
-6.67022e-09
8.55178e-10
-1.24592e-08
-6.49957e-09
9.27947e-10
-1.2718e-08
-6.31405e-09
1.02656e-09
-1.29466e-08
-6.18392e-09
1.10419e-09
-1.31404e-08
-6.0744e-09
1.16337e-09
-1.32708e-08
-6.02425e-09
1.16583e-09
-1.32632e-08
-6.0441e-09
1.1044e-09
-1.31208e-08
-6.12392e-09
1.03811e-09
-1.29109e-08
-6.26691e-09
9.51016e-10
-1.2666e-08
-6.42404e-09
8.82395e-10
-1.23876e-08
-6.63213e-09
8.10985e-10
-1.21233e-08
-6.82337e-09
7.56636e-10
-1.19029e-08
-6.98818e-09
7.26375e-10
-1.18295e-08
-7.03033e-09
7.01766e-10
-1.18786e-08
-6.956e-09
6.58547e-10
-1.19701e-08
-6.8209e-09
6.01315e-10
-1.20737e-08
-6.65979e-09
5.10689e-10
-1.21697e-08
-6.47289e-09
3.74755e-10
-1.22559e-08
-6.25099e-09
2.35379e-10
-1.23718e-08
-5.99522e-09
1.69891e-10
-1.24399e-08
-5.86173e-09
2.58212e-10
-1.252e-08
-5.82517e-09
3.14844e-10
-1.24597e-08
-5.94261e-09
4.38937e-10
-1.2347e-08
-6.18094e-09
5.64571e-10
-1.22464e-08
-6.40879e-09
6.50973e-10
-1.21381e-08
-6.60572e-09
7.03186e-10
-1.20226e-08
-6.77587e-09
7.353e-10
-1.1932e-08
-6.90093e-09
7.54019e-10
-1.19099e-08
-6.94426e-09
7.71819e-10
-1.1997e-08
-6.87756e-09
8.09018e-10
-1.22252e-08
-6.68777e-09
8.62172e-10
-1.2497e-08
-6.46847e-09
9.15148e-10
-1.27889e-08
-6.2301e-09
1.01156e-09
-1.30565e-08
-6.05907e-09
1.09498e-09
-1.32827e-08
-5.92364e-09
1.16153e-09
-1.34332e-08
-5.85922e-09
1.16365e-09
-1.34261e-08
-5.87902e-09
1.0961e-09
-1.32622e-08
-5.97441e-09
1.02252e-09
-1.30205e-08
-6.14178e-09
9.40622e-10
-1.27397e-08
-6.34003e-09
8.88984e-10
-1.24255e-08
-6.6007e-09
8.36297e-10
-1.21323e-08
-6.83976e-09
7.99243e-10
-1.18894e-08
-7.04434e-09
7.77938e-10
-1.17915e-08
-7.11992e-09
7.52731e-10
-1.18054e-08
-7.08022e-09
7.12588e-10
-1.18904e-08
-6.9548e-09
6.50556e-10
-1.20066e-08
-6.77627e-09
5.52031e-10
-1.21201e-08
-6.56406e-09
4.15213e-10
-1.22315e-08
-6.31582e-09
2.88618e-10
-1.2362e-08
-6.05844e-09
2.33892e-10
-1.24346e-08
-5.93124e-09
3.19702e-10
-1.25096e-08
-5.89844e-09
3.65386e-10
-1.24439e-08
-6.01027e-09
4.7151e-10
-1.23134e-08
-6.24805e-09
5.90178e-10
-1.21808e-08
-6.50078e-09
6.84512e-10
-1.20453e-08
-6.7324e-09
7.46635e-10
-1.19203e-08
-6.92153e-09
7.85164e-10
-1.18536e-08
-7.02896e-09
8.08829e-10
-1.18766e-08
-7.03194e-09
8.24545e-10
-1.20027e-08
-6.9238e-09
8.49013e-10
-1.22559e-08
-6.6963e-09
8.75512e-10
-1.25503e-08
-6.42823e-09
9.05256e-10
-1.28683e-08
-6.14068e-09
9.90053e-10
-1.3169e-08
-5.92524e-09
1.07423e-09
-1.34303e-08
-5.75621e-09
1.1479e-09
-1.36029e-08
-5.67519e-09
1.1499e-09
-1.35962e-08
-5.695e-09
1.07739e-09
-1.34088e-08
-5.80931e-09
1.00035e-09
-1.31329e-08
-6.00737e-09
9.30134e-10
-1.28187e-08
-6.2506e-09
9.02099e-10
-1.24797e-08
-6.55968e-09
8.7696e-10
-1.21661e-08
-6.84667e-09
8.54826e-10
-1.19e-08
-7.08929e-09
8.35131e-10
-1.17618e-08
-7.20683e-09
8.04854e-10
-1.17272e-08
-7.21053e-09
7.57889e-10
-1.17855e-08
-7.10483e-09
6.84552e-10
-1.19098e-08
-6.90719e-09
5.76916e-10
-1.20514e-08
-6.6577e-09
4.47636e-10
-1.21986e-08
-6.38111e-09
3.42943e-10
-1.23481e-08
-6.12679e-09
3.00047e-10
-1.24263e-08
-6.00576e-09
3.76027e-10
-1.24943e-08
-5.97118e-09
4.0927e-10
-1.24214e-08
-6.07786e-09
4.9475e-10
-1.2266e-08
-6.31955e-09
6.06445e-10
-1.20954e-08
-6.60303e-09
7.09382e-10
-1.19329e-08
-6.86973e-09
7.82804e-10
-1.18167e-08
-7.06124e-09
8.32314e-10
-1.17832e-08
-7.14642e-09
8.6908e-10
-1.18591e-08
-7.10934e-09
8.91065e-10
-1.20449e-08
-6.94769e-09
9.07387e-10
-1.23295e-08
-6.68059e-09
8.96488e-10
-1.26301e-08
-6.36914e-09
8.92068e-10
-1.29444e-08
-6.05132e-09
9.58651e-10
-1.32694e-08
-5.79399e-09
1.03736e-09
-1.35667e-08
-5.58397e-09
1.11482e-09
-1.37611e-08
-5.48329e-09
1.11696e-09
-1.37548e-08
-5.50327e-09
1.04299e-09
-1.35443e-08
-5.63969e-09
9.68789e-10
-1.32331e-08
-5.87579e-09
9.15974e-10
-1.28942e-08
-6.16093e-09
9.2313e-10
-1.25622e-08
-6.49815e-09
9.36791e-10
-1.22447e-08
-6.82803e-09
9.24755e-10
-1.19481e-08
-7.11124e-09
8.98132e-10
-1.17474e-08
-7.28431e-09
8.55367e-10
-1.16556e-08
-7.33276e-09
7.97212e-10
-1.16774e-08
-7.25233e-09
7.0999e-10
-1.17914e-08
-7.05076e-09
5.91226e-10
-1.19609e-08
-6.76248e-09
4.73174e-10
-1.21501e-08
-6.45501e-09
3.92393e-10
-1.23278e-08
-6.19695e-09
3.62044e-10
-1.24138e-08
-6.08026e-09
4.23076e-10
-1.24736e-08
-6.03998e-09
4.44482e-10
-1.23929e-08
-6.14262e-09
5.07889e-10
-1.2209e-08
-6.39026e-09
6.16342e-10
-1.20103e-08
-6.69833e-09
7.25465e-10
-1.18336e-08
-6.98555e-09
8.09008e-10
-1.17317e-08
-7.17258e-09
8.75734e-10
-1.17307e-08
-7.24215e-09
9.3045e-10
-1.18657e-08
-7.16423e-09
9.65447e-10
-1.21243e-08
-6.94256e-09
9.71263e-10
-1.24425e-08
-6.63105e-09
9.23331e-10
-1.27282e-08
-6.2979e-09
8.70396e-10
-1.29932e-08
-5.98113e-09
9.11074e-10
-1.3323e-08
-5.69362e-09
9.75761e-10
-1.36486e-08
-5.44184e-09
1.05038e-09
-1.3861e-08
-5.31886e-09
1.05284e-09
-1.38549e-08
-5.33907e-09
9.83378e-10
-1.36255e-08
-5.49936e-09
9.22237e-10
-1.3287e-08
-5.77567e-09
8.929e-10
-1.29436e-08
-6.08871e-09
9.51077e-10
-1.26652e-08
-6.42311e-09
1.00188e-09
-1.23649e-08
-6.77292e-09
1.00114e-09
-1.20335e-08
-7.10259e-09
9.63898e-10
-1.17574e-08
-7.34043e-09
9.02815e-10
-1.16015e-08
-7.43423e-09
8.29073e-10
-1.15867e-08
-7.37499e-09
7.29956e-10
-1.16837e-08
-7.17856e-09
6.04721e-10
-1.18703e-08
-6.86649e-09
4.91012e-10
-1.20919e-08
-6.53108e-09
4.31649e-10
-1.23029e-08
-6.26114e-09
4.14554e-10
-1.23971e-08
-6.1496e-09
4.58446e-10
-1.24469e-08
-6.10284e-09
4.72053e-10
-1.23668e-08
-6.19722e-09
5.16854e-10
-1.21635e-08
-6.44497e-09
6.18875e-10
-1.19411e-08
-6.77047e-09
7.31413e-10
-1.17608e-08
-7.0645e-09
8.27775e-10
-1.16681e-08
-7.25521e-09
9.17428e-10
-1.16951e-08
-7.31937e-09
9.87006e-10
-1.18868e-08
-7.20037e-09
1.03691e-09
-1.22161e-08
-6.92153e-09
1.04454e-09
-1.25709e-08
-6.5755e-09
9.49497e-10
-1.28076e-08
-6.24487e-09
8.40964e-10
-1.29987e-08
-5.94614e-09
8.50246e-10
-1.33041e-08
-5.65169e-09
8.95196e-10
-1.36438e-08
-5.36633e-09
9.57452e-10
-1.38715e-08
-5.21504e-09
9.60218e-10
-1.38656e-08
-5.23542e-09
9.04045e-10
-1.36206e-08
-5.42445e-09
8.6275e-10
-1.32694e-08
-5.73317e-09
8.6249e-10
-1.29518e-08
-6.04977e-09
9.79306e-10
-1.27512e-08
-6.3656e-09
1.07652e-09
-1.25019e-08
-6.71061e-09
1.07756e-09
-1.21356e-08
-7.07658e-09
1.02949e-09
-1.17847e-08
-7.3796e-09
9.51525e-10
-1.15651e-08
-7.51944e-09
8.53322e-10
-1.15146e-08
-7.4715e-09
7.40984e-10
-1.15999e-08
-7.2735e-09
6.07726e-10
-1.1793e-08
-6.94689e-09
4.99319e-10
-1.20458e-08
-6.58531e-09
4.6246e-10
-1.22807e-08
-6.31436e-09
4.54529e-10
-1.23749e-08
-6.21189e-09
4.78435e-10
-1.24234e-08
-6.14652e-09
4.8806e-10
-1.2344e-08
-6.23607e-09
5.27764e-10
-1.21413e-08
-6.47842e-09
6.27607e-10
-1.19092e-08
-6.81153e-09
7.38382e-10
-1.17182e-08
-7.11408e-09
8.41556e-10
-1.16243e-08
-7.31261e-09
9.47016e-10
-1.16713e-08
-7.37286e-09
1.02872e-09
-1.18988e-08
-7.23033e-09
1.08987e-09
-1.22729e-08
-6.91771e-09
1.11182e-09
-1.26613e-08
-6.55234e-09
9.73857e-10
-1.28467e-08
-6.22954e-09
8.19568e-10
-1.2975e-08
-5.94793e-09
7.96757e-10
-1.32479e-08
-5.65375e-09
8.20164e-10
-1.35894e-08
-5.34457e-09
8.69117e-10
-1.38318e-08
-5.16571e-09
8.7198e-10
-1.3826e-08
-5.18599e-09
8.29556e-10
-1.35669e-08
-5.40217e-09
8.09992e-10
-1.32151e-08
-5.73366e-09
8.40698e-10
-1.29317e-08
-6.04765e-09
1.00576e-09
-1.2796e-08
-6.34667e-09
1.14449e-09
-1.25981e-08
-6.68234e-09
1.14599e-09
-1.22111e-08
-7.06992e-09
1.08313e-09
-1.1807e-08
-7.41118e-09
9.88801e-10
-1.15419e-08
-7.58011e-09
8.72234e-10
-1.14607e-08
-7.54424e-09
7.51557e-10
-1.1546e-08
-7.3379e-09
6.15826e-10
-1.17535e-08
-6.99481e-09
5.09325e-10
-1.20223e-08
-6.61873e-09
4.79834e-10
-1.22601e-08
-6.35211e-09
4.76415e-10
-1.23538e-08
-6.25475e-09
)
;

boundaryField
{
    freeSurface
    {
        type            slip;
    }
    inlet
    {
        type            cyclic;
    }
    outlet
    {
        type            cyclic;
    }
    sidewalls
    {
        type            zeroGradient;
    }
    noSlipWalls
    {
        type            zeroGradient;
    }
}


// ************************************************************************* //
