/*--------------------------------*- C++ -*----------------------------------*\
  =========                 |
  \\      /  F ield         | OpenFOAM: The Open Source CFD Toolbox
   \\    /   O peration     | Website:  https://openfoam.org
    \\  /    A nd           | Version:  6
     \\/     M anipulation  |
\*---------------------------------------------------------------------------*/
FoamFile
{
    version     2.0;
    format      ascii;
    class       volVectorField;
    location    "160";
    object      U;
}
// * * * * * * * * * * * * * * * * * * * * * * * * * * * * * * * * * * * * * //

dimensions      [0 1 -1 0 0 0 0];

internalField   nonuniform List<vector> 
2160
(
(0.0745077 1.65256e-09 -2.41556e-10)
(0.0745077 -2.77126e-10 1.42386e-10)
(0.0745074 -1.33912e-09 5.96686e-11)
(0.0960875 6.65901e-10 -2.66791e-10)
(0.0960888 -1.11067e-09 7.41113e-11)
(0.0960875 5.22647e-10 1.9381e-10)
(0.111161 -1.51405e-09 -2.79233e-10)
(0.111162 -2.13296e-09 6.36595e-11)
(0.111161 3.72141e-09 2.14864e-10)
(0.121338 -1.81127e-09 -2.70536e-10)
(0.121339 -1.57426e-09 5.09608e-11)
(0.121338 3.43994e-09 2.19593e-10)
(0.129222 -1.01693e-09 -2.27385e-10)
(0.129223 -2.06425e-09 3.02273e-11)
(0.129222 3.13154e-09 1.97515e-10)
(0.135691 5.82812e-10 -1.69323e-10)
(0.135692 -2.50944e-09 -1.24242e-11)
(0.135691 1.96361e-09 1.81892e-10)
(0.141239 1.55412e-09 -1.22529e-10)
(0.14124 -2.54011e-09 -5.00988e-11)
(0.14124 1.01844e-09 1.72919e-10)
(0.146199 1.33118e-09 -8.56596e-11)
(0.146199 -1.46742e-09 -7.73077e-11)
(0.146199 1.64143e-10 1.63148e-10)
(0.150782 3.21562e-10 -5.2407e-11)
(0.150783 -7.53287e-11 -6.61119e-11)
(0.150782 -2.2121e-10 1.18736e-10)
(0.155081 3.41883e-10 -8.86939e-12)
(0.155081 -2.95575e-10 -2.78476e-11)
(0.155081 -2.71872e-11 3.71261e-11)
(0.159062 1.92268e-09 1.58457e-11)
(0.159062 -1.43529e-09 5.1141e-12)
(0.159062 -4.83597e-10 -2.03901e-11)
(0.162582 3.31891e-09 2.51457e-11)
(0.162582 -2.07669e-09 3.99838e-11)
(0.162582 -1.23658e-09 -6.48367e-11)
(0.165447 3.29954e-09 4.53081e-11)
(0.165447 -1.97271e-09 8.40332e-11)
(0.165447 -1.32993e-09 -1.28514e-10)
(0.16749 2.28875e-09 3.87019e-11)
(0.167489 -1.19393e-09 1.33966e-10)
(0.167489 -1.10197e-09 -1.72502e-10)
(0.168601 6.91935e-10 3.15274e-11)
(0.1686 -3.1403e-10 1.62026e-10)
(0.1686 -3.76847e-10 -1.93778e-10)
(0.1686 -9.86422e-10 3.13635e-11)
(0.168599 5.24296e-10 1.61989e-10)
(0.168599 4.60762e-10 -1.93753e-10)
(0.167488 -2.62291e-09 3.91646e-11)
(0.167487 1.4364e-09 1.3221e-10)
(0.167488 1.19589e-09 -1.71415e-10)
(0.165444 -3.67857e-09 4.31645e-11)
(0.165444 2.20284e-09 8.39815e-11)
(0.165444 1.47908e-09 -1.27206e-10)
(0.162578 -3.68812e-09 2.49554e-11)
(0.162578 2.28519e-09 3.90133e-11)
(0.162578 1.40779e-09 -6.39948e-11)
(0.159058 -2.2022e-09 1.32492e-11)
(0.159057 1.53361e-09 9.5806e-12)
(0.159058 6.73454e-10 -2.27796e-11)
(0.155077 -5.58016e-10 -1.06736e-11)
(0.155077 2.26101e-10 -2.54072e-11)
(0.155077 3.2884e-10 3.61004e-11)
(0.150778 -4.84527e-10 -5.35046e-11)
(0.150779 -8.11839e-11 -6.49426e-11)
(0.150779 5.6012e-10 1.1856e-10)
(0.146194 -1.43258e-09 -8.76674e-11)
(0.146195 1.39513e-09 -7.44936e-11)
(0.146194 3.22846e-11 1.62165e-10)
(0.141234 -1.4953e-09 -1.26545e-10)
(0.141234 2.52847e-09 -4.33451e-11)
(0.141234 -1.03887e-09 1.69871e-10)
(0.135684 -2.40772e-10 -1.78179e-10)
(0.135685 2.43534e-09 -5.53953e-12)
(0.135685 -2.1986e-09 1.83643e-10)
(0.129215 1.55e-09 -2.39355e-10)
(0.129216 2.08197e-09 3.49927e-11)
(0.129215 -3.63636e-09 2.0429e-10)
(0.12133 2.26195e-09 -2.82756e-10)
(0.121331 1.82089e-09 5.07256e-11)
(0.12133 -4.0845e-09 2.31904e-10)
(0.111153 1.66901e-09 -2.88661e-10)
(0.111154 2.69429e-09 6.08394e-11)
(0.111153 -4.36429e-09 2.27778e-10)
(0.0960805 -6.69967e-10 -2.76737e-10)
(0.0960819 1.44424e-09 7.14431e-11)
(0.0960805 -7.74605e-10 2.05109e-10)
(0.074504 -1.68251e-09 -2.1696e-10)
(0.0745041 2.8061e-10 1.5177e-10)
(0.0745037 1.40355e-09 6.52186e-11)
(0.0895841 1.90827e-09 -3.46897e-10)
(0.0895841 -4.04606e-10 2.39643e-10)
(0.0895838 -1.51829e-09 8.67304e-11)
(0.127488 8.14011e-10 -6.54483e-10)
(0.127489 -1.43348e-09 1.42956e-10)
(0.127488 6.19414e-10 5.14334e-10)
(0.144986 -1.80002e-09 -6.76165e-10)
(0.144987 -2.64062e-09 1.35382e-10)
(0.144986 4.49762e-09 5.39839e-10)
(0.156417 -2.11973e-09 -6.43983e-10)
(0.156418 -1.97028e-09 9.92838e-11)
(0.156417 4.14081e-09 5.44825e-10)
(0.165093 -1.10809e-09 -5.32446e-10)
(0.165093 -2.57127e-09 4.58843e-11)
(0.165093 3.73273e-09 4.86985e-10)
(0.172119 8.49978e-10 -3.98122e-10)
(0.17212 -3.10833e-09 -5.00442e-11)
(0.172119 2.2983e-09 4.48436e-10)
(0.178092 2.02798e-09 -2.96956e-10)
(0.178093 -3.13217e-09 -1.30286e-10)
(0.178092 1.14015e-09 4.27527e-10)
(0.183396 1.7277e-09 -2.15704e-10)
(0.183397 -1.8053e-09 -1.87345e-10)
(0.183397 1.08591e-10 4.03165e-10)
(0.188274 4.7663e-10 -1.26954e-10)
(0.188275 -9.34734e-11 -1.64062e-10)
(0.188275 -3.56386e-10 2.91139e-10)
(0.192833 4.76685e-10 -2.52933e-12)
(0.192833 -3.41117e-10 -7.26937e-11)
(0.192833 -1.1329e-10 7.55696e-11)
(0.197043 2.36031e-09 5.73533e-11)
(0.197042 -1.7168e-09 1.32874e-11)
(0.197043 -6.38747e-10 -7.04599e-11)
(0.200759 4.03823e-09 7.18231e-11)
(0.200758 -2.48309e-09 1.03093e-10)
(0.200758 -1.55028e-09 -1.74926e-10)
(0.203779 3.9978e-09 1.02573e-10)
(0.203778 -2.34866e-09 2.35882e-10)
(0.203779 -1.65232e-09 -3.38243e-10)
(0.205931 2.76819e-09 8.46468e-11)
(0.20593 -1.42456e-09 3.58623e-10)
(0.20593 -1.3525e-09 -4.43542e-10)
(0.2071 8.30465e-10 6.07324e-11)
(0.2071 -3.63286e-10 4.37511e-10)
(0.2071 -4.66834e-10 -4.98022e-10)
(0.2071 -1.19169e-09 6.04647e-11)
(0.207099 6.27877e-10 4.37547e-10)
(0.207099 5.62623e-10 -4.98132e-10)
(0.205929 -3.17536e-09 8.56113e-11)
(0.205928 1.72618e-09 3.55178e-10)
(0.205928 1.45988e-09 -4.4078e-10)
(0.203776 -4.46434e-09 1.00493e-10)
(0.203775 2.64467e-09 2.34672e-10)
(0.203776 1.82408e-09 -3.35174e-10)
(0.200755 -4.49171e-09 6.90806e-11)
(0.200754 2.74414e-09 1.04626e-10)
(0.200754 1.75434e-09 -1.7372e-10)
(0.197038 -2.70649e-09 5.49854e-11)
(0.197038 1.84488e-09 1.95213e-11)
(0.197038 8.68642e-10 -7.43838e-11)
(0.192828 -7.5592e-10 -5.74749e-12)
(0.192829 2.85121e-10 -6.81725e-11)
(0.192829 4.67735e-10 7.40149e-11)
(0.18827 -6.84777e-10 -1.29338e-10)
(0.188271 -8.58727e-11 -1.56504e-10)
(0.18827 7.64818e-10 2.85935e-10)
(0.183392 -1.85619e-09 -2.19911e-10)
(0.183392 1.70931e-09 -1.78047e-10)
(0.183392 1.41939e-10 3.97952e-10)
(0.178086 -1.9596e-09 -3.05135e-10)
(0.178087 3.10923e-09 -1.1325e-10)
(0.178086 -1.15577e-09 4.18367e-10)
(0.172112 -4.4073e-10 -4.16154e-10)
(0.172113 3.0133e-09 -3.36451e-11)
(0.172113 -2.57688e-09 4.49741e-10)
(0.165085 1.75462e-09 -5.60677e-10)
(0.165086 2.58525e-09 5.95392e-11)
(0.165085 -4.34499e-09 5.01058e-10)
(0.156409 2.66236e-09 -6.74843e-10)
(0.15641 2.26461e-09 1.01739e-10)
(0.156409 -4.92888e-09 5.72946e-10)
(0.144978 1.96524e-09 -7.01636e-10)
(0.144979 3.3225e-09 1.293e-10)
(0.144978 -5.28891e-09 5.72305e-10)
(0.127481 -9.12769e-10 -6.75068e-10)
(0.127482 1.84797e-09 1.29537e-10)
(0.127481 -9.3588e-10 5.4531e-10)
(0.0895804 -2.00436e-09 -3.50155e-10)
(0.0895805 4.14057e-10 2.53409e-10)
(0.0895802 1.59206e-09 9.68096e-11)
(0.0983585 2.0698e-09 -5.31872e-10)
(0.0983585 -4.95249e-10 3.68864e-10)
(0.0983582 -1.57863e-09 1.37827e-10)
(0.144245 9.8903e-10 -9.87453e-10)
(0.144246 -1.57823e-09 2.78772e-10)
(0.144245 6.05237e-10 7.10331e-10)
(0.163444 -1.79164e-09 -1.01923e-09)
(0.163445 -2.86256e-09 2.54705e-10)
(0.163444 4.72331e-09 7.62038e-10)
(0.175845 -2.13589e-09 -9.88918e-10)
(0.175846 -2.1876e-09 1.82671e-10)
(0.175845 4.38312e-09 8.06388e-10)
(0.185149 -1.03992e-09 -8.2441e-10)
(0.185149 -2.84794e-09 9.48648e-11)
(0.185149 3.94858e-09 7.3022e-10)
(0.192622 1.05766e-09 -6.1961e-10)
(0.192622 -3.42076e-09 -6.287e-11)
(0.192622 2.40838e-09 6.83011e-10)
(0.198937 2.31977e-09 -4.59808e-10)
(0.198937 -3.43447e-09 -1.9716e-10)
(0.198937 1.1552e-09 6.5741e-10)
(0.204521 1.9701e-09 -3.33992e-10)
(0.204521 -1.98605e-09 -2.90612e-10)
(0.204521 5.08745e-11 6.24841e-10)
(0.209639 6.06283e-10 -2.03763e-10)
(0.209639 -1.37888e-10 -2.54229e-10)
(0.209639 -4.38163e-10 4.58255e-10)
(0.214412 6.09601e-10 -1.98316e-11)
(0.214412 -4.22995e-10 -1.10123e-10)
(0.214412 -1.62372e-10 1.30539e-10)
(0.218813 2.62097e-09 7.36449e-11)
(0.218813 -1.9019e-09 2.62585e-11)
(0.218813 -7.14014e-10 -9.93215e-11)
(0.222694 4.44046e-09 1.05338e-10)
(0.222694 -2.73589e-09 1.59636e-10)
(0.222694 -1.69876e-09 -2.64746e-10)
(0.225847 4.37721e-09 1.60944e-10)
(0.225847 -2.57483e-09 3.58902e-10)
(0.225847 -1.80655e-09 -5.19139e-10)
(0.228093 3.02595e-09 1.37145e-10)
(0.228092 -1.56041e-09 5.48093e-10)
(0.228092 -1.47566e-09 -6.85153e-10)
(0.229313 9.11226e-10 1.00484e-10)
(0.229312 -4.00594e-10 6.7009e-10)
(0.229312 -5.10379e-10 -7.70767e-10)
(0.229312 -1.30052e-09 1.00287e-10)
(0.229312 6.86815e-10 6.70312e-10)
(0.229312 6.11735e-10 -7.70946e-10)
(0.228091 -3.46531e-09 1.3818e-10)
(0.22809 1.88705e-09 5.42653e-10)
(0.22809 1.59007e-09 -6.80865e-10)
(0.225844 -4.87949e-09 1.57474e-10)
(0.225844 2.89347e-09 3.57054e-10)
(0.225844 1.99072e-09 -5.14529e-10)
(0.22269 -4.92939e-09 1.01225e-10)
(0.22269 3.02075e-09 1.62087e-10)
(0.22269 1.91593e-09 -2.63346e-10)
(0.218808 -2.99812e-09 6.99718e-11)
(0.218808 2.04123e-09 3.61345e-11)
(0.218808 9.64374e-10 -1.0593e-10)
(0.214407 -9.10575e-10 -2.48749e-11)
(0.214407 3.59432e-10 -1.02729e-10)
(0.214407 5.47704e-10 1.27765e-10)
(0.209635 -8.30256e-10 -2.07479e-10)
(0.209635 -5.52572e-11 -2.43023e-10)
(0.209635 8.78961e-10 4.50622e-10)
(0.204515 -2.10972e-09 -3.40433e-10)
(0.204516 1.88597e-09 -2.77499e-10)
(0.204516 2.17982e-10 6.17914e-10)
(0.198931 -2.24649e-09 -4.72512e-10)
(0.198931 3.4129e-09 -1.71859e-10)
(0.198931 -1.17337e-09 6.44339e-10)
(0.192615 -6.19626e-10 -6.48121e-10)
(0.192615 3.32211e-09 -3.912e-11)
(0.192615 -2.70746e-09 6.87188e-10)
(0.185141 1.74135e-09 -8.67668e-10)
(0.185142 2.86292e-09 1.15437e-10)
(0.185141 -4.61004e-09 7.52119e-10)
(0.175838 2.72546e-09 -1.03391e-09)
(0.175838 2.50526e-09 1.85177e-10)
(0.175837 -5.233e-09 8.4851e-10)
(0.163436 1.98055e-09 -1.05639e-09)
(0.163437 3.59098e-09 2.48871e-10)
(0.163436 -5.57295e-09 8.07478e-10)
(0.144238 -1.07496e-09 -1.0181e-09)
(0.144239 2.02272e-09 2.66102e-10)
(0.144238 -9.48532e-10 7.51704e-10)
(0.0983547 -2.16129e-09 -5.4331e-10)
(0.0983548 5.09169e-10 3.91953e-10)
(0.0983545 1.65397e-09 1.5146e-10)
(0.107726 2.18197e-09 -8.13291e-10)
(0.107726 -6.10682e-10 5.8033e-10)
(0.107726 -1.57803e-09 2.23809e-10)
(0.157227 1.13909e-09 -1.36822e-09)
(0.157228 -1.67287e-09 4.82447e-10)
(0.157227 5.60496e-10 8.86829e-10)
(0.177902 -1.67915e-09 -1.41188e-09)
(0.177903 -2.99458e-09 4.29447e-10)
(0.177902 4.74884e-09 9.78831e-10)
(0.191226 -2.03282e-09 -1.39925e-09)
(0.191226 -2.36017e-09 3.05776e-10)
(0.191225 4.45721e-09 1.0938e-09)
(0.201123 -8.92506e-10 -1.1775e-09)
(0.201123 -3.06524e-09 1.70866e-10)
(0.201123 4.02254e-09 1.00764e-09)
(0.20901 1.26796e-09 -8.90181e-10)
(0.20901 -3.65386e-09 -6.91045e-11)
(0.20901 2.43439e-09 9.60182e-10)
(0.215633 2.57132e-09 -6.58219e-10)
(0.215634 -3.65446e-09 -2.75403e-10)
(0.215634 1.1264e-09 9.34253e-10)
(0.221463 2.17482e-09 -4.7937e-10)
(0.221463 -2.11686e-09 -4.17015e-10)
(0.221463 -2.07081e-11 8.96708e-10)
(0.226789 7.32348e-10 -3.04027e-10)
(0.226789 -1.73676e-10 -3.64867e-10)
(0.226789 -5.26489e-10 6.69254e-10)
(0.231744 7.35985e-10 -5.25973e-11)
(0.231744 -4.79895e-10 -1.55038e-10)
(0.231744 -2.30806e-10 2.0846e-10)
(0.236307 2.80999e-09 8.18458e-11)
(0.236307 -2.0138e-09 4.76074e-11)
(0.236307 -7.91272e-10 -1.28854e-10)
(0.240328 4.71829e-09 1.42479e-10)
(0.240328 -2.89983e-09 2.28042e-10)
(0.240328 -1.81235e-09 -3.70355e-10)
(0.243593 4.63209e-09 2.32123e-10)
(0.243593 -2.71804e-09 5.06589e-10)
(0.243593 -1.91853e-09 -7.38086e-10)
(0.245918 3.20033e-09 2.0548e-10)
(0.245918 -1.6451e-09 7.74016e-10)
(0.245918 -1.56514e-09 -9.79675e-10)
(0.247182 9.65899e-10 1.53711e-10)
(0.247181 -4.21226e-10 9.50926e-10)
(0.247181 -5.43645e-10 -1.1046e-09)
(0.247181 -1.37496e-09 1.53453e-10)
(0.24718 7.254e-10 9.51156e-10)
(0.24718 6.47164e-10 -1.10494e-09)
(0.245916 -3.66184e-09 2.06734e-10)
(0.245915 1.99175e-09 7.66691e-10)
(0.245915 1.68256e-09 -9.73457e-10)
(0.24359 -5.15911e-09 2.2799e-10)
(0.243589 3.05539e-09 5.0399e-10)
(0.243589 2.10859e-09 -7.31936e-10)
(0.240324 -5.23219e-09 1.36582e-10)
(0.240324 3.20401e-09 2.3297e-10)
(0.240324 2.03585e-09 -3.69592e-10)
(0.236302 -3.21421e-09 7.81512e-11)
(0.236302 2.16302e-09 6.11454e-11)
(0.236302 1.05904e-09 -1.38994e-10)
(0.231739 -1.05376e-09 -5.95137e-11)
(0.231739 4.13746e-10 -1.43435e-10)
(0.231739 6.36399e-10 2.03243e-10)
(0.226784 -9.67195e-10 -3.09058e-10)
(0.226785 -2.66529e-11 -3.48399e-10)
(0.226784 9.86848e-10 6.57601e-10)
(0.221458 -2.32198e-09 -4.88026e-10)
(0.221458 2.01466e-09 -3.99685e-10)
(0.221458 3.01064e-10 8.87679e-10)
(0.215627 -2.49553e-09 -6.75886e-10)
(0.215628 3.63373e-09 -2.40922e-10)
(0.215627 -1.14569e-09 9.16758e-10)
(0.209003 -8.17188e-10 -9.29658e-10)
(0.209003 3.55543e-09 -3.69252e-11)
(0.209003 -2.74365e-09 9.66482e-10)
(0.201115 1.62454e-09 -1.23855e-09)
(0.201116 3.08159e-09 1.99929e-10)
(0.201115 -4.71233e-09 1.03846e-09)
(0.191218 2.64648e-09 -1.45958e-09)
(0.191218 2.6908e-09 3.07934e-10)
(0.191218 -5.33983e-09 1.15133e-09)
(0.177895 1.88338e-09 -1.4628e-09)
(0.177895 3.74038e-09 4.26337e-10)
(0.177894 -5.6254e-09 1.0364e-09)
(0.15722 -1.21202e-09 -1.41213e-09)
(0.157221 2.1301e-09 4.75827e-10)
(0.15722 -9.18931e-10 9.35904e-10)
(0.107722 -2.28044e-09 -8.61041e-10)
(0.107723 6.31722e-10 6.19451e-10)
(0.107722 1.65059e-09 2.41776e-10)
(0.117693 2.23113e-09 -1.17032e-09)
(0.117693 -7.45671e-10 8.18602e-10)
(0.117693 -1.50732e-09 3.3807e-10)
(0.168248 1.25244e-09 -1.72652e-09)
(0.168248 -1.73427e-09 7.29224e-10)
(0.168247 5.0595e-10 9.96e-10)
(0.190164 -1.49735e-09 -1.77858e-09)
(0.190165 -3.07119e-09 6.34282e-10)
(0.190164 4.64227e-09 1.13931e-09)
(0.204385 -1.84076e-09 -1.80296e-09)
(0.204385 -2.51124e-09 4.50699e-10)
(0.204385 4.41646e-09 1.35276e-09)
(0.214877 -6.80985e-10 -1.53357e-09)
(0.214877 -3.25356e-09 2.63151e-10)
(0.214877 4.00044e-09 1.27183e-09)
(0.223174 1.48968e-09 -1.16717e-09)
(0.223174 -3.84529e-09 -6.89773e-11)
(0.223174 2.40539e-09 1.23748e-09)
(0.230098 2.80389e-09 -8.6154e-10)
(0.230098 -3.8294e-09 -3.55709e-10)
(0.230098 1.07004e-09 1.21813e-09)
(0.23616 2.35883e-09 -6.30377e-10)
(0.23616 -2.21766e-09 -5.50446e-10)
(0.23616 -1.0289e-10 1.18131e-09)
(0.241679 8.58256e-10 -4.15653e-10)
(0.241679 -2.00031e-10 -4.79239e-10)
(0.241679 -6.25323e-10 8.95436e-10)
(0.2468 8.5871e-10 -1.01752e-10)
(0.2468 -5.12913e-10 -1.9705e-10)
(0.2468 -3.20056e-10 2.99975e-10)
(0.25151 2.95675e-09 7.64965e-11)
(0.25151 -2.07268e-09 7.8727e-11)
(0.25151 -8.79302e-10 -1.54422e-10)
(0.255657 4.90921e-09 1.73187e-10)
(0.255657 -2.99892e-09 3.04969e-10)
(0.255657 -1.90427e-09 -4.77902e-10)
(0.259024 4.80058e-09 3.03903e-10)
(0.259023 -2.80174e-09 6.61297e-10)
(0.259023 -2.00314e-09 -9.64378e-10)
(0.261421 3.31811e-09 2.75919e-10)
(0.26142 -1.69269e-09 1.01118e-09)
(0.26142 -1.63418e-09 -1.28725e-09)
(0.262723 1.00261e-09 2.07885e-10)
(0.262723 -4.28935e-10 1.24584e-09)
(0.262723 -5.71356e-10 -1.45384e-09)
(0.262722 -1.42691e-09 2.07696e-10)
(0.262722 7.49669e-10 1.24621e-09)
(0.262722 6.74649e-10 -1.45433e-09)
(0.261418 -3.79607e-09 2.77139e-10)
(0.261418 2.05707e-09 1.00187e-09)
(0.261418 1.75185e-09 -1.27907e-09)
(0.25902 -5.34601e-09 2.98851e-10)
(0.25902 3.15651e-09 6.57964e-10)
(0.25902 2.19448e-09 -9.56745e-10)
(0.255653 -5.44185e-09 1.65756e-10)
(0.255653 3.32054e-09 3.12288e-10)
(0.255653 2.12927e-09 -4.78114e-10)
(0.251505 -3.37651e-09 7.22399e-11)
(0.251505 2.23145e-09 9.65883e-11)
(0.251505 1.15335e-09 -1.68396e-10)
(0.246796 -1.19079e-09 -1.10748e-10)
(0.246796 4.48595e-10 -1.80386e-10)
(0.246796 7.38582e-10 2.91599e-10)
(0.241674 -1.10138e-09 -4.22023e-10)
(0.241674 -2.80521e-12 -4.5787e-10)
(0.241674 1.09699e-09 8.8009e-10)
(0.236155 -2.51151e-09 -6.41185e-10)
(0.236155 2.11413e-09 -5.29658e-10)
(0.236155 3.90916e-10 1.17082e-09)
(0.230092 -2.72743e-09 -8.84487e-10)
(0.230092 3.80857e-09 -3.12882e-10)
(0.230092 -1.0889e-09 1.1973e-09)
(0.223167 -1.03218e-09 -1.21894e-09)
(0.223167 3.74939e-09 -2.86053e-11)
(0.223167 -2.72286e-09 1.24746e-09)
(0.214869 1.42676e-09 -1.61294e-09)
(0.214869 3.27146e-09 3.00255e-10)
(0.214869 -4.70469e-09 1.31245e-09)
(0.204377 2.462e-09 -1.87699e-09)
(0.204378 2.84778e-09 4.5217e-10)
(0.204377 -5.31253e-09 1.42437e-09)
(0.190157 1.70932e-09 -1.84189e-09)
(0.190157 3.8142e-09 6.36847e-10)
(0.190157 -5.52533e-09 1.20492e-09)
(0.168241 -1.32128e-09 -1.78357e-09)
(0.168242 2.19352e-09 7.3589e-10)
(0.168241 -8.73176e-10 1.04713e-09)
(0.117689 -2.34682e-09 -1.23676e-09)
(0.117689 7.76758e-10 8.76363e-10)
(0.117689 1.57189e-09 3.60625e-10)
(0.128232 2.21176e-09 -1.5814e-09)
(0.128232 -8.87693e-10 1.07862e-09)
(0.128232 -1.36258e-09 4.93103e-10)
(0.178128 1.32546e-09 -2.04011e-09)
(0.178128 -1.76655e-09 1.00501e-09)
(0.178128 4.54849e-10 1.03022e-09)
(0.201025 -1.26202e-09 -2.09255e-09)
(0.201025 -3.1069e-09 8.55992e-10)
(0.201025 4.4366e-09 1.22998e-09)
(0.216114 -1.57126e-09 -2.1751e-09)
(0.216114 -2.65123e-09 6.067e-10)
(0.216114 4.28419e-09 1.56897e-09)
(0.227212 -4.1036e-10 -1.87337e-09)
(0.227212 -3.42667e-09 3.63752e-10)
(0.227212 3.90187e-09 1.51144e-09)
(0.235932 1.72817e-09 -1.43811e-09)
(0.235932 -4.01368e-09 -6.60248e-11)
(0.235932 2.33517e-09 1.50597e-09)
(0.24316 3.02688e-09 -1.05977e-09)
(0.24316 -3.97712e-09 -4.38732e-10)
(0.24316 9.94952e-10 1.49968e-09)
(0.249453 2.5288e-09 -7.79904e-10)
(0.249453 -2.29788e-09 -6.89261e-10)
(0.249453 -1.92581e-10 1.46983e-09)
(0.255157 9.85662e-10 -5.34989e-10)
(0.255158 -2.17945e-10 -5.94471e-10)
(0.255157 -7.34998e-10 1.1302e-09)
(0.260437 9.79435e-10 -1.68261e-10)
(0.260437 -5.25136e-10 -2.32226e-10)
(0.260437 -4.28612e-10 4.02049e-10)
(0.265285 3.05681e-09 5.31568e-11)
(0.265285 -2.08793e-09 1.22983e-10)
(0.265285 -9.6441e-10 -1.75144e-10)
(0.26955 5.02773e-09 1.92848e-10)
(0.26955 -3.04507e-09 3.90475e-10)
(0.26955 -1.97692e-09 -5.83046e-10)
(0.273011 4.90062e-09 3.69412e-10)
(0.27301 -2.83764e-09 8.20665e-10)
(0.27301 -2.06671e-09 -1.18919e-09)
(0.275474 3.39181e-09 3.42221e-10)
(0.275474 -1.70991e-09 1.25298e-09)
(0.275474 -1.68889e-09 -1.59554e-09)
(0.276813 1.0256e-09 2.5726e-10)
(0.276813 -4.25945e-10 1.54748e-09)
(0.276813 -5.95664e-10 -1.80476e-09)
(0.276813 -1.4619e-09 2.57028e-10)
(0.276812 7.62354e-10 1.54784e-09)
(0.276812 6.96933e-10 -1.80538e-09)
(0.275472 -3.88223e-09 3.43337e-10)
(0.275472 2.09043e-09 1.24199e-09)
(0.275472 1.80484e-09 -1.58543e-09)
(0.273007 -5.45959e-09 3.63779e-10)
(0.273007 3.20874e-09 8.16666e-10)
(0.273007 2.25588e-09 -1.18034e-09)
(0.269546 -5.57386e-09 1.84073e-10)
(0.269545 3.38301e-09 4.00659e-10)
(0.269545 2.199e-09 -5.8483e-10)
(0.26528 -3.49094e-09 4.88201e-11)
(0.26528 2.25612e-09 1.45344e-10)
(0.26528 1.24344e-09 -1.93578e-10)
(0.260433 -1.32285e-09 -1.79356e-10)
(0.260433 4.65228e-10 -2.09751e-10)
(0.260433 8.54178e-10 3.89766e-10)
(0.255153 -1.23472e-09 -5.42682e-10)
(0.255153 1.59718e-11 -5.68119e-10)
(0.255153 1.21152e-09 1.11106e-09)
(0.249448 -2.68537e-09 -7.92703e-10)
(0.249448 2.19395e-09 -6.65619e-10)
(0.249448 4.84926e-10 1.4583e-09)
(0.243154 -2.9512e-09 -1.08825e-09)
(0.243154 3.95588e-09 -3.88257e-10)
(0.243154 -1.01256e-09 1.47642e-09)
(0.235925 -1.26928e-09 -1.50085e-09)
(0.235925 3.92248e-09 -1.80205e-11)
(0.235925 -2.65896e-09 1.51869e-09)
(0.227205 1.15658e-09 -1.97049e-09)
(0.227205 3.44645e-09 4.0767e-10)
(0.227205 -4.60965e-09 1.56249e-09)
(0.216106 2.18787e-09 -2.25968e-09)
(0.216107 2.98831e-09 6.06854e-10)
(0.216106 -5.17906e-09 1.65221e-09)
(0.201018 1.47755e-09 -2.16536e-09)
(0.201018 3.83148e-09 8.67124e-10)
(0.201018 -5.31101e-09 1.29804e-09)
(0.178121 -1.39355e-09 -2.10973e-09)
(0.178122 2.21994e-09 1.03254e-09)
(0.178121 -8.27397e-10 1.07646e-09)
(0.128228 -2.34275e-09 -1.6767e-09)
(0.128228 9.31256e-10 1.15615e-09)
(0.128228 1.41326e-09 5.20862e-10)
(0.139278 2.11039e-09 -2.07365e-09)
(0.139278 -1.0217e-09 1.36584e-09)
(0.139278 -1.14206e-09 7.00175e-10)
(0.187341 1.34876e-09 -2.30137e-09)
(0.187342 -1.77142e-09 1.30111e-09)
(0.187341 4.21513e-10 9.90314e-10)
(0.210934 -9.88891e-10 -2.33866e-09)
(0.210934 -3.10805e-09 1.08529e-09)
(0.210933 4.15505e-09 1.24451e-09)
(0.226841 -1.23232e-09 -2.49965e-09)
(0.226841 -2.78477e-09 7.65201e-10)
(0.22684 4.07361e-09 1.73489e-09)
(0.23856 -8.28508e-11 -2.18499e-09)
(0.23856 -3.59131e-09 4.65699e-10)
(0.23856 3.73617e-09 1.72149e-09)
(0.247723 1.98933e-09 -1.69432e-09)
(0.247723 -4.17145e-09 -6.48963e-11)
(0.247723 2.23045e-09 1.76153e-09)
(0.255268 3.24609e-09 -1.24687e-09)
(0.255268 -4.10906e-09 -5.26566e-10)
(0.255268 9.06903e-10 1.77492e-09)
(0.261797 2.68785e-09 -9.24192e-10)
(0.261797 -2.36279e-09 -8.33903e-10)
(0.261797 -2.87479e-10 1.75898e-09)
(0.267687 1.11502e-09 -6.60698e-10)
(0.267687 -2.26619e-10 -7.0913e-10)
(0.267687 -8.56594e-10 1.37081e-09)
(0.273121 1.09898e-09 -2.54358e-10)
(0.273121 -5.15772e-10 -2.56522e-10)
(0.273121 -5.58033e-10 5.12919e-10)
(0.278101 3.1152e-09 8.64773e-12)
(0.278101 -2.06079e-09 1.84099e-10)
(0.278101 -1.05033e-09 -1.91472e-10)
(0.282478 5.08053e-09 1.96652e-10)
(0.282478 -3.04131e-09 4.8724e-10)
(0.282478 -2.03391e-09 -6.83568e-10)
(0.286029 4.94347e-09 4.24186e-10)
(0.286029 -2.82987e-09 9.85284e-10)
(0.286029 -2.11647e-09 -1.40842e-09)
(0.288556 3.42931e-09 3.9897e-10)
(0.288556 -1.69879e-09 1.4993e-09)
(0.288556 -1.73513e-09 -1.89869e-09)
(0.28993 1.03744e-09 2.96066e-10)
(0.28993 -4.12706e-10 1.86125e-09)
(0.28993 -6.18826e-10 -2.15737e-09)
(0.289929 -1.48351e-09 2.95876e-10)
(0.289929 7.64344e-10 1.86164e-09)
(0.289929 7.16662e-10 -2.1581e-09)
(0.288554 -3.92942e-09 3.99795e-10)
(0.288554 2.09443e-09 1.48685e-09)
(0.288554 1.84807e-09 -1.88677e-09)
(0.286025 -5.51226e-09 4.18112e-10)
(0.286025 3.21645e-09 9.80668e-10)
(0.286025 2.30084e-09 -1.39864e-09)
(0.282474 -5.63553e-09 1.86846e-10)
(0.282474 3.39494e-09 5.00512e-10)
(0.282474 2.24888e-09 -6.87502e-10)
(0.278096 -3.56162e-09 4.3221e-12)
(0.278096 2.23873e-09 2.11385e-10)
(0.278096 1.33175e-09 -2.14908e-10)
(0.273116 -1.45111e-09 -2.67663e-10)
(0.273116 4.6215e-10 -2.27316e-10)
(0.273116 9.85783e-10 4.95878e-10)
(0.267682 -1.3676e-09 -6.69895e-10)
(0.267682 2.82971e-11 -6.77951e-10)
(0.267682 1.3322e-09 1.34818e-09)
(0.261792 -2.8469e-09 -9.38836e-10)
(0.261792 2.25939e-09 -8.08067e-10)
(0.261792 5.81131e-10 1.7469e-09)
(0.255262 -3.17225e-09 -1.28164e-09)
(0.255262 4.08739e-09 -4.69921e-10)
(0.255262 -9.23009e-10 1.75146e-09)
(0.247716 -1.53466e-09 -1.77366e-09)
(0.247716 4.08901e-09 -9.78438e-12)
(0.247716 -2.56015e-09 1.78331e-09)
(0.238553 8.16714e-10 -2.29948e-09)
(0.238553 3.61413e-09 5.15233e-10)
(0.238553 -4.4375e-09 1.78384e-09)
(0.226833 1.83488e-09 -2.59106e-09)
(0.226833 3.11748e-09 7.63561e-10)
(0.226833 -4.95533e-09 1.82672e-09)
(0.210927 1.20575e-09 -2.41717e-09)
(0.210927 3.80084e-09 1.10808e-09)
(0.210926 -5.0087e-09 1.30882e-09)
(0.187335 -1.41493e-09 -2.38168e-09)
(0.187335 2.21184e-09 1.35578e-09)
(0.187335 -7.97971e-10 1.02497e-09)
(0.139274 -2.25032e-09 -2.19848e-09)
(0.139274 1.07932e-09 1.46462e-09)
(0.139274 1.17269e-09 7.34222e-10)
(0.150727 1.91527e-09 -2.65122e-09)
(0.150728 -1.13006e-09 1.68058e-09)
(0.150727 -8.48473e-10 9.67754e-10)
(0.196201 1.30857e-09 -2.50476e-09)
(0.196201 -1.74836e-09 1.60773e-09)
(0.196201 4.22336e-10 8.80562e-10)
(0.220187 -6.95766e-10 -2.50186e-09)
(0.220187 -3.07595e-09 1.31395e-09)
(0.220187 3.81809e-09 1.17595e-09)
(0.236833 -8.32017e-10 -2.75776e-09)
(0.236833 -2.91346e-09 9.1683e-10)
(0.236833 3.79506e-09 1.84075e-09)
(0.249181 2.99243e-10 -2.45266e-09)
(0.249181 -3.74991e-09 5.59244e-10)
(0.24918 3.50835e-09 1.89579e-09)
(0.258812 2.27883e-09 -1.92414e-09)
(0.258812 -4.32824e-09 -7.11904e-11)
(0.258812 2.09541e-09 1.99822e-09)
(0.266695 3.46613e-09 -1.41482e-09)
(0.266695 -4.23423e-09 -6.22439e-10)
(0.266695 8.10438e-10 2.03913e-09)
(0.273471 2.8371e-09 -1.0585e-09)
(0.273471 -2.41592e-09 -9.83827e-10)
(0.273471 -3.8505e-10 2.04345e-09)
(0.27955 1.24614e-09 -7.91206e-10)
(0.27955 -2.24571e-10 -8.2152e-10)
(0.27955 -9.91311e-10 1.614e-09)
(0.285138 1.21708e-09 -3.62736e-10)
(0.285138 -4.82788e-10 -2.65192e-10)
(0.285138 -7.10015e-10 6.30476e-10)
(0.290248 3.15398e-09 -6.06903e-11)
(0.290248 -1.9885e-09 2.67442e-10)
(0.290248 -1.16189e-09 -2.05145e-10)
(0.294734 5.0867e-09 1.80024e-10)
(0.294734 -2.98622e-09 5.97635e-10)
(0.294734 -2.0957e-09 -7.7726e-10)
(0.298372 4.94045e-09 4.62401e-10)
(0.298371 -2.77921e-09 1.15509e-09)
(0.298371 -2.1629e-09 -1.61634e-09)
(0.300961 3.43816e-09 4.40637e-10)
(0.300961 -1.65934e-09 1.75606e-09)
(0.300961 -1.78083e-09 -2.19734e-09)
(0.302368 1.04016e-09 3.18861e-10)
(0.302368 -3.9022e-10 2.1766e-09)
(0.302368 -6.4192e-10 -2.49544e-09)
(0.302367 -1.49447e-09 3.1864e-10)
(0.302367 7.55178e-10 2.1769e-09)
(0.302367 7.37016e-10 -2.49624e-09)
(0.300959 -3.94638e-09 4.41065e-10)
(0.300958 2.06925e-09 1.74248e-09)
(0.300958 1.89018e-09 -2.18375e-09)
(0.298368 -5.51632e-09 4.56179e-10)
(0.298368 3.18048e-09 1.14998e-09)
(0.298368 2.34079e-09 -1.60598e-09)
(0.29473 -5.64713e-09 1.6953e-10)
(0.29473 3.3553e-09 6.14187e-10)
(0.29473 2.30014e-09 -7.83891e-10)
(0.290243 -3.60521e-09 -6.50892e-11)
(0.290243 2.17685e-09 3.00162e-10)
(0.290243 1.43751e-09 -2.34108e-10)
(0.285133 -1.57512e-09 -3.7835e-10)
(0.285133 4.36735e-10 -2.28278e-10)
(0.285133 1.13557e-09 6.07778e-10)
(0.279545 -1.49944e-09 -8.02e-10)
(0.279545 3.23001e-11 -7.85564e-10)
(0.279545 1.46026e-09 1.58799e-09)
(0.273465 -2.99736e-09 -1.07475e-09)
(0.273466 2.314e-09 -9.56551e-10)
(0.273465 6.77205e-10 2.0313e-09)
(0.266689 -3.39476e-09 -1.45679e-09)
(0.266689 4.21213e-09 -5.61074e-10)
(0.266689 -8.2512e-10 2.01774e-09)
(0.258805 -1.84114e-09 -2.01688e-09)
(0.258805 4.26194e-09 -9.92038e-12)
(0.258805 -2.42655e-09 2.02665e-09)
(0.249173 4.0861e-10 -2.58488e-09)
(0.249173 3.77805e-09 6.13619e-10)
(0.249173 -4.19324e-09 1.97061e-09)
(0.236825 1.414e-09 -2.85143e-09)
(0.236826 3.23673e-09 9.13382e-10)
(0.236825 -4.65374e-09 1.93703e-09)
(0.220181 9.13836e-10 -2.58188e-09)
(0.220181 3.72465e-09 1.35177e-09)
(0.22018 -4.64074e-09 1.22965e-09)
(0.196195 -1.36894e-09 -2.59391e-09)
(0.196195 2.16995e-09 1.697e-09)
(0.196195 -8.02138e-10 8.95736e-10)
(0.150723 -2.05307e-09 -2.80979e-09)
(0.150723 1.20188e-09 1.80121e-09)
(0.150723 8.52808e-10 1.00898e-09)
(0.16244 1.61608e-09 -3.30697e-09)
(0.16244 -1.19314e-09 2.01484e-09)
(0.16244 -4.89234e-10 1.29704e-09)
(0.204929 1.18793e-09 -2.64582e-09)
(0.20493 -1.6943e-09 1.91486e-09)
(0.204929 4.7403e-10 7.07051e-10)
(0.229008 -4.05741e-10 -2.56054e-09)
(0.229008 -3.00724e-09 1.52509e-09)
(0.229008 3.44633e-09 1.01938e-09)
(0.246277 -3.81921e-10 -2.91737e-09)
(0.246277 -3.03672e-09 1.04057e-09)
(0.246277 3.45993e-09 1.87576e-09)
(0.259245 7.34714e-10 -2.65012e-09)
(0.259245 -3.90458e-09 6.27361e-10)
(0.259245 3.22212e-09 2.02547e-09)
(0.26937 2.60224e-09 -2.10367e-09)
(0.26937 -4.49154e-09 -9.33067e-11)
(0.26937 1.93211e-09 2.20022e-09)
(0.277617 3.69132e-09 -1.55266e-09)
(0.277617 -4.3608e-09 -7.29844e-10)
(0.277617 7.09549e-10 2.28474e-09)
(0.284657 2.9759e-09 -1.17483e-09)
(0.284657 -2.46007e-09 -1.13839e-09)
(0.284657 -4.81671e-10 2.3147e-09)
(0.290935 1.37829e-09 -9.24856e-10)
(0.290935 -2.09353e-10 -9.2796e-10)
(0.290935 -1.14069e-09 1.85432e-09)
(0.296679 1.33205e-09 -4.95934e-10)
(0.29668 -4.22605e-10 -2.52425e-10)
(0.296679 -8.8621e-10 7.51577e-10)
(0.301919 3.18179e-09 -1.60234e-10)
(0.301919 -1.85984e-09 3.77574e-10)
(0.301919 -1.31889e-09 -2.15416e-10)
(0.306513 5.06897e-09 1.38305e-10)
(0.306513 -2.87514e-09 7.28167e-10)
(0.306513 -2.18978e-09 -8.66092e-10)
(0.310235 4.90587e-09 4.79002e-10)
(0.310235 -2.68406e-09 1.33667e-09)
(0.310235 -2.22234e-09 -1.81435e-09)
(0.312885 3.42536e-09 4.61196e-10)
(0.312884 -1.59052e-09 2.01045e-09)
(0.312884 -1.83396e-09 -2.47246e-09)
(0.314324 1.03467e-09 3.18808e-10)
(0.314324 -3.58403e-10 2.49884e-09)
(0.314324 -6.66065e-10 -2.81754e-09)
(0.314324 -1.496e-09 3.18606e-10)
(0.314323 7.34342e-10 2.499e-09)
(0.314323 7.59656e-10 -2.81836e-09)
(0.312882 -3.94036e-09 4.60996e-10)
(0.312882 2.01156e-09 1.99617e-09)
(0.312882 1.94167e-09 -2.45738e-09)
(0.310231 -5.4873e-09 4.72969e-10)
(0.310231 3.09895e-09 1.33115e-09)
(0.310231 2.39328e-09 -1.80388e-09)
(0.306508 -5.63263e-09 1.2743e-10)
(0.306508 3.25979e-09 7.48181e-10)
(0.306508 2.38122e-09 -8.75876e-10)
(0.301914 -3.63898e-09 -1.64556e-10)
(0.301914 2.05839e-09 4.15955e-10)
(0.301914 1.5898e-09 -2.50147e-10)
(0.296674 -1.69254e-09 -5.13942e-10)
(0.296675 3.84849e-10 -2.0672e-10)
(0.296674 1.30511e-09 7.22193e-10)
(0.29093 -1.6288e-09 -9.36985e-10)
(0.29093 2.52047e-11 -8.87226e-10)
(0.29093 1.59703e-09 1.82474e-09)
(0.284652 -3.13612e-09 -1.19252e-09)
(0.284652 2.36022e-09 -1.11085e-09)
(0.284652 7.69977e-10 2.30345e-09)
(0.27761 -3.62258e-09 -1.60202e-09)
(0.277611 4.33767e-09 -6.66782e-10)
(0.277611 -7.22661e-10 2.26868e-09)
(0.269363 -2.19411e-09 -2.2074e-09)
(0.269363 4.45351e-09 -3.23803e-11)
(0.269363 -2.26501e-09 2.23947e-09)
(0.259238 -6.53458e-11 -2.79802e-09)
(0.259238 3.93851e-09 6.83538e-10)
(0.259238 -3.87968e-09 2.11396e-09)
(0.24627 9.40169e-10 -3.01013e-09)
(0.24627 3.3446e-09 1.03569e-09)
(0.24627 -4.28769e-09 1.97312e-09)
(0.229001 6.26676e-10 -2.63611e-09)
(0.229001 3.59969e-09 1.58133e-09)
(0.229001 -4.2287e-09 1.05433e-09)
(0.204924 -1.236e-09 -2.74203e-09)
(0.204924 2.09371e-09 2.04534e-09)
(0.204923 -8.58913e-10 6.95234e-10)
(0.162435 -1.73917e-09 -3.50043e-09)
(0.162435 1.27968e-09 2.15691e-09)
(0.162435 4.6105e-10 1.34404e-09)
(0.174253 1.2143e-09 -4.01881e-09)
(0.174253 -1.19997e-09 2.35736e-09)
(0.174253 -7.56671e-11 1.67647e-09)
(0.213692 9.70877e-10 -2.72302e-09)
(0.213692 -1.60618e-09 2.21248e-09)
(0.213692 5.92424e-10 4.78588e-10)
(0.237576 -1.27726e-10 -2.51895e-09)
(0.237576 -2.89898e-09 1.71549e-09)
(0.237576 3.0479e-09 7.82627e-10)
(0.25532 1.20972e-10 -2.96535e-09)
(0.25532 -3.12069e-09 1.13926e-09)
(0.25532 3.0324e-09 1.82323e-09)
(0.268877 1.24884e-09 -2.76617e-09)