/*--------------------------------*- C++ -*----------------------------------*\
  =========                 |
  \\      /  F ield         | OpenFOAM: The Open Source CFD Toolbox
   \\    /   O peration     | Website:  https://openfoam.org
    \\  /    A nd           | Version:  6
     \\/     M anipulation  |
\*---------------------------------------------------------------------------*/
FoamFile
{
    version     2.0;
    format      ascii;
    class       volScalarField;
    location    "100";
    object      epsilon;
}
// * * * * * * * * * * * * * * * * * * * * * * * * * * * * * * * * * * * * * //

dimensions      [0 2 -3 0 0 0 0];

internalField   nonuniform List<scalar> 
2160
(
0.00175659
0.00175658
0.00175659
0.00818085
0.00818085
0.00818089
0.00979054
0.00979053
0.00979059
0.01099
0.01099
0.0109901
0.0119676
0.0119676
0.0119677
0.0127929
0.0127929
0.012793
0.0135132
0.0135132
0.0135133
0.0141634
0.0141634
0.0141635
0.0147674
0.0147674
0.0147674
0.015335
0.015335
0.015335
0.0158604
0.0158604
0.0158604
0.0163241
0.0163241
0.0163241
0.0167005
0.0167005
0.0167005
0.0169684
0.0169684
0.0169684
0.0171137
0.0171137
0.0171137
0.0171135
0.0171135
0.0171135
0.0169679
0.0169679
0.0169679
0.0166997
0.0166997
0.0166998
0.0163232
0.0163232
0.0163232
0.0158593
0.0158593
0.0158594
0.0153338
0.0153338
0.0153338
0.0147662
0.0147662
0.0147662
0.0141622
0.0141622
0.0141623
0.013512
0.013512
0.0135121
0.0127918
0.0127918
0.0127919
0.0119666
0.0119665
0.0119666
0.010989
0.010989
0.0109891
0.00978966
0.00978965
0.00978971
0.00818014
0.00818013
0.00818018
0.0017564
0.0017564
0.00175641
0.00023337
0.000233369
0.000233371
0.00707494
0.00707494
0.00707497
0.00875442
0.00875442
0.00875445
0.0099468
0.00994679
0.00994684
0.0108726
0.0108726
0.0108727
0.0116271
0.0116271
0.0116272
0.0122684
0.0122684
0.0122684
0.0128361
0.0128361
0.0128361
0.0133563
0.0133562
0.0133563
0.0138408
0.0138407
0.0138408
0.0142867
0.0142867
0.0142867
0.0146788
0.0146788
0.0146789
0.0149965
0.0149964
0.0149965
0.0152222
0.0152222
0.0152222
0.0153445
0.0153445
0.0153446
0.0153444
0.0153444
0.0153444
0.0152218
0.0152218
0.0152218
0.0149958
0.0149958
0.0149958
0.014678
0.014678
0.0146781
0.0142858
0.0142858
0.0142858
0.0138397
0.0138397
0.0138398
0.0133552
0.0133552
0.0133552
0.012835
0.012835
0.0128351
0.0122673
0.0122673
0.0122674
0.0116261
0.0116261
0.0116262
0.0108717
0.0108717
0.0108717
0.00994597
0.00994596
0.009946
0.0087537
0.00875369
0.00875373
0.00707437
0.00707437
0.00707439
0.000233338
0.000233338
0.000233339
0.000295017
0.000295017
0.000295018
0.00500013
0.00500013
0.00500015
0.00616983
0.00616983
0.00616985
0.00705157
0.00705156
0.0070516
0.00774704
0.00774703
0.00774707
0.00831643
0.00831642
0.00831646
0.00880073
0.00880072
0.00880076
0.00922934
0.00922933
0.00922937
0.00962199
0.00962197
0.00962201
0.00998784
0.00998783
0.00998786
0.0103249
0.0103249
0.0103249
0.0106217
0.0106217
0.0106217
0.0108624
0.0108624
0.0108624
0.0110337
0.0110337
0.0110337
0.0111266
0.0111265
0.0111266
0.0111264
0.0111264
0.0111265
0.0110333
0.0110333
0.0110334
0.0108619
0.0108619
0.0108619
0.0106211
0.0106211
0.0106211
0.0103242
0.0103242
0.0103242
0.00998706
0.00998705
0.00998708
0.00962118
0.00962117
0.00962121
0.00922855
0.00922854
0.00922857
0.00879996
0.00879995
0.00879999
0.0083157
0.00831569
0.00831573
0.00774637
0.00774636
0.00774639
0.00705096
0.00705095
0.00705099
0.00616931
0.0061693
0.00616933
0.00499972
0.00499971
0.00499973
0.000294979
0.000294978
0.00029498
0.000366069
0.000366068
0.00036607
0.00375275
0.00375275
0.00375276
0.00455302
0.00455301
0.00455303
0.00521143
0.00521142
0.00521144
0.00574426
0.00574425
0.00574428
0.00618399
0.00618399
0.00618401
0.00655853
0.00655852
0.00655855
0.00688967
0.00688966
0.00688968
0.00719264
0.00719263
0.00719265
0.00747475
0.00747474
0.00747476
0.00773467
0.00773466
0.00773469
0.00796369
0.00796368
0.00796371
0.00814956
0.00814955
0.00814957
0.0082819
0.00828189
0.00828192
0.00835371
0.0083537
0.00835372
0.00835362
0.00835361
0.00835363
0.00828164
0.00828163
0.00828166
0.00814917
0.00814916
0.00814919
0.00796322
0.00796321
0.00796324
0.00773415
0.00773414
0.00773417
0.00747415
0.00747414
0.00747416
0.00719202
0.00719201
0.00719204
0.00688906
0.00688905
0.00688908
0.00655794
0.00655793
0.00655796
0.00618344
0.00618343
0.00618346
0.00574375
0.00574374
0.00574377
0.00521097
0.00521096
0.00521098
0.00455262
0.00455261
0.00455263
0.00375242
0.00375242
0.00375244
0.000366022
0.000366022
0.000366024
0.000447242
0.000447241
0.000447244
0.0029531
0.0029531
0.00295311
0.00348472
0.00348472
0.00348473
0.00397727
0.00397727
0.00397729
0.00439176
0.00439175
0.00439177
0.0047386
0.0047386
0.00473862
0.00503506
0.00503505
0.00503507
0.00529696
0.00529695
0.00529697
0.00553612
0.00553611
0.00553613
0.00575849
0.00575849
0.00575851
0.00596325
0.00596324
0.00596326
0.00614366
0.00614365
0.00614367
0.00629013
0.00629013
0.00629015
0.00639448
0.00639447
0.00639449
0.00645112
0.00645111
0.00645113
0.00645105
0.00645104
0.00645106
0.00639428
0.00639427
0.00639429
0.00628983
0.00628983
0.00628985
0.00614329
0.00614328
0.0061433
0.00596284
0.00596283
0.00596285
0.00575802
0.00575802
0.00575804
0.00553564
0.00553563
0.00553565
0.00529648
0.00529647
0.00529649
0.0050346
0.00503459
0.00503461
0.00473817
0.00473817
0.00473818
0.00439136
0.00439136
0.00439137
0.00397692
0.00397691
0.00397693
0.00348441
0.00348441
0.00348442
0.00295284
0.00295283
0.00295284
0.000447187
0.000447186
0.000447189
0.000538999
0.000538998
0.000539001
0.00241058
0.00241057
0.00241059
0.00274478
0.00274478
0.00274479
0.00310861
0.00310861
0.00310862
0.00343247
0.00343247
0.00343248
0.00370967
0.00370967
0.00370968
0.00394838
0.00394838
0.00394839
0.00415937
0.00415937
0.00415939
0.00435167
0.00435166
0.00435168
0.0045301
0.00453009
0.00453011
0.00469419
0.00469419
0.0046942
0.00483872
0.00483871
0.00483873
0.00495607
0.00495607
0.00495608
0.00503969
0.00503969
0.00503971
0.0050851
0.00508509
0.00508511
0.00508504
0.00508504
0.00508505
0.00503953
0.00503953
0.00503955
0.00495583
0.00495583
0.00495584
0.00483843
0.00483842
0.00483844
0.00469387
0.00469386
0.00469388
0.00452973
0.00452972
0.00452974
0.00435128
0.00435128
0.0043513
0.004159
0.00415899
0.00415901
0.00394802
0.00394801
0.00394803
0.00370933
0.00370932
0.00370934
0.00343216
0.00343216
0.00343217
0.00310833
0.00310832
0.00310834
0.00274453
0.00274453
0.00274454
0.00241035
0.00241035
0.00241036
0.000538933
0.000538932
0.000538935
0.000641303
0.000641301
0.000641305
0.00202514
0.00202514
0.00202515
0.00221453
0.00221453
0.00221454
0.00247544
0.00247544
0.00247545
0.00272672
0.00272671
0.00272672
0.0029493
0.0029493
0.00294931
0.00314365
0.00314365
0.00314366
0.00331597
0.00331597
0.00331598
0.00347282
0.00347281
0.00347282
0.00361802
0.00361802
0.00361803
0.00375134
0.00375133
0.00375134
0.00386866
0.00386865
0.00386867
0.0039639
0.0039639
0.00396391
0.00403178
0.00403177
0.00403179
0.00406864
0.00406863
0.00406865
0.00406859
0.00406859
0.0040686
0.00403165
0.00403164
0.00403166
0.00396371
0.0039637
0.00396372
0.00386842
0.00386842
0.00386843
0.00375107
0.00375107
0.00375108
0.00361772
0.00361772
0.00361773
0.00347251
0.0034725
0.00347252
0.00331567
0.00331567
0.00331568
0.00314336
0.00314335
0.00314337
0.00294903
0.00294903
0.00294904
0.00272646
0.00272646
0.00272647
0.00247521
0.00247521
0.00247522
0.00221432
0.00221432
0.00221433
0.00202495
0.00202494
0.00202495
0.000641225
0.000641224
0.000641228
0.00075335
0.000753348
0.000753353
0.00174032
0.00174031
0.00174032
0.00182487
0.00182487
0.00182488
0.00200239
0.00200239
0.0020024
0.00219349
0.00219349
0.0021935
0.00237149
0.00237149
0.0023715
0.00253048
0.00253047
0.00253048
0.00267253
0.00267253
0.00267254
0.00280188
0.00280187
0.00280188
0.00292137
0.00292137
0.00292138
0.00303087
0.00303086
0.00303087
0.00312711
0.00312711
0.00312712
0.0032052
0.0032052
0.00320521
0.00326085
0.00326085
0.00326086
0.00329108
0.00329108
0.00329109
0.00329104
0.00329104
0.00329105
0.00326075
0.00326075
0.00326076
0.00320505
0.00320504
0.00320505
0.00312692
0.00312691
0.00312693
0.00303065
0.00303065
0.00303066
0.00292113
0.00292113
0.00292114
0.00280162
0.00280162
0.00280163
0.00267229
0.00267228
0.00267229
0.00253024
0.00253024
0.00253024
0.00237127
0.00237127
0.00237128
0.00219329
0.00219328
0.00219329
0.00200221
0.0020022
0.00200221
0.00182469
0.00182469
0.0018247
0.00174014
0.00174014
0.00174015
0.000753259
0.000753258
0.000753262
0.00087332
0.000873318
0.000873323
0.00152237
0.00152237
0.00152238
0.00153267
0.00153267
0.00153267
0.00164273
0.00164273
0.00164274
0.00178287
0.00178287
0.00178287
0.00192318
0.00192318
0.00192318
0.00205297
0.00205297
0.00205298
0.00217065
0.00217065
0.00217066
0.00227816
0.00227816
0.00227817
0.00237737
0.00237737
0.00237738
0.00246809
0.00246809
0.0024681
0.00254772
0.00254772
0.00254772
0.00261227
0.00261227
0.00261228
0.00265826
0.00265826
0.00265827
0.00268324
0.00268324
0.00268324
0.00268321
0.0026832
0.00268321
0.00265817
0.00265817
0.00265818
0.00261214
0.00261214
0.00261215
0.00254756
0.00254756
0.00254757
0.00246792
0.00246792
0.00246793
0.00237717
0.00237717
0.00237718
0.00227795
0.00227795
0.00227796
0.00217045
0.00217045
0.00217045
0.00205278
0.00205278
0.00205278
0.00192299
0.00192299
0.001923
0.0017827
0.0017827
0.00178271
0.00164257
0.00164257
0.00164258
0.00153252
0.00153251
0.00153252
0.00152221
0.00152221
0.00152222
0.000873215
0.000873213
0.000873218
0.000998243
0.000998241
0.000998247
0.00135042
0.00135042
0.00135043
0.00130945
0.00130945
0.00130946
0.00136572
0.00136572
0.00136573
0.00146237
0.00146237
0.00146238
0.00156997
0.00156997
0.00156998
0.00167486
0.00167486
0.00167487
0.00177232
0.00177231
0.00177232
0.00186211
0.00186211
0.00186211
0.00194503
0.00194503
0.00194504
0.00202074
0.00202074
0.00202074
0.00208706
0.00208706
0.00208707
0.00214077
0.00214077
0.00214078
0.00217901
0.00217901
0.00217901
0.00219977
0.00219977
0.00219978
0.00219975
0.00219975
0.00219976
0.00217894
0.00217894
0.00217894
0.00214066
0.00214066
0.00214067
0.00208693
0.00208693
0.00208694
0.00202059
0.00202059
0.0020206
0.00194487
0.00194487
0.00194487
0.00186194
0.00186194
0.00186194
0.00177215
0.00177215
0.00177215
0.0016747
0.0016747
0.00167471
0.00156982
0.00156982
0.00156983
0.00146223
0.00146223
0.00146224
0.00136559
0.00136558
0.00136559
0.00130932
0.00130932
0.00130932
0.00135027
0.00135027
0.00135028
0.000998123
0.00099812
0.000998126
0.00112411
0.00112411
0.00112411
0.00121124
0.00121124
0.00121125
0.00113558
0.00113558
0.00113558
0.00115007
0.00115007
0.00115007
0.00120984
0.00120984
0.00120984
0.00128862
0.00128862
0.00128862
0.00137164
0.00137164
0.00137164
0.00145181
0.00145181
0.00145181
0.00152688
0.00152688
0.00152688
0.0015965
0.0015965
0.00159651
0.00166003
0.00166003
0.00166003
0.00171558
0.00171558
0.00171559
0.0017605
0.0017605
0.0017605
0.00179244
0.00179245
0.00179245
0.00180979
0.00180979
0.0018098
0.00180977
0.00180977
0.00180978
0.00179239
0.00179239
0.00179239
0.00176041
0.00176041
0.00176042
0.00171548
0.00171548
0.00171548
0.00165991
0.00165991
0.00165992
0.00159637
0.00159637
0.00159638
0.00152674
0.00152674
0.00152674
0.00145167
0.00145167
0.00145167
0.00137151
0.00137151
0.00137151
0.0012885
0.00128849
0.0012885
0.00120972
0.00120971
0.00120972
0.00114995
0.00114995
0.00114995
0.00113546
0.00113545
0.00113546
0.0012111
0.0012111
0.00121111
0.00112397
0.00112397
0.00112398
0.00124633
0.00124633
0.00124634
0.00109637
0.00109637
0.00109637
0.000997071
0.000997067
0.000997073
0.000980351
0.000980347
0.00098035
0.00100943
0.00100943
0.00100943
0.00106278
0.00106277
0.00106277
0.00112617
0.00112617
0.00112617
0.00119113
0.00119113
0.00119113
0.00125366
0.00125366
0.00125366
0.00131223
0.00131223
0.00131223
0.00136575
0.00136575
0.00136575
0.00141248
0.00141248
0.00141249
0.00145019
0.00145019
0.0014502
0.00147698
0.00147698
0.00147698
0.00149151
0.00149151
0.00149152
0.00149149
0.00149149
0.0014915
0.00147693
0.00147693
0.00147694
0.00145012
0.00145012
0.00145013
0.00141239
0.00141239
0.0014124
0.00136565
0.00136565
0.00136566
0.00131212
0.00131212
0.00131212
0.00125354
0.00125354
0.00125355
0.00119101
0.00119101
0.00119102
0.00112606
0.00112606
0.00112606
0.00106267
0.00106267
0.00106267
0.00100933
0.00100933
0.00100933
0.000980246
0.000980242
0.000980246
0.000996959
0.000996956
0.000996962
0.00109624
0.00109623
0.00109624
0.00124618
0.00124618
0.00124619
0.00136052
0.00136052
0.00136053
0.00100032
0.00100032
0.00100033
0.00088383
0.000883826
0.00088383
0.00084498
0.000844976
0.000844978
0.000849368
0.000849365
0.000849366
0.000880501
0.000880498
0.000880499
0.000926106
0.000926104
0.000926105
0.000977336
0.000977334
0.000977336
0.00102889
0.00102889
0.00102889
0.00107809
0.00107808
0.00107809
0.00112327
0.00112327
0.00112327
0.0011627
0.0011627
0.00116271
0.00119446
0.00119446
0.00119446
0.00121696
0.00121696
0.00121697
0.00122916
0.00122916
0.00122917
0.00122915
0.00122915
0.00122915
0.00121692
0.00121692
0.00121693
0.0011944
0.0011944
0.0011944
0.00116263
0.00116263
0.00116264
0.00112319
0.00112319
0.00112319
0.00107799
0.00107799
0.001078
0.00102879
0.00102879
0.0010288
0.00097724
0.000977239
0.00097724
0.000926013
0.000926011
0.000926012
0.00088041
0.000880407
0.000880407
0.000849277
0.000849273
0.000849274
0.000844885
0.000844882
0.000844884
0.000883727
0.000883724
0.000883728
0.0010002
0.00100019
0.0010002
0.00136036
0.00136035
0.00136036
0.00146344
0.00146344
0.00146345
0.000919507
0.000919503
0.000919509
0.000788567
0.000788563
0.000788566
0.000735049
0.000735045
0.000735046
0.000720509
0.000720504
0.000720505
0.000732758
0.000732753
0.000732754
0.000762286
0.000762282
0.000762283
0.0008009
0.000800898
0.000800898
0.000842584
0.000842583
0.000842584
0.00088364
0.000883639
0.000883641
0.000921773
0.000921772
0.000921775
0.0009551
0.0009551
0.000955103
0.000981874
0.000981875
0.000981878
0.0010008
0.0010008
0.00100081
0.00101105
0.00101105
0.00101105
0.00101103
0.00101104
0.00101104
0.00100077
0.00100077
0.00100078
0.000981826
0.000981827
0.00098183
0.00095504
0.00095504
0.000955043
0.000921706
0.000921705
0.000921708
0.000883566
0.000883565
0.000883566
0.000842506
0.000842504
0.000842505
0.000800821
0.000800818
0.000800819
0.000762207
0.000762203
0.000762204
0.000732678
0.000732674
0.000732675
0.000720427
0.000720423
0.000720423
0.000734964
0.000734959
0.00073496
0.000788472
0.000788469
0.000788471
0.000919386
0.000919383
0.000919389
0.00146326
0.00146325
0.00146326
0.00155372
0.00155371
0.00155372
0.000851535
0.000851531
0.000851536
0.000706159
0.000706156
0.000706157
0.000643644
0.000643639
0.00064364
0.000615564
0.000615558
0.000615559
0.00061242
0.000612415
0.000612415
0.000627689
0.000627684
0.000627685
0.000654646
0.000654643
0.000654643
0.000687246
0.000687243
0.000687244
0.000721047
0.000721045
0.000721046
0.000753095
0.000753094
0.000753095
0.000781242
0.000781242
0.000781243
0.000803818
0.000803817
0.00080382
0.000819726
0.000819726
0.000819729
0.000828314
0.000828314
0.000828317
0.000828305
0.000828305
0.000828308
0.0008197
0.0008197
0.000819703
0.000803778
0.000803778
0.00080378
0.000781193
0.000781193
0.000781195
0.00075304
0.000753038
0.00075304
0.000720987
0.000720985
0.000720986
0.000687181
0.000687178
0.000687179
0.00065458
0.000654576
0.000654576
0.000627621
0.000627617
0.000627617
0.000612351
0.000612345
0.000612346
0.000615491
0.000615486
0.000615486
0.000643565
0.00064356
0.000643561
0.000706071
0.000706067
0.000706069
0.000851419
0.000851415
0.000851421
0.00155352
0.00155352
0.00155353
0.0016321
0.0016321
0.00163211
0.000794868
0.000794863
0.000794868
0.000633224
0.000633219
0.00063322
0.000565457
0.000565451
0.000565451
0.000528611
0.000528605
0.000528605
0.000513679
0.000513673
0.000513673
0.000516752
0.000516746
0.000516747
0.000533047
0.000533042
0.000533043
0.000557164
0.00055716
0.00055716
0.000584325
0.000584322
0.000584322
0.000610991
0.000610989
0.00061099
0.000634669
0.000634667
0.000634668
0.000653656
0.000653655
0.000653657
0.000666987
0.000666986
0.000666988
0.000674161
0.00067416
0.000674162
0.000674153
0.000674153
0.000674155
0.000666966
0.000666965
0.000666967
0.000653624
0.000653623
0.000653624
0.000634629
0.000634627
0.000634628
0.000610946
0.000610943
0.000610944
0.000584277
0.000584273
0.000584274
0.000557111
0.000557106
0.000557107
0.000532992
0.000532987
0.000532987
0.000516694
0.000516689
0.000516689
0.000513618
0.000513612
0.000513612
0.000528545
0.000528539
0.000528539
0.000565384
0.000565378
0.000565379
0.000633141
0.000633137
0.000633138
0.000794756
0.000794752
0.000794757
0.00163189
0.00163189
0.0016319
0.00170098
0.00170098
0.00170099
0.000748626
0.000748621
0.000748625
0.000567787
0.000567781
0.000567782
0.000496578
0.000496572
0.000496572
0.000454844
0.000454837
0.000454837
0.000431683
0.000431676
0.000431676
0.000424914
0.000424907
0.000424907
0.000431742
0.000431736
0.000431736
0.000447937
0.000447931
0.000447931
0.000468879
0.000468875
0.000468875
0.000490646
0.000490642
0.000490642
0.000510375
0.000510371
0.000510372
0.000526243
0.00052624
0.000526241
0.000537344
0.000537341
0.000537342
0.000543296
0.000543293
0.000543295
0.000543289
0.000543287
0.000543288
0.000537326
0.000537324
0.000537325
0.000526217
0.000526214
0.000526215
0.000510342
0.000510339
0.000510339
0.000490609
0.000490605
0.000490605
0.000468841
0.000468836
0.000468836
0.000447894
0.000447888
0.000447888
0.000431696
0.00043169
0.00043169
0.000424864
0.000424857
0.000424857
0.000431629
0.000431621
0.000431622
0.000454784
0.000454777
0.000454777
0.000496511
0.000496505
0.000496505
0.00056771
0.000567705
0.000567706
0.000748519
0.000748513
0.000748518
0.00170076
0.00170076
0.00170077
0.00176344
0.00176344
0.00176345
0.000712456
0.000712451
0.000712454
0.000508977
0.000508971
0.000508972
0.000434365
0.000434358
0.000434358
0.000390474
0.000390467
0.000390467
0.000362367
0.000362359
0.000362359
0.00034834
0.000348332
0.000348332
0.000347209
0.000347201
0.000347201
0.000356152
0.000356144
0.000356144
0.000371195
0.000371188
0.000371188
0.000388358
0.000388352
0.000388352
0.000404484
0.000404479
0.000404479
0.000417575
0.00041757
0.000417571
0.000426714
0.00042671
0.00042671
0.000431594
0.00043159
0.000431591
0.000431589
0.000431585
0.000431586
0.0004267
0.000426696
0.000426696
0.000417554
0.000417549
0.00041755
0.000404458
0.000404453
0.000404453
0.000388328
0.000388322
0.000388322
0.000371165
0.000371158
0.000371158
0.000356117
0.00035611
0.00035611
0.000347171
0.000347163
0.000347163
0.000348297
0.000348289
0.000348289
0.000362318
0.00036231
0.00036231
0.000390419
0.000390412
0.000390412
0.000434303
0.000434296
0.000434297
0.000508906
0.0005089
0.000508901
0.000712352
0.000712346
0.00071235
0.00176321
0.0017632
0.00176321
0.00182218
0.00182217
0.00182218
0.000686346
0.000686341
0.000686343
0.0004567
0.000456694
0.000456695
0.000377307
0.0003773
0.0003773
0.000332727
0.000332719
0.000332719
0.00030243
0.000302422
0.000302422
0.000283818
0.000283809
0.000283809
0.000276576
0.000276567
0.000276567
0.00027918
0.000279171
0.000279171
0.000288649
0.00028864
0.00028864
0.000301366
0.000301357
0.000301357
0.000314075
0.000314068
0.000314068
0.000324609
0.000324602
0.000324602
0.000331979
0.000331972
0.000331972
0.000335903
0.000335897
0.000335897
0.000335899
0.000335893
0.000335893
0.000331968
0.000331962
0.000331962
0.000324593
0.000324586
0.000324586
0.000314055
0.000314047
0.000314047
0.000301341
0.000301333
0.000301333
0.000288628
0.000288619
0.000288619
0.000279153
0.000279143
0.000279143
0.000276544
0.000276535
0.000276535
0.000283781
0.000283772
0.000283772
0.000302387
0.000302379
0.000302379
0.000332677
0.000332669
0.000332669
0.00037725
0.000377243
0.000377244
0.000456633
0.000456627
0.000456628
0.000686244
0.000686239
0.000686242
0.00182194
0.00182193
0.00182194
0.00187866
0.00187865
0.00187866
0.000670379
0.000670375
0.000670377
0.000411315
0.00041131
0.000411311
0.000324873
0.000324866
0.000324866
0.000279892
0.000279884
0.000279884
0.000249452
0.000249443
0.000249443
0.000228809
0.000228799
0.0002288
0.000217575
0.000217565
0.000217565
0.000215083
0.000215073
0.000215073
0.000219442
0.000219431
0.000219431
0.000227798
0.000227787
0.000227787
0.000237135
0.000237125
0.000237125
0.000245214
0.000245205
0.000245205
0.00025094
0.000250931
0.000250931
0.000253994
0.000253985
0.000253985
0.000253991
0.000253982
0.000253982
0.000250932
0.000250923
0.000250923
0.000245202
0.000245192
0.000245192
0.00023712
0.00023711
0.00023711
0.000227779
0.000227768
0.000227768
0.000219427
0.000219417
0.000219417
0.000215063
0.000215052
0.000215052
0.00021755
0.00021754
0.000217539
0.000228778
0.000228768
0.000228768
0.000249414
0.000249405
0.000249405
0.000279847
0.000279839
0.000279839
0.000324821
0.000324814
0.000324815
0.000411254
0.000411248
0.000411249
0.000670281
0.000670276
0.000670279
0.00187842
0.00187841
0.00187842
0.00193272
0.00193271
0.00193271
0.000664411
0.000664407
0.000664409
0.0003734
0.000373395
0.000373396
0.000277357
0.000277351
0.000277351
0.000231428
0.000231421
0.000231421
0.000202134
0.000202125
0.000202125
0.000181681
0.000181671
0.000181671
0.000168663
0.000168653
0.000168653
0.000162636
0.000162625
0.000162625
0.000162608
0.000162597
0.000162597
0.000166749
0.000166737
0.000166737
0.00017268
0.000172668
0.000172668
0.000178315
0.000178303
0.000178303
0.000182466
0.000182455
0.000182454
0.000184713
0.000184701
0.000184701
0.000184711
0.000184699
0.000184699
0.00018246
0.000182449
0.000182449
0.000178306
0.000178295
0.000178294
0.000172669
0.000172657
0.000172657
0.000166735
0.000166723
0.000166723
0.0001626
0.000162588
0.000162588
0.000162622
0.00016261
0.00016261
0.000168644
0.000168633
0.000168633
0.000181655
0.000181645
0.000181645
0.000202101
0.000202092
0.000202093
0.000231389
0.000231382
0.000231382
0.000277311
0.000277304
0.000277305
0.000373343
0.000373338
0.000373339
0.000664316
0.000664311
0.000664314
0.00193247
0.00193246
0.00193247
0.00198235
0.00198234
0.00198234
0.000667525
0.000667521
0.000667523
0.00034363
0.000343626
0.000343626
0.000235883
0.000235878
0.000235878
0.00018819
0.000188184
0.000188184
0.000160701
0.000160693
0.000160693
0.000142101
0.000142092
0.000142092
0.000129281
0.000129271
0.000129271
0.00012142
0.000121409
0.000121409
0.000118064
0.000118052
0.000118052
0.000118398
0.000118386
0.000118385
0.000120989
0.000120976
0.000120976
0.0001242
0.000124188
0.000124187
0.000126842
0.000126829
0.000126829
0.000128345
0.000128332
0.000128332
0.000128344
0.000128331
0.000128331
0.000126838
0.000126825
0.000126825
0.000124195
0.000124183
0.000124182
0.000120982
0.00012097
0.00012097
0.000118389
0.000118376
0.000118376
0.000118061
0.000118049
0.000118049
0.000121411
0.0001214
0.0001214
0.000129267
0.000129257
0.000129257
0.00014208
0.000142071
0.000142071
0.000160674
0.000160666
0.000160666
0.000188156
0.00018815
0.00018815
0.000235842
0.000235836
0.000235837
0.000343577
0.000343573
0.000343574
0.000667433
0.000667429
0.000667432
0.0019821
0.00198209
0.00198209
0.00202356
0.00202355
0.00202355
0.000676959
0.000676956
0.000676957
0.000322767
0.000322764
0.000322764
0.000202785
0.000202781
0.000202781
0.000152908
0.000152903
0.000152903
0.00012741
0.000127403
0.000127403
0.00011148
0.000111472
0.000111472
0.000100136
0.000100127
0.000100127
9.18911e-05
9.18808e-05
9.18807e-05
8.64976e-05
8.64864e-05
8.64864e-05
8.39125e-05
8.39005e-05
8.39004e-05
8.36536e-05
8.36409e-05
8.36409e-05
8.47196e-05
8.47066e-05
8.47065e-05
8.60436e-05
8.60303e-05
8.60303e-05
8.69205e-05
8.69072e-05
8.69071e-05
8.69197e-05
8.69064e-05
8.69063e-05
8.60415e-05
8.60282e-05
8.60283e-05
8.47169e-05
8.47042e-05
8.47039e-05
8.36507e-05
8.3638e-05
8.3638e-05
8.39068e-05
8.38949e-05
8.38947e-05
8.64978e-05
8.64865e-05
8.64865e-05
9.1886e-05
9.18757e-05
9.18756e-05
0.000100126
0.000100117
0.000100117
0.000111465
0.000111457
0.000111457
0.000127388
0.000127381
0.000127381
0.000152879
0.000152874
0.000152874
0.000202748
0.000202744
0.000202744
0.000322718
0.000322716
0.000322716
0.00067687
0.000676867
0.000676869
0.00202332
0.00202331
0.00202331
0.00204959
0.00204958
0.00204958
0.000686492
0.000686489
0.000686491
0.000311649
0.000311648
0.000311648
0.000182514
0.000182511
0.000182511
0.000130953
0.000130948
0.000130948
0.000106985
0.000106979
0.000106979
9.32324e-05
9.3225e-05
9.32249e-05
8.33839e-05
8.33754e-05
8.33753e-05
7.5438e-05
7.54286e-05
7.54284e-05
6.91897e-05
6.91793e-05
6.91792e-05
6.50155e-05
6.50041e-05
6.50041e-05
6.30425e-05
6.30304e-05
6.30304e-05
6.27591e-05
6.27466e-05
6.27465e-05
6.3251e-05
6.32381e-05
6.32381e-05
6.37387e-05
6.37257e-05
6.37256e-05
6.37382e-05
6.37253e-05
6.37252e-05
6.32499e-05
6.3237e-05
6.3237e-05
6.2758e-05
6.27456e-05
6.27454e-05
6.30416e-05
6.30294e-05
6.30295e-05
6.5012e-05
6.50008e-05
6.50006e-05
6.91918e-05
6.91813e-05
6.91812e-05
7.54353e-05
7.54258e-05
7.54257e-05
8.33768e-05
8.33683e-05
8.33682e-05
9.322e-05
9.32125e-05
9.32126e-05
0.000106967
0.000106961
0.000106961
0.000130927
0.000130923
0.000130923
0.00018248
0.000182477
0.000182478
0.000311604
0.000311603
0.000311603
0.000686406
0.000686403
0.000686405
0.00204935
0.00204934
0.00204934
)
;

boundaryField
{
    freeSurface
    {
        type            slip;
    }
    inlet
    {
        type            cyclic;
    }
    outlet
    {
        type            cyclic;
    }
    sidewalls
    {
        type            epsilonWallFunction;
        Cmu             0.09;
        kappa           0.41;
        E               9.8;
        value           nonuniform List<scalar> 
144
(
0.00175659
0.00023337
0.000295017
0.000366069
0.000447242
0.000538999
0.000641303
0.00075335
0.00087332
0.000998243
0.00112411
0.00124633
0.00136052
0.00146344
0.00155372
0.0016321
0.00170098
0.00176344
0.00182218
0.00187866
0.00193272
0.00198235
0.00202356
0.00204959
0.00175658
0.000233369
0.000295017
0.000366068
0.000447241
0.000538998
0.000641301
0.000753348
0.000873318
0.000998241
0.00112411
0.00124633
0.00136052
0.00146344
0.00155371
0.0016321
0.00170098
0.00176344
0.00182217
0.00187865
0.00193271
0.00198234
0.00202355
0.00204958
0.00175659
0.000233371
0.000295018
0.00036607
0.000447244
0.000539001
0.000641305
0.000753353
0.000873323
0.000998247
0.00112411
0.00124634
0.00136053
0.00146345
0.00155372
0.00163211
0.00170099
0.00176345
0.00182218
0.00187866
0.00193271
0.00198234
0.00202355
0.00204958
0.0017564
0.000233338
0.000294979
0.000366022
0.000447187
0.000538933
0.000641225
0.000753259
0.000873215
0.000998123
0.00112397
0.00124618
0.00136036
0.00146326
0.00155352
0.00163189
0.00170076
0.00176321
0.00182194
0.00187842
0.00193247
0.0019821
0.00202332
0.00204935
0.0017564
0.000233338
0.000294978
0.000366022
0.000447186
0.000538932
0.000641224
0.000753258
0.000873213
0.00099812
0.00112397
0.00124618
0.00136035
0.00146325
0.00155352
0.00163189
0.00170076
0.0017632
0.00182193
0.00187841
0.00193246
0.00198209
0.00202331
0.00204934
0.00175641
0.000233339
0.00029498
0.000366024
0.000447189
0.000538935
0.000641228
0.000753262
0.000873218
0.000998126
0.00112398
0.00124619
0.00136036
0.00146326
0.00155353
0.0016319
0.00170077
0.00176321
0.00182194
0.00187842
0.00193247
0.00198209
0.00202331
0.00204934
)
;
    }
    noSlipWalls
    {
        type            epsilonWallFunction;
        Cmu             0.09;
        kappa           0.41;
        E               9.8;
        value           nonuniform List<scalar> 
90
(
0.00175659
0.00818085
0.00979054
0.01099
0.0119676
0.0127929
0.0135132
0.0141634
0.0147674
0.015335
0.0158604
0.0163241
0.0167005
0.0169684
0.0171137
0.0171135
0.0169679
0.0166997
0.0163232
0.0158593
0.0153338
0.0147662
0.0141622
0.013512
0.0127918
0.0119666
0.010989
0.00978966
0.00818014
0.0017564
0.00175658
0.00818085
0.00979053
0.01099
0.0119676
0.0127929
0.0135132
0.0141634
0.0147674
0.015335
0.0158604
0.0163241
0.0167005
0.0169684
0.0171137
0.0171135
0.0169679
0.0166997
0.0163232
0.0158593
0.0153338
0.0147662
0.0141622
0.013512
0.0127918
0.0119665
0.010989
0.00978965
0.00818013
0.0017564
0.00175659
0.00818089
0.00979059
0.0109901
0.0119677
0.012793
0.0135133
0.0141635
0.0147674
0.015335
0.0158604
0.0163241
0.0167005
0.0169684
0.0171137
0.0171135
0.0169679
0.0166998
0.0163232
0.0158594
0.0153338
0.0147662
0.0141623
0.0135121
0.0127919
0.0119666
0.0109891
0.00978971
0.00818018
0.00175641
)
;
    }
}


// ************************************************************************* //
