/*--------------------------------*- C++ -*----------------------------------*\
  =========                 |
  \\      /  F ield         | OpenFOAM: The Open Source CFD Toolbox
   \\    /   O peration     | Website:  https://openfoam.org
    \\  /    A nd           | Version:  6
     \\/     M anipulation  |
\*---------------------------------------------------------------------------*/
FoamFile
{
    version     2.0;
    format      ascii;
    class       volScalarField;
    location    "100";
    object      k;
}
// * * * * * * * * * * * * * * * * * * * * * * * * * * * * * * * * * * * * * //

dimensions      [0 2 -2 0 0 0 0];

internalField   nonuniform List<scalar> 
2160
(
0.000159893
0.000159893
0.000159893
0.000387743
0.000387743
0.000387745
0.000464038
0.000464038
0.000464041
0.000520891
0.000520891
0.000520894
0.000567228
0.000567227
0.00056723
0.000606346
0.000606346
0.000606349
0.000640486
0.000640485
0.000640488
0.000671305
0.000671305
0.000671308
0.000699933
0.000699932
0.000699935
0.000726837
0.000726837
0.000726839
0.00075174
0.00075174
0.000751743
0.000773721
0.000773721
0.000773723
0.000791562
0.000791562
0.000791565
0.000804261
0.00080426
0.000804263
0.000811149
0.000811149
0.000811152
0.000811141
0.000811141
0.000811143
0.000804237
0.000804237
0.00080424
0.000791527
0.000791527
0.000791529
0.000773678
0.000773677
0.00077368
0.000751692
0.000751692
0.000751695
0.000726781
0.000726781
0.000726783
0.000699875
0.000699875
0.000699877
0.000671248
0.000671247
0.00067125
0.000640429
0.000640429
0.000640432
0.000606293
0.000606292
0.000606295
0.000567177
0.000567177
0.00056718
0.000520845
0.000520844
0.000520847
0.000463997
0.000463997
0.000463999
0.000387709
0.000387709
0.000387711
0.000159876
0.000159876
0.000159877
0.000225127
0.000225126
0.000225127
0.000896766
0.000896766
0.00089677
0.0010307
0.0010307
0.00103071
0.00112504
0.00112504
0.00112504
0.00119882
0.00119882
0.00119883
0.00125931
0.00125931
0.00125932
0.00131095
0.00131095
0.00131095
0.00135676
0.00135676
0.00135676
0.00139872
0.00139872
0.00139872
0.00143771
0.00143771
0.00143771
0.00147346
0.00147345
0.00147346
0.00150476
0.00150476
0.00150476
0.00153001
0.00153001
0.00153002
0.0015479
0.0015479
0.00154791
0.00155758
0.00155758
0.00155758
0.00155757
0.00155757
0.00155757
0.00154787
0.00154787
0.00154787
0.00152996
0.00152996
0.00152997
0.0015047
0.0015047
0.0015047
0.00147339
0.00147339
0.00147339
0.00143763
0.00143763
0.00143763
0.00139863
0.00139863
0.00139864
0.00135667
0.00135667
0.00135667
0.00131086
0.00131086
0.00131087
0.00125923
0.00125923
0.00125924
0.00119875
0.00119875
0.00119875
0.00112497
0.00112496
0.00112497
0.00103064
0.00103063
0.00103064
0.00089671
0.00089671
0.000896713
0.000225106
0.000225106
0.000225107
0.000263206
0.000263206
0.000263207
0.000976693
0.000976693
0.000976697
0.00110529
0.00110529
0.00110529
0.00120157
0.00120157
0.00120157
0.0012788
0.0012788
0.00127881
0.00134296
0.00134296
0.00134296
0.00139815
0.00139815
0.00139816
0.00144736
0.00144736
0.00144737
0.00149258
0.00149258
0.00149258
0.00153466
0.00153466
0.00153467
0.0015733
0.0015733
0.0015733
0.00160715
0.00160715
0.00160715
0.00163447
0.00163447
0.00163447
0.00165383
0.00165383
0.00165383
0.0016643
0.0016643
0.0016643
0.00166429
0.00166429
0.00166429
0.00165379
0.00165379
0.0016538
0.00163441
0.00163441
0.00163442
0.00160708
0.00160708
0.00160709
0.00157322
0.00157322
0.00157323
0.00153458
0.00153458
0.00153458
0.00149249
0.00149249
0.00149249
0.00144727
0.00144727
0.00144727
0.00139806
0.00139806
0.00139807
0.00134287
0.00134287
0.00134288
0.00127872
0.00127872
0.00127872
0.00120149
0.00120149
0.00120149
0.00110522
0.00110522
0.00110522
0.000976631
0.000976631
0.000976635
0.000263183
0.000263183
0.000263184
0.000303929
0.000303929
0.00030393
0.00102014
0.00102014
0.00102015
0.00113596
0.00113595
0.00113596
0.00122872
0.00122872
0.00122872
0.00130538
0.00130538
0.00130538
0.00137007
0.00137007
0.00137008
0.00142625
0.00142625
0.00142626
0.00147664
0.00147664
0.00147664
0.00152309
0.00152309
0.0015231
0.00156643
0.00156642
0.00156643
0.00160625
0.00160625
0.00160625
0.00164116
0.00164116
0.00164117
0.00166935
0.00166935
0.00166935
0.00168933
0.00168933
0.00168933
0.00170014
0.00170014
0.00170014
0.00170013
0.00170013
0.00170013
0.00168929
0.00168929
0.0016893
0.00166929
0.00166929
0.0016693
0.00164109
0.00164109
0.0016411
0.00160617
0.00160617
0.00160617
0.00156634
0.00156634
0.00156634
0.001523
0.001523
0.001523
0.00147654
0.00147654
0.00147655
0.00142616
0.00142616
0.00142617
0.00136998
0.00136998
0.00136999
0.00130529
0.00130529
0.0013053
0.00122864
0.00122864
0.00122864
0.00113588
0.00113588
0.00113588
0.00102007
0.00102007
0.00102008
0.000303904
0.000303903
0.000303904
0.000347344
0.000347343
0.000347345
0.00105274
0.00105274
0.00105274
0.00115311
0.00115311
0.00115312
0.00123937
0.00123937
0.00123937
0.00131333
0.00131333
0.00131334
0.00137706
0.00137706
0.00137707
0.00143312
0.00143312
0.00143312
0.00148378
0.00148378
0.00148378
0.00153071
0.00153071
0.00153071
0.00157459
0.00157459
0.0015746
0.00161498
0.00161498
0.00161498
0.00165042
0.00165042
0.00165042
0.00167903
0.00167903
0.00167904
0.00169932
0.00169932
0.00169933
0.0017103
0.0017103
0.0017103
0.00171029
0.00171029
0.00171029
0.00169929
0.00169929
0.00169929
0.00167898
0.00167898
0.00167898
0.00165035
0.00165035
0.00165035
0.0016149
0.0016149
0.00161491
0.00157451
0.00157451
0.00157451
0.00153061
0.00153061
0.00153062
0.00148368
0.00148368
0.00148369
0.00143302
0.00143302
0.00143303
0.00137697
0.00137697
0.00137698
0.00131324
0.00131324
0.00131325
0.00123928
0.00123928
0.00123929
0.00115303
0.00115303
0.00115304
0.00105267
0.00105267
0.00105267
0.000347315
0.000347315
0.000347316
0.000393359
0.000393359
0.00039336
0.00108069
0.00108069
0.00108069
0.00116543
0.00116543
0.00116543
0.001243
0.001243
0.001243
0.00131256
0.00131256
0.00131257
0.0013742
0.0013742
0.0013742
0.00142935
0.00142935
0.00142936
0.00147975
0.00147975
0.00147976
0.00152674
0.00152674
0.00152674
0.00157083
0.00157083
0.00157083
0.00161148
0.00161148
0.00161149
0.00164718
0.00164718
0.00164718
0.00167602
0.00167602
0.00167602
0.00169646
0.00169646
0.00169647
0.00170753
0.00170753
0.00170753
0.00170751
0.00170751
0.00170752
0.00169643
0.00169643
0.00169643
0.00167596
0.00167596
0.00167597
0.00164711
0.00164711
0.00164712
0.00161141
0.00161141
0.00161141
0.00157074
0.00157074
0.00157075
0.00152664
0.00152664
0.00152665
0.00147966
0.00147966
0.00147966
0.00142926
0.00142926
0.00142927
0.0013741
0.0013741
0.00137411
0.00131248
0.00131248
0.00131248
0.00124291
0.00124291
0.00124292
0.00116535
0.00116535
0.00116535
0.00108061
0.00108061
0.00108062
0.000393327
0.000393327
0.000393328
0.000441678
0.000441678
0.000441679
0.00110539
0.00110539
0.0011054
0.00117619
0.00117619
0.00117619
0.00124345
0.00124345
0.00124346
0.00130701
0.00130701
0.00130702
0.00136542
0.00136542
0.00136542
0.00141897
0.00141897
0.00141897
0.00146865
0.00146865
0.00146865
0.00151538
0.00151538
0.00151538
0.00155946
0.00155946
0.00155946
0.00160019
0.00160019
0.0016002
0.001636
0.001636
0.00163601
0.00166494
0.00166494
0.00166495
0.00168546
0.00168546
0.00168546
0.00169656
0.00169656
0.00169657
0.00169655
0.00169655
0.00169656
0.00168542
0.00168542
0.00168543
0.00166489
0.00166489
0.00166489
0.00163594
0.00163594
0.00163594
0.00160012
0.00160012
0.00160012
0.00155937
0.00155937
0.00155937
0.00151529
0.00151529
0.00151529
0.00146855
0.00146855
0.00146856
0.00141888
0.00141888
0.00141888
0.00136533
0.00136533
0.00136533
0.00130692
0.00130692
0.00130693
0.00124337
0.00124337
0.00124337
0.00117611
0.00117611
0.00117611
0.00110532
0.00110532
0.00110532
0.000441643
0.000441642
0.000441644
0.000491732
0.000491731
0.000491733
0.00112656
0.00112656
0.00112657
0.00118664
0.00118664
0.00118665
0.00124262
0.00124262
0.00124263
0.00129861
0.00129861
0.00129862
0.00135257
0.00135257
0.00135258
0.00140372
0.00140372
0.00140372
0.0014522
0.0014522
0.0014522
0.00149839
0.00149839
0.0014984
0.00154227
0.00154227
0.00154227
0.00158295
0.00158295
0.00158296
0.00161877
0.00161877
0.00161878
0.00164773
0.00164773
0.00164773
0.00166826
0.00166826
0.00166827
0.00167938
0.00167938
0.00167938
0.00167936
0.00167936
0.00167937
0.00166823
0.00166823
0.00166823
0.00164768
0.00164768
0.00164768
0.00161871
0.00161871
0.00161871
0.00158288
0.00158288
0.00158288
0.00154218
0.00154218
0.00154218
0.0014983
0.0014983
0.0014983
0.0014521
0.0014521
0.00145211
0.00140363
0.00140363
0.00140363
0.00135248
0.00135248
0.00135249
0.00129852
0.00129852
0.00129853
0.00124254
0.00124254
0.00124254
0.00118655
0.00118655
0.00118656
0.00112648
0.00112648
0.00112649
0.000491692
0.000491692
0.000491694
0.000542641
0.00054264
0.000542642
0.00114319
0.00114319
0.0011432
0.00119695
0.00119695
0.00119695
0.00124148
0.00124148
0.00124149
0.00128846
0.00128846
0.00128847
0.00133663
0.00133663
0.00133664
0.00138445
0.00138445
0.00138445
0.00143116
0.00143116
0.00143117
0.00147649
0.00147649
0.00147649
0.00151997
0.00151997
0.00151998
0.00156049
0.00156049
0.00156049
0.00159623
0.00159623
0.00159624
0.00162515
0.00162515
0.00162515
0.00164565
0.00164565
0.00164565
0.00165674
0.00165674
0.00165675
0.00165673
0.00165673
0.00165674
0.00164561
0.00164561
0.00164562
0.00162509
0.00162509
0.0016251
0.00159617
0.00159617
0.00159617
0.00156042
0.00156042
0.00156042
0.00151989
0.00151989
0.00151989
0.0014764
0.0014764
0.00147641
0.00143107
0.00143107
0.00143107
0.00138436
0.00138436
0.00138436
0.00133654
0.00133654
0.00133655
0.00128837
0.00128837
0.00128838
0.00124139
0.00124139
0.00124139
0.00119686
0.00119686
0.00119686
0.00114311
0.00114311
0.00114311
0.000542597
0.000542597
0.000542599
0.000593227
0.000593226
0.000593229
0.00115408
0.00115408
0.00115409
0.00120655
0.00120655
0.00120656
0.0012404
0.0012404
0.0012404
0.00127724
0.00127724
0.00127725
0.00131821
0.00131821
0.00131822
0.00136159
0.00136159
0.00136159
0.00140583
0.00140583
0.00140584
0.00144989
0.00144989
0.0014499
0.00149276
0.00149276
0.00149276
0.00153298
0.00153298
0.00153298
0.00156856
0.00156856
0.00156857
0.00159737
0.00159737
0.00159738
0.0016178
0.0016178
0.0016178
0.00162885
0.00162885
0.00162886
0.00162884
0.00162884
0.00162885
0.00161776
0.00161776
0.00161777
0.00159732
0.00159732
0.00159733
0.0015685
0.0015685
0.00156851
0.00153291
0.00153291
0.00153291
0.00149267
0.00149267
0.00149268
0.00144981
0.00144981
0.00144981
0.00140574
0.00140574
0.00140575
0.0013615
0.0013615
0.0013615
0.00131812
0.00131812
0.00131813
0.00127715
0.00127715
0.00127716
0.0012403
0.0012403
0.00124031
0.00120646
0.00120646
0.00120646
0.00115399
0.00115399
0.001154
0.000593179
0.000593178
0.000593181
0.0006421
0.000642099
0.000642102
0.0011581
0.0011581
0.00115811
0.00121431
0.00121431
0.00121431
0.00123925
0.00123925
0.00123926
0.00126534
0.00126534
0.00126535
0.00129771
0.00129771
0.00129771
0.00133537
0.00133537
0.00133538
0.00137627
0.00137627
0.00137628
0.00141855
0.00141855
0.00141855
0.00146051
0.00146052
0.00146052
0.00150028
0.00150028
0.00150029
0.00153561
0.00153561
0.00153562
0.00156425
0.00156425
0.00156426
0.00158455
0.00158455
0.00158456
0.00159554
0.00159554
0.00159555
0.00159553
0.00159553
0.00159553
0.00158452
0.00158452
0.00158453
0.0015642
0.0015642
0.00156421
0.00153555
0.00153555
0.00153556
0.00150021
0.00150021
0.00150022
0.00146043
0.00146043
0.00146044
0.00141846
0.00141846
0.00141847
0.00137618
0.00137618
0.00137619
0.00133528
0.00133528
0.00133529
0.00129762
0.00129762
0.00129762
0.00126525
0.00126525
0.00126526
0.00123915
0.00123915
0.00123916
0.00121421
0.00121421
0.00121422
0.00115801
0.00115801
0.00115802
0.000642048
0.000642047
0.00064205
0.000687838
0.000687836
0.000687839
0.00115445
0.00115445
0.00115446
0.00121863
0.00121863
0.00121864
0.00123738
0.00123738
0.00123739
0.00125282
0.00125282
0.00125282
0.00127538
0.00127538
0.00127538
0.00130593
0.00130593
0.00130594
0.00134242
0.00134242
0.00134243
0.00138225
0.00138225
0.00138225
0.00142294
0.00142294
0.00142295
0.00146205
0.00146205
0.00146206
0.00149701
0.00149701
0.00149702
0.0015254
0.0015254
0.00152541
0.00154553
0.00154553
0.00154553
0.00155642
0.00155642
0.00155642
0.0015564
0.00155641
0.00155641
0.00154549
0.0015455
0.0015455
0.00152535
0.00152535
0.00152536
0.00149695
0.00149695
0.00149696
0.00146199
0.00146199
0.00146199
0.00142286
0.00142286
0.00142287
0.00138216
0.00138216
0.00138217
0.00134233
0.00134233
0.00134234
0.00130584
0.00130584
0.00130585
0.00127528
0.00127528
0.00127529
0.00125272
0.00125272
0.00125273
0.00123728
0.00123728
0.00123729
0.00121853
0.00121853
0.00121854
0.00115436
0.00115436
0.00115437
0.000687781
0.00068778
0.000687783
0.000729235
0.000729233
0.000729236
0.00114278
0.00114278
0.00114279
0.00121765
0.00121765
0.00121766
0.0012336
0.0012336
0.00123361
0.00123934
0.00123934
0.00123935
0.0012513
0.0012513
0.00125131
0.00127334
0.00127334
0.00127335
0.00130416
0.00130416
0.00130416
0.00134068
0.00134068
0.00134068
0.0013796
0.00137961
0.00137961
0.0014178
0.0014178
0.0014178
0.00145223
0.00145223
0.00145224
0.00148027
0.00148027
0.00148028
0.00150016
0.00150016
0.00150016
0.00151091
0.00151091
0.00151092
0.0015109
0.0015109
0.00151091
0.00150013
0.00150013
0.00150013
0.00148022
0.00148022
0.00148023
0.00145217
0.00145217
0.00145218
0.00141773
0.00141773
0.00141774
0.00137953
0.00137953
0.00137953
0.00134059
0.00134059
0.0013406
0.00130407
0.00130407
0.00130408
0.00127325
0.00127325
0.00127326
0.0012512
0.0012512
0.00125121
0.00123924
0.00123924
0.00123925
0.0012335
0.0012335
0.00123351
0.00121755
0.00121755
0.00121756
0.00114269
0.00114269
0.0011427
0.000729174
0.000729173
0.000729176
0.000765561
0.000765559
0.000765562
0.00112333
0.00112333
0.00112334
0.00120944
0.00120943
0.00120945
0.00122619
0.00122619
0.0012262
0.00122412
0.00122412
0.00122413
0.00122532
0.00122532
0.00122533
0.00123759
0.00123759
0.0012376
0.00126133
0.00126133
0.00126134
0.00129349
0.00129349
0.00129349
0.00132999
0.00132999
0.00133
0.00136689
0.00136689
0.0013669
0.0014006
0.0014006
0.00140061
0.00142816
0.00142816
0.00142817
0.00144773
0.00144773
0.00144773
0.0014583
0.0014583
0.00145831
0.00145829
0.00145829
0.0014583
0.0014477
0.0014477
0.00144771
0.00142812
0.00142812
0.00142813
0.00140054
0.00140054
0.00140055
0.00136683
0.00136683
0.00136684
0.00132992
0.00132992
0.00132993
0.00129341
0.00129341
0.00129341
0.00126125
0.00126125
0.00126126
0.0012375
0.0012375
0.00123751
0.00122522
0.00122522
0.00122523
0.00122402
0.00122402
0.00122403
0.00122609
0.00122609
0.0012261
0.00120933
0.00120933
0.00120934
0.00112323
0.00112323
0.00112324
0.000765496
0.000765495
0.000765498
0.00079673
0.000796728
0.000796732
0.00109693
0.00109693
0.00109694
0.00119225
0.00119225
0.00119226
0.00121301
0.00121301
0.00121302
0.00120579
0.00120579
0.0012058
0.0011969
0.0011969
0.00119691
0.00119855
0.00119855
0.00119856
0.0012138
0.0012138
0.00121381
0.00124032
0.00124032
0.00124033
0.00127355
0.00127355
0.00127355
0.00130865
0.00130865
0.00130866
0.00134134
0.00134134
0.00134134
0.00136826
0.00136826
0.00136826
0.00138739
0.00138739
0.0013874
0.00139773
0.00139773
0.00139774
0.00139772
0.00139772
0.00139773
0.00138736
0.00138736
0.00138737
0.00136821
0.00136822
0.00136822
0.00134128
0.00134129
0.00134129
0.00130859
0.00130859
0.0013086
0.00127348
0.00127348
0.00127348
0.00124024
0.00124024
0.00124025
0.00121371
0.00121371
0.00121372
0.00119846
0.00119846
0.00119847
0.0011968
0.0011968
0.00119681
0.00120569
0.00120569
0.0012057
0.0012129
0.0012129
0.00121291
0.00119214
0.00119214
0.00119215
0.00109683
0.00109683
0.00109684
0.000796662
0.00079666
0.000796664
0.000823306
0.000823304
0.000823307
0.00106502
0.00106502
0.00106502
0.00116487
0.00116487
0.00116488
0.00119169
0.00119169
0.0011917
0.00118242
0.00118242
0.00118243
0.00116503
0.00116503
0.00116504
0.00115587
0.00115587
0.00115587
0.00116137
0.00116137
0.00116138
0.00118085
0.00118085
0.00118085
0.0012097
0.0012097
0.00120971
0.00124232
0.00124232
0.00124233
0.00127359
0.00127359
0.00127359
0.00129962
0.00129963
0.00129963
0.00131818
0.00131819
0.00131819
0.00132822
0.00132822
0.00132823
0.00132821
0.00132821
0.00132822
0.00131816
0.00131816
0.00131817
0.00129958
0.00129959
0.00129959
0.00127354
0.00127354
0.00127354
0.00124226
0.00124226
0.00124227
0.00120963
0.00120963
0.00120964
0.00118077
0.00118077
0.00118078
0.00116129
0.00116129
0.0011613
0.00115577
0.00115577
0.00115578
0.00116493
0.00116493
0.00116494
0.00118231
0.00118231
0.00118232
0.00119158
0.00119158
0.00119159
0.00116476
0.00116475
0.00116477
0.00106491
0.00106491
0.00106492
0.000823235
0.000823233
0.000823236
0.00084631
0.000846308
0.000846311
0.00102947
0.00102947
0.00102947
0.00112684
0.00112684
0.00112685
0.00115995
0.00115995
0.00115996
0.00115161
0.0011516
0.00115162
0.00112816
0.00112816
0.00112817
0.00110888
0.00110888
0.00110889
0.00110385
0.00110385
0.00110386
0.00111484
0.00111484
0.00111485
0.00113799
0.00113799
0.001138
0.00116718
0.00116718
0.00116719
0.00119646
0.00119646
0.00119647
0.00122129
0.00122129
0.0012213
0.00123909
0.00123909
0.00123909
0.00124872
0.00124872
0.00124873
0.00124871
0.00124871
0.00124872
0.00123906
0.00123906
0.00123907
0.00122125
0.00122125
0.00122126
0.00119642
0.00119642
0.00119642
0.00116713
0.00116713
0.00116714
0.00113793
0.00113793
0.00113793
0.00111477
0.00111477
0.00111478
0.00110377
0.00110377
0.00110378
0.00110878
0.00110878
0.00110879
0.00112805
0.00112805
0.00112806
0.0011515
0.00115149
0.00115151
0.00115984
0.00115984
0.00115985
0.00112673
0.00112673
0.00112674
0.00102936
0.00102936
0.00102937
0.000846236
0.000846233
0.000846237
0.000866902
0.0008669
0.000866903
0.000992426
0.000992424
0.000992434
0.00107864
0.00107864
0.00107865
0.00111601
0.00111601
0.00111603
0.00111075
0.00111075
0.00111076
0.00108419
0.00108419
0.0010842
0.00105654
0.00105654
0.00105655
0.00104098
0.00104098
0.00104099
0.00104227
0.00104227
0.00104228
0.00105818
0.00105818
0.00105819
0.00108271
0.00108271
0.00108271
0.00110919
0.00110919
0.0011092
0.00113233
0.00113233
0.00113233
0.0011491
0.0011491
0.00114911
0.00115821
0.00115821
0.00115822
0.0011582
0.00115821
0.00115821
0.00114908
0.00114908
0.00114909
0.00113229
0.00113229
0.0011323
0.00110915
0.00110915
0.00110915
0.00108266
0.00108266
0.00108267
0.00105812
0.00105812
0.00105813
0.0010422
0.0010422
0.00104221
0.0010409
0.0010409
0.00104091
0.00105645
0.00105645
0.00105646
0.00108409
0.00108408
0.0010841
0.00111064
0.00111064
0.00111065
0.0011159
0.0011159
0.00111591
0.00107852
0.00107852
0.00107853
0.000992319
0.000992317
0.000992325
0.000866825
0.000866823
0.000866826
0.000886046
0.000886043
0.000886047
0.000956094
0.000956092
0.000956102
0.00102169
0.00102169
0.0010217
0.00105899
0.00105899
0.001059
0.00105751
0.00105751
0.00105752
0.00103083
0.00103083
0.00103084
0.00099755
0.000997549
0.000997559
0.000972554
0.000972553
0.000972563
0.000963483
0.000963482
0.000963491
0.000970563
0.000970562
0.00097057
0.000988831
0.000988831
0.000988839
0.00101137
0.00101137
0.00101137
0.00103214
0.00103214
0.00103214
0.00104752
0.00104752
0.00104753
0.00105595
0.00105595
0.00105596
0.00105594
0.00105594
0.00105595
0.0010475
0.0010475
0.00104751
0.00103211
0.00103211
0.00103211
0.00101133
0.00101133
0.00101134
0.00098879
0.000988789
0.000988797
0.000970512
0.000970512
0.00097052
0.00096342
0.000963419
0.000963427
0.000972477
0.000972477
0.000972486
0.000997458
0.000997457
0.000997468
0.00103072
0.00103072
0.00103074
0.0010574
0.0010574
0.00105741
0.00105887
0.00105887
0.00105888
0.00102157
0.00102157
0.00102158
0.000955986
0.000955984
0.000955992
0.000885968
0.000885965
0.000885968
0.000904264
0.000904261
0.000904264
0.000922593
0.000922591
0.0009226
0.00095838
0.000958377
0.000958389
0.000989345
0.000989342
0.000989355
0.000990519
0.000990516
0.000990529
0.000966186
0.000966184
0.000966196
0.000930763
0.000930761
0.000930772
0.000898711
0.000898709
0.000898718
0.000879596
0.000879595
0.000879603
0.000876485
0.000876484
0.000876492
0.000886581
0.00088658
0.000886587
0.000903593
0.000903593
0.0009036
0.000921009
0.000921008
0.000921015
0.000934498
0.000934498
0.000934505
0.000942028
0.000942028
0.000942035
0.000942022
0.000942022
0.000942029
0.000934481
0.000934481
0.000934488
0.000920983
0.000920983
0.000920989
0.000903562
0.000903561
0.000903568
0.000886545
0.000886544
0.000886551
0.000876443
0.000876441
0.000876449
0.000879539
0.000879538
0.000879546
0.000898638
0.000898636
0.000898646
0.000930674
0.000930672
0.000930683
0.000966083
0.000966081
0.000966093
0.000990406
0.000990404
0.000990417
0.000989227
0.000989225
0.000989237
0.000958262
0.000958258
0.00095827
0.000922486
0.000922483
0.000922491
0.000904185
0.000904182
0.000904185
0.000921527
0.000921524
0.000921526
0.000893943
0.000893939
0.000893947
0.000892098
0.000892094
0.000892105
0.000909437
0.000909433
0.000909446
0.000910467
0.000910464
0.000910476
0.000890038
0.000890035
0.000890046
0.00085628
0.000856277
0.000856288
0.000820761
0.000820758
0.000820768
0.000793238
0.000793235
0.000793244
0.000779262
0.000779259
0.000779267
0.00077919
0.000779188
0.000779195
0.000788681
0.000788679
0.000788685
0.000801405
0.000801403
0.00080141
0.00081231
0.000812308
0.000812314
0.000818669
0.000818666
0.000818673
0.000818663
0.000818661
0.000818668
0.000812296
0.000812293
0.0008123
0.000801385
0.000801383
0.000801389
0.000788657
0.000788655
0.000788661
0.000779162
0.000779159
0.000779167
0.000779229
0.000779226
0.000779234
0.000793188
0.000793185
0.000793193
0.000820693
0.00082069
0.0008207
0.000856194
0.000856191
0.000856202
0.000889938
0.000889934
0.000889946
0.000910357
0.000910354
0.000910366
0.000909322
0.000909318
0.00090933
0.000891982
0.000891977
0.000891988
0.000893838
0.000893834
0.000893841
0.000921448
0.000921446
0.000921447
0.000937237
0.000937234
0.000937235
0.000872006
0.000872003
0.000872009
0.000827702
0.000827697
0.000827707
0.000824592
0.000824587
0.000824598
0.000821906
0.000821901
0.000821913
0.000806008
0.000806004
0.000806015
0.000777449
0.000777444
0.000777455
0.000742709
0.000742704
0.000742714
0.000709741
0.000709736
0.000709745
0.000685521
0.000685516
0.000685525
0.000673913
0.000673908
0.000673916
0.000673884
0.000673879
0.000673886
0.000680404
0.000680399
0.000680405
0.000687933
0.000687928
0.000687934
0.000692824
0.000692819
0.000692825
0.00069282
0.000692815
0.000692821
0.000687923
0.000687917
0.000687923
0.00068039
0.000680385
0.000680391
0.00067387
0.000673864
0.000673871
0.000673893
0.000673888
0.000673895
0.000685497
0.000685493
0.000685501
0.000709698
0.000709693
0.000709702
0.000742647
0.000742642
0.000742652
0.000777369
0.000777364
0.000777375
0.000805913
0.000805909
0.00080592
0.000821801
0.000821796
0.000821808
0.000824482
0.000824476
0.000824488
0.000827592
0.000827586
0.000827596
0.000871907
0.000871903
0.000871909
0.00093716
0.000937157
0.000937158
0.000950184
0.000950182
0.000950182
0.000858069
0.000858066
0.000858071
0.000772459
0.000772454
0.000772461
0.000745346
0.000745341
0.00074535
0.000736333
0.000736327
0.000736337
0.000724908
0.000724902
0.000724912
0.000703786
0.00070378
0.000703789
0.000673339
0.000673333
0.000673342
0.000638448
0.000638441
0.00063845
0.000606318
0.000606308
0.000606317
0.00058375
0.000583741
0.000583748
0.000573574
0.000573565
0.000573569
0.000573092
0.000573083
0.000573087
0.000576798
0.00057679
0.000576792
0.000580074
0.000580066
0.000580068
0.000580071
0.000580063
0.000580065
0.000576791
0.000576783
0.000576785
0.000573085
0.000573076
0.000573079
0.000573568
0.000573559
0.000573564
0.000583738
0.000583729
0.000583735
0.000606302
0.000606293
0.000606302
0.000638412
0.000638404
0.000638414
0.000673284
0.000673278
0.000673287
0.000703713
0.000703706
0.000703716
0.00072482
0.000724814
0.000724824
0.000736234
0.000736228
0.000736238
0.000745243
0.000745236
0.000745246
0.000772356
0.00077235
0.000772358
0.000857978
0.000857974
0.000857979
0.000950109
0.000950106
0.000950106
0.000958316
0.000958313
0.000958313
0.00085188
0.000851877
0.000851881
0.000737281
0.000737275
0.000737281
0.000691051
0.000691044
0.000691052
0.000676339
0.000676332
0.000676341
0.000668264
0.000668256
0.000668265
0.000653547
0.000653538
0.000653548
0.000627799
0.000627789
0.000627799
0.000593285
0.000593275
0.000593282
0.000556886
0.000556876
0.000556881
0.000527104
0.000527093
0.000527098
0.000509569
0.000509558
0.00050956
0.000503737
0.000503725
0.000503726
0.00050448
0.000504468
0.000504469
0.00050652
0.000506508
0.000506509
0.000506517
0.000506506
0.000506507
0.000504475
0.000504464
0.000504465
0.000503734
0.000503722
0.000503723
0.00050957
0.000509559
0.000509561
0.000527096
0.000527085
0.000527089
0.000556877
0.000556867
0.000556874
0.000593253
0.000593242
0.000593251
0.000627748
0.000627739
0.000627748
0.000653479
0.00065347
0.00065348
0.000668181
0.000668173
0.000668182
0.000676247
0.000676239
0.000676248
0.000690953
0.000690945
0.000690953
0.000737184
0.000737178
0.000737184
0.000851796
0.000851792
0.000851796
0.000958242
0.000958239
0.000958239
)
;

boundaryField
{
    freeSurface
    {
        type            slip;
    }
    inlet
    {
        type            cyclic;
    }
    outlet
    {
        type            cyclic;
    }
    sidewalls
    {
        type            kqRWallFunction;
        value           nonuniform List<scalar> 
144
(
0.000159893
0.000225127
0.000263206
0.000303929
0.000347344
0.000393359
0.000441678
0.000491732
0.000542641
0.000593227
0.0006421
0.000687838
0.000729235
0.000765561
0.00079673
0.000823306
0.00084631
0.000866902
0.000886046
0.000904264
0.000921527
0.000937237
0.000950184
0.000958316
0.000159893
0.000225126
0.000263206
0.000303929
0.000347343
0.000393359
0.000441678
0.000491731
0.00054264
0.000593226
0.000642099
0.000687836
0.000729233
0.000765559
0.000796728
0.000823304
0.000846308
0.0008669
0.000886043
0.000904261
0.000921524
0.000937234
0.000950182
0.000958313
0.000159893
0.000225127
0.000263207
0.00030393
0.000347345
0.00039336
0.000441679
0.000491733
0.000542642
0.000593229
0.000642102
0.000687839
0.000729236
0.000765562
0.000796732
0.000823307
0.000846311
0.000866903
0.000886047
0.000904264
0.000921526
0.000937235
0.000950182
0.000958313
0.000159876
0.000225106
0.000263183
0.000303904
0.000347315
0.000393327
0.000441643
0.000491692
0.000542597
0.000593179
0.000642048
0.000687781
0.000729174
0.000765496
0.000796662
0.000823235
0.000846236
0.000866825
0.000885968
0.000904185
0.000921448
0.00093716
0.000950109
0.000958242
0.000159876
0.000225106
0.000263183
0.000303903
0.000347315
0.000393327
0.000441642
0.000491692
0.000542597
0.000593178
0.000642047
0.00068778
0.000729173
0.000765495
0.00079666
0.000823233
0.000846233
0.000866823
0.000885965
0.000904182
0.000921446
0.000937157
0.000950106
0.000958239
0.000159877
0.000225107
0.000263184
0.000303904
0.000347316
0.000393328
0.000441644
0.000491694
0.000542599
0.000593181
0.00064205
0.000687783
0.000729176
0.000765498
0.000796664
0.000823236
0.000846237
0.000866826
0.000885968
0.000904185
0.000921447
0.000937158
0.000950106
0.000958239
)
;
    }
    noSlipWalls
    {
        type            kqRWallFunction;
        value           nonuniform List<scalar> 
90
(
0.000159893
0.000387743
0.000464038
0.000520891
0.000567228
0.000606346
0.000640486
0.000671305
0.000699933
0.000726837
0.00075174
0.000773721
0.000791562
0.000804261
0.000811149
0.000811141
0.000804237
0.000791527
0.000773678
0.000751692
0.000726781
0.000699875
0.000671248
0.000640429
0.000606293
0.000567177
0.000520845
0.000463997
0.000387709
0.000159876
0.000159893
0.000387743
0.000464038
0.000520891
0.000567227
0.000606346
0.000640485
0.000671305
0.000699932
0.000726837
0.00075174
0.000773721
0.000791562
0.00080426
0.000811149
0.000811141
0.000804237
0.000791527
0.000773677
0.000751692
0.000726781
0.000699875
0.000671247
0.000640429
0.000606292
0.000567177
0.000520844
0.000463997
0.000387709
0.000159876
0.000159893
0.000387745
0.000464041
0.000520894
0.00056723
0.000606349
0.000640488
0.000671308
0.000699935
0.000726839
0.000751743
0.000773723
0.000791565
0.000804263
0.000811152
0.000811143
0.00080424
0.000791529
0.00077368
0.000751695
0.000726783
0.000699877
0.00067125
0.000640432
0.000606295
0.00056718
0.000520847
0.000463999
0.000387711
0.000159877
)
;
    }
}


// ************************************************************************* //
