/*--------------------------------*- C++ -*----------------------------------*\
  =========                 |
  \\      /  F ield         | OpenFOAM: The Open Source CFD Toolbox
   \\    /   O peration     | Website:  https://openfoam.org
    \\  /    A nd           | Version:  6
     \\/     M anipulation  |
\*---------------------------------------------------------------------------*/
FoamFile
{
    version     2.0;
    format      ascii;
    class       volScalarField;
    location    "100";
    object      nut;
}
// * * * * * * * * * * * * * * * * * * * * * * * * * * * * * * * * * * * * * //

dimensions      [0 2 -1 0 0 0 0];

internalField   nonuniform List<scalar> 
2160
(
1.30988e-06
1.30988e-06
1.30988e-06
1.65399e-06
1.65399e-06
1.654e-06
1.97945e-06
1.97945e-06
1.97946e-06
2.22197e-06
2.22197e-06
2.22198e-06
2.41963e-06
2.41963e-06
2.41964e-06
2.58651e-06
2.58651e-06
2.58652e-06
2.73214e-06
2.73214e-06
2.73215e-06
2.86362e-06
2.86361e-06
2.86363e-06
2.98574e-06
2.98574e-06
2.98575e-06
3.10051e-06
3.10051e-06
3.10052e-06
3.20675e-06
3.20675e-06
3.20676e-06
3.30052e-06
3.30052e-06
3.30053e-06
3.37663e-06
3.37663e-06
3.37664e-06
3.43081e-06
3.43081e-06
3.43082e-06
3.4602e-06
3.46019e-06
3.46021e-06
3.46016e-06
3.46016e-06
3.46017e-06
3.43071e-06
3.43071e-06
3.43072e-06
3.37648e-06
3.37648e-06
3.37649e-06
3.30034e-06
3.30033e-06
3.30035e-06
3.20655e-06
3.20654e-06
3.20655e-06
3.10027e-06
3.10027e-06
3.10028e-06
2.98549e-06
2.98549e-06
2.9855e-06
2.86337e-06
2.86337e-06
2.86338e-06
2.7319e-06
2.7319e-06
2.73191e-06
2.58628e-06
2.58628e-06
2.58629e-06
2.41942e-06
2.41942e-06
2.41943e-06
2.22177e-06
2.22177e-06
2.22178e-06
1.97927e-06
1.97927e-06
1.97928e-06
1.65384e-06
1.65384e-06
1.65385e-06
1.30974e-06
1.30974e-06
1.30975e-06
1.95457e-05
1.95457e-05
1.95457e-05
1.02301e-05
1.02301e-05
1.02301e-05
1.09215e-05
1.09215e-05
1.09215e-05
1.14523e-05
1.14523e-05
1.14524e-05
1.18965e-05
1.18965e-05
1.18965e-05
1.22755e-05
1.22755e-05
1.22755e-05
1.26074e-05
1.26074e-05
1.26074e-05
1.29067e-05
1.29067e-05
1.29067e-05
1.31831e-05
1.31831e-05
1.31832e-05
1.34408e-05
1.34408e-05
1.34408e-05
1.36768e-05
1.36768e-05
1.36769e-05
1.38831e-05
1.38831e-05
1.38831e-05
1.40489e-05
1.4049e-05
1.4049e-05
1.41662e-05
1.41662e-05
1.41662e-05
1.42295e-05
1.42295e-05
1.42295e-05
1.42294e-05
1.42294e-05
1.42295e-05
1.4166e-05
1.4166e-05
1.4166e-05
1.40486e-05
1.40486e-05
1.40487e-05
1.38827e-05
1.38827e-05
1.38827e-05
1.36764e-05
1.36764e-05
1.36764e-05
1.34402e-05
1.34402e-05
1.34403e-05
1.31826e-05
1.31826e-05
1.31826e-05
1.29061e-05
1.29061e-05
1.29061e-05
1.26068e-05
1.26068e-05
1.26069e-05
1.22749e-05
1.22749e-05
1.2275e-05
1.18959e-05
1.18959e-05
1.1896e-05
1.14518e-05
1.14518e-05
1.14518e-05
1.0921e-05
1.0921e-05
1.0921e-05
1.02296e-05
1.02296e-05
1.02296e-05
1.95448e-05
1.95448e-05
1.95449e-05
2.11342e-05
2.11342e-05
2.11343e-05
1.71703e-05
1.71703e-05
1.71704e-05
1.78205e-05
1.78205e-05
1.78206e-05
1.84269e-05
1.84269e-05
1.8427e-05
1.89982e-05
1.89982e-05
1.89983e-05
1.95178e-05
1.95178e-05
1.95179e-05
1.99909e-05
1.99909e-05
1.9991e-05
2.0428e-05
2.0428e-05
2.04281e-05
2.08378e-05
2.08378e-05
2.08378e-05
2.12226e-05
2.12226e-05
2.12226e-05
2.15764e-05
2.15764e-05
2.15764e-05
2.18857e-05
2.18857e-05
2.18858e-05
2.21345e-05
2.21345e-05
2.21345e-05
2.23102e-05
2.23102e-05
2.23102e-05
2.2405e-05
2.24051e-05
2.24051e-05
2.24049e-05
2.2405e-05
2.2405e-05
2.23099e-05
2.23099e-05
2.23099e-05
2.2134e-05
2.21341e-05
2.21341e-05
2.18852e-05
2.18852e-05
2.18852e-05
2.15757e-05
2.15757e-05
2.15758e-05
2.12218e-05
2.12218e-05
2.12219e-05
2.0837e-05
2.0837e-05
2.0837e-05
2.04272e-05
2.04272e-05
2.04273e-05
1.99901e-05
1.99901e-05
1.99901e-05
1.9517e-05
1.9517e-05
1.9517e-05
1.89974e-05
1.89974e-05
1.89975e-05
1.84261e-05
1.84261e-05
1.84262e-05
1.78197e-05
1.78197e-05
1.78198e-05
1.71695e-05
1.71695e-05
1.71696e-05
2.11333e-05
2.11333e-05
2.11333e-05
2.27104e-05
2.27104e-05
2.27104e-05
2.49582e-05
2.49582e-05
2.49583e-05
2.55074e-05
2.55074e-05
2.55075e-05
2.60729e-05
2.6073e-05
2.60731e-05
2.66981e-05
2.66981e-05
2.66982e-05
2.73187e-05
2.73187e-05
2.73188e-05
2.79145e-05
2.79145e-05
2.79146e-05
2.84834e-05
2.84834e-05
2.84835e-05
2.90274e-05
2.90274e-05
2.90274e-05
2.95437e-05
2.95437e-05
2.95438e-05
3.0021e-05
3.0021e-05
3.0021e-05
3.04391e-05
3.04391e-05
3.04392e-05
3.07754e-05
3.07754e-05
3.07754e-05
3.10128e-05
3.10128e-05
3.10129e-05
3.1141e-05
3.1141e-05
3.11411e-05
3.11409e-05
3.11409e-05
3.1141e-05
3.10124e-05
3.10124e-05
3.10125e-05
3.07748e-05
3.07748e-05
3.07749e-05
3.04383e-05
3.04384e-05
3.04384e-05
3.00201e-05
3.00202e-05
3.00202e-05
2.95428e-05
2.95428e-05
2.95428e-05
2.90263e-05
2.90263e-05
2.90264e-05
2.84823e-05
2.84824e-05
2.84824e-05
2.79134e-05
2.79134e-05
2.79135e-05
2.73176e-05
2.73176e-05
2.73177e-05
2.6697e-05
2.6697e-05
2.66971e-05
2.60718e-05
2.60718e-05
2.60719e-05
2.55062e-05
2.55062e-05
2.55063e-05
2.49571e-05
2.49571e-05
2.49572e-05
2.27095e-05
2.27094e-05
2.27095e-05
2.42783e-05
2.42783e-05
2.42783e-05
3.37757e-05
3.37757e-05
3.37759e-05
3.43413e-05
3.43413e-05
3.43415e-05
3.47581e-05
3.47582e-05
3.47583e-05
3.5347e-05
3.5347e-05
3.53471e-05
3.60164e-05
3.60164e-05
3.60166e-05
3.67115e-05
3.67115e-05
3.67116e-05
3.74071e-05
3.74072e-05
3.74073e-05
3.80909e-05
3.80909e-05
3.8091e-05
3.87499e-05
3.875e-05
3.87501e-05
3.93636e-05
3.93636e-05
3.93637e-05
3.99028e-05
3.99029e-05
3.99029e-05
4.03369e-05
4.03369e-05
4.0337e-05
4.06432e-05
4.06433e-05
4.06434e-05
4.08087e-05
4.08087e-05
4.08088e-05
4.08085e-05
4.08085e-05
4.08086e-05
4.06428e-05
4.06428e-05
4.06429e-05
4.03361e-05
4.03362e-05
4.03363e-05
3.99019e-05
3.9902e-05
3.9902e-05
3.93626e-05
3.93626e-05
3.93627e-05
3.87487e-05
3.87488e-05
3.87488e-05
3.80896e-05
3.80896e-05
3.80897e-05
3.74058e-05
3.74058e-05
3.74059e-05
3.67101e-05
3.67101e-05
3.67102e-05
3.6015e-05
3.6015e-05
3.60151e-05
3.53455e-05
3.53455e-05
3.53457e-05
3.47566e-05
3.47566e-05
3.47568e-05
3.43397e-05
3.43397e-05
3.43399e-05
3.37742e-05
3.37743e-05
3.37744e-05
2.42773e-05
2.42773e-05
2.42773e-05
2.58365e-05
2.58365e-05
2.58365e-05
4.36033e-05
4.36034e-05
4.36036e-05
4.45353e-05
4.45354e-05
4.45356e-05
4.47317e-05
4.47318e-05
4.4732e-05
4.51727e-05
4.51728e-05
4.5173e-05
4.58146e-05
4.58147e-05
4.58148e-05
4.65697e-05
4.65697e-05
4.65699e-05
4.73796e-05
4.73797e-05
4.73798e-05
4.82075e-05
4.82075e-05
4.82076e-05
4.90223e-05
4.90223e-05
4.90224e-05
4.97888e-05
4.97889e-05
4.9789e-05
5.04654e-05
5.04655e-05
5.04656e-05
5.10107e-05
5.10108e-05
5.10109e-05
5.13956e-05
5.13957e-05
5.13958e-05
5.16034e-05
5.16035e-05
5.16036e-05
5.16032e-05
5.16033e-05
5.16034e-05
5.13951e-05
5.13952e-05
5.13953e-05
5.10099e-05
5.10099e-05
5.10101e-05
5.04644e-05
5.04644e-05
5.04645e-05
4.97876e-05
4.97877e-05
4.97878e-05
4.90208e-05
4.90208e-05
4.90209e-05
4.82059e-05
4.82059e-05
4.8206e-05
4.7378e-05
4.7378e-05
4.73781e-05
4.65679e-05
4.6568e-05
4.65681e-05
4.58128e-05
4.58128e-05
4.5813e-05
4.51708e-05
4.51709e-05
4.51711e-05
4.47297e-05
4.47298e-05
4.473e-05
4.45332e-05
4.45333e-05
4.45335e-05
4.36015e-05
4.36016e-05
4.36018e-05
2.58354e-05
2.58354e-05
2.58355e-05
2.73774e-05
2.73773e-05
2.73774e-05
5.43026e-05
5.43027e-05
5.43029e-05
5.62231e-05
5.62231e-05
5.62235e-05
5.62146e-05
5.62147e-05
5.6215e-05
5.63849e-05
5.63849e-05
5.63852e-05
5.68925e-05
5.68925e-05
5.68928e-05
5.7644e-05
5.7644e-05
5.76442e-05
5.85417e-05
5.85418e-05
5.85419e-05
5.95119e-05
5.95119e-05
5.95121e-05
6.04948e-05
6.04949e-05
6.0495e-05
6.14328e-05
6.14329e-05
6.14331e-05
6.22659e-05
6.2266e-05
6.22662e-05
6.29386e-05
6.29387e-05
6.29389e-05
6.34135e-05
6.34136e-05
6.34138e-05
6.36698e-05
6.36699e-05
6.36701e-05
6.36696e-05
6.36697e-05
6.36699e-05
6.34129e-05
6.3413e-05
6.34131e-05
6.29376e-05
6.29377e-05
6.29379e-05
6.22646e-05
6.22647e-05
6.22649e-05
6.14314e-05
6.14315e-05
6.14316e-05
6.04931e-05
6.04931e-05
6.04932e-05
5.95099e-05
5.951e-05
5.95101e-05
5.85396e-05
5.85397e-05
5.85399e-05
5.76418e-05
5.76419e-05
5.76421e-05
5.68902e-05
5.68903e-05
5.68905e-05
5.63824e-05
5.63825e-05
5.63828e-05
5.6212e-05
5.62121e-05
5.62124e-05
5.62204e-05
5.62204e-05
5.62208e-05
5.43003e-05
5.43004e-05
5.43007e-05
2.73762e-05
2.73762e-05
2.73763e-05
2.8887e-05
2.8887e-05
2.8887e-05
6.56331e-05
6.56332e-05
6.56336e-05
6.94461e-05
6.94462e-05
6.94467e-05
6.94022e-05
6.94023e-05
6.94027e-05
6.91933e-05
6.91934e-05
6.91938e-05
6.9429e-05
6.94291e-05
6.94294e-05
7.0081e-05
7.00811e-05
7.00813e-05
7.10182e-05
7.10183e-05
7.10185e-05
7.21181e-05
7.21181e-05
7.21183e-05
7.3278e-05
7.32781e-05
7.32783e-05
7.44065e-05
7.44066e-05
7.44068e-05
7.54172e-05
7.54173e-05
7.54175e-05
7.62358e-05
7.62359e-05
7.62361e-05
7.68139e-05
7.6814e-05
7.68142e-05
7.71258e-05
7.71259e-05
7.71262e-05
7.71256e-05
7.71257e-05
7.71259e-05
7.68131e-05
7.68132e-05
7.68134e-05
7.62346e-05
7.62347e-05
7.62349e-05
7.54157e-05
7.54158e-05
7.5416e-05
7.44048e-05
7.44049e-05
7.44051e-05
7.32759e-05
7.3276e-05
7.32762e-05
7.21158e-05
7.21158e-05
7.2116e-05
7.10158e-05
7.10158e-05
7.1016e-05
7.00784e-05
7.00784e-05
7.00787e-05
6.94262e-05
6.94262e-05
6.94265e-05
6.91902e-05
6.91903e-05
6.91907e-05
6.93989e-05
6.9399e-05
6.93994e-05
6.94427e-05
6.94428e-05
6.94433e-05
6.56304e-05
6.56305e-05
6.56309e-05
2.88858e-05
2.88858e-05
2.88859e-05
3.03455e-05
3.03455e-05
3.03455e-05
7.72608e-05
7.72609e-05
7.72614e-05
8.41287e-05
8.41289e-05
8.41294e-05
8.44411e-05
8.44412e-05
8.44418e-05
8.3804e-05
8.38041e-05
8.38046e-05
8.36082e-05
8.36082e-05
8.36087e-05
8.40259e-05
8.4026e-05
8.40263e-05
8.49239e-05
8.49239e-05
8.49242e-05
8.61231e-05
8.61231e-05
8.61234e-05
8.74613e-05
8.74613e-05
8.74616e-05
8.87977e-05
8.87977e-05
8.8798e-05
9.00085e-05
9.00086e-05
9.00089e-05
9.09932e-05
9.09933e-05
9.09936e-05
9.16892e-05
9.16894e-05
9.16897e-05
9.20648e-05
9.20649e-05
9.20652e-05
9.20645e-05
9.20646e-05
9.20649e-05
9.16883e-05
9.16885e-05
9.16888e-05
9.09918e-05
9.0992e-05
9.09923e-05
9.00068e-05
9.00069e-05
9.00072e-05
8.87957e-05
8.87958e-05
8.8796e-05
8.74588e-05
8.74588e-05
8.74591e-05
8.61203e-05
8.61204e-05
8.61207e-05
8.49209e-05
8.4921e-05
8.49213e-05
8.40227e-05
8.40227e-05
8.40231e-05
8.36047e-05
8.36047e-05
8.36052e-05
8.38001e-05
8.38002e-05
8.38008e-05
8.44369e-05
8.44371e-05
8.44377e-05
8.41245e-05
8.41247e-05
8.41252e-05
7.72577e-05
7.72578e-05
7.72582e-05
3.03443e-05
3.03443e-05
3.03443e-05
3.17284e-05
3.17284e-05
3.17284e-05
8.87655e-05
8.87657e-05
8.87662e-05
0.000100056
0.000100056
0.000100057
0.000101391
0.000101391
0.000101392
0.0001004
0.0001004
0.000100401
9.96142e-05
9.96143e-05
9.96149e-05
9.9622e-05
9.96221e-05
9.96225e-05
0.000100362
0.000100362
0.000100362
0.000101604
0.000101604
0.000101604
0.000103109
0.000103109
0.000103109
0.000104666
0.000104666
0.000104666
0.000106099
0.000106099
0.0001061
0.000107271
0.000107272
0.000107272
0.000108101
0.000108101
0.000108102
0.000108549
0.000108549
0.00010855
0.000108549
0.000108549
0.000108549
0.0001081
0.0001081
0.000108101
0.00010727
0.00010727
0.00010727
0.000106097
0.000106097
0.000106098
0.000104664
0.000104664
0.000104664
0.000103106
0.000103106
0.000103106
0.000101601
0.000101601
0.000101601
0.000100358
0.000100358
0.000100359
9.96181e-05
9.96182e-05
9.96187e-05
9.96099e-05
9.961e-05
9.96106e-05
0.000100395
0.000100395
0.000100396
0.000101386
0.000101386
0.000101387
0.000100051
0.000100051
0.000100052
8.8762e-05
8.87621e-05
8.87626e-05
3.17271e-05
3.17271e-05
3.17272e-05
3.30095e-05
3.30095e-05
3.30095e-05
9.96566e-05
9.96569e-05
9.96575e-05
0.000116864
0.000116865
0.000116866
0.00012018
0.000120181
0.000120182
0.000119105
0.000119106
0.000119107
0.000117617
0.000117617
0.000117618
0.000117006
0.000117006
0.000117007
0.00011742
0.00011742
0.000117421
0.000118612
0.000118612
0.000118612
0.00012025
0.00012025
0.00012025
0.000122032
0.000122032
0.000122032
0.000123707
0.000123707
0.000123708
0.000125089
0.000125089
0.000125089
0.000126069
0.000126069
0.00012607
0.000126599
0.000126599
0.000126599
0.000126598
0.000126598
0.000126599
0.000126068
0.000126068
0.000126069
0.000125087
0.000125087
0.000125088
0.000123705
0.000123705
0.000123705
0.000122029
0.000122029
0.00012203
0.000120246
0.000120247
0.000120247
0.000118608
0.000118608
0.000118608
0.000117416
0.000117416
0.000117417
0.000117001
0.000117001
0.000117002
0.000117612
0.000117612
0.000117613
0.0001191
0.0001191
0.000119101
0.000120174
0.000120175
0.000120176
0.000116858
0.000116859
0.000116859
9.96527e-05
9.96529e-05
9.96535e-05
3.30081e-05
3.30081e-05
3.30082e-05
3.41649e-05
3.41649e-05
3.41649e-05
0.000109405
0.000109406
0.000109406
0.000134048
0.000134049
0.00013405
0.000140562
0.000140563
0.000140564
0.000139939
0.000139939
0.000139941
0.000137745
0.000137746
0.000137747
0.000136295
0.000136296
0.000136297
0.000136164
0.000136164
0.000136165
0.000137162
0.000137162
0.000137163
0.000138869
0.000138869
0.00013887
0.000140863
0.000140864
0.000140864
0.000142794
0.000142794
0.000142795
0.000144405
0.000144406
0.000144406
0.000145553
0.000145553
0.000145554
0.000146173
0.000146173
0.000146174
0.000146173
0.000146173
0.000146174
0.000145552
0.000145552
0.000145553
0.000144403
0.000144404
0.000144404
0.000142792
0.000142792
0.000142793
0.000140861
0.000140861
0.000140861
0.000138865
0.000138865
0.000138866
0.000137158
0.000137158
0.000137158
0.000136159
0.000136159
0.00013616
0.00013629
0.00013629
0.000136291
0.000137739
0.000137739
0.000137741
0.000139932
0.000139932
0.000139934
0.000140555
0.000140555
0.000140557
0.000134041
0.000134042
0.000134043
0.000109401
0.000109401
0.000109402
3.41635e-05
3.41635e-05
3.41635e-05
3.5178e-05
3.51779e-05
3.5178e-05
0.000117498
0.000117498
0.000117499
0.000150981
0.000150981
0.000150983
0.000162087
0.000162087
0.000162089
0.000162753
0.000162754
0.000162756
0.000160043
0.000160043
0.000160045
0.000157569
0.00015757
0.000157571
0.000156624
0.000156624
0.000156626
0.000157225
0.000157225
0.000157226
0.000158891
0.000158891
0.000158892
0.000161059
0.000161059
0.00016106
0.000163247
0.000163247
0.000163248
0.000165103
0.000165103
0.000165104
0.000166432
0.000166433
0.000166434
0.000167152
0.000167152
0.000167153
0.000167152
0.000167152
0.000167153
0.000166431
0.000166431
0.000166432
0.0001651
0.000165101
0.000165102
0.000163244
0.000163244
0.000163245
0.000161056
0.000161056
0.000161057
0.000158887
0.000158887
0.000158888
0.00015722
0.00015722
0.000157221
0.000156618
0.000156619
0.00015662
0.000157563
0.000157563
0.000157565
0.000160035
0.000160035
0.000160037
0.000162745
0.000162745
0.000162748
0.000162078
0.000162078
0.000162081
0.000150973
0.000150973
0.000150975
0.000117493
0.000117494
0.000117494
3.51765e-05
3.51765e-05
3.51765e-05
3.60435e-05
3.60434e-05
3.60435e-05
0.00012351
0.00012351
0.000123511
0.000166943
0.000166944
0.000166946
0.000184096
0.000184097
0.0001841
0.000187177
0.000187178
0.000187181
0.000184408
0.000184409
0.000184411
0.000180834
0.000180834
0.000180836
0.000178782
0.000178783
0.000178785
0.000178712
0.000178712
0.000178714
0.000180164
0.000180164
0.000180165
0.000182427
0.000182427
0.000182428
0.000184851
0.000184851
0.000184852
0.000186957
0.000186957
0.000186959
0.00018848
0.000188481
0.000188482
0.000189307
0.000189308
0.000189309
0.000189307
0.000189307
0.000189308
0.000188479
0.000188479
0.00018848
0.000186955
0.000186955
0.000186956
0.000184847
0.000184848
0.000184849
0.000182423
0.000182424
0.000182425
0.000180159
0.000180159
0.00018016
0.000178706
0.000178707
0.000178708
0.000178776
0.000178776
0.000178778
0.000180826
0.000180827
0.000180829
0.000184399
0.0001844
0.000184402
0.000187167
0.000187168
0.000187171
0.000184086
0.000184087
0.00018409
0.000166934
0.000166935
0.000166937
0.000123504
0.000123505
0.000123506
3.60419e-05
3.60419e-05
3.6042e-05
3.67699e-05
3.67698e-05
3.67699e-05
0.000127174
0.000127175
0.000127176
0.000181164
0.000181165
0.000181168
0.000205744
0.000205746
0.000205749
0.000212575
0.000212577
0.000212581
0.000210527
0.000210529
0.000210532
0.000205973
0.000205974
0.000205977
0.000202548
0.00020255
0.000202552
0.000201464
0.000201465
0.000201467
0.000202446
0.000202446
0.000202448
0.000204663
0.000204664
0.000204665
0.000207268
0.000207269
0.00020727
0.000209614
0.000209614
0.000209616
0.000211334
0.000211335
0.000211336
0.000212273
0.000212273
0.000212275
0.000212272
0.000212273
0.000212274
0.000211332
0.000211333
0.000211335
0.000209611
0.000209612
0.000209613
0.000207265
0.000207265
0.000207267
0.00020466
0.00020466
0.000204662
0.00020244
0.000202441
0.000202442
0.000201458
0.000201458
0.00020146
0.000202541
0.000202542
0.000202544
0.000205963
0.000205965
0.000205968
0.000210516
0.000210518
0.000210521
0.000212564
0.000212566
0.000212569
0.000205732
0.000205734
0.000205737
0.000181153
0.000181154
0.000181157
0.000127168
0.000127169
0.00012717
3.67683e-05
3.67683e-05
3.67683e-05
3.73781e-05
3.7378e-05
3.73781e-05
0.000128428
0.000128429
0.00012843
0.000192859
0.00019286
0.000192863
0.000226032
0.000226034
0.000226038
0.000238039
0.000238042
0.000238046
0.000237809
0.000237812
0.000237815
0.000232689
0.000232691
0.000232695
0.00022773
0.000227733
0.000227736
0.000225241
0.000225242
0.000225245
0.000225395
0.000225396
0.000225398
0.000227338
0.000227339
0.000227342
0.000230013
0.000230014
0.000230016
0.000232557
0.000232557
0.00023256
0.000234465
0.000234465
0.000234468
0.000235515
0.000235516
0.000235518
0.000235514
0.000235515
0.000235517
0.000234463
0.000234464
0.000234466
0.000232554
0.000232555
0.000232557
0.000230009
0.00023001
0.000230012
0.000227335
0.000227336
0.000227338
0.000225388
0.00022539
0.000225392
0.000225234
0.000225235
0.000225238
0.000227722
0.000227724
0.000227727
0.000232678
0.00023268
0.000232684
0.000237796
0.000237799
0.000237803
0.000238026
0.000238028
0.000238032
0.000226018
0.000226021
0.000226025
0.000192846
0.000192847
0.000192851
0.000128422
0.000128422
0.000128423
3.73764e-05
3.73764e-05
3.73765e-05
3.78966e-05
3.78966e-05
3.78967e-05
0.00012741
0.00012741
0.000127412
0.000201272
0.000201273
0.000201277
0.000243857
0.00024386
0.000243865
0.000262414
0.000262418
0.000262423
0.000265348
0.000265352
0.000265357
0.00026044
0.000260444
0.000260449
0.000254004
0.000254008
0.000254012
0.000249719
0.000249723
0.000249726
0.000248574
0.000248577
0.00024858
0.000249891
0.000249894
0.000249897
0.000252436
0.000252438
0.000252441
0.00025509
0.000255091
0.000255094
0.000257154
0.000257155
0.000257158
0.000258307
0.000258309
0.000258312
0.000258307
0.000258308
0.000258311
0.000257152
0.000257153
0.000257156
0.000255087
0.000255088
0.000255091
0.000252433
0.000252435
0.000252438
0.000249888
0.00024989
0.000249894
0.000248567
0.00024857
0.000248573
0.000249711
0.000249715
0.000249718
0.000253994
0.000253998
0.000254001
0.000260427
0.000260431
0.000260436
0.000265333
0.000265337
0.000265342
0.000262399
0.000262403
0.000262408
0.000243842
0.000243845
0.00024385
0.000201258
0.000201259
0.000201263
0.000127402
0.000127402
0.000127404
3.7895e-05
3.78949e-05
3.7895e-05
3.83549e-05
3.83549e-05
3.83549e-05
0.000124417
0.000124418
0.00012442
0.000205729
0.000205731
0.000205735
0.000258064
0.000258068
0.000258073
0.000284369
0.000284374
0.00028438
0.000291947
0.000291953
0.000291959
0.000288411
0.000288417
0.000288423
0.000280892
0.000280898
0.000280903
0.000274516
0.000274522
0.000274526
0.000271493
0.000271498
0.000271502
0.000271663
0.000271668
0.000271672
0.000273748
0.000273751
0.000273755
0.000276345
0.000276348
0.000276352
0.000278498
0.000278501
0.000278505
0.000279733
0.000279736
0.00027974
0.000279732
0.000279735
0.000279739
0.000278496
0.000278499
0.000278503
0.000276342
0.000276345
0.000276349
0.000273745
0.000273748
0.000273752
0.000271661
0.000271665
0.000271669
0.000271485
0.00027149
0.000271494
0.000274507
0.000274513
0.000274517
0.00028088
0.000280886
0.000280891
0.000288396
0.000288402
0.000288408
0.00029193
0.000291936
0.000291942
0.000284352
0.000284357
0.000284363
0.000258047
0.00025805
0.000258055
0.000205713
0.000205715
0.000205719
0.000124409
0.000124409
0.000124411
3.83532e-05
3.83531e-05
3.83532e-05
3.87761e-05
3.87761e-05
3.87761e-05
0.000119867
0.000119868
0.00011987
0.000205709
0.000205711
0.000205715
0.000267505
0.000267509
0.000267515
0.000302499
0.000302505
0.000302512
0.00031622
0.000316229
0.000316236
0.000315552
0.000315562
0.000315568
0.000307791
0.000307801
0.000307807
0.000299258
0.000299268
0.000299273
0.00029371
0.000293719
0.000293724
0.000292007
0.000292015
0.00029202
0.000293107
0.000293114
0.000293118
0.000295363
0.000295369
0.000295374
0.000297481
0.000297487
0.000297491
0.000298755
0.000298761
0.000298765
0.000298755
0.00029876
0.000298765
0.000297479
0.000297485
0.000297489
0.00029536
0.000295367
0.000295371
0.000293104
0.000293111
0.000293116
0.000292006
0.000292014
0.000292018
0.000293702
0.00029371
0.000293715
0.000299248
0.000299258
0.000299263
0.000307778
0.000307787
0.000307793
0.000315536
0.000315545
0.000315552
0.000316202
0.00031621
0.000316217
0.000302479
0.000302486
0.000302493
0.000267486
0.00026749
0.000267496
0.000205691
0.000205693
0.000205697
0.000119858
0.000119858
0.00011986
3.87744e-05
3.87743e-05
3.87744e-05
3.91727e-05
3.91727e-05
3.91727e-05
0.000114273
0.000114273
0.000114275
0.000200976
0.000200977
0.000200982
0.000271159
0.000271164
0.00027117
0.000315484
0.000315492
0.0003155
0.000336804
0.000336814
0.000336823
0.000340759
0.000340772
0.00034078
0.000334097
0.000334112
0.000334119
0.000323745
0.00032376
0.000323766
0.000315074
0.000315088
0.000315094
0.000310548
0.000310562
0.000310567
0.000309879
0.000309892
0.000309897
0.000311332
0.000311344
0.000311349
0.000313205
0.000313217
0.000313221
0.000314447
0.000314458
0.000314463
0.000314446
0.000314457
0.000314462
0.000313204
0.000313215
0.00031322
0.00031133
0.000311342
0.000311347
0.000309878
0.00030989
0.000309895
0.000310549
0.000310563
0.000310568
0.000315064
0.000315078
0.000315084
0.000323733
0.000323748
0.000323754
0.000334082
0.000334096
0.000334104
0.00034074
0.000340753
0.000340761
0.000336783
0.000336794
0.000336802
0.000315463
0.00031547
0.000315478
0.000271138
0.000271142
0.000271149
0.000200956
0.000200957
0.000200962
0.000114263
0.000114263
0.000114264
3.9171e-05
3.91709e-05
3.9171e-05
3.95449e-05
3.95449e-05
3.95449e-05
0.000108249
0.000108249
0.000108251
0.00019182
0.000191821
0.000191825
0.000268379
0.000268383
0.00026839
0.00032237
0.000322378
0.000322386
0.000352712
0.000352725
0.000352734
0.000363216
0.000363234
0.000363242
0.000359464
0.000359484
0.000359493
0.000348204
0.000348225
0.000348233
0.000336099
0.000336121
0.000336128
0.000327693
0.000327714
0.000327721
0.000324193
0.000324214
0.000324219
0.00032416
0.00032418
0.000324185
0.000325464
0.000325483
0.000325489
0.000326559
0.000326578
0.000326583
0.000326559
0.000326578
0.000326583
0.000325463
0.000325482
0.000325488
0.000324159
0.000324179
0.000324184
0.000324194
0.000324214
0.00032422
0.000327697
0.000327718
0.000327724
0.000336087
0.000336109
0.000336116
0.00034819
0.000348211
0.000348219
0.000359447
0.000359467
0.000359475
0.000363196
0.000363212
0.000363222
0.00035269
0.000352702
0.000352711
0.000322347
0.000322355
0.000322363
0.000268356
0.00026836
0.000268367
0.000191799
0.0001918
0.000191804
0.000108239
0.000108239
0.000108241
3.95432e-05
3.95432e-05
3.95432e-05
3.98806e-05
3.98806e-05
3.98806e-05
0.000102521
0.000102521
0.000102522
0.000179432
0.000179432
0.000179436
0.000259432
0.000259435
0.000259442
0.000323065
0.000323072
0.000323081
0.000363834
0.000363848
0.000363858
0.000382815
0.000382836
0.000382846
0.000384011
0.000384036
0.000384046
0.00037338
0.000373409
0.000373419
0.000358234
0.000358264
0.000358273
0.000345228
0.000345258
0.000345267
0.000337807
0.000337837
0.000337844
0.00033547
0.000335499
0.000335506
0.000335794
0.000335823
0.000335829
0.000336596
0.000336625
0.000336631
0.000336596
0.000336625
0.000336631
0.000335793
0.000335823
0.000335828
0.00033547
0.000335499
0.000335506
0.00033781
0.00033784
0.000337847
0.000345235
0.000345266
0.000345273
0.000358219
0.00035825
0.000358259
0.000373363
0.000373392
0.000373401
0.00038399
0.000384015
0.000384025
0.000382792
0.000382812
0.000382822
0.00036381
0.000363824
0.000363834
0.000323041
0.000323048
0.000323057
0.000259408
0.000259411
0.000259418
0.000179412
0.000179411
0.000179415
0.000102512
0.000102512
0.000102513
3.9879e-05
3.98789e-05
3.98789e-05
4.01552e-05
4.01552e-05
4.01552e-05
9.7887e-05
9.78867e-05
9.78875e-05
0.000166381
0.00016638
0.000166384
0.000246561
0.000246562
0.000246568
0.000319124
0.00031913
0.000319139
0.000371197
0.000371212
0.000371222
0.000399876
0.000399899
0.00039991
0.000407492
0.000407522
0.000407534
0.000399228
0.000399263
0.000399275
0.000382506
0.000382544
0.000382556
0.000365486
0.000365527
0.000365536
0.000353945
0.000353988
0.000353993
0.000348906
0.000348948
0.000348952
0.000347994
0.000348038
0.00034804
0.000348407
0.000348451
0.000348453
0.000348407
0.000348451
0.000348453
0.000347994
0.000348038
0.00034804
0.000348907
0.000348949
0.000348954
0.000353951
0.000353994
0.000353999
0.000365494
0.000365535
0.000365543
0.000382486
0.000382525
0.000382537
0.000399204
0.000399239
0.000399251
0.000407466
0.000407495
0.000407507
0.000399848
0.000399871
0.000399882
0.000371171
0.000371185
0.000371196
0.000319099
0.000319105
0.000319114
0.000246537
0.000246537
0.000246543
0.000166362
0.000166361
0.000166364
9.78791e-05
9.78787e-05
9.78794e-05
4.01536e-05
4.01535e-05
4.01535e-05
4.03267e-05
4.03267e-05
4.03267e-05
9.51402e-05
9.51399e-05
9.51405e-05
0.000156979
0.000156978
0.00015698
0.000235487
0.000235486
0.000235491
0.000314382
0.000314386
0.000314394
0.000375676
0.000375689
0.0003757
0.000412315
0.000412337
0.000412349
0.000425404
0.000425434
0.000425447
0.000419931
0.00041997
0.000419981
0.000403397
0.000403444
0.000403452
0.000384608
0.00038466
0.000384666
0.000370693
0.000370749
0.000370751
0.000363893
0.000363948
0.000363951
0.000362129
0.000362186
0.000362187
0.000362269
0.000362327
0.000362328
0.000362269
0.000362326
0.000362328
0.000362129
0.000362186
0.000362187
0.000363895
0.00036395
0.000363953
0.0003707
0.000370756
0.000370758
0.000384617
0.000384668
0.000384674
0.000403373
0.000403419
0.00040343
0.000419902
0.00041994
0.000419952
0.000425371
0.000425402
0.000425415
0.000412284
0.000412306
0.000412318
0.000375649
0.000375661
0.000375671
0.000314356
0.00031436
0.000314368
0.000235463
0.000235462
0.000235467
0.000156961
0.000156959
0.000156961
9.51333e-05
9.51329e-05
9.51334e-05
4.03251e-05
4.03251e-05
4.03251e-05
)
;

boundaryField
{
    freeSurface
    {
        type            slip;
    }
    inlet
    {
        type            cyclic;
    }
    outlet
    {
        type            cyclic;
    }
    sidewalls
    {
        type            nutkWallFunction;
        Cmu             0.09;
        kappa           0.41;
        E               9.8;
        value           nonuniform List<scalar> 
144
(
1.75663e-06
2.17994e-06
2.39521e-06
2.60675e-06
2.81531e-06
3.02087e-06
3.2226e-06
3.41887e-06
3.60726e-06
3.78486e-06
3.94852e-06
4.09545e-06
4.22378e-06
4.33306e-06
4.42452e-06
4.50094e-06
4.56597e-06
4.62335e-06
4.67602e-06
4.72554e-06
4.77196e-06
4.81378e-06
4.84795e-06
4.86928e-06
1.75663e-06
2.17994e-06
2.39521e-06
2.60675e-06
2.8153e-06
3.02086e-06
3.2226e-06
3.41886e-06
3.60726e-06
3.78485e-06
3.94851e-06
4.09545e-06
4.22377e-06
4.33305e-06
4.42452e-06
4.50093e-06
4.56597e-06
4.62335e-06
4.67601e-06
4.72554e-06
4.77196e-06
4.81378e-06
4.84795e-06
4.86927e-06
1.75663e-06
2.17994e-06
2.39522e-06
2.60675e-06
2.81531e-06
3.02087e-06
3.22261e-06
3.41887e-06
3.60727e-06
3.78486e-06
3.94852e-06
4.09545e-06
4.22378e-06
4.33306e-06
4.42453e-06
4.50094e-06
4.56598e-06
4.62336e-06
4.67602e-06
4.72555e-06
4.77196e-06
4.81378e-06
4.84795e-06
4.86927e-06
1.75651e-06
2.17982e-06
2.39509e-06
2.60662e-06
2.81517e-06
3.02073e-06
3.22246e-06
3.41872e-06
3.60711e-06
3.78469e-06
3.94835e-06
4.09527e-06
4.22359e-06
4.33286e-06
4.42433e-06
4.50074e-06
4.56577e-06
4.62314e-06
4.6758e-06
4.72533e-06
4.77175e-06
4.81358e-06
4.84775e-06
4.86909e-06
1.75651e-06
2.17982e-06
2.39509e-06
2.60662e-06
2.81517e-06
3.02073e-06
3.22246e-06
3.41871e-06
3.6071e-06
3.78469e-06
3.94834e-06
4.09527e-06
4.22359e-06
4.33286e-06
4.42432e-06
4.50073e-06
4.56576e-06
4.62314e-06
4.6758e-06
4.72532e-06
4.77174e-06
4.81357e-06
4.84775e-06
4.86908e-06
1.75652e-06
2.17982e-06
2.39509e-06
2.60663e-06
2.81518e-06
3.02073e-06
3.22246e-06
3.41872e-06
3.60711e-06
3.7847e-06
3.94835e-06
4.09528e-06
4.2236e-06
4.33287e-06
4.42433e-06
4.50074e-06
4.56577e-06
4.62314e-06
4.6758e-06
4.72533e-06
4.77175e-06
4.81357e-06
4.84775e-06
4.86908e-06
)
;
    }
    noSlipWalls
    {
        type            nutkWallFunction;
        Cmu             0.09;
        kappa           0.41;
        E               9.8;
        value           uniform 0;
    }
}


// ************************************************************************* //
