/*--------------------------------*- C++ -*----------------------------------*\
  =========                 |
  \\      /  F ield         | OpenFOAM: The Open Source CFD Toolbox
   \\    /   O peration     | Website:  https://openfoam.org
    \\  /    A nd           | Version:  6
     \\/     M anipulation  |
\*---------------------------------------------------------------------------*/
FoamFile
{
    version     2.0;
    format      ascii;
    class       surfaceScalarField;
    location    "100";
    object      phi;
}
// * * * * * * * * * * * * * * * * * * * * * * * * * * * * * * * * * * * * * //

dimensions      [0 3 -1 0 0 0 0];

internalField   nonuniform List<scalar> 
5598
(
5.34504e-07
-2.61848e-14
5.1255e-13
5.34504e-07
2.55905e-13
-5.02581e-13
-1.7902e-13
-6.01735e-14
7.99833e-07
-3.40877e-15
1.25687e-12
7.99834e-07
1.55773e-13
-1.05754e-12
-1.66889e-13
-1.34115e-13
1.0733e-06
4.46906e-13
1.42012e-12
1.0733e-06
-2.96568e-13
-1.21952e-12
-1.72695e-13
-1.92773e-13
1.3589e-06
1.08357e-12
1.73003e-12
1.3589e-06
-1.00722e-12
-1.39428e-12
-9.47822e-14
-3.39671e-13
1.67851e-06
1.71668e-12
2.15779e-12
1.67852e-06
-1.77432e-12
-1.69084e-12
4.16933e-14
-4.69446e-13
2.04407e-06
2.22414e-12
2.68411e-12
2.04408e-06
-2.42218e-12
-2.12132e-12
1.84634e-13
-5.65337e-13
2.46723e-06
2.48541e-12
3.28689e-12
2.46723e-06
-2.79251e-12
-2.62379e-12
2.93268e-13
-6.62682e-13
2.96103e-06
2.5136e-12
4.0441e-12
2.96104e-06
-2.88485e-12
-3.25128e-12
3.59563e-13
-7.94959e-13
3.54022e-06
2.26538e-12
4.92913e-12
3.54023e-06
-2.61997e-12
-3.99592e-12
3.4681e-13
-9.37139e-13
4.22047e-06
1.90991e-12
5.7488e-12
4.22047e-06
-2.10816e-12
-4.72356e-12
2.02041e-13
-1.03682e-12
5.017e-06
1.46796e-12
6.58228e-12
5.017e-06
-1.51119e-12
-5.32933e-12
6.67218e-14
-1.27265e-12
5.9431e-06
9.15695e-13
7.63242e-12
5.94311e-06
-8.45925e-13
-6.0921e-12
-1.37929e-14
-1.57282e-12
7.00971e-06
3.7102e-13
8.60533e-12
7.00972e-06
-2.69059e-13
-6.73332e-12
-2.61549e-14
-1.89195e-12
8.22669e-06
3.49204e-14
9.52855e-12
8.2267e-06
1.9265e-14
-7.26084e-12
2.26389e-14
-2.26865e-12
9.60335e-06
-4.0189e-14
1.05449e-11
9.60336e-06
5.23014e-14
-7.90777e-12
7.83979e-14
-2.65078e-12
9.60328e-06
-1.40225e-13
1.05642e-11
9.60329e-06
8.23438e-14
-7.90014e-12
1.34643e-13
-2.65033e-12
8.22651e-06
-4.98407e-13
9.53791e-12
8.22652e-06
3.62779e-13
-7.24776e-12
1.86546e-13
-2.26432e-12
7.00948e-06
-1.06209e-12
8.60257e-12
7.00948e-06
9.32834e-13
-6.72098e-12
1.64279e-13
-1.86567e-12
5.94286e-06
-1.62404e-12
7.62662e-12
5.94286e-06
1.57666e-12
-6.05809e-12
7.13261e-14
-1.55746e-12
5.01676e-06
-2.06858e-12
6.54341e-12
5.01676e-06
2.16351e-12
-5.27123e-12
-7.8948e-14
-1.2642e-12
4.22023e-06
-2.45041e-12
5.75239e-12
4.22024e-06
2.66013e-12
-4.70778e-12
-2.01458e-13
-1.0369e-12
3.54001e-06
-2.70168e-12
4.90789e-12
3.54001e-06
2.90703e-12
-3.96039e-12
-2.02316e-13
-9.42272e-13
2.96085e-06
-2.68112e-12
4.0379e-12
2.96085e-06
2.81254e-12
-3.23581e-12
-1.32745e-13
-7.97729e-13
2.46707e-06
-2.40222e-12
3.26197e-12
2.46707e-06
2.41359e-12
-2.58497e-12
-1.5274e-14
-6.7441e-13
2.04394e-06
-1.85458e-12
2.6424e-12
2.04395e-06
1.72885e-12
-2.07396e-12
1.21e-13
-5.67614e-13
1.67841e-06
-1.15303e-12
2.09668e-12
1.67841e-06
9.22175e-13
-1.64845e-12
2.26957e-13
-4.49065e-13
1.35881e-06
-4.61682e-13
1.67643e-12
1.35881e-06
1.96121e-13
-1.36649e-12
2.63181e-13
-3.11459e-13
1.07323e-06
3.43784e-14
1.37555e-12
1.07323e-06
-2.42785e-13
-1.22251e-12
2.07772e-13
-1.54781e-13
7.99786e-07
1.12494e-13
1.19454e-12
7.99787e-07
-2.949e-13
-1.09049e-12
1.83371e-13
-1.05647e-13
5.34473e-07
5.99158e-13
5.34473e-07
-5.389e-13
-5.92931e-14
7.5065e-07
-1.53755e-13
1.25021e-12
7.50651e-07
3.68458e-13
-1.17156e-12
-2.40181e-13
-1.0338e-13
1.23917e-06
-3.70785e-14
2.68053e-12
1.23917e-06
2.25217e-13
-2.24761e-12
-2.539e-13
-3.27426e-13
1.63477e-06
6.47031e-13
3.00598e-12
1.63477e-06
-4.45342e-13
-2.50153e-12
-2.54106e-13
-5.09962e-13
2.0458e-06
1.59034e-12
3.6779e-12
2.0458e-06
-1.47095e-12
-2.84945e-12
-1.5868e-13
-8.45499e-13
2.50456e-06
2.51335e-12
4.66457e-12
2.50456e-06
-2.57452e-12
-3.50551e-12
3.23892e-14
-1.17207e-12
3.02845e-06
3.24433e-12
5.89042e-12
3.02846e-06
-3.49391e-12
-4.50281e-12
2.25797e-13
-1.39516e-12
3.63396e-06
3.62393e-12
7.3043e-12
3.63396e-06
-4.02355e-12
-5.67714e-12
3.76929e-13
-1.62783e-12
4.33928e-06
3.64474e-12
9.06983e-12
4.33929e-06
-4.12703e-12
-7.14605e-12
4.62235e-13
-1.92855e-12
5.16484e-06
3.28459e-12
1.10752e-11
5.16484e-06
-3.73184e-12
-8.83484e-12
4.34324e-13
-2.25143e-12
6.13246e-06
2.75425e-12
1.29572e-11
6.13246e-06
-2.98653e-12
-1.04775e-11
2.3687e-13
-2.50881e-12
7.26376e-06
2.10962e-12
1.4809e-11
7.26376e-06
-2.12447e-12
-1.17872e-11
4.83074e-14
-3.07034e-12
8.57845e-06
1.31447e-12
1.71023e-11
8.57845e-06
-1.17989e-12
-1.33583e-11
-5.52605e-14
-3.82231e-12
1.00938e-05
5.37266e-13
1.92339e-11
1.00938e-05
-3.64538e-13
-1.46642e-11
-5.87244e-14
-4.62437e-12
1.18266e-05
6.12976e-14
2.1223e-11
1.18266e-05
4.18383e-14
-1.56886e-11
1.89592e-14
-5.54336e-12
1.37934e-05
-5.74938e-14
2.34332e-11
1.37934e-05
7.77343e-14
-1.69812e-11
1.11865e-13
-6.47565e-12
1.37933e-05
-2.06447e-13
2.34758e-11
1.37933e-05
1.10087e-13
-1.6965e-11
2.05287e-13
-6.47373e-12
1.18263e-05
-7.16074e-13
2.12494e-11
1.18263e-05
5.07406e-13
-1.56597e-11
2.82119e-13
-5.52842e-12
1.00935e-05
-1.52962e-12
1.92416e-11
1.00935e-05
1.30888e-12
-1.46298e-11
2.70741e-13
-4.57243e-12
8.57814e-06
-2.344e-12
1.70968e-11
8.57815e-06
2.22986e-12
-1.32843e-11
1.48286e-13
-3.78556e-12
7.26346e-06
-2.9878e-12
1.47254e-11
7.26347e-06
3.07163e-12
-1.1657e-11
-6.13591e-14
-3.04877e-12
6.13216e-06
-3.54916e-12
1.296e-11
6.13216e-06
3.79046e-12
-1.04308e-11
-2.29445e-13
-2.51096e-12
5.16457e-06
-3.92622e-12
1.10406e-11
5.16457e-06
4.1623e-12
-8.75484e-12
-2.31762e-13
-2.27299e-12
4.33905e-06
-3.90871e-12
9.04987e-12
4.33906e-06
4.0437e-12
-7.09897e-12
-1.36706e-13
-1.94051e-12
3.63377e-06
-3.50673e-12
7.24779e-12
3.63377e-06
3.47661e-12
-5.58762e-12
2.48734e-14
-1.65406e-12
3.02829e-06
-2.72015e-12
5.79015e-12
3.02829e-06
2.50684e-12
-4.39179e-12
2.06777e-13
-1.39624e-12
2.50442e-06
-1.71061e-12
4.52504e-12
2.50443e-06
1.3499e-12
-3.40389e-12
3.5518e-13
-1.123e-12
2.04569e-06
-6.88281e-13
3.55043e-12
2.04569e-06
2.95652e-13
-2.77964e-12
3.89233e-13
-7.74433e-13
1.63468e-06
3.77728e-14
2.92273e-12
1.63468e-06
-3.55754e-13
-2.51185e-12
3.17121e-13
-4.15165e-13
1.23911e-06
1.78352e-13
2.58774e-12
1.23911e-06
-4.2758e-13
-2.33514e-12
2.50352e-13
-2.56193e-13
7.50613e-07
1.36244e-12
7.50613e-07
-1.26327e-12
-9.70722e-14
9.6294e-07
-2.24535e-13
2.17274e-12
9.62941e-07
4.85148e-13
-2.01855e-12
-2.9482e-13
-1.44718e-13
1.63802e-06
-5.77651e-14
4.32634e-12
1.63802e-06
3.09772e-13
-3.58659e-12
-3.24927e-13
-5.95543e-13
2.1531e-06
8.15247e-13
4.82634e-12
2.1531e-06
-5.49118e-13
-3.89081e-12
-3.29634e-13
-9.50458e-13
2.68711e-06
2.02584e-12
5.92303e-12
2.68712e-06
-1.85657e-12
-4.42787e-12
-2.18582e-13
-1.5264e-12
3.28177e-06
3.21178e-12
7.60067e-12
3.28177e-06
-3.2648e-12
-5.51481e-12
1.67389e-14
-2.11189e-12
3.95996e-06
4.1512e-12
9.6987e-12
3.95996e-06
-4.4362e-12
-7.20842e-12
2.54607e-13
-2.50373e-12
4.74304e-06
4.64468e-12
1.21321e-11
4.74305e-06
-5.11591e-12
-9.2146e-12
4.4253e-13
-2.91985e-12
5.6544e-06
4.67252e-12
1.51566e-11
5.65441e-06
-5.24742e-12
-1.17184e-11
5.49449e-13
-3.44617e-12
6.72019e-06
4.21341e-12
1.85374e-11
6.72019e-06
-4.74556e-12
-1.45468e-11
5.16135e-13
-4.01108e-12
7.9684e-06
3.52958e-12
2.17362e-11
7.96841e-06
-3.79669e-12
-1.72905e-11
2.7365e-13
-4.49739e-12
9.42694e-06
2.69954e-12
2.48263e-11
9.42694e-06
-2.69742e-12
-1.94215e-11
4.13341e-14
-5.49035e-12
1.11216e-05
1.67779e-12
2.85932e-11
1.11216e-05
-1.49486e-12
-2.18775e-11
-8.13655e-14
-6.8522e-12
1.30754e-05
6.8199e-13
3.21052e-11
1.30754e-05
-4.59755e-13
-2.38955e-11
-7.77658e-14
-8.30736e-12
1.53112e-05
7.50768e-14
3.5346e-11
1.53112e-05
5.48082e-14
-2.54174e-11
2.37105e-14
-9.94662e-12
1.78521e-05
-7.37359e-14
3.8964e-11
1.78521e-05
9.93406e-14
-2.73931e-11
1.41712e-13
-1.16082e-11
1.7852e-05
-2.5984e-13
3.90353e-11
1.7852e-05
1.38487e-13
-2.73663e-11
2.60995e-13
-1.16043e-11
1.5311e-05
-9.0842e-13
3.53933e-11
1.5311e-05
6.41731e-13
-2.5369e-11
3.61117e-13
-9.91784e-12
1.30751e-05
-1.94965e-12
3.21279e-11
1.30751e-05
1.65794e-12
-2.38315e-11
3.55947e-13
-8.22678e-12
1.11212e-05
-2.99601e-12
2.85899e-11
1.11212e-05
2.83121e-12
-2.1754e-11
2.08819e-13
-6.7887e-12
9.42658e-06
-3.82541e-12
2.4695e-11
9.42658e-06
3.90418e-12
-1.92087e-11
-4.97542e-14
-5.45164e-12
7.96804e-06
-4.54775e-12
2.17364e-11
7.96804e-06
4.81955e-12
-1.7203e-11
-2.56395e-13
-4.5015e-12
6.71986e-06
-5.03063e-12
1.84901e-11
6.71987e-06
5.29349e-12
-1.44145e-11
-2.57253e-13
-4.05308e-12
5.65412e-06
-5.00577e-12
1.51192e-11
5.65412e-06
5.14149e-12
-1.1631e-11
-1.37924e-13
-3.46997e-12
4.7428e-06
-4.48496e-12
1.20373e-11
4.7428e-06
4.41501e-12
-9.06212e-12
6.31502e-14
-2.9645e-12
3.95976e-06
-3.47369e-12
9.52262e-12
3.95976e-06
3.17865e-12
-7.01655e-12
2.8657e-13
-2.50227e-12
3.2816e-06
-2.1783e-12
7.36161e-12
3.28161e-06
1.70302e-12
-5.33714e-12
4.68079e-13
-2.0276e-12
2.68698e-06
-8.63458e-13
5.70011e-12
2.68698e-06
3.58106e-13
-4.30514e-12
5.00885e-13
-1.40134e-12
2.153e-06
7.0496e-14
4.68727e-12
2.153e-06
-4.77186e-13
-3.91052e-12
4.05498e-13
-7.84296e-13
1.63794e-06
2.55146e-13
4.2095e-12
1.63794e-06
-5.62483e-13
-3.74471e-12
3.08651e-13
-4.70885e-13
9.62895e-07
2.31676e-12
9.62896e-07
-2.18271e-12
-1.30646e-13
1.23227e-06
-3.20501e-13
3.34075e-12
1.23227e-06
6.25116e-13
-3.09048e-12
-3.51621e-13
-1.93793e-13
2.08613e-06
-9.63362e-14
6.21364e-12
2.08614e-06
4.12029e-13
-5.07538e-12
-3.99281e-13
-9.5747e-13
2.73828e-06
9.86869e-13
6.9004e-12
2.73829e-06
-6.49052e-13
-5.38864e-12
-4.16022e-13
-1.53208e-12
3.41435e-06
2.48949e-12
8.50268e-12
3.41436e-06
-2.26087e-12
-6.14091e-12
-2.90703e-13
-2.40914e-12
4.16546e-06
3.96617e-12
1.10218e-11
4.16546e-06
-4.00053e-12
-7.74221e-12
-1.1704e-14
-3.32163e-12
5.02079e-06
5.13949e-12
1.41864e-11
5.02079e-06
-5.45067e-12
-1.02718e-11
2.72553e-13
-3.93542e-12
6.00739e-06
5.7641e-12
1.78765e-11
6.0074e-06
-6.29829e-12
-1.32855e-11
4.98016e-13
-4.59586e-12
7.15468e-06
5.80688e-12
2.24458e-11
7.15469e-06
-6.46612e-12
-1.70345e-11
6.27221e-13
-5.42347e-12
8.49544e-06
5.24115e-12
2.74926e-11
8.49545e-06
-5.84948e-12
-2.12115e-11
5.88433e-13
-6.3138e-12
1.00648e-05
4.38963e-12
3.22957e-11
1.00648e-05
-4.67829e-12
-2.52524e-11
2.97196e-13
-7.1234e-12
1.18978e-05
3.3537e-12
3.6883e-11
1.18978e-05
-3.31916e-12
-2.83339e-11
1.9967e-14
-8.68059e-12
1.40272e-05
2.08054e-12
4.23831e-11
1.40272e-05
-1.8336e-12
-3.17516e-11
-1.20124e-13
-1.08404e-11
1.64829e-05
8.4225e-13
4.75228e-11
1.64829e-05
-5.57827e-13
-3.45228e-11
-1.04747e-13
-1.31506e-11
1.92942e-05
9.00038e-14
5.22244e-11
1.92942e-05
7.33104e-14
-3.65291e-11
2.67036e-14
-1.57237e-11
2.24915e-05
-9.1481e-14
5.74925e-11
2.24915e-05
1.23811e-13
-3.92179e-11
1.75428e-13
-1.83297e-11
2.24914e-05
-3.18596e-13
5.75986e-11
2.24914e-05
1.67143e-13
-3.91783e-11
3.25698e-13
-1.83221e-11
1.92938e-05
-1.12183e-12
5.2297e-11
1.92939e-05
7.8454e-13
-3.64571e-11
4.55221e-13
-1.56771e-11
1.64824e-05
-2.41656e-12
4.75662e-11
1.64824e-05
2.03659e-12
-3.44215e-11
4.6022e-13
-1.30374e-11
1.40268e-05
-3.72076e-12
4.23841e-11
1.40268e-05
3.48597e-12
-3.15673e-11
2.89865e-13
-1.07445e-11
1.18974e-05
-4.75577e-12
3.67007e-11
1.18974e-05
4.81205e-12
-2.80279e-11
-1.99011e-14
-8.61944e-12
1.00643e-05
-5.65398e-12
3.22901e-11
1.00643e-05
5.9412e-12
-2.51127e-11
-2.67826e-13
-7.12853e-12
8.49504e-06
-6.24977e-12
2.74322e-11
8.49505e-06
6.52338e-12
-2.1017e-11
-2.66467e-13
-6.38033e-12
7.15434e-06
-6.20997e-12
2.23871e-11
7.15434e-06
6.32917e-12
-1.6897e-11
-1.21835e-13
-5.4622e-12
6.0071e-06
-5.55197e-12
1.77357e-11
6.00711e-06
5.42414e-12
-1.30562e-11
1.19418e-13
-4.66301e-12
5.02054e-06
-4.28991e-12
1.39166e-11
5.02055e-06
3.89392e-12
-9.98136e-12
3.85475e-13
-3.92936e-12
4.16526e-06
-2.67869e-12
1.06607e-11
4.16526e-06
2.07178e-12
-7.46993e-12
5.97953e-13
-3.19546e-12
3.41419e-06
-1.04603e-12
8.16226e-12
3.4142e-06
4.13707e-13
-5.95285e-12
6.26698e-13
-2.21913e-12
2.73816e-06
1.1899e-13
6.68642e-12
2.73816e-06
-6.19606e-13
-5.41808e-12
4.9902e-13
-1.27991e-12
2.08604e-06
3.55173e-13
6.07923e-12
2.08605e-06
-7.23504e-13
-5.31957e-12
3.6983e-13
-7.68847e-13
1.23221e-06
3.52051e-12
1.23221e-06
-3.34633e-12
-1.69281e-13
1.57304e-06
-4.61694e-13
4.84268e-12
1.57304e-06
7.93674e-13
-4.4467e-12
-4.08516e-13
-2.62967e-13
2.60843e-06
-1.6119e-13
8.36412e-12
2.60844e-06
5.36877e-13
-6.72706e-12
-4.81336e-13
-1.42716e-12
3.42015e-06
1.16506e-12
9.24711e-12
3.42015e-06
-7.47042e-13
-7.00132e-12
-5.17901e-13
-2.27187e-12
4.26417e-06
2.99578e-12
1.14521e-11
4.26418e-06
-2.69554e-12
-8.00407e-12
-3.79972e-13
-3.51553e-12
5.20017e-06
4.8014e-12
1.49829e-11
5.20018e-06
-4.80525e-12
-1.02141e-11
-5.55397e-14
-4.83123e-12
6.26444e-06
6.24276e-12
1.94335e-11
6.26444e-06
-6.57125e-12
-1.3732e-11
2.79038e-13
-5.73232e-12
7.49068e-06
7.02241e-12
2.46499e-11
7.49069e-06
-7.61271e-12
-1.79464e-11
5.44495e-13
-6.71192e-12
8.91547e-06
7.08903e-12
3.10932e-11
8.91548e-06
-7.82639e-12
-2.31748e-11
6.96976e-13
-7.93602e-12
1.05794e-05
6.40645e-12
3.81382e-11
1.05794e-05
-7.08288e-12
-2.89281e-11
6.51525e-13
-9.25826e-12
1.25261e-05
5.36657e-12
4.48734e-11
1.25261e-05
-5.66201e-12
-3.4479e-11
3.06058e-13
-1.051e-11
1.47991e-05
4.09636e-12
5.12593e-11
1.47991e-05
-4.01015e-12
-3.86533e-11
-1.91351e-14
-1.27939e-11
1.74393e-05
2.53746e-12
5.87872e-11
1.74393e-05
-2.20623e-12
-4.31111e-11
-1.75189e-13
-1.59739e-11
2.04844e-05
1.02358e-12
6.58314e-11
2.04844e-05
-6.60122e-13
-4.66717e-11
-1.42072e-13
-1.93756e-11
2.39717e-05
1.0658e-13
7.2227e-11
2.39717e-05
9.98197e-14
-4.91317e-11
2.71591e-14
-2.31359e-11
2.79402e-05
-1.11626e-13
7.94174e-11
2.79402e-05
1.52392e-13
-5.25532e-11
2.14389e-13
-2.69409e-11
2.794e-05
-3.84978e-13
7.95652e-11
2.794e-05
1.96031e-13
-5.2499e-11
4.03023e-13
-2.6927e-11
2.39713e-05
-1.36416e-12
7.23303e-11
2.39713e-05
9.39747e-13
-4.90318e-11
5.6937e-13
-2.30666e-11
2.04838e-05
-2.9485e-12
6.59033e-11
2.04839e-05
2.45699e-12
-4.65249e-11
5.90192e-13
-1.92249e-11
1.74388e-05
-4.54663e-12
5.8796e-11
1.74388e-05
4.21691e-12
-4.28533e-11
3.97482e-13
-1.58395e-11
1.47985e-05
-5.81484e-12
5.10224e-11
1.47985e-05
5.82756e-12
-3.82421e-11
3.21266e-14
-1.27041e-11
1.25256e-05
-6.90998e-12
4.48572e-11
1.25256e-05
7.19549e-12
-3.42733e-11
-2.61476e-13
-1.05141e-11
1.05789e-05
-7.62949e-12
3.80639e-11
1.0579e-05
7.89575e-12
-2.86597e-11
-2.57257e-13
-9.35432e-12
8.91505e-06
-7.5654e-12
3.10086e-11
8.91506e-06
7.64786e-12
-2.29749e-11
-8.54327e-14
-7.99371e-12
7.49033e-06
-6.74523e-12
2.4454e-11
7.49034e-06
6.53687e-12
-1.76247e-11
1.98277e-13
-6.80571e-12
6.26414e-06
-5.19727e-12
1.90515e-11
6.26415e-06
4.67488e-12
-1.33239e-11
5.0971e-13
-5.71912e-12
5.19993e-06
-3.23026e-12
1.44764e-11
5.19994e-06
2.46647e-12
-9.82661e-12
7.52925e-13
-4.65632e-12
4.26398e-06
-1.24272e-12
1.09714e-11
4.26398e-06
4.62144e-13
-7.73399e-12
7.73703e-13
-3.25107e-12
3.42e-06
1.8439e-13
8.94109e-12
3.42e-06
-7.90048e-13
-7.03862e-12
6.03586e-13
-1.91885e-12
2.60833e-06
4.86456e-13
8.22332e-12
2.60833e-06
-9.1741e-13
-7.07255e-12
4.32608e-13
-1.16369e-12
1.57297e-06
5.04781e-12
1.57298e-06
-4.81689e-12
-2.24371e-13
2.00263e-06
-6.54929e-13
6.7867e-12
2.00263e-06
9.97977e-13
-6.16475e-12
-4.62867e-13
-3.69134e-13
3.22692e-06
-2.57845e-13
1.08157e-11
3.22693e-06
6.92285e-13
-8.57028e-12
-5.73652e-13
-2.01617e-12
4.22469e-06
1.34832e-12
1.19e-11
4.22469e-06
-8.37411e-13
-8.75212e-12
-6.39918e-13
-3.18414e-12
5.26865e-06
3.54816e-12
1.4819e-11
5.26866e-06
-3.16017e-12
-1.0053e-11
-4.90912e-13
-4.85968e-12
6.42533e-06
5.72623e-12
1.9553e-11
6.42533e-06
-5.68547e-12
-1.29812e-11
-1.17621e-13
-6.66018e-12
7.73864e-06
7.47524e-12
2.55387e-11
7.73864e-06
-7.8118e-12
-1.76583e-11
2.73195e-13
-7.92479e-12
9.25008e-06
8.4393e-12
3.25891e-11
9.25009e-06
-9.07963e-12
-2.32906e-11
5.82327e-13
-9.31236e-12
1.10047e-05
8.54188e-12
4.12895e-11
1.10047e-05
-9.3524e-12
-3.02631e-11
7.59653e-13
-1.10512e-11
1.30525e-05
7.73179e-12
5.0715e-11
1.30525e-05
-8.46914e-12
-3.78466e-11
7.06135e-13
-1.29362e-11
1.54471e-05
6.48013e-12
5.97592e-11
1.54471e-05
-6.76674e-12
-4.51444e-11
2.99463e-13
-1.47745e-11
1.82422e-05
4.94237e-12
6.8296e-11
1.82422e-05
-4.783e-12
-5.05735e-11
-7.78518e-14
-1.79791e-11
2.14886e-05
3.05712e-12
7.81871e-11
2.14886e-05
-2.61848e-12
-5.61571e-11
-2.48657e-13
-2.24363e-11
2.52331e-05
1.22821e-12
8.7444e-11
2.52331e-05
-7.66629e-13
-6.05391e-11
-1.91012e-13
-2.72015e-11
2.95227e-05
1.23797e-13
9.57918e-11
2.95227e-05
1.36345e-13
-6.33994e-11
2.49465e-14
-3.24475e-11
3.44062e-05
-1.34831e-13
1.0521e-10
3.44062e-05
1.85806e-13
-6.75617e-11
2.59587e-13
-3.775e-11
3.4406e-05
-4.59533e-13
1.05407e-10
3.4406e-05
2.24508e-13
-6.74908e-11
4.95157e-13
-3.77262e-11
2.95222e-05
-1.63944e-12
9.59319e-11
2.95222e-05
1.10872e-12
-6.32671e-11
7.06939e-13
-3.2349e-11
2.52325e-05
-3.55618e-12
8.75542e-11
2.52325e-05
2.9261e-12
-6.03371e-11
7.50102e-13
-2.70074e-11
2.1488e-05
-5.49089e-12
7.82083e-11
2.1488e-05
5.03769e-12
-5.58109e-11
5.35615e-13
-2.22565e-11
1.82416e-05
-7.02473e-12
6.80007e-11
1.82416e-05
6.9704e-12
-5.0043e-11
1.08988e-13
-1.78536e-11
1.54465e-05
-8.3406e-12
5.97255e-11
1.54465e-05
8.60612e-12
-4.48569e-11
-2.36059e-13
-1.47737e-11
1.30519e-05
-9.19518e-12
5.06258e-11
1.30519e-05
9.4348e-12
-3.74899e-11
-2.28347e-13
-1.30678e-11
1.10042e-05
-9.09404e-12
4.11731e-11
1.10042e-05
9.11761e-12
-2.99859e-11
-2.67816e-14
-1.11328e-11
9.24966e-06
-8.08117e-12
3.23281e-11
9.24966e-06
7.76642e-12
-2.28585e-11
3.02923e-13
-9.43739e-12
7.73828e-06
-6.20644e-12
2.5025e-11
7.73829e-06
5.52713e-12
-1.71109e-11
6.64311e-13
-7.9025e-12
6.42504e-06
-3.83791e-12
1.88765e-11
6.42504e-06
2.88559e-12
-1.2456e-11
9.39397e-13
-6.42907e-12
5.26842e-06
-1.45271e-12
1.41736e-11
5.26842e-06
4.96425e-13
-9.67799e-12
9.48022e-13
-4.51397e-12
4.22451e-06
2.726e-13
1.14858e-11
4.22451e-06
-9.97935e-13
-8.79196e-12
7.22694e-13
-2.71582e-12
3.22679e-06
6.59836e-13
1.06807e-11
3.2268e-06
-1.15272e-12
-9.03155e-12
4.94646e-13
-1.66648e-12
2.00255e-06
6.99638e-12
2.00255e-06
-6.67628e-12
-3.11771e-13
2.54162e-06
-9.09749e-13
9.30078e-12
2.54162e-06
1.24451e-12
-8.33686e-12
-5.10918e-13
-5.34947e-13
3.96573e-06
-3.9356e-13
1.36177e-11
3.96574e-06
8.86903e-13
-1.06458e-11
-6.78737e-13
-2.73332e-12
5.17993e-06
1.53237e-12
1.49018e-11
5.17994e-06
-9.11298e-13
-1.06777e-11
-7.87854e-13
-4.27898e-12
6.4621e-06
4.14491e-12
1.86541e-11
6.4621e-06
-3.64845e-12
-1.23356e-11
-6.29194e-13
-6.4462e-12
7.88316e-06
6.74138e-12
2.47984e-11
7.88316e-06
-6.63921e-12
-1.61142e-11
-2.01572e-13
-8.80596e-12
9.49482e-06
8.84123e-12
3.25974e-11
9.49483e-06
-9.17637e-12
-2.21455e-11
2.54027e-13
-1.05145e-11
1.13474e-05
1.00246e-11
4.1829e-11
1.13475e-05
-1.07099e-11
-2.94363e-11
6.1198e-13
-1.24143e-11
1.34961e-05
1.01797e-11
5.32297e-11
1.34961e-05
-1.10599e-11
-3.84501e-11
8.1626e-13
-1.48137e-11
1.60021e-05
9.23258e-12
6.54741e-11
1.60021e-05
-1.00245e-11
-4.81501e-11
7.52875e-13
-1.74167e-11
1.89309e-05
7.74479e-12
7.72586e-11
1.89309e-05
-8.00568e-12
-5.74616e-11
2.76189e-13
-2.0011e-11
2.23487e-05
5.90266e-12
8.8354e-11
2.23487e-05
-5.64596e-12
-6.4331e-11
-1.58568e-13
-2.43625e-11
2.63178e-05
3.64561e-12
1.00985e-10
2.63178e-05
-3.073e-12
-7.11356e-11
-3.4322e-13
-3.03872e-11
3.08961e-05
1.45708e-12
1.12794e-10
3.08962e-05
-8.75427e-13
-7.63552e-11
-2.53354e-13
-3.68344e-11
3.61422e-05
1.40215e-13
1.23376e-10
3.61422e-05
1.85785e-13
-7.95335e-11
1.96128e-14
-4.39148e-11
4.21168e-05
-1.61662e-13
1.35357e-10
4.21168e-05
2.24704e-13
-8.44273e-11
3.12042e-13
-5.10616e-11
4.21166e-05
-5.42212e-13
1.35613e-10
4.21166e-05
2.50948e-13
-8.43379e-11
6.04601e-13
-5.10232e-11
3.61416e-05
-1.95032e-12
1.2356e-10
3.61416e-05
1.2909e-12
-7.93643e-11
8.71747e-13
-4.37792e-11
3.08954e-05
-4.24786e-12
1.12954e-10
3.08954e-05
3.44789e-12
-7.60874e-11
9.44667e-13
-3.65896e-11
2.6317e-05
-6.567e-12
1.01025e-10
2.6317e-05
5.95768e-12
-7.06839e-11
7.0868e-13
-3.01545e-11
2.23479e-05
-8.40233e-12
8.79964e-11
2.23479e-05
8.25469e-12
-6.36652e-11
2.13698e-13
-2.41939e-11
1.89302e-05
-9.96349e-12
7.71975e-11
1.89302e-05
1.01896e-11
-5.70733e-11
-1.90234e-13
-1.99991e-11
1.60014e-05
-1.09634e-11
6.53686e-11
1.60014e-05
1.1156e-11
-4.76865e-11
-1.78477e-13
-1.75923e-11
1.34955e-05
-1.08077e-11
5.3074e-11
1.34955e-05
1.07484e-11
-3.80773e-11
5.6095e-14
-1.49249e-11
1.13469e-05
-9.56611e-12
4.14914e-11
1.13469e-05
9.1157e-12
-2.88712e-11
4.36788e-13
-1.25777e-11
9.49439e-06
-7.32017e-12
3.19317e-11
9.4944e-06
6.44755e-12
-2.14328e-11
8.55159e-13
-1.04834e-11
7.88281e-06
-4.50188e-12
2.39262e-11
7.88282e-06
3.32174e-12
-1.54261e-11
1.16499e-12
-8.51106e-12
6.46182e-06
-1.67328e-12
1.78174e-11
6.46183e-06
5.06358e-13
-1.18313e-11
1.15713e-12
-6.00979e-12
5.17972e-06
3.90151e-13
1.43637e-11
5.17972e-06
-1.25346e-12
-1.071e-11
8.59983e-13
-3.68216e-12
3.96558e-06
8.86481e-13
1.34991e-11
3.96558e-06
-1.4373e-12
-1.1236e-11
5.52615e-13
-2.28556e-12
2.54152e-06
9.48514e-12
2.54152e-06
-9.02197e-12
-4.53052e-13
3.21401e-06
-1.23378e-12
1.2532e-11
3.21401e-06
1.53913e-12
-1.10702e-11
-5.48428e-13
-7.89765e-13
4.8532e-06
-5.75828e-13
1.6837e-11
4.85321e-06
1.13109e-12
-1.30134e-11
-7.99613e-13
-3.58376e-12
6.31841e-06
1.7105e-12
1.83135e-11
6.31842e-06
-9.55184e-13
-1.28387e-11
-9.69321e-13
-5.56004e-12
7.88376e-06
4.77851e-12
2.30182e-11
7.88376e-06
-4.14645e-12
-1.49255e-11
-8.02128e-13
-8.26436e-12
9.62184e-06
7.83769e-12
3.07862e-11
9.62185e-06
-7.65384e-12
-1.97103e-11
-3.11733e-13
-1.12399e-11
1.15918e-05
1.03322e-11
4.0703e-11
1.15918e-05
-1.06568e-11
-2.73282e-11
2.21185e-13
-1.34618e-11
1.38537e-05
1.17751e-11
5.25048e-11
1.38537e-05
-1.25029e-11
-3.65514e-11
6.35465e-13
-1.5986e-11
1.64744e-05
1.20055e-11
6.71174e-11
1.64744e-05
-1.29554e-11
-4.79472e-11
8.69907e-13
-1.92167e-11
1.95286e-05
1.0915e-11
8.26846e-11
1.95286e-05
-1.17583e-11
-6.00887e-11
7.94564e-13
-2.27199e-11
2.30964e-05
9.16829e-12
9.77031e-11
2.30964e-05
-9.38713e-12
-7.17253e-11
2.36753e-13
-2.62584e-11
2.72584e-05
6.98309e-12
1.11827e-10
2.72584e-05
-6.60367e-12
-8.02477e-11
-2.62279e-13
-3.20183e-11
3.20912e-05
4.30553e-12
1.27619e-10
3.20912e-05
-3.57006e-12
-8.8372e-11
-4.60685e-13
-3.99423e-11
3.76661e-05
1.70897e-12
1.42351e-10
3.76661e-05
-9.83061e-13
-9.44194e-11
-3.30388e-13
-4.84482e-11
4.40553e-05
1.53434e-13
1.55474e-10
4.40553e-05
2.51768e-13
-9.78006e-11
1.09042e-14
-5.77662e-11
5.1334e-05
-1.92606e-13
1.70388e-10
5.1334e-05
2.69526e-13
-1.03402e-10
3.72725e-13
-6.7152e-11
5.13337e-05
-6.31818e-13
1.70712e-10
5.13337e-05
2.72636e-13
-1.03292e-10
7.33582e-13
-6.70931e-11
4.40546e-05
-2.29708e-12
1.55712e-10
4.40546e-05
1.48381e-12
-9.75901e-11
1.06707e-12
-5.75842e-11
3.76652e-05
-5.02805e-12
1.42576e-10
3.76652e-05
4.02348e-12
-9.40737e-11
1.17765e-12
-4.81437e-11
3.20902e-05
-7.783e-12
1.27684e-10
3.20902e-05
6.98218e-12
-8.77945e-11
9.19671e-13
-3.96491e-11
2.72575e-05
-9.95743e-12
1.11405e-10
2.72575e-05
9.68918e-12
-7.94296e-11
3.47481e-13
-3.17981e-11
2.30955e-05
-1.17866e-11
9.7601e-11
2.30955e-05
1.19549e-11
-7.12128e-11
-1.24927e-13
-2.62272e-11
1.95278e-05
-1.29389e-11
8.25606e-11
1.95278e-05
1.3065e-11
-5.94937e-11
-1.08607e-13
-2.29511e-11
1.64737e-05
-1.27048e-11
6.69134e-11
1.64737e-05
1.25382e-11
-4.74571e-11
1.63472e-13
-1.93639e-11
1.38531e-05
-1.11931e-11
5.20781e-11
1.38531e-05
1.05751e-11
-3.58274e-11
6.02577e-13
-1.61959e-11
1.15913e-05
-8.53106e-12
3.98648e-11
1.15913e-05
7.42215e-12
-2.64205e-11
1.08885e-12
-1.34242e-11
9.62143e-06
-5.21643e-12
2.9692e-11
9.62143e-06
3.75976e-12
-1.88315e-11
1.43915e-12
-1.0874e-11
7.88343e-06
-1.89898e-12
2.19606e-11
7.88343e-06
4.76935e-13
-1.42663e-11
1.41058e-12
-7.72412e-12
6.31816e-06
5.44827e-13
1.76349e-11
6.31816e-06
-1.56875e-12
-1.28472e-11
1.01975e-12
-4.8235e-12
4.85302e-06
1.17743e-12
1.67409e-11
4.85302e-06
-1.77843e-12
-1.37435e-11
6.02712e-13
-3.02567e-12
3.21389e-06
1.26554e-11
3.21389e-06
-1.19669e-11
-6.76645e-13
4.04747e-06
-1.62915e-12
1.66385e-11
4.04747e-06
1.88568e-12
-1.44817e-11
-5.71792e-13
-1.16948e-12
5.92342e-06
-8.10867e-13
2.05626e-11
5.92342e-06
1.4369e-12
-1.5756e-11
-9.40535e-13
-4.56758e-12
7.67903e-06
1.87385e-12
2.22164e-11
7.67904e-06
-9.49847e-13
-1.53241e-11
-1.19473e-12
-7.02135e-12
9.5798e-06
5.43457e-12
2.79789e-11
9.57981e-06
-4.63039e-12
-1.79191e-11
-1.01957e-12
-1.02868e-11
1.16976e-05
8.9928e-12
3.75684e-11
1.16976e-05
-8.70244e-12
-2.38834e-11
-4.53351e-13
-1.39014e-11
1.40981e-05
1.19214e-11
4.99224e-11
1.40981e-05
-1.22278e-11
-3.33559e-11
1.75388e-13
-1.66856e-11
1.68518e-05
1.36687e-11
6.47246e-11
1.68518e-05
-1.44418e-11
-4.48415e-11
6.5755e-13
-1.99311e-11
2.00391e-05
1.40051e-11
8.3136e-11
2.00391e-05
-1.50321e-11
-5.90305e-11
9.27648e-13
-2.41682e-11
2.37504e-05
1.27711e-11
1.02607e-10
2.37504e-05
-1.36698e-11
-7.39924e-11
8.38345e-13
-2.87777e-11
2.80833e-05
1.07481e-11
1.21421e-10
2.80833e-05
-1.09128e-11
-8.83229e-11
1.85324e-13
-3.34601e-11
3.31361e-05
8.1818e-12
1.39115e-10
3.31361e-05
-7.65605e-12
-9.8731e-11
-3.87033e-13
-4.09406e-11
3.90024e-05
5.03425e-12
1.58532e-10
3.90025e-05
-4.10673e-12
-1.08269e-10
-6.00896e-13
-5.11462e-11
4.57698e-05
1.9793e-12
1.76594e-10
4.57699e-05
-1.08428e-12
-1.15106e-10
-4.22231e-13
-6.21498e-11
5.35269e-05
1.59396e-13
1.92592e-10
5.35269e-05
3.38472e-13
-1.18542e-10
-9.3215e-16
-7.41669e-11
6.23662e-05
-2.27979e-13
2.10844e-10
6.23663e-05
3.20331e-13
-1.2482e-10
4.42484e-13
-8.62276e-11
6.23659e-05
-7.25235e-13
2.11248e-10
6.23659e-05
2.85462e-13
-1.24689e-10
8.83642e-13
-8.61412e-11
5.35261e-05
-2.67627e-12
1.92895e-10
5.35261e-05
1.68236e-12
-1.18287e-10
1.29488e-12
-7.39275e-11
4.57688e-05
-5.89527e-12
1.76898e-10
4.57688e-05
4.65002e-12
-1.14669e-10
1.45063e-12
-6.17748e-11
3.90013e-05
-9.13833e-12
1.58632e-10
3.90013e-05
8.11088e-12
-1.07543e-10
1.16852e-12
-5.07844e-11
3.3135e-05
-1.16887e-11
1.38626e-10
3.3135e-05
1.12752e-11
-9.77452e-11
5.07818e-13
-4.06574e-11
2.80822e-05
-1.38031e-11
1.2126e-10
2.80822e-05
1.39007e-11
-8.76557e-11
-4.5546e-14
-3.34012e-11
2.37494e-05
-1.51085e-11
1.02461e-10
2.37494e-05
1.51538e-11
-7.32408e-11
-2.38659e-14
-2.90741e-11
2.00382e-05
-1.47636e-11
8.28732e-11
2.00382e-05
1.44684e-11
-5.83951e-11
2.92577e-13
-2.43615e-11
1.68511e-05
-1.29359e-11
6.4195e-11
1.68511e-05
1.2117e-11
-4.39337e-11
8.01728e-13
-2.01918e-11
1.40975e-05
-9.81792e-12
4.8892e-11
1.40975e-05
8.42225e-12
-3.22263e-11
1.37289e-12
-1.66401e-11
1.16971e-05
-5.96841e-12
3.62262e-11
1.16972e-05
4.17444e-12
-2.27859e-11
1.77393e-12
-1.34565e-11
9.57941e-06
-2.12146e-12
2.6666e-11
9.57942e-06
3.87375e-13
-1.70731e-11
1.72078e-12
-9.6294e-12
7.67873e-06
7.45108e-13
2.13778e-11
7.67873e-06
-1.958e-12
-1.52852e-11
1.20767e-12
-6.13644e-12
5.92319e-06
1.54103e-12
2.04861e-11
5.9232e-06
-2.18147e-12
-1.66341e-11
6.41838e-13
-3.88703e-12
4.04732e-06
1.66652e-11
4.04732e-06
-1.56341e-11
-1.01792e-12
5.07352e-06
-2.08813e-12
2.1777e-11
5.07352e-06
2.28409e-12
-1.86914e-11
-5.79999e-13
-1.71426e-12
7.2177e-06
-1.10061e-12
2.49123e-11
7.21771e-06
1.81744e-12
-1.89881e-11
-1.10819e-12
-5.67781e-12
9.30896e-06
2.01284e-12
2.67166e-11
9.30896e-06
-8.69983e-13
-1.82588e-11
-1.47835e-12
-8.64266e-12
1.16054e-05
6.0906e-12
3.36053e-11
1.16054e-05
-5.06358e-12
-2.14275e-11
-1.29531e-12
-1.2472e-11
1.4177e-05
1.01664e-11
4.51615e-11
1.4177e-05
-9.73781e-12
-2.87531e-11
-6.33412e-13
-1.66881e-11
1.70948e-05
1.35553e-11
6.02669e-11
1.70948e-05
-1.3838e-11
-4.03804e-11
1.18709e-13
-2.00466e-11
2.04398e-05
1.56543e-11
7.85385e-11
2.04398e-05
-1.64846e-11
-5.45371e-11
6.87066e-13
-2.40701e-11
2.43076e-05
1.61379e-11
1.01417e-10
2.43076e-05
-1.72627e-11
-7.20339e-11
1.0027e-12
-2.94667e-11
2.88073e-05
1.47707e-11
1.25468e-10
2.88073e-05
-1.57433e-11
-9.02937e-11
8.98479e-13
-3.53853e-11
3.40573e-05
1.24654e-11
1.48717e-10
3.40573e-05
-1.2574e-11
-1.0775e-10
1.32199e-13
-4.14262e-11
4.01772e-05
9.4845e-12
1.70605e-10
4.01772e-05
-8.79587e-12
-1.20297e-10
-5.25797e-13
-5.10041e-11
4.72813e-05
5.82067e-12
1.94162e-10
4.72813e-05
-4.67565e-12
-1.31342e-10
-7.60192e-13
-6.39247e-11
5.54766e-05
2.25847e-12
2.15999e-10
5.54766e-05
-1.1714e-12
-1.38904e-10
-5.2694e-13
-7.79328e-11
6.48716e-05
1.51987e-13
2.35247e-10
6.48716e-05
4.51e-13
-1.42237e-10
-1.47928e-14
-9.31551e-11
7.558e-05
-2.67769e-13
2.57283e-10
7.558e-05
3.76482e-13
-1.49183e-10
5.21903e-13
-1.08345e-10
7.55795e-05
-8.16494e-13
2.57781e-10
7.55796e-05
2.83151e-13
-1.49031e-10
1.05504e-12
-1.08223e-10
6.48706e-05
-3.07846e-12
2.35629e-10
6.48706e-05
1.87758e-12
-1.41935e-10
1.55473e-12
-9.28462e-11
5.54753e-05
-6.83823e-12
2.16401e-10
5.54753e-05
5.3186e-12
-1.38361e-10
1.7613e-12
-7.74742e-11
4.72799e-05
-1.06183e-11
1.94307e-10
4.72799e-05
9.33469e-12
-1.30441e-10
1.44969e-12
-6.34854e-11
4.01759e-05
-1.35769e-11
1.70054e-10
4.01759e-05
1.30026e-11
-1.19136e-10
6.8568e-13
-5.06394e-11
3.40559e-05
-1.59819e-11
1.48474e-10
3.4056e-05
1.60088e-11
-1.06889e-10
3.5022e-14
-4.13324e-11
2.88061e-05
-1.74304e-11
1.25295e-10
2.88061e-05
1.73926e-11
-8.93562e-11
6.39213e-14
-3.5757e-11
2.43065e-05
-1.69321e-11
1.01083e-10
2.43066e-05
1.6494e-11
-7.12203e-11
4.36114e-13
-2.97181e-11
2.04389e-05
-1.47405e-11
7.7892e-11
2.04389e-05
1.36874e-11
-5.34206e-11
1.03404e-12
-2.43849e-11
1.7094e-05
-1.11405e-11
5.90268e-11
1.70941e-05
9.39842e-12
-3.90104e-11
1.71653e-12
-1.99843e-11
1.41764e-05
-6.73569e-12
4.35471e-11
1.41764e-05
4.52756e-12
-2.74122e-11
2.18545e-12
-1.6154e-11
1.16049e-05
-2.33001e-12
3.19958e-11
1.16049e-05
2.10385e-13
-2.0362e-11
2.10428e-12
-1.16777e-11
9.3086e-06
9.98584e-13
2.56916e-11
9.3086e-06
-2.4371e-12
-1.81413e-11
1.43197e-12
-7.60291e-12
7.21743e-06
1.97922e-12
2.48397e-11
7.21743e-06
-2.64802e-12
-2.00183e-11
6.69571e-13
-4.86374e-12
5.07333e-06
2.16808e-11
5.07333e-06
-2.01495e-11
-1.51729e-12
6.3281e-06
-2.58744e-12
2.80837e-11
6.32811e-06
2.72736e-12
-2.38123e-11
-5.77624e-13
-2.46236e-12
8.78615e-06
-1.43765e-12
3.00358e-11
8.78616e-06
2.28433e-12
-2.28631e-11