/*--------------------------------*- C++ -*----------------------------------*\
  =========                 |
  \\      /  F ield         | OpenFOAM: The Open Source CFD Toolbox
   \\    /   O peration     | Website:  https://openfoam.org
    \\  /    A nd           | Version:  6
     \\/     M anipulation  |
\*---------------------------------------------------------------------------*/
FoamFile
{
    version     2.0;
    format      ascii;
    class       volVectorField;
    location    "100";
    object      U;
}
// * * * * * * * * * * * * * * * * * * * * * * * * * * * * * * * * * * * * * //

dimensions      [0 1 -1 0 0 0 0];

internalField   nonuniform List<vector> 
2160
(
(0.0748149 -1.29265e-10 1.07188e-11)
(0.0748148 4.35703e-10 -6.02657e-11)
(0.074815 -2.89916e-10 -2.61336e-12)
(0.0965006 -1.70145e-10 7.85111e-11)
(0.0965006 5.61773e-10 -6.46185e-11)
(0.0965009 -3.68194e-10 -1.04169e-11)
(0.111621 3.04876e-10 7.18176e-11)
(0.11162 -1.65952e-11 -5.91971e-11)
(0.111621 -3.15038e-10 -1.27901e-11)
(0.121816 1.53088e-09 7.47147e-11)
(0.121816 -1.24563e-09 -5.52156e-11)
(0.121817 -3.26989e-10 -1.99125e-11)
(0.129699 2.78689e-09 8.33992e-11)
(0.129699 -2.78188e-09 -5.94209e-11)
(0.129699 -3.35627e-11 -2.39295e-11)
(0.136145 3.99066e-09 9.28664e-11)
(0.136145 -4.23709e-09 -6.83026e-11)
(0.136145 2.19247e-10 -2.45372e-11)
(0.141647 4.71647e-09 1.01902e-10)
(0.141647 -5.24999e-09 -7.74703e-11)
(0.141648 5.07982e-10 -2.42191e-11)
(0.146533 5.01404e-09 1.09813e-10)
(0.146533 -5.68667e-09 -8.47629e-11)
(0.146533 6.46695e-10 -2.4944e-11)
(0.151014 4.7411e-09 1.17889e-10)
(0.151014 -5.52194e-09 -9.30323e-11)
(0.151014 7.59382e-10 -2.46585e-11)
(0.155182 4.05977e-09 1.18985e-10)
(0.155182 -4.61906e-09 -9.60292e-11)
(0.155182 5.52392e-10 -2.2933e-11)
(0.159007 3.32354e-09 1.1703e-10)
(0.159007 -3.51868e-09 -9.30661e-11)
(0.159008 2.19434e-10 -2.41372e-11)
(0.16236 2.32083e-09 1.17224e-10)
(0.16236 -2.27075e-09 -9.09088e-11)
(0.162361 2.21487e-11 -2.67257e-11)
(0.165067 1.1599e-09 1.12575e-10)
(0.165067 -9.30973e-10 -8.44732e-11)
(0.165067 -8.45742e-11 -2.78743e-11)
(0.166986 2.17561e-10 1.06618e-10)
(0.166986 -6.31826e-11 -7.65065e-11)
(0.166986 -2.6515e-12 -3.01393e-11)
(0.168024 -8.46143e-11 9.98606e-11)
(0.168024 1.57182e-10 -6.99626e-11)
(0.168024 9.303e-11 -3.0025e-11)
(0.168022 -7.90332e-11 1.00032e-10)
(0.168022 4.65122e-11 -7.0041e-11)
(0.168023 2.12465e-10 -2.9964e-11)
(0.166982 -4.51328e-10 1.06768e-10)
(0.166982 2.54868e-10 -7.58047e-11)
(0.166982 3.1587e-10 -3.04458e-11)
(0.165062 -1.41285e-09 1.11659e-10)
(0.165061 1.11289e-09 -8.45159e-11)
(0.165062 3.8404e-10 -2.69313e-11)
(0.162354 -2.6368e-09 1.16485e-10)
(0.162354 2.41675e-09 -9.01223e-11)
(0.162354 2.73956e-10 -2.6112e-11)
(0.159 -3.62811e-09 1.16752e-10)
(0.159 3.64404e-09 -9.27938e-11)
(0.159 2.48572e-11 -2.3754e-11)
(0.155173 -4.37629e-09 1.19406e-10)
(0.155173 4.71018e-09 -9.64391e-11)
(0.155173 -3.11912e-10 -2.27321e-11)
(0.151005 -5.11872e-09 1.16377e-10)
(0.151005 5.58119e-09 -9.24658e-11)
(0.151005 -4.50962e-10 -2.37464e-11)
(0.146524 -5.39238e-09 1.10202e-10)
(0.146524 5.73233e-09 -8.58055e-11)
(0.146524 -3.39219e-10 -2.424e-11)
(0.141638 -5.08903e-09 1.00735e-10)
(0.141638 5.26663e-09 -7.61838e-11)
(0.141639 -1.83026e-10 -2.44517e-11)
(0.136136 -4.3157e-09 9.06005e-11)
(0.136136 4.192e-09 -6.61978e-11)
(0.136137 1.14482e-10 -2.43753e-11)
(0.129691 -2.99428e-09 7.92865e-11)
(0.129691 2.65319e-09 -5.68699e-11)
(0.129691 3.32011e-10 -2.24914e-11)
(0.121808 -1.61664e-09 7.14925e-11)
(0.121808 1.05915e-09 -5.38417e-11)
(0.121809 5.51113e-10 -1.77686e-11)
(0.111614 -2.58755e-10 6.90039e-11)
(0.111614 -1.9167e-10 -5.94313e-11)
(0.111614 4.47262e-10 -9.72907e-12)
(0.0964949 2.94253e-10 7.46299e-11)
(0.0964949 -6.95188e-10 -6.70792e-11)
(0.0964952 4.01754e-10 -7.73901e-12)
(0.0748106 1.85424e-10 6.72816e-11)
(0.0748106 -4.64958e-10 -6.49593e-11)
(0.0748107 2.81762e-10 -2.23949e-12)
(0.0899104 -2.51266e-10 7.9178e-11)
(0.0899103 5.20364e-10 -9.54502e-11)
(0.0899104 -3.28335e-10 -9.44194e-12)
(0.127937 -3.67188e-10 1.91619e-10)
(0.127937 7.19751e-10 -1.61817e-10)
(0.127938 -4.58645e-10 -2.20224e-11)
(0.145484 3.53726e-10 1.86866e-10)
(0.145484 -3.52768e-11 -1.57492e-10)
(0.145484 -4.03716e-10 -2.93001e-11)
(0.156934 1.9223e-09 1.96789e-10)
(0.156934 -1.57214e-09 -1.55023e-10)
(0.156934 -4.28454e-10 -4.25029e-11)
(0.165607 3.49973e-09 2.13956e-10)
(0.165607 -3.46776e-09 -1.6355e-10)
(0.165607 -8.21337e-11 -5.08002e-11)
(0.172608 4.99207e-09 2.31474e-10)
(0.172608 -5.24856e-09 -1.79456e-10)
(0.172608 2.14627e-10 -5.22428e-11)
(0.178531 5.88656e-09 2.46025e-10)
(0.178531 -6.48029e-09 -1.93348e-10)
(0.178531 5.56321e-10 -5.26234e-11)
(0.183758 6.23749e-09 2.62112e-10)
(0.183757 -6.98753e-09 -2.08179e-10)
(0.183758 7.13077e-10 -5.40334e-11)
(0.188529 5.88058e-09 2.75711e-10)
(0.188528 -6.74685e-09 -2.21392e-10)
(0.188529 8.35744e-10 -5.44922e-11)
(0.192952 5.02224e-09 2.77719e-10)
(0.192952 -5.61369e-09 -2.26091e-10)
(0.192952 5.80812e-10 -5.21663e-11)
(0.197001 4.09166e-09 2.7365e-10)
(0.197001 -4.24727e-09 -2.19492e-10)
(0.197002 1.84553e-10 -5.49192e-11)
(0.200544 2.85079e-09 2.73105e-10)
(0.200544 -2.7208e-09 -2.15402e-10)
(0.200544 -4.21059e-11 -5.88146e-11)
(0.2034 1.42672e-09 2.64918e-10)
(0.2034 -1.09624e-09 -2.04347e-10)
(0.2034 -1.50735e-10 -6.10794e-11)
(0.205422 2.80437e-10 2.52634e-10)
(0.205422 -4.68708e-11 -1.89205e-10)
(0.205422 -3.17276e-11 -6.32781e-11)
(0.206515 -9.3174e-11 2.40374e-10)
(0.206515 2.06897e-10 -1.7725e-10)
(0.206516 1.02314e-10 -6.36504e-11)
(0.206514 -1.02472e-10 2.40922e-10)
(0.206514 5.21623e-11 -1.7697e-10)
(0.206514 2.70716e-10 -6.36295e-11)
(0.205418 -5.58268e-10 2.52781e-10)
(0.205418 2.94813e-10 -1.88862e-10)
(0.205418 4.09555e-10 -6.31988e-11)
(0.203394 -1.73856e-09 2.64728e-10)
(0.203394 1.32993e-09 -2.04019e-10)
(0.203394 5.11965e-10 -6.02041e-11)
(0.200537 -3.25144e-09 2.72799e-10)
(0.200537 2.91306e-09 -2.14189e-10)
(0.200537 4.04201e-10 -5.81901e-11)
(0.196993 -4.47983e-09 2.72136e-10)
(0.196993 4.41614e-09 -2.17252e-10)
(0.196994 1.13156e-10 -5.45402e-11)
(0.192942 -5.41446e-09 2.77836e-10)
(0.192942 5.73131e-09 -2.25323e-10)
(0.192943 -2.90229e-10 -5.21026e-11)
(0.188519 -6.35298e-09 2.74494e-10)
(0.188519 6.82338e-09 -2.19474e-10)
(0.188519 -4.56248e-10 -5.47067e-11)
(0.183748 -6.71549e-09 2.6171e-10)
(0.183748 7.03961e-09 -2.07274e-10)
(0.183748 -3.23147e-10 -5.41192e-11)
(0.178521 -6.35278e-09 2.44106e-10)
(0.178521 6.48916e-09 -1.90453e-10)
(0.178522 -1.42525e-10 -5.34349e-11)
(0.172599 -5.40494e-09 2.27627e-10)
(0.172598 5.18745e-09 -1.75231e-10)
(0.172599 2.06667e-10 -5.2307e-11)
(0.165598 -3.7791e-09 2.07605e-10)
(0.165598 3.30881e-09 -1.59084e-10)
(0.165598 4.59394e-10 -4.85994e-11)
(0.156925 -2.06157e-09 1.90309e-10)
(0.156925 1.33941e-09 -1.51599e-10)
(0.156926 7.14355e-10 -3.88906e-11)
(0.145476 -3.47652e-10 1.8155e-10)
(0.145476 -2.31399e-10 -1.58059e-10)
(0.145477 5.752e-10 -2.37423e-11)
(0.127931 3.87717e-10 1.84407e-10)
(0.127931 -8.93599e-10 -1.67529e-10)
(0.127931 5.0675e-10 -1.71364e-11)
(0.0899059 2.37167e-10 1.11781e-10)
(0.0899058 -5.55796e-10 -1.02792e-10)
(0.0899059 3.21068e-10 -8.84564e-12)
(0.0986975 -2.86633e-10 1.42679e-10)
(0.0986974 5.74769e-10 -1.54836e-10)
(0.0986976 -3.40352e-10 -1.27487e-11)
(0.144717 -4.3651e-10 3.09811e-10)
(0.144717 8.24156e-10 -2.59174e-10)
(0.144717 -4.92313e-10 -4.05128e-11)
(0.163968 3.67773e-10 2.99641e-10)
(0.163968 -9.80955e-12 -2.45494e-10)
(0.163968 -4.46813e-10 -5.5089e-11)
(0.17639 2.08761e-09 3.16469e-10)
(0.17639 -1.68842e-09 -2.4079e-10)
(0.17639 -4.8288e-10 -7.7266e-11)
(0.18569 3.82392e-09 3.48253e-10)
(0.18569 -3.75865e-09 -2.57008e-10)
(0.185691 -1.19733e-10 -9.21966e-11)
(0.193137 5.46293e-09 3.80988e-10)
(0.193137 -5.70152e-09 -2.87101e-10)
(0.193137 1.92807e-10 -9.43008e-11)
(0.1994 6.45129e-09 4.08892e-10)
(0.1994 -7.04668e-09 -3.1405e-10)
(0.1994 5.54603e-10 -9.48026e-11)
(0.204903 6.84302e-09 4.38532e-10)
(0.204903 -7.60424e-09 -3.41801e-10)
(0.204903 7.21167e-10 -9.68667e-11)
(0.209912 6.45437e-09 4.62252e-10)
(0.209912 -7.34269e-09 -3.65265e-10)
(0.209912 8.55391e-10 -9.7307e-11)
(0.214546 5.5103e-09 4.66599e-10)
(0.214546 -6.10809e-09 -3.7386e-10)
(0.214546 5.87012e-10 -9.36396e-11)
(0.218783 4.48455e-09 4.59465e-10)
(0.218783 -4.61862e-09 -3.6251e-10)
(0.218783 1.66748e-10 -9.837e-11)
(0.222486 3.11744e-09 4.57334e-10)
(0.222486 -2.9529e-09 -3.53591e-10)
(0.222486 -6.77458e-11 -1.05771e-10)
(0.225468 1.55427e-09 4.42691e-10)
(0.225468 -1.18416e-09 -3.33633e-10)
(0.225469 -1.72586e-10 -1.10098e-10)
(0.22758 2.99308e-10 4.20868e-10)
(0.22758 -4.79484e-11 -3.0702e-10)
(0.22758 -3.55108e-11 -1.1415e-10)
(0.228721 -1.06479e-10 4.0001e-10)
(0.228721 2.26117e-10 -2.85669e-10)
(0.228721 1.12045e-10 -1.14664e-10)
(0.228719 -1.07191e-10 4.0066e-10)
(0.228719 5.72167e-11 -2.85502e-10)
(0.22872 2.92357e-10 -1.14601e-10)
(0.227576 -6.02515e-10 4.21435e-10)
(0.227576 3.16982e-10 -3.06132e-10)
(0.227576 4.45896e-10 -1.14007e-10)
(0.225462 -1.89144e-09 4.4244e-10)
(0.225462 1.43887e-09 -3.32911e-10)
(0.225463 5.66214e-10 -1.08638e-10)
(0.222478 -3.55029e-09 4.56865e-10)
(0.222478 3.16109e-09 -3.51531e-10)
(0.222479 4.61628e-10 -1.04592e-10)
(0.218774 -4.90387e-09 4.57117e-10)
(0.218774 4.80066e-09 -3.58896e-10)
(0.218775 1.57913e-10 -9.75908e-11)
(0.214536 -5.93618e-09 4.66755e-10)
(0.214536 6.23587e-09 -3.72561e-10)
(0.214536 -2.70142e-10 -9.35188e-11)
(0.209902 -6.96683e-09 4.60374e-10)
(0.209901 7.4259e-09 -3.62167e-10)
(0.209902 -4.43379e-10 -9.76665e-11)
(0.204893 -7.36168e-09 4.37744e-10)
(0.204893 7.66166e-09 -3.40197e-10)
(0.204893 -2.98786e-10 -9.70432e-11)
(0.19939 -6.95892e-09 4.05584e-10)
(0.19939 7.05818e-09 -3.09114e-10)
(0.19939 -1.06122e-10 -9.61339e-11)
(0.193127 -5.91211e-09 3.74098e-10)
(0.193127 5.63547e-09 -2.79775e-10)
(0.193127 2.64628e-10 -9.41982e-11)
(0.185681 -4.1272e-09 3.372e-10)
(0.185681 3.58551e-09 -2.49087e-10)
(0.185681 5.29586e-10 -8.82798e-11)
(0.176381 -2.23652e-09 3.05029e-10)
(0.176381 1.43454e-09 -2.34669e-10)
(0.176381 7.93283e-10 -7.07083e-11)
(0.16396 -3.56527e-10 2.91216e-10)
(0.16396 -2.80824e-10 -2.46617e-10)
(0.16396 6.32958e-10 -4.507e-11)
(0.14471 4.7228e-10 3.0099e-10)
(0.14471 -1.01718e-09 -2.69736e-10)
(0.14471 5.45684e-10 -3.17178e-11)
(0.0986929 2.8461e-10 1.78956e-10)
(0.0986928 -6.15372e-10 -1.67123e-10)
(0.098693 3.33316e-10 -1.16038e-11)
(0.10808 -3.48391e-10 2.80764e-10)
(0.10808 6.29565e-10 -2.58556e-10)
(0.10808 -3.41803e-10 -1.72964e-11)
(0.157716 -5.07005e-10 4.68056e-10)
(0.157716 9.10704e-10 -3.85565e-10)
(0.157717 -5.0814e-10 -6.84207e-11)
(0.178446 3.61773e-10 4.49519e-10)
(0.178446 2.3353e-11 -3.5664e-10)
(0.178446 -4.78834e-10 -9.4226e-11)
(0.191792 2.18406e-09 4.76228e-10)
(0.191792 -1.74608e-09 -3.49787e-10)
(0.191792 -5.27502e-10 -1.28991e-10)
(0.201687 4.03442e-09 5.295e-10)
(0.201687 -3.93297e-09 -3.77808e-10)
(0.201688 -1.60829e-10 -1.53526e-10)
(0.209547 5.78022e-09 5.84885e-10)
(0.209547 -5.98822e-09 -4.28928e-10)
(0.209547 1.58087e-10 -1.56738e-10)
(0.216117 6.84413e-09 6.32918e-10)
(0.216117 -7.41751e-09 -4.7542e-10)
(0.216117 5.29174e-10 -1.57593e-10)
(0.221864 7.27405e-09 6.83014e-10)
(0.221864 -8.01719e-09 -5.22952e-10)
(0.221864 7.00056e-10 -1.60381e-10)
(0.227078 6.86895e-09 7.20755e-10)
(0.227078 -7.74505e-09 -5.6065e-10)
(0.227079 8.40759e-10 -1.60842e-10)
(0.231893 5.86619e-09 7.29075e-10)
(0.231893 -6.44265e-09 -5.74933e-10)
(0.231893 5.65347e-10 -1.55831e-10)
(0.236289 4.77054e-09 7.17664e-10)
(0.236289 -4.86741e-09 -5.5644e-10)
(0.236289 1.3231e-10 -1.63644e-10)
(0.240128 3.31085e-09 7.11972e-10)
(0.240128 -3.10483e-09 -5.3917e-10)
(0.240128 -1.02644e-10 -1.76173e-10)
(0.243219 1.64589e-09 6.88435e-10)
(0.243218 -1.23645e-09 -5.06368e-10)
(0.243219 -1.98003e-10 -1.84014e-10)
(0.245405 3.12589e-10 6.5292e-10)
(0.245405 -4.14924e-11 -4.63137e-10)
(0.245406 -4.28284e-11 -1.90031e-10)
(0.246587 -1.16181e-10 6.19651e-10)
(0.246587 2.43065e-10 -4.29501e-10)
(0.246587 1.18019e-10 -1.90933e-10)
(0.246586 -1.10403e-10 6.20868e-10)
(0.246586 5.91092e-11 -4.29016e-10)
(0.246586 3.10398e-10 -1.90848e-10)
(0.245401 -6.33516e-10 6.53737e-10)
(0.245401 3.27493e-10 -4.62141e-10)
(0.245401 4.77169e-10 -1.89576e-10)
(0.243212 -2.00197e-09 6.88689e-10)
(0.243212 1.50833e-09 -5.05043e-10)
(0.243213 6.15181e-10 -1.82154e-10)
(0.24012 -3.76906e-09 7.11713e-10)
(0.24012 3.32668e-09 -5.36041e-10)
(0.24012 5.19816e-10 -1.74484e-10)
(0.23628 -5.21465e-09 7.14077e-10)
(0.23628 5.06125e-09 -5.50612e-10)
(0.236281 2.12046e-10 -1.62457e-10)
(0.231883 -6.31707e-09 7.29081e-10)
(0.231883 6.57877e-09 -5.72143e-10)
(0.231883 -2.29907e-10 -1.55843e-10)
(0.227068 -7.41069e-09 7.18726e-10)
(0.227068 7.83332e-09 -5.55646e-10)
(0.227068 -4.05708e-10 -1.62191e-10)
(0.221853 -7.8223e-09 6.81414e-10)
(0.221853 8.0775e-09 -5.19332e-10)
(0.221854 -2.53723e-10 -1.61245e-10)
(0.216106 -7.38095e-09 6.27888e-10)
(0.216106 7.42924e-09 -4.6745e-10)
(0.216107 -5.55442e-11 -1.59871e-10)
(0.209537 -6.25522e-09 5.73892e-10)
(0.209537 5.91784e-09 -4.1716e-10)
(0.209537 3.24637e-10 -1.56505e-10)
(0.201677 -4.35599e-09 5.12265e-10)
(0.201677 3.75021e-09 -3.65031e-10)
(0.201678 5.92908e-10 -1.4747e-10)
(0.191783 -2.34188e-09 4.57684e-10)
(0.191783 1.4782e-09 -3.39714e-10)
(0.191783 8.54382e-10 -1.18509e-10)
(0.178438 -3.50289e-10 4.3598e-10)
(0.178438 -3.29319e-10 -3.58549e-10)
(0.178438 6.74821e-10 -7.81728e-11)
(0.15771 5.52571e-10 4.57012e-10)
(0.15771 -1.11771e-09 -4.03275e-10)
(0.15771 5.65784e-10 -5.44335e-11)
(0.108075 3.43085e-10 2.95484e-10)
(0.108075 -6.76395e-10 -2.79755e-10)
(0.108075 3.35891e-10 -1.53155e-11)
(0.118064 -4.38136e-10 4.18219e-10)
(0.118064 6.84423e-10 -3.86575e-10)
(0.118064 -3.31046e-10 -2.3261e-11)
(0.168752 -5.89436e-10 6.496e-10)
(0.168752 9.85963e-10 -5.26954e-10)
(0.168752 -5.1344e-10 -1.05695e-10)
(0.190725 3.39798e-10 6.21159e-10)
(0.190725 6.20482e-11 -4.77473e-10)
(0.190726 -5.05596e-10 -1.45422e-10)
(0.204971 2.23526e-09 6.61217e-10)
(0.204971 -1.76535e-09 -4.69464e-10)
(0.204971 -5.67716e-10 -1.95502e-10)
(0.215461 4.17088e-09 7.42373e-10)
(0.215461 -4.03159e-09 -5.13266e-10)
(0.215461 -2.05219e-10 -2.31975e-10)
(0.223731 5.99769e-09 8.2681e-10)
(0.223731 -6.16788e-09 -5.91049e-10)
(0.223731 1.15312e-10 -2.36965e-10)
(0.2306 7.12607e-09 9.01012e-10)
(0.2306 -7.66375e-09 -6.6249e-10)
(0.2306 4.89541e-10 -2.38737e-10)
(0.236579 7.59365e-09 9.77139e-10)
(0.236578 -8.30136e-09 -7.34554e-10)
(0.236579 6.61213e-10 -2.43078e-10)
(0.241984 7.18233e-09 1.03253e-09)
(0.241984 -8.02498e-09 -7.89634e-10)
(0.241984 8.0459e-10 -2.44066e-10)
(0.246964 6.13864e-09 1.04628e-09)
(0.246964 -6.67565e-09 -8.10867e-10)
(0.246964 5.253e-10 -2.37959e-10)
(0.251505 4.98884e-09 1.02999e-09)
(0.251505 -5.03726e-09 -7.84009e-10)
(0.251505 8.59867e-11 -2.49637e-10)
(0.255467 3.45789e-09 1.01951e-09)
(0.255467 -3.20432e-09 -7.55778e-10)
(0.255467 -1.45041e-10 -2.68757e-10)
(0.258655 1.71453e-09 9.8457e-10)
(0.258655 -1.2642e-09 -7.06734e-10)
(0.258656 -2.27196e-10 -2.80858e-10)
(0.260911 3.21976e-10 9.32021e-10)
(0.260911 -2.81844e-11 -6.4306e-10)
(0.260911 -5.34181e-11 -2.89499e-10)
(0.262129 -1.23735e-10 8.837e-10)
(0.262129 2.59659e-10 -5.93936e-10)
(0.262129 1.21222e-10 -2.90604e-10)
(0.262128 -1.12822e-10 8.85303e-10)
(0.262128 5.85888e-11 -5.93386e-10)
(0.262128 3.26843e-10 -2.90456e-10)
(0.260906 -6.56058e-10 9.33323e-10)
(0.260906 3.29329e-10 -6.41616e-10)
(0.260907 5.06533e-10 -2.88734e-10)
(0.258649 -2.08624e-09 9.85275e-10)
(0.258649 1.55156e-09 -7.04651e-10)
(0.258649 6.62648e-10 -2.7839e-10)
(0.255459 -3.93844e-09 1.01938e-09)
(0.255459 3.43918e-09 -7.51278e-10)
(0.255459 5.80705e-10 -2.6634e-10)
(0.251496 -5.4552e-09 1.02516e-09)
(0.251496 5.24296e-09 -7.75816e-10)
(0.251496 2.74019e-10 -2.47832e-10)
(0.246953 -6.61003e-09 1.04607e-09)
(0.246953 6.81942e-09 -8.06484e-10)
(0.246954 -1.75773e-10 -2.37981e-10)
(0.241973 -7.74765e-09 1.03009e-09)
(0.241973 8.11739e-09 -7.82495e-10)
(0.241973 -3.51744e-10 -2.46274e-10)
(0.236567 -8.16576e-09 9.74656e-10)
(0.236567 8.36253e-09 -7.28856e-10)
(0.236568 -1.94929e-10 -2.44567e-10)
(0.230589 -7.68525e-09 8.93814e-10)
(0.230589 7.67317e-09 -6.5091e-10)
(0.230589 4.70644e-12 -2.42064e-10)
(0.22372 -6.49308e-09 8.10677e-10)
(0.22372 6.09281e-09 -5.73894e-10)
(0.223721 3.87141e-10 -2.36444e-10)
(0.215451 -4.50916e-09 7.17406e-10)
(0.215451 3.84173e-09 -4.94447e-10)
(0.215451 6.54118e-10 -2.23295e-10)
(0.204961 -2.40446e-09 6.34013e-10)
(0.204961 1.48765e-09 -4.54447e-10)
(0.204962 9.07141e-10 -1.80356e-10)
(0.190717 -3.3584e-10 6.01101e-10)
(0.190717 -3.78665e-10 -4.8011e-10)
(0.190717 7.09442e-10 -1.22079e-10)
(0.168745 6.29372e-10 6.37588e-10)
(0.168745 -1.20435e-09 -5.53146e-10)
(0.168745 5.75444e-10 -8.54471e-11)
(0.118059 4.14116e-10 4.39192e-10)
(0.118059 -7.38679e-10 -4.18679e-10)
(0.118059 3.27087e-10 -1.99427e-11)
(0.128621 -5.44375e-10 6.01163e-10)
(0.128621 7.39736e-10 -5.45673e-10)
(0.128621 -3.0691e-10 -3.18764e-11)
(0.178646 -6.79251e-10 8.55474e-10)
(0.178646 1.05429e-09 -6.83214e-10)
(0.178646 -5.1139e-10 -1.53045e-10)
(0.201601 3.04481e-10 8.14023e-10)
(0.201601 1.08644e-10 -6.07114e-10)
(0.201601 -5.29718e-10 -2.09228e-10)
(0.216716 2.24947e-09 8.71368e-10)
(0.216716 -1.75112e-09 -5.99448e-10)
(0.216716 -6.05776e-10 -2.77169e-10)
(0.227814 4.24634e-09 9.86999e-10)
(0.227814 -4.06787e-09 -6.63233e-10)
(0.227814 -2.52e-10 -3.2799e-10)
(0.236506 6.1327e-09 1.10738e-09)
(0.236506 -6.26123e-09 -7.73305e-10)
(0.236507 6.80915e-11 -3.35852e-10)
(0.243679 7.31664e-09 1.21436e-09)
(0.243679 -7.81083e-09 -8.75364e-10)
(0.243679 4.41767e-10 -3.39421e-10)
(0.249887 7.82274e-09 1.32306e-09)
(0.249887 -8.48497e-09 -9.77342e-10)
(0.249888 6.12104e-10 -3.46438e-10)
(0.255478 7.41393e-09 1.39984e-09)
(0.255478 -8.21051e-09 -1.05279e-09)
(0.255478 7.5563e-10 -3.48803e-10)
(0.260615 6.34422e-09 1.4207e-09)
(0.260615 -6.8311e-09 -1.08212e-09)
(0.260616 4.7447e-10 -3.42244e-10)
(0.265292 5.15318e-09 1.39914e-09)
(0.265292 -5.14701e-09 -1.04541e-09)
(0.265293 3.30947e-11 -3.58854e-10)
(0.26937 3.56768e-09 1.3821e-09)
(0.26937 -3.26377e-09 -1.00301e-09)
(0.26937 -1.91296e-10 -3.86115e-10)
(0.272649 1.76403e-09 1.33317e-09)
(0.272649 -1.27288e-09 -9.34047e-10)
(0.27265 -2.58107e-10 -4.03443e-10)
(0.274969 3.26855e-10 1.25997e-09)
(0.274969 -9.34423e-12 -8.45459e-10)
(0.274969 -6.58394e-11 -4.15153e-10)
(0.276222 -1.30431e-10 1.19328e-09)
(0.276222 2.76e-10 -7.78148e-10)
(0.276222 1.22545e-10 -4.16426e-10)
(0.27622 -1.14173e-10 1.19557e-09)
(0.27622 5.60131e-11 -7.77289e-10)
(0.27622 3.4176e-10 -4.1618e-10)
(0.274964 -6.7102e-10 1.26173e-09)
(0.274964 3.23915e-10 -8.43658e-10)
(0.274965 5.3393e-10 -4.1396e-10)
(0.272643 -2.14899e-09 1.33454e-09)
(0.272642 1.57418e-09 -9.31067e-10)
(0.272643 7.08091e-10 -4.00336e-10)
(0.269361 -4.06808e-09 1.38223e-09)
(0.269361 3.51077e-09 -9.96899e-10)
(0.269362 6.42026e-10 -3.82878e-10)
(0.265283 -5.63968e-09 1.39292e-09)
(0.265283 5.3642e-09 -1.03451e-09)
(0.265283 3.39811e-10 -3.56315e-10)
(0.260604 -6.83281e-09 1.42011e-09)
(0.260604 6.98184e-09 -1.07566e-09)
(0.260605 -1.13858e-10 -3.42212e-10)
(0.255467 -7.99845e-09 1.39706e-09)
(0.255467 8.30609e-09 -1.04307e-09)
(0.255467 -2.887e-10 -3.52146e-10)
(0.249876 -8.41415e-09 1.31944e-09)
(0.249876 8.54532e-09 -9.68926e-10)
(0.249876 -1.28895e-10 -3.48792e-10)
(0.243668 -7.89298e-09 1.20463e-09)
(0.243667 7.816e-09 -8.59465e-10)
(0.243668 6.9678e-11 -3.43987e-10)
(0.236496 -6.64435e-09 1.08524e-09)
(0.236496 6.18101e-09 -7.49803e-10)
(0.236496 4.50084e-10 -3.34942e-10)
(0.227804 -4.59995e-09 9.53063e-10)
(0.227803 3.87257e-09 -6.37191e-10)
(0.227804 7.13878e-10 -3.16312e-10)
(0.216706 -2.43152e-09 8.33987e-10)
(0.216706 1.46656e-09 -5.78144e-10)
(0.216707 9.55085e-10 -2.56914e-10)
(0.201592 -3.12869e-10 7.86248e-10)
(0.201592 -4.32656e-10 -6.10206e-10)
(0.201593 7.40266e-10 -1.77528e-10)
(0.178639 7.04753e-10 8.43457e-10)
(0.178639 -1.28245e-09 -7.19214e-10)
(0.178639 5.77959e-10 -1.25604e-10)
(0.128616 4.99885e-10 6.1879e-10)
(0.128616 -8.02809e-10 -5.91108e-10)
(0.128616 3.0533e-10 -2.69165e-11)
(0.139687 -6.62027e-10 8.305e-10)
(0.139687 7.942e-10 -7.45952e-10)
(0.139687 -2.69036e-10 -4.54353e-11)
(0.187872 -7.72577e-10 1.08962e-09)
(0.187872 1.11718e-09 -8.57655e-10)
(0.187872 -5.03797e-10 -2.11467e-10)
(0.211522 2.57328e-10 1.03135e-09)
(0.211522 1.64522e-10 -7.48056e-10)
(0.211523 -5.53012e-10 -2.8672e-10)
(0.227457 2.23085e-09 1.11023e-09)
(0.227457 -1.70538e-09 -7.42623e-10)
(0.227458 -6.43385e-10 -3.74861e-10)
(0.239177 4.26622e-09 1.26783e-09)
(0.239177 -4.04747e-09 -8.31619e-10)
(0.239178 -3.00667e-10 -4.4213e-10)
(0.248313 6.19154e-09 1.43203e-09)
(0.248313 -6.27705e-09 -9.80326e-10)
(0.248314 1.90076e-11 -4.54278e-10)
(0.255803 7.42245e-09 1.57951e-09)
(0.255802 -7.86977e-09 -1.11901e-09)
(0.255803 3.90289e-10 -4.61183e-10)
(0.262246 7.96886e-09 1.72852e-09)
(0.262246 -8.58095e-09 -1.25663e-09)
(0.262246 5.58166e-10 -4.72935e-10)
(0.268022 7.5707e-09 1.83129e-09)
(0.268022 -8.31469e-09 -1.35577e-09)
(0.268022 7.00037e-10 -4.77984e-10)
(0.273313 6.48918e-09 1.86128e-09)
(0.273312 -6.92048e-09 -1.3944e-09)
(0.273313 4.18107e-10 -4.7188e-10)
(0.278121 5.26894e-09 1.83408e-09)
(0.278121 -5.20566e-09 -1.34622e-09)
(0.278121 -2.26534e-11 -4.94791e-10)
(0.282308 3.64377e-09 1.80854e-09)
(0.282308 -3.28903e-09 -1.28604e-09)
(0.282309 -2.38946e-10 -5.3197e-10)
(0.285675 1.79576e-09 1.74233e-09)
(0.285675 -1.26493e-09 -1.19254e-09)
(0.285676 -2.8945e-10 -5.55722e-10)
(0.288056 3.26625e-10 1.64408e-09)
(0.288056 1.45812e-11 -1.07373e-09)
(0.288056 -7.93079e-11 -5.7127e-10)
(0.289342 -1.3695e-10 1.55551e-09)
(0.289341 2.92162e-10 -9.84403e-10)
(0.289342 1.22439e-10 -5.72645e-10)
(0.28934 -1.14205e-10 1.55843e-09)
(0.28934 5.139e-11 -9.83385e-10)
(0.28934 3.55235e-10 -5.72244e-10)
(0.288051 -6.78507e-10 1.64647e-09)
(0.288051 3.11608e-10 -1.07141e-09)
(0.288051 5.59299e-10 -5.69566e-10)
(0.285668 -2.19199e-09 1.74452e-09)
(0.285668 1.57862e-09 -1.18848e-09)
(0.285669 7.50976e-10 -5.51823e-10)
(0.2823 -4.16177e-09 1.80903e-09)
(0.2823 3.54711e-09 -1.27797e-09)
(0.2823 7.01987e-10 -5.27757e-10)
(0.278111 -5.77364e-09 1.82644e-09)
(0.278111 5.43368e-09 -1.33229e-09)
(0.278111 4.06367e-10 -4.91327e-10)
(0.273301 -6.9922e-09 1.86007e-09)
(0.273301 7.07737e-09 -1.38544e-09)
(0.273302 -4.86757e-11 -4.71646e-10)
(0.26801 -8.17058e-09 1.82811e-09)
(0.26801 8.41234e-09 -1.34297e-09)
(0.26801 -2.21931e-10 -4.82655e-10)
(0.262234 -8.57555e-09 1.72358e-09)
(0.262234 8.63881e-09 -1.24498e-09)
(0.262235 -6.0488e-11 -4.76297e-10)
(0.255791 -8.01151e-09 1.56678e-09)
(0.255791 7.86886e-09 -1.0979e-09)
(0.255791 1.3559e-10 -4.67291e-10)
(0.248302 -6.71596e-09 1.4029e-09)
(0.248302 6.19101e-09 -9.49309e-10)
(0.248303 5.11782e-10 -4.52931e-10)
(0.239167 -4.63395e-09 1.22345e-09)
(0.239167 3.84784e-09 -7.9696e-10)
(0.239167 7.72612e-10 -4.27057e-10)
(0.227447 -2.42683e-09 1.06106e-09)
(0.227447 1.41618e-09 -7.13726e-10)
(0.227448 1.00073e-09 -3.48739e-10)
(0.211514 -2.81447e-10 9.94673e-10)
(0.211514 -4.93616e-10 -7.51025e-10)
(0.211514 7.69668e-10 -2.456e-10)
(0.187865 7.78847e-10 1.07869e-09)
(0.187865 -1.35408e-09 -9.04677e-10)
(0.187865 5.75257e-10 -1.758e-10)
(0.139681 5.99524e-10 8.4687e-10)
(0.139681 -8.67324e-10 -8.07669e-10)
(0.139681 2.7003e-10 -3.82482e-11)
(0.151157 -7.84398e-10 1.12709e-09)
(0.151157 8.45828e-10 -9.99087e-10)
(0.151157 -2.18323e-10 -6.66185e-11)
(0.196744 -8.64883e-10 1.35777e-09)
(0.196744 1.17488e-09 -1.05518e-09)
(0.196745 -4.92028e-10 -2.8163e-10)
(0.220788 1.99901e-10 1.2776e-09)
(0.220788 2.30982e-10 -9.04425e-10)
(0.220788 -5.77015e-10 -3.78526e-10)
(0.237462 2.18161e-09 1.38214e-09)
(0.237462 -1.62814e-09 -9.037e-10)
(0.237462 -6.82086e-10 -4.8827e-10)
(0.249812 4.23186e-09 1.58937e-09)
(0.249811 -3.97155e-09 -1.02337e-09)
(0.249812 -3.51001e-10 -5.741e-10)
(0.259416 6.17414e-09 1.80626e-09)
(0.259416 -6.21723e-09 -1.21816e-09)
(0.259417 -2.97865e-11 -5.91707e-10)
(0.267243 7.4424e-09 2.00298e-09)
(0.267243 -7.84323e-09 -1.40013e-09)
(0.267244 3.39031e-10 -6.03974e-10)
(0.273934 8.03165e-09 2.20176e-09)
(0.273934 -8.5938e-09 -1.57984e-09)
(0.273934 5.04396e-10 -6.23347e-10)
(0.279899 7.65214e-09 2.33599e-09)
(0.279898 -8.34265e-09 -1.70608e-09)
(0.279899 6.43576e-10 -6.33279e-10)
(0.285343 6.57375e-09 2.37754e-09)
(0.285342 -6.94911e-09 -1.75536e-09)
(0.285343 3.61313e-10 -6.2884e-10)
(0.29028 5.33665e-09 2.34457e-09)
(0.290279 -5.21766e-09 -1.69365e-09)
(0.29028 -7.73542e-11 -6.5998e-10)
(0.294575 3.68637e-09 2.30815e-09)
(0.294574 -3.2831e-09 -1.61112e-09)
(0.294575 -2.85174e-10 -7.09417e-10)
(0.298026 1.80936e-09 2.22075e-09)
(0.298026 -1.24174e-09 -1.48735e-09)
(0.298026 -3.19602e-10 -7.41246e-10)
(0.300465 3.20403e-10 2.0923e-09)
(0.300465 4.33245e-11 -1.33176e-09)
(0.300466 -9.29117e-11 -7.61733e-10)
(0.301783 -1.43781e-10 1.97746e-09)
(0.301783 3.08063e-10 -1.21617e-09)
(0.301783 1.21292e-10 -7.63301e-10)
(0.301781 -1.12539e-10 1.98125e-09)
(0.301781 4.45236e-11 -1.21484e-09)
(0.301782 3.67053e-10 -7.62676e-10)
(0.300461 -6.7785e-10 2.09542e-09)
(0.300461 2.9235e-10 -1.32888e-09)
(0.300461 5.8205e-10 -7.59378e-10)
(0.298019 -2.21492e-09 2.22397e-09)
(0.298018 1.56585e-09 -1.48202e-09)
(0.298019 7.90031e-10 -7.36424e-10)
(0.294566 -4.21938e-09 2.30911e-09)
(0.294566 3.55066e-09 -1.60074e-09)
(0.294566 7.58042e-10 -7.04067e-10)
(0.29027 -5.85728e-09 2.33539e-09)
(0.290269 5.45523e-09 -1.67629e-09)
(0.29027 4.70045e-10 -6.5543e-10)
(0.285331 -7.08837e-09 2.37542e-09)
(0.285331 7.11093e-09 -1.74333e-09)
(0.285331 1.50249e-11 -6.28198e-10)
(0.279887 -8.2635e-09 2.33233e-09)
(0.279886 8.44098e-09 -1.6895e-09)
(0.279887 -1.56864e-10 -6.39584e-10)
(0.273922 -8.64946e-09 2.19518e-09)
(0.273921 8.6474e-09 -1.56423e-09)
(0.273922 5.38136e-12 -6.27949e-10)
(0.267231 -8.03984e-09 1.98674e-09)
(0.267231 7.83447e-09 -1.37283e-09)
(0.267232 1.98678e-10 -6.11847e-10)
(0.259405 -6.70789e-09 1.7691e-09)
(0.259405 6.1245e-09 -1.17818e-09)
(0.259405 5.70495e-10 -5.90045e-10)
(0.249801 -4.61227e-09 1.53305e-09)
(0.249801 3.76836e-09 -9.78581e-10)
(0.249801 8.30602e-10 -5.55169e-10)
(0.237452 -2.39202e-09 1.31928e-09)
(0.237452 1.33597e-09 -8.6519e-10)
(0.237452 1.0462e-09 -4.55876e-10)
(0.220779 -2.41474e-10 1.23081e-09)
(0.220779 -5.63497e-10 -9.06247e-10)
(0.220779 7.99487e-10 -3.27044e-10)
(0.196737 8.50853e-10 1.34867e-09)
(0.196737 -1.41985e-09 -1.11429e-09)
(0.196737 5.68736e-10 -2.36653e-10)
(0.151151 7.10006e-10 1.13843e-09)
(0.151151 -9.29882e-10 -1.08074e-09)
(0.151151 2.21869e-10 -5.65509e-11)
(0.162891 -9.02884e-10 1.5065e-09)
(0.162891 8.91753e-10 -1.31682e-09)
(0.162892 -1.57267e-10 -9.88584e-11)
(0.205485 -9.50359e-10 1.66693e-09)
(0.205485 1.22658e-09 -1.28217e-09)
(0.205486 -4.77528e-10 -3.63788e-10)
(0.229619 1.34307e-10 1.55837e-09)
(0.229619 3.08985e-10 -1.08207e-09)
(0.22962 -6.03256e-10 -4.84585e-10)
(0.246918 2.10332e-09 1.69169e-09)
(0.246917 -1.51836e-09 -1.08841e-09)
(0.246918 -7.23594e-10 -6.16432e-10)
(0.259889 4.14241e-09 1.9555e-09)
(0.259888 -3.83864e-09 -1.24536e-09)
(0.259889 -4.03088e-10 -7.20939e-10)
(0.269987 6.07635e-09 2.23439e-09)
(0.269987 -6.07904e-09 -1.49397e-09)
(0.269988 -7.654e-11 -7.45447e-10)
(0.278178 7.37e-09 2.49033e-09)
(0.278178 -7.72819e-09 -1.72668e-09)
(0.278178 2.91644e-10 -7.65305e-10)
(0.285133 8.00526e-09 2.75023e-09)
(0.285133 -8.52248e-09 -1.95601e-09)
(0.285133 4.55771e-10 -7.96189e-10)
(0.291296 7.65244e-09 2.92262e-09)
(0.291296 -8.29443e-09 -2.11301e-09)
(0.291296 5.92224e-10 -8.14073e-10)
(0.296896 6.59399e-09 2.97883e-09)
(0.296896 -6.91846e-09 -2.17436e-09)
(0.296897 3.09587e-10 -8.1315e-10)
(0.301962 5.35355e-09 2.94015e-09)
(0.301962 -5.18468e-09 -2.09626e-09)
(0.301962 -1.26549e-10 -8.55532e-10)
(0.306363 3.69335e-09 2.89011e-09)
(0.306362 -3.24722e-09 -1.98583e-09)
(0.306363 -3.26635e-10 -9.20182e-10)
(0.309897 1.80334e-09 2.77689e-09)
(0.309897 -1.20396e-09 -1.82443e-09)
(0.309897 -3.4652e-10 -9.62672e-10)
(0.312394 3.06876e-10 2.61235e-09)
(0.312394 7.65026e-11 -1.62418e-09)
(0.312395 -1.05519e-10 -9.89708e-10)
(0.313743 -1.51417e-10 2.46639e-09)
(0.313743 3.23369e-10 -1.4771e-09)
(0.313743 1.19483e-10 -9.91739e-10)
(0.313741 -1.08535e-10 2.47113e-09)
(0.313741 3.51896e-11 -1.47553e-09)
(0.313742 3.7675e-10 -9.90805e-10)
(0.31239 -6.67735e-10 2.61635e-09)
(0.312389 2.65793e-10 -1.62067e-09)
(0.31239 6.01119e-10 -9.86559e-10)
(0.309889 -2.21587e-09 2.78142e-09)
(0.309889 1.53585e-09 -1.81762e-09)
(0.30989 8.23284e-10 -9.56741e-10)
(0.306354 -4.23803e-09 2.89172e-09)
(0.306353 3.52187e-09 -1.97267e-09)
(0.306354 8.06806e-10 -9.13547e-10)
(0.301952 -5.88696e-09 2.92943e-09)
(0.301951 5.42965e-09 -2.07509e-09)
(0.301952 5.26416e-10 -8.49647e-10)
(0.296884 -7.11685e-09 2.97535e-09)
(0.296884 7.08344e-09 -2.15852e-09)
(0.296885 7.18392e-11 -8.11888e-10)
(0.291283 -8.27083e-09 2.9184e-09)
(0.291283 8.39157e-09 -2.09202e-09)
(0.291284 -9.94594e-11 -8.22256e-10)
(0.28512 -8.62946e-09 2.74167e-09)
(0.28512 8.56984e-09 -1.93549e-09)
(0.285121 6.35241e-11 -8.02369e-10)
(0.278166 -7.97109e-09 2.47001e-09)
(0.278166 7.70975e-09 -1.69217e-09)
(0.278166 2.55127e-10 -7.75197e-10)
(0.269976 -6.61561e-09 2.18823e-09)
(0.269976 5.97857e-09 -1.44379e-09)
(0.269976 6.24559e-10 -7.43322e-10)
(0.259878 -4.53353e-09 1.88571e-09)
(0.259877 3.63235e-09 -1.18881e-09)
(0.259878 8.88208e-10 -6.97748e-10)
(0.246907 -2.32777e-09 1.61294e-09)
(0.246907 1.22463e-09 -1.03839e-09)
(0.246908 1.09347e-09 -5.76759e-10)
(0.22961 -1.93128e-10 1.50013e-09)
(0.22961 -6.43755e-10 -1.08121e-09)
(0.229611 8.31345e-10 -4.21994e-10)
(0.205478 9.18807e-10 1.65981e-09)
(0.205477 -1.47922e-09 -1.35424e-09)
(0.205478 5.59826e-10 -3.08402e-10)
(0.162885 8.25601e-10 1.50921e-09)
(0.162885 -9.87123e-10 -1.42271e-09)
(0.162886 1.63199e-10 -8.51827e-11)
(0.174726 -1.00724e-09 1.98517e-09)
(0.174726 9.28319e-10 -1.71144e-09)
(0.174727 -9.01193e-11 -1.46221e-10)
(0.21426 -1.0215e-09 2.02623e-09)
(0.21426 1.27036e-09 -1.54734e-09)
(0.214261 -4.62288e-10 -4.57666e-10)
(0.238198 6.39751e-11 1.881e-09)
(0.238198 3.98643e-10 -1.28938e-09)