/*--------------------------------*- C++ -*----------------------------------*\
  =========                 |
  \\      /  F ield         | OpenFOAM: The Open Source CFD Toolbox
   \\    /   O peration     | Website:  https://openfoam.org
    \\  /    A nd           | Version:  6
     \\/     M anipulation  |
\*---------------------------------------------------------------------------*/
FoamFile
{
    version     2.0;
    format      ascii;
    class       volScalarField;
    location    "6";
    object      yPlus;
}
// * * * * * * * * * * * * * * * * * * * * * * * * * * * * * * * * * * * * * //

dimensions      [0 0 0 0 0 0 0];

internalField   uniform 0;

boundaryField
{
    inlet
    {
        type            calculated;
        value           uniform 0;
    }
    outlet
    {
        type            calculated;
        value           uniform 0;
    }
    roughCylinder
    {
        type            calculated;
        value           nonuniform List<scalar> 
3840
(
46.3774
54.805
62.7617
69.8022
75.1342
79.0982
82.1194
84.5214
86.5839
88.3986
90.0455
91.5873
93.0954
94.6387
96.2712
98.0223
99.8981
101.887
103.967
106.107
108.266
110.368
112.229
113.456
45.5974
53.7512
61.4893
68.4248
73.7197
77.6672
80.6856
83.0974
85.1636
86.9648
88.5876
90.1001
91.5755
93.0842
94.6795
96.3911
98.2247
100.169
102.201
104.291
106.398
108.449
110.264
111.459
44.7439
52.6615
60.1973
67.0283
72.2912
76.2321
79.2607
81.6923
83.766
85.5564
87.1592
88.6452
90.0901
91.5647
93.1239
94.7966
96.5888
98.4883
100.473
102.514
104.569
106.57
108.339
109.501
43.8831
51.5597
58.8929
65.6169
70.8514
74.7963
77.849
80.3093
82.393
84.1827
85.768
87.2298
88.6459
90.0896
91.614
93.2495
95.0011
96.8576
98.7955
100.787
102.791
104.741
106.465
107.596
42.9582
50.4124
57.549
64.1726
69.3941
73.3598
76.4474
78.9423
81.0452
82.839
84.4114
85.8536
87.2449
88.6585
90.1507
91.7503
93.4633
95.2771
97.1702
99.1133
101.069
102.97
104.649
105.748
42.0798
49.2705
56.1948
62.712
67.9232
71.9174
75.0513
77.591
79.7155
81.5202
83.0891
84.5159
85.8846
87.2728
88.7346
90.3009
91.9763
93.75
95.5981
97.4939
99.3994
101.251
102.888
103.957
41.0989
48.0537
54.7683
61.1901
66.4163
70.4652
73.6566
76.2417
78.3998
80.222
81.7961
83.2137
84.566
85.9299
87.3645
88.8988
90.539
92.2724
94.0777
95.9274
97.7855
99.5911
101.184
102.222
40.2301
46.8695
53.3397
59.6479
64.8844
68.988
72.2464
74.8973
77.0932
78.9411
80.529
81.9457
83.2852
84.6318
86.0415
87.547
89.153
90.8487
92.6114
94.4151
96.2246
97.983
99.5338
100.543
39.1665
45.545
51.7725
57.9807
63.2648
67.4715
70.8238
73.5369
75.7858
77.6682
79.2779
80.7059
82.0415
83.372
84.7614
86.2395
87.8136
89.4712
91.1931
92.9515
94.7153
96.4285
97.9378
98.9161
38.2932
44.2895
50.2149
56.2837
61.5998
65.8967
69.3452
72.1582
74.4686
76.4001
78.0435
79.4859
80.8255
82.1511
83.523
84.9775
86.5212
88.1436
89.8229
91.5354
93.2514
94.9171
96.3852
97.3331
37.0664
42.7769
48.4105
54.349
59.7399
64.2138
67.8255
70.7352
73.1346
75.1236
76.8065
78.2806
79.6332
80.9544
82.3158
83.7491
85.2631
86.8479
88.4864
90.1527
91.8218
93.4428
94.8707
95.7885
36.0987
41.368
46.6146
52.3606
57.8037
62.4235
66.1848
69.261
71.754
73.8247
75.5741
77.0812
78.4528
79.7842
81.1375
82.5528
84.0411
85.5925
87.1874
88.8073
90.4264
91.9999
93.3862
94.2723
34.5396
39.5584
44.435
49.9546
55.4669
60.3772
64.4377
67.6725
70.3299
72.5035
74.3113
75.8761
77.2832
78.623
79.9758
81.3775
82.8383
84.3526
85.9071
87.4791
89.0502
90.5798
91.9258
92.7825
33.2876
37.8456
42.2106
47.4347
52.999
58.1275
62.4342
65.9954
68.8047
71.1022
73.0315
74.6597
76.1043
77.4732
78.8305
80.2199
81.6608
83.1439
84.6525
86.1754
87.6944
89.1741
90.4782
91.2981
31.5816
35.7568
39.4875
44.1964
49.7048
55.3096
60.2204
64.0358
67.1586
69.6641
71.6838
73.4017
74.9152
76.3111
77.6802
79.0669
80.4818
81.9264
83.3942
84.8656
86.3331
87.7688
89.0325
89.8241
29.6642
33.4921
36.5645
40.7283
46.2247
52.074
57.3222
61.8961
65.3335
68.037
70.2726
72.1116
73.6885
75.1375
76.5286
77.9091
79.3109
80.7266
82.1435
83.5606
84.9722
86.353
87.571
88.3186
26.7947
30.4413
32.7436
35.8001
40.6632
47.3705
54.1821
59.1326
63.1905
66.337
68.7423
70.7169
72.4131
73.9187
75.3384
76.7306
78.1079
79.4808
80.8537
82.2138
83.5661
84.9029
86.0817
86.7996
23.2452
26.8727
28.4784
30.7476
35.6892
42.3
48.7639
55.8252
60.6794
64.23
67.0378
69.2548
71.0634
72.6556
74.1213
75.5145
76.8861
78.2315
79.5454
80.8399
82.1294
83.4027
84.5249
85.1896
15.4057
20.3737
21.286
19.6482
20.545
30.27
43.7423
51.0003
57.3661
61.9385
65.1355
67.5787
69.5889
71.2893
72.8101
74.2352
75.583
76.8778
78.1392
79.3672
80.5847
81.8114
82.9042
83.5257
12.0219
10.3054
12.077
12.6515
11.6495
17.8042
29.313
44.9817
53.1877
58.7538
62.7792
65.744
67.9818
69.8286
71.433
72.8689
74.2198
75.484
76.6718
77.8132
78.953
80.1024
81.1065
81.6753
8.19209
11.4794
10.897
9.25144
6.87061
13.497
24.6425
30.1431
46.3952
54.9513
60.0578
63.4876
66.0962
68.1498
69.8575
71.3568
72.683
73.8836
75.001
76.0567
77.1039
78.2005
79.2111
79.6834
21.9868
24.7975
25.167
23.2592
19.0639
9.67191
10.0745
13.8102
38.0732
49.1014
56.1587
60.8292
63.9466
66.2854
68.1519
69.6783
71.0213
72.178
73.1902
74.1175
75.0531
76.0485
76.8897
77.3333
25.0689
28.97
31.3326
32.2504
31.0755
26.7645
21.2231
14.5876
14.2764
41.1534
51.3625
57.2533
61.1918
63.96
66.0238
67.6735
68.9868
70.0528
70.9569
71.7574
72.5652
73.492
74.4374
74.6554
26.7676
30.9041
33.6789
35.6507
36.5392
35.9339
32.4084
26.3129
27.6609
23.0908
43.3461
52.6498
57.8477
61.2381
63.648
65.3551
66.709
67.6974
68.4237
68.9978
69.6068
70.3938
70.986
71.1963
26.8812
31.1338
34.0674
36.352
37.8335
38.4201
37.7977
33.8855
30.1154
2.17977
30.4713
45.7722
53.0621
57.5365
60.3204
62.2805
63.5957
64.4128
64.922
65.2756
65.7169
66.3626
67.3186
67.1262
25.6992
30.1224
33.2068
35.734
37.6059
38.8032
39.2768
38.5882
33.9739
30.5217
29.2165
35.8996
47.1612
52.848
56.5402
58.5923
59.9725
60.6453
60.8181
60.6714
60.5987
61.1168
61.2634
60.8445
22.8643
27.7168
31.0877
33.9418
36.2012
37.906
39.1462
39.9045
39.5098
38.3103
16.1903
19.6415
36.3984
46.2654
50.4055
53.0135
54.3806
54.5706
54.0213
53.3893
53.4801
53.2093
54.6945
55.2829
19.7271
24.8979
28.4019
31.4323
33.9597
36.0359
37.7798
39.2945
40.4875
40.579
31.272
27.1564
26.1627
36.6676
43.5889
46.2823
47.4164
47.6432
46.7759
44.6773
42.4809
43.0724
42.5502
39.7848
17.0301
22.2141
25.6086
28.5945
31.1995
33.4971
35.5985
37.6091
39.4523
40.46
37.2473
37.0259
24.4655
20.7672
30.5308
34.4375
36.523
35.8217
26.7006
21.8762
24.8433
17.0906
26.1859
39.2132
14.971
19.9669
23.1087
25.8982
28.4138
30.7512
33.0082
35.2996
37.6241
39.536
39.4796
32.1726
31.0089
22.6948
29.1793
10.8439
12.2833
41.1599
15.8896
34.3731
30.7092
38.1969
23.5121
44.4208
13.2775
18.0992
20.9965
23.5686
25.9304
28.1884
30.4314
32.7649
35.2757
37.7848
39.2381
35.4341
28.1726
30.9348
13.1232
25.392
9.22327
32.2311
27.296
31.0978
38.9388
34.8037
27.3611
39.7992
12.2362
16.8313
19.4791
21.8238
23.9967
26.0993
28.2096
30.4198
32.8655
35.5813
37.9848
37.8364
33.9105
27.6389
26.5671
31.273
28.2867
26.2188
33.4686
37.3938
37.2971
40.8237
38.9864
30.3341
11.6201
16.0429
18.5062
20.6775
22.6863
24.6189
26.5412
28.5405
30.7724
33.399
36.2478
38.0802
37.8451
34.6225
32.668
32.4197
34.8513
38.8741
42.2513
43.3758
42.8327
45.856
44.8994
40.7215
11.4289
15.6984
18.0457
20.1004
21.9844
23.7663
25.4986
27.2642
29.2127
31.5593
34.4072
37.2129
38.9212
38.6884
38.2585
38.8402
40.1757
42.8306
44.5906
44.7633
44.3308
46.6361
46.5104
45.0431
11.4089
15.682
17.9776
19.9768
21.7891
23.4652
25.0483
26.609
28.2761
30.261
32.7991
35.8159
38.5764
39.8885
40.248
40.9487
41.7129
43.6047
45.0212
44.9581
44.6922
46.4237
46.7557
46.3847
11.6179
15.9432
18.2265
20.2149
21.9993
23.6176
25.1027
26.5113
27.9453
29.5819
31.6755
34.3991
37.4402
39.7116
40.7747
41.552
42.0948
43.4095
44.4577
44.3563
44.2698
45.4924
46.0054
46.1778
12.0548
16.39
18.6991
20.7161
22.5148
24.1207
25.5586
26.8738
28.144
29.5035
31.1678
33.3806
36.1352
38.7266
40.3496
41.2816
41.7432
42.6003
43.3441
43.3755
43.5264
44.3788
44.9385
45.3858
12.5991
16.9888
19.3491
21.4217
23.2632
24.8895
26.3211
27.5965
28.7743
29.9485
31.279
32.9878
35.2064
37.6051
39.436
40.5191
41.0085
41.6455
42.2465
42.5358
42.9474
43.5943
44.1517
44.7195
13.2419
17.7009
20.132
22.2812
24.1868
25.8572
27.3131
28.5916
29.7383
30.8154
31.9301
33.2519
34.9405
36.9042
38.6355
39.7885
40.3743
40.9781
41.5954
42.1775
42.8294
43.4263
43.983
44.5831
13.9379
18.4996
21.0237
23.2646
25.2456
26.9735
28.4733
29.7847
30.9455
31.9956
33.0008
34.0772
35.3634
36.8827
38.3574
39.4832
40.1742
40.8547
41.5881
42.4397
43.2997
43.9485
44.5209
45.1102
14.3969
14.6101
14.9524
15.2184
15.5302
15.7874
16.0428
16.2546
16.4511
16.6113
16.7487
16.8554
16.9354
16.9845
17.0046
16.9943
16.952
16.8772
16.7741
16.6628
16.646
16.7493
16.8508
16.9256
16.9684
16.9794
16.9602
16.9123
16.8343
16.7297
16.5948
16.4381
16.2456
16.0392
15.7901
15.5407
15.236
14.9774
14.6425
14.4374
19.0321
19.216
19.5445
19.8041
20.1135
20.381
20.6526
20.8905
21.1162
21.3125
21.488
21.6365
21.7595
21.8513
21.9104
21.9345
21.92
21.8645
21.7708
21.6599
21.6429
21.7457
21.8384
21.8946
21.9102
21.8874
21.8296
21.7395
21.6187
21.4723
21.2998
21.1073
20.8862
20.6541
20.3893
20.13
19.8285
19.5775
19.2572
19.0817
21.621
21.816
22.1729
22.4588
22.8009
23.1054
23.4191
23.7052
23.9821
24.2347
24.4687
24.6781
24.8637
25.0192
25.1401
25.2215
25.2587
25.2476
25.1905
25.1099
25.0967
25.169
25.2251
25.2372
25.2015
25.1215
25.0021
24.8483
24.6646
24.4569
24.2259
23.9769
23.7045
23.4243
23.1174
22.8213
22.4878
22.2116
21.8638
21.6785
23.9175
24.1265
24.5102
24.8204
25.1908
25.5266
25.8744
26.199
26.5165
26.8151
27.0987
27.361
27.6007
27.8109
27.9857
28.1182
28.2022
28.2327
28.2127
28.1648
28.1556
28.1955
28.2145
28.1852
28.1031
27.9723
27.799
27.5904
27.3523
27.0917
26.8105
26.5148
26.2016
25.8827
25.5417
25.2143
24.8531
24.5535
24.18
23.982
25.9401
26.1547
26.553
26.8766
27.2617
27.6154
27.9827
28.3326
28.6798
29.0127
29.334
29.6374
29.9193
30.1725
30.3898
30.5628
30.6837
30.7474
30.7563
30.7316
30.7248
30.7426
30.7331
30.6709
30.5521
30.3812
30.1658
29.9141
29.6336
29.3319
29.0126
28.682
28.3386
27.9935
27.6328
27.2876
26.9122
26.6
26.213
26.0108
27.6978
27.9099
28.3152
28.6468
29.0402
29.407
29.7905
30.1624
30.5346
30.8968
31.25
31.5872
31.904
32.1922
32.4436
32.6485
32.7983
32.8867
32.9159
32.9055
32.8999
32.9047
32.8754
32.7889
32.6417
32.4391
32.1899
31.9035
31.5883
31.2526
30.9013
30.5415
30.1725
29.805
29.4273
29.0688
28.6854
28.3661
27.973
27.7746
29.222
29.4305
29.8442
30.1865
30.5909
30.9739
31.3751
31.7687
32.1644
32.5526
32.9327
33.2981
33.643
33.9589
34.2363
34.4651
34.6354
34.7408
34.7825
34.7793
34.7743
34.7728
34.7316
34.6289
34.4615
34.2356
33.9606
33.6468
33.3036
32.9399
32.5615
32.1756
31.783
31.3935
30.9982
30.6231
30.229
29.8996
29.4992
29.3056
30.555
30.7634
31.1912
31.5503
31.9705
32.3727
32.7927
33.2073
33.6241
34.0346
34.4368
34.8243
35.1904
35.5262
35.8217
36.0662
36.2494
36.3644
36.4118
36.411
36.4062
36.4029
36.3566
36.2449
36.0652
35.824
35.5312
35.1977
34.8335
34.4479
34.0475
33.6393
33.2256
32.8151
32.4011
32.0069
31.5978
31.2525
30.8392
30.6469
31.7304
31.9401
32.3863
32.7678
33.2089
33.6326
34.0724
34.5071
34.943
35.3719
35.7917
36.1955
36.5763
36.925
37.2313
37.4842
37.6735
37.7919
37.8404
37.8386
37.8338
37.8319
37.7852
37.6703
37.485
37.2358
36.9326
36.5865
36.2078
35.806
35.3882
34.9615
34.5288
34.0983
33.6647
33.2495
32.8204
32.4541
32.0237
31.8317
32.7735
32.977
33.4421
33.8505
34.3181
34.7668
35.2282
35.6834
36.1372
36.5824
37.0163
37.4321
37.8224
38.1784
38.4896
38.7453
38.9357
39.0537
39.1006
39.0966
39.0917
39.0924
39.0476
38.9336
38.7477
38.4959
38.188
37.8349
37.4468
37.033
36.6013
36.1584
35.7077
35.257
34.802
34.3626
33.9082
33.5166
33.069
32.8854
33.7221
33.8945
34.3675
34.8024
35.3013
35.7822
36.2691
36.7471
37.2196
37.6807
38.1272
38.5524
38.9491
39.3086
39.6208
39.8758
40.0641
40.1796
40.2243
40.2188
40.214
40.2165
40.1742
40.0629
39.8792
39.6284
39.3196
38.9632
38.5689
38.1458
37.7014
37.2426
36.7731
36.2999
35.8199
35.3497
34.8649
34.4477
33.9941
33.8445
34.6465
34.734
35.1853
35.6367
36.1661
36.6849
37.2031
37.7077
38.2019
38.6804
39.1398
39.5738
39.9758
40.337
40.6485
40.9007
41.0855
41.1978
41.2405
41.2347
41.2302
41.2331
41.1929
41.085
40.9049
40.6569
40.3491
39.9909
39.5914
39.1593
38.7019
38.2257
37.7348
37.2348
36.7248
36.2175
35.7027
35.2699
34.8404
34.7803
35.6492
35.5668
35.9399
36.3803
36.9276
37.4827
38.0387
38.5747
39.0947
39.5933
40.0678
40.512
40.9198
41.2831
41.5935
41.8429
42.0241
42.1333
42.1745
42.1691
42.1649
42.1675
42.129
42.0242
41.8477
41.6026
41.2958
40.9355
40.5302
40.0876
39.6149
39.118
38.6007
38.069
37.5209
36.9765
36.4437
36.0232
35.6756
35.7923
36.7958
36.4612
36.6867
37.074
37.6156
38.1972
38.7898
39.3615
39.9108
40.4332
40.9257
41.3826
41.7981
42.165
42.4759
42.7235
42.9019
43.0085
43.0482
43.0432
43.0392
43.0419
43.0047
42.9026
42.729
42.4857
42.1786
41.8146
41.4013
40.9459
40.4547
39.9335
39.3864
38.8192
38.233
37.6604
37.132
36.764
36.5672
36.9431
37.9961
37.4115
37.463
37.7678
38.2804
38.8718
39.4919
40.0979
40.6768
41.2245
41.7364
42.2079
42.633
43.0054
43.3183
43.5656
43.7423
43.8468
43.8849
43.8789
43.8751
43.8789
43.8437
43.7439
43.5722
43.3293
43.0201
42.6506
42.2274
41.757
41.2454
40.698
40.1197
39.5158
38.8992
38.3134
37.8104
37.5213
37.4963
38.1185
39.0904
38.351
38.276
38.5066
38.9849
39.5741
40.21
40.8408
41.4434
42.0123
42.5415
43.0261
43.4602
43.838
44.1534
44.4009
44.5763
44.6786
44.7139
44.7055
44.7017
44.7086
44.6768
44.5797
44.4099
44.1673
43.8561
43.4816
43.0495
42.5659
42.0369
41.4676
40.8643
40.2334
39.5974
39.0086
38.5321
38.3047
38.3879
39.1373
39.9717
39.2163
39.1159
39.3252
39.7915
40.3802
41.0241
41.6678
42.2838
42.8645
43.4035
43.895
44.3334
44.713
45.0281
45.2739
45.4465
45.5453
45.5763
45.5633
45.5595
45.5716
45.545
45.4524
45.2861
45.046
44.7356
44.3597
43.9236
43.4331
42.8939
42.3117
41.693
41.0456
40.3961
39.799
39.321
39.0945
39.1735
39.8988
40.7682
40.0901
40.0459
40.2843
40.7646
41.3589
42.005
42.6495
43.2665
43.8474
44.3852
44.8743
45.3089
45.6836
45.9932
46.233
46.3997
46.4926
46.5176
46.4987
46.4952
46.5147
46.4956
46.4102
46.251
46.0182
45.7146
45.3449
44.914
44.4273
43.8904
43.309
42.6899
42.0414
41.3886
40.7833
40.2869
40.0254
40.0412
40.687
41.6112
41.0716
41.1338
41.432
41.9425
42.5452
43.1876
43.8222
44.4284
44.9978
45.5236
46.0003
46.4223
46.7846
47.0822
47.311
47.4679
47.5523
47.5699
47.5451
47.5413
47.5669
47.5551
47.4781
47.3286
47.1064
46.8144
46.4565
46.0375
45.5623
45.0364
44.4651
43.8551
43.2148
42.5636
41.9487
41.4236
41.1078
41.0322
41.5656
42.5284
42.1404
42.3187
42.6876
43.2361
43.8522
44.492
45.1147
45.7077
46.2622
46.7726
47.2334
47.6396
47.9865
48.2696
48.4852
48.6306
48.7059
48.7168
48.6884
48.6853
48.7151
48.7098
48.6414
48.5028
48.2935
48.0159
47.6738
47.2713
46.8134
46.3051
45.7524
45.1616
44.5419
43.9055
43.2937
42.7518
42.3922
42.227
42.6307
43.4644
43.1902
43.4576
43.8881
44.4741
45.1092
45.7544
46.3743
46.9616
47.5081
48.0089
48.4587
48.8533
49.1881
49.4595
49.664
49.7996
49.8667
49.8721
49.8412
49.838
49.8682
49.8656
49.8024
49.6707
49.4697
49.2015
48.8692
48.4769
48.0289
47.5304
46.9868
46.4045
45.7926
45.1608
44.5442
43.982
43.5825
43.346
43.6513
44.4148
44.19
44.4976
44.954
45.5552
46.1961
46.841
47.4599
48.0449
48.5883
49.0848
49.5295
49.9181
50.2466
50.5113
50.7093
50.8386
50.9004
50.9019
50.8695
50.8669
50.898
50.8974
50.8372
50.7092
50.5123
50.2481
49.9193
49.5296
49.0829
48.5836
48.0369
47.4482
46.8258
46.1778
45.5353
44.9334
44.4776
44.1685
44.3882
45.1884
44.9504
45.253
45.7033
46.3019
46.9405
47.5842
48.2048
48.7927
49.3392
49.8385
50.2852
50.675
51.0036
51.2675
51.4639
51.5912
51.6503
51.6488
51.6137
51.6098
51.6407
51.64
51.5795
51.4508
51.2526
50.9863
50.6544
50.2607
49.8088
49.3032
48.7488
48.1512
47.5188
46.8601
46.2037
45.5844
45.1089
44.7781
44.9823
45.2365
45.0932
45.4656
45.965
46.6006
47.2664
47.9308
48.5668
49.1667
49.7225
50.229
50.6812
51.0747
51.4056
51.6706
51.8669
51.993
52.0499
52.0452
52.0058
51.9977
52.0268
52.0253
51.9639
51.8342
51.6348
51.3673
51.0344
50.6398
50.1875
49.6822
49.1297
48.5363
47.9116
47.2662
46.6273
46.0294
45.5835
45.2855
45.5397
46.3828
54.8128
62.7696
69.8087
75.1395
79.103
82.1239
84.5257
86.5884
88.4031
90.0496
91.5913
93.0993
94.6422
96.2744
98.0253
99.9005
101.889
103.968
106.109
108.268
110.367
112.229
113.455
45.6001
53.757
61.4967
68.4317
73.7257
77.6728
80.6913
83.1029
85.1686
86.9693
88.5922
90.1045
91.5796
93.0882
94.6832
96.3942
98.2275
100.171
102.203
104.293
106.4
108.449
110.264
111.459
44.7435
52.6647
60.2029
67.0343
72.2966
76.2371
79.2654
81.6968
83.7708
85.5614
87.1638
88.6496
90.0944
91.5686
93.1274
94.8
96.5914
98.4907
100.475
102.515
104.572
106.569
108.338
109.501
43.8791
51.561
58.8978
65.6235
70.8583
74.803
77.8554
80.3155
82.3984
84.1874
85.7728
87.2346
88.6503
90.0939
91.618
93.2526
95.004
96.8595
98.7974
100.788
102.793
104.741
106.464
107.595
42.9565
50.4145
57.5535
64.1777
69.3986
73.3638
76.4517
78.9469
81.0504
82.8446
84.4166
85.8582
87.2494
88.6625
90.1541
91.7538
93.466
95.2794
97.1721
99.1147
101.071
102.968
104.648
105.748
42.075
49.2711
56.1998
62.7201
67.9329
71.9274
75.0601
77.5984
79.7213
81.5251
83.0941
84.521
85.8893
87.2775
88.7391
90.3041
91.9792
93.7518
95.6
97.4952
99.402
101.251
102.886
103.955
41.1013
48.0583
54.7738
61.1945
66.4183
70.4658
73.6585
76.2457
78.4057
80.2287
81.8021
83.2188
84.5709
85.934
87.3678
88.9024
90.5416
92.2747
94.0795
95.9287
97.789
99.5898
101.183
102.223
40.2305
46.8737
53.3478
59.66
64.9004
69.0057
72.2614
74.908
77.1002
78.9459
80.5339
81.9512
83.2902
84.6368
86.0466
87.5502
89.1557
90.8504
92.6131
94.4164
96.2281
97.9821
99.5325
100.541
39.1706
45.5506
51.7778
57.9825
63.261
67.4639
70.8195
73.538
75.7913
77.6761
79.2853
80.7117
82.0469
83.3764
84.7644
86.2431
87.8163
89.4736
91.194
92.9523
94.7196
96.4263
97.9357
98.9169
38.3027
44.3014
50.2308
56.3055
61.6285
65.9294
69.371
72.1749
74.4788
76.406
78.0483
79.4918
80.8311
82.1567
83.5289
84.9811
86.5235
88.1449
89.8242
91.5367
93.2556
94.9158
96.3835
97.3327
37.067
42.7787
48.4109
54.343
59.7234
64.19
67.8116
70.733
73.1385
75.1308
76.8154
78.2875
79.6392
80.9592
82.3184
83.7522
85.266
86.8503
88.4868
90.1535
91.8274
93.4407
94.8678
95.791
36.1207
41.3932
46.6458
52.4015
57.8569
62.4837
66.225
69.2818
71.7669
73.8353
75.5798
77.0874
78.4592
79.7905
81.1444
82.5571
84.0426
85.593
87.1889
88.8086
90.4323
91.9986
93.3838
94.2719
34.5376
39.5554
44.4271
49.9342
55.4277
60.3247
64.415
67.6749
70.3383
72.5067
74.3199
75.8846
77.2899
78.6281
79.978
81.3796
82.8412
84.3551
85.9068
87.4796
89.0582
90.5773
91.9221
92.7866
33.3211
37.8837
42.2617
47.5056
53.0922
58.2331
62.4859
66.0079
68.8073
71.1194
73.0412
74.6663
76.112
77.4809
78.8384
80.2257
81.6614
83.1431
84.6538
86.1762
87.7025
89.1725
90.4745
91.2989
31.5854
35.7626
39.4835
44.1675
49.643
55.2231
60.2087
64.0651
67.1957
69.6659
71.6899
73.4128
74.9231
76.3163
77.6821
79.067
80.4843
81.9292
83.3922
84.8657
86.3459
87.7667
89.0267
89.8323
29.7194
33.5405
36.6298
40.8324
46.3638
52.2305
57.351
61.8731
65.2939
68.0541
70.2884
72.1179
73.6979
75.1478
76.5378
77.917
79.3105
80.7238
82.1442
83.5605
84.9822
86.3505
87.5661
88.3227
26.8475
30.5262
32.8387
35.8695
40.6864
47.3571
54.2939
59.2423
63.2974
66.3472
68.7451
70.7337
72.4245
73.9243
75.3399
76.7273
78.109
79.4835
80.8494
82.2132
83.5886
84.901
86.0712
86.8138
23.4097
26.9482
28.5396
30.8406
35.8353
42.2657
48.5754
55.7116
60.5532
64.2381
67.0624
69.2588
71.0733
72.6698
74.1323
75.5256
76.8845
78.2264
79.5443
80.838
82.1411
83.399
84.5208
85.2026
15.8196
21.0948
21.9773
20.6283
20.1413
31.1366
44.7568
51.3465
57.6084
61.9527
65.1257
67.6066
69.6107
71.2966
72.811
74.2266
75.5809
76.879
78.1314
79.3644
80.6255
81.8096
82.88
83.5505
0.946745
10.9199
15.9919
18.2837
18.1903
22.6542
26.9004
44.9124
52.8741
58.7627
62.8385
65.7475
67.9898
69.8481
71.446
72.884
74.217
75.4762
76.6664
77.8077
78.9654
80.0976
81.1113
81.7107
9.96079
13.1902
13.6882
13.7469
20.9075
25.9781
26.2594
30.3534
47.1363
54.8852
59.9794
63.5303
66.1433
68.1639
69.8575
71.3405
72.6729
73.8823
74.9873
76.048
77.1797
78.1965
79.1487
79.7285
21.4158
24.1279
24.6123
23.5082
24.47
27.5996
25.4843
30.8416
35.8281
49.1932
56.3753
60.8598
63.9551
66.314
68.1663
69.6979
71.0206
72.163
73.1758
74.1049
75.0684
76.0441
76.9215
77.4263
24.5011
28.3702
30.5395
31.1282
29.6762
28.6311
25.2154
32.4965
37.0375
38.9953
51.0658
57.3058
61.3012
63.9893
66.02
67.643
68.952
70.052
70.9308
71.7292
72.7057
73.4776
74.279
74.7374
26.1638
30.2318
32.9986
34.9506
35.7571
34.858
31.7855
28.8213
35.1093
25.0876
44.5754
52.8819
57.867
61.2965
63.6645
65.383
66.733
67.6638
68.388
68.972
69.6494
70.3924
71.069
71.4616
26.1741
30.4413
33.4603
35.8101
37.3629
38.1093
37.8086
34.9305
31.0957
21.6356
28.8205
45.5774
53.3859
57.5734
60.2882
62.2089
63.4802
64.4256
64.8716
65.174
65.9647
66.3101
66.9255
67.2212
25.2427
29.6982
32.8013
35.3571
37.2806
38.59
39.3041
39.0273
34.1554
30.2943
25.7079
36.9987
47.0383
53.0718
56.57
58.6505
60.1316
60.5925
60.7227
60.6402
60.8202
61.1157
61.3537
61.6665
22.527
27.4031
30.7804
33.6487
35.9379
37.7001
39.03
39.8498
39.1754
32.3888
33.2696
19.8719
38.1704
45.944
50.1641
52.7804
53.9761
54.6887
54.0194
53.0018
53.6268
52.9671
53.9236
54.1663
19.525
24.6983
28.1972
31.227
33.7626
35.8616
37.6468
39.1733
40.0081
37.9521
32.6927
22.3316
20.8692
37.9168
43.8409
46.478
48.5584
48.161
46.3368
44.7993
44.094
43.1299
39.7012
41.1251
16.9649
22.1374
25.5194
28.4943
31.0914
33.3868
35.4942
37.5037
39.2547
39.8061
35.3584
31.7333
7.22911
15.7731
28.2599
33.1362
35.7567
33.7492
28.4322
31.6473
21.6054
36.1183
27.2241
34.9221
14.9673
19.9613
23.0992
25.8821
28.3887
30.7154
32.9621
35.2412
37.5264
39.33
38.9296
33.3801
21.6026
27.9956
28.3931
10.6347
21.9279
36.0787
35.3206
42.6802
13.0337
18.4345
31.3719
39.4552
13.3058
18.1325
21.0322
23.6037
25.9621
28.2154
30.4542
32.7894
35.3071
37.838
39.4098
37.6949
28.6887
24.9607
14.1763
29.5571
25.3297
38.0997
33.1663
37.9946
31.1317
33.3935
34.7353
41.1938
12.2623
16.8663
19.5195
21.867
24.0416
26.1475
28.2664
30.4979
32.9859
35.7861
38.4047
39.3728
36.5889
29.8681
24.0067
21.6967
28.7116
30.471
33.3028
38.5358
37.3641
41.8449
41.7286
37.1653
11.6288
16.0598
18.5272
20.7007
22.7123
24.6519
26.5897
28.6188
30.9057
33.6328
36.6783
39.108
39.4553
36.322
35.2232
34.2793
30.459
35.9673
42.5002
45.2357
42.8049
46.667
46.7516
43.0929
11.4134
15.6898
18.0377
20.0915
21.9763
23.7635
25.5094
27.3005
29.2956
31.7252
34.7157
37.8104
39.7164
39.2955
39.4634
39.597
37.5968
41.5296
44.694
46.3881
44.5028
47.2308
47.49
44.8248
11.3772
15.6522
17.9438
19.9385
21.7482
23.4256
25.0152
26.5902
28.2846
30.3182
32.9353
36.0739
38.8485
39.9477
40.8403
41.1817
40.5196
42.874
44.8391
46.0365
44.9907
46.8288
47.2526
45.2183
11.578
15.8983
18.174
20.155
21.9338
23.5488
25.0335
26.4454
27.8888
29.5434
31.6645
34.4161
37.4069
39.5088
40.9299
41.5882
41.6627
43.0306
44.1387
44.8878
44.5723
45.7693
46.3063
44.8424
12.0062
16.3349
18.6356
20.644
22.4352
24.0346
25.4671
26.778
28.0456
29.404
31.0661
33.2637
35.9535
38.418
40.2353
41.2229
41.6664
42.4663
43.0617
43.5465
43.6873
44.5707
45.2009
44.2233
12.5467
16.9292
19.2808
21.3446
23.1779
24.7964
26.2201
27.4872
28.6562
29.8204
31.1372
32.8195
34.9835
37.2966
39.2189
40.4323
41.0774
41.6601
42.0861
42.5163
42.9341
43.7181
44.4141
43.8312
13.1919
17.642
20.0642
22.2047
24.1021
25.7646
27.2121
28.481
29.6169
30.6813
31.7802
33.0784
34.7303
36.6463
38.421
39.7068
40.4805
41.063
41.5495
42.0835
42.696
43.4995
44.2383
43.9428
13.8908
18.4434
20.9592
23.1921
25.1659
26.8866
28.3786
29.6806
30.8307
31.8684
32.8602
33.9191
35.1846
36.6831
38.1859
39.4182
40.2717
40.9536
41.609
42.3296
43.1145
43.9907
44.7563
44.6619
46.3838
44.6933
43.8677
42.263
41.211
39.6255
38.6253
37.155
36.1556
34.7744
33.8308
32.6048
31.703
30.7369
29.9264
29.0722
28.3382
27.8737
27.4284
27.0791
27.0905
27.1902
27.804
28.295
29.1229
29.8663
30.7609
31.7071
32.632
33.7454
34.834
36.0878
37.1209
38.6106
39.651
41.1839
42.2137
43.8573
44.6891
46.3746
55.012
53.4798
52.6687
51.2642
50.2604
48.906
47.9447
46.692
45.7652
44.6083
43.7482
42.7187
41.964
41.1324
40.3873
39.6137
39.0827
38.6903
38.3358
38.0267
38.0268
38.2404
38.568
39.0607
39.7283
40.2939
41.1141
41.9618
42.7335
43.6736
44.6648
45.7305
46.6669
47.9199
48.9154
50.2304
51.2278
52.6615
53.474
55.0022
63.0863
61.6313
60.8019
59.445
58.4835
57.2181
56.2395
55.078
54.1283
53.08
52.1883
51.2629
50.4689
49.695
48.9952
48.3471
47.8307
47.4225
47.1151
46.9203
46.9195
47.0958
47.3921
47.827
48.3754
48.9699
49.6874
50.467
51.2662
52.1689
53.0928
54.1209
55.0706
56.2333
57.2184
58.4741
59.4338
60.797
61.6257
63.0779
70.1163
68.6452
67.7272
66.3454
65.3345
64.0557
63.0243
61.8614
60.8621
59.8225
58.894
57.9845
57.1637
56.3987
55.7134
55.1071
54.6004
54.2007
53.9167
53.7609
53.7607
53.9141
54.197
54.6002
55.1095
55.7081
56.3956
57.1618
57.9831
58.8898
59.8224
60.8594
61.8583
63.0215
64.0534
65.3304
66.3412
67.7235
68.6407
70.1101
75.4003
73.8747
72.8634
71.4343
70.3532
69.0412
67.9539
66.7687
65.7272
64.6734
63.7195
62.8037
61.9721
61.208
60.5289
59.9369
59.4441
59.0592
58.7912
58.6489
58.6488
58.7907
59.0587
59.444
59.9365
60.5266
61.206
61.9703
62.8017
63.7172
64.6717
65.7249
66.7661
67.9512
69.0384
70.3501
71.4311
72.8597
73.8704
75.395
79.3243
77.7557
76.6736
75.213
74.0763
72.7459
71.6178
70.4209
69.3532
68.2921
67.3254
66.4075
65.574
64.8139
64.1422
63.5616
63.0815
62.7097
62.4534
62.3192
62.3192
62.4535
62.7097
63.0815
63.5609
64.1408
64.8124
65.5724
66.4057
67.3235
68.2903
69.3511
70.4184
71.6151
72.7432
74.0733
75.21
76.6697
77.7515
79.3192
82.3143
80.7189
79.5824
78.1078
76.9287
75.5911
74.4349
73.233
72.1498
71.0856
70.1129
69.1955
68.3631
67.6077
66.9424
66.3702
65.8996
65.5367
65.2881
65.1589
65.159
65.2882
65.5367
65.8994
66.3697
66.9414
67.6065
68.3617
69.1939
70.1112
71.0837
72.1476
73.2306
74.4323
75.5883
76.9257
78.1047
79.5785
80.7149
82.3091
84.6851
83.0733
81.8924
80.4137
79.2051
77.8641
76.6899
75.4843
74.3914
73.3245
72.3477
71.4299
70.5975
69.8443
69.1821
68.6142
68.1481
67.7897
67.5449
67.4179
67.418
67.5448
67.7896
68.1479
68.6136
69.1812
69.8431
70.5962
71.4283
72.346
73.3226
74.3892
75.4819
76.6873
77.8613
79.202
80.4104
81.8886
83.0692
84.6802
86.7229
85.0935
83.8779
82.389
81.1579
79.8077
78.6184
77.4044
76.3008
75.227
74.2429
73.3198
72.4826
71.7259
71.0611
70.4915
70.0243
69.6652
69.4198
69.2925
69.2924
69.4197
69.665
70.0239
70.4908
71.0602
71.7248
72.4813
73.3182
74.2411
75.2251
76.2986
77.4019
78.6158
79.8048
81.1548
82.3856
83.8742
85.0893
86.7184
88.5319
86.8744
85.6376
84.1306
82.8823
81.5184
80.3144
79.0889
77.9729
76.889
75.8945
74.9625
74.1167
73.3525
72.6808
72.1052
71.6328
71.2695
71.0207
70.8909
70.8909
71.0205
71.2691
71.6323
72.1045
72.6799
73.3513
74.1153
74.9609
75.8927
76.887
77.9706
79.0865
80.3117
81.5155
82.8791
84.1272
85.6339
86.8703
88.5276
90.1815
88.4946
87.2391
85.712
84.4457
83.0658
81.8453
80.6053
79.4744
78.3771
77.369
76.4246
75.5667
74.7913
74.1091
73.5238
73.0429
72.6723
72.4179
72.2844
72.2843
72.4177
72.6718
73.0422
73.523
74.1081
74.7901
75.5653
76.423
77.3672
78.375
79.4721
80.6029
81.8426
83.0629
84.4426
85.7086
87.2354
88.4907
90.1772
91.7316
90.0133
88.7421
87.1917
85.9082
84.509
83.2712
82.014
80.8664
79.7529
78.729
77.7693
76.8966
76.107
75.4113
74.8135
74.3213
73.9411
73.6794
73.541
73.5409
73.6791
73.9406
74.3206
74.8126
75.4102
76.1058
76.8952
77.7676
78.7271
79.7509
80.8641
82.0115
83.2686
84.5061
85.9052
87.1883
88.7386
90.0095
91.7275
93.2504
91.4991
90.2134
88.6375
87.3365
85.9159
84.6596
83.383
82.2169
81.0852
80.0433
79.0662
78.1763
77.3702
76.6585
76.0457
75.54
75.1482
74.8775
74.7334
74.7332
74.8772
75.1477
75.5392
76.0448
76.6574
77.369
78.1749
79.0645
80.0415
81.0831
82.2147
83.3806
84.657
85.9131
87.3335
88.6342
90.21
91.4954
93.2466
94.8059
93.0191
91.7191
90.1153
88.7959
87.3518
86.0755
84.7775
83.5912
82.4392
81.3775
80.3807
79.4717
78.6467
77.9167
77.2866
76.7651
76.3598
76.0786
75.9278
75.9277
76.0783
76.3593
76.7643
77.2857
77.9155
78.6453
79.4702
80.3791
81.3757
82.4372
83.5891
84.7751
86.073
87.3491
88.793
90.1123
91.7158
93.0156
94.8022
96.4505
94.6264
93.3105
91.6769
90.3372
88.8674
87.5693
86.2477
85.0392
83.8647
82.7811
81.7626
80.8321
79.9859
79.2354
78.5857
78.046
77.625
77.3317
77.1732
77.1731
77.3313
77.6244
78.0452
78.5848
79.2343
79.9847
80.8306
81.761
82.7793
83.8628
85.0371
86.2455
87.5669
88.8649
90.3345
91.674
93.3075
94.6231
96.4471
98.2139
96.3502
95.0168
93.3509
91.9891
90.4913
89.1692
87.8218
86.589
85.3899
84.2822
83.2397
82.2855
81.4159
80.6424
79.9705
79.4101
78.9709
78.6634
78.4962
78.4961
78.663
78.9704
79.4093
79.9696
80.6413
81.4147
82.2841
83.2382
84.2805
85.3881
86.587
87.8197
89.1669
90.4889
91.9866
93.3482
95.0141
96.3472
98.211
100.103
98.1972
96.8446
95.1444
93.7586
92.2308
90.8828
89.5076
88.2486
87.0229
85.8891
84.8207
83.8407
82.9455
82.1466
81.4498
80.8659
80.4058
80.0816
79.9042
79.9041
80.0812
80.4052
80.8652
81.4489
82.1455
82.9443
83.8394
84.8193
85.8875
87.0212
88.2468
89.5057
90.8807
92.2286
93.7563
95.1421
96.8422
98.1946
100.1
102.105
100.157
98.7842
97.0487
95.6373
94.0781
92.7027
91.2986
90.0117
88.7579
87.5966
86.5006
85.4931
84.5703
83.7439
83.0198
82.4094
81.9251
81.5814
81.392
81.3918
81.5811
81.9245
82.4087
83.019
83.7428
84.5692
85.4918
86.4993
87.5951
88.7564
90.01
91.2968
92.7008
94.0763
95.6354
97.0464
98.7823
100.155
102.103
104.2
102.209
100.815
99.0441
97.6068
96.0156
94.6125
93.178
91.8629
90.5804
89.3904
88.266
87.2296
86.2781
85.4222
84.6686
84.0288
83.5168
83.15
82.9461
82.946
83.1496
83.5162
84.0281
84.6678
85.4213
86.2768
87.2283
88.2647
89.3891
90.5786
91.8612
93.1767
94.6107
96.0138
97.605
99.0422
100.814
102.208
104.198
106.357
104.324
102.91
101.104
99.64
98.0175
96.5861
95.1224
93.7785
92.4668
91.2485
90.0953
89.0298
88.0486
87.1623
86.3775
85.7055
85.1618
84.7674
84.5455
84.5455
84.7669
85.161
85.7046
86.3766
87.1615
88.0478
89.029
90.094
91.2472
92.4655
93.7772
95.1211
96.5848
98.0161
99.6387
101.102