/*--------------------------------*- C++ -*----------------------------------*\
  =========                 |
  \\      /  F ield         | OpenFOAM: The Open Source CFD Toolbox
   \\    /   O peration     | Website:  https://openfoam.org
    \\  /    A nd           | Version:  6
     \\/     M anipulation  |
\*---------------------------------------------------------------------------*/
FoamFile
{
    version     2.0;
    format      ascii;
    class       volScalarField;
    location    "47";
    object      yPlus;
}
// * * * * * * * * * * * * * * * * * * * * * * * * * * * * * * * * * * * * * //

dimensions      [0 0 0 0 0 0 0];

internalField   uniform 0;

boundaryField
{
    inlet
    {
        type            calculated;
        value           uniform 0;
    }
    outlet
    {
        type            calculated;
        value           uniform 0;
    }
    roughCylinder
    {
        type            calculated;
        value           nonuniform List<scalar> 
5120
(
75.1907
59.3747
52.1824
55.5496
61.5712
66.6497
70.8672
74.4031
77.4099
80.0362
82.4115
84.5977
86.6394
88.581
90.4441
92.2733
94.0976
95.9745
97.9182
99.9418
102.053
104.253
106.535
108.887
111.293
113.726
116.15
118.514
120.742
122.725
124.28
125.148
90.1033
59.4492
51.4383
54.0845
59.8943
64.9345
69.1344
72.6539
75.6503
78.2846
80.6493
82.805
84.8125
86.6977
88.507
90.2687
92.0438
93.8441
95.7113
97.6641
99.7054
101.831
104.036
106.308
108.631
110.98
113.322
115.605
117.756
119.672
121.173
122.01
95.4858
61.5633
51.0644
52.6405
58.2511
63.2158
67.3678
70.8854
73.907
76.5424
78.9061
81.0513
83.0134
84.859
86.6099
88.3215
90.0129
91.7564
93.5638
95.4443
97.407
99.4541
101.579
103.77
106.011
108.279
110.539
112.742
114.818
116.666
118.114
118.919
88.0709
58.5301
49.8896
51.1048
56.4764
61.422
65.6012
69.1418
72.1666
74.8299
77.1963
79.315
81.2572
83.0525
84.7602
86.4039
88.0627
89.7345
91.4646
93.2781
95.1771
97.1555
99.2079
101.324
103.486
105.673
107.852
109.976
111.978
113.761
115.156
115.931
80.5062
60.2314
49.4876
49.6333
54.7845
59.6742
63.8079
67.3524
70.4397
73.1189
75.4893
77.6195
79.5307
81.3038
82.9608
84.5747
86.1469
87.7696
89.4541
91.2033
93.0272
94.931
96.907
98.946
101.032
103.142
105.244
107.293
109.224
110.943
112.289
113.033
73.4402
59.0373
49.0754
48.1058
52.8755
57.7539
61.9706
65.5975
68.6905
71.4115
73.8098
75.9179
77.8346
79.5717
81.2072
82.7531
84.318
85.8807
87.4885
89.1766
90.9476
92.7922
94.7057
96.6761
98.6892
100.723
102.75
104.726
106.587
108.245
109.541
110.257
77.3975
59.9417
48.4806
46.6317
51.1029
55.9546
60.1257
63.7294
66.9248
69.6846
72.0899
74.2429
76.1424
77.8884
79.4841
81.0338
82.5101
84.0318
85.6138
87.2494
88.9491
90.7227
92.5633
94.4624
96.4052
98.3692
100.324
102.229
104.024
105.623
106.872
107.559
85.1957
60.3869
48.2194
45.0071
48.9646
53.7854
58.1031
61.8975
65.1028
67.9156
70.3928
72.5292
74.4635
76.1855
77.7961
79.2766
80.7807
82.262
83.767
85.347
87.0072
88.7339
90.523
92.362
94.2374
96.1306
98.0152
99.8521
101.582
103.123
104.326
104.986
94.0766
61.0738
47.5759
43.4755
46.9795
51.8322
56.1332
59.8357
63.2011
66.104
68.5894
70.8205
72.7534
74.5201
76.0971
77.6309
79.0467
80.495
82.0009
83.5453
85.1378
86.7959
88.5135
90.2858
92.0967
93.9255
95.7439
97.5135
99.1815
100.668
101.827
102.458
77.3766
60.2859
47.2857
41.7681
44.4472
49.1782
53.6888
57.799
61.1989
64.1673
66.8032
69.0251
71.0357
72.7873
74.4238
75.8758
77.3612
78.7978
80.2255
81.7187
83.2887
84.9157
86.5966
88.3162
90.0655
91.8272
93.5781
95.2853
96.8915
98.3224
99.4374
100.041
75.8823
58.4246
46.8163
40.1721
42.0104
46.8376
51.4458
55.3218
58.9901
62.1603
64.8041
67.2012
69.2309
71.0832
72.6846
74.2555
75.6452
77.0497
78.5122
79.9924
81.4966
83.0544
84.6608
86.3174
88.0064
89.7083
91.3975
93.0389
94.5863
95.965
97.0378
97.6123
71.2672
54.8957
45.0216
38.2352
38.7376
43.2017
48.0714
52.8467
56.6141
59.8696
62.8153
65.2153
67.3939
69.2369
70.9692
72.4319
73.9447
75.3777
76.754
78.1819
79.6838
81.23
82.819
84.432
86.0642
87.7021
89.3257
90.9077
92.3951
93.7204
94.7499
95.2974
74.7521
56.7835
45.1686
36.2888
35.4255
39.9817
45.2638
49.4425
53.7552
57.4704
60.4227
63.1482
65.3762
67.4154
69.1
70.7819
72.189
73.5828
75.0404
76.4875
77.9236
79.3961
80.9033
82.4532
84.029
85.6116
87.1773
88.6933
90.1236
91.3988
92.387
92.9052
64.9495
54.5104
44.8551
34.9203
30.497
33.8681
39.5073
46.05
50.5817
54.4353
58.0282
60.78
63.295
65.3268
67.2641
68.7897
70.3941
71.8794
73.2351
74.6223
76.0831
77.5711
79.0861
80.6086
82.1326
83.6521
85.1525
86.6136
87.9848
89.2062
90.1516
90.6432
47.2178
47.1939
41.5111
31.9758
25.742
28.4655
35.4861
40.0617
46.2107
51.2192
54.8215
58.2429
60.8618
63.2716
65.1259
67.0332
68.5168
69.9422
71.4477
72.9039
74.2953
75.6994
77.1209
78.5693
80.0403
81.5092
82.9546
84.3471
85.6613
86.8338
87.7382
88.1984
24.2552
35.8812
35.1571
29.0489
12.8307
9.7021
19.7514
34.6832
40.9308
46.4044
51.5985
55.0891
58.3145
60.7138
63.0542
64.7154
66.5099
68.1292
69.5018
70.8774
72.3324
73.7917
75.2532
76.7069
78.1312
79.5363
80.9143
82.2554
83.5103
84.6274
85.488
85.9225
13.0699
19.3616
19.7539
13.3421
7.00529
15.84
7.79722
10.323
31.9805
41.0059
46.3828
51.5967
55.0425
58.2282
60.4013
62.7434
64.3862
65.899
67.5315
69.0578
70.4329
71.7865
73.1358
74.4843
75.8566
77.2154
78.541
79.8062
81.0017
82.0696
82.8884
83.2866
7.19931
9.69659
4.42418
13.8851
3.8767
15.9391
16.8005
5.89228
5.44927
30.5822
41.2544
46.5451
51.5724
54.7275
57.904
59.8071
61.9748
63.8632
65.2997
66.6984
68.1992
69.6724
71.1116
72.5215
73.8553
75.1464
76.3981
77.6171
78.7513
79.76
80.5319
80.9061
7.62494
10.7855
7.38129
14.4294
15.8069
17.2151
18.0146
18.3568
18.2336
22.0828
28.1305
40.8147
46.2894
51.4077
54.2058
57.464
59.3893
61.0727
62.9705
64.6675
66.0628
67.3837
68.6665
69.9181
71.1928
72.4417
73.6436
74.77
75.8385
76.7957
77.5234
77.8515
7.93047
11.4778
5.27396
9.77577
7.6029
12.4575
12.3707
11.2182
10.0916
8.4238
9.7114
28.2648
40.7032
45.6774
50.9219
53.2243
56.2006
58.6323
60.1993
61.6672
63.302
64.8633
66.341
67.7359
68.9927
70.1651
71.2783
72.369
73.3728
74.2635
74.9392
75.2468
6.64354
15.9826
19.8768
20.4425
16.7992
21.9836
8.57031
3.82899
21.8715
21.0512
20.5782
10.7198
28.1874
40.5136
44.6778
50.3015
52.7091
54.7181
57.1823
59.257
60.7276
62.0322
63.2423
64.3988
65.5699
66.7054
67.7738
68.7365
69.6603
70.4947
71.1206
71.3624
8.00068
18.3667
23.1703
26.6947
28.6323
27.5713
17.2949
17.697
25.1425
8.36414
15.1383
13.7476
7.09555
26.363
39.6797
42.6135
47.8458
51.5374
53.3526
54.9574
56.923
58.7396
60.3617
61.8232
63.0286
64.0713
65.0211
65.9747
66.8311
67.5876
68.1539
68.3862
7.86302
18.2719
24.0162
28.2015
30.7769
31.8778
31.7224
24.3872
18.4463
26.1079
25.7253
5.79037
21.1345
8.93703
24.0403
39.0689
42.1325
44.9501
48.8845
51.8906
53.5402
54.8266
56.0189
56.985
58.0442
59.0627
59.9806
60.7261
61.4729
62.1646
62.6691
62.7898
7.47153
17.1411
23.1887
27.9018
31.3553
33.3836
33.591
32.803
26.9487
5.29384
22.8599
27.3956
8.30126
15.5251
23.0877
12.2529
33.0346
40.2899
42.4664
44.4329
47.3465
49.9337
51.8285
53.773
54.9898
55.8799
56.6199
57.4348
58.119
58.7153
59.1558
59.3007
6.69836
15.579
21.5568
26.2526
29.8281
32.4142
34.0389
34.0912
33.0744
29.4227
20.5973
24.519
4.76214
23.9059
12.6229
12.3481
5.32839
22.8479
34.7157
40.2553
42.3183
43.5688
44.9659
45.198
46.1145
47.0489
47.7779
48.1705
48.6675
49.1866
49.5196
49.4273
5.98714
14.3629
20.0075
24.4896
27.9966
30.6583
32.4462
33.4496
33.2516
32.1069
29.4882
14.2838
17.5152
26.4639
25.0143
16.4214
23.7355
18.6388
5.0399
18.6553
27.7889
33.1685
37.1606
40.9339
42.6026
43.1892
43.6997
44.3971
44.8362
45.2797
45.6225
45.6302
5.24224
13.2413
18.2668
22.2642
25.4573
28.0266
30.0084
31.2532
31.8263
31.7082
30.7294
31.8934
22.1545
12.4789
18.8033
26.8303
17.5429
25.3188
15.3311
18.5679
13.158
21.8708
13.737
14.4612
14.0275
17.4659
16.3057
14.8055
16.4732
14.7373
14.6846
12.8949
4.63734
12.2874
16.0925
19.1853
21.8443
24.1804
26.1326
27.6272
28.5868
29.2258
30.1659
29.5029
31.4194
27.2671
4.94031
23.5738
22.1587
19.655
11.5751
26.4016
19.1499
27.5818
18.9059
19.9413
6.75292
28.6001
1.60996
21.739
30.6342
22.3846
8.28658
22.6613
4.3638
11.9459
13.6812
15.3207
17.0566
18.8964
20.7415
22.4362
23.9709
25.4677
26.8189
29.1574
29.7893
31.3519
31.6128
17.3622
21.1603
27.3563
7.9283
20.9444
10.87
20.3515
27.4572
5.68723
27.4253
18.8122
23.5011
11.5453
21.3204
7.63685
29.9944
12.7518
3.99586
11.4599
12.1504
12.5815
13.1442
14.008
15.3153
17.0659
19.0684
21.2123
23.6248
25.4947
28.2256
29.9647
30.9559
32.8012
25.4351
13.9556
23.0808
16.3217
24.7593
17.5287
9.12848
19.1441
30.0292
25.5143
18.7931
7.79741
31.3594
18.3491
32.2839
8.22547
3.62505
11.3284
11.6657
11.8573
11.9886
12.2005
13.0339
14.6388
16.6144
18.6909
20.742
23.3041
25.3601
27.8286
30.2801
31.15
32.4367
30.339
20.3545
24.5993
13.8259
27.0746
12.8724
17.3509
24.1683
19.2874
8.7029
30.3098
6.05131
30.7416
25.7034
21.2713
3.56409
11.3801
11.5081
11.7239
11.8564
12.1223
13.2959
15.13
16.9749
18.6295
20.2623
21.6951
23.6579
25.5877
27.5714
30.2336
31.7161
32.3457
32.6123
29.2521
21.1617
17.036
23.5512
5.08125
30.6907
28.095
22.4665
25.469
23.6931
17.5084
13.2641
17.0827
2.45687
9.16636
11.3718
11.5994
11.5905
11.9904
13.7965
15.9789
17.9028
19.509
20.8294
22.1536
23.2164
24.4818
26.1
27.6506
29.8154
31.8087
32.4736
32.4315
32.368
29.7514
26.5759
24.0298
20.8433
18.8502
17.6352
17.9217
17.6745
17.7845
18.6912
19.256
2.22498
8.45635
10.7723
11.6751
11.8792
13.1559
15.5224
17.6622
19.3917
20.8016
22.0174
22.9758
23.9139
24.6959
25.4021
26.5827
27.9431
29.5634
31.4415
32.5389
32.3717
32.0548
31.3724
30.962
30.6793
30.4832
30.0656
29.7214
29.3875
29.3687
29.4584
29.524
2.87461
9.71611
11.5343
11.5777
12.85
15.2288
17.525
19.4353
21.0146
22.3386
23.4363
24.3963
25.1074
25.6713
26.1649
26.4796
27.0896
28.1653
29.4272
30.7266
31.6631
31.9362
31.4759
30.5453
29.3907
28.147
26.9694
26.1197
25.5299
25.3447
25.5355
25.8229
3.72464
11.2897
11.6073
13.102
15.4397
17.7353
19.7138
21.3904
22.8154
24.0314
25.0814
25.931
26.6285
27.1104
27.353
27.5334
27.6143
27.785
28.3905
29.2986
30.0926
30.4755
30.3967
29.9289
29.1535
28.2086
27.0725
26.1658
25.6279
25.565
25.7791
26.0014
3.85236
11.8846
13.5095
15.7765
17.9771
19.9536
21.7026
23.2408
24.5944
25.7842
26.8127
27.6882
28.3484
28.7939
29.0395
29.0245
28.8793
28.7177
28.6044
28.7167
29.0762
29.4229
29.3673
28.8043
27.7673
26.3726
24.8663
23.6651
23.0105
23.0131
23.4219
23.8679
4.27975
12.3871
15.5918
18.0954
20.1792
21.9962
23.6201
25.0808
26.3969
27.5756
28.6201
29.4955
30.1889
30.6586
30.8728
30.8768
30.6582
30.2617
29.8284
29.4595
29.1873
28.9862
28.7111
28.18
27.3007
26.1456
24.8467
23.7707
23.2579
23.4104
23.9065
24.367
5.53372
14.6177
17.8105
20.1403
22.0559
23.774
25.355
26.809
28.1456
29.3633
30.4486
31.3788
32.1084
32.6139
32.889
32.8982
32.6681
32.2387
31.6399
30.9516
30.2801
29.6565
29.0119
28.2193
27.1752
25.8701
24.468
23.326
22.8118
23.0371
23.6598
24.2374
6.70767
16.1507
19.419
21.7647
23.6955
25.4277
27.0223
28.503
29.8827
31.1526
32.2948
33.273
34.0606
34.6279
34.9497
35.028
34.85
34.4152
33.7652
32.9514
32.0257
31.051
30.0511
28.9926
27.8126
26.5154
25.2056
24.1751
23.7749
24.0899
24.76
25.3443
8.04129
9.38049
10.697
11.3702
11.6881
11.5652
11.9773
11.9648
11.4044
11.5147
11.5452
11.7758
11.5093
11.2259
10.408
9.92599
9.5029
9.20458
9.00806
8.91249
8.91245
9.00786
9.20431
9.50244
9.92537
10.4076
11.2135
11.6664
11.5022
11.622
11.7907
11.5334
11.7982
11.9507
11.3555
11.4908
11.37
10.7011
9.38077
8.0407
17.4253
18.2209
18.8716
19.2278
19.5106
19.6628
19.766
19.7781
19.7534
19.7058
19.6294
19.5213
19.4024
19.2589
19.1146
19.0128
18.9204
18.855
18.8099
18.7881
18.788
18.8098
18.8548
18.92
19.0125
19.1141
19.258
19.405
19.5194
19.6253
19.7086
19.7598
19.7824
19.7629
19.6493
19.5022
19.2293
18.8731
18.2211
17.4247
20.6385
21.2501
21.7536
22.0305
22.2627
22.3642
22.4356
22.4303
22.4101
22.353
22.2904
22.2093
22.1312
22.0479
21.974
21.9119
21.8591
21.8202
21.793
21.7791
21.7791
21.7929
21.82
21.8587
21.9116
21.9735
22.0473
22.1305
22.2088
22.2893
22.3515
22.4095
22.4297
22.4345
22.3613
22.2606
22.0298
21.7532
21.2495
20.6375
22.9077
23.4314
23.8843
24.1537
24.3853
24.5057
24.606
24.6429
24.6689
24.6637
24.6578
24.6386
24.6209
24.5996
24.5797
24.5632
24.549
24.5393
24.5318
24.5276
24.5275
24.5317
24.539
24.5487
24.5628
24.5792
24.599
24.6202
24.6378
24.6569
24.6626
24.6679
24.6418
24.6049
24.5043
24.3839
24.1523
23.8832
23.4304
22.9065
24.8052
25.2958
25.7398
26.0236
26.2782
26.4378
26.5829
26.6777
26.766
26.8269
26.8863
26.9333
26.9784
27.0176
27.0526
27.0845
27.111
27.1324
27.1464
27.1528
27.1526
27.1463
27.1322
27.1106
27.0841
27.052
27.0169
26.9776
26.9325
26.8854
26.8259
26.7649
26.6766
26.5817
26.4365
26.2768
26.0221
25.7384
25.2945
24.8039
26.5363
27.0043
27.4585
27.7617
28.0553
28.2647
28.4706
28.6285
28.7848
28.9144
29.0424
29.1567
29.2665
29.367
29.4586
29.54
29.6085
29.6622
29.6983
29.7153
29.7152
29.6981
29.662
29.6081
29.5395
29.458
29.3664
29.2658
29.1558
29.0414
28.9133
28.7837
28.6273
28.4694
28.2633
28.0539
27.7603
27.457
27.0029
26.5349
28.1532
28.6048
29.0873
29.4171
29.7638
30.0236
30.2915
30.5106
30.7323
30.9272
31.1205
31.2981
31.4691
31.6268
31.7711
31.8986
32.0058
32.0893
32.1454
32.1719
32.1719
32.1453
32.089
32.0053
31.898
31.7704
31.626
31.4682
31.2972
31.1193
30.926
30.7311
30.5092
30.2902
30.0222
29.7623
29.4157
29.0858
28.6034
28.1518
29.6758
30.1197
30.6426
31.0021
31.3995
31.706
32.0297
32.304
32.584
32.8369
33.088
33.3219
33.5468
33.7546
33.9449
34.1123
34.2528
34.3616
34.4345
34.4687
34.4686
34.4343
34.3612
34.2522
34.1117
33.9441
33.7539
33.5459
33.3209
33.0869
32.8357
32.5828
32.3027
32.0284
31.7045
31.3979
31.0006
30.6411
30.1183
29.6744
31.1085
31.5485
32.1136
32.4977
32.9402
33.2863
33.658
33.9792
34.3087
34.6108
34.9107
35.1918
35.4616
35.7111
35.939
36.139
36.3063
36.4353
36.5214
36.5614
36.5613
36.5212
36.4349
36.3058
36.1384
35.9383
35.7103
35.4606
35.1908
34.9096
34.6095
34.3074
33.9779
33.6566
33.2849
32.9387
32.4961
32.1122
31.547
31.1071
32.4345
32.8718
33.4729
33.8773
34.3566
34.7359
35.1463
35.5066
35.8761
36.2187
36.5579
36.8773
37.1828
37.4653
37.7227
37.9478
38.1356
38.28
38.376
38.4203
38.4202
38.3758
38.2796
38.1351
37.9472
37.7219
37.4644
37.1819
36.8762
36.5568
36.2175
35.8748
35.5052
35.1449
34.7345
34.3551
33.8759
33.4714
32.8704
32.433
33.6267
34.06
34.6913
35.1122
35.621
36.0276
36.4691
36.8611
37.2628
37.6376
38.0078
38.3569
38.6899
38.9974
39.2767
39.5204
39.7229
39.8782
39.9813
40.0285
40.0284
39.981
39.8778
39.7225
39.5198
39.276
38.9966
38.689
38.3559
38.0067
37.6363
37.2615
36.8598
36.4677
36.0261
35.6195
35.1106
34.6898
34.0584
33.6254
34.6563
35.0817
35.742
36.1757
36.7102
37.1396
37.6072
38.0254
38.4531
38.8537
39.2483
39.6203
39.9741
40.3
40.595
40.8516
41.0642
41.2267
41.3342
41.3833
41.3833
41.334
41.2263
41.0638
40.851
40.5943
40.2992
39.9731
39.6194
39.2472
38.8526
38.4518
38.024
37.6058
37.1382
36.7087
36.1742
35.7404
35.0803
34.6548
35.4903
35.9142
36.6014
37.0495
37.6079
38.0588
38.5499
38.9912
39.4414
39.8637
40.2783
40.6687
41.0385
41.3782
41.6846
41.9502
42.1696
42.3368
42.4471
42.4972
42.4971
42.4469
42.3365
42.1691
41.9496
41.6839
41.3774
41.0376
40.6677
40.2772
39.8626
39.4401
38.9899
38.5484
38.0574
37.6064
37.0481
36.5998
35.9128
35.489
36.1073
36.5387
37.2545
37.7224
38.3053
38.7795
39.2938
39.7579
40.2292
40.6715
41.1037
41.51
41.893
42.2439
42.559
42.8313
43.0555
43.2258
43.338
43.3888
43.3887
43.3378
43.2255
43.055
42.8307
42.5583
42.2432
41.8921
41.509
41.1027
40.6704
40.228
39.7566
39.2925
38.7782
38.3039
37.7209
37.2531
36.5372
36.1061
36.497
36.9401
37.6952
38.1867
38.7999
39.3001
39.8402
40.328
40.8212
41.2832
41.7325
42.1534
42.5487
42.9092
43.2317
43.5094
43.7374
43.9101
44.0237
44.0751
44.075
44.0236
43.9099
43.7369
43.5089
43.231
42.9085
42.5478
42.1525
41.7315
41.2821
40.82
40.3268
39.8388
39.2987
38.7985
38.1853
37.6938
36.9387
36.4959
36.6371
37.1152
37.9136
38.4399
39.0877
39.6193
40.1883
40.7026
41.2189
41.7016
42.1683
42.6039
43.0109
43.3808
43.7102
43.9929
44.2242
44.3991
44.514
44.5661
44.566
44.5139
44.3989
44.2238
43.9924
43.7095
43.38
43.0101
42.603
42.1673
41.7004
41.2177
40.7013
40.187
39.618
39.0864
38.4386
37.9122
37.1138
36.6359
36.5213
37.0521
37.9014
38.4742
39.1614
39.7307
40.3318
40.8758
41.4173
41.922
42.4071
42.8579
43.2769
43.6562
43.9925
44.2802
44.5149
44.6921
44.8085
44.8612
44.8612
44.8082
44.6919
44.5146
44.2797
43.9919
43.6555
43.2761
42.8571
42.406
41.921
41.4161
40.8746
40.3306
39.7294
39.16
38.4729
37.9002
37.0509
36.5202
36.1491
36.7302
37.6462
38.2725
39.007
39.6189
40.2564
40.833
41.4019
41.9305
42.4352
42.9023
43.334
43.7232
44.067
44.3601
44.5986
44.7783
44.8963
44.9501
44.9501
44.8962
44.7781
44.5982
44.3597
44.0665
43.7227
43.3334
42.9014
42.4343
41.9295
41.4008
40.8319
40.2551
39.6177
39.0057
38.2713
37.645
36.7291
36.1481
35.5194
36.1438
37.1233
37.8155
38.6019
39.2619
39.9389
40.5515
41.1501
41.7047
42.2305
42.7153
43.161
43.5613
43.9134
44.2128
44.4556
44.6386
44.7586
44.8137
44.8137
44.7585
44.6384
44.4553
44.2124
43.9129
43.5607
43.1603
42.7145
42.2296
41.7038
41.1491
40.5503
39.9377
39.2607
38.6006
37.8143
37.1221
36.1427
35.5186
34.6535
35.2974
36.3171
37.0747
37.9198
38.6327
39.3521
40.0033
40.634
41.2166
41.7655
42.2697
42.7311
43.144
43.5059
43.8127
44.0611
44.248
44.3708
44.4275
44.4274
44.3706
44.2479
44.0608
43.8122
43.5054
43.1434
42.7305
42.269
41.7646
41.2156
40.633
40.0023
39.351
38.6315
37.9187
37.0735
36.316
35.2965
34.6525
33.604
34.2132
35.2383
36.0411
36.9369
37.7076
38.4701
39.1619
39.8256
40.438
41.0116
41.537
42.0159
42.4431
42.8165
43.1322
43.3876
43.5795
43.7057
43.7643
43.7643
43.7055
43.5793
43.3873
43.1319
42.816
42.4425
42.0153
41.5363
41.0108
40.4371
39.8245
39.1608
38.469
37.7064
36.9357
36.0399
35.2372
34.2122
33.6033
32.4309
32.9366
33.9213
34.7315
35.6564
36.4743
37.2794
38.0096
38.7056
39.3475
39.9464
40.494
40.9916
41.4346
41.8209
42.1471
42.4106
42.6086
42.7389
42.8
42.8
42.7388
42.6084
42.4103
42.1468
41.8204
41.434
40.991
40.4933
39.9456
39.3466
38.7046
38.0085
37.2782
36.473
35.655
34.7302
33.9199
32.9352
32.4297
31.1797
31.5253
32.4195
33.1915
34.1123
34.9532
35.7906
36.5515
37.2748
37.9424
38.5644
39.133
39.6491
40.1081
40.508
40.8454
41.1177
41.3225
41.4576
41.5214
41.5214
41.4575
41.3224
41.1175
40.845
40.5075
40.1076
39.6485
39.1324
38.5636
37.9414
37.2737
36.5502
35.7893
34.9517
34.1107
33.1897
32.4178
31.5235
31.1777
29.8618
30.0291
30.7944
31.4863
32.3655
33.196
34.0427
34.8246
35.566
36.2524
36.8921
37.4779
38.0095
38.4828
38.8953
39.2433
39.5244
39.7359
39.8757
39.9423
39.9422
39.8756
39.7357
39.5242
39.243
38.8948
38.4824
38.0089
37.4771
36.8912
36.2514
35.5647
34.8232
34.041
33.1941
32.3634
31.4841
30.7918
30.0269
29.8589
28.4671
28.4844
29.1133
29.7046
30.516
31.3078
32.1389
32.9209
33.6666
34.3602
35.0087
35.6046
36.1466
36.63
37.0517
37.4081
37.6963
37.9133
38.0571
38.1261
38.1261
38.057
37.9131
37.696
37.4078
37.0513
36.6295
36.146
35.6039
35.0078
34.3592
33.6653
32.9194
32.1371
31.3058
30.5135
29.702
29.1103
28.4814
28.4646
27.0082
26.9468
27.4591
27.9605
28.6956
29.4335
30.2292
30.9922
31.7296
32.4191
33.0668
33.6643
34.2095
34.6969
35.1231
35.4839
35.7761
35.9965
36.1429
36.2134
36.2134
36.1428
35.9964
35.7759
35.4837
35.1229
34.6966
34.209
33.6637
33.066
32.4181
31.7285
30.9907
30.2275
29.4314
28.6932
27.9576
27.4562
26.9435
27.0056
25.6017
25.5418
25.9772
26.4262
27.0977
27.7874
28.542
29.2758
29.9924
30.6671
31.3045
31.8949
32.4354
32.9199
33.3444
33.7043
33.9961
34.2165
34.3631
34.4342
34.4342
34.3631
34.2165
33.9961
33.7043
33.3443
32.9198
32.4354
31.8948
31.3042
30.6667
29.9918
29.2751
28.5409
27.786
27.096
26.4239
25.9744
25.5379
25.5968
24.5326
24.5217
24.9268
25.3601
25.99
26.6437
27.3576
28.0559
28.7398
29.3901
30.0074
30.5813
31.108
31.581
31.996
32.3483
32.6342
32.8503
32.9943
33.064
33.064
32.9943
32.8504
32.6343
32.3483
31.996
31.581
31.108
30.5812
30.007
29.3896
28.7391
28.0549
27.3561
26.642
25.9872
25.3577
24.9218
24.5189
24.5241
24.1305
24.1788
24.5716
25.0015
25.5952
26.2123
26.8777
27.53
28.1739
28.7907
29.3777
29.9251
30.428
30.8802
31.2773
31.6145
31.8884
32.0956
32.2334
32.3001
32.3003
32.2334
32.0957
31.8886
31.6147
31.2774
30.8804
30.4281
29.9251
29.3777
28.7905
28.1736
27.5295
26.8769
26.2114
25.5938
25.0003
24.5693
24.1776
24.1275
24.4765
24.5395
24.9212
25.3281
25.881
26.4492
27.0592
27.6606
28.2594
28.8353
29.3849
29.8982
30.3703
30.7953
31.1687
31.4861
31.7439
31.9388
32.0684
32.131
32.131
32.0685
31.939
31.7442
31.4865
31.1692
30.7958
30.3709
29.8987
29.3854
28.8357
28.2598
27.6609
27.0593
26.4493
25.8805
25.328
24.9195
24.5391
24.4722
25.1909
25.2443
25.6185
25.9952
26.5132
27.0361
27.6028
28.1629
28.7233
29.2625
29.7781
30.2598
30.7032
31.1026
31.4537
31.7521
31.9945
32.1778
32.2995
32.358
32.3581
32.2997
32.178
31.9948
31.7525
31.454
31.1031
30.7037
30.2602
29.7785
29.2629
28.7236
28.1631
27.6031
27.0362
26.5134
25.9954
25.6192
25.2447
25.193
25.8213
25.8479
26.2227
26.5726
27.0714
27.5652
28.1089
28.6442
29.1821
29.6991
30.1942
30.6568
31.083
31.4668
31.8044
32.0914
32.3246
32.5009
32.6179
32.6738
32.6739
32.6181
32.5013
32.3253
32.0922
31.8053
31.4679
31.0841
30.658
30.1955
29.7005
29.1834
28.6456
28.1103
27.5667
27.0729
26.5742
26.2244
25.8499
25.8232
93.1301
60.8432
52.5085
55.5864
61.5667
66.6467
70.8649
74.4017
77.4094
80.0365
82.4119
84.5982
86.64
88.5816
90.4447
92.2739
94.0982
95.9751
97.9188
99.9426
102.054
104.254
106.535
108.888
111.293
113.726
116.151
118.515
120.742
122.726
124.28
125.149
82.0355
61.1919
51.8379
54.0687
59.8894
64.9326
69.1341
72.6545
75.6507
78.2844
80.6495
82.8054
84.8129
86.6982
88.5076
90.2694
92.0445
93.8447
95.7119
97.6645
99.7059
101.832
104.037
106.308
108.632
110.981
113.323
115.606
117.757
119.673
121.174
122.011
75.0747
59.8624
51.1294
52.6664
58.2474
63.2125
67.3654
70.8832
73.9056
76.5426
78.9065
81.0517
83.0141
84.8598
86.6105
88.3222
90.0136
91.757
93.5644
95.4452
97.4075
99.4545
101.579
103.77
106.012
108.28
110.539
112.742
114.818
116.667
118.115
118.92
92.574
61.6803
50.8154
51.1461
56.4736
61.4217
65.601
69.1428
72.1681
74.8299
77.1962
79.3154
81.2575
83.0529
84.7608
86.4046
88.0633
89.7352
91.4653
93.2783
95.1779
97.1564
99.2093
101.324
103.487
105.673
107.852
109.977
111.979
113.761
115.157
115.932
77.9136
59.5842
49.7981
49.7078
54.7823
59.6699
63.806
67.3504
70.4371
73.1186
75.4898
77.6199
79.5313
81.3045
82.9614
84.5753
86.1476
87.7702
89.4547
91.2045
93.0276
94.9314
96.907
98.9465
101.033
103.143
105.245
107.293
109.224
110.944
112.289
113.034
74.1937
59.6236
49.3421
48.1436
52.8799
57.7598
61.972
65.5984
68.6934
71.412
73.8094
75.918
77.8348
79.5719
81.2076
82.7537
84.3185
85.8813
87.4892
89.1765
90.9484
92.7929
94.7066
96.6766
98.6897
100.724
102.751
104.726
106.587
108.245
109.541
110.257
87.2128
60.3705
48.7796
46.7124
51.0927
55.9397
60.1195
63.727
66.92
69.683
72.0903
74.2432
76.1429
77.8891
79.4847
81.0344
82.5107
84.0324
85.6142
87.251
88.9495
90.7233
92.5637
94.4633
96.4056
98.3696
100.324
102.23
104.024
105.623
106.872
107.56
72.8017
60.0147
48.6681
45.1228
48.9824
53.8035
58.11
61.8982
65.1074
67.9173
70.3921
72.5289
74.4635
76.1854
77.7965
79.2772
80.7812
82.2625
83.7678
85.3464
87.0079
88.7343
90.5231
92.3624
94.2378
96.1314
98.0164
99.8525
101.583
103.123
104.326
104.986
89.5625
60.2798
47.9975
43.6741
46.9791
51.8058
56.1201
59.8323
63.1933
66.0999
68.5893
70.8207
72.7537
74.5209
76.0976
77.6313
79.0473
80.4956
82.0011
83.5472
85.1382
86.7968
88.5152
90.2862
92.0972
93.9255
95.7435
97.5143
99.1819
100.668
101.827
102.458
74.3352
58.7788
47.0138
41.8272
44.4769
49.2074
53.7017
57.799
61.2061
64.1712
66.8026
69.0246
71.0355
72.7868
74.4239
75.8762
77.3616
78.7983
80.2265
81.7176
83.2894
84.9158
86.5953
88.3166
90.066
91.828
93.5798
95.2853
96.8919
98.3228
99.4382
100.042
74.9845
57.7636
46.6856
40.2359
41.9995
46.7978
51.4243
55.318
58.9768
62.1519
64.803
67.2012
69.2312
71.0841
72.6853
74.2561
75.6457
77.0503
78.5121
79.995
81.497
83.0554
84.6636
86.318
88.0067
89.7083
91.3966
93.0397
94.5867
95.9659
97.0382
97.6131
70.6875
54.4273
44.849
38.2705
38.7815
43.2424
48.0869
52.842
56.627
59.8787
62.8156
65.2145
67.3932
69.2359
70.9688
72.4314
73.945
75.3779
76.7554
78.1798
79.6845
81.2301
82.8176
84.4323
86.0648
87.7029
89.3278
90.9073
92.3955
93.7204
94.7507
95.2982
75.161
56.8971
45.2463
36.3545
35.4042
39.9104
45.2359
49.4472
53.7337
57.454
60.4198
63.1482
65.3769
67.4169
69.1012
70.7843
72.1896
73.5836
75.0397
76.4913
77.9238
79.3965
80.9042
82.4541
84.0292
85.6112
87.1751
88.6941
90.124
91.3992
92.3874
92.906
65.6683
55.0645
45.3158
35.273
30.6875
34.0468
39.5548
46.034
50.6057
54.4562
58.0312
60.7793
63.2938
65.3249
67.2629
68.7857
70.3941
71.8793
73.2372
74.6187
76.0839
77.5724
79.0896
80.6082
82.1333
83.6535
85.1559
86.6128
87.9852
89.2062
90.1521
90.644
47.7452
47.7948
42.1517
32.5742
25.9465
28.1664
35.4105
40.0893
46.1873
51.189
54.8148
58.2424
60.8623
63.274
65.1279
67.0415
68.5177
69.9434
71.4459
72.9096
74.2954
75.6979
77.1121
78.5712
80.0404
81.5084
82.9514
84.3483
85.6614
86.8346
87.7382
88.1993
25.2441
36.4763
35.7786
29.9169
14.3501
11.1697
19.9223
34.6296
40.8818
46.4211
51.6027
55.088
58.3145
60.7109
63.0523
64.7022
66.5096
68.1284
69.5052
70.8713
72.3334
73.7958
75.2721
76.705
78.1319
79.5381
80.9197
82.2543
83.5104
84.6272
85.4889
85.9233
16.665
19.5384
20.3543
10.922
7.22489
15.9098
7.69064
11.1888
32.4276
41.1255
46.3899
51.5972
55.04
58.2315
60.4036
62.7646
64.3868
65.9011
67.528
69.0669
70.433
71.7815
73.1056
74.4877
75.8563
77.2138
78.5353
79.8078
81.0017
82.0706
82.8879
83.2877
6.73859
8.79475
6.73136
7.15488
4.9443
15.9845
16.7425
17.1891
21.8542
29.5526
41.1723
46.5482
51.574
54.723
57.9024
59.7776
61.9774
63.8614
65.3056
66.6876
68.2001
69.6805
71.1573
72.5177
73.8562
75.1489
76.4072
77.6151
78.7513
79.7591
80.5331
80.907
3.76741
3.67843
8.44074
14.5721
15.7087
17.0995
6.47433
3.72115
6.2152
10.2211
28.1635
40.6927
46.2902
51.4146
54.2084
57.5032
59.3805
61.0752
62.9635
64.6831
66.0635
67.3746
68.6055
69.9232
71.1919
72.4389
73.6331
74.7725
75.8382
76.7974
77.522
77.853
1.56164
10.9251
9.61711
8.6075
17.4524
18.3988
19.3137
19.7548
19.8154
8.92223
17.8328
29.4085
40.7269
45.6692
50.9185
53.1761
56.2249
58.6317
60.2096
61.6469
63.302
64.8753
66.4197
67.7304
68.9941
70.1688
71.295
72.3652
73.3724
74.2614
74.9411
75.2479
6.72962
15.9482
19.4201
20.3475
16.9097
11.6091
21.6386
22.1182
21.6543
21.4907
20.7083
22.7984
27.6508
40.5112
44.6824
50.3551
52.6613
54.7162
57.1699
59.2869
60.7303
62.0203
63.1426
64.4046
65.5678
66.7004
67.7531
68.7406
69.6595
70.4979
71.1175
71.3647
8.0067
18.3982
23.2697
26.7214
28.6075
27.0522
17.3862
18.5868
25.4957
17.4415
14.7807
7.70488
18.7186
26.2486
39.7263
42.5567
47.9108
51.544
53.3725
54.9149
56.9207
58.7533
60.5013
61.8167
63.0308
64.0775
65.0547
65.9673
66.8303
67.5831
68.1579
68.3871
7.89607
18.3024
24.0306
28.2281
30.8093
31.9531
31.7498
24.3313
11.9198
21.6039
11.0099
17.7749
23.4421
18.3588
23.0586
39.0772
42.1471
44.94
48.8356
51.9563
53.5472
54.8158
55.7843
56.9914
58.0397
59.0528
59.9349
60.7343
61.4707
62.17
62.6618
62.7946
7.46983
17.1432
23.1936
27.9035
31.3563
33.3823
33.5938
32.8148
27.1115
12.7925
1.17036
13.475
17.625
23.1483
16.9818
13.3922
32.4087
40.2884
42.6424
44.3294
47.3414
49.9447
52.2719
53.7611
54.9916
55.8932
56.6981
57.4185
58.1191
58.7078
59.1653
59.3
6.71397
15.6082
21.5851
26.2794
29.8512
32.4319
34.0492
34.0906
33.0765
28.5857
19.3852
24.1436
28.3038
6.63179
23.2226
22.0365
13.3222
23.1184
34.0763
40.4201
42.3325
43.5641
44.0819
45.2051
46.115
47.0208
47.6527
48.1924
48.6491
49.1954
49.4989
49.4378
5.9865
14.3624
20.0081
24.4911
28
30.6628
32.4511
33.4535
33.2455
32.2213
29.3547
14.32
26.1078
17.3957
19.8454
23.4971
22.5687
8.23232
10.2105
18.2228
27.7939
33.1903
38.5654
41.0046
42.5107
43.2838
43.9322
44.2976
44.9416
45.2059
45.6518
45.6321
5.24392
13.2461
18.275
22.2723
25.4651
28.0337
30.0139
31.256
31.8284
31.6939
30.8584
31.8867
22.752
19.0986
27.4142
13.7575
24.458
17.492
25.0769
18.8394
13.1645
21.6864
11.8837
13.0399
15.8834
15.4566
15.3494
16.9352
14.2483
16.9819
14.5086
12.8781
4.63803
12.235
16.0924
19.1899
21.8509
24.1882
26.14
27.6335
28.5889
29.2228
30.1061
29.5156
31.3023
26.9181
2.48362
27.3875
15.4891
13.1953
20.1073
4.93483
19.6826
27.4272
18.5229
7.33735
28.2112
20.9505
8.13703
29.7371
8.64791
30.8565
8.59834
22.6129
4.26131
11.5455
13.6286
15.3097
17.0541
18.8979
20.744
22.4372
23.9713
25.468
26.8353
29.1369
29.8102
31.3525
31.7636
18.0474
1.78076
5.75758
17.4065
27.1234
12.9953
18.6163
27.2693
27.6801
19.1374
6.12712
28.5108
19.6675
29.8407
22.3844
30.1338
9.89383
3.99178
12.0774
12.1582
12.5555
13.1348
14.0059
15.3139
17.0636
19.0631
21.2038
23.6103
25.4969
28.21
29.949
30.9282
32.7997
26.2956
8.11203
10.6056
25.1228
14.3692
23.5852
4.28872
17.8593
30.5263
18.6139
29.6307
25.1688
9.66343
19.0215
32.4296
27.1254
3.70101
11.173
11.8494
11.841
11.978
12.1967
13.03
14.6336
16.61
18.6868
20.737
23.2904
25.3518
27.8272
30.2668
31.1311
32.3844
30.8853
20.4355
22.7558
18.3328
9.48325
25.0709
7.70229
22.9533
13.5806
32.7643
29.6429
14.8943
33.5675
25.2578
6.03862
3.55432
11.3659
11.5113
11.7388
11.8596
12.1166
13.2903
15.1255
16.9705
18.6251
20.2588
21.6923
23.6519
25.572
27.569
30.2357
31.7057
32.3039
32.5866
29.2564
21.2752
16.5729
22.9584
25.9243
30.9682
5.17839
30.1585
24.6986
26.4565
20.9392
32.6822
8.33637
2.45741
9.16663
11.3697
11.5978
11.6835
11.9818
13.7897
15.9745
17.8998
19.5063
20.8256
22.1503
23.2117
24.4804
26.0864
27.6349
29.8144
31.8025
32.4705
32.4659
32.3053
29.8517
26.7142
22.969
20.9192
19.0442
18.7144
18.2103
17.9135
17.7784
19.4837
20.1915
2.22297
8.45185
10.7698
11.5263
11.5735
13.1519
15.5195
17.6596
19.3895
20.7999
22.0167
22.9738
23.9128
24.6921
25.4026
26.5817
27.9362
29.5666
31.43
32.5693
32.4083
32.0295
31.3785
30.9838
30.7307
30.5775
30.114
29.6737
29.3347
29.3492
29.3254
29.5066
2.87323
9.70127
11.3996
11.8568
12.8509
15.2246
17.5228
19.4337
21.0134
22.3375
23.4347
24.3957
25.1055
25.6699
26.1609
26.4751
27.0866
28.1623
29.4247
30.742
31.6608
31.9592
31.4955
30.5178
29.3466
28.0998
26.9852
26.1711
25.5284