/*--------------------------------*- C++ -*----------------------------------*\
  =========                 |
  \\      /  F ield         | OpenFOAM: The Open Source CFD Toolbox
   \\    /   O peration     | Website:  https://openfoam.org
    \\  /    A nd           | Version:  6
     \\/     M anipulation  |
\*---------------------------------------------------------------------------*/
FoamFile
{
    version     2.0;
    format      ascii;
    class       volScalarField;
    location    "24";
    object      yPlus;
}
// * * * * * * * * * * * * * * * * * * * * * * * * * * * * * * * * * * * * * //

dimensions      [0 0 0 0 0 0 0];

internalField   uniform 0;

boundaryField
{
    inlet
    {
        type            calculated;
        value           uniform 0;
    }
    outlet
    {
        type            calculated;
        value           uniform 0;
    }
    roughCylinder
    {
        type            calculated;
        value           nonuniform List<scalar> 
5120
(
42.5974
50.3634
56.5312
62.539
67.6794
71.8229
75.1306
77.7967
79.9758
81.8038
83.3997
84.8298
86.1322
87.3387
88.4794
89.584
90.6822
91.8008
92.9619
94.1814
95.4681
96.8236
98.2446
99.7239
101.251
102.814
104.395
105.971
107.501
108.918
110.077
110.755
41.9162
49.398
55.3697
61.2415
66.311
70.42
73.709
76.3663
78.5452
80.3799
81.983
83.4155
84.7084
85.9002
87.0226
88.1062
89.1809
90.2747
91.4104
92.6035
93.8619
95.1878
96.578
98.0249
99.5184
101.046
102.591
104.13
105.623
107.006
108.135
108.796
41.1429
48.381
54.1706
59.9094
64.9106
68.9908
72.2699
74.9292
77.1194
78.9703
80.5861
82.0225
83.3097
84.4903
85.5962
86.6597
87.7129
88.7838
89.8941
91.0604
92.2914
93.5884
94.9481
96.3631
97.8234
99.316
100.824
102.327
103.784
105.132
106.233
106.876
40.3685
47.3702
52.9747
58.5739
63.5039
67.5565
70.829
73.4957
75.705
77.5793
79.2121
80.6556
81.9429
83.1136
84.2058
85.2526
86.2856
87.3336
88.4211
89.563
90.7673
92.0362
93.3662
94.7498
96.177
97.6349
99.108
100.574
101.995
103.309
104.381
105.007
39.5191
46.3017
51.7225
57.1817
62.045
66.082
69.3641
72.0548
74.2958
76.2008
77.8555
79.311
80.6032
81.7699
82.8518
83.8829
84.8985
85.9278
86.9927
88.11
89.2893
90.5314
91.8328
93.1862
94.5813
96.0064
97.4442
98.8756
100.261
101.542
102.587
103.194
38.6902
45.2497
50.4775
55.7879
60.5823
64.6067
67.9021
70.6185
72.8934
74.8328
76.5137
77.9855
79.2868
80.4551
81.5306
82.5518
83.552
84.5619
85.6076
86.7045
87.8597
89.0761
90.35
91.6738
93.0376
94.4295
95.8332
97.2292
98.5794
99.8285
100.845
101.434
37.7736
44.121
49.1509
54.3069
59.0349
63.0605
66.391
69.1564
71.4823
73.4646
75.1768
76.6709
77.9878
79.166
80.2418
81.2545
82.243
83.2402
84.2673
85.3423
86.4755
87.6677
88.9152
90.211
91.5445
92.9044
94.2752
95.6374
96.9547
98.1708
99.1608
99.7338
36.8836
43.0105
47.8311
52.8211
57.4793
61.5106
64.8799
67.6914
70.0643
72.0926
73.844
75.3677
76.7056
77.8958
78.9791
79.9913
80.9731
81.9557
82.9685
84.0278
85.1403
86.3095
87.5318
88.7997
90.1036
91.4316
92.7689
94.0977
95.3789
96.565
97.5276
98.0828
35.8733
41.7861
46.3848
51.1934
55.7754
59.8237
63.2598
66.1552
68.609
70.7007
72.4982
74.0577
75.4243
76.6396
77.7364
78.7543
79.7323
80.7117
81.7116
82.7524
83.8464
84.9943
86.1925
87.4342
88.7092
90.0071
91.3122
92.6082
93.859
95.0126
95.9492
96.4878
34.8803
40.5686
44.9357
49.5487
54.0487
58.1202
61.6296
64.6011
67.1214
69.2786
71.1367
72.746
74.1524
75.3912
76.5071
77.5367
78.5226
79.4956
80.4878
81.5196
82.5971
83.7248
84.9
86.1152
87.3614
88.6277
89.8999
91.1621
92.3756
93.5004
94.4099
94.9297
33.6924
39.1654
43.2819
47.6678
52.06
56.1536
59.7691
62.8819
65.5423
67.8047
69.7366
71.4032
72.853
74.1372
75.2834
76.3327
77.3242
78.3058
79.2943
80.3122
81.3753
82.4849
83.6376
84.8277
86.0452
87.2815
88.5216
89.7513
90.9356
92.0276
92.9114
93.4145
32.4763
37.7416
41.6027
45.7492
50.0264
54.1529
57.89
61.1308
63.8909
66.2544
68.285
70.032
71.5532
72.8774
74.0575
75.1317
76.1471
77.1296
78.1178
79.1354
80.1873
81.28
82.4119
83.5766
84.7657
85.9694
87.1757
88.3714
89.5164
90.5796
91.4364
91.9191
30.9641
36.0241
39.5879
43.4257
47.5163
51.6362
55.5197
59.001
62.0284
64.588
66.7472
68.5957
70.1814
71.5791
72.8134
73.928
74.9594
75.9655
76.9605
77.9685
79.0106
80.0888
81.2005
82.3411
83.5014
84.676
85.8496
87.0127
88.1302
89.1611
89.9913
90.4565
29.3447
34.2277
37.5134
41.0467
44.9515
49.0914
53.1637
56.8601
60.0338
62.7643
65.1014
67.0777
68.7907
70.2566
71.5466
72.7021
73.7799
74.7966
75.8
76.8193
77.8569
78.9221
80.0154
81.1316
82.2637
83.4035
84.5418
85.6695
86.7436
87.7448
88.5464
88.99
27.2031
31.9071
34.833
37.9071
41.4394
45.4413
49.6569
53.7699
57.5263
60.6614
63.2404
65.4296
67.2517
68.8405
70.221
71.4493
72.5561
73.6172
74.6432
75.6575
76.6906
77.7457
78.8211
79.9138
81.016
82.127
83.2315
84.326
85.3735
86.3416
87.1163
87.5408
24.7018
29.3407
32.029
34.7523
37.9838
41.9658
46.4933
50.9393
54.8023
58.257
61.2161
63.606
65.6605
67.368
68.8437
70.1352
71.3224
72.4069
73.4511
74.4937
75.5317
76.5785
77.6377
78.7065
79.7798
80.8515
81.9169
82.9737
83.9711
84.9066
85.6504
86.0502
21.0062
25.631
27.8495
29.7897
32.1744
35.5122
39.8935
45.1851
50.7304
55.1036
58.5397
61.467
63.7552
65.6996
67.3325
68.7543
69.9897
71.1504
72.2416
73.2835
74.323
75.3651
76.4092
77.454
78.4942
79.5368
80.5667
81.5878
82.5593
83.4608
84.176
84.5534
15.9512
21.0605
23.692
25.617
27.594
30.9664
36.3238
41.7603
46.1727
51.3567
55.8093
59.0129
61.7555
63.9099
65.7211
67.2461
68.6206
69.8227
70.9435
72.0409
73.0993
74.139
75.1686
76.1889
77.1979
78.1933
79.1759
80.1551
81.0655
81.9283
82.6064
82.9558
6.64143
11.3904
12.2199
12.5351
10.7636
11.3362
14.9663
25.1062
38.5554
45.3124
50.7612
55.6568
58.9866
61.6977
63.8174
65.5919
67.0499
68.3866
69.598
70.6969
71.7634
72.8061
73.8236
74.818
75.7876
76.7513
77.696
78.6351
79.5189
80.346
80.9945
81.3146
0.910015
6.76174
7.44407
7.60573
5.83577
2.39362
12.0489
13.2921
20.3634
38.109
46.7233
51.6045
56.1116
59.2166
61.7172
63.6854
65.4029
66.8089
68.0635
69.268
70.3786
71.4262
72.4305
73.3969
74.3294
75.2326
76.1129
77.0022
77.8067
78.5834
79.1825
79.4674
11.2448
15.0673
15.6219
14.4836
13.2895
16.1436
21.0028
18.0528
16.7497
17.4939
34.1135
45.649
51.1465
55.7543
58.9382
61.4436
63.3258
64.9986
66.4365
67.6396
68.7642
69.8284
70.8246
71.7603
72.6414
73.5046
74.3448
75.1878
75.9616
76.6985
77.2687
77.5127
19.0251
23.5331
25.394
26.0122
25.1992
23.1777
20.8359
12.4791
15.7925
19.6586
20.0139
33.3314
45.8269
51.4988
55.7483
58.687
61.1203
62.9045
64.4009
65.8203
67.0444
68.1242
69.1074
70.0061
70.8349
71.6134
72.3519
73.1257
73.789
74.4542
74.9462
75.139
21.5857
26.4684
29.0736
30.9191
31.8952
31.8205
30.2913
27.1739
20.7669
22.4979
13.2439
14.7628
34.8602
45.1274
50.7795
55.0798
57.8825
60.2939
62.2093
63.604
64.8409
65.9674
66.951
67.8056
68.5574
69.2756
69.9716
70.7009
71.3216
71.926
72.4019
72.535
22.3108
27.3272
30.1792
32.4193
34.0058
34.906
35.0363
34.157
31.6674
26.9887
27.7093
13.8519
9.97663
34.5923
44.9944
50.3573
54.5628
57.0922
59.0428
60.9475
62.4335
63.5952
64.5605
65.3585
66.0187
66.5942
67.1053
67.6954
68.1519
68.658
68.9778
69.0101
21.7893
26.9344
29.9528
32.4413
34.3614
35.7016
36.458
36.6156
36.055
34.225
30.8183
23.4545
15.5698
19.7665
32.2865
43.2635
48.2219
52.6106
55.742
57.4741
58.9139
60.1863
61.1854
61.8923
62.4062
62.8929
63.338
63.9783
64.3827
64.6624
65.032
65.0251
20.3592
25.6377
28.7574
31.3991
33.5367
35.1712
36.3252
37.0396
37.3577
37.231
36.122
33.0763
28.0412
31.926
33.0132
33.0217
43.2116
46.9502
49.6141
52.8665
55.0778
56.4327
57.3736
57.9719
58.2821
58.4012
58.5185
58.6419
58.7523
59.0779
59.0661
58.638
18.4656
23.8421
26.9996
29.7077
31.9597
33.7706
35.1708
36.2192
36.9965
37.571
37.8772
37.332
33.8066
29.9731
27.3025
33.1639
27.7189
37.5189
44.6248
46.6016
48.2116
49.7987
50.9154
51.374
51.1729
51.4007
51.184
52.1839
53.192
51.115
51.4333
52.2795
16.3004
21.6728
24.7722
27.446
29.7149
31.6168
33.1964
34.5138
35.6548
36.701
37.6672
38.3745
38.0552
34.8225
27.1561
23.0806
8.40363
22.6377
29.7033
37.1169
42.3777
43.5723
44.7014
44.3587
43.812
42.6672
41.229
40.1778
38.5112
40.2509
39.8893
35.2652
14.1129
19.3346
22.2655
24.7975
26.9831
28.8826
30.5552
32.0662
33.4944
34.92
36.3716
37.7569
38.7596
38.5917
35.5658
23.5163
26.9271
10.0013
4.5595
19.7764
22.4561
25.3307
26.64
28.5355
22.9234
22.1563
33.767
22.5102
33.7086
34.2391
8.89548
30.0106
12.1859
17.1288
19.8095
22.1209
24.1482
25.97
27.6559
29.272
30.8854
32.5645
34.3494
36.1961
37.9128
39.0881
38.908
35.6353
29.4074
21.2333
24.2336
9.91984
16.3051
8.63212
20.9671
34.0168
13.2591
28.3314
40.4001
26.9554
40.1364
34.5581
18.6189
34.9135
10.71
15.304
17.7157
19.7843
21.624
23.3267
24.9665
26.604
28.2919
30.0788
32.0076
34.0818
36.2086
38.1234
39.3403
39.1595
35.7111
32.3564
30.794
17.2277
29.8396
18.3931
25.8346
34.0599
29.4378
34.7242
40.2937
32.818
36.3236
34.2052
35.7546
29.2489
9.61655
13.9714
16.1566
18.0211
19.7014
21.2931
22.8638
24.4609
26.1213
27.8796
29.7747
31.8402
34.067
36.3242
38.2777
39.4395
38.9524
38.3353
34.4814
31.718
27.2227
26.139
25.7901
27.9398
32.5841
34.6991
36.3411
37.3355
34.2322
40.4526
39.0134
39.7274
9.03702
13.2057
15.2321
16.9651
18.549
20.0697
21.5777
23.1021
24.6653
26.2939
28.0252
29.9059
31.9735
34.2086
36.4509
38.3528
39.3568
39.891
38.69
38.5921
35.2731
36.5603
36.1134
38.144
39.142
41.2394
42.1187
42.6818
40.7221
43.4462
42.1747
43.1852
8.87092
12.9546
14.9119
16.5983
18.1553
19.652
21.1188
22.5683
24.0127
25.4749
26.9901
28.6046
30.3693
32.3206
34.4336
36.5527
38.3274
39.6893
40.008
40.4917
39.2848
40.1278
40.101
41.2752
41.0543
42.6077
42.8375
43.3772
42.2971
42.9808
42.3714
43.4315
9.0518
13.1283
15.0897
16.7979
18.3819
19.8918
21.3408
22.7319
24.0734
25.3858
26.7002
28.0554
29.4976
31.0762
32.8267
34.7292
36.6424
38.441
39.7127
40.7028
40.5728
41.1366
41.2034
41.8474
41.3828
42.3758
42.2138
42.5623
41.7687
41.7583
41.653
42.3074
9.48872
13.6096
15.6233
17.3986
19.045
20.5953
22.0511
23.4104
24.6807
25.8823
27.0431
28.1946
29.372
30.6165
31.9737
33.4798
35.1236
36.8638
38.4743
39.844
40.4255
40.9949
41.0811
41.3256
40.7609
41.1098
40.7015
40.7597
40.1028
39.9924
40.1739
40.4555
10.1277
14.3221
16.4113
18.2734
19.9969
21.6
23.0775
24.4269
25.658
26.7921
27.8549
28.871
29.8648
30.8648
31.9071
33.035
34.284
35.6785
37.1428
38.5383
39.449
40.0896
40.1879
40.1718
39.5315
39.4015
38.8494
38.6325
38.1376
38.1761
38.4886
38.595
10.9142
15.2093
17.3858
19.3406
21.1426
22.7996
24.3043
25.657
26.8721
27.9736
28.9858
29.9277
30.8141
31.661
32.4909
33.3373
34.2398
35.2418
36.3447
37.4764
38.3633
38.9636
39.0471
38.8749
38.2138
37.7899
37.1775
36.8026
36.5094
36.7411
37.1301
37.2374
11.7569
16.2208
18.4927
20.5398
22.4167
24.125
25.6586
27.023
28.2386
29.332
30.3272
31.2387
32.0745
32.8414
33.5496
34.2188
34.8773
35.5631
36.3021
37.0729
37.7253
38.1555
38.1667
37.8903
37.2381
36.6634
36.0483
35.6288
35.5307
35.9233
36.3809
36.5801
12.7379
17.3238
19.6895
21.8261
23.7736
25.5304
27.0939
28.4764
29.7038
30.806
31.806
32.7151
33.5369
34.2722
34.9234
35.4987
36.0119
36.4867
36.9485
37.3986
37.7653
37.9635
37.8494
37.4775
36.8274
36.1818
35.5908
35.1965
35.2555
35.7631
36.2929
36.6049
13.4483
13.875
14.3628
14.7575
15.1364
15.4387
15.7008
15.9041
16.0665
16.181
16.2584
16.2975
16.3024
16.274
16.2169
16.1335
16.0258
15.8986
15.7613
15.6387
15.608
15.7088
15.8433
15.9745
16.0883
16.1787
16.2424
16.2772
16.2793
16.2465
16.1744
16.0653
15.9085
15.7106
15.4536
15.1578
14.7837
14.3931
13.9079
13.4811
18.1448
18.5866
19.0931
19.5049
19.9011
20.2242
20.5087
20.7366
20.925
21.0673
21.1732
21.2417
21.2758
21.2753
21.2426
21.1796
21.0873
20.9689
20.8331
20.7062
20.6766
20.7849
20.922
21.0478
21.1492
21.2212
21.262
21.2702
21.2434
21.1807
21.0796
20.9419
20.7581
20.5344
20.2539
19.9358
19.5435
19.1353
18.631
18.189
20.5783
21.0452
21.5809
22.0175
22.4412
22.7941
23.1124
23.3772
23.6056
23.7912
23.942
24.0572
24.1391
24.1858
24.1977
24.1756
24.1197
24.0317
23.9191
23.807
23.7812
23.8793
23.9966
24.0948
24.162
24.1946
24.1918
24.1533
24.0784
23.9679
23.8209
23.6386
23.413
23.1506
22.8344
22.4849
22.0639
21.6303
21.0964
20.6297
22.768
23.2531
23.8101
24.2647
24.7114
25.09
25.4391
25.7384
26.0052
26.2329
26.4279
26.5888
26.7176
26.8115
26.8689
26.889
26.8714
26.8171
26.7333
26.6448
26.6257
26.7042
26.7954
26.8622
26.8929
26.8847
26.8375
26.7522
26.6297
26.4725
26.2805
26.0545
25.7885
25.4895
25.1406
24.7631
24.3175
23.8645
23.3084
22.8236
24.7518
25.2393
25.8022
26.2612
26.7179
27.11
27.4778
27.8002
28.0939
28.3534
28.5836
28.782
28.9494
29.082
29.1775
29.2336
29.2489
29.2245
29.1678
29.1029
29.0902
29.149
29.2151
29.2537
29.2531
29.2103
29.1259
29.002
28.8407
28.6454
28.4167
28.157
27.8619
27.5378
27.1684
26.7752
26.3176
25.8585
25.2953
24.8078
26.5292
27.0027
27.5574
28.0089
28.4643
28.86
29.2371
29.5755
29.891
30.1768
30.4367
30.6673
30.8675
31.0333
31.1615
31.2485
31.2925
31.2938
31.2602
31.2147
31.2069
31.2501
31.2952
31.3098
31.2821
31.2097
31.0935
30.9368
30.7424
30.5147
30.2552
29.9676
29.6489
29.3062
28.9252
28.5259
28.0672
27.6135
27.0569
26.5826
28.1013
28.5498
29.0894
29.5281
29.9781
30.375
30.7614
31.1157
31.4519
31.7623
32.0498
32.3095
32.5396
32.7352
32.8921
33.0064
33.0751
33.0982
33.0831
33.0517
33.0471
33.08
33.1087
33.1034
33.0527
32.9545
32.8105
32.6246
32.4005
32.1436
31.856
31.5428
31.2019
30.8414
30.4484
30.0443
29.5884
29.1451
28.602
28.1516
29.4855
29.9055
30.4298
30.8573
31.3047
31.7078
32.1056
32.4769
32.8336
33.1676
33.4805
33.7669
34.024
34.2461
34.4285
34.5662
34.6557
34.6966
34.6957
34.6739
34.6714
34.698
34.7148
34.6938
34.624
34.5037
34.3355
34.1238
33.8733
33.5897
33.2766
32.9392
32.577
32.1982
31.7919
31.3796
30.923
30.488
29.9579
29.5342
30.7122
31.1054
31.6185
32.04
32.49
32.9015
33.3119
33.6999
34.0757
34.4314
34.767
35.0771
35.3576
35.6027
35.8067
35.964
36.0706
36.1254
36.1347
36.119
36.1179
36.141
36.15
36.1171
36.032
35.8937
35.7051
35.4713
35.1981
34.8913
34.5554
34.1964
33.8144
33.418
32.9981
32.5758
32.1149
31.6827
31.1614
30.7621
31.8126
32.1822
32.6876
33.1078
33.5615
33.9819
34.404
34.8071
35.1999
35.5743
35.9295
36.2595
36.5599
36.824
37.0457
37.219
37.339
37.4045
37.4209
37.4089
37.4088
37.4304
37.4344
37.3928
37.296
37.1433
36.9382
36.6866
36.3943
36.0681
35.713
35.3352
34.9363
34.5245
34.092
33.6597
33.1937
32.7614
32.2448
31.8666
32.8078
33.1553
33.6556
34.0745
34.5318
34.9601
35.3923
35.8084
36.2154
36.6053
36.9767
37.3233
37.6397
37.9192
38.1551
38.3409
38.4715
38.545
38.5668
38.5573
38.5581
38.5791
38.5797
38.5318
38.4262
38.2623
38.0444
37.7784
37.471
37.1292
36.7584
36.3653
35.9522
35.5273
35.0842
34.6434
34.1729
33.7402
33.2272
32.8687
33.7092
34.0333
34.5273
34.9443
35.4041
35.8388
36.2795
36.7062
37.125
37.5278
37.9124
38.2723
38.6016
38.8935
39.1405
39.3363
39.4753
39.5557
39.5824
39.5759
39.5777
39.5976
39.5948
39.5418
39.4291
39.2567
39.0288
38.7518
38.4325
38.0781
37.6949
37.2895
36.8647
36.4291
35.9775
35.5295
35.0557
34.6234
34.1153
33.7773
34.5189
34.8164
35.3017
35.7156
36.177
36.6171
37.0649
37.5007
37.9293
38.3427
38.738
39.1087
39.4484
39.75
40.0062
40.2101
40.3565
40.4433
40.476
40.4743
40.4776
40.4945
40.4873
40.4289
40.3101
40.1308
39.8951
39.6094
39.2809
38.9168
38.5235
38.1081
37.674
37.2295
36.7705
36.3168
35.8406
35.4098
34.9081
34.5929
35.2362
35.5023
35.9759
36.3855
36.8474
37.2921
37.7463
38.1901
38.6274
39.0499
39.4543
39.8338
40.1819
40.4914
40.7551
40.9661
41.1193
41.2132
41.2534
41.2588
41.264
41.2761
41.2623
41.1977
41.0731
40.8879
40.6459
40.3535
40.0176
39.6458
39.2443
38.8206
38.3783
37.9261
37.4607
37.0019
36.524
36.0955
35.6025
35.3134
35.862
36.0887
36.5463
36.95
37.4115
37.8606
38.3207
38.7722
39.2176
39.6483
40.0607
40.4478
40.8031
41.1194
41.3895
41.6069
41.7669
41.8685
41.9176
41.9316
41.9389
41.9449
41.9232
41.8516
41.721
41.5303
41.283
40.985
40.6431
40.2647
39.8562
39.4251
38.9753
38.5156
38.044
37.5801
37.1009
36.6759
36.1944
35.9365
36.3983
36.5733
37.0085
37.4037
37.864
38.3173
38.7836
39.2427
39.696
40.1347
40.5545
40.9486
41.3103
41.6326
41.9085
42.132
42.299
42.4087
42.4673
42.4899
42.4994
42.4993
42.4691
42.39
42.2533
42.0574
41.8053
41.5023
41.1551
40.7708
40.3558
39.9175
39.4602
38.9929
38.5147
38.0457
37.5656
37.1453
36.6797
36.4626
36.8506
36.9538
37.3573
37.7398
38.1973
38.6543
39.127
39.5942
40.0556
40.5023
40.9295
41.3303
41.6981
42.0262
42.3076
42.537
42.7107
42.8286
42.8964
42.927
42.9383
42.9328
42.8946
42.8082
42.6654
42.4645
42.2077
41.9001
41.5478
41.1576
40.7361
40.2903
39.8252
39.3497
38.8644
38.3899
37.9098
37.4969
37.0542
36.894
37.2258
37.2279
37.5827
37.9487
38.4003
38.8609
39.3399
39.8156
40.2855
40.7405
41.1753
41.5828
41.9568
42.2903
42.5773
42.8125
42.9928
43.1183
43.1944
43.2319
43.2448
43.2349
43.1898
43.0965
42.9479
42.7419
42.4806
42.1683
41.8107
41.4145
40.9858
40.532
40.0583
39.5739
39.0812
38.601
38.1228
37.7199
37.315
37.2392
37.5269
37.394
37.6769
38.0162
38.4599
38.9228
39.408
39.8923
40.3713
40.835
41.2777
41.6924
42.0727
42.4119
42.7044
42.9453
43.1318
43.2644
43.3478
43.3909
43.4052
43.3919
43.3408
43.2415
43.0875
42.8765
42.6104
42.293
41.9298
41.5267
41.0904
40.6277
40.1446
39.6506
39.15
38.6652
38.191
37.8091
37.4668
37.5127
37.7454
37.4474
37.6335
37.9316
38.3614
38.8256
39.3163
39.8093
40.2974
40.7702
41.2212
41.6432
42.03
42.3752
42.6732
42.9197
43.1122
43.251
43.3406
43.3885
43.404
43.388
43.3321
43.2275
43.0682
42.8523
42.5812
42.2583
41.8886
41.4783
41.0334
40.5611
40.068
39.5642
39.0565
38.5685
38.1059
37.7617
37.5123
37.7208
37.8541
37.3749
37.4443
37.6864
38.0938
38.5577
39.0528
39.5537
40.0504
40.5321
40.9913
41.4208
41.8142
42.1654
42.4689
42.7207
42.9187
43.063
43.1578
43.2094
43.2259
43.2079
43.1483
43.0392
42.8752
42.6545
42.3782
42.0495
41.6731
41.255
40.8013
40.3193
39.8165
39.3036
38.7907
38.3023
37.8617
37.5731
37.4411
37.8337
37.7839
37.1434
37.0984
37.2775
37.6546
38.1126
38.6131
39.121
39.6255
40.115
40.5816
41.0179
41.4173
41.7739
42.0824
42.339
42.5415
42.6904
42.7891
42.8437
42.8611
42.8419
42.7795
42.6669
42.499
42.2741
41.9931
41.6589
41.2762
40.8506
40.3888
39.898
39.3866
38.8664
38.349
37.868
37.4602
37.2395
37.2321
37.8026
37.4763
36.7225
36.5884
36.711
37.0571
37.5053
38.0082
38.522
39.0323
39.5277
39.9998
40.4411
40.8452
41.2058
41.5181
41.7781
41.9839
42.1358
42.2372
42.2938
42.312
42.2924
42.2288
42.1143
41.9443
41.7166
41.4322
41.0942
40.707
40.2764
39.8088
39.3125
38.796
38.2726
37.7555
37.2873
36.9145
36.7563
36.8475
37.5446
36.9177
36.1141
35.9328
36.0176
36.3391
36.7755
37.2761
37.7935
38.3064
38.8044
39.2788
39.7221
40.1279
40.4903
40.804
41.0652
41.2721
41.4249
41.5273
41.5846
41.6037
41.585
41.5222
41.4084
41.2387
41.011
40.7261
40.3872
39.9986
39.5661
39.0967
38.5983
38.0805
37.5562
37.0455
36.5948
36.2547
36.1466
36.3044
37.0823
36.2479
35.4179
35.211
35.2692
35.5701
35.9929
36.487
37.0031
37.5146
38.011
38.4837
38.9254
39.3295
39.69
40.0017
40.2611
40.466
40.617
40.7177
40.7746
40.7947
40.7788
40.7201
40.6107
40.4452
40.2217
39.9407
39.6054
39.2202
38.791
38.3249
37.8301
37.3166
36.7971
36.2957
35.861
35.5422
35.4595
35.6364
36.4296
35.5866
34.7467
34.5297
34.5715
34.8563
35.2645
35.7476
36.2558
36.7615
37.252
37.7187
38.1545
38.5525
38.9072
39.2133
39.467
39.6663
39.8117
39.9075
39.9618
39.9831
39.9725
39.9216
39.821
39.6645
39.4497
39.1771
38.8497
38.4723
38.0506
37.5916
37.1037
36.5971
36.0846
35.5918
35.1672
34.8585
34.7843
34.9637
35.7609
34.9987
34.2065
34.0165
34.0641
34.3439
34.7403
35.209
35.7022
36.1936
36.6706
37.1245
37.5481
37.9344
38.2777
38.5728
38.8158
39.0046
39.1398
39.2262
39.2743
39.2966
39.2948
39.2569
39.1707
39.0285
38.8277
38.5689
38.2554
37.8915
37.4833
37.0376
36.5628
36.0692
35.5704
35.0903
34.6757
34.3703
34.2904
34.4467
35.2089
34.8705
34.0695
33.8718
33.9044
34.1653
34.5391
34.9833
35.4513
35.9199
36.3769
36.8125
37.2189
37.5891
37.9173
38.1979
38.4271
38.6021
38.7233
38.7963
38.8345
38.8576
38.8685
38.8489
38.7814
38.6577
38.4748
38.2338
37.9378
37.5914
37.2003
36.7712
36.3125
35.834
35.3497
34.8799
34.4682
34.1547
34.0514
34.167
34.869
34.9954
34.2626
34.104
34.1455
34.3961
34.7457
35.1579
35.5907
36.0278
36.4556
36.8643
37.2458
37.593
37.9
38.1612
38.3723
38.5303
38.6348
38.6907
38.7147
38.7378
38.7658
38.7682
38.7226
38.6202
38.4592
38.2407
37.9682
37.6464
37.2809
36.8786
36.448
35.9991
35.5467
35.1066
34.7192
34.4191
34.314
34.3981
35.0399
35.5004
34.7913
34.643
34.6765
34.9074
35.2274
35.6046
36.0046
36.4115
36.8112
37.1938
37.5509
37.8758
38.1622
38.4049
38.5993
38.7421
38.832
38.873
38.8828
38.9056
38.9517
38.9745
38.9488
38.8666
38.7266
38.5305
38.2819
37.9855
37.6468
37.273
36.8723
36.4551
36.0364
35.633
35.2791
35.0042
34.9154
34.9952
35.6164
36.1425
35.4491
35.3002
35.3176
35.523
35.8107
36.1564
36.5275
36.9078
37.2827
37.6423
37.9784
38.2842
38.5535
38.7812
38.9626
39.0944
39.1748
39.2072
39.2094
39.2345
39.2951
39.3336
39.3237
39.2583
39.1364
38.96
38.7325
38.4584
38.1431
37.7932
37.4169
37.0238
36.6288
36.2472
35.9123
35.6474
35.557
35.6172
36.2051
36.467
35.8492
35.7445
35.7802
35.9889
36.2693
36.6034
36.9597
37.324
37.6825
38.0262
38.347
38.6384
38.8948
39.1109
39.2825
39.4059
39.4795
39.5064
39.5043
39.5298
39.5975
39.6448
39.645
39.591
39.4823
39.3205
39.1089
38.852
38.5549
38.2239
37.8667
37.4927
37.1152
36.7486
36.4242
36.1594
36.0559
36.0815
36.6097
42.6208
50.3849
56.5524
62.5601
67.7009
71.845
75.1532
77.8198
79.9995
81.8281
83.4242
84.8545
86.1568
87.3631
88.5035
89.6076
90.7051
91.8227
92.9826
94.2008
95.4858
96.839
98.2574
99.7337
101.257
102.816
104.393
105.964
107.491
108.904
110.063
110.741
41.9376
49.4187
55.3908
61.2634
66.3339
70.4437
73.7333
76.3911
78.5703
80.4053
82.0086
83.4411
84.7339
85.9254
87.0474
88.1304
89.2043
90.2973
91.4319
92.6233
93.8798
95.2036
96.5909
98.0346
99.5243
101.048
102.588
104.122
105.612
106.991
108.121
108.78
41.1672
48.4034
54.1926
59.9312
64.9327
69.0135
72.2932
74.9533
77.1444
78.9959
80.6119
82.0484
83.3356
84.516
85.6215
86.6845
87.737
88.8066
89.9156
91.0806
92.3096
93.6042
94.961
96.3725
97.8287
99.3169
100.821
102.318
103.772
105.116
106.218
106.859
40.3902
47.3915
52.9967
58.5971
63.5284
67.5823
70.8554
73.5222
75.7313
77.6057
79.2388
80.6825
81.9698
83.1401
84.2317
85.2778
86.3098
87.3571
88.4434
89.5834
90.7856
92.0521
93.3789
94.7589
96.1818
97.6349
99.1029
100.564
101.981
103.291
104.365
104.988
39.544
46.3248
51.7448
57.2036
62.0668
66.1039
69.3868
72.0789
74.3218
76.2281
77.8831
79.3383
80.63
81.7966
82.8782
83.9088
84.9236
85.9513
87.0146
88.1307
89.3078
90.5472
91.8454
93.1949
94.5855
96.0055
97.4387
98.8638
100.246
101.522
102.568
103.174
38.7129
45.2721
50.501
55.8132
60.6097
64.6358
67.9323
70.6481
72.9213
74.8596
76.5403
78.0128
79.3148
80.4828
81.5576
82.5778
83.577
84.5862
85.6309
86.7253
87.8782
89.0918
90.3622
91.6821
93.0412
94.4272
95.8255
97.2153
98.5617
99.8058
100.825
101.413
37.7988
44.1441
49.1729
54.3278
59.0549
63.0798
66.4106
69.1781
71.5079
73.4937
75.2072
76.7007
78.016
79.1935
80.269
81.2813
82.2691
83.2645
84.2896
85.3632
86.4942
87.6833
88.9273
90.2185
91.5473
92.9017
94.2667
95.6219
96.9359
98.147
99.1385
99.71
36.9087
43.0353
47.8575
52.8501
57.5114
61.546
64.9174
67.7279
70.0965
72.1201
73.8692
75.3935
76.7336
77.9246
79.0071
80.0183
80.9987
81.9808
82.9927
84.0492
85.1588
86.325
87.5433
88.8068
90.1053
91.4271
92.7577
94.0792
95.3572
96.5371
97.5034
98.057
35.8977
41.8084
46.4055
51.2118
55.7914
59.8371
63.2717
66.1692
68.6303
70.7306
72.533
74.0925
75.4556
76.6683
77.7644
78.782
79.7597
80.7367
81.734
82.7736
83.8653
85.0096
86.2036
87.4402
88.7098
90.0014
91.3007
92.5876
93.8343
94.9827
95.9226
96.4592
34.9096
40.5978
44.967
49.5838
54.0891
58.1667
61.681
64.6522
67.1638
69.3088
71.1594
72.7675
74.178
75.4202
76.5361
77.5644
78.5485
79.5215
80.5131
81.5415
82.6155
83.7398
84.9103
86.1204
87.3606
88.6194
89.884
91.1368
92.3477
93.4647
94.38
94.8983
33.7159
39.1864
43.3003
47.6822
52.0691
56.1564
59.7661
62.8792
65.552
67.833
69.7769
71.4463
72.8907
74.1686
75.3126
76.3615
77.353
78.3316
79.3165
80.3333
81.394
82.4993
83.6473
84.8314
86.0425
87.2715
88.5049
89.7235
90.9038
91.9894
92.8786
93.3794
32.5118
37.7772
41.6414
45.7936
50.0795
54.217
57.9648
61.2089
63.9535
66.2905
68.3034
70.0454
71.5724
72.9045
74.0869
75.16
76.173
77.1563
78.1447
79.1581
80.2054
81.2939
82.4205
83.579
84.7612
85.9559
87.1526
88.3367
89.4796
90.534
91.3991
91.8807
30.9863
36.0437
39.6039
43.4352
47.5161
51.6234
55.4937
58.9691
62.017
64.6142
66.7978
68.6524
70.2303
71.6161
72.8451
73.9586
74.9906
75.9927
76.9825
77.9895
79.0292
80.1021
81.2081
82.3415
83.4945
84.6602
85.8262
86.9754
88.0883
89.1116
89.9498
90.4131
29.3926
34.275
37.564
41.1045
45.0224
49.1795
53.2694
56.9774
60.1249
62.8014
65.1047
67.0742
68.7969
70.278
71.5746
72.7305
73.8054
74.824
75.8295
76.8434
77.8747
78.9346
80.0214
81.13
82.2539
83.3827
84.509
85.6218
86.6943
87.6846
88.4994
88.9424
27.2167
31.9175
34.8409
37.9094
41.4297
45.4166
49.618
53.7127
57.4994
60.7072
63.327
65.5162
67.3212
68.8878
70.2577
71.4834
72.5917
73.6473
74.6649
75.6784
76.7091
77.7577
78.8257
79.9098
81.0033
82.1033
83.1989
84.2757
85.3187
86.2761
87.0636
87.4862
24.7905
29.4265
32.1125
34.8353
38.0743
42.0587
46.5753
51.0464
54.883
58.2394
61.1488
63.553
65.6385
67.377
68.8671
70.1623
71.3466
72.435
73.4852
74.5204
75.5495
76.5892
77.6404
78.6996
79.7626
80.8209
81.8712
82.9066
83.9039
84.8271
85.59
85.9897
20.9593
25.5836
27.814
29.7732
32.1732
35.5678
40.0694
45.3248
50.8295
55.3007
58.7737
61.6438
63.8682
65.7657
67.3796
68.7961
70.0336
71.1865
72.263
73.3046
74.342
75.3755
76.4096
77.4436
78.474
79.5022
80.5211
81.5192
82.4872
83.3737
84.107
84.4843
16.1142
21.1772
23.7426
25.5913
27.5392
30.7612
35.6584
41.0889
45.8345
50.9862
55.4397
58.7827
61.6588
63.8924
65.7333
67.2682
68.6412
69.8511
70.9863
72.0728
73.1173
74.147
75.1665
76.1747
77.1702
78.1488
79.1123
80.0589
80.9711
81.8197
82.5283
82.8775
6.68636
11.4855
12.0602
11.6886
10.6862
10.5942
16.7548
28.4573
39.7845
46.1923
51.5298
56.1317
59.208
61.7977
63.8859
65.653
67.1125
68.4367
69.6193
70.7186
71.7844
72.8144
73.8178
74.7976
75.7567
76.7014
77.6316
78.5394
79.4228
80.2286
80.9017
81.2252
5.89121
9.44297
11.8208
12.3485
9.37324
9.37913
15.0896
11.531
17.306
36.5305
45.3192
50.7554
55.8048
59.1439
61.705
63.6915
65.4146
66.8361
68.1246
69.3116
70.3976
71.4304
72.4211
73.373
74.2866
75.1675
76.0235
76.8592
77.6676
78.4269
79.0784
79.3622
11.9544
16.1786
17.0482
16.7692
14.3338
11.6867
15.173
21.3895
21.0074
13.2669
35.5512
46.6781
51.5011
55.8803
59.0484
61.5578
63.4338
65.084
66.459
67.6627
68.791
69.8344
70.809
71.7239
72.5941
73.4325
74.2517
75.0479
75.8309
76.5391
77.1384
77.3932
20.1022
24.5829
26.5253
27.3599
27.0255
25.3101
22.7103
18.1811
11.1797
4.09992
12.1387
32.1809
45.6278
51.4472
55.7088
58.647
61.11
62.9236
64.5041
65.8916
67.0655
68.1218
69.0858
69.9687
70.7693
71.5148
72.2223
72.9027
73.5673
74.2079
74.8019
74.9888
22.113
27.0364
29.7083
31.6475
32.7584
32.885
31.7391
29.0067
23.1075
18.9035
22.8507
5.15793
31.687
44.7862
50.9476
55.355
58.1038
60.4779
62.2375
63.6287
64.8829
65.9704
66.9166
67.7406
68.4829
69.1686
69.8346
70.4742
71.1327
71.7161
72.2071
72.3654
22.6757
27.7001
30.5842
32.8745
34.536
35.5433
35.8221
35.1461
32.8952
27.197
20.0891
15.3682
19.2847
35.4922
45.0881
50.1757
54.5092
57.0717
59.2574
61.094
62.4585
63.5762
64.5138
65.2974
65.9133
66.432
66.8947
67.3268
67.7444
68.1984
68.7572
68.7611
22.0213
27.1681
30.1977
32.702
34.6458
36.0226
36.8341
37.059
36.5467
34.663
29.5288
21.5437
19.3426
13.2121
33.2602
44.064
48.6891
53.1333
55.7901
57.4872
58.9893
60.1859
61.1041
61.768
62.286
62.7184
63.1664
63.5192
64.0293
64.4812
64.7441
64.7557
20.536
25.8128
28.9343
31.5763
33.7155
35.3536
36.5147
37.2375
37.5528
37.3763
36.1363
31.9362
26.3181
22.6239
15.8967
32.242
43.2277
46.6417
50.1826
53.2844
55.0969
56.3559
57.2497
57.869
58.0875
58.1116
57.9945
58.0712
57.8714
57.8695
58.6075
58.0918
18.6196
23.9906
27.1438
29.8438
32.0855
33.8858
35.2757
36.3144
37.0813
37.6332
37.8711
37.1688
33.5714
30.0006
16.7432
8.72663
26.155
40.1685
44.9275
46.4274
48.384
49.7968
50.7735
50.9481
51.1193
50.9442
51.6198
50.993
51.1825
52.3834
51.825
51.2822
16.4477
21.8127
24.9041
27.5646
29.8166
31.6994
33.258
34.5539
35.6739
36.7013
37.6475
38.3101
37.94
34.5683
29.5709
10.8208
3.86564
19.286
30.4899
38.9809
41.7983
43.2422
43.9361
44.6611
43.1579
42.2461
38.3591
39.1044
37.4366
35.1907
35.4026
34.7933
14.2438
19.4655
22.3907
24.9091
27.0749
28.9495
30.594
32.0755
33.4757
34.879
36.3188
37.7032
38.7063
38.5438
35.2288
27.1698
21.7055
14.8073
17.8271
18.9712
21.1973
24.9998
27.0852
24.3831
25.8054
18.5723
28.5747
41.6613
14.98
23.9597
33.4564
15.17
12.2751
17.2285
19.9088
22.2105
24.2199
26.0165
27.671
29.2524
30.8311
32.4777
34.2404
36.0782
37.8022
38.9887
38.8224
35.344
28.2873
27.3765
22.4123
10.0903
22.9037
7.16231
31.59
17.8384
33.1139
20.3237
31.8032
42.268
18.6791
31.0613
32.2905
25.2685
10.7541
15.3597
17.7716
19.8323
21.6567
23.337
24.9474
26.5503
28.2007
29.9493
31.8447
33.8962
36.017
37.9373
39.1419
38.8273
35.5685
28.8123
24.6712
26.0989
23.9095
15.1637
28.0296
27.6869
33.7186
32.4745
32.7569
37.8238
27.3172
25.4767
28.5041
30.5294
9.62827
13.9898
16.1722
18.0279
19.6942
21.2669
22.8137
24.3822
26.01
27.7329
29.5924
31.6282
33.8432
36.1174
38.1122
39.2545
38.8859
36.2073
32.6554
30.037
27.904
26.1022
25.1496
27.624
31.35
34.9445
36.8488
37.8169
39.7257
37.2769
40.0062
41.4798
9.03064
13.2006
15.2208
16.9431
18.5134
20.0183
21.5084
23.0127
24.5536
26.158
27.8642
29.7234
31.7833
34.0413
36.3515
38.3261
39.3991
39.0956
38.1711
36.7521
37.341
37.4717
37.304
37.246
39.3943
41.1828
42.2954
42.7393
42.7763
41.6901
43.5891
43.7996
8.8587
12.9406
14.8896
16.5641
18.108
19.5917
21.0455
22.4824
23.9139
25.3634
26.8674
28.4758
30.2483
32.2372
34.4375
36.6856
38.5873
39.6268
39.895
39.5519
40.2729
40.5798
40.7732
40.4895
41.3865
42.2751
42.8656
43.0672
42.8203
42.5816
43.7518
43.7368
9.0402
13.1129
15.065
16.7612
18.3336
19.8334
21.274
22.6576
23.9926
25.2998
26.6121
27.9727
29.435
31.0622
32.9093
34.9664
37.0623
38.8082
39.9352
40.3613
41.1022
41.4487
41.6305
41.381
41.6219
42.0783
42.0632
42.1854
41.8138
41.9567
42.6899
42.5009
9.47534
13.5903