/*--------------------------------*- C++ -*----------------------------------*\
  =========                 |
  \\      /  F ield         | OpenFOAM: The Open Source CFD Toolbox
   \\    /   O peration     | Website:  https://openfoam.org
    \\  /    A nd           | Version:  6
     \\/     M anipulation  |
\*---------------------------------------------------------------------------*/
FoamFile
{
    version     2.0;
    format      ascii;
    class       volScalarField;
    location    "15";
    object      yPlus;
}
// * * * * * * * * * * * * * * * * * * * * * * * * * * * * * * * * * * * * * //

dimensions      [0 0 0 0 0 0 0];

internalField   uniform 0;

boundaryField
{
    inlet
    {
        type            calculated;
        value           uniform 0;
    }
    outlet
    {
        type            calculated;
        value           uniform 0;
    }
    roughCylinder
    {
        type            calculated;
        value           nonuniform List<scalar> 
5120
(
77.192
60.2046
52.395
55.6232
61.6219
66.6999
70.9164
74.4514
77.4572
80.0823
82.4564
84.6423
86.6851
88.6271
90.4908
92.3207
94.146
96.0244
97.969
99.9938
102.107
104.308
106.591
108.945
111.352
113.787
116.213
118.578
120.807
122.792
124.348
125.217
92.8876
60.7311
51.6218
54.1105
59.9481
64.9867
69.1838
72.7005
75.6948
78.3291
80.695
82.8517
84.8584
86.7443
88.5541
90.3168
92.0927
93.8935
95.7622
97.7168
99.7594
101.887
104.093
106.366
108.69
111.041
113.384
115.669
117.822
119.739
121.24
122.079
77.5841
59.9719
51.1246
52.7333
58.3089
63.2699
67.4203
70.9369
73.958
76.5925
78.954
81.0971
83.0605
84.9063
86.6575
88.3695
90.0618
91.8071
93.6152
95.4964
97.4607
99.5086
101.634
103.828
106.071
108.34
110.601
112.805
114.882
116.733
118.181
118.988
90.4695
59.466
49.8398
51.119
56.538
61.4805
65.6551
69.1918
72.2134
74.8755
77.2428
79.3638
81.3047
83.1003
84.8084
86.453
88.1125
89.7842
91.5157
93.3313
95.2314
97.2116
99.2657
101.381
103.545
105.733
107.913
110.039
112.042
113.827
115.223
115.999
91.6652
60.639
49.5948
49.6918
54.8429
59.7286
63.8621
67.4067
70.4945
73.1734
75.5414
77.6672
79.5791
81.3523
83.0096
84.6236
86.1964
87.8214
89.5066
91.2557
93.0811
94.9855
96.9627
99.0042
101.092
103.203
105.306
107.356
109.288
111.009
112.355
113.101
88.371
59.675
48.9757
48.1517
52.9486
57.8227
62.031
65.6515
68.7399
71.4579
73.8561
75.9688
77.8843
79.621
81.2566
82.8033
84.3691
85.9308
87.5399
89.2308
91.0026
92.8492
94.764
96.7342
98.7479
100.784
102.811
104.789
106.651
108.309
109.607
110.324
72.3693
57.0694
47.5563
46.567
51.1506
56.0006
60.1767
63.785
66.9828
69.7439
72.148
74.2933
76.1927
77.9388
79.5346
81.084
82.5603
84.085
85.6679
87.3025
89.0037
90.7775
92.6188
94.5208
96.4651
98.4305
100.386
102.292
104.088
105.688
106.938
107.626
79.7086
57.38
47.1863
44.9118
49.0356
53.8689
58.1747
61.9576
65.1555
67.9632
70.4376
72.582
74.516
76.2372
77.8475
79.3287
80.834
82.3131
83.8189
85.4024
87.0633
88.7923
90.5825
92.4203
94.2964
96.1906
98.0765
99.9148
101.646
103.188
104.392
105.052
71.6029
57.3399
46.9914
43.4931
47.0263
51.8647
56.1753
59.8896
63.2621
66.1686
68.6565
70.8753
72.8063
74.573
76.15
77.6831
79.0981
80.5502
82.0571
83.5997
85.1936
86.8515
88.5701
90.3451
92.1575
93.9877
95.8062
97.5767
99.2461
100.733
101.893
102.525
87.1926
58.6848
46.1715
41.6118
44.5248
49.2847
53.7808
57.8719
61.2577
64.2177
66.8449
69.0796
71.0916
72.8422
74.4779
75.9304
77.418
78.8511
80.2794
81.7763
83.347
84.9766
86.6579
88.3764
90.1255
91.8877
93.6406
95.3487
96.9562
98.3882
99.5041
100.108
70.9952
57.8568
46.4282
40.0701
42.033
46.8538
51.4749
55.3697
59.0534
62.2307
64.885
67.2634
69.2879
71.1394
72.7409
74.311
75.6981
77.1077
78.5711
80.0492
81.5547
83.1113
84.7195
86.3789
88.0695
89.773
91.4615
93.1034
94.6522
96.0325
97.1061
97.6814
74.2664
55.3741
44.9159
38.2087
38.8193
43.3436
48.1935
52.942
56.6843
59.9265
62.8509
65.2705
67.4538
69.2962
71.0269
72.4895
74.0065
75.434
76.8111
78.2429
79.7453
81.2949
82.8834
84.4945
86.126
87.7632
89.3896
90.9726
92.4614
93.7879
94.8182
95.3666
74.8998
56.5114
44.8731
36.1912
35.4543
39.9363
45.2688
49.4794
53.8222
57.5471
60.526
63.2221
65.4394
67.4762
69.1609
70.8429
72.2438
73.6448
75.1025
76.5475
77.9847
79.4546
80.9641
82.5175
84.0952
85.6795
87.2434
88.7604
90.1918
91.4681
92.4576
92.9766
65.4038
54.666
44.9253
35.01
30.6196
34.2639
39.7373
46.2004
50.6718
54.5056
58.0507
60.8351
63.3607
65.3921
67.3267
68.8494
70.4629
71.94
73.2975
74.6883
76.1494
77.6426
79.1559
80.6746
82.1967
83.7147
85.2185
86.6806
88.0533
89.2758
90.2222
90.7146
47.5481
47.4605
41.7994
32.2952
25.9985
27.9931
35.3609
40.0445
46.2862
51.3048
54.9684
58.3346
60.9312
63.3376
65.1927
67.1045
68.5744
70.01
71.5136
72.9682
74.3608
75.7593
77.1841
78.6377
80.1111
81.5823
83.0245
84.4176
85.7332
86.9069
87.8123
88.2734
25.2678
36.2912
35.5294
29.4465
13.3336
10.3766
20.4209
34.9556
41.0535
46.4996
51.5791
55.1429
58.393
60.7894
63.1242
64.7748
66.5876
68.1953
69.5729
70.9511
72.4057
73.8734
75.3304
76.7778
78.1983
79.5999
80.983
82.3257
83.5819
84.7005
85.5616
85.9973
10.7386
19.8707
20.2353
12.5186
8.12454
15.9305
7.36659
11.3556
32.1614
41.1196
46.6618
51.7194
55.1154
58.2992
60.4758
62.8319
64.45
65.9762
67.6019
69.1277
70.5048
71.8478
73.2049
74.558
75.9343
77.2966
78.6164
79.8818
81.0789
82.1486
82.9681
83.3678
7.84388
8.3586
12.7564
13.7588
4.4253
15.9693
16.8111
6.24185
5.70724
30.7245
41.0334
46.5962
51.6763
54.8208
57.9855
59.8657
62.0622
63.936
65.3848
66.7844
68.2826
69.7696
71.1937
72.6008
73.9263
75.2102
76.4704
77.6917
78.8274
79.8377
80.6106
80.9859
3.86478
5.22154
1.59277
13.9417
15.7159
17.204
17.9759
18.3592
18.2382
22.1443
28.7954
40.9783
46.3724
51.4869
54.2937
57.5739
59.4672
61.1668
63.0471
64.7448
66.1445
67.4461
68.7531
69.9979
71.2814
72.5366
73.7273
74.8533
75.9241
76.8838
77.6117
77.942
6.41518
11.2377
12.7121
16.2105
17.7334
12.061
11.3547
10.9816
9.93695
6.30719
18.3105
28.5319
40.8255
45.8064
51.018
53.2959
56.3011
58.7133
60.3065
61.774
63.4013
64.9866
66.4236
67.8294
69.0678
70.226
71.3549
72.4493
73.4547
74.3473
75.0245
75.3334
6.63049
16.0287
19.7816
20.738
17.0672
19.3369
22.6732
21.7613
22.4457
20.8678
20.9465
10.6638
28.491
40.545
44.7909
50.4244
52.8056
54.8447
57.2724
59.3452
60.8254
62.0928
63.3476
64.4865
65.6771
66.8251
67.8711
68.8326
69.7601
70.5984
71.2233
71.4685
8.0007
18.3542
23.1709
26.7251
28.6949
27.2686
17.8489
25.7641
19.3489
25.1149
12.9094
13.3214
3.89092
27.213
39.8941
42.7595
48.0106
51.6354
53.4972
55.1051
57.0505
58.9084
60.4983
61.9381
63.1076
64.121
65.1023
66.0621
66.9209
67.6793
68.248
68.4817
7.80439
18.2549
24.0445
28.2515
30.8465
31.9866
31.8644
25.445
21.9637
16.7093
20.9538
24.6382
20.6545
23.0584
23.1334
39.1507
42.2181
45.1389
49.0045
51.9963
53.6656
54.8974
56.0087
57.0954
58.1862
59.2316
60.1042
60.8473
61.5994
62.2972
62.8
62.9261
7.44359
17.091
23.1685
27.9115
31.394
33.4514
33.686
32.8916
27.1889
18.3887
17.4634
21.9109
25.0065
11
15.6952
13.6807
32.8753
40.4643
42.7186
44.6833
47.5505
50.1428
52.3765
53.9141
55.0707
55.9038
56.7014
57.5318
58.2206
58.8212
59.2587
59.408
6.67033
15.5172
21.5083
26.2146
29.8035
32.4105
34.0621
34.1376
33.0833
28.3581
9.32268
17.8803
22.1464
17.026
13.7751
12.1332
21.3583
23.6256
34.9068
40.4111
42.4318
43.6932
44.1656
45.3308
46.3533
47.3053
47.9842
48.3434
48.8598
49.3751
49.736
49.6297
5.95018
14.2975
19.9329
24.4105
27.9223
30.5986
32.4063
33.4315
33.2686
32.2837
30.7596
14.916
25.0976
21.4099
18.0094
15.261
15.3561
9.20571
6.5001
19.831
28.9574
34.2913
39.3749
41.4414
42.5768
43.318
43.6489
44.5593
45.0107
45.4672
45.6246
45.8031
5.17641
13.1322
18.1118
22.0857
25.2785
27.8656
29.8749
31.1498
31.7575
31.6718
30.8416
31.9718
22.6544
7.90559
22.795
25.888
16.4394
17.595
23.5927
5.18918
26.1785
12.2808
8.46502
11.9638
16.9922
15.5428
18.9413
15.4986
15.2879
15.5862
17.7094
13.9048
4.58688
12.1773
15.8595
18.8883
21.5366
23.8956
25.8877
27.4321
28.456
29.1819
30.0654
29.5868
31.4111
27.377
28.8387
28.5628
22.5527
13.1165
24.5897
18.9842
7.28692
25.6181
15.8263
5.36865
28.3938
20.1885
28.8022
8.93558
22.3958
9.27285
31.165
8.61538
4.34924
11.8906
13.4598
14.9873
16.6835
18.5375
20.4373
22.2091
23.8342
25.426
26.8985
29.1944
29.8832
31.3669
31.1675
16.8262
23.1406
26.7814
5.37969
14.9472
26.4209
7.90987
20.8459
27.2403
20.5622
13.3613
6.47446
29.8142
11.9526
30.7712
21.4221
30.45
3.95306
11.2654
12.0481
12.425
12.9483
13.8094
15.1741
16.9971
19.0556
21.231
23.6727
25.5961
28.2881
30.0205
30.9379
32.8823
25.1691
9.96459
27.302
11.0882
18.2146
18.0861
8.37861
28.633
16.8391
9.10487
25.7411
19.6791
32.5425
19.7751
31.8892
6.74277
3.6963
11.7576
11.8807
11.8285
11.9496
12.2224
13.1633
14.8057
16.7523
18.7983
20.8074
23.3335
25.4013
27.8776
30.33
31.0966
32.4528
30.3506
19.1262
16.9716
27.6001
2.82168
18.1651
18.0327
23.3536
12.8756
27.6416
15.47
28.9978
8.65527
33.8056
29.8782
3.57756
11.4019
11.7526
11.6942
11.7914
12.1714
13.4842
15.3314
17.1308
18.7353
20.3418
21.7545
23.6811
25.578
27.5823
30.3046
31.6939
32.2864
32.7561
28.6533
21.9902
30.6842
16.2468
30.0757
14.754
25.3116
8.65104
25.9189
17.1748
31.3475
28.5899
31.2104
2.54294
9.36222
11.5234
11.5367
11.6927
12.1952
14.0857
16.2066
18.0552
19.6071
20.8808
22.1639
23.2002
24.4589
26.0549
27.6012
29.8496
31.8168
32.4544
32.4549
32.0648
31.2929
26.2844
23.2975
19.3514
17.9904
18.4342
17.3306
17.5868
18.4495
18.5136
20.0525
2.44407
8.95591
11.1226
11.4144
11.5815
13.445
15.795
17.8479
19.514
20.8799
22.0622
22.9909
23.895
24.6371
25.3335
26.5298
27.8933
29.5623
31.5072
32.5936
32.4042
31.6951
31.4452
31.0153
30.8427
30.4682
30.1853
29.7892
29.5431
29.4437
29.4846
29.5371
3.00248
9.96867
11.3516
11.562
13.2498
15.579
17.7515
19.5818
21.1116
22.3995
23.4659
24.3947
25.0765
25.6168
26.0805
26.3705
26.9999
28.1104
29.4226
30.7262
31.7386
31.9749
31.3732
30.4397
29.2393
28.0714
26.9044
26.1217
25.6377
25.4029
25.6389
25.9288
3.79907
11.2019
11.8271
13.4733
15.7329
17.9343
19.8546
21.4913
22.8852
24.0754
25.1011
25.9266
26.598
27.0505
27.2698
27.436
27.4998
27.6754
28.3274
29.2845
30.0684
30.456
30.3895
29.9318
29.1675
28.1733
27.1231
26.2635
25.7809
25.7574
25.9284
26.1446
3.93251
11.7059
13.7414
16.0215
18.1793
20.1082
21.8138
23.3184
24.6473
25.8161
26.8239
27.677
28.3139
28.7371
28.9598
28.92
28.7626
28.5986
28.4899
28.6232
29.0286
29.3715
29.3109
28.7396
27.6884
26.3179
24.8507
23.7318
23.1836
23.1876
23.5687
24.0005
4.36651
12.5592
15.7688
18.2538
20.3034
22.0874
23.6882
25.1325
26.4339
27.5975
28.6253
29.4824
30.1558
30.604
30.7976
30.7838
30.5456
30.135
29.703
29.344
29.0848
28.8993
28.6368
28.1199
27.2593
26.1084
24.8679
23.8833
23.4547
23.6344
24.084
24.5166
5.61071
14.7266
17.9319
20.251
22.1466
23.8461
25.4109
26.8507
28.1745
29.3791
30.4497
31.3635
32.0754
32.5631
32.8204
32.8094
32.5622
32.1194
31.5101
30.8198
30.1576
29.548
28.9166
28.1342
27.1004
25.8252
24.4797
23.4338
23.0234
23.2701
23.8498
24.4005
6.78811
16.2273
19.4937
21.831
23.7505
25.4722
27.0586
28.5322
29.9038
31.1634
32.2933
33.2574
34.0299
34.5814
34.8871
34.949
34.7534
34.302
33.6404
32.8219
31.8965
30.9273
29.9407
28.901
27.7491
26.4876
25.2463
24.321
24.0167
24.3534
24.9813
25.5318
8.12333
9.45984
10.7723
11.462
11.3705
11.5582
11.8528
11.4257
11.8565
11.6135
11.4349
11.4362
11.2551
11.2527
10.4066
9.92617
9.50001
9.20142
9.00529
8.91113
8.91337
9.01214
9.21345
9.51704
9.95262
10.4299
11.2966
11.7004
11.3536
11.7282
11.4488
11.6685
11.8677
11.4344
11.8284
11.6006
11.5803
10.8056
9.47152
8.13074
17.474
18.2451
18.8886
19.232
19.5083
19.6517
19.7551
19.7571
19.7725
19.7012
19.6165
19.5125
19.395
19.2579
19.1131
19.0136
18.9221
18.8583
18.8146
18.7941
18.7953
18.818
18.864
18.9297
19.0245
19.1238
19.2752
19.4179
19.5274
19.6468
19.7084
19.7835
19.7969
19.7697
19.6718
19.528
19.2592
18.9079
18.2597
17.4869
20.6843
21.2665
21.7673
22.0289
22.2637
22.3567
22.4319
22.4227
22.4095
22.3493
22.289
22.2093
22.1328
22.0509
21.9794
21.9196
21.8688
21.832
21.8067
21.7943
21.7955
21.8101
21.8377
21.8767
21.9296
21.9913
22.0651
22.1488
22.2266
22.3088
22.368
22.4298
22.4461
22.4548
22.3783
22.2861
22.0511
21.7878
21.2841
20.6997
22.9433
23.4411
23.8919
24.1485
24.3822
24.4973
24.6005
24.6362
24.6657
24.6619
24.6594
24.6427
24.6281
24.6092
24.5925
24.579
24.5677
24.5604
24.5553
24.5528
24.554
24.5588
24.5662
24.5757
24.589
24.6047
24.6232
24.6441
24.6603
24.679
24.6826
24.688
24.6595
24.6249
24.5216
24.407
24.1726
23.9153
23.4624
22.9622
24.8282
25.299
25.7405
26.0156
26.2718
26.4294
26.5778
26.674
26.7661
26.8304
26.8942
26.9451
26.9945
27.0375
27.0767
27.1125
27.1426
27.1673
27.184
27.1924
27.1935
27.1876
27.1731
27.1506
27.1224
27.0887
27.0514
27.0104
26.9627
26.9136
26.8513
26.7887
26.6978
26.6028
26.4551
26.2982
26.0418
25.7662
25.3231
24.8504
26.5489
27.0027
27.455
27.7532
28.0485
28.2582
28.4676
28.6284
28.7891
28.923
29.0561
29.1752
29.2902
29.3955
29.492
29.578
29.6507
29.7081
29.7472
29.7663
29.7675
29.7507
29.7138
29.6584
29.5876
29.5035
29.4089
29.3056
29.1923
29.075
28.9434
28.8112
28.6519
28.4925
28.2841
28.0752
27.7802
27.4819
27.0286
26.5736
28.1581
28.5996
29.081
29.4083
29.7567
30.0178
30.2894
30.5119
30.7384
30.938
31.1367
31.32
31.4966
31.6597
31.8095
31.9421
32.054
32.1414
32.2008
32.2295
32.2306
32.204
32.1467
32.061
31.9511
31.8204
31.6724
31.5111
31.3361
31.1548
30.9576
30.7597
30.5346
30.3135
30.043
29.7829
29.435
29.1081
28.6263
28.1841
29.674
30.1111
30.633
30.9911
31.3902
31.6987
32.0262
32.3042
32.5891
32.8471
33.104
33.3437
33.5747
33.7884
33.9845
34.1573
34.3027
34.4158
34.4921
34.5285
34.5295
34.4951
34.4206
34.3094
34.1657
33.9945
33.8002
33.5881
33.3589
33.1209
32.8656
32.6091
32.3257
32.0491
31.7227
31.4154
31.017
30.6595
30.1373
29.7001
31.0997
31.535
32.0993
32.4826
32.9269
33.2753
33.6508
33.9762
34.3107
34.6182
34.9242
35.2115
35.4876
35.7434
35.9774
36.1831
36.3554
36.4887
36.5783
36.6205
36.6215
36.581
36.4932
36.3614
36.1906
35.9865
35.7541
35.4998
35.2253
34.9397
34.6353
34.3293
33.9962
33.6722
33.2981
32.9507
32.5071
32.1244
31.5601
31.1249
32.4177
32.8516
33.4521
33.8566
34.3379
34.7198
35.1342
35.4989
35.8738
36.2221
36.5676
36.8934
37.2055
37.4945
37.7581
37.9892
38.1822
38.3309
38.4303
38.4767
38.4776
38.4327
38.3347
38.1875
37.9959
37.7663
37.504
37.2166
36.9059
36.5818
36.2377
35.891
35.5175
35.1543
34.741
34.3601
33.8795
33.4757
32.8752
32.4413
33.6007
34.0316
34.6632
35.0847
35.5961
36.0058
36.4516
36.8484
37.2556
37.6364
38.0132
38.3689
38.7086
39.0228
39.3084
39.558
39.7658
39.9253
40.0316
40.081
40.0818
40.0337
39.9287
39.7703
39.5638
39.3154
39.0312
38.7184
38.38
38.0258
37.6506
37.2712
36.8653
36.4699
36.0251
35.6166
35.1059
34.685
34.0533
33.6224
34.6199
35.0447
35.706
36.1413
36.679
37.1119
37.5842
38.0076
38.4412
38.8481
39.2494
39.6283
39.9888
40.3214
40.6228
40.8853
41.1029
41.2696
41.3802
41.4313
41.432
41.3821
41.2725
41.1069
40.8901
40.6288
40.3287
39.9973
39.638
39.2605
38.8606
38.4552
38.0228
37.6009
37.1295
36.6977
36.1606
35.7258
35.0643
34.6394
35.4434
35.8683
36.5574
37.0084
37.5706
38.0257
38.5219
38.9688
39.4253
39.8541
40.2755
40.6728
41.0495
41.3959
41.7086
41.98
42.2043
42.3756
42.4888
42.5408
42.5414
42.4904
42.3779
42.2076
41.9841
41.7137
41.4021
41.0567
40.6813
40.2852
39.865
39.4375
38.9822
38.5367
38.0414
37.5871
37.0255
36.5751
35.8855
35.4603
36.0498
36.4838
37.2032
37.6747
38.2623
38.7416
39.2614
39.7315
40.2094
40.6584
41.0976
41.5107
41.9008
42.2582
42.5795
42.8574
43.0864
43.2606
43.3755
43.428
43.4285
43.3767
43.2625
43.0889
42.8607
42.5836
42.2632
41.9067
41.5177
41.1057
40.6677
40.2199
39.7431
39.2742
38.7552
38.2768
37.6897
37.2184
36.4986
36.0642
36.429
36.8764
37.6367
38.133
38.7519
39.2575
39.8039
40.2982
40.798
41.2669
41.7233
42.1512
42.5533
42.9203
43.2489
43.5321
43.7646
43.941
44.0571
44.1101
44.1105
44.0581
43.9424
43.7664
43.5345
43.252
42.9241
42.558
42.1569
41.7299
41.2746
40.8068
40.3079
39.8147
39.269
38.7641
38.1456
37.6495
36.8886
36.4405
36.557
37.0431
37.8477
38.3806
39.0347
39.5727
40.1484
40.6693
41.1927
41.6824
42.1562
42.5989
43.0126
43.3888
43.7241
44.0121
44.2477
44.4262
44.5433
44.5968
44.5971
44.5441
44.427
44.249
44.0136
43.7262
43.3915
43.0159
42.603
42.1613
41.6883
41.1996
40.6772
40.1571
39.582
39.0448
38.3907
37.8578
37.0524
36.565
36.4293
36.9699
37.8279
38.4085
39.1033
39.6799
40.2881
40.8393
41.388
41.8999
42.3922
42.85
43.2757
43.6612
44.0033
44.2959
44.5348
44.7153
44.8338
44.8879
44.8881
44.8342
44.7158
44.5354
44.2967
44.0044
43.6627
43.2778
42.8527
42.3956
41.9042
41.3931
40.8451
40.2948
39.6871
39.1109
38.4162
37.8354
36.9761
36.434
36.0456
36.6375
37.564
38.2003
38.9434
39.5635
40.2088
40.7931
41.3695
41.9055
42.4174
42.8914
43.3299
43.7253
44.0746
44.3725
44.615
44.7978
44.9178
44.9729
44.973
44.918
44.7979
44.615
44.3725
44.0748
43.7256
43.3307
42.8928
42.4193
41.9081
41.3727
40.7969
40.2133
39.5686
38.9488
38.2053
37.5684
36.6403
36.0471
35.4053
36.0409
37.032
37.7353
38.5324
39.2016
39.8871
40.508
41.1145
41.6768
42.2101
42.7019
43.1544
43.5608
43.9184
44.2225
44.4693
44.6551
44.7771
44.8332
44.8332
44.7769
44.6547
44.4686
44.2216
43.9175
43.56
43.1539
42.7017
42.2104
41.6776
41.116
40.51
39.8897
39.2045
38.5353
37.7376
37.0332
36.0406
35.4038
34.5317
35.1881
36.2184
36.9886
37.8449
38.5679
39.2967
39.9567
40.5959
41.1866
41.7433
42.2547
42.723
43.142
43.5094
43.821
44.0732
44.263
44.3876
44.4452
44.4451
44.3871
44.2621
44.0719
43.8193
43.5076
43.1401
42.7212
42.2532
41.742
41.1858
40.5956
39.9569
39.2973
38.5687
37.8457
36.9885
36.2172
35.1855
34.5281
33.4806
34.0995
35.135
35.9496
36.8572
37.6396
38.4124
39.1139
39.7866
40.4077
40.9895
41.5226
42.0086
42.4421
42.8211
43.1417
43.4009
43.5956
43.7236
43.783
43.7829
43.7227
43.5941
43.3988
43.1392
42.8182
42.439
42.0054
41.5196
40.9868
40.4053
39.7847
39.1123
38.411
37.6382
36.8554
35.947
35.1315
34.095
33.4761
32.3118
32.8232
33.818
34.6389
35.5757
36.4058
37.2225
37.9634
38.6695
39.3207
39.9284
40.4842
40.9892
41.4389
41.8311
42.1622
42.4296
42.6305
42.7625
42.8245
42.8241
42.7614
42.6285
42.4268
42.1589
41.8272
41.4346
40.9849
40.4799
39.9242
39.3168
38.6658
37.96
37.2192
36.4019
35.5712
34.6336
33.8123
32.8172
32.3067
31.0701
31.4213
32.3235
33.1057
34.0382
34.8914
35.7412
36.514
37.2483
37.9263
38.5578
39.1353
39.6593
40.1254
40.5314
40.874
41.1504
41.3582
41.4949
41.5595
41.5591
41.4936
41.3556
41.147
40.8698
40.5265
40.12
39.6536
39.1296
38.5523
37.9209
37.2431
36.5088
35.7355
34.8851
34.0313
33.0981
32.3159
31.4136
31.0646
29.7714
29.9444
30.7179
31.4199
32.311
33.1543
34.014
34.8086
35.5619
36.2595
36.9094
37.5048
38.045
38.5259
38.9447
39.2982
39.5835
39.798
39.9395
40.0068
40.0063
39.9378
39.795
39.5793
39.293
38.9388
38.5193
38.0381
37.4977
36.9024
36.2525
35.555
34.8017
34.0064
33.1459
32.3019
31.4101
30.7079
29.9351
29.7635
28.4065
28.4354
29.0726
29.6767
30.5006
31.3062
32.151
32.9463
33.7047
34.4103
35.0699
35.6759
36.227
36.7182
37.1467
37.5087
37.8011
38.0211
38.1667
38.2362
38.2356
38.1645
38.0175
37.796
37.5024
37.1395
36.7102
36.2184
35.6671
35.061
34.4014
33.6955
32.9365
32.1403
31.2946
30.4883
29.6636
29.0597
28.4226
28.3958
26.9978
26.9537
27.4785
27.9965
28.7464
29.5001
30.3104
31.0875
31.838
32.5399
33.1991
33.8069
34.3614
34.8568
35.2897
35.6559
35.9521
36.1753
36.3231
36.3941
36.3933
36.3206
36.1709
35.9459
35.6483
35.2809
34.8471
34.3509
33.7962
33.188
32.5286
31.8264
31.0748
30.2967
29.4851
28.7305
27.9797
27.4617
26.9369
26.9823
25.6703
25.6353
26.0879
26.5579
27.2465
27.9539
28.7237
29.4717
30.2008
30.8877
31.5359
32.1363
32.6853
33.177
33.6074
33.972
34.2673
34.49
34.6376
34.7088
34.7078
34.6345
34.4847
34.2598
33.9628
33.5966
33.165
32.6724
32.1227
31.5219
30.8732
30.1858
29.4555
28.7059
27.9347
27.226
26.5364
26.0655
25.6133
25.6477
24.709
24.7286
25.1496
25.6061
26.2523
26.9237
27.6517
28.3633
29.0587
29.7199
30.3468
30.9293
31.4632
31.9422
32.3619
32.7179
33.0062
33.2239
33.3682
33.4377
33.4365
33.3644
33.2174
32.9974
32.7067
32.3489
31.9275
31.4473
30.9125
30.3293
29.7019
29.0401
28.3439
27.6309
26.9016
26.2286
25.5817
25.1242
24.7043
24.6836
24.413
24.4807
24.889
25.3376
25.9459
26.5786
27.2566
27.9209
28.5757
29.2024
29.798
30.3527
30.8619
31.319
31.7199
32.0599
32.3355
32.5434
32.6813
32.7473
32.7459
32.6768
32.5359
32.3251
32.0468
31.7045
31.3017
30.8429
30.3327
29.7771
29.181
28.5538
27.8986
27.2332
26.5538
25.9203
25.3111
24.8622
24.4553
24.3859
24.7863
24.8629
25.2629
25.6861
26.2559
26.84
27.4648
28.0796
28.6904
29.2768
29.8355
30.3565
30.835
31.2651
31.6422
31.9622
32.2216
32.4172
32.5467
32.6084
32.6067
32.5416
32.4088
32.2099
31.9476
31.625
31.2457
30.8139
30.3341
29.8124
29.2532
28.6666
28.0558
27.4407
26.8155
26.2301
25.6604
25.2348
24.8376
24.7548
25.4583
25.5333
25.9294
26.3278
26.867
27.41
27.9944
28.5704
29.1449
29.6963
30.2223
30.7128
31.1637
31.5688
31.9242
32.2258
32.4701
32.6542
32.7758
32.8333
32.8316
32.7703
32.6448
32.4571
32.2095
31.905
31.5472
31.1401
30.6878
30.1962
29.6697
29.118
28.544
27.9682
27.3846
26.8412
26.3031
25.9037
25.5103
25.435
26.0642
26.1104
26.5104
26.883
27.4051
27.9199
28.4827
29.0351
29.5881
30.1185
30.6251
31.0974
31.5316
31.9219
32.2644
32.5549
32.7903
32.9675
33.0843
33.1394
33.1376
33.0786
32.9577
32.7767
32.5379
32.2443
31.8993
31.5069
31.0711
30.5979
30.0907
29.5601
29.0072
28.4551
27.8928
27.3778
26.8562
26.4827
26.0849
26.0359
94.4509
61.3607
52.416
55.5884
61.6091
66.6894
70.9078
74.4437
77.4499
80.0757
82.4502
84.6358
86.6787
88.6207
90.4844
92.3144
94.1399
96.018
97.963
99.9878
102.101
104.302
106.586
108.94
111.347
113.782
116.209
118.575
120.804
122.79
124.345
125.215
82.2552
61.6652
52.1878
54.1612
59.9427
64.9815
69.1776
72.694
75.6886
78.3222
80.6879
82.845
84.8517
86.7377
88.5478
90.3103
92.086
93.8873
95.7558
97.7102
99.7531
101.881
104.087
106.36
108.685
111.036
113.38
115.665
117.818
119.736
121.238
122.076
78.7353
60.0434
50.9809
52.6934
58.2931
63.257
67.4101
70.9281
73.9496
76.585
78.9475
81.0904
83.0538
84.8996
86.6507
88.363
90.0556
91.8003
93.6088
95.4906
97.4544
99.5029
101.629
103.822
106.066
108.335
110.597
112.801
114.879
116.729
118.178
118.985
77.8433
60.4859
50.5406
51.1729
56.5317
61.4756
65.649
69.1853
72.2074
74.8689
77.2351
79.3567
81.2976
83.0933
84.8017
86.4461
88.1053
89.7779
91.5092
93.3242
95.2251
97.2055
99.2597
101.376
103.54
105.728
107.909
110.035
112.039
113.823
115.22
115.996
76.7492
59.687
49.7381
49.7293
54.8306
59.7158
63.8512
67.397
70.4848
73.1647
75.5347
77.6603
79.5722
81.3455
83.0025
84.6168
86.1901
87.814
89.4997
91.25
93.0745
94.9794
96.9567
98.9984
101.086
103.198
105.302
107.352
109.284
111.006
112.352
113.098
72.4121
58.3606
48.7975
48.135
52.9409
57.8161
62.0248
65.6454
68.7347
71.4523
73.8483
75.9613
77.8769
79.6137
81.2495
82.7961
84.3613
85.9245
87.5334
89.2229
90.996
92.8425
94.7576
96.7283
98.7426
100.778
102.807
104.784
106.647
108.307
109.604
110.321
80.1944
57.7123
47.8923
46.5954
51.1358
55.9891
60.1653
63.7737
66.9714
69.7331
72.1407
74.2862
76.1856
77.932
79.5274
81.0771
82.5542
84.0772
85.6601
87.2969
88.9969
90.7713
92.6128
94.515
96.4594
98.4253
100.381
102.287
104.084
105.685
106.935
107.624
93.9296
60.2303
47.8098
45.017
49.0321
53.8558
58.1661
61.9519
65.1515
67.9596
70.4302
72.5741
74.5081
76.2292
77.84
79.3209
80.8254
82.3068
83.8128
85.3939
87.0564
88.785
90.5761
92.4141
94.2911
96.1854
98.0718
99.9107
101.642
103.185
104.389
105.05
93.6122
60.2901
47.257
43.4705
47.018
51.8647
56.1689
59.8785
63.2489
66.1544
68.6478
70.8678
72.799
74.5661
76.1427
77.6762
79.0924
80.5419
82.0487
83.5943
85.1868
86.8457
88.5636
90.3397
92.1518
93.9821
95.8015
97.5725
99.2425
100.731
101.891
102.523
77.3641
60.0058
47.073
41.7275
44.4992
49.2502
53.7614
57.8633
61.2543
64.2176
66.8383
69.0712
71.0831
72.8333
74.4697
75.9218
77.408
78.8444
80.2729
81.7671
83.3396
84.9683
86.6515
88.3696
90.1198
91.8825
93.6359
95.3445
96.9526
98.3854
99.5021
100.106
74.1878
58.0903
47.0141
40.3248
42.0765
46.8908
51.4876
55.3648
59.04
62.2111
64.8738
67.2551
69.2802
71.1326
72.7336
74.3043
75.6934
77.0992
78.5629
80.044
81.5477
83.106
84.7123
86.3732
88.0633
89.7673
91.4568
93.0996
94.6485
96.03
97.1037
97.6794
79.5249
57.6101
45.908
38.514
38.8326
43.2608
48.1473
52.9245
56.679
59.9319
62.846
65.2615
67.4444
69.2858
71.0175
72.4793
73.9943
75.4265
76.8028
78.2325
79.7375
81.2856
82.8773
84.4871
86.1203
87.7584
89.3849
90.9688
92.4581
93.785
94.8166
95.3649
76.8993
57.6582
45.4002
36.3646
35.5098
40.0753
45.3244
49.4846
53.8091
57.5171
60.51
63.2123
65.4306
67.4693
69.1534
70.837
72.2407
73.6365
75.0972
76.543
77.9773
79.4493
80.9552
82.512
84.0887
85.6736
87.2387
88.7566
90.1884
91.4664
92.4556
92.9754
65.6554
54.8834
44.9944
34.9858
30.5649
33.96
39.6117
46.1618
50.6601
54.5226
58.0487
60.8251
63.3506
65.3798
67.3157
68.8367
70.4472
71.9309
73.2826
74.6759
76.1411
77.6333
79.1521
80.6662
82.191
83.7098
85.2138
86.6767
88.0503
89.2737
90.2209
90.7138
47.1987
47.3578
41.7009
32.1805
25.9217
28.4986
35.5126
40.0856
46.2912
51.2505
54.9428
58.3223
60.9199
63.3306
65.1849
67.1002
68.5739
70.0023
71.5177
72.9652
74.3526
75.7518
77.1694
78.6326
80.1042
81.576
83.0198
84.4138
85.7302
86.9057
87.811
88.2729
25.0624
36.072
35.3341
29.2711
13.1534
9.59609
20.0987
34.8454
40.9104
46.5361
51.5866
55.1309
58.3811
60.7738
63.1114
64.7573
66.5672
68.184
69.5416
70.9345
72.3973
73.8668
75.3355
76.7681
78.1926
79.5953
80.9784
82.3223
83.5793
84.6986
85.562
85.9973
5.68093
19.3995
19.8591
11.1237
6.96679
15.8402
7.75734
11.3845
32.7468
41.1095
46.6021
51.7009
55.1042
58.2933
60.4669
62.8316
64.4524
65.9686
67.6277
69.1291
70.4951
71.8343
73.1742
74.5534
75.9265
77.2896
78.6117
79.8782
81.0763
82.1482
82.9672
83.3684
11.5594
9.47104
6.72059
7.21505
4.81963
15.9861
16.7439
17.2041
21.8897
29.9081
41.0643
46.5997
51.6481
54.7954
57.9696
59.8383
62.0367
63.9231
65.3206
66.7589
68.2736
69.7685
71.2207
72.5891
73.9205
75.2062
76.4659
77.6887
78.8253
79.8363
80.6122
80.9869
11.7237
6.10436
12.0589
14.0247
16.0395
17.0961
6.20119
3.55238
18.9298
16.8027
29.178
40.8124
46.3919
51.4942
54.2836
57.5845
59.4702
61.1562
63.1151
64.7561
66.1333
67.4246
68.69
69.9936
71.2723
72.5284
73.7225
74.8499
75.922
76.8849
77.6116
77.9444
5.46444
11.902
4.22665
16.2785
13.3391
19.1599
19.8471
19.7595
19.8153
10.1076
1.70685
29.4702
40.7334
45.7288
50.9962
53.2436
56.2725
58.703
60.1791
61.7303
63.3902
64.989
66.4873
67.8153
69.062
70.2233
71.3507
72.447
73.4533
74.3466
75.0284
75.3357
6.57975
15.9407
19.8678
20.5986
16.6699
11.6428
17.7992
22.5906
22.2634
21.0617
20.0945
22.9444
28.0545
40.6709
44.7769
50.466
52.8055
54.8219
57.4299
59.3782
60.8134
62.0668
63.2422
64.4817
65.6661
66.8145
67.8662
68.8296
69.7588
70.602
71.2243
71.4738
7.99209
18.3669
23.1903
26.7334
28.6908
27.1964
17.3569
25.6832
19.0467
6.48248
14.9634
10.0527
18.9389
26.5308
39.861
42.637
47.9824
51.6361
53.21
55.0202
57.0338
58.9065
60.5948
61.9221
63.1005
64.1211
65.0987
66.061
66.9205
67.679
68.2559
68.4859
7.7795
18.2211
24.0063
28.2238
30.8308
32.0033
31.8766
25.4764
14.9083
26.0739
25.7158
6.05812
21.7879
8.82136
23.3246
39.2677
42.1114
45.0931
49.4444
52.0868
53.6541
54.8711
55.8741
57.0835
58.1745
59.2179
60.0991
60.8456
61.5998
62.3075
62.8032
62.9368
7.42123
17.0683
23.1463
27.8868
31.369
33.4306
33.675
32.8798
27.2981
14.0086
22.1907
26.3984
7.88851
21.4391
4.01676
13.5706
33.883
40.4072
41.8574
44.4731
47.5197
50.1349
52.4838
53.9098
55.0571
55.9011
56.7011
57.5307
58.2224
58.816
59.2752
59.4179
6.65532
15.4976
21.4853
26.1911
29.7812
32.3902
34.0484
34.1438
33.1416
29.1536
30.2733
27.2655
7.34271
23.9003
21.971
22.3604
25.3753
24.382
36.2372
40.6852
42.4215
43.6299
44.0063
45.2719
46.3422
47.3282
47.9661
48.3593
48.865
49.4219
49.7438
49.6522
5.93615
14.2807
19.9132
24.3887
27.9
30.5778
32.39
33.4222
33.2764
32.242
31.998
16.339
12.1389
18.655
11.6125
16.2705
13.9133
24.4461
26.0833
18.9011
28.8829
34.4325
39.3249
41.4367
42.5988
43.149
43.7668
44.5093
44.9631
45.388
45.6689
45.8317
5.17039
13.121
18.1008
22.0725
25.264
27.8506
29.86
31.136
31.7445
31.6868
30.336
31.8262
22.7169
18.9175
8.60828
4.65001
7.79318
15.5102
23.5605
8.39224
26.1248
8.81503
12.6476
13.5196
15.102
17.0091
17.1422
15.6187
17.3387
15.9018
17.7425
14.1284
4.57197
12.1469
15.8388
18.8704
21.5189
23.8789
25.8728
27.419
28.4429
29.1613
30.2129
29.6088
31.3907
26.4122
20.4713
5.42945
18.2887
25.0989
4.75943
25.2109
6.66908
19.2205
27.1284
27.4872
20.1309
20.8708
1.57928
21.8598
30.7754
22.4734
31.326
8.62786
4.2563
12.3658
13.4284
14.9652
16.6662
18.5222
20.4227
22.1936
23.8172
25.4015
26.8402
29.1663
29.863
31.4536
29.9522
16.1723
20.4897
27.8129
16.4907
19.9196
26.7514
9.35957
20.8887
19.4019
6.60625
28.9383
22.8424
7.97119
22.011
8.80291
21.693
31.9813
3.92488
11.1526
11.9747
12.3881
12.9236
13.7901
15.1567
16.9799
19.036
21.2141
23.6383
25.5583
28.2501
29.9879
31.1504
32.8392
25.1056
27.2417
14.9387
24.0351
20.0756
24.2924
11.1715
5.94426
25.2116
29.3298
8.81759
25.9396
10.3483
28.2077
32.2169
27.1618
3.76092
11.3007
11.5402
11.7693
11.9309
12.2078
13.1464
14.7874
16.7346
18.7793
20.8043
23.3211
25.3856
27.8441
30.296
31.1058
32.3126
30.3253
19.7311
8.58774
20.0306
27.9625
12.7201
17.8799
18.8468
11.3597
19.2527
5.06679
32.613
24.518
33.0324
21.6099
3.56302
11.3778
11.5462
11.6927
11.7918
12.1649
13.4721
15.3179
17.1177
18.7221
20.3227
21.7419
23.6673
25.5721
27.5502
30.2739
31.7171
32.1804
32.7368
29.2091
20.9606
28.2828
26.5633
14.3074
23.2802
30.3776
28.4717
23.2623
20.6859
12.4555
20.7631
25.0814
2.54826
9.37183
11.5283
11.6135
11.7877
12.1909
14.075
16.1952
18.0443
19.5985
20.8746
22.1556
23.1945
24.4495
26.056
27.5918
29.8269
31.8493
32.4301
32.4586
31.9931
30.4646
26.4138
22.7109
19.5951
18.6629
18.2844
17.662
17.4055
18.088
17.2472
18.9734
2.43808
8.93908
11.0983
11.4563
11.5623
13.4325
15.7863
17.8392
19.5049
20.8705
22.0547
22.9871
23.8919
24.637
25.3295
26.5263
27.8833
29.5465
31.4885
32.5697
32.3975
31.6096
31.3285
31.0826
30.7625
30.4704
30.0304
29.7451
29.52
29.4847
29.6022
29.5393
2.99722
9.96128
11.4412
11.6947
13.2739
15.5794
17.7462
19.5733
21.102
22.3911
23.4587
24.3888
25.0737
25.6158
26.0829
26.373
27.0016
28.1052
29.4051
30.7008
31.6909
31.9704
31.3517
30.3767
29.2447
28.0505
26.9815
26.1437