/*--------------------------------*- C++ -*----------------------------------*\
  =========                 |
  \\      /  F ield         | OpenFOAM: The Open Source CFD Toolbox
   \\    /   O peration     | Website:  https://openfoam.org
    \\  /    A nd           | Version:  6
     \\/     M anipulation  |
\*---------------------------------------------------------------------------*/
FoamFile
{
    version     2.0;
    format      ascii;
    class       volVectorField;
    location    "26";
    object      wallShearStress;
}
// * * * * * * * * * * * * * * * * * * * * * * * * * * * * * * * * * * * * * //

dimensions      [0 2 -2 0 0 0 0];

internalField   uniform (0 0 0);

boundaryField
{
    inlet
    {
        type            calculated;
        value           uniform (0 0 0);
    }
    outlet
    {
        type            calculated;
        value           uniform (0 0 0);
    }
    roughCylinder
    {
        type            calculated;
        value           nonuniform List<vector> 
5120
(
(-0.000251146 -0.00035768 -0.000184225)
(-0.000307843 -0.000462131 -4.19536e-05)
(-0.000341476 -0.000555968 -4.88301e-07)
(-0.000387293 -0.000645971 5.43303e-05)
(-0.00044437 -0.000724042 0.000117589)
(-0.000509146 -0.00078574 0.000181134)
(-0.000578153 -0.000828239 0.000240451)
(-0.000646722 -0.000851986 0.000292767)
(-0.000710783 -0.000859464 0.000335996)
(-0.00076829 -0.000855763 0.000369439)
(-0.000819499 -0.000849199 0.000394613)
(-0.000864647 -0.000845307 0.000413361)
(-0.00090084 -0.00084423 0.000424466)
(-0.000931354 -0.000848607 0.000429027)
(-0.000957483 -0.000857679 0.000428087)
(-0.00098057 -0.00087073 0.000422706)
(-0.00100203 -0.000886981 0.000413932)
(-0.00102311 -0.000905778 0.00040266)
(-0.00104474 -0.000926651 0.000389556)
(-0.00106757 -0.000949303 0.000375043)
(-0.00109196 -0.000973556 0.000359322)
(-0.00111801 -0.000999281 0.00034242)
(-0.00114569 -0.00102635 0.000324234)
(-0.00117483 -0.0010546 0.000304573)
(-0.00120517 -0.00108378 0.000283173)
(-0.00123636 -0.00111355 0.000259673)
(-0.00126798 -0.00114346 0.000233591)
(-0.0012994 -0.00117281 0.000204202)
(-0.00132979 -0.00120071 0.000170403)
(-0.00135754 -0.00122561 0.000130566)
(-0.00138002 -0.00124584 8.25954e-05)
(-0.00139258 -0.00125763 2.80183e-05)
(-0.000269819 -0.000346109 -0.000174102)
(-0.000329642 -0.000447815 -4.44344e-05)
(-0.000365868 -0.000540352 -6.24636e-06)
(-0.000413811 -0.000630076 4.51838e-05)
(-0.000472582 -0.000709159 0.000105834)
(-0.000538916 -0.000772642 0.000167598)
(-0.000609324 -0.000817312 0.000225776)
(-0.000679393 -0.000843474 0.000277476)
(-0.000745663 -0.000854017 0.000320716)
(-0.000806594 -0.000854598 0.000355222)
(-0.00086197 -0.000852081 0.000382388)
(-0.000910666 -0.00084974 0.000402988)
(-0.000949627 -0.000847351 0.000415152)
(-0.000981671 -0.000850633 0.000420287)
(-0.00100932 -0.000858992 0.000419654)
(-0.00103383 -0.000871686 0.000414491)
(-0.0010567 -0.000887811 0.00040589)
(-0.00107919 -0.000906622 0.000394784)
(-0.00110228 -0.000927584 0.000381874)
(-0.00112662 -0.000950348 0.000367606)
(-0.00115257 -0.000974704 0.000352179)
(-0.00118024 -0.00100052 0.000335628)
(-0.00120958 -0.00102765 0.000317853)
(-0.00124042 -0.00105592 0.000298655)
(-0.00127246 -0.0010851 0.000277765)
(-0.00130536 -0.00111482 0.000254817)
(-0.00133865 -0.00114465 0.000229329)
(-0.00137168 -0.0011739 0.000200574)
(-0.00140358 -0.00120166 0.000167464)
(-0.00143265 -0.00122641 0.000128364)
(-0.00145622 -0.00124652 8.12254e-05)
(-0.00146934 -0.00125819 2.75637e-05)
(-0.000288344 -0.00032932 -0.000156702)
(-0.000350967 -0.000428061 -4.74333e-05)
(-0.000389601 -0.000518553 -1.26669e-05)
(-0.00043928 -0.000607331 3.51661e-05)
(-0.000499445 -0.000686905 9.29082e-05)
(-0.000567183 -0.000751931 0.000152655)
(-0.000639058 -0.000798921 0.000209611)
(-0.000710979 -0.000828146 0.000260845)
(-0.000779979 -0.00084267 0.000304536)
(-0.000844614 -0.000847842 0.000340474)
(-0.000903888 -0.000848935 0.000369428)
(-0.000955836 -0.00084809 0.000391309)
(-0.000998323 -0.000845665 0.000404751)
(-0.00103202 -0.000847447 0.0004104)
(-0.00106121 -0.000854929 0.000410072)
(-0.00108725 -0.000867089 0.000405174)
(-0.00111161 -0.00088292 0.000396795)
(-0.00113559 -0.000901592 0.000385917)
(-0.0011602 -0.000922472 0.000373262)
(-0.0011861 -0.000945185 0.000359287)
(-0.00121364 -0.000969482 0.000344217)
(-0.00124296 -0.00099521 0.000328083)
(-0.00127398 -0.00102222 0.000310777)
(-0.00130652 -0.00105032 0.000292103)
(-0.00134027 -0.00107928 0.000271785)
(-0.00137485 -0.00110876 0.00024945)
(-0.00140979 -0.0011383 0.000224619)
(-0.0014444 -0.00116723 0.00019656)
(-0.00147778 -0.00119466 0.000164209)
(-0.00150812 -0.00121908 0.000125923)
(-0.00153274 -0.00123892 7.97071e-05)
(-0.0015464 -0.0012504 2.70615e-05)
(-0.000304885 -0.00030866 -0.000134828)
(-0.000369887 -0.000403905 -5.05101e-05)
(-0.000410482 -0.000491613 -1.93412e-05)
(-0.000461308 -0.000578799 2.47207e-05)
(-0.000522426 -0.000658358 7.92872e-05)
(-0.000591349 -0.000724737 0.000136751)
(-0.000664775 -0.000774229 0.000192333)
(-0.000738886 -0.000807034 0.000243117)
(-0.000810952 -0.000826071 0.000287406)
(-0.00087929 -0.00083588 0.000324832)
(-0.000942261 -0.000840309 0.000355438)
(-0.000997622 -0.000841132 0.000378512)
(-0.00104379 -0.00083959 0.00039325)
(-0.00107996 -0.000839773 0.000399552)
(-0.00111083 -0.000846276 0.000399649)
(-0.00113852 -0.000857742 0.000395063)
(-0.00116446 -0.000873144 0.000386972)
(-0.00119001 -0.00089154 0.000376383)
(-0.00121618 -0.000912235 0.000364047)
(-0.00124367 -0.000934776 0.000350433)
(-0.00127282 -0.000958886 0.000335772)
(-0.00130377 -0.000984387 0.000320102)
(-0.00133644 -0.00101112 0.000303317)
(-0.00137062 -0.00103891 0.000285213)
(-0.001406 -0.00106749 0.000265508)
(-0.00144218 -0.00109655 0.000243826)
(-0.00147868 -0.00112563 0.000219688)
(-0.00151477 -0.00115408 0.000192363)
(-0.00154952 -0.00118102 0.000160807)
(-0.00158104 -0.00120496 0.00012337)
(-0.00160665 -0.00122443 7.81232e-05)
(-0.00162076 -0.00123563 2.65414e-05)
(-0.000318323 -0.000284357 -0.000110594)
(-0.000385322 -0.000375593 -5.33089e-05)
(-0.000427402 -0.000459876 -2.59173e-05)
(-0.000478803 -0.000544862 1.41825e-05)
(-0.000540465 -0.000623922 6.52809e-05)
(-0.000610413 -0.000691473 0.000120134)
(-0.000685513 -0.000743636 0.000174115)
(-0.000762103 -0.000780318 0.000224363)
(-0.000837387 -0.000803958 0.000269201)
(-0.000909303 -0.000818115 0.000307973)
(-0.00097583 -0.000825639 0.000340085)
(-0.00103471 -0.000828233 0.000364407)
(-0.00108441 -0.000827801 0.000380254)
(-0.00112441 -0.000827498 0.000387679)
(-0.00115721 -0.000832518 0.00038834)
(-0.00118668 -0.000843072 0.000384164)
(-0.00121432 -0.000857875 0.000376462)
(-0.00124151 -0.000875839 0.000366245)
(-0.00126927 -0.000896184 0.00035429)
(-0.00129833 -0.000918398 0.000341099)
(-0.00132907 -0.000942168 0.000326908)
(-0.0013616 -0.000967289 0.000311761)
(-0.00139585 -0.000993586 0.000295547)
(-0.00143159 -0.00102088 0.000278059)
(-0.00146851 -0.00104892 0.00025901)
(-0.00150618 -0.00107738 0.000238018)
(-0.0015441 -0.00110583 0.000214605)
(-0.00158154 -0.00113361 0.000188041)
(-0.00161754 -0.00115989 0.00015731)
(-0.00165012 -0.0011832 0.000120746)
(-0.00167661 -0.00120217 7.64995e-05)
(-0.00169111 -0.00121303 2.60123e-05)
(-0.000328724 -0.000257903 -8.57898e-05)
(-0.000397199 -0.000344572 -5.57018e-05)
(-0.000440183 -0.000424863 -3.22007e-05)
(-0.000491534 -0.00050706 3.78312e-06)
(-0.000553259 -0.000585108 5.11255e-05)
(-0.000623992 -0.000653559 0.000103022)
(-0.000700755 -0.00070835 0.000155115)
(-0.000779931 -0.000748919 0.000204653)
(-0.00085852 -0.00077698 0.000249902)
(-0.000934037 -0.000795131 0.000289829)
(-0.00100415 -0.000805506 0.000323308)
(-0.00106664 -0.000809855 0.000348898)
(-0.00112003 -0.000810541 0.000365829)
(-0.00116413 -0.000810632 0.0003745)
(-0.00119989 -0.000813986 0.000376015)
(-0.00123132 -0.000823433 0.000372444)
(-0.00126079 -0.000837337 0.000365221)
(-0.00128969 -0.000854642 0.000355476)
(-0.00131911 -0.000874476 0.000344004)
(-0.00134977 -0.000896211 0.000331313)
(-0.00138207 -0.000919476 0.00031766)
(-0.00141613 -0.000944049 0.000303092)
(-0.00145188 -0.000969741 0.000287502)
(-0.00148907 -0.000996358 0.000270675)
(-0.00152739 -0.00102366 0.000252321)
(-0.00156639 -0.00105133 0.000232051)
(-0.00160559 -0.00107896 0.000209392)
(-0.00164422 -0.00110592 0.000183614)
(-0.0016813 -0.00113137 0.00015373)
(-0.00171479 -0.0011539 0.00011806)
(-0.00174208 -0.00117225 7.48426e-05)
(-0.00175685 -0.0011827 2.54777e-05)
(-0.000334751 -0.000229492 -6.13441e-05)
(-0.000404206 -0.000311148 -5.75104e-05)
(-0.000447522 -0.000386902 -3.79714e-05)
(-0.00049819 -0.000465721 -6.29659e-06)
(-0.000559439 -0.000542225 3.69279e-05)
(-0.000630659 -0.000611262 8.54448e-05)
(-0.000709053 -0.000668604 0.000135282)
(-0.000790902 -0.000713015 0.000183845)
(-0.00087286 -0.000745276 0.000229273)
(-0.000952017 -0.00076707 0.000270112)
(-0.00102583 -0.000780111 0.000304798)
(-0.00109216 -0.000786282 0.000331684)
(-0.00114954 -0.000788184 0.000349864)
(-0.00119779 -0.000789017 0.000359752)
(-0.00123791 -0.000791885 0.000362585)
(-0.00127173 -0.000799325 0.000359782)
(-0.00130322 -0.000812163 0.000353219)
(-0.00133401 -0.00082863 0.000344069)
(-0.0013651 -0.000847709 0.000333167)
(-0.00139736 -0.000868759 0.00032106)
(-0.0014312 -0.000891357 0.000308022)
(-0.00146673 -0.000915225 0.000294102)
(-0.00150388 -0.000940156 0.000279194)
(-0.00154242 -0.000965959 0.000263081)
(-0.001582 -0.000992384 0.000245466)
(-0.00162221 -0.00101913 0.000225954)
(-0.00166251 -0.00104579 0.000204075)
(-0.00170215 -0.00107176 0.000179104)
(-0.00174014 -0.00109625 0.000150088)
(-0.00177439 -0.00111787 0.000115327)
(-0.00180233 -0.00113548 7.31622e-05)
(-0.00181729 -0.00114548 2.49419e-05)
(-0.000336714 -0.000200415 -3.82834e-05)
(-0.000406489 -0.000276604 -5.87426e-05)
(-0.000449508 -0.000347382 -4.31478e-05)
(-0.000498795 -0.000422276 -1.58874e-05)
(-0.000558912 -0.000496636 2.29198e-05)
(-0.00063012 -0.000565759 6.76286e-05)
(-0.000709818 -0.000625261 0.000114778)
(-0.000794132 -0.000673142 0.000161975)
(-0.000879392 -0.000709254 0.000207232)
(-0.000962342 -0.000734479 0.000248723)
(-0.00104015 -0.000750133 0.000284485)
(-0.00111056 -0.000758154 0.000312667)
(-0.00117214 -0.000761308 0.000332242)
(-0.0012246 -0.000762838 0.000343464)
(-0.00126891 -0.000765784 0.000347591)
(-0.00130685 -0.000772135 0.000346072)
(-0.00134069 -0.000783093 0.000340354)
(-0.00137347 -0.000798149 0.000331926)
(-0.00140639 -0.000816332 0.000321753)
(-0.00144032 -0.00083655 0.000310343)
(-0.00147566 -0.000858314 0.000298005)
(-0.00151259 -0.000881316 0.000284806)
(-0.00155102 -0.000905331 0.000270643)
(-0.00159073 -0.000930143 0.000255291)
(-0.0016314 -0.000955529 0.000238454)
(-0.00167257 -0.000981178 0.000219728)
(-0.00171376 -0.00100671 0.000198656)
(-0.00175418 -0.00103163 0.000174515)
(-0.00179288 -0.00105508 0.000146389)
(-0.00182768 -0.0010757 0.00011255)
(-0.00185618 -0.00109253 7.14632e-05)
(-0.00187115 -0.00110207 2.44087e-05)
(-0.000332946 -0.000170477 -1.70863e-05)
(-0.000402497 -0.000240917 -5.92039e-05)
(-0.000444598 -0.000306244 -4.75108e-05)
(-0.000491771 -0.000376611 -2.47724e-05)
(-0.000549996 -0.000448136 9.28215e-06)
(-0.000620597 -0.000516745 4.96901e-05)
(-0.0007013 -0.000578028 9.36194e-05)
(-0.000788051 -0.000629171 0.000138968)
(-0.000876703 -0.000668953 0.000183638)
(-0.000963528 -0.000697402 0.00022543)
(-0.00104549 -0.000715563 0.000262057)
(-0.00112027 -0.000725467 0.0002915)
(-0.0011864 -0.000729992 0.000312604)
(-0.00124346 -0.000732371 0.000325432)
(-0.0012921 -0.000735467 0.000331019)
(-0.00133408 -0.000741348 0.000330862)
(-0.0013716 -0.000751039 0.000326391)
(-0.0014073 -0.000764775 0.000319093)
(-0.00144207 -0.000781497 0.000309779)
(-0.00147763 -0.000800542 0.000299167)
(-0.00151445 -0.00082127 0.000287633)
(-0.00155268 -0.00084328 0.000275241)
(-0.00159227 -0.000866294 0.000261894)
(-0.00163302 -0.000890094 0.000247369)
(-0.00167455 -0.000914425 0.000231357)
(-0.0017165 -0.000939 0.000213458)
(-0.00175835 -0.000963431 0.000193218)
(-0.00179918 -0.000987154 0.000169904)
(-0.00183824 -0.00100943 0.000142666)
(-0.00187333 -0.00102896 0.000109748)
(-0.00190218 -0.0010449 6.97566e-05)
(-0.00191691 -0.00105393 2.38821e-05)
(-0.000324613 -0.000141346 1.55464e-06)
(-0.000392957 -0.000205307 -5.91998e-05)
(-0.000433534 -0.000265213 -5.10624e-05)
(-0.000477937 -0.000330542 -3.27842e-05)
(-0.000533414 -0.000398522 -3.66852e-06)
(-0.000602548 -0.000465816 3.20065e-05)
(-0.000683523 -0.000528125 7.2136e-05)
(-0.000772119 -0.000581861 0.000115008)
(-0.00086384 -0.000624849 0.000158511)
(-0.00095468 -0.000656425 0.000200206)
(-0.00104122 -0.000677202 0.000237514)
(-0.00112082 -0.000689075 0.000268185)
(-0.0011918 -0.000694963 0.000290884)
(-0.00125356 -0.000698086 0.000305452)
(-0.00130676 -0.000701361 0.000312748)
(-0.00135282 -0.000706802 0.000314128)
(-0.00139403 -0.000715629 0.000311094)
(-0.00143266 -0.000728177 0.00030507)
(-0.00146996 -0.000743543 0.000296892)
(-0.00150748 -0.000761342 0.000287317)
(-0.0015458 -0.000780875 0.000276737)
(-0.0015852 -0.000801709 0.000265254)
(-0.00162568 -0.000823538 0.000252791)
(-0.00166702 -0.000846108 0.000239127)
(-0.00170898 -0.00086918 0.000223968)
(-0.00175115 -0.000892451 0.000206905)
(-0.0017931 -0.000915566 0.000187501)
(-0.00183401 -0.000937919 0.00016504)
(-0.00187312 -0.000958873 0.000138735)
(-0.0019082 -0.000977206 0.00010678)
(-0.00193724 -0.000992207 6.79552e-05)
(-0.00195151 -0.00100059 2.33328e-05)
(-0.000307804 -0.00011202 1.725e-05)
(-0.000376863 -0.000170113 -5.82889e-05)
(-0.000414489 -0.000224009 -5.36514e-05)
(-0.000455199 -0.000283649 -3.96331e-05)
(-0.000506922 -0.000347235 -1.56056e-05)
(-0.000573615 -0.000412282 1.48674e-05)
(-0.000654229 -0.000474931 5.05032e-05)
(-0.000744566 -0.000531 9.01808e-05)
(-0.000839588 -0.000577211 0.000131906)
(-0.000934571 -0.000611875 0.000173002)
(-0.00102577 -0.000635208 0.000210646)
(-0.0011104 -0.000649059 0.000242408)
(-0.00118661 -0.000656334 0.000266743)
(-0.00125367 -0.000660307 0.000283262)
(-0.00131174 -0.00066376 0.000292516)
(-0.0013623 -0.000668846 0.000295734)
(-0.00140731 -0.000676833 0.000294354)
(-0.00144906 -0.000688222 0.000289794)
(-0.00148881 -0.000702246 0.00028292)
(-0.00152823 -0.000718686 0.000274537)
(-0.001568 -0.000736878 0.000265054)
(-0.00160844 -0.000756361 0.0002546)
(-0.00164961 -0.000776805 0.000243116)
(-0.0016914 -0.00079797 0.0002304)
(-0.00173352 -0.000819589 0.000216156)
(-0.00177567 -0.000841388 0.000199984)
(-0.00181747 -0.000863014 0.000181458)
(-0.00185815 -0.000883873 0.000159896)
(-0.00189702 -0.000903401 0.000134576)
(-0.00193183 -0.000920472 0.000103636)
(-0.00196081 -0.000934431 6.60489e-05)
(-0.00197451 -0.000942151 2.27606e-05)
(-0.000285031 -8.41813e-05 2.99735e-05)
(-0.000355268 -0.000137042 -5.66657e-05)
(-0.000389687 -0.000184685 -5.53611e-05)
(-0.000425811 -0.000238349 -4.5234e-05)
(-0.000472708 -0.000296801 -2.61673e-05)
(-0.000535687 -0.000358525 -1.16676e-06)
(-0.000614668 -0.000420367 2.93273e-05)
(-0.000705542 -0.000477731 6.49431e-05)
(-0.00080293 -0.000526427 0.000104016)
(-0.000901954 -0.000564093 0.000143873)
(-0.00099832 -0.00059028 0.000181512)
(-0.00108859 -0.000606364 0.000214237)
(-0.00117057 -0.000615144 0.000240237)
(-0.00124307 -0.000619788 0.00025878)
(-0.0013064 -0.000623343 0.00027021)
(-0.00136158 -0.000627935 0.000275505)
(-0.00141068 -0.000635043 0.000276054)
(-0.00145564 -0.000645157 0.000273176)
(-0.00149804 -0.000657806 0.000267831)
(-0.00153946 -0.000672811 0.000260827)
(-0.00158063 -0.00068952 0.000252592)
(-0.00162201 -0.000707503 0.000243295)
(-0.00166372 -0.000726427 0.000232901)
(-0.00170565 -0.000746016 0.00022121)
(-0.00174764 -0.00076604 0.000207947)
(-0.00178938 -0.000786209 0.000192711)
(-0.00183063 -0.000806196 0.000175103)
(-0.00187071 -0.000825433 0.00015448)
(-0.00190899 -0.000843453 0.000130197)
(-0.00194313 -0.000859164 0.00010031)
(-0.00197193 -0.000872058 6.40437e-05)
(-0.00198475 -0.000879049 2.21692e-05)
(-0.00025421 -5.8085e-05 3.93703e-05)
(-0.000324822 -0.000105375 -5.38995e-05)
(-0.000356086 -0.000146637 -5.56773e-05)
(-0.000386901 -0.000193845 -4.90654e-05)
(-0.000427786 -0.000246211 -3.48011e-05)
(-0.00048564 -0.000303354 -1.55079e-05)
(-0.000561814 -0.000363279 9.1376e-06)
(-0.000652909 -0.00042152 3.97446e-05)
(-0.000753156 -0.000472965 7.52765e-05)
(-0.00085639 -0.000513785 0.000113139)
(-0.000957771 -0.00054281 0.000150187)
(-0.00105374 -0.000561184 0.000183543)
(-0.00114165 -0.000571468 0.000211089)
(-0.00122032 -0.000576963 0.000231811)
(-0.00128928 -0.000580537 0.000245619)
(-0.0013497 -0.000584652 0.000253313)
(-0.00140315 -0.000590768 0.000256072)
(-0.00145171 -0.000599566 0.000255182)
(-0.00149679 -0.000610681 0.000251586)
(-0.00154013 -0.000624064 0.000246142)
(-0.00158266 -0.00063915 0.000239323)
(-0.00162483 -0.000655489 0.000231324)
(-0.00166682 -0.000672751 0.00022213)
(-0.00170868 -0.000690679 0.000211564)
(-0.00175021 -0.000708997 0.000199352)
(-0.00179125 -0.000727464 0.000185111)
(-0.00183163 -0.000745757 0.000168465)
(-0.00187082 -0.000763342 0.000148826)
(-0.00190809 -0.000779781 0.000125623)
(-0.00194135 -0.000794143 9.68308e-05)
(-0.00196966 -0.000805894 6.19533e-05)
(-0.00198146 -0.000812201 2.1569e-05)
(-0.000219122 -3.56791e-05 4.55376e-05)
(-0.000288755 -7.69248e-05 -5.03888e-05)
(-0.000317467 -0.000112323 -5.5027e-05)
(-0.000343017 -0.000153224 -5.13811e-05)
(-0.000377037 -0.000199013 -4.13473e-05)
(-0.000428164 -0.000250387 -2.75216e-05)
(-0.000499633 -0.000306837 -9.13758e-06)
(-0.00058872 -0.000364304 1.54841e-05)
(-0.000689514 -0.000417054 4.62761e-05)
(-0.000796218 -0.000460753 8.11382e-05)
(-0.000903106 -0.000493103 0.000116943)
(-0.00100541 -0.00051426 0.00015056)
(-0.0011001 -0.000526497 0.00017956)
(-0.00118503 -0.000532775 0.00020243)
(-0.00126016 -0.000536406 0.000218817)
(-0.00132587 -0.0005398 0.000229112)
(-0.00138398 -0.000544781 0.000234373)
(-0.00143616 -0.000552044 0.000235728)
(-0.00148422 -0.000561549 0.000234169)
(-0.00152972 -0.000573247 0.000230536)
(-0.00157356 -0.000586584 0.000225322)
(-0.0016164 -0.000601182 0.000218776)
(-0.00165852 -0.0006167 0.000210907)
(-0.00169991 -0.000632847 0.000201542)
(-0.00174061 -0.000649394 0.000190445)
(-0.00178046 -0.00066608 0.000177234)
(-0.00181948 -0.00068259 0.000161571)
(-0.00185723 -0.000698446 0.000142939)
(-0.00189321 -0.000713321 0.000120864)
(-0.001925 -0.000726253 9.31859e-05)
(-0.00195273 -0.000736883 5.97809e-05)
(-0.00196314 -0.000742493 2.0963e-05)
(-0.000176834 -1.67725e-05 4.77206e-05)
(-0.000243276 -5.1209e-05 -4.54187e-05)
(-0.000269481 -8.0599e-05 -5.25751e-05)
(-0.00028971 -0.000114858 -5.1378e-05)
(-0.000316137 -0.000153286 -4.4946e-05)
(-0.000358924 -0.00019748 -3.62129e-05)
(-0.000423565 -0.000248708 -2.43478e-05)
(-0.000509743 -0.000304511 -6.65706e-06)
(-0.000612141 -0.000359125 1.81593e-05)
(-0.000722398 -0.000405958 4.88128e-05)
(-0.000834122 -0.000441615 8.23753e-05)
(-0.000942572 -0.000465782 0.000115581)
(-0.00104368 -0.000480034 0.000145599)
(-0.00113573 -0.000487565 0.000170608)
(-0.00121721 -0.000491274 0.000189644)
(-0.00128899 -0.0004941 0.000202844)
(-0.00135211 -0.000497854 0.000210899)
(-0.00140847 -0.000503571 0.000214845)
(-0.0014595 -0.000511278 0.000215574)
(-0.00150697 -0.000521077 0.000213958)
(-0.00155207 -0.000532552 0.000210551)
(-0.00159541 -0.000545303 0.000205615)
(-0.00163731 -0.000558996 0.000199189)
(-0.00167801 -0.00057336 0.000191132)
(-0.00171751 -0.000588117 0.000181217)
(-0.00175582 -0.000603042 0.000169082)
(-0.00179316 -0.000617822 0.000154435)
(-0.00182927 -0.000632033 0.000136854)
(-0.00186334 -0.000645304 0.000115933)
(-0.00189357 -0.000656942 8.94049e-05)
(-0.00192038 -0.000666414 5.75419e-05)
(-0.00192919 -0.000671422 2.03636e-05)
(-0.000133275 -3.1966e-06 4.66867e-05)
(-0.000194618 -3.05529e-05 -3.96605e-05)
(-0.000219422 -5.4405e-05 -4.92153e-05)
(-0.000235748 -8.2684e-05 -5.00904e-05)
(-0.00025493 -0.000114044 -4.63128e-05)
(-0.000288267 -0.000150439 -4.14956e-05)
(-0.000344185 -0.000194944 -3.55992e-05)
(-0.000423629 -0.000246383 -2.54404e-05)
(-0.000521754 -0.000299475 -7.86918e-06)
(-0.000633422 -0.000348581 1.72225e-05)
(-0.000750317 -0.000388201 4.73741e-05)
(-0.000865146 -0.000416043 7.93102e-05)
(-0.000973885 -0.000433311 0.000109936)
(-0.00107265 -0.000442202 0.000136744)
(-0.00116114 -0.000446377 0.000158471)
(-0.00123883 -0.00044854 0.000174651)
(-0.00130718 -0.000451038 0.000185737)
(-0.00136751 -0.000454977 0.000192489)
(-0.0014218 -0.000460846 0.000195805)
(-0.00147161 -0.000468753 0.000196497)
(-0.0015179 -0.00047829 0.000195102)
(-0.00156158 -0.000489152 0.000191946)
(-0.00160307 -0.000501007 0.000187095)
(-0.00164261 -0.000513557 0.000180416)
(-0.00168046 -0.000526541 0.000171739)
(-0.00171667 -0.000539721 0.0001607)
(-0.00175173 -0.000552765 0.000147067)
(-0.00178543 -0.000565287 0.000130535)
(-0.00181747 -0.00057711 0.00011083)
(-0.00184528 -0.000587384 8.54494e-05)
(-0.00187109 -0.000595763 5.52247e-05)
(-0.00187791 -0.00060025 1.97716e-05)
(-8.41873e-05 6.42732e-06 4.15254e-05)
(-0.000136846 -1.32736e-05 -3.20613e-05)
(-0.000159445 -3.11297e-05 -4.32326e-05)
(-0.000172111 -5.29012e-05 -4.55372e-05)
(-0.000184129 -7.63211e-05 -4.3527e-05)
(-0.000206544 -0.000103291 -4.15546e-05)
(-0.000249711 -0.000138563 -4.05578e-05)
(-0.000321237 -0.000184854 -3.76634e-05)
(-0.000419757 -0.000238291 -2.88612e-05)
(-0.000532339 -0.000289379 -1.16159e-05)
(-0.000652166 -0.000332627 1.34168e-05)
(-0.000773079 -0.000364808 4.28237e-05)
(-0.000887821 -0.000385163 7.30197e-05)
(-0.000994507 -0.000396581 0.000101238)
(-0.00108974 -0.000401542 0.000125376)
(-0.0011741 -0.00040356 0.000144624)
(-0.00124794 -0.000404965 0.000158904)
(-0.00131303 -0.000407374 0.000168781)
(-0.00137055 -0.00041133 0.000174913)
(-0.00142226 -0.000417169 0.000178094)
(-0.00146964 -0.000424727 0.000178916)
(-0.00151343 -0.000433675 0.000177702)
(-0.00155413 -0.000443695 0.000174546)
(-0.0015922 -0.000454504 0.000169341)
(-0.00162799 -0.000465792 0.000161964)
(-0.0016617 -0.000477355 0.000152053)
(-0.00169421 -0.000488813 0.000139456)
(-0.00172553 -0.000499877 0.000124031)
(-0.00175458 -0.000510208 0.000105546)
(-0.00178013 -0.0005194 8.13546e-05)
(-0.00180462 -0.00052668 5.28504e-05)
(-0.00180908 -0.000530793 1.9202e-05)
(-4.26879e-05 9.80748e-06 3.49377e-05)
(-8.53462e-05 -2.25264e-06 -2.26348e-05)
(-0.00010799 -1.44858e-05 -3.54705e-05)
(-0.000119721 -3.10333e-05 -3.99119e-05)
(-0.000128084 -4.83002e-05 -3.86003e-05)
(-0.00014754 -6.8679e-05 -3.76814e-05)
(-0.000182634 -9.51036e-05 -4.10215e-05)
(-0.000231407 -0.000128959 -4.58025e-05)
(-0.000309482 -0.000174783 -4.51903e-05)
(-0.000419072 -0.000227661 -3.55817e-05)
(-0.000542191 -0.000274992 -1.74874e-05)
(-0.000667186 -0.000311596 7.74781e-06)
(-0.000790072 -0.000337129 3.65122e-05)
(-0.000902769 -0.000351211 6.5113e-05)
(-0.00100531 -0.000357915 9.12437e-05)
(-0.00109571 -0.000360073 0.000113285)
(-0.00117508 -0.000360695 0.000130766)
(-0.00124413 -0.000361497 0.000143795)
(-0.00130498 -0.00036366 0.000152953)
(-0.00135913 -0.000367636 0.0001589)
(-0.00140748 -0.000373255 0.000162128)
(-0.00145115 -0.000380337 0.000163014)
(-0.00149077 -0.000388607 0.000161675)
(-0.00152688 -0.00039775 0.000158007)
(-0.0015601 -0.000407434 0.000151968)
(-0.00159064 -0.00041749 0.000143181)
(-0.00161987 -0.000427406 0.000131583)
(-0.00164768 -0.000436946 0.000117238)
(-0.00167395 -0.000446097 0.000100064)
(-0.00169598 -0.000454111 7.70383e-05)
(-0.00171914 -0.000460398 5.03847e-05)
(-0.00172088 -0.000464333 1.86526e-05)
(-1.24807e-05 9.97505e-06 2.69053e-05)
(-2.80162e-05 2.70986e-06 -1.27764e-05)
(-4.0026e-05 -3.69112e-06 -2.11318e-05)
(-4.93238e-05 -1.19458e-05 -2.43518e-05)
(-5.26766e-05 -1.83888e-05 -2.9519e-05)
(-4.37781e-05 -2.74855e-05 -2.65333e-05)
(-6.11085e-05 -4.83513e-05 -2.08968e-05)
(-0.000123574 -7.60478e-05 -2.42176e-05)
(-0.000211521 -0.000115334 -4.63791e-05)
(-0.000301846 -0.000162924 -5.19865e-05)
(-0.000419003 -0.000213381 -4.1967e-05)
(-0.000550895 -0.000256488 -2.33125e-05)
(-0.000675816 -0.000285924 1.75181e-06)
(-0.000796564 -0.000305125 2.95962e-05)
(-0.000905361 -0.000314394 5.67079e-05)
(-0.00100241 -0.000317832 8.11004e-05)
(-0.00108709 -0.000318264 0.000101547)
(-0.00116116 -0.000318192 0.000117839)
(-0.00122521 -0.000318795 0.000130113)
(-0.00128089 -0.000320869 0.000138886)
(-0.00132993 -0.00032466 0.00014467)
(-0.00137319 -0.000329996 0.000147791)
(-0.00141128 -0.000336625 0.000148365)
(-0.00144501 -0.000344257 0.000146296)
(-0.00147524 -0.000352506 0.000141647)
(-0.00150221 -0.00036127 0.000133994)
(-0.00152806 -0.00036987 0.000123401)
(-0.00155282 -0.000378268 0.000110223)
(-0.001575 -0.000386138 9.43502e-05)
(-0.00159414 -0.000393422 7.25539e-05)
(-0.00161561 -0.000398725 4.78623e-05)
(-0.00161411 -0.000402686 1.81467e-05)
(4.11902e-06 9.97208e-06 2.19085e-05)
(-2.36167e-06 3.05533e-06 -8.8582e-06)
(-8.19503e-06 3.37636e-07 -1.5447e-05)
(-1.89573e-05 -5.51734e-06 -2.83635e-05)
(-2.33683e-05 -1.53897e-05 -2.70814e-05)
(-3.32521e-05 -2.80536e-05 -3.03813e-05)
(-3.69243e-05 -3.31871e-05 -2.69334e-05)
(-3.29272e-05 -2.66792e-05 -1.9436e-05)
(-8.0511e-05 -6.01505e-05 -2.69711e-05)
(-0.000190891 -0.000104664 -3.92259e-05)
(-0.000300279 -0.000147793 -5.60548e-05)
(-0.00041869 -0.000195438 -4.87045e-05)
(-0.000555455 -0.000235589 -2.75539e-05)
(-0.000679268 -0.000258349 -3.36273e-06)
(-0.000794513 -0.000271834 2.33687e-05)
(-0.000896696 -0.000277322 4.91595e-05)
(-0.000986617 -0.000278481 7.20743e-05)
(-0.00106389 -0.000277736 9.12476e-05)
(-0.00113082 -0.000277219 0.000106585)
(-0.00118877 -0.000277952 0.000118342)
(-0.00123828 -0.000280167 0.000126778)
(-0.00128071 -0.000283939 0.000132218)
(-0.00131689 -0.000289138 0.000134783)
(-0.00134774 -0.000295449 0.000134336)
(-0.00137445 -0.000302418 0.000131095)
(-0.00139708 -0.000310069 0.000124528)
(-0.00141872 -0.000317383 0.000114855)
(-0.0014389 -0.000324511 0.000102794)
(-0.00145761 -0.000331483 8.83545e-05)
(-0.001472 -0.000337854 6.77446e-05)
(-0.00149199 -0.000342303 4.52129e-05)
(-0.00148683 -0.000346592 1.76737e-05)
(1.97489e-05 8.4588e-06 2.61441e-05)
(2.027e-05 7.75222e-06 -2.79973e-06)
(1.53906e-05 6.96198e-06 -1.17992e-05)
(9.98806e-06 1.18404e-07 -1.6268e-05)
(4.24103e-06 -5.4569e-06 -1.04982e-05)
(-6.2672e-06 -2.05259e-06 -1.02225e-05)
(-1.55627e-05 -2.1805e-06 -2.31618e-05)
(-2.35956e-05 -1.46888e-05 -2.96677e-05)
(-3.84084e-05 -3.27256e-05 -3.23714e-05)
(-6.2191e-05 -5.01509e-05 -2.76912e-05)
(-0.00017137 -8.84651e-05 -4.16339e-05)
(-0.000309723 -0.000129637 -5.82736e-05)
(-0.000415885 -0.000172185 -5.31692e-05)
(-0.000550303 -0.000209517 -3.18053e-05)
(-0.000670476 -0.000228101 -7.15349e-06)
(-0.000778001 -0.000237406 1.86052e-05)
(-0.000871754 -0.000240298 4.29857e-05)
(-0.000953704 -0.000240324 6.46611e-05)
(-0.00102317 -0.00023937 8.28093e-05)
(-0.00108162 -0.000238948 9.7325e-05)
(-0.00113103 -0.000239928 0.000108393)
(-0.00117234 -0.000242475 0.000116191)
(-0.00120605 -0.000246491 0.000120764)
(-0.00123351 -0.000251715 0.000121928)
(-0.0012563 -0.000257591 0.000120115)
(-0.00127426 -0.000264416 0.00011461)
(-0.00129194 -0.00027067 0.000105838)
(-0.00130854 -0.000276957 9.50293e-05)
(-0.00132228 -0.000282848 8.2015e-05)
(-0.00133341 -0.000288903 6.27095e-05)
(-0.00135147 -0.000292448 4.25019e-05)
(-0.00134211 -0.000297394 1.72756e-05)
(3.46482e-05 1.51437e-05 4.23914e-05)
(4.39471e-05 1.21887e-05 -8.40762e-06)
(4.54229e-05 7.20676e-06 -1.37562e-05)
(4.41229e-05 1.15326e-07 -1.57366e-05)
(3.77617e-05 -5.72486e-06 -1.6337e-05)
(2.52503e-05 -1.18281e-05 -1.69437e-05)
(1.26362e-05 -1.23094e-05 -1.71095e-05)
(1.17732e-06 -9.92817e-06 -1.67177e-05)
(-1.62096e-05 -8.47279e-06 -2.80933e-05)
(-3.25421e-05 -3.19347e-05 -4.70693e-05)
(-4.21787e-05 -2.6773e-05 -2.08149e-05)
(-0.000168516 -8.24316e-05 -4.02558e-05)
(-0.000330298 -0.000119283 -5.26742e-05)
(-0.000420187 -0.00015443 -5.68016e-05)
(-0.000540055 -0.000184237 -3.37061e-05)
(-0.000650623 -0.000198126 -8.89079e-06)
(-0.000748551 -0.000204257 1.56499e-05)
(-0.00083154 -0.000205438 3.88171e-05)
(-0.000902563 -0.000204865 5.92466e-05)
(-0.000962677 -0.000204355 7.63771e-05)
(-0.00101166 -0.000204645 8.99488e-05)
(-0.00105097 -0.000206272 0.000100006)
(-0.00108179 -0.000209453 0.000106554)
(-0.00110532 -0.000213837 0.000109249)
(-0.00112382 -0.000218793 0.000108854)
(-0.00113627 -0.000224986 0.000104292)
(-0.00114914 -0.000230076 9.62591e-05)
(-0.00116052 -0.000235289 8.66542e-05)
(-0.00117016 -0.000240339 7.52321e-05)
(-0.00117539 -0.000245696 5.718e-05)
(-0.00119212 -0.000248473 3.9608e-05)
(-0.00117792 -0.000254407 1.69223e-05)
(4.63389e-05 1.61817e-05 4.83476e-05)
(6.25233e-05 1.37182e-05 -8.19155e-06)
(6.84993e-05 9.93515e-06 -1.57358e-05)
(7.02394e-05 2.42421e-06 -1.98155e-05)
(6.79848e-05 -6.5318e-06 -2.13436e-05)
(6.25888e-05 -1.48447e-05 -2.09175e-05)
(5.35838e-05 -2.08585e-05 -1.83128e-05)
(3.96362e-05 -2.2088e-05 -1.17984e-05)
(1.3953e-05 -1.21335e-05 -1.10074e-05)
(-1.21436e-05 -1.75264e-06 -3.29324e-05)
(-3.2102e-05 -1.32871e-05 -4.25358e-05)
(-6.62416e-05 -4.16441e-05 -4.73823e-05)
(-0.00013618 -0.000107185 -3.91943e-05)
(-0.000289042 -0.000113183 -3.35778e-05)
(-0.000405512 -0.000131483 -4.89325e-05)
(-0.000516601 -0.00015787 -3.1795e-05)
(-0.000614222 -0.000168043 -8.66038e-06)
(-0.000700753 -0.00017256 1.48573e-05)
(-0.000772557 -0.000173401 3.66955e-05)
(-0.000830953 -0.000173096 5.57033e-05)
(-0.000878389 -0.000173228 7.14036e-05)
(-0.000915677 -0.000174534 8.35539e-05)
(-0.000942856 -0.000177233 9.19105e-05)
(-0.000962041 -0.000181035 9.59805e-05)
(-0.000975973 -0.000185152 9.69785e-05)
(-0.000982684 -0.000190965 9.32675e-05)
(-0.000991733 -0.000195032 8.59235e-05)
(-0.000999201 -0.000199475 7.77121e-05)
(-0.00100396 -0.000203426 6.79333e-05)
(-0.00100579 -0.000208684 5.13372e-05)
(-0.00102077 -0.000210609 3.66563e-05)
(-0.00100139 -0.000217863 1.6694e-05)
(5.37694e-05 1.47308e-05 4.83864e-05)
(7.45509e-05 1.21149e-05 -7.18368e-06)
(8.4028e-05 8.42709e-06 -1.55767e-05)
(8.91272e-05 9.31014e-07 -2.06915e-05)