/*--------------------------------*- C++ -*----------------------------------*\
  =========                 |
  \\      /  F ield         | OpenFOAM: The Open Source CFD Toolbox
   \\    /   O peration     | Website:  https://openfoam.org
    \\  /    A nd           | Version:  6
     \\/     M anipulation  |
\*---------------------------------------------------------------------------*/
FoamFile
{
    version     2.0;
    format      ascii;
    class       volScalarField;
    location    "47";
    object      omega;
}
// * * * * * * * * * * * * * * * * * * * * * * * * * * * * * * * * * * * * * //

dimensions      [0 0 -1 0 0 0 0];

internalField   nonuniform List<scalar> 
380496
(
843.917
843.917
843.917
843.917
843.917
843.917
843.917
843.917
843.917
843.917
843.917
843.917
843.917
843.917
843.917
843.917
843.917
843.917
843.917
843.917
843.917
843.917
843.917
843.917
843.917
843.917
843.917
843.917
843.917
843.917
843.917
843.917
843.917
843.917
843.917
843.917
843.917
843.917
843.917
843.917
843.917
843.917
843.917
843.917
843.917
843.917
843.917
843.917
843.917
843.917
843.917
843.917
843.917
843.917
843.917
843.917
843.917
843.917
843.917
843.917
843.917
843.917
843.917
843.917
843.917
843.917
843.917
843.917
843.917
843.917
843.917
843.917
843.917
843.917
843.917
843.917
843.917
843.917
843.917
843.917
843.917
843.917
843.917
843.917
843.917
843.917
843.917
843.917
843.917
843.917
843.917
843.917
843.917
843.917
843.917
843.917
843.917
843.917
843.917
843.917
843.917
843.917
843.917
843.917
843.917
843.917
843.917
843.917
843.917
843.917
843.917
843.917
843.917
843.917
843.917
843.917
843.917
843.917
843.917
843.917
843.917
843.917
843.917
843.917
843.917
843.917
843.917
843.917
843.917
843.917
843.917
843.917
843.917
843.917
843.917
843.917
843.917
843.917
843.917
843.917
843.917
843.917
843.917
843.917
843.917
843.917
843.917
843.917
843.917
843.917
843.917
843.917
843.917
843.917
843.917
843.917
843.917
843.917
843.917
843.917
843.917
843.917
843.917
843.917
843.917
843.917
843.917
843.917
843.917
843.917
843.917
843.917
843.917
843.917
843.917
843.917
843.917
843.917
843.917
843.917
843.917
843.917
843.917
843.917
843.917
843.917
843.917
843.917
843.917
843.917
843.917
843.917
843.917
843.917
843.917
843.917
843.917
843.917
843.917
843.917
843.917
843.917
843.917
843.917
843.917
843.917
843.917
843.917
843.917
843.917
843.917
843.917
843.917
843.917
843.917
843.917
843.917
843.917
843.917
843.917
843.917
843.917
843.917
843.917
843.917
843.917
843.917
843.917
843.917
843.917
843.917
843.917
843.917
843.917
843.917
843.917
843.917
843.917
843.917
843.917
843.917
843.917
843.917
843.917
843.917
843.917
843.917
843.917
843.917
843.917
843.917
843.917
843.917
843.917
843.917
843.917
843.917
843.917
843.917
843.917
843.917
843.917
843.917
843.917
843.917
843.917
843.917
843.917
843.917
843.917
843.917
843.917
843.917
843.917
843.917
843.917
843.917
843.917
843.917
843.917
843.917
843.917
843.917
843.917
843.917
843.917
843.917
843.917
843.917
843.917
843.917
843.917
843.917
843.917
843.917
843.917
843.917
843.917
843.917
843.917
843.917
843.917
843.917
843.917
843.917
843.917
843.917
843.917
843.917
843.917
843.917
843.917
843.917
843.917
843.917
843.917
843.917
843.917
843.917
843.917
843.917
843.917
843.917
843.917
843.917
843.917
843.917
843.917
843.917
843.917
843.917
843.917
843.917
843.917
843.917
843.917
843.917
843.917
843.917
843.917
843.917
843.917
843.917
843.917
843.917
843.917
843.917
843.917
843.917
843.917
843.917
843.917
843.917
843.917
843.917
843.917
843.917
843.917
843.917
843.917
843.917
843.917
843.917
843.917
843.917
843.917
843.917
843.917
843.917
843.917
843.917
843.917
843.917
843.917
843.917
843.917
843.917
843.917
843.917
843.917
843.917
843.917
843.917
843.917
843.917
843.917
843.917
843.917
843.917
843.917
843.917
843.917
843.917
843.917
843.917
843.917
843.917
843.917
843.917
843.917
843.917
843.917
843.917
843.917
843.917
843.917
843.917
843.917
843.917
843.917
843.917
843.917
843.917
843.917
843.917
843.917
843.917
843.917
843.917
843.917
843.917
843.917
843.917
843.917
843.917
843.917
843.917
843.917
843.917
843.917
843.917
843.917
843.917
843.917
843.917
843.917
843.917
843.917
843.917
843.917
843.917
843.917
843.917
843.917
843.917
843.917
843.917
843.917
843.917
843.917
843.917
843.917
843.917
843.917
843.917
843.917
843.917
843.917
843.917
843.917
843.917
843.917
843.917
843.917
843.917
843.917
843.917
843.917
843.917
843.917
843.917
843.917
843.917
843.917
843.917
843.917
843.917
843.917
843.917
843.917
843.917
843.917
843.917
843.917
843.917
843.917
843.917
843.917
843.917
843.917
843.917
843.917
843.917
843.917
843.917
843.917
843.917
843.917
843.917
843.917
843.917
843.917
843.917
843.917
843.917
843.917
843.917
843.917
843.917
843.917
843.917
843.917
843.917
843.917
843.917
843.917
843.917
843.917
843.917
843.917
843.917
843.917
843.917
843.917
843.917
843.917
843.917
843.917
843.917
843.917
843.917
843.917
843.917
843.917
843.917
843.917
843.917
843.917
843.917
843.917
843.917
843.917
843.917
843.917
843.917
843.917
843.917
843.917
843.917
843.917
843.917
843.917
843.917
843.917
843.917
843.917
843.917
843.917
843.917
843.917
843.917
843.917
843.917
843.917
843.917
843.917
843.917
843.917
843.917
843.917
843.917
843.917
843.917
843.917
843.917
843.917
843.917
843.917
843.917
843.917
843.917
843.917
843.917
843.917
843.917
843.917
843.917
843.917
843.917
843.917
843.917
843.917
843.917
843.917
843.917
843.917
843.917
843.917
843.917
843.917
843.917
843.917
843.917
843.917
843.917
843.917
843.917
843.917
843.917
843.917
843.917
843.917
843.917
843.917
843.917
843.917
843.917
843.917
843.917
843.917
843.917
843.917
843.917
843.917
843.917
843.917
843.917
843.917
843.917
843.917
843.917
843.917
843.917
843.917
843.917
843.917
843.917
843.917
843.917
843.917
843.917
843.917
843.917
843.917
843.917
843.917
843.917
843.917
843.917
843.917
843.917
843.917
843.917
843.917
843.917
843.917
843.917
843.917
843.917
843.917
843.917
843.917
843.917
843.917
843.917
843.917
843.917
843.917
843.917
843.917
843.917
843.917
843.917
843.917
843.917
843.917
843.917
843.917
843.917
843.917
843.917
843.917
843.917
843.917
843.917
843.917
843.917
843.917
843.917
843.917
843.917
843.917
843.917
843.917
843.917
843.917
843.917
843.917
843.917
843.917
423.923
423.923
423.923
423.923
423.923
423.923
423.923
423.923
423.923
423.923
423.923
423.923
423.923
423.923
423.923
423.923
423.923
423.923
423.923
423.923
423.923
423.923
423.923
423.923
423.923
423.923
423.923
423.923
423.923
423.923
423.923
423.923
423.923
423.923
423.923
281.629
267.587
268.726
269.8
269.887
269.718
269.596
269.515
269.471
269.433
269.414
269.394
269.386
269.377
269.376
269.373
269.375
269.377
269.379
269.384
269.387
269.395
269.398
269.411
269.414
269.434
269.436
269.465
269.467
269.506
269.503
269.556
269.541
269.619
269.561
281.467
267.572
268.647
269.675
269.734
269.561
269.43
269.352
269.301
269.271
269.247
269.236
269.224
269.226
269.221
269.231
269.228
269.243
269.242
269.262
269.262
269.287
269.287
269.318
269.32
269.359
269.362
269.409
269.412
269.47
269.468
269.539
269.517
269.623
269.496
281.133
267.397
268.472
269.465
269.497
269.316
269.18
269.103
269.052
269.026
269.003
268.999
268.991
269.001
269
269.019
269.023
269.049
269.055
269.088
269.096
269.135
269.146
269.193
269.206
269.262
269.279
269.344
269.363
269.44
269.457
269.548
269.547
269.68
269.576
280.565
267.018
268.173
269.138
269.136
268.94
268.8
268.724
268.676
268.655
268.639
268.642
268.642
268.66
268.669
268.696
268.71
268.746
268.764
268.807
268.828
268.879
268.903
268.963
268.991
269.062
269.094
269.177
269.211
269.307
269.338
269.452
269.459
269.626
269.517
280.148
266.781
267.824
268.72
268.697
268.495
268.354
268.278
268.231
268.213
268.201
268.21
268.216
268.241
268.257
268.294
268.316
268.362
268.39
268.444
268.477
268.541
268.578
268.654
268.696
268.784
268.832
268.932
268.984
269.099
269.15
269.286
269.313
269.508
269.411
279.34
266.189
267.268
268.116
268.06
267.846
267.705
267.633
267.595
267.585
267.584
267.603
267.62
267.656
267.685
267.732
267.768
267.826
267.867
267.935
267.982
268.061
268.114
268.205
268.264
268.369
268.435
268.554
268.624
268.76
268.829
268.988
269.031
269.257
269.164
278.499
265.571
266.585
267.362
267.277
267.056
266.915
266.847
266.816
266.814
266.822
266.85
266.879
266.925
266.965
267.024
267.072
267.142
267.197
267.278
267.34
267.434
267.503
267.61
267.687
267.81
267.893
268.032
268.121
268.277
268.366
268.548
268.609
268.865
268.779
277.444
264.751
265.699
266.399
266.283
266.056
265.92
265.859
265.837
265.845
265.865
265.904
265.945
266.002
266.055
266.126
266.187
266.27
266.339
266.435
266.511
266.62
266.705
266.83
266.923
267.064
267.165
267.323
267.43
267.607
267.714
267.919
267.997
268.282
268.199
276.19
263.732
264.62
265.239
265.091
264.86
264.731
264.682
264.674
264.696
264.731
264.784
264.839
264.91
264.977
265.061
265.137
265.233
265.317
265.426
265.519
265.643
265.744
265.885
265.996
266.154
266.273
266.449
266.574
266.771
266.896
267.121
267.215
267.526
267.448
274.956
262.703
263.44
263.969
263.8
263.569
263.448
263.407
263.41
263.443
263.489
263.552
263.619
263.7
263.778
263.873
263.96
264.068
264.165
264.286
264.392
264.53
264.646
264.801
264.927
265.1
265.235
265.428
265.569
265.783
265.923
266.167
266.275
266.61
266.533
273.278
261.258
261.943
262.392
262.193
261.967
261.864
261.844
261.869
261.922
261.989
262.069
262.154
262.25
262.344
262.453
262.556
262.677
262.789
262.925
263.046
263.199
263.331
263.501
263.643
263.833
263.984
264.193
264.351
264.581
264.738
264.999
265.121
265.478
265.402
271.661
259.849
260.301
260.644
260.428
260.211
260.121
260.113
260.151
260.215
260.294
260.385
260.481
260.587
260.693
260.812
260.927
261.06
261.185
261.333
261.468
261.634
261.781
261.965
262.123
262.327
262.494
262.719
262.892
263.139
263.31
263.588
263.723
264.1
264.025
269.373
257.802
258.173
258.437
258.202
258.004
257.947
257.973
258.042
258.134
258.238
258.351
258.467
258.591
258.716
258.85
258.982
259.129
259.271
259.434
259.586
259.767
259.931
260.131
260.306
260.526
260.711
260.952
261.142
261.404
261.591
261.886
262.034
262.431
262.357
267.103
255.733
255.81
255.966
255.723
255.547
255.513
255.56
255.649
255.759
255.88
256.008
256.14
256.277
256.415
256.562
256.708
256.868
257.025
257.2
257.369
257.563
257.744
257.959
258.151
258.386
258.587
258.844
259.05
259.328
259.531
259.841
260.002
260.419
260.343
264.033
252.895
252.799
252.877
252.636
252.502
252.517
252.61
252.736
252.88
253.03
253.183
253.337
253.494
253.652
253.816
253.981
254.156
254.331
254.522
254.709
254.919
255.119
255.349
255.56
255.811
256.031
256.303
256.527
256.821
257.04
257.366
257.542
257.977
257.901
260.551
249.61
249.223
249.226
249.001
248.918
248.982
249.119
249.283
249.461
249.637
249.815
249.989
250.166
250.341
250.522
250.703
250.894
251.085
251.291
251.495
251.719
251.937
252.182
252.411
252.677
252.916
253.203
253.445
253.753
253.99
254.329
254.52
254.971
254.894
256.377
245.603
244.837
244.758
244.561
244.547
244.668
244.856
245.054
245.264
245.462
245.663
245.852
246.046
246.233
246.429
246.621
246.826
247.03
247.249
247.468
247.705
247.939
248.196
248.444
248.723
248.98
249.281
249.541
249.864
250.119
250.472
250.683
251.147
251.079
249.996
239.619
238.803
238.773
238.638
238.72
238.927
239.19
239.442
239.701
239.929
240.161
240.366
240.582
240.779
240.991
241.192
241.411
241.624
241.859
242.089
242.342
242.591
242.867
243.132
243.431
243.709
244.032
244.317
244.667
244.944
245.325
245.56
246.041
246.008
240.797
231.453
230.464
230.604
230.642
230.858
231.137
231.433
231.693
231.948
232.163
232.384
232.576
232.786
232.974
233.189
233.386
233.615
233.829
234.076
234.311
234.579
234.837
235.127
235.416
235.749
236.07
236.428
236.763
237.141
237.475
237.875
238.176
238.663
238.74
214.288
212.11
212.345
213.238
213.839
214.541
215.23
215.869
216.434
216.965
217.44
217.907
218.333
218.766
219.168
219.587
219.978
220.394
220.785
221.204
221.6
222.028
222.433
222.869
223.283
223.725
224.148
224.591
225.019
225.456
225.884
226.304
226.728
227.078
227.682
9.02059
7.66004
7.58609
7.55131
7.60181
7.67154
7.761
7.85048
7.94916
8.03886
8.13303
8.21553
8.3022
8.37707
8.45759
8.52673
8.60348
8.66883
8.74402
8.80683
8.88232
8.94294
9.02045
9.07803
9.15938
9.21167
9.29951
9.34242
9.4408
9.4674
9.58287
9.58033
9.72462
9.66272
9.85686
135.248
128.88
128.552
129.041
129.23
129.215
129.152
129.093
129.047
129.01
128.982
128.961
128.945
128.934
128.926
128.921
128.918
128.916
128.917
128.918
128.922
128.926
128.932
128.939
128.95
128.96
128.978
128.99
129.016
129.032
129.07
129.089
129.139
129.167
129.231
135.076
128.68
128.313
128.778
128.954
128.933
128.867
128.805
128.757
128.721
128.693
128.674
128.66
128.651
128.646
128.644
128.644
128.646
128.651
128.656
128.664
128.672
128.685
128.695
128.713
128.727
128.752
128.768
128.803
128.822
128.866
128.892
128.937
128.988
128.989
134.794
128.387
128.005
128.455
128.622
128.596
128.526
128.464
128.416
128.381
128.355
128.338
128.328
128.323
128.322
128.324
128.33
128.337
128.348
128.359
128.375
128.389
128.41
128.428
128.455
128.477
128.511
128.537
128.581
128.611
128.665
128.703
128.757
128.826
128.836
134.361
127.976
127.613
128.059
128.215
128.181
128.108
128.045
127.998
127.965
127.943
127.93
127.924
127.924
127.928
127.936
127.948
127.962
127.978
127.996
128.018
128.04
128.068
128.094
128.128
128.158
128.2
128.234
128.286
128.324
128.386
128.43
128.492
128.566
128.582
134.043
127.651
127.238
127.648
127.787
127.745
127.668
127.602
127.554
127.521
127.5
127.489
127.485
127.488
127.496
127.508
127.524
127.542
127.564
127.588
127.616
127.644
127.678
127.71
127.751
127.789
127.838
127.88
127.94
127.987
128.056
128.111
128.178
128.267
128.284
133.489
127.123
126.72
127.117
127.24
127.189
127.108
127.043
126.996
126.967
126.95
126.944
126.946
126.955
126.969
126.987
127.009
127.034
127.062
127.093
127.127
127.163
127.204
127.244
127.292
127.338
127.395
127.445
127.512
127.567
127.644
127.707
127.779
127.877
127.896
132.924
126.586
126.16
126.523
126.627
126.565
126.479
126.411
126.366
126.339
126.325
126.324
126.33
126.344
126.362
126.386
126.414
126.445
126.479
126.516
126.557
126.599
126.646
126.694
126.749
126.802
126.866
126.924
126.999
127.062
127.145
127.217
127.295
127.404
127.424
132.248
125.943
125.496
125.825
125.905
125.832
125.741
125.673
125.629
125.606
125.596
125.6
125.611
125.63
125.655
125.684
125.717
125.755
125.795
125.838
125.885
125.934
125.988
126.043
126.105
126.165
126.236
126.302
126.382
126.453
126.543
126.623
126.705
126.825
126.843
131.463
125.21
124.747
125.039
125.094
125.007
124.913
124.845
124.805
124.786
124.783
124.793
124.811
124.836
124.867
124.903
124.943
124.986
125.033
125.083
125.136
125.192
125.252
125.314
125.382
125.45
125.527
125.6
125.688
125.766
125.861
125.95
126.035
126.166
126.182
130.701
124.497
123.978
124.219
124.246
124.148
124.049
123.982
123.944
123.929
123.93
123.944
123.967
123.997
124.033
124.074
124.119
124.168
124.219
124.275
124.333
124.395
124.461
124.528
124.603
124.676
124.76
124.839
124.932
125.017
125.117
125.213
125.301
125.441
125.454
129.711
123.57
123.042
123.246
123.245
123.134
123.033
122.97
122.939
122.932
122.942
122.964
122.995
123.034
123.077
123.125
123.176
123.232
123.29
123.352
123.417
123.485
123.557
123.632
123.712
123.793
123.883
123.969
124.068
124.159
124.265
124.367
124.459
124.608
124.619
128.745
122.678
122.06
122.191
122.156
122.032
121.93
121.868
121.84
121.838
121.853
121.881
121.918
121.961
122.01
122.063
122.12
122.18
122.244
122.311
122.382
122.456
122.534
122.614
122.701
122.788
122.883
122.976
123.081
123.179
123.289
123.399
123.493
123.652
123.659
127.449
121.461
120.819
120.907
120.841
120.707
120.607
120.554
120.538
120.548
120.575
120.614
120.66
120.713
120.77
120.831
120.896
120.964
121.034
121.109
121.186
121.267
121.352
121.44
121.534
121.628
121.73
121.83
121.941
122.046
122.162
122.279
122.376
122.545
122.548
126.136
120.248
119.482
119.481
119.376
119.23
119.131
119.084
119.077
119.095
119.13
119.177
119.231
119.292
119.356
119.424
119.495
119.569
119.646
119.727
119.811
119.899
119.991
120.086
120.186
120.287
120.396
120.503
120.621
120.733
120.855
120.979
121.08
121.259
121.257
124.43
118.649
117.808
117.743
117.602
117.45
117.36
117.329
117.337
117.371
117.421
117.48
117.546
117.617
117.691
117.768
117.848
117.931
118.016
118.105
118.196
118.292
118.392
118.494
118.602
118.711
118.828
118.942
119.067
119.187
119.315
119.447
119.552
119.742
119.735
122.481
116.821
115.839
115.688
115.51
115.354
115.275
115.259
115.284
115.335
115.399
115.472
115.55
115.631
115.715
115.801
115.889
115.979
116.072
116.168
116.268
116.371
116.478
116.588
116.703
116.82
116.944
117.066
117.198
117.325
117.461
117.6
117.709
117.91
117.896
120.129
114.623
113.44
113.172
112.946
112.79
112.728
112.733
112.776
112.843
112.92
113.004
113.09
113.18
113.27
113.362
113.456
113.552
113.651
113.753
113.859
113.968
114.082
114.199
114.322
114.446
114.577
114.708
114.847
114.983
115.126
115.274
115.391
115.604
115.59
116.507
111.183
109.999
109.744
109.516
109.377
109.337
109.367
109.427
109.511
109.598
109.693
109.785
109.882
109.977
110.076
110.174
110.278
110.383
110.493
110.606
110.725
110.847
110.975
111.109
111.245
111.389
111.534
111.688
111.838
111.998
112.159
112.296
112.516
112.523
111.045
106.316
104.826
104.479
104.234
104.119
104.102
104.154
104.23
104.332
104.433
104.547
104.655
104.776
104.89
105.016
105.139
105.272
105.404
105.546
105.687
105.839
105.992
106.158
106.326
106.495
106.668
106.841
107.023
107.201
107.387
107.574
107.745
107.979
108.056
95.734
95.7748
94.6481
94.3435
94.1208
94.0794
94.1783
94.3598
94.576
94.8172
95.0596
95.3102
95.5537
95.8022
96.0421
96.2867
96.5233
96.7652
97.0004
97.2415
97.4772
97.719
97.9567
98.2001
98.4404
98.6854
98.9278
99.1737
99.4168
99.6614
99.9035
100.139
100.391
100.578
100.924
11.4411
9.87196
9.83538
9.87756
9.99098
10.1113
10.244
10.3682
10.4981
10.6133
10.7314
10.8335
10.9395
11.0302
11.127
11.2093
11.3003
11.3772
11.4655
11.5386
11.6265
11.6966
11.7863
11.8526
11.9463
12.0064
12.1072
12.1569
12.2691
12.3011
12.4317
12.4335
12.5936
12.5408
12.741
79.7825
77.2368
76.6749
76.7655
76.8873
76.9258
76.9131
76.8845
76.8527
76.8256
76.8015
76.7829
76.7671
76.7556
76.746
76.7396
76.7346
76.7314
76.7298
76.7285
76.7299
76.7297
76.7342
76.7345
76.7428
76.7431
76.7568
76.756
76.7774
76.7745
76.8065
76.8008
76.846
76.8368
76.9054
79.5949
77.0494
76.4713
76.5468
76.6603
76.6928
76.677
76.6449
76.6121
76.5829
76.5596
76.5402
76.5266
76.5148
76.5085
76.5018
76.5009
76.4974
76.5006
76.4989
76.5057
76.505
76.5156
76.5153
76.5305
76.5302
76.5511
76.5502
76.5785
76.5767
76.6125
76.6128
76.6491
76.6628
76.6858
79.3539
76.8073
76.2195
76.2859
76.3935
76.4218
76.4034
76.3693
76.3357
76.3059
76.2832
76.2642
76.2521
76.2415
76.2377
76.2328
76.2351
76.2337
76.2408
76.2417
76.253
76.2553
76.2708
76.2739
76.2942
76.2979
76.324
76.3281
76.361
76.3659
76.4054
76.4148
76.4537
76.4802
76.506
79.0383
76.4937
75.9101
75.9758
76.0797
76.1036
76.0817
76.0455
76.0111
75.9814
75.9596
75.9422
75.9322
75.924
75.9228
75.921
75.9263
75.9286
75.9389
75.9437
75.9585
75.9648
75.9843
75.9915
76.0162
76.0239
76.0551
76.0627
76.1017
76.1088
76.1558
76.165
76.2132
76.2353
76.273
78.7524
76.2186
75.6176
75.6638
75.7545
75.7702
75.743
75.703
75.6662
75.6351
75.6127
75.5954
75.5861
75.5791
75.5794
75.5794
75.5867
75.5912
75.6042
75.6116
75.6293
75.6386
75.6613
75.6719
75.7001
75.7115
75.7462
75.7581
75.8006
75.8127
75.8627
75.8782
75.9282
75.9588
75.997
78.3534
75.8249
75.2282
75.2704
75.3538
75.3628
75.3308
75.2883
75.2504
75.2196
75.1983
75.1829
75.1757
75.1714
75.1745
75.1777
75.1882
75.1962
75.2125
75.2236
75.2449
75.2581
75.2845
75.2991
75.3312
75.3466
75.3856
75.4012
75.4482
75.4638
75.5185
75.5369
75.5916
75.6242
75.667
77.9278
75.4149
74.813
74.8408
74.9108
74.91
74.8714
74.8249
74.7847
74.7534
74.7324
74.7183
74.7127
74.7106
74.7159
74.7219
74.735
74.746
74.7652
74.7795
74.8039
74.8204
74.8501
74.8682
74.9038
74.9229
74.9655
74.9849
75.0355
75.055
75.1133
75.1359
75.1934
75.2307
75.2758
77.4331
74.9372
74.3324
74.3455
74.4005
74.3887
74.3427
74.2921
74.25
74.2184
74.198
74.1855
74.1818
74.1823
74.1902
74.1991
74.215
74.2293
74.2514
74.2691
74.2966
74.3165
74.3495
74.3711
74.4102
74.4329
74.4791
74.5021
74.5564
74.5795
74.6411
74.6674
74.7275
74.7688
74.8151
76.8734
74.403
73.8002
73.7991
73.8376
73.813
73.759
73.7043
73.6607
73.6296
73.6107
73.6006
73.5996
73.6032
73.614
73.6262
73.6452
73.6628
73.6881
73.7091
73.7399
73.7632
73.7995
73.8246
73.867
73.8932
73.9429
73.9695
74.0272
74.0538
74.1186
74.1487
74.211
74.2567
74.3039
76.3103
73.875
73.2604
73.2341
73.2515
73.213
73.151
73.0921
73.0467
73.0155
72.9976
72.9892
72.9902
72.9962
73.0095
73.0244
73.046
73.0664
73.0942
73.1182
73.1516
73.178
73.2171
73.2452
73.2907
73.32
73.3728
73.4025
73.4634
73.4931
73.5608
73.5941
73.6584
73.7079
73.7555
75.6268
73.2236
72.6157
72.5761
72.5753
72.5224
72.4521
72.3898
72.3441
72.3147
72.2995
72.2946
72.2991
72.309
72.3258
72.3445
72.3694
72.3935
72.4245
72.452
72.4886
72.5184
72.5607
72.5924
72.6411
72.6739
72.73
72.7631
72.8273
72.8604
72.9311
72.9678
73.0342
73.0877
73.1357
74.9226
72.5731
71.9411
71.8629
71.8323
71.7614
71.6818
71.6153
71.5686
71.54
71.5267
71.5243
71.5315
71.5445
71.5641
71.5859
71.6136
71.6407
71.6746
71.7052
71.7446
71.7778
71.823
71.858
71.9099
71.9461
72.0055
72.0419
72.1095
72.1458
72.2196
72.2597
72.3281
72.3858
72.4337
74.0386
71.7352
71.1065
71.0098
70.9563
70.8688
70.781
70.7125
70.6672
70.6422
70.6331
70.6356
70.6474
70.6651
70.689
70.7153
70.7469
70.7781
70.8156
70.8502
70.8932
70.9303
70.979
71.018
71.0735
71.1136
71.1767
71.217
71.2882
71.3282
71.4055
71.4492
71.52
71.5822
71.6302
73.1014
70.8717
70.2047
70.0567
69.965
69.8559
69.7585
69.6871
69.6427
69.6206
69.6154
69.6222
69.6383
69.6603
69.6883
69.7187
69.7539
69.7893
69.8302
69.8689
69.9152
69.9564
70.0088
70.0518
70.111
70.1552
70.2221
70.2663
70.3415
70.3852
70.4661
70.5137
70.5869
70.6539
70.7014
71.9314
69.7761
69.0917
68.908
68.7829
68.6539
68.5491
68.4775
68.4369
68.4201
68.421
68.4338
68.4556
68.4832
68.5161
68.5515
68.5912
68.6312
68.6761
68.7194
68.7695
68.8153
68.8715
68.9191
68.9822
69.0309
69.1018
69.1503
69.2296
69.2773
69.3622
69.4138
69.49
69.5623
69.6099
70.5747
68.5125
67.7795
67.54
67.3727
67.221
67.1083
67.0366
67.0001
66.9892
66.9965
67.0156
67.0435
67.0766
67.1145
67.1547
67.1985
67.2429
67.2914
67.3389
67.3924
67.4426
67.502
67.5542
67.6207
67.6739
67.7485
67.8014
67.8846
67.9363
68.0255
68.0808
68.1606
68.2374
68.2852
68.9302
66.9877
66.1761
65.8543
65.6292
65.4502
65.3299
65.259
65.2271
65.221
65.2333
65.2561
65.2874
65.3228
65.363
65.4049
65.4505
65.4968
65.5472
65.5973
65.6531
65.7066
65.7688
65.825
65.8947
65.9524
66.0308
66.0883
66.1761
66.2327
66.327
66.3874
66.4727
66.5563
66.6088
66.5749
64.6698
63.8509
63.5244
63.2798
63.0859
62.9579
62.8823
62.8472
62.8374
62.8468
62.8659
62.8949
62.9276
62.9674
63.0088
63.0562
63.1043
63.1584
63.2123
63.2731
63.3323
63.4006
63.4643
63.5413
63.6079
63.6951
63.7614
63.8601
63.923
64.0312
64.0944
64.1965
64.2805
64.3499
63.0738
61.5356
60.4575
59.948
59.5916
59.3403
59.1845
59.0969
59.0599
59.0544
59.0737
59.106
59.1526
59.2045
59.2669
59.331
59.4042
59.4772
59.5589
59.6391
59.728
59.8145
59.9106
60.0056
60.1116
60.2058
60.312
60.4031
60.516
60.6052
60.7265
60.814
60.9369
61.0322
61.1456
55.4832
57.2181
56.146
55.3532
54.7477
54.3304
54.0864
53.9571
53.914
53.9184
53.9639
54.0259
54.1111
54.1996
54.3044
54.4058
54.5209
54.6291
54.7504
54.8629
54.9884
55.1043
55.2329
55.352
55.4826
55.6053
55.7369
55.8634
55.9951
56.1237
56.2572
56.3788
56.5299
56.6171
56.8305
13.0126
11.4032
11.4143
11.5408
11.7223
11.8923
12.0631
12.214
12.3654
12.4956
12.6269
12.7379
12.8525
12.9486
13.0514
13.137
13.2325
13.3112
13.4029
13.477
13.5677
13.6382
13.7303
13.7966
13.8925
13.9526
14.0554
14.1053
14.2192
14.2524
14.3836
14.3898
14.5468
14.5092
14.695
52.8624
51.8613
51.4551
51.3874
51.4228
51.4548
51.4614
51.4528
51.4354
51.4181
51.4001
51.3855
51.3717
51.3613
51.352
51.345
51.3394
51.3348
51.3322
51.329
51.3291
51.3262
51.329
51.3255
51.3317
51.3265
51.3374
51.3291
51.3465
51.3336
51.36
51.341
51.3794
51.3511
51.411
52.6911
51.7002
51.2914
51.2161
51.2467
51.2737
51.2779
51.2656
51.2475
51.2273
51.2101
51.1934
51.1817
51.1696
51.1633
51.1547
51.1528
51.1464
51.1481
51.1428
51.1477
51.1425
51.1507
51.1448
51.1568
51.1493
51.1661
51.1563
51.1786
51.1665
51.1939
51.1815
51.2103
51.2008
51.2304
52.4925
51.5066
51.0949
51.0147
51.0417
51.0653
51.0673
51.0527
51.0334
51.0118
50.9944
50.977
50.9658
50.9534
50.9483
50.9398
50.9397
50.9337
50.9377
50.9329
50.9406
50.9362
50.9474
50.9426
50.9575
50.9518
50.971
50.9641
50.9879
50.9803
51.008
51.0024
51.0303
51.0304
51.0592
52.2549
51.2697
50.8597
50.7795
50.8054
50.8268
50.8264
50.8096
50.7888
50.7662
50.7484
50.7311
50.7204
50.7089
50.7049
50.6978
50.6991
50.6948
50.7006
50.6978
50.7075
50.7051
50.7186
50.7158
50.7335
50.7295
50.7523
50.7464
50.7751
50.767
50.8013
50.7927
50.8296
50.8227
50.8635
52.0123
51.0416
50.6293
50.541
50.5587
50.5736
50.5682
50.5476
50.524
50.4994
50.4803
50.4622
50.4513
50.4398
50.4362
50.4297
50.4319
50.4285
50.4356
50.4339
50.445
50.444
50.4591
50.4578
50.4773
50.4752
50.4996
50.496
50.5261
50.521
50.5564
50.5517
50.5889
50.5875
50.6279
51.7112
50.7441
50.3357
50.2472
50.262
50.2729
50.2635
50.2399
50.2141
50.1883
50.1685
50.1504
50.1398
50.1293
50.1266
50.1214
50.125
50.1233
50.132
50.1322
50.1451
50.146
50.1632
50.1639
50.1857
50.1854
50.2125
50.2106
50.2437
50.2399
50.2788
50.2746
50.3159
50.3139
50.359
51.3808
50.4251
50.0188
49.9259
49.9336
49.9376
49.9223
49.8944
49.8654
49.8377
49.8167
49.7984
49.7878
49.7779
49.7759
49.7719
49.7766
49.7763
49.7862
49.788
49.8024
49.8049
49.8238
49.8261
49.8497
49.8511
49.8802
49.88
49.9153
49.9132
49.9543
49.952
49.9955
49.9953
50.0427
51.0012
50.0574
49.6553
49.5585
49.5584
49.5545
49.5325
49.4998
49.4673
49.4376
49.4155
49.3969
49.3865
49.3773
49.3762
49.3735
49.3794
49.3807
49.3921
49.3955
49.4116
49.4159
49.4365
49.4406
49.4662
49.4693
49.5006
49.5021
49.5397
49.5393
49.5827
49.582
49.6277
49.6288
49.6782
50.5803
49.6505
49.2558
49.1562
49.148
49.1352
49.1056
49.0676
49.0316
49.0001
48.977
48.9585
48.9485
48.9404
48.9403
48.9391
48.9463
48.9492
48.9621
48.9672
48.9849
48.9909
49.0132
49.019
49.0465
49.0514
49.0847
49.0879
49.1276
49.1288
49.1745
49.1754
49.223
49.2258
49.277
50.1472
49.2389
48.8475
48.7394
48.7189
48.6951
48.6571
48.6136
48.574
48.5407
48.5167
48.4983
48.4887
48.4815
48.4824
48.4825
48.491
48.4954
48.5097
48.5163
48.5355
48.543
48.5669
48.5744
48.6036
48.6101
48.6453
48.6501
48.6919
48.6946
48.7423
48.7448
48.7942
48.7984
48.8511
49.6402
48.7499
48.3699
48.2607
48.2315
48.1974
48.1509
48.1016
48.0585
48.0236
47.999
47.9812
47.9722
47.9665
47.9686
47.9705
47.9804
47.9866
48.0024
48.0109
48.0316
48.0409
48.0666
48.0758
48.1068
48.1151
48.1523
48.1588
48.2028
48.2072
48.257
48.261
48.3123
48.3182
48.3725
49.0984
48.2408
47.8608
47.736
47.6878
47.6382
47.5811
47.5255
47.4787
47.4424
47.4175
47.4004
47.3925
47.3883
47.3918
47.3955
47.4069
47.415
47.4323
47.4427
47.465
47.4763
47.5037
47.5148
47.5478
47.558
47.5973
47.6056
47.6519
47.6579
47.7101
47.7158
47.7691
47.7765
47.8324
48.4417
47.6141
47.2472
47.1196
47.0592
46.9962
46.9289
46.8669
46.8167
46.7793
46.7543
46.7383
46.7316
46.7293
46.7344
46.7402
46.7532
46.7635
46.7824
46.7951
46.8191
46.8326
46.8618
46.8752
46.9102
46.9225
46.9641
46.9744
47.0232
47.0311
47.0857
47.0932
47.1486
47.1579
47.2155
47.7235
46.9428
46.5717
46.4213
46.335
46.2519
46.1721
46.1033
46.05
46.012
45.9877
45.9734
45.9684
45.9686
45.9757
45.9841
45.999
46.0119
46.0327
46.0479
46.0738
46.0898
46.1211
46.137
46.1742
46.1889
46.233
46.2454
46.2968
46.3067
46.3641
46.3734
46.4312
46.4425
46.5017
46.8458
46.1182
45.7549
45.5917
45.4839
45.3817
45.2894
45.2135
45.1571
45.1184
45.0947
45.0819
45.0787
45.081
45.0898
45.1006
45.1172
45.1325
45.1548
45.1726
45.2
45.2187
45.2516
45.2701
45.3093
45.3264
45.3728
45.3875
45.4415
45.4533
45.5136
45.5246
45.5852
45.5983
45.66
45.8225
45.1595
44.7887
44.5981
44.4593
44.3329
44.226
44.142
44.0824
44.0428
44.02
44.0087
44.0071
44.0114
44.0218
44.0345
44.0523
44.0697
44.093
44.113
44.1413
44.1624
44.1963
44.2173
44.2577
44.2775
44.3254
44.3426
44.3988
44.4126
44.4757
44.4882
44.552
44.5661
44.631
44.5798
44.003
43.6116
43.3759
43.192
43.0334
42.909
42.8148
42.751
42.7083
42.6844
42.6713
42.6689
42.6714
42.6808
42.6922
42.7089
42.7258
42.7482
42.7688
42.7967
42.8194
42.8534
42.8768
42.918
42.9405
42.9899
43.0101
43.0685
43.0854
43.1516
43.1671
43.235
43.2521
43.3231
43.0291
42.4151
41.9911
41.7337
41.5218
41.3351
41.189
41.0753
40.9971
40.9397
40.9054
40.8809
40.8713
40.8657
40.8712
40.878
40.8937
40.9093
40.9328
40.9547
40.985
41.0113
41.0484
41.0775
41.1223
41.1519
41.2058
41.233
41.2968
41.3193
41.3922
41.4116
41.4879
41.5076
41.5879
40.8415
40.5286
39.913
39.4676
39.1177
38.84
38.6396
38.4916
38.3967
38.3292
38.2955
38.2727
38.2731
38.2756
38.2964
38.3147
38.3487
38.3778
38.4208
38.4577
38.5071
38.5497
38.6047
38.6534
38.7153
38.7641
38.8271
38.8724
38.9407
38.9827
39.0591
39.0968
39.1806
39.2137
39.3086
37.8604
40.6894
39.8768
38.9228
38.1184
37.4999
37.0616
36.7478
36.5397
36.3913
36.3025
36.2385
36.2125
36.1938
36.2029
36.2098
36.2396
36.2617
36.3044
36.3363
36.3872
36.426
36.4821
36.5267
36.5859
36.6362
36.6968
36.7527
36.8141
36.8737
36.9386
36.9938
37.0756
37.1083
37.2376
14.2717
12.6873
12.7642
12.9733
13.2213
13.4373
13.6418
13.8144
13.982
14.1217
14.2609
14.3756
14.494
14.5907
14.6952
14.7796
14.8755
14.9519
15.0432
15.1144
15.2042
15.2714
15.3622
15.4251
15.5194
15.5763
15.6769
15.7244
15.8353
15.868
15.9941
16.0041
16.1514
16.1272
16.2955
37.6238
37.2104
36.9825
36.8899
36.8747
36.8848
36.8912
36.891
36.8829
36.8732
36.861
36.8504
36.8395
36.8306
36.8225
36.8156
36.8101
36.8047
36.8017
36.7971
36.7965
36.7916
36.7936
36.7875
36.7927
36.7841
36.7937
36.781
36.7965
36.7782