/*--------------------------------*- C++ -*----------------------------------*\
  =========                 |
  \\      /  F ield         | OpenFOAM: The Open Source CFD Toolbox
   \\    /   O peration     | Website:  https://openfoam.org
    \\  /    A nd           | Version:  6
     \\/     M anipulation  |
\*---------------------------------------------------------------------------*/
FoamFile
{
    version     2.0;
    format      ascii;
    class       volVectorField;
    location    "1.4";
    object      wallShearStress;
}
// * * * * * * * * * * * * * * * * * * * * * * * * * * * * * * * * * * * * * //

dimensions      [0 2 -2 0 0 0 0];

internalField   uniform (0 0 0);

boundaryField
{
    inlet
    {
        type            calculated;
        value           uniform (0 0 0);
    }
    outlet
    {
        type            calculated;
        value           uniform (0 0 0);
    }
    roughCylinder
    {
        type            calculated;
        value           nonuniform List<vector> 
3840
(
(-0.000325793 -0.000478778 -0.000198091)
(-0.000396011 -0.000603259 -1.27483e-05)
(-0.000459187 -0.000733307 6.02402e-05)
(-0.000548871 -0.0008366 0.000148099)
(-0.000647237 -0.00090357 0.000231132)
(-0.000743351 -0.000933058 0.000299005)
(-0.000828525 -0.00093381 0.00034905)
(-0.00090029 -0.000922371 0.000382953)
(-0.000958066 -0.00091564 0.000404564)
(-0.00100228 -0.000916472 0.000414289)
(-0.00103746 -0.000925986 0.000414075)
(-0.00106664 -0.000942547 0.000406348)
(-0.00109314 -0.000964383 0.000393458)
(-0.0011198 -0.000990109 0.000377222)
(-0.00114846 -0.00101894 0.000358697)
(-0.00118007 -0.00105053 0.000338244)
(-0.00121488 -0.00108474 0.000315763)
(-0.00125279 -0.00112138 0.000290903)
(-0.00129338 -0.00116009 0.000263099)
(-0.00133606 -0.00120026 0.000231666)
(-0.00137966 -0.00124064 0.000195292)
(-0.0014224 -0.00127936 0.000152147)
(-0.00145942 -0.00131256 9.84801e-05)
(-0.00148365 -0.00133434 3.39624e-05)
(-0.000352785 -0.000469605 -0.000192946)
(-0.000427196 -0.000592005 -1.74252e-05)
(-0.000493774 -0.000722406 5.18573e-05)
(-0.000586569 -0.000827248 0.000137145)
(-0.000687674 -0.000896811 0.000219085)
(-0.000786862 -0.000929421 0.00028664)
(-0.00087635 -0.000934957 0.000337513)
(-0.000953484 -0.000928718 0.000373869)
(-0.00101578 -0.000922394 0.000397633)
(-0.00106149 -0.000921364 0.000407981)
(-0.00109816 -0.000929874 0.000407891)
(-0.00112883 -0.000945966 0.000400168)
(-0.00115687 -0.000967661 0.000387236)
(-0.00118516 -0.000993397 0.000370981)
(-0.00121558 -0.00102229 0.000352512)
(-0.00124909 -0.00105395 0.000332214)
(-0.00128595 -0.0010882 0.000309992)
(-0.00132604 -0.00112486 0.000285493)
(-0.00136893 -0.00116357 0.000258146)
(-0.001414 -0.0012037 0.000227277)
(-0.00146002 -0.00124405 0.000191578)
(-0.00150511 -0.00128272 0.000149269)
(-0.00154413 -0.00131585 9.66034e-05)
(-0.00156973 -0.0013376 3.32852e-05)
(-0.000380836 -0.000454512 -0.000181376)
(-0.00045887 -0.00057451 -2.26971e-05)
(-0.000528785 -0.000704346 4.25866e-05)
(-0.00062437 -0.000810301 0.000125071)
(-0.000728306 -0.000882658 0.000205903)
(-0.000831107 -0.000919314 0.000273596)
(-0.000925427 -0.000930257 0.00032592)
(-0.00100769 -0.000928902 0.000364467)
(-0.00107462 -0.000923992 0.000390194)
(-0.00112183 -0.000920537 0.000400889)
(-0.00115988 -0.000927935 0.00040085)
(-0.00119205 -0.000943372 0.000393117)
(-0.00122167 -0.000964734 0.000380166)
(-0.00125163 -0.000990296 0.000363934)
(-0.00128383 -0.00101906 0.000345573)
(-0.00131926 -0.00105057 0.000325483)
(-0.00135818 -0.00108463 0.000303575)
(-0.00140046 -0.00112105 0.000279492)
(-0.00144565 -0.00115949 0.000252661)
(-0.00149311 -0.00119933 0.00022242)
(-0.00154153 -0.00123936 0.000187469)
(-0.00158898 -0.00127773 0.000146083)
(-0.00162999 -0.00131056 9.4526e-05)
(-0.00165696 -0.00133214 3.2536e-05)
(-0.000407555 -0.000434462 -0.000165285)
(-0.000488668 -0.000551538 -2.81884e-05)
(-0.000561552 -0.000680008 3.27847e-05)
(-0.000659546 -0.000786784 0.000112253)
(-0.000766456 -0.000862175 0.000191871)
(-0.000873264 -0.000903581 0.000259885)
(-0.000972615 -0.000920248 0.000313931)
(-0.00105992 -0.000923443 0.000354607)
(-0.00113093 -0.000920142 0.00038191)
(-0.00118078 -0.000914781 0.000393156)
(-0.00122026 -0.000920946 0.000393249)
(-0.00125398 -0.000935594 0.000385516)
(-0.00128518 -0.000956501 0.000372578)
(-0.0013168 -0.000981749 0.000356414)
(-0.00135078 -0.00101022 0.000338199)
(-0.0013881 -0.00104142 0.000318357)
(-0.00142902 -0.0010751 0.000296801)
(-0.0014734 -0.0011111 0.000273172)
(-0.00152081 -0.00114906 0.000246893)
(-0.00157057 -0.00118838 0.000217316)
(-0.00162131 -0.00122787 0.000183149)
(-0.00167104 -0.00126572 0.000142733)
(-0.00171396 -0.00129807 9.23394e-05)
(-0.00174227 -0.00131935 3.1746e-05)
(-0.000432312 -0.000410176 -0.000146569)
(-0.000515965 -0.000523672 -3.36124e-05)
(-0.000591331 -0.000650036 2.27564e-05)
(-0.000691391 -0.000757309 9.8965e-05)
(-0.000801413 -0.000835817 0.000177185)
(-0.000912494 -0.000882229 0.000245512)
(-0.00101689 -0.000904464 0.000301284)
(-0.00110905 -0.000911699 0.000343989)
(-0.00118394 -0.000909807 0.000372594)
(-0.00123743 -0.000903478 0.000384748)
(-0.00127839 -0.000908153 0.00038511)
(-0.00131368 -0.000921846 0.000377402)
(-0.00134645 -0.000942142 0.000364537)
(-0.00137972 -0.00096691 0.000348481)
(-0.00141542 -0.000994925 0.00033046)
(-0.00145454 -0.00102562 0.000310913)
(-0.00149737 -0.00105873 0.00028975)
(-0.00154376 -0.00109407 0.000266609)
(-0.00159325 -0.00113131 0.000240909)
(-0.00164517 -0.00116987 0.000212023)
(-0.0016981 -0.00120857 0.000178667)
(-0.00174999 -0.00124566 0.000139257)
(-0.00179472 -0.00127732 9.00701e-05)
(-0.0018243 -0.00129818 3.09237e-05)
(-0.000454806 -0.000382622 -0.000126482)
(-0.000540413 -0.000491908 -3.88292e-05)
(-0.000617694 -0.000615513 1.26652e-05)
(-0.000719452 -0.00072295 8.5335e-05)
(-0.000832616 -0.000804501 0.000161926)
(-0.000948119 -0.000855852 0.000230464)
(-0.00105755 -0.000883219 0.000287852)
(-0.00115448 -0.000893893 0.000332445)
(-0.00123342 -0.00089325 0.000362238)
(-0.00129141 -0.000886816 0.000375652)
(-0.001334 -0.000889646 0.000376387)
(-0.00137086 -0.000902209 0.00036877)
(-0.00140521 -0.000921711 0.000356037)
(-0.00144009 -0.000945823 0.000340154)
(-0.00147746 -0.000973202 0.000322384)
(-0.0015183 -0.00100319 0.000303177)
(-0.00156293 -0.00103552 0.000282446)
(-0.00161118 -0.00106998 0.000259827)
(-0.00166261 -0.00110627 0.000234735)
(-0.00171655 -0.00114383 0.000206565)
(-0.00177151 -0.0011815 0.000174042)
(-0.00182543 -0.00121759 0.000135668)
(-0.00187183 -0.00124835 8.77249e-05)
(-0.00190263 -0.00126866 3.00715e-05)
(-0.000474613 -0.000352674 -0.00010591)
(-0.000561512 -0.000457141 -4.37258e-05)
(-0.000640028 -0.000577322 2.64298e-06)
(-0.000743001 -0.000684512 7.14347e-05)
(-0.000859174 -0.000768882 0.000146095)
(-0.000979116 -0.000824899 0.000214662)
(-0.0010936 -0.000856887 0.000273495)
(-0.00119536 -0.000870519 0.000319842)
(-0.00127878 -0.000871173 0.000350894)
(-0.00134178 -0.000865528 0.000365789)
(-0.00138655 -0.000865953 0.000366991)
(-0.00142502 -0.000877143 0.000359593)
(-0.00146098 -0.000895632 0.000347072)
(-0.00149745 -0.000918906 0.000331429)
(-0.00153642 -0.000945472 0.000313975)
(-0.0015789 -0.000974586 0.000295164)
(-0.00162518 -0.00100594 0.00027491)
(-0.00167515 -0.00103932 0.000252848)
(-0.00172834 -0.00107444 0.000228387)
(-0.00178412 -0.00111077 0.000200955)
(-0.00184095 -0.00114719 0.000169284)
(-0.00189675 -0.00118207 0.000131975)
(-0.00194469 -0.00121175 8.53094e-05)
(-0.00197664 -0.00123138 2.91902e-05)
(-0.00049125 -0.000320891 -8.54847e-05)
(-0.0005787 -0.000419981 -4.82272e-05)
(-0.000657686 -0.000536091 -7.19236e-06)
(-0.000761262 -0.000642528 5.73547e-05)
(-0.000880137 -0.000729326 0.000129712)
(-0.00100443 -0.000789603 0.000198031)
(-0.00112398 -0.000825702 0.000258069)
(-0.00123075 -0.000841965 0.000306062)
(-0.00131904 -0.000843937 0.000338524)
(-0.00138674 -0.000839126 0.000354734)
(-0.00143521 -0.000837449 0.000356765)
(-0.00147541 -0.000847042 0.000349835)
(-0.00151304 -0.000864274 0.000337618)
(-0.00155109 -0.000886532 0.00032231)
(-0.00159159 -0.000912114 0.000305244)
(-0.00163557 -0.000940177 0.000286888)
(-0.00168335 -0.000970368 0.000267158)
(-0.00173485 -0.00100249 0.000245686)
(-0.0017896 -0.00103628 0.000221883)
(-0.00184702 -0.0010712 0.000195206)
(-0.0019055 -0.00110617 0.000164402)
(-0.00196303 -0.00113966 0.000128185)
(-0.00201235 -0.00116809 8.28271e-05)
(-0.00204537 -0.00118693 2.82806e-05)
(-0.000504346 -0.000287759 -6.56794e-05)
(-0.000591538 -0.000380993 -5.22699e-05)
(-0.000670114 -0.000492392 -1.6726e-05)
(-0.000773528 -0.000597472 4.31995e-05)
(-0.000894626 -0.000686164 0.000112816)
(-0.00102307 -0.000750196 0.000180517)
(-0.00114772 -0.000789943 0.000241459)
(-0.00125976 -0.000808597 0.000290965)
(-0.00135323 -0.000811871 0.00032496)
(-0.00142579 -0.000807755 0.000342449)
(-0.00147922 -0.000805136 0.000345757)
(-0.0015213 -0.000812292 0.000339436)
(-0.00156065 -0.00082805 0.000327652)
(-0.00160026 -0.000849067 0.000312788)
(-0.00164219 -0.000873494 0.000296198)
(-0.00168755 -0.00090037 0.000278369)
(-0.00173665 -0.000929276 0.000259214)
(-0.00178945 -0.000959992 0.000238367)
(-0.00184551 -0.000992249 0.000215239)
(-0.00190429 -0.00102558 0.000189332)
(-0.00196419 -0.00105891 0.000159405)
(-0.00202324 -0.00109082 0.000124302)
(-0.00207375 -0.00111784 8.02805e-05)
(-0.00210775 -0.00113579 2.73425e-05)
(-0.000513478 -0.000253706 -4.68331e-05)
(-0.000599566 -0.000340712 -5.57937e-05)
(-0.000676768 -0.000446781 -2.58326e-05)
(-0.000779092 -0.000549821 2.91013e-05)
(-0.000901767 -0.000639751 9.54708e-05)
(-0.0010341 -0.000707004 0.000162082)
(-0.0011639 -0.000749988 0.000223571)
(-0.00128147 -0.000770861 0.00027443)
(-0.00138043 -0.000775388 0.000310035)
(-0.00145813 -0.000771863 0.000328972)
(-0.00151649 -0.00076887 0.000333637)
(-0.00156191 -0.00077362 0.000328273)
(-0.00160307 -0.000787408 0.000317143)
(-0.00164424 -0.000806995 0.000302863)
(-0.00168752 -0.000830093 0.000286851)
(-0.00173404 -0.000855607 0.000269623)
(-0.00178421 -0.000883055 0.000251093)
(-0.00183804 -0.000912228 0.000230907)
(-0.00189512 -0.000943013 0.000208484)
(-0.001955 -0.000974758 0.000183364)
(-0.00201605 -0.00100644 0.000154319)
(-0.00207639 -0.00103665 0.000120348)
(-0.00212788 -0.00106215 7.76823e-05)
(-0.00216278 -0.00107915 2.63798e-05)
(-0.000518258 -0.000219211 -2.92297e-05)
(-0.000602347 -0.000299692 -5.87496e-05)
(-0.00067714 -0.000399865 -3.43723e-05)
(-0.00077729 -0.000500106 1.52158e-05)
(-0.000900719 -0.000590522 7.7765e-05)
(-0.00103656 -0.000660431 0.000142715)
(-0.00117154 -0.000706302 0.000204325)
(-0.00129494 -0.000729245 0.000256338)
(-0.00139973 -0.000734968 0.000293591)
(-0.0014829 -0.000731936 0.000314208)
(-0.00154625 -0.000728676 0.000320333)
(-0.00159599 -0.000731871 0.000316259)
(-0.00163957 -0.000743427 0.000306078)
(-0.00168225 -0.000761145 0.000292542)
(-0.00172675 -0.000782773 0.00027724)
(-0.00177428 -0.000806947 0.000260714)
(-0.00182528 -0.000833029 0.000242876)
(-0.00187979 -0.000860697 0.000223382)
(-0.00193719 -0.000889742 0.000201627)
(-0.00199752 -0.000919672 0.000177262)
(-0.00205916 -0.000949478 0.000149085)
(-0.00212046 -0.000977843 0.000116266)
(-0.00217264 -0.00100171 7.49951e-05)
(-0.00220828 -0.00101766 2.53778e-05)
(-0.000518066 -0.000184657 -1.30782e-05)
(-0.000599435 -0.000258506 -6.10436e-05)
(-0.000670715 -0.000352251 -4.22045e-05)
(-0.000767454 -0.000448894 1.7239e-06)
(-0.000890629 -0.000538965 5.98226e-05)
(-0.00102949 -0.000610948 0.00012244)
(-0.00116966 -0.000659416 0.000183659)
(-0.00129922 -0.000684336 0.000236586)
(-0.00141022 -0.000691178 0.000275484)
(-0.00149923 -0.00068853 0.000297982)
(-0.00156777 -0.000684976 0.000305822)
(-0.00162176 -0.000686986 0.000303211)
(-0.00166838 -0.000696636 0.000294245)
(-0.001713 -0.000712467 0.000281733)
(-0.00175854 -0.000732424 0.000267297)
(-0.00180649 -0.000755007 0.000251527)
(-0.00185759 -0.000779462 0.000234384)
(-0.00191208 -0.000805398 0.000215561)
(-0.00196948 -0.000832445 0.00019448)
(-0.00202991 -0.000860312 0.000170893)
(-0.00209182 -0.000888038 0.000143607)
(-0.00215379 -0.000914396 0.000111991)
(-0.00220638 -0.000936524 7.21768e-05)
(-0.00224264 -0.000951313 2.43212e-05)
(-0.000512665 -0.000150888 1.22119e-06)
(-0.000590266 -0.000217423 -6.28554e-05)
(-0.000656991 -0.000304738 -4.91458e-05)
(-0.000749024 -0.000396865 -1.11371e-05)
(-0.000870727 -0.00048567 4.18372e-05)
(-0.001012 -0.000559126 0.000101326)
(-0.0011573 -0.000609935 0.00016154)
(-0.00129327 -0.000636751 0.000215064)
(-0.00141094 -0.000644637 0.000255561)
(-0.00150621 -0.000642248 0.00028011)
(-0.00158027 -0.000638295 0.000289964)
(-0.00163864 -0.000639146 0.000289077)
(-0.00168829 -0.00064705 0.000281533)
(-0.00173474 -0.000661005 0.000270229)
(-0.00178114 -0.000679098 0.000256802)
(-0.00182932 -0.00069984 0.000241898)
(-0.00188022 -0.00072241 0.000225517)
(-0.00193432 -0.000746354 0.000207396)
(-0.00199137 -0.00077125 0.000187022)
(-0.00205155 -0.000796894 0.000164245)
(-0.00211336 -0.000822392 0.000137877)
(-0.00217571 -0.000846615 0.000107519)
(-0.00222839 -0.000866904 6.92245e-05)
(-0.00226517 -0.000880457 2.32077e-05)
(-0.000499082 -0.000117717 1.33357e-05)
(-0.000576103 -0.00017768 -6.4036e-05)
(-0.000635793 -0.00025808 -5.51184e-05)
(-0.000721552 -0.000344771 -2.31308e-05)
(-0.000840315 -0.000431341 2.40506e-05)
(-0.000983153 -0.000505602 7.95142e-05)
(-0.00113343 -0.000558517 0.000137978)
(-0.00127615 -0.000587218 0.000191697)
(-0.00140099 -0.000596119 0.000233707)
(-0.00150303 -0.000593836 0.000260447)
(-0.00158297 -0.000589276 0.000272597)
(-0.00164595 -0.000588854 0.000273745)
(-0.00169874 -0.000594966 0.000267898)
(-0.00174698 -0.000606948 0.000258006)
(-0.0017941 -0.000623044 0.000245752)
(-0.0018422 -0.000641768 0.000231833)
(-0.00189255 -0.000662285 0.000216293)
(-0.00194589 -0.000684105 0.000198927)
(-0.00200214 -0.000706722 0.000179286)
(-0.00206167 -0.000730027 0.000157344)
(-0.00212299 -0.000753181 0.000131916)
(-0.00218541 -0.000775167 0.000102865)
(-0.00223788 -0.000793545 6.61472e-05)
(-0.00227506 -0.00080579 2.20387e-05)
(-0.000477311 -8.56143e-05 2.34113e-05)
(-0.000555936 -0.000140271 -6.4501e-05)
(-0.000607108 -0.000212997 -5.99502e-05)
(-0.000684737 -0.000293528 -3.39601e-05)
(-0.000798807 -0.000376777 6.79929e-06)
(-0.000942137 -0.000451101 5.72356e-05)
(-0.00109712 -0.000505883 0.00011306)
(-0.00124685 -0.000536483 0.00016644)
(-0.00137937 -0.000546384 0.000209792)
(-0.00148874 -0.000544071 0.000238835)
(-0.00157504 -0.00053868 0.000253572)
(-0.00164294 -0.000536777 0.00025711)
(-0.00169902 -0.000540952 0.000253282)
(-0.00174902 -0.000550833 0.000245062)
(-0.00179665 -0.000564784 0.000234173)
(-0.00184441 -0.000581384 0.000221383)
(-0.00189382 -0.000599749 0.000206769)
(-0.00194592 -0.000619339 0.000190194)
(-0.00200097 -0.000639641 0.000171313)
(-0.0020594 -0.000660525 0.000150219)
(-0.00211985 -0.000681283 0.000125745)
(-0.00218201 -0.000700943 9.80427e-05)
(-0.00223392 -0.000717379 6.29535e-05)
(-0.00227141 -0.000728254 2.08154e-05)
(-0.000447596 -5.57463e-05 3.14627e-05)
(-0.000528521 -0.000105518 -6.41603e-05)
(-0.000571041 -0.00017035 -6.35138e-05)
(-0.000638622 -0.00024416 -4.33002e-05)
(-0.000745951 -0.000322916 -9.46901e-06)
(-0.000888294 -0.000396408 3.48563e-05)
(-0.00104749 -0.000452781 8.69641e-05)
(-0.00120444 -0.00048534 0.000139309)
(-0.00134523 -0.00049633 0.000183751)
(-0.00146261 -0.000493905 0.000215184)
(-0.00155578 -0.000487423 0.000232793)
(-0.00162894 -0.000483753 0.0002391)
(-0.0016885 -0.000485793 0.00023767)
(-0.00174025 -0.000493419 0.000231431)
(-0.00178823 -0.000505125 0.000222141)
(-0.00183525 -0.000519512 0.000210617)
(-0.00188323 -0.00053567 0.000196999)
(-0.00193368 -0.00055302 0.000181254)
(-0.00198699 -0.000570986 0.000163132)
(-0.00204393 -0.000589459 0.000142898)
(-0.00210304 -0.000607794 0.000119377)
(-0.00216468 -0.000625099 9.30679e-05)
(-0.00221569 -0.000639588 5.9652e-05)
(-0.00225339 -0.000649046 1.9538e-05)
(-0.000410411 -2.92155e-05 3.73972e-05)
(-0.000493175 -7.39043e-05 -6.30482e-05)
(-0.000527669 -0.000131197 -6.5738e-05)
(-0.000583466 -0.000197671 -5.07613e-05)
(-0.000681596 -0.000270687 -2.42036e-05)
(-0.000821088 -0.000342313 1.28938e-05)
(-0.000983715 -0.000399924 6.00097e-05)
(-0.00114809 -0.00043458 0.000110431)
(-0.00129776 -0.000446806 0.000155562)
(-0.00142375 -0.000444228 0.000189388)
(-0.0015244 -0.000436446 0.000210167)
(-0.00160325 -0.000430738 0.000219663)
(-0.00166643 -0.000430395 0.000221046)
(-0.00171991 -0.000435609 0.000217137)
(-0.00176797 -0.00044498 0.000209688)
(-0.00181394 -0.00045715 0.000199593)
(-0.0018601 -0.000471153 0.000187048)
(-0.0019083 -0.000486279 0.00017214)
(-0.00195949 -0.000502 0.000154779)
(-0.0020144 -0.00051809 0.000135398)
(-0.00207181 -0.00053406 0.000112829)
(-0.00213254 -0.000548976 8.79469e-05)
(-0.00218229 -0.000561547 5.62474e-05)
(-0.00222013 -0.000569555 1.82057e-05)
(-0.000365838 -6.94187e-06 4.10647e-05)
(-0.000449366 -4.60361e-05 -6.10338e-05)
(-0.000477056 -9.631e-05 -6.65761e-05)
(-0.00052017 -0.000155114 -5.60825e-05)
(-0.000606448 -0.000221232 -3.67599e-05)
(-0.00074047 -0.000289675 -7.9181e-06)
(-0.000905405 -0.000348046 3.27282e-05)
(-0.001077 -0.000384856 8.00481e-05)
(-0.00123605 -0.00039856 0.000125279)
(-0.00137161 -0.000395986 0.000161454)
(-0.00148042 -0.000386786 0.000185677)
(-0.00156538 -0.000378793 0.0001988)
(-0.00163242 -0.000375861 0.000203457)
(-0.00168752 -0.000378511 0.000202248)
(-0.00173543 -0.000385518 0.000196905)
(-0.00177982 -0.000395491 0.000188375)
(-0.00182351 -0.000407389 0.000176945)
(-0.00186907 -0.000420437 0.000162888)
(-0.00191748 -0.000434001 0.00014626)
(-0.00197003 -0.000447832 0.000127735)
(-0.0020252 -0.000461504 0.0001061)
(-0.00208487 -0.000474093 8.26892e-05)
(-0.00213296 -0.000484826 5.27446e-05)
(-0.00217086 -0.000491348 1.68169e-05)
(-0.000315101 1.02871e-05 4.24674e-05)
(-0.000397596 -2.27988e-05 -5.82251e-05)
(-0.000419908 -6.65734e-05 -6.6029e-05)
(-0.000449882 -0.000117479 -5.901e-05)
(-0.000521393 -0.000175456 -4.63556e-05)
(-0.000646956 -0.000239309 -2.66056e-05)
(-0.000812043 -0.000297586 5.88653e-06)
(-0.000990903 -0.000336803 4.86584e-05)
(-0.00116019 -0.000352456 9.31922e-05)
(-0.00130575 -0.000350015 0.000131472)
(-0.00142326 -0.000339365 0.000159349)
(-0.00151475 -0.00032894 0.000176532)
(-0.00158573 -0.00032325 0.000184929)
(-0.00164237 -0.000323262 0.000186817)
(-0.00168974 -0.000327905 0.000183835)
(-0.00173221 -0.000335814 0.000177023)
(-0.00177306 -0.000345813 0.000166763)
(-0.00181527 -0.000356922 0.000153527)
(-0.00186053 -0.000368525 0.000137609)
(-0.0019101 -0.000380212 0.000119913)
(-0.00196272 -0.000391748 9.92021e-05)
(-0.00202081 -0.000402021 7.72927e-05)
(-0.00206689 -0.000411049 4.91441e-05)
(-0.00210483 -0.000416074 1.53682e-05)
(-0.000258209 2.17283e-05 4.16358e-05)
(-0.000337714 -4.6802e-06 -5.41389e-05)
(-0.000356705 -4.21757e-05 -6.40997e-05)
(-0.000374689 -8.54638e-05 -5.96855e-05)
(-0.000428985 -0.000134449 -5.24313e-05)
(-0.000541177 -0.000191636 -4.18697e-05)
(-0.000704402 -0.000249038 -1.9354e-05)
(-0.000889278 -0.000290529 1.69694e-05)
(-0.00106867 -0.000308529 5.96353e-05)
(-0.00122562 -0.000306882 9.96811e-05)
(-0.00135279 -0.000295049 0.000131359)
(-0.00145125 -0.000282208 0.000153008)
(-0.00152631 -0.000273724 0.000165612)
(-0.00158422 -0.000271095 0.000170968)
(-0.00163068 -0.000273484 0.000170594)
(-0.00167048 -0.000279467 0.000165595)
(-0.00170761 -0.000287741 0.000156494)
(-0.00174611 -0.000297177 0.000144059)
(-0.00178754 -0.000307008 0.000128795)
(-0.00183386 -0.000316774 0.000111924)
(-0.00188335 -0.000326324 9.21103e-05)
(-0.0019399 -0.000334421 7.17621e-05)
(-0.00198348 -0.000341909 4.54467e-05)
(-0.00202143 -0.000345429 1.38559e-05)
(-0.00019796 2.74094e-05 3.90225e-05)
(-0.000271636 7.79102e-06 -4.89103e-05)
(-0.00028891 -2.34462e-05 -6.07831e-05)
(-0.000296422 -5.93122e-05 -5.78999e-05)
(-0.000332703 -9.92231e-05 -5.43713e-05)
(-0.000428028 -0.000147921 -5.24667e-05)
(-0.000582981 -0.000202112 -4.14127e-05)
(-0.000773284 -0.000246265 -1.37735e-05)
(-0.000964089 -0.00026758 2.55532e-05)
(-0.0011322 -0.000267143 6.66436e-05)
(-0.00126904 -0.000254454 0.000102045)
(-0.00137457 -0.000239393 0.000128445)
(-0.00145356 -0.000228233 0.000145649)
(-0.00151247 -0.000223117 0.000154815)
(-0.00155747 -0.000223449 0.000157245)
(-0.00159426 -0.000227805 0.000154164)
(-0.00162736 -0.000234697 0.000146227)
(-0.00166135 -0.000242698 0.000134508)
(-0.00169861 -0.000251038 0.000119849)
(-0.00174105 -0.000259064 0.000103767)
(-0.00178713 -0.000266877 8.48369e-05)
(-0.00184153 -0.000272845 6.60863e-05)
(-0.00188232 -0.000279045 4.16519e-05)
(-0.00192022 -0.000281064 1.22751e-05)
(-0.000136242 2.65736e-05 3.43525e-05)
(-0.000200476 1.46933e-05 -4.07735e-05)
(-0.000218287 -8.94964e-06 -5.61807e-05)
(-0.000218811 -3.71258e-05 -5.47041e-05)
(-0.000233066 -6.64922e-05 -5.27049e-05)
(-0.000306006 -0.000106466 -5.6858e-05)
(-0.000451562 -0.000157111 -5.78698e-05)
(-0.000642499 -0.000202628 -4.18425e-05)
(-0.000842945 -0.000228008 -8.03621e-06)
(-0.00102428 -0.000230397 3.31338e-05)
(-0.00117225 -0.000217873 7.19902e-05)
(-0.00128524 -0.000201161 0.000103287)
(-0.001368 -0.000187705 0.000125381)
(-0.00142734 -0.000180412 0.000138588)
(-0.00147026 -0.000179016 0.000143942)
(-0.001503 -0.000182041 0.000142763)
(-0.00153102 -0.000187836 0.000135888)
(-0.00156021 -0.000194748 0.000124822)
(-0.00159269 -0.000201848 0.000110688)
(-0.00163108 -0.000208402 9.53955e-05)
(-0.00167321 -0.000214698 7.73304e-05)
(-0.0017257 -0.000218747 6.02652e-05)
(-0.00176302 -0.000223911 3.77546e-05)
(-0.001801 -0.000224469 1.06212e-05)
(-7.44579e-05 2.17833e-05 2.78148e-05)
(-0.0001277 1.48426e-05 -3.08111e-05)
(-0.000146867 -5.79248e-07 -4.75619e-05)
(-0.000153627 -2.19127e-05 -4.37749e-05)
(-0.000182348 -3.94177e-05 -4.40571e-05)
(-0.000204453 -6.60306e-05 -5.9029e-05)
(-0.000312133 -0.000111029 -6.8467e-05)
(-0.000502324 -0.000159998 -6.46193e-05)
(-0.000713525 -0.000190719 -3.9125e-05)
(-0.00090588 -0.000196793 5.19892e-07)
(-0.00106358 -0.000185309 4.21106e-05)
(-0.00118347 -0.000167751 7.81239e-05)
(-0.00126937 -0.000152649 0.000105172)
(-0.00132851 -0.000143738 0.000122502)
(-0.00136866 -0.000141087 0.000130785)
(-0.00139709 -0.000143255 0.000131485)
(-0.00141982 -0.00014839 0.000125583)
(-0.00144345 -0.000154501 0.000115023)
(-0.00147082 -0.000160646 0.000101339)
(-0.00150467 -0.000165943 8.68096e-05)
(-0.0015426 -0.000170995 6.96066e-05)
(-0.00159248 -0.000173219 5.42884e-05)
(-0.00162626 -0.000177738 3.37654e-05)
(-0.00166409 -0.000176863 8.8903e-06)
(-2.35361e-05 1.74479e-05 2.47377e-05)
(-6.43837e-05 1.1699e-05 -2.53038e-05)
(-9.05364e-05 1.20229e-05 -5.7635e-05)
(-8.85969e-05 -2.0609e-05 -9.83905e-05)
(-6.17882e-05 -8.68449e-05 -4.45461e-05)
(-9.30807e-05 -4.8365e-05 7.22357e-07)
(-0.000203221 -6.24604e-05 -5.53145e-05)
(-0.000354953 -0.000111129 -8.09074e-05)
(-0.000566547 -0.000151274 -6.47839e-05)
(-0.000773809 -0.000164611 -2.91982e-05)
(-0.000943699 -0.000156162 1.36723e-05)
(-0.00107059 -0.000139136 5.38501e-05)
(-0.00115906 -0.000123414 8.56549e-05)
(-0.00121696 -0.00011365 0.00010693)
(-0.00125332 -0.000110331 0.000117947)
(-0.00127611 -0.000112079 0.000120294)
(-0.00129243 -0.000116866 0.000115132)
(-0.00131042 -0.000122517 0.000104969)
(-0.00133237 -0.000127939 9.16577e-05)
(-0.00136155 -0.000132216 7.7911e-05)
(-0.0013949 -0.00013626 6.15902e-05)
(-0.00144259 -0.000136921 4.81515e-05)
(-0.00147182 -0.000141124 2.96705e-05)
(-0.0015099 -0.000138969 7.07971e-06)
(1.28539e-05 5.7076e-06 1.34415e-05)
(2.61494e-06 2.02766e-06 -2.39996e-05)
(-2.34634e-05 -1.43076e-05 -5.83388e-05)
(-4.53221e-05 -4.48968e-05 -6.91295e-05)
(-1.63993e-05 -4.4187e-05 -5.10708e-05)
(-4.12581e-05 -4.13278e-05 -3.95022e-05)
(-5.894e-05 -4.00975e-05 -2.7097e-05)
(-0.000225638 -7.11718e-05 -5.88372e-05)
(-0.000425625 -0.000104055 -8.01924e-05)
(-0.000636415 -0.000133428 -5.43286e-05)
(-0.000815215 -0.000129779 -1.18102e-05)
(-0.000947807 -0.000114823 3.15713e-05)
(-0.00103728 -9.97661e-05 6.7484e-05)
(-0.00109295 -9.01587e-05 9.22078e-05)
(-0.00112493 -8.69035e-05 0.000105571)
(-0.00114203 -8.87961e-05 0.00010931)
(-0.00115205 -9.36435e-05 0.000104665)
(-0.00116369 -9.90507e-05 9.46941e-05)
(-0.00117992 -0.000103893 8.16651e-05)
(-0.00120435 -0.000107365 6.87225e-05)
(-0.00123289 -0.000110595 5.33198e-05)
(-0.00127778 -0.000109889 4.18705e-05)
(-0.00130265 -0.000114246 2.55126e-05)
(-0.00134038 -0.000110947 5.1935e-06)
(4.14226e-05 -1.02844e-05 -1.64379e-06)
(4.42321e-05 -1.94316e-05 -1.39739e-05)
(3.27497e-05 -2.17576e-05 -1.18233e-05)
(1.22784e-05 -9.79733e-06 -5.37144e-06)
(-1.67638e-05 3.18885e-05 -4.99427e-05)
(-1.68301e-05 -1.46679e-05 -6.06741e-05)
(-4.1539e-05 -4.57472e-05 -4.57817e-05)
(-8.63516e-05 -3.75067e-05 -3.20299e-05)
(-0.000338617 -6.11443e-05 -7.18655e-05)
(-0.000491748 -9.8243e-05 -6.87685e-05)
(-0.000679782 -0.000104323 -3.27899e-05)
(-0.000817267 -9.41344e-05 1.25898e-05)
(-0.000906728 -8.12893e-05 5.1602e-05)
(-0.000958537 -7.29217e-05 7.88076e-05)
(-0.000984564 -7.04043e-05 9.37547e-05)
(-0.000994547 -7.28624e-05 9.83338e-05)
(-0.000997129 -7.78788e-05 9.38011e-05)
(-0.00100299 -8.32864e-05 8.39246e-05)
(-0.00101376 -8.75875e-05 7.11522e-05)
(-0.00103331 -9.04208e-05 5.90832e-05)
(-0.00105696 -9.29494e-05 4.47039e-05)
(-0.00109934 -9.12118e-05 3.54326e-05)
(-0.00111861 -9.6035e-05 2.12709e-05)
(-0.00115677 -9.2045e-05 3.23808e-06)
(9.56139e-05 -2.58148e-05 1.48776e-05)
(0.000102007 -2.76435e-05 -1.77819e-06)
(8.67025e-05 -2.63368e-05 -5.56613e-06)
(5.80728e-05 -2.19169e-05 -7.74145e-06)
(1.2611e-05 -7.23414e-06 -3.13192e-05)
(5.22973e-06 -1.64364e-05 -5.08758e-05)
(-7.91928e-06 -2.27589e-05 -5.89459e-05)
(-3.85803e-05 -2.37089e-06 -8.44901e-05)
(-0.000166842 -0.000169944 -0.000104539)
(-0.000355725 -9.3454e-05 -1.16764e-05)
(-0.000541428 -7.69972e-05 -4.50904e-05)
(-0.000682019 -7.62099e-05 -1.46804e-06)
(-0.000768247 -6.69427e-05 3.88712e-05)
(-0.000814985 -6.09046e-05 6.70855e-05)
(-0.000835393 -5.98749e-05 8.26805e-05)
(-0.000838517 -6.32444e-05 8.75268e-05)
(-0.000834807 -6.86704e-05 8.27791e-05)
(-0.000833972 -7.40128e-05 7.27478e-05)
(-0.000839034 -7.74766e-05 6.01806e-05)
(-0.000854431 -8.00491e-05 4.91004e-05)
(-0.000872918 -8.17106e-05 3.58639e-05)
(-0.000912908 -7.94903e-05 2.89484e-05)
(-0.000926533 -8.49082e-05 1.70468e-05)
(-0.000964102 -8.08283e-05 1.23729e-06)
(0.000123136 -2.4664e-05 2.81577e-05)
(0.00014292 -3.6018e-05 -9.4216e-06)
(0.000139677 -4.37045e-05 -1.48592e-05)
(0.000121505 -4.63582e-05 -1.89092e-05)
(8.87429e-05 -4.57889e-05 -2.5374e-05)
(6.47352e-05 -3.74765e-05 -2.69537e-05)
(2.31682e-05 -1.02882e-05 -4.66054e-05)
(-7.58803e-05 -2.41557e-05 -6.1368e-05)
(-6.3823e-05 -3.81361e-05 -4.37177e-05)
(-0.000189304 -3.68525e-05 -4.00046e-05)
(-0.000406459 -5.49313e-05 -5.12294e-05)
(-0.000543639 -5.957e-05 -8.90117e-06)
(-0.000626326 -5.56374e-05 3.02891e-05)
(-0.000665848 -5.26889e-05 5.73463e-05)
(-0.00067794 -5.33809e-05 7.20753e-05)
(-0.000673533 -5.77653e-05 7.63412e-05)
(-0.00066201 -6.31001e-05 7.08173e-05)
(-0.000656832 -6.85641e-05 6.07358e-05)
(-0.000657165 -7.05379e-05 4.84911e-05)
(-0.000668217 -7.32772e-05 3.8567e-05)
(-0.000681914 -7.36142e-05 2.67317e-05)
(-0.000718686 -7.15275e-05 2.23782e-05)
(-0.00072604 -7.74072e-05 1.28316e-05)
(-0.000764123 -7.46188e-05 -7.71076e-07)
(0.000137864 -3.12357e-05 2.88445e-05)
(0.000165306 -4.53314e-05 -1.15112e-05)
(0.000169198 -5.35857e-05 -1.73499e-05)
(0.000160305 -6.046e-05 -1.97072e-05)
(0.000141078 -6.33617e-05 -2.09845e-05)
(0.000112972 -5.94291e-05 -2.08904e-05)
(6.46404e-05 -4.10189e-05 -2.05431e-05)
(1.80291e-05 -4.25105e-05 -2.34043e-06)
(-6.11277e-05 9.27882e-05 -4.05045e-06)
(-9.47093e-05 -1.94619e-05 -6.03115e-05)
(-0.000276777 -4.11934e-05 -3.018e-05)
(-0.000410377 -4.33593e-05 -8.5989e-06)
(-0.000482838 -4.62482e-05 2.60154e-05)
(-0.000514665 -4.68383e-05 4.97491e-05)
(-0.000522234 -4.91943e-05 6.2315e-05)
(-0.000509704 -5.37733e-05 6.51626e-05)
(-0.000495353 -5.9463e-05 5.8647e-05)
(-0.000483688 -6.47674e-05 4.82164e-05)
(-0.000479108 -6.39589e-05 3.64841e-05)
(-0.000488516 -6.80788e-05 2.79358e-05)
(-0.000496588 -6.63487e-05 1.77338e-05)
(-0.000532824 -6.54178e-05 1.60916e-05)
(-0.000531656 -7.07971e-05 8.79444e-06)
(-0.000568815 -7.0914e-05 -2.72997e-06)
(0.000147119 -4.05319e-05 2.34037e-05)
(0.000173611 -5.57619e-05 -1.18893e-05)
(0.000178249 -6.68303e-05 -1.45772e-05)
(0.000172351 -7.51717e-05 -1.3016e-05)
(0.000159187 -7.90147e-05 -8.79014e-06)
(0.000139012 -7.53575e-05 -4.63968e-06)
(0.000104228 -5.77919e-05 -2.78083e-06)
(4.71589e-05 -2.38025e-05 -1.44775e-05)
(-5.72787e-05 -8.56005e-06 -3.64478e-05)
(-6.00771e-05 -3.27313e-05 -2.76032e-05)
(-0.000187537 -2.27529e-05 -6.91933e-06)
(-0.000279728 -2.9556e-05 -2.47177e-06)
(-0.0003428 -3.56308e-05 2.65389e-05)
(-0.000360682 -3.67125e-05 4.34096e-05)
(-0.00036114 -4.42677e-05 5.19552e-05)
(-0.000343896 -4.34042e-05 5.27371e-05)
(-0.000322544 -5.36725e-05 4.45421e-05)
(-0.0003109 -5.77326e-05 3.46993e-05)
(-0.00030214 -4.62689e-05 2.38453e-05)
(-0.000309105 -5.99102e-05 1.69837e-05)
(-0.000312036 -4.9189e-05 8.95002e-06)
(-0.00034334 -5.67587e-05 9.92742e-06)
(-0.000330762 -5.03957e-05 5.09979e-06)
(-0.000375589 -6.5168e-05 -4.47412e-06)
(0.000147231 -4.72023e-05 1.91618e-05)
(0.000171238 -6.34415e-05 -1.30205e-05)
(0.000175301 -7.72714e-05 -1.31568e-05)
(0.000169508 -8.73015e-05 -7.56148e-06)
(0.000158842 -9.26278e-05 2.41809e-06)
(0.000144403 -9.06463e-05 1.37046e-05)
(0.000119148 -7.69495e-05 2.22881e-05)
(7.23883e-05 -4.47354e-05 2.15788e-05)
(1.0483e-06 -1.39251e-05 -5.83464e-06)
(-3.01683e-05 -6.33981e-06 -2.49708e-05)
(-8.88062e-05 -6.15699e-05 -3.57222e-06)
(-0.000176086 -1.67095e-05 2.87514e-05)
(-0.000232601 -1.94588e-05 3.04249e-05)
(-0.00026244 -1.66908e-05 3.92538e-05)
(-0.00023076 -3.19557e-05 4.19486e-05)
(-0.000243573 -2.57147e-05 4.05975e-05)
(-0.000187247 -3.7638e-05 3.24493e-05)
(-0.000173262 -4.44733e-05 2.09675e-05)
(-0.000208672 -1.93819e-05 1.2002e-05)
(-0.000171173 -4.18388e-05 8.03168e-06)