/*--------------------------------*- C++ -*----------------------------------*\
  =========                 |
  \\      /  F ield         | OpenFOAM: The Open Source CFD Toolbox
   \\    /   O peration     | Website:  https://openfoam.org
    \\  /    A nd           | Version:  6
     \\/     M anipulation  |
\*---------------------------------------------------------------------------*/
FoamFile
{
    version     2.0;
    format      ascii;
    class       volScalarField;
    location    "0.2";
    object      k;
}
// * * * * * * * * * * * * * * * * * * * * * * * * * * * * * * * * * * * * * //

dimensions      [0 2 -2 0 0 0 0];

internalField   nonuniform List<scalar> 
63432
(
0.000668251
0.000661842
0.000657524
0.000654108
0.000656879
0.000626757
0.000514514
0.000499251
0.000496529
0.000506411
0.000487826
0.000399367
0.000609628
0.000624144
0.000632281
0.000633933
0.000638138
0.000636458
0.00062018
0.000511878
0.000489983
0.000497874
0.000504069
0.000474388
0.000688116
0.000689338
0.000604115
0.000597189
0.000601871
0.000606834
0.000610344
0.000611966
0.00060125
0.000506623
0.00046487
0.000473471
0.000478556
0.000662162
0.000665427
0.000664733
0.000578139
0.000565303
0.000574419
0.000579632
0.000583471
0.00059524
0.000564341
0.00056767
0.00047278
0.000466203
0.000614137
0.000622244
0.000632295
0.00063504
0.000564027
0.000527913
0.000542139
0.000552429
0.00056552
0.000566188
0.000568184
0.000559948
0.000478835
0.000545823
0.000559785
0.000574381
0.000587531
0.000608318
0.000590289
0.000607792
0.000536581
0.000526503
0.000537761
0.000545489
0.000551161
0.000558399
0.000545033
0.000492887
0.000510152
0.000528217
0.000544214
0.000563639
0.000575226
0.00058768
0.00059957
0.000533049
0.000504201
0.000515171
0.000527828
0.000533868
0.000546198
0.00044818
0.000466382
0.000485946
0.000504262
0.000522878
0.000540995
0.000555686
0.000577133
0.000567779
0.000588406
0.000525199
0.000500415
0.000506739
0.000527939
0.000379549
0.000400955
0.00042548
0.000447308
0.000467572
0.000487067
0.000506429
0.000523431
0.00054284
0.000556107
0.000576522
0.000567698
0.000591299
0.000520398
0.000506252
0.000380817
0.000380571
0.000386374
0.000408911
0.000432945
0.000454193
0.000474798
0.00049372
0.000512542
0.000529733
0.000548355
0.000560561
0.00058003
0.000576933
0.000582794
0.000352515
0.000367345
0.000397638
0.000395856
0.000400619
0.000422222
0.000445066
0.000466254
0.000485774
0.000504413
0.000522754
0.000538399
0.000555557
0.000566878
0.000583958
0.000321673
0.000344085
0.000372595
0.000388937
0.000420851
0.000414491
0.000421577
0.000435164
0.000458084
0.000479763
0.00049941
0.000516641
0.000534143
0.000547214
0.000567544
0.000270266
0.000293768
0.000318562
0.000344954
0.000369595
0.000397374
0.000418165
0.000435623
0.000470154
0.000457684
0.00046117
0.000476544
0.000490432
0.000511847
0.000527854
0.000549032
0.000248533
0.000271627
0.000296333
0.000321764
0.000347399
0.000373451
0.000399582
0.00042424
0.000451301
0.000470725
0.000491798
0.000508761
0.000542623
0.000518967
0.000516181
0.000530089
0.000231066
0.000253584
0.000277792
0.000302722
0.00032813
0.000353816
0.000379884
0.000405768
0.000431404
0.000456396
0.000481207
0.000503943
0.000527815
0.000545789
0.00056288
0.000581866
0.00021707
0.000239025
0.000262731
0.000287262
0.000312372
0.000337892
0.00036373
0.00038962
0.000415264
0.000440636
0.000465658
0.000489723
0.000512513
0.000535376
0.000556006
0.000577929
0.000206172
0.000227635
0.000250899
0.000275068
0.000299896
0.00032524
0.000350942
0.000376786
0.000402527
0.000428007
0.000453057
0.000477464
0.000500791
0.000523895
0.000545126
0.000567267
0.000198087
0.000219154
0.000242056
0.000265927
0.000290524
0.000315706
0.000341305
0.000367109
0.000392887
0.000418457
0.000443627
0.000468227
0.000491965
0.000515154
0.000536833
0.000558681
0.000192556
0.000213346
0.000235991
0.000259652
0.000284087
0.000309152
0.000334681
0.000360462
0.000386268
0.000411905
0.000437171
0.000461912
0.00048589
0.000509191
0.000531296
0.000553
0.000189486
0.000210123
0.000232629
0.00025618
0.000280532
0.000305547
0.000331045
0.000356818
0.000382647
0.000408329
0.000433665
0.000458486
0.000482606
0.000505984
0.000528356
0.000549979
0.000964469
0.000961238
0.000959677
0.000959634
0.000960702
0.00095622
0.000926969
0.000925078
0.00092403
0.000929944
0.000924597
0.000897298
0.000947782
0.000949899
0.000952572
0.00095302
0.000955358
0.000953884
0.00095416
0.000927605
0.00092067
0.000924837
0.000929641
0.000912011
0.000966089
0.000965905
0.000943825
0.000944914
0.000947257
0.000948491
0.000949418
0.000950545
0.000950349
0.00093242
0.000914454
0.000921697
0.000918819
0.000959341
0.000957879
0.000962755
0.000943677
0.000939829
0.000944564
0.000946324
0.000946243
0.000951611
0.000941065
0.000945196
0.000923865
0.000920842
0.000955
0.000952683
0.000954991
0.000957591
0.00094686
0.000932489
0.000936704
0.000939935
0.000944745
0.000943983
0.000944346
0.000948374
0.000928168
0.000941957
0.000941359
0.00094383
0.000945635
0.000953349
0.000946206
0.000954324
0.000937766
0.000934813
0.00093958
0.000942208
0.00094276
0.000948565
0.000939661
0.000926366
0.00092879
0.00093379
0.000937258
0.000943225
0.000944343
0.000946868
0.000953019
0.000942447
0.000931458
0.000933831
0.000938741
0.000943736
0.000943553
0.000918507
0.000919599
0.000924132
0.000928618
0.000933619
0.000937941
0.000940433
0.0009483
0.000944172
0.000952007
0.000942067
0.000932573
0.000935616
0.000940898
0.000898577
0.000900035
0.000907377
0.000914433
0.000919926
0.000925014
0.000930132
0.000934149
0.000940356
0.000941846
0.000949315
0.000945667
0.000955237
0.000943459
0.000937236
0.000897071
0.00089793
0.000896977
0.000902412
0.000910312
0.000916646
0.000922441
0.000927472
0.000933003
0.000937047
0.000943008
0.000945268
0.000951391
0.000952687
0.000951114
0.000886858
0.000888795
0.000899796
0.000902972
0.00090198
0.000907419
0.000913936
0.000920768
0.000926675
0.000931769
0.000937191
0.000941553
0.000946662
0.000950803
0.000953738
0.000877301
0.000880705
0.000891825
0.000895438
0.000907659
0.000907829
0.000910333
0.000911939
0.000918178
0.00092499
0.0009312
0.000937108
0.000942337
0.00094686
0.000951673
0.000855272
0.000862739
0.000871157
0.000881703
0.000889222
0.000898646
0.000906311
0.000909444
0.000921888
0.000921347
0.000922053
0.000926484
0.000929261
0.000935675
0.00094162
0.000947757
0.000843612
0.000852164
0.000862439
0.000872775
0.000881913
0.000890836
0.000899548
0.000906339
0.00091525
0.000921105
0.000928058
0.000930899
0.000943221
0.000940578
0.000941042
0.000943616
0.000833874
0.000843157
0.000854221
0.00086487
0.000874711
0.000884039
0.000892981
0.000901269
0.000909598
0.000917047
0.000924476
0.000930626
0.000938205
0.000943551
0.000949022
0.000953814
0.000825464
0.000835337
0.000846953
0.000858062
0.00086838
0.000878121
0.000887392
0.000896229
0.000904709
0.000912696
0.000920374
0.000927628
0.000934657
0.000941132
0.000947197
0.000953597
0.000818451
0.000828835
0.000840899
0.00085242
0.000863125
0.000873223
0.000882821
0.00089197
0.000900691
0.000908985
0.000916896
0.000924448
0.0009316
0.00093844
0.000944796
0.000951626
0.000812978
0.000823769
0.000836187
0.000848042
0.000859054
0.000869435
0.000879299
0.000888687
0.000897629
0.000906143
0.000914244
0.000921967
0.000929298
0.000936323
0.000942854
0.000949752
0.000809113
0.000820204
0.000832883
0.000844983
0.000856221
0.00086681
0.000876867
0.000886432
0.000895536
0.0009042
0.000912443
0.000920296
0.000927752
0.000934891
0.000941553
0.000948507
0.0008071
0.000818347
0.000831165
0.000843394
0.00085476
0.000865467
0.000875627
0.00088529
0.000894484
0.000903232
0.00091155
0.000919469
0.000926999
0.000934195
0.000940926
0.000947909
0.00110879
0.00110758
0.0011049
0.00110365
0.00110446
0.00109766
0.00107218
0.00106825
0.00106678
0.0010733
0.00106426
0.00104007
0.00110098
0.00109971
0.00110146
0.00110072
0.00110253
0.00110005
0.00109823
0.00107573
0.00106488
0.0010686
0.00107397
0.00105273
0.00112153
0.00111724
0.00109842
0.00109621
0.0010982
0.00109858
0.00109767
0.0010985
0.00109511
0.00108166
0.00106027
0.0010658
0.00106
0.001121
0.00111616
0.00111705
0.00110227
0.00109392
0.00109718
0.00109863
0.00109662
0.00110125
0.001089
0.00108874
0.0010715
0.00106445
0.00112205
0.00111699
0.00111762
0.0011157
0.00110807
0.0010914
0.00109097
0.00109276
0.00109699
0.00109374
0.00109217
0.00109534
0.00107686
0.00111744
0.00111552
0.00111455
0.00111293
0.0011186
0.00110967
0.00111152
0.00109776
0.00109057
0.00109374
0.0010955
0.00109311
0.00109947
0.00108684
0.00110965
0.00110833
0.00110976
0.00110944
0.0011135
0.00111125
0.00111087
0.00111278
0.00110486
0.00109067
0.001088
0.00109096
0.00109665
0.00109281
0.00110677
0.00110503
0.00110536
0.00110593
0.00110797
0.00110932
0.00110808
0.00111412
0.00110774
0.00110914
0.00110224
0.00108921
0.00108878
0.00109176
0.00109788
0.0010944
0.00109657
0.00110027
0.00110223
0.00110365
0.00110548
0.00110572
0.00110989
0.00110756
0.00111275
0.0011065
0.00111078
0.00110216
0.00109177
0.00110019
0.00109864
0.00109344
0.00109219
0.00109585
0.00109915
0.00110166
0.00110295
0.00110548
0.001106
0.00110959
0.00110852
0.00111208
0.00111197
0.00110473
0.00109783
0.00109539
0.00109807
0.00109916
0.00109399
0.00109343
0.00109566
0.00109934
0.00110237
0.00110406
0.00110637
0.00110763
0.00110989
0.00111208
0.00111117
0.00109374
0.0010916
0.00109705
0.00109591
0.00110139
0.00109929
0.00109777
0.00109433
0.00109551
0.00109915
0.0011025
0.00110577
0.00110811
0.00111023
0.00111159
0.00108178
0.00108459
0.0010862
0.00109129
0.00109325
0.00109752
0.00110143
0.00109878
0.00110521
0.00110421
0.00110062
0.00110072
0.00109968
0.00110231
0.00110613
0.00110949
0.00107522
0.00107772
0.00108122
0.0010858
0.00108948
0.00109319
0.00109749
0.00109894
0.00110373
0.00110569
0.00110837
0.00110623
0.00111458
0.00111232
0.00110914
0.00110701
0.00106927
0.00107211
0.00107635
0.00108099
0.00108527
0.00108928
0.00109331
0.00109668
0.00110061
0.00110382
0.00110733
0.00110914
0.00111363
0.00111564
0.00111741
0.00111809
0.00106391
0.00106717
0.00107183
0.00107676
0.00108138
0.00108571
0.00108985
0.0010938
0.00109769
0.00110134
0.00110492
0.00110818
0.00111166
0.00111466
0.00111743
0.00112046
0.00105928
0.00106292
0.00106792
0.00107314
0.00107804
0.00108263
0.001087
0.00109119
0.00109523
0.0010991
0.00110282
0.00110639
0.00110983
0.00111309
0.00111609
0.00111966
0.00105547
0.00105944
0.00106471
0.00107019
0.00107533
0.00108013
0.00108471
0.00108908
0.00109329
0.00109732
0.00110118
0.00110487
0.00110841
0.00111182
0.00111492
0.00111859
0.00105258
0.00105681
0.0010623
0.00106798
0.0010733
0.00107828
0.00108301
0.00108753
0.00109187
0.00109602
0.00109998
0.00110378
0.00110741
0.00111092
0.0011141
0.00111781
0.00105081
0.0010552
0.00106082
0.00106663
0.00107207
0.00107716
0.00108199
0.00108661
0.00109103
0.00109526
0.0010993
0.00110316
0.00110685
0.00111041
0.00111364
0.00111738
0.00115485
0.00115557
0.00115319
0.00115171
0.00115243
0.00114532
0.00112202
0.00111772
0.0011163
0.00112367
0.00111291
0.0010909
0.00115098
0.00114964
0.00115161
0.00115046
0.0011524
0.0011498
0.00114744
0.0011277
0.001115
0.00111906
0.00112542
0.00110324
0.00117234
0.00116768
0.00115086
0.0011474
0.00114979
0.00115039
0.00114864
0.00114973
0.00114494
0.00113467
0.00111219
0.001117
0.00110991
0.0011761
0.00117011
0.00116926
0.00115723
0.00114702
0.00114979
0.0011518
0.00114903
0.00115353
0.00114127
0.00113881
0.00112377
0.00111492
0.00117922
0.00117358
0.00117396
0.00117024
0.00116481
0.00114796
0.00114518
0.00114613
0.00115075
0.00114642
0.00114375
0.00114669
0.00112994
0.00117828
0.00117688
0.00117511
0.00117198
0.00117685
0.00116809
0.00116697
0.00115475
0.00114552
0.00114818
0.00115018
0.00114619
0.00115306
0.00113942
0.00117588
0.00117342
0.00117354
0.00117125
0.00117489
0.00117137
0.00116952
0.00116933
0.00116346
0.00114878
0.00114316
0.00114472
0.00115145
0.00114611
0.00117506
0.00117343
0.00117222
0.00117081
0.00117172
0.001172
0.00116878
0.001174
0.00116753
0.0011653
0.00116031
0.00114623
0.00114371
0.0011455
0.00117254
0.00116731
0.00116718
0.00116964
0.00117022
0.00117001
0.0011705
0.00116869
0.00117232
0.00116816
0.00117213
0.00116514
0.00116647
0.00115982
0.00114813
0.00117768
0.00117541
0.00116908
0.00116434
0.00116556
0.00116763
0.00116899
0.00116843
0.0011697
0.00116833
0.00117103
0.00116829
0.00117037
0.0011703
0.00116029
0.00118024
0.00117678
0.00117507
0.00117495
0.00116825
0.00116456
0.00116433
0.00116649
0.00116847
0.00116856
0.00116944
0.00116904
0.00116986
0.00117127
0.00116828
0.00117956
0.00117558
0.0011782
0.00117496
0.00117691
0.00117349
0.00117043
0.00116455
0.0011627
0.00116455
0.00116661
0.00116868
0.0011697
0.00117067
0.00117022
0.00117348
0.00117464
0.00117317
0.00117558
0.00117475
0.00117603
0.00117845
0.00117302
0.00117563
0.00117459
0.00116921
0.00116715
0.00116396
0.00116432
0.00116697
0.00116912
0.00117033
0.00117054
0.00117074
0.00117237
0.00117325
0.00117416
0.00117644
0.00117502
0.00117742
0.00117753
0.00117829
0.00117323
0.00117892
0.00117734
0.00117283
0.00116808
0.001167
0.00116726
0.00116813
0.00116963
0.00117104
0.00117227
0.00117383
0.00117458
0.00117618
0.00117714
0.00117868
0.001178
0.00118073
0.00118123
0.00118119
0.00117935
0.00116378
0.00116432
0.00116554
0.00116721
0.00116884
0.00117034
0.00117181
0.00117316
0.00117461
0.00117594
0.00117735
0.00117842
0.00117998
0.00118112
0.00118215
0.00118319
0.00116084
0.00116168
0.00116315
0.00116504
0.00116687
0.00116857
0.00117017
0.00117172
0.00117325
0.00117473
0.00117618
0.00117758
0.00117899
0.00118032
0.0011815
0.00118321
0.0011583
0.0011594
0.00116109
0.00116318
0.00116519
0.00116705
0.00116881
0.00117049
0.00117213
0.00117372
0.00117526
0.00117675
0.00117821
0.00117964
0.00118087
0.00118268
0.00115623
0.00115755
0.00115943
0.00116167
0.00116385
0.00116584
0.00116772
0.00116951
0.00117125
0.00117294
0.00117455
0.00117612
0.00117763
0.00117913
0.00118041
0.00118225
0.00115485
0.0011563
0.00115831
0.00116067
0.00116294
0.00116503
0.00116699
0.00116887
0.00117067
0.00117242
0.00117409
0.00117571
0.00117726
0.0011788
0.00118011
0.00118199
0.00117652
0.00117827
0.0011764
0.00117498
0.00117549
0.0011682
0.00114562
0.00114112
0.0011398
0.00114798
0.00113599
0.00111495
0.00117359
0.00117271
0.00117533
0.00117394
0.00117594
0.00117335
0.00117073
0.00115244
0.00113832
0.00114284
0.00115017
0.00112768
0.00119515
0.00119064
0.00117505
0.00117093
0.00117373
0.0011748
0.00117247
0.00117394
0.00116827
0.00115981
0.00113669
0.00114128
0.00113367
0.00120094
0.00119477
0.00119297
0.00118252
0.00117125
0.00117386
0.0011766
0.00117351
0.00117807
0.00116606
0.00116251
0.00114822
0.00113833
0.00120438
0.00119869
0.00119936
0.00119474
0.0011906
0.00117409
0.00117019
0.00117061
0.00117584
0.001171
0.00116772
0.00117041
0.00115463
0.00120441
0.00120354
0.00120195
0.00119833
0.00120287
0.00119472
0.00119235
0.001181
0.00117044
0.00117295
0.00117562
0.00117071
0.00117792
0.00116414
0.00120457
0.00120191
0.0012019
0.0011986
0.00120236
0.00119853
0.00119614
0.00119477
0.0011901
0.00117581
0.00116857
0.0011691
0.00117678
0.00117102
0.00120381
0.00120308
0.00120181
0.00119946
0.00120004
0.0012002
0.001196
0.00120085
0.001195
0.00119087
0.00118698
0.00117261
0.00116882
0.00117012
0.00120426
0.00119852
0.00119753
0.00119988
0.0012002
0.00119942
0.00119962
0.00119672
0.0012005
0.00119562
0.00119909
0.00119204
0.00119187
0.00118619
0.00117424
0.00121039
0.00120806
0.00120215
0.00119599
0.00119593
0.00119762
0.00119895
0.00119762
0.00119864
0.00119634
0.00119892
0.00119546
0.00119679
0.00119717
0.00118598
0.001215
0.00121198
0.00120846
0.0012079
0.00120102
0.00119603
0.00119459
0.00119612
0.00119805
0.00119757
0.00119805
0.00119689
0.00119706
0.00119834
0.00119441
0.00121593
0.00121171
0.00121334
0.00120954
0.00121001
0.00120603
0.00120276
0.00119612
0.00119271
0.00119367
0.00119529
0.00119703
0.00119767
0.00119824
0.00119702
0.00121257
0.00121331
0.00121083
0.00121232
0.00121049
0.00121028
0.00121245
0.00120615
0.00120673
0.00120591
0.00120005
0.00119728
0.00119311
0.00119225
0.00119431
0.00119618
0.00121096
0.00121065
0.00120969
0.00121018
0.00120998
0.00120962
0.00121138
0.00120877
0.00121008
0.00120953
0.00120985
0.00120342
0.00120759
0.00120663
0.00120194
0.00119607
0.00120893
0.00120849
0.00120818
0.00120841
0.00120866
0.00120874
0.00120942
0.00120911
0.0012098
0.00120984
0.00121077
0.00120893
0.00121085
0.0012109
0.00121028
0.00120717
0.00120679
0.00120653
0.00120651
0.00120685
0.00120726
0.00120762
0.00120806
0.00120838
0.00120887
0.00120927
0.00120985
0.00121
0.00121078
0.00121118
0.00121154
0.00121163
0.00120474
0.0012047
0.00120489
0.00120539
0.00120596
0.00120648
0.00120699
0.00120749
0.00120802
0.00120855
0.0012091
0.00120961
0.0012102
0.00121073
0.00121118
0.00121203
0.00120288
0.00120305
0.00120343
0.00120409
0.0012048
0.00120546
0.00120608
0.00120669
0.0012073
0.00120791
0.00120852
0.00120911
0.00120972
0.00121033
0.0012108
0.00121175
0.00120128
0.00120165
0.00120218
0.00120298
0.00120381
0.00120459
0.00120531
0.00120601
0.0012067
0.00120738
0.00120805
0.0012087
0.00120934
0.00121001
0.00121051
0.00121149
0.00120016
0.00120065
0.00120129
0.0012022
0.00120312
0.00120397
0.00120476
0.00120553
0.00120628
0.00120701
0.00120772
0.00120842
0.00120909
0.00120979
0.00121031
0.00121132
0.00118334
0.0011856
0.00118406
0.0011828
0.00118311
0.00117559
0.0011532
0.00114847
0.00114724
0.00115621
0.00114316
0.00112258
0.00118042
0.0011797
0.00118298
0.00118147
0.00118343
0.00118089
0.00117799
0.00116067
0.0011453
0.00115023
0.00115844
0.00113586
0.00120187
0.0011974
0.00118255
0.00117793
0.00118107
0.00118266
0.00117985
0.00118171
0.00117537
0.00116807
0.00114448
0.00114906
0.0011413
0.00120837
0.00120229
0.00119986
0.00119045
0.00117844
0.00118095
0.00118438
0.0011812
0.00118583
0.00117413
0.00116998
0.00115598
0.00114535
0.00121172
0.00120589
0.00120693
0.00120179
0.00119841
0.00118233
0.00117786
0.00117791
0.00118379
0.00117868
0.00117504
0.0011775
0.00116229
0.00121156
0.00121104
0.00120973
0.00120602
0.00121039
0.0012029
0.00119997
0.00118931
0.00117775
0.00118017
0.0011836
0.00117816
0.0011856
0.00117194
0.00121271
0.00121004
0.00121027
0.00120644
0.00121048
0.0012067
0.00120422
0.00120215
0.00119817
0.00118451
0.00117637
0.00117607
0.00118457
0.00117886
0.00121134
0.0012114
0.00121057
0.00120776
0.00120829
0.00120869
0.00120403
0.00120866
0.00120361
0.00119842
0.00119528
0.00118092
0.00117628
0.00117742
0.00121297
0.00120716
0.00120576
0.00120837
0.0012089
0.00120802
0.00120837
0.00120484
0.00120898
0.00120388
0.0012072
0.00120034
0.00119939
0.00119425
0.00118242
0.00121914
0.00121682
0.00121174
0.00120517
0.00120445
0.00120606
0.0012078
0.0012062
0.00120738
0.00120461
0.00120739
0.00120365
0.00120461
0.00120553
0.00119389
0.00122426
0.00122197
0.00121784
0.00121725
0.00121072
0.00120531
0.0012033
0.00120455
0.00120681
0.00120625
0.00120677
0.0012053
0.0012052
0.0012066
0.00120232
0.00122589
0.00122187
0.00122326
0.00121956
0.00121955
0.00121543
0.00121242
0.00120579
0.00120162
0.00120212
0.00120366
0.00120544
0.00120613
0.00120666
0.00120519
0.00122352
0.00122427
0.00122156
0.00122293
0.00122096
0.00122006
0.00122243
0.00121616
0.00121569
0.00121521
0.00120936
0.00120654
0.00120203
0.00120051
0.00120225
0.00120423
0.00122245
0.00122218
0.00122097
0.0012212
0.00122077
0.00121987
0.00122175
0.00121879
0.00121967
0.00121897
0.00121951
0.00121255
0.00121584
0.00121544
0.00121099
0.00120476
0.00122093
0.00122043
0.00121988
0.00121977
0.00121972
0.00121943
0.00121999
0.00121936
0.00121981
0.00121958
0.00122052
0.00121821
0.00121982
0.00121987
0.00121925
0.00121556
0.00121925
0.00121885
0.00121857
0.00121853
0.00121859
0.00121863
0.00121882
0.00121887
0.00121913
0.00121927
0.00121968
0.00121953
0.00122009
0.00122031
0.00122052
0.00122021
0.00121757
0.00121736
0.00121726
0.00121736
0.00121754
0.00121774
0.00121796
0.00121819
0.00121846
0.00121874
0.00121905
0.00121932
0.00121968
0.00121999
0.00122024
0.00122076
0.00121602
0.00121599
0.00121605
0.00121629
0.00121659
0.00121691
0.00121722
0.00121754
0.00121789
0.00121823
0.00121859
0.00121894
0.00121931
0.00121968
0.00121995
0.00122057
0.00121466
0.00121479
0.001215
0.00121536
0.00121577
0.00121619
0.00121659
0.00121699
0.0012174
0.00121781
0.00121822
0.00121862
0.00121902
0.00121943
0.00121972
0.00122038
0.00121372
0.00121395
0.00121425
0.0012147
0.0012152
0.00121568
0.00121614
0.0012166
0.00121706
0.00121751
0.00121795
0.0012184
0.00121881
0.00121926
0.00121957
0.00122025
0.0011804
0.00118293
0.00118158
0.00118049
0.0011806
0.00117284
0.00115057
0.0011456
0.00114441
0.00115413
0.00114017
0.00111983
0.00117743
0.00117661
0.00118041
0.00117883
0.00118069
0.00117821
0.00117499
0.00115852
0.00114205
0.00114727
0.00115623
0.00113367
0.00119863
0.0011941
0.00117976
0.00117467
0.00117801
0.00118014
0.00117689
0.00117908
0.00117221
0.00116575
0.00114186
0.00114647
0.00113868
0.0012053
0.00119937
0.00119634
0.00118776
0.00117526
0.00117759
0.0011816
0.00117846
0.00118308
0.00117174
0.00116715
0.00115338
0.00114217
0.00120861
0.00120254
0.00120379
0.00119831
0.00119539
0.0011798
0.00117498
0.00117469
0.00118116
0.00117589
0.001172
0.00117424
0.00115944
0.00120795
0.00120769
0.0012065
0.00120279
0.00120696
0.00120012
0.00119682
0.00118683
0.00117448
0.00117673
0.00118088
0.00117512
0.0011827
0.00116922
0.00120951
0.00120678
0.00120725
0.00120306
0.00120735
0.00120372
0.00120131
0.00119875
0.00119517
0.00118223
0.00117353
0.00117245
0.00118164
0.00117613
0.00120744
0.00120802
0.00120766
0.00120457
0.0012051
0.0012058
0.00120091
0.00120529
0.00120104
0.00119515
0.00119257
0.00117838
0.0011731
0.00117414
0.00120951
0.00120387
0.0012021
0.00120492
0.00120576
0.00120492
0.00120555
0.00120155
0.00120602
0.00120092
0.00120413
0.00119759
0.00119613
0.00119135
0.00117975
0.00121551
0.00121308
0.00120874
0.00120217
0.00120103
0.00120258
0.0012048
0.00120309
0.00120455
0.00120148
0.00120449
0.00120068
0.00120136
0.0012028
0.00119101
0.00122053
0.00121882
0.00121449
0.00121395
0.00120791
0.00120241
0.0012001
0.00120111
0.00120378
0.00120327
0.00120399
0.00120238
0.00120211
0.00120372
0.00119929
0.00122253
0.00121872
0.00121998
0.00121654
0.00121643
0.00121229
0.00120962
0.00120328
0.0011987
0.00119888
0.00120043
0.00120232
0.00120319
0.00120381
0.00120227
0.00122052
0.00122134
0.00121856
0.00121996
0.00121814
0.00121686
0.00121948
0.00121356
0.00121242
0.00121226
0.00120658
0.00120391
0.00119933
0.00119741
0.0011989
0.00120107
0.00121963
0.00121945
0.00121817
0.00121839
0.00121802
0.00121683
0.00121898
0.00121599
0.00121667
0.00121596
0.00121687
0.00120976
0.00121242
0.00121248
0.0012084
0.0012021
0.00121832
0.00121782
0.00121724
0.00121708
0.001217
0.00121659
0.00121725
0.00121656
0.00121701
0.00121669
0.00121784
0.00121534
0.00121679
0.00121697
0.00121653
0.00121257
0.00121684
0.00121638
0.00121607
0.00121595
0.00121595
0.00121592
0.00121612
0.00121614
0.0012164
0.0012165
0.00121696
0.00121673
0.00121725
0.00121748
0.00121772
0.00121724
0.00121535
0.00121504
0.00121489
0.00121489
0.00121498
0.00121512
0.00121532
0.00121552
0.00121578
0.00121604
0.00121634
0.00121658
0.00121693
0.00121721
0.00121745
0.00121785
0.00121396
0.0012138
0.00121379
0.00121392
0.00121412
0.00121436
0.00121464
0.00121493
0.00121525
0.00121558
0.00121592
0.00121624
0.00121659
0.00121693
0.00121718
0.0012177
0.00121275
0.00121273
0.00121284
0.00121307
0.00121338
0.00121371
0.00121406
0.00121444
0.00121481
0.0012152
0.00121558
0.00121595
0.00121632
0.0012167
0.00121697
0.00121752
0.00121193
0.001212
0.00121219
0.0012125
0.00121287
0.00121326
0.00121367
0.00121409
0.00121451
0.00121493
0.00121534
0.00121575
0.00121614
0.00121655
0.00121684
0.00121741
0.00117071
0.0011734
0.00117214
0.00117123
0.00117114
0.00116316
0.00114112
0.00113589
0.00113469
0.00114514
0.0011304
0.00111021
0.00116785
0.00116679
0.00117096
0.00116937
0.00117108
0.00116868
0.00116507
0.00114949
0.00113206
0.00113744
0.00114702
0.00112457
0.00118874
0.00118409
0.00117022
0.00116468
0.00116808
0.00117073
0.00116711
0.00116954
0.00116225
0.00115642
0.00113242
0.00113706
0.00112925
0.00119542
0.00118966
0.00118602
0.00117814
0.00116534
0.00116742
0.00117186
0.00116888
0.00117338
0.00116249
0.00115746
0.00114401
0.00113227
0.00119882
0.00119248
0.00119378
0.00118806
0.0011854
0.00117037
0.0011653
0.00116467
0.00117164
0.00116629
0.00116216
0.00116418
0.00114973
0.00119768
0.00119766
0.00119644
0.00119277
0.00119662
0.0011904
0.00118679
0.00117745
0.0011645
0.00116646
0.00117123
0.00116527
0.00117292
0.00115964
0.00119952
0.00119671
0.00119731
0.00119285
0.00119726
0.00119382
0.0011915
0.00118857
0.00118516
0.00117297
0.00116394
0.00116205
0.0011718
0.00116655
0.00119692
0.00119777
0.00119782
0.00119448
0.00119498
0.00119593
0.00119094
0.00119497
0.00119148
0.00118505
0.00118287
0.00116895
0.00116316
0.00116405
0.00119922
0.00119384
0.00119166
0.00119453
0.00119563
0.00119484
0.00119577
0.00119138
0.00119603
0.00119104
0.00119409
0.00118792
0.00118602
0.00118151
0.00117019
0.00120512
0.00120245
0.00119865
0.00119223
0.00119073
0.00119213
0.0011948
0.00119301
0.00119473
0.00119141
0.00119459
0.00119079
0.00119118
0.0011931
0.00118128
0.00120993
0.00120857
0.00120413
0.00120356
0.00119797
0.00119252
0.00118998
0.00119071
0.00119371
0.00119328
0.0011942
0.00119251
0.00119207
0.00119388
0.00118937
0.00121221
0.00120856
0.00120959
0.00120636
0.00120621
0.00120206
0.00119965
0.00119367
0.00118883
0.0011887
0.00119024
0.00119221
0.00119325
0.001194
0.00119243
0.00121051
0.00121131
0.00120844
0.00120976
0.00120812
0.00120654
0.00120928
0.00120379
0.00120214
0.00120218
0.0011967
0.00119419
0.00118964
0.00118741
0.00118865
0.00119097
0.00120977
0.00120955
0.00120817
0.00120832
0.00120804
0.0012066
0.00120895
0.00120603
0.00120651
0.00120578
0.00120704
0.00119993
0.00120202
0.00120242
0.00119872
0.00119246
0.00120864
0.00120802
0.00120734
0.00120711
0.00120703
0.00120651
0.00120726
0.00120655
0.00120699
0.00120661
0.00120797
0.00120535
0.00120666
0.00120696
0.00120673
0.00120263
0.00120732
0.00120669
0.00120627
0.00120606
0.00120601
0.00120593
0.00120615
0.00120616
0.00120643
0.00120651
0.00120704
0.00120678
0.00120728
0.00120753
0.00120784
0.00120726
0.00120599
0.00120547
0.00120519
0.00120508
0.0012051
0.0012052
0.00120538
0.00120557
0.00120584
0.00120609
0.00120642
0.00120666
0.001207
0.0012073
0.00120756
0.0012079
0.00120475
0.00120436
0.00120419
0.00120419
0.0012043
0.00120449
0.00120474
0.00120502
0.00120534
0.00120566
0.001206
0.00120634
0.00120668
0.00120703
0.00120729
0.00120776
0.00120368
0.00120339
0.00120333
0.00120342
0.00120362
0.00120389
0.00120421
0.00120456
0.00120492
0.0012053
0.00120569
0.00120606
0.00120643
0.00120681
0.0012071
0.0012076
0.00120298
0.00120276
0.00120276
0.00120292
0.00120317
0.00120349
0.00120386
0.00120424
0.00120465
0.00120506
0.00120547
0.00120588
0.00120627
0.00120668
0.00120698
0.0012075
0.00115582
0.00115861
0.00115741
0.0011567
0.0011564
0.00114821
0.00112656
0.00112105
0.0011198
0.00113094
0.00111559
0.00109547
0.00115324
0.00115189
0.00115632
0.00115477
0.00115629
0.00115399
0.00114994
0.00113528
0.00111707
0.00112249
0.00113257
0.00111032
0.00117377
0.00116899
0.00115562
0.00114968
0.00115301
0.00115614
0.00115225
0.00115481
0.0011472
0.00114184
0.00111794
0.00112256
0.00111472
0.00118045
0.00117487
0.00117062
0.00116335
0.00115045
0.00115219
0.00115693
0.0011542
0.00115848
0.00114813
0.00114264
0.00112959
0.00111739
0.00118403
0.00117749
0.00117868
0.00117283
0.00117026
0.00115585
0.00115061
0.00114962
0.00115699
0.00115165
0.00114728
0.00114905
0.00113491
0.00118256
0.00118275
0.00118143
0.00117779
0.00118124
0.00117561
0.00117169
0.00116299
0.0011496
0.00115117
0.00115645
0.00115039
0.00115804
0.00114498
0.0011847
0.0011818
0.00118244
0.00117773
0.00118214
0.0011789
0.00117665
0.00117343
0.00117004
0.0011586
0.00114942
0.0011467
0.00115687
0.00115189
0.00118172
0.00118269
0.00118308
0.00117952
0.00117991
0.00118105
0.00117606
0.00117963
0.00117684
0.00116998
0.00116807
0.00115449
0.00114831
0.00114897
0.00118427
0.00117916
0.00117659
0.00117936
0.00118062
0.00117986
0.00118103
0.00117632
0.00118102
0.00117621
0.001179
0.00117323
0.00117093
0.00116661
0.00115558
0.0011902
0.00118723
0.00118377
0.00117754
0.00117572
0.00117687
0.00117988
0.00117802
0.00117994
0.00117641
0.00117967
0.00117593
0.00117599
0.00117833
0.00116653
0.00119488
0.00119366
0.00118913
0.0011884
0.0011832
0.00117781
0.0011751
0.00117548
0.0011787
0.00117833
0.00117943
0.00117769
0.00117705
0.00117904
0.00117444
0.00119744
0.00119386
0.00119456
0.00119146
0.00119123
0.00118705
0.00118479
0.00117916
0.00117415
0.00117368
0.00117515
0.00117715
0.00117831
0.0011792
0.0011776
0.00119623
0.00119687
0.00119383
0.00119494
0.00119342
0.00119154
0.00119425
0.0011892
0.00118706
0.0011872
0.00118188
0.00117952
0.00117505
0.00117254
0.00117351
0.00117589
0.00119569
0.00119529
0.00119369
0.00119368
0.00119343
0.00119171
0.00119414
0.00119128
0.00119155
0.00119075
0.00119224
0.00118523
0.00118674
0.00118737
0.00118404
0.00117784
0.00119479
0.00119391
0.00119302
0.00119261
0.00119247
0.00119177
0.00119254
0.00119177
0.00119217
0.00119167
0.00119319
0.00119049
0.0011916
0.00119198
0.00119194
0.00118773
0.00119368
0.00119274
0.00119208
0.00119169
0.00119151
0.00119131
0.00119147
0.00119143
0.00119166
0.00119169
0.00119224
0.00119193
0.00119238
0.00119264
0.00119299
0.00119232
0.00119256
0.00119169
0.00119114
0.00119082
0.00119069
0.00119066
0.00119076
0.0011909
0.00119111
0.00119133
0.00119163
0.00119185
0.00119217
0.00119245
0.0011927
0.001193
0.00119152
0.00119073
0.00119027
0.00119004
0.00118997
0.00119003
0.00119018
0.00119039
0.00119065
0.00119094
0.00119124
0.00119155
0.00119187
0.0011922
0.00119246
0.00119288
0.00119061
0.0011899
0.00118952
0.00118937
0.00118937
0.0011895
0.0011897
0.00118997
0.00119028
0.00119061
0.00119095
0.0011913
0.00119164
0.001192
0.00119228
0.00119273
0.00119005
0.00118939
0.00118905
0.00118893
0.00118899
0.00118915
0.0011894
0.0011897
0.00119004
0.0011904
0.00119076
0.00119114
0.0011915
0.00119188
0.00119217
0.00119264
0.00113645
0.00113926