/*--------------------------------*- C++ -*----------------------------------*\
  =========                 |
  \\      /  F ield         | OpenFOAM: The Open Source CFD Toolbox
   \\    /   O peration     | Website:  https://openfoam.org
    \\  /    A nd           | Version:  6
     \\/     M anipulation  |
\*---------------------------------------------------------------------------*/
FoamFile
{
    version     2.0;
    format      ascii;
    class       volScalarField;
    location    "0.2";
    object      omega;
}
// * * * * * * * * * * * * * * * * * * * * * * * * * * * * * * * * * * * * * //

dimensions      [0 0 -1 0 0 0 0];

internalField   nonuniform List<scalar> 
63432
(
843.917
843.917
843.917
843.917
843.917
843.917
843.917
843.917
843.917
843.917
843.917
843.917
843.917
843.917
843.917
843.917
843.917
843.917
843.917
843.917
843.917
843.917
843.917
843.917
843.917
843.917
843.917
843.917
843.917
843.917
843.917
843.917
843.917
843.917
843.917
843.917
843.917
843.917
843.917
843.917
843.917
843.917
843.917
843.917
843.917
843.917
843.917
843.917
843.917
843.917
843.917
843.917
843.917
843.917
843.917
843.917
843.917
843.917
843.917
843.917
843.917
843.917
843.917
843.917
843.917
843.917
843.917
843.917
843.917
843.917
843.917
843.917
843.917
843.917
843.917
843.917
843.917
843.917
843.917
843.917
843.917
843.917
843.917
843.917
843.917
843.917
843.917
843.917
843.917
843.917
843.917
843.917
843.917
843.917
843.917
843.917
843.917
843.917
843.917
843.917
843.917
843.917
843.917
843.917
843.917
843.917
843.917
843.917
843.917
843.917
843.917
843.917
843.917
843.917
843.917
843.917
843.917
843.917
843.917
843.917
843.917
843.917
843.917
843.917
843.917
843.917
843.917
843.917
843.917
843.917
843.917
843.917
843.917
843.917
843.917
843.917
843.917
843.917
843.917
843.917
843.917
843.917
843.917
843.917
843.917
843.917
843.917
843.917
843.917
843.917
843.917
843.917
843.917
843.917
843.917
843.917
843.917
843.917
843.917
843.917
843.917
843.917
843.917
843.917
843.917
843.917
843.917
843.917
843.917
843.917
843.917
843.917
843.917
843.917
843.917
843.917
843.917
843.917
843.917
843.917
843.917
843.917
843.917
843.917
843.917
843.917
843.917
843.917
843.917
843.917
843.917
843.917
843.917
843.917
843.917
843.917
843.917
843.917
843.917
843.917
843.917
843.917
843.917
843.917
843.917
843.917
843.917
843.917
843.917
843.917
843.917
843.917
843.917
843.917
843.917
843.917
843.917
843.917
843.917
843.917
843.917
843.917
843.917
843.917
843.917
843.917
843.917
843.917
843.917
843.917
843.917
843.917
843.917
843.917
843.917
843.917
843.917
843.917
843.917
843.917
843.917
843.917
843.917
843.917
843.917
843.917
843.917
843.917
843.917
843.917
843.917
843.917
843.917
843.917
843.917
843.917
843.917
843.917
843.917
843.917
843.917
843.917
843.917
843.917
843.917
843.917
843.917
843.917
843.917
843.917
843.917
843.917
843.917
843.917
843.917
843.917
843.917
843.917
843.917
843.917
843.917
843.917
843.917
843.917
843.917
843.917
843.917
843.917
843.917
843.917
843.917
843.917
843.917
263.729
263.667
263.608
263.567
263.395
263.363
263.268
263.333
263.269
263.21
263.076
262.979
262.812
262.976
262.915
262.908
262.945
262.826
262.932
262.938
262.968
262.937
262.929
262.946
262.17
262.433
262.41
262.614
262.621
262.67
262.752
262.727
262.831
262.977
262.942
263.033
263.116
261.706
261.717
261.967
262.088
262.277
262.358
262.437
262.503
262.552
262.549
262.625
262.771
262.926
260.994
261.141
261.165
261.432
261.768
261.849
261.986
262.073
262.196
262.283
262.312
262.429
262.672
260.001
260.24
260.439
260.536
260.707
260.871
261.21
261.43
261.699
261.837
261.974
262.128
262.143
262.259
259.105
259.408
259.639
259.851
260.077
260.259
260.43
260.826
261.262
261.462
261.619
261.805
261.93
262.07
258.082
258.494
258.806
259.104
259.406
259.686
259.946
260.219
260.465
260.814
261.233
261.476
261.619
261.742
256.644
257.142
257.569
257.956
258.334
258.705
259.064
259.406
259.725
259.961
260.246
260.502
260.859
261.275
261.53
255.354
256.125
256.674
257.132
257.572
258.004
258.42
258.816
259.193
259.52
259.855
260.108
260.373
260.642
260.868
254.077
254.814
255.514
256.249
256.858
257.357
257.79
258.242
258.664
259.042
259.416
259.749
260.077
260.325
260.583
252.953
253.753
254.461
255.123
255.858
256.607
257.276
257.722
258.152
258.562
258.972
259.361
259.713
260.008
260.294
251.003
251.98
252.814
253.587
254.292
254.974
255.697
256.292
256.902
257.598
258.195
258.625
258.968
259.341
259.673
259.999
249.911
250.989
251.906
252.762
253.562
254.319
255.02
255.654
256.257
256.861
257.42
257.84
258.335
258.963
259.468
259.778
248.879
250.054
251.065
252
252.88
253.703
254.461
255.163
255.823
256.412
256.957
257.458
257.922
258.394
258.813
259.172
247.964
249.227
250.321
251.327
252.272
253.151
253.963
254.714
255.41
256.044
256.629
257.177
257.681
258.126
258.537
258.932
247.184
248.526
249.689
250.757
251.757
252.685
253.542
254.331
255.059
255.728
256.344
256.915
257.438
257.914
258.355
258.767
246.557
247.963
249.183
250.302
251.347
252.316
253.208
254.029
254.785
255.48
256.119
256.708
257.249
257.747
258.206
258.629
246.103
247.557
248.82
249.977
251.055
252.054
252.972
253.817
254.593
255.306
255.962
256.566
257.121
257.631
258.101
258.534
245.831
247.316
248.607
249.787
250.887
251.904
252.839
253.698
254.487
255.212
255.877
256.489
257.052
257.57
258.047
258.486
129.543
129.441
129.35
129.269
129.189
128.938
128.41
128.287
128.229
128.233
127.925
127.447
128.945
128.953
128.943
128.912
128.911
128.783
128.707
128.24
128.046
128.036
128.026
127.701
129.165
129.093
128.786
128.768
128.76
128.742
128.741
128.716
128.627
128.32
127.923
127.984
127.993
129.098
129.008
129.044
128.748
128.609
128.637
128.65
128.629
128.678
128.398
128.375
128.089
128.005
128.831
128.824
128.817
128.8
128.656
128.344
128.359
128.417
128.481
128.431
128.421
128.447
128.126
128.456
128.47
128.514
128.504
128.594
128.423
128.491
128.3
128.245
128.3
128.338
128.363
128.409
128.214
128.015
128.075
128.137
128.174
128.259
128.242
128.273
128.396
128.309
128.073
128.079
128.209
128.281
128.271
127.539
127.644
127.73
127.812
127.907
127.985
128.048
128.207
128.122
128.226
128.187
128.017
128.046
128.126
126.934
127.018
127.185
127.331
127.444
127.558
127.676
127.789
127.932
127.962
128.119
128.069
128.224
128.163
128.012
126.51
126.71
126.772
126.878
127.054
127.219
127.364
127.5
127.645
127.762
127.909
127.973
128.115
128.133
128.087
126.015
126.197
126.438
126.641
126.718
126.857
127.029
127.223
127.39
127.53
127.676
127.805
127.949
128.04
128.129
125.475
125.719
126.021
126.191
126.482
126.669
126.824
126.908
127.078
127.273
127.451
127.62
127.765
127.884
127.995
124.658
124.994
125.287
125.589
125.827
126.105
126.369
126.51
126.817
127.01
127.123
127.249
127.356
127.531
127.701
127.844
124.14
124.521
124.858
125.179
125.475
125.77
126.049
126.282
126.559
126.78
126.983
127.105
127.416
127.554
127.627
127.692
123.65
124.074
124.452
124.803
125.137
125.458
125.762
126.045
126.325
126.574
126.807
127.013
127.244
127.418
127.569
127.706
123.211
123.674
124.087
124.47
124.833
125.178
125.506
125.815
126.109
126.38
126.634
126.873
127.101
127.3
127.484
127.658
122.831
123.329
123.773
124.183
124.572
124.94
125.288
125.616
125.924
126.212
126.481
126.733
126.968
127.182
127.383
127.566
122.519
123.046
123.516
123.95
124.359
124.747
125.112
125.455
125.777
126.078
126.359
126.62
126.864
127.089
127.299
127.49
122.283
122.834
123.324
123.776
124.202
124.604
124.983
125.338
125.67
125.98
126.27
126.539
126.79
127.022
127.239
127.434
122.128
122.694
123.199
123.664
124.101
124.513
124.901
125.264
125.604
125.921
126.216
126.491
126.746
126.982
127.204
127.403
78.7585
78.7148
78.6546
78.5933
78.568
78.3768
77.9771
77.8692
77.827
77.869
77.597
77.2284
78.5149
78.4796
78.4807
78.4543
78.4602
78.3668
78.2904
77.9332
77.7427
77.7493
77.7609
77.421
78.8119
78.6929
78.4558
78.4109
78.4192
78.4004
78.3721
78.3587
78.2528
78.0315
77.6681
77.6987
77.6436
78.8958
78.7822
78.7679
78.5576
78.3933
78.4012
78.4051
78.3587
78.3956
78.1476
78.0804
77.853
77.7286
78.8826
78.8178
78.8038
78.7318
78.6028
78.3158
78.2642
78.2852
78.3254
78.2394
78.2029
78.2225
77.9343
78.8382
78.7944
78.7706
78.7206
78.7629
78.5859
78.5379
78.3585
78.2447
78.2624
78.2644
78.2284
78.2846
78.0521
78.7131
78.6772
78.6649
78.6317
78.6589
78.5812
78.5425
78.5547
78.4508
78.1978
78.1204
78.1786
78.2391
78.1573
78.5717
78.557
78.5382
78.5246
78.5327
78.524
78.492
78.5684
78.4409
78.4071
78.3376
78.1313
78.0986
78.114
78.4307
78.3633
78.381
78.4135
78.4171
78.4169
78.4237
78.4227
78.4742
78.4165
78.4756
78.37
78.391
78.31
78.1065
78.3569
78.3584
78.2826
78.2334
78.2653
78.3049
78.3254
78.3352
78.3635
78.3675
78.4135
78.3861
78.4326
78.4003
78.2555
78.2537
78.2356
78.2427
78.2663
78.1919
78.1631
78.1867
78.2421
78.2835
78.3018
78.328
78.3453
78.3819
78.3959
78.3793
78.0804
78.0824
78.1566
78.1432
78.1988
78.1992
78.1812
78.1204
78.1338
78.1926
78.2446
78.2929
78.3237
78.348
78.3532
77.838
77.8999
77.9366
78.0085
78.0332
78.0947
78.1584
78.1131
78.1987
78.236
78.1926
78.1777
78.1636
78.2048
78.2676
78.3028
77.6474
77.7194
77.7822
77.8534
77.9119
77.9768
78.0461
78.073
78.1553
78.199
78.2287
78.1979
78.3292
78.3474
78.2931
78.2394
77.4587
77.5476
77.6289
77.7094
77.7852
77.86
77.934
77.9984
78.0724
78.1338
78.1909
78.2273
78.3058
78.338
78.3526
78.35
77.2821
77.3882
77.4852
77.5783
77.6667
77.7521
77.8343
77.9125
77.9894
78.0608
78.1271
78.1879
78.2522
78.3019
78.349
78.3831
77.1232
77.2454
77.3563
77.4616
77.5614
77.6566
77.7477
77.8345
77.9173
77.995
78.0676
78.1353
78.2001
78.256
78.3115
78.3521
76.986
77.1224
77.2456
77.3618
77.4715
77.5755
77.6745
77.7685
77.8574
77.9408
78.0185
78.0907
78.1584
78.219
78.2786
78.3231
76.8759
77.0241
77.1575
77.2826
77.4004
77.5116
77.6171
77.7168
77.8108
77.8987
77.9805
78.0564
78.1271
78.191
78.2533
78.3005
76.7944
76.9516
77.0929
77.2249
77.3487
77.4654
77.5758
77.6801
77.778
77.8694
77.9543
78.033
78.1061
78.1723
78.2363
78.2857
53.3531
53.3451
53.3097
53.2679
53.2617
53.1285
52.8269
52.7477
52.7176
52.7804
52.5586
52.2794
53.2475
53.2179
53.2286
53.206
53.219
53.1553
53.098
52.8372
52.6688
52.6919
52.7256
52.4312
53.4995
53.4051
53.2263
53.1825
53.2024
53.1969
53.165
53.1647
53.0719
52.9282
52.6297
52.654
52.5836
53.5994
53.503
53.4791
53.3416
53.202
53.2114
53.2244
53.1793
53.2159
53.0246
52.9585
52.7809
52.6649
53.6476
53.5783
53.5724
53.5041
53.4205
53.2
53.1408
53.1464
53.1879
53.1065
53.0666
53.0845
52.8661
53.6798
53.641
53.6098
53.5599
53.5912
53.4591
53.3957
53.2553
53.1419
53.1558
53.1596
53.1087
53.1687
52.9702
53.6603
53.6125
53.5916
53.5469
53.5674
53.4954
53.4478
53.4296
53.356
53.1561
53.0635
53.0883
53.1506
53.0655
53.6253
53.5955
53.5603
53.526
53.5188
53.4987
53.4464
53.4946
53.3933
53.327
53.2722
53.0978
53.0499
53.0494
53.6223
53.5358
53.5136
53.521
53.5057
53.4833
53.4686
53.4375
53.4679
53.399
53.4271
53.3313
53.3146
53.2504
53.0788
53.6487
53.6071
53.5226
53.4442
53.4357
53.4447
53.4411
53.42
53.4211
53.3953
53.4153
53.3692
53.3843
53.3578
53.2111
53.6642
53.611
53.5587
53.5409
53.4529
53.3894
53.3715
53.3868
53.3982
53.3864
53.3833
53.3692
53.3745
53.3715
53.3293
53.6251
53.5702
53.5762
53.5261
53.517
53.4755
53.4285
53.3464
53.3142
53.329
53.3451
53.3592
53.3608
53.359
53.3388
53.5666
53.557
53.5241
53.5309
53.5027
53.4996
53.5128
53.4338
53.4434
53.4434
53.3766
53.3335
53.2897
53.2873
53.313
53.3213
53.4976
53.4847
53.4697
53.4703
53.4638
53.4624
53.4748
53.4465
53.4659
53.4628
53.4516
53.3844
53.4425
53.4388
53.3713
53.2974
53.4225
53.4156
53.4109
53.4132
53.4158
53.4196
53.4279
53.4286
53.4408
53.4465
53.4537
53.4398
53.4671
53.4633
53.4451
53.4041
53.3477
53.3487
53.3518
53.3594
53.3679
53.377
53.3872
53.3967
53.4085
53.4193
53.4294
53.4362
53.4495
53.4547
53.4605
53.4529
53.2764
53.2856
53.2956
53.3091
53.3232
53.3371
53.3512
53.3652
53.3794
53.3929
53.4055
53.4167
53.4286
53.4363
53.4468
53.4448
53.2111
53.2279
53.2444
53.2636
53.2828
53.3011
53.3191
53.3367
53.3539
53.37
53.385
53.3985
53.4114
53.4212
53.4334
53.4339
53.1552
53.1786
53.2008
53.2249
53.2484
53.2706
53.2921
53.3127
53.3325
53.351
53.368
53.3834
53.3977
53.4091
53.4225
53.4244
53.1099
53.1388
53.1657
53.1938
53.2208
53.2461
53.2703
53.2936
53.3155
53.336
53.3547
53.3716
53.3872
53.3998
53.4141
53.4173
38.4245
38.4307
38.4093
38.3818
38.3805
38.2838
38.0469
37.9878
37.9656
38.0367
37.8563
37.6367
38.3665
38.3467
38.3639
38.3443
38.3585
38.3145
38.2717
38.077
37.9285
37.9604
38.0074
37.7632
38.564
38.4964
38.3585
38.3189
38.342
38.3467
38.3164
38.3248
38.2473
38.152
37.909
37.934
37.8664
38.6446
38.5708
38.5465
38.4528
38.3389
38.3508
38.3715
38.3342
38.3702
38.2256
38.1713
38.0285
37.9283
38.6928
38.6327
38.6341
38.5783
38.526
38.3606
38.3104
38.3099
38.3545
38.2869
38.2516
38.2671
38.1025
38.7245
38.6992
38.6751
38.6348
38.6625
38.5701
38.5175
38.4116
38.3105
38.3258
38.3381
38.2887
38.3469
38.1899
38.7307
38.6914
38.6778
38.6374
38.6601
38.6062
38.5677
38.5445
38.4955
38.348
38.2641
38.2731
38.3359
38.2664
38.7184
38.6981
38.6717
38.6388
38.6337
38.6208
38.5721
38.6091
38.5396
38.4762
38.4381
38.3013
38.2548
38.2542
38.7417
38.6703
38.6444
38.6508
38.6399
38.6204
38.6093
38.5754
38.6035
38.5454
38.5657
38.4912
38.4704
38.4221
38.2911
38.7828
38.7423
38.6786
38.6097
38.5946
38.5995
38.599
38.577
38.5776
38.5494
38.5663
38.5246
38.5317
38.5187
38.3969
38.8188
38.7752
38.7215
38.7017
38.6322
38.5751
38.5522
38.5586
38.5681
38.5552
38.551
38.5332
38.5329
38.5309
38.4909
38.8176
38.7643
38.758
38.7133
38.696
38.6546
38.6162
38.5485
38.5114
38.5149
38.5241
38.5321
38.5318
38.5274
38.5078
38.8051
38.7869
38.7473
38.7432
38.7128
38.6973
38.7042
38.637
38.6279
38.6237
38.5677
38.5312
38.4894
38.4778
38.4916
38.4981
38.7748
38.7506
38.7244
38.7133
38.6979
38.6844
38.6889
38.6564
38.6607
38.6516
38.6406
38.5777
38.6087
38.606
38.5529
38.4903
38.7385
38.7158
38.6966
38.6849
38.6749
38.6661
38.6634
38.6533
38.6534
38.649
38.6491
38.6279
38.6412
38.6347
38.6171
38.5755
38.7001
38.6814
38.6668
38.6576
38.6509
38.6455
38.6422
38.6388
38.6379
38.6369
38.6366
38.633
38.6357
38.6334
38.632
38.6187
38.6617
38.6476
38.637
38.6312
38.6275
38.625
38.6236
38.623
38.6232
38.6238
38.6244
38.6244
38.6255
38.6243
38.6256
38.6175
38.6252
38.6156
38.6089
38.6063
38.6056
38.6057
38.6066
38.608
38.6099
38.612
38.6138
38.6152
38.6168
38.6166
38.619
38.6124
38.5925
38.587
38.5838
38.5843
38.5862
38.5886
38.5915
38.5948
38.5983
38.6017
38.6047
38.6072
38.6096
38.6103
38.6132
38.6076
38.5653
38.5632
38.563
38.566
38.57
38.5742
38.5788
38.5837
38.5885
38.5931
38.5972
38.6006
38.6037
38.6051
38.6086
38.6037
28.8098
28.8202
28.8061
28.7883
28.7873
28.7138
28.525
28.4789
28.4616
28.5331
28.3852
28.2083
28.7724
28.7583
28.7778
28.7611
28.7733
28.7421
28.7079
28.5614
28.4309
28.4643
28.5161
28.3159
28.9248
28.8757
28.7688
28.7335
28.7546
28.7649
28.7372
28.7493
28.6848
28.6197
28.4222
28.4474
28.3869
28.9843
28.9289
28.9053
28.8394
28.747
28.7584
28.7817
28.7524
28.7849
28.6758
28.6318
28.5174
28.4315
29.0214
28.9714
28.9758
28.931
28.8977
28.7737
28.7338
28.7298
28.774
28.7198
28.6898
28.7023
28.5765
29.0404
29.0252
29.0076
28.9764
28.9998
28.9357
28.8954
28.817
28.73
28.7444
28.7622
28.7186
28.7713
28.649
29.0506
29.0205
29.0134
28.9794
29.0022
28.9637
28.9354
28.9135
28.8802
28.7732
28.7034
28.7029
28.7624
28.7088
29.0399
29.0287
29.0126
28.985
28.9828
28.9773
28.9369
28.9658
28.9206
28.8671
28.8416
28.7364
28.6957
28.6962
29.0626
29.0092
28.9865
28.9941
28.989
28.9753
28.9705
28.9399
28.9667
28.9219
28.9387
28.8834
28.8654
28.8295
28.7316
29.0971
29.0647
29.0209
28.9677
28.9536
28.958
28.9628
28.9452
28.9492
28.9247
28.9414
28.9082
28.9126
28.9097
28.8138
29.1279
29.0979
29.0547
29.0397
28.9899
28.9459
28.9263
28.9301
28.9415
28.9325
28.9319
28.9167
28.916
28.9176
28.8849
29.1345
29.0933
29.087
29.0538
29.0403
29.0072
28.9811
28.9316
28.8999
28.9004
28.9084
28.9158
28.9179
28.9157
28.9012
29.1317
29.117
29.0841
29.0806
29.0577
29.0425
29.0503
29.0013
28.9894
28.9873
28.946
28.9206
28.8875
28.8758
28.8847
28.8929
29.114
29.0937
29.0712
29.0615
29.0492
29.0362
29.042
29.0162
29.0177
29.0108
29.0064
28.9565
28.9752
28.9761
28.9391
28.8918
29.0918
29.0714
29.0542
29.0432
29.0344
29.026
29.0243
29.0157
29.0153
29.0113
29.0131
28.9951
29.0041
29.0009
28.9896
28.9562
29.0677
29.0493
29.0353
29.0257
29.0188
29.0133
29.0101
29.0067
29.0056
29.0042
29.0043
29.0008
29.0025
29.0012
29.0005
28.9898
29.0432
29.0276
29.0161
29.0087
29.0036
29.0001
28.9979
28.9966
28.9961
28.9959
28.9961
28.9958
28.9963
28.9953
28.9963
28.9902
29.0196
29.0068
28.9978
28.9925
28.9894
28.9876
28.9868
28.9869
28.9875
28.9883
28.9892
28.9899
28.9907
28.9904
28.992
28.9871
28.9982
28.9881
28.9814
28.9781
28.9767
28.9764
28.977
28.9783
28.9799
28.9816
28.9833
28.9847
28.986
28.9863
28.9883
28.984
28.9808
28.9728
28.968
28.9664
28.9663
28.9672
28.9689
28.9711
28.9736
28.9761
28.9784
28.9805
28.9823
28.983
28.9854
28.9816
22.2327
22.2433
22.2333
22.2219
22.2201
22.1621
22.011
21.9736
21.9593
22.0273
21.9049
21.7598
22.2075
22.1962
22.2152
22.2013
22.2108
22.188
22.159
22.0484
21.9343
21.9653
22.0168
21.8525
22.3259
22.2889
22.2059
22.1747
22.192
22.2047
22.1798
22.1926
22.1386
22.0928
21.9318
21.956
21.9027
22.3698
22.3278
22.305
22.2576
22.1828
22.1919
22.2145
22.192
22.2194
22.1369
22.0998
22.0091
21.9347
22.3975
22.3559
22.3603
22.3243
22.3018
22.2085
22.1769
22.1707
22.2117
22.1686
22.1427
22.1523
22.0542
22.4072
22.398
22.3845
22.3601
22.3781
22.3334
22.3022
22.2445
22.1707
22.1824
22.2022
22.1648
22.2107
22.1148
22.417
22.3936
22.39
22.3614
22.3818
22.3543
22.3336
22.3142
22.2902
22.2125
22.156
22.1491
22.2031
22.162
22.4059
22.3995
22.3904
22.3674
22.3665
22.3652
22.3328
22.3544
22.3255
22.2815
22.2644
22.1831
22.1488
22.1492
22.4245
22.3851
22.3656
22.3726
22.3707
22.3611
22.3604
22.3339
22.3577
22.3238
22.3374
22.2967
22.2814
22.2546
22.1811
22.4509
22.4248
22.3946
22.3547
22.3423
22.3455
22.353
22.3392
22.3453
22.3247
22.3402
22.3144
22.3169
22.3198
22.2449
22.4737
22.4527
22.4192
22.4078
22.3726
22.3396
22.324
22.3257
22.3376
22.3316
22.3336
22.3215
22.3206
22.3246
22.2983
22.4811
22.4499
22.4442
22.42
22.4103
22.3848
22.3672
22.3321
22.3067
22.3057
22.3126
22.3195
22.3231
22.3229
22.3125
22.4818
22.4699
22.4436
22.4406
22.4241
22.4109
22.4186
22.3842
22.3728
22.3723
22.3424
22.3254
22.3005
22.2903
22.2961
22.3046
22.4698
22.4533
22.4349
22.427
22.4181
22.4069
22.4133
22.3942
22.3948
22.39
22.39
22.3522
22.3637
22.3666
22.3417
22.3068
22.4547
22.4373
22.423
22.4138
22.4071
22.4002
22.4
22.3936
22.3939
22.391
22.3945
22.3805
22.3872
22.3865
22.3802
22.3547
22.4381
22.4218
22.4096
22.4013
22.3956
22.3913
22.3893
22.3872
22.3868
22.3863
22.3874
22.3852
22.3871
22.387
22.3875
22.3799
22.4212
22.4066
22.3961
22.3892
22.3848
22.3819
22.3804
22.3798
22.3799
22.3804
22.3812
22.3816
22.3828
22.3828
22.3843
22.3806
22.405
22.3921
22.3833
22.3779
22.3746
22.3729
22.3724
22.3728
22.3736
22.3748
22.3761
22.3773
22.3787
22.3792
22.3812
22.3784
22.3903
22.3791
22.3719
22.3677
22.3657
22.365
22.3655
22.3666
22.3682
22.37
22.3719
22.3736
22.3753
22.3762
22.3785
22.3762
22.3788
22.369
22.3629
22.3599
22.3587
22.3588
22.3599
22.3617
22.3639
22.3663
22.3686
22.3707
22.3727
22.3739
22.3765
22.3744
17.5263
17.5358
17.5282
17.5212
17.5186
17.4713
17.3498
17.3185
17.3062
17.3691
17.2669
17.146
17.5094
17.4996
17.5169
17.5058
17.5128
17.4958
17.4702
17.386
17.2866
17.3138
17.3623
17.2267
17.6031
17.574
17.5093
17.482
17.4953
17.5087
17.4868
17.4988
17.4533
17.4198
17.2877
17.3102
17.2634
17.6365
17.6041
17.5823
17.5474
17.4868
17.4933
17.5135
17.4966
17.5188
17.4559
17.4236
17.3517
17.2868
17.658
17.6233
17.6263
17.5969
17.5807
17.5098
17.4847
17.477
17.5137
17.4794
17.4566
17.4638
17.3855
17.6627
17.6569
17.6457
17.6261
17.6391
17.6075
17.5825
17.5399
17.4776
17.4861
17.5058
17.4737
17.5132
17.437
17.6717
17.653
17.6508
17.6265
17.6435
17.6234
17.6079
17.5911
17.5725
17.5154
17.4702
17.4589
17.5067
17.4748
17.6614
17.657
17.6519
17.6324
17.6316
17.6324
17.6064
17.6217
17.6034
17.5671
17.5552
17.4917
17.4631
17.4627
17.6771
17.6476
17.6305
17.6357
17.635
17.6277
17.6292
17.6063
17.6263
17.6006
17.6109
17.5808
17.5675
17.5471
17.491
17.6977
17.6759
17.6539
17.6237
17.6127
17.6142
17.6223
17.6111
17.6177
17.6003
17.6138
17.5938
17.5943
17.6002
17.5413
17.7148
17.6987
17.6722
17.6627
17.6372
17.6123
17.5996
17.5995
17.6103
17.6061
17.6092
17.5997
17.5982
17.6034
17.5819
17.7221
17.6975
17.6915
17.6729
17.6655
17.6455
17.6331
17.6079
17.5877
17.5856
17.5911
17.5969
17.6008
17.6019
17.594
17.7262
17.7152
17.6933
17.6896
17.6771
17.6655
17.6716
17.6473
17.6368
17.6367
17.6147
17.6031
17.5845
17.5757
17.5792
17.5869
17.7183
17.7035
17.6874
17.68
17.6729
17.6628
17.6683
17.6541
17.6536
17.6499
17.6519
17.6234
17.63
17.6333
17.6165
17.5908
17.7082
17.6921
17.6791
17.6705
17.6646
17.6584
17.6584
17.6534
17.6535
17.6511
17.655
17.6441
17.6487
17.6491
17.646
17.6264
17.6969
17.6812
17.6696
17.6616
17.6562
17.6521
17.6504
17.6486
17.6484
17.648
17.6494
17.6478
17.6494
17.6499
17.6509
17.6453
17.6853
17.6706
17.66
17.6529
17.6482
17.6453
17.6438
17.6431
17.6432
17.6437
17.6446
17.6452
17.6464
17.6468
17.6484
17.6461
17.6742
17.6606
17.651
17.6448
17.641
17.6388
17.6379
17.6379
17.6386
17.6396
17.6408
17.642
17.6433
17.6441
17.646
17.6444
17.6642
17.6516
17.643
17.6377
17.6346
17.6332
17.6329
17.6335
17.6346
17.6361
17.6377
17.6392
17.6409
17.6419
17.644
17.6428
17.6566
17.6448
17.637
17.6323
17.6298
17.6289
17.6291
17.6301
17.6316
17.6334
17.6353
17.6371
17.639
17.6403
17.6426
17.6415
14.038
14.0461
14.0401
14.0359
14.0327
13.9932
13.8945
13.8678
13.857
13.9143
13.8283
13.7258
14.0269
14.0181
14.0333
14.0245
14.0295
14.0166
13.9934
13.9286
13.8419
13.8653
13.9098
13.7969
14.1025
14.0787
14.0279
14.0042
14.014
14.0272
14.0081
14.0187
13.9802
13.9546
13.8453
13.8658
13.8247
14.1288
14.1033
14.0828
14.0564
14.0071
14.0113
14.0288
14.0161
14.0337
13.9854
13.9564
13.8993
13.8421
14.1464
14.1173
14.1185
14.0944
14.0818
14.0271
14.0069
13.9985
14.0307
14.0034
13.9829
13.9882
13.9243
14.1488
14.145
14.1352
14.1191
14.1279
14.1051
14.0845
14.0525
14
14.0056
14.0242
13.9966
14.0304
13.9688
14.1573
14.1419
14.1401
14.1193
14.1328
14.1178
14.1058
14.0912
14.076
14.0332
13.9972
13.9831
14.025
13.9999
14.1488
14.1448
14.1419
14.1251
14.124
14.1255
14.1045
14.115
14.1033
14.073
14.0644
14.014
13.9902
13.9888
14.1626
14.1399
14.1248
14.1279
14.1274
14.1214
14.1239
14.1041
14.1202
14.1005
14.1079
14.0854
14.0735
14.0575
14.0138
14.1795
14.1606
14.1435
14.1202
14.1104
14.1102
14.1178
14.1083
14.1146
14.0999
14.111
14.0954
14.0943
14.1013
14.0543
14.1931
14.1796
14.1579
14.1493
14.1301
14.1108
14.1004
14.0988
14.108
14.1047
14.1081
14.1005
14.0983
14.1039
14.086
14.2005
14.1801
14.1733
14.1582
14.152
14.1358
14.1263
14.1079
14.0918
14.0888
14.0929
14.0975
14.1009
14.1026
14.0964
14.2082
14.197
14.1778
14.173
14.1627
14.1521
14.1561
14.1385
14.1288
14.1285
14.112
14.1037
14.0896
14.0819
14.0838
14.0901
14.2037
14.1893
14.1743
14.1665
14.1601
14.1506
14.1545
14.1435
14.1421
14.1387
14.1412
14.1195
14.1227
14.1256
14.1142
14.0949
14.1975
14.1816
14.1688
14.16
14.1541
14.148
14.1474
14.143
14.1426
14.1402
14.1436
14.1349
14.1378
14.1384
14.137
14.1218
14.1903
14.1744
14.1624
14.1539
14.1481
14.1437
14.1416
14.1395
14.139
14.1383
14.1393
14.1379
14.139
14.1394
14.1405
14.1361
14.1828
14.1673
14.1559
14.148
14.1425
14.1389
14.1368
14.1356
14.1352
14.1352
14.1357
14.136
14.1369
14.1373
14.1385
14.137
14.1756
14.1607
14.1498
14.1424
14.1375
14.1344
14.1326
14.1319
14.1318
14.1322
14.1329
14.1337
14.1347
14.1353
14.1367
14.1357
14.1691
14.1547
14.1444
14.1375
14.133
14.1304
14.129
14.1287
14.1289
14.1297
14.1306
14.1317
14.1329
14.1336
14.1353
14.1345
14.1644
14.1503
14.1405
14.1339
14.1298
14.1274
14.1264
14.1263
14.1268
14.1278
14.1289
14.1302
14.1315
14.1325
14.1342
14.1336
11.3794
11.386
11.3812
11.3789
11.3753
11.3415
11.2605
11.2372
11.2275
11.2793
11.2063
11.1182
11.3722
11.3642
11.3773
11.3706
11.3739
11.364
11.3426
11.292
11.2161
11.236
11.2762
11.1813
11.4344
11.4145
11.374
11.3534
11.3604
11.373
11.3565
11.3655
11.3327
11.3123
11.2208
11.2392
11.2031
11.4561
11.4355
11.4164
11.3958
11.3552
11.3577
11.3725
11.3632
11.3769
11.3394
11.3129
11.2671
11.2165
11.4709
11.4464
11.446
11.4259
11.4155
11.3726
11.3561
11.3474
11.3755
11.3538
11.3351
11.3389
11.2856
11.4726
11.4698
11.461
11.4475
11.453
11.4362
11.4187
11.3944
11.3498
11.3531
11.3702
11.3464
11.3752
11.3247
11.4805
11.4677
11.4659
11.4478
11.4583
11.4468
11.4372
11.4246
11.4114
11.3786
11.3499
11.3343
11.3707
11.3507
11.474
11.47
11.4681
11.4536
11.452
11.4536
11.4366
11.4433
11.4358
11.4104
11.4037
11.3629
11.343
11.3408
11.4868
11.4688
11.4553
11.4566
11.4557
11.4505
11.4533
11.4361
11.4489
11.4337
11.4387
11.4215
11.4107
11.3978
11.3631
11.5012
11.4844
11.4703
11.4519
11.4431
11.4415
11.4481
11.4399
11.4456
11.433
11.442
11.4297
11.4273
11.4346
11.3965
11.5128
11.5005
11.4823
11.474
11.4591
11.4436
11.4351
11.4324
11.4399
11.437
11.4403
11.4341
11.4314
11.4369
11.4217
11.5203
11.5027
11.4951
11.4822
11.4765
11.463
11.4553
11.4414
11.4284
11.425
11.4278
11.4313
11.4339
11.436
11.4309
11.5313
11.5194
11.5021
11.496
11.4869
11.4771
11.4792
11.466
11.4571
11.4564
11.4436
11.4373
11.4265
11.4198
11.4205
11.4255
11.5295
11.515
11.5004
11.4921
11.4858
11.4767
11.479
11.47
11.4679
11.4645
11.4668
11.4501
11.451
11.4533
11.4453
11.4306
11.5264
11.5103
11.4972
11.488
11.4818
11.4754
11.4741
11.4699
11.4689
11.4663
11.469
11.4618
11.4633
11.4638
11.4633
11.4512
11.5224
11.5059
11.4933
11.4841
11.4777
11.4727
11.47
11.4676
11.4665
11.4653
11.4658
11.4643
11.4649
11.465
11.4659
11.4623
11.5181
11.5017
11.4893
11.4803
11.474
11.4696
11.4667
11.4648
11.4638
11.4632
11.4632
11.4631
11.4635
11.4636
11.4645
11.4632
11.5139
11.4976
11.4854
11.4767
11.4706
11.4665
11.4639
11.4623
11.4614
11.4611
11.4612
11.4614
11.4619
11.4622
11.4632
11.4624
11.5101
11.4939
11.482
11.4735
11.4677
11.4638
11.4614
11.46
11.4594
11.4593
11.4596
11.46
11.4606
11.461
11.4621
11.4615
11.5073
11.4912
11.4795
11.4712
11.4656
11.4619
11.4596
11.4584
11.458
11.458
11.4584
11.4589
11.4597
11.4602
11.4614
11.4608
9.30708
9.31249
9.30848
9.30747
9.30359
9.27402
9.20656
9.18601
9.17714
9.22389
9.16136
9.08457
9.30264
9.29516
9.30639
9.30136
9.30353
9.29569
9.27571
9.23552
9.16874
9.18553
9.22178
9.14114
9.35495
9.33765
9.3048
9.28701
9.29183
9.30354
9.28937
9.29685
9.26866
9.25153
9.17406
9.19057
9.15875
9.37326
9.3563
9.33855
9.32182
9.28811
9.28936
9.3018
9.29497
9.30567
9.27608
9.2516
9.21431
9.16916
9.38619
9.36531
9.36358
9.34659
9.33744
9.30314
9.2895
9.28086
9.30538
9.28796
9.27085
9.27339
9.22801
9.38783
9.3856
9.37753
9.36597
9.36905
9.35628
9.34107
9.32212
9.28392
9.28545
9.30102
9.28028
9.30509
9.26285
9.39522
9.38426
9.38238
9.3665
9.37445
9.36547
9.35744
9.34655
9.33474
9.30887
9.28577
9.2695
9.30131
9.28512
9.3906
9.38624
9.38493
9.37219
9.3702
9.37161
9.35761
9.36166
9.35682
9.33511
9.32973
9.29583
9.27913
9.27638
9.40254
9.38774
9.3756
9.37558
9.37427
9.36947
9.37225
9.35734
9.36729
9.35539
9.35854
9.34525
9.33528
9.32459
9.29626
9.4151
9.39997
9.38783
9.37294
9.36503
9.36237
9.36804
9.36068
9.3657
9.35483
9.36207
9.35218
9.34896
9.35608
9.3245
9.4256
9.41386
9.39813
9.3901
9.37803
9.36537
9.35831
9.35482
9.36093
9.35829
9.36122
9.35621
9.3531
9.35835
9.34522
9.43323
9.41747
9.40927
9.39786
9.3923
9.38088
9.37427
9.36335
9.35282
9.34918
9.35099
9.35356
9.35552
9.35767
9.35331
9.44679
9.43426
9.41828
9.4112
9.40276
9.39364
9.39405
9.38383
9.3757
9.3745
9.36429
9.35929
9.35086
9.34497
9.34494
9.34878
9.44707
9.43224
9.41806
9.40915
9.40278
9.394
9.39486
9.38735
9.38466
9.3813
9.38305
9.36996
9.36941
9.37097
9.36535
9.35389
9.44628
9.42994
9.41662
9.4069
9.40031
9.39374
9.39172
9.38753
9.38608
9.38321
9.38524
9.3792
9.37968
9.37987
9.37981
9.37011
9.44475
9.42779
9.41458
9.40473
9.39774
9.39229
9.38899
9.38612
9.38453
9.38292
9.38298
9.38138
9.38141
9.38123
9.3819
9.37888
9.44288
9.42562
9.41237
9.40253
9.39546
9.39034
9.38684
9.38434
9.38273
9.38161
9.38111
9.38062
9.38058
9.38041
9.38089
9.37977
9.44094
9.42352
9.41022
9.40041
9.39338
9.38842
9.38498
9.38265
9.38113
9.38021
9.37972
9.37947
9.3795
9.37942
9.37997
9.37921
9.4391
9.42158
9.40828
9.39852
9.39157
9.38671
9.38338
9.38118
9.37979
9.37898
9.3786
9.37847
9.3786
9.3786
9.37924
9.37858
9.43762
9.4201
9.40684
9.39716
9.39029
9.3855
9.38225
9.38013
9.37882
9.37811
9.3778
9.37775
9.37796
9.37802
9.37874
9.37813
7.66166
7.66601
7.66264
7.66241
7.65833
7.63194
7.57497
7.5565
7.54843
7.59048
7.53657
7.46879
7.65903
7.65202
7.66159
7.65793
7.65922
7.65282
7.63407
7.60147
7.54227
7.55644
7.58904
7.5198
7.70396
7.68856
7.66133
7.6458
7.649
7.65979
7.64761
7.65369
7.62925
7.61432
7.54787
7.56254
7.53443
7.71988
7.70545
7.68899
7.67495
7.64646
7.64682
7.65727
7.65235
7.66067
7.63693
7.61414
7.58333
7.54274
7.73136
7.71339
7.71062
7.69598
7.68762
7.65955
7.64804
7.63967
7.66112
7.64709
7.63127
7.63288
7.59342
7.73327
7.73128
7.72382
7.71369
7.71499
7.70495
7.69148
7.67632
7.64323
7.64343
7.65754
7.63937
7.66083
7.62493
7.74011
7.7306
7.72857
7.7145
7.72041
7.71319
7.70628
7.69679
7.6859
7.66489
7.64614
7.62972
7.65761
7.64434
7.73706
7.73238
7.73128
7.71998
7.71767
7.71883
7.70714
7.7093
7.70608
7.6873
7.68273
7.65398
7.6397
7.63657
7.74834
7.73576
7.72478
7.72378
7.72205
7.7175
7.72014
7.70709
7.71484
7.70535
7.70716
7.6966
7.68734
7.67819
7.65451
7.7595
7.74569
7.73483
7.72243
7.71531
7.71196
7.71672
7.71006
7.71443
7.70499
7.71078
7.70274
7.69893
7.70566
7.67902
7.76924
7.75789
7.74396
7.73613
7.72603
7.71536
7.70945
7.70556
7.71045
7.70796
7.71054
7.70642
7.70304
7.70802
7.69648
7.77692
7.76246
7.7539
7.74349
7.73803
7.72813
7.72226
7.71343
7.70478
7.70109
7.70218
7.70405
7.70537
7.70753
7.70372
7.7924
7.77935
7.76435
7.75656
7.74852
7.73998
7.73913
7.73089
7.72348
7.7219
7.71357
7.70942
7.70271
7.69752
7.69703
7.69993
7.7942
7.77915
7.76523
7.75591
7.74939
7.74096
7.74066
7.73417
7.73115
7.72779
7.72901
7.71855
7.71713