/*--------------------------------*- C++ -*----------------------------------*\
  =========                 |
  \\      /  F ield         | OpenFOAM: The Open Source CFD Toolbox
   \\    /   O peration     | Website:  https://openfoam.org
    \\  /    A nd           | Version:  6
     \\/     M anipulation  |
\*---------------------------------------------------------------------------*/
FoamFile
{
    version     2.0;
    format      ascii;
    class       surfaceScalarField;
    location    "0.2";
    object      phi;
}
// * * * * * * * * * * * * * * * * * * * * * * * * * * * * * * * * * * * * * //

dimensions      [0 3 -1 0 0 0 0];

internalField   nonuniform List<scalar> 
184845
(
6.30902e-07
6.24071e-07
2.0077e-10
6.63187e-07
6.43982e-07
5.02129e-10
-6.76769e-07
6.96562e-07
6.65243e-07
-1.86769e-10
-6.98431e-07
7.31448e-07
6.875e-07
-9.08234e-10
-7.21478e-07
7.64673e-07
7.10947e-07
-4.33946e-10
-7.43738e-07
7.92381e-07
7.31729e-07
-1.68474e-09
-7.57753e-07
8.21215e-07
7.48743e-07
-1.06929e-09
-7.76507e-07
8.56529e-07
7.66471e-07
-5.99059e-10
-8.01185e-07
8.96627e-07
7.90248e-07
-7.37929e-10
-8.29609e-07
9.36569e-07
8.19988e-07
-1.29341e-09
-8.58636e-07
9.68281e-07
8.46751e-07
-3.6413e-09
-8.74822e-07
8.65238e-07
-3.01561e-10
9.97899e-07
-8.94555e-07
6.34103e-07
5.95077e-07
3.68333e-14
6.66791e-07
6.11654e-07
-3.59438e-10
7.01141e-07
6.31122e-07
-2.28808e-10
7.36518e-07
6.5218e-07
-5.75714e-11
7.7268e-07
6.74612e-07
1.73136e-10
8.07283e-07
6.97388e-07
-2.61533e-10
8.37116e-07
7.18813e-07
9.72533e-11
8.66901e-07
7.36255e-07
4.30173e-10
9.03955e-07
7.5352e-07
-3.25515e-10
9.46626e-07
7.77143e-07
1.73689e-10
9.87534e-07
8.05249e-07
5.93756e-10
8.27917e-07
8.54511e-10
1.024e-06
6.13626e-07
5.50923e-07
7.73144e-10
6.41542e-07
5.66942e-07
2.19544e-10
6.70632e-07
5.82092e-07
4.71351e-10
7.03584e-07
5.97453e-07
7.17483e-10
7.3896e-07
6.15787e-07
1.01653e-09
7.75695e-07
6.36735e-07
1.14241e-09
8.13205e-07
6.58745e-07
1.13278e-09
8.49594e-07
6.81346e-07
1.0782e-09
8.81477e-07
7.03296e-07
1.07549e-09
9.12145e-07
7.20448e-07
2.40402e-09
9.49233e-07
7.40292e-07
-2.36844e-10
9.92552e-07
7.61488e-07
4.42368e-10
7.84086e-07
2.17042e-09
1.03421e-06
6.18424e-07
5.19225e-07
1.11443e-09
6.49368e-07
5.35386e-07
6.11253e-10
6.78399e-07
5.5201e-07
1.05174e-09
7.07572e-07
5.66706e-07
1.57384e-09
7.41046e-07
5.81377e-07
9.35486e-10
7.77669e-07
5.98927e-07
1.18646e-09
8.15795e-07
6.19279e-07
1.33921e-09
8.55265e-07
6.4097e-07
9.06835e-10
8.93284e-07
6.63941e-07
1.33591e-09
9.2993e-07
6.84659e-07
-8.56895e-10
9.64334e-07
7.06124e-07
-2.36597e-10
9.99868e-07
7.24648e-07
1.30667e-09
7.42534e-07
8.3744e-10
1.04058e-06
6.20306e-07
4.86087e-07
1.40573e-09
6.52928e-07
5.01786e-07
9.78531e-10
6.8564e-07
5.18495e-07
8.03699e-10
7.1603e-07
5.35278e-07
1.03684e-09
7.45734e-07
5.49567e-07
2.10687e-09
7.79343e-07
5.65343e-07
-2.55871e-11
8.17141e-07
5.81707e-07
-2.27084e-10
8.57305e-07
6.0041e-07
3.96237e-10
8.98454e-07
6.21897e-07
8.94072e-10
9.39651e-07
6.43579e-07
-1.17049e-10
9.79826e-07
6.65502e-07
4.47073e-10
1.01578e-06
6.8747e-07
1.22598e-09
7.05744e-07
2.9523e-09
1.04962e-06
5.87884e-07
4.38136e-07
1.17204e-09
6.2024e-07
4.52496e-07
1.23517e-09
6.53704e-07
4.67592e-07
7.29604e-10
6.88371e-07
4.83438e-07
3.89585e-10
7.22448e-07
5.00279e-07
9.22666e-10
7.5609e-07
5.16148e-07
-2.22988e-10
7.89005e-07
5.3281e-07
-3.81256e-10
8.21897e-07
5.47857e-07
9.58509e-10
8.5934e-07
5.62407e-07
5.5995e-10
9.00484e-07
5.80003e-07
7.50481e-10
9.43222e-07
6.00075e-07
7.66228e-10
9.86954e-07
6.21176e-07
5.94667e-10
1.03015e-06
6.43578e-07
6.95122e-10
6.64158e-07
-3.00326e-10
1.07204e-06
5.87219e-07
4.05853e-07
8.28747e-10
6.1991e-07
4.1925e-07
5.55319e-10
6.5376e-07
4.33461e-07
2.80397e-10
6.88768e-07
4.48215e-07
2.14166e-10
7.24694e-07
4.63849e-07
5.03898e-10
7.61194e-07
4.79815e-07
-1.65899e-10
7.97902e-07
4.96173e-07
-7.20355e-11
8.31951e-07
5.12818e-07
9.88918e-10
8.64873e-07
5.27098e-07
2.38739e-09
9.02256e-07
5.42834e-07
-2.14061e-10
9.44326e-07
5.58799e-07
-7.9334e-10
9.88482e-07
5.76577e-07
4.42155e-10
1.03449e-06
5.96978e-07
5.92588e-10
6.18089e-07
4.55912e-10
1.0801e-06
5.86951e-07
3.73476e-07
7.04928e-10
6.19715e-07
3.86112e-07
3.73862e-10
6.53745e-07
3.99433e-07
-1.57196e-12
6.88803e-07
4.13162e-07
-4.40385e-12
7.25054e-07
4.27476e-07
1.2124e-10
7.62387e-07
4.42385e-07
9.68376e-11
8.00904e-07
4.57697e-07
-3.94418e-11
8.39105e-07
4.73971e-07
6.46326e-10
8.77155e-07
4.89739e-07
-6.9187e-10
9.14174e-07
5.06322e-07
-5.06326e-10
9.50181e-07
5.20814e-07
1.97727e-09
9.90275e-07
5.36761e-07
-2.78754e-10
1.03588e-06
5.52488e-07
-1.11247e-09
5.71094e-07
-3.74976e-10
1.08325e-06
5.53915e-07
3.31298e-07
1.11838e-10
5.85738e-07
3.41768e-07
-1.16361e-10
6.19098e-07
3.53049e-07
-2.96405e-10
6.53498e-07
3.65244e-07
-2.10873e-10
6.88786e-07
3.7804e-07
-1.66345e-10
7.25143e-07
3.91276e-07
-1.56182e-10
7.62617e-07
4.05008e-07
-9.65986e-11
8.01351e-07
4.19098e-07
-1.35968e-10
8.41269e-07
4.33958e-07
9.52755e-11
8.82414e-07
4.49255e-07
-6.60239e-10
9.23338e-07
4.65231e-07
1.66052e-10
9.64445e-07
4.80745e-07
-1.03756e-09
1.00387e-06
4.97451e-07
-1.16247e-10
1.04226e-06
5.11865e-07
2.23015e-09
5.28429e-07
-4.25873e-10
1.08536e-06
5.56327e-07
3.01829e-07
-3.25482e-10
5.86542e-07
3.11354e-07
1.99619e-10
6.18587e-07
3.21524e-07
-5.20334e-10
6.52789e-07
3.31983e-07
-9.41275e-10
6.88375e-07
3.43059e-07
-6.05019e-10
7.25e-07
3.5497e-07
-3.18864e-10
7.62718e-07
3.67582e-07
-2.93412e-10
8.01573e-07
3.80601e-07
-3.58095e-10
8.41728e-07
3.94106e-07
-3.02764e-10
8.83331e-07
4.08031e-07
-3.79449e-10
9.26073e-07
4.22571e-07
-8.24007e-11
9.70154e-07
4.3741e-07
-7.46004e-10
1.0145e-06
4.53007e-07
9.99124e-11
1.05874e-06
4.68469e-07
-8.50756e-10
4.842e-07
-2.55067e-09
1.10552e-06
5.5835e-07
2.71428e-07
-4.56011e-10
5.89945e-07
2.8055e-07
-7.91222e-10
6.22142e-07
2.9037e-07
-1.04385e-09
6.54355e-07
2.99842e-07
-7.06109e-11
6.88264e-07
3.09699e-07
-5.50183e-10
7.24568e-07
3.1968e-07
-1.01424e-09
7.62501e-07
3.30471e-07
-8.21066e-10
8.01582e-07
3.42e-07
-4.79805e-10
8.41898e-07
3.54169e-07
-3.79644e-10
8.83577e-07
3.66818e-07
-4.64895e-10
9.26586e-07
3.79986e-07
-4.23737e-10
9.71018e-07
3.93469e-07
-4.90904e-10
1.01676e-06
4.07444e-07
-1.83275e-10
1.06399e-06
4.21934e-07
-6.86562e-10
4.3664e-07
-4.78378e-10
1.11202e-06
5.58494e-07
2.40532e-07
-5.8449e-10
5.91048e-07
2.48987e-07
-9.90999e-10
6.24471e-07
2.57976e-07
-1.02939e-09
6.58532e-07
2.67001e-07
-1.22051e-09
6.92724e-07
2.76484e-07
-9.76457e-10
7.2682e-07
2.85517e-07
6.6576e-11
7.62776e-07
2.94856e-07
-3.41176e-10
8.01137e-07
3.0506e-07
-1.42038e-09
8.41607e-07
3.15139e-07
-1.4404e-09
8.83526e-07
3.25818e-07
-9.19118e-10
9.26668e-07
3.37407e-07
-5.62887e-10
9.71183e-07
3.4941e-07
-4.55806e-10
1.01714e-06
3.61861e-07
-3.75027e-10
1.06497e-06
3.74765e-07
-6.58591e-10
3.88383e-07
-7.71917e-10
1.114e-06
5.25561e-07
2.02473e-07
-1.08496e-09
5.57345e-07
2.09718e-07
-9.70832e-10
5.90389e-07
2.17292e-07
-1.34874e-09
6.245e-07
2.25212e-07
-1.34737e-09
6.59619e-07
2.33354e-07
-1.47204e-09
6.95467e-07
2.41816e-07
-1.17882e-09
7.31589e-07
2.5041e-07
-1.01517e-09
7.69275e-07
2.59105e-07
-1.93618e-09
8.07224e-07
2.68386e-07
-1.27406e-09
8.44607e-07
2.77263e-07
4.92496e-10
8.84301e-07
2.86467e-07
-3.4234e-10
9.2659e-07
2.9641e-07
-1.29197e-09
9.7093e-07
3.06984e-07
-1.91445e-09
1.01712e-06
3.17086e-07
-1.416e-09
1.06508e-06
3.27734e-07
-9.31028e-10
3.39771e-07
-7.96309e-10
1.11449e-06
5.24562e-07
1.73014e-07
-1.24951e-09
5.56421e-07
1.79251e-07
-1.39073e-09
5.89552e-07
1.8581e-07
-1.64967e-09
6.23753e-07
1.92618e-07
-1.60585e-09
6.59001e-07
1.99629e-07
-1.52301e-09
6.95362e-07
2.06868e-07
-1.41309e-09
7.32786e-07
2.14396e-07
-1.40916e-09
7.71442e-07
2.22084e-07
-1.63481e-09
8.10967e-07
2.30075e-07
-1.21407e-09
8.51131e-07
2.38307e-07
-1.20713e-09
8.92545e-07
2.46767e-07
-1.71473e-09
9.3608e-07
2.55413e-07
-2.53734e-09
9.7921e-07
2.64683e-07
-8.28719e-10
1.02119e-06
2.73579e-07
1.52921e-09
1.06634e-06
2.82741e-07
-1.549e-10
2.92998e-07
-1.81434e-09
1.11492e-06
5.23796e-07
1.43789e-07
-1.50765e-09
5.55674e-07
1.49018e-07
-1.64533e-09
5.88817e-07
1.54519e-07
-1.85205e-09
6.23026e-07
1.60212e-07
-1.80276e-09
6.58272e-07
1.66072e-07
-1.69015e-09
6.94652e-07
1.72111e-07
-1.62215e-09
7.32248e-07
1.78379e-07
-1.57905e-09
7.71046e-07
1.84831e-07
-1.54524e-09
8.11068e-07
1.91499e-07
-1.44701e-09
8.52415e-07
1.98446e-07
-1.48603e-09
8.95053e-07
2.05626e-07
-1.4975e-09
9.39093e-07
2.12947e-07
-1.57488e-09
9.84241e-07
2.20626e-07
-1.0913e-09
1.03031e-06
2.28708e-07
-1.20163e-09
1.07815e-06
2.36879e-07
-1.97075e-09
2.45296e-07
-2.35713e-09
1.1282e-06
5.23078e-07
1.14759e-07
-1.72443e-09
5.54973e-07
1.18964e-07
-1.84177e-09
5.8814e-07
1.23388e-07
-2.03544e-09
6.22378e-07
1.2796e-07
-1.98623e-09
6.57659e-07
1.32663e-07
-1.87225e-09
6.94059e-07
1.37509e-07
-1.79838e-09
7.31656e-07
1.42526e-07
-1.74388e-09
7.70475e-07
1.47704e-07
-1.69163e-09
8.10561e-07
1.53054e-07
-1.6397e-09
8.51999e-07
1.58605e-07
-1.59677e-09
8.94801e-07
1.64358e-07
-1.53409e-09
9.38926e-07
1.70278e-07
-1.45526e-09
9.84522e-07
1.76418e-07
-1.38757e-09
1.03171e-06
1.82898e-07
-1.37842e-09
1.08053e-06
1.89514e-07
-1.45555e-09
1.96367e-07
-1.28085e-09
1.13074e-06
5.22411e-07
8.58965e-08
-1.9064e-09
5.54323e-07
8.90651e-08
-2.01257e-09
5.87514e-07
9.23962e-08
-2.19923e-09
6.21782e-07
9.5837e-08
-2.14566e-09
6.57098e-07
9.9374e-08
-2.02701e-09
6.93536e-07
1.03019e-07
-1.94667e-09
7.31164e-07
1.06787e-07
-1.88955e-09
7.70026e-07
1.10679e-07
-1.83667e-09
8.10158e-07
1.14702e-07
-1.78062e-09
8.51615e-07
1.1887e-07
-1.72238e-09
8.94447e-07
1.23186e-07
-1.65975e-09
9.38666e-07
1.27648e-07
-1.59012e-09
9.84364e-07
1.32264e-07
-1.54353e-09
1.03162e-06
1.37111e-07
-1.47108e-09
1.08053e-06
1.42075e-07
-1.46468e-09
1.47313e-07
-1.38054e-09
1.13096e-06
5.21807e-07
5.71761e-08
-2.06313e-09
5.53736e-07
5.92955e-08
-2.15921e-09
5.86948e-07
6.1523e-08
-2.33873e-09
6.21242e-07
6.38225e-08
-2.28037e-09
6.56588e-07
6.61851e-08
-2.15691e-09
6.93059e-07
6.86192e-08
-2.07191e-09
7.30723e-07
7.11348e-08
-2.01179e-09
7.69624e-07
7.37342e-08
-1.95527e-09
8.09801e-07
7.64209e-08
-1.89641e-09
8.51304e-07
7.92028e-08
-1.83598e-09
8.9418e-07
8.20833e-08
-1.7732e-09
9.38468e-07
8.50665e-08
-1.70623e-09
9.84227e-07
8.81507e-08
-1.64568e-09
1.03152e-06
9.1383e-08
-1.56217e-09
1.08043e-06
9.46941e-08
-1.52984e-09
9.82165e-08
-1.43254e-09
1.13096e-06
5.21249e-07
2.85507e-08
-2.18e-09
5.53199e-07
2.96128e-08
-2.26698e-09
5.86433e-07
3.07287e-08
-2.44e-09
6.20753e-07
3.188e-08
-2.3779e-09
6.56127e-07
3.30622e-08
-2.25084e-09
6.92628e-07
3.42801e-08
-2.162e-09
7.30323e-07
3.55389e-08
-2.0994e-09
7.69258e-07
3.68401e-08
-2.04066e-09
8.09474e-07
3.81852e-08
-1.97974e-09
8.51016e-07
3.95777e-08
-1.91687e-09
8.93932e-07
4.10192e-08
-1.85241e-09
9.38271e-07
4.25133e-08
-1.78534e-09
9.84083e-07
4.40578e-08
-1.71993e-09
1.03143e-06
4.56756e-08
-1.64168e-09
1.08039e-06
4.73328e-08
-1.5973e-09
4.91023e-08
-1.48555e-09
1.13099e-06
5.20774e-07
-2.30011e-09
5.52747e-07
-2.37583e-09
5.86003e-07
-2.54061e-09
6.20348e-07
-2.47324e-09
6.55746e-07
-2.34183e-09
6.92273e-07
-2.24816e-09
7.29992e-07
-2.18016e-09
7.68952e-07
-2.11664e-09
8.09193e-07
-2.05213e-09
8.50763e-07
-1.9862e-09
8.93708e-07
-1.91841e-09
9.38078e-07
-1.8492e-09
9.83924e-07
-1.77987e-09
1.03131e-06
-1.70267e-09
1.0803e-06
-1.6475e-09
-1.52855e-09
1.13094e-06
1.23196e-06
1.20065e-06
-2.4121e-09
1.29433e-06
1.23967e-06
-1.951e-09
-1.29959e-06
1.3588e-06
1.28056e-06
-2.49141e-09
-1.34273e-06
1.42532e-06
1.32349e-06
-3.41283e-09
-1.38751e-06
1.49187e-06
1.36794e-06
-3.22788e-09
-1.43169e-06
1.55777e-06
1.41194e-06
-3.99396e-09
-1.47553e-06
1.62603e-06
1.45603e-06
-2.9796e-09
-1.52238e-06
1.69865e-06
1.50215e-06
-1.97959e-09
-1.57338e-06
1.77655e-06
1.55239e-06
-2.03998e-09
-1.62899e-06
1.85638e-06
1.60837e-06
-4.24274e-09
-1.68526e-06
1.93232e-06
1.66345e-06
-7.36433e-09
-1.73566e-06
1.71468e-06
-2.17776e-09
2.00846e-06
-1.78894e-06
1.24254e-06
1.14287e-06
-1.93921e-09
1.30473e-06
1.17928e-06
-2.15675e-09
1.36955e-06
1.21762e-06
-2.10923e-09
1.43688e-06
1.25801e-06
-1.91017e-09
1.50604e-06
1.30074e-06
-1.78365e-09
1.5752e-06
1.3447e-06
-2.18215e-09
1.64455e-06
1.38859e-06
-1.81309e-09
1.71585e-06
1.43269e-06
-1.40956e-09
1.79165e-06
1.47789e-06
-1.62676e-09
1.87352e-06
1.52819e-06
-1.51472e-09
1.95651e-06
1.58272e-06
-1.66694e-09
1.63337e-06
1.91242e-09
2.03676e-06
1.19307e-06
1.05256e-06
-9.90641e-10
1.2524e-06
1.08487e-06
-1.11388e-09
1.31421e-06
1.11883e-06
-8.83917e-10
1.37866e-06
1.1545e-06
-6.1185e-10
1.44607e-06
1.19182e-06
-2.07057e-10
1.51619e-06
1.23174e-06
1.84599e-11
1.58806e-06
1.2739e-06
6.25436e-11
1.66035e-06
1.3174e-06
-2.65007e-11
1.73309e-06
1.36125e-06
-2.20875e-10
1.80769e-06
1.40503e-06
6.63897e-10
1.88639e-06
1.44987e-06
-6.10011e-10
1.97037e-06
1.49897e-06
2.07354e-10
1.54732e-06
3.6826e-09
2.0549e-06
1.20221e-06
9.9482e-07
-1.70229e-10
1.26227e-06
1.02585e-06
-4.32624e-10
1.32412e-06
1.058e-06
3.54848e-11
1.38813e-06
1.09149e-06
5.67207e-10
1.45468e-06
1.12608e-06
1.22198e-10
1.52457e-06
1.16272e-06
3.30511e-10
1.59744e-06
1.20171e-06
6.54428e-10
1.67246e-06
1.24298e-06
3.09225e-10
1.74855e-06
1.2861e-06
3.90785e-10
1.82478e-06
1.32949e-06
-1.54852e-09
1.90234e-06
1.37263e-06
-5.5328e-10
1.98413e-06
1.41742e-06
1.06857e-09
1.4625e-06
6.9981e-10
2.06909e-06
1.20931e-06
9.3563e-07
3.30246e-10
1.2709e-06
9.65154e-07
8.22419e-11
1.33375e-06
9.95955e-07
-1.44262e-12
1.39817e-06
1.02791e-06
2.02685e-10
1.46465e-06
1.0609e-06
8.03089e-10
1.53345e-06
1.09461e-06
-7.22178e-10
1.60545e-06
1.13016e-06
-6.70891e-10
1.68112e-06
1.16768e-06
2.93124e-11
1.75966e-06
1.20808e-06
3.81796e-10
1.83955e-06
1.25007e-06
-5.95741e-10
1.91971e-06
1.29264e-06
2.76796e-10
2.00127e-06
1.3362e-06
8.85905e-10
1.38019e-06
2.11461e-09
2.08442e-06
1.15367e-06
8.48982e-07
1.14055e-10
1.21454e-06
8.75635e-07
3.55492e-10
1.27716e-06
9.03364e-07
-9.4507e-11
1.34148e-06
9.32395e-07
-3.73827e-10
1.40742e-06
9.62906e-07
-1.32883e-11
1.47454e-06
9.94471e-07
-9.14151e-10
1.5434e-06
1.02646e-06
-1.09192e-09
1.6148e-06
1.0595e-06
2.31569e-10
1.68928e-06
1.09359e-06
1.57515e-10
1.76779e-06
1.13003e-06
2.9428e-10
1.84954e-06
1.16869e-06
3.88063e-10
1.93336e-06
1.20898e-06
4.39268e-10
2.01872e-06
1.2515e-06
4.14495e-11
1.29375e-06
2.42185e-10
2.10462e-06
1.15771e-06
7.90468e-07
-2.11411e-11
1.2189e-06
8.15225e-07
-2.30366e-10
1.28201e-06
8.41053e-07
-5.20045e-10
1.34713e-06
8.6802e-07
-5.2743e-10
1.41431e-06
8.96478e-07
-2.48378e-10
1.48319e-06
9.26187e-07
-7.57222e-10
1.55343e-06
9.5673e-07
-5.82877e-10
1.6254e-06
9.88108e-07
3.98112e-10
1.69964e-06
1.02048e-06
1.26564e-09
1.77657e-06
1.05361e-06
-7.23964e-10
1.85711e-06
1.0884e-06
-1.0503e-09
1.94133e-06
1.1249e-06
3.01184e-10
2.02901e-06
1.16413e-06
2.88712e-10
1.20433e-06
5.67407e-10
2.11832e-06
1.16118e-06
7.31383e-07
-3.49767e-11
1.22279e-06
7.54278e-07
-2.89734e-10
1.28631e-06
7.78246e-07
-7.11567e-10
1.35179e-06
8.03221e-07
-6.88811e-10
1.41947e-06
8.29401e-07
-4.88406e-10
1.48937e-06
8.56809e-07
-4.16556e-10
1.56125e-06
8.85238e-07
-4.33507e-10
1.635e-06
9.14917e-07
8.59836e-11
1.7101e-06
9.45771e-07
-1.07748e-09
1.78718e-06
9.77056e-07
-1.04187e-09
1.8672e-06
1.0094e-06
9.64071e-10
1.94985e-06
1.04246e-06
-4.88352e-10
2.03669e-06
1.0773e-06
-1.13242e-09
1.11432e-06
-1.06374e-09
2.12739e-06
1.10422e-06
6.52157e-07
-5.45927e-10
1.16402e-06
6.72069e-07
-5.99956e-10
1.2259e-06
6.92952e-07
-8.53281e-10
1.28989e-06
7.14859e-07
-8.11747e-10
1.35585e-06
7.37822e-07
-7.28387e-10
1.4239e-06
7.61867e-07
-6.6783e-10
1.49415e-06
7.87012e-07
-5.58024e-10
1.56669e-06
8.13086e-07
-5.22278e-10
1.6416e-06
8.40391e-07
-2.8212e-10
1.71868e-06
8.68921e-07
-8.96134e-10
1.79775e-06
8.98387e-07
-2.33935e-10
1.87844e-06
9.28789e-07
-1.10985e-09
1.96118e-06
9.59969e-07
-3.73387e-10
2.04703e-06
9.92184e-07
1.49732e-09
1.02612e-06
-1.13145e-09
2.13593e-06
1.10763e-06
5.94651e-07
-7.88537e-10
1.16746e-06
6.12845e-07
-4.0031e-10
1.2292e-06
6.31725e-07
-1.03547e-09
1.29305e-06
6.51444e-07
-1.37929e-09
1.35917e-06
6.72139e-07
-1.04109e-09
1.42758e-06
6.93838e-07
-6.96281e-10
1.49825e-06
7.16677e-07
-6.31767e-10
1.57117e-06
7.40499e-07
-6.93289e-10
1.64649e-06
7.6537e-07
-6.04034e-10
1.72441e-06
7.91221e-07
-5.92392e-10
1.80484e-06
8.18145e-07
-2.74393e-10
1.88761e-06
8.46034e-07
-7.63113e-10
1.97278e-06
8.74937e-07
-3.16239e-11
2.06016e-06
9.04983e-07
-1.03217e-09
9.35631e-07
-1.9546e-09
2.15006e-06
1.11115e-06
5.36495e-07
-9.52917e-10
1.17129e-06
5.53096e-07
-1.17814e-09
1.23315e-06
5.70277e-07
-1.45544e-09
1.29702e-06
5.88181e-07
-6.78306e-10
1.36288e-06
6.06691e-07
-9.62612e-10
1.43103e-06
6.25962e-07
-1.29586e-09
1.50172e-06
6.46235e-07
-1.06913e-09
1.57489e-06
6.67573e-07
-7.15429e-10
1.65054e-06
6.89885e-07
-5.48967e-10
1.72879e-06
7.13114e-07
-6.10613e-10
1.80968e-06
7.37393e-07
-5.59487e-10
1.89323e-06
7.62567e-07
-5.72956e-10
1.97953e-06
7.88658e-07
-2.0688e-10
2.06857e-06
8.15947e-07
-6.83271e-10
8.43708e-07
-1.61596e-10
2.16017e-06
1.11335e-06
4.77669e-07
-1.08252e-09
1.17426e-06
4.92553e-07
-1.35818e-09
1.23691e-06
5.08055e-07
-1.4591e-09
1.30118e-06
5.24219e-07
-1.52742e-09
1.36724e-06
5.40937e-07
-1.28095e-09
1.43542e-06
5.5826e-07
-4.12111e-10
1.50583e-06
5.76219e-07
-7.39827e-10
1.57866e-06
5.94917e-07
-1.59442e-09
1.65413e-06
6.14454e-07
-1.47073e-09
1.7324e-06
6.34833e-07
-9.12932e-10
1.81344e-06
6.56335e-07
-5.48433e-10
1.89725e-06
6.7879e-07
-4.80345e-10
1.98393e-06
7.01963e-07
-3.62733e-10
2.07376e-06
7.26077e-07
-6.17397e-10
7.51242e-07
-1.13592e-09
2.16659e-06
1.05472e-06
4.05906e-07
-1.67162e-09
1.11439e-06
4.18467e-07
-1.43847e-09
1.17583e-06
4.31535e-07
-1.76902e-09
1.23912e-06
4.45178e-07
-1.75721e-09
1.3042e-06
4.5942e-07
-1.76151e-09
1.37116e-06
4.74241e-07
-1.44231e-09
1.44e-06
4.89675e-07
-1.26606e-09
1.51066e-06
5.0563e-07
-2.00522e-09
1.58358e-06
5.22067e-07
-1.3489e-09
1.65902e-06
5.39254e-07
2.56454e-10
1.73692e-06
5.57052e-07
-4.66554e-10
1.81763e-06
5.75708e-07
-1.36849e-09
1.90117e-06
5.95084e-07
-1.75506e-09
1.9877e-06
6.1517e-07
-1.14643e-09
2.07754e-06
6.35954e-07
-6.52186e-10
6.58278e-07
-1.06502e-09
2.17077e-06
1.05516e-06
3.48266e-07
-1.8307e-09
1.11505e-06
3.59059e-07
-1.87508e-09
1.17675e-06
3.70297e-07
-2.11018e-09
1.24031e-06
3.82016e-07
-2.00718e-09
1.3058e-06
3.94233e-07
-1.81953e-09
1.3733e-06
4.06953e-07
-1.62644e-09
1.44287e-06
4.20251e-07
-1.55472e-09
1.51451e-06
4.34024e-07
-1.66738e-09
1.58831e-06
4.48255e-07
-1.20797e-09
1.66434e-06
4.6317e-07
-1.15327e-09
1.74268e-06
4.7868e-07
-1.68496e-09
1.82338e-06
4.94673e-07
-2.19869e-09
1.90691e-06
5.11216e-07
-4.95094e-10
1.99339e-06
5.28725e-07
1.496e-09
2.08263e-06
5.46743e-07
-1.83621e-10
5.65893e-07
-2.02185e-09
2.17522e-06
1.05542e-06
2.90461e-07
-2.12506e-09
1.11551e-06
2.99482e-07
-2.1609e-09
1.17741e-06
3.08881e-07
-2.3305e-09
1.24116e-06
3.18668e-07
-2.20301e-09
1.30683e-06
3.28859e-07
-1.98687e-09
1.37453e-06
3.39459e-07
-1.82523e-09
1.44437e-06
3.50522e-07
-1.69365e-09
1.51642e-06
3.62007e-07
-1.57616e-09
1.59072e-06
3.73917e-07
-1.40941e-09
1.66741e-06
3.86364e-07
-1.36958e-09
1.74659e-06
3.99337e-07
-1.33181e-09
1.82827e-06
4.12691e-07
-1.27504e-09
1.91261e-06
4.26564e-07
-7.80839e-10
1.99973e-06
4.41329e-07
-9.25753e-10
2.0897e-06
4.56592e-07
-1.78867e-09
4.72287e-07
-1.86433e-09
2.18281e-06
1.05548e-06
2.32523e-07
-2.39357e-09
1.11575e-06
2.39762e-07
-2.39514e-09
1.17783e-06
2.47303e-07
-2.53575e-09
1.24176e-06
2.55149e-07
-2.39738e-09
1.30761e-06
2.63313e-07
-2.17235e-09
1.37546e-06
2.71803e-07
-1.99722e-09
1.44544e-06
2.80647e-07
-1.84884e-09
1.51763e-06
2.8984e-07
-1.71684e-09
1.59212e-06
2.99386e-07
-1.59164e-09
1.66902e-06
3.09331e-07
-1.47167e-09
1.74848e-06
3.19695e-07
-1.34663e-09
1.8305e-06
3.30428e-07
-1.21472e-09
1.9152e-06
3.41577e-07
-1.10303e-09
2.00283e-06
3.53337e-07
-1.01498e-09
2.0935e-06
3.65523e-07
-1.05406e-09
3.78135e-07
-8.7253e-10
2.18724e-06
1.05535e-06
1.74486e-07
-2.63304e-09
1.11578e-06
1.79928e-07
-2.60987e-09
1.17802e-06
1.85596e-07
-2.73035e-09
1.24211e-06
1.91491e-07
-2.57708e-09
1.30811e-06
1.9762e-07
-2.33728e-09
1.37612e-06
2.03995e-07
-2.14616e-09
1.44624e-06
2.10629e-07
-1.98936e-09
1.51856e-06
2.17527e-07
-1.84817e-09
1.59319e-06
2.24695e-07
-1.71108e-09
1.67022e-06
2.32155e-07
-1.5775e-09
1.74978e-06
2.39922e-07
-1.45064e-09
1.83196e-06
2.47993e-07
-1.33171e-09
1.91686e-06
2.56374e-07
-1.24222e-09
2.00467e-06
2.65172e-07
-1.12011e-09
2.09554e-06
2.74284e-07
-1.09415e-09
2.83862e-07
-1.1174e-09
2.18955e-06
1.05507e-06
1.16374e-07
-2.84891e-09
1.11564e-06
1.20008e-07
-2.803e-09
1.17801e-06
1.23792e-07
-2.90492e-09
1.24223e-06
1.27726e-07
-2.73715e-09
1.30836e-06
1.31815e-07
-2.48388e-09
1.3765e-06
1.36066e-07
-2.27998e-09
1.44674e-06
1.4049e-07
-2.11392e-09
1.51918e-06
1.4509e-07
-1.96134e-09
1.59393e-06
1.49872e-07
-1.81525e-09
1.67107e-06
1.54847e-07
-1.67655e-09
1.75074e-06
1.60025e-07
-1.54568e-09
1.83304e-06
1.65412e-07
-1.42043e-09
1.91807e-06
1.71007e-07
-1.31115e-09
2.00599e-06
1.76872e-07
-1.17749e-09
2.09692e-06
1.82939e-07
-1.11802e-09
1.89366e-07
-1.051e-09
2.19103e-06
1.05465e-06
5.82026e-08
-3.01868e-09
1.11533e-06
6.00205e-08
-2.95274e-09
1.1778e-06
6.19133e-08
-3.03844e-09
1.24213e-06
6.38802e-08
-2.85871e-09
1.30836e-06
6.59237e-08
-2.59463e-09
1.3766e-06
6.80481e-08
-2.38033e-09
1.44694e-06
7.02588e-08
-2.20637e-09
1.51948e-06
7.25587e-08
-2.04655e-09
1.59431e-06
7.49502e-08
-1.8941e-09
1.67155e-06
7.74383e-08
-1.74927e-09
1.75131e-06
8.00271e-08
-1.61314e-09
1.8337e-06
8.27223e-08
-1.48369e-09
1.91883e-06
8.55216e-08
-1.36737e-09
2.00685e-06
8.8456e-08
-1.2389e-09
2.09787e-06
9.14888e-08
-1.1702e-09
9.47129e-08
-1.03667e-09
2.19207e-06
1.05415e-06
-3.21911e-09
1.11491e-06
-3.1301e-09
1.17746e-06
-3.19761e-09
1.24187e-06
-3.00511e-09
1.30818e-06
-2.73069e-09
1.37648e-06
-2.50548e-09
1.44688e-06
-2.31967e-09
1.51948e-06
-2.14898e-09
1.59438e-06
-1.98776e-09
1.67168e-06
-1.83561e-09
1.75149e-06
-1.6922e-09
1.83394e-06
-1.55709e-09
1.91913e-06
-1.43358e-09
2.0072e-06
-1.30279e-09
2.09828e-06
-1.22124e-09
-1.04638e-09
2.19253e-06
1.75169e-06
1.68563e-06
-3.88846e-09
1.83891e-06
1.741e-06
-3.58564e-09
-1.82659e-06
1.92922e-06
1.79901e-06
-3.94882e-09
-1.88785e-06
2.02227e-06
1.85971e-06
-4.92843e-09
-1.95124e-06
2.11546e-06
1.92247e-06
-4.83573e-09
-2.01406e-06
2.20816e-06
1.98495e-06
-5.23378e-09
-2.0764e-06
2.3043e-06
2.04777e-06
-4.00521e-09
-2.14289e-06
2.40671e-06
2.11348e-06
-2.65432e-09
-2.21521e-06
2.51616e-06
2.18478e-06
-2.70898e-09
-2.29355e-06
2.62816e-06
2.2633e-06
-6.22438e-09
-2.37332e-06
2.73556e-06
2.3412e-06
-1.01128e-08
-2.44585e-06
2.41512e-06
-3.48456e-09
2.84397e-06
-2.52221e-06
1.76567e-06
1.60356e-06
-3.54114e-09
1.85294e-06
1.65523e-06
-3.66063e-09
1.94368e-06
1.70963e-06
-3.47734e-09
2.03792e-06
1.7668e-06
-3.23715e-09
2.13476e-06
1.82712e-06
-3.27956e-09
2.23197e-06
1.88929e-06
-3.72993e-09
2.32962e-06
1.95169e-06
-3.38799e-09
2.43013e-06
2.01449e-06
-2.93459e-09
2.53695e-06
2.07904e-06
-2.70739e-09
2.65163e-06
2.15017e-06
-3.07333e-09
2.76814e-06
2.22707e-06
-4.05917e-09
2.30047e-06
2.03508e-09
2.88267e-06
1.69643e-06
1.47561e-06
-2.54423e-09
1.77973e-06
1.52169e-06
-2.53348e-09
1.86632e-06
1.56985e-06
-2.09357e-09
1.95662e-06
1.62036e-06
-1.63789e-09
2.05101e-06
1.67339e-06
-1.17847e-09
2.14927e-06
1.72985e-06
-9.71591e-10
2.25012e-06
1.78944e-06
-9.42861e-10
2.35188e-06
1.851e-06
-1.09354e-09
2.45431e-06
1.91328e-06
-1.44349e-09
2.55946e-06
1.97553e-06
-9.74029e-10
2.6706e-06
2.03974e-06
-1.31782e-09
2.78874e-06
2.10945e-06
-3.02372e-10
2.17945e-06
5.06263e-09
2.90838e-06
1.70917e-06
1.39415e-06
-1.3816e-09
1.79348e-06
1.43834e-06
-1.39905e-09
1.8801e-06
1.48399e-06
-7.22593e-10
1.96979e-06
1.5314e-06
-1.66342e-10
2.06325e-06
1.58055e-06
-5.05122e-10
2.16126e-06
1.63254e-06
-3.64303e-10
2.26348e-06
1.68782e-06
5.54515e-11
2.36876e-06
1.74623e-06
-1.99272e-10
2.47569e-06
1.80717e-06
-4.41442e-10
2.58331e-06
1.86877e-06
-2.40347e-09
2.69294e-06
1.93042e-06
-8.66572e-10
2.80827e-06
1.99418e-06
1.00187e-09
2.05905e-06
1.10741e-09
2.92826e-06
1.71865e-06
1.31077e-06
-6.06145e-10
1.80498e-06
1.35277e-06
-6.71217e-10
1.89314e-06
1.39635e-06
-5.2198e-10
1.98348e-06
1.44159e-06
-3.21974e-10
2.07674e-06
1.48829e-06
-1.97246e-10
2.17358e-06
1.5364e-06
-1.42697e-09
2.27482e-06
1.58694e-06
-1.02529e-09
2.38096e-06
1.6403e-06
-1.75314e-10
2.49113e-06
1.69736e-06
1.4258e-11
2.60348e-06
1.75684e-06
-1.00368e-09
2.71659e-06
1.81729e-06
2.93855e-10
2.83179e-06
1.879e-06
8.73253e-10
1.94155e-06
1.66145e-09
2.94973e-06
1.64056e-06
1.18867e-06
-6.527e-10
1.72572e-06
1.22645e-06
-4.80045e-10
1.81339e-06
1.26578e-06
-7.75219e-10
1.90342e-06
1.30681e-06
-8.58691e-10
1.9958e-06
1.34984e-06
-6.53219e-10
2.09024e-06
1.39453e-06
-1.59667e-09
2.18715e-06
1.44015e-06
-1.74861e-09
2.28752e-06
1.48715e-06
-3.50339e-10
2.39235e-06
1.53574e-06
-1.16964e-10
2.5026e-06
1.58744e-06
-2.35393e-11
2.61742e-06
1.6423e-06
9.82782e-11
2.73522e-06
1.69947e-06
4.71053e-10
2.8553e-06
1.75936e-06
-3.9723e-10
1.8197e-06
4.15775e-10
2.97698e-06
1.6459e-06
1.10641e-06
-7.41885e-10
1.73154e-06
1.14153e-06
-9.46473e-10
1.81983e-06
1.17811e-06
-1.14564e-09
1.91093e-06
1.21624e-06
-1.04777e-09
2.00498e-06
1.25638e-06
-8.44141e-10
2.10163e-06
1.29842e-06
-1.30164e-09
2.20046e-06
1.34178e-06
-1.039e-09
2.30174e-06
1.38635e-06
-8.03391e-11
2.40622e-06
1.43222e-06
2.93572e-10
2.51476e-06
1.47955e-06
-1.36901e-09
2.62824e-06
1.52907e-06
-1.3058e-09
2.74671e-06
1.581e-06
3.05431e-10
2.8699e-06
1.6364e-06
4.65296e-11
1.69371e-06
7.34456e-10
2.99572e-06
1.65012e-06
1.0235e-06
-7.35355e-10
1.73643e-06
1.05593e-06
-1.00104e-09
1.82535e-06
1.08981e-06
-1.33111e-09
1.91703e-06
1.12511e-06
-1.24341e-09
2.01185e-06
1.16211e-06
-1.03331e-09
2.10986e-06
1.20091e-06
-9.09812e-10
2.21078e-06
1.24122e-06
-7.91121e-10
2.31445e-06
1.28319e-06
-4.19194e-10
2.4204e-06
1.32683e-06
-1.6384e-09
2.5291e-06
1.37144e-06
-1.63774e-09
2.64175e-06
1.41736e-06
2.04471e-11
2.75847e-06
1.46461e-06
-8.10375e-10
2.88082e-06
1.5141e-06
-1.18979e-09
1.56668e-06
-1.49532e-09
3.00829e-06
1.57007e-06
9.12187e-07
-1.12309e-09
1.65379e-06
9.40373e-07
-1.1896e-09
1.74037e-06
9.69917e-07
-1.42201e-09
1.82986e-06
1.00086e-06
-1.35513e-09
1.92223e-06
1.03327e-06
-1.25156e-09
2.01762e-06
1.06723e-06
-1.1883e-09
2.11622e-06
1.10281e-06
-1.05468e-09
2.21808e-06
1.13978e-06
-9.41728e-10
2.32329e-06
1.17842e-06
-7.233e-10
2.43165e-06
1.21881e-06
-1.23736e-09
2.54293e-06
1.26061e-06
-6.81229e-10
2.65686e-06
1.30371e-06
-1.39556e-09
2.77366e-06
1.34807e-06
-6.39137e-10
2.89473e-06
1.39373e-06
8.08559e-10
1.44186e-06
-1.87816e-09
3.02029e-06
1.57395e-06
8.31486e-07
-1.33598e-09
1.65785e-06
8.57205e-07
-1.12367e-09
1.74441e-06
8.83949e-07
-1.63283e-09
1.83386e-06
9.11847e-07
-1.81655e-09
1.92646e-06
9.4111e-07
-1.48455e-09
2.02235e-06
9.71804e-07
-1.15525e-09
2.12153e-06
1.00408e-06
-1.07996e-09
2.22397e-06
1.03778e-06
-1.13476e-09
2.32982e-06
1.07298e-06
-1.02654e-09
2.43933e-06
1.10964e-06
-9.27058e-10
2.55243e-06
1.14781e-06
-5.8364e-10
2.66892e-06
1.18738e-06
-9.139e-10
2.78879e-06
1.22839e-06
-2.23298e-10
2.91199e-06
1.27092e-06
-1.42349e-09
1.31467e-06
-1.66402e-09
3.03889e-06
1.57772e-06
7.49981e-07
-1.55956e-09
1.66213e-06
7.73382e-07
-1.76068e-09
1.74893e-06
7.97653e-07
-1.95554e-09
1.83853e-06
8.22917e-07
-1.35659e-09
1.93107e-06
8.4917e-07
-1.56293e-09
2.02681e-06
8.76526e-07
-1.75089e-09
2.12604e-06
9.05242e-07
-1.46609e-09
2.22881e-06
9.35416e-07
-1.1162e-09
2.33514e-06
9.67014e-07
-9.08321e-10
2.44516e-06
9.9994e-07
-9.3423e-10
2.55896e-06
1.03432e-06
-8.5707e-10
2.67655e-06
1.07002e-06
-8.04387e-10
2.79802e-06
1.10706e-06
-3.5455e-10
2.92339e-06
1.14572e-06
-8.5425e-10
1.18538e-06
9.04239e-11
3.05243e-06
1.57991e-06
6.67733e-07
-1.76024e-09
1.66527e-06
6.88654e-07
-1.98584e-09
1.75305e-06
7.10448e-07
-2.04167e-09
1.84329e-06
7.33185e-07
-2.03415e-09
1.93618e-06
7.5681e-07
-1.80441e-09
2.03209e-06
7.8134e-07
-1.14396e-09
2.13123e-06
8.06825e-07
-1.45627e-09
2.23372e-06
8.33383e-07
-2.05634e-09
2.33986e-06
8.61124e-07
-1.71437e-09
2.44994e-06
8.90057e-07
-1.109e-09
2.56398e-06
9.20467e-07
-7.43898e-10
2.68197e-06
9.52272e-07
-7.17567e-10
2.80401e-06
9.8521e-07
-5.43607e-10
2.93047e-06
1.01941e-06
-7.76652e-10
1.05513e-06
-1.52433e-09
3.06111e-06
1.49752e-06
5.67478e-07
-2.36534e-09
1.58095e-06
5.85041e-07
-2.18062e-09
1.66689e-06
6.0336e-07
-2.41462e-09
1.75544e-06
6.22485e-07
-2.33955e-09
1.84663e-06
6.42487e-07
-2.25232e-09
1.94059e-06
6.63359e-07
-1.94959e-09
2.03739e-06
6.85131e-07
-1.85756e-09
2.13693e-06
7.07724e-07
-2.44595e-09
2.23961e-06
7.31066e-07
-1.71619e-09
2.34588e-06
7.55401e-07
-2.859e-10
2.45575e-06
7.80682e-07
-9.68996e-10
2.56947e-06
8.07137e-07
-1.75212e-09
2.68717e-06
8.34683e-07
-1.86375e-09
2.80904e-06
8.63258e-07
-1.07201e-09
2.9356e-06
8.92806e-07
-6.01925e-10
9.24331e-07
-1.47643e-09
3.06681e-06
1.49761e-06
4.86946e-07
-2.63428e-09
1.5814e-06
5.0203e-07
-2.65214e-09
1.66768e-06
5.17751e-07
-2.78255e-09
1.75661e-06
5.34156e-07
-2.60993e-09
1.84834e-06
5.51307e-07
-2.36709e-09
1.943e-06
5.69211e-07
-2.14182e-09
2.04067e-06
5.87949e-07
-2.04671e-09
2.14135e-06
6.07432e-07
-2.04944e-09
2.24517e-06
6.27585e-07
-1.54481e-09
2.35226e-06
6.48648e-07
-1.49582e-09
2.4627e-06
6.70617e-07
-2.0544e-09
2.57651e-06
6.9335e-07
-2.22729e-09
2.69426e-06
7.16855e-07
-4.18099e-10
2.81624e-06
7.41584e-07
1.18963e-09
2.94232e-06
7.67173e-07
-6.31768e-10
7.94278e-07
-2.51558e-09
3.07287e-06
1.49742e-06
4.06178e-07
-2.99625e-09
1.58152e-06
4.18768e-07
-2.9897e-09
1.66809e-06
4.31894e-07
-3.05378e-09
1.75732e-06
4.45582e-07
-2.84915e-09
1.84934e-06
4.59877e-07
-2.58391e-09
1.94431e-06
4.74792e-07
-2.37789e-09
2.04238e-06
4.9038e-07
-2.18776e-09
2.14362e-06
5.0661e-07
-1.9945e-09
2.2481e-06
5.23456e-07
-1.76576e-09
2.35599e-06
5.41047e-07
-1.65894e-09
2.46743e-06
5.59418e-07
-1.57071e-09
2.58246e-06
5.78395e-07
-1.34567e-09
2.7013e-06
5.9805e-07
-8.18666e-10
2.82415e-06
6.18863e-07
-1.05707e-09
2.95105e-06
6.4052e-07
-2.03264e-09
6.62901e-07
-1.76192e-09
3.08232e-06
1.49702e-06
3.25211e-07
-3.33698e-09
1.58138e-06
3.35299e-07
-3.28741e-09
1.66823e-06
3.45816e-07
-3.31413e-09
1.75773e-06