/*--------------------------------*- C++ -*----------------------------------*\
  =========                 |
  \\      /  F ield         | OpenFOAM: The Open Source CFD Toolbox
   \\    /   O peration     | Website:  https://openfoam.org
    \\  /    A nd           | Version:  6
     \\/     M anipulation  |
\*---------------------------------------------------------------------------*/
FoamFile
{
    version     2.0;
    format      ascii;
    class       volScalarField;
    location    "9";
    object      yPlus;
}
// * * * * * * * * * * * * * * * * * * * * * * * * * * * * * * * * * * * * * //

dimensions      [0 0 0 0 0 0 0];

internalField   uniform 0;

boundaryField
{
    inlet
    {
        type            calculated;
        value           uniform 0;
    }
    outlet
    {
        type            calculated;
        value           uniform 0;
    }
    roughCylinder
    {
        type            calculated;
        value           nonuniform List<scalar> 
3840
(
46.0325
54.4579
62.3974
69.429
74.7609
78.7287
81.7547
84.1605
86.2241
88.0413
89.6912
91.2369
92.7492
94.2976
95.9353
97.6935
99.5785
101.579
103.675
105.832
108.009
110.124
112.002
113.242
45.2498
53.3937
61.1133
68.0401
73.3344
77.2853
80.3089
82.7254
84.7938
86.5986
88.2252
89.742
91.2226
92.7364
94.3381
96.0571
97.9004
99.8571
101.905
104.013
106.139
108.203
110.035
111.244
44.3753
52.2842
59.8008
66.624
71.8886
75.8355
78.8711
81.3075
83.3836
85.1801
86.788
88.2794
89.7295
91.2104
92.7757
94.4566
96.2591
98.1723
100.174
102.232
104.308
106.32
108.108
109.285
43.5109
51.1682
58.4805
65.1974
70.434
74.3836
77.4419
79.9081
81.9976
83.7958
85.3865
86.8543
88.2772
89.7268
91.2592
92.9032
94.6658
96.536
98.4914
100.501
102.527
104.489
106.231
107.378
42.5554
49.9957
57.1086
63.7246
68.9503
72.9249
76.0231
78.5262
80.635
82.438
84.0188
85.4686
86.8666
88.2882
89.7875
91.3967
93.1214
94.9503
96.8614
98.8241
100.801
102.713
104.413
105.529
41.6776
48.8356
55.7332
62.2439
67.4615
71.4639
74.6043
77.1515
79.2869
81.1051
82.6836
84.1185
85.4963
86.8919
88.3635
89.9397
91.6277
93.416
95.2835
97.1996
99.1284
100.992
102.648
103.734
40.6496
47.585
54.2683
60.6809
65.9141
69.9765
73.1851
75.7857
77.9546
79.7878
81.3756
82.8041
84.1656
85.5402
86.9831
88.5286
90.1821
91.9323
93.7576
95.629
97.5115
99.3264
100.941
101.999
39.7904
46.3782
52.81
59.1098
64.3598
68.4796
71.7482
74.4085
76.6205
78.4886
80.0904
81.5199
82.8722
84.2282
85.6503
87.1674
88.7879
90.5004
92.2842
94.1105
95.9457
97.7138
99.2859
100.316
38.6486
45.0026
51.1894
57.3838
62.6784
66.9063
70.2871
73.0279
75.2952
77.1912
78.8192
80.2622
81.6117
82.9575
84.3567
85.8482
87.4377
89.1148
90.8588
92.6415
94.4317
96.1524
97.686
98.6869
37.7964
43.7193
49.5888
55.6453
60.9841
65.3123
68.7785
71.6043
73.9373
75.8977
77.5602
79.0205
80.3786
81.7175
83.1053
84.574
86.1342
87.7758
89.4793
91.2179
92.9607
94.6336
96.125
97.0996
36.4496
42.1387
47.7129
53.6213
59.0244
63.5321
67.1948
70.154
72.5826
74.5894
76.2973
77.7919
79.162
80.5052
81.8784
83.3278
84.8609
86.4685
88.1322
89.8268
91.5254
93.152
94.6065
95.5513
35.4605
40.699
45.8722
51.5892
57.0576
61.7315
65.5213
68.6139
71.1424
73.256
75.0302
76.5621
77.9606
79.3083
80.6823
82.1156
83.6232
85.1973
86.8208
88.4711
90.1217
91.6975
93.1101
94.0302
34.123
38.939
43.6035
49.0229
54.5343
59.4917
63.6532
66.9875
69.6927
71.8893
73.7348
75.3287
76.7567
78.1265
79.4942
80.9156
82.4005
83.9425
85.5265
87.1318
88.7379
90.2687
91.6452
92.5355
32.8118
37.2684
41.4215
46.502
52.0592
57.2815
61.6289
65.2029
68.0714
70.4426
72.4049
74.0659
75.5509
76.94
78.3245
79.7383
81.202
82.7121
84.2556
85.8151
87.3707
88.8458
90.1797
91.046
30.8333
34.9105
38.3887
42.8827
48.3438
53.9972
59.1276
63.1728
66.3984
68.9339
71.0136
72.7774
74.3144
75.7504
77.1393
78.5494
79.9959
81.4755
82.9779
84.491
86.0019
87.4316
88.7304
89.5652
28.8358
32.7167
35.6362
39.5641
44.9517
50.9921
56.2958
60.8643
64.3938
67.2405
69.5299
71.4109
73.0491
74.525
75.9527
77.3671
78.7971
80.2453
81.7056
83.1686
84.6233
85.9885
87.2416
88.0547
25.2557
28.8945
30.9066
33.549
38.3444
45.0064
52.3691
57.8804
62.2214
65.4235
67.9306
69.9866
71.7103
73.2697
74.716
76.1365
77.5555
78.9741
80.3891
81.8032
83.2128
84.5302
85.7513
86.5271
21.3771
25.5779
27.203
29.1856
33.2962
40.7334
47.2464
54.3459
59.3357
63.1978
66.1194
68.3928
70.2982
71.9288
73.4463
74.8886
76.2966
77.6823
79.0507
80.4049
81.7453
82.9864
84.1522
84.9145
7.41499
15.216
16.4977
12.3326
14.7828
23.3978
40.2432
48.724
55.9984
60.6884
64.0771
66.6862
68.736
70.5145
72.0716
73.5317
74.9357
76.2915
77.606
78.9086
80.2071
81.3863
82.53
83.2394
6.66954
9.05881
9.81939
11.1171
7.6374
15.1524
22.1416
42.2929
50.7314
57.2403
61.5581
64.6111
67.0206
68.9246
70.6088
72.1193
73.5198
74.8372
76.094
77.3167
78.5145
79.6083
80.6769
81.3908
14.265
17.1901
17.1287
17.2141
12.5081
11.9371
17.9628
24.5016
44.5753
52.8874
58.4887
62.3102
64.9861
67.1794
68.9411
70.4864
71.8926
73.1764
74.3622
75.5304
76.7037
77.6933
78.7535
79.3905
23.5841
26.7391
27.9439
27.2977
26.5347
20.0934
14.5915
25.3608
30.262
46.8667
54.3104
59.1541
62.6538
65.0764
67.0786
68.7285
70.1442
71.3765
72.4787
73.5253
74.5192
75.4173
76.3877
77.0458
25.8596
29.853
32.3836
33.6925
33.0453
30.5753
25.9873
14.826
9.37123
33.796
48.5606
55.4938
59.5473
62.634
64.8008
66.5159
67.9548
69.1412
70.1307
71.124
72.1527
72.8623
73.7998
74.3841
27.3558
31.4243
34.1256
36.0932
37.1732
37.1187
34.9381
27.8088
18.6775
26.7116
39.3949
49.6961
55.9421
59.4367
62.1018
64.0409
65.5153
66.619
67.464
68.2356
68.8845
69.4481
70.3742
70.9322
26.9709
31.2117
34.1275
36.4188
37.996
38.8642
38.9505
37.4847
29.1062
29.7536
24.7445
42.1903
50.0367
55.4358
58.4884
60.5329
62.076
63.0952
63.6858
64.4463
65.32
65.6488
66.2561
66.9437
24.8586
29.4268
32.6133
35.2429
37.2229
38.5762
39.3467
39.2318
35.8197
33.5381
28.5452
30.2975
44.1182
49.7496
53.9738
56.5467
58.1735
59.0162
59.3229
59.558
59.449
59.2646
60.4422
60.6709
21.7427
26.7123
30.13
33.0247
35.3318
37.093
38.4409
39.4045
39.2476
34.4139
31.7004
29.3262
29.2877
42.0417
47.2735
49.733
51.5923
52.2316
51.509
52.1315
53.1425
54.1325
52.3224
54.6164
18.5186
23.7204
27.1838
30.1673
32.6641
34.7413
36.5307
38.1561
39.4216
39.0207
34.0764
19.3068
6.28547
29.3811
38.9314
42.962
45.0779
45.3151
44.095
42.7089
40.1082
38.4473
41.0534
39.1607
15.8594
20.9729
24.2444
27.1031
29.6067
31.8562
33.974
36.0928
38.1625
39.6146
39.1275
29.9826
23.4739
28.8569
22.3174
22.2269
26.4053
25.8876
33.4752
17.7353
24.0201
34.5721
15.7389
30.9783
13.5357
18.4689
21.4838
24.1432
26.5579
28.8519
31.1424
33.5497
36.1137
38.5552
40.0165
37.6505
27.8625
17.6577
28.6049
30.201
20.7331
23.0123
31.177
33.755
20.9065
42.534
17.3539
37.6554
11.8816
16.5358
19.2563
21.6729
23.9339
26.1665
28.473
30.9504
33.6898
36.6283
39.2209
39.9482
35.2631
24.7479
34.8122
40.0254
30.4119
35.0561
21.2289
31.519
24.4447
44.4664
37.6551
34.1949
10.9098
15.2607
17.727
19.9279
22.0258
24.1319
26.3257
28.6901
31.3353
34.3457
37.5005
39.7816
39.402
35.7284
29.0673
37.1112
25.8124
36.6681
38.5652
37.6138
38.5561
30.6224
39.9241
37.9147
10.4469
14.6571
16.9464
18.9977
20.9632
22.9238
24.9335
27.0631
29.4291
32.1852
35.3749
38.4948
40.1949
39.9538
36.879
37.5126
37.4545
37.9476
43.9675
42.5071
43.6759
36.7319
41.9317
43.5072
10.4728
14.5907
16.7987
18.7835
20.6711
22.5104
24.3333
26.1994
28.2142
30.5399
33.3537
36.5873
39.4271
40.8036
40.3558
41.2532
41.3304
41.8834
44.8477
43.1176
44.578
40.6439
42.4843
44.6924
10.8132
14.9244
17.1346
19.1215
20.983
22.7431
24.4194
26.0594
27.7499
29.6265
31.8854
34.6887
37.7786
40.2027
41.1163
42.1623
42.3365
42.9159
44.3833
42.6458
44.1024
41.5422
42.3669
44.2512
11.3696
15.5318
17.7942
19.831
21.7131
23.4427
25.0269
26.5059
27.9493
29.4581
31.1893
33.3517
36.0235
38.7279
40.4986
41.7584
42.0871
42.5493
43.0756
41.4677
42.6753
40.95
41.6399
42.8773
12.0372
16.3426
18.6782
20.7888
22.7173
24.4506
25.9918
27.3776
28.6637
29.9186
31.2491
32.8248
34.8224
37.1568
39.1439
40.549
41.0079
41.3274
41.3506
39.981
40.9077
39.8373
40.6352
41.3082
12.9626
17.3062
19.7205
21.9152
23.9027
25.6598
27.1921
28.5384
29.7447
30.8534
31.9259
33.0743
34.4574
36.1556
37.8443
39.1523
39.6627
39.8707
39.6901
38.6781
39.377
38.8876
39.8108
40.1286
13.9242
18.3606
20.8717
23.1581
25.2102
27.003
28.5493
29.8929
31.0743
32.1187
33.0536
33.9395
34.8844
35.9972
37.1777
38.1726
38.6097
38.7228
38.5084
37.8636
38.4408
38.4248
39.4406
39.6096
14.9359
19.4844
22.1009
24.4811
26.6001
28.4355
30.0106
31.3753
32.5668
33.5994
34.4803
35.2335
35.9161
36.6127
37.3224
37.9302
38.1901
38.1969
38.005
37.666
38.207
38.5531
39.6294
39.7892
15.6377
16.0649
16.5329
16.9
17.2506
17.5209
17.7607
17.9435
18.093
18.1989
18.2755
18.317
18.3288
18.3095
18.2619
18.1878
18.0879
17.9655
17.8301
17.7123
17.7302
17.8623
18.0051
18.1328
18.237
18.3151
18.3662
18.3885
18.3795
18.3403
18.2658
18.1612
18.0124
17.8295
17.5888
17.3164
16.9638
16.5937
16.1234
15.6939
20.2887
20.6988
21.1685
21.5439
21.9118
22.211
22.4838
22.707
22.8999
23.0531
23.1779
23.27
23.3315
23.3599
23.3547
23.3167
23.2456
23.1428
23.0165
22.8986
22.9175
23.0504
23.1841
23.2922
23.3676
23.4094
23.4179
23.3924
23.3335
23.2434
23.1204
22.968
22.7752
22.5511
22.2767
21.9749
21.6042
21.2252
20.7527
20.3399
22.9833
23.4134
23.9175
24.3247
24.7335
25.0789
25.404
25.6845
25.9391
26.1574
26.3482
26.5085
26.6387
26.7349
26.7944
26.8155
26.7969
26.7388
26.6496
26.5616
26.5778
26.6815
26.7788
26.8426
26.866
26.8491
26.7932
26.7003
26.5731
26.4154
26.2267
26.0092
25.7547
25.4733
25.1466
24.7984
24.3866
23.9754
23.4682
23.0349
25.4202
25.8603
26.386
26.813
27.2499
27.6281
27.9914
28.3146
28.6177
28.8902
29.1381
29.3568
29.546
29.7003
29.816
29.8895
29.9183
29.9028
29.8519
29.7974
29.8103
29.8807
29.9405
29.9622
29.9384
29.8694
29.7577
29.6071
29.4214
29.2053
28.96
28.6887
28.3865
28.0625
27.6978
27.317
26.8769
26.446
25.9168
25.4729
27.5726
28.002
28.5295
28.958
29.4046
29.7984
30.1854
30.5406
30.8804
31.1949
31.4875
31.753
31.9892
32.19
32.3508
32.4666
32.5336
32.5521
32.531
32.4995
32.5104
32.5572
32.5874
32.5753
32.5133
32.4023
32.2457
32.0485
31.8159
31.5533
31.2633
30.9506
30.612
30.2567
29.869
29.4729
29.0232
28.5906
28.0591
27.6253
29.4273
29.8333
30.3533
30.7774
31.2293
31.6382
32.0464
32.4298
32.8016
33.1523
33.4832
33.7886
34.0645
34.3046
34.5026
34.6527
34.7504
34.795
34.795
34.7773
34.7872
34.8195
34.8285
34.79
34.6974
34.5517
34.3577
34.1214
33.8488
33.5465
33.218
32.8693
32.4987
32.1157
31.7069
31.2962
30.842
30.4139
29.8893
29.478
31.0206
31.4027
31.918
32.3432
32.8047
33.2303
33.6595
34.069
34.4694
34.8514
35.2152
35.5541
35.8632
36.1353
36.3633
36.5406
36.6615
36.7252
36.739
36.7288
36.7382
36.7623
36.7569
36.6992
36.5829
36.4099
36.1856
35.917
35.6112
35.2751
34.9138
34.5335
34.1341
33.7249
33.2951
32.868
32.4037
31.975
31.4545
31.0661
32.4074
32.7696
33.2845
33.7147
34.1868
34.6287
35.0769
35.5089
35.9335
36.3417
36.7321
37.0978
37.433
37.7298
37.9806
38.1779
38.3157
38.3922
38.4146
38.4084
38.4175
38.437
38.4226
38.3514
38.218
38.0245
37.7772
37.4834
37.1513
36.7881
36.3999
35.9932
35.5694
35.1374
34.6882
34.2445
33.7693
33.3347
32.8141
32.4447
33.6211
33.9642
34.4801
34.9157
35.3975
35.8538
36.3181
36.7691
37.2134
37.6423
38.0536
38.4398
38.7946
39.1098
39.3771
39.5887
39.7383
39.824
39.8527
39.8495
39.8583
39.8742
39.8529
39.7721
39.6263
39.418
39.1538
38.8414
38.4892
38.1051
37.6956
37.2678
36.8239
36.3725
35.9067
35.4477
34.962
34.5212
33.9989
33.6474
34.6713
34.9924
35.5075
35.9476
36.4386
36.9079
37.3866
37.8536
38.3144
38.76
39.1874
39.5894
39.9587
40.2871
40.5662
40.788
40.9466
41.04
41.0753
41.0768
41.0849
41.0956
41.0672
40.9782
40.823
40.6041
40.3276
40.0015
39.6343
39.234
38.8077
38.3626
37.9016
37.4333
36.9523
36.4794
35.9834
35.5367
35.0134
34.6822
35.5547
35.8472
36.3594
36.8037
37.3038
37.7861
38.2788
38.7609
39.2365
39.6966
40.1375
40.5517
40.9319
41.2701
41.5578
41.7873
41.9533
42.0544
42.0981
42.1063
42.1137
42.1166
42.0796
41.9825
41.8195
41.5923
41.3067
40.9704
40.5916
40.1785
39.738
39.2776
38.8009
38.3165
37.8201
37.3328
36.8258
36.3725
35.8491
35.5447
36.2752
36.5206
37.0242
37.4725
37.9823
38.479
38.9868
39.4848
39.9753
40.4492
40.9024
41.3273
41.7167
42.0626
42.3571
42.5932
42.7661
42.8753
42.9284
42.9445
42.9508
42.9449
42.898
42.7927
42.6224
42.3883
42.0953
41.7506
41.362
40.9373
40.4836
40.0084
39.5156
39.0138
38.5006
37.9962
37.4767
37.0148
36.4967
36.2373
36.8528
37.0107
37.4863
37.937
38.4568
38.9703
39.4952
40.0112
40.5181
41.0069
41.4728
41.9084
42.3066
42.6597
42.9605
43.2027
43.3822
43.4995
43.5617
43.5849
43.5905
43.5764
43.52
43.4063
43.2289
42.9882
42.6885
42.3358
41.9376
41.5014
41.034
40.5426
40.0317
39.51
38.9768
38.452
37.9168
37.4472
36.9531
36.7793
37.3308
37.3315
37.7372
38.1747
38.704
39.2359
39.7811
40.3176
40.8436
41.3495
41.8299
42.2776
42.6854
43.0464
43.3538
43.6022
43.7884
43.9132
43.9835
44.0125
44.0175
43.9965
43.9317
43.81
43.6258
43.3784
43.0713
42.7102
42.3015
41.8523
41.3691
40.8591
40.3273
39.782
39.2249
38.6753
38.1244
37.6619
37.2335
37.2154
37.746
37.5092
37.7851
38.1771
38.7019
39.254
39.821
40.3815
40.9292
41.4549
41.9522
42.4138
42.8331
43.2033
43.5184
43.7736
43.9663
44.098
44.1749
44.2084
44.2129
44.1868
44.1148
43.9861
43.7948
43.5402
43.2249
42.8538
42.4329
41.9686
41.4675
40.936
40.3802
39.8077
39.2232
38.6472
38.0939
37.6687
37.3612
37.5722
38.0028
37.5223
37.6393
37.9582
38.4593
39.0226
39.6138
40.1988
40.77
41.3167
41.8323
42.3093
42.7411
43.1215
43.4448
43.707
43.906
44.0434
44.1253
44.1621
44.1663
44.1366
44.0591
43.9244
43.7265
43.4644
43.1404
42.7586
42.3244
41.8441
41.3239
40.7703
40.1893
39.5904
38.9783
38.3881
37.8557
37.5025
37.3575
37.8271
37.9934
37.332
37.3175
37.5656
38.0369
38.6018
39.2106
39.8182
40.41
40.9753
41.5065
41.9967
42.4392
42.8281
43.1581
43.4255
43.6287
43.7694
43.854
43.8925
43.8967
43.8649
43.7847
43.6461
43.4436
43.1759
42.8447
42.454
42.0086
41.5148
40.9784
40.406
39.8041
39.1814
38.5539
37.9674
37.4734
37.2034
37.2039
37.8682
37.6322
36.9379
36.8878
37.109
37.5652
38.1287
38.7456
39.3667
39.9694
40.544
41.0824
41.5779
42.024
42.415
42.7458
43.013
43.2153
43.3547
43.4377
43.4756
43.4799
43.4493
43.3705
43.2331
43.0312
42.7632
42.4309
42.0379
41.5891
41.0903
40.5478
39.9681
39.359
38.7291
38.1038
37.5355
37.083
36.8812
36.977
37.7573
37.3015
36.6395
36.6037
36.8215
37.268
37.8209
38.4296
39.0446
39.6411
40.209
40.7402
41.2279
41.6658
42.048
42.37
42.6282
42.8214
42.952
43.0273
43.0606
43.0659
43.0408
42.9699
42.8412
42.6481
42.3891
42.0658
41.682
41.2425
40.7531
40.2203
39.6509
39.0535
38.4383
37.8334
37.2919
36.8698
36.6983
36.8091
37.592
37.3768
36.7363
36.7043
36.9091
37.3336
37.8605
38.4423
39.0318
39.6052
40.1514
40.6618
41.1294
41.5476
41.911
42.2147
42.4556
42.632
42.7466
42.8077
42.8329
42.8411
42.8286
42.7744
42.6635
42.489
42.2496
41.9472
41.5854
41.1693
40.7045
40.1976
39.6556
39.087
38.5026
37.9269
37.408
36.9923
36.7991
36.8363
37.4801
37.9024
37.3006
37.2829
37.4777
37.8778
38.3708
38.9136
39.4622
39.9985
40.5098
40.9875
41.4237
41.8123
42.1476
42.4251
42.6411
42.7942
42.8862
42.9262
42.9365
42.9463
42.9492
42.9144
42.8237
42.6704
42.4536
42.1753
41.8394
41.4506
41.0146
40.5376
40.0271
39.4918
38.9439
38.4029
37.9141
37.5215
37.341
37.3799
38.0214
38.6832
38.1199
38.1222
38.3181
38.7044
39.1727
39.6837
40.1981
40.7017
41.1813
41.6283
42.0351
42.3956
42.7045
42.9574
43.1508
43.283
43.3552
43.3764
43.3738
43.3905
43.4139
43.4012
43.3329
43.2034
43.0123
42.7622
42.4566
42.1002
41.6983
41.2571
40.7836
40.286
39.7767
39.2674
38.7967
38.3997
38.1829
38.1333
38.6237
39.5192
39.0641
39.1228
39.3301
39.7039
40.1425
40.6157
41.0936
41.5617
42.0078
42.423
42.7999
43.1325
43.4156
43.6449
43.817
43.9298
43.9842
43.988
43.97
43.9863
44.021
44.021
43.9665
43.8522
43.6785
43.4476
43.1633
42.8302
42.4536
42.0398
41.5963
41.132
40.66
40.1945
39.7686
39.4127
39.2336
39.2099
39.721
40.0552
39.5808
39.6411
39.8578
40.2405
40.6855
41.1608
41.6382
42.1038
42.5456
42.9552
43.3257
43.6516
43.9278
44.1506
44.3165
44.4238
44.4734
44.4729
44.4517
44.4716
44.514
44.5221
44.4758
44.3704
44.2058
43.984
43.7085
43.3832
43.013
42.6029
42.1597
41.6907
41.2067
40.7192
40.2581
39.8541
39.6092
39.5125
39.9386
46.0234
54.4423
62.3816
69.4149
74.748
78.7164
81.7428
84.1485
86.2117
88.0283
89.6779
91.2233
92.7353
94.2834
95.9208
97.6788
99.5637
101.565
103.66
105.818
107.993
110.112
111.98
113.218
45.2447
53.3837
61.1015
68.0284
73.3233
77.274
80.2972
82.7135
84.7817
86.5864
88.2125
89.7288
91.2087
92.7218
94.3233
96.0421
97.8854
99.8421
101.89
103.999
106.123
108.191
110.013
111.219
44.3684
52.2743
59.7887
66.6112
71.8758
75.8231
78.859
81.2956
83.371
85.1667
86.7741
88.2651
89.715
91.1959
92.7607
94.4415
96.2439
98.1569
100.158
102.219
104.292
106.31
108.085
109.26
43.5121
51.1642
58.4728
65.1878
70.4237
74.3729
77.4305
79.896
81.9852
83.7833
85.3739
86.8409
88.263
89.7117
91.2438
92.8877
94.6503
96.5207
98.476
100.487
102.511
104.478
106.208
107.352
42.5505
49.9881
57.0983
63.7128
68.9379
72.9124
76.011
78.5142
80.6225
82.4244
84.0042
85.4535
86.8514
88.2732
89.7721
91.3811
93.1057
94.9347
96.8461
98.811
100.784
102.704
104.389
105.502
41.6823
48.8339
55.7273
62.2353
67.4517
71.4536
74.5933
77.1394
79.2742
81.0922
82.6708
84.1052
85.482
86.8763
88.3476
89.9236
91.6116
93.4007
95.2679
97.1858
99.1117
100.983
102.624
103.706
40.6421
47.5759
54.2582
60.6701
65.9029
69.9648
73.1731
75.7736
77.9421
79.7745
81.3607
82.7883
84.1497
85.5247
86.9672
88.5124
90.166
91.9166
93.7422
95.6161
97.4941
99.3187
100.916
101.97
39.7927
46.3754
52.8033
59.1004
64.3489
68.4685
71.737
74.3967
76.6079
78.475
80.0772
81.5063
82.8577
84.2121
85.6338
87.1508
88.7712
90.4846
92.2685
94.0969
95.9289
97.707
99.2617
100.285
38.6389
44.9927
51.1801
57.3755
62.6704
66.8975
70.2767
73.0162
75.2822
77.1778
78.8042
80.2459
81.595
82.9413
84.3402
85.8314
87.4211
89.0988
90.8431
92.6296
94.4146
96.1474
97.6598
98.6561
37.7954
43.7143
49.5796
55.6325
60.969
65.2967
68.7643
71.5914
73.9253
75.8845
77.5462
79.0065
80.3635
81.7007
83.088
84.5568
86.1171
87.7597
89.4633
91.2044
92.9436
94.6302
96.1006
97.0656
36.4421
42.1316
47.708
53.6191
59.0246
63.5323
67.1914
70.1462
72.5699
74.5744
76.2824
77.7752
79.1445
80.4881
81.8611
83.3102
84.8436
86.4522
88.1167
89.816
91.5088
93.1511
94.5789
95.5183
35.4547
40.689
45.8574
51.5697
57.033
61.704
65.4972
68.5944
71.1278
73.2449
75.0158
76.547
77.9447
79.2905
80.664
82.0977
83.6055
85.1812
86.8052
88.4585
90.1038
91.7
93.0854
93.9923
34.1213
38.9403
43.6095
49.0347
54.5534
59.5149
63.669
66.9932
69.6882
71.8723
73.7188
75.3119
76.7383
78.1083
79.4757
80.8966
82.3823
83.9258
85.5114
87.1227
88.7231
90.2741
91.6172
92.4984
32.8
37.2513
41.3981
46.4716
52.0161
57.2266
61.581
65.1662
68.0435
70.4326
72.3915
74.049
75.5337
76.9205
78.3047
79.7193
81.1834
82.6961
84.2401
85.8039
87.352
88.8562
90.1549
91.0031
30.8473
34.9319
38.4193
42.9232
48.4045
54.0784
59.1913
63.2102
66.4185
68.9189
70.9945
72.7606
74.2942
75.7308
77.1188
78.5286
79.9766
81.4583
82.9639
84.4842
85.989
87.4463
88.7014
89.523
28.8175
32.6889
35.6016
39.5285
44.8912
50.8731
56.1934
60.7948
64.3365
67.2259
69.5201
71.391
73.0304
74.5023
75.9308
77.3471
78.7773
80.2296
81.6906
83.1598
84.603
86.0126
87.2182
88.0055
25.3191
28.9788
31.0034
33.6267
38.419
45.2829
52.5725
57.9898
62.2893
65.4174
67.9026
69.9693
71.6868
73.2491
74.6924
76.1126
77.5347
78.9565
80.3772
81.7999
83.2033
84.5583
85.7194
86.4766
21.3019
25.4771
27.0912
29.2265
33.8595
40.3419
46.9945
54.2255
59.2371
63.1755
66.1228
68.3707
70.2779
71.8988
73.4208
74.8674
76.2749
77.6668
79.0367
80.4004
81.7248
83.0326
84.1348
84.8549
7.57923
15.6582
17.4158
13.8309
11.8293
25.4918
41.0727
49.0402
56.1588
60.6933
64.0186
66.66
68.7042
70.4948
72.0436
73.5025
74.9129
76.274
77.5979
78.9099
80.1981
81.4357
82.4906
83.1789
10.4432
6.7319
9.92218
18.3249
16.1794
25.643
23.4154
42.3633
50.5675
57.1871
61.6075
64.6005
67.001
68.877
70.5753
72.0976
73.4947
74.8221
76.0829
77.3196
78.5016
79.6926
80.6733
81.3103
14.6212
17.649
17.4221
15.5786
11.6089
18.7382
22.2365
25.8617
45.3845
53.0342
58.3376
62.2411
64.9327
67.1677
68.9077
70.4468
71.8666
73.1601
74.3621
75.5378
76.6823
77.7772
78.7007
79.3189
23.7108
27.0172
28.4288
27.9657
26.0251
21.2305
20.9504
7.40492
27.8768
46.0052
54.4906
59.2087
62.6411
64.9838
67.0241
68.7114
70.1134
71.3627
72.4746
73.542
74.5395
75.5789
76.408
76.9205
25.9768
29.9331
32.3854
33.6189
32.9656
30.3041
28.6774
24.0414
21.7505
35.7676
48.1042
55.3021
59.4463
62.6523
64.7621
66.4542
67.9216
69.13
70.1517
71.1403
72.0818
72.9914
73.7302
74.2892
27.1201
31.2228
33.9006
35.7718
36.5999
35.8945
32.443
26.0624
30.0061
25.8153
40.5725
49.9746
55.9327
59.2195
61.9862
64.0454
65.4735
66.6072
67.4764
68.2807
69.0073
69.8125
70.4375
70.7204
26.7596
30.9882
33.8583
36.0538
37.4483
37.9801
37.4211
34.6272
32.226
35.9189
28.8232
42.1622
49.9286
55.587
58.4471
60.436
62.02
63.106
63.7786
64.4758
65.1057
65.7659
66.1896
66.7216
24.7869
29.3327
32.481
35.0433
36.9066
38.0619
38.556
38.2841
35.1637
32.7428
36.7049
31.0767
43.7469
49.1206
53.6497
56.6334
58.0963
58.9981
59.3683
59.6707
59.9096
60.294
60.6509
60.3168
21.8578
26.7907
30.178
33.0258
35.2549
36.8934
38.0521
38.7736
38.5294
34.0979
33.0221
9.50481
32.1285
42.9174
47.172
49.661
51.4414
52.3915
51.9546
52.1624
52.7506
53.3004
53.0433
53.123
18.7081
23.8966
27.3552
30.3235
32.7822
34.7886
36.4707
37.9476
39.0459
38.7864
32.8074
24.8992
36.9878
30.3914
37.6113
43.2809
44.5081
44.9632
43.9761
43.0747
40.8703
40.802
41.2247
39.4484
16.0478
21.1725
24.46
27.3268
29.8217
32.0387
34.0962
36.1186
38.0474
39.2931
37.6069
30.8372
30.3792
33.6972
23.2095
27.1978
26.9654
27.3683
15.7904
16.6368
36.0328
43.5205
44.7851
13.2552
13.6755
18.6335
21.6731
24.3512
26.7726
29.0567
31.3159
33.6623
36.1101
38.3077
39.0874
36.1007
23.474
30.2679
32.5512
30.9133
30.6325
30.847
32.0641
2.99397
39.4998
40.3266
47.1113
22.183
11.9629
16.6401
19.3828
21.8177
24.0892
26.3217
28.6138
31.0539
33.7046
36.4292
38.5201
38.5437
34.4283
27.3403
33.9278
25.2332
17.4214
33.151
24.2485
30.5587
39.6786
28.171
44.8802
31.3578
10.9388
15.3055
17.7874
20.001
22.107
24.2154
26.4032
28.7445
31.3256
34.1774
36.9869
38.7458
38.612
33.4235
31.1692
25.6123
27.0031
28.8788
37.4131
37.4278
35.559
39.516
37.684
41.2745
10.4434
14.6618
16.9589
19.0163
20.9862
22.9494
24.9576
27.0733
29.3936
32.0347
34.9862
37.7344
39.4468
38.2149
37.8394
33.6755
37.6904
38.5904
43.5243
43.0565
42.167
44.9949
42.1629
44.9658
10.4457
14.5683
16.7799
18.7678
20.6587
22.5021
24.3272
26.187
28.1749
30.4277
33.0837
36.0627
38.8618
39.7541
40.4329
38.4381
40.9827
41.739
44.2919
43.7884
43.5606
45.5247
43.1446
45.3504
10.7743
14.8888
17.1004
19.0888
20.9533
22.7185
24.4001
26.0411
27.7205
29.5596
31.7296
34.3721
37.3981
39.5817
40.9731
40.1723
41.7689
42.2668
43.6149
43.3042
43.2242
44.6227
42.6692
44.675
11.324
15.4897
17.753
19.7906
21.6757
23.4115
25.0035
26.4889
27.9328
29.4287
31.1193
33.1972
35.8066
38.3663
40.3266
40.5232
41.5787
41.7293
42.189
41.9744
41.9644
42.9337
41.5858
43.2326
11.9901
16.2983
18.6343
20.7455
22.677
24.4166
25.9666
27.362
28.6557
29.9135
31.2343
32.7775
34.7397
36.9878
39.0593
39.8783
40.6738
40.5484
40.4545
40.2907
40.3766
41.0993
40.3795
41.6413
12.913
17.2604
19.6751
21.8701
23.8601
25.6231
27.1641
28.521
29.7385
30.8589
31.9398
33.0882
34.4674
36.1335
37.8794
38.8925
39.5162
39.2506
38.905
38.8008
39.0065
39.6399
39.4922
40.4174
13.8732
18.3139
20.825
23.1111
25.1651
26.9625
28.5165
29.8706
31.0643
32.1241
33.0766
33.9807
34.9447
36.0668
37.3056
38.1738
38.6092
38.2963
37.8936
37.8582
38.1888
38.8377
39.1383
39.841
14.8822
19.4355
22.0518
24.4313
26.5512
28.39
29.9716
31.3458
32.5493
33.5982
34.5001
35.2796
35.9942
36.7234
37.4943
38.0629
38.2776
37.9417
37.5641
37.5913
38.0344
38.7498
39.3741
39.9612
46.0421
44.3742
43.6058
41.9309
40.9495
39.4194
38.3631
36.947
35.8494
34.5221
33.5893
32.3912
31.5216
30.5573
29.6468
28.7432
28.2417
27.5467
27.0805
26.6707
26.6696
27.1021
27.4978
28.0643
28.9184
29.674
30.5209
31.5103
32.3811
33.5458
34.5426
35.8354
36.9058
38.402
39.376
40.941
41.9739
43.561
44.3676
46.0488
54.6578
53.1435
52.3671
50.9491
50.0051
48.723
47.6877
46.5497
45.4657
44.4124
43.4853
42.5188
41.7691
40.9204
40.0916
39.4801
38.98
38.3984
38.2044
37.9233
37.924
38.2069
38.5638
38.8735
39.5525
40.1221
40.9357
41.7785
42.5161
43.4979
44.3952
45.4872
46.4664
47.7245
48.6711
50.0208
51.0039
52.3762
53.1608
54.6748
62.7172
61.2821
60.4768
59.1336
58.2006
56.9616
55.9765
54.8554
53.8656
52.8564
51.951
51.0473
50.26
49.4845
48.7696
48.1741
47.6629
47.2154
46.9529
46.766
46.7669
46.9564
47.2672
47.6465
48.1926
48.7833
49.4983
50.2691
51.0554
51.9607
52.8567
53.8824
54.8373
55.9889
56.9531
58.2095
59.1573
60.4917
61.2987
62.7333
69.7423
68.2919
67.394
66.0299
65.0358
63.7743
62.7538
61.6075
60.6112
59.5857
58.6626
57.763
56.9499
56.1901
55.5083
54.9147
54.4141
54.0136
53.738
53.5847
53.5855
53.7408
54.0242
54.4174
54.9218
55.5162
56.199
56.9578
57.7711
58.6714
59.593
60.6211
61.6128
62.7629
63.781
65.0456
66.0426
67.4059
68.3052
69.7554
75.0274
73.5231
72.5304
71.1197
70.0533
68.7574
67.6824
66.5105
65.4788
64.4356
63.49
62.5829
61.759
61.0014
60.328
59.7429
59.2556
58.874
58.6097
58.4693
58.4699
58.6117
58.8782
59.2594
59.7478
60.3338
61.008
61.7659
62.59
63.4977
64.4432
65.4871
66.5187
67.6913
68.7661
70.0631
71.1302
72.5411
73.5348
75.039
78.9545
77.4079
76.3439
74.902
73.7798
72.4646
71.3489
70.1645
69.1074
68.0566
67.0987
66.1892
65.3634
64.6102
63.9444
63.3695
62.8945
62.5262
62.2728
62.1401
62.1406
62.2743
62.529
62.8978
63.3735
63.9493
64.6159
65.3696
66.1958
67.1057
68.0639
69.1154
70.1728
71.3576
72.4734
73.7893
74.9121
76.3544
77.4192
78.9658
81.948
80.3744
79.2558
77.7998
76.6356
75.3124
74.1688
72.9791
71.9065
70.8526
69.8888
68.9798
68.155
67.4065
66.7473
66.1806
65.7144
65.3552
65.1091
64.9814
64.9818
65.1104
65.3573
65.7173
66.1841
66.7516
67.4117
68.1607
68.986
69.8955
70.8597
71.9142
72.9872
74.1774
75.3212
76.645
77.8096
79.2663
80.3855
81.9595
84.3224
82.7306
81.5672
80.1058
78.9122
77.5857
76.424
75.2307
74.1485
73.092
72.1244
71.2151
70.3903
69.6441
68.988
68.4254
67.9638
67.609
67.3666
67.2412
67.2416
67.3678
67.611
67.9665
68.4288
68.9921
69.6489
70.3958
71.221
72.1309
73.099
74.1561
75.2388
76.4326
77.5946
78.9216
80.1158
81.5777
82.7416
84.334
86.3614
84.7515
83.5532
82.0814
80.8649
79.5294
78.3525
77.1509
76.0581
74.9947
74.0198
73.1054
72.2759
71.5263
70.8676
70.3033
69.8406
69.4851
69.2422
69.1164
69.1168
69.2434
69.487
69.8433
70.3067
70.8717
71.531
72.2813
73.1113
74.0263
75.0018
76.0658
77.1589
78.3611
79.5384
80.8745
82.0915
83.5639
84.7628
86.3731
88.1714
86.5336
85.3133
83.8236
82.5895
81.2404
80.0489
78.8359
77.7307
76.6574
75.6721
74.7488
73.9109
73.1538
72.4883
71.918
71.4501
71.0904
70.8442
70.7161
70.7166
70.8455
71.0924
71.4529
71.9215
72.4924
73.1586
73.9163
74.7549
75.6787
76.6646
77.7385
78.8441
80.0577
81.2497
82.5993
83.834
85.3242
86.5452
88.1832
89.8228
88.1558
86.9163
85.4065
84.1543
82.7891
81.581
80.3536
79.2335
78.1468
77.148
76.2124
75.3623
74.594
73.918
73.3381
72.8618
72.4948
72.2432
72.1114
72.1119
72.2446
72.497
72.8646
73.3417
73.9223
74.599
75.3679
76.2186
77.1549
78.1541
79.2415
80.3621
81.5901
82.7987
84.1645
85.4172
86.9276
88.1678
89.8351
91.376
89.6774
88.4218
86.8885
85.619
84.2344
83.0089
81.7641
80.6273
79.5243
78.5097
77.5588
76.6938
75.9113
75.2218
74.6295
74.1418
73.7655
73.5065
73.3698
73.3703
73.5079
73.7677
74.1449
74.6332
75.2263
75.9165
76.6997
77.5652
78.5167
79.5319
80.6355
81.7728
83.0183
84.2442
85.6295
86.8996
88.4335
89.6897
91.3887
92.8985
91.1666
89.8961
88.3371
87.0497
85.6436
84.3994
83.135
81.9797
80.8582
79.8256
78.8571
77.975
77.1759
76.4703
75.863
75.3619
74.9739
74.7061
74.5637
74.5642
74.7075
74.9763
75.365
75.8669
76.475
77.1812
77.981
78.8637
79.8329
80.8661
81.9881
83.144
84.409
85.6537
87.0606
88.3484
89.9082
91.1792
92.9119
94.4578
92.6905
91.405
89.818
88.5118
87.0819
85.8174
84.5315
83.3557
82.2137
81.1611
80.1728
79.2712
78.4531
77.7293
77.1047
76.5877
76.1863
75.9079
75.7589
75.7595
75.9094
76.1887
76.591
77.1087
77.7341
78.4586
79.2774
80.1795
81.1685
82.2217
83.3643
84.5406
85.8273
87.0923
88.5229
89.8297
91.4175
92.7035
94.4716
96.1077
94.3021
93.0007
91.383
90.0564
88.6002
87.3137
86.0037
84.8055
83.6408
82.566
81.5557
80.6325
79.7931
79.0486
78.4042
77.8691
77.4519
77.1614
77.0049
77.0054
77.163
77.4545
77.8725
78.4085
79.0536
79.7988
80.6388
81.5626
82.5736
83.649
84.8143
86.0131
87.3237
88.6108
90.0677
91.3949
93.0133
94.3153
96.1218
97.8778
96.0319
94.7122
93.0619
91.7125
90.2279
88.917
87.5808
86.358
85.1683
84.0691
83.0346
82.0875
81.2244
80.4567
79.7901
79.2341
78.7987
78.494
78.3287
78.3293
78.4957
78.8013
79.2376
79.7944
80.4618
81.2302
82.0939
83.0416
84.0768
85.1766
86.3668
87.5903
88.9272
90.2387
91.7239
93.0739
94.7251
96.0453
97.892
99.7753
97.887
96.5475
94.8621
93.4881
91.973
90.6357
89.2712
88.0216
86.805
85.6794
84.6186
83.6453
82.7564
81.9631
81.2714
80.6919
80.2354
79.914
79.7386
79.7392
79.9158
80.2381
80.6955
81.2759
81.9683
82.7623
83.6518
84.6257
85.6872
86.8134
88.0306
89.2808
90.6459
91.9838
93.4997
94.8743
96.5604
97.9005
99.7896
101.79
99.8581
98.4969
96.7756
95.3754
93.8284
92.4628
91.0687
89.7909
88.5457
87.392
86.3032
85.3021
84.3853
83.5642
82.845
82.2387
81.758
81.4171
81.2296
81.2302
81.4189
81.7608
82.2425
82.8495
83.5694
84.3912
85.3087
86.3104
87.3998
88.5541
89.7999
91.0783
92.4733
93.8391
95.3867
96.7875
98.5098
99.8712
101.804
103.899
101.923
100.541
98.7825
97.3557
95.776
94.3819
92.957
91.6502
90.3756
89.193
88.0752
87.0448
86.0988
85.248
84.4989
83.863
83.3544
82.9903
82.7884
82.7891
82.9922
83.3573
83.8669
84.5035
85.2534
86.1048
87.0517
88.0822
89.2009
90.384
91.6591
92.9668
94.3918
95.7864
97.3672
98.7946
100.554
101.937
103.913
106.073
104.055
102.65
100.856
99.4022
97.7898
96.3669
94.912
93.5758
92.2719
91.0598
89.9127
88.853
87.877
86.9952
86.2144
85.5459
85.0056
84.6136
84.3939
84.3947
84.6157
85.0085
85.5501
86.219
87.0007
87.8829
88.8594
89.9199
91.0675
92.2801
93.5845
94.9212
96.377
97.8005
99.413
100.867