/*--------------------------------*- C++ -*----------------------------------*\
  =========                 |
  \\      /  F ield         | OpenFOAM: The Open Source CFD Toolbox
   \\    /   O peration     | Website:  https://openfoam.org
    \\  /    A nd           | Version:  6
     \\/     M anipulation  |
\*---------------------------------------------------------------------------*/
FoamFile
{
    version     2.0;
    format      ascii;
    class       volScalarField;
    location    "0";
    object      k;
}
// * * * * * * * * * * * * * * * * * * * * * * * * * * * * * * * * * * * * * //

dimensions      [0 2 -2 0 0 0 0];

internalField   nonuniform List<scalar> 
720
(
0.000331768
0.000309437
0.00033176
0.000292754
0.000273105
0.000292714
0.000357902
0.000330776
0.000357849
0.000435915
0.000420417
0.000435845
0.000336951
0.000309813
0.000336901
0.000336934
0.000309796
0.000336884
0.00043589
0.000420394
0.00043582
0.000357881
0.000330757
0.000357829
0.000292736
0.000273089
0.000292697
0.000331734
0.000309415
0.000331732
0.000589273
0.000598632
0.000589262
0.000668499
0.000680285
0.000668435
0.000651284
0.000662445
0.000651206
0.000628549
0.000632267
0.000628456
0.000661755
0.00067351
0.000661676
0.000661728
0.000673483
0.00066165
0.000628517
0.000632235
0.000628424
0.000651251
0.000662413
0.000651174
0.000668463
0.000680254
0.000668402
0.00058922
0.000598592
0.000589217
0.000828784
0.000835007
0.000828767
0.000889222
0.000895684
0.000889134
0.000892813
0.000898308
0.000892708
0.000890689
0.000894101
0.000890563
0.000897353
0.000902731
0.000897248
0.000897319
0.000902698
0.000897214
0.000890648
0.00089406
0.000890521
0.000892773
0.000898269
0.000892668
0.000889179
0.000895647
0.000889095
0.000828718
0.000834955
0.000828709
0.000899564
0.000902999
0.000899545
0.000963441
0.000967881
0.000963348
0.000971308
0.000974395
0.000971195
0.00097356
0.00097523
0.000973426
0.000974518
0.000977462
0.000974406
0.000974482
0.000977425
0.00097437
0.000973516
0.000975185
0.000973381
0.000971265
0.000974353
0.000971153
0.000963398
0.00096784
0.000963306
0.0008995
0.000902943
0.000899485
0.000921718
0.000923893
0.000921699
0.000983686
0.000986937
0.000983596
0.000994103
0.000995744
0.000993996
0.000999179
0.00100002
0.000999051
0.000996267
0.000997712
0.00099616
0.000996232
0.000997673
0.000996122
0.000999136
0.000999973
0.000999004
0.000994061
0.000995699
0.000993951
0.000983644
0.000986893
0.000983552
0.000921656
0.000923833
0.000921636
0.000924827
0.000926972
0.00092481
0.00098675
0.000989994
0.000986671
0.000997228
0.000998876
0.000997135
0.00100232
0.00100315
0.00100221
0.000999427
0.00100088
0.000999333
0.000999392
0.00100084
0.000999294
0.00100228
0.00100311
0.00100216
0.000997187
0.000998831
0.000997089
0.000986709
0.000989949
0.000986627
0.000924766
0.000926907
0.000924746
0.000920885
0.000922831
0.000920872
0.00098201
0.000985082
0.000981947
0.000992869
0.000994322
0.000992793
0.000998399
0.000999152
0.000998308
0.000994897
0.000996149
0.000994821
0.000994864
0.00099611
0.000994784
0.000998358
0.000999105
0.000998261
0.00099283
0.000994277
0.000992748
0.000981971
0.000985036
0.000981903
0.000920824
0.000922763
0.000920808
0.000912162
0.000914102
0.000912154
0.000973169
0.000976297
0.00097312
0.000983751
0.000985266
0.000983692
0.000989051
0.000989827
0.000988982
0.000985817
0.000987137
0.000985759
0.000985784
0.000987099
0.000985723
0.00098901
0.000989781
0.000988937
0.000983711
0.000985222
0.00098365
0.000973129
0.000976252
0.000973078
0.000912101
0.000914031
0.000912089
0.000900596
0.000902325
0.000900593
0.000960364
0.000963331
0.000960328
0.000971305
0.000972677
0.000971261
0.000976973
0.000977699
0.000976921
0.000973261
0.000974432
0.000973218
0.000973227
0.000974395
0.000973183
0.000976931
0.000977655
0.000976879
0.000971265
0.000972634
0.000971221
0.000960324
0.000963286
0.000960287
0.000900535
0.000902254
0.000900527
0.000884173
0.000886114
0.000884174
0.000944189
0.000947492
0.000944167
0.000954066
0.000955846
0.000954039
0.0009587
0.00095959
0.000958667
0.000956357
0.000957966
0.00095633
0.000956323
0.00095793
0.000956296
0.000958658
0.000959546
0.000958626
0.000954026
0.000955804
0.000953999
0.000944149
0.000947448
0.000944126
0.000884112
0.000886045
0.000884108
0.000863498
0.000864925
0.000863501
0.000919721
0.000922492
0.000919709
0.000930647
0.000931859
0.000930632
0.000936539
0.000937255
0.000936521
0.000932383
0.000933384
0.000932369
0.000932351
0.000933349
0.000932336
0.000936499
0.000937213
0.00093648
0.000930609
0.000931819
0.000930593
0.000919682
0.000922451
0.00091967
0.000863438
0.000864858
0.000863437
0.000839747
0.000841275
0.000839751
0.000895157
0.000898225
0.000895152
0.000904835
0.00090641
0.000904827
0.000909621
0.000910464
0.000909612
0.000906862
0.000908258
0.000906854
0.00090683
0.000908225
0.000906823
0.000909583
0.000910425
0.000909574
0.000904798
0.000906371
0.00090479
0.00089512
0.000898186
0.000895114
0.000839689
0.000841212
0.000839688
0.000815048
0.000816017
0.00081505
0.00086642
0.000869038
0.000866416
0.000876658
0.00087787
0.000876653
0.000882125
0.000882823
0.000882119
0.000878403
0.000879431
0.000878398
0.000878374
0.0008794
0.000878369
0.000882089
0.000882785
0.000882084
0.000876623
0.000877834
0.000876618
0.000866385
0.000869002
0.000866381
0.000814992
0.000815959
0.000814991
0.000790541
0.000791219
0.000790542
0.000838895
0.000841401
0.000838892
0.000848559
0.000849697
0.000848556
0.000853719
0.000854354
0.000853715
0.00085022
0.000851187
0.000850217
0.000850193
0.000851158
0.00085019
0.000853685
0.000854319
0.000853682
0.000848527
0.000849664
0.000848524
0.000838863
0.000841368
0.00083886
0.000790487
0.000791166
0.000790486
0.000761405
0.000762521
0.000761405
0.000806782
0.000810012
0.000806781
0.000813816
0.00081594
0.000813814
0.000816851
0.000817945
0.000816849
0.000816231
0.000818254
0.000816229
0.000816207
0.000818228
0.000816205
0.000816822
0.000817914
0.000816819
0.000813787
0.00081591
0.000813785
0.000806753
0.000809983
0.000806751
0.000761352
0.000762471
0.000761352
0.000725687
0.000725495
0.000725687
0.000758761
0.000760378
0.000758761
0.000767326
0.000767896
0.000767326
0.00077254
0.000773067
0.000772539
0.000768244
0.000768643
0.000768243
0.000768223
0.000768622
0.000768222
0.000772516
0.000773041
0.000772515
0.000767302
0.000767871
0.000767301
0.000758735
0.000760353
0.000758735
0.000725635
0.000725447
0.000725634
0.000688056
0.000687846
0.000688056
0.000713709
0.000715648
0.000713709
0.000719034
0.000720201
0.000719035
0.000722014
0.000722741
0.000722015
0.000720383
0.000721465
0.000720383
0.000720366
0.000721448
0.000720367
0.000721996
0.000722721
0.000721996
0.000719015
0.000720181
0.000719015
0.000713686
0.000715627
0.000713686
0.000688001
0.000687796
0.000688
0.00065299
0.000651945
0.000652991
0.000666499
0.000667217
0.0006665
0.000671302
0.000671611
0.000671303
0.000674518
0.000674823
0.000674519
0.00067186
0.0006721
0.000671861
0.000671847
0.000672087
0.000671848
0.000674504
0.000674808
0.000674505
0.000671286
0.000671595
0.000671286
0.000666477
0.000667198
0.000666478
0.000652927
0.000651887
0.000652926
0.000621209
0.000619621
0.00062121
0.000624443
0.000624643
0.000624444
0.00062727
0.000627266
0.000627271
0.000629391
0.000629469
0.000629392
0.00062749
0.000627463
0.000627491
0.000627479
0.000627452
0.00062748
0.000629382
0.000629458
0.000629382
0.000627256
0.000627253
0.000627256
0.000624421
0.000624625
0.000624421
0.000621134
0.000619553
0.000621134
0.000594933
0.00059325
0.000594933
0.000588619
0.000588531
0.00058862
0.00058931
0.000589328
0.000589311
0.00059031
0.000590408
0.000590311
0.000589385
0.000589424
0.000589386
0.000589375
0.000589415
0.000589376
0.000590302
0.0005904
0.000590303
0.000589297
0.000589316
0.000589297
0.000588594
0.00058851
0.000588595
0.000594844
0.000593168
0.000594844
0.000563385
0.000561769
0.000563385
0.000546495
0.000546885
0.000546496
0.000542823
0.000543778
0.000542824
0.000542534
0.000542933
0.000542535
0.000543519
0.000544627
0.00054352
0.000543508
0.000544618
0.000543509
0.000542526
0.000542926
0.000542528
0.000542808
0.000543765
0.000542809
0.000546466
0.000546861
0.000546466
0.000563273
0.000561665
0.000563273
0.000527058
0.000523647
0.000527059
0.000489881
0.000486645
0.000489882
0.000487662
0.000485285
0.000487664
0.000486734
0.000485632
0.000486736
0.000485425
0.000483123
0.000485426
0.000485409
0.000483109
0.000485411
0.000486724
0.000485623
0.000486726
0.000487641
0.000485267
0.000487643
0.000489838
0.000486609
0.00048984
0.000526922
0.000523517
0.000526923
0.000505871
0.000502224
0.000505872
0.000458412
0.000455477
0.000458413
0.00045231
0.000450591
0.000452311
0.000449199
0.000448298
0.000449201
0.000450546
0.000449011
0.000450548
0.000450527
0.000448994
0.000450528
0.000449185
0.000448286
0.000449187
0.000452284
0.000450569
0.000452286
0.000458362
0.000455436
0.000458364
0.000505712
0.000502071
0.000505713
0.000504154
0.000500941
0.000504154
0.000453536
0.000449072
0.000453538
0.000444041
0.000441624
0.000444042
0.000438218
0.0004371
0.00043822
0.000441318
0.000439327
0.00044132
0.000441294
0.000439305
0.000441295
0.000438201
0.000437084
0.000438202
0.000444006
0.000441594
0.000444008
0.00045347
0.000449017
0.000453472
0.000503991
0.00050078
0.000503992
)
;

boundaryField
{
    freeSurface
    {
        type            slip;
    }
    inlet
    {
        type            cyclic;
    }
    outlet
    {
        type            cyclic;
    }
    sidewalls
    {
        type            kqRWallFunction;
        value           nonuniform 0();
    }
    noSlipWalls
    {
        type            kqRWallFunction;
        value           nonuniform List<scalar> 
30
(
1.01541e-05
1.15097e-05
1.15097e-05
1.15097e-05
1.15097e-05
1.15081e-05
1.15081e-05
1.15081e-05
1.15081e-05
1.01546e-05
1.01529e-05
1.15059e-05
1.15059e-05
1.15059e-05
1.15059e-05
1.15044e-05
1.15044e-05
1.15044e-05
1.15044e-05
1.01534e-05
1.01528e-05
1.1506e-05
1.1506e-05
1.1506e-05
1.1506e-05
1.15044e-05
1.15044e-05
1.15044e-05
1.15044e-05
1.01533e-05
)
;
    }
    procBoundary1to0
    {
        type            processor;
        value           nonuniform List<scalar> 
72
(
0.000393592
0.000385164
0.000393582
0.000568954
0.000572274
0.000568941
0.000827197
0.000832961
0.000827178
0.000899991
0.000902914
0.000899968
0.000924242
0.00092643
0.000924218
0.000927334
0.000929475
0.000927312
0.000923629
0.000925691
0.000923612
0.00091458
0.000916587
0.000914568
0.000903119
0.000905044
0.000903111
0.000885707
0.000887621
0.000885705
0.000865549
0.000867393
0.000865551
0.000840527
0.000842255
0.000840529
0.000815618
0.000817057
0.000815621
0.000790228
0.000791383
0.000790229
0.000759755
0.000760943
0.000759755
0.000723927
0.000724585
0.000723927
0.000684937
0.00068522
0.000684937
0.00064922
0.000648722
0.000649221
0.00061674
0.000615689
0.000616741
0.000590282
0.000589006
0.000590282
0.000560074
0.000558347
0.000560075
0.000521346
0.000518346
0.000521347
0.000500769
0.000497321
0.00050077
0.000499512
0.000495712
0.000499513
)
;
    }
    procBoundary1to2
    {
        type            processor;
        value           nonuniform List<scalar> 
72
(
0.000393555
0.000385143
0.000393553
0.000568906
0.000572244
0.000568902
0.000827136
0.000832919
0.000827126
0.000899933
0.000902868
0.000899915
0.000924188
0.000926377
0.000924164
0.000927282
0.000929417
0.000927257
0.000923578
0.000925628
0.000923556
0.000914528
0.000916522
0.000914512
0.000903066
0.000904978
0.000903055
0.000885655
0.000887557
0.000885648
0.000865498
0.000867331
0.000865494
0.000840476
0.000842198
0.000840475
0.00081557
0.000817006
0.000815569
0.000790181
0.000791337
0.00079018
0.00075971
0.000760902
0.000759709
0.000723882
0.000724545
0.000723881
0.000684888
0.000685177
0.000684887
0.000649162
0.000648671
0.000649161
0.000616669
0.000615626
0.000616669
0.000590194
0.000588928
0.000590194
0.000559963
0.000558245
0.000559963
0.000521202
0.00051821
0.000521203
0.0005006
0.000497161
0.000500601
0.000499329
0.000495537
0.00049933
)
;
    }
}


// ************************************************************************* //
