/*--------------------------------*- C++ -*----------------------------------*\
  =========                 |
  \\      /  F ield         | OpenFOAM: The Open Source CFD Toolbox
   \\    /   O peration     | Website:  https://openfoam.org
    \\  /    A nd           | Version:  6
     \\/     M anipulation  |
\*---------------------------------------------------------------------------*/
FoamFile
{
    version     2.0;
    format      ascii;
    class       volScalarField;
    location    "0";
    object      nut;
}
// * * * * * * * * * * * * * * * * * * * * * * * * * * * * * * * * * * * * * //

dimensions      [0 2 -1 0 0 0 0];

internalField   nonuniform List<scalar> 
720
(
1.49083e-06
1.34102e-06
1.49078e-06
1.13935e-06
1.00479e-06
1.13911e-06
1.52755e-06
1.34276e-06
1.52723e-06
2.01882e-06
1.91648e-06
2.01837e-06
1.37716e-06
1.19297e-06
1.37687e-06
1.37714e-06
1.19295e-06
1.37685e-06
2.01879e-06
1.91645e-06
2.01834e-06
1.52753e-06
1.34274e-06
1.5272e-06
1.13933e-06
1.00477e-06
1.13909e-06
1.49084e-06
1.34109e-06
1.49084e-06
3.63979e-06
3.65146e-06
3.63969e-06
3.92786e-06
3.94858e-06
3.92727e-06
3.92399e-06
3.93938e-06
3.92326e-06
3.89773e-06
3.89525e-06
3.89686e-06
3.94732e-06
3.96412e-06
3.94659e-06
3.94729e-06
3.96411e-06
3.94658e-06
3.8977e-06
3.89521e-06
3.89683e-06
3.92396e-06
3.93937e-06
3.92325e-06
3.92785e-06
3.94861e-06
3.92729e-06
3.63991e-06
3.65171e-06
3.6399e-06
7.88156e-06
7.7631e-06
7.88128e-06
8.03632e-06
7.9226e-06
8.03487e-06
8.40934e-06
8.26063e-06
8.40753e-06
8.77575e-06
8.69868e-06
8.77355e-06
8.30217e-06
8.14494e-06
8.3004e-06
8.30219e-06
8.14496e-06
8.30042e-06
8.77576e-06
8.69866e-06
8.77353e-06
8.40938e-06
8.26066e-06
8.40756e-06
8.03642e-06
7.92273e-06
8.03499e-06
7.88233e-06
7.76403e-06
7.88212e-06
1.3962e-05
1.39955e-05
1.39615e-05
1.48112e-05
1.48621e-05
1.48086e-05
1.49182e-05
1.49588e-05
1.4915e-05
1.49309e-05
1.49376e-05
1.49271e-05
1.49813e-05
1.50233e-05
1.4978e-05
1.49815e-05
1.50235e-05
1.49782e-05
1.4931e-05
1.49376e-05
1.49271e-05
1.49185e-05
1.4959e-05
1.49152e-05
1.48118e-05
1.48627e-05
1.48091e-05
1.39643e-05
1.3998e-05
1.39638e-05
2.0596e-05
2.06217e-05
2.05952e-05
2.1813e-05
2.18716e-05
2.1809e-05
2.19613e-05
2.19854e-05
2.19565e-05
2.20183e-05
2.20171e-05
2.20125e-05
2.20043e-05
2.20267e-05
2.19995e-05
2.20048e-05
2.2027e-05
2.19999e-05
2.20185e-05
2.20172e-05
2.20127e-05
2.19619e-05
2.19859e-05
2.1957e-05
2.18143e-05
2.18728e-05
2.18102e-05
2.06005e-05
2.06263e-05
2.05994e-05
2.81314e-05
2.80412e-05
2.81303e-05
2.92252e-05
2.91457e-05
2.92201e-05
2.98653e-05
2.97201e-05
2.98592e-05
3.04026e-05
3.03393e-05
3.03953e-05
2.97678e-05
2.96069e-05
2.97616e-05
2.97684e-05
2.96074e-05
2.97622e-05
3.04029e-05
3.03394e-05
3.03955e-05
2.98662e-05
2.97208e-05
2.986e-05
2.92271e-05
2.91473e-05
2.92218e-05
2.81387e-05
2.80482e-05
2.81374e-05
3.7309e-05
3.73817e-05
3.73083e-05
3.97994e-05
3.99514e-05
3.97936e-05
4.00218e-05
4.01232e-05
4.00149e-05
4.00264e-05
4.00417e-05
4.00182e-05
4.01676e-05
4.0271e-05
4.01607e-05
4.01686e-05
4.02717e-05
4.01616e-05
4.00268e-05
4.0042e-05
4.00185e-05
4.00231e-05
4.01243e-05
4.00161e-05
3.98025e-05
3.99538e-05
3.97966e-05
3.732e-05
3.73919e-05
3.73189e-05
4.76032e-05
4.75719e-05
4.76033e-05
5.01039e-05
5.01306e-05
5.00982e-05
5.0885e-05
5.08321e-05
5.08779e-05
5.13993e-05
5.13653e-05
5.13909e-05
5.09063e-05
5.08408e-05
5.08993e-05
5.09076e-05
5.08417e-05
5.09005e-05
5.13998e-05
5.13656e-05
5.13913e-05
5.08867e-05
5.08334e-05
5.08796e-05
5.0108e-05
5.01337e-05
5.01021e-05
4.76189e-05
4.75859e-05
4.76184e-05
5.845e-05
5.85373e-05
5.84513e-05
6.20587e-05
6.22487e-05
6.20537e-05
6.2579e-05
6.26683e-05
6.25725e-05
6.27927e-05
6.28188e-05
6.27847e-05
6.27109e-05
6.2792e-05
6.27044e-05
6.27126e-05
6.27933e-05
6.2706e-05
6.27933e-05
6.28192e-05
6.27853e-05
6.25813e-05
6.267e-05
6.25747e-05
6.20645e-05
6.22529e-05
6.20592e-05
5.84707e-05
5.85558e-05
5.84712e-05
7.22106e-05
7.20848e-05
7.22132e-05
7.56447e-05
7.55869e-05
7.56404e-05
7.7076e-05
7.68594e-05
7.70701e-05
7.81444e-05
7.80592e-05
7.81371e-05
7.69554e-05
7.67054e-05
7.69495e-05
7.69575e-05
7.67069e-05
7.69516e-05
7.81452e-05
7.80596e-05
7.81379e-05
7.70789e-05
7.68615e-05
7.70729e-05
7.56518e-05
7.55921e-05
7.56472e-05
7.22379e-05
7.2109e-05
7.22396e-05
8.89879e-05
8.90953e-05
8.89917e-05
9.48158e-05
9.51733e-05
9.48119e-05
9.55146e-05
9.574e-05
9.5509e-05
9.56539e-05
9.57102e-05
9.56469e-05
9.58322e-05
9.60556e-05
9.58266e-05
9.58351e-05
9.60577e-05
9.58295e-05
9.56551e-05
9.57108e-05
9.56481e-05
9.55186e-05
9.57429e-05
9.5513e-05
9.48256e-05
9.51804e-05
9.48214e-05
8.9023e-05
8.91267e-05
8.90256e-05
0.000107957
0.000107828
0.000107961
0.00011351
0.000113636
0.000113506
0.000115207
0.000115154
0.000115202
0.000116222
0.00011619
0.000116215
0.0001153
0.000115218
0.000115294
0.000115304
0.000115221
0.000115298
0.000116224
0.000116191
0.000116217
0.000115213
0.000115158
0.000115207
0.000113522
0.000113645
0.000113518
0.000108
0.000107867
0.000108003
0.000128346
0.000128432
0.00012835
0.000135292
0.000135691
0.000135289
0.000136402
0.000136603
0.000136397
0.000136808
0.000136893
0.000136802
0.000136682
0.000136866
0.000136678
0.000136687
0.00013687
0.000136683
0.000136811
0.000136895
0.000136805
0.000136408
0.000136608
0.000136404
0.000135306
0.000135702
0.000135303
0.000128394
0.000128476
0.000128396
0.000149297
0.000149419
0.0001493
0.000155974
0.000156377
0.000155972
0.000157295
0.000157518
0.000157293
0.000157819
0.000157942
0.000157816
0.000157596
0.000157797
0.000157594
0.000157602
0.000157802
0.0001576
0.000157823
0.000157945
0.00015782
0.000157303
0.000157524
0.000157301
0.000155989
0.000156389
0.000155987
0.000149347
0.000149467
0.000149349
0.000176685
0.000176093
0.000176685
0.000180793
0.00018042
0.000180794
0.000183836
0.000183147
0.000183836
0.000185887
0.000185571
0.000185886
0.000183422
0.000182666
0.000183422
0.000183429
0.000182672
0.000183429
0.000185893
0.000185576
0.000185892
0.000183846
0.000183155
0.000183845
0.000180809
0.000180434
0.000180809
0.000176732
0.00017614
0.00017673
0.000215478
0.000215258
0.00021547
0.000221829
0.00022219
0.000221824
0.000222527
0.000222749
0.000222524
0.000222333
0.00022232
0.000222329
0.000222941
0.000223172
0.000222938
0.000222949
0.000223181
0.000222945
0.000222341
0.000222328
0.000222337
0.000222537
0.000222759
0.000222533
0.000221843
0.000222204
0.000221837
0.000215512
0.000215294
0.0002155
0.000261626
0.000260712
0.000261602
0.000264687
0.000264519
0.000264671
0.000267137
0.000266789
0.000267121
0.00026818
0.000267981
0.000268162
0.000267089
0.000266705
0.000267074
0.000267097
0.000266713
0.00026708
0.00026819
0.00026799
0.000268171
0.000267146
0.000266799
0.000267128
0.000264696
0.000264529
0.000264677
0.000261611
0.000260707
0.000261583
0.000311659
0.000311581
0.000311618
0.000316168
0.000316522
0.000316131
0.000316527
0.000316798
0.00031649
0.000315913
0.000316097
0.000315872
0.000316862
0.000317137
0.000316826
0.000316859
0.000317136
0.000316822
0.000315917
0.000316102
0.000315877
0.000316522
0.000316796
0.000316484
0.000316144
0.000316506
0.000316106
0.000311555
0.000311488
0.000311511
0.000361656
0.000361604
0.000361601
0.000363363
0.000363652
0.000363308
0.000363701
0.000364052
0.000363644
0.000363118
0.000363458
0.000363057
0.000364031
0.000364385
0.000363976
0.000364015
0.000364373
0.00036396
0.000363114
0.000363455
0.000363053
0.000363678
0.000364035
0.000363622
0.000363304
0.000363606
0.00036325
0.00036143
0.000361392
0.000361377
0.000407715
0.000407387
0.00040765
0.000406253
0.000406134
0.000406188
0.00040637
0.000406397
0.000406303
0.000405677
0.000405875
0.000405604
0.000406407
0.00040644
0.000406342
0.000406373
0.000406412
0.000406309
0.00040566
0.000405861
0.000405588
0.000406323
0.000406358
0.000406258
0.00040615
0.000406048
0.000406087
0.000407349
0.000407036
0.000407292
0.00047705
0.000474876
0.000476957
0.000460295
0.000458464
0.000460223
0.000462822
0.000461048
0.000462749
0.000462119
0.00046158
0.00046204
0.000461409
0.000459552
0.000461339
0.000461347
0.000459497
0.000461278
0.000462077
0.000461542
0.000461998
0.00046274
0.000460977
0.000462669
0.000460134
0.000458327
0.000460066
0.000476472
0.000474314
0.000476391
0.000566605
0.000567908
0.000566455
0.000548546
0.000548556
0.000548445
0.000538682
0.000539984
0.000538591
0.00053344
0.000534332
0.000533348
0.000539002
0.000540507
0.000538916
0.000538892
0.000540406
0.000538807
0.000533359
0.000534256
0.000533267
0.000538538
0.000539853
0.000538448
0.000548269
0.000548311
0.000548171
0.000565801
0.000567107
0.000565661
0.000632473
0.000632573
0.000632262
0.00059787
0.000596291
0.000597744
0.000588878
0.000588745
0.000588768
0.000584438
0.000584683
0.000584327
0.000587908
0.000587963
0.000587804
0.00058777
0.000587836
0.000587666
0.000584327
0.000584581
0.000584216
0.000588699
0.000588583
0.000588589
0.000597547
0.000596007
0.000597424
0.000631509
0.00063162
0.000631304
0.00065402
0.000655986
0.000653789
0.000621723
0.000618797
0.000621574
0.000609145
0.000608498
0.000609022
0.000603177
0.000603395
0.000603053
0.000607199
0.000606905
0.000607084
0.000607031
0.00060675
0.000606918
0.000603042
0.00060327
0.000602919
0.000608915
0.000608292
0.000608793
0.000621307
0.000618438
0.00062116
0.000653043
0.000655008
0.000652817
)
;

boundaryField
{
    freeSurface
    {
        type            slip;
    }
    inlet
    {
        type            cyclic;
    }
    outlet
    {
        type            cyclic;
    }
    sidewalls
    {
        type            nutkWallFunction;
        Cmu             0.09;
        kappa           0.41;
        E               9.8;
        value           nonuniform 0();
    }
    noSlipWalls
    {
        type            nutkWallFunction;
        Cmu             0.09;
        kappa           0.41;
        E               9.8;
        value           uniform 0;
    }
    procBoundary1to0
    {
        type            processor;
        value           nonuniform List<scalar> 
72
(
1.88669e-06
1.82719e-06
1.88663e-06
3.60404e-06
3.60215e-06
3.60392e-06
8.14195e-06
8.087e-06
8.14162e-06
1.39371e-05
1.39474e-05
1.39365e-05
2.05798e-05
2.05931e-05
2.05788e-05
2.84894e-05
2.84969e-05
2.84881e-05
3.71677e-05
3.71798e-05
3.71665e-05
4.78489e-05
4.78754e-05
4.78484e-05
5.83932e-05
5.84693e-05
5.83939e-05
7.27305e-05
7.27927e-05
7.27325e-05
8.85745e-05
8.86232e-05
8.85775e-05
0.000108044
0.00010808
0.000108048
0.000127834
0.000127953
0.000127837
0.000148737
0.000148915
0.000148739
0.000176545
0.000176414
0.000176545
0.000213488
0.000213286
0.00021348
0.000259676
0.000259204
0.000259652
0.000309442
0.000309275
0.000309398
0.000359533
0.000359277
0.000359473
0.000405672
0.000405061
0.000405599
0.000471422
0.000470142
0.000471324
0.000570405
0.000569931
0.000570243
0.000635432
0.000634168
0.00063521
0.00066192
0.000660997
0.000661662
)
;
    }
    procBoundary1to2
    {
        type            processor;
        value           nonuniform List<scalar> 
72
(
1.88671e-06
1.82731e-06
1.88671e-06
3.60418e-06
3.60246e-06
3.60417e-06
8.14283e-06
8.08813e-06
8.14257e-06
1.39396e-05
1.39502e-05
1.39389e-05
2.05846e-05
2.0598e-05
2.05833e-05
2.84974e-05
2.85045e-05
2.84957e-05
3.71794e-05
3.71903e-05
3.71778e-05
4.78658e-05
4.789e-05
4.78646e-05
5.84154e-05
5.84882e-05
5.84152e-05
7.276e-05
7.28177e-05
7.27609e-05
8.86119e-05
8.86553e-05
8.86135e-05
0.00010809
0.00010812
0.000108091
0.000127885
0.000127999
0.000127886
0.000148789
0.000148963
0.00014879
0.000176593
0.000176461
0.00017659
0.000213522
0.000213324
0.000213509
0.00025966
0.000259199
0.00025963
0.000309331
0.000309182
0.000309284
0.000359293
0.000359058
0.000359235
0.000405283
0.000404694
0.00040522
0.000470822
0.000469564
0.000470739
0.000569532
0.000569076
0.000569384
0.000634398
0.000633159
0.000634184
0.000660815
0.000659922
0.000660563
)
;
    }
}


// ************************************************************************* //
