/*--------------------------------*- C++ -*----------------------------------*\
  =========                 |
  \\      /  F ield         | OpenFOAM: The Open Source CFD Toolbox
   \\    /   O peration     | Website:  https://openfoam.org
    \\  /    A nd           | Version:  6
     \\/     M anipulation  |
\*---------------------------------------------------------------------------*/
FoamFile
{
    version     2.0;
    format      ascii;
    class       volScalarField;
    location    "0";
    object      omega;
}
// * * * * * * * * * * * * * * * * * * * * * * * * * * * * * * * * * * * * * //

dimensions      [0 0 -1 0 0 0 0];

internalField   nonuniform List<scalar> 
720
(
1681.92
1773.1
1681.92
1895.21
1968.65
1895.21
1692.82
1781.14
1692.82
1452.16
1504.19
1452.16
1755.06
1841.84
1755.06
1755.05
1841.83
1755.05
1452.15
1504.18
1452.15
1692.82
1781.14
1692.82
1895.21
1968.64
1895.21
1681.9
1773.08
1681.9
870.081
850.481
870.081
727.321
698.764
727.324
823.784
792.129
823.788
922.441
914.205
922.447
793.723
758.773
793.728
793.719
758.768
793.721
922.437
914.201
922.439
823.778
792.123
823.78
727.314
698.757
727.315
870.067
850.462
870.064
193.494
182.302
193.494
202.599
192.405
202.604
219.752
207.069
219.759
238.035
227.708
238.044
213.51
200.946
213.517
213.505
200.94
213.511
238.03
227.702
238.038
219.746
207.063
219.752
202.592
192.397
202.596
193.479
182.284
193.476
84.733
83.081
84.7339
83.3643
81.7887
83.3699
87.0818
85.1428
87.0887
91.0459
89.9202
91.0542
85.7208
83.7095
85.7276
85.717
83.7057
85.7241
91.0418
89.9161
91.0504
87.0772
85.1382
87.0843
83.3583
81.7827
83.3641
84.7192
83.0653
84.7188
50.7599
50.4336
50.7608
51.0219
50.7145
51.0266
51.9593
51.5936
51.965
52.8244
52.5835
52.8313
51.7641
51.3895
51.7698
51.7613
51.3867
51.7671
52.8216
52.5808
52.8285
51.9559
51.5903
51.9617
51.017
50.7098
51.0219
50.747
50.4203
50.748
36.0424
35.9325
36.0431
36.8181
36.7527
36.8217
37.0022
36.9074
37.0065
37.1522
37.0465
37.1574
36.9887
36.8983
36.993
36.9866
36.8962
36.9909
37.1501
37.0445
37.1553
36.9995
36.9048
37.0039
36.814
36.7489
36.8177
36.0313
35.9213
36.0322
26.5064
26.3466
26.5067
26.3389
26.1725
26.3414
26.8134
26.6082
26.8164
27.3038
27.2033
27.3074
26.656
26.4391
26.6589
26.6543
26.4376
26.6573
27.3022
27.2018
27.3058
26.8113
26.6063
26.8144
26.3357
26.1697
26.3382
26.497
26.3374
26.4974
20.2616
20.2536
20.2616
20.5293
20.526
20.5308
20.5587
20.5455
20.5606
20.5839
20.5663
20.5862
20.5576
20.5448
20.5595
20.5563
20.5436
20.5582
20.5827
20.5652
20.5851
20.557
20.544
20.559
20.5266
20.5237
20.5282
20.2537
20.246
20.2537
16.219
16.1779
16.2187
16.2728
16.2317
16.2737
16.4185
16.37
16.4197
16.5512
16.522
16.5528
16.3918
16.3416
16.3931
16.3907
16.3407
16.392
16.5503
16.5212
16.5519
16.4171
16.3688
16.4184
16.2705
16.2298
16.2716
16.2122
16.1715
16.212
12.8298
12.8267
12.8294
13.0394
13.0449
13.0399
13.0344
13.0374
13.0352
13.0239
13.0142
13.0249
13.0481
13.0529
13.0488
13.0472
13.0521
13.048
13.0232
13.0136
13.0242
13.0333
13.0365
13.0341
13.0375
13.0433
13.0381
12.824
12.8213
12.8237
10.1367
10.1021
10.1363
10.0912
10.0499
10.0915
10.2128
10.1618
10.2132
10.3392
10.3158
10.3398
10.1721
10.1178
10.1725
10.1714
10.1172
10.1719
10.3386
10.3152
10.3393
10.2119
10.161
10.2124
10.0897
10.0486
10.09
10.1319
10.0977
10.1316
8.09912
8.10462
8.09885
8.19723
8.20015
8.19753
8.19688
8.19707
8.19731
8.19945
8.19669
8.19999
8.19883
8.19922
8.19926
8.19825
8.1987
8.19868
8.19896
8.19625
8.1995
8.19614
8.19642
8.19657
8.19594
8.19908
8.19626
8.09525
8.10102
8.09504
6.60993
6.59755
6.60985
6.63746
6.62528
6.63786
6.68751
6.67276
6.68802
6.73421
6.72538
6.73482
6.67946
6.66407
6.67997
6.67899
6.66363
6.67949
6.73379
6.72499
6.73439
6.68691
6.67222
6.68741
6.63646
6.62444
6.63687
6.60681
6.59465
6.60678
5.43838
5.4247
5.43848
5.48963
5.4802
5.49012
5.52266
5.50936
5.52326
5.55553
5.54598
5.55624
5.51536
5.50168
5.51595
5.51495
5.5013
5.51554
5.55516
5.54563
5.55586
5.52214
5.50889
5.52274
5.4888
5.47949
5.48931
5.43593
5.4224
5.43607
4.46541
4.47342
4.46564
4.55781
4.57091
4.55836
4.5383
4.55208
4.53894
4.52293
4.52715
4.52367
4.55156
4.56626
4.55219
4.55121
4.56592
4.55184
4.5226
4.52684
4.52334
4.53786
4.55168
4.5385
4.55714
4.57031
4.5577
4.4636
4.47166
4.46387
3.51368
3.50166
3.51399
3.50518
3.49127
3.50571
3.5529
3.53498
3.5535
3.60051
3.59228
3.6012
3.53853
3.51937
3.53912
3.53828
3.51912
3.53888
3.60024
3.59203
3.60094
3.5526
3.53468
3.5532
3.50478
3.49088
3.50532
3.51257
3.50057
3.51293
2.7442
2.74534
2.74453
2.78057
2.78235
2.78101
2.7836
2.78398
2.7841
2.79145
2.79073
2.79202
2.78446
2.78486
2.78495
2.7843
2.7847
2.78479
2.79126
2.79054
2.79183
2.78341
2.78378
2.78391
2.78035
2.78211
2.78081
2.74378
2.74489
2.74416
2.18913
2.18081
2.18947
2.1888
2.18369
2.18917
2.20944
2.20328
2.20984
2.23002
2.22593
2.23048
2.20603
2.19963
2.20642
2.20598
2.19956
2.20637
2.22993
2.22583
2.23037
2.20939
2.2032
2.20979
2.18882
2.18367
2.18919
2.1893
2.18095
2.18967
1.76789
1.75886
1.76823
1.76621
1.7617
1.76652
1.77896
1.77303
1.77929
1.79215
1.78762
1.79251
1.77575
1.76973
1.77607
1.77578
1.76974
1.77609
1.79213
1.78759
1.79248
1.779
1.77305
1.77932
1.76638
1.76182
1.76668
1.76853
1.75948
1.76887
1.48993
1.48413
1.49025
1.48047
1.47873
1.48073
1.48518
1.48292
1.48545
1.4921
1.48985
1.49239
1.48422
1.48199
1.48448
1.4843
1.48205
1.48455
1.49213
1.48987
1.49241
1.48529
1.483
1.48555
1.48074
1.47895
1.48099
1.49086
1.48504
1.49116
1.22491
1.22284
1.2252
1.22239
1.22526
1.2226
1.21376
1.21723
1.21397
1.21697
1.21722
1.21719
1.21698
1.22089
1.21718
1.2171
1.22099
1.21729
1.21704
1.21728
1.21726
1.21392
1.21736
1.21411
1.22272
1.22554
1.22291
1.22592
1.22385
1.22619
0.961789
0.950463
0.962049
0.917786
0.909721
0.917951
0.93375
0.924847
0.933909
0.94201
0.937071
0.942176
0.927556
0.918391
0.927707
0.927683
0.918507
0.92783
0.942109
0.937159
0.942272
0.933915
0.924996
0.93407
0.918093
0.909993
0.918251
0.96274
0.951411
0.962985
0.806981
0.799045
0.807246
0.77159
0.768283
0.771746
0.774082
0.770806
0.774224
0.774911
0.772665
0.775056
0.772107
0.768883
0.772241
0.77224
0.769006
0.772373
0.775024
0.772769
0.775168
0.774254
0.770962
0.774394
0.771885
0.768546
0.772039
0.807836
0.7999
0.808095
0.775775
0.765426
0.776045
0.730018
0.726296
0.730186
0.73028
0.726992
0.730424
0.728154
0.725911
0.728302
0.728174
0.725141
0.728309
0.728318
0.725275
0.728453
0.728277
0.726025
0.728424
0.730475
0.727169
0.730619
0.730358
0.726592
0.730524
0.776549
0.766214
0.776816
)
;

boundaryField
{
    freeSurface
    {
        type            slip;
    }
    inlet
    {
        type            cyclic;
    }
    outlet
    {
        type            cyclic;
    }
    sidewalls
    {
        type            omegaWallFunction;
        Cmu             0.09;
        kappa           0.41;
        E               9.8;
        beta1           0.075;
        blended         false;
        value           nonuniform 0();
    }
    noSlipWalls
    {
        type            omegaWallFunction;
        Cmu             0.09;
        kappa           0.41;
        E               9.8;
        beta1           0.075;
        blended         false;
        value           uniform 3557.7;
    }
    procBoundary1to0
    {
        type            processor;
        value           nonuniform List<scalar> 
72
(
1483.71
1540.08
1483.71
961.455
972.269
961.456
203.275
192.57
203.276
87.7154
86.7379
87.7164
51.4242
51.1925
51.4254
36.1004
35.9451
36.1013
26.9239
26.8595
26.9244
20.2925
20.2725
20.2926
16.3407
16.315
16.3405
12.8287
12.807
12.8284
10.2561
10.2447
10.2557
8.11926
8.11767
8.11904
6.65629
6.64896
6.65625
5.46692
5.45633
5.46705
4.47141
4.47251
4.47166
3.5481
3.54467
3.54841
2.75573
2.75575
2.75605
2.19484
2.18965
2.19516
1.7666
1.76081
1.76693
1.48636
1.48303
1.48667
1.22877
1.22604
1.22905
0.942512
0.93618
0.942767
0.793105
0.78809
0.793373
0.756476
0.750316
0.756762
)
;
    }
    procBoundary1to2
    {
        type            processor;
        value           nonuniform List<scalar> 
72
(
1483.7
1540.06
1483.7
961.443
972.25
961.439
203.261
192.552
203.258
87.7018
86.7218
87.7013
51.4113
51.1789
51.4125
36.0892
35.9338
36.0903
26.9142
26.8501
26.9149
20.2843
20.2649
20.2846
16.3336
16.3085
16.3335
12.8227
12.8017
12.8225
10.2511
10.2402
10.2508
8.11525
8.11406
8.1151
6.65306
6.64604
6.65308
5.46441
5.45402
5.46458
4.46957
4.47077
4.46986
3.54698
3.54355
3.54734
2.75533
2.7553
2.75571
2.19505
2.18981
2.19542
1.76731
1.76147
1.76764
1.48736
1.48398
1.48765
1.22988
1.22712
1.23013
0.943535
0.937188
0.943772
0.79403
0.789001
0.794289
0.757357
0.751184
0.75764
)
;
    }
}


// ************************************************************************* //
