/*--------------------------------*- C++ -*----------------------------------*\
  =========                 |
  \\      /  F ield         | OpenFOAM: The Open Source CFD Toolbox
   \\    /   O peration     | Website:  https://openfoam.org
    \\  /    A nd           | Version:  6
     \\/     M anipulation  |
\*---------------------------------------------------------------------------*/
FoamFile
{
    version     2.0;
    format      ascii;
    class       volScalarField;
    location    "48";
    object      yPlus;
}
// * * * * * * * * * * * * * * * * * * * * * * * * * * * * * * * * * * * * * //

dimensions      [0 0 0 0 0 0 0];

internalField   uniform 0;

boundaryField
{
    inlet
    {
        type            calculated;
        value           uniform 0;
    }
    outlet
    {
        type            calculated;
        value           uniform 0;
    }
    roughCylinder
    {
        type            calculated;
        value           nonuniform List<scalar> 
5120
(
15.8081
27.0327
38.3767
42.3068
45.3291
46.541
47.2297
47.2274
47.1761
47.0561
47.1801
47.4051
47.5449
47.4777
47.2537
46.9248
46.8104
46.9503
47.1369
46.4091
45.0908
45.2595
44.0961
43.6214
45.8666
43.7046
43.7788
43.0346
42.7036
42.0327
41.7329
41.3559
11.6132
27.1692
38.0561
42.0847
45.0862
46.3531
47.076
47.1336
47.2023
47.2474
47.4923
47.7143
47.8068
47.7359
47.5253
47.2538
47.112
47.1074
47.2123
46.6317
45.445
45.7101
44.5466
43.9208
46.1617
44.1581
44.2451
43.613
43.3467
42.7336
42.4849
42.1476
11.668
26.6944
37.6904
41.8949
44.9232
46.2719
47.0512
47.1946
47.3604
47.4657
47.6936
47.8401
47.9102
47.8465
47.6759
47.4341
47.2788
47.1621
47.2466
46.8005
45.8082
46.2191
45.1476
44.4511
46.6808
44.8006
44.8143
44.1914
43.9256
43.3354
43.1081
42.7873
11.6835
26.5974
37.2428
41.6206
44.6928
46.1435
47.0089
47.2597
47.5418
47.7542
48.0471
48.2007
48.249
48.1738
47.9899
47.768
47.5781
47.4001
47.473
47.1105
46.2988
46.7323
45.6338
44.8457
47.0784
45.3479
45.3876
44.8587
44.6496
44.1203
43.9218
43.6387
6.65131
25.8799
36.709
41.3364
44.5248
46.12
47.0855
47.4463
47.8202
48.0682
48.3124
48.3827
48.4057
48.3142
48.1528
47.948
47.7695
47.5783
47.6735
47.3893
46.8067
47.2847
46.2508
45.4769
47.6774
46.0452
46.0202
45.4957
45.3004
44.8152
44.6281
44.3675
12.3665
25.688
36.14
41.0268
44.3381
46.0649
47.1291
47.6055
48.0674
48.3641
48.6387
48.7442
48.7762
48.6794
48.5045
48.3147
48.1282
47.9401
48.0305
47.7893
47.3898
47.7953
46.7522
45.9788
48.1471
46.6592
46.6728
46.2301
46.0746
45.653
45.4759
45.2485
12.847
25.0903
35.4466
40.6198
44.1186
46.0362
47.2342
47.8302
48.3596
48.681
48.929
48.972
48.981
48.8616
48.7102
48.5474
48.3949
48.2347
48.3381
48.1705
47.9753
48.3397
47.3864
46.7032
48.7829
47.3821
47.3398
46.9129
46.7771
46.4122
46.2432
46.0426
16.6153
24.7248
34.7103
40.1984
43.9042
45.9959
47.2999
48.0014
48.6015
48.9593
49.2269
49.3295
49.377
49.2854
49.1421
48.9982
48.8472
48.6896
48.7639
48.6468
48.5829
48.8229
47.9244
47.3076
49.2898
48.0449
48.0464
47.6942
47.5776
47.273
47.1054
46.9316
19.672
24.4608
33.8371
39.5606
43.513
45.8461
47.3256
48.1767
48.8506
49.2394
49.5264
49.6096
49.6466
49.5389
49.4251
49.3145
49.1937
49.0552
49.129
49.1097
49.185
49.3597
48.5986
48.1084
49.9298
48.7768
48.7314
48.4159
48.3204
48.0762
47.9219
47.7777
22.3993
24.22
32.8801
38.8743
43.1104
45.7026
47.339
48.3015
49.0385
49.4879
49.8084
49.9607
50.0595
50.0132
49.931
49.8417
49.7148
49.558
49.5909
49.6386
49.7757
49.8401
49.1917
48.7914
50.4512
49.4764
49.4713
49.2205
49.1252
48.9305
48.7759
48.6505
25.6814
24.1035
31.7586
37.8484
42.3842
45.2981
47.1722
48.3319
49.1968
49.7064
50.0818
50.2678
50.38
50.3282
50.2707
50.2054
50.1017
49.9568
49.9987
50.1547
50.3648
50.3992
49.9018
49.6193
51.0632
50.1867
50.147
49.9526
49.88
49.7442
49.614
49.5203
31.0129
24.4469
30.5565
36.7237
41.5722
44.8576
47.0095
48.35
49.2886
49.8841
50.3313
50.5862
50.7704
50.8009
50.7898
50.7483
50.633
50.4662
50.4791
50.6952
50.9158
50.8956
50.5235
50.319
51.5757
50.8923
50.8822
50.7385
50.6539
50.552
50.4226
50.3391
36.4661
25.7394
29.2993
35.1591
40.2971
44.0119
46.5079
48.1103
49.2669
49.9997
50.5182
50.8531
51.0828
51.125
51.1325
51.1012
51.0094
50.87
50.9189
51.2225
51.4741
51.476
51.2228
51.0976
52.1269
51.5386
51.5105
51.4336
51.3782
51.3328
51.242
51.1925
40.488
27.3368
28.2599
33.4739
38.7548
42.9416
45.9024
47.8675
49.1925
50.0295
50.6799
51.0848
51.3826
51.5128
51.5797
51.5844
51.4935
51.3513
51.3925
51.7258
51.965
51.9635
51.811
51.7358
52.5994
52.197
52.1828
52.1413
52.0673
52.0365
51.9472
51.9002
43.6372
29.1094
27.2762
31.3334
36.6304
41.3025
44.7916
47.1459
48.8024
49.9421
50.7051
51.2297
51.6016
51.7641
51.8533
51.8685
51.8111
51.7278
51.8302
52.2092
52.4624
52.5093
52.4194
52.3727
53.0371
52.71
52.6998
52.7272
52.7045
52.7339
52.6989
52.6886
46.1231
31.047
26.6242
29.0257
33.8827
38.961
43.1738
46.2279
48.3526
49.671
50.6722
51.316
51.7643
52.0145
52.16
52.2094
52.1806
52.1227
52.2326
52.6075
52.8577
52.9355
52.8896
52.8936
53.4595
53.2897
53.2839
53.3303
53.2778
53.3032
53.2675
53.2547
47.2502
32.9667
26.2295
26.3584
30.4735
35.7232
40.7412
44.5434
47.1784
49.1092
50.3747
51.2348
51.8246
52.1584
52.3494
52.4337
52.4479
52.4669
52.6491
53.0384
53.2828
53.3937
53.3753
53.3516
53.7591
53.6391
53.661
53.7752
53.8001
53.8844
53.9117
53.9345
46.8981
34.4236
26.108
23.2492
25.5723
30.7037
36.5488
41.7457
45.7428
48.168
49.8889
51.0094
51.7536
52.1878
52.4577
52.6021
52.677
52.7464
52.9416
53.3055
53.5494
53.677
53.6923
53.7199
54.0685
54.0578
54.0666
54.173
54.1626
54.2308
54.2568
54.2773
45.1851
35.1089
26.0402
19.7692
18.1282
22.1569
30.0933
37.4588
42.472
46.3938
48.8691
50.4518
51.4872
52.1144
52.4914
52.6969
52.8411
53.0034
53.2619
53.601
53.811
53.9312
53.9344
53.8966
54.1232
54.1381
54.1983
54.3727
54.4576
54.5785
54.6691
54.7204
42.6059
34.8214
25.4711
12.4613
8.24005
13.7132
12.6074
24.4705
37.7459
43.633
47.2882
49.5233
50.9207
51.7473
52.2624
52.5955
52.8399
53.0667
53.3304
53.6296
53.8271
53.9347
53.9521
53.9819
54.1468
54.2115
54.2362
54.3554
54.3871
54.4634
54.5413
54.5875
39.7619
33.6994
24.0074
15.1254
11.652
11.6079
12.4812
7.1471
19.7289
37.605
44.4514
47.9387
49.9459
51.1672
51.9267
52.3908
52.7361
53.0587
53.3683
53.6122
53.7122
53.7441
53.6752
53.5761
53.5878
53.6113
53.6828
53.8519
53.9975
54.1147
54.2529
54.3256
36.9277
32.4904
23.0146
15.0118
6.09255
12.7082
5.51594
13.2667
10.3507
27.3429
39.7956
45.384
48.3208
49.9381
50.9256
51.6093
52.1255
52.5285
52.8154
52.9762
52.9977
52.9649
52.868
52.8601
52.7495
52.738
52.6938
52.6802
52.6897
52.6776
52.7476
52.7855
33.2976
31.1773
22.9077
6.99299
8.37379
8.54672
8.54567
8.00158
13.5454
7.68706
34.1541
41.7516
45.6813
48.0967
49.6172
50.5689
51.2278
51.7096
51.999
52.0441
51.8058
51.534
51.1174
50.7383
50.2158
49.9469
49.8175
49.7148
49.8237
49.8092
49.9204
49.9814
28.1733
29.2671
22.5155
15.2401
12.9863
14.265
11.1516
7.95026
13.9727
4.34431
30.7107
36.2391
41.6618
44.5186
46.3578
47.704
48.6841
49.2686
49.4271
49.2023
48.6346
48.1072
47.5456
47.2754
46.3904
45.7364
44.9622
43.8672
42.772
41.7511
41.0534
40.6762
22.7977
26.5575
20.2518
6.53562
4.35312
10.1348
9.72243
14.6299
10.2416
7.93075
13.038
21.6192
30.7713
37.1004
41.2426
43.5625
44.915
45.5422
45.5351
44.8965
43.3737
41.7059
38.7646
35.02
30.1966
25.2578
19.3499
8.66343
19.6227
15.3322
9.34259
22.6988
11.8835
23.6058
23.3504
13.4063
6.71315
20.4501
24.1051
21.1056
14.9815
11.3854
15.8584
15.9023
7.93095
18.4033
8.6622
21.5286
26.9986
28.9809
27.9446
24.0666
15.8564
21.6824
21.3624
10.1181
20.1425
19.1863
4.60091
13.3616
13.1354
7.90918
19.1177
12.5175
8.98496
13.5787
18.4823
17.7676
17.7303
19.737
23.5803
27.1783
28.6744
25.9142
17.5321
11.3169
16.5434
15.238
10.4077
16.7032
3.05181
13.4797
6.03075
12.7033
12.3008
1.38805
6.13836
11.0121
7.9168
2.87857
9.49855
11.7466
14.5202
16.9825
19.0872
19.0922
11.6876
5.61386
12.0383
7.80153
11.711
15.4954
18.6684
21.4327
22.3671
23.0091
24.7815
26.2664
20.6294
10.3043
13.0679
12.2032
16.1443
12.1682
14.3578
10.7699
11.2583
13.7766
14.8081
20.8256
24.5433
27.2703
28.1458
29.4624
30.59
31.1349
31.8015
32.5337
8.04942
8.59194
7.08321
11.0126
16.9768
20.8755
23.2635
24.4885
24.9282
24.9589
23.7784
25.4619
26.243
26.0512
29.1237
30.9733
30.1515
30.5863
29.9083
30.6769
31.7395
32.9195
34.5145
34.2081
34.2476
34.0891
33.517
32.8937
32.5
32.6537
33.0366
32.9042
0.778817
6.28964
9.46872
17.8223
22.9181
26.3732
28.192
28.7535
28.5979
28.6655
29.5784
29.4933
25.7095
26.839
29.1259
30.1286
32.261
33.3553
34.2376
34.6135
34.7103
34.7216
34.7994
35.615
35.1967
34.9637
34.1926
33.5267
33.3347
33.6214
34.2204
34.7023
3.11784
10.4891
13.234
16.1344
19.5526
22.3607
23.8832
24.1971
23.8164
23.9934
23.7973
22.2723
20.5679
21.9026
25.8165
29.1641
32.3279
34.3537
35.3856
35.9553
36.3244
36.6087
37.1046
36.8153
36.0914
35.3146
33.9351
32.5072
31.6181
31.7305
32.3693
32.6777
4.26438
12.3057
14.5176
16.3448
18.0736
19.3124
19.5854
18.3
14.4526
11.2617
6.84563
9.49874
8.40091
3.10371
9.16914
15.1391
23.5295
28.8527
31.9084
33.4099
33.9331
34.0547
34.0827
33.8167
32.9824
32.2065
31.2965
30.1194
29.668
30.2021
31.1577
31.7625
5.42173
14.7392
18.1911
20.393
22.0541
22.8996
22.6073
20.9332
16.3032
12.7624
11.1241
11.6727
16.2478
19.9476
20.8244
20.779
20.8796
23.433
26.3025
28.3813
29.8065
30.7906
31.5112
31.8546
31.9578
31.8823
31.4446
30.6983
30.192
30.4834
31.1235
31.5093
5.15004
14.4087
18.2804
20.9125
22.9828
24.1629
24.3836
23.6384
22.6559
20.3611
18.8038
19.8478
19.9794
20.1635
21.2653
24.9459
27.3687
28.4438
29.3276
30.2251
30.8903
31.3212
31.5452
31.5012
31.1311
30.6947
30.1518
29.2872
28.6943
28.7528
29.1849
29.5033
4.25033
13.8431
18.1669
20.9076
22.922
24.0453
24.321
23.9155
23.1667
22.94
22.7812
22.0263
21.0248
19.0896
17.0216
14.9343
18.9033
23.2291
25.9251
27.3859
28.163
28.5609
28.7306
28.6503
28.4431
28.2743
28.0322
27.5819
27.2248
27.3975
27.8672
28.1835
3.81688
13.0884
17.7149
20.7918
23.0767
24.5425
25.2656
25.3935
25.0252
24.2323
23.3956
22.3987
21.3969
21.0357
21.588
22.8144
22.5554
22.9227
24.1129
25.3302
26.2256
26.8489
27.2826
27.546
27.595
27.5101
27.3281
26.9847
26.7758
26.9528
27.3752
27.6309
3.46956
11.6742
16.1398
19.4156
21.8672
23.6527
24.8174
25.4371
25.5709
25.269
24.5332
23.7212
22.6413
21.4344
20.8861
21.8429
23.9803
25.4267
26.2604
26.8344
27.2729
27.5829
27.7577
27.7394
27.513
27.1991
26.8992
26.5902
26.4229
26.5836
26.9222
27.121
3.78268
11.7803
16.4571
19.5046
21.6865
23.2891
24.4227
25.1149
25.3374
25.1782
24.8701
24.0409
23.0939
22.6856
22.9986
23.5115
24.2598
25.4026
26.4428
27.1489
27.5492
27.7337
27.7471
27.5619
27.1642
26.6613
26.2381
25.9188
25.8133
26.0349
26.3986
26.6017
4.04088
12.9623
17.9641
20.9061
22.8588
24.2086
25.1158
25.6397
25.7744
25.5283
24.9521
24.2433
23.8312
24.0045
24.8126
26.0533
27.1168
27.785
28.2086
28.4567
28.5599
28.5416
28.3835
27.9981
27.3033
26.415
25.6741
25.2512
25.2096
25.5622
26.0392
26.3028
3.53953
12.6086
17.8947
21.1019
23.1767
24.5345
25.3511
25.6839
25.608
25.2893
25.0002
24.9213
25.3398
26.255
27.3116
28.2529
29.1477
29.8819
30.3074
30.4464
30.3783
30.1663
29.7872
29.1262
28.0538
26.6387
25.3472
24.6414
24.6566
25.2888
26.0706
26.5082
4.45538
4.35726
4.36397
4.37128
4.3908
4.44628
4.50281
4.65625
4.82721
5.06401
5.22452
5.33025
5.47331
6.03042
6.54412
6.64797
7.02758
7.29034
6.61331
6.95194
6.24686
4.44786
2.16921
1.72154
2.05497
2.28244
1.14797
0.453347
1.98791
2.77151
3.2473
3.5142
3.6632
3.5993
3.24282
2.84987
2.3907
2.57544
3.40239
2.58193
12.9223
12.5042
12.3371
12.2658
12.2783
12.4028
12.5108
12.6623
12.7613
12.6989
12.5447
11.939
11.4286
10.9379
11.0714
9.64112
9.09648
9.49904
9.05753
9.08496
7.7938
9.35882
9.51498
6.31874
9.29087
11.0261
8.09583
2.64153
6.99406
9.8096
10.9794
11.3195
11.46
11.6259
11.648
11.7471
11.7456
11.6718
14.063
11.8516
15.8186
15.1547
14.8118
14.6856
14.7069
14.8553
14.9948
15.0661
15.007
14.6831
14.1476
13.1488
12.1274
11.2547
11.5389
11.728
12.5836
13.8672
15.2477
16.4707
17.3964
17.8608
18.0489
17.8005
17.2039
16.3836
14.9396
12.8458
11.0583
10.9294
11.1451
11.4977
11.5425
12.4625
13.6442
14.6771
14.6525
15.4651
17.6313
16.5437
17.8369
17.0255
16.5771
16.4064
16.4029
16.4961
16.5498
16.4563
16.1278
15.4791
14.5532
13.7129
13.4856
14.4549
16.2256
18.2326
20.0863
21.5934
22.6951
23.4618
23.9105
24.1158
24.076
23.7944
23.2619
22.4522
21.312
19.8241
17.9496
15.8486
13.7267
12.0195
11.5083
12.3497
14.1486
15.7998
16.2718
17.6424
19.2743
19.2861
19.5581
18.6755
18.1722
17.9459
17.8611
17.8025
17.6271
17.2262
16.5235
15.677
15.3145
16.1771
18.2094
20.5851
22.6971
24.374
25.6426
26.5957
27.2898
27.7802
28.0683
28.184
28.124
27.8837
27.4444
26.7845
25.8829
24.7163
23.2391
21.4361
19.3587
17.1317
15.2881
14.1877
14.7637
16.1949
17.1234
19.0091
20.2103
21.1103
20.9841
20.0649
19.5058
19.183
18.9302
18.6081
18.0907
17.3424
16.6685
16.9553
18.763
21.3767
23.8345
25.8024
27.3028
28.4685
29.4034
30.1539
30.7244
31.1333
31.3662
31.4507
31.3816
31.1562
30.7687
30.2017
29.4449
28.4713
27.2572
25.7627
24.0083
21.9805
19.9332
17.9227
16.8772
16.9657
17.7193
19.8511
20.8439
22.3254
22.0451
21.1084
20.4712
19.9756
19.4385
18.7661
17.989
17.5904
18.573
21.0704
23.9104
26.2969
28.1466
29.6058
30.7832
31.7647
32.5837
33.2429
33.7337
34.0692
34.2406
34.2787
34.1821
33.9516
33.5861
33.0723
32.4051
31.5579
30.5206
29.2492
27.7557
25.984
24.0652
21.9391
20.1396
18.9294
18.7021
20.4557
21.3419
23.1154
22.6816
21.7129
20.9288
20.142
19.2511
18.4694
18.4457
20.1104
23.0362
25.9206
28.2273
30.0458
31.5328
32.7799
33.8136
34.6857
35.408
35.9756
36.3844
36.6469
36.7577
36.7502
36.625
36.3845
36.0292
35.5498
34.9421
34.1841
33.2691
32.1585
30.8574
29.3102
27.5788
25.5958
23.6155
21.8152
20.5273
21.2276
21.8397
23.5904
22.8084
21.7333
20.6774
19.5567
18.7568
19.225
21.5278
24.7302
27.5969
29.8711
31.7034
33.2305
34.5212
35.6071
36.5108
37.2852
37.9216
38.4116
38.7523
38.9514
39.0075
38.9564
38.7999
38.5418
38.1847
37.724
37.1551
36.462
35.6344
34.6439
33.4836
32.1151
30.5522
28.7617
26.8252
24.897
23.0544
22.543
22.5297
23.8792
22.2616
20.9439
19.6274
18.9164
19.9697
22.8674
26.2342
29.0884
31.3651
33.232
34.7952
36.1026
37.2094
38.1296
38.9067
39.5964
40.1671
40.5978
40.8852
41.0313
41.0393
40.946
40.7542
40.4722
40.1042
39.6511
39.1071
38.4613
37.6992
36.8007
35.748
34.5184
33.097
31.4758
29.6579
27.762
25.7808
24.4485
23.6109
24.1957
20.7984
19.396
19.0176
20.7995
24.1705
27.5902
30.4138
32.7069
34.6107
36.1975
37.534
38.6328
39.5735
40.334
40.9915
41.6047
42.1435
42.5446
42.8121
42.928
42.8984
42.7602
42.5257
42.2133
41.8299
41.3751
40.8459
40.233
39.5209
38.6925
37.726
36.6031
35.3012
33.8142
32.1274
30.3085
28.3498
26.6392
25.1693
24.7566
18.9223
19.2595
21.7981
25.3816
28.7282
31.5151
33.8453
35.8039
37.442
38.7986
39.9246
40.7914
41.5333
42.2178
42.8202
43.3294
43.7615
44.1933
44.5213
44.6536
44.6077
44.4326
44.1566
43.8056
43.3926
42.9265
42.4027
41.8112
41.1362
40.361
39.463
38.4238
37.2191
35.8412
34.2666
32.5409
30.6376
28.7997
26.9877
25.8015
19.9516
22.9387
26.4234
29.6134
32.3718
34.7505
36.7904
38.5163
39.9438
41.0888
41.9215
42.7025
43.4224
44.0588
44.5934
45.0374
45.4149
45.7024
45.9459
46.1925
46.178
45.9849
45.6704
45.2751
44.8251
44.3314
43.7979
43.2162
42.5665
41.8303
40.9837
40.0101
38.8799
37.5907
36.1039
34.4678
32.6211
30.766
28.7845
27.2209
24.0543
27.2309
30.2624
32.993
35.4142
37.5358
39.3752
40.9288
42.1612
43.0183
43.8148
44.5597
45.2233
45.7971
46.2691
46.6607
46.9395
47.1992
47.3572
47.503
47.6168
47.4365
47.0887
46.6467
46.1492
45.6182
45.058
44.4688
43.8288
43.1151
42.3015
41.3729
40.2961
39.0713
37.6512
36.0849
34.2926
32.4604
30.4019
28.706
27.842
30.6673
33.3702
35.8219
38.0211
39.9737
41.6791
43.0969
44.0965
44.8726
45.6337
46.3373
46.9544
47.4756
47.8961
48.2209
48.465
48.6204
48.7841
48.7832
48.9661
48.8148
48.4346
47.9402
47.3878
46.8069
46.2076
45.5902
44.9399
44.2285
43.4264
42.5185
41.47
40.2826
38.9027
37.3873
35.6283
33.8517
31.7428
30.0823
30.8584
33.4506
35.953
38.2307
40.2962
42.1466
43.7669
45.0906
45.9158
46.6604
47.3978
48.067
48.6422
49.1166
49.4854
49.763
49.9501
50.0521
50.1641
50.1206
50.233
50.1267
49.7176
49.1676
48.5537
47.914
47.2634
46.6031
45.9227
45.1896
44.3722
43.4556
42.4052
41.2238
39.8548
38.3642
36.6213
34.8995
32.7721
31.2381
33.2855
35.7461
38.139
40.3203
42.3149
44.1143
45.6935
46.9655
47.6862
48.4058
49.1229
49.7637
50.3037
50.7385
51.0623
51.2968
51.4349
51.4902
51.5544
51.4657
51.5552
51.425
50.9543
50.3335
49.6497
48.945
48.2351
47.5215
46.793
46.0152
45.1561
44.2004
43.1158
41.9046
40.5175
39.0139
37.2817
35.5701
33.5081
32.0204
35.262
37.6658
40.0156
42.1591
44.1328
45.9226
47.4968
48.7516
49.4124
50.1121
50.8145
51.4349
51.9479
52.3492
52.6352
52.8316
52.9224
52.9441
52.9564
52.8256
52.9407
52.7097
52.1441
51.4376
50.6761
49.901
49.1249
48.3495
47.5573
46.7144
45.7887
44.7666
43.617
42.3449
40.9068
39.3598
37.615
35.8934
33.9169
32.4508
36.8678
39.2708
41.6302
43.7828
45.7748
47.5873
49.1829
50.446
51.0706
51.7598
52.4563
53.0655
53.5598
53.9343
54.1898
54.3522
54.3977
54.4035
54.3401
54.2182
54.3564
53.9427
53.2558
52.4563
51.6159
50.7694
49.9241
49.0813
48.2124
47.2868
46.2741
45.164
43.9253
42.5682
41.0508
39.4389
37.6525
35.9185
33.9988
32.6031
38.1259
40.5722
42.9821
45.1807
47.2205
49.0781
50.7108
51.9929
52.5972
53.2908
53.9927
54.6008
55.0856
55.4407
55.6749
55.8039
55.8154
55.814
55.6522
55.6595
55.6091
55.033
54.2388
53.3539
52.4392
51.5224
50.6088
49.6925
48.7359
47.7164
46.6063
45.3958
44.0542
42.5965
40.9838
39.2926
37.4501
35.7006
33.8212
32.526
38.9942
41.5162
44.0063
46.2775
48.3848
50.3006
51.9769
53.279
53.8759
54.5898
55.3089
55.9259
56.4109
56.7563
56.9806
57.0769
57.0886
57.0478
56.8537
57.0311
56.6842
55.9399
55.0376
54.0731
53.0931
52.1137
51.1376
50.1438
49.0977
47.9812
46.7697
45.4546
44.0088
42.4491
40.7422
38.9708
37.0729
35.3096
33.4661
32.2877
39.359
41.9756
44.5631
46.9225
49.1059
51.083
52.8011
54.1182
54.7297
55.4731
56.2163
56.8508
57.3461
57.6985
57.9239
58.0085
58.0566
57.9309
57.9438
57.9493
57.3728
56.5178
55.55
54.538
53.5138
52.4891
51.4568
50.3875
49.2576
48.0524
46.7493
45.3398
43.8
42.1461
40.3541
38.5071
36.5622
34.7858
32.9856
31.9264
39.0459
41.759
44.4487
46.9016
49.1599
51.1922
52.9476
54.2893
54.938
55.705
56.4702
57.1288
57.6484
58.0344
58.2748
58.4189
58.4723
58.4101
58.6651
58.327
57.6112
56.698
55.7053
54.6802
53.6411
52.5957
51.5209
50.394
49.1972
47.9176
46.5353
45.0422
43.4187
41.6783
39.806
37.8819
35.8885
34.0898
32.339
31.3958
37.8908
40.6642
43.4451
45.9917
48.3206
50.4
52.1928
53.5982
54.3279
55.0998
55.8755
56.5631
57.1313
57.5745
57.885
58.1416
58.2005
58.5304
58.5018
58.0434
57.3161
56.4297
55.4745
54.4825
53.4675
52.424
51.3287
50.1676
48.9255
47.5888
46.1381
44.5652
42.8526
41.0123
39.0361
37.003
34.9253
33.0694
31.3593
30.5479
36.0575
38.6881
41.4662
44.0805
46.4766
48.6029
50.4345
51.9473
52.862
53.6428
54.4279
55.1571
55.7983
56.3286
56.7969
57.1138
57.5372
57.84
57.6641
57.2239
56.5781
55.7938
54.9371
54.0285
53.0777
52.0651
50.9768
49.8034
48.5295
47.1396
45.6136
43.9402
42.1016
40.1078
37.9566
35.7322
33.4794
31.5039
29.8148
29.1855
34.689
36.6872
39.0842
41.55
43.9138
46.0489
47.8923
49.4818
50.6873
51.5501
52.3842
53.1865
53.9292
54.6168
55.1999
55.852
56.3611
56.5413
56.447
56.1484
55.6652
55.0458
54.3331
53.5437
52.6752
51.7135
50.6497
49.4735
48.1686
46.7161
45.092
43.2781
41.2516
39.0155
36.5717
34.0145
31.4392
29.2429
27.5859
27.2835
34.7691
36.0255
37.7344
39.7025
41.7612
43.7369
45.4902
47.0356
48.4158
49.4368
50.368
51.2776
52.1537
52.9851
53.8858
54.5445
55.0009
55.3096
55.4157
55.3235
55.0411
54.6109
54.0587
53.3992
52.6231
51.7214
50.6875
49.5101
48.1705
46.6455
44.9054
42.9219
40.6625
38.1161
35.279
32.251
29.191
26.6628
25.108
25.3399
35.7195
36.5245
37.7208
39.2188
40.9098
42.6466
44.2674
45.7314
47.1098
48.3067
49.3525
50.3666
51.3856
52.4182
53.2413
53.9129
54.5088
55.0028
55.3154
55.4205
55.3218
55.0594
54.6488
54.1032
53.4159
52.5779
51.5825
50.4177
49.0631
47.4913
45.6675
43.5542
41.1089
38.3045
35.1234
31.6545
28.0889
25.1576
23.6124
24.2204
36.8289
37.4199
38.3601
39.6079
41.096
42.7094
44.2998
45.781
47.1839
48.5225
49.7763
50.9489
52.0606
53.0568
53.951
54.7465
55.4688
56.1077
56.5796
56.8381
56.8755
56.7332
56.4207
55.9517
55.3331
54.5494
53.5909
52.4463
51.0968
49.5154
47.6667
45.5111
43.0029
40.1062
36.7945
33.14
29.314
26.0416
24.1089
24.4012
37.8189
38.3274
39.1878
40.3744
41.8367
43.4786
45.164
46.7667
48.2989
49.7646
51.1543
52.4554
53.6573
54.7542
55.7409
56.6284
57.4096
58.1425
58.7184
59.077
59.2012
59.1264
58.8582
58.4185
57.8191
57.0579
56.1195
54.9914
53.656
52.0871
50.2501
48.1062
45.6123
42.734
39.4465
35.8049
31.9483
28.4703
26.0074
25.588
38.6032
39.0611
39.8943
41.0811
42.5799
44.3053
46.1268
47.8859
49.5632
51.1497
52.6355
54.0128
55.2772
56.4256
57.4612
58.3848
59.2086
59.9483
60.5876
61.0155
61.2162
61.2041
60.9761
60.5584
59.9691
59.2188
58.2903
57.17
55.8436
54.2881
52.4719
50.3576
47.9026
45.071
41.8349
38.2375
34.3914
30.7838
27.9308
26.9133
39.0726
39.4132
40.1314
41.2209
42.6567
44.3687
46.2379
48.1037
49.8832
51.5543
53.1085
54.5417
55.8541
57.0469
58.1266
59.0925
59.9641
60.7315
61.4373
61.9458
62.2186
62.2726
62.0888
61.6976
61.1236
60.3812
59.4644
58.3563
57.0413
55.4973
53.6929
51.5911
49.1492
46.3315
43.1108
39.5234
35.6694
31.9881
28.9467
27.6343
14.4942
21.1694
34.6923
38.5015
41.7105
43.057
43.9845
44.1907
44.2461
44.3427
44.6438
44.7142
44.5651
44.4116
44.2817
43.9642
43.3407
42.9286
42.3308
41.7749
42.22
42.9582
42.4872
42.3511
41.6869
41.208
40.9727
40.3391
40.0744
39.3547
38.9852
38.6836
6.4764
21.2901
34.2507
38.2793
41.5312
42.9781
43.8223
44.0263
44.3046
44.4178
44.624
44.7573
44.648
44.3021
44.1165
43.907
43.3855
42.9779
42.3586
41.982
42.5263
43.2973
42.9378
42.8215
42.1317
41.8268
41.5593
40.8718
40.5557
39.8387
39.451
39.142
13.0964
20.7755
33.8569
38.0348
41.3174
42.8399
43.8722
44.168
44.2959
44.4337
44.6912
44.8355
44.7147
44.5996
44.4581
44.1808
43.7279
43.3085
42.7606
42.5318
43.0726
43.6357
43.2041
43.0324
42.2969
42.0525
41.8365
41.3012
41.0474
40.4757
40.1456
39.8886
14.6337
20.3181
33.3216
37.7573
41.1563
42.7903
43.7374
44.0603
44.439
44.6038
44.8732
45.003
44.9918
44.6395
44.4124
44.2472
43.8475
43.3936
42.9072
42.7784
43.3732
43.9433
43.6581
43.5799
42.8943
42.7676
42.5334
41.9425
41.6323
41.05
40.698
40.4252
16.1926
19.9491
32.7419
37.407
40.8181
42.5771
43.7888
44.2434
44.5111
44.7772
45.0342
45.241
45.1077
45.0114
44.8856
44.6383
44.2341
43.7746
43.4288
43.3668
43.9505
44.347
43.9962
43.8802
43.2029
43.058
42.8776
42.4139
42.1752
41.7408
41.4487
41.2334
8.14683
19.0839
31.9626
36.9407
40.5991
42.4855
43.5969
44.153
44.7144
44.9594
45.3271
45.4517
45.5043
45.1589
44.9171
44.7599
44.3913
43.9365
43.673
43.6051
44.2071
44.6295
44.4341
44.4709
43.9233
43.8277
43.6579
43.1433
42.8479
42.386
42.0716
41.8298
11.2822
18.189
31.1558
36.4204
40.0635
42.154
43.6368
44.3182
44.7687
45.221
45.52
45.7691
45.6213
45.5514
45.4452
45.1948
44.8013
44.3926
44.2502
44.1957
44.7976
45.0988
44.8316
44.8452
44.3467
44.1541
44.0451
43.6301
43.4115
43.094
42.8421
42.6639
12.7922
17.5358
29.9661
35.6608
39.7345
41.9762
43.3356
44.2225
45.0185
45.3738
45.8301
45.96
46.0656
45.7505
45.5081
45.3494
45.0234
44.6614
44.5471
44.4372
45.0319
45.3538
45.2254
45.445
45.1283
44.9463
44.876
44.4261
44.1575
43.7989
43.5252
43.3107
13.0665
15.6956
28.9682
34.8701
38.9197
41.5114
43.3678
44.321
44.9883
45.6345
46.0124
46.2936
46.1469
46.1286
46.063
45.8217
45.4766
45.1822
45.1272
45.0469
45.6564
45.8882
45.6975
45.896
45.6271
45.3053
45.2889
44.9109
44.7177
44.4944
44.286
44.1415
16.2171
15.6599
27.0973
33.7221
38.3897
41.1171
42.8577
44.1776
45.2277
45.7329
46.2565
46.4206
46.5968
46.3419
46.1414
46.0288
45.7907
45.5478
45.4637
45.3434
45.909
46.1263
46.0554
46.4747
46.3959
46.0998
46.1372
45.7508
45.5178
45.2458
45.015
44.8253
18.4728
14.1068
26.0577
32.3903
37.1083
40.4568
42.8246
44.0973
45.0513
45.8834
46.3874
46.7162
46.6126
46.695
46.7158
46.5281
46.271
46.0807
46.0249
45.9936
46.5755
46.726
46.629
47
46.9187
46.4772
46.5395
46.1948
46.0259
45.8757
45.7112
45.5986
21.6146
13.862
23.2828
30.8643
36.1863
39.5659
41.9139
43.8297
45.1542
45.8864
46.4837
46.744
47.0392
46.8851
46.7843
46.7771
46.649
46.4968
46.4003
46.3643
46.8489
46.9501
46.9455
47.4995
47.5854
47.2314
47.3557
47.0401
46.8477
46.6499
46.4642
46.2986
24.7156
13.9334
21.9757
28.4176
34.151
38.5654
41.6213
43.3287
44.7523
45.8056
46.5215
46.9377
46.9385
47.1922
47.3489
47.2491
47.0883
46.9695
46.9198
47.0169
47.519
47.5926
47.6109
48.0789
48.0895
47.5996
47.6964
47.3851
47.2325
47.137
47.0129
46.9329
27.2849
14.6583
19.2912
26.8134
32.4102
36.6578
40.0408
42.8418
44.5046
45.6322
46.367
46.8287
47.3046
47.2805
47.3295
47.477
47.4665
47.389
47.3229
47.4259
47.7775
47.7814
47.8391
48.409
48.5548
48.2346
48.4081
48.1745
48.0271
47.8941
47.7554
47.6133
29.3125
16.0269
16.6057
22.5648
29.5315
35.093
38.9963
41.4124
43.7259
45.139
46.2582
46.8344
47.0067
47.4971
47.8155
47.817
47.7578
47.7143
47.7393
47.9701
48.3659
48.4005
48.5305
48.9961
49.0016
48.552
48.6332
48.3554
48.2121
48.1553
48.0676
48.0214
29.7188
16.7505
15.9493
20.9228
25.8314
31.1903
36.3646
40.5341
42.6866
44.6022
45.643
46.5316
47.2808
47.3875
47.6136
47.9376
48.0556
48.0861
48.1159
48.3348
48.5529
48.5025
48.5946
49.0716
49.2019
48.997
49.195
49.059
48.9681
48.8994
48.8096
48.6933
28.2059
17.9863
11.3033
14.6569
22.6977
28.6206
33.213
37.0659
41.2422
43.2869
45.2329
46.1235
46.6455
47.504
47.9869
48.0842
48.1345
48.1934
48.3572
48.6769
48.9903
49.038
49.259
49.6642
49.6138
49.2587
49.2552
48.9951
48.8443
48.7953
48.7298
48.7174
25.7143
16.9493
4.64672
9.33621
11.1024
20.0204
29.157
35.1492
38.1265
41.9378
43.6571
45.4625
46.6689
46.9661
47.4753
48.052
48.3479
48.5395
48.7093
48.9719
49.0815
48.9937
49.05
49.315
49.368
49.3127
49.5204
49.4994
49.4923
49.4837
49.4436
49.3578
23.1672
17.8971
10.547
9.04408
9.42452
8.63222
13.5605
26.2278
35.4354
38.6663
42.5459
44.0658
45.3529
46.8943
47.6003
47.8169
48.0369
48.2569
48.5708
48.8837
49.1606
49.2719
49.5456
49.86
49.732
49.474
49.2922
48.9932
48.7851
48.6501
48.551
48.5505
19.7303
15.6784
12.3466
8.80305
11.7085
7.13764
7.27675
8.76994
23.9298
35.1831
38.7188
42.6985
44.708
45.3326
46.4366
47.482
48.0815
48.5221
48.823
49.0471
49.0792
48.907
48.8007
48.6853
48.5603
48.5481
48.7358
48.824
48.9268
48.9649
48.9813
48.9322
16.4782
15.9032
9.6028
11.4982
8.69547
8.89549
11.7856
11.8583
7.02926
25.1651
35.6744
38.768
41.9683
44.9246
45.911
46.3023
46.8214
47.2923
47.7378
47.939
48.1857
48.3742
48.6305
48.8385
48.6514
48.4135
47.8663
47.3195
46.8476
46.3387
46.006
45.9199
10.9672
14.0057
8.1731
10.8708
5.56986
12.3409
12.4294
7.91664
6.25878
9.43988
25.9102
35.9407
39.407
40.6524
43.318
45.3825
46.4767
47.2512
47.6395
47.7676
47.7104
47.2648
46.6758
45.7576
45.1428
44.6345
44.6889
44.7954
45.1228
45.1826
45.2548
45.2685
8.73706
12.3732
7.11059
11.5042
11.819
15.7051
14.6237
6.12378
13.381
9.58295
10.0811
20.4321
32.6305
39.7001
40.8813
41.4303
42.6144
43.5226
44.071
43.9552
43.9884
44.1795
44.2652
44.3765
44.1916
43.8174
42.3717
40.6265
38.1947
35.4351
33.4878
31.9136
11.3094
12.2988
10.1007
11.4616
7.33445
14.2483
18.0709
18.1998
14.2637
8.31868
9.79696
14.3045
4.6023
20.2447
33.3833
39.4258
41.3781
42.5679
42.9439
42.9293
42.699
41.37
38.9939
34.7332
30.4266
23.9938
19.261
12.6268
18.4243
16.2034
19.961
10.5616
12.2327
15.1156
13.4609
10.7242
9.72437
12.243
15.9947
18.4666
18.3423
15.6658
12.8552
14.4509
14.0042
10.1777
12.5974
13.9839
23.8523
27.6881
28.3772
26.375
23.4419
20.6281
15.425
9.29119
13.5966
19.006
18.038
16.7446
9.4665
11.2607
9.87181
16.4273
12.0928
17.5912
18.1819
17.8826
17.5774
18.2201
19.8375
21.5733
22.42
21.8047
19.1553
13.6082
12.8944
12.9084
4.05859
15.2588
12.0837
2.0342
14.777
9.76861
6.61103
13.0708
12.3947
17.263
7.78527
16.5642
15.9801
7.97995
14.3427
17.61
19.7025
20.9978
9.36477
17.7753
20.5356
22.1859
23.2306
24.1272
25.1133
26.0451
26.4825
26.1015
24.7485
22.4855
19.7888
16.3533
10.7962
12.9768
17.05
11.321
7.78181
6.96883
12.6723
6.40178
17.5645
12.5396
19.9733
21.647
24.094
25.6955
26.3093
26.7801
27.1973
27.5103
6.73015
16.8698
20.8137
23.5192
25.451
26.8388
27.8336
28.4667
28.6383
28.2653
27.3501
25.9188
24.2648
23.2521
22.939
22.1673
20.97
19.8921
19.707
20.1514
21.2625
23.1611
25.2515
27.121
28.006
28.9778
29.2736
29.7702
29.9477
30.14
30.3434
30.5089
5.33271
15.8017
20.1627
23.3008
25.6433
27.326
28.4313
29.017
29.0852
28.6083
27.5377
26.3041
25.5669
25.8165
26.6008
27.0285
27.1052
27.2082
27.5204
28.0642
28.7707
29.5128
30.4369
31.3971
31.6347
32.1726
31.7791
31.5701
31.1535
30.8823
30.814
30.8003
4.82138
14.8997
19.26
22.4918
24.9563
26.7558
27.9453
28.5371
28.5339
27.9125
26.4873
24.8172
24.1054
25.5055
27.8103
29.3648
30.1131
30.5716
31.032
31.6068
32.2293
32.7145
33.1564
33.3257
32.81
32.7073
31.6727
30.8969
30.1405
29.7296
29.6911
29.6972
4.65209
14.2768
18.4637
21.6063
24.0433
25.8609
27.096
27.7207
27.7343
27.1428
25.947
24.2369
22.9547
23.7762
26.7335
29.3938
30.9207
31.7717
32.3558
32.8748
33.3176
33.4849
33.4168
32.9665
32.0704
31.5981
30.4872
29.7319
29.1943
29.0676
29.3052
29.4763
4.61858
13.9359
17.9232
20.8965
23.2451
25.0477
26.2992
26.9635
27.0343
26.5182
25.4504
24.0189
22.854
23.1635
25.4023
28.0175
29.8829
31.0097
31.6961
32.173
32.493
32.5343
32.3551
31.8934
31.1852
30.6862
29.7698
29.1231
28.7336
28.7534
29.1382
29.4127
4.63028
13.7554
17.5831
20.3965
22.648
24.4158
25.656
26.3291
26.4116
25.8889
24.8013
23.3599
22.0368
22.0561
24.0799
26.5231
28.3577
29.5494
30.2869
30.7614
31.0498
31.0907
30.9007
30.3806
29.7368
29.3548
28.7338
28.4424
28.462
28.8276
29.4524
29.8933
4.6287
13.6213
17.3343
20.0303
22.2047
23.9298
25.1435
25.8042
25.8761
25.334
24.2157
22.6954
21.1033
20.491
21.857
24.0219
25.844
27.0951
27.8728
28.3391
28.5882
28.6332
28.5663
28.404
28.2809
28.3603
28.3179
28.5077
28.9145
29.5447
30.3198
30.8722
4.60852
13.5111
17.1384
19.7524
21.8711
23.5556
24.7459
25.3997
25.4782
24.9552
23.8546
22.2814
20.4288
19.2181
19.8702
21.5978
23.2538
24.4889
25.3112
25.8354
26.1645
26.3703
26.5781
26.86
27.3021
27.9037
28.4229
29.0456
29.7538