/*--------------------------------*- C++ -*----------------------------------*\
  =========                 |
  \\      /  F ield         | OpenFOAM: The Open Source CFD Toolbox
   \\    /   O peration     | Website:  https://openfoam.org
    \\  /    A nd           | Version:  6
     \\/     M anipulation  |
\*---------------------------------------------------------------------------*/
FoamFile
{
    version     2.0;
    format      ascii;
    class       volVectorField;
    location    "28";
    object      wallShearStress;
}
// * * * * * * * * * * * * * * * * * * * * * * * * * * * * * * * * * * * * * //

dimensions      [0 2 -2 0 0 0 0];

internalField   uniform (0 0 0);

boundaryField
{
    inlet
    {
        type            calculated;
        value           uniform (0 0 0);
    }
    outlet
    {
        type            calculated;
        value           uniform (0 0 0);
    }
    roughCylinder
    {
        type            calculated;
        value           nonuniform List<vector> 
5120
(
(-0.000430935 -0.00062095 -0.000322796)
(-0.000384246 -0.00055251 -3.87556e-05)
(-0.000344578 -0.000539183 1.28837e-06)
(-0.000383507 -0.000602987 4.91255e-05)
(-0.00045041 -0.000681725 0.000104517)
(-0.000520873 -0.000742083 0.00015693)
(-0.000592155 -0.000782046 0.000203145)
(-0.000659911 -0.000803778 0.000241904)
(-0.000721621 -0.000811251 0.000272457)
(-0.000777234 -0.000812066 0.000295606)
(-0.00082775 -0.000813472 0.000313348)
(-0.000870297 -0.000816057 0.000324927)
(-0.000906155 -0.00082289 0.000330676)
(-0.000936806 -0.0008341 0.000331612)
(-0.000963276 -0.000849073 0.000328878)
(-0.000987198 -0.000867038 0.000323574)
(-0.00101001 -0.000887129 0.000316519)
(-0.00103316 -0.000908971 0.000308318)
(-0.00105731 -0.000932164 0.000299199)
(-0.00108284 -0.000956563 0.000289238)
(-0.00110989 -0.000982138 0.000278417)
(-0.00113843 -0.00100885 0.000266671)
(-0.00116833 -0.00103658 0.000253889)
(-0.00119939 -0.00106517 0.000239913)
(-0.00123135 -0.00109436 0.000224497)
(-0.00126384 -0.00112378 0.000207282)
(-0.00129637 -0.00115294 0.000187713)
(-0.00132825 -0.00118118 0.000165042)
(-0.00135844 -0.00120757 0.000138141)
(-0.00138546 -0.00123082 0.000105851)
(-0.00140658 -0.00124923 6.64583e-05)
(-0.00141812 -0.00125994 2.22236e-05)
(-0.000553205 -0.000724003 -0.000377771)
(-0.000422567 -0.000557619 -4.33232e-05)
(-0.000370511 -0.00053136 -4.42548e-06)
(-0.000403196 -0.000586036 4.00691e-05)
(-0.000471081 -0.00066447 9.32455e-05)
(-0.000543526 -0.000726574 0.000144349)
(-0.000616759 -0.000768737 0.000189718)
(-0.00068688 -0.000793163 0.000228067)
(-0.000751914 -0.000804456 0.000258947)
(-0.000811839 -0.000809537 0.000283378)
(-0.000866049 -0.000813194 0.0003025)
(-0.000912019 -0.000815519 0.000315267)
(-0.000949608 -0.000821038 0.000321613)
(-0.000981777 -0.000831225 0.000322847)
(-0.00100978 -0.000845547 0.000320344)
(-0.00103508 -0.000863002 0.000315171)
(-0.00105942 -0.000882901 0.000308287)
(-0.00108384 -0.000904422 0.000300198)
(-0.0011093 -0.000927337 0.000291242)
(-0.00113624 -0.000951526 0.000281516)
(-0.00116476 -0.000976895 0.000270999)
(-0.0011948 -0.00100335 0.00025961)
(-0.00122622 -0.0010308 0.000247235)
(-0.00125881 -0.00105906 0.000233711)
(-0.00129229 -0.00108788 0.000218793)
(-0.00132628 -0.00111691 0.000202114)
(-0.00136027 -0.00114567 0.000183125)
(-0.00139353 -0.00117349 0.000161084)
(-0.00142501 -0.00119948 0.000134878)
(-0.00145314 -0.00122237 0.000103373)
(-0.00147512 -0.00124049 6.48959e-05)
(-0.00148715 -0.00125102 2.16906e-05)
(-0.00059318 -0.000695795 -0.000358027)
(-0.000443571 -0.000534916 -4.63108e-05)
(-0.000390133 -0.000509246 -1.08173e-05)
(-0.000421206 -0.000562587 3.02101e-05)
(-0.000490017 -0.000640876 8.10161e-05)
(-0.000564086 -0.000704233 0.000130647)
(-0.00063917 -0.000748574 0.000175139)
(-0.000712032 -0.000776383 0.000213347)
(-0.000780878 -0.000792075 0.000244956)
(-0.000844833 -0.000801031 0.000270604)
(-0.000902688 -0.000806936 0.00029077)
(-0.000952386 -0.000810307 0.000304672)
(-0.000992049 -0.000814152 0.000311554)
(-0.00102585 -0.000823301 0.000313175)
(-0.00105536 -0.000836691 0.000310909)
(-0.00108223 -0.00085356 0.000305969)
(-0.00110779 -0.000872771 0.000299206)
(-0.00113369 -0.000893937 0.000291339)
(-0.00116062 -0.000916525 0.000282634)
(-0.00118893 -0.000940304 0.000273187)
(-0.00121882 -0.000965198 0.000262997)
(-0.00125027 -0.000991173 0.000251996)
(-0.00128312 -0.0010181 0.000240065)
(-0.00131717 -0.00104583 0.000227039)
(-0.00135212 -0.00107409 0.000212663)
(-0.00138755 -0.00110253 0.000196568)
(-0.00142292 -0.00113067 0.000178205)
(-0.00145749 -0.00115788 0.000156842)
(-0.00149017 -0.00118329 0.000131381)
(-0.00151935 -0.00120565 0.00010072)
(-0.00154214 -0.00122336 6.32253e-05)
(-0.0015546 -0.00123363 2.11217e-05)
(-0.000632071 -0.00066571 -0.000327315)
(-0.000477434 -0.00052073 -5.07832e-05)
(-0.000412468 -0.000489254 -1.79527e-05)
(-0.000435119 -0.00053345 1.97876e-05)
(-0.000503775 -0.000610445 6.7962e-05)
(-0.000579609 -0.000675428 0.000115961)
(-0.000657089 -0.000722746 0.000159578)
(-0.000733021 -0.000754472 0.000197706)
(-0.000805434 -0.000774444 0.000230019)
(-0.000873411 -0.000787291 0.000256897)
(-0.000934914 -0.000795452 0.000278084)
(-0.000987828 -0.000800009 0.000292811)
(-0.00103113 -0.000803488 0.000300629)
(-0.0010666 -0.000811047 0.000302686)
(-0.00109784 -0.000823419 0.000300761)
(-0.00112615 -0.000839347 0.000296066)
(-0.00115349 -0.000858119 0.000289638)
(-0.00118071 -0.000878639 0.000282003)
(-0.0012089 -0.000900602 0.000273558)
(-0.00123861 -0.000923849 0.00026445)
(-0.00126996 -0.000948249 0.000254663)
(-0.00130284 -0.000973663 0.000244112)
(-0.00133713 -0.000999985 0.000232677)
(-0.00137257 -0.00102703 0.000220185)
(-0.00140888 -0.00105456 0.00020638)
(-0.00144562 -0.00108224 0.000190895)
(-0.00148225 -0.00110961 0.000173181)
(-0.00151801 -0.00113605 0.000152514)
(-0.00155176 -0.00116073 0.000127819)
(-0.00158187 -0.00118242 9.80189e-05)
(-0.00160538 -0.00119961 6.15261e-05)
(-0.00161823 -0.00120957 2.05445e-05)
(-0.000647697 -0.000609527 -0.000281027)
(-0.000491909 -0.00048367 -5.3782e-05)
(-0.000426894 -0.000459204 -2.4997e-05)
(-0.000444963 -0.000500173 9.34934e-06)
(-0.000512896 -0.0005756 5.45886e-05)
(-0.000590012 -0.000641675 0.000100632)
(-0.000669397 -0.000691436 0.000143067)
(-0.000748258 -0.000726938 0.000180942)
(-0.000824609 -0.000751477 0.000213959)
(-0.000896237 -0.000767815 0.000241886)
(-0.000961277 -0.000778182 0.000264096)
(-0.00101789 -0.000784251 0.000279713)
(-0.00106495 -0.000788242 0.000288501)
(-0.00110334 -0.000794342 0.000291319)
(-0.00113632 -0.00080538 0.000289863)
(-0.00116656 -0.000820415 0.000285604)
(-0.00119511 -0.000838046 0.000279436)
(-0.00122392 -0.000857902 0.000272174)
(-0.00125369 -0.000879316 0.000264132)
(-0.00128477 -0.000901887 0.00025542)
(-0.00131735 -0.000925512 0.000246054)
(-0.0013515 -0.000950132 0.000235979)
(-0.00138703 -0.000975614 0.000225066)
(-0.00142374 -0.00100181 0.000213143)
(-0.00146128 -0.00102845 0.000199945)
(-0.00149922 -0.00105521 0.000185101)
(-0.00153699 -0.00108164 0.000168062)
(-0.00157379 -0.00110715 0.000148113)
(-0.0016085 -0.00113094 0.000124201)
(-0.00163943 -0.00115185 9.52782e-05)
(-0.00166357 -0.00116842 5.98059e-05)
(-0.00167674 -0.001178 1.99615e-05)
(-0.000660141 -0.000549321 -0.000241053)
(-0.000501945 -0.00044889 -5.57132e-05)
(-0.000436361 -0.000424775 -3.12374e-05)
(-0.000448262 -0.000461903 -9.45192e-07)
(-0.000514689 -0.000535232 4.0789e-05)
(-0.000593151 -0.000602486 8.44948e-05)
(-0.000675194 -0.00065547 0.000125624)
(-0.000757549 -0.000695148 0.000163188)
(-0.000837202 -0.000723398 0.000196587)
(-0.00091263 -0.000743117 0.000225455)
(-0.000981434 -0.000755795 0.000248711)
(-0.00104146 -0.000763069 0.000265201)
(-0.00109253 -0.000768095 0.00027497)
(-0.00113485 -0.000773762 0.000278818)
(-0.00117034 -0.000782976 0.00027808)
(-0.00120217 -0.000796457 0.000274287)
(-0.00123294 -0.000813392 0.000268709)
(-0.00126322 -0.000832264 0.000261873)
(-0.00129419 -0.000852644 0.000254229)
(-0.0013266 -0.000874365 0.000245986)
(-0.00136062 -0.00089721 0.000237151)
(-0.00139611 -0.000920983 0.000227632)
(-0.00143294 -0.00094557 0.000217308)
(-0.00147085 -0.000970766 0.000205996)
(-0.00150951 -0.000996361 0.000193435)
(-0.0015485 -0.00102203 0.000179252)
(-0.00158724 -0.00104736 0.000162904)
(-0.00162495 -0.00107179 0.000143687)
(-0.00166048 -0.00109454 0.000120567)
(-0.00169209 -0.00111453 9.25271e-05)
(-0.00171675 -0.00113038 5.80818e-05)
(-0.00173018 -0.00113953 1.93787e-05)
(-0.000588879 -0.000437985 -0.000173378)
(-0.000513499 -0.000409985 -5.76794e-05)
(-0.000444097 -0.000391262 -3.78743e-05)
(-0.000447169 -0.000422262 -1.10988e-05)
(-0.000510873 -0.000492532 2.69377e-05)
(-0.000590024 -0.000560471 6.793e-05)
(-0.000673597 -0.000615588 0.000107279)
(-0.000758398 -0.000658385 0.00014407)
(-0.000842176 -0.000690822 0.000177793)
(-0.000921362 -0.000713604 0.000207385)
(-0.000993762 -0.000728329 0.000231553)
(-0.00105809 -0.000737373 0.000249202)
(-0.00111294 -0.00074317 0.000259977)
(-0.00115947 -0.000749228 0.000264924)
(-0.00119868 -0.000757374 0.000265199)
(-0.00123345 -0.000769379 0.000262288)
(-0.00126554 -0.000784296 0.00025719)
(-0.00129757 -0.000802014 0.000250957)
(-0.00133037 -0.000821587 0.000243937)
(-0.0013642 -0.000842337 0.000236255)
(-0.00139933 -0.000864077 0.000227966)
(-0.00143592 -0.000886733 0.00021903)
(-0.00147377 -0.000910154 0.000209318)
(-0.00151271 -0.000934189 0.000198655)
(-0.00155235 -0.000958585 0.000186768)
(-0.00159227 -0.000983041 0.000173283)
(-0.00163185 -0.00100714 0.000157655)
(-0.00167031 -0.00103035 0.000139188)
(-0.00170651 -0.00105197 0.000116877)
(-0.0017387 -0.00107093 8.97387e-05)
(-0.00176379 -0.00108597 5.63384e-05)
(-0.00177738 -0.00109466 1.87909e-05)
(-0.000642431 -0.000424673 -0.000146591)
(-0.000515978 -0.000366675 -6.00284e-05)
(-0.000443035 -0.000352868 -4.33844e-05)
(-0.00043757 -0.000378669 -2.06075e-05)
(-0.000497275 -0.000445137 1.30635e-05)
(-0.00057651 -0.000513261 5.07239e-05)
(-0.000662433 -0.000571283 8.79452e-05)
(-0.000751168 -0.000618358 0.000123838)
(-0.000837974 -0.000653833 0.000157348)
(-0.000921089 -0.000679581 0.000187456)
(-0.000997966 -0.000696815 0.000212598)
(-0.00106601 -0.0007071 0.000231281)
(-0.00112542 -0.000714066 0.000243376)
(-0.00117578 -0.000720224 0.000249454)
(-0.00121917 -0.000728194 0.000250934)
(-0.00125684 -0.000738675 0.000248945)
(-0.00129262 -0.000752705 0.000244974)
(-0.00132668 -0.000768927 0.000239528)
(-0.00136063 -0.000786854 0.000233103)
(-0.0013958 -0.000806304 0.000226063)
(-0.0014324 -0.000826938 0.000218463)
(-0.00147028 -0.000848461 0.000210216)
(-0.00150932 -0.000870716 0.000201205)
(-0.00154925 -0.000893493 0.000191243)
(-0.00158976 -0.000916574 0.000180063)
(-0.0016304 -0.000939669 0.000167293)
(-0.00167062 -0.000962408 0.000152397)
(-0.00170968 -0.000984294 0.000134691)
(-0.00174638 -0.00100463 0.000113192)
(-0.00177899 -0.00102244 8.69546e-05)
(-0.00180438 -0.0010366 5.46013e-05)
(-0.00181804 -0.00104484 1.82081e-05)
(-0.000646819 -0.00037396 -0.000117127)
(-0.000516819 -0.000331547 -6.02603e-05)
(-0.000440196 -0.00031561 -4.84425e-05)
(-0.000423348 -0.000335603 -2.96843e-05)
(-0.000476927 -0.000397137 -4.95634e-07)
(-0.000555763 -0.000465013 3.34205e-05)
(-0.000642416 -0.00052445 6.7907e-05)
(-0.000732227 -0.000573349 0.000102049)
(-0.00082341 -0.000612775 0.000135175)
(-0.000910845 -0.000641578 0.000165554)
(-0.000991571 -0.000660708 0.000191361)
(-0.00106487 -0.000673102 0.000211362)
(-0.00112853 -0.000680883 0.000224802)
(-0.00118374 -0.000687647 0.000232408)
(-0.00123073 -0.000695057 0.000235135)
(-0.00127285 -0.000705214 0.000234541)
(-0.00131067 -0.000717589 0.000231507)
(-0.00134717 -0.000732424 0.000227039)
(-0.00138371 -0.000749274 0.000221598)
(-0.00142067 -0.000767459 0.0002154)
(-0.0014584 -0.000786642 0.000208544)
(-0.00149725 -0.00080673 0.000201035)
(-0.00153711 -0.000827529 0.000192759)
(-0.00157778 -0.000848868 0.000183544)
(-0.00161897 -0.000870516 0.000173122)
(-0.0016602 -0.000892183 0.000161116)
(-0.00170091 -0.000913488 0.000146989)
(-0.00174034 -0.000933953 0.00013007)
(-0.00177741 -0.000952967 0.000109412)
(-0.00181036 -0.00096961 8.41057e-05)
(-0.00183594 -0.000982847 5.28318e-05)
(-0.00184945 -0.000990552 1.7616e-05)
(-0.000540253 -0.000275276 -7.06832e-05)
(-0.000495858 -0.000281353 -5.91167e-05)
(-0.000425078 -0.000274124 -5.25513e-05)
(-0.000399005 -0.000289732 -3.75217e-05)
(-0.000444631 -0.000345106 -1.3272e-05)
(-0.000520986 -0.000411147 1.60449e-05)
(-0.00060888 -0.000472459 4.7112e-05)
(-0.000703536 -0.000526057 7.93012e-05)
(-0.000797386 -0.000568026 0.00011125)
(-0.000888781 -0.00059953 0.000141466)
(-0.000975167 -0.000621621 0.000168043)
(-0.00105262 -0.000635226 0.000189065)
(-0.00112176 -0.00064436 0.000204136)
(-0.0011812 -0.000651181 0.000213305)
(-0.00123324 -0.00065869 0.000217757)
(-0.00127804 -0.000667459 0.000218424)
(-0.00132013 -0.000679304 0.000216885)
(-0.00135936 -0.000692894 0.000213588)
(-0.0013973 -0.000708014 0.000209088)
(-0.00143574 -0.000724716 0.000203834)
(-0.00147515 -0.000742674 0.000197932)
(-0.00151536 -0.000761478 0.000191326)
(-0.00155631 -0.000780936 0.000183918)
(-0.00159781 -0.000800858 0.000175542)
(-0.0016395 -0.000820995 0.000165931)
(-0.00168104 -0.000841101 0.000154725)
(-0.00172194 -0.000860863 0.000141398)
(-0.00176155 -0.000879859 0.000125301)
(-0.00179872 -0.000897481 0.000105511)
(-0.00183176 -0.000912901 8.11654e-05)
(-0.00185734 -0.000925168 5.10066e-05)
(-0.00187064 -0.000932277 1.7007e-05)
(-0.000572731 -0.00025335 -4.98885e-05)
(-0.000477318 -0.000240284 -5.94007e-05)
(-0.000406081 -0.000235071 -5.56182e-05)
(-0.000369782 -0.000246025 -4.40702e-05)
(-0.000405328 -0.000294182 -2.4776e-05)
(-0.000479422 -0.00035848 -5.77673e-07)
(-0.000566969 -0.000420312 2.63401e-05)
(-0.0006598 -0.000473616 5.52882e-05)
(-0.000758209 -0.0005195 8.5656e-05)
(-0.000854855 -0.000554548 0.000115373)
(-0.000945191 -0.000578448 0.000142134)
(-0.00102925 -0.000594634 0.000164473)
(-0.0011033 -0.00060457 0.000181082)
(-0.00116876 -0.000612189 0.000192252)
(-0.0012247 -0.000618973 0.000198425)
(-0.00127519 -0.000627731 0.000201085)
(-0.00131934 -0.000637713 0.000200862)
(-0.00136106 -0.000649805 0.000198886)
(-0.00140208 -0.000663904 0.00019574)
(-0.00144254 -0.00067927 0.000191633)
(-0.00148289 -0.000695543 0.000186703)
(-0.00152379 -0.000712665 0.000181023)
(-0.00156522 -0.00073044 0.000174512)
(-0.001607 -0.000748663 0.000167012)
(-0.00164897 -0.000767173 0.000158279)
(-0.00169068 -0.000785671 0.00014794)
(-0.00173158 -0.000803841 0.000135473)
(-0.00177104 -0.000821261 0.000120242)
(-0.00180809 -0.000837445 0.000101373)
(-0.00184102 -0.000851608 7.8047e-05)
(-0.00186645 -0.000862871 4.90731e-05)
(-0.00187941 -0.000869334 1.6363e-05)
(-0.000458526 -0.000173408 -2.5454e-05)
(-0.000430375 -0.000194205 -5.45356e-05)
(-0.000371983 -0.000192377 -5.61582e-05)
(-0.000331674 -0.000202051 -4.88647e-05)
(-0.000353031 -0.000240608 -3.42708e-05)
(-0.0004197 -0.000299307 -1.58294e-05)
(-0.000505817 -0.000360818 5.89031e-06)
(-0.000605663 -0.000420138 3.10998e-05)
(-0.000706024 -0.000468182 5.87761e-05)
(-0.000806156 -0.000505733 8.71912e-05)
(-0.000903798 -0.000533557 0.000114194)
(-0.000992388 -0.000551035 0.000137327)
(-0.00107322 -0.000562667 0.000155745)
(-0.00114339 -0.000570183 0.000168806)
(-0.00120576 -0.000577281 0.000177294)
(-0.00125881 -0.000584263 0.000181674)
(-0.00130836 -0.000593795 0.000183514)
(-0.00135357 -0.000604668 0.000183207)
(-0.00139588 -0.000616744 0.000181329)
(-0.00143773 -0.000630361 0.000178442)
(-0.00147992 -0.000645258 0.000174736)
(-0.00152221 -0.000660961 0.000170183)
(-0.00156462 -0.000677246 0.000164724)
(-0.0016071 -0.000693951 0.000158226)
(-0.0016492 -0.00071078 0.000150426)
(-0.00169073 -0.000727563 0.000140986)
(-0.00173132 -0.00074404 0.000129402)
(-0.00177046 -0.000759883 0.000115067)
(-0.00180712 -0.000774577 9.71403e-05)
(-0.00183969 -0.000787431 7.48548e-05)
(-0.00186477 -0.000797648 4.70956e-05)
(-0.00187732 -0.000803455 1.57069e-05)
(-0.000449966 -0.000147353 -6.54096e-06)
(-0.000397123 -0.000156358 -5.38747e-05)
(-0.000335024 -0.000155725 -5.64457e-05)
(-0.000285727 -0.00015996 -5.08948e-05)
(-0.000295318 -0.000190037 -4.07715e-05)
(-0.000356559 -0.000244415 -2.87658e-05)
(-0.000441323 -0.00030548 -1.3104e-05)
(-0.000533025 -0.000360509 6.98989e-06)
(-0.000638078 -0.000412816 3.11805e-05)
(-0.000744807 -0.000455068 5.76842e-05)
(-0.000845832 -0.000484695 8.3912e-05)
(-0.000942767 -0.00050576 0.000108013)
(-0.00102911 -0.000518393 0.000127952)
(-0.00110692 -0.000527152 0.000143383)
(-0.00117335 -0.000533227 0.000154006)
(-0.00123389 -0.000540489 0.000161033)
(-0.00128555 -0.000547844 0.00016469)
(-0.00133331 -0.000556903 0.000166143)
(-0.0013795 -0.000567938 0.000166068)
(-0.00142385 -0.00058014 0.00016469)
(-0.00146683 -0.000593113 0.000162208)
(-0.00150951 -0.000606897 0.000158784)
(-0.00155205 -0.000621301 0.000154393)
(-0.00159425 -0.000636077 0.000148899)
(-0.00163623 -0.000651156 0.000142101)
(-0.00167747 -0.00066623 0.000133633)
(-0.00171756 -0.00068103 0.000122994)
(-0.00175599 -0.000695205 0.000109595)
(-0.00179202 -0.000708395 9.26607e-05)
(-0.00182405 -0.000719947 7.14772e-05)
(-0.00184864 -0.000729116 4.50069e-05)
(-0.00186062 -0.00073425 1.50159e-05)
(-0.000332383 -9.29059e-05 9.77699e-06)
(-0.000327521 -0.000111715 -4.95368e-05)
(-0.00028624 -0.000120317 -5.51451e-05)
(-0.000238693 -0.000123525 -5.15319e-05)
(-0.000224946 -0.000138027 -4.25707e-05)
(-0.00027099 -0.000180983 -3.65221e-05)
(-0.000348278 -0.000237179 -2.79733e-05)
(-0.000452901 -0.000301927 -1.49992e-05)
(-0.000557465 -0.000355357 4.01404e-06)
(-0.000665864 -0.000399778 2.73282e-05)
(-0.0007765 -0.00043525 5.25123e-05)
(-0.000877722 -0.000457975 7.66667e-05)
(-0.000972439 -0.000473272 9.82322e-05)
(-0.00105506 -0.000481983 0.000115653)
(-0.00112979 -0.000488918 0.000129066)
(-0.00119233 -0.00049393 0.000138213)
(-0.00125073 -0.000500948 0.000144503)
(-0.00130307 -0.000508857 0.00014817)
(-0.00135034 -0.00051755 0.000149737)
(-0.00139589 -0.000527699 0.000149888)
(-0.001441 -0.0005392 0.000148929)
(-0.00148527 -0.000551497 0.000146885)
(-0.00152875 -0.000564331 0.000143744)
(-0.00157167 -0.000577584 0.000139429)
(-0.00161336 -0.00059091 0.000133685)
(-0.00165393 -0.000604206 0.00012621)
(-0.00169314 -0.000617268 0.000116527)
(-0.00173076 -0.000629845 0.000104084)
(-0.00176589 -0.000641524 8.81474e-05)
(-0.00179709 -0.000651749 6.80702e-05)
(-0.00182096 -0.00065986 4.29034e-05)
(-0.00183233 -0.00066436 1.43237e-05)
(-0.000192035 -4.40192e-05 1.6531e-05)
(-0.000230782 -6.83292e-05 -4.08777e-05)
(-0.00021607 -8.27081e-05 -5.02647e-05)
(-0.000179997 -8.74813e-05 -4.79348e-05)
(-0.000159296 -9.44622e-05 -3.99827e-05)
(-0.000190458 -0.000125333 -3.88884e-05)
(-0.000267319 -0.000181088 -3.97662e-05)
(-0.000347789 -0.000232103 -3.28614e-05)
(-0.0004592 -0.000292152 -2.05367e-05)
(-0.000576301 -0.000343523 -2.0898e-06)
(-0.000687923 -0.000380682 2.04621e-05)
(-0.000799691 -0.000409104 4.43588e-05)
(-0.000899804 -0.000426083 6.68165e-05)
(-0.000992029 -0.00043728 8.6528e-05)
(-0.00107025 -0.00044314 0.0001022)
(-0.00114265 -0.000449192 0.000114472)
(-0.00120291 -0.000453834 0.000122994)
(-0.00125752 -0.000459609 0.000128798)
(-0.0013097 -0.000467332 0.000132608)
(-0.00135847 -0.000476083 0.000134651)
(-0.00140414 -0.000485467 0.000135178)
(-0.00144837 -0.000495643 0.000134465)
(-0.00149157 -0.000506466 0.000132561)
(-0.00153348 -0.000517632 0.00012937)
(-0.00157461 -0.000529174 0.00012475)
(-0.00161442 -0.000540771 0.000118346)
(-0.00165262 -0.000552179 0.000109682)
(-0.0016889 -0.000563114 9.82318e-05)
(-0.00172287 -0.000573314 8.33478e-05)
(-0.00175307 -0.000582268 6.44468e-05)
(-0.00177608 -0.000589352 4.06708e-05)
(-0.00178664 -0.00059321 1.35911e-05)
(-7.1188e-05 -1.20663e-05 1.28971e-05)
(-0.000129512 -3.46265e-05 -2.72147e-05)
(-0.000137239 -4.76839e-05 -4.06937e-05)
(-0.000122782 -5.62045e-05 -4.29637e-05)
(-6.85878e-05 -4.04098e-05 -2.4013e-05)
(-7.01715e-05 -4.68304e-05 -2.12831e-05)
(-0.000130738 -9.04446e-05 -3.13776e-05)
(-0.000251443 -0.000169332 -4.38392e-05)
(-0.000351705 -0.000225807 -4.09234e-05)
(-0.000466215 -0.000279391 -2.84285e-05)
(-0.000591318 -0.000326304 -9.99567e-06)
(-0.000705249 -0.000356964 1.21387e-05)
(-0.000815532 -0.000378821 3.50272e-05)
(-0.000911482 -0.00039056 5.61126e-05)
(-0.00100026 -0.000398787 7.44597e-05)
(-0.00107292 -0.000402385 8.88908e-05)
(-0.00114138 -0.000407239 0.000100342)
(-0.00120195 -0.00041226 0.000108763)
(-0.00125465 -0.000417427 0.000114505)
(-0.00130413 -0.000423907 0.000118331)
(-0.00135232 -0.000431839 0.000120665)
(-0.0013985 -0.000440585 0.000121583)
(-0.0014427 -0.000449866 0.000121128)
(-0.00148551 -0.000459639 0.000119299)
(-0.00152597 -0.000469466 0.000115848)
(-0.00156454 -0.000479339 0.000110521)
(-0.00160124 -0.000489087 0.000102872)
(-0.00163621 -0.000498538 9.2425e-05)
(-0.00166874 -0.000507318 7.85818e-05)
(-0.00169762 -0.000515016 6.08427e-05)
(-0.00171955 -0.000521108 3.84531e-05)
(-0.00172931 -0.000524404 1.28679e-05)
(-1.89531e-05 -9.10547e-07 1.34348e-05)
(-4.09424e-05 -9.42736e-06 -9.29053e-06)
(-5.11716e-05 -1.47993e-05 -2.27146e-05)
(-3.90233e-05 -1.71042e-05 -2.16977e-05)
(-3.96409e-05 -2.52928e-05 -2.28235e-05)
(-5.84011e-05 -4.46723e-05 -2.85131e-05)
(-5.78201e-05 -4.44029e-05 -2.15188e-05)
(-9.24617e-05 -6.52707e-05 -2.62117e-05)
(-0.000230045 -0.000150247 -4.85166e-05)
(-0.000352316 -0.000213861 -4.89077e-05)
(-0.000472129 -0.00026251 -3.62185e-05)
(-0.000600603 -0.0003036 -1.77237e-05)
(-0.000714204 -0.000328377 4.07571e-06)
(-0.000822021 -0.000345321 2.60736e-05)
(-0.000911926 -0.000352938 4.59559e-05)
(-0.000997463 -0.000359431 6.32483e-05)
(-0.00106669 -0.000362145 7.6917e-05)
(-0.00112843 -0.000365022 8.75537e-05)
(-0.00118725 -0.000369634 9.57967e-05)
(-0.00124088 -0.000375001 0.000101804)
(-0.00128921 -0.000380766 0.000105825)
(-0.00133466 -0.000387306 0.000108232)
(-0.00137799 -0.000394561 0.000109157)
(-0.00141879 -0.00040218 0.000108543)
(-0.00145819 -0.000410329 0.000106325)
(-0.0014955 -0.000418636 0.000102155)
(-0.00153063 -0.0004269 9.55891e-05)
(-0.00156356 -0.000434835 8.61762e-05)
(-0.00159435 -0.00044228 7.3438e-05)
(-0.00162178 -0.000448834 5.69499e-05)
(-0.00164248 -0.00045401 3.60604e-05)
(-0.00165115 -0.000456743 1.20884e-05)
(2.50705e-06 3.51047e-06 1.85336e-05)
(-2.27816e-06 1.07891e-06 -1.03488e-06)
(-7.40741e-06 -1.59066e-06 -1.26087e-05)
(-1.46511e-05 -1.05694e-05 -2.17963e-05)
(-1.70491e-05 -1.66225e-05 -2.10638e-05)
(-2.86138e-05 -3.12222e-05 -2.70777e-05)
(-4.29156e-05 -4.16618e-05 -2.83957e-05)
(-4.8438e-05 -3.95606e-05 -2.30927e-05)
(-7.22464e-05 -5.01153e-05 -2.44465e-05)
(-0.000218662 -0.000133744 -5.19785e-05)
(-0.000357065 -0.000200001 -5.5959e-05)
(-0.00047849 -0.000243447 -4.22934e-05)
(-0.000605289 -0.000277874 -2.36999e-05)
(-0.000713132 -0.000296527 -2.45114e-06)
(-0.000816608 -0.000309719 1.84274e-05)
(-0.000898243 -0.000313991 3.70173e-05)
(-0.000977181 -0.000318422 5.31158e-05)
(-0.00104645 -0.000321661 6.6263e-05)
(-0.00110446 -0.000323856 7.64309e-05)
(-0.00115768 -0.000326984 8.4279e-05)
(-0.00120893 -0.000331585 9.02731e-05)
(-0.00125687 -0.000336991 9.45027e-05)
(-0.0013014 -0.000342939 9.70391e-05)
(-0.00134349 -0.00034947 9.79513e-05)
(-0.00138178 -0.000356096 9.70018e-05)
(-0.00141724 -0.000362878 9.39733e-05)
(-0.0014502 -0.000369692 8.84584e-05)
(-0.00148134 -0.00037639 8.00828e-05)
(-0.00151016 -0.000382627 6.84159e-05)
(-0.00153578 -0.000388099 5.31398e-05)
(-0.00155503 -0.00039242 3.37208e-05)
(-0.00156275 -0.00039472 1.13312e-05)
(7.09254e-06 8.3598e-06 2.56446e-05)
(1.57846e-05 7.24659e-06 -1.37363e-06)
(1.77679e-05 4.54113e-06 -1.15342e-05)
(1.83302e-05 -2.95824e-06 -1.94473e-05)
(1.18813e-05 -1.17861e-05 -2.23371e-05)
(1.8481e-06 -2.02113e-05 -2.37889e-05)
(-1.19926e-05 -2.77067e-05 -2.53198e-05)
(-3.18825e-05 -3.60889e-05 -2.93601e-05)
(-6.13875e-05 -4.84592e-05 -3.4442e-05)
(-0.000117595 -7.46373e-05 -4.47118e-05)
(-0.000202762 -0.000115041 -5.21856e-05)
(-0.000356402 -0.000182388 -5.75892e-05)
(-0.00047823 -0.000220751 -4.51526e-05)
(-0.000601796 -0.000249959 -2.72457e-05)
(-0.000700434 -0.000263231 -7.08123e-06)
(-0.000799434 -0.00027408 1.23782e-05)
(-0.000876244 -0.000277193 2.97457e-05)
(-0.00094413 -0.00027881 4.4533e-05)
(-0.0010096 -0.000281569 5.69608e-05)
(-0.00106813 -0.000284406 6.69817e-05)
(-0.00111864 -0.000287102 7.46831e-05)
(-0.0011646 -0.000290423 8.04325e-05)
(-0.00120714 -0.000294482 8.43884e-05)
(-0.00124593 -0.000298986 8.65441e-05)
(-0.00128249 -0.000304179 8.6886e-05)
(-0.00131614 -0.000309698 8.50724e-05)
(-0.00134695 -0.000315326 8.06809e-05)
(-0.00137525 -0.000320766 7.33597e-05)
(-0.00140173 -0.000325923 6.28481e-05)
(-0.00142543 -0.000330476 4.89087e-05)
(-0.0014431 -0.000334054 3.11196e-05)
(-0.00144944 -0.0003359 1.04867e-05)
(1.64446e-05 1.21648e-05 3.16416e-05)
(2.83471e-05 1.12962e-05 -3.78149e-06)
(3.34218e-05 8.28461e-06 -1.31141e-05)
(3.51751e-05 1.04467e-06 -1.75643e-05)
(3.04919e-05 -6.46418e-06 -1.6611e-05)
(2.18951e-05 -1.19876e-05 -1.47191e-05)
(1.0883e-05 -1.49064e-05 -1.20745e-05)
(-1.44321e-06 -1.62583e-05 -1.17058e-05)
(-1.76383e-05 -1.90942e-05 -1.65431e-05)
(-4.07562e-05 -2.8264e-05 -2.34439e-05)
(-9.83758e-05 -5.60255e-05 -3.72531e-05)
(-0.00020513 -0.000104442 -5.22196e-05)
(-0.000353897 -0.000164035 -5.75721e-05)
(-0.000467484 -0.00019564 -4.4971e-05)
(-0.000585734 -0.000220509 -2.86903e-05)
(-0.000671931 -0.000229094 -1.00615e-05)
(-0.000760707 -0.000236914 7.69823e-06)
(-0.00083807 -0.000241106 2.38212e-05)
(-0.000899912 -0.000242064 3.75794e-05)
(-0.000955638 -0.000243104 4.90778e-05)
(-0.00100938 -0.000245421 5.86166e-05)
(-0.00105861 -0.000248329 6.61915e-05)
(-0.00110303 -0.000251715 7.18277e-05)
(-0.00114342 -0.000255613 7.55779e-05)
(-0.00117854 -0.00025969 7.72383e-05)
(-0.00120962 -0.000264029 7.65829e-05)
(-0.00123752 -0.000268555 7.32426e-05)
(-0.00126365 -0.000273132 6.69704e-05)
(-0.00128767 -0.000277394 5.75472e-05)
(-0.00130908 -0.000281127 4.48665e-05)
(-0.00132497 -0.000284058 2.86357e-05)
(-0.00133031 -0.000285614 9.68665e-06)
(2.60497e-05 1.33982e-05 3.34086e-05)
(5.26333e-05 1.5366e-05 -6.45548e-06)
(6.91767e-05 1.26093e-05 -1.90071e-05)
(7.0369e-05 3.79676e-06 -2.30079e-05)
(5.52329e-05 -5.58259e-06 -2.00274e-05)
(4.24558e-05 -1.27129e-05 -1.58989e-05)
(3.72977e-05 -2.1017e-05 -1.32824e-05)
(2.70849e-05 -2.73637e-05 -9.7923e-06)
(3.95417e-06 -2.34717e-05 -9.62583e-06)
(-2.54348e-05 -2.44092e-05 -2.03006e-05)
(-6.55568e-05 -3.69456e-05 -3.48225e-05)
(-6.96195e-05 -3.55333e-05 -2.57947e-05)
(-0.000203118 -9.33837e-05 -4.95145e-05)
(-0.000346258 -0.000145982 -5.53399e-05)
(-0.000445 -0.000169906 -4.30461e-05)
(-0.000558554 -0.000191842 -2.88228e-05)
(-0.000638566 -0.000198998 -1.19275e-05)
(-0.000709448 -0.000202424 4.31796e-06)
(-0.000780668 -0.00020615 1.91405e-05)
(-0.000843257 -0.000208543 3.2182e-05)
(-0.000894453 -0.000209627 4.30721e-05)
(-0.000939413 -0.000210874 5.19188e-05)
(-0.000979321 -0.000212636 5.87615e-05)
(-0.00101508 -0.000214956 6.36584e-05)
(-0.00104744 -0.000218006 6.65465e-05)
(-0.00107613 -0.000221535 6.70869e-05)
(-0.00110131 -0.000225305 6.48606e-05)
(-0.00112366 -0.000228952 5.96301e-05)
(-0.00114473 -0.00023246 5.14107e-05)
(-0.0011638 -0.000235564 4.01743e-05)
(-0.00117778 -0.000237973 2.57379e-05)
(-0.00118145 -0.000239174 8.74256e-06)
(3.33314e-05 1.35479e-05 3.48209e-05)
(7.15768e-05 1.8109e-05 -4.99792e-06)
(9.42886e-05 1.60871e-05 -2.00933e-05)
(0.000106055 7.36064e-06 -2.89722e-05)
(0.000106402 -5.38548e-06 -3.21839e-05)
(9.13931e-05 -1.75103e-05 -2.85175e-05)
(5.3174e-05 -1.94562e-05 -1.64672e-05)
(5.49006e-05 -3.44498e-05 -1.47412e-05)
(1.68146e-05 -1.89605e-05 -2.52777e-06)
(3.80753e-06 -2.08308e-05 -1.72154e-06)
(-1.87708e-05 -1.6075e-05 -1.08977e-05)
(-4.15471e-05 -2.16299e-05 -2.01186e-05)
(-6.8337e-05 -3.14083e-05 -2.3793e-05)
(-0.000185033 -7.92206e-05 -4.41846e-05)
(-0.000325866 -0.000126478 -5.09761e-05)
(-0.000405073 -0.000142745 -3.98403e-05)
(-0.000503867 -0.00016002 -2.71676e-05)
(-0.00058781 -0.000169518 -1.25545e-05)
(-0.000649445 -0.000172059 2.20711e-06)
(-0.000704757 -0.000173424 1.56996e-05)
(-0.000759534 -0.000175637 2.76899e-05)
(-0.000808934 -0.000177815 3.7947e-05)
(-0.000852822 -0.000180215 4.63198e-05)
(-0.00088987 -0.000182589 5.26487e-05)
(-0.000920669 -0.000185174 5.67936e-05)
(-0.00094601 -0.000187992 5.84125e-05)
(-0.000967504 -0.000191078 5.71658e-05)
(-0.00098759 -0.000194317 5.29624e-05)
(-0.00100586 -0.000197298 4.58297e-05)
(-0.00102227 -0.000199881 3.5887e-05)
(-0.00103422 -0.000201866 2.30886e-05)
(-0.00103705 -0.000202922 7.88765e-06)
(3.93625e-05 1.36958e-05 3.74956e-05)
(8.05889e-05 1.91943e-05 -2.68153e-06)
(0.000108722 1.93501e-05 -1.91933e-05)
(0.00012543 1.24861e-05 -3.00379e-05)
(0.000129782 2.05461e-07 -3.61659e-05)
(0.000123516 -1.41558e-05 -3.73181e-05)
(0.000109033 -2.78757e-05 -3.36036e-05)
(7.63898e-05 -3.33366e-05 -2.17667e-05)
(6.18611e-05 -4.32085e-05 -1.23818e-05)
(3.41825e-05 -3.93218e-05 -5.47374e-07)
(3.02398e-06 -1.54363e-05 1.0237e-06)
(-2.19868e-05 -1.72005e-05 -9.93691e-06)
(-6.65116e-05 -3.29633e-05 -3.12514e-05)
(-8.8612e-05 -3.93668e-05 -2.97072e-05)
(-0.000155935 -6.18923e-05 -3.61083e-05)
(-0.000298622 -0.000107519 -4.72088e-05)
(-0.000371117 -0.000121958 -3.74654e-05)
(-0.000439287 -0.000131117 -2.48745e-05)
(-0.000515604 -0.000140194 -1.19215e-05)
(-0.000580057 -0.000145507 1.3601e-06)
(-0.00062866 -0.000147336 1.37647e-05)
(-0.000669802 -0.000148432 2.45799e-05)
(-0.000703469 -0.00014929 3.34706e-05)
(-0.000734884 -0.000150857 4.05721e-05)
(-0.000761262 -0.000152901 4.56147e-05)
(-0.00078366 -0.000155461 4.82416e-05)
(-0.000801994 -0.000158249 4.79961e-05)
(-0.000817186 -0.000160827 4.47621e-05)
(-0.000831895 -0.000163339 3.8885e-05)
(-0.000845636 -0.000165571 3.05331e-05)
(-0.000855448 -0.000167229 1.97446e-05)
(-0.000856278 -0.000167959 6.78163e-06)
(4.33173e-05 1.35892e-05 4.09796e-05)
(8.2319e-05 1.93469e-05 2.2264e-07)
(0.000111994 2.14902e-05 -1.68891e-05)