/*--------------------------------*- C++ -*----------------------------------*\
  =========                 |
  \\      /  F ield         | OpenFOAM: The Open Source CFD Toolbox
   \\    /   O peration     | Website:  https://openfoam.org
    \\  /    A nd           | Version:  6
     \\/     M anipulation  |
\*---------------------------------------------------------------------------*/
FoamFile
{
    version     2.0;
    format      ascii;
    class       volScalarField;
    location    "20";
    object      omega;
}
// * * * * * * * * * * * * * * * * * * * * * * * * * * * * * * * * * * * * * //

dimensions      [0 0 -1 0 0 0 0];

internalField   nonuniform List<scalar> 
720
(
843.917
843.917
843.917
843.917
843.917
843.917
843.917
843.917
843.917
843.917
843.917
843.917
843.917
843.917
843.917
843.917
843.917
843.917
843.917
843.917
843.917
843.917
843.917
843.917
843.917
843.917
843.917
424.205
424.205
424.205
263.66
263.661
263.66
262.216
262.216
262.216
260.283
260.283
260.283
257.823
257.823
257.823
254.748
254.749
254.749
250.892
250.892
250.892
245.918
245.919
245.919
239.036
239.036
239.036
226.82
226.82
226.82
7.84463
7.84463
7.8447
127.052
127.052
127.051
125.776
125.776
125.776
124.234
124.234
124.234
122.391
122.391
122.391
120.179
120.178
120.178
117.478
117.478
117.478
114.061
114.061
114.061
109.34
109.341
109.341
100.751
100.752
100.752
9.2093
9.2093
9.20937
76.0067
76.0064
76.0063
75.0558
75.0553
75.0552
73.9251
73.9246
73.9246
72.5857
72.5852
72.5851
70.9788
70.9784
70.9784
69.0073
69.0072
69.0072
66.4857
66.4857
66.4858
62.9368
62.9371
62.9372
57.0074
57.0079
57.008
10.3893
10.3893
10.3894
50.975
50.9746
50.9745
50.2585
50.2579
50.2579
49.4097
49.4091
49.4091
48.4052
48.4046
48.4046
47.1918
47.1913
47.1913
45.6862
45.686
45.686
43.7393
43.7394
43.7394
41.0114
41.0118
41.0118
37.3338
37.3342
37.3343
11.4737
11.4737
11.4738
36.5821
36.5816
36.5815
36.0271
36.0265
36.0265
35.3692
35.3686
35.3686
34.5893
34.5887
34.5887
33.638
33.6375
33.6375
32.4448
32.4445
32.4445
30.9011
30.9012
30.9011
28.8389
28.8392
28.8392
26.9809
26.9812
26.9813
12.5074
12.5074
12.5075
27.4231
27.4226
27.4226
26.9817
26.9812
26.9811
26.4572
26.4567
26.4567
25.8337
25.8332
25.8332
25.0661
25.0655
25.0655
24.0988
24.0985
24.0985
22.8725
22.8726
22.8725
21.4037
21.4039
21.4039
20.93
20.9303
20.9303
13.5132
13.5133
13.5133
21.179
21.1785
21.1785
20.8197
20.8192
20.8192
20.3918
20.3913
20.3913
19.8819
19.8813
19.8813
19.2506
19.2501
19.2501
18.4619
18.4616
18.4616
17.5127
17.5127
17.5126
16.586
16.5861
16.5861
17.1082
17.1084
17.1084
14.499
14.499
14.4991
16.707
16.7065
16.7065
16.4086
16.4082
16.4082
16.0532
16.0528
16.0528
15.6294
15.629
15.629
15.1065
15.106
15.106
14.4722
14.4719
14.4718
13.781
13.7809
13.7808
13.3392
13.3392
13.3392
14.5456
14.5458
14.5458
15.4601
15.4601
15.4602
13.3841
13.3837
13.3837
13.1323
13.132
13.132
12.8333
12.833
12.833
12.4784
12.478
12.478
12.0482
12.0477
12.0477
11.5575
11.5571
11.5571
11.1117
11.1115
11.1115
11.0854
11.0854
11.0854
12.7472
12.7473
12.7473
16.3833
16.3834
16.3835
10.8439
10.8436
10.8436
10.6287
10.6285
10.6285
10.3758
10.3755
10.3755
10.0792
10.0789
10.0789
9.73443
9.73408
9.73407
9.38333
9.38303
9.38301
9.16784
9.1676
9.16756
9.48033
9.48014
9.48013
11.4428
11.4429
11.4428
17.2516
17.2517
17.2518
8.85757
8.85742
8.85742
8.67222
8.67211
8.67212
8.45878
8.45864
8.45864
8.2153
8.21507
8.21506
7.954
7.9537
7.9537
7.74009
7.73978
7.73976
7.73317
7.73282
7.7328
8.30815
8.30785
8.30785
10.4762
10.4761
10.4761
18.0494
18.0495
18.0496
7.2752
7.27519
7.2752
7.1154
7.1154
7.11543
6.93789
6.93784
6.93785
6.74589
6.74576
6.74576
6.56885
6.56863
6.56863
6.48756
6.48723
6.48722
6.66081
6.66036
6.66036
7.42965
7.42924
7.42924
9.75185
9.75173
9.75173
18.7677
18.7678
18.7679
5.99491
5.99502
5.99507
5.8583
5.85843
5.85848
5.7155
5.71553
5.71557
5.57594
5.5759
5.57592
5.48419
5.48405
5.48405
5.52651
5.52617
5.52616
5.84735
5.84683
5.84682
6.75354
6.75306
6.75305
9.20895
9.20876
9.20877
19.4065
19.4066
19.4068
4.94538
4.94565
4.94572
4.8313
4.83157
4.83164
4.72372
4.72385
4.7239
4.63877
4.63882
4.63886
4.63142
4.63135
4.63136
4.78345
4.78311
4.7831
5.21866
5.21807
5.21807
6.22008
6.21953
6.21952
8.80749
8.80725
8.80725
19.9746
19.9747
19.9748
4.0758
4.07624
4.07633
3.98498
3.98539
3.98546
3.91418
3.91442
3.91449
3.8857
3.88585
3.88591
3.95843
3.95841
3.95844
4.20242
4.20208
4.20208
4.72166
4.72104
4.72103
5.7911
5.79048
5.79047
8.52154
8.52126
8.52125
20.4858
20.4859
20.486
3.34978
3.35038
3.35047
3.28393
3.28448
3.28455
3.25165
3.25201
3.25208
3.27959
3.27985
3.27992
3.42406
3.42408
3.42415
3.74052
3.74019
3.74019
4.31918
4.31853
4.31852
5.44367
5.44299
5.44299
8.33472
8.33439
8.33438
20.9546
20.9547
20.9548
2.74149
2.74224
2.74233
2.70274
2.70341
2.70348
2.70975
2.71022
2.71029
2.79093
2.79129
2.79137
2.99532
2.99539
2.99548
3.36545
3.36516
3.36515
3.98653
3.98585
3.98585
5.16558
5.16485
5.16485
8.23579
8.23542
8.23542
21.3918
21.3919
21.3921
2.23323
2.23408
2.23416
2.22323
2.22396
2.22402
2.26812
2.26869
2.26875
2.39569
2.39614
2.39622
2.64615
2.64628
2.64638
3.05412
3.05385
3.05385
3.70897
3.70827
3.70828
4.95143
4.95066
4.95066
8.21411
8.21371
8.2137
21.8023
21.8024
21.8025
1.81353
1.8144
1.81447
1.83232
1.83307
1.83312
1.91073
1.91135
1.9114
2.0746
2.07512
2.0752
2.35719
2.35736
2.35747
2.79167
2.79143
2.79143
3.47951
3.47882
3.47881
4.79891
4.79808
4.79808
8.25578
8.25536
8.25534
22.1845
22.1846
22.1847
1.47547
1.47626
1.47631
1.52062
1.52131
1.52135
1.62518
1.62581
1.62586
1.81353
1.81407
1.81415
2.11596
2.11616
2.11626
2.57081
2.57058
2.57058
3.29666
3.29593
3.29592
4.70505
4.70416
4.70416
8.3419
8.34147
8.34143
22.5315
22.5316
22.5317
1.21534
1.21598
1.21602
1.28173
1.2823
1.28234
1.40329
1.40387
1.40391
1.60454
1.60507
1.60514
1.9176
1.9178
1.9179
2.39105
2.39079
2.39079
3.16163
3.16082
3.16082
4.66262
4.66165
4.66165
8.44878
8.44835
8.44829
22.8312
22.8313
22.8314
1.03245
1.03287
1.03292
1.11311
1.11354
1.11357
1.24286
1.24337
1.2434
1.44806
1.44854
1.4486
1.76605
1.7662
1.76631
2.25786
2.25753
2.25754
3.07486
3.07394
3.07395
4.65708
4.65604
4.65602
8.54954
8.54913
8.54905
23.0652
23.0652
23.0654
0.931592
0.931852
0.931914
1.0193
1.01962
1.01965
1.15133
1.15177
1.1518
1.35607
1.35649
1.35655
1.67601
1.6761
1.67621
2.18184
2.18145
2.18145
3.03271
3.03171
3.03171
4.66598
4.66486
4.66485
8.61552
8.61512
8.61503
23.2054
23.2054
23.2056
)
;

boundaryField
{
    freeSurface
    {
        type            slip;
    }
    inlet
    {
        type            cyclic;
    }
    outlet
    {
        type            cyclic;
    }
    sidewalls
    {
        Cmu             0.09;
        kappa           0.41;
        E               9.8;
        beta1           0.075;
        blended         false;
        type            omegaWallFunction;
        value           nonuniform List<scalar> 
72
(
424.205
7.84463
9.2093
10.3893
11.4737
12.5074
13.5132
14.499
15.4601
16.3833
17.2516
18.0494
18.7677
19.4065
19.9746
20.4858
20.9546
21.3918
21.8023
22.1845
22.5315
22.8312
23.0652
23.2054
424.205
7.84463
9.2093
10.3893
11.4737
12.5074
13.5133
14.499
15.4601
16.3834
17.2517
18.0495
18.7678
19.4066
19.9747
20.4859
20.9547
21.3919
21.8024
22.1846
22.5316
22.8313
23.0652
23.2054
424.205
7.8447
9.20937
10.3894
11.4738
12.5075
13.5133
14.4991
15.4602
16.3835
17.2518
18.0496
18.7679
19.4068
19.9748
20.486
20.9548
21.3921
21.8025
22.1847
22.5317
22.8314
23.0654
23.2056
)
;
    }
    noSlipWalls
    {
        Cmu             0.09;
        kappa           0.41;
        E               9.8;
        beta1           0.075;
        blended         false;
        type            omegaWallFunction;
        value           nonuniform List<scalar> 
30
(
843.917
843.917
843.917
843.917
843.917
843.917
843.917
843.917
843.917
424.205
843.917
843.917
843.917
843.917
843.917
843.917
843.917
843.917
843.917
424.205
843.917
843.917
843.917
843.917
843.917
843.917
843.917
843.917
843.917
424.205
)
;
    }
    procBoundary2to1
    {
        type            processor;
        value           nonuniform List<scalar> 
72
(
843.917
843.917
843.917
264.648
264.648
264.648
128.096
128.096
128.095
76.8068
76.8066
76.8065
51.5824
51.5821
51.5821
37.0522
37.0518
37.0518
27.7952
27.7948
27.7948
21.4797
21.4793
21.4793
16.9547
16.9543
16.9543
13.592
13.5917
13.5917
11.0215
11.0212
11.0212
9.01175
9.0116
9.01159
7.41097
7.41092
7.41093
6.1156
6.11566
6.11569
5.05286
5.05306
5.05312
4.17053
4.17088
4.17096
3.43079
3.4313
3.4314
2.80659
2.80725
2.80736
2.27936
2.28015
2.28026
1.83759
1.83844
1.83853
1.47551
1.47632
1.47639
1.19187
1.19253
1.19259
0.989323
0.98976
0.989826
0.87646
0.876704
0.876782
)
;
    }
}


// ************************************************************************* //
