/*--------------------------------*- C++ -*----------------------------------*\
  =========                 |
  \\      /  F ield         | OpenFOAM: The Open Source CFD Toolbox
   \\    /   O peration     | Website:  https://openfoam.org
    \\  /    A nd           | Version:  6
     \\/     M anipulation  |
\*---------------------------------------------------------------------------*/
FoamFile
{
    version     2.0;
    format      ascii;
    class       volScalarField;
    location    "20";
    object      p;
}
// * * * * * * * * * * * * * * * * * * * * * * * * * * * * * * * * * * * * * //

dimensions      [0 2 -2 0 0 0 0];

internalField   nonuniform List<scalar> 
720
(
-2.25406e-11
7.58352e-08
2.70917e-08
-4.09025e-10
7.64813e-08
2.6831e-08
-6.74409e-10
7.66341e-08
2.69436e-08
-9.06872e-10
7.66345e-08
2.71763e-08
-8.95668e-10
7.60235e-08
2.77766e-08
-7.26461e-10
7.50128e-08
2.86187e-08
-3.82403e-10
7.41506e-08
2.91376e-08
-1.58382e-10
7.36209e-08
2.94432e-08
-5.55871e-11
7.34129e-08
2.95482e-08
-1.3466e-10
7.35115e-08
2.95273e-08
-2.31692e-11
7.58341e-08
2.70934e-08
-4.09671e-10
7.64789e-08
2.68341e-08
-6.7428e-10
7.66306e-08
2.6947e-08
-9.05175e-10
7.66282e-08
2.71808e-08
-8.93076e-10
7.6016e-08
2.77814e-08
-7.24402e-10
7.5008e-08
2.86215e-08
-3.82085e-10
7.41511e-08
2.91367e-08
-1.59987e-10
7.36251e-08
2.94406e-08
-5.72654e-11
7.34165e-08
2.95462e-08
-1.34562e-10
7.35144e-08
2.95243e-08
-2.67937e-11
7.58321e-08
2.70991e-08
-4.12221e-10
7.64747e-08
2.68409e-08
-6.74502e-10
7.66242e-08
2.69536e-08
-9.01973e-10
7.66168e-08
2.71891e-08
-8.87926e-10
7.60022e-08
2.77901e-08
-7.20467e-10
7.49988e-08
2.86267e-08
-3.81383e-10
7.41522e-08
2.91349e-08
-1.63326e-10
7.36333e-08
2.94356e-08
-6.11559e-11
7.34243e-08
2.95423e-08
-1.36318e-10
7.35197e-08
2.95208e-08
-3.17513e-11
7.58306e-08
2.71055e-08
-4.15173e-10
7.64704e-08
2.68481e-08
-6.74422e-10
7.66174e-08
2.69604e-08
-8.97272e-10
7.66032e-08
2.7198e-08
-8.80493e-10
7.59852e-08
2.77996e-08
-7.14939e-10
7.49868e-08
2.86332e-08
-3.8024e-10
7.41533e-08
2.91325e-08
-1.68107e-10
7.36445e-08
2.94291e-08
-6.72603e-11
7.34356e-08
2.95371e-08
-1.38618e-10
7.35241e-08
2.95187e-08
-3.67379e-11
7.58314e-08
2.71097e-08
-4.17426e-10
7.64677e-08
2.68531e-08
-6.73634e-10
7.6612e-08
2.6965e-08
-8.91175e-10
7.65902e-08
2.72049e-08
-8.71295e-10
7.59684e-08
2.78073e-08
-7.08033e-10
7.4974e-08
2.8639e-08
-3.7903e-10
7.41544e-08
2.91301e-08
-1.74302e-10
7.36571e-08
2.94226e-08
-7.54643e-11
7.34492e-08
2.95316e-08
-1.40759e-10
7.35279e-08
2.9517e-08
-4.10679e-11
7.58359e-08
2.71096e-08
-4.18656e-10
7.64682e-08
2.68539e-08
-6.71323e-10
7.66094e-08
2.69654e-08
-8.83801e-10
7.65801e-08
2.72077e-08
-8.60775e-10
7.59545e-08
2.78106e-08
-7.00086e-10
7.49619e-08
2.86431e-08
-3.78253e-10
7.41553e-08
2.91284e-08
-1.81952e-10
7.36704e-08
2.94168e-08
-8.53214e-11
7.34637e-08
2.95267e-08
-1.43013e-10
7.35318e-08
2.95154e-08
-4.47892e-11
7.5846e-08
2.71033e-08
-4.18976e-10
7.64737e-08
2.68488e-08
-6.66615e-10
7.66106e-08
2.69595e-08
-8.75045e-10
7.65748e-08
2.72042e-08
-8.49385e-10
7.59469e-08
2.78068e-08
-6.91341e-10
7.49522e-08
2.8644e-08
-3.78415e-10
7.41558e-08
2.91279e-08
-1.9089e-10
7.36838e-08
2.94122e-08
-9.58369e-11
7.34775e-08
2.95234e-08
-1.45726e-10
7.3536e-08
2.95139e-08
-4.79457e-11
7.58637e-08
2.70888e-08
-4.18462e-10
7.64862e-08
2.68359e-08
-6.59628e-10
7.66171e-08
2.69461e-08
-8.63056e-10
7.65755e-08
2.71916e-08
-8.37777e-10
7.59491e-08
2.77931e-08
-6.82195e-10
7.4949e-08
2.8638e-08
-3.80051e-10
7.41564e-08
2.91289e-08
-2.00775e-10
7.36968e-08
2.9409e-08
-1.05771e-10
7.34885e-08
2.95221e-08
-1.49117e-10
7.35405e-08
2.95128e-08
-5.0422e-11
7.58903e-08
2.70646e-08
-4.17224e-10
7.6507e-08
2.6814e-08
-6.51142e-10
7.66308e-08
2.6924e-08
-8.45494e-10
7.65826e-08
2.71669e-08
-8.25748e-10
7.59633e-08
2.77668e-08
-6.7339e-10
7.49568e-08
2.86214e-08
-3.83791e-10
7.41597e-08
2.91292e-08
-2.11104e-10
7.3709e-08
2.94069e-08
-1.14139e-10
7.34956e-08
2.95233e-08
-1.53319e-10
7.35452e-08
2.95122e-08
-5.10574e-11
7.59247e-08
2.70309e-08
-4.15123e-10
7.65349e-08
2.67841e-08
-6.4277e-10
7.66535e-08
2.6893e-08
-8.22419e-10
7.6598e-08
2.71285e-08
-8.09331e-10
7.59898e-08
2.77239e-08
-6.66072e-10
7.49781e-08
2.85926e-08
-3.9007e-10
7.41694e-08
2.91257e-08
-2.20932e-10
7.37209e-08
2.94047e-08
-1.20594e-10
7.34988e-08
2.95265e-08
-1.5838e-10
7.355e-08
2.95125e-08
-4.96307e-11
7.59636e-08
2.69907e-08
-4.11327e-10
7.65656e-08
2.67497e-08
-6.35188e-10
7.66836e-08
2.68553e-08
-7.96437e-10
7.66258e-08
2.70748e-08
-7.82439e-10
7.6026e-08
2.76608e-08
-6.61216e-10
7.50177e-08
2.85481e-08
-3.98976e-10
7.41912e-08
2.91126e-08
-2.28789e-10
7.37337e-08
2.93996e-08
-1.25305e-10
7.34993e-08
2.95307e-08
-1.64205e-10
7.35544e-08
2.95138e-08
-4.57023e-11
7.60006e-08
2.69498e-08
-4.05147e-10
7.65938e-08
2.67155e-08
-6.28063e-10
7.67169e-08
2.6815e-08
-7.76687e-10
7.6672e-08
2.70089e-08
-7.46856e-10
7.60746e-08
2.75766e-08
-6.58184e-10
7.5081e-08
2.84817e-08
-4.10436e-10
7.42334e-08
2.90817e-08
-2.33278e-10
7.37501e-08
2.93876e-08
-1.28243e-10
7.34996e-08
2.95334e-08
-1.7042e-10
7.3558e-08
2.95163e-08
-3.56462e-11
7.60241e-08
2.69163e-08
-3.92434e-10
7.66095e-08
2.66871e-08
-6.19432e-10
7.6747e-08
2.67763e-08
-7.67166e-10
7.67338e-08
2.69376e-08
-7.1853e-10
7.6149e-08
2.7474e-08
-6.54325e-10
7.51751e-08
2.83838e-08
-4.2437e-10
7.43057e-08
2.90233e-08
-2.34099e-10
7.37738e-08
2.93647e-08
-1.29508e-10
7.35024e-08
2.95319e-08
-1.7621e-10
7.35603e-08
2.95197e-08
-9.99997e-12
7.60149e-08
2.68999e-08
-3.64929e-10
7.65959e-08
2.66732e-08
-6.03284e-10
7.6764e-08
2.67432e-08
-7.5829e-10
7.67964e-08
2.68661e-08
-7.05225e-10
7.62496e-08
2.736e-08
-6.3995e-10
7.53035e-08
2.8241e-08
-4.38868e-10
7.44152e-08
2.89282e-08
-2.32347e-10
7.38089e-08
2.93279e-08
-1.29397e-10
7.351e-08
2.95242e-08
-1.80352e-10
7.35609e-08
2.95232e-08
4.57792e-11
7.59411e-08
2.69179e-08
-3.1134e-10
7.65255e-08
2.66901e-08
-5.70046e-10
7.67504e-08
2.67236e-08
-7.41702e-10
7.68475e-08
2.67984e-08
-7.06382e-10
7.63717e-08
2.72391e-08
-6.14634e-10
7.5473e-08
2.80461e-08
-4.44202e-10
7.45577e-08
2.8791e-08
-2.29008e-10
7.3858e-08
2.92755e-08
-1.2787e-10
7.35229e-08
2.95098e-08
-1.8117e-10
7.35594e-08
2.95254e-08
1.48998e-10
7.57532e-08
2.70026e-08
-2.17902e-10
7.63584e-08
2.67638e-08
-5.08563e-10
7.66771e-08
2.67353e-08
-7.08408e-10
7.68695e-08
2.67431e-08
-7.20883e-10
7.65128e-08
2.71125e-08
-6.08081e-10
7.57001e-08
2.78124e-08
-4.40554e-10
7.47337e-08
2.86114e-08
-2.23577e-10
7.39227e-08
2.92053e-08
-1.23756e-10
7.35394e-08
2.94893e-08
-1.76762e-10
7.35557e-08
2.95246e-08
3.19506e-10
7.53859e-08
2.71994e-08
-6.83849e-11
7.60439e-08
2.69288e-08
-4.04805e-10
7.65028e-08
2.68059e-08
-6.49825e-10
7.68356e-08
2.67184e-08
-7.3292e-10
7.66563e-08
2.6981e-08
-6.31099e-10
7.59632e-08
2.75723e-08
-4.41484e-10
7.49448e-08
2.84012e-08
-2.14102e-10
7.40087e-08
2.91098e-08
-1.13977e-10
7.35567e-08
2.94623e-08
-1.64935e-10
7.35498e-08
2.95187e-08
5.75886e-10
7.47661e-08
2.75628e-08
1.52687e-10
7.55264e-08
2.72253e-08
-2.44664e-10
7.61781e-08
2.69704e-08
-5.56818e-10
7.67143e-08
2.67467e-08
-7.34742e-10
7.67846e-08
2.68545e-08
-6.70833e-10
7.62317e-08
2.73434e-08
-4.44599e-10
7.51675e-08
2.81814e-08
-1.9575e-10
7.41033e-08
2.89969e-08
-9.49065e-11
7.35706e-08
2.94295e-08
-1.43162e-10
7.35409e-08
2.95059e-08
9.2271e-10
7.38202e-08
2.81623e-08
4.48921e-10
7.47475e-08
2.77087e-08
-1.91076e-11
7.56574e-08
2.72656e-08
-4.23039e-10
7.64776e-08
2.68498e-08
-7.21007e-10
7.68744e-08
2.67508e-08
-7.09581e-10
7.64817e-08
2.71318e-08
-4.46045e-10
7.53787e-08
2.79714e-08
-1.72778e-10
7.41915e-08
2.88857e-08
-6.52283e-11
7.35764e-08
2.93941e-08
-1.09261e-10
7.35264e-08
2.94866e-08
1.33045e-09
7.24818e-08
2.90929e-08
7.87928e-10
7.36399e-08
2.84771e-08
2.67091e-10
7.49154e-08
2.77217e-08
-2.49982e-10
7.61131e-08
2.70414e-08
-6.87441e-10
7.69041e-08
2.66873e-08
-7.39795e-10
7.66943e-08
2.69489e-08
-4.45942e-10
7.55603e-08
2.77895e-08
-1.43128e-10
7.42581e-08
2.87895e-08
-2.33266e-11
7.35681e-08
2.93608e-08
-6.16529e-11
7.35002e-08
2.94653e-08
1.80625e-09
7.08778e-08
3.02211e-08
1.17703e-09
7.23116e-08
2.94155e-08
5.88203e-10
7.3971e-08
2.83449e-08
-5.20183e-11
7.56425e-08
2.73143e-08
-6.35252e-10
7.68694e-08
2.66696e-08
-7.58349e-10
7.68561e-08
2.68048e-08
-4.44158e-10
7.57004e-08
2.76473e-08
-1.07479e-10
7.42936e-08
2.87184e-08
3.06244e-11
7.35388e-08
2.93365e-08
2.78388e-13
7.34543e-08
2.94496e-08
2.32039e-09
6.9354e-08
3.12318e-08
1.60715e-09
7.10398e-08
3.0258e-08
9.16953e-10
7.29797e-08
2.90079e-08
1.437e-10
7.51437e-08
2.76177e-08
-5.73915e-10
7.68025e-08
2.66748e-08
-7.64109e-10
7.69754e-08
2.66902e-08
-4.38389e-10
7.57973e-08
2.75441e-08
-6.74357e-11
7.42929e-08
2.86792e-08
9.36094e-11
7.34837e-08
2.9329e-08
7.34839e-11
7.33826e-08
2.94484e-08
2.74405e-09
6.82086e-08
3.19536e-08
1.96699e-09
7.00378e-08
3.09004e-08
1.18378e-09
7.21723e-08
2.95483e-08
2.99115e-10
7.47474e-08
2.78582e-08
-5.20261e-10
7.67633e-08
2.66607e-08
-7.60739e-10
7.70707e-08
2.65902e-08
-4.25425e-10
7.58549e-08
2.74731e-08
-2.5819e-11
7.42608e-08
2.867e-08
1.57958e-10
7.34082e-08
2.93405e-08
1.50106e-10
7.32905e-08
2.94642e-08
2.9841e-09
6.76057e-08
3.23158e-08
2.17386e-09
6.94724e-08
3.12583e-08
1.3227e-09
7.1717e-08
2.98621e-08
3.80551e-10
7.45423e-08
2.79817e-08
-4.76003e-10
7.67539e-08
2.6629e-08
-7.48987e-10
7.71257e-08
2.65226e-08
-4.05641e-10
7.58761e-08
2.74323e-08
8.08661e-12
7.42261e-08
2.86717e-08
2.03565e-10
7.33446e-08
2.9359e-08
2.10058e-10
7.32069e-08
2.94885e-08
)
;

boundaryField
{
    freeSurface
    {
        type            slip;
    }
    inlet
    {
        type            cyclic;
    }
    outlet
    {
        type            cyclic;
    }
    sidewalls
    {
        type            zeroGradient;
    }
    noSlipWalls
    {
        type            zeroGradient;
    }
    procBoundary2to1
    {
        type            processor;
        value           nonuniform List<scalar> 
72
(
5.34287e-10
7.49047e-08
2.74663e-08
5.34106e-10
7.49047e-08
2.74665e-08
5.30314e-10
7.49037e-08
2.74713e-08
5.2478e-10
7.49031e-08
2.74774e-08
5.18602e-10
7.49043e-08
2.74824e-08
5.12615e-10
7.49086e-08
2.74841e-08
5.07266e-10
7.49177e-08
2.74803e-08
5.02238e-10
7.49334e-08
2.74697e-08
4.97496e-10
7.49572e-08
2.74506e-08
4.93075e-10
7.49897e-08
2.74226e-08
4.90892e-10
7.50272e-08
2.73874e-08
4.9264e-10
7.50632e-08
2.73497e-08
4.99429e-10
7.50896e-08
2.73166e-08
5.17943e-10
7.50895e-08
2.72982e-08
5.61594e-10
7.50337e-08
2.73103e-08
6.50108e-10
7.4876e-08
2.73796e-08
8.08182e-10
7.45496e-08
2.75479e-08
1.06012e-09
7.39702e-08
2.78754e-08
1.41855e-09
7.30338e-08
2.84539e-08
1.86459e-09
7.16056e-08
2.9436e-08
2.39869e-09
6.97986e-08
3.07079e-08
2.98326e-09
6.80436e-08
3.18797e-08
3.47332e-09
6.67193e-08
3.27144e-08
3.75272e-09
6.60351e-08
3.31184e-08
)
;
    }
}


// ************************************************************************* //
