/*--------------------------------*- C++ -*----------------------------------*\
  =========                 |
  \\      /  F ield         | OpenFOAM: The Open Source CFD Toolbox
   \\    /   O peration     | Website:  https://openfoam.org
    \\  /    A nd           | Version:  6
     \\/     M anipulation  |
\*---------------------------------------------------------------------------*/
FoamFile
{
    version     2.0;
    format      ascii;
    class       volScalarField;
    location    "30";
    object      yPlus;
}
// * * * * * * * * * * * * * * * * * * * * * * * * * * * * * * * * * * * * * //

dimensions      [0 0 0 0 0 0 0];

internalField   uniform 0;

boundaryField
{
    inlet
    {
        type            calculated;
        value           uniform 0;
    }
    outlet
    {
        type            calculated;
        value           uniform 0;
    }
    roughCylinder
    {
        type            calculated;
        value           nonuniform List<scalar> 
5120
(
43.483
51.3028
57.5307
63.6567
68.9455
73.2356
76.6735
79.4524
81.7277
83.6337
85.2898
86.7725
88.1191
89.3638
90.5377
91.6713
92.7952
93.9376
95.122
96.3656
97.678
99.0615
100.513
102.026
103.589
105.191
106.815
108.437
110.019
111.491
112.704
113.423
42.7731
50.3078
56.3364
62.3222
67.5375
71.7924
75.2117
77.9818
80.2561
82.1676
83.8314
85.3176
86.6561
87.8875
89.0439
90.1563
91.2567
92.374
93.5327
94.7492
96.0327
97.3861
98.8061
100.286
101.814
103.38
104.966
106.55
108.095
109.531
110.713
111.414
41.9802
49.2676
55.1091
60.9551
66.097
70.3207
73.7292
76.501
78.7868
80.7154
82.3942
83.8862
85.2208
86.4408
87.5803
88.673
89.7516
90.8455
91.9784
93.1678
94.4234
95.7472
97.136
98.583
100.077
101.608
103.156
104.703
106.21
107.61
108.761
109.444
41.1756
48.2265
53.8802
59.5825
64.65
68.8452
72.2468
75.0253
77.3288
79.2802
80.9771
82.4772
83.8136
85.0255
86.1529
87.2289
88.2873
89.3585
90.4682
91.6326
92.8609
94.1559
95.5144
96.9291
98.3894
99.8834
101.396
102.905
104.375
105.739
106.86
107.525
40.3037
47.1334
52.5986
58.1538
63.1488
67.3249
70.7349
73.537
75.8733
77.8582
79.5805
81.0952
82.4375
83.6464
84.7627
85.8235
86.8644
87.9164
89.003
90.1427
91.3456
92.6132
93.9425
95.3263
96.7543
98.2144
99.6907
101.164
102.597
103.926
105.018
105.664
39.4449
46.0514
51.3207
56.7217
61.6433
65.8051
69.2282
72.0558
74.4253
76.4445
78.1934
79.7248
81.0783
82.2918
83.4045
84.4559
85.4821
86.515
87.5826
88.7011
89.8794
91.1206
92.4215
93.7746
95.1701
96.5959
98.0379
99.4738
100.872
102.166
103.229
103.858
38.5044
44.8969
49.9637
55.2021
60.0498
64.2087
67.6653
70.5422
72.9649
75.031
76.8162
78.3744
79.7448
80.9679
82.0801
83.1238
84.1383
85.1582
86.2067
87.3034
88.4593
89.6759
90.95
92.2743
93.6393
95.033
96.44
97.8415
99.2036
100.466
101.499
102.11
37.5828
43.7549
48.6087
53.6741
58.4452
62.607
66.1029
69.0274
71.4986
73.6113
75.4351
77.0211
78.4147
79.654
80.7781
81.8236
82.8327
83.8391
84.8736
85.954
87.0887
88.2817
89.5296
90.8255
92.1592
93.5198
94.8932
96.2587
97.5876
98.8148
99.8201
100.415
36.5483
42.5043
47.1317
52.0065
56.6924
60.8652
64.426
67.4348
69.9891
72.1694
74.0459
75.6765
77.1021
78.3652
79.5005
80.5515
81.558
82.5605
83.582
84.6443
85.7603
86.9314
88.1549
89.4237
90.7287
92.0584
93.3978
94.7308
96.0236
97.2201
98.1976
98.774
35.5183
41.2498
45.6411
50.3108
54.9046
59.0954
62.7303
65.8201
68.4463
70.6962
72.6343
74.3088
75.7736
77.0659
78.2279
79.2949
80.3105
81.3097
82.3245
83.3772
84.4762
85.6268
86.8259
88.0677
89.342
90.6391
91.9452
93.2407
94.5016
95.6629
96.6117
97.172
34.3034
39.8192
43.9562
48.3896
52.864
57.0685
60.8067
64.0381
66.8058
69.1641
71.1806
72.9277
74.4458
75.783
76.9709
78.0558
79.0787
80.0848
81.0955
82.1352
83.2198
84.3514
85.5285
86.7439
87.9897
89.2559
90.5282
91.7921
93.0171
94.1479
95.0698
95.6113
33.0425
38.3499
42.2252
46.406
50.7499
54.9766
58.8352
62.2021
65.0815
67.5516
69.6769
71.4964
73.0787
74.461
75.6939
76.8118
77.8603
78.8726
79.8852
80.924
81.997
83.1115
84.2656
85.4552
86.6708
87.9032
89.1415
90.3671
91.5603
92.6551
93.5457
94.0726
31.4945
36.5971
40.1747
44.0399
48.184
52.3915
56.3909
59.9994
63.148
65.8187
68.0703
70.0099
71.6775
73.1383
74.4198
75.5732
76.6403
77.6726
78.691
79.7216
80.7848
81.8839
83.0189
84.183
85.3701
86.5721
87.7769
88.9709
90.1278
91.1923
92.0574
92.5636
29.8209
34.7431
38.0327
41.5736
45.5063
49.7106
53.8894
57.719
61.0354
63.8931
66.3522
68.4218
70.2058
71.737
73.0883
74.2969
75.413
76.4646
77.4959
78.5369
79.5956
80.6817
81.7949
82.9342
84.0909
85.2578
86.4258
87.5803
88.7042
89.7308
90.5607
91.0534
27.6092
32.3576
35.2963
38.3828
41.9355
45.9894
50.3
54.5505
58.4479
61.7324
64.4255
66.7168
68.6346
70.3002
71.7377
73.0094
74.1585
75.2486
76.2988
77.3377
78.3919
79.4666
80.564
81.6783
82.8058
83.9416
85.076
86.1973
87.2853
88.2792
89.0853
89.5562
25.039
29.7119
32.386
35.0752
38.2683
42.237
46.835
51.4094
55.4764
59.0954
62.2208
64.7589
66.9246
68.7205
70.2728
71.6325
72.8657
73.993
75.0715
76.1365
77.1954
78.262
79.3386
80.4281
81.5238
82.6209
83.7143
84.7922
85.8446
86.7978
87.5619
88.0187
21.142
25.841
28.111
30.0954
32.5064
35.8769
40.2485
45.6909
51.3477
55.9565
59.587
62.6296
65.0125
67.0418
68.7447
70.2169
71.5047
72.6988
73.8145
74.885
75.946
77.0059
78.0698
79.1344
80.1986
81.2633
82.3219
83.3658
84.3802
85.2968
86.036
86.4716
15.9557
21.0708
23.5773
25.2737
26.8787
29.9334
35.6183
41.1606
46.1061
51.5645
56.2556
59.7609
62.7511
65.0738
67.0031
68.6243
70.0575
71.3149
72.4822
73.6014
74.6801
75.7379
76.7813
77.8191
78.848
79.8665
80.8758
81.8673
82.8434
83.7111
84.4011
84.8199
5.60866
10.5943
11.3052
11.3879
10.9844
10.8939
12.8325
25.1372
38.3429
45.7324
51.7348
56.7493
60.1191
62.9002
65.096
66.9336
68.4622
69.8397
71.0731
72.2083
73.2979
74.3549
75.3889
76.4008
77.3937
78.377
79.3508
80.3065
81.2369
82.0657
82.7259
83.1212
3.55909
3.60104
13.4064
14.8109
6.21078
11.7613
4.40383
12.717
19.4999
36.8664
45.6841
51.3788
56.5553
60.0379
62.7852
64.9034
66.7034
68.1864
69.5109
70.7338
71.8618
72.9248
73.936
74.9159
75.8651
76.7873
77.6921
78.581
79.475
80.2308
80.8277
81.212
11.7315
16.2464
17.2813
16.611
14.5613
12.6226
19.2423
19.4241
20.5578
10.1805
34.8077
46.5854
52.0049
56.7692
60.0009
62.616
64.6081
66.3347
67.7842
69.0393
70.1912
71.2621
72.2695
73.2195
74.1249
75.006
75.8832
76.7236
77.5512
78.2724
78.839
79.1756
19.742
24.2728
26.2669
27.2038
26.9428
25.5807
23.5384
18.974
14.4416
23.0578
15.5667
30.4226
45.4614
51.6197
56.5189
59.6618
62.2182
64.1269
65.7457
67.1704
68.4012
69.4927
70.4668
71.3741
72.2148
73.0038
73.7569
74.5211
75.3232
75.9126
76.3681
76.7352
22.217
27.1999
29.9285
31.9697
33.2249
33.5421
32.7085
30.5285
25.7909
21.5088
19.6247
27.8541
32.6127
45.7958
51.2547
55.9826
59.0041
61.4814
63.3637
64.8466
66.1252
67.2383
68.2219
69.0852
69.8712
70.6039
71.3756
72.0274
72.7262
73.2904
73.7494
73.983
22.8014
27.9069
30.859
33.2604
35.0771
36.293
36.8588
36.5988
35.0073
30.5337
22.7897
23.6679
13.7409
33.149
46.2304
50.9148
55.2654
58.0649
60.2932
62.1531
63.6021
64.7682
65.6855
66.4847
67.1493
67.7189
68.2012
68.8117
69.5053
69.8039
70.0005
70.3859
22.2528
27.479
30.573
33.1735
35.2391
36.7593
37.7347
38.1514
37.8954
36.5018
32.6773
30.3043
17.0483
17.4867
28.5385
43.9548
49.384
53.6997
56.5283
58.4453
59.9818
61.1996
62.1514
62.8552
63.462
63.9203
64.6175
64.8685
65.4575
65.6774
66.0378
66.0731
20.7963
26.1547
29.335
32.0568
34.2915
36.0354
37.3081
38.1425
38.5664
38.5187
37.5728
34.4629
28.0665
22.9691
23.1671
29.6271
42.7232
47.4852
51.0389
53.9729
55.9192
57.2458
58.0255
58.6162
58.9132
59.0329
58.8919
59.3301
59.8907
59.5606
59.1554
59.5844
18.8661
24.3094
27.5083
30.2666
32.5748
34.4461
35.9067
37.0106
37.8338
38.4386
38.7589
38.2249
35.4238
26.3942
30.7338
29.0392
29.9947
39.1637
44.8032
47.099
48.9238
50.4311
51.239
51.5128
51.8944
51.7217
52.5927
51.69
53.2346
51.4608
52.1543
51.9653
16.627
22.0513
25.1738
27.8745
30.1726
32.1053
33.7148
35.0562
36.2104
37.2566
38.2094
38.874
38.4841
34.561
30.1893
31.3858
33.3741
31.4614
31.5252
37.934
42.1979
43.4357
44.072
43.8129
43.4878
41.1988
40.6787
40.0065
39.487
39.1028
37.5959
34.3058
14.3745
19.6381
22.5797
25.1223
27.3186
29.2293
30.9138
32.436
33.8719
35.3019
36.7575
38.1361
39.0755
38.5692
34.0295
25.5908
33.6092
36.2209
34.7164
30.2847
20.4021
29.5754
23.6064
28.3377
23.1136
29.9366
20.0818
30.9868
40.1999
35.3846
12.4455
25.3014
12.3919
17.3751
20.0623
22.3771
24.4054
26.2269
27.9122
29.5281
31.1419
32.8197
34.6097
36.4706
38.1882
39.2536
38.5506
34.9121
25.8466
30.1979
34.2765
32.4781
25.348
38.0106
24.5565
39.4654
25.8358
38.9491
26.8094
44.739
42.3408
11.7281
28.7194
21.1436
10.8647
15.4991
17.9171
19.9883
21.8277
23.5277
25.1627
26.7941
28.4755
30.2559
32.1835
34.2702
36.4276
38.3592
39.4881
39.2504
35.4855
30.1805
26.3767
32.371
23.7134
30.5586
28.3852
31.655
34.5748
36.8154
32.6391
39.9007
36.8361
36.5652
31.2658
33.2463
9.74098
14.1317
16.323
18.1915
19.8738
21.4653
23.033
24.6243
26.2766
28.0261
29.9165
31.9912
34.2568
36.5947
38.6568
39.9587
39.6801
37.6408
33.6814
30.312
27.9785
27.2327
30.4969
32.1902
33.2643
37.196
37.1257
39.3413
35.9129
40.055
38.1673
43.387
9.14643
13.3484
15.3816
17.1201
18.7085
20.2323
21.7414
23.2646
24.8242
26.4482
28.177
30.0652
32.1665
34.4861
36.8844
39.0063
40.2406
40.3157
39.5106
37.5543
37.8257
36.3192
38.8162
40.6507
39.8299
43.0685
42.2253
43.7051
41.8472
42.7654
41.7697
45.538
8.97758
13.0932
15.0579
16.7509
18.314
19.8165
21.2883
22.742
24.1897
25.6545
27.174
28.8
30.5961
32.6221
34.8814
37.2257
39.2483
40.4995
40.9602
40.5013
40.8739
40.1367
41.5579
42.4949
41.8263
43.7599
43.0314
43.7903
42.8318
42.6932
42.2561
44.9754
9.16005
13.2675
15.2366
16.9521
18.5439
20.0622
21.5203
22.9207
24.2712
25.5922
26.9165
28.2876
29.7606
31.402
33.2725
35.3711
37.5273
39.3897
40.6876
41.1516
41.666
41.278
42.1044
42.5826
41.9882
43.0818
42.5531
42.7878
42.0952
41.935
41.7142
43.5385
9.59683
13.7471
15.7683
17.5517
19.2077
20.7698
22.239
23.6122
24.896
26.1104
27.2846
28.4538
29.6597
30.955
32.4035
34.0591
35.9054
37.7816
39.4332
40.5192
41.2891
41.2584
41.7116
41.8146
41.1716
41.5854
41.117
41.0705
40.5205
40.532
40.3633
41.5914
10.2331
14.4558
16.552
18.423
20.1583
21.7763
23.2711
24.6383
25.8866
27.0364
28.1145
29.1485
30.1672
31.2063
32.3144
33.5471
34.9427
36.4721
38.0041
39.2615
40.1867
40.4212
40.6885
40.5509
39.8395
39.7893
39.3189
39.1587
38.717
38.9411
38.8926
39.7268
11.0162
15.3388
17.5223
19.4869
21.3029
22.9779
24.5033
25.877
27.1118
28.231
29.2592
30.2182
31.1256
32.0021
32.8779
33.7947
34.7954
35.9002
37.0716
38.1525
39.0123
39.3584
39.518
39.2509
38.5335
38.1902
37.7109
37.5292
37.2288
37.6376
37.764
38.3659
11.8561
16.3475
18.6266
20.6847
22.5776
24.3067
25.8638
27.2518
28.489
29.6013
30.6127
31.5406
32.3946
33.1843
33.9247
34.6403
35.3627
36.1198
36.9144
37.6782
38.3122
38.6053
38.6555
38.3137
37.6212
37.1167
36.6392
36.478
36.3292
36.8818
37.197
37.69
12.837
17.4505
19.8234
21.9719
23.9374
25.7174
27.3066
28.7143
29.9644
31.086
32.1022
33.027
33.865
34.6188
35.2937
35.9002
36.4553
36.9783
37.4826
37.9449
38.3106
38.448
38.3613
37.9511
37.2768
36.691
36.2232
36.0953
36.088
36.7442
37.2271
37.6862
13.57
13.9901
14.476
14.8676
15.2468
15.5491
15.8128
16.0175
16.1818
16.2979
16.3766
16.4165
16.4216
16.3928
16.3345
16.2494
16.1394
16.0098
15.8712
15.7523
15.7424
15.8543
15.991
16.1203
16.2306
16.3163
16.3751
16.4046
16.4008
16.3621
16.2848
16.1705
16.0082
15.806
15.5451
15.246
14.8699
14.4812
13.9977
13.5792
18.3075
18.7435
19.2491
19.6587
20.0558
20.3794
20.6657
20.895
21.0852
21.2287
21.3354
21.404
21.4375
21.4355
21.4005
21.3344
21.2383
21.1159
20.9771
20.8523
20.8413
20.9584
21.0955
21.2179
21.3146
21.3814
21.4172
21.4202
21.3881
21.3208
21.2157
21.0739
20.8859
20.659
20.3754
20.0549
19.6606
19.2537
18.7502
18.3154
20.7557
21.2172
21.7527
22.1878
22.6132
22.967
23.2876
23.5541
23.7844
23.971
24.1223
24.2372
24.3176
24.3619
24.3703
24.3437
24.2824
24.1886
24.0712
23.9593
23.9488
24.0533
24.1692
24.263
24.325
24.3524
24.3448
24.3015
24.2223
24.1086
23.9587
23.7737
23.5454
23.2812
22.9631
22.6122
22.1896
21.7572
21.2238
20.7636
22.9627
23.4435
24.0018
24.4563
24.9059
25.2868
25.6392
25.9409
26.2101
26.4394
26.635
26.7956
26.9227
27.0135
27.0665
27.0811
27.0569
26.9954
26.9055
26.8154
26.8067
26.8894
26.9777
27.0393
27.0642
27.0503
26.998
26.9082
26.7821
26.6223
26.428
26.2002
25.9328
25.633
25.283
24.9047
24.4578
24.0059
23.4498
22.9705
24.9667
25.4517
26.0177
26.4784
26.9396
27.3355
27.7077
28.0337
28.3307
28.5922
28.8235
29.0217
29.1872
29.3164
29.407
29.4567
29.4646
29.4321
29.3681
29.3006
29.2937
29.3542
29.4164
29.449
29.4416
29.3927
29.3028
29.1744
29.0097
28.8123
28.5821
28.3215
28.0261
27.7018
27.3317
26.9382
26.4795
26.0212
25.4574
24.974
26.7672
27.2401
27.7997
28.2546
28.7159
29.1166
29.4993
29.8421
30.1614
30.4497
30.7108
30.9409
31.1392
31.3013
31.424
31.504
31.5396
31.5322
31.4905
31.4412
31.4356
31.4786
31.5184
31.5259
31.491
31.4117
31.2898
31.1284
30.9309
30.7014
30.4409
30.1536
29.8354
29.4938
29.1129
28.7143
28.2552
27.8024
27.2449
26.7735
28.3641
28.8136
29.3592
29.8027
30.2596
30.6625
31.055
31.4143
31.7546
32.0677
32.3562
32.6155
32.8432
33.0347
33.1858
33.2923
33.3519
33.3656
33.3418
33.3055
33.3008
33.3313
33.3535
33.34
33.2812
33.1755
33.0254
32.8346
32.6075
32.3488
32.0607
31.7484
31.409
31.0508
30.6597
30.2582
29.8031
29.3614
28.8176
28.3693
29.7733
30.1954
30.7265
31.1597
31.6149
32.0245
32.4289
32.8054
33.1662
33.503
33.817
34.1028
34.3573
34.575
34.7509
34.8803
34.9601
34.9908
34.9804
34.9528
34.9485
34.971
34.98
34.9497
34.8708
34.7424
34.5674
34.3506
34.0968
33.8115
33.4982
33.162
32.8019
32.4261
32.0229
31.6145
31.1607
30.7288
30.199
29.7777
31.0243
31.4203
31.9408
32.3691
32.8272
33.2458
33.6629
34.0566
34.4369
34.7953
35.132
35.4412
35.7189
35.9591
36.156
36.3046
36.4007
36.4446
36.4438
36.4213
36.4173
36.4349
36.4347
36.3915
36.2965
36.1492
35.9533
35.7141
35.4371
35.1285
34.7923
34.4344
34.0548
33.662
33.2458
32.8281
32.3711
31.9439
31.4242
31.0282
32.1481
32.5212
33.035
33.4624
33.9247
34.3529
34.7821
35.1912
35.5885
35.9656
36.3218
36.6509
36.9481
37.2068
37.421
37.5847
37.6937
37.7474
37.7529
37.7334
37.7296
37.7446
37.7381
37.6854
37.5778
37.4154
37.2025
36.9448
36.6484
36.32
35.9644
35.5879
35.1912
34.7829
34.3544
33.9272
33.4658
33.0389
32.5256
32.1518
33.1666
33.5182
34.0273
34.4543
34.9207
35.3572
35.7971
36.2193
36.631
37.0238
37.3961
37.7413
38.0543
38.3279
38.5556
38.7312
38.8499
38.9107
38.9208
38.903
38.8991
38.9126
38.902
38.8422
38.7251
38.5511
38.3247
38.0522
37.7402
37.3957
37.0241
36.6319
36.2209
35.7995
35.3604
34.9247
34.4589
34.0323
33.5232
33.1699
34.0911
34.42
34.9234
35.3491
35.8187
36.2621
36.7107
37.144
37.5676
37.9732
38.3585
38.7168
39.0422
39.3276
39.566
39.7508
39.8772
39.9441
39.9581
39.9423
39.9385
39.9503
39.9358
39.8701
39.7453
39.5622
39.3253
39.0412
38.7168
38.3593
37.9748
37.5698
37.147
36.7146
36.2667
35.8239
35.355
34.929
34.425
34.0934
34.9233
35.2266
35.7222
36.1456
36.6173
37.0665
37.5226
37.9649
38.3985
38.8147
39.2106
39.5794
39.9149
40.2095
40.4564
40.6488
40.7819
40.8544
40.8735
40.8611
40.8576
40.8659
40.8465
40.7751
40.6438
40.4531
40.2079
39.9145
39.5803
39.2125
38.8174
38.4021
37.9693
37.5277
37.0724
36.6237
36.1523
35.7283
35.2314
34.924
35.6623
35.9353
36.4203
36.8403
37.3132
37.7675
38.2302
38.6809
39.1231
39.5483
39.9531
40.3304
40.6738
40.976
41.2297
41.4284
41.5676
41.6464
41.6718
41.665
41.6618
41.6648
41.6388
41.5612
41.4237
41.2267
40.9747
40.6739
40.3318
39.9556
39.5518
39.1275
38.6862
38.2364
37.7745
37.3206
36.8477
36.4265
35.9392
35.6603
36.3075
36.5433
37.0136
37.4287
37.9021
38.3614
38.8306
39.2892
39.7395
40.1729
40.5854
40.9699
41.3201
41.6284
41.8879
42.0924
42.2376
42.3233
42.3565
42.3566
42.3538
42.3501
42.3162
42.2315
42.0878
41.885
41.6272
41.3204
40.9716
40.5883
40.177
39.7447
39.2954
38.8377
38.3694
37.9103
37.4365
37.0195
36.5457
36.3019
36.8609
37.0474
37.4974
37.9053
38.3785
38.8429
39.3188
39.7855
40.2438
40.6851
41.1049
41.4961
41.8522
42.1661
42.4309
42.6407
42.792
42.885
42.9267
42.9341
42.9316
42.9209
42.8783
42.786
42.6361
42.4278
42.1647
41.8524
41.4978
41.108
40.6895
40.2495
39.7924
39.3267
38.8516
38.3874
37.9133
37.5025
37.0473
36.85
37.3263
37.4444
37.8656
38.2629
38.7347
39.204
39.6871
40.1623
40.6292
41.0785
41.5057
41.9034
42.2652
42.5842
42.854
43.0691
43.2265
43.3268
43.3769
43.3908
43.3886
43.3715
43.3204
43.2205
43.0642
42.8505
42.5823
42.265
41.9047
41.5086
41.083
40.6351
40.1696
39.6956
39.2134
38.744
38.2711
37.8699
37.4418
37.3099
37.7094
37.7308
38.1075
38.4911
38.9593
39.4337
39.9242
40.4087
40.8846
41.3428
41.7775
42.182
42.5496
42.8738
43.1485
43.3688
43.5321
43.6394
43.6968
43.7164
43.7144
43.6917
43.6331
43.5258
43.3634
43.1443
42.8711
42.5486
42.1827
41.7799
41.3469
40.8906
40.4163
39.9332
39.4438
38.9694
38.4998
38.1115
37.7263
37.6883
38.0159
37.9065
38.216
38.5763
39.0394
39.518
40.0162
40.5105
40.9962
41.4637
41.9068
42.3183
42.6922
43.0218
43.3015
43.527
43.696
43.8095
43.8734
43.8976
43.8956
43.8684
43.803
43.6891
43.5207
43.2962
43.0179
42.69
42.3179
41.9082
41.4672
41.0019
40.5181
40.0257
39.529
39.0508
38.5869
38.2218
37.9032
37.9942
38.2399
37.9688
38.1857
38.5085
38.9605
39.4427
39.9484
40.4527
40.9487
41.426
41.8779
42.2972
42.6776
43.013
43.298
43.5286
43.7029
43.8221
43.8913
43.9191
43.9171
43.8861
43.815
43.6952
43.5211
43.2913
43.0075
42.6737
42.2951
41.8779
41.4284
40.9537
40.4603
39.9586
39.4555
38.9754
38.5236
38.1969
37.9708
38.2224
38.3483
37.9042
38.0112
38.282
38.7146
39.1985
39.7101
40.224
40.7299
41.2171
41.6779
42.1052
42.4924
42.8338
43.124
43.3596
43.5386
43.6625
43.7361
43.7667
43.7645
43.7304
43.6547
43.5296
43.3503
43.1152
42.826
42.4861
42.1008
41.6758
41.2176
40.7336
40.2311
39.7211
39.2137
38.7341
38.3044
38.0328
37.92
38.3485
38.2814
37.6852
37.6839
37.8952
38.3002
38.7804
39.2992
39.8216
40.3368
40.8328
41.302
41.7365
42.1302
42.477
42.772
43.0119
43.1949
43.3225
43.399
43.4315
43.4291
43.3925
43.3131
43.1838
42.9999
42.7602
42.4657
42.1203
41.7284
41.2963
40.8304
40.3381
39.8278
39.3113
38.7999
38.3273
37.9285
37.7204
37.7196
38.3039
37.9891
37.2872
37.202
37.3606
37.7378
38.2101
38.7324
39.2614
39.7835
40.2862
40.7615
41.2016
41.5999
41.9506
42.249
42.4916
42.677
42.8065
42.8845
42.9177
42.9148
42.8766
42.7949
42.6628
42.4758
42.2326
41.9343
41.5845
41.1878
40.7504
40.2786
39.7809
39.2655
38.746
38.2348
37.7746
37.4103
37.2641
37.3603
38.0717
37.4861
36.7281
36.5945
36.7157
37.0692
37.5307
38.0518
38.585
39.1103
39.6162
40.094
40.5362
40.936
41.2877
41.5866
41.8293
42.0144
42.1433
42.2205
42.2529
42.2494
42.2106
42.1283
41.9957
41.8079
41.5635
41.2638
40.9121
40.5134
40.0734
39.5991
39.0986
38.581
38.059
37.5514
37.1052
36.7684
36.665
36.8166
37.5929
36.862
36.0785
35.9252
36.0268
36.3654
36.8172
37.334
37.8665
38.3901
38.8944
39.37
39.8097
40.2068
40.5553
40.8508
41.0897
41.2708
41.3955
41.4687
41.4982
41.4936
41.4557
41.3757
41.2455
41.0603
40.8182
40.5207
40.171
39.7742
39.336
38.8637
38.3651
37.8497
37.33
36.8286
36.394
36.0735
35.9884
36.1505
36.9293
36.2258
35.4587
35.3146
35.4134
35.7444
36.1864
36.6941
37.2183
37.734
38.2303
38.6978
39.1293
39.5181
39.8582
40.1451
40.3754
40.5477
40.6635
40.7285
40.7522
40.7461
40.7112
40.6367
40.5132
40.3345
40.099
39.8077
39.4644
39.0737
38.6417
38.1755
37.6829
37.1739
36.6609
36.1679
35.7436
35.4334
35.3579
35.525
36.3126
35.8323
35.0721
34.9301
35.0215
35.3397
35.7659
36.2564
36.7641
37.2648
37.7467
38.2003
38.6182
38.9933
39.3202
39.5938
39.8109
39.9696
40.0719
40.1242
40.1384
40.1305
40.1018
40.0378
39.9255
39.7582
39.5338
39.2538
38.9216
38.5422
38.1217
37.6672
37.1869
36.6907
36.192
35.7134
35.3024
35.002
34.9307
35.0905
35.8631
35.7017
35.0064
34.8931
34.9844
35.2881
35.6904
36.153
36.6316
37.1068
37.565
37.9966
38.3935
38.7489
39.0566
39.3121
39.5114
39.6528
39.7375
39.7721
39.7727
39.7624
39.7441
39.6955
39.5992
39.4476
39.2389
38.975
38.6595
38.2976
37.8952
37.4597
36.9997
36.5256
36.0518
35.5978
35.2083
34.9235
34.8601
35.0128
35.7671
36.0474
35.3492
35.2288
35.3016
35.5808
35.9526
36.3818
36.8275
37.2735
37.7048
38.1114
38.4848
38.8181
39.1051
39.3412
39.5223
39.6462
39.7131
39.7298
39.7148
39.7034
39.7005
39.6712
39.594
39.4611
39.2716
39.0277
38.7333
38.3932
38.0137
37.6017
37.1658
36.716
36.2675
35.8358
35.4603
35.1756
35.0923
35.1989
35.8735
36.5223
35.8669
35.7739
35.8525
36.123
36.4741
36.8763
37.2949
37.714
38.1191
38.5004
38.8498
39.1603
39.4264
39.643
39.8064
39.914
39.9657
39.9668
39.9371
39.9241
39.9362
39.9246
39.8652
39.7511
39.582
39.3604
39.0904
38.777
38.4264
38.0457
37.6439
37.2314
36.8237
36.4383
36.1095
35.8635
35.81
35.9221
36.5895
37.162
36.5403
36.4609
36.5307
36.7813
37.104
37.4772
37.8678
38.2602
38.6403
38.9981
39.3257
39.6165
39.8648
40.0658
40.2157
40.3118
40.3537
40.3464
40.3098
40.2993
40.3247
40.3281
40.2845
40.1878
40.0381
39.8379
39.5911
39.3026
38.9784
38.6252
38.2515
37.8671
37.4871
37.1267
36.8199
36.5833
36.5226
36.5968
37.195
37.5683
36.9833
36.9236
36.9979
37.243
37.5538
37.914
38.2906
38.669
39.0352
39.3799
39.695
39.9743
40.212
40.4036
40.5454
40.6346
40.6707
40.6585
40.6181
40.6065
40.6354
40.6439
40.6067
40.5174
40.376
40.185
39.9484
39.6708
39.3579
39.0164
38.6544
38.2817
37.9125
37.5622
37.2638
37.0344
36.9764
37.0511
37.6479
43.4914
51.3122
57.5411
63.6675
68.9564
73.2464
76.684
79.4626
81.7375
83.6432
85.2991
86.7819
88.1286
89.3734
90.5472
91.6807
92.8044
93.9467
95.1309
96.3743
97.6863
99.0695
100.521
102.033
103.595
105.196
106.819
108.44
110.021
111.493
112.706
113.423
42.7843
50.3197
56.349
62.335
67.5502
71.8048
75.2237
77.9936
80.2678
82.1792
83.8429
85.3286
86.6667
87.8976
89.0536
90.1659
91.2662
92.3834
93.5419
94.7581
96.0413
97.3943
98.814
100.292
101.82
103.385
104.971
106.554
108.097
109.532
110.715
111.413
41.9913
49.2795
55.1216
60.9678
66.1096
70.3329
73.7409
76.5121
78.7973
80.7255
82.4041
83.896
85.2308
86.4511
87.5907
88.6832
89.7616
90.8553
91.9879
93.1772
94.4324
95.7558
97.1443
98.5902
100.084
101.613
103.161
104.706
106.212
107.611
108.763
109.443
41.1875
48.2396
53.8945
59.5973
64.6648
68.8597
72.2611
75.0393
77.3427
79.2942
80.9909
82.4906
83.8263
85.0371
86.1637
87.2394
88.2976
89.3687
90.4781
91.6422
92.8702
94.1649
95.5227
96.9366
98.3959
99.8894
101.401
102.909
104.377
105.741
106.863
107.524
40.3176
47.148
52.6138
58.169
63.1634
67.3388
70.7479
73.5492
75.8849
77.869
79.5907
81.1051
82.4475
83.657
84.774
85.8349
86.8754
87.9271
89.0135
90.153
91.3554
92.6225
93.9512
95.3342
96.7612
98.2203
99.6956
101.167
102.599
103.928
105.02
105.663
39.4593
46.0673
51.338
56.7399
61.6617
65.8234
69.2462
72.0733
74.4425
76.4615
78.2104
79.7416
81.0944
82.3062
83.417
84.4675
85.4933
86.5262
87.5934
88.7115
89.8894
91.1303
92.4305
93.7829
95.1774
96.6018
98.0428
99.4777
100.873
102.168
103.232
103.856
38.5201
44.9138
49.9813
55.2197
60.0665
64.2241
67.6796
70.5555
72.9776
75.043
76.8271
78.384
79.7539
80.9779
82.0918
83.1362
84.1506
85.17
86.2181
87.3145
88.47
89.686
90.9594
92.283
93.647
95.0397
96.4453
97.8446
99.2057
100.467
101.502
102.109
37.603
43.7763
48.632
53.6989
58.4706
62.6319
66.1272
69.0506
71.5204
73.6321
75.4556
77.0421
78.4359
79.6731
80.7939
81.8369
82.845
83.8512
84.8856
85.9656
87.0998
88.2922
89.5395
90.8344
92.1668
93.526
94.898
96.263
97.5889
98.8169
99.8243
100.412
36.5649
42.5228
47.151
52.0258
56.7106
60.8818
64.4411
67.449
70.0031
72.1836
74.059
75.6868
77.1098
78.3733
79.5113
80.5647
81.5717
82.5737
83.5947
84.6565
85.772
86.9426
88.1653
89.4331
90.7372
92.0659
93.4035
94.7338
96.0253
97.2217
98.2009
98.7716
35.5478
41.2809
45.6749
50.3467
54.9413
59.1312
62.7645
65.8517
68.4749
70.7216
72.6579
74.3339
75.801
77.0918
78.2494
79.3117
80.3248
81.3234
82.3379
83.3901
84.4886
85.6384
86.837
88.0776
89.3509
90.6453
91.9504
93.2454
94.5021
95.665
96.6166
97.1688
34.322
39.8397
43.9777
48.4114
52.885
57.0878
60.8243
64.0548
66.8224
69.1813
71.1977
72.9409
74.4532
75.7892
76.9797
78.0689
79.094
80.1001
81.11
82.149
83.2331
84.3642
85.5402
86.7546
87.9995
89.2642
90.5346
91.7955
93.0183
94.1499
95.0739
95.6076
33.0851
38.3946
42.274
46.4583
50.803
55.0276
58.882
62.2436
65.1184
67.5842
69.7061
71.5258
73.1123
74.4945
75.7234
76.8344
77.878
78.8885
79.9004
80.9387
82.0111
83.1247
84.2783
85.4665
86.6804
87.9102
89.1471
90.3717
91.5595
92.6572
93.5531
94.0681
31.5191
36.6235
40.2022
44.0682
48.2126
52.4199
56.4192
60.0275
63.1733
65.8402
68.0888
70.0258
71.6862
73.1443
74.4262
75.5849
76.6567
77.6905
78.7081
79.7377
80.8004
81.8989
83.0325
84.1953
85.3816
86.5817
87.7834
88.9748
90.1286
91.1952
92.0623
92.5587
29.883
34.8075
38.1033
41.65
45.5843
49.7838
53.9513
57.7671
61.0784
63.9381
66.3996
68.4638
70.2479
71.777
73.127
74.3279
75.436
76.4836
77.5135
78.5543
79.6119
80.697
81.81
82.9475
84.102
85.266
86.4323
87.5849
88.7012
89.7324
90.571
91.0472
27.65
32.3988
35.3376
38.4259
41.9827
46.0413
50.3586
54.6177
58.5033
61.7615
64.4286
66.7221
68.6415
70.3097
71.7434
73.0197
74.176
75.2698
76.3199
77.3572
78.4108
79.4847
80.5801
81.6927
82.8196
83.9525
85.0832
86.202
87.2853
88.2833
89.0923
89.548
25.1415
29.8167
32.5032
35.2038
38.3967
42.353
46.9211
51.4475
55.5121
59.1622
62.3286
64.8467
66.9891
68.7673
70.3205
71.6739
72.8964
74.0165
75.0922
76.1574
77.2148
78.2802
79.3573
80.4445
81.5372
82.631
83.7221
84.7989
85.8386
86.7991
87.5756
88.0101
21.2406
25.9216
28.1679
30.1468
32.5854
35.9883
40.3991
45.9247
51.5169
56.0158
59.5198
62.5782
64.9973
67.0545
68.7532
70.2275
71.5245
72.7251
73.842
74.9092
75.9695
77.0285
78.0893
79.1512
80.2157
81.2759
82.3291
83.3696
84.3774
85.3027
86.0473
86.4574
16.1821
21.2954
23.8911
25.6512
27.301
30.249
35.8109
40.9558
46.0243
51.6455
56.5442
59.9775
62.878
65.1374
67.0602
68.6769
70.0979
71.3447
72.5064
73.6271
74.7039
75.7598
76.8055
77.8408
78.8647
79.8797
80.8865
81.8788
82.8332
83.7131
84.4202
84.8072
6.98441
11.1651
11.3529
11.2918
10.4662
11.5687
12.6335
27.6092
39.3386
46.078
51.4214
56.5425
60.0314
62.9024
65.1122
66.951
68.4889
69.8754
71.112
72.2404
73.328
74.3843
75.4135
76.4204
77.4154
78.392
79.3549
80.309
81.2298
82.0732
82.7435
83.0985
8.05613
11.3622
11.7024
11.537
10.8965
9.93039
6.01453
2.62114
18.0897
36.5655
46.7289
51.868
56.8136
60.1449
62.848
64.9655
66.7545
68.2237
69.5379
70.7658
71.8917
72.9513
73.9687
74.9468
75.887
76.8058
77.7104
78.6005
79.455
80.2368
80.8604
81.1856
11.2906
15.6683
16.956
16.6062
14.9712
15.188
14.7342
8.72062
21.4786
16.8796
31.1968
45.9141
51.7487
56.7417
60.0583
62.662
64.6562
66.3921
67.8482
69.0861
70.2319
71.3028
72.3032
73.2428
74.1528
75.0245
75.8724
76.7298
77.5425
78.2828
78.8584
79.142
20.0217
24.4422
26.3159
27.1212
26.7065
25.0256
22.7362
16.6722
20.7953
25.1677
27.4525
32.4257
46.1231
51.7599
56.4987
59.7125
62.2811
64.1713
65.7663
67.2081
68.4394
69.524
70.5133
71.4201
72.2457
73.0312
73.7976
74.5478
75.2718
75.9242
76.4413
76.6703
22.1697
27.1669
29.8891
31.9058
33.1185
33.369
32.4021
29.9226
24.919
24.439
22.1109
5.35574
32.0623
46.2375
51.6851
56.1618
59.1083
61.5923
63.4968
64.9269
66.1841
67.2988
68.2746
69.1196
69.9053
70.6327
71.3097
72.0653
72.7391
73.3253
73.7565
73.9269
22.9872
28.0771
31.0127
33.3803
35.1401
36.2744
36.7496
36.4278
34.8096
30.8716
25.0894
17.0885
15.5299
29.5149
44.8519
50.7522
55.3469
58.1113
60.2626
62.1838
63.6523
64.8022
65.76
66.5555
67.1963
67.757
68.3053
68.8333
69.3476
69.8003
70.1762
70.2179
22.3818
27.6088
30.7035
33.2984
35.3522
36.8563
37.8182
38.2435
38.067
36.9013
33.491
28.282
24.8556
25.6521
31.6167
44.9269
49.5851
53.9254
56.8726
58.6151
60.0754
61.2945
62.2457
62.9351
63.4821
63.9973
64.349
65.0478
65.5753
65.8682
66.0338
65.9377
20.9047
26.2645
29.4478
32.1692
34.3989
36.134
37.396
38.2235
38.6503
38.6186
37.6662
34.1692
28.8095
31.1833
30.2664
29.8695
42.8953
47.4234
50.6768
53.8906
55.9831
57.2678
58.1822
58.7288
58.9995
59.0533
59.1717
59.2968
59.3618
59.3754
59.5612
59.2642
18.9393
24.3914
27.5994
30.3665
32.6824
34.5594
36.023
37.1251
37.9333
38.485
38.6458
37.6815
33.1414
32.0299
28.9972
24.9662
27.1428
39.4629
45.5975
47.3671
49.0686
50.6387
51.4173
51.8931
51.6347
51.963
51.4326
52.5081
53.4773
52.9879
52.758
51.9098
16.6949
22.1301
25.2642
27.9775
30.2878
32.2315
33.8498
35.196
36.3465
37.3695
38.2525
38.7355
37.8993
33.564
26.0761
25.4811
24.8039
27.2134
30.8105
37.8578
42.3538
43.3342
44.5648
44.0308
43.5219
42.0531
40.619
40.744
40.0519
37.1391
35.4466
39.9051
14.4358
19.7141
22.6703
25.229
27.4414
29.3674
31.0652
32.5969
34.0342
35.4502
36.864
38.1566
38.9402
38.2155
34.4899
28.2117
27.517
34.3599
18.0714
18.3687
21.1434
30.1673
24.2415
26.2698
17.6792
20.0221
1.32987
21.7613
26.8923
23.7123
37.3238
42.9815
12.4448
17.4445
20.1475
22.4795
24.5254
26.364
28.0653
29.6951
31.3188
32.9995
34.7782
36.6023
38.2571
39.2778
38.9711
35.0377
27.597
27.0341
22.8925
28.4337
22.7633
35.8525
23.9015
31.1134
32.2348
20.0297
20.2489
25.5288
35.6208
30.4873
34.011
38.43
10.9098
15.5606
17.9932
20.0801
21.9352
23.6505
25.3
26.945
28.6386
30.4288
32.3606
34.4401
36.5728
38.4769
39.6861
39.2668
36.8149
29.9114
32.4731
21.7474
23.7128
34.3768
24.8332
34.0966
27.2501
33.8865
30.1809
35.0027
40.4399
30.654
30.5365
28.1503
9.77794
14.1835
16.3868
18.2676
19.9618
21.5647
23.1436
24.7465
26.4109
28.1728
30.0738
32.1521
34.4074
36.7148
38.7457
39.9361
39.9969
38.3713
34.1998
31.985
28.4247
26.5005
28.7954
30.767
36.2752
35.9446
40.4024
34.8566
34.8229
39.6831
41.1057
41.9511
9.17423
13.3885
15.4307
17.1777
18.7738
20.3049
21.8217
23.3538
24.9243
26.5613
28.3044
30.2055
32.3125
34.6219
36.9906
39.0444
40.3792
40.579
38.7116
38.8601
37.7389
37.033
38.285
38.6529
42.4857
41.9565
44.5855
39.6867
39.9341
43.6327
44.3968
45.0698
8.99565
13.1209
15.0915
16.7895
18.3569
19.8636
21.3406
22.8012
24.2582
25.7346
27.2681
28.9098
30.7209
32.7559
35.0111
37.3289
39.3715
40.6466
40.6053
41.0732
40.8555
40.7688
41.308
41.351
43.4507
43.1396
44.6573
41.1859
41.9207
44.0459
44.4935
44.9472
9.1701
13.2849
15.2572
16.9749
18.5684
20.0889
21.5504
22.9558
24.3135
25.6444
26.9813
28.368
29.8591
31.519
33.405
35.5095
37.68
39.5456
40.6268
41.4798
41.6812
41.7076
41.9125
41.8297
43.0456
42.8465
43.589
41.1508
41.8612
43.1147
43.3491