/*--------------------------------*- C++ -*----------------------------------*\
  =========                 |
  \\      /  F ield         | OpenFOAM: The Open Source CFD Toolbox
   \\    /   O peration     | Website:  https://openfoam.org
    \\  /    A nd           | Version:  6
     \\/     M anipulation  |
\*---------------------------------------------------------------------------*/
FoamFile
{
    version     2.0;
    format      ascii;
    class       volScalarField;
    location    "40";
    object      k;
}
// * * * * * * * * * * * * * * * * * * * * * * * * * * * * * * * * * * * * * //

dimensions      [0 2 -2 0 0 0 0];

internalField   nonuniform List<scalar> 
2880
(
1.60282e-05
1.60283e-05
1.60288e-05
6.61657e-06
6.61687e-06
6.61726e-06
1.07085e-05
1.07093e-05
1.07099e-05
1.52291e-05
1.52303e-05
1.52312e-05
1.97792e-05
1.97806e-05
1.97816e-05
2.43399e-05
2.43415e-05
2.43426e-05
2.89346e-05
2.89363e-05
2.89375e-05
3.35797e-05
3.35815e-05
3.35827e-05
3.82652e-05
3.8267e-05
3.82682e-05
4.29246e-05
4.29262e-05
4.29276e-05
4.74036e-05
4.7405e-05
4.74067e-05
5.14586e-05
5.14596e-05
5.14617e-05
5.47845e-05
5.47849e-05
5.47875e-05
5.71768e-05
5.71766e-05
5.71796e-05
5.85208e-05
5.85201e-05
5.85234e-05
5.85204e-05
5.85197e-05
5.8523e-05
5.71755e-05
5.71753e-05
5.71784e-05
5.47824e-05
5.47829e-05
5.47855e-05
5.1456e-05
5.1457e-05
5.14591e-05
4.74016e-05
4.7403e-05
4.74047e-05
4.29225e-05
4.29241e-05
4.29255e-05
3.82632e-05
3.8265e-05
3.82662e-05
3.35763e-05
3.35782e-05
3.35793e-05
2.89292e-05
2.8931e-05
2.89321e-05
2.43332e-05
2.43348e-05
2.43359e-05
1.97725e-05
1.97739e-05
1.9775e-05
1.52242e-05
1.52253e-05
1.52262e-05
1.07058e-05
1.07065e-05
1.07072e-05
6.61546e-06
6.61575e-06
6.61615e-06
1.60263e-05
1.60264e-05
1.60269e-05
7.16454e-05
7.16458e-05
7.16473e-05
0.000168208
0.000168215
0.000168223
0.000251063
0.000251077
0.000251089
0.000331746
0.000331765
0.000331781
0.000404069
0.00040409
0.000404106
0.000469455
0.000469477
0.000469492
0.000529415
0.000529437
0.000529451
0.000584963
0.000584984
0.000584998
0.000636579
0.000636598
0.000636611
0.000684099
0.000684115
0.000684129
0.000726637
0.00072665
0.000726665
0.000762784
0.000762793
0.000762811
0.000790913
0.000790916
0.000790938
0.000810362
0.00081036
0.000810385
0.000821017
0.000821011
0.000821037
0.000821013
0.000821008
0.000821033
0.000810352
0.00081035
0.000810375
0.000790896
0.0007909
0.000790921
0.000762763
0.000762771
0.00076279
0.000726619
0.000726632
0.000726647
0.000684078
0.000684095
0.000684108
0.000636558
0.000636577
0.00063659
0.000584925
0.000584946
0.000584959
0.000529348
0.00052937
0.000529385
0.000469363
0.000469385
0.0004694
0.000403969
0.000403991
0.000404006
0.000331663
0.000331682
0.000331697
0.000251011
0.000251025
0.000251037
0.000168184
0.000168191
0.000168199
7.16397e-05
7.16401e-05
7.16415e-05
0.000103092
0.000103093
0.000103095
0.000393782
0.000393792
0.000393803
0.000486473
0.000486491
0.000486504
0.000572111
0.000572133
0.000572148
0.000644637
0.000644661
0.000644676
0.000708041
0.000708065
0.000708079
0.000764953
0.000764976
0.000764989
0.000816918
0.00081694
0.000816952
0.000864716
0.000864736
0.000864748
0.000908402
0.00090842
0.000908432
0.000947307
0.000947321
0.000947334
0.000980246
0.000980256
0.000980272
0.00100582
0.00100582
0.00100584
0.00102347
0.00102347
0.00102349
0.00103314
0.00103313
0.00103316
0.00103313
0.00103313
0.00103315
0.00102346
0.00102346
0.00102348
0.0010058
0.00100581
0.00100583
0.000980227
0.000980236
0.000980253
0.000947291
0.000947304
0.000947318
0.000908384
0.000908401
0.000908413
0.000864697
0.000864717
0.000864729
0.000816883
0.000816905
0.000816917
0.00076489
0.000764913
0.000764926
0.000707953
0.000707977
0.000707991
0.00064454
0.000644563
0.000644578
0.000572026
0.000572048
0.000572063
0.000486415
0.000486433
0.000486447
0.000393751
0.00039376
0.000393772
0.000103085
0.000103085
0.000103087
0.000133329
0.00013333
0.000133332
0.000470151
0.000470164
0.000470176
0.000546833
0.000546854
0.000546867
0.000631001
0.000631026
0.000631041
0.000702958
0.000702984
0.000702999
0.000765952
0.000765978
0.000765992
0.000822495
0.00082252
0.000822533
0.000874105
0.000874129
0.000874141
0.000921556
0.000921579
0.00092159
0.00096491
0.00096493
0.000964941
0.00100351
0.00100352
0.00100354
0.00103618
0.00103619
0.00103621
0.00106154
0.00106155
0.00106157
0.00107905
0.00107905
0.00107907
0.00108864
0.00108863
0.00108866
0.00108863
0.00108863
0.00108866
0.00107904
0.00107904
0.00107907
0.00106153
0.00106153
0.00106155
0.00103616
0.00103617
0.00103619
0.00100349
0.00100351
0.00100352
0.000964892
0.000964912
0.000964923
0.000921538
0.00092156
0.000921571
0.00087407
0.000874095
0.000874106
0.000822433
0.000822459
0.000822472
0.000765865
0.000765891
0.000765905
0.000702861
0.000702887
0.000702902
0.000630916
0.000630941
0.000630956
0.000546776
0.000546796
0.00054681
0.00047012
0.000470132
0.000470145
0.00013332
0.00013332
0.000133323
0.000163431
0.000163432
0.000163435
0.000519897
0.000519912
0.000519926
0.000572461
0.000572485
0.000572499
0.000653789
0.000653817
0.000653832
0.00072496
0.00072499
0.000725004
0.000787607
0.000787637
0.00078765
0.000843947
0.000843976
0.000843988
0.000895416
0.000895444
0.000895455
0.00094276
0.000942785
0.000942796
0.00098603
0.000986052
0.000986063
0.00102456
0.00102458
0.0010246
0.00105719
0.00105721
0.00105722
0.00108252
0.00108253
0.00108255
0.00110001
0.00110002
0.00110004
0.00110959
0.00110959
0.00110962
0.00110959
0.00110959
0.00110962
0.0011
0.00110001
0.00110003
0.00108251
0.00108252
0.00108254
0.00105717
0.00105719
0.0010572
0.00102455
0.00102457
0.00102458
0.000986012
0.000986035
0.000986046
0.000942742
0.000942767
0.000942778
0.000895382
0.00089541
0.000895421
0.000843886
0.000843915
0.000843927
0.000787521
0.00078755
0.000787564
0.000724864
0.000724894
0.000724908
0.000653704
0.000653733
0.000653747
0.000572404
0.000572428
0.000572442
0.000519866
0.000519881
0.000519895
0.00016342
0.000163421
0.000163424
0.000194046
0.000194047
0.00019405
0.000565534
0.000565553
0.000565568
0.000587601
0.00058763
0.000587644
0.000664038
0.000664071
0.000664086
0.000733905
0.000733939
0.000733953
0.000796063
0.000796097
0.00079611
0.000852184
0.000852216
0.000852228
0.000903544
0.000903575
0.000903586
0.000950836
0.000950865
0.000950875
0.000994089
0.000994115
0.000994126
0.00103263
0.00103265
0.00103266
0.00106528
0.0010653
0.00106531
0.00109063
0.00109064
0.00109066
0.00110814
0.00110815
0.00110817
0.00111774
0.00111774
0.00111776
0.00111773
0.00111774
0.00111776
0.00110813
0.00110814
0.00110816
0.00109061
0.00109063
0.00109065
0.00106526
0.00106528
0.00106529
0.00103262
0.00103264
0.00103265
0.000994072
0.000994098
0.000994109
0.000950819
0.000950848
0.000950858
0.000903511
0.000903542
0.000903553
0.000852123
0.000852156
0.000852168
0.000795977
0.000796011
0.000796024
0.000733809
0.000733843
0.000733857
0.000663954
0.000663987
0.000664001
0.000587544
0.000587573
0.000587587
0.000565504
0.000565522
0.000565538
0.000194032
0.000194034
0.000194037
0.000225619
0.000225621
0.000225625
0.000612208
0.000612231
0.000612248
0.000600226
0.00060026
0.000600274
0.00066913
0.000669168
0.000669183
0.000736863
0.000736903
0.000736916
0.000798234
0.000798273
0.000798285
0.00085402
0.000854057
0.000854068
0.000905231
0.000905266
0.000905276
0.000952464
0.000952497
0.000952506
0.00099571
0.00099574
0.00099575
0.00103428
0.0010343
0.00103431
0.00106696
0.00106699
0.001067
0.00109236
0.00109237
0.00109239
0.00110991
0.00110992
0.00110994
0.00111952
0.00111953
0.00111956
0.00111952
0.00111953
0.00111955
0.0011099
0.00110991
0.00110993
0.00109234
0.00109236
0.00109238
0.00106695
0.00106697
0.00106698
0.00103426
0.00103429
0.0010343
0.000995694
0.000995723
0.000995733
0.000952447
0.00095248
0.00095249
0.000905198
0.000905233
0.000905244
0.000853961
0.000853998
0.000854009
0.000798149
0.000798187
0.0007982
0.000736767
0.000736807
0.00073682
0.000669046
0.000669084
0.000669098
0.00060017
0.000600204
0.000600218
0.000612179
0.0006122
0.000612218
0.000225605
0.000225606
0.00022561
0.000258453
0.000258455
0.000258459
0.000660166
0.000660191
0.000660211
0.000613822
0.000613861
0.000613877
0.000672214
0.000672258
0.000672272
0.000736677
0.000736722
0.000736735
0.000796817
0.000796861
0.000796873
0.000852077
0.000852119
0.00085213
0.000903051
0.000903091
0.000903101
0.000950187
0.000950224
0.000950233
0.000993413
0.000993446
0.000993456
0.001032
0.00103203
0.00103204
0.00106474
0.00106476
0.00106478
0.00109018
0.0010902
0.00109022
0.00110777
0.00110778
0.00110781
0.00111742
0.00111742
0.00111745
0.00111741
0.00111742
0.00111745
0.00110776
0.00110777
0.0011078
0.00109017
0.00109019
0.0010902
0.00106472
0.00106475
0.00106476
0.00103199
0.00103202
0.00103203
0.000993397
0.00099343
0.00099344
0.000950171
0.000950208
0.000950217
0.00090302
0.000903059
0.000903069
0.000852019
0.00085206
0.000852071
0.000796733
0.000796776
0.000796788
0.000736581
0.000736626
0.000736639
0.000672129
0.000672174
0.000672188
0.000613767
0.000613806
0.000613822
0.000660136
0.000660161
0.000660181
0.000258436
0.000258438
0.000258443
0.000292696
0.000292698
0.000292704
0.000708085
0.000708113
0.000708135
0.000630131
0.000630176
0.000630193
0.000675035
0.000675086
0.000675101
0.000734788
0.000734838
0.000734851
0.000793091
0.000793139
0.000793151
0.000847554
0.0008476
0.000847611
0.000898163
0.000898207
0.000898217
0.000945139
0.00094518
0.000945188
0.000988314
0.000988352
0.000988361
0.00102692
0.00102695
0.00102696
0.0010597
0.00105973
0.00105974
0.00108519
0.00108521
0.00108523
0.00110282
0.00110284
0.00110286
0.0011125
0.00111251
0.00111254
0.00111249
0.00111251
0.00111253
0.00110281
0.00110283
0.00110285
0.00108517
0.0010852
0.00108522
0.00105968
0.00105971
0.00105972
0.0010269
0.00102694
0.00102695
0.000988299
0.000988337
0.000988346
0.000945124
0.000945165
0.000945173
0.000898133
0.000898177
0.000898186
0.000847497
0.000847543
0.000847554
0.000793007
0.000793055
0.000793067
0.000734692
0.000734743
0.000734756
0.000674951
0.000675001
0.000675017
0.000630077
0.000630122
0.000630139
0.000708055
0.000708083
0.000708105
0.000292678
0.00029268
0.000292685
0.00032833
0.000328332
0.000328338
0.000754201
0.000754232
0.000754255
0.000649941
0.000649992
0.000650011
0.00067877
0.000678827
0.000678843
0.000732101
0.000732158
0.000732172
0.000787775
0.000787829
0.000787841
0.000841077
0.000841128
0.000841139
0.000891145
0.000891194
0.000891202
0.000937872
0.000937917
0.000937926
0.000980954
0.000980996
0.000981005
0.00101955
0.00101959
0.0010196
0.00105236
0.0010524
0.00105241
0.0010779
0.00107793
0.00107794
0.00109557
0.0010956
0.00109562
0.00110528
0.0011053
0.00110532
0.00110528
0.00110529
0.00110532
0.00109556
0.00109559
0.00109561
0.00107788
0.00107792
0.00107793
0.00105235
0.00105238
0.00105239
0.00101954
0.00101958
0.00101959
0.00098094
0.000980982
0.00098099
0.000937858
0.000937904
0.000937912
0.000891116
0.000891164
0.000891173
0.000841022
0.000841073
0.000841083
0.000787693
0.000787746
0.000787758
0.000732006
0.000732063
0.000732077
0.000678686
0.000678743
0.000678759
0.000649889
0.00064994
0.000649959
0.00075417
0.0007542
0.000754224
0.000328309
0.000328312
0.000328318
0.000365149
0.000365152
0.000365158
0.000796743
0.000796776
0.000796801
0.000673369
0.000673426
0.000673448
0.00068429
0.000684353
0.000684372
0.000729305
0.000729367
0.000729382
0.000781355
0.000781414
0.000781426
0.000833016
0.000833071
0.000833082
0.000882306
0.000882359
0.000882368
0.000928666
0.000928715
0.000928723
0.000971593
0.000971639
0.000971647
0.00101015
0.00101019
0.0010102
0.00104298
0.00104302
0.00104303
0.00106855
0.00106859
0.0010686
0.00108626
0.00108629
0.00108631
0.001096
0.00109602
0.00109605
0.001096
0.00109602
0.00109605
0.00108625
0.00108628
0.00108631
0.00106854
0.00106858
0.00106859
0.00104297
0.00104301
0.00104302
0.00101014
0.00101018
0.00101019
0.00097158
0.000971626
0.000971634
0.000928653
0.000928703
0.000928711
0.000882279
0.000882331
0.00088234
0.000832962
0.000833017
0.000833027
0.000781273
0.000781332
0.000781345
0.00072921
0.000729272
0.000729287
0.000684206
0.00068427
0.000684288
0.000673319
0.000673376
0.000673397
0.000796711
0.000796744
0.000796769
0.000365126
0.000365129
0.000365136
0.000402769
0.000402772
0.000402779
0.000834139
0.000834174
0.0008342
0.000700003
0.000700065
0.000700089
0.000692232
0.000692302
0.000692323
0.000726988
0.000727057
0.000727073
0.000774214
0.000774278
0.000774291
0.000823617
0.000823676
0.000823687
0.00087182
0.000871877
0.000871886
0.000917654
0.000917707
0.000917715
0.000960344
0.000960394
0.000960402
0.000998818
0.000998866
0.000998875
0.00103165
0.00103169
0.0010317
0.00105724
0.00105728
0.0010573
0.00107498
0.00107501
0.00107503
0.00108474
0.00108477
0.0010848
0.00108474
0.00108477
0.00108479
0.00107497
0.00107501
0.00107503
0.00105723
0.00105727
0.00105728
0.00103163
0.00103168
0.00103169
0.000998807
0.000998855
0.000998864
0.000960332
0.000960382
0.00096039
0.000917643
0.000917696
0.000917704
0.000871795
0.000871852
0.00087186
0.000823565
0.000823624
0.000823635
0.000774134
0.000774198
0.000774211
0.000726894
0.000726962
0.000726979
0.000692149
0.000692219
0.00069224
0.000699954
0.000700016
0.00070004
0.000834106
0.00083414
0.000834166
0.000402744
0.000402747
0.000402754
0.000440656
0.000440659
0.000440667
0.000865124
0.00086516
0.000865186
0.000729001
0.000729066
0.000729093
0.000702987
0.000703063
0.000703087
0.000725688
0.000725762
0.000725781
0.000766705
0.000766774
0.000766789
0.000813076
0.00081314
0.000813151
0.000859791
0.000859851
0.00085986
0.00090489
0.000904947
0.000904955
0.000947234
0.000947288
0.000947296
0.000985567
0.000985619
0.000985627
0.00101836
0.00101841
0.00101842
0.00104395
0.001044
0.00104401
0.00106171
0.00106175
0.00106177
0.00107149
0.00107153
0.00107155
0.00107149
0.00107153
0.00107155
0.0010617
0.00106174
0.00106176
0.00104394
0.00104399
0.001044
0.00101835
0.0010184
0.00101841
0.000985557
0.000985609
0.000985618
0.000947223
0.000947277
0.000947285
0.000904881
0.000904938
0.000904946
0.000859768
0.000859828
0.000859837
0.000813027
0.00081309
0.000813102
0.000766627
0.000766695
0.00076671
0.000725593
0.000725667
0.000725686
0.000702905
0.000702981
0.000703005
0.000728954
0.000729019
0.000729046
0.000865088
0.000865123
0.00086515
0.000440629
0.000440632
0.00044064
0.000478188
0.000478191
0.000478199
0.000888812
0.000888849
0.000888876
0.000759188
0.000759256
0.000759285
0.000716661
0.000716742
0.00071677
0.000725877
0.000725957
0.000725979
0.000759178
0.000759251
0.000759267
0.000801574
0.000801641
0.000801654
0.000846286
0.000846349
0.000846359
0.00089038
0.00089044
0.000890449
0.000932234
0.000932291
0.0009323
0.000970347
0.000970403
0.000970412
0.00100306
0.00100311
0.00100313
0.00102863
0.00102868
0.00102869
0.00104638
0.00104643
0.00104645
0.00105618
0.00105622
0.00105624
0.00105618
0.00105622
0.00105624
0.00104637
0.00104642
0.00104644
0.00102862
0.00102867
0.00102868
0.00100305
0.0010031
0.00100311
0.000970339
0.000970394
0.000970404
0.000932225
0.000932281
0.00093229
0.000890374
0.000890433
0.000890442
0.000846267
0.000846329
0.00084634
0.000801528
0.000801594
0.000801608
0.000759101
0.000759173
0.00075919
0.000725783
0.000725862
0.000725885
0.00071658
0.000716661
0.000716689
0.000759141
0.000759209
0.000759239
0.000888774
0.00088881
0.000888837
0.000478157
0.000478161
0.000478169
0.000514734
0.000514737
0.000514746
0.000904747
0.000904784
0.000904811
0.000789149
0.000789218
0.000789251
0.000733039
0.000733124
0.000733156
0.000727937
0.000728021
0.000728047
0.000751987
0.000752063
0.000752082
0.0007893
0.000789369
0.000789384
0.000831365
0.000831429
0.000831441
0.000874104
0.000874165
0.000874175
0.000915279
0.000915338
0.000915348
0.00095307
0.000953128
0.000953138
0.000985643
0.0009857
0.000985712
0.00101114
0.0010112
0.00101122
0.00102887
0.00102893
0.00102895
0.00103868
0.00103872
0.00103875
0.00103867
0.00103872
0.00103875
0.00102887
0.00102892
0.00102894
0.00101113
0.00101119
0.00101121
0.000985631
0.000985688
0.0009857
0.000953063
0.000953121
0.000953131
0.000915272
0.00091533
0.00091534
0.0008741
0.000874161
0.000874171
0.000831349
0.000831413
0.000831425
0.000789257
0.000789325
0.00078934
0.000751911
0.000751987
0.000752007
0.000727843
0.000727926
0.000727953
0.000732959
0.000733044
0.000733076
0.000789103
0.000789172
0.000789205
0.000904706
0.000904742
0.00090477
0.0005147
0.000514703
0.000514712
0.000549746
0.00054975
0.000549759
0.000912928
0.000912965
0.000912992
0.000817334
0.000817404
0.000817439
0.000751566
0.000751653
0.000751689
0.000732097
0.000732184
0.000732215
0.000745481
0.00074556
0.000745583
0.000776461
0.000776531
0.000776549
0.000815089
0.000815154
0.000815168
0.000856027
0.000856088
0.0008561
0.00089628
0.00089634
0.000896351
0.000933614
0.000933673
0.000933684
0.000965969
0.000966029
0.000966041
0.000991356
0.000991416
0.000991432
0.00100903
0.00100909
0.00100911
0.00101882
0.00101888
0.0010189
0.00101882
0.00101887
0.0010189
0.00100903
0.00100908
0.0010091
0.000991348
0.000991408
0.000991423
0.000965958
0.000966018
0.00096603
0.000933608
0.000933667
0.000933678
0.000896275
0.000896334
0.000896345
0.000856026
0.000856088
0.000856099
0.000815077
0.000815142
0.000815156
0.000776421
0.000776491
0.000776509
0.000745407
0.000745486
0.000745509
0.000732003
0.00073209
0.000732121
0.000751488
0.000751575
0.000751612
0.000817288
0.000817358
0.000817393
0.000912884
0.000912921
0.000912948
0.000549708
0.000549712
0.000549721
0.000582838
0.000582842
0.000582851
0.000913824
0.00091386
0.000913888
0.000842175
0.000842243
0.00084228
0.000771353
0.000771441
0.000771482
0.00073838
0.000738468
0.000738504
0.000739978
0.000740058
0.000740085
0.00076329
0.00076336
0.000763381
0.00079754
0.000797604
0.00079762
0.000836115
0.000836176
0.000836189
0.000875132
0.000875192
0.000875204
0.000911833
0.000911893
0.000911905
0.000943869
0.00094393
0.000943943
0.00096908
0.000969142
0.000969158
0.000986662
0.000986723
0.000986743
0.000996423
0.00099648
0.000996503
0.000996421
0.000996478
0.000996501
0.000986657
0.000986717
0.000986738
0.000969072
0.000969134
0.00096915
0.00094386
0.000943921
0.000943934
0.000911829
0.000911889
0.0009119
0.000875129
0.000875188
0.0008752
0.000836118
0.000836179
0.000836192
0.000797532
0.000797596
0.000797612
0.000763254
0.000763324
0.000763345
0.000739906
0.000739985
0.000740012
0.000738286
0.000738374
0.000738411
0.000771277
0.000771364
0.000771406
0.000842128
0.000842196
0.000842234
0.000913776
0.000913813
0.00091384
0.000582796
0.000582799
0.000582808
0.000613828
0.000613832
0.000613841
0.000908358
0.000908395
0.000908422
0.000862217
0.000862283
0.000862322
0.000791218
0.000791303
0.000791348
0.000746538
0.000746626
0.000746667
0.000735713
0.000735792
0.000735824
0.000750036
0.000750105
0.00075013
0.000778823
0.000778885
0.000778904
0.000814344
0.000814403
0.000814419
0.000851725
0.000851783
0.000851796
0.000887566
0.000887625
0.000887638
0.000919152
0.000919212
0.000919227
0.000944103
0.000944166
0.000944184
0.000961543
0.000961605
0.000961626
0.00097125
0.000971309
0.000971332
0.000971248
0.000971307
0.000971331
0.000961538
0.0009616
0.000961621
0.000944097
0.00094416
0.000944177
0.000919143
0.000919204
0.000919218
0.000887563
0.000887622
0.000887635
0.000851724
0.000851781
0.000851795
0.000814352
0.00081441
0.000814426
0.00077882
0.000778882
0.000778901
0.000750004
0.000750073
0.000750097
0.000735641
0.00073572
0.000735753
0.000746445
0.000746533
0.000746574
0.000791143
0.000791228
0.000791274
0.000862169
0.000862234
0.000862273
0.000908307
0.000908343
0.00090837
0.00061378
0.000613784
0.000613793
0.000642748
0.000642751
0.00064276
0.000897868
0.000897903
0.00089793
0.000876265
0.000876327
0.000876367
0.000809753
0.000809835
0.000809883
0.000756017
0.000756102
0.000756149
0.000732783
0.00073286
0.000732898
0.000736947
0.000737013
0.000737041
0.00075908
0.000759138
0.00075916
0.000790714
0.000790769
0.000790787
0.000825952
0.000826005
0.000826022
0.000860641
0.000860696
0.000860712
0.000891605
0.000891663
0.00089168
0.000916193
0.000916255
0.000916274
0.000933425
0.000933487
0.00093351
0.000943048
0.000943107
0.000943132
0.000943046
0.000943106
0.00094313
0.000933421
0.000933482
0.000933505
0.000916187
0.000916249
0.000916268
0.000891598
0.000891656
0.000891672
0.000860639
0.000860694
0.00086071
0.000825953
0.000826007
0.000826023
0.000790726
0.00079078
0.000790798
0.000759082
0.000759141
0.000759162
0.000736917
0.000736983
0.000737011
0.000732712
0.000732789
0.000732826
0.000755925
0.00075601
0.000756057
0.000809679
0.000809761
0.00080981
0.000876214
0.000876275
0.000876316
0.000897812
0.000897847
0.000897874
0.000642694
0.000642697
0.000642706
0.000669805
0.000669808
0.000669816
0.00088401
0.000884044
0.000884069
0.00088352
0.000883577
0.000883618
0.000825439
0.000825516
0.000825567
0.000765944
0.000766025
0.000766075
0.000731083
0.000731155
0.000731198
0.00072423
0.000724292
0.000724324
0.000738483
0.000738536
0.000738562
0.000765256
0.000765305
0.000765326
0.000797721
0.000797769
0.000797788
0.000830882
0.000830932
0.00083095
0.000861005
0.000861058
0.000861077
0.000885095
0.000885153
0.000885175
0.00090204
0.000902099
0.000902124
0.000911539
0.000911596
0.000911623
0.000911538
0.000911595
0.000911621
0.000902036
0.000902095
0.00090212
0.000885091
0.000885149
0.00088517
0.000860999
0.000861053
0.000861071
0.000830882
0.000830932
0.00083095
0.000797726
0.000797774
0.000797792
0.000765272
0.000765321
0.000765342
0.00073849
0.000738543
0.000738568
0.000724203
0.000724265
0.000724297
0.000731012
0.000731084
0.000731127
0.000765852
0.000765932
0.000765984
0.000825366
0.000825443
0.000825494
0.000883464
0.000883521
0.000883563
0.000883948
0.000883982
0.000884008
0.000669744
0.000669747
0.000669756
0.000695315
0.000695318
0.000695326
0.000868619
0.00086865
0.000868676
0.000883697
0.000883748
0.00088379
0.000836786
0.000836856
0.000836908
0.000775154
0.000775228
0.000775282
0.000730244
0.00073031
0.000730358
0.00071201
0.000712065
0.000712102
0.000717229
0.000717276
0.000717305
0.000738048
0.00073809
0.000738113
0.000766972
0.000767014
0.000767034
0.000798128
0.000798172
0.000798192
0.000827123
0.000827171
0.000827191
0.000850545
0.000850597
0.000850621
0.0008671
0.000867154
0.000867181
0.000876427
0.00087648
0.000876508
0.000876426
0.000876479
0.000876507
0.000867096
0.000867151
0.000867177
0.000850542
0.000850594
0.000850617
0.000827119
0.000827167
0.000827187
0.00079813
0.000798173
0.000798193
0.00076698
0.000767021
0.000767042
0.000738069
0.000738111
0.000738134
0.00071724
0.000717287
0.000717315
0.000711984
0.00071204
0.000712076
0.000730173
0.000730239
0.000730287
0.000775062
0.000775136
0.000775191
0.000836711
0.000836781
0.000836835
0.000883636
0.000883687
0.000883729
0.000868551
0.000868582
0.000868608
0.000695248
0.000695251
0.000695259
0.000719619
0.000719622
0.00071963
0.000853516
0.000853545
0.00085357
0.00087709
0.000877134
0.000877177
0.000842491
0.000842552
0.000842606
0.000782266
0.000782332
0.000782389
0.000729601
0.00072966
0.000729711
0.000700263
0.000700311
0.000700352
0.000695519
0.000695559
0.00069559
0.000709225
0.000709259
0.000709285
0.000733694
0.000733728
0.00073375
0.000762244
0.00076228
0.000762302
0.000789745
0.000789785
0.000789807
0.000812278
0.000812323
0.000812348
0.000828314
0.000828362
0.000828391
0.000837409
0.000837456
0.000837485
0.000837408
0.000837455
0.000837484
0.000828312
0.00082836
0.000828388
0.000812276
0.000812321
0.000812346
0.000789743
0.000789783
0.000789805
0.000762247
0.000762283
0.000762305
0.000733706
0.000733739
0.000733761
0.000709249
0.000709284
0.000709309
0.000695532
0.000695571
0.000695603
0.000700237
0.000700285
0.000700326
0.000729529
0.000729588
0.000729639
0.000782173
0.000782239
0.000782297
0.000842414
0.000842475
0.00084253
0.000877022
0.000877066
0.000877109
0.00085344
0.000853469
0.000853495
0.000719545
0.000719547
0.000719555
0.000743005
0.000743007
0.000743015
0.000840298
0.000840324
0.000840349
0.000864569
0.000864605
0.000864648
0.000841608
0.00084166
0.000841714
0.000785808
0.000785865
0.000785923
0.000728198
0.000728248
0.000728301
0.000688767
0.000688807
0.00068885
0.000673526
0.000673557
0.00067359
0.000678986
0.000679012
0.000679039
0.000697951
0.000697976
0.000698
0.00072315
0.000723177
0.0007232
0.000748688
0.000748718
0.000748742
0.000770051
0.000770087
0.000770113
0.000785408
0.000785447
0.000785476
0.000794192
0.000794231
0.000794261
0.000794192
0.00079423
0.00079426
0.000785406
0.000785445
0.000785475
0.000770051
0.000770086
0.000770113
0.000748688
0.000748718
0.000748741
0.000723155
0.000723182
0.000723204
0.000697966
0.000697991
0.000698014
0.000679013
0.000679039
0.000679066
0.000673539
0.00067357
0.000673603
0.000688739
0.000688778
0.000688821
0.000728122
0.000728172
0.000728226
0.000785713
0.00078577
0.000785829
0.000841526
0.000841579
0.000841634
0.000864492
0.000864528
0.000864571
0.000840215
0.000840241
0.000840266
0.000742923
0.000742925
0.000742933
0.000765653
0.000765655
0.000765662
0.000830159
0.000830183
0.000830207
0.000847488
0.000847517
0.000847559
0.000833695
0.000833738
0.000833791
0.000784381
0.000784428
0.000784486
0.000724841
0.000724882
0.000724937
0.00067706
0.000677091
0.000677136
0.000651356
0.000651379
0.000651413
0.000647598
0.000647617
0.000647643
0.00065991
0.000659927
0.00065995
0.000680855
0.000680873
0.000680895
0.000703835
0.000703856
0.000703879
0.000723674
0.000723699
0.000723725
0.000738149
0.000738177
0.000738207
0.000746529
0.000746558
0.000746588
0.000746529
0.000746558
0.000746588
0.000738149
0.000738177
0.000738207
0.000723675
0.000723701
0.000723727
0.000703837
0.000703858
0.000703881
0.00068086
0.000680878
0.0006809
0.000659927
0.000659943
0.000659966
0.000647625
0.000647644
0.00064767
0.000651366
0.000651389
0.000651423
0.000677027
0.000677057
0.000677102
0.000724761
0.000724802
0.000724857
0.000784281
0.000784329
0.000784388
0.000833606
0.00083365
0.000833704
0.0008474
0.000847429
0.000847472
0.000830067
0.000830091
0.000830115
0.000765563
0.000765565
0.000765572
0.000787607
0.000787609
0.000787616
0.000823782
0.000823805
0.000823827
0.000827529
0.000827552
0.000827593
0.000818913
0.000818947
0.000819
0.000776856
0.000776894
0.000776951
0.000718234
0.000718266
0.000718319
0.000664456
0.000664479
0.000664522
0.00062902
0.000629036
0.000629069
0.000615398
0.00061541
0.000615434
0.000619878
0.000619888
0.000619909
0.000635504
0.000635514
0.000635535
0.000655188
0.0006552
0.000655222
0.000673056
0.000673072
0.000673097
0.000686401
0.00068642
0.000686448
0.000694261
0.000694281
0.000694309
0.000694262
0.000694281
0.00069431
0.000686402
0.000686421
0.00068645
0.00067306
0.000673076
0.000673101
0.000655192
0.000655204
0.000655226
0.00063551
0.00063552
0.00063554
0.000619896
0.000619905
0.000619926
0.000615422
0.000615433
0.000615458
0.000629022
0.000629038
0.000629071
0.000664413
0.000664436
0.000664479
0.000718146
0.000718178
0.000718232
0.000776749
0.000776787
0.000776845
0.000818815
0.00081885
0.000818903
0.00082743
0.000827452
0.000827495
0.000823683
0.000823706
0.000823729
0.00078751
0.000787512
0.000787519
0.000808774
0.000808775
0.000808782
0.000821333
0.000821357
0.000821379
0.000806496
0.000806513
0.000806554
0.00079807
0.000798096
0.000798147
0.00076259
0.000762619
0.000762673
0.000707167
0.00070719
0.000707241
0.000650119
0.000650135
0.000650175
0.000606423
0.000606434
0.000606463
0.000582795
0.000582802
0.000582823
0.000578352
0.000578357
0.000578373
0.000587454
0.000587458
0.000587474
0.000602944
0.000602949
0.000602967
0.000618293
0.000618301
0.000618322
0.000630204
0.000630214
0.000630239
0.000637406
0.000637417
0.000637442
0.000637407
0.000637418
0.000637443
0.000630208
0.000630218
0.000630243
0.000618299
0.000618307
0.000618328
0.000602949
0.000602955
0.000602972
0.000587459
0.000587463
0.000587479
0.000578367
0.000578372
0.000578388
0.00058281
0.000582817
0.000582838
0.000606412
0.000606423
0.000606452
0.000650062
0.000650078
0.000650119
0.000707067
0.000707091
0.000707142
0.000762472
0.000762501
0.000762556
0.00079796
0.000797986
0.000798039
0.000806385
0.000806403
0.000806443
0.000821229
0.000821253
0.000821275
0.00080867
0.000808671
0.000808678
0.000828928
0.00082893
0.000828937
0.000822532
0.000822558
0.000822579
0.000786103
0.000786118
0.000786156
0.000772588
0.000772608
0.000772657
0.00074163
0.000741652
0.000741702
0.000690792
0.000690809
0.000690854
0.000633248
0.000633259
0.000633294
0.000583423
0.00058343
0.000583454
0.000550291
0.000550296
0.000550312
0.000536075
0.000536078
0.000536089
0.000537368
0.000537369
0.000537379
0.000547609
0.00054761
0.000547622
0.000559782
0.000559785
0.0005598
0.000569903
0.000569908
0.000569927
0.000576285
0.00057629
0.000576309
0.000576287
0.000576292
0.000576311
0.000569909
0.000569914
0.000569933
0.000559791
0.000559794
0.000559809
0.000547615
0.000547616
0.000547628
0.000537369
0.00053737
0.000537381
0.000536085
0.000536087
0.000536098
0.000550292
0.000550297
0.000550313
0.000583393
0.0005834
0.000583424
0.000633172
0.000633183
0.000633218
0.000690676
0.000690693
0.000690739
0.000741497
0.00074152
0.000741571
0.000772464
0.000772485
0.000772535
0.000785981
0.000785996
0.000786035
0.000822425
0.000822451
0.000822472
0.000828819
0.00082882
0.000828827
0.000847726
0.000847728
0.000847736
0.000826752
0.000826781
0.000826801
0.000767808
0.000767822
0.000767859
0.000744428
0.000744444
0.00074449
0.000714906
0.000714923
0.000714969
0.000668958
0.000668971
0.00066901
0.000613368
0.000613375
0.000613405
0.000559977
0.000559982
0.000560001
0.000518544
0.000518548
0.000518559
0.000494131
0.000494132
0.000494139
0.000486365
0.000486364
0.000486369
0.000490188
0.000490185
0.000490192
0.000498436
0.000498434
0.000498444
0.000506365
0.000506365
0.000506377
0.000511745
0.000511746
0.000511759
0.000511749
0.00051175
0.000511762
0.000506374
0.000506374
0.000506386
0.000498447
0.000498446
0.000498455
0.000490193
0.00049019
0.000490197
0.000486361
0.000486359
0.000486365
0.000494129
0.000494131
0.000494137
0.000518524
0.000518528
0.000518539
0.000559921
0.000559926