/*--------------------------------*- C++ -*----------------------------------*\
  =========                 |
  \\      /  F ield         | OpenFOAM: The Open Source CFD Toolbox
   \\    /   O peration     | Website:  https://openfoam.org
    \\  /    A nd           | Version:  6
     \\/     M anipulation  |
\*---------------------------------------------------------------------------*/
FoamFile
{
    version     2.0;
    format      ascii;
    class       volScalarField;
    location    "40";
    object      nut;
}
// * * * * * * * * * * * * * * * * * * * * * * * * * * * * * * * * * * * * * //

dimensions      [0 2 -1 0 0 0 0];

internalField   nonuniform List<scalar> 
2880
(
2.17459e-08
2.1746e-08
2.17467e-08
4.49781e-09
4.49801e-09
4.49828e-09
7.27942e-09
7.27994e-09
7.28038e-09
1.03524e-08
1.03532e-08
1.03538e-08
1.34455e-08
1.34464e-08
1.34471e-08
1.65458e-08
1.65469e-08
1.65476e-08
1.96691e-08
1.96703e-08
1.96711e-08
2.28268e-08
2.2828e-08
2.28288e-08
2.60119e-08
2.60131e-08
2.60139e-08
2.91792e-08
2.91804e-08
2.91813e-08
3.2224e-08
3.22249e-08
3.22261e-08
3.49805e-08
3.49811e-08
3.49826e-08
3.72413e-08
3.72416e-08
3.72434e-08
3.88676e-08
3.88674e-08
3.88695e-08
3.97812e-08
3.97808e-08
3.9783e-08
3.9781e-08
3.97805e-08
3.97827e-08
3.88667e-08
3.88666e-08
3.88686e-08
3.72399e-08
3.72402e-08
3.7242e-08
3.49787e-08
3.49794e-08
3.49808e-08
3.22226e-08
3.22236e-08
3.22247e-08
2.91778e-08
2.91789e-08
2.91799e-08
2.60105e-08
2.60117e-08
2.60126e-08
2.28245e-08
2.28257e-08
2.28265e-08
1.96655e-08
1.96667e-08
1.96674e-08
1.65412e-08
1.65423e-08
1.6543e-08
1.3441e-08
1.34419e-08
1.34426e-08
1.03491e-08
1.03498e-08
1.03504e-08
7.27756e-09
7.27807e-09
7.27851e-09
4.49705e-09
4.49725e-09
4.49752e-09
2.17432e-08
2.17434e-08
2.1744e-08
1.10267e-05
1.10267e-05
1.10268e-05
4.8719e-07
4.87208e-07
4.8723e-07
6.88277e-07
6.88315e-07
6.88344e-07
8.80325e-07
8.80372e-07
8.80408e-07
1.04771e-06
1.04777e-06
1.0478e-06
1.19572e-06
1.19577e-06
1.1958e-06
1.32898e-06
1.32903e-06
1.32907e-06
1.45056e-06
1.45061e-06
1.45064e-06
1.56205e-06
1.5621e-06
1.56212e-06
1.66354e-06
1.66358e-06
1.66361e-06
1.75352e-06
1.75354e-06
1.75357e-06
1.82936e-06
1.82937e-06
1.82941e-06
1.88801e-06
1.88801e-06
1.88806e-06
1.92838e-06
1.92838e-06
1.92843e-06
1.95045e-06
1.95043e-06
1.95049e-06
1.95044e-06
1.95043e-06
1.95048e-06
1.92836e-06
1.92835e-06
1.92841e-06
1.88797e-06
1.88798e-06
1.88802e-06
1.82931e-06
1.82933e-06
1.82937e-06
1.75348e-06
1.75351e-06
1.75354e-06
1.6635e-06
1.66353e-06
1.66356e-06
1.56201e-06
1.56205e-06
1.56208e-06
1.45048e-06
1.45053e-06
1.45056e-06
1.32884e-06
1.32889e-06
1.32892e-06
1.19551e-06
1.19556e-06
1.1956e-06
1.04749e-06
1.04754e-06
1.04757e-06
8.80131e-07
8.80178e-07
8.80214e-07
6.88152e-07
6.88189e-07
6.88218e-07
4.87129e-07
4.87147e-07
4.87169e-07
1.10262e-05
1.10262e-05
1.10264e-05
1.32271e-05
1.32271e-05
1.32272e-05
2.57152e-06
2.57159e-06
2.57165e-06
2.94353e-06
2.94363e-06
2.9437e-06
3.32752e-06
3.32764e-06
3.32771e-06
3.64553e-06
3.64566e-06
3.64573e-06
3.91696e-06
3.91709e-06
3.91714e-06
4.15552e-06
4.15565e-06
4.1557e-06
4.36946e-06
4.36957e-06
4.36962e-06
4.56322e-06
4.56332e-06
4.56336e-06
4.73798e-06
4.73806e-06
4.73811e-06
4.89188e-06
4.89193e-06
4.89198e-06
5.02094e-06
5.02097e-06
5.02103e-06
5.1204e-06
5.1204e-06
5.12048e-06
5.18879e-06
5.18876e-06
5.18885e-06
5.22618e-06
5.22613e-06
5.22623e-06
5.22617e-06
5.22612e-06
5.22622e-06
5.18876e-06
5.18873e-06
5.18882e-06
5.12035e-06
5.12035e-06
5.12043e-06
5.02088e-06
5.0209e-06
5.02097e-06
4.89183e-06
4.89188e-06
4.89193e-06
4.73792e-06
4.738e-06
4.73804e-06
4.56315e-06
4.56325e-06
4.56329e-06
4.36933e-06
4.36944e-06
4.36948e-06
4.15528e-06
4.1554e-06
4.15545e-06
3.9166e-06
3.91673e-06
3.91678e-06
3.64512e-06
3.64525e-06
3.64532e-06
3.32715e-06
3.32728e-06
3.32735e-06
2.94327e-06
2.94338e-06
2.94344e-06
2.57138e-06
2.57145e-06
2.57151e-06
1.32266e-05
1.32266e-05
1.32267e-05
1.50422e-05
1.50423e-05
1.50424e-05
5.47615e-06
5.47631e-06
5.47644e-06
5.78305e-06
5.78328e-06
5.78338e-06
6.35221e-06
6.35246e-06
6.35257e-06
6.8393e-06
6.83956e-06
6.83966e-06
7.25742e-06
7.25767e-06
7.25776e-06
7.62516e-06
7.6254e-06
7.62548e-06
7.95481e-06
7.95503e-06
7.9551e-06
8.25323e-06
8.25342e-06
8.25349e-06
8.5223e-06
8.52246e-06
8.52253e-06
8.75918e-06
8.75929e-06
8.75937e-06
8.95774e-06
8.9578e-06
8.9579e-06
9.11079e-06
9.11078e-06
9.11092e-06
9.21619e-06
9.21613e-06
9.21629e-06
9.27399e-06
9.27388e-06
9.27406e-06
9.27398e-06
9.27386e-06
9.27404e-06
9.21615e-06
9.21608e-06
9.21625e-06
9.11072e-06
9.11072e-06
9.11085e-06
8.95766e-06
8.95772e-06
8.95782e-06
8.75912e-06
8.75924e-06
8.75931e-06
8.52223e-06
8.52239e-06
8.52245e-06
8.25315e-06
8.25334e-06
8.25341e-06
7.95463e-06
7.95485e-06
7.95492e-06
7.6248e-06
7.62504e-06
7.62512e-06
7.25689e-06
7.25713e-06
7.25723e-06
6.83869e-06
6.83895e-06
6.83905e-06
6.35167e-06
6.35192e-06
6.35203e-06
5.78268e-06
5.78291e-06
5.78301e-06
5.47599e-06
5.47615e-06
5.47628e-06
1.50417e-05
1.50417e-05
1.50419e-05
1.6654e-05
1.6654e-05
1.66542e-05
9.33801e-06
9.33834e-06
9.33857e-06
9.24879e-06
9.24922e-06
9.24941e-06
9.96327e-06
9.96372e-06
9.96389e-06
1.06227e-05
1.06232e-05
1.06233e-05
1.12001e-05
1.12005e-05
1.12006e-05
1.1712e-05
1.17124e-05
1.17125e-05
1.21728e-05
1.21732e-05
1.21733e-05
1.25912e-05
1.25916e-05
1.25917e-05
1.29694e-05
1.29697e-05
1.29698e-05
1.33028e-05
1.3303e-05
1.33031e-05
1.35826e-05
1.35827e-05
1.35829e-05
1.37986e-05
1.37986e-05
1.37988e-05
1.39478e-05
1.39477e-05
1.39479e-05
1.40299e-05
1.40298e-05
1.403e-05
1.40299e-05
1.40298e-05
1.403e-05
1.39477e-05
1.39476e-05
1.39479e-05
1.37985e-05
1.37985e-05
1.37987e-05
1.35825e-05
1.35826e-05
1.35828e-05
1.33028e-05
1.3303e-05
1.33031e-05
1.29693e-05
1.29696e-05
1.29697e-05
1.25912e-05
1.25915e-05
1.25916e-05
1.21726e-05
1.2173e-05
1.21731e-05
1.17115e-05
1.17119e-05
1.1712e-05
1.11994e-05
1.11998e-05
1.11999e-05
1.06219e-05
1.06224e-05
1.06225e-05
9.96255e-06
9.963e-06
9.96317e-06
9.24834e-06
9.24877e-06
9.24896e-06
9.33791e-06
9.33823e-06
9.33847e-06
1.66534e-05
1.66534e-05
1.66536e-05
1.81469e-05
1.81469e-05
1.81471e-05
1.42331e-05
1.42337e-05
1.4234e-05
1.3381e-05
1.33817e-05
1.3382e-05
1.41539e-05
1.41547e-05
1.4155e-05
1.49726e-05
1.49734e-05
1.49736e-05
1.57157e-05
1.57165e-05
1.57167e-05
1.63847e-05
1.63854e-05
1.63856e-05
1.69919e-05
1.69926e-05
1.69927e-05
1.75462e-05
1.75468e-05
1.75469e-05
1.80491e-05
1.80496e-05
1.80497e-05
1.84937e-05
1.84941e-05
1.84942e-05
1.88674e-05
1.88677e-05
1.88679e-05
1.91565e-05
1.91566e-05
1.91569e-05
1.93571e-05
1.9357e-05
1.93573e-05
1.94681e-05
1.94678e-05
1.94682e-05
1.9468e-05
1.94678e-05
1.94682e-05
1.9357e-05
1.93569e-05
1.93573e-05
1.91565e-05
1.91565e-05
1.91568e-05
1.88674e-05
1.88676e-05
1.88678e-05
1.84937e-05
1.84941e-05
1.84942e-05
1.80491e-05
1.80495e-05
1.80497e-05
1.75462e-05
1.75468e-05
1.75469e-05
1.69917e-05
1.69923e-05
1.69925e-05
1.63841e-05
1.63848e-05
1.6385e-05
1.57148e-05
1.57156e-05
1.57158e-05
1.49716e-05
1.49724e-05
1.49726e-05
1.4153e-05
1.41538e-05
1.41541e-05
1.33805e-05
1.33812e-05
1.33815e-05
1.42332e-05
1.42337e-05
1.42341e-05
1.81463e-05
1.81463e-05
1.81465e-05
1.95676e-05
1.95677e-05
1.95679e-05
2.01659e-05
2.01668e-05
2.01673e-05
1.82673e-05
1.82686e-05
1.8269e-05
1.89632e-05
1.89644e-05
1.89648e-05
1.99062e-05
1.99074e-05
1.99077e-05
2.08127e-05
2.08138e-05
2.08141e-05
2.16483e-05
2.16494e-05
2.16497e-05
2.24164e-05
2.24174e-05
2.24176e-05
2.3123e-05
2.31239e-05
2.31241e-05
2.37672e-05
2.3768e-05
2.37682e-05
2.43388e-05
2.43394e-05
2.43396e-05
2.48205e-05
2.48209e-05
2.48212e-05
2.5194e-05
2.51942e-05
2.51946e-05
2.54543e-05
2.54542e-05
2.54547e-05
2.55992e-05
2.55989e-05
2.55995e-05
2.55992e-05
2.55989e-05
2.55995e-05
2.54542e-05
2.54542e-05
2.54546e-05
2.5194e-05
2.51942e-05
2.51945e-05
2.48205e-05
2.48209e-05
2.48211e-05
2.43389e-05
2.43395e-05
2.43397e-05
2.37672e-05
2.3768e-05
2.37682e-05
2.3123e-05
2.31239e-05
2.31241e-05
2.24162e-05
2.24172e-05
2.24174e-05
2.16477e-05
2.16488e-05
2.1649e-05
2.08116e-05
2.08128e-05
2.08131e-05
1.99049e-05
1.99061e-05
1.99064e-05
1.89621e-05
1.89634e-05
1.89638e-05
1.82669e-05
1.82682e-05
1.82686e-05
2.01663e-05
2.01672e-05
2.01678e-05
1.9567e-05
1.95671e-05
1.95672e-05
2.09431e-05
2.09432e-05
2.09434e-05
2.70531e-05
2.70543e-05
2.70551e-05
2.40163e-05
2.40184e-05
2.40189e-05
2.44605e-05
2.44625e-05
2.4463e-05
2.54654e-05
2.54673e-05
2.54677e-05
2.65206e-05
2.65224e-05
2.65227e-05
2.75275e-05
2.75291e-05
2.75295e-05
2.84692e-05
2.84708e-05
2.84711e-05
2.93445e-05
2.93459e-05
2.93462e-05
3.01479e-05
3.01491e-05
3.01493e-05
3.08636e-05
3.08646e-05
3.08649e-05
3.14686e-05
3.14693e-05
3.14697e-05
3.1939e-05
3.19394e-05
3.19399e-05
3.22683e-05
3.22684e-05
3.2269e-05
3.24529e-05
3.24528e-05
3.24535e-05
3.24529e-05
3.24527e-05
3.24535e-05
3.22682e-05
3.22683e-05
3.2269e-05
3.1939e-05
3.19394e-05
3.19399e-05
3.14686e-05
3.14694e-05
3.14697e-05
3.08639e-05
3.08648e-05
3.08651e-05
3.0148e-05
3.01492e-05
3.01494e-05
2.93447e-05
2.93461e-05
2.93463e-05
2.84691e-05
2.84706e-05
2.84709e-05
2.75268e-05
2.75285e-05
2.75288e-05
2.65194e-05
2.65211e-05
2.65215e-05
2.54639e-05
2.54658e-05
2.54662e-05
2.44593e-05
2.44613e-05
2.44618e-05
2.40161e-05
2.40181e-05
2.40187e-05
2.7054e-05
2.70553e-05
2.70561e-05
2.09424e-05
2.09425e-05
2.09427e-05
2.22874e-05
2.22875e-05
2.22877e-05
3.47335e-05
3.47352e-05
3.47363e-05
3.07326e-05
3.07357e-05
3.07365e-05
3.07371e-05
3.07402e-05
3.07409e-05
3.17107e-05
3.17135e-05
3.1714e-05
3.28831e-05
3.28857e-05
3.28862e-05
3.40583e-05
3.40607e-05
3.40611e-05
3.51837e-05
3.5186e-05
3.51863e-05
3.62438e-05
3.62458e-05
3.62461e-05
3.72246e-05
3.72264e-05
3.72267e-05
3.8103e-05
3.81045e-05
3.81048e-05
3.88479e-05
3.88491e-05
3.88495e-05
3.94288e-05
3.94296e-05
3.94302e-05
3.98374e-05
3.98378e-05
3.98387e-05
4.00684e-05
4.00684e-05
4.00694e-05
4.00684e-05
4.00684e-05
4.00694e-05
3.98374e-05
3.98378e-05
3.98387e-05
3.94288e-05
3.94296e-05
3.94303e-05
3.8848e-05
3.88492e-05
3.88497e-05
3.81034e-05
3.81049e-05
3.81052e-05
3.72249e-05
3.72267e-05
3.7227e-05
3.62441e-05
3.62462e-05
3.62465e-05
3.51837e-05
3.5186e-05
3.51863e-05
3.40576e-05
3.406e-05
3.40604e-05
3.28817e-05
3.28843e-05
3.28848e-05
3.17089e-05
3.17117e-05
3.17123e-05
3.07358e-05
3.07389e-05
3.07396e-05
3.07329e-05
3.07359e-05
3.07368e-05
3.47353e-05
3.4737e-05
3.4738e-05
2.22867e-05
2.22868e-05
2.2287e-05
2.36051e-05
2.36052e-05
2.36054e-05
4.29871e-05
4.29893e-05
4.29906e-05
3.84929e-05
3.84973e-05
3.84984e-05
3.78993e-05
3.79039e-05
3.79048e-05
3.87175e-05
3.87216e-05
3.87223e-05
3.99545e-05
3.99583e-05
3.99589e-05
4.12842e-05
4.12877e-05
4.12882e-05
4.25988e-05
4.2602e-05
4.26025e-05
4.38584e-05
4.38613e-05
4.38617e-05
4.50355e-05
4.50381e-05
4.50385e-05
4.6096e-05
4.60982e-05
4.60987e-05
4.6999e-05
4.70008e-05
4.70014e-05
4.77051e-05
4.77065e-05
4.77073e-05
4.82043e-05
4.82053e-05
4.82063e-05
4.84889e-05
4.84895e-05
4.84906e-05
4.84889e-05
4.84895e-05
4.84906e-05
4.82044e-05
4.82053e-05
4.82064e-05
4.77052e-05
4.77066e-05
4.77074e-05
4.69992e-05
4.70011e-05
4.70017e-05
4.60967e-05
4.60989e-05
4.60994e-05
4.5036e-05
4.50386e-05
4.5039e-05
4.3859e-05
4.3862e-05
4.38624e-05
4.2599e-05
4.26022e-05
4.26027e-05
4.12836e-05
4.12871e-05
4.12876e-05
3.99529e-05
3.99566e-05
3.99572e-05
3.87154e-05
3.87195e-05
3.87202e-05
3.78979e-05
3.79025e-05
3.79034e-05
3.84938e-05
3.84982e-05
3.84993e-05
4.29898e-05
4.2992e-05
4.29933e-05
2.36043e-05
2.36044e-05
2.36046e-05
2.48935e-05
2.48936e-05
2.48938e-05
5.15531e-05
5.15558e-05
5.15574e-05
4.73229e-05
4.7329e-05
4.73305e-05
4.60592e-05
4.60658e-05
4.60671e-05
4.65749e-05
4.65809e-05
4.65818e-05
4.77984e-05
4.78037e-05
4.78045e-05
4.92545e-05
4.92594e-05
4.92601e-05
5.07567e-05
5.07613e-05
5.07619e-05
5.2228e-05
5.22323e-05
5.22328e-05
5.362e-05
5.36238e-05
5.36243e-05
5.4883e-05
5.48863e-05
5.48869e-05
5.59632e-05
5.59661e-05
5.59669e-05
5.68103e-05
5.68126e-05
5.68137e-05
5.74123e-05
5.7414e-05
5.74154e-05
5.77587e-05
5.77599e-05
5.77614e-05
5.77587e-05
5.77599e-05
5.77615e-05
5.74124e-05
5.74141e-05
5.74155e-05
5.68105e-05
5.68128e-05
5.68139e-05
5.59637e-05
5.59665e-05
5.59674e-05
5.4884e-05
5.48873e-05
5.48879e-05
5.36208e-05
5.36246e-05
5.36251e-05
5.22291e-05
5.22333e-05
5.22338e-05
5.07572e-05
5.07618e-05
5.07623e-05
4.92539e-05
4.92588e-05
4.92595e-05
4.77965e-05
4.78018e-05
4.78026e-05
4.65723e-05
4.65783e-05
4.65793e-05
4.60577e-05
4.60643e-05
4.60656e-05
4.73248e-05
4.73309e-05
4.73323e-05
5.15569e-05
5.15596e-05
5.15612e-05
2.48927e-05
2.48928e-05
2.4893e-05
2.61444e-05
2.61445e-05
2.61447e-05
6.01464e-05
6.01497e-05
6.01516e-05
5.71811e-05
5.71891e-05
5.7191e-05
5.53218e-05
5.5331e-05
5.53327e-05
5.53834e-05
5.53919e-05
5.53932e-05
5.64876e-05
5.64951e-05
5.64962e-05
5.80231e-05
5.80299e-05
5.80308e-05
5.97016e-05
5.9708e-05
5.97087e-05
6.13927e-05
6.13985e-05
6.13992e-05
6.30168e-05
6.30221e-05
6.30229e-05
6.45028e-05
6.45075e-05
6.45084e-05
6.57805e-05
6.57847e-05
6.57858e-05
6.67848e-05
6.67884e-05
6.67899e-05
6.75023e-05
6.75051e-05
6.7507e-05
6.79193e-05
6.79215e-05
6.79237e-05
6.79194e-05
6.79216e-05
6.79237e-05
6.75025e-05
6.75054e-05
6.75072e-05
6.67852e-05
6.67888e-05
6.67903e-05
6.57812e-05
6.57854e-05
6.57865e-05
6.45043e-05
6.4509e-05
6.45099e-05
6.30179e-05
6.30232e-05
6.3024e-05
6.13942e-05
6.14e-05
6.14007e-05
5.97026e-05
5.97089e-05
5.97096e-05
5.80226e-05
5.80294e-05
5.80302e-05
5.64854e-05
5.64929e-05
5.64939e-05
5.53803e-05
5.53888e-05
5.53901e-05
5.53203e-05
5.53295e-05
5.53313e-05
5.71843e-05
5.71923e-05
5.71942e-05
6.01515e-05
6.01548e-05
6.01567e-05
2.61436e-05
2.61437e-05
2.61439e-05
2.73464e-05
2.73465e-05
2.73468e-05
6.84741e-05
6.8478e-05
6.84801e-05
6.79496e-05
6.79598e-05
6.79623e-05
6.57682e-05
6.57807e-05
6.5783e-05
6.52508e-05
6.52626e-05
6.52643e-05
6.61043e-05
6.61146e-05
6.61161e-05
6.76488e-05
6.76581e-05
6.76593e-05
6.94788e-05
6.94874e-05
6.94884e-05
7.13908e-05
7.13987e-05
7.13997e-05
7.32617e-05
7.32691e-05
7.32701e-05
7.49906e-05
7.49974e-05
7.49985e-05
7.64862e-05
7.64923e-05
7.64938e-05
7.76644e-05
7.76699e-05
7.76718e-05
7.85104e-05
7.8515e-05
7.85174e-05
7.90075e-05
7.90114e-05
7.90141e-05
7.90076e-05
7.90115e-05
7.90142e-05
7.85108e-05
7.85154e-05
7.85178e-05
7.76652e-05
7.76706e-05
7.76725e-05
7.64873e-05
7.64934e-05
7.64948e-05
7.49927e-05
7.49994e-05
7.50006e-05
7.32633e-05
7.32706e-05
7.32716e-05
7.1393e-05
7.14009e-05
7.14019e-05
6.94802e-05
6.94888e-05
6.94898e-05
6.76484e-05
6.76576e-05
6.76588e-05
6.61016e-05
6.61118e-05
6.61133e-05
6.52469e-05
6.52587e-05
6.52605e-05
6.57669e-05
6.57793e-05
6.57816e-05
6.79545e-05
6.79646e-05
6.79672e-05
6.84805e-05
6.84844e-05
6.84865e-05
2.73456e-05
2.73457e-05
2.73459e-05
2.84872e-05
2.84873e-05
2.84875e-05
7.62527e-05
7.62572e-05
7.62596e-05
7.94357e-05
7.94483e-05
7.94513e-05
7.74354e-05
7.74518e-05
7.74548e-05
7.62849e-05
7.63008e-05
7.63031e-05
7.67392e-05
7.67531e-05
7.67551e-05
7.81955e-05
7.82079e-05
7.82096e-05
8.0134e-05
8.01454e-05
8.01468e-05
8.22585e-05
8.22691e-05
8.22704e-05
8.43864e-05
8.43963e-05
8.43976e-05
8.63763e-05
8.63855e-05
8.63871e-05
8.81096e-05
8.81183e-05
8.81201e-05
8.9478e-05
8.94861e-05
8.94884e-05
9.04651e-05
9.04723e-05
9.04753e-05
9.10522e-05
9.10585e-05
9.10618e-05
9.10524e-05
9.10587e-05
9.1062e-05
9.04657e-05
9.04729e-05
9.04759e-05
8.94791e-05
8.94871e-05
8.94895e-05
8.81111e-05
8.81198e-05
8.81217e-05
8.63792e-05
8.63884e-05
8.63899e-05
8.43886e-05
8.43984e-05
8.43997e-05
8.22616e-05
8.22721e-05
8.22734e-05
8.01362e-05
8.01475e-05
8.01489e-05
7.81952e-05
7.82075e-05
7.82091e-05
7.67357e-05
7.67495e-05
7.67515e-05
7.628e-05
7.62958e-05
7.62982e-05
7.74343e-05
7.74507e-05
7.74537e-05
7.94426e-05
7.9455e-05
7.94581e-05
7.62605e-05
7.6265e-05
7.62673e-05
2.84863e-05
2.84864e-05
2.84866e-05
2.95557e-05
2.95558e-05
2.95561e-05
8.32289e-05
8.3234e-05
8.32366e-05
9.13804e-05
9.13952e-05
9.13989e-05
9.02964e-05
9.0317e-05
9.03211e-05
8.85812e-05
8.86021e-05
8.86052e-05
8.84897e-05
8.85081e-05
8.85108e-05
8.97329e-05
8.97492e-05
8.97514e-05
9.17142e-05
9.1729e-05
9.17309e-05
9.40289e-05
9.40427e-05
9.40445e-05
9.64165e-05
9.64296e-05
9.64314e-05
9.86818e-05
9.86943e-05
9.86963e-05
0.000100671
0.000100683
0.000100686
0.000102245
0.000102256
0.000102259
0.000103385
0.000103395
0.000103399
0.000104072
0.000104081
0.000104086
0.000104072
0.000104082
0.000104086
0.000103386
0.000103396
0.0001034
0.000102246
0.000102258
0.000102261
0.000100673
0.000100685
0.000100688
9.86857e-05
9.86981e-05
9.87001e-05
9.64195e-05
9.64324e-05
9.64342e-05
9.40331e-05
9.40468e-05
9.40486e-05
9.17171e-05
9.17319e-05
9.17337e-05
8.97325e-05
8.97487e-05
8.97509e-05
8.8485e-05
8.85033e-05
8.8506e-05
8.85749e-05
8.85958e-05
8.8599e-05
9.02957e-05
9.03165e-05
9.03204e-05
9.13893e-05
9.1404e-05
9.14078e-05
8.32378e-05
8.32429e-05
8.32455e-05
2.95548e-05
2.95549e-05
2.95551e-05
3.05444e-05
3.05445e-05
3.05447e-05
8.92004e-05
8.92062e-05
8.92089e-05
0.000103474
0.00010349
0.000103495
0.000104244
0.000104269
0.000104274
0.000102206
0.000102233
0.000102237
0.000101455
0.000101479
0.000101483
0.000102336
0.000102357
0.00010236
0.000104267
0.000104286
0.000104289
0.000106732
0.000106749
0.000106752
0.000109371
0.000109388
0.00010939
0.00011192
0.000111937
0.000111939
0.000114181
0.000114197
0.0001142
0.000115972
0.000115988
0.000115991
0.000117275
0.00011729
0.000117295
0.000118072
0.000118086
0.000118091
0.000118072
0.000118086
0.000118091
0.000117277
0.000117292
0.000117296
0.000115974
0.00011599
0.000115993
0.000114184
0.0001142
0.000114203
0.000111925
0.000111942
0.000111944
0.000109375
0.000109392
0.000109394
0.000106737
0.000106755
0.000106757
0.000104271
0.00010429
0.000104292
0.000102336
0.000102356
0.000102359
0.000101449
0.000101473
0.000101476
0.000102198
0.000102225
0.000102229
0.000104244
0.000104269
0.000104274
0.000103485
0.000103501
0.000103506
8.92102e-05
8.9216e-05
8.92186e-05
3.05433e-05
3.05434e-05
3.05437e-05
3.14503e-05
3.14504e-05
3.14506e-05
9.40363e-05
9.40426e-05
9.40454e-05
0.000115373
0.000115392
0.000115397
0.000119082
0.000119112
0.000119118
0.000117176
0.000117209
0.000117215
0.000115729
0.000115759
0.000115763
0.000116086
0.000116112
0.000116116
0.000117843
0.000117866
0.00011787
0.000120393
0.000120414
0.000120417
0.000123261
0.000123282
0.000123285
0.000126093
0.000126114
0.000126117
0.000128635
0.000128655
0.000128659
0.000130652
0.000130673
0.000130677
0.000132126
0.000132146
0.000132152
0.000133041
0.00013306
0.000133066
0.000133042
0.000133061
0.000133067
0.000132128
0.000132148
0.000132154
0.000130655
0.000130676
0.00013068
0.000128639
0.000128659
0.000128663
0.0001261
0.00012612
0.000126123
0.000123266
0.000123287
0.00012329
0.0001204
0.000120421
0.000120424
0.000117848
0.000117871
0.000117874
0.000116085
0.000116111
0.000116114
0.00011572
0.00011575
0.000115754
0.000117166
0.000117198
0.000117204
0.000119082
0.000119112
0.000119118
0.000115386
0.000115405
0.00011541
9.40466e-05
9.4053e-05
9.40557e-05
3.14491e-05
3.14492e-05
3.14495e-05
3.22756e-05
3.22757e-05
3.22759e-05
9.7691e-05
9.76978e-05
9.77006e-05
0.000126726
0.000126746
0.000126752
0.000134525
0.000134558
0.000134566
0.000133434
0.000133473
0.00013348
0.000131382
0.000131419
0.000131425
0.000131065
0.000131096
0.000131101
0.000132494
0.000132522
0.000132526
0.000135034
0.00013506
0.000135064
0.000138088
0.000138113
0.000138117
0.00014119
0.000141215
0.000141219
0.000144014
0.000144039
0.000144044
0.000146261
0.000146287
0.000146292
0.000147909
0.000147935
0.000147941
0.00014895
0.000148975
0.000148982
0.000148951
0.000148976
0.000148983
0.000147912
0.000147938
0.000147944
0.000146265
0.000146291
0.000146296
0.000144019
0.000144044
0.000144049
0.000141198
0.000141223
0.000141227
0.000138094
0.000138119
0.000138123
0.000135043
0.000135069
0.000135073
0.0001325
0.000132528
0.000132532
0.000131062
0.000131093
0.000131098
0.00013137
0.000131406
0.000131412
0.000133421
0.000133459
0.000133467
0.000134525
0.000134559
0.000134567
0.00012674
0.00012676
0.000126766
9.77012e-05
9.77081e-05
9.77109e-05
3.22743e-05
3.22744e-05
3.22746e-05
3.30271e-05
3.30272e-05
3.30274e-05
0.000100208
0.000100215
0.000100218
0.000137191
0.000137212
0.000137218
0.000150208
0.000150245
0.000150254
0.000150829
0.000150873
0.000150883
0.000148447
0.00014849
0.000148497
0.00014735
0.000147387
0.000147394
0.000148274
0.000148307
0.000148312
0.000150676
0.000150706
0.000150711
0.000153844
0.000153873
0.000153878
0.000157183
0.000157212
0.000157217
0.00016028
0.000160311
0.000160316
0.000162752
0.000162783
0.00016279
0.000164572
0.000164604
0.000164612
0.000165746
0.000165777
0.000165785
0.000165747
0.000165778
0.000165786
0.000164576
0.000164608
0.000164616
0.000162757
0.000162789
0.000162795
0.000160287
0.000160317
0.000160322
0.000157193
0.000157222
0.000157227
0.000153852
0.000153881
0.000153885
0.000150687
0.000150717
0.000150722
0.00014828
0.000148313
0.000148318
0.000147345
0.000147382
0.000147388
0.00014843
0.000148472
0.00014848
0.000150812
0.000150856
0.000150865
0.000150208
0.000150245
0.000150254
0.000137205
0.000137226
0.000137232
0.000100218
0.000100225
0.000100228
3.30257e-05
3.30258e-05
3.3026e-05
3.37151e-05
3.37152e-05
3.37154e-05
0.000101713
0.000101721
0.000101723
0.000146461
0.000146482
0.000146489
0.000165705
0.000165745
0.000165755
0.0001691
0.00016915
0.000169161
0.000166886
0.000166934
0.000166945
0.000165003
0.000165046
0.000165053
0.000165238
0.000165274
0.000165281
0.000167333
0.000167366
0.000167372
0.000170509
0.000170541
0.000170547
0.000174028
0.000174061
0.000174067
0.000177374
0.000177408
0.000177414
0.000180055
0.000180091
0.000180098
0.000182039
0.000182076
0.000182085
0.000183347
0.000183383
0.000183392
0.000183349
0.000183385
0.000183395
0.000182044
0.000182081
0.00018209
0.000180062
0.000180098
0.000180106
0.000177381
0.000177416
0.000177422
0.00017404
0.000174073
0.000174079
0.000170518
0.00017055
0.000170556
0.000167345
0.000167379
0.000167385
0.000165244
0.00016528
0.000165287
0.000164994
0.000165036
0.000165044
0.000166862
0.000166911
0.000166921
0.000169078
0.000169126
0.000169138
0.000165703
0.000165743
0.000165753
0.000146474
0.000146495
0.000146502
0.000101722
0.000101729
0.000101732
3.37136e-05
3.37137e-05
3.37139e-05
3.43511e-05
3.43512e-05
3.43514e-05
0.000102392
0.000102399
0.000102402
0.000154287
0.000154308
0.000154315
0.000180551
0.000180592
0.000180604
0.000187875
0.000187928
0.000187941
0.000186568
0.000186622
0.000186634
0.000184048
0.000184095
0.000184104
0.000183431
0.000183471
0.000183479
0.000185014
0.000185049
0.000185056
0.000188048
0.000188082
0.000188088
0.000191658
0.000191693
0.0001917
0.000195205
0.000195241
0.000195249
0.000198067
0.000198106
0.000198115
0.000200196
0.000200238
0.000200247
0.000201638
0.000201679
0.000201689
0.000201641
0.000201682
0.000201692
0.000200203
0.000200245
0.000200255
0.000198076
0.000198116
0.000198124
0.000195214
0.000195251
0.000195258
0.000191672
0.000191706
0.000191713
0.000188059
0.000188093
0.000188099
0.000185028
0.000185063
0.00018507
0.000183436
0.000183475
0.000183483
0.000184033
0.000184079
0.000184089
0.000186535
0.000186589
0.000186601
0.000187845
0.000187898
0.000187911
0.000180546
0.000180587
0.000180599
0.000154298
0.000154319
0.000154326
0.000102399
0.000102406
0.000102409
3.43495e-05
3.43495e-05
3.43498e-05
3.49463e-05
3.49464e-05
3.49466e-05
0.00010246
0.000102467
0.00010247
0.000160497
0.000160517
0.000160525
0.000194271
0.000194311
0.000194324
0.000206672
0.000206727
0.000206742
0.000207239
0.000207296
0.00020731
0.000204445
0.000204494
0.000204506
0.000202883
0.000202924
0.000202934
0.000203718
0.000203753
0.000203761
0.000206407
0.00020644
0.000206448
0.000209975
0.000210009
0.000210017
0.000213647
0.000213684
0.000213693
0.000216644
0.000216685
0.000216695
0.00021889
0.000218933
0.000218944
0.000220459
0.000220503
0.000220514
0.000220463
0.000220507
0.000220518
0.000218899
0.000218943
0.000218954
0.000216656
0.000216696
0.000216706
0.000213659
0.000213695
0.000213704
0.00020999
0.000210024
0.000210032
0.000206421
0.000206453
0.000206461
0.000203734
0.000203768
0.000203776
0.000202885
0.000202926
0.000202936
0.000204422
0.00020447
0.000204483
0.000207195
0.000207251
0.000207266
0.000206632
0.000206687
0.000206703
0.00019426
0.000194301
0.000194314
0.000160505
0.000160524
0.000160532
0.000102465
0.000102472
0.000102475
3.49445e-05
3.49446e-05
3.49448e-05
3.55096e-05
3.55097e-05
3.55099e-05
0.000102134
0.000102141
0.000102144
0.000165015
0.000165033
0.000165042
0.000206406
0.000206446
0.000206459
0.000224922
0.000224977
0.000224994
0.000228504
0.000228561
0.000228578
0.000226057
0.000226107
0.000226121
0.000223586
0.000223626
0.000223637
0.000223426
0.000223458
0.000223468
0.000225505
0.000225533
0.000225542
0.00022884
0.00022887
0.000228879
0.000232525
0.000232558
0.000232567
0.000235588
0.000235626
0.000235637
0.000237907
0.000237949
0.000237962
0.000239592
0.000239634
0.000239647
0.000239597
0.000239639
0.000239652
0.000237919
0.000237961
0.000237974
0.000235602
0.000235641
0.000235651
0.000232538
0.000232571
0.00023258
0.000228855
0.000228885
0.000228894
0.00022552
0.000225549
0.000225558
0.000223442
0.000223474
0.000223483
0.000223583
0.000223623
0.000223634
0.000226022
0.000226071
0.000226086
0.000228445
0.000228501
0.000228519
0.00022487
0.000224925
0.000224942
0.000206389
0.000206429
0.000206442
0.000165017
0.000165035
0.000165044
0.000102137
0.000102144
0.000102147
3.55077e-05
3.55077e-05
3.55079e-05
3.60468e-05
3.60468e-05
3.6047e-05
0.000101601
0.000101608
0.000101611
0.000167865
0.000167881
0.00016789
0.000216554
0.000216591
0.000216606
0.000241998
0.000242052
0.00024207
0.000249821
0.000249876
0.000249895
0.000248612
0.000248659
0.000248675
0.000245464
0.000245499
0.000245512
0.000244087
0.000244113
0.000244123
0.000245218
0.00024524
0.000245248
0.000248055
0.000248078
0.000248087
0.000251587
0.000251614
0.000251623
0.000254621
0.000254652
0.000254664
0.000256954
0.000256991
0.000257004
0.000258732
0.000258768
0.000258782
0.000258738
0.000258775
0.000258788
0.00025697
0.000257006
0.000257019
0.000254638
0.00025467
0.000254681
0.000251602
0.000251628
0.000251637
0.000248069
0.000248092
0.000248101
0.000245235
0.000245257
0.000245266
0.0002441
0.000244127
0.000244137
0.000245452
0.000245487
0.0002455
0.000248561
0.000248607
0.000248624
0.000249742
0.000249797
0.000249817
0.000241929
0.000241983
0.000242002
0.000216526
0.000216564
0.000216579
0.000167861
0.000167877
0.000167886
0.000101602
0.000101609
0.000101612
3.60446e-05
3.60447e-05
3.60449e-05
3.65599e-05
3.65599e-05
3.65601e-05
0.000101007
0.000101014
0.000101016
0.000169175
0.000169189
0.000169199
0.000224397
0.000224431
0.000224447
0.000257254
0.000257306
0.000257325
0.000270514
0.000270566
0.000270587
0.000271671
0.000271714
0.000271732
0.000268334
0.000268363
0.000268377
0.000265591
0.000265609
0.000265619
0.000265363
0.000265377
0.000265384
0.000267336
0.000267349
0.000267356
0.000270481
0.000270497
0.000270505
0.000273351
0.000273373
0.000273383
0.00027562
0.000275647
0.00027566
0.000277455
0.000277482
0.000277495
0.000277464
0.00027749
0.000277503
0.000275639
0.000275666
0.000275678
0.000273372
0.000273394
0.000273404
0.000270496
0.000270512
0.00027052
0.000267347
0.00026736
0.000267367
0.000265382
0.000265396
0.000265402
0.0002656
0.000265618
0.000265628
0.00026831
0.000268339
0.000268353
0.0002716
0.000271642
0.00027166
0.00027041
0.000270463
0.000270484
0.000257164
0.000257217
0.000257236
0.000224357
0.000224391
0.000224408
0.000169164
0.000169177
0.000169188
0.000101006
0.000101013
0.000101015
3.65576e-05
3.65577e-05
3.65579e-05
3.70479e-05
3.70479e-05
3.70481e-05
0.00010045
0.000100457
0.000100459
0.000169166
0.000169177
0.000169188
0.000229748
0.000229779
0.000229797
0.00027008
0.000270129
0.000270149
0.000289811
0.000289859
0.00028988
0.000294619
0.000294655
0.000294673
0.000291867
0.000291887
0.000291901
0.00028774
0.000287751
0.000287757
0.000285671
0.000285676
0.000285678
0.000286275
0.00028628
0.000286281
0.000288699
0.000288704
0.000288707
0.000291223
0.000291233
0.000291238
0.000293322
0.000293337
0.000293346
0.000295163
0.000295178
0.000295187
0.000295173
0.000295188
0.000295196
0.000293345
0.000293359
0.000293368
0.000291247
0.000291257
0.000291262
0.000288714
0.000288719
0.000288721
0.000286281
0.000286285
0.000286286
0.000285689
0.000285695
0.000285696
0.000287742
0.000287752
0.000287758
0.000291825
0.000291846
0.000291859
0.00029452
0.000294556
0.000294574
0.000289677
0.000289726
0.000289746
0.000269965
0.000270015
0.000270035
0.000229692
0.000229724
0.000229742
0.000169147
0.000169158
0.000169169
0.000100447
0.000100454
0.000100457
3.70455e-05
3.70456e-05
3.70457e-05
3.75067e-05
3.75067e-05
3.75069e-05
9.99905e-05
9.99978e-05
0.0001
0.000168135
0.000168145
0.000168156
0.00023259
0.000232618
0.000232638
0.000279972
0.000280017
0.000280039
0.000306902
0.000306945
0.000306965
0.000316666
0.000316693
0.000316711
0.000315534
0.000315546
0.000315556
0.000310201
0.000310206
0.000310204
0.00030575
0.000305745
0.000305739
0.0003043
0.00030429
0.000304284
0.000305519
0.000305509
0.000305504
0.00030744
0.000307436
0.000307433
0.000309227
0.00030923
0.00030923
0.000310998
0.000311001
0.000311001
0.00031101
0.000311013
0.000311013
0.000309254
0.000309256
0.000309257
0.000307467
0.000307463
0.00030746
0.000305532
0.000305521
0.000305517
0.000304295
0.000304286
0.00030428
0.000305765
0.00030576
0.000305754
0.000310189
0.000310194
0.000310192
0.000315469
0.000315482
0.000315492
0.000316535
0.000316562
0.00031658
0.000306731
0.000306775
0.000306796
0.000279827
0.000279873
0.000279895
0.000232517
0.000232546
0.000232566
0.000168107
0.000168118
0.000168129
9.99867e-05
9.9994e-05
9.99965e-05
3.75042e-05
3.75042e-05
3.75044e-05
3.79296e-05
3.79296e-05
3.79298e-05
9.96646e-05
9.96728e-05
9.96752e-05
0.000166435
0.000166445
0.000166457
0.000233119
0.000233146
0.000233167
0.000286618
0.00028666
0.000286683
0.000321033
0.000321071
0.000321091
0.000336902
0.000336921
0.000336937
0.000338578
0.000338585
0.000338587
0.00033244
0.000332438
0.000332428
0.000325042
0.000325027
0.000325012
0.000320614
0.00032059
0.000320576