/*--------------------------------*- C++ -*----------------------------------*\
  =========                 |
  \\      /  F ield         | OpenFOAM: The Open Source CFD Toolbox
   \\    /   O peration     | Website:  https://openfoam.org
    \\  /    A nd           | Version:  6
     \\/     M anipulation  |
\*---------------------------------------------------------------------------*/
FoamFile
{
    version     2.0;
    format      ascii;
    class       volVectorField;
    location    "40";
    object      U;
}
// * * * * * * * * * * * * * * * * * * * * * * * * * * * * * * * * * * * * * //

dimensions      [0 1 -1 0 0 0 0];

internalField   nonuniform List<vector> 
2880
(
(0.05254 -3.4911e-11 1.49041e-10)
(0.0525401 1.62217e-09 -3.17943e-10)
(0.0525408 -1.4897e-09 1.22363e-10)
(0.0374932 9.67143e-10 3.90425e-11)
(0.0374936 1.15186e-09 -6.63714e-11)
(0.0374944 -1.9986e-09 2.84815e-11)
(0.044848 2.31981e-09 6.43667e-11)
(0.044849 -1.23247e-09 -1.43491e-10)
(0.04485 -1.07234e-09 7.93518e-11)
(0.0509414 5.16859e-09 8.02578e-11)
(0.0509426 -7.20988e-09 -1.90508e-10)
(0.0509437 2.00101e-09 1.10704e-10)
(0.0560554 7.95854e-09 9.38308e-11)
(0.0560568 -1.2643e-08 -2.29723e-10)
(0.0560579 4.61885e-09 1.36337e-10)
(0.0605053 8.71307e-09 1.00354e-10)
(0.0605067 -1.40197e-08 -2.55099e-10)
(0.0605077 5.22789e-09 1.54876e-10)
(0.0644859 7.08573e-09 1.07065e-10)
(0.0644872 -1.11229e-08 -2.71615e-10)
(0.0644882 3.9649e-09 1.64582e-10)
(0.06811 3.26911e-09 1.06861e-10)
(0.0681113 -5.30948e-09 -2.71129e-10)
(0.0681122 1.9793e-09 1.64342e-10)
(0.0714351 -5.26224e-10 1.07049e-10)
(0.0714363 4.30219e-10 -2.54996e-10)
(0.0714371 5.06619e-11 1.47954e-10)
(0.074467 -3.89181e-09 1.1127e-10)
(0.074468 5.36176e-09 -2.38736e-10)
(0.0744689 -1.50137e-09 1.27483e-10)
(0.0771614 -6.08592e-09 1.22134e-10)
(0.0771622 8.88035e-09 -2.19777e-10)
(0.0771632 -2.80838e-09 9.75811e-11)
(0.0794386 -6.43579e-09 1.44188e-10)
(0.0794391 9.91622e-09 -1.99388e-10)
(0.0794402 -3.48334e-09 5.51408e-11)
(0.0812037 -6.10085e-09 1.71371e-10)
(0.0812039 9.1309e-09 -1.84517e-10)
(0.0812053 -3.02921e-09 1.31322e-11)
(0.0824211 -4.25e-09 1.91778e-10)
(0.082421 5.98745e-09 -1.59798e-10)
(0.0824225 -1.74457e-09 -3.19448e-11)
(0.0830869 -1.42608e-09 1.99137e-10)
(0.0830866 2.00701e-09 -1.33816e-10)
(0.0830882 -6.05737e-10 -6.52679e-11)
(0.0830867 1.33483e-09 1.99276e-10)
(0.0830864 -1.82148e-09 -1.34201e-10)
(0.083088 4.45693e-10 -6.49932e-11)
(0.0824204 4.13482e-09 1.91628e-10)
(0.0824204 -5.78555e-09 -1.59636e-10)
(0.0824219 1.59146e-09 -3.19816e-11)
(0.0812027 5.94893e-09 1.71458e-10)
(0.0812029 -8.89307e-09 -1.84312e-10)
(0.0812042 2.87774e-09 1.28742e-11)
(0.0794372 6.27488e-09 1.44258e-10)
(0.0794377 -9.66954e-09 -1.98819e-10)
(0.0794389 3.32833e-09 5.45818e-11)
(0.0771603 5.97376e-09 1.21445e-10)
(0.077161 -8.68355e-09 -2.18331e-10)
(0.077162 2.65244e-09 9.68261e-11)
(0.0744657 3.79974e-09 1.11394e-10)
(0.0744667 -5.20884e-09 -2.36433e-10)
(0.0744676 1.36601e-09 1.25058e-10)
(0.0714337 4.36529e-10 1.05278e-10)
(0.0714349 -2.05128e-10 -2.55587e-10)
(0.0714357 -2.64741e-10 1.5029e-10)
(0.0681075 -3.42297e-09 1.06934e-10)
(0.0681088 5.5675e-09 -2.69396e-10)
(0.0681097 -2.16926e-09 1.6245e-10)
(0.0644815 -7.28976e-09 1.06349e-10)
(0.0644828 1.14233e-08 -2.70927e-10)
(0.0644837 -4.15331e-09 1.64589e-10)
(0.0604991 -8.95942e-09 1.00938e-10)
(0.0605005 1.43927e-08 -2.54551e-10)
(0.0605015 -5.45002e-09 1.53645e-10)
(0.0560485 -8.1735e-09 9.34081e-11)
(0.0560498 1.3025e-08 -2.29396e-10)
(0.056051 -4.86744e-09 1.36043e-10)
(0.0509353 -5.26981e-09 8.03959e-11)
(0.0509365 7.41964e-09 -1.89664e-10)
(0.0509377 -2.16366e-09 1.09297e-10)
(0.0448439 -2.32781e-09 6.45247e-11)
(0.0448449 1.28018e-09 -1.42762e-10)
(0.0448459 1.03789e-09 7.8283e-11)
(0.0374908 -8.25936e-10 3.8368e-11)
(0.0374913 -1.14285e-09 -6.60248e-11)
(0.0374921 1.96579e-09 2.76811e-11)
(0.0525368 1.36781e-10 1.96479e-10)
(0.0525369 -1.61214e-09 -3.15983e-10)
(0.0525376 1.47658e-09 1.19495e-10)
(0.0704505 -1.87526e-10 2.98475e-10)
(0.0704507 2.21079e-09 -5.50369e-10)
(0.0704515 -1.979e-09 2.27241e-10)
(0.101603 1.58959e-09 3.74765e-10)
(0.101604 3.30506e-09 -6.51601e-10)
(0.101605 -5.0017e-09 2.89774e-10)
(0.116091 5.05377e-09 4.04006e-10)
(0.116093 -2.27084e-09 -8.14169e-10)
(0.116095 -2.93587e-09 4.12416e-10)
(0.12667 1.15669e-08 4.28033e-10)
(0.126672 -1.54573e-08 -9.14005e-10)
(0.126674 3.69859e-09 4.87059e-10)
(0.134954 1.75818e-08 4.90424e-10)
(0.134956 -2.69072e-08 -1.09467e-09)
(0.134958 9.13154e-09 6.04559e-10)
(0.14183 1.88828e-08 5.45645e-10)
(0.141832 -2.93381e-08 -1.24169e-09)
(0.141834 1.02622e-08 6.95708e-10)
(0.147771 1.50484e-08 5.80965e-10)
(0.147773 -2.27921e-08 -1.30694e-09)
(0.147774 7.57446e-09 7.25382e-10)
(0.153037 6.80107e-09 5.62045e-10)
(0.153039 -1.05796e-08 -1.25548e-09)
(0.15304 3.63904e-09 6.92855e-10)
(0.157765 -1.14797e-09 5.22896e-10)
(0.157767 1.14728e-09 -1.13661e-09)
(0.157768 -1.00052e-10 6.1317e-10)
(0.162 -7.98269e-09 5.04204e-10)
(0.162002 1.09948e-08 -1.02297e-09)
(0.162003 -3.0797e-09 5.18307e-10)
(0.165709 -1.23165e-08 5.12702e-10)
(0.16571 1.77284e-08 -9.10758e-10)
(0.165712 -5.44168e-09 3.97733e-10)
(0.168807 -1.2917e-08 5.68839e-10)
(0.168808 1.95702e-08 -8.22706e-10)
(0.168809 -6.66205e-09 2.53714e-10)
(0.171187 -1.21469e-08 6.50764e-10)
(0.171187 1.79094e-08 -7.48411e-10)
(0.171189 -5.76502e-09 9.76681e-11)
(0.172817 -8.32667e-09 7.07479e-10)
(0.172817 1.157e-08 -6.5135e-10)
(0.172819 -3.26058e-09 -5.59688e-11)
(0.173706 -2.80439e-09 7.3091e-10)
(0.173705 3.88734e-09 -5.6452e-10)
(0.173707 -1.13725e-09 -1.66175e-10)
(0.173705 2.61202e-09 7.31484e-10)
(0.173705 -3.5247e-09 -5.66115e-10)
(0.173707 8.2481e-10 -1.65141e-10)
(0.172817 8.08626e-09 7.0712e-10)
(0.172817 -1.11745e-08 -6.50866e-10)
(0.172819 2.96095e-09 -5.61e-11)
(0.171185 1.18301e-08 6.51196e-10)
(0.171186 -1.7439e-08 -7.48105e-10)
(0.171188 5.466e-09 9.69281e-11)
(0.168805 1.25861e-08 5.68382e-10)
(0.168806 -1.90817e-08 -8.20371e-10)
(0.168808 6.3532e-09 2.51869e-10)
(0.165708 1.20699e-08 5.10638e-10)
(0.165709 -1.73285e-08 -9.06025e-10)
(0.16571 5.13301e-09 3.95057e-10)
(0.161998 7.78683e-09 5.02916e-10)
(0.162 -1.06371e-08 -1.01748e-09)
(0.162001 2.75366e-09 5.14264e-10)
(0.157763 9.37048e-10 5.20151e-10)
(0.157765 -6.62684e-10 -1.13373e-09)
(0.157766 -3.49429e-10 6.13259e-10)
(0.153033 -7.16108e-09 5.6144e-10)
(0.153035 1.10985e-08 -1.25145e-09)
(0.153036 -3.99541e-09 6.89723e-10)
(0.147765 -1.55047e-08 5.79572e-10)
(0.147766 2.34324e-08 -1.30496e-09)
(0.147768 -7.97597e-09 7.2517e-10)
(0.141821 -1.94479e-08 5.48235e-10)
(0.141823 3.01362e-08 -1.24068e-09)
(0.141824 -1.07303e-08 6.92291e-10)
(0.134943 -1.81163e-08 4.90067e-10)
(0.134945 2.77396e-08 -1.09222e-09)
(0.134947 -9.66353e-09 6.0203e-10)
(0.12666 -1.19168e-08 4.28418e-10)
(0.126662 1.59318e-08 -9.05894e-10)
(0.126664 -4.0502e-09 4.77225e-10)
(0.116084 -5.27597e-09 4.03452e-10)
(0.116085 2.39375e-09 -8.07263e-10)
(0.116087 2.85715e-09 4.03411e-10)
(0.101598 -1.6578e-09 3.64116e-10)
(0.101599 -3.2664e-09 -6.47045e-10)
(0.1016 4.91592e-09 2.82402e-10)
(0.0704469 2.36485e-10 3.2491e-10)
(0.070447 -2.19544e-09 -5.47052e-10)
(0.0704478 1.9605e-09 2.22044e-10)
(0.0799591 -2.41205e-10 4.8361e-10)
(0.0799592 2.53571e-09 -9.23937e-10)
(0.0799601 -2.22644e-09 4.07325e-10)
(0.137355 1.62389e-09 8.45357e-10)
(0.137356 4.64152e-09 -1.47745e-09)
(0.137358 -6.49086e-09 6.50283e-10)
(0.154443 6.14343e-09 8.72212e-10)
(0.154444 -2.36073e-09 -1.70838e-09)
(0.154446 -4.02061e-09 8.37966e-10)
(0.166234 1.42786e-08 9.05143e-10)
(0.166236 -1.85051e-08 -1.85676e-09)
(0.166238 3.96339e-09 9.53078e-10)
(0.17536 2.1697e-08 1.03401e-09)
(0.175362 -3.24736e-08 -2.22644e-09)
(0.175364 1.05227e-08 1.19301e-09)
(0.182889 2.32193e-08 1.16556e-09)
(0.182891 -3.53954e-08 -2.54803e-09)
(0.182892 1.19293e-08 1.38189e-09)
(0.189369 1.84059e-08 1.24103e-09)
(0.189371 -2.73864e-08 -2.68157e-09)
(0.189373 8.76568e-09 1.4394e-09)
(0.195097 8.25571e-09 1.19358e-09)
(0.195099 -1.25814e-08 -2.5599e-09)
(0.1951 4.14972e-09 1.36525e-09)
(0.200229 -1.4812e-09 1.09577e-09)
(0.200231 1.5719e-09 -2.29764e-09)
(0.200232 -2.17245e-10 1.2008e-09)
(0.204818 -9.79785e-09 1.03656e-09)
(0.204819 1.33971e-08 -2.05734e-09)
(0.204821 -3.68355e-09 1.01993e-09)
(0.20883 -1.50275e-08 1.02978e-09)
(0.208832 2.14185e-08 -1.83066e-09)
(0.208833 -6.42811e-09 8.00112e-10)
(0.212178 -1.5738e-08 1.12178e-09)
(0.212179 2.35813e-08 -1.65425e-09)
(0.212181 -7.85444e-09 5.32108e-10)
(0.214747 -1.47791e-08 1.26436e-09)
(0.214748 2.15989e-08 -1.51187e-09)
(0.21475 -6.82293e-09 2.47515e-10)
(0.216506 -1.00863e-08 1.36123e-09)
(0.216506 1.39146e-08 -1.33038e-09)
(0.216508 -3.84956e-09 -3.04757e-11)
(0.217463 -3.37003e-09 1.39889e-09)
(0.217463 4.64779e-09 -1.17085e-09)
(0.217465 -1.34487e-09 -2.27652e-10)
(0.217463 3.13521e-09 1.40003e-09)
(0.217463 -4.21149e-09 -1.17387e-09)
(0.217465 9.67396e-10 -2.25684e-10)
(0.216505 9.79155e-09 1.36065e-09)
(0.216505 -1.34368e-08 -1.32962e-09)
(0.216507 3.48721e-09 -3.06956e-11)
(0.214745 1.43925e-08 1.26521e-09)
(0.214746 -2.10311e-08 -1.51138e-09)
(0.214748 6.46104e-09 2.46278e-10)
(0.212176 1.53348e-08 1.12095e-09)
(0.212177 -2.29932e-08 -1.64978e-09)
(0.212178 7.48105e-09 5.28659e-10)
(0.208829 1.47221e-08 1.02525e-09)
(0.20883 -2.09315e-08 -1.8209e-09)
(0.208831 6.05248e-09 7.95023e-10)
(0.204816 9.55359e-09 1.03395e-09)
(0.204817 -1.29571e-08 -2.04584e-09)
(0.204819 3.28229e-09 1.01128e-09)
(0.200227 1.2127e-09 1.08962e-09)
(0.200229 -9.762e-10 -2.29383e-09)
(0.20023 -3.31139e-10 1.20358e-09)
(0.195093 -8.70676e-09 1.19261e-09)
(0.195095 1.32155e-08 -2.55207e-09)
(0.195096 -4.5822e-09 1.35893e-09)
(0.189362 -1.89768e-08 1.23902e-09)
(0.189364 2.81724e-08 -2.67853e-09)
(0.189365 -9.25714e-09 1.43914e-09)
(0.182878 -2.39298e-08 1.17016e-09)
(0.18288 3.63757e-08 -2.54626e-09)
(0.182882 -1.25e-08 1.37589e-09)
(0.175348 -2.23801e-08 1.03319e-09)
(0.17535 3.34988e-08 -2.2203e-09)
(0.175352 -1.11707e-08 1.18693e-09)
(0.166223 -1.475e-08 9.0517e-10)
(0.166225 1.90974e-08 -1.83709e-09)
(0.166227 -4.39291e-09 9.31421e-10)
(0.154434 -6.47555e-09 8.72951e-10)
(0.154436 2.52363e-09 -1.69121e-09)
(0.154438 3.91904e-09 8.17349e-10)
(0.13735 -1.81e-09 8.30928e-10)
(0.13735 -4.57828e-09 -1.46539e-09)
(0.137352 6.37638e-09 6.33311e-10)
(0.0799552 3.13958e-10 5.1955e-10)
(0.0799553 -2.51751e-09 -9.1794e-10)
(0.0799562 2.20496e-09 3.98187e-10)
(0.0891204 -3.27214e-10 8.07686e-10)
(0.0891205 2.86104e-09 -1.51935e-09)
(0.0891214 -2.45635e-09 7.05795e-10)
(0.157441 1.52957e-09 1.34917e-09)
(0.157441 5.49079e-09 -2.35127e-09)
(0.157443 -7.25511e-09 1.03019e-09)
(0.1767 6.59535e-09 1.37379e-09)
(0.176701 -2.14767e-09 -2.63394e-09)
(0.176703 -4.70898e-09 1.26258e-09)
(0.189497 1.5514e-08 1.42098e-09)
(0.189498 -1.95639e-08 -2.83702e-09)
(0.189501 3.76024e-09 1.41769e-09)
(0.19934 2.36539e-08 1.63669e-09)
(0.199342 -3.47687e-08 -3.43501e-09)
(0.199344 1.08328e-08 1.79867e-09)
(0.207443 2.53286e-08 1.87271e-09)
(0.207445 -3.80481e-08 -3.9885e-09)
(0.207447 1.24446e-08 2.11468e-09)
(0.214409 2.00476e-08 2.00673e-09)
(0.214411 -2.94392e-08 -4.22033e-09)
(0.214412 9.15223e-09 2.21165e-09)
(0.220558 8.95038e-09 1.93362e-09)
(0.22056 -1.34332e-08 -4.03446e-09)
(0.220561 4.28688e-09 2.09892e-09)
(0.226061 -1.7118e-09 1.76739e-09)
(0.226063 1.88585e-09 -3.61881e-09)
(0.226064 -3.1504e-10 1.84958e-09)
(0.230977 -1.08088e-08 1.65979e-09)
(0.230978 1.46747e-08 -3.2429e-09)
(0.230979 -3.95961e-09 1.5816e-09)
(0.23527 -1.6506e-08 1.63013e-09)
(0.235272 2.33415e-08 -2.8951e-09)
(0.235273 -6.87681e-09 1.26376e-09)
(0.23885 -1.72865e-08 1.75607e-09)
(0.238851 2.56721e-08 -2.63537e-09)
(0.238853 -8.39755e-09 8.78777e-10)
(0.241595 -1.62343e-08 1.96437e-09)
(0.241596 2.3579e-08 -2.42592e-09)
(0.241598 -7.34742e-09 4.6161e-10)
(0.243473 -1.10542e-08 2.10341e-09)
(0.243473 1.51902e-08 -2.16024e-09)
(0.243475 -4.15894e-09 5.74681e-11)
(0.244494 -3.64422e-09 2.14876e-09)
(0.244494 5.03003e-09 -1.92239e-09)
(0.244496 -1.45987e-09 -2.25664e-10)
(0.244494 3.38851e-09 2.15055e-09)
(0.244494 -4.55473e-09 -1.92712e-09)
(0.244496 1.04547e-09 -2.22614e-10)
(0.243472 1.07298e-08 2.10262e-09)
(0.243472 -1.46669e-08 -2.1592e-09)
(0.243474 3.76153e-09 5.71739e-11)
(0.241593 1.5811e-08 1.96572e-09)
(0.241594 -2.29596e-08 -2.42551e-09)
(0.241596 6.95126e-09 4.59984e-10)
(0.238848 1.68448e-08 1.7545e-09)
(0.238849 -2.5032e-08 -2.62852e-09)
(0.23885 7.98975e-09 8.73741e-10)
(0.235268 1.61691e-08 1.62313e-09)
(0.23527 -2.28076e-08 -2.88026e-09)
(0.235271 6.46375e-09 1.25615e-09)
(0.230974 1.0536e-08 1.65499e-09)
(0.230976 -1.41975e-08 -3.22638e-09)
(0.230977 3.52648e-09 1.57036e-09)
(0.226059 1.41057e-09 1.75933e-09)
(0.22606 -1.23336e-09 -3.61156e-09)
(0.226062 -2.83075e-10 1.85121e-09)
(0.220554 -9.4476e-09 1.93189e-09)
(0.220556 1.41313e-08 -4.02375e-09)
(0.220557 -4.76576e-09 2.09101e-09)
(0.214401 -2.06797e-08 2.00455e-09)
(0.214403 3.02993e-08 -4.21632e-09)
(0.214405 -9.68851e-09 2.21121e-09)
(0.207432 -2.6115e-08 1.87954e-09)
(0.207434 3.91199e-08 -3.98635e-09)
(0.207436 -1.30658e-08 2.10647e-09)
(0.199327 -2.44114e-08 1.63577e-09)
(0.199329 3.58875e-08 -3.42457e-09)
(0.199331 -1.15344e-08 1.78851e-09)
(0.189484 -1.60394e-08 1.42051e-09)
(0.189486 2.0214e-08 -2.80427e-09)
(0.189488 -4.22564e-09 1.38291e-09)
(0.17669 -6.96362e-09 1.375e-09)
(0.176692 2.33326e-09 -2.60573e-09)
(0.176694 4.59319e-09 1.22914e-09)
(0.157434 -1.72853e-09 1.32606e-09)
(0.157435 -5.41029e-09 -2.33109e-09)
(0.157437 7.12427e-09 1.00306e-09)
(0.0891162 4.09065e-10 8.18397e-10)
(0.0891164 -2.83961e-09 -1.50919e-09)
(0.0891172 2.43169e-09 6.90267e-10)
(0.098226 -4.51477e-10 1.16005e-09)
(0.0982262 3.19566e-09 -2.24064e-09)
(0.0982271 -2.67739e-09 1.072e-09)
(0.170954 1.39876e-09 1.91162e-09)
(0.170954 6.12989e-09 -3.31041e-09)
(0.170956 -7.73434e-09 1.43761e-09)
(0.192253 6.79188e-09 1.95357e-09)
(0.192255 -1.81016e-09 -3.67453e-09)
(0.192257 -5.24422e-09 1.72523e-09)
(0.205965 1.61313e-08 2.03262e-09)
(0.205967 -1.97833e-08 -3.96423e-09)
(0.20597 3.35125e-09 1.93379e-09)
(0.216428 2.46945e-08 2.35819e-09)
(0.21643 -3.56772e-08 -4.84019e-09)
(0.216433 1.06846e-08 2.48217e-09)
(0.225018 2.64833e-08 2.72392e-09)
(0.22502 -3.92478e-08 -5.67585e-09)
(0.225022 1.24717e-08 2.9502e-09)
(0.23239 2.09492e-08 2.92849e-09)
(0.232392 -3.0396e-08 -6.02928e-09)
(0.232394 9.19139e-09 3.09783e-09)
(0.238891 9.31269e-09 2.82713e-09)
(0.238892 -1.37763e-08 -5.77233e-09)
(0.238894 4.25461e-09 2.94224e-09)
(0.244702 -1.90214e-09 2.58011e-09)
(0.244704 2.17243e-09 -5.18198e-09)
(0.244705 -4.20882e-10 2.59908e-09)
(0.249888 -1.1472e-08 2.41444e-09)
(0.249889 1.54922e-08 -4.65321e-09)
(0.249891 -4.12031e-09 2.23649e-09)
(0.254415 -1.74463e-08 2.35464e-09)
(0.254416 2.45183e-08 -4.17582e-09)
(0.254418 -7.11602e-09 1.81938e-09)
(0.258186 -1.82762e-08 2.51589e-09)
(0.258187 2.69438e-08 -3.83243e-09)
(0.258189 -8.68011e-09 1.3158e-09)
(0.261076 -1.71711e-08 2.79789e-09)
(0.261077 2.48314e-08 -3.55967e-09)
(0.261079 -7.66265e-09 7.61882e-10)
(0.263052 -1.16726e-08 2.98255e-09)
(0.263052 1.60157e-08 -3.20892e-09)
(0.263055 -4.36724e-09 2.27333e-10)
(0.264125 -3.8235e-09 3.04069e-09)
(0.264126 5.28832e-09 -2.89648e-09)
(0.264128 -1.54372e-09 -1.43095e-10)
(0.264125 3.55273e-09 3.04324e-09)
(0.264125 -4.78539e-09 -2.90323e-09)
(0.264128 1.10385e-09 -1.38766e-10)
(0.263051 1.1328e-08 2.98152e-09)
(0.263051 -1.5462e-08 -3.20758e-09)
(0.263054 3.94633e-09 2.26981e-10)
(0.261074 1.67238e-08 2.79984e-09)
(0.261075 -2.41791e-08 -3.55949e-09)
(0.261077 7.2445e-09 7.59977e-10)
(0.258183 1.78095e-08 2.5134e-09)
(0.258184 -2.62717e-08 -3.82287e-09)
(0.258186 8.25101e-09 1.30906e-09)
(0.254412 1.70882e-08 2.34463e-09)
(0.254414 -2.39539e-08 -4.155e-09)
(0.254415 6.67883e-09 1.80896e-09)
(0.249885 1.11786e-08 2.40691e-09)
(0.249887 -1.49927e-08 -4.63079e-09)
(0.249888 3.66968e-09 2.22232e-09)
(0.244699 1.57794e-09 2.56982e-09)
(0.244701 -1.48497e-09 -5.17093e-09)
(0.244702 -2.06579e-10 2.59963e-09)
(0.238886 -9.83909e-09 2.82449e-09)
(0.238888 1.45152e-08 -5.75842e-09)
(0.238889 -4.76415e-09 2.93272e-09)
(0.232382 -2.16202e-08 2.92631e-09)
(0.232383 3.13003e-08 -6.02414e-09)
(0.232385 -9.75401e-09 3.09705e-09)
(0.225006 -2.73162e-08 2.73316e-09)
(0.225008 4.03725e-08 -5.67327e-09)
(0.22501 -1.31215e-08 2.93965e-09)
(0.216414 -2.54958e-08 2.3567e-09)
(0.216416 3.68473e-08 -4.82425e-09)
(0.216419 -1.14141e-08 2.46711e-09)
(0.205952 -1.66846e-08 2.03104e-09)
(0.205954 2.04655e-08 -3.91621e-09)
(0.205956 -3.83559e-09 1.8839e-09)
(0.192243 -7.16834e-09 1.95445e-09)
(0.192245 2.011e-09 -3.63365e-09)
(0.192247 5.11733e-09 1.67679e-09)
(0.170947 -1.57257e-09 1.87864e-09)
(0.170948 -6.03812e-09 -3.28129e-09)
(0.170949 7.59385e-09 1.39967e-09)
(0.0982216 5.22084e-10 1.17541e-09)
(0.0982218 -3.17063e-09 -2.22488e-09)
(0.0982227 2.64929e-09 1.04856e-09)
(0.107404 -6.01436e-10 1.59157e-09)
(0.107405 3.54028e-09 -3.09784e-09)
(0.107405 -2.89139e-09 1.50507e-09)
(0.181022 1.24552e-09 2.52558e-09)
(0.181023 6.64552e-09 -4.34157e-09)
(0.181024 -8.06868e-09 1.86549e-09)
(0.204202 6.85116e-09 2.60708e-09)
(0.204203 -1.40195e-09 -4.81873e-09)
(0.204206 -5.70818e-09 2.21923e-09)
(0.218796 1.64072e-08 2.73511e-09)
(0.218798 -1.95251e-08 -5.23473e-09)
(0.2188 2.81082e-09 2.50274e-09)
(0.229825 2.52242e-08 3.1963e-09)
(0.229827 -3.58014e-08 -6.43563e-09)
(0.229829 1.02678e-08 3.23943e-09)
(0.238846 2.71028e-08 3.71232e-09)
(0.238848 -3.96256e-08 -7.59895e-09)
(0.23885 1.22173e-08 3.88422e-09)
(0.246573 2.14346e-08 3.99783e-09)
(0.246575 -3.07289e-08 -8.09268e-09)
(0.246577 9.0273e-09 4.0907e-09)
(0.253378 9.48487e-09 3.86703e-09)
(0.253379 -1.38206e-08 -7.76128e-09)
(0.253381 4.11732e-09 3.89001e-09)
(0.259455 -2.07544e-09 3.53138e-09)
(0.259456 2.46199e-09 -6.98054e-09)
(0.259458 -5.44105e-10 3.44521e-09)
(0.264873 -1.19462e-08 3.30116e-09)
(0.264874 1.60748e-08 -6.28645e-09)
(0.264876 -4.23333e-09 2.98204e-09)
(0.269598 -1.80899e-08 3.20703e-09)
(0.2696 2.5297e-08 -5.67546e-09)
(0.269601 -7.25332e-09 2.46595e-09)
(0.273533 -1.89566e-08 3.40574e-09)
(0.273534 2.77741e-08 -5.2545e-09)
(0.273536 -8.83057e-09 1.84773e-09)
(0.276547 -1.78208e-08 3.77e-09)
(0.276548 2.56884e-08 -4.92877e-09)
(0.27655 -7.86992e-09 1.15894e-09)
(0.278606 -1.20969e-08 4.00367e-09)
(0.278606 1.66e-08 -4.49806e-09)
(0.278609 -4.52835e-09 4.95733e-10)
(0.279723 -3.95039e-09 4.07406e-09)
(0.279724 5.48161e-09 -4.1128e-09)
(0.279726 -1.6139e-09 4.03256e-11)
(0.279723 3.66726e-09 4.07747e-09)
(0.279723 -4.95692e-09 -4.1219e-09)
(0.279726 1.15466e-09 4.61817e-11)
(0.278604 1.17369e-08 4.00234e-09)
(0.278605 -1.60238e-08 -4.49635e-09)
(0.278607 4.09015e-09 4.95329e-10)
(0.276545 1.73559e-08 3.77261e-09)
(0.276546 -2.50134e-08 -4.92907e-09)
(0.276548 7.4366e-09 1.15692e-09)
(0.27353 1.84716e-08 3.40213e-09)
(0.273531 -2.70804e-08 -5.24191e-09)
(0.273533 8.38741e-09 1.83922e-09)
(0.269596 1.77154e-08 3.19353e-09)
(0.269597 -2.47109e-08 -5.64791e-09)
(0.269599 6.79951e-09 2.45243e-09)
(0.26487 1.16361e-08 3.29035e-09)
(0.264871 -1.55588e-08 -6.25736e-09)
(0.264873 3.77102e-09 2.96481e-09)
(0.259452 1.73304e-09 3.51861e-09)
(0.259453 -1.75065e-09 -6.96518e-09)
(0.259455 -1.01884e-10 3.4445e-09)
(0.253373 -1.00324e-08 3.86329e-09)
(0.253374 1.45869e-08 -7.74399e-09)
(0.253376 -4.64721e-09 3.87901e-09)
(0.246564 -2.21326e-08 3.99574e-09)
(0.246566 3.16614e-08 -8.08621e-09)
(0.246568 -9.60655e-09 4.08939e-09)
(0.238833 -2.79664e-08 3.72416e-09)
(0.238835 4.07819e-08 -7.59592e-09)
(0.238837 -1.28842e-08 3.87113e-09)
(0.22981 -2.60533e-08 3.19348e-09)
(0.229812 3.6999e-08 -6.41259e-09)
(0.229814 -1.10113e-08 3.21848e-09)
(0.218782 -1.6977e-08 2.73176e-09)
(0.218784 2.02246e-08 -5.16964e-09)
(0.218786 -3.30505e-09 2.43611e-09)
(0.204191 -7.22766e-09 2.60667e-09)
(0.204193 1.61384e-09 -4.76377e-09)
(0.204195 5.57175e-09 2.15374e-09)
(0.181015 -1.39493e-09 2.48246e-09)
(0.181015 -6.54621e-09 -4.30287e-09)
(0.181017 7.92222e-09 1.81621e-09)
(0.1074 6.52005e-10 1.6017e-09)
(0.1074 -3.51157e-09 -3.07552e-09)
(0.107401 2.85967e-09 1.47235e-09)
(0.116708 -7.71374e-10 2.10664e-09)
(0.116708 3.89011e-09 -4.12299e-09)
(0.116709 -3.09713e-09 2.01824e-09)
(0.189083 1.08331e-09 3.189e-09)
(0.189084 7.07038e-09 -5.4404e-09)
(0.189085 -8.31355e-09 2.31153e-09)
(0.213928 6.8272e-09 3.32518e-09)
(0.213929 -9.46914e-10 -6.04597e-09)
(0.213931 -6.13598e-09 2.73294e-09)
(0.229397 1.64634e-08 3.52428e-09)
(0.229398 -1.89411e-08 -6.64072e-09)
(0.229401 2.16577e-09 3.12097e-09)
(0.240965 2.54193e-08 4.14551e-09)
(0.240967 -3.53942e-08 -8.21767e-09)
(0.24097 9.65673e-09 4.07228e-09)
(0.250385 2.73687e-08 4.83483e-09)
(0.250387 -3.94482e-08 -9.7516e-09)
(0.250389 1.17644e-08 4.91357e-09)
(0.258435 2.16434e-08 5.21226e-09)
(0.258436 -3.06378e-08 -1.04054e-08)
(0.258438 8.71876e-09 5.18757e-09)
(0.265512 9.52763e-09 5.05148e-09)
(0.265514 -1.3654e-08 -9.99617e-09)
(0.265515 3.90084e-09 4.93895e-09)
(0.271825 -2.24355e-09 4.61854e-09)
(0.271826 2.76981e-09 -9.01269e-09)
(0.271828 -6.89077e-10 4.38886e-09)
(0.277448 -1.23032e-08 4.31989e-09)
(0.277449 1.65213e-08 -8.14363e-09)
(0.277451 -4.3264e-09 3.81938e-09)
(0.282349 -1.85449e-08 4.19119e-09)
(0.28235 2.58313e-08 -7.39971e-09)
(0.282352 -7.3344e-09 3.20521e-09)
(0.286427 -1.94396e-08 4.43158e-09)
(0.286429 2.83295e-08 -6.91129e-09)
(0.28643 -8.90359e-09 2.47835e-09)
(0.28955 -1.82874e-08 4.88735e-09)
(0.289551 2.62935e-08 -6.5494e-09)
(0.289553 -8.00865e-09 1.66227e-09)
(0.29168 -1.23969e-08 5.17373e-09)
(0.291681 1.70326e-08 -6.04944e-09)
(0.291684 -4.66201e-09 8.77497e-10)
(0.292836 -4.04402e-09 5.25668e-09)
(0.292836 5.63486e-09 -5.59625e-09)
(0.292839 -1.67671e-09 3.41693e-10)
(0.292835 3.74997e-09 5.26103e-09)
(0.292836 -5.09201e-09 -5.6081e-09)
(0.292838 1.20199e-09 3.49397e-10)
(0.291679 1.20241e-08 5.17201e-09)
(0.29168 -1.64388e-08 -6.04725e-09)
(0.291682 4.21052e-09 8.7702e-10)
(0.289548 1.78084e-08 4.89071e-09)
(0.289549 -2.5602e-08 -6.55044e-09)
(0.289551 7.56464e-09 1.66034e-09)
(0.286424 1.894e-08 4.42662e-09)
(0.286426 -2.76204e-08 -6.89534e-09)
(0.286428 8.45098e-09 2.46795e-09)
(0.282346 1.81564e-08 4.17373e-09)
(0.282348 -2.52283e-08 -7.36467e-09)
(0.282349 6.86878e-09 3.18836e-09)
(0.277445 1.19787e-08 4.30528e-09)
(0.277446 -1.59914e-08 -8.10704e-09)
(0.277448 3.85527e-09 3.7988e-09)
(0.271822 1.88569e-09 4.60295e-09)
(0.271823 -2.04125e-09 -8.99265e-09)
(0.271825 3.13233e-11 4.38694e-09)
(0.265507 -1.00917e-08 5.04648e-09)
(0.265508 1.44391e-08 -9.97529e-09)
(0.26551 -4.44384e-09 4.92656e-09)
(0.258425 -2.23608e-08 5.21039e-09)
(0.258427 3.15886e-08 -1.03973e-08)
(0.258429 -9.30868e-09 5.18545e-09)
(0.250372 -2.82528e-08 4.84951e-09)
(0.250374 4.06223e-08 -9.74806e-09)
(0.250376 -1.2441e-08 4.8977e-09)
(0.24095 -2.62663e-08 4.14074e-09)
(0.240952 3.66036e-08 -8.18591e-09)
(0.240954 -1.04054e-08 4.04429e-09)
(0.229382 -1.70433e-08 3.51841e-09)
(0.229384 1.96481e-08 -6.55707e-09)
(0.229386 -2.66418e-09 3.03628e-09)
(0.213916 -7.20161e-09 3.32253e-09)
(0.213918 1.16697e-09 -5.97576e-09)
(0.21392 5.99098e-09 2.64877e-09)
(0.189075 -1.21816e-09 3.13544e-09)
(0.189076 -6.96621e-09 -5.39171e-09)
(0.189077 8.1635e-09 2.25067e-09)
(0.116703 7.95385e-10 2.11599e-09)
(0.116703 -3.85799e-09 -4.09277e-09)
(0.116704 3.0618e-09 1.97459e-09)
(0.126142 -9.53612e-10 2.73002e-09)
(0.126142 4.23562e-09 -5.34863e-09)
(0.126143 -3.29109e-09 2.62583e-09)
(0.195912 9.2396e-10 3.90335e-09)
(0.195913 7.4134e-09 -6.61261e-09)
(0.195914 -8.49139e-09 2.77965e-09)
(0.222155 6.74983e-09 4.10479e-09)
(0.222157 -4.62148e-10 -7.33829e-09)
(0.222159 -6.54224e-09 3.25139e-09)
(0.238498 1.63633e-08 4.39331e-09)
(0.2385 -1.81075e-08 -8.16954e-09)
(0.238502 1.42766e-09 3.78265e-09)
(0.250599 2.53703e-08 5.20371e-09)
(0.250601 -3.45786e-08 -1.0182e-08)
(0.250604 8.8828e-09 4.97856e-09)
(0.260401 2.73719e-08 6.08883e-09)
(0.260402 -3.88437e-08 -1.21299e-08)
(0.260404 1.11493e-08 6.03699e-09)
(0.268751 2.16448e-08 6.5701e-09)
(0.268753 -3.02187e-08 -1.29648e-08)
(0.268755 8.29155e-09 6.38756e-09)
(0.27608 9.4704e-09 6.37989e-09)
(0.276082 -1.3317e-08 -1.24755e-08)
(0.276083 3.61565e-09 6.08814e-09)
(0.282608 -2.41366e-09 5.84343e-09)
(0.28261 3.10607e-09 -1.12811e-08)
(0.282611 -8.59256e-10 5.43085e-09)
(0.288417 -1.25808e-08 5.47278e-09)
(0.288419 1.68835e-08 -1.0231e-08)
(0.28842 -4.41373e-09 4.75257e-09)
(0.293477 -1.88669e-08 5.31154e-09)
(0.293478 2.62001e-08 -9.35784e-09)
(0.29348 -7.38254e-09 4.04204e-09)
(0.297684 -1.97829e-08 5.60123e-09)
(0.297686 2.86952e-08 -8.81586e-09)
(0.297688 -8.92656e-09 3.21286e-09)
(0.300904 -1.86249e-08 6.15798e-09)
(0.300905 2.67168e-08 -8.44014e-09)
(0.300907 -8.09505e-09 2.28247e-09)
(0.303099 -1.26085e-08 6.5028e-09)
(0.3031 1.73563e-08 -7.88741e-09)
(0.303102 -4.77534e-09 1.3869e-09)
(0.304288 -4.11418e-09 6.6002e-09)
(0.304289 5.75989e-09 -7.37392e-09)
(0.304291 -1.73441e-09 7.76474e-10)
(0.304287 3.81006e-09 6.60557e-09)
(0.304288 -5.20148e-09 -7.38907e-09)
(0.304291 1.24707e-09 7.86496e-10)
(0.303098 1.22247e-08 6.5006e-09)
(0.303099 -1.67484e-08 -7.88459e-09)
(0.303101 4.31356e-09 1.3863e-09)
(0.300902 1.8134e-08 6.1622e-09)
(0.300903 -2.60133e-08 -8.44225e-09)
(0.300905 7.64376e-09 2.28082e-09)
(0.297681 1.92712e-08 5.59472e-09)
(0.297683 -2.79749e-08 -8.79619e-09)
(0.297685 8.46777e-09 3.20047e-09)
(0.293474 1.8466e-08 5.28967e-09)
(0.293475 -2.55834e-08 -9.31458e-09)
(0.293477 6.90847e-09 4.0216e-09)
(0.288414 1.22432e-08 5.45384e-09)
(0.288416 -1.63409e-08 -1.01861e-08)
(0.288417 3.93543e-09 4.72837e-09)
(0.282605 2.04211e-09 5.82473e-09)
(0.282607 -2.3648e-09 -1.1256e-08)
(0.282608 1.94494e-10 5.42773e-09)
(0.276074 -1.00481e-08 6.37345e-09)
(0.276076 1.41147e-08 -1.24509e-08)
(0.276078 -4.16638e-09 6.07452e-09)
(0.268741 -2.23763e-08 6.56866e-09)
(0.268743 3.11807e-08 -1.29549e-08)
(0.268745 -8.88806e-09 6.38432e-09)
(0.260387 -2.82693e-08 6.10672e-09)
(0.260389 4.00258e-08 -1.21258e-08)
(0.260391 -1.18304e-08 6.01797e-09)
(0.250583 -2.6228e-08 5.19642e-09)
(0.250585 3.57883e-08 -1.01397e-08)
(0.250587 -9.63045e-09 4.9421e-09)
(0.238483 -1.69493e-08 4.38412e-09)
(0.238485 1.88145e-08 -8.06598e-09)
(0.238487 -1.92616e-09 3.67877e-09)
(0.222143 -7.12247e-09 4.09588e-09)
(0.222145 6.88108e-10 -7.25179e-09)
(0.222147 6.38941e-09 3.15022e-09)
(0.195904 -1.05587e-09 3.83938e-09)
(0.195904 -7.30653e-09 -6.55367e-09)
(0.195906 8.33965e-09 2.7071e-09)
(0.126137 9.46381e-10 2.7366e-09)
(0.126137 -4.2008e-09 -5.30916e-09)
(0.126138 3.25237e-09 2.56944e-09)
(0.135677 -1.13731e-09 3.479e-09)
(0.135677 4.56179e-09 -6.80596e-09)
(0.135679 -3.46733e-09 3.34169e-09)
(0.201974 7.80565e-10 4.67204e-09)
(0.201974 7.66948e-09 -7.87003e-09)
(0.201976 -8.60881e-09 3.27821e-09)
(0.229316 6.6388e-09 4.94078e-09)
(0.229317 3.36247e-11 -8.67948e-09)
(0.22932 -6.92854e-09 3.76319e-09)
(0.246523 1.61456e-08 5.34116e-09)
(0.246525 -1.7071e-08 -9.80533e-09)
(0.246527 6.03978e-10 4.47294e-09)
(0.25916 2.51295e-08 6.36633e-09)
(0.259161 -3.34209e-08 -1.23201e-08)
(0.259164 7.95955e-09 5.95424e-09)
(0.269335 2.71632e-08 7.47461e-09)
(0.269337 -3.78785e-08 -1.47319e-08)
(0.269339 1.03869e-08 7.25223e-09)
(0.277975 2.14762e-08 8.07522e-09)
(0.277977 -2.95198e-08 -1.57715e-08)
(0.277979 7.75622e-09 7.68731e-09)
(0.285541 9.32818e-09 7.85592e-09)
(0.285543 -1.28284e-08 -1.52004e-08)
(0.285545 3.26516e-09 7.33506e-09)
(0.292271 -2.59111e-09 7.20754e-09)
(0.292272 3.47898e-09 -1.37864e-08)
(0.292274 -1.05775e-09 6.5702e-09)
(0.298252 -1.28012e-08 6.76158e-09)
(0.298254 1.71917e-08 -1.25529e-08)
(0.298255 -4.5036e-09 5.78419e-09)
(0.303458 -1.90877e-08 6.5711e-09)
(0.303459 2.64482e-08 -1.15586e-08)
(0.303461 -7.41099e-09 4.98211e-09)
(0.307784 -2.00196e-08 6.92086e-09)
(0.307786 2.89191e-08 -1.09809e-08)
(0.307788 -8.91445e-09 4.05786e-09)
(0.311093 -1.8864e-08 7.58939e-09)
(0.311094 2.69982e-08 -1.06188e-08)
(0.311096 -8.1381e-09 3.02977e-09)
(0.313346 -1.27518e-08 8.00293e-09)
(0.313347 1.75921e-08 -1.00356e-08)
(0.31335 -4.86926e-09 2.03559e-09)
(0.314565 -4.16638e-09 8.11789e-09)
(0.314566 5.86237e-09 -9.47319e-09)
(0.314569 -1.78727e-09 1.35878e-09)
(0.314565 3.85276e-09 8.12434e-09)
(0.314566 -5.29057e-09 -9.49234e-09)
(0.314568 1.28977e-09 1.37176e-09)
(0.313345 1.23583e-08 8.00013e-09)
(0.313346 -1.69732e-08 -1.0032e-08)
(0.313348 4.3998e-09 2.03476e-09)
(0.31109 1.83629e-08 7.59463e-09)
(0.311092 -2.62863e-08 -1.06223e-08)
(0.311094 7.68244e-09 3.02864e-09)
(0.307781 1.94973e-08 6.91257e-09)
(0.307782 -2.81905e-08 -1.09572e-08)
(0.307784 8.45201e-09 4.04336e-09)
(0.303454 1.86754e-08 6.54438e-09)
(0.303456 -2.582e-08 -1.15064e-08)
(0.303458 6.93101e-09 4.95784e-09)
(0.298249 1.24512e-08 6.73782e-09)
(0.29825 -1.66368e-08 -1.24987e-08)
(0.298252 4.01927e-09 5.75608e-09)
(0.292267 2.2071e-09 7.18539e-09)
(0.292269 -2.7283e-09 -1.37558e-08)
(0.29227 3.8966e-10 6.56596e-09)
(0.285535 -9.91727e-09 7.84786e-09)
(0.285537 1.3634e-08 -1.5172e-08)
(0.285539 -3.81936e-09 7.32043e-09)
(0.277965 -2.22176e-08 8.0745e-09)
(0.277967 3.04877e-08 -1.57595e-08)
(0.277969 -8.35635e-09 7.68257e-09)
(0.269321 -2.80681e-08 7.49672e-09)
(0.269323 3.9061e-08 -1.47272e-08)
(0.269325 -1.10689e-08 7.22909e-09)
(0.259143 -2.59922e-08 6.35599e-09)
(0.259145 3.46216e-08 -1.22656e-08)
(0.259147 -8.70131e-09 5.90809e-09)
(0.246507 -1.6735e-08 5.32781e-09)
(0.246509 1.77719e-08 -9.68059e-09)
(0.246511 -1.09914e-09 4.34888e-09)
(0.229304 -7.01194e-09 4.92527e-09)
(0.229305 1.96213e-10 -8.57575e-09)
(0.229307 6.7697e-09 3.64344e-09)
(0.201964 -9.19721e-10 4.59779e-09)
(0.201965 -7.56184e-09 -7.80069e-09)
(0.201966 8.45695e-09 3.19394e-09)
(0.135672 1.0961e-09 3.48095e-09)
(0.135672 -4.52551e-09 -6.75581e-09)
(0.135673 3.42577e-09 3.27055e-09)
(0.145257 -1.30808e-09 4.37264e-09)
(0.145258 4.84751e-09 -8.52626e-09)
(0.145259 -3.6173e-09 4.17957e-09)
(0.207567 6.67803e-10 5.49917e-09)
(0.207567 7.82348e-09 -9.2279e-09)
(0.207569 -8.6632e-09 3.81811e-09)
(0.235697 6.51225e-09 5.83249e-09)
(0.235698 5.15633e-10 -1.0054e-08)
(0.2357 -7.28828e-09 4.25318e-09)
(0.253736 1.58379e-08 6.36135e-09)
(0.253737 -1.58683e-08 -1.15234e-08)
(0.253739 -2.95972e-10 5.17366e-09)