/*--------------------------------*- C++ -*----------------------------------*\
  =========                 |
  \\      /  F ield         | OpenFOAM: The Open Source CFD Toolbox
   \\    /   O peration     | Website:  https://openfoam.org
    \\  /    A nd           | Version:  6
     \\/     M anipulation  |
\*---------------------------------------------------------------------------*/
FoamFile
{
    version     2.0;
    format      ascii;
    class       volVectorField;
    location    "42";
    object      wallShearStress;
}
// * * * * * * * * * * * * * * * * * * * * * * * * * * * * * * * * * * * * * //

dimensions      [0 2 -2 0 0 0 0];

internalField   uniform (0 0 0);

boundaryField
{
    inlet
    {
        type            calculated;
        value           uniform (0 0 0);
    }
    outlet
    {
        type            calculated;
        value           uniform (0 0 0);
    }
    roughCylinder
    {
        type            calculated;
        value           nonuniform List<vector> 
3840
(
(-0.000270734 -0.000396122 -0.000163175)
(-0.000326015 -0.000510301 -2.30282e-05)
(-0.000375455 -0.000631187 4.21602e-05)
(-0.000450549 -0.000734409 0.000123799)
(-0.000538546 -0.000808329 0.000205949)
(-0.000629771 -0.000848715 0.000278046)
(-0.000714634 -0.000859509 0.00033477)
(-0.000788383 -0.000852042 0.000374638)
(-0.000851457 -0.000845635 0.000401926)
(-0.000900077 -0.000844245 0.000416257)
(-0.000938786 -0.000851895 0.000419621)
(-0.000970962 -0.000867041 0.000414185)
(-0.000999683 -0.000888072 0.000402496)
(-0.00102786 -0.000913496 0.000386622)
(-0.00105752 -0.00094237 0.000367991)
(-0.0010898 -0.000974188 0.000347263)
(-0.00112501 -0.00100862 0.000324521)
(-0.001163 -0.00104534 0.000299443)
(-0.00120323 -0.00108383 0.000271459)
(-0.00124488 -0.00112325 0.000239681)
(-0.00128685 -0.0011624 0.000202676)
(-0.00132724 -0.00119934 0.00015838)
(-0.0013618 -0.00123066 0.000103088)
(-0.00138348 -0.00125044 3.58746e-05)
(-0.000290139 -0.000383855 -0.000155475)
(-0.000348969 -0.000494331 -2.6747e-05)
(-0.000400818 -0.000615101 3.34024e-05)
(-0.000478258 -0.000719658 0.000111636)
(-0.000568177 -0.000796236 0.000191943)
(-0.000661398 -0.000839604 0.000262978)
(-0.000749295 -0.000854519 0.000319673)
(-0.000827978 -0.000853176 0.000361569)
(-0.000895991 -0.000849972 0.000391392)
(-0.00094862 -0.000847375 0.000407247)
(-0.000989312 -0.000853687 0.000411263)
(-0.00102343 -0.000868175 0.000406146)
(-0.00105404 -0.000888994 0.000394691)
(-0.00108414 -0.000914435 0.000379041)
(-0.0011158 -0.000943428 0.000360702)
(-0.00115016 -0.00097537 0.000340352)
(-0.00118756 -0.0010099 0.000318089)
(-0.00122779 -0.00104666 0.000293588)
(-0.00127031 -0.00108512 0.000266266)
(-0.00131422 -0.00112446 0.000235223)
(-0.00135838 -0.00116348 0.000199017)
(-0.00140082 -0.00120026 0.000155623)
(-0.00143704 -0.00123138 0.000101364)
(-0.0014597 -0.00125097 3.52861e-05)
(-0.000309523 -0.000366197 -0.000142461)
(-0.000371367 -0.000473029 -3.09699e-05)
(-0.000425465 -0.000592412 2.38756e-05)
(-0.000504687 -0.000697538 9.83247e-05)
(-0.000596405 -0.000776573 0.000176453)
(-0.000691958 -0.000823628 0.000246543)
(-0.000783559 -0.000843779 0.000303865)
(-0.000867142 -0.000848374 0.000347873)
(-0.000939719 -0.000848097 0.000379584)
(-0.000997052 -0.000845539 0.00039712)
(-0.00103986 -0.000850155 0.00040178)
(-0.00107601 -0.000863782 0.000397004)
(-0.00110862 -0.000884171 0.000385849)
(-0.00114074 -0.000909431 0.000370509)
(-0.00117446 -0.000938321 0.000352534)
(-0.00121096 -0.000970165 0.000332646)
(-0.00125058 -0.00100455 0.000310944)
(-0.00129307 -0.0010411 0.0002871)
(-0.00133787 -0.00107929 0.000260522)
(-0.00138402 -0.00111827 0.000230293)
(-0.00143033 -0.00115689 0.000194967)
(-0.00147478 -0.00119324 0.000152568)
(-0.00151262 -0.00122394 9.94546e-05)
(-0.00153621 -0.00124321 3.46355e-05)
(-0.000326727 -0.00034399 -0.000125726)
(-0.000390688 -0.000446777 -3.54946e-05)
(-0.000446558 -0.000563725 1.40048e-05)
(-0.000526995 -0.000668868 8.42518e-05)
(-0.00062045 -0.00075036 0.000159848)
(-0.000718706 -0.000801767 0.000228975)
(-0.000814354 -0.000827821 0.000287146)
(-0.000902787 -0.000838132 0.000333197)
(-0.000980052 -0.000840947 0.000366655)
(-0.00104247 -0.000839723 0.000386051)
(-0.00108808 -0.000842153 0.000391371)
(-0.00112638 -0.000854713 0.000387052)
(-0.00116115 -0.000874485 0.000376286)
(-0.00119535 -0.000899379 0.000361336)
(-0.0012312 -0.000928022 0.000343816)
(-0.00126986 -0.000959602 0.000324462)
(-0.00131166 -0.000993659 0.000303391)
(-0.00135635 -0.00102979 0.000280266)
(-0.00140333 -0.00106748 0.000254489)
(-0.0014516 -0.00110588 0.000225127)
(-0.00149994 -0.00114387 0.000190726)
(-0.00154628 -0.00117959 0.000149371)
(-0.00158561 -0.00120969 9.74622e-05)
(-0.00161003 -0.00122851 3.39586e-05)
(-0.000340991 -0.000318119 -0.000107079)
(-0.000406376 -0.000416385 -3.98937e-05)
(-0.000463363 -0.000529897 4.12178e-06)
(-0.000544399 -0.000634413 6.97558e-05)
(-0.000639477 -0.000718227 0.000142412)
(-0.000740653 -0.000774274 0.000210402)
(-0.000840476 -0.000806316 0.00026932)
(-0.000933651 -0.000821988 0.000317222)
(-0.00101567 -0.000827912 0.000352459)
(-0.00108272 -0.000828192 0.000373427)
(-0.00113288 -0.000829127 0.00037991)
(-0.00117357 -0.000840426 0.000376311)
(-0.00121064 -0.000859308 0.000366032)
(-0.00124704 -0.000883654 0.000351593)
(-0.00128501 -0.000911821 0.000334606)
(-0.00132579 -0.000942925 0.000315868)
(-0.00136971 -0.000976442 0.000295501)
(-0.0014165 -0.00101194 0.00027316)
(-0.00146554 -0.00104889 0.000248241)
(-0.00151576 -0.00108648 0.000219792)
(-0.00156597 -0.0011236 0.000186352)
(-0.00161403 -0.00115847 0.000146079)
(-0.0016547 -0.00118777 9.54184e-05)
(-0.00167984 -0.00120603 3.32672e-05)
(-0.000352014 -0.000289747 -8.77268e-05)
(-0.000417766 -0.000382615 -4.39689e-05)
(-0.000475097 -0.000491833 -5.58064e-06)
(-0.000556131 -0.000595115 5.50215e-05)
(-0.000652681 -0.000681068 0.000124274)
(-0.000756927 -0.000741841 0.000190847)
(-0.000861044 -0.000779707 0.000250279)
(-0.000959031 -0.000800355 0.000299812)
(-0.0010459 -0.00080928 0.000336804)
(-0.0011178 -0.000811143 0.00035926)
(-0.0011737 -0.000812149 0.000367478)
(-0.00121713 -0.000821121 0.00036468)
(-0.00125667 -0.000838884 0.000355059)
(-0.00129536 -0.00086235 0.000341245)
(-0.00133552 -0.00088985 0.000324918)
(-0.00137841 -0.000920273 0.000306889)
(-0.00142438 -0.000953025 0.000287305)
(-0.00147313 -0.000987652 0.000265813)
(-0.00152406 -0.00102363 0.000241805)
(-0.00157605 -0.00106015 0.000214309)
(-0.00162791 -0.00109619 0.000181861)
(-0.00167751 -0.00112998 0.000142705)
(-0.00171933 -0.0011583 9.33325e-05)
(-0.00174504 -0.0011759 3.25645e-05)
(-0.00035857 -0.000259208 -6.83843e-05)
(-0.000424292 -0.000346442 -4.75179e-05)
(-0.000481178 -0.000450574 -1.49323e-05)
(-0.000561478 -0.000551969 4.01938e-05)
(-0.000659125 -0.00063968 0.000105521)
(-0.000766357 -0.000704968 0.000170263)
(-0.00087481 -0.000748325 0.000229846)
(-0.00097771 -0.000773593 0.000280728)
(-0.00106967 -0.000785457 0.000319446)
(-0.00114676 -0.000788984 0.000343545)
(-0.00120817 -0.000790709 0.000353498)
(-0.00125632 -0.000797775 0.000352025)
(-0.0012986 -0.000813785 0.000343302)
(-0.00133979 -0.000836195 0.000330297)
(-0.00138215 -0.000862721 0.000314745)
(-0.0014271 -0.000892223 0.000297526)
(-0.00147503 -0.000924007 0.000278813)
(-0.00152562 -0.000957564 0.000258241)
(-0.00157826 -0.000992373 0.000235204)
(-0.00163181 -0.00102764 0.000208707)
(-0.0016851 -0.00106237 0.000177275)
(-0.00173603 -0.00109489 0.000139264)
(-0.00177881 -0.00112207 9.12164e-05)
(-0.00180492 -0.0011389 3.18558e-05)
(-0.000361365 -0.000228101 -4.98708e-05)
(-0.000425457 -0.0003087 -5.05468e-05)
(-0.000480793 -0.000406892 -2.373e-05)
(-0.000559432 -0.000505506 2.55006e-05)
(-0.000657638 -0.000594392 8.62647e-05)
(-0.000767706 -0.0006639 0.000148613)
(-0.000880533 -0.000712436 0.000207885)
(-0.000988585 -0.000742102 0.00025981)
(-0.00108596 -0.000756894 0.000300192)
(-0.00116866 -0.000762206 0.000326148)
(-0.00123564 -0.000764716 0.00033787)
(-0.00128943 -0.000771038 0.000338137)
(-0.00133549 -0.000784933 0.000330683)
(-0.00137931 -0.000805475 0.000318649)
(-0.00142401 -0.000830858 0.000304059)
(-0.00147104 -0.000859239 0.000287778)
(-0.00152081 -0.000889844 0.000270033)
(-0.00157305 -0.000922115 0.000250457)
(-0.00162716 -0.000955542 0.000228447)
(-0.00168196 -0.00098938 0.000202988)
(-0.0017364 -0.00102272 0.000172599)
(-0.00178843 -0.00105386 0.000135763)
(-0.0018319 -0.00107982 8.90777e-05)
(-0.0018582 -0.00109589 3.11443e-05)
(-0.000357557 -0.000195588 -3.23921e-05)
(-0.000420322 -0.000269671 -5.26355e-05)
(-0.000473354 -0.000361313 -3.18212e-05)
(-0.000549398 -0.000456434 1.11131e-05)
(-0.000647385 -0.000545744 6.66914e-05)
(-0.000759818 -0.000618868 0.000125944)
(-0.000876942 -0.000672211 0.000184297)
(-0.000990313 -0.000706074 0.000236859)
(-0.0010935 -0.000723827 0.000278791)
(-0.00118216 -0.000730965 0.000306745)
(-0.00125514 -0.000734418 0.000320532)
(-0.00131458 -0.00074051 0.00032272)
(-0.00136552 -0.00075297 0.000316946)
(-0.00141317 -0.000771871 0.000306372)
(-0.00146019 -0.00079551 0.000292903)
(-0.00150922 -0.00082245 0.000277688)
(-0.00156072 -0.000851714 0.000261024)
(-0.00161441 -0.000882623 0.000242528)
(-0.00166974 -0.000914638 0.000221611)
(-0.00172543 -0.000946971 0.000197223)
(-0.00178052 -0.0009787 0.000167864)
(-0.00183326 -0.00100829 0.000132214)
(-0.00187705 -0.00103289 8.69208e-05)
(-0.00190317 -0.00104808 3.04296e-05)
(-0.000350591 -0.000164266 -1.67158e-05)
(-0.000409113 -0.000230896 -5.44571e-05)
(-0.000458452 -0.000315139 -3.87399e-05)
(-0.000530588 -0.000405371 -2.46683e-06)
(-0.00062731 -0.000494036 4.70927e-05)
(-0.000741684 -0.00057023 0.000102394)
(-0.000862999 -0.000628054 0.000159089)
(-0.000981962 -0.000666066 0.000211823)
(-0.00109135 -0.000686809 0.000255128)
(-0.00118655 -0.000695899 0.000285201)
(-0.00126579 -0.000700225 0.000301303)
(-0.00133103 -0.000706147 0.000305682)
(-0.00138694 -0.000717559 0.00030186)
(-0.00143836 -0.000734928 0.000292947)
(-0.00148837 -0.000756844 0.000280919)
(-0.00153954 -0.000782192 0.000267005)
(-0.00159254 -0.000809868 0.000251555)
(-0.00164723 -0.000839158 0.000234219)
(-0.0017032 -0.000869489 0.000214439)
(-0.00175917 -0.000900032 0.000191145)
(-0.00181453 -0.00092992 0.000162855)
(-0.00186762 -0.00095777 0.000128454)
(-0.00191136 -0.000980843 8.46408e-05)
(-0.001937 -0.000995009 2.96758e-05)
(-0.000333888 -0.00013354 -2.85293e-06)
(-0.000391167 -0.000191064 -5.37158e-05)
(-0.000435654 -0.000268101 -4.4879e-05)
(-0.000502758 -0.000352891 -1.52881e-05)
(-0.000596896 -0.000439879 2.77842e-05)
(-0.000712139 -0.000518169 7.81635e-05)
(-0.000837354 -0.000580134 0.00013229)
(-0.000962004 -0.000622256 0.000184572)
(-0.00107813 -0.000646184 0.000229018)
(-0.00118026 -0.000657218 0.000261218)
(-0.00126647 -0.000662517 0.000279937)
(-0.00133801 -0.000668346 0.000286877)
(-0.00139909 -0.000678707 0.000285303)
(-0.00145454 -0.000694557 0.000278323)
(-0.00150744 -0.000714671 0.000267952)
(-0.00156062 -0.000738217 0.000255526)
(-0.00161497 -0.000764085 0.000241451)
(-0.00167042 -0.000791502 0.000225394)
(-0.00172671 -0.000819904 0.000206841)
(-0.00178263 -0.000848455 0.000184714)
(-0.00183787 -0.000876341 0.000157544)
(-0.001891 -0.000902331 0.000124467)
(-0.00193438 -0.000923783 8.22328e-05)
(-0.00195932 -0.00093687 2.88834e-05)
(-0.000311862 -0.0001054 5.3769e-06)
(-0.000368883 -0.000155738 -5.01497e-05)
(-0.00040636 -0.000221879 -4.89951e-05)
(-0.000465824 -0.000299942 -2.65774e-05)
(-0.000555467 -0.000383739 9.25853e-06)
(-0.000670747 -0.000463368 5.36748e-05)
(-0.000799404 -0.000529105 0.00010417)
(-0.000929929 -0.00057546 0.000155263)
(-0.00105304 -0.000602673 0.000200457)
(-0.00116284 -0.000615861 0.000234807)
(-0.0012563 -0.000621958 0.000256299)
(-0.00133447 -0.000627539 0.000266109)
(-0.00140119 -0.000636831 0.000267163)
(-0.00146077 -0.000650977 0.000262401)
(-0.00151679 -0.000669219 0.000253979)
(-0.00157202 -0.000690827 0.000243266)
(-0.00162755 -0.000714683 0.000230732)
(-0.00168346 -0.000740043 0.00021608)
(-0.00173968 -0.000766324 0.000198847)
(-0.00179503 -0.000792685 0.000177949)
(-0.00184969 -0.00081842 0.000151942)
(-0.00190241 -0.000842381 0.000120253)
(-0.00194496 -0.000862102 7.96959e-05)
(-0.0019688 -0.000874029 2.8051e-05)
(-0.000280486 -7.68436e-05 1.26502e-05)
(-0.000339228 -0.000123326 -4.82789e-05)
(-0.0003695 -0.000178426 -5.0731e-05)
(-0.000419972 -0.000248124 -3.53178e-05)
(-0.000503245 -0.00032683 -7.61505e-06)
(-0.000616293 -0.000405949 2.95439e-05)
(-0.000747632 -0.000474928 7.50789e-05)
(-0.00088381 -0.000525525 0.000123948)
(-0.00101459 -0.000556542 0.000169402)
(-0.0011324 -0.000571994 0.000205728)
(-0.00123406 -0.000579089 0.000230235)
(-0.00131959 -0.000584415 0.000243287)
(-0.00139221 -0.000592436 0.000247321)
(-0.00145642 -0.000604821 0.000245178)
(-0.00151556 -0.000620971 0.000238986)
(-0.0015727 -0.000640405 0.000230206)
(-0.00162922 -0.000662081 0.000219397)
(-0.00168526 -0.000685226 0.000206285)
(-0.00174099 -0.000709251 0.000190474)
(-0.00179537 -0.000733342 0.00017088)
(-0.00184899 -0.000756848 0.00014607)
(-0.00190104 -0.000778751 0.00011584)
(-0.00194239 -0.000796717 7.70572e-05)
(-0.00196488 -0.000807506 2.71923e-05)
(-0.000244054 -5.06071e-05 1.87254e-05)
(-0.000303394 -9.41886e-05 -4.73062e-05)
(-0.000326796 -0.000139156 -5.07645e-05)
(-0.000366011 -0.000198491 -4.12968e-05)
(-0.00043993 -0.000269742 -2.20053e-05)
(-0.000549761 -0.000347259 6.77415e-06)
(-0.000682526 -0.000418601 4.58199e-05)
(-0.000824295 -0.00047363 9.1253e-05)
(-0.000962431 -0.000508523 0.000136139)
(-0.00108906 -0.000526747 0.000174227)
(-0.00119908 -0.000534761 0.000201758)
(-0.00129224 -0.000539646 0.00021831)
(-0.00137142 -0.00054633 0.000225753)
(-0.00144034 -0.000556668 0.000226576)
(-0.00150291 -0.000570627 0.000222974)
(-0.00156208 -0.000587787 0.000216408)
(-0.00161937 -0.00060714 0.000207522)
(-0.00167518 -0.000627952 0.000196084)
(-0.00172995 -0.000649619 0.000181785)
(-0.0017827 -0.000671346 0.00016354)
(-0.00183476 -0.00069256 0.000139946)
(-0.00188554 -0.000712291 0.000111221)
(-0.00192516 -0.000728463 7.43097e-05)
(-0.00194578 -0.000738078 2.63016e-05)
(-0.000200014 -2.77974e-05 2.28955e-05)
(-0.000258298 -6.71361e-05 -4.52272e-05)
(-0.000276806 -0.000103393 -4.91416e-05)
(-0.0003057 -0.000152137 -4.42033e-05)
(-0.000368616 -0.000214361 -3.29988e-05)
(-0.000469922 -0.000286628 -1.36082e-05)
(-0.000602531 -0.000359451 1.7326e-05)
(-0.00074886 -0.000418746 5.76676e-05)
(-0.000895352 -0.000458617 0.000101023)
(-0.0010308 -0.000479986 0.000140297)
(-0.00115019 -0.000489491 0.000170879)
(-0.00125187 -0.000494155 0.000191229)
(-0.00133775 -0.000499283 0.000202403)
(-0.001412 -0.000507526 0.00020663)
(-0.00147795 -0.000519063 0.000205937)
(-0.00153893 -0.000533743 0.000201841)
(-0.00159677 -0.00055066 0.000195087)
(-0.00165195 -0.000569075 0.000185465)
(-0.00170531 -0.00058837 0.000172776)
(-0.00175598 -0.000607784 0.000155943)
(-0.00180594 -0.000626733 0.000133573)
(-0.00185526 -0.00064436 0.000106421)
(-0.00189275 -0.000658817 7.14813e-05)
(-0.0019113 -0.000667391 2.53947e-05)
(-0.000153647 -1.02259e-05 2.48138e-05)
(-0.000209988 -4.46732e-05 -4.25445e-05)
(-0.000225045 -7.35474e-05 -4.71096e-05)
(-0.000241381 -0.000110775 -4.47936e-05)
(-0.00028727 -0.000160653 -3.93656e-05)
(-0.000381944 -0.000227388 -2.93255e-05)
(-0.000510798 -0.000298949 -8.75159e-06)
(-0.000660752 -0.000362581 2.46327e-05)
(-0.000813657 -0.000407168 6.48895e-05)
(-0.000958602 -0.000432706 0.000104623)
(-0.00108722 -0.000444013 0.000137903)
(-0.00119735 -0.000448535 0.000162079)
(-0.00129077 -0.000452315 0.000177355)
(-0.0013703 -0.000458264 0.000185307)
(-0.00143998 -0.000467335 0.000187907)
(-0.00150288 -0.000479496 0.000186588)
(-0.00156103 -0.000493925 0.000182174)
(-0.00161514 -0.000509927 0.000174504)
(-0.00166647 -0.000526857 0.000163501)
(-0.00171426 -0.000543963 0.000148105)
(-0.00176157 -0.000560723 0.000126956)
(-0.00180876 -0.000576194 0.000101412)
(-0.00184347 -0.000588964 6.85477e-05)
(-0.0018592 -0.000596491 2.44561e-05)
(-0.000101158 2.35699e-06 2.4407e-05)
(-0.000150849 -2.42773e-05 -3.72166e-05)
(-0.000165001 -4.65499e-05 -4.25066e-05)
(-0.000175838 -7.38519e-05 -3.99475e-05)
(-0.000212751 -0.000110591 -4.04711e-05)
(-0.000282049 -0.00016447 -4.11731e-05)
(-0.000405609 -0.000236 -3.0229e-05)
(-0.000556478 -0.000302475 -6.24981e-06)
(-0.000717452 -0.000353886 2.90218e-05)
(-0.000871008 -0.00038427 6.78326e-05)
(-0.00100949 -0.00039852 0.000103261)
(-0.00112892 -0.000403675 0.000131211)
(-0.00122948 -0.000406125 0.000150672)
(-0.00131489 -0.000409969 0.000162708)
(-0.00138814 -0.000416469 0.000168895)
(-0.00145261 -0.000426009 0.000170604)
(-0.00151074 -0.000437941 0.000168738)
(-0.00156332 -0.00045158 0.000163153)
(-0.00161217 -0.000466269 0.000153934)
(-0.00165664 -0.000481265 0.000140029)
(-0.00170063 -0.000495934 0.000120074)
(-0.00174557 -0.000509413 9.6206e-05)
(-0.00177714 -0.000520683 6.55333e-05)
(-0.00179003 -0.000527425 2.35054e-05)
(-5.44343e-05 9.7277e-06 2.04605e-05)
(-0.00010065 -1.22958e-05 -3.01264e-05)
(-0.000115488 -2.61691e-05 -4.00133e-05)
(-0.000117444 -4.41614e-05 -3.89464e-05)
(-0.000131802 -7.1499e-05 -3.54223e-05)
(-0.000205769 -0.000113932 -3.955e-05)
(-0.000296236 -0.000169998 -4.56295e-05)
(-0.000444244 -0.000241695 -3.29255e-05)
(-0.000607399 -0.000298027 -4.83143e-06)
(-0.000770009 -0.000335087 3.14049e-05)
(-0.000917526 -0.000353225 6.78192e-05)
(-0.00104546 -0.000359637 9.89824e-05)
(-0.00115412 -0.000361597 0.00012268)
(-0.00124504 -0.000363453 0.000138918)
(-0.00132209 -0.000367575 0.000148996)
(-0.00138823 -0.000374638 0.000154013)
(-0.00144599 -0.000384149 0.000154884)
(-0.00149651 -0.000395538 0.000151501)
(-0.00154205 -0.000408068 0.000144108)
(-0.00158218 -0.00042104 0.000131689)
(-0.00162244 -0.000433849 0.000112912)
(-0.00166445 -0.00044534 9.07522e-05)
(-0.00169212 -0.000455211 6.23928e-05)
(-0.00170108 -0.00046113 2.25121e-05)
(-1.11233e-05 3.1843e-06 9.84278e-06)
(-3.23062e-05 -3.32589e-06 -1.02826e-05)
(-5.45807e-05 -8.82503e-06 -2.76934e-05)
(-5.97061e-05 -2.17484e-05 -3.60325e-05)
(-4.79941e-05 -3.00008e-05 -3.06508e-05)
(-7.9369e-05 -6.98754e-05 -2.82374e-05)
(-0.000192232 -0.000113692 -3.1872e-05)
(-0.000320388 -0.000171696 -5.08669e-05)
(-0.000487932 -0.000240264 -3.40903e-05)
(-0.000655442 -0.000283842 -3.02112e-06)
(-0.000811821 -0.000307775 3.28199e-05)
(-0.000948818 -0.000317039 6.63048e-05)
(-0.00106411 -0.000318984 9.3728e-05)
(-0.00116092 -0.000319543 0.000114204)
(-0.00124128 -0.000321489 0.000128297)
(-0.00130842 -0.000326183 0.000136775)
(-0.00136539 -0.00033344 0.000140538)
(-0.00141328 -0.000342763 0.000139456)
(-0.00145526 -0.000353432 0.000133982)
(-0.00149083 -0.000364718 0.000123098)
(-0.00152634 -0.000375777 0.000105422)
(-0.0015654 -0.000385496 8.50423e-05)
(-0.00158885 -0.000394212 5.91401e-05)
(-0.00159426 -0.000399679 2.14992e-05)
(9.23386e-06 1.05102e-05 1.54526e-05)
(1.51474e-06 3.09223e-07 -1.13031e-05)
(-8.13959e-06 -3.11545e-06 -1.63305e-05)
(-1.83699e-05 -1.09479e-05 -2.64874e-05)
(-2.74253e-05 -2.229e-05 -2.69972e-05)
(-4.98826e-05 -4.79883e-05 -3.07626e-05)
(-6.61416e-05 -4.88783e-05 -2.10773e-05)
(-0.000220417 -0.000114372 -4.8918e-05)
(-0.000357679 -0.00017543 -5.458e-05)
(-0.000531923 -0.000231155 -3.24264e-05)
(-0.000694273 -0.000261732 -5.98766e-08)
(-0.000837895 -0.000274961 3.41163e-05)
(-0.000960819 -0.000278674 6.45574e-05)
(-0.00106246 -0.000278573 8.88847e-05)
(-0.00114618 -0.000278989 0.000107032)
(-0.0012143 -0.000281784 0.000119108)
(-0.00126996 -0.000287059 0.000125854)
(-0.00131458 -0.000294561 0.000127122)
(-0.00135169 -0.000303461 0.000123529)
(-0.00138126 -0.000313111 0.000114123)
(-0.00141228 -0.000322861 9.75585e-05)
(-0.00144773 -0.000330843 7.89933e-05)
(-0.00146627 -0.000338548 5.57019e-05)
(-0.00146666 -0.000343417 2.04127e-05)
(2.15902e-05 1.965e-05 2.9016e-05)
(2.78475e-05 6.15643e-06 -1.61307e-05)
(2.15443e-05 -4.59515e-07 -1.66637e-05)
(7.96067e-06 -6.97756e-06 -1.6213e-05)
(-8.72976e-06 -1.14343e-05 -1.62147e-05)
(-2.2665e-05 -5.38532e-06 -2.42487e-05)
(-4.13621e-05 -3.12536e-05 -4.68182e-05)
(-7.29081e-05 -6.34936e-05 -3.3165e-05)
(-0.000239224 -0.000120891 -4.5997e-05)
(-0.000397411 -0.000171993 -5.44502e-05)
(-0.000565932 -0.000214362 -2.82235e-05)
(-0.000717254 -0.000233773 4.14556e-06)
(-0.000844499 -0.000240131 3.60142e-05)
(-0.000951071 -0.000240766 6.35425e-05)
(-0.00103695 -0.000240289 8.54501e-05)
(-0.00110483 -0.000241612 0.000101012)
(-0.00115855 -0.0002453 0.000110733)
(-0.00119937 -0.000251322 0.000114364)
(-0.00123208 -0.000258974 0.000112747)
(-0.00125618 -0.000267458 0.00010489)
(-0.00128067 -0.000275779 8.92512e-05)
(-0.00131286 -0.000282306 7.2591e-05)
(-0.00132614 -0.000289192 5.20753e-05)
(-0.00132253 -0.000293863 1.92805e-05)
(4.04234e-05 1.25045e-05 2.76175e-05)
(5.04989e-05 6.98345e-06 -1.05596e-05)
(5.07786e-05 -1.38019e-06 -1.4781e-05)
(4.29896e-05 -1.09483e-05 -1.13469e-05)
(2.33108e-05 -1.18597e-05 -7.33361e-06)
(-6.05742e-06 -5.32371e-06 -2.18584e-05)
(-2.303e-05 -1.48704e-05 -3.69921e-05)
(-4.24865e-05 -4.13413e-05 -4.0797e-05)
(-9.80242e-05 -5.735e-05 -3.51542e-05)
(-0.000276537 -0.000114091 -6.03838e-05)
(-0.000434237 -0.000163866 -5.074e-05)
(-0.000585726 -0.000191559 -2.23234e-05)
(-0.000718507 -0.000203195 9.40997e-06)
(-0.000827584 -0.000205575 3.88476e-05)
(-0.000915476 -0.000205437 6.40295e-05)
(-0.000983027 -0.000206191 8.2882e-05)
(-0.00103408 -0.000208774 9.54351e-05)
(-0.00107019 -0.000213648 0.000101315)
(-0.00109605 -0.000219931 0.000101441)
(-0.00111244 -0.000226995 9.49761e-05)
(-0.00113257 -0.000234638 8.04159e-05)
(-0.00116056 -0.000239701 6.56778e-05)
(-0.00116839 -0.000245899 4.81387e-05)
(-0.001159 -0.000249996 1.80093e-05)
(5.58731e-05 1.48162e-05 3.41432e-05)
(7.02544e-05 8.31022e-06 -1.11219e-05)
(7.4589e-05 6.58326e-07 -1.74715e-05)
(7.16048e-05 -1.06242e-05 -1.89386e-05)
(5.97552e-05 -2.06537e-05 -1.68459e-05)
(3.94094e-05 -2.51146e-05 -1.54633e-05)
(2.14465e-05 -2.37976e-05 -1.15339e-05)
(-2.18934e-05 3.31909e-07 -2.69875e-05)
(-3.09467e-05 -1.86486e-05 -2.88471e-05)
(-0.000143509 -6.54e-05 -4.66694e-05)
(-0.000298695 -0.000113094 -5.80384e-05)
(-0.000452517 -0.00014938 -4.20917e-05)
(-0.0005842 -0.000166599 -1.39098e-05)
(-0.000695892 -0.000172636 1.58259e-05)
(-0.000783258 -0.0001737 4.32741e-05)
(-0.000848234 -0.000174563 6.47918e-05)
(-0.000895732 -0.000176586 7.9826e-05)
(-0.000926916 -0.000180783 8.78023e-05)
(-0.000948527 -0.000186563 8.98177e-05)
(-0.000959338 -0.000192764 8.48679e-05)
(-0.000970585 -0.000198804 7.09938e-05)
(-0.000996056 -0.000203074 5.83294e-05)
(-0.000997873 -0.000208559 4.38971e-05)
(-0.000984612 -0.000212383 1.6644e-05)
(6.66915e-05 1.31831e-05 3.45127e-05)
(8.65045e-05 6.46687e-06 -1.14988e-05)
(9.46561e-05 -5.17258e-07 -1.96644e-05)
(9.5745e-05 -1.15355e-05 -2.39296e-05)
(8.98194e-05 -2.22147e-05 -2.49183e-05)
(7.65585e-05 -3.00382e-05 -2.34812e-05)
(5.69792e-05 -3.03011e-05 -1.98814e-05)
(2.10871e-05 -2.79167e-05 -2.12434e-05)
(-1.72217e-05 -1.51922e-05 -3.62724e-05)
(-5.39596e-05 -3.43555e-05 -3.25031e-05)
(-0.000179536 -6.5036e-05 -4.34933e-05)
(-0.00031386 -0.000101565 -5.3715e-05)
(-0.000448016 -0.000130397 -3.22483e-05)
(-0.000557407 -0.000140453 -4.46655e-06)
(-0.000644378 -0.000144378 2.40006e-05)
(-0.000706892 -0.000146576 4.74161e-05)
(-0.000749965 -0.000148514 6.43707e-05)
(-0.000774957 -0.000152336 7.40177e-05)
(-0.000786956 -0.000156764 7.72607e-05)
(-0.000788884 -0.000161157 7.35571e-05)
(-0.00079756 -0.000166564 6.08694e-05)
(-0.000817989 -0.000170111 5.01968e-05)
(-0.000814599 -0.00017484 3.91132e-05)
(-0.000795958 -0.00017783 1.50173e-05)
(7.26236e-05 1.18506e-05 3.5623e-05)
(9.6704e-05 5.58139e-06 -1.08819e-05)
(0.000108162 -8.41762e-07 -2.0587e-05)
(0.000112381 -1.19387e-05 -2.62842e-05)
(0.000110147 -2.37378e-05 -2.83357e-05)
(0.000101938 -3.34651e-05 -2.70619e-05)
(8.7537e-05 -3.94831e-05 -2.38129e-05)
(6.42696e-05 -3.43659e-05 -1.58849e-05)
(1.3454e-05 -2.28327e-05 -2.65605e-05)
(-3.40372e-05 -1.88828e-05 -3.73489e-05)
(-7.1331e-05 -3.30671e-05 -2.6688e-05)
(-0.000205178 -5.79282e-05 -4.5646e-05)
(-0.000314328 -9.17766e-05 -4.52188e-05)
(-0.00042118 -0.000109311 -2.09013e-05)
(-0.000502313 -0.000116043 6.93287e-06)
(-0.000558206 -0.000119977 3.09019e-05)
(-0.000595729 -0.000122033 4.88695e-05)
(-0.00061519 -0.00012609 5.98325e-05)
(-0.000625664 -0.000130673 6.47114e-05)
(-0.000623252 -0.000133609 6.23222e-05)
(-0.000619293 -0.000135019 5.00905e-05)
(-0.000640883 -0.000140567 4.17923e-05)
(-0.000632281 -0.000144601 3.39567e-05)
(-0.000610387 -0.000146626 1.32451e-05)
(7.23494e-05 9.73275e-06 3.52987e-05)
(9.87842e-05 4.49758e-06 -9.1818e-06)
(0.000111686 -7.49862e-07 -1.9673e-05)
(0.000118767 -1.10923e-05 -2.64762e-05)
(0.000119708 -2.33538e-05 -2.94608e-05)
(0.00011498 -3.48066e-05 -2.85206e-05)
(0.000104514 -4.32051e-05 -2.38178e-05)
(8.73679e-05 -4.6026e-05 -1.53678e-05)
(5.30777e-05 -3.53209e-05 -6.20627e-07)
(-1.85864e-05 1.31603e-06 -2.81964e-05)
(-3.79664e-05 -1.52385e-05 -4.21397e-05)
(-8.17466e-05 -4.06814e-05 -3.03532e-05)
(-0.000190955 -6.02323e-05 -3.93125e-05)
(-0.000284701 -7.44936e-05 -3.12135e-05)
(-0.000364377 -8.85432e-05 -6.65949e-06)
(-0.000415642 -9.52177e-05 1.63364e-05)
(-0.000446725 -9.75166e-05 3.42352e-05)
(-0.00045904 -0.000101653 4.54687e-05)
(-0.000455064 -0.00010463 5.03225e-05)
(-0.000444577 -0.000104976 4.9239e-05)
(-0.000441398 -9.43833e-05 3.86668e-05)
(-0.000456561 -0.000111022 3.21156e-05)
(-0.000441872 -0.000113459 2.78558e-05)
(-0.000419584 -0.000114352 1.10546e-05)
(6.64006e-05 6.7203e-06 3.27438e-05)
(9.39047e-05 2.65397e-06 -6.57454e-06)
(0.000107492 -1.48491e-06 -1.68327e-05)
(0.000115845 -1.01161e-05 -2.40914e-05)
(0.00012004 -2.15948e-05 -2.82678e-05)
(0.000119034 -3.36149e-05 -2.87756e-05)
(0.000112667 -4.36711e-05 -2.54551e-05)
(9.94633e-05 -4.94789e-05 -1.85559e-05)
(7.52411e-05 -4.5468e-05 -7.09295e-06)
(2.42161e-05 -3.23243e-05 -7.90777e-06)
(-2.87571e-05 -5.46684e-06 -4.14474e-05)
(-3.95879e-05 -2.82898e-05 -3.8446e-05)
(-8.38839e-05 -2.96481e-05 -2.59025e-05)
(-0.000194579 -4.22007e-05 -3.50467e-05)
(-0.000233975 -5.95078e-05 -1.68362e-05)
(-0.00027222 -6.92569e-05 3.7899e-06)
(-0.000293871 -6.79683e-05 2.00971e-05)
(-0.000303356 -7.61377e-05 3.14533e-05)
(-0.000305773 -7.71185e-05 3.82352e-05)
(-0.000291961 -7.28492e-05 3.73203e-05)
(-0.000338598 -5.07909e-05 2.70564e-05)
(-0.00029689 -7.77879e-05 2.40378e-05)
(-0.000286733 -7.68573e-05 2.20241e-05)
(-0.000257652 -7.95026e-05 8.59843e-06)
(5.75682e-05 3.80164e-06 2.90929e-05)
(8.45746e-05 3.29215e-07 -4.25916e-06)
(9.81405e-05 -3.13748e-06 -1.32032e-05)
(0.000107123 -1.02948e-05 -1.98684e-05)
(0.000113007 -1.99094e-05 -2.44941e-05)
(0.000115772 -3.11467e-05 -2.64954e-05)
(0.000114071 -4.18434e-05 -2.53111e-05)
(0.000106524 -4.96963e-05 -2.10947e-05)
(8.9784e-05 -5.18963e-05 -1.42077e-05)
(5.62418e-05 -4.42257e-05 -8.68263e-06)
(1.56137e-05 -3.23644e-05 -1.18379e-05)
(-2.56609e-05 9.97449e-06 -3.86166e-05)
(-2.19622e-05 -6.08616e-06 -2.30952e-05)
(-7.36708e-05 -4.76684e-05 -2.96376e-05)
(-0.000133921 -3.13055e-05 -1.18739e-05)
(-0.00016143 -4.32647e-05 -4.61795e-06)
(-0.00019799 -3.53072e-05 8.90514e-06)
(-0.000179162 -4.71848e-05 1.81901e-05)
(-0.000168829 -4.86736e-05 2.39223e-05)
(-0.000162069 -4.19274e-05 1.51298e-05)
(-0.000191329 -0.000121866 1.34667e-05)
(-0.000161033 -4.48175e-05 2.12142e-05)
(-0.000140162 -4.83513e-05 1.35267e-05)
(-0.000117831 -4.33593e-05 6.02229e-06)
(4.8242e-05 2.00673e-06 2.5666e-05)
(7.33617e-05 -1.53978e-06 -3.02951e-06)
(8.60457e-05 -5.02633e-06 -1.02807e-05)
(9.49315e-05 -1.12414e-05 -1.56143e-05)
(0.000101593 -1.9337e-05 -1.96764e-05)
(0.000106707 -2.87944e-05 -2.22044e-05)
(0.00010935 -3.87384e-05 -2.26891e-05)
(0.000107609 -4.72702e-05 -2.10592e-05)
(9.87602e-05 -5.24503e-05 -1.73471e-05)
(7.77188e-05 -5.26414e-05 -1.39997e-05)
(4.5441e-05 -4.13147e-05 -1.13562e-05)
(1.45145e-06 -2.06903e-05 -2.43114e-05)
(-1.69874e-05 -1.41287e-05 -3.65015e-05)
(-4.81385e-05 -3.33821e-05 -4.10039e-05)
(-4.03001e-05 -1.67015e-05 -1.12538e-05)
(-4.49978e-05 -1.4226e-05 -8.21789e-06)
(-8.05603e-05 -4.66292e-05 -3.04513e-06)
(-6.59273e-05 -2.20332e-05 8.1168e-06)
(-5.64163e-05 -2.7086e-05 4.44333e-06)
(-4.26099e-05 -2.1466e-05 1.12298e-06)
(-0.000107269 -0.000105538 1.42259e-05)
(-5.72448e-05 -3.10238e-05 1.15209e-05)
(-4.43422e-05 -3.46906e-05 7.28219e-06)
(-2.10476e-05 -1.79653e-05 3.1237e-06)
(3.8873e-05 1.0062e-06 2.21189e-05)
(6.14868e-05 -2.89709e-06 -2.61798e-06)
(7.28992e-05 -6.81212e-06 -8.28405e-06)
(8.12971e-05 -1.26652e-05 -1.21563e-05)
(8.82368e-05 -1.97864e-05 -1.51085e-05)
(9.45479e-05 -2.76784e-05 -1.72662e-05)
(0.000100155 -3.60285e-05 -1.84322e-05)
(0.000103028 -4.38454e-05 -1.84421e-05)
(0.000101041 -5.00808e-05 -1.73553e-05)
(9.02611e-05 -5.34433e-05 -1.58191e-05)
(6.92188e-05 -5.06659e-05 -1.51255e-05)
(3.40595e-05 -3.73958e-05 -1.98569e-05)
(1.56393e-05 -2.43651e-05 -2.17686e-05)
(-1.64317e-05 1.41838e-05 -3.44193e-05)
(-2.3962e-05 -2.07198e-05 -3.17616e-05)
(-3.28856e-05 -2.55276e-05 -2.28715e-05)
(-3.6347e-05 -3.89391e-05 -9.69608e-06)
(-1.82877e-05 -1.89302e-05 3.85041e-06)
(-1.97267e-05 -1.46242e-05 -1.51101e-06)
(-1.35867e-05 -1.63783e-05 -2.23667e-06)
(-4.17731e-05 1.1489e-05 1.10531e-05)
(-1.72222e-05 -3.39783e-05 1.24796e-05)
(-1.26763e-05 -2.22599e-05 6.32815e-06)
(-4.22157e-06 -2.15588e-05 4.81117e-06)
(3.12377e-05 2.64737e-07 1.88361e-05)
(5.10057e-05 -4.19571e-06 -2.71028e-06)
(6.09427e-05 -8.71765e-06 -7.03659e-06)
(6.85994e-05 -1.45646e-05 -9.59862e-06)
(7.54528e-05 -2.11521e-05 -1.13797e-05)
(8.22794e-05 -2.79783e-05 -1.27744e-05)
(8.90826e-05 -3.46818e-05 -1.38879e-05)
(9.47924e-05 -4.11791e-05 -1.46545e-05)
(9.74198e-05 -4.68591e-05 -1.50146e-05)
(9.4478e-05 -5.14627e-05 -1.53241e-05)
(8.31882e-05 -5.25736e-05 -1.57512e-05)
(6.09185e-05 -4.74039e-05 -1.92706e-05)
(3.94197e-05 -3.20028e-05 -2.46807e-05)
(5.76811e-07 -2.42061e-05 -2.92808e-05)
(-3.32528e-06 -2.62463e-06 -3.79955e-05)
(-2.84592e-06 -1.24701e-05 -2.12942e-05)
(-1.41358e-05 9.71776e-06 -1.35961e-05)