/*--------------------------------*- C++ -*----------------------------------*\
  =========                 |
  \\      /  F ield         | OpenFOAM: The Open Source CFD Toolbox
   \\    /   O peration     | Website:  https://openfoam.org
    \\  /    A nd           | Version:  6
     \\/     M anipulation  |
\*---------------------------------------------------------------------------*/
FoamFile
{
    version     2.0;
    format      ascii;
    class       volScalarField;
    location    "42";
    object      yPlus;
}
// * * * * * * * * * * * * * * * * * * * * * * * * * * * * * * * * * * * * * //

dimensions      [0 0 0 0 0 0 0];

internalField   uniform 0;

boundaryField
{
    inlet
    {
        type            calculated;
        value           uniform 0;
    }
    outlet
    {
        type            calculated;
        value           uniform 0;
    }
    roughCylinder
    {
        type            calculated;
        value           nonuniform List<scalar> 
3840
(
45.8898
54.2804
62.1812
69.1895
74.515
78.4843
81.5139
83.9229
85.9871
87.805
89.4554
91.0014
92.5145
94.0633
95.7015
97.4605
99.3473
101.351
103.45
105.613
107.793
109.916
111.785
113.011
45.0574
53.1786
60.8729
67.7864
73.0791
77.0343
80.0627
82.4824
84.5512
86.3571
87.9845
89.5025
90.9837
92.498
94.1005
95.8209
97.6663
99.6261
101.678
103.792
105.922
107.994
109.816
111.01
44.1887
52.0672
59.5573
66.3668
71.6269
75.575
78.6146
81.0547
83.1325
84.9325
86.5422
88.0346
89.4862
90.9684
92.5347
94.2169
96.0218
97.9385
99.9445
102.009
104.088
106.111
107.886
109.048
43.2729
50.9114
58.2053
64.9165
70.1559
74.1127
77.1781
79.6486
81.7406
83.542
85.1347
86.6045
88.0288
89.4795
91.0134
92.6596
94.4249
96.299
98.2592
100.276
102.305
104.278
106.007
107.136
42.3332
49.7465
56.837
63.4442
68.6685
72.6442
75.7457
78.2533
80.3662
82.1751
83.7603
85.2126
86.613
88.0369
89.5379
91.1489
92.8767
94.7101
96.6264
98.5965
100.577
102.501
104.186
105.283
41.4025
48.5417
55.42
61.9266
67.1511
71.1653
74.3168
76.8711
79.0118
80.8347
82.4178
83.8562
85.2367
86.634
88.108
89.6872
91.3786
93.1719
95.0452
96.9683
98.9016
100.778
102.418
103.483
40.3968
47.3055
53.9657
60.3711
65.6058
69.6694
72.8803
75.4866
77.6626
79.5053
81.1013
82.5341
83.8994
85.2778
86.7233
88.2711
89.9285
91.684
93.5159
95.3951
97.2813
99.1115
100.708
101.743
39.483
46.0455
52.4506
58.7424
64.0024
68.1421
71.4298
74.1023
76.323
78.1972
79.8057
81.241
82.5983
83.9573
85.3827
86.9042
88.5289
90.2473
92.038
93.8722
95.712
97.4962
99.0496
100.052
38.3615
44.6861
50.8465
57.035
62.3348
66.5639
69.9451
72.6933
74.9714
76.8824
78.5227
79.973
81.3291
82.6809
84.084
85.5785
87.1731
88.8564
90.6079
92.3998
94.1947
95.934
97.4456
98.4176
37.4499
43.3359
49.1643
55.2021
60.5524
64.9155
68.418
71.2658
73.6129
75.5805
77.2502
78.719
80.0848
81.4295
82.8218
84.2965
85.8622
87.511
89.2231
90.9696
92.7179
94.4116
95.8795
96.8176
36.1085
41.7669
47.3132
53.2198
58.636
63.1436
66.8014
69.7699
72.2141
74.2436
75.9714
77.4769
78.8565
80.2085
81.5876
83.0411
84.5806
86.196
87.8694
89.5743
91.2779
92.929
94.3551
95.2624
35.0516
40.242
45.3485
51.0214
56.4954
61.2332
65.096
68.2306
70.7831
72.9071
74.6872
76.2307
77.6405
78.9966
80.3765
81.8181
83.333
84.9161
86.5505
88.2091
89.8662
91.4707
92.8518
93.7229
33.7003
38.4898
43.1251
48.5556
54.0985
59.0451
63.1862
66.5326
69.2622
71.4907
73.3683
74.9791
76.4205
77.8021
79.179
80.6059
82.0991
83.651
85.2475
86.8648
88.4766
90.0411
91.3802
92.2195
32.3036
36.7092
40.752
45.714
51.2356
56.5901
61.0926
64.7484
67.6596
70.051
72.0186
73.6947
75.1956
76.5971
77.9889
79.4137
80.8875
82.4091
83.9664
85.5351
87.1
88.6144
89.9059
90.7039
30.286
34.3425
37.8006
42.3649
47.9258
53.4811
58.5358
62.6069
65.8784
68.4602
70.5902
72.3807
73.9361
75.3876
76.7905
78.2088
79.6663
81.1583
82.6784
84.205
85.7221
87.1985
88.4467
89.2126
28.1499
32.0111
34.7558
38.317
43.4386
49.8964
55.5677
60.2835
63.8915
66.7822
69.0823
70.9844
72.6459
74.1397
75.5766
77.0058
78.4495
79.913
81.3907
82.8635
84.3322
85.7551
86.9497
87.6636
24.5397
28.1516
30.1748
33.2365
38.5283
44.4234
51.4899
57.1103
61.5533
64.8334
67.4228
69.5235
71.2732
72.853
74.3205
75.7534
77.1872
78.6222
80.064
81.4929
82.9065
84.2908
85.4391
86.1214
20.0167
24.7087
26.1957
26.9694
29.9307
38.9628
46.2133
53.4884
58.6503
62.6274
65.5757
67.884
69.8249
71.4833
73.0135
74.4757
75.9026
77.3091
78.6991
80.0618
81.4283
82.7549
83.8401
84.4512
13.5355
14.7
16.8358
16.8313
13.2597
21.3694
38.7119
47.6023
55.0524
59.8668
63.4255
66.1181
68.2123
70.0187
71.6087
73.0879
74.5132
75.8917
77.2508
78.5696
79.8597
81.1454
82.1752
82.7556
8.73739
10.4229
8.85886
2.52485
10.9574
22.48
19.4401
40.4687
49.5328
56.4705
60.8468
63.9695
66.4329
68.3862
70.0907
71.6302
73.0575
74.4031
75.6849
76.9063
78.164
79.3833
80.3377
80.8134
16.6861
18.8975
18.4748
16.1417
15.9806
15.4467
23.5428
21.1604
43.0439
51.4939
57.5395
61.5432
64.3208
66.5577
68.3738
69.9501
71.388
72.7079
73.9789
75.1643
76.2852
77.4672
78.3407
78.7819
22.9214
26.4397
27.8651
27.4664
25.4811
24.123
20.0411
25.9838
26.9329
45.6033
53.261
58.2775
61.8455
64.3711
66.4171
68.1163
69.5724
70.8434
71.9635
72.9795
74.124
75.2099
75.9926
76.2689
25.8802
29.7821
32.1764
33.5096
33.2358
30.8788
25.9795
23.5361
13.076
31.5712
46.9724
54.2775
58.6235
61.7892
64.0508
65.8212
67.3098
68.5638
69.7476
70.7451
71.5933
72.6842
73.3218
73.5396
27.0464
31.1042
33.7629
35.6783
36.7024
36.6127
34.7411
28.5098
21.7556
19.073
37.4641
48.3695
54.5808
58.3638
61.1583
63.2024
64.744
65.9029
66.7199
67.3979
68.4251
69.3157
69.8254
69.7631
26.5357
30.7994
33.7212
35.9967
37.5176
38.2708
38.2361
36.7799
30.182
27.7122
22.5692
40.4138
48.735
54.1733
57.3737
59.5283
61.1555
62.3207
63.4474
64.1101
64.4425
65.5319
65.7638
65.5289
24.4833
29.0858
32.289
34.9136
36.8448
38.0838
38.6843
38.499
35.9526
33.7914
25.5085
24.1621
40.3829
47.5853
52.3526
55.2377
56.9747
57.9049
57.9741
58.0259
58.9939
59.4633
59.3392
58.5955
21.5657
26.5518
29.9741
32.8548
35.1163
36.7801
37.9588
38.7146
38.5017
34.033
31.7957
26.5847
27.5974
40.335
45.3077
47.9723
50.1403
51.0132
52.3512
52.1592
51.614
52.9992
52.6895
51.0199
18.5134
23.7138
27.1642
30.1181
32.5644
34.5639
36.2328
37.6878
38.7649
38.1801
32.9034
33.0977
8.62687
23.5104
34.9689
40.6722
42.4371
43.0679
40.9154
40.9351
42.6202
40.6309
36.6953
34.6581
15.8576
20.9747
24.2371
27.0714
29.5339
31.7294
33.786
35.8286
37.8047
39.109
38.2689
31.8897
21.7383
34.0512
15.4641
15.6443
26.2821
22.8772
23.0201
17.9878
48.1284
23.3625
23.2436
12.2598
13.4506
18.3921
21.3962
24.0328
26.4176
28.6847
30.9657
33.3729
35.9431
38.3654
39.7616
38.2328
31.1964
27.9848
24.4279
29.7794
32.891
16.2633
21.4926
28.9753
46.5247
29.7427
30.5462
30.398
11.7315
16.3704
19.0646
21.4538
23.6939
25.9228
28.2544
30.785
33.585
36.5714
39.2162
40.3668
38.8622
31.1816
31.0767
22.0584
32.7893
30.4551
22.8655
39.8564
41.828
34.4788
33.928
35.1981
10.7344
15.0448
17.4739
19.6505
21.7439
23.8693
26.1075
28.5388
31.2561
34.313
37.5101
40.0572
40.9161
39.0683
34.2042
31.9112
28.5375
32.5707
35.0023
33.6918
36.3068
36.2738
40.5974
40.6394
10.295
14.4549
16.711
18.7541
20.7401
22.7438
24.8105
27.0035
29.4227
32.1903
35.3395
38.505
40.7331
41.3533
39.5993
39.4774
38.3088
38.9445
41.3552
35.8493
41.834
41.1949
43.8753
42.4688
10.3957
14.4639
16.6546
18.6555
20.5902
22.4933
24.3823
26.3068
28.3595
30.6724
33.3843
36.4674
39.3936
41.3666
41.514
41.8229
41.4963
41.0984
42.5985
39.3487
42.5513
42.2287
43.6464
42.0813
10.8274
14.8971
17.1153
19.1476
21.0811
22.9212
24.6701
26.3682
28.0944
29.9602
32.1141
34.6857
37.5535
40.213
41.5746
42.3036
42.2193
41.5323
42.325
40.6048
41.7851
41.7684
42.297
41.0304
11.4847
15.6168
17.9099
20.0155
21.9867
23.8062
25.4686
27.0099
28.4962
30.0113
31.6728
33.6324
35.9782
38.5538
40.5512
41.7185
41.8266
41.1116
41.2147
40.2183
40.2327
40.2835
40.4172
39.5096
12.2478
16.5503
18.9329
21.1237
23.1467
24.9716
26.5927
28.0459
29.3854
30.6683
31.9726
33.4188
35.14
37.183
39.1402
40.4966
40.7629
40.1304
39.7533
38.9832
38.4273
38.4645
38.5824
38.1057
13.3043
17.6449
20.1109
22.3871
24.4661
26.31
27.9195
29.3343
30.6015
31.7559
32.8398
33.93
35.1371
36.563
38.0769
39.2773
39.5874
39.0764
38.4238
37.6517
36.8924
36.927
37.2132
37.1436
14.3787
18.8149
21.3804
23.746
25.8835
27.7561
29.3748
30.7852
32.0299
33.129
34.0997
34.9806
35.84
36.7682
37.7552
38.589
38.7935
38.3406
37.5405
36.6973
35.9138
35.9833
36.4793
36.7501
15.486
20.0362
22.7072
25.1627
27.3602
29.2682
30.9105
32.3387
33.5921
34.6815
35.6089
36.3877
37.0476
37.6439
38.2004
38.6344
38.6297
38.1333
37.2373
36.3184
35.5812
35.7037
36.3862
36.917
16.45
16.92
17.402
17.7653
18.0938
18.3374
18.5432
18.6872
18.7948
18.8566
18.8887
18.8856
18.8542
18.7935
18.7063
18.5935
18.4596
18.3076
18.1466
18.0017
17.9605
18.0707
18.2144
18.3542
18.4774
18.58
18.6582
18.7104
18.7335
18.7291
18.6899
18.6217
18.5096
18.3631
18.1563
17.9145
17.5889
17.2323
16.7592
16.3035
21.1016
21.5614
22.0537
22.4359
22.7926
23.0728
23.3185
23.5087
23.664
23.776
23.8576
23.9053
23.9227
23.9083
23.8626
23.7846
23.6775
23.5433
23.39
23.2423
23.1953
23.3036
23.4381
23.5587
23.6542
23.7214
23.7578
23.7634
23.7376
23.6825
23.5941
23.4767
23.3185
23.1274
22.8827
22.6061
22.2546
21.8815
21.3998
20.9555
23.8609
24.3432
24.8725
25.2903
25.6929
26.0234
26.3242
26.5741
26.7929
26.9707
27.1176
27.2317
27.3148
27.3644
27.3793
27.3571
27.2988
27.2059
27.0862
26.9644
26.9231
27.0028
27.1009
27.1778
27.2227
27.2325
27.2065
27.1463
27.0532
26.9302
26.7754
26.5922
26.3704
26.1192
25.8195
25.493
25.0967
24.6888
24.1711
23.7054
26.3802
26.8707
27.4213
27.8595
28.2918
28.6561
28.9959
29.2888
29.5559
29.7873
29.9898
30.1602
30.2993
30.4032
30.4701
30.4967
30.4825
30.429
30.3444
30.254
30.2208
30.2681
30.3281
30.3636
30.3626
30.3223
30.2427
30.1267
29.9763
29.7957
29.5845
29.3466
29.0747
28.7795
28.4405
28.0802
27.6543
27.2265
26.6882
26.215
28.6095
29.0852
29.6352
30.0735
30.515
30.8944
31.2585
31.5835
31.8869
32.1595
32.4056
32.621
32.8047
32.9526
33.0612
33.1272
33.1487
33.127
33.0703
33.0029
32.9743
33
33.0307
33.0333
32.9957
32.9151
32.7928
32.6322
32.4365
32.2103
31.9548
31.6748
31.366
31.0378
30.6734
30.2969
29.8617
29.434
28.897
28.4393
30.527
30.9749
31.5151
31.9476
32.3947
32.7897
33.1753
33.5288
33.864
34.1723
34.456
34.7101
34.9322
35.1173
35.2612
35.3597
35.4102
35.4134
35.3769
35.3237
35.2975
35.3104
35.3208
35.2981
35.2313
35.1179
34.9601
34.7618
34.5276
34.2626
33.9693
33.6532
33.3122
32.9553
32.5691
32.1765
31.7351
31.3132
30.7866
30.3575
32.1723
32.5932
33.1271
33.5598
34.0166
34.4283
34.8349
35.2144
35.5782
35.9177
36.2337
36.5206
36.775
36.9911
37.164
37.2886
37.3617
37.3832
37.3606
37.3157
37.2904
37.2961
37.2931
37.2523
37.163
37.0235
36.8368
36.6075
36.3411
36.0432
35.7177
35.3704
35.0009
34.6179
34.2108
33.8015
33.3509
32.9282
32.4086
32.0073
33.6038
34.0019
34.5342
34.9707
35.437
35.8643
36.2893
36.6911
37.0788
37.444
37.7863
38.0998
38.3799
38.6205
38.8159
38.9605
39.0505
39.0853
39.0721
39.0321
39.0073
39.0089
38.997
38.9433
38.8373
38.6781
38.469
38.2155
37.9234
37.5992
37.2476
36.8747
36.4816
36.0767
35.6512
35.2267
34.7666
34.3407
33.8227
33.4449
34.8563
35.232
35.7626
36.2018
36.6761
37.1162
37.5563
37.976
38.3826
38.7682
39.1311
39.465
39.765
40.0243
40.2368
40.3967
40.4996
40.545
40.5396
40.5045
40.4804
40.478
40.4587
40.3948
40.276
40.1019
39.876
39.604
39.2924
38.9478
38.5759
38.1829
37.771
37.3485
36.9083
36.4712
36.0036
35.5751
35.0593
34.7048
35.9356
36.2858
36.812
37.2525
37.7331
38.1837
38.636
39.0703
39.4923
39.894
40.2731
40.6229
40.938
41.2117
41.4375
41.6093
41.7233
41.7787
41.7826
41.7547
41.732
41.7236
41.6952
41.6212
41.4917
41.3057
41.0669
40.7808
40.4543
40.0943
39.7066
39.2978
38.8708
38.4339
37.9817
37.5344
37.0609
36.6315
36.1207
35.7924
36.8363
37.1551
37.6732
38.1137
38.5992
39.0595
39.5232
39.9704
40.4057
40.8209
41.2132
41.5757
41.903
42.188
42.4246
42.6067
42.731
42.7973
42.8126
42.7948
42.7741
42.7574
42.7175
42.6325
42.4926
42.2965
42.0471
41.7501
41.4119
41.0395
40.639
40.217
39.777
39.3275
38.8644
38.4076
37.9295
37.5003
36.9986
36.7019
37.5546
37.8293
38.3334
38.7721
39.2622
39.7323
40.2073
40.6673
41.1153
41.5432
41.9472
42.321
42.6586
42.9534
43.1994
43.3912
43.5257
43.6036
43.6316
43.6246
43.6059
43.5806
43.5283
43.4316
43.2813
43.0757
42.8171
42.5108
42.1627
41.7796
41.3675
40.9334
40.4811
40.0191
39.5449
39.0787
38.5967
38.1699
37.6842
37.4319
38.0945
38.2959
38.7746
39.2084
39.7018
40.1824
40.6694
41.1431
41.6044
42.0449
42.4606
42.8451
43.1925
43.4964
43.7513
43.9524
44.0971
44.1864
44.2266
44.2294
44.2125
44.1796
44.1159
44.0077
43.8473
43.6327
43.3657
43.0507
42.6935
42.3002
41.877
41.4307
40.9655
40.4903
40.0044
39.5286
39.0441
38.6242
38.1651
37.9846
38.4754
38.5488
38.9718
39.3935
39.8878
40.3788
40.8786
41.3669
41.8425
42.2965
42.7246
43.1201
43.4774
43.7906
44.0542
44.2645
44.419
44.519
44.5698
44.5807
44.5653
44.5265
44.4532
44.3349
44.1652
43.942
43.6668
43.3434
42.9768
42.5732
42.1385
41.6791
41.2003
40.711
40.2135
39.7285
39.2461
38.8401
38.4362
38.3799
38.7044
38.5826
38.903
39.2902
39.7798
40.2805
40.7933
41.2972
41.7878
42.2565
42.6978
43.1053
43.4733
43.7962
44.0692
44.2885
44.4524
44.562
44.6218
44.6393
44.6252
44.582
44.5011
44.3743
44.1962
43.9649
43.6816
43.3494
42.9734
42.5589
42.1118
41.6389
41.146
40.6429
40.1345
39.6436
39.1689
38.7983
38.4975
38.6339
38.7475
38.3861
38.5588
38.8788
39.3453
39.8515
40.3758
40.8942
41.3998
41.883
42.3379
42.7578
43.137
43.4702
43.7526
43.981
44.1538
44.2718
44.3391
44.3619
44.3491
44.3029
44.2163
44.0827
43.8974
43.6586
43.3674
43.0268
42.6411
42.2158
41.757
41.2715
40.7664
40.2519
39.7375
39.2467
38.7997
38.5005
38.3506
38.7285
38.4851
37.9033
37.9198
38.1532
38.5786
39.0776
39.611
40.141
40.6591
41.1548
41.6216
42.0527
42.4423
42.7849
43.076
43.3125
43.4929
43.618
43.6912
43.7181
43.7065
43.6588
43.5688
43.4307
43.2403
42.996
42.6987
42.3513
41.9582
41.5247
41.0572
40.5629
40.0498
39.5296
39.0135
38.5354
38.1324
37.9183
37.9143
38.4891
37.8116
37.0978
37.0017
37.1554
37.5324
38.0101
38.541
39.0791
39.6042
40.1075
40.5815
41.0197
41.4158
41.7646
42.0615
42.3032
42.4882
42.6173
42.6939
42.7232
42.7127
42.6649
42.5742
42.435
42.2431
41.9969
41.6973
41.3472
40.951
40.5146
40.0443
39.5483
39.0353
38.5184
38.0132
37.5637
37.2149
37.0843
37.1897
37.888
36.8439
36.0594
35.8993
35.9984
36.3355
36.7885
37.3075
37.8433
38.3693
38.8735
39.3482
39.787
40.1836
40.5328
40.8297
41.0712
41.2556
41.3839
41.4593
41.4883
41.4786
41.4331
41.3465
41.212
41.0248
40.7833
40.4879
40.1418
39.7496
39.3168
38.8505
38.3586
37.8509
37.3396
36.8471
36.4202
36.1052
36.0187
36.1728
36.9236
35.9374
35.1023
34.9007
34.9577
35.2599
35.6849
36.1836
36.7056
37.2224
37.7182
38.1854
38.6168
39.0062
39.348
39.6376
39.8714
40.0477
40.1674
40.2348
40.2577
40.2468
40.2061
40.1287
40.0054
39.8298
39.5993
39.3148
38.9791
38.5968
38.1738
37.717
37.2349
36.7377
36.2382
35.7609
35.3532
35.0605
34.9986
35.1759
35.9564
35.3988
34.581
34.386
34.4299
34.7103
35.1069
35.5754
36.0668
36.5546
37.0255
37.4699
37.8803
38.2498
38.5726
38.8439
39.0598
39.2182
39.3196
39.3692
39.378
39.3634
39.3331
39.275
39.1736
39.0201
38.8114
38.5484
38.2343
37.8738
37.4728
37.0385
36.5794
36.1059
35.6321
35.1779
34.7874
34.5004
34.428
34.5678
35.2879
35.4413
34.6782
34.5226
34.581
34.8577
35.236
35.6762
36.1337
36.5889
37.0285
37.443
37.8244
38.1662
38.4623
38.7082
38.8996
39.0339
39.1111
39.1352
39.1204
39.0962
39.0806
39.0481
38.9735
38.8458
38.663
38.4264
38.1396
37.8076
37.4363
37.033
36.6065
36.1678
35.732
35.3167
34.9603
34.697
34.6353
34.7654
35.4585
36.0408
35.4179
35.3448
35.43
35.7013
36.0489
36.4452
36.8552
37.2651
37.6613
38.0349
38.378
38.684
38.9473
39.1631
39.3275
39.4373
39.4917
39.4937
39.4573
39.4241
39.427
39.4207
39.3721
39.2712
39.1168
38.911
38.6577
38.3616
38.0287
37.6662
37.2825
36.8882
36.4989
36.1311
35.8193
35.5859
35.5351
35.6383
36.271
36.9173
36.2794
36.192
36.2576
36.505
36.8234
37.1898
37.5724
37.9562
38.3279
38.6779
38.9985
39.2836
39.5274
39.7255
39.8738
39.9696
40.0118
40.0034
39.9586
39.9245
39.9395
39.9473
39.9138
39.8298
39.6945
39.5101
39.2805
39.0104
38.7053
38.3721
38.0188
37.6555
37.2964
36.9562
36.6675
36.4442
36.3848
36.437
36.9783
45.8545
54.2787
62.2015
69.2219
74.5516
78.5218
81.5512
83.9592
86.0228
87.8402
89.4902
91.0361
92.5489
94.0975
95.7356
97.4942
99.3807
101.384
103.482
105.642
107.82
109.935
111.798
113.035
45.074
53.214
60.9168
67.8321
73.1231
77.0747
80.1004
82.5191
84.5879
86.3937
88.0208
89.5382
91.0192
92.5332
94.1354
95.8556
97.7007
99.6602
101.711
103.823
105.949
108.013
109.829
111.035
44.1955
52.0957
59.594
66.4055
71.667
75.6164
78.6564
81.0957
83.1724
84.9709
86.5797
88.0718
89.5227
91.0045
92.5706
94.2525
96.0571
97.9732
99.9785
102.041
104.116
106.13
107.898
109.073
43.3266
50.9741
58.2699
64.977
70.2106
74.161
77.2213
79.6893
81.7806
83.5816
85.174
86.643
88.0668
89.5171
91.0503
92.6962
94.4613
96.3348
98.2947
100.309
102.334
104.297
106.02
107.163
42.3605
49.788
56.883
63.4888
68.7121
72.6896
75.7931
78.3004
80.4119
82.2182
83.8012
85.2525
86.6519
88.0752
89.576
91.1867
92.9142
94.7468
96.6629
98.6305
100.607
102.521
104.197
105.311
41.4748
48.6199
55.501
62.0038
67.2206
71.2251
74.368
76.9174
79.0559
80.8781
82.4607
83.8979
85.2775
86.6742
88.1472
89.7261
91.4174
93.2105
95.0832
97.0042
98.9324
100.797
102.429
103.513
40.4366
47.3561
54.0198
60.4224
65.6546
69.7205
72.9351
75.5421
77.7163
79.5549
81.1466
82.5775
83.9413
85.3184
86.7638
88.3112
89.9685
91.7238
93.5554
95.4325
97.3136
99.1316
100.719
101.773
39.566
46.1378
52.55
58.8411
64.0924
68.2177
71.4915
74.1559
76.372
78.2451
79.8535
81.2872
82.6427
84.0006
85.4245
86.9455
88.5702
90.2888
92.079
93.9106
95.7458
97.5157
99.0584
100.084
38.4174
44.7515
50.9147
57.0978
62.3924
66.6251
70.0125
72.7613
75.0372
76.9419
78.5746
80.0212
81.3747
82.7246
84.1275
85.6213
87.2159
88.8994
90.6513
92.442
94.23
95.9543
97.4539
98.4506
37.5445
43.4467
49.2901
55.3335
60.6746
65.0139
68.4925
71.3278
73.6674
75.6333
77.3045
78.7713
80.1342
81.4766
82.8665
84.3411
85.9071
87.5565
89.2681
91.012
92.7548
94.431
95.8849
96.8549
36.1929
41.8594
47.4062
53.3012
58.7067
63.2221
66.8913
69.8586
72.2986
74.3181
76.0327
77.5314
78.9073
80.2565
81.6355
83.0875
84.6272
86.2433
87.9184
89.6235
91.3185
92.9487
94.3609
95.3
35.1671
40.3801
45.516
51.2096
56.6769
61.3694
65.1872
68.3028
70.8441
72.9652
74.75
76.2916
77.6967
79.0489
80.4249
81.867
83.3826
84.9672
86.6011
88.2564
89.9076
91.4896
92.8518
93.767
33.8288
38.6256
43.2579
48.6608
54.1791
59.1508
63.3165
66.6553
69.3746
71.5882
73.4432
75.042
76.4779
77.8561
79.2328
80.6571
82.1509
83.7043
85.3045
86.9238
88.5252
90.0591
91.3819
92.2637
32.4552
36.8846
40.9819
46.0133
51.5534
56.8021
61.2099
64.8378
67.7337
70.1175
72.0929
73.7677
75.2612
76.6558
78.0418
79.4681
80.9433
82.4679
84.0252
85.5903
87.1478
88.632
89.8968
90.7588
30.4837
34.5508
37.9963
42.4692
47.9425
53.6186
58.7448
62.787
66.0291
68.5887
70.6843
72.4549
74.002
75.4492
76.8518
78.2663
79.7251
81.2203
82.7459
84.2774
85.7812
87.2141
88.4409
89.2645
28.369
32.2364
35.0735
38.8906
44.2211
50.3021
55.7343
60.4116
64.0001
66.8713
69.1754
71.0746
72.7245
74.2071
75.6356
77.0672
78.5134
79.9821
81.4623
82.9326
84.3904
85.7696
86.9263
87.7345
24.777
28.4198
30.4159
33.0642
37.8178
44.5049
51.8557
57.3886
61.7609
65.0022
67.5438
69.6133
71.3505
72.9244
74.3907
75.8189
77.2556
78.6967
80.145
81.5809
82.9809
84.3027
85.4223
86.1855
20.6113
24.9859
26.4581
28.0931
32.5461
39.9329
46.5737
53.7684
58.8597
62.7698
65.7033
68.0001
69.9215
71.5627
73.0808
74.5464
75.9775
77.3926
78.7918
80.1581
81.5034
82.7629
83.793
84.5456
2.78414
13.9724
15.5019
12.8825
11.6513
22.0263
39.0026
47.9373
55.3402
60.1195
63.5928
66.2329
68.3062
70.1025
71.6893
73.1635
74.5944
75.9838
77.3472
78.6728
79.9579
81.1486
82.1393
82.839
5.17492
14.0439
18.806
18.6657
9.14446
22.0206
22.44
41.6414
50.1377
56.6991
61.0298
64.1244
66.5565
68.4827
70.1693
71.7132
73.1482
74.5094
75.8169
77.0595
78.2664
79.3808
80.2488
80.9433
16.0227
18.5376
18.6144
15.3153
2.63034
18.4394
27.0995
24.3853
43.6382
52.0931
57.8283
61.7091
64.4403
66.657
68.4653
70.0384
71.4873
72.8248
74.0869
75.2759
76.4288
77.4468
78.2699
78.8989
23.9707
27.3032
28.6774
28.3836
25.4586
20.9216
19.0237
25.7914
28.2105
45.571
53.5024
58.4825
62.0199
64.4985
66.5118
68.2158
69.6873
70.9896
72.1804
73.2555
74.2687
75.1903
75.8231
76.4601
25.9914
30.0528
32.631
34.0624
33.8566
30.9439
23.5866
22.4424
12.0935
34.6038
47.4841
54.57
58.7782
61.9016
64.1483
65.9256
67.4356
68.7178
69.844
70.8463
71.8451
72.6028
73.1737
73.7213
26.8685
30.9742
33.8476
35.8668
36.8534
36.5764
34.275
27.2664
22.5441
15.0367
38.2939
48.5711
54.9093
58.5728
61.2803
63.3251
64.9003
66.1283
67.1413
67.9459
68.6349
69.2489
69.4804
70.0774
26.5766
30.8239
33.7434
35.9934
37.439
38.0222
37.6227
35.2087
28.5909
14.5493
18.1064
40.5887
48.8337
54.2586
57.4493
59.6443
61.3153
62.5392
63.4471
64.1469
64.9924
65.315
65.4015
65.8739
24.4884
29.0628
32.226
34.7936
36.6419
37.7573
38.1577
37.6387
34.3653
31.9069
7.78446
26.6885
41.5595
48.23
52.5421
55.3917
57.2182
58.3111
58.9712
59.2346
59.2365
59.1544
58.5344
59.1931
21.5908
26.5351
29.9115
32.7342
34.9197
36.4861
37.5421
38.154
37.9665
34.5653
28.3811
33.4642
29.6233
39.9891
45.2483
48.0238
50.1917
51.3951
51.9831
51.8831
52.9228
52.9027
51.4007
52.1915
18.5831
23.7443
27.1617
30.0742
32.4605
34.3749
35.9372
37.2774
38.2994
38.0107
33.7041
31.9413
2.74143
28.012
34.2609
40.8393
43.0886
44.158
43.087
42.5237
41.1763
37.2468
34.4756
35.9852
15.935
21.0422
24.2955
27.1097
29.5327
31.6631
33.6266
35.5545
37.4233
38.7573
38.5304
30.0743
26.495
33.9217
30.6725
12.9793
26.5254
23.9945
28.2576
18.9503
23.4545
28.2228
10.8765
23.7293
13.5402
18.4821
21.49
24.1225
26.4871
28.7127
30.9263
33.2426
35.7106
38.065
39.6225
37.8714
30.395
32.7548
19.9594
26.5209
37.6472
22.2541
35.9065
11.0681
26.8906
33.2833
27.0772
35.9193
11.7824
16.4347
19.1437
21.5423
23.7807
25.9916
28.2847
30.7532
33.4762
36.3849
39.0013
40.0291
37.1079
27.7673
31.4087
23.6887
28.8572
31.0571
36.1732
31.557
33.9294
31.7086
34.2176
40.8646
10.7567
15.078
17.5224
19.7123
21.8127
23.9355
26.1581
28.5573
31.224
34.2188
37.3552
39.7635
39.9224
37.4167
32.697
31.7971
29.3581
29.6381
32.8313
36.1887
35.3553
38.0534
41.6345
39.3125
10.2993
14.4669
16.7345
18.7892
20.7838
22.7904
24.8523
27.0307
29.4227
32.1525
35.2562
38.3383
40.2117
40.54
37.5581
38.8827
39.1738
38.2225
40.7353
41.7794
40.651
42.8225
43.8871
43.2408
10.4021
14.4734
16.6715
18.6809
20.622
22.527
24.4126
26.3287
28.3669
30.6596
33.3476
36.3947
39.1662
40.9422
40.1976
41.2215
41.8646
41.4097
42.6765
42.7943
42.0258
43.4026
43.5989
44.0325
10.8489
14.9192
17.1423
19.1807
21.1176
22.9563
24.6998
26.3899
28.1059
29.96
32.1022
34.6659
37.4871
40.0493
40.8686
41.8249
42.4442
42.1218
42.5985
42.479
41.8965
42.7051
42.372
43.2815
11.5256
15.6573
17.9553
20.0665
22.0397
23.8556
25.5102
27.0421
28.5185
30.0243
31.6784
33.6386
35.984
38.5483
40.2499
41.418
42.0099
41.6698
41.5785
41.2562
40.6884
41.0594
40.4818
41.5367
12.3077
16.6111
18.9996
21.1968
23.2216
25.0422
26.6548
28.0978
29.4269
30.7003
31.9973
33.443
35.173
37.2348
39.0493
40.3366
40.9234
40.5407
40.0844
39.5825
38.9933
39.0964
38.5813
39.5966
13.3875
17.7279
20.2008
22.4843
24.5655
26.4053
28.0066
29.4118
30.6685
31.8128
32.8884
33.9741
35.1847
36.6267
38.0779
39.2079
39.7065
39.3077
38.6434
37.9986
37.4026
37.3708
37.1162
38.0567
14.4853
18.9205
21.4939
23.8675
26.008
27.8774
29.4889
30.8907
32.1256
33.2149
34.1765
35.049
35.9042
36.8363
37.7916
38.5655
38.8589
38.4197
37.6322
36.8782
36.294
36.2338
36.3039
37.1982
15.6147
20.1638
22.8436
25.308
27.5095
29.4155
31.0519
32.4728
33.7175
34.7976
35.7157
36.4838
37.1337
37.7226
38.2544
38.6339
38.6498
38.1107
37.2252
36.3818
35.8168
35.7953
36.1654
37.0481
45.874
44.1967
43.3891
41.7911
40.8354
39.288
38.2242
36.8002
35.7579
34.4092
33.4003
32.2195
31.2644
30.2616
29.3576
28.6585
27.8288
27.3874
26.995
26.5632
26.5607
26.9933
27.3734
27.9173
28.6832
29.3862
30.3207
31.2361
32.2043
33.3931
34.3857
35.6748
36.7916
38.1551
39.2063
40.784
41.8018
43.32
44.249
45.9129
54.5012
52.9902
52.1961
50.7968
49.8889
48.5912
47.5547
46.4073
45.4144
44.2549
43.3689
42.3736
41.5714
40.723
40.0269
39.3573
38.8316
38.3268
38.101
37.8201
37.8185
38.0967
38.3179
38.75
39.4681
40.0006
40.8112
41.5741
42.3656
43.3412
44.2724
45.3172
46.4062
47.5284
48.5044
49.848
50.8077
52.1369
53.0163
54.5157
62.5452
61.115
60.3088
58.9713
58.051
56.8167
55.8325
54.7165
53.7579
52.717
51.8307
50.9236
50.1242
49.3547
48.6807
48.0616
47.5548
47.1203
46.8439
46.6563
46.6549
46.8397
47.1138
47.5273
48.086
48.6675
49.3694
50.1173
50.9078
51.812
52.7092
53.716
54.6997
55.8158
56.7775
58.0222
58.9583
60.2668
61.0997
62.5267
69.5577
68.1143
67.2225
65.865
64.8793
63.625
62.6091
61.4692
60.4819
59.4556
58.5395
57.6423
56.8304
56.0755
55.4017
54.8059
54.3061
53.907
53.628
53.4735
53.4722
53.6243
53.901
54.2969
54.8015
55.3912
56.0667
56.8178
57.6266
58.5221
59.4381
60.4586
61.4484
62.5874
63.5988
64.8528
65.8408
67.19
68.085
69.5234
74.8395
73.3442
72.3596
70.9564
69.8971
68.6081
67.5392
66.373
65.3468
64.3076
63.3667
62.4631
61.6424
60.8885
60.2184
59.6342
59.1472
58.766
58.5006
58.3591
58.358
58.4972
58.7606
59.1401
59.6261
60.2078
60.8768
61.6289
62.448
63.35
64.2896
65.3268
66.3521
67.5166
68.5838
69.8712
70.9289
72.3292
73.3125
74.8037
78.7676
77.2309
76.1752
74.7414
73.626
72.3175
71.208
70.0291
68.977
67.9305
66.9769
66.0712
65.2487
64.4988
63.8356
63.262
62.7874
62.4195
62.1655
62.032
62.031
62.1624
62.4145
62.7809
63.2537
63.8253
64.487
65.2355
66.0567
66.9608
67.9131
68.9578
70.0086
71.1858
72.2938
73.6005
74.7137
76.1455
77.1987
78.7332
81.7632
80.1994
79.0891
77.6412
76.4841
75.1675
74.0298
72.8456
71.7779
70.7284
69.7687
68.8635
68.042
67.2965
66.6396
66.0744
65.609
65.2501
65.0038
64.8752
64.8742
65.0009
65.2454
65.6026
66.0662
66.6297
67.2851
68.0292
68.8493
69.7531
70.7114
71.7592
72.8256
74.0081
75.1442
76.459
77.614
79.0598
80.1674
81.7297
84.1396
82.5568
81.4014
79.9478
78.761
77.4413
76.2853
75.0976
74.0202
72.9683
72.0047
71.0991
70.2777
69.5343
68.8806
68.3197
67.8591
67.5047
67.2622
67.1361
67.1352
67.2594
67.5001
67.8527
68.3116
68.8709
69.5232
70.2651
71.0852
71.9893
72.9514
74.0018
75.0777
76.2636
77.4181
78.7358
79.9208
81.3723
82.5254
84.1064
86.1788
84.5781
83.3874
81.9235
80.7136
79.3849
78.2137
77.0177
75.9298
74.871
73.9002
72.9895
72.1633
71.4166
70.7602
70.1976
69.736
69.381
69.1382
69.0117
69.0108
69.1354
69.3765
69.7297
70.1896
70.7506
71.4055
72.1508
72.9755
73.8848
74.8542
75.9113
76.9977
78.192
79.3616
80.6884
81.8967
83.3583
84.547
86.1454
87.9885
86.3603
85.1473
83.6657
82.438
81.0958
79.9099
78.7026
77.6023
76.5336
75.5525
74.633
73.7983
73.0441
72.3809
71.8124
71.3457
70.9866
70.7405
70.6117
70.6108
70.7377
70.9821
71.3394
71.8044
72.3714
73.033
73.7858
74.619
75.537
76.5167
77.5838
78.6825
79.8881
81.0725
82.4128
83.6387
85.1181
86.3294
87.9551
89.6403
87.9827
86.7505
85.2486
84.003
82.6445
81.4422
80.2204
79.1053
78.0232
77.0286
76.0968
75.2501
74.4846
73.8109
73.2328
72.7577
72.3915
72.1399
72.0074
72.0064
72.1371
72.3869
72.7514
73.2248
73.8013
74.4734
75.2374
76.0827
77.013
78.0062
79.0866
80.2003
81.4204
82.6211
83.9777
85.2216
86.7214
87.9518
89.6071
91.1939
89.5047
88.2563
86.731
85.4679
84.09
82.8703
81.6311
80.4993
79.401
78.3905
77.4434
76.5817
75.8021
75.1148
74.5243
74.0381
73.6624
73.4034
73.2661
73.2651
73.4006
73.6577
74.0316
74.5163
75.1052
75.7909
76.569
77.4291
78.3748
79.3838
80.4805
81.6109
82.8483
84.0665
85.4426
86.704
88.2273
89.4738
91.1609
92.7171
90.9943
89.731
88.1798
86.8988
85.4994
84.2609
83.0021
81.8517
80.7349
79.7064
78.7416
77.8627
77.0664
76.3631
75.7577
75.2579
74.8707
74.6028
74.4597
74.4587
74.5998
74.8659
75.2514
75.7496
76.3534
77.0551
77.8499
78.7272
79.6905
80.7176
81.8328
82.9818
84.2388
85.4758
86.8734
88.1528
89.7019
90.9636
92.6841
94.2768
92.5186
91.24
89.6608
88.3608
86.9375
85.6786
84.3982
83.2272
82.0899
81.0413
80.0566
79.1583
78.3429
77.6214
76.9986
76.483
76.0822
75.8039
75.6542
75.6532
75.8009
76.0774
76.4764
76.9904
77.6116
78.3316
79.1454
80.0422
81.0253
82.0725
83.2083
84.3778
85.6566
86.9139
88.3355
89.6338
91.2111
92.488
94.244
95.927
94.1304
92.8356
91.2257
89.9051
88.4555
87.1744
85.8699
84.6764
83.5162
82.4453
81.4386
80.5185
79.6819
78.9396
78.2971
77.7633
77.3467
77.0563
76.899
76.8979
77.0532
77.3418
77.7565
78.2887
78.9297
79.6704
80.5055
81.4241
82.4293
83.4988
84.6574
85.8495
87.1523
88.4319
89.8798
91.1988
92.8068
94.0999
95.8944
97.6978
95.8605
94.5475
92.9045
91.5611
90.0828
88.7772
87.4463
86.2281
85.0428
83.9475
82.9164
81.9723
81.112
80.3465
79.6816
79.127
78.6922
78.3875
78.2215
78.2204
78.3844
78.6872
79.1202
79.6732
80.3365
81.1005
81.9593
82.902
83.9315
85.0255
86.2092
87.4261
88.7553
90.0594
91.536
92.8778
94.5189
95.8303
97.6654
99.5965
97.7166
96.3834
94.7052
93.337
91.828
90.4958
89.1365
87.8914
86.679
85.5571
84.4996
83.5293
82.643
81.8519
81.1619
80.5836
80.1278
79.8065
79.6302
79.6291
79.8032
80.1227
80.5767
81.1535
81.8419
82.6315
83.5164
84.4853
85.5413
86.6618
87.8728
89.1165
90.4741
91.8049
93.3121
94.6789
96.3551
97.6867
99.5645
101.613
99.6894
98.3345
96.6195
95.225
93.6836
92.3235
90.9342
89.6607
88.4196
87.2695
86.1839
85.1857
84.2714
83.4524
82.7348
82.1299
81.6498
81.3089
81.1205
81.1194
81.3056
81.6446
82.123
82.7264
83.4425
84.2601
85.173
86.1699
87.2541
88.4028
89.6425
90.9146
92.3023
93.6613
95.2006
96.5939
98.3067
99.6597
101.581
103.725
101.757
100.38
98.6287
97.207
95.6327
94.2432
92.8234
91.5204
90.2498
89.0705
87.9559
86.9286
85.9849
85.1361
84.3887
83.754
83.246
82.882
82.6792
82.678
82.8786
83.2408
83.7472
84.3803
85.1264
85.9739
86.916
87.9424
89.0556
90.2335
91.5031
92.8042
94.223
95.6109
97.1831
98.6036
100.353
101.728
103.695
105.901
103.89
102.491
100.703
99.2543
97.6478
96.2297
94.779
93.4469
92.1465
90.9381
89.7941
88.7371
87.7631
86.8837
86.1042
85.437
84.8971
84.5055
84.285
84.2838
84.5021
84.8921
85.4307
86.0962
86.8744
87.7529
88.7252
89.7813
90.924
92.1314
93.4304
94.7611
96.2103
97.6272