/*--------------------------------*- C++ -*----------------------------------*\
  =========                 |
  \\      /  F ield         | OpenFOAM: The Open Source CFD Toolbox
   \\    /   O peration     | Website:  https://openfoam.org
    \\  /    A nd           | Version:  6
     \\/     M anipulation  |
\*---------------------------------------------------------------------------*/
FoamFile
{
    version     2.0;
    format      ascii;
    class       volScalarField;
    location    "15";
    object      omega;
}
// * * * * * * * * * * * * * * * * * * * * * * * * * * * * * * * * * * * * * //

dimensions      [0 0 -1 0 0 0 0];

internalField   nonuniform List<scalar> 
380496
(
843.917
843.917
843.917
843.917
843.917
843.917
843.917
843.917
843.917
843.917
843.917
843.917
843.917
843.917
843.917
843.917
843.917
843.917
843.917
843.917
843.917
843.917
843.917
843.917
843.917
843.917
843.917
843.917
843.917
843.917
843.917
843.917
843.917
843.917
843.917
843.917
843.917
843.917
843.917
843.917
843.917
843.917
843.917
843.917
843.917
843.917
843.917
843.917
843.917
843.917
843.917
843.917
843.917
843.917
843.917
843.917
843.917
843.917
843.917
843.917
843.917
843.917
843.917
843.917
843.917
843.917
843.917
843.917
843.917
843.917
843.917
843.917
843.917
843.917
843.917
843.917
843.917
843.917
843.917
843.917
843.917
843.917
843.917
843.917
843.917
843.917
843.917
843.917
843.917
843.917
843.917
843.917
843.917
843.917
843.917
843.917
843.917
843.917
843.917
843.917
843.917
843.917
843.917
843.917
843.917
843.917
843.917
843.917
843.917
843.917
843.917
843.917
843.917
843.917
843.917
843.917
843.917
843.917
843.917
843.917
843.917
843.917
843.917
843.917
843.917
843.917
843.917
843.917
843.917
843.917
843.917
843.917
843.917
843.917
843.917
843.917
843.917
843.917
843.917
843.917
843.917
843.917
843.917
843.917
843.917
843.917
843.917
843.917
843.917
843.917
843.917
843.917
843.917
843.917
843.917
843.917
843.917
843.917
843.917
843.917
843.917
843.917
843.917
843.917
843.917
843.917
843.917
843.917
843.917
843.917
843.917
843.917
843.917
843.917
843.917
843.917
843.917
843.917
843.917
843.917
843.917
843.917
843.917
843.917
843.917
843.917
843.917
843.917
843.917
843.917
843.917
843.917
843.917
843.917
843.917
843.917
843.917
843.917
843.917
843.917
843.917
843.917
843.917
843.917
843.917
843.917
843.917
843.917
843.917
843.917
843.917
843.917
843.917
843.917
843.917
843.917
843.917
843.917
843.917
843.917
843.917
843.917
843.917
843.917
843.917
843.917
843.917
843.917
843.917
843.917
843.917
843.917
843.917
843.917
843.917
843.917
843.917
843.917
843.917
843.917
843.917
843.917
843.917
843.917
843.917
843.917
843.917
843.917
843.917
843.917
843.917
843.917
843.917
843.917
843.917
843.917
843.917
843.917
843.917
843.917
843.917
843.917
843.917
843.917
843.917
843.917
843.917
843.917
843.917
843.917
843.917
843.917
843.917
843.917
843.917
843.917
843.917
843.917
843.917
843.917
843.917
843.917
843.917
843.917
843.917
843.917
843.917
843.917
843.917
843.917
843.917
843.917
843.917
843.917
843.917
843.917
843.917
843.917
843.917
843.917
843.917
843.917
843.917
843.917
843.917
843.917
843.917
843.917
843.917
843.917
843.917
843.917
843.917
843.917
843.917
843.917
843.917
843.917
843.917
843.917
843.917
843.917
843.917
843.917
843.917
843.917
843.917
843.917
843.917
843.917
843.917
843.917
843.917
843.917
843.917
843.917
843.917
843.917
843.917
843.917
843.917
843.917
843.917
843.917
843.917
843.917
843.917
843.917
843.917
843.917
843.917
843.917
843.917
843.917
843.917
843.917
843.917
843.917
843.917
843.917
843.917
843.917
843.917
843.917
843.917
843.917
843.917
843.917
843.917
843.917
843.917
843.917
843.917
843.917
843.917
843.917
843.917
843.917
843.917
843.917
843.917
843.917
843.917
843.917
843.917
843.917
843.917
843.917
843.917
843.917
843.917
843.917
843.917
843.917
843.917
843.917
843.917
843.917
843.917
843.917
843.917
843.917
843.917
843.917
843.917
843.917
843.917
843.917
843.917
843.917
843.917
843.917
843.917
843.917
843.917
843.917
843.917
843.917
843.917
843.917
843.917
843.917
843.917
843.917
843.917
843.917
843.917
843.917
843.917
843.917
843.917
843.917
843.917
843.917
843.917
843.917
843.917
843.917
843.917
843.917
843.917
843.917
843.917
843.917
843.917
843.917
843.917
843.917
843.917
843.917
843.917
843.917
843.917
843.917
843.917
843.917
843.917
843.917
843.917
843.917
843.917
843.917
843.917
843.917
843.917
843.917
843.917
843.917
843.917
843.917
843.917
843.917
843.917
843.917
843.917
843.917
843.917
843.917
843.917
843.917
843.917
843.917
843.917
843.917
843.917
843.917
843.917
843.917
843.917
843.917
843.917
843.917
843.917
843.917
843.917
843.917
843.917
843.917
843.917
843.917
843.917
843.917
843.917
843.917
843.917
843.917
843.917
843.917
843.917
843.917
843.917
843.917
843.917
843.917
843.917
843.917
843.917
843.917
843.917
843.917
843.917
843.917
843.917
843.917
843.917
843.917
843.917
843.917
843.917
843.917
843.917
843.917
843.917
843.917
843.917
843.917
843.917
843.917
843.917
843.917
843.917
843.917
843.917
843.917
843.917
843.917
843.917
843.917
843.917
843.917
843.917
843.917
843.917
843.917
843.917
843.917
843.917
843.917
843.917
843.917
843.917
843.917
843.917
843.917
843.917
843.917
843.917
843.917
843.917
843.917
843.917
843.917
843.917
843.917
843.917
843.917
843.917
843.917
843.917
843.917
843.917
843.917
843.917
843.917
843.917
843.917
843.917
843.917
843.917
843.917
843.917
843.917
843.917
843.917
843.917
843.917
843.917
843.917
843.917
843.917
843.917
843.917
843.917
843.917
843.917
843.917
843.917
843.917
843.917
843.917
843.917
843.917
843.917
843.917
843.917
843.917
843.917
843.917
843.917
843.917
843.917
843.917
843.917
843.917
843.917
843.917
843.917
843.917
843.917
843.917
843.917
843.917
843.917
843.917
843.917
843.917
843.917
843.917
843.917
843.917
843.917
843.917
843.917
843.917
843.917
843.917
843.917
843.917
843.917
843.917
843.917
843.917
843.917
843.917
843.917
843.917
843.917
843.917
843.917
843.917
843.917
843.917
843.917
843.917
843.917
843.917
843.917
843.917
843.917
843.917
843.917
843.917
843.917
843.917
843.917
843.917
843.917
843.917
843.917
843.917
843.917
843.917
843.917
843.917
843.917
843.917
843.917
843.917
843.917
843.917
843.917
843.917
843.917
843.917
843.917
843.917
843.917
843.917
843.917
843.917
423.923
423.923
423.923
423.923
423.923
424.288
424.29
424.295
424.272
424.295
424.32
424.34
424.363
424.382
424.405
424.425
424.449
424.471
424.498
424.521
424.55
424.576
424.608
424.636
424.672
424.701
424.742
424.772
424.818
424.845
424.9
424.92
424.987
424.988
425.071
275.638
262.144
263.673
264.573
264.559
264.419
264.333
264.29
264.265
264.255
264.249
264.25
264.253
264.26
264.268
264.279
264.29
264.306
264.321
264.341
264.36
264.387
264.41
264.445
264.473
264.518
264.552
264.607
264.649
264.714
264.764
264.839
264.895
264.986
265.025
275.379
261.959
263.393
264.252
264.226
264.084
263.997
263.955
263.93
263.923
263.918
263.925
263.928
263.944
263.952
263.973
263.985
264.011
264.028
264.059
264.082
264.12
264.149
264.194
264.23
264.285
264.328
264.394
264.444
264.519
264.575
264.662
264.711
264.832
264.788
274.938
261.626
263.023
263.851
263.812
263.667
263.58
263.542
263.521
263.519
263.52
263.533
263.544
263.566
263.583
263.611
263.634
263.669
263.697
263.74
263.773
263.826
263.865
263.928
263.974
264.048
264.103
264.187
264.252
264.346
264.419
264.524
264.591
264.735
264.711
274.255
261.102
262.54
263.341
263.28
263.131
263.045
263.012
262.997
263.004
263.012
263.035
263.053
263.086
263.11
263.15
263.181
263.228
263.265
263.32
263.364
263.429
263.481
263.556
263.618
263.702
263.775
263.87
263.951
264.058
264.145
264.267
264.341
264.51
264.481
273.787
260.732
262.024
262.77
262.702
262.553
262.469
262.438
262.427
262.438
262.451
262.48
262.504
262.544
262.575
262.624
262.662
262.72
262.766
262.833
262.888
262.965
263.029
263.118
263.193
263.293
263.378
263.49
263.585
263.71
263.811
263.952
264.04
264.234
264.208
272.915
260.038
261.328
262.034
261.947
261.796
261.717
261.695
261.693
261.715
261.739
261.778
261.814
261.863
261.907
261.965
262.017
262.084
262.143
262.221
262.29
262.379
262.458
262.56
262.648
262.765
262.862
262.993
263.099
263.244
263.354
263.518
263.612
263.834
263.804
272.061
259.34
260.531
261.18
261.08
260.93
260.857
260.842
260.85
260.881
260.914
260.962
261.007
261.067
261.119
261.189
261.25
261.329
261.399
261.491
261.571
261.675
261.766
261.883
261.986
262.117
262.23
262.375
262.497
262.656
262.784
262.963
263.072
263.316
263.288
271.026
258.479
259.567
260.157
260.044
259.896
259.832
259.828
259.847
259.889
259.933
259.992
260.047
260.116
260.18
260.26
260.332
260.423
260.505
260.608
260.702
260.819
260.923
261.054
261.17
261.317
261.443
261.605
261.74
261.917
262.056
262.254
262.371
262.64
262.607
269.807
257.456
258.457
258.985
258.857
258.715
258.666
258.677
258.712
258.768
258.825
258.896
258.964
259.045
259.12
259.211
259.295
259.398
259.493
259.609
259.714
259.845
259.962
260.108
260.237
260.398
260.539
260.715
260.864
261.056
261.208
261.422
261.55
261.84
261.806
268.657
256.454
257.277
257.74
257.61
257.478
257.442
257.466
257.512
257.578
257.646
257.726
257.803
257.893
257.978
258.078
258.173
258.285
258.391
258.518
258.635
258.777
258.907
259.065
259.206
259.381
259.533
259.723
259.884
260.09
260.253
260.482
260.618
260.928
260.89
267.087
255.101
255.846
256.251
256.111
255.995
255.985
256.033
256.102
256.187
256.273
256.368
256.46
256.563
256.661
256.773
256.88
257.005
257.123
257.262
257.392
257.547
257.689
257.861
258.015
258.203
258.368
258.572
258.745
258.965
259.139
259.383
259.528
259.857
259.814
265.666
253.803
254.279
254.616
254.485
254.389
254.4
254.465
254.549
254.645
254.742
254.847
254.948
255.06
255.168
255.29
255.408
255.543
255.672
255.823
255.965
256.132
256.287
256.471
256.638
256.839
257.017
257.234
257.42
257.653
257.839
258.097
258.251
258.598
258.55
263.602
251.962
252.321
252.61
252.487
252.426
252.479
252.58
252.695
252.817
252.936
253.059
253.179
253.305
253.429
253.565
253.697
253.845
253.988
254.152
254.308
254.488
254.657
254.855
255.036
255.25
255.442
255.673
255.871
256.119
256.317
256.59
256.752
257.119
257.064
261.657
250.111
250.128
250.362
250.265
250.245
250.335
250.462
250.599
250.738
250.873
251.009
251.143
251.281
251.418
251.565
251.71
251.87
252.027
252.203
252.372
252.566
252.748
252.96
253.154
253.383
253.588
253.833
254.045
254.307
254.517
254.805
254.975
255.363
255.298
258.961
247.586
247.37
247.584
247.529
247.576
247.73
247.906
248.083
248.252
248.414
248.571
248.724
248.879
249.033
249.193
249.353
249.526
249.697
249.885
250.069
250.275
250.472
250.697
250.905
251.148
251.367
251.627
251.851
252.129
252.351
252.655
252.836
253.244
253.171
255.939
244.637
244.052
244.272
244.29
244.421
244.641
244.868
245.083
245.282
245.469
245.644
245.814
245.982
246.148
246.319
246.49
246.672
246.855
247.052
247.249
247.465
247.675
247.912
248.135
248.392
248.626
248.901
249.14
249.434
249.671
249.992
250.186
250.615
250.536
252.317
240.988
239.927
240.186
240.311
240.557
240.861
241.145
241.394
241.615
241.812
241.995
242.166
242.335
242.503
242.675
242.85
243.036
243.226
243.431
243.639
243.867
244.094
244.345
244.588
244.861
245.117
245.411
245.673
245.988
246.248
246.591
246.809
247.262
247.197
246.448
235.384
234.178
234.679
234.989
235.387
235.784
236.121
236.391
236.624
236.818
237.001
237.167
237.341
237.511
237.696
237.884
238.09
238.303
238.534
238.772
239.03
239.291
239.575
239.855
240.163
240.457
240.787
241.088
241.437
241.736
242.11
242.37
242.843
242.827
238.155
227.579
225.862
226.733
227.333
227.911
228.379
228.738
229.005
229.248
229.451
229.666
229.863
230.087
230.301
230.547
230.786
231.056
231.322
231.618
231.91
232.232
232.549
232.893
233.232
233.597
233.951
234.334
234.697
235.095
235.456
235.874
236.204
236.704
236.823
218.095
211.367
210.037
211.657
212.786
213.68
214.36
214.896
215.335
215.739
216.088
216.436
216.748
217.079
217.381
217.717
218.029
218.383
218.717
219.099
219.459
219.863
220.25
220.68
221.094
221.542
221.977
222.438
222.887
223.353
223.806
224.268
224.702
225.102
225.354
9.50426
8.83563
9.16123
9.2992
9.3767
9.42563
9.47211
9.50687
9.53625
9.57138
9.61529
9.64895
9.69222
9.72528
9.77046
9.80528
9.85404
9.8918
9.94488
9.98592
10.0436
10.0879
10.1508
10.1976
10.2668
10.3144
10.3915
10.4365
10.5246
10.5609
10.6657
10.6829
10.8138
10.7914
10.953
133.591
127.215
127.094
127.665
127.852
127.835
127.782
127.739
127.708
127.688
127.675
127.669
127.666
127.667
127.67
127.675
127.683
127.692
127.704
127.717
127.733
127.75
127.771
127.793
127.82
127.847
127.882
127.916
127.96
128.004
128.056
128.114
128.172
128.258
128.309
133.312
126.951
126.79
127.333
127.509
127.487
127.433
127.389
127.358
127.339
127.328
127.324
127.323
127.327
127.333
127.343
127.354
127.368
127.384
127.402
127.423
127.445
127.472
127.499
127.533
127.566
127.608
127.648
127.7
127.745
127.81
127.862
127.936
128.007
128.056
132.937
126.596
126.417
126.944
127.109
127.085
127.029
126.985
126.956
126.941
126.933
126.933
126.937
126.945
126.957
126.972
126.989
127.009
127.031
127.056
127.085
127.115
127.15
127.186
127.229
127.271
127.323
127.372
127.434
127.491
127.564
127.632
127.708
127.807
127.846
132.435
126.122
125.96
126.48
126.635
126.605
126.547
126.506
126.479
126.468
126.465
126.47
126.479
126.494
126.511
126.533
126.556
126.583
126.612
126.644
126.679
126.717
126.759
126.804
126.854
126.905
126.964
127.022
127.091
127.156
127.237
127.31
127.395
127.495
127.545
132.014
125.739
125.522
126
126.14
126.104
126.044
126.002
125.977
125.967
125.966
125.975
125.987
126.006
126.027
126.053
126.081
126.113
126.147
126.185
126.227
126.271
126.32
126.371
126.429
126.488
126.554
126.62
126.698
126.771
126.859
126.942
127.032
127.143
127.197
131.387
125.155
124.944
125.405
125.53
125.487
125.426
125.386
125.366
125.362
125.367
125.382
125.4
125.425
125.453
125.485
125.52
125.558
125.6
125.645
125.693
125.745
125.801
125.86
125.925
125.991
126.066
126.139
126.225
126.305
126.4
126.489
126.585
126.703
126.758
130.746
124.568
124.324
124.747
124.852
124.801
124.739
124.701
124.684
124.685
124.695
124.715
124.739
124.769
124.802
124.841
124.881
124.926
124.973
125.025
125.079
125.138
125.201
125.268
125.34
125.414
125.495
125.576
125.668
125.756
125.857
125.955
126.055
126.183
126.239
129.997
123.88
123.603
123.985
124.068
124.01
123.947
123.913
123.9
123.907
123.923
123.949
123.979
124.015
124.054
124.098
124.144
124.195
124.249
124.307
124.369
124.434
124.504
124.578
124.656
124.737
124.826
124.914
125.013
125.108
125.215
125.319
125.423
125.56
125.615
129.152
123.104
122.799
123.139
123.199
123.132
123.07
123.041
123.036
123.051
123.074
123.108
123.145
123.189
123.234
123.285
123.337
123.395
123.455
123.52
123.588
123.66
123.737
123.817
123.903
123.991
124.086
124.181
124.287
124.388
124.501
124.613
124.72
124.866
124.92
128.333
122.355
121.978
122.26
122.296
122.222
122.163
122.139
122.141
122.161
122.191
122.23
122.273
122.322
122.373
122.429
122.486
122.55
122.615
122.686
122.759
122.838
122.92
123.007
123.099
123.193
123.294
123.396
123.507
123.614
123.733
123.85
123.96
124.114
124.167
127.304
121.401
120.996
121.234
121.245
121.165
121.112
121.098
121.111
121.143
121.184
121.232
121.284
121.341
121.399
121.462
121.527
121.597
121.669
121.747
121.827
121.912
122.001
122.095
122.193
122.294
122.402
122.51
122.627
122.741
122.864
122.989
123.102
123.264
123.315
126.312
120.489
119.958
120.117
120.1
120.017
119.971
119.966
119.988
120.028
120.076
120.131
120.189
120.252
120.316
120.386
120.456
120.532
120.61
120.694
120.78
120.871
120.967
121.066
121.171
121.279
121.393
121.507
121.63
121.751
121.88
122.011
122.127
122.298
122.346
125.004
119.264
118.671
118.778
118.737
118.654
118.621
118.634
118.674
118.729
118.792
118.859
118.928
119.001
119.074
119.151
119.23
119.314
119.399
119.49
119.584
119.683
119.785
119.892
120.004
120.119
120.24
120.361
120.491
120.618
120.753
120.891
121.011
121.192
121.236
123.705
118.045
117.265
117.276
117.207
117.129
117.114
117.143
117.198
117.266
117.34
117.417
117.496
117.576
117.658
117.743
117.828
117.919
118.012
118.11
118.21
118.316
118.426
118.54
118.658
118.78
118.908
119.037
119.173
119.308
119.449
119.594
119.718
119.91
119.948
122.019
116.445
115.512
115.453
115.364
115.301
115.313
115.371
115.45
115.539
115.631
115.723
115.814
115.905
115.997
116.091
116.185
116.284
116.385
116.49
116.598
116.711
116.828
116.95
117.076
117.205
117.34
117.476
117.619
117.761
117.909
118.062
118.191
118.394
118.428
120.107
114.604
113.423
113.275
113.175
113.137
113.184
113.274
113.38
113.491
113.601
113.707
113.81
113.912
114.012
114.114
114.216
114.321
114.428
114.54
114.654
114.774
114.897
115.026
115.159
115.296
115.438
115.582
115.733
115.883
116.038
116.2
116.335
116.55
116.578
117.825
112.372
110.841
110.583
110.476
110.478
110.574
110.704
110.84
110.973
111.097
111.214
111.324
111.431
111.536
111.641
111.747
111.855
111.967
112.083
112.203
112.329
112.46
112.596
112.737
112.883
113.035
113.189
113.351
113.512
113.679
113.852
114
114.23
114.265
114.184
108.832
107.096
106.874
106.837
106.924
107.089
107.27
107.438
107.594
107.729
107.854
107.967
108.078
108.185
108.295
108.407
108.524
108.645
108.773
108.906
109.047
109.194
109.347
109.506
109.671
109.842
110.015
110.196
110.377
110.564
110.755
110.925
111.168
111.22
108.727
103.939
101.682
101.432
101.489
101.683
101.915
102.133
102.311
102.478
102.619
102.762
102.894
103.035
103.17
103.318
103.463
103.621
103.779
103.948
104.118
104.299
104.482
104.674
104.869
105.07
105.276
105.485
105.7
105.914
106.135
106.356
106.565
106.835
106.955
94.0524
94.1823
91.37
90.7408
90.7686
91.0937
91.51
91.9156
92.2897
92.6442
92.9654
93.2725
93.5506
93.822
94.0705
94.3198
94.554
94.7949
95.0253
95.2623
95.4895
95.7255
95.9574
96.1994
96.4395
96.6879
96.9356
97.1887
97.443
97.6965
97.9586
98.1975
98.4809
98.6405
98.9417
11.5219
10.7696
11.096
11.221
11.3001
11.3517
11.4004
11.4365
11.4738
11.5058
11.5483
11.5795
11.6227
11.6541
11.7
11.7338
11.7838
11.8208
11.8755
11.9159
11.9754
12.0189
12.0839
12.1297
12.2009
12.247
12.3262
12.3689
12.4593
12.4922
12.5996
12.6124
12.7457
12.7192
12.8827
79.3736
76.7492
76.2134
76.3798
76.5395
76.5868
76.5787
76.5549
76.5315
76.5121
76.4978
76.4872
76.4804
76.476
76.4743
76.4742
76.4763
76.4791
76.4845
76.4893
76.4981
76.5046
76.5171
76.5251
76.5418
76.5518
76.573
76.5861
76.6113
76.6304
76.657
76.6896
76.7097
76.7701
76.7742
79.1305
76.5263
75.9807
76.1314
76.2814
76.3233
76.3122
76.2864
76.2624
76.2426
76.2291
76.2189
76.2142
76.2105
76.2119
76.2126
76.2185
76.2224
76.2319
76.2384
76.2514
76.2602
76.2771
76.2879
76.3096
76.322
76.3496
76.3633
76.3986
76.4125
76.4577
76.4708
76.5257
76.5401
76.6037
78.8429
76.2491
75.6995
75.841
75.9839
76.0212
76.0075
75.9805
75.9563
75.9372
75.9249
75.9166
75.9138
75.9129
75.9167
75.9206
75.9296
75.9369
75.9504
75.9602
75.9782
75.9902
76.0131
76.0271
76.0552
76.0716
76.1054
76.1247
76.1645
76.1874
76.2334
76.2625
76.3093
76.3564
76.3902
78.4941
75.9018
75.3598
75.5004
75.6382
75.6707
75.654
75.6257
75.6018
75.5838
75.5738
75.5678
75.5683
75.5701
75.5779
75.5849
75.598
75.6088
75.6266
75.6404
75.6627
75.6795
75.7063
75.726
75.7578
75.7805
75.818
75.8432
75.8882
75.9147
75.9684
75.9971
76.0553
76.094
76.1473
78.1501
75.5902
75.0361
75.1538
75.276
75.3
75.2787
75.2481
75.2232
75.2053
75.1961
75.1914
75.1936
75.1974
75.2073
75.2167
75.2326
75.2461
75.267
75.284
75.3098
75.33
75.3608
75.3842
75.4206
75.4469
75.4897
75.5185
75.5688
75.5995
75.6581
75.6918
75.7544
75.7988
75.8575
77.7112
75.162
74.6156
74.7272
74.8399
74.8565
74.8309
74.7989
74.7744
74.7584
74.7516
74.7501
74.7553
74.763
74.7762
74.7898
74.809
74.8269
74.8514
74.8729
74.9026
74.9272
74.9626
74.9899
75.0317
75.0612
75.1105
75.1415
75.1993
75.2313
75.2975
75.3323
75.4012
75.4474
75.5092
77.2391
74.7181
74.1676
74.2598
74.3559
74.3621
74.3311
74.297
74.2726
74.2579
74.2532
74.2543
74.2626
74.2731
74.2897
74.3063
74.3291
74.3502
74.3785
74.4034
74.4371
74.4654
74.5049
74.5363
74.582
74.6164
74.669
74.7055
74.7662
74.804
74.8729
74.9131
74.9852
75.0352
75.1028
76.6973
74.2067
73.6529
73.7238
73.8012
73.7957
73.7589
73.7231
73.6992
73.6865
73.6845
73.6888
73.7003
73.7144
73.7343
73.7546
73.7809
73.8058
73.8377
73.8665
73.904
73.9363
73.9799
74.0152
74.0655
74.1034
74.1611
74.2008
74.2668
74.3074
74.3817
74.4246
74.5009
74.5539
74.6241
76.0999
73.6405
73.0851
73.1342
73.1911
73.1723
73.1295
73.0926
73.0703
73.0607
73.0624
73.0708
73.0864
73.1046
73.1285
73.1527
73.1829
73.2117
73.2475
73.2801
73.3217
73.3579
73.4056
73.4449
73.4994
73.5413
73.6033
73.6469
73.7172
73.7617
73.8399
73.8866
73.9664
74.0231
74.0962
75.4988
73.0835
72.509
72.5232
72.5547
72.5223
72.4742
72.4367
72.4161
72.4094
72.4145
72.4264
72.4454
72.4671
72.4944
72.5221
72.5556
72.5878
72.627
72.6631
72.7081
72.7478
72.7992
72.8422
72.9005
72.946
73.0119
73.059
73.1333
73.181
73.2632
73.313
73.396
73.4561
73.5311
74.7877
72.4069
71.8275
71.8171
71.8252
71.7785
71.7255
71.6888
71.6718
71.6702
71.6805
71.6979
71.722
71.7487
71.7807
71.8129
71.8507
71.8871
71.9304
71.9707
72.0198
72.0636
72.119
72.166
72.2284
72.2779
72.348
72.3989
72.4774
72.5287
72.6148
72.6682
72.7543
72.8183
72.8951
74.0534
71.7341
71.11
71.0453
71.0185
70.9556
70.8985
70.8635
70.8503
70.8536
70.8688
70.8911
70.9196
70.9507
70.9866
71.0229
71.0645
71.1049
71.1519
71.196
71.2489
71.2966
71.356
71.4068
71.4734
71.5266
71.601
71.6556
71.7384
71.7933
71.8835
71.9405
72.0298
72.098
72.1759
73.1494
70.8786
70.2307
70.1295
70.0733
69.9955
69.936
69.9051
69.8989
69.91
69.9329
69.9625
69.9977
70.0351
70.0767
70.1186
70.1653
70.2107
70.2625
70.3114
70.369
70.4212
70.4852
70.5405
70.6117
70.6692
70.7483
70.807
70.8945
70.9532
71.0481
71.1089
71.2018
71.2748
71.3539
72.1923
69.9974
69.2694
69.0937
68.9939
68.8996
68.8397
68.8149
68.8168
68.8365
68.8673
68.9042
68.9459
68.9896
69.0367
69.084
69.1355
69.1858
69.2422
69.2957
69.3577
69.4145
69.483
69.5426
69.6185
69.6802
69.7642
69.8268
69.9195
69.9819
70.0818
70.1465
70.2432
70.3214
70.4007
71.0025
68.881
68.0803
67.8421
67.7033
67.5955
67.539
67.5244
67.5384
67.5699
67.6114
67.6579
67.7079
67.7591
67.8128
67.8664
67.9235
67.9795
68.0408
68.0995
68.1662
68.228
68.3012
68.3657
68.4464
68.5128
68.602
68.6689
68.7671
68.8335
68.9391
69.0078
69.1095
69.1936
69.2747
69.6098
67.5791
66.6556
66.3306
66.147
66.0288
65.9802
65.9794
66.0079
66.0527
66.1058
66.1624
66.2208
66.2795
66.3394
66.3989
66.4608
66.5219
66.5876
66.6512
66.7222
66.7889
66.8665
66.9359
67.0214
67.0927
67.1872
67.2589
67.3631
67.4339
67.5462
67.6191
67.7271
67.8166
67.9001
67.9186
65.9889
64.882
64.4394
64.1988
64.0706
64.034
64.0507
64.096
64.1548
64.219
64.2842
64.3494
64.4138
64.4785
64.5426
64.6085
64.6741
64.7435
64.8119
64.8869
64.959
65.0412
65.1167
65.2077
65.2856
65.3865
65.4651
65.5768
65.6543
65.7755
65.8546
65.9732
66.0702
66.1651
65.3965
63.5126
62.2588
61.7692
61.5195
61.409
61.3991
61.4407
61.5059
61.5803
61.656
61.7297
61.8015
61.8713
61.941
62.0104
62.082
62.1544
62.231
62.3084
62.392
62.475
62.5672
62.6552
62.7571
62.8486
62.9612
63.0537
63.178
63.2689
63.4042
63.4947
63.6299
63.7346
63.8463
61.5623
60.0531
58.4392
57.7748
57.4766
57.38
57.4012
57.4698
57.5578
57.6507
57.7465
57.8405
57.9369
58.0315
58.13
58.2273
58.3297
58.431
58.5381
58.6443
58.7567
58.868
58.9864
59.1023
59.2276
59.3468
59.4801
59.6
59.7429
59.8602
60.0138
60.1277
60.2864
60.4094
60.5636
52.9315
55.1642
53.2042
51.9869
51.3896
51.1882
51.2127
51.3255
51.4868
51.6572
51.8416
52.0154
52.1951
52.3581
52.5272
52.6784
52.8388
52.9819
53.1361
53.2723
53.42
53.5521
53.6968
53.8299
53.9744
54.1109
54.2564
54.3956
54.5445
54.6809
54.8416
54.9571
55.1553
55.2002
55.4657
13.0788
12.358
12.7412
12.8832
12.967
13.0167
13.0622
13.0937
13.1304
13.1572
13.1964
13.2232
13.2647
13.2929
13.3384
13.3697
13.4202
13.4552
13.511
13.5498
13.6108
13.653
13.7198
13.7644
13.8377
13.8824
13.9639
14.0048
14.0979
14.1287
14.2388
14.2495
14.3847
14.3586
14.5217
52.7832
51.7579
51.3204
51.2781
51.3467
51.394
51.4081
51.4019
51.3893
51.3748
51.3625
51.3515
51.3434
51.3366
51.3322
51.3287
51.3275
51.326
51.3277
51.3273
51.3319
51.3318
51.3394
51.3393
51.3498
51.35
51.3629
51.3646
51.3781
51.3848
51.3945
51.4139
51.4115
51.4549
51.4325
52.5868
51.5748
51.1396
51.0913
51.1537
51.1961
51.2072
51.1984
51.1849
51.1689
51.1574
51.1452
51.1392
51.1313
51.1302
51.1255
51.128
51.1257
51.1312
51.1306
51.1388
51.1391
51.1504
51.1508
51.1658
51.1656
51.1853
51.1835
51.2092
51.2045
51.2382
51.2285
51.2727
51.2531
51.3175
52.3671
51.3603
50.9262
50.8741
50.9322
50.9705
50.9789
50.968
50.9532
50.9367
50.9248
50.9134
50.9075
50.9011
50.9006
50.8976
50.9016
50.9007
50.9088
50.9089
50.9208
50.9214
50.9371
50.938
50.9574
50.9586
50.9816
50.9835
51.0099
51.0132
51.0426
51.0489
51.0785
51.0923
51.1206
52.1144
51.1046
50.6739
50.6226
50.6789
50.714
50.7196
50.7063
50.6907
50.6734
50.6624
50.651
50.6472
50.6413
50.6435
50.6414
50.6483
50.6488
50.6596
50.662
50.6763
50.6801
50.6975
50.7025
50.7234
50.7291
50.754
50.7595
50.79
50.7938
50.8311
50.8334
50.8754
50.878
50.9256
51.844
50.8526
50.4247
50.3646
50.4106
50.438
50.4382
50.4215
50.404
50.3855
50.3742
50.3629
50.3598
50.3546
50.358
50.357
50.3655
50.3673
50.38
50.3839
50.4002
50.4057
50.4256
50.4322
50.4561
50.4632
50.4919
50.4986
50.5329
50.5386
50.5792
50.5841
50.6297
50.6345
50.688
51.5236
50.5345
50.1128
50.0522
50.0935
50.1152
50.1109
50.0913
50.0719
50.0531
50.0419
50.0319
50.0296
50.0266
50.0311
50.0328
50.0425
50.0473
50.0615
50.0683
50.0868
50.0946
50.1178
50.1258
50.1542
50.1617
50.1961
50.2023
50.2433
50.2479
50.2952
50.2995
50.3499
50.3567
50.41
51.1696
50.1936
49.7765
49.7091
49.7402
49.753
49.7423
49.7188
49.6974
49.6778
49.6669
49.6575
49.6567
49.6548
49.6614
49.6643
49.6765
49.6825
49.6994
49.7075
49.7287
49.7384
49.7639
49.7745
49.8048
49.8156
49.8513
49.8615
49.9036
49.9122
49.9612
49.9683
50.0224
50.0288
50.0903
50.7657
49.8042
49.3929
49.318
49.3373
49.3398
49.3217
49.294
49.2704
49.2504
49.2398
49.2316
49.2321
49.232
49.2403
49.2454
49.2595
49.2679
49.2868
49.2973
49.3208
49.3327
49.361
49.3736
49.4071
49.4195
49.4592
49.4704
49.517
49.5263
49.5798
49.5878
49.6457
49.6536
49.7173
50.3251
49.3784
48.9731
48.8904
48.8966
48.8874
48.8612
48.829
48.8034
48.7833
48.7734
48.7668
48.7691
48.7711
48.7816
48.7888
48.8052
48.8157
48.8371
48.8497
48.8758
48.8898
48.9208
48.9355
48.9719
48.9865
49.029
49.0425
49.0921
49.1034
49.1601
49.1699
49.2311
49.2403
49.3078
49.8716
48.9497
48.5449
48.4466
48.4346
48.4115
48.3769
48.3406
48.3134
48.2935
48.2847
48.2798
48.2839
48.2881
48.3006
48.31
48.3285
48.3412
48.3647
48.3795
48.4078
48.424
48.4574
48.4742
48.5132
48.5298
48.5752
48.5905
48.6431
48.6562
48.7161
48.7274
48.7916
48.8022
48.8724
49.3498
48.4479
48.0478
47.9395
47.9116
47.8746
47.8309
47.7902
47.7616
47.7422
47.7349
47.7323
47.7388
47.7456
47.7606
47.7726
47.7936
47.8089
47.8349
47.8522
47.883
47.9017
47.9377
47.9569
47.9987
48.0175
48.0659
48.0833
48.1391
48.1541
48.2172
48.2303
48.2975
48.31
48.3828
48.7893
47.9266
47.5169
47.3802
47.3246
47.2688
47.2153
47.171
47.1419
47.1242
47.1192
47.1195
47.1288
47.1386
47.1563
47.1712
47.1948
47.2127
47.2412
47.2611
47.2945
47.3156
47.3544
47.3759
47.4206
47.4417
47.4932
47.5127
47.5717
47.5887
47.655
47.6701
47.7402
47.7547
47.8299
48.1201
47.293
46.8805
46.7253
46.6467
46.5732
46.5096
46.4614
46.4319
46.4162
46.4138
46.4176
46.4302
46.4436
46.4645
46.4829
46.5095
46.5307
46.5622
46.5851
46.6215
46.6454
46.6873
46.7115
46.7595
46.7831
46.838
46.8598
46.9225
46.9415
47.0116
47.0287
47.1022
47.119
47.1969
47.3839
46.6132
46.1743
45.9756
45.8588
45.7621
45.6882
45.638
45.6101
45.5984
45.6003
45.6089
45.6256
45.6434
45.668
45.6902
45.72
45.7446
45.7791
45.8051
45.8446
45.8714
45.9163
45.9432
45.9945
46.0205
46.0791
46.1031
46.1698
46.1907
46.2649
46.284
46.3611
46.3803
46.4607
46.4841
45.7767
45.3134
45.0764
44.9236
44.8041
44.72
44.6679
44.642
44.6347
44.6411
44.6548
44.6757
44.6982
44.7263
44.7527
44.7856
44.8139
44.8514
44.8809
44.9233
44.9533
45.0014
45.0313
45.0861
45.1148
45.1774
45.2037
45.2749
45.2978
45.3769
45.3979
45.4798
45.5015
45.5862
45.4148
44.7866
44.275
43.9805
43.7816
43.6367
43.5436
43.4914
43.4691
43.4672
43.4786
43.4977
43.5227
43.5498
43.5811
43.6115
43.647
43.6792
43.719
43.7522
43.7971
43.8308
43.8818
43.9153
43.9735
44.0055
44.0722
44.1015
44.1776
44.203
44.2878
44.3108
44.3986
44.4225
44.5125
44.1
43.5679
42.9759
42.5983
42.3372
42.1594
42.0547
42.0009
41.9816
41.9839
41.9997
42.0231
42.0518
42.083
42.1174
42.152
42.1904
42.2271
42.2696
42.3078
42.3555
42.3946
42.4487
42.4878
42.5497
42.5874
42.6586
42.6932
42.7749
42.805
42.8968
42.9237
43.0202
43.0478
43.149
42.3715
41.8215
41.1163
40.6655
40.3557
40.1517
40.0391
39.9835
39.9685
39.9748
39.9973
40.0258
40.0612
40.0977
40.1384
40.1789
40.2235
40.2672
40.3159
40.3624
40.4163
40.4651
40.5253
40.5752
40.6433
40.6924
40.7701
40.8162
40.9051
40.9457
41.0462
41.0815
41.1894
41.222
41.3371
39.7933
39.442
38.4703
37.8253
37.4174
37.1809
37.0766
37.0384
37.0509
37.079
37.1295
37.1783
37.2412
37.2972
37.3647
37.4244
37.4943
37.5567
37.6284
37.6933
37.7669
37.8341
37.9102
37.9792
38.059
38.1282
38.2138
38.2808
38.3746
38.4364
38.5408
38.5954
38.7103
38.7595
38.8902
35.627
38.2627
37.0517
35.8411
35.0303
34.5622
34.3387
34.2391
34.2289
34.2502
34.3131
34.3749
34.4632
34.5373
34.6335
34.7092
34.8063
34.8801
34.9751
35.0461
35.1369
35.2059
35.2928
35.3625
35.4464
35.5186
35.6008
35.6749
35.7586
35.8296
35.9236
35.9774
36.1014
36.1127
36.2837
14.3883
13.784
14.2555
14.4353
14.5281
14.5733
14.6111
14.6325
14.6628
14.6808
14.7141
14.7338
14.7715
14.7944
14.8377
14.8648
14.9143
14.9458
15.0015
15.0372
15.0989
15.1384
15.2063
15.2484
15.3231
15.3655
15.4487
15.4874
15.5821
15.6111
15.7224
15.7325
15.8672
15.8444
16.0031
37.6296
37.2291
36.9733
36.8767
36.8773
36.8993
36.9146
36.9169
36.9127
36.9039
36.8952
36.8859
36.8784
36.8711
36.8659
36.8607
36.8579
36.854
36.8538
36.8502
36.8527
36.8487
36.8538
36.8491
36.8564
36.8515
36.8597
36.8561
36.8631
36.864