/*--------------------------------*- C++ -*----------------------------------*\
  =========                 |
  \\      /  F ield         | OpenFOAM: The Open Source CFD Toolbox
   \\    /   O peration     | Website:  https://openfoam.org
    \\  /    A nd           | Version:  6
     \\/     M anipulation  |
\*---------------------------------------------------------------------------*/
FoamFile
{
    version     2.0;
    format      ascii;
    class       volScalarField;
    location    "15";
    object      yPlus;
}
// * * * * * * * * * * * * * * * * * * * * * * * * * * * * * * * * * * * * * //

dimensions      [0 0 0 0 0 0 0];

internalField   uniform 0;

boundaryField
{
    inlet
    {
        type            calculated;
        value           uniform 0;
    }
    outlet
    {
        type            calculated;
        value           uniform 0;
    }
    roughCylinder
    {
        type            calculated;
        value           nonuniform List<scalar> 
3840
(
60.6635
50.333
53.7163
62.0204
68.4453
73.5561
77.6694
81.1306
84.1905
86.9708
89.6006
92.1221
94.6338
97.2338
99.9773
102.886
105.972
109.218
112.59
116.02
119.404
122.567
125.197
126.803
80.3111
50.044
52.2678
60.3495
66.7097
71.8057
75.9043
79.3513
82.3808
85.1373
87.6751
90.1162
92.5475
95.0475
97.685
100.499
103.48
106.616
109.87
113.184
116.453
119.51
122.052
123.602
72.9809
49.7063
50.8669
58.6712
64.9713
70.0207
74.131
77.5979
80.6348
83.3031
85.797
88.1599
90.4932
92.9074
95.4578
98.1588
101.031
104.054
107.196
110.394
113.55
116.502
118.956
120.452
62.2238
48.8515
49.3667
56.9292
63.1784
68.2604
72.395
75.8674
78.8594
81.5417
83.9519
86.2401
88.5084
90.8291
93.2737
95.8919
98.6645
101.584
104.613
107.698
110.742
113.591
115.96
117.402
76.5539
48.4985
47.966
55.1744
61.4109
66.4612
70.6265
74.1342
77.1801
79.7777
82.1644
84.3956
86.571
88.8172
91.1925
93.7002
96.3709
99.1823
102.108
105.085
108.023
110.773
113.06
114.449
66.4249
47.986
46.3874
53.3336
59.5245
64.6614
68.8915
72.4371
75.4147
78.0767
80.4043
82.5721
84.7068
86.8734
89.1444
91.5863
94.1701
96.8906
99.7094
102.581
105.416
108.068
110.275
111.614
78.1152
47.8288
44.9577
51.4403
57.6879
62.8038
67.0775
70.6591
73.7696
76.3459
78.6828
80.8279
82.8792
84.9855
87.2123
89.547
92.035
94.6528
97.3795
100.152
102.887
105.448
107.579
108.869
64.8322
46.8551
43.2847
49.4217
55.6044
60.8815
65.2708
68.9564
71.9597
74.6577
76.9683
79.069
81.1149
83.162
85.2837
87.5744
89.991
92.532
95.1582
97.833
100.472
102.943
104.998
106.24
72.9727
46.6692
41.7401
47.2383
53.5954
58.8665
63.3293
67.0366
70.2986
72.9138
75.2588
77.3834
79.3619
81.3663
83.4793
85.6646
87.9903
90.4326
92.9772
95.5602
98.1079
100.495
102.48
103.674
61.0895
44.7243
39.8287
44.869
51.0883
56.6634
61.3238
65.2713
68.3632
71.1764
73.5384
75.6284
77.6425
79.6167
81.6195
83.789
86.0622
88.4447
90.8936
93.386
95.843
98.1451
100.059
101.208
57.8014
44.2985
37.9749
42.0501
48.6927
54.2899
59.1143
63.0484
66.6097
69.3517
71.7768
73.9504
75.9064
77.8519
79.8937
81.9555
84.1397
86.422
88.8009
91.2074
93.5783
95.8012
97.6487
98.7513
61.4134
43.6202
35.9242
39.0378
45.2616
51.4978
56.6713
61.1323
64.4186
67.4729
69.9844
72.131
74.1756
76.1268
78.0403
80.121
82.2758
84.5207
86.8054
89.1256
91.41
93.551
95.3296
96.3868
62.0613
42.5745
33.4713
34.6613
42.0028
48.3058
53.929
58.3049
62.454
65.4652
68.0789
70.3982
72.395
74.3309
76.3523
78.3169
80.3806
82.5169
84.7443
86.985
89.1868
91.2514
92.9669
93.9783
53.3721
41.3087
30.8051
30.3744
36.2082
44.2099
50.496
56.0806
59.7676
63.3005
66.1181
68.4182
70.58
72.573
74.4296
76.4621
78.5276
80.6595
82.7919
84.9489
87.0667
89.051
90.6978
91.6647
51.4152
40.0328
27.7041
21.0404
30.7763
38.775
46.6165
51.9787
57.3906
60.9359
63.9258
66.5381
68.6637
70.6565
72.7278
74.6255
76.592
78.5937
80.6852
82.7681
84.8059
86.7165
88.3021
89.2225
32.665
33.4686
23.5628
5.91308
10.4154
30.3805
40.4826
49.0757
53.6634
58.2279
61.642
64.2557
66.6614
68.7857
70.62
72.6589
74.6715
76.7235
78.7132
80.7132
82.6672
84.4968
86.0121
86.8878
12.0459
13.4426
5.06309
5.50367
5.70623
18.2707
32.4299
41.7028
50.5042
55.1511
58.9104
62.0695
64.4667
66.6084
68.8372
70.7026
72.5981
74.4701
76.4424
78.3731
80.2475
82.0033
83.4589
84.2857
9.90462
11.6405
14.3946
16.5129
17.6131
6.80874
21.2634
36.8418
44.0411
51.3579
56.0128
59.2572
62.1092
64.5084
66.3546
68.4805
70.4904
72.5114
74.3642
76.2088
77.9968
79.668
81.0485
81.8289
9.76003
3.90359
10.1249
11.8636
19.1794
19.2848
20.8479
14.1533
39.3804
46.5866
52.1796
56.4427
59.3951
61.8278
64.4005
66.2743
68.1292
69.8631
71.7362
73.5166
75.2217
76.8167
78.1381
78.8637
8.2476
11.5228
5.26766
11.0772
20.6807
21.3626
11.9266
12.137
20.4663
40.4122
48.0366
52.6298
56.3458
59.3088
61.196
63.5522
65.6414
67.7155
69.4311
71.1154
72.7276
74.2302
75.4665
76.1432
11.505
20.5404
23.0831
17.9151
5.65067
24.1801
6.50456
21.8029
23.196
28.5007
41.3863
48.4924
52.6461
55.635
58.9517
60.8813
62.7338
64.2961
66.1025
67.7307
69.2515
70.6723
71.8506
72.4608
11.5559
21.8716
26.6911
29.2791
24.7908
25.4627
14.5052
24.8833
15.0444
14.0635
33.0742
42.0311
48.0276
52.3356
54.2597
57.1841
59.532
61.8291
63.3988
64.91
66.3276
67.6426
68.7178
69.2762
11.5654
22.1968
27.9572
31.0859
32.0202
26.1134
26.7595
3.30611
11.0262
16.364
23.4578
35.1519
42.2385
46.3894
51.601
53.6232
55.505
56.8257
58.6452
60.1227
61.4327
62.6597
63.6843
64.1531
11.6217
20.44
26.849
31.4407
33.3411
32.9764
24.5492
26.8138
22.3869
25.0132
23.414
12.8147
32.3186
41.4625
43.1541
47.7732
50.9989
53.8939
55.2946
56.6092
57.8084
58.9033
59.7915
60.2096
11.6638
18.6368
25.0778
29.7818
32.8559
33.5516
32.7561
22.2175
30.3045
26.3264
6.09454
16.4295
18.708
27.5646
40.2389
42.244
43.8923
44.9431
47.0665
48.455
49.4918
50.5267
51.4062
51.6813
8.80483
16.8146
23.1389
27.8444
31.0186
32.8463
32.3405
31.8344
21.2777
6.57504
16.0534
7.26683
19.2021
13.5747
13.5111
29.5401
37.2516
41.6547
42.8224
43.7852
44.8661
45.6507
46.3038
46.4723
7.34481
15.3599
21.0157
25.2509
28.4309
30.3972
31.4322
30.4057
31.3561
20.7393
29.9208
17.7052
10.1168
19.3043
24.9996
6.91725
7.63904
11.7972
18.9514
22.4831
21.818
22.6902
23.8341
25.1362
5.2274
13.5073
18.054
21.6055
24.5137
26.7841
28.0171
29.3801
29.1418
31.6727
21.8909
20.1287
23.2184
9.74743
8.01324
26.1858
25.9491
19.9604
6.47893
29.0113
9.82454
23.8578
24.1943
31.5997
4.89725
12.221
14.7886
16.9508
19.252
21.5154
23.7349
25.4957
28.3584
29.1615
32.1426
22.5045
30.2384
19.781
7.32209
20.647
26.7238
5.84458
21.9565
6.00736
22.4575
31.5228
31.1308
9.27056
3.9192
11.7775
12.5393
13.1325
14.2495
16.3417
18.9108
22.0778
24.6726
28.4232
29.8386
32.5394
24.1148
20.676
10.1351
13.6378
9.03738
19.2296
30.6365
17.4561
25.5389
18.509
4.26646
28.5091
3.32214
11.5881
11.7176
11.9254
12.3888
14.1203
16.7522
19.3047
22.5774
25.1524
28.9228
30.6511
32.6828
26.529
10.4678
20.1083
29.8295
18.0244
18.9426
28.6579
14.6124
24.4243
32.208
24.1342
3.03175
11.5451
11.6531
11.778
12.3946
14.6165
17.0352
19.315
21.1699
23.8631
26.0752
29.5322
31.3553
32.5177
30.4131
18.6383
20.8732
11.5881
27.2016
29.2426
14.4202
15.9417
14.4208
11.3259
1.9937
9.47458
11.4296
11.7412
12.6496
15.443
18.0302
19.9842
21.8194
23.1321
25.1424
27.0178
30.049
31.8881
32.3411
32.3099
27.8071
22.7268
17.1245
14.8792
12.0688
11.6278
11.6326
12.3516
2.36916
10.0627
11.386
11.5527
14.1781
17.1711
19.4799
21.3147
22.6707
24.0152
24.8556
26.2503
27.8761
30.2888
32.2342
32.0174
31.3388
30.9366
30.5368
30.2874
30.0249
29.6188
29.5839
29.7473
3.28247
11.3642
11.6174
13.2289
16.3446
19.0224
21.1268
22.7685
24.1557
25.0755
25.9036
26.314
27.1826
28.5903
30.3183
31.7469
31.5046
30.4581
28.8246
27.1674
25.6585
24.8708
24.6324
24.7985
3.49406
11.7723
12.8955
15.8925
18.711
21.0356
22.9174
24.4735
25.6899
26.6815
27.1875
27.5139
27.563
27.9634
29.0832
30.0322
30.3051
29.9438
28.9787
27.7152
26.5095
25.7997
25.7939
26.0537
3.93124
11.9805
15.5742
18.4111
20.8414
22.934
24.7123
26.2097
27.4706
28.3526
28.9283
29.026
28.8931
28.6517
28.6423
29.1501
29.3333
28.8422
27.4563
25.5235
23.6491
22.6914
22.7217
23.1933
5.79085
14.8992
18.1047
20.6066
22.8285
24.796
26.5177
28.0228
29.2686
30.2334
30.7613
30.9174
30.6318
30.0921
29.567
29.1524
28.829
28.254
27.101
25.4894
23.9471
23.1929
23.4558
24.0648
7.92896
16.9726
20.0906
22.4612
24.599
26.5368
28.2797
29.8274
31.1526
32.139
32.7632
32.9264
32.6724
32.0308
31.1335
30.24
29.3638
28.364
26.9435
25.1063
23.3361
22.5204
22.8707
23.614
10.3418
18.8479
21.7974
24.1224
26.264
28.2254
30.0226
31.6469
33.0314
34.1126
34.7899
35.0562
34.8496
34.197
33.1932
31.9456
30.6082
29.2032
27.6072
25.8164
24.237
23.5871
24.0695
24.8773
11.6296
13.2834
15.2516
16.575
17.5067
17.8591
17.8179
17.3847
16.7576
15.9676
15.1601
14.3366
13.5819
12.8926
12.3093
11.8373
11.5188
11.493
11.1466
10.9477
10.9511
11.1621
11.4949
11.7008
11.8582
12.3302
12.9185
13.6121
14.3709
15.197
16.0063
16.7951
17.4192
17.8431
17.8718
17.4999
16.5482
15.2016
13.2157
11.6826
20.1417
20.9453
21.5269
21.8148
21.9961
21.9999
21.9711
21.8548
21.7445
21.6012
21.4798
21.3504
21.2394
21.1322
21.0417
20.962
20.8973
20.8475
20.8143
20.7965
20.7969
20.8153
20.8493
20.9002
20.9651
21.0454
21.1365
21.2442
21.3561
21.4857
21.6081
21.7514
21.8626
21.9771
22.0055
21.9972
21.8119
21.515
20.9233
20.1078
22.9382
23.4585
23.8647
24.0925
24.2782
24.3582
24.4256
24.4315
24.431
24.3964
24.3621
24.3168
24.2756
24.2337
24.197
24.1655
24.1391
24.1194
24.1052
24.0969
24.0971
24.106
24.1206
24.1407
24.1675
24.1996
24.2366
24.279
24.3206
24.3661
24.4008
24.4349
24.4354
24.4279
24.3599
24.2771
24.0894
23.8561
23.4445
22.9138
25.2434
25.7124
26.14
26.4081
26.6507
26.7989
26.9352
27.023
27.1051
27.1595
27.21
27.2479
27.2843
27.3157
27.3442
27.37
27.3911
27.4078
27.4181
27.4219
27.422
27.4185
27.4082
27.3916
27.3707
27.3452
27.3169
27.286
27.25
27.2124
27.1623
27.1077
27.0256
26.9372
26.8003
26.6502
26.4056
26.1333
25.7014
25.2246
27.3973
27.8419
28.2972
28.5947
28.8964
29.1117
29.3282
29.4967
29.6658
29.8077
29.9468
30.071
30.1902
30.299
30.3984
30.486
30.5592
30.6157
30.6531
30.6697
30.6694
30.6525
30.6148
30.5577
30.4843
30.3967
30.2973
30.1887
30.0698
29.946
29.8072
29.6656
29.4967
29.3282
29.1115
28.8954
28.5924
28.2925
27.8338
27.3837
29.399
29.8338
30.3366
30.6777
31.0505
31.3329
31.6296
31.877
32.1294
32.3543
32.5767
32.782
32.9785
33.1595
33.3246
33.4694
33.5901
33.683
33.7444
33.7718
33.7714
33.7428
33.6804
33.5866
33.465
33.3197
33.1543
32.9733
32.7768
32.572
32.3499
32.1254
31.8734
31.6263
31.3295
31.047
30.6735
30.3313
29.8261
29.388
31.2637
31.7003
32.2622
32.6413
33.0786
33.419
33.7842
34.0988
34.4211
34.7157
35.007
35.2791
35.5392
35.7789
35.997
36.1874
36.3456
36.4666
36.5461
36.5812
36.5805
36.5437
36.4625
36.3401
36.1806
35.9891
35.7704
35.5304
35.2702
34.9984
34.7072
34.413
34.0911
33.777
33.4121
33.072
32.6343
32.2547
31.6912
31.2531
32.9599
33.3992
34.009
34.4194
34.9062
35.2932
35.7106
36.0783
36.4544
36.8028
37.1466
37.4694
37.7768
38.0599
38.3164
38.5396
38.7244
38.865
38.9571
38.9973
38.9963
38.9541
38.8599
38.7173
38.5309
38.3063
38.0487
37.7651
37.4573
37.1345
36.791
36.4428
36.0672
35.6999
35.2828
34.8963
34.4091
33.9988
33.3877
32.9477
34.4217
34.8504
35.5047
35.935
36.462
36.8837
37.3417
37.7494
38.1658
38.5543
38.9364
39.2955
39.6363
39.9495
40.2321
40.4771
40.6792
40.8325
40.9324
40.9759
40.9749
40.929
40.8266
40.671
40.467
40.2204
39.9364
39.6224
39.2811
38.9217
38.5397
38.1514
37.7352
37.3279
36.8701
36.4489
35.9217
35.4914
34.8363
34.4066
35.5574
35.9914
36.6782
37.1323
37.6909
38.1442
38.6347
39.0759
39.5241
39.944
40.3548
40.7408
41.1053
41.4392
41.7392
41.9982
42.2111
42.372
42.4767
42.522
42.5209
42.473
42.3657
42.2024
41.9873
41.7264
41.425
41.09
40.7248
40.3382
39.9272
39.5072
39.0591
38.6182
38.128
37.6748
37.1162
36.662
35.9744
35.5391
36.3258
36.7605
37.4954
37.9728
38.5689
39.0533
39.5772
40.0494
40.5273
40.9747
41.4102
41.8183
42.2016
42.5513
42.8639
43.1328
43.353
43.519
43.6267
43.6735
43.6724
43.623
43.5125
43.344
43.1215
42.8506
42.5364
42.1853
41.801
41.3922
40.9563
40.5086
40.0306
39.5584
39.0346
38.5502
37.9539
37.4761
36.7403
36.3043
36.6687
37.1413
37.9253
38.4447
39.0823
39.6062
40.1665
40.6731
41.1815
41.6568
42.1162
42.545
42.9453
43.3088
43.6322
43.9092
44.1351
44.3052
44.4156
44.4638
44.4626
44.4118
44.2987
44.1261
43.8977
43.6186
43.2933
42.9283
42.5268
42.0972
41.637
41.1614
40.6526
40.1459
39.5854
39.0613
38.4233
37.9031
37.1179
36.643
36.5652
37.0962
37.95
38.5259
39.2162
39.7885
40.3915
40.9372
41.4794
41.9844
42.469
42.9189
43.3362
43.7133
44.047
44.3318
44.5632
44.7373
44.8502
44.8999
44.8987
44.8464
44.7307
44.5541
44.3201
44.0332
43.6976
43.3188
42.9001
42.4491
41.9637
41.458
40.9154
40.3693
39.766
39.1932
38.5021
37.9252
37.0691
36.5355
35.9858
36.5837
37.5276
38.1778
38.9333
39.5635
40.2165
40.8067
41.3867
41.9248
42.4366
42.9093
43.3449
43.7365
44.0813
44.3744
44.612
44.7902
44.9062
44.9578
44.9566
44.9024
44.7837
44.6027
44.3627
44.0673
43.7204
43.3271
42.89
42.4162
41.9033
41.3646
40.7839
40.1931
39.5397
38.9086
38.1522
37.4999
36.5537
35.9531
34.9444
35.5933
36.6019
37.3455
38.1741
38.8738
39.5816
40.2228
40.8446
41.4195
41.9617
42.4601
42.9163
43.3245
43.6823
43.9854
44.2304
44.4141
44.5339
44.5878
44.5865
44.5299
44.4074
44.221
43.9735
43.6681
43.3082
42.8981
42.4404
41.9408
41.3976
40.8219
40.1993
39.5575
38.849
38.1485
37.3182
36.5726
35.5617
34.9106
33.5515
34.1521
35.1775
35.9824
36.8816
37.6569
38.4225
39.1179
39.7843
40.3992
40.9748
41.5019
41.9818
42.4096
42.7831
43.0986
43.3531
43.5439
43.6685
43.7254
43.7241
43.6644
43.537
43.3434
43.0863
42.7685
42.3929
41.9633
41.4818
40.9535
40.3769
39.7612
39.0942
38.3983
37.6318
36.8554
35.9547
35.1479
34.1209
33.5181
31.9264
32.3702
33.3245
34.1245
35.0526
35.8839
36.7048
37.4494
38.1581
38.8117
39.4209
39.9777
40.4829
40.9323
41.3238
41.6539
41.9199
42.1194
42.2501
42.3106
42.3092
42.2458
42.1122
41.9099
41.6411
41.3087
40.9152
40.464
39.9572
39.3992
38.7892
38.135
37.4258
36.6808
35.8589
35.0266
34.0973
33.2964
32.3402
31.8955
30.1669
30.3804
31.1794
31.8943
32.7865
33.6225
34.4693
35.2483
35.9868
36.6697
37.3058
37.8878
38.4158
38.8855
39.2944
39.6392
39.9173
40.1259
40.2631
40.3274
40.3259
40.2585
40.1183
39.9067
39.626
39.2787
38.8677
38.3963
37.867
37.2839
36.6472
35.9638
35.2251
34.4457
33.5982
32.7614
31.8686
31.1529
30.3526
30.1377
28.2679
28.2852
28.9009
29.4858
30.2892
31.0766
31.9043
32.6849
33.4299
34.1231
34.7711
35.3668
35.9085
36.3916
36.8128
37.1686
37.456
37.672
37.8146
37.8822
37.8805
37.8097
37.6639
37.4448
37.1547
36.7964
36.3731
35.8883
35.3453
34.7489
34.1002
33.4068
32.6614
31.8805
31.0525
30.2647
29.4609
28.8751
28.2589
28.2392
26.2708
26.2147
26.6837
27.1621
27.8662
28.5836
29.3615
30.1134
30.8433
31.5274
32.171
32.7656
33.3086
33.7946
34.2194
34.5792
34.8701
35.0895
35.2346
35.3041
35.3023
35.2294
35.0809
34.8584
34.5644
34.2023
33.7752
33.2877
32.7435
32.1483
31.5042
30.8201
30.0901
29.338
28.5598
27.8422
27.1373
26.6583
26.1875
26.2409
24.5604
24.5621
24.9467
25.3897
26.0203
26.6854
27.4082
28.1183
28.8124
29.4709
30.0942
30.6731
31.2037
31.6799
32.0973
32.4511
32.7379
32.9542
33.0977
33.1666
33.1647
33.092
32.9449
32.725
32.4351
32.0785
31.659
31.181
30.6491
30.0694
29.4458
28.7874
28.0932
27.3828
26.6599
25.9939
25.3632
24.9173
24.5332
24.5233
23.8696
23.9545
24.3059
24.7451
25.3223
25.9413
26.6012
27.2544
27.8965
28.513
29.0991
29.6458
30.1479
30.5994
30.9955
31.3317
31.6044
31.8101
31.9466
32.012
32.0099
31.9403
31.7997
31.59
31.3138
30.9745
30.5758
30.1224
29.6189
29.0712
28.4848
27.8685
27.227
26.5743
25.9151
25.296
24.7195
24.2788
23.9284
23.8392
24.3839
24.4959
24.8348
25.251
25.779
26.3403
26.9324
27.5234
28.1094
28.6751
29.2144
29.7185
30.1819
30.599
30.9653
31.2763
31.5285
31.7189
31.8448
31.9049
31.9024
31.8379
31.7075
31.5129
31.2568
30.9423
30.5731
30.1537
29.6887
29.1836
28.644
28.0786
27.4936
26.9037
26.3138
25.7535
25.2282
24.8113
24.4758
24.359
25.2436
25.3446
25.6765
26.0631
26.558
27.0759
27.6277
28.1792
28.7282
29.2584
29.7643
30.2375
30.6729
31.0648
31.4091
31.7017
31.9388
32.1177
32.236
32.2919
32.2896
32.229
32.1064
31.9234
31.6824
31.3866
31.0396
30.6454
30.2086
29.7346
29.2286
28.699
28.1513
27.6014
27.052
26.5362
26.0439
25.6576
25.3268
25.2218
64.8025
50.1194
53.7043
62.0221
68.4419
73.5545
77.6678
81.1305
84.1888
86.9701
89.5996
92.1212
94.6335
97.2342
99.9778
102.887
105.974
109.22
112.592
116.024
119.408
122.572
125.203
126.81
63.3564
49.296
52.2603
60.3508
66.7076
71.8046
75.9025
79.3484
82.3805
85.1367
87.6753
90.1167
92.5477
95.0476
97.6856
100.5
103.482
106.618
109.873
113.188
116.457
119.515
122.057
123.609
63.5645
49.1547
50.8362
58.666
64.9648
70.0167
74.1282
77.5984
80.6324
83.3018
85.7952
88.1583
90.493
92.9077
95.4583
98.1598
101.032
104.056
107.199
110.398
113.554
116.507
118.963
120.459
61.8626
48.2428
49.3514
56.9231
63.1744
68.2588
72.3934
75.8628
78.8594
81.5412
83.9528
86.2414
88.5086
90.8293
93.2744
95.8928
98.6664
101.586
104.616
107.702
110.747
113.597
115.967
117.409
63.0316
48.0516
47.8935
55.1628
61.4012
66.4548
70.6218
74.1364
77.1774
79.7761
82.1617
84.393
86.5707
88.8175
91.1931
93.7012
96.3723
99.185
102.111
105.089
108.028
110.779
113.067
114.457
57.3293
47.3913
46.3771
53.3245
59.5203
64.6604
68.8918
72.4297
75.4147
78.0765
80.4063
82.5746
84.7072
86.8737
89.1451
91.5877
94.1724
96.8929
99.7129
102.586
105.421
108.075
110.282
111.622
73.8644
47.4104
44.9159
51.4277
57.6784
62.7967
67.0701
70.6645
73.7671
76.3441
78.6792
80.8242
82.8787
84.9858
87.213
89.5482
92.0367
94.656
97.383
100.156
102.893
105.455
107.586
108.877
63.7822
46.5815
43.2483
49.4128
55.6017
60.8818
65.2755
68.9454
71.9593
74.6577
76.9712
79.0727
81.1159
83.1626
85.2848
87.5761
89.9936
92.5347
95.1621
97.8381
100.478
102.951
105.006
106.249
73.4206
46.6494
41.7346
47.2306
53.5902
58.8618
63.318
67.0476
70.2975
72.9125
75.2547
77.3792
79.3608
81.3667
83.4802
85.666
87.992
90.4362
92.9816
95.5658
98.1145
100.502
102.488
103.685
61.2369
44.6376
39.7703
44.8576
51.0827
56.6611
61.3346
65.2541
68.3615
71.1761
73.5419
75.6324
77.645
79.6177
81.621
83.7913
86.066
88.4481
90.8984
93.3919
95.8501
98.1536
100.068
101.218
59.739
44.7716
38.0584
42.0615
48.6996
54.2949
59.0965
63.069
66.6112
69.3513
71.7727
73.9472
75.9041
77.8525
79.8951
81.9572
84.1412
86.4265
88.8057
91.2139
93.5867
95.8101
97.659
98.7631
54.6181
42.8262
35.8506
39.0093
45.2476
51.4812
56.694
61.1027
64.4141
67.4722
69.9887
72.1336
74.1799
76.1285
78.0423
80.1242
82.2817
84.5247
86.8114
89.1329
91.4184
93.5609
95.34
96.3987
54.2285
42.2923
33.491
34.7404
42.0161
48.3403
53.8909
58.3443
62.4597
65.4658
68.074
70.398
72.3919
74.3316
76.3543
78.3192
80.381
82.5227
84.7508
86.9928
89.197
91.2625
92.979
93.9932
57.202
41.0004
30.5276
30.2286
36.2314
44.1379
50.5626
56.0242
59.758
63.2992
66.1247
68.4176
70.5851
72.5759
74.4321
76.4665
78.5372
80.6646
82.7995
84.9583
87.0769
89.0635
90.7101
91.6785
50.8101
39.5518
27.3795
20.6808
30.6226
38.9041
46.4906
52.0608
57.4039
60.9376
63.9176
66.5429
68.6621
70.6571
72.731
74.6283
76.5897
78.6015
80.6935
82.7782
84.8187
86.7301
88.3166
89.241
32.2981
33.3781
23.6019
11.6098
10.6337
30.5594
40.7419
48.9586
53.6449
58.2261
61.6554
64.2501
66.665
68.7902
70.6235
72.666
74.6894
76.7297
78.723
80.7253
82.6802
84.5122
86.0269
86.9046
13.8495
13.0474
15.9151
15.9425
6.88289
7.57022
32.1005
41.8965
50.5286
55.1549
58.8934
62.0806
64.4685
66.6092
68.8416
70.7045
72.5864
74.4813
76.4532
78.3862
80.2643
82.0206
83.4779
84.3095
5.10205
7.38634
7.91655
16.746
17.7303
19.3211
19.1738
36.6497
44.0233
51.3569
56.0349
59.2488
62.1131
64.5151
66.36
68.4937
70.5303
72.5184
74.3771
76.2248
78.0132
79.6877
81.0667
81.8498
2.42206
6.65059
6.43142
11.8495
10.3839
8.49335
11.1726
10.9652
39.3487
46.5922
52.1756
56.452
59.391
61.8283
64.4062
66.2726
68.0869
69.8807
71.7511
73.5341
75.2447
76.8396
78.1633
78.8951
4.3778
11.8614
11.8504
11.3758
5.01326
21.2443
20.9207
20.9571
19.7148
40.3391
47.9865
52.6389
56.3734
59.3212
61.2058
63.5762
65.7392
67.7221
69.4484
71.1374
72.749
74.2563
75.4893
76.1706
11.5909
20.5625
22.67
17.7883
9.74209
23.5098
5.81968
21.9325
14.3081
29.2336
41.5561
48.4646
52.5989
55.6322
58.9568
60.8769
62.6139
64.3258
66.1245
67.755
69.285
70.7042
71.8858
72.5033
11.5469
21.9017
26.7714
29.3559
24.7015
11.3326
26.105
24.4263
14.779
3.25998
33.4841
42.1392
48.1361
52.3568
54.2838
57.2161
59.7441
61.8335
63.4223
64.942
66.356
67.6787
68.7471
69.3149
11.545
22.2526
28.0391
31.1719
32.0927
26.1463
19.9494
3.82388
25.0178
22.6833
8.18584
35.0635
42.0076
46.4031
51.5964
53.6391
55.2927
56.8781
58.6816
60.159
61.4863
62.7074
63.7373
64.2138
11.61
20.4667
26.8852
31.4921
33.428
33.1191
24.3998
23.3515
16.9132
20.6422
22.7734
6.7266
33.3363
41.4007
43.2216
47.7775
51.1854
53.8939
55.3256
56.6606
57.8466
58.958
59.8345
60.2727
11.1836
18.635
25.1132
29.8295
32.9045
33.617
32.821
21.7774
5.75087
17.8205
24.3717
15.263
8.00951
28.3384
40.2391
42.4209
44.2743
45.0558
47.1578
48.5142
49.5995
50.6124
51.4861
51.7652
8.79264
16.8233
23.1557
27.8679
31.056
32.8872
32.4141
31.9534
20.1783
23.0356
8.608
9.97393
16.7662
25.5819
13.3592
28.8359
35.1502
41.5649
42.7486
43.9602
44.9095
45.7497
46.4284
46.7224
7.39096
15.3662
21.0138
25.2522
28.4391
30.4195
31.4491
30.4164
31.572
20.4901
10.5441
11.7502
12.934
4.9162
24.681
16.1112
20.3208
14.8838
20.8719
21.1499
22.3326
23.0336
24.315
24.1051
5.16751
13.4817
18.0227
21.5723
24.4914
26.7719
28.0252
29.4124
29.1107
31.6524
21.4865
16.2718
12.6982
25.8781
26.2111
20.5702
21.2542
28.0341
28.4626
22.5308
9.68591
24.2351
11.654
11.5718
4.90265
12.1616
14.7372
16.8852
19.1931
21.4776
23.71
25.477
28.3907
29.212
32.2167
22.4158
12.0573
20.4522
22.2088
13.865
28.1146
20.3705
10.25
30.3995
22.8565
32.3249
24.4476
25.1249
3.86341
11.4459
12.4752
13.0647
14.1861
16.2979
18.8894
22.0767
24.6528
28.4067
29.8415
32.5921
23.6469
20.6828
10.5477
12.7678
10.6577
17.0804
30.5087
19.1229
31.1404
24.7206
7.1904
18.4376
3.36034
11.3174
11.71
11.9042
12.3812
14.1336
16.7622
19.3008
22.5861
25.1569
28.9162
30.6453
32.7242
26.5546
11.0334
29.2485
12.033
26.9975
26.1604
12.9366
31.7627
34.214
18.8474
29.8243
3.00412
11.488
11.6093
11.7529
12.4091
14.6526
17.0686
19.3446
21.1794
23.8617
26.0677
29.5208
31.3729
32.5578
30.4473
20.0034
3.25202
32.3913
32.4617
18.419
20.8605
27.1236
10.4233
7.63021
2.00975
9.50662
11.5046
11.6066
12.7013
15.4997
18.0707
20.0108
21.8478
23.1566
25.1538
27.0211
30.0675
31.9275
32.3568
32.3527
28.9435
23.5757
18.0187
13.8617
11.5315
11.1268
12.0195
12.4503
2.42652
10.1709
11.5882
11.639
14.2609
17.233
19.5242
21.3517
22.6987
24.0393
24.8786
26.268
27.8985
30.3206
32.2891
32.0539
31.392
30.9587
30.6157
30.3748
30.1068
29.6446
29.5997
29.8379
3.34731
11.4744
11.8347
13.3467
16.4358
19.0819
21.1683
22.8009
24.1883
25.1083
25.9342
26.3437
27.2139
28.6209
30.3584
31.8079
31.5438
30.5802
28.901
27.2478
25.7941
24.9288
24.7525
24.9304
3.4905
11.3014
13.0036
15.9884
18.778
21.0841
22.9541
24.506
25.7199
26.7117
27.2193
27.5468
27.5967
27.9997
29.118
30.0831
30.368
30.013
29.039
27.7805
26.5918
25.8748
25.8437
26.1724
3.98974
12.1017
15.6783
18.4922
20.8989
22.9746
24.7428
26.2365
27.4989
28.3832
28.9606
29.0608
28.9297
28.6872
28.6805
29.1885
29.3811
28.9037
27.5093
25.5888
23.7338
22.733
22.7713
23.2677
5.86762
14.9823
18.1759
20.6601
22.8679
24.8261
26.5418
28.0462
29.2929
30.2601
30.791
30.9505
30.668
30.1295
29.6023
29.1912
28.8683
28.2962
27.1398
25.5306
23.9917
23.2369
23.4829
24.1132
8.03365
17.0438
20.1461
22.5032
24.63
26.56
28.2984
29.8459
31.1736
32.1632
32.7904
32.9576
32.7072
32.0674
31.1698
30.2747
29.3985
28.4007
26.9791
25.1461
23.3877
22.5523
22.8988
23.6477
10.4549
18.8988
21.832
24.1485
26.2837
28.2412
30.0366
31.6623
33.0489
34.1332
34.8139
35.0845
34.8822
34.232
33.2289
31.98
30.6414
29.2346
27.6368
25.8483
24.2704
23.6175
24.0891
24.9016
64.236
64.1971
67.6204
74.6495
74.3924
67.9109
68.2259
69.8807
53.8548
62.7187
48.9103
31.1284
8.20855
25.7331
14.4647
17.3647
12.9638
14.2328
13.5367
13.4162
13.4165
13.5394
14.176
13.277
16.987
11.8541
20.8176
16.8392
14.0258
41.8298
47.8146
66.2653
56.6234
56.3447
57.057
63.4741
56.5494
74.4625
68.7497
64.6085
49.6132
47.7457
46.6593
44.743
43.4779
41.2695
40.1852
38.5059
37.1879
35.6294
34.2257
33.2304
32.9695
31.9342
31.9508
31.073
30.9994
30.5767
30.4075
30.2841
30.2841
30.4067
30.5822
30.9777
31.0938
31.9715
31.9742
33.0143
33.4125
34.1512
34.9057
37.299
38.1521
40.004
40.7711
43.4323
44.145
46.6731
47.5943
49.7655
54.2566
52.6953
52.2228
50.7453
50.1846
48.8473
48.248
47.0842
46.4653
45.4794
44.9043
44.0976
43.5468
42.9014
42.4129
42.0171
41.631
41.3912
41.1981
41.0956
41.0955
41.1982
41.3894
41.6328
42.0165
42.4011
42.9204
43.5194
44.0943
44.9089
45.5034
46.4843
47.0929
48.2626
48.8849
50.2016
50.7768
52.2438
52.7049
54.2556
62.6891
61.1875
60.6722
59.2323
58.5853
57.2649
56.5553
55.3937
54.678
53.6991
53.0162
52.2396
51.6403
51.0387
50.5445
50.1058
49.7707
49.4974
49.3159
49.2135
49.2134
49.3158
49.4975
49.7704
50.103
50.5501
51.0309
51.6443
52.2455
53.0207
53.6999
54.6774
55.3946
56.5567
57.2626
58.5819
59.2314
60.6683
61.183
62.6829
69.0931
67.5449
66.946
65.4839
64.7631
63.4449
62.6675
61.5243
60.7438
59.7847
59.0534
58.276
57.6396
57.0297
56.5261
56.0859
55.7321
55.4643
55.2775
55.1762
55.1761
55.2774
55.4641
55.7317
56.0875
56.5233
57.0322
57.6392
58.2772
59.0549
59.7858
60.7463
61.5273
62.6718
63.4495
64.7677
65.489
66.9492
67.5479
69.0941
74.1876
72.6012
71.9258
70.4549
69.6601
68.3531
67.5073
66.3797
65.5459
64.5952
63.8291
63.0505
62.3956
61.7825
61.2651
60.8211
60.4645
60.1898
60.0027
59.901
59.901
60.0027
60.1898
60.4648
60.8201
61.2665
61.7821
62.3961
63.0517
63.8306
64.5966
65.5474
66.381
67.5089
68.3538
69.661
70.4553
71.9261
72.6016
74.1877
78.2547
76.6519
75.8978
74.4348
73.5746
72.2844
71.3892
70.2735
69.4078
68.4604
67.6754
66.8934
66.2266
65.6101
65.0875
64.6386
64.278
64.0021
63.8128
63.711
63.711
63.8128
64.0022
64.2778
64.6393
65.0872
65.6104
66.227
66.8941
67.6762
68.4611
69.4087
70.2745
71.3906
72.2854
73.5762
74.4358
75.8996
76.6529
78.2563
81.6768
80.065
79.2533
77.7957
76.8915
75.6071
74.6813
73.5663
72.6803
71.7301
70.9313
70.1448
69.4679
68.8463
68.3167
67.864
67.4986
67.2187
67.027
66.9233
66.9233
67.027
67.2187
67.4988
67.8638
68.317
68.8465
69.4683
70.1452
70.9318
71.7307
72.6811
73.5671
74.6821
75.6078
76.8923
77.7963
79.2544
80.0653
81.6785
84.7213
83.0788
82.2377
80.767
79.839
78.5474
77.6021
76.4813
75.5792
74.623
73.811
73.0179
72.331
71.7027
71.1656
70.7066
70.3357
70.0512
69.8552
69.7483
69.7483
69.8552
70.0512
70.3357
70.7068
71.1657
71.7028
72.3312
73.0182
73.8114
74.6233
75.5797
76.4817
77.6028
78.5479
79.8396
80.7678
82.2382
83.0799
84.7217
87.5389
85.8406
84.9921
83.4947
82.5511
81.2453
80.2825
79.1516
78.2332
77.2677
76.442
75.6395
74.9415
74.3046
73.7587
73.2924
72.9147
72.6242
72.4233
72.312
72.312
72.4233
72.6242
72.9147
73.2924
73.7588
74.3047
74.9417
75.6397
76.4422
77.2679
78.2335
79.1518
80.283
81.2455
82.5517
83.4949
84.9928
85.841
87.5397
90.1858
88.4485
87.5829
86.0626
85.0994
83.7774
82.7958
81.6509
80.7156
79.7373
78.897
78.0827
77.3725
76.7253
76.1695
75.6947
75.3093
75.0123
74.8056
74.6893
74.6893
74.8056
75.0123
75.3093
75.6947
76.1695
76.7253
77.3725
78.0828
78.897
79.7375
80.7157
81.6512
82.7958
83.7778
85.0995
86.063
87.583
88.4491
90.1858
92.7552
90.9542
90.093
88.5313
87.561
86.2112
85.2163
84.0513
83.1007
82.1065
81.2514
80.4239
79.7008
79.0425
78.4763
77.9926
77.5992
77.2954
77.0828
76.9612
76.9612
77.0828
77.2954
77.5992
77.9926
78.4763
79.0425
79.7007
80.4239
81.2514
82.1065
83.1007
84.0513
85.2163
86.2113
87.5609
88.5316
90.0929
90.9547
92.7549
95.3235
93.4557
92.6004
90.997
90.0172
88.6408
87.6295
86.4452
85.477
84.4671
83.5958
82.7549
82.0182
81.3485
80.7715
80.2787
79.8773
79.5666
79.3481
79.2212
79.2212
79.3481
79.5666
79.8772
80.2787
80.7715
81.3484
82.0181
82.7548
83.5957
84.467
85.4769
86.4451
87.6295
88.6407
90.0171
90.997
92.6003
93.4558
95.3234
97.9724
96.0436
95.1884
93.5453
92.5526
91.149
90.1197
88.9146
87.9277
86.9005
86.0122
85.1566
84.4056
83.7236
83.1355
82.633
82.2233
81.9056
81.6812
81.549
81.549
81.6811
81.9055
82.2232
82.6329
83.1353
83.7235
84.4054
85.1564
86.012
86.9003
87.9275
88.9144
90.1195
91.1488
92.5524
93.545
95.1882
96.0433
97.9723
100.767
98.7727
97.9178
96.2304
95.2241
93.7899
92.7411
91.5123
90.5053
89.4584
88.5516
87.6793
86.913
86.2175
85.6172
85.1044
84.6858
84.3608
84.1304
83.9932
83.9932
84.1304
84.3608
84.6857
85.1043
85.617
86.2173
86.9126
87.6793
88.5511
89.458
90.5048
91.5119
92.7407
93.7894
95.2236
96.2299
97.9169
98.7722
100.766
103.74
101.668
100.816
99.0783
98.0578
96.5887
95.5179
94.2629
93.233
92.1646
91.2374
90.3471
89.5632
88.8529
88.2392
87.7154
87.2872
86.9545
86.7177
86.5755
86.5755
86.7177
86.9545
87.2868
87.715
88.2392
88.8529
89.5628
90.3467
91.2369
92.1641
93.2326
94.2625
95.5175
96.5878
98.0569
99.0774
100.815
101.667
103.739
106.887
104.737
103.883
102.095
101.054
99.5495
98.4533
97.1701
96.1145
95.0226
94.0725
93.162
92.3593
91.6331
91.0048
90.4686
90.0299
89.6893
89.4461
89.2985
89.2985
89.4461
89.6889
90.0299
90.4682
91.0044
91.6327
92.3588
93.1616
94.0716
95.0217
96.114
97.1693
98.4525
99.5486
101.053
102.094
103.882
104.737
106.885
110.194
107.965
107.105
105.264
104.202
102.659
101.535
100.222
99.1381
98.0211
97.0458
96.1145
95.2914
94.5476
93.9034
93.3542
92.9048
92.5552
92.3054
92.153
92.153
92.3054
92.5548
92.9045
93.3538
93.903
94.5468
95.2906
96.1137
97.0454
98.0199
99.1373
100.221
101.534
102.658
104.2
105.263
107.104
107.964
110.192
113.625
111.318
110.448
108.555
107.466
105.886
104.731
103.387
102.274
101.13
100.129
99.1743
98.3298
97.5675
96.9072
96.344
95.8832
95.5246
95.2681
95.1106
95.1106
95.2677
95.5242
95.8828
96.3436
96.9068
97.5667
98.3291
99.1735
100.128
101.129
102.272
103.386
104.73
105.885
107.464
108.553
110.446
111.316
113.623
117.118
114.731
113.85
111.906
110.789
109.171
107.984
106.608
105.464
104.293
103.265
102.288
101.421
100.639
99.9622
99.3847
98.9125
98.5445
98.2809
98.1188
98.1188
98.2809
98.5442
98.9118
99.3844
99.9615
100.639
101.42
102.286
103.264
104.292
105.463
106.606
107.982
109.169
110.787