/*--------------------------------*- C++ -*----------------------------------*\
  =========                 |
  \\      /  F ield         | OpenFOAM: The Open Source CFD Toolbox
   \\    /   O peration     | Website:  https://openfoam.org
    \\  /    A nd           | Version:  6
     \\/     M anipulation  |
\*---------------------------------------------------------------------------*/
FoamFile
{
    version     2.0;
    format      ascii;
    class       volScalarField;
    location    "40";
    object      epsilon;
}
// * * * * * * * * * * * * * * * * * * * * * * * * * * * * * * * * * * * * * //

dimensions      [0 2 -3 0 0 0 0];

internalField   nonuniform List<scalar> 
1800
(
0.00103079
0.00103079
0.00103079
0.00399401
0.00399401
0.00399401
0.00456082
0.00456082
0.00456083
0.00499522
0.00499522
0.00499523
0.00535818
0.00535819
0.00535819
0.00567154
0.00567154
0.00567154
0.00595054
0.00595055
0.00595055
0.00620681
0.00620682
0.00620682
0.00644854
0.00644854
0.00644855
0.00667923
0.00667924
0.00667924
0.00689656
0.00689657
0.00689657
0.00709228
0.00709228
0.00709228
0.00725447
0.00725448
0.00725448
0.00737206
0.00737203
0.00737204
0.00743671
0.00743668
0.0074367
0.0074367
0.00743666
0.00743668
0.00737201
0.00737198
0.007372
0.0072544
0.00725441
0.00725441
0.00709221
0.00709221
0.00709221
0.00689649
0.00689649
0.00689649
0.00667914
0.00667915
0.00667915
0.00644845
0.00644846
0.00644846
0.00620674
0.00620675
0.00620675
0.00595048
0.00595049
0.00595049
0.00567149
0.0056715
0.0056715
0.00535815
0.00535815
0.00535815
0.00499519
0.00499519
0.00499519
0.00456078
0.00456078
0.00456079
0.00399398
0.00399398
0.00399398
0.00103077
0.00103077
0.00103077
0.000336514
0.000336513
0.000336514
0.00329296
0.00329295
0.00329296
0.0038556
0.0038556
0.00385561
0.00431106
0.00431105
0.00431106
0.00467911
0.00467911
0.00467911
0.00498119
0.00498119
0.0049812
0.00523686
0.00523686
0.00523686
0.00546185
0.00546185
0.00546185
0.00566748
0.00566748
0.00566748
0.00585976
0.00585976
0.00585977
0.00603875
0.00603876
0.00603876
0.00619893
0.00619893
0.00619893
0.0063313
0.00633131
0.0063313
0.0064272
0.00642718
0.00642719
0.00647994
0.00647992
0.00647993
0.00647992
0.0064799
0.00647991
0.00642715
0.00642714
0.00642715
0.00633124
0.00633125
0.00633125
0.00619886
0.00619887
0.00619887
0.00603869
0.00603869
0.00603869
0.00585968
0.00585969
0.00585969
0.0056674
0.0056674
0.00566741
0.00546178
0.00546178
0.00546178
0.0052368
0.0052368
0.0052368
0.00498114
0.00498114
0.00498114
0.00467906
0.00467906
0.00467906
0.00431101
0.00431101
0.00431101
0.00385556
0.00385556
0.00385556
0.00329292
0.00329292
0.00329292
0.000336508
0.000336507
0.000336508
0.00042187
0.000421869
0.00042187
0.00246534
0.00246534
0.00246534
0.00283164
0.00283164
0.00283164
0.00317555
0.00317555
0.00317555
0.00346825
0.00346825
0.00346825
0.00371325
0.00371325
0.00371325
0.00392145
0.00392145
0.00392145
0.00410409
0.00410409
0.00410409
0.00427019
0.00427019
0.00427019
0.00442489
0.0044249
0.0044249
0.00456861
0.00456861
0.00456861
0.00469714
0.00469715
0.00469715
0.00480341
0.00480342
0.00480342
0.00488045
0.00488044
0.00488045
0.00492285
0.00492284
0.00492285
0.00492284
0.00492283
0.00492284
0.00488042
0.00488041
0.00488042
0.00480336
0.00480337
0.00480337
0.00469709
0.00469709
0.00469709
0.00456855
0.00456856
0.00456856
0.00442483
0.00442484
0.00442484
0.00427013
0.00427013
0.00427013
0.00410403
0.00410403
0.00410403
0.0039214
0.0039214
0.0039214
0.00371321
0.0037132
0.0037132
0.00346821
0.00346821
0.00346821
0.00317551
0.00317551
0.00317551
0.0028316
0.0028316
0.0028316
0.00246531
0.00246531
0.00246531
0.000421863
0.000421862
0.000421863
0.000519978
0.000519977
0.000519978
0.00194809
0.00194809
0.00194809
0.00215555
0.00215555
0.00215555
0.00239923
0.00239923
0.00239923
0.00262378
0.00262377
0.00262377
0.00281863
0.00281862
0.00281862
0.00298659
0.00298659
0.00298659
0.00313432
0.00313432
0.00313432
0.00326834
0.00326834
0.00326834
0.00339279
0.00339279
0.00339279
0.00350816
0.00350816
0.00350816
0.00361128
0.00361128
0.00361128
0.00369654
0.00369655
0.00369655
0.00375839
0.00375838
0.00375839
0.00379244
0.00379244
0.00379244
0.00379243
0.00379243
0.00379243
0.00375836
0.00375836
0.00375836
0.00369651
0.00369651
0.00369651
0.00361124
0.00361124
0.00361124
0.00350812
0.00350812
0.00350812
0.00339274
0.00339274
0.00339274
0.00326829
0.00326829
0.0032683
0.00313427
0.00313427
0.00313427
0.00298655
0.00298655
0.00298655
0.00281859
0.00281859
0.00281859
0.00262375
0.00262374
0.00262374
0.0023992
0.0023992
0.0023992
0.00215553
0.00215553
0.00215553
0.00194806
0.00194806
0.00194806
0.00051997
0.000519969
0.00051997
0.000630297
0.000630296
0.000630297
0.00160788
0.00160788
0.00160788
0.00169857
0.00169857
0.00169857
0.00185937
0.00185937
0.00185937
0.0020262
0.0020262
0.0020262
0.00217929
0.00217929
0.00217929
0.00231475
0.00231475
0.00231475
0.00243495
0.00243495
0.00243495
0.00254402
0.00254402
0.00254402
0.00264502
0.00264502
0.00264502
0.00273844
0.00273844
0.00273844
0.00282182
0.00282183
0.00282183
0.00289075
0.00289076
0.00289076
0.00294076
0.00294076
0.00294076
0.0029683
0.0029683
0.0029683
0.00296829
0.00296829
0.00296829
0.00294074
0.00294073
0.00294074
0.00289072
0.00289073
0.00289073
0.00282179
0.00282179
0.00282179
0.0027384
0.0027384
0.0027384
0.00264498
0.00264498
0.00264498
0.00254398
0.00254398
0.00254398
0.00243492
0.00243492
0.00243492
0.00231472
0.00231472
0.00231472
0.00217927
0.00217927
0.00217927
0.00202618
0.00202618
0.00202618
0.00185935
0.00185935
0.00185935
0.00169855
0.00169855
0.00169855
0.00160786
0.00160786
0.00160786
0.000630288
0.000630287
0.000630288
0.000751109
0.000751109
0.00075111
0.00137135
0.00137135
0.00137135
0.00137984
0.00137984
0.00137984
0.00147372
0.00147372
0.00147372
0.00159163
0.00159163
0.00159163
0.00170934
0.00170934
0.00170934
0.001818
0.001818
0.001818
0.00191618
0.00191618
0.00191618
0.00200566
0.00200566
0.00200566
0.0020884
0.0020884
0.0020884
0.00216474
0.00216474
0.00216474
0.00223276
0.00223277
0.00223277
0.00228894
0.00228895
0.00228895
0.00232968
0.00232968
0.00232969
0.00235212
0.00235212
0.00235212
0.00235211
0.00235211
0.00235212
0.00232967
0.00232966
0.00232967
0.00228892
0.00228892
0.00228892
0.00223274
0.00223274
0.00223274
0.00216471
0.00216472
0.00216472
0.00208837
0.00208837
0.00208837
0.00200563
0.00200563
0.00200563
0.00191615
0.00191615
0.00191615
0.00181798
0.00181798
0.00181798
0.00170932
0.00170932
0.00170932
0.00159161
0.00159161
0.00159161
0.0014737
0.0014737
0.0014737
0.00137982
0.00137982
0.00137982
0.00137133
0.00137133
0.00137133
0.000751099
0.000751098
0.000751099
0.000879195
0.000879194
0.000879196
0.00119851
0.0011985
0.0011985
0.00115123
0.00115123
0.00115123
0.00119233
0.00119232
0.00119232
0.00126875
0.00126875
0.00126875
0.00135579
0.00135579
0.00135579
0.0014416
0.0014416
0.0014416
0.00152164
0.00152164
0.00152164
0.00159542
0.00159542
0.00159542
0.00166374
0.00166374
0.00166374
0.00172664
0.00172664
0.00172664
0.00178257
0.00178257
0.00178257
0.00182869
0.00182869
0.00182869
0.00186211
0.00186211
0.00186211
0.00188051
0.00188051
0.00188051
0.0018805
0.0018805
0.00188051
0.00186209
0.00186209
0.0018621
0.00182867
0.00182867
0.00182867
0.00178255
0.00178255
0.00178255
0.00172662
0.00172662
0.00172662
0.00166371
0.00166372
0.00166371
0.0015954
0.0015954
0.0015954
0.00152162
0.00152162
0.00152162
0.00144159
0.00144158
0.00144158
0.00135578
0.00135577
0.00135577
0.00126874
0.00126874
0.00126874
0.00119231
0.00119231
0.00119231
0.00115122
0.00115121
0.00115121
0.00119849
0.00119849
0.00119849
0.000879183
0.000879182
0.000879184
0.00100985
0.00100985
0.00100985
0.00106669
0.00106669
0.00106669
0.000982699
0.000982697
0.000982697
0.000983525
0.000983523
0.000983523
0.00102519
0.00102519
0.00102519
0.00108528
0.00108528
0.00108528
0.00115098
0.00115098
0.00115098
0.00121551
0.00121551
0.00121551
0.00127637
0.00127637
0.00127637
0.00133308
0.00133308
0.00133308
0.00138527
0.00138527
0.00138527
0.00143157
0.00143157
0.00143157
0.00146967
0.00146968
0.00146968
0.00149724
0.00149724
0.00149724
0.0015124
0.00151241
0.00151241
0.0015124
0.0015124
0.0015124
0.00149722
0.00149723
0.00149723
0.00146965
0.00146966
0.00146966
0.00143155
0.00143156
0.00143156
0.00138525
0.00138526
0.00138526
0.00133306
0.00133306
0.00133306
0.00127635
0.00127635
0.00127635
0.0012155
0.0012155
0.0012155
0.00115096
0.00115096
0.00115096
0.00108527
0.00108527
0.00108527
0.00102518
0.00102518
0.00102518
0.000983517
0.000983515
0.000983515
0.00098269
0.000982688
0.000982688
0.00106668
0.00106668
0.00106668
0.00100983
0.00100983
0.00100983
0.00113742
0.00113741
0.00113742
0.000962684
0.000962682
0.000962682
0.000854601
0.000854599
0.000854599
0.000826116
0.000826113
0.000826113
0.000839403
0.000839401
0.000839401
0.000875884
0.000875883
0.000875883
0.000923469
0.000923468
0.000923469
0.000974281
0.000974281
0.000974281
0.00102413
0.00102413
0.00102413
0.0010713
0.0010713
0.0010713
0.00111482
0.00111483
0.00111483
0.00115337
0.00115338
0.00115338
0.00118501
0.00118502
0.00118502
0.00120785
0.00120786
0.00120786
0.0012204
0.00122041
0.00122041
0.0012204
0.0012204
0.0012204
0.00120784
0.00120785
0.00120785
0.001185
0.001185
0.001185
0.00115336
0.00115336
0.00115336
0.00111481
0.00111481
0.00111481
0.00107128
0.00107128
0.00107128
0.00102412
0.00102412
0.00102412
0.000974269
0.000974269
0.00097427
0.00092346
0.00092346
0.00092346
0.000875877
0.000875876
0.000875877
0.000839398
0.000839396
0.000839396
0.000826111
0.000826109
0.000826109
0.000854595
0.000854593
0.000854593
0.000962671
0.000962669
0.00096267
0.0011374
0.0011374
0.0011374
0.00125641
0.00125641
0.00125641
0.000878604
0.000878602
0.000878602
0.000753677
0.000753675
0.000753675
0.000705199
0.000705197
0.000705197
0.000696305
0.000696304
0.000696304
0.000712502
0.000712501
0.000712502
0.000743669
0.000743669
0.000743669
0.000781963
0.000781964
0.000781964
0.000822105
0.000822107
0.000822107
0.000861192
0.000861194
0.000861194
0.000897591
0.000897594
0.000897594
0.000929827
0.000929831
0.000929831
0.000956205
0.000956212
0.000956212
0.00097519
0.000975197
0.000975198
0.000985599
0.000985606
0.000985607
0.000985596
0.000985603
0.000985604
0.000975183
0.00097519
0.00097519
0.000956194
0.000956202
0.000956202
0.000929815
0.00092982
0.00092982
0.00089758
0.000897583
0.000897583
0.000861178
0.000861181
0.000861181
0.000822094
0.000822096
0.000822096
0.000781954
0.000781955
0.000781956
0.000743663
0.000743663
0.000743663
0.000712498
0.000712497
0.000712498
0.000696303
0.000696302
0.000696302
0.000705197
0.000705195
0.000705195
0.000753673
0.000753671
0.000753671
0.000878593
0.000878591
0.000878591
0.0012564
0.0012564
0.0012564
0.00136287
0.00136287
0.00136287
0.000809718
0.000809716
0.000809716
0.000670909
0.000670907
0.000670907
0.00060994
0.000609938
0.000609938
0.000584785
0.000584785
0.000584785
0.000584209
0.000584209
0.00058421
0.000600676
0.000600676
0.000600677
0.000627366
0.000627368
0.000627368
0.000658641
0.000658643
0.000658644
0.000690663
0.000690667
0.000690667
0.000721061
0.000721065
0.000721065
0.000748083
0.000748088
0.000748088
0.000770136
0.000770144
0.000770144
0.000785945
0.000785952
0.000785952
0.000794585
0.000794592
0.000794593
0.000794582
0.00079459
0.00079459
0.000785939
0.000785946
0.000785946
0.000770128
0.000770135
0.000770135
0.000748074
0.000748079
0.000748079
0.000721052
0.000721057
0.000721056
0.000690652
0.000690656
0.000690656
0.000658632
0.000658635
0.000658635
0.000627359
0.000627361
0.000627362
0.000600671
0.000600672
0.000600673
0.000584207
0.000584207
0.000584208
0.000584785
0.000584785
0.000584785
0.00060994
0.000609939
0.000609939
0.000670907
0.000670905
0.000670905
0.000809709
0.000809707
0.000809708
0.00136286
0.00136285
0.00136286
0.00145539
0.00145539
0.00145539
0.000753203
0.000753202
0.000753202
0.000600332
0.000600331
0.000600331
0.000532338
0.000532337
0.000532337
0.000496351
0.000496351
0.000496352
0.000482713
0.000482714
0.000482715
0.000486446
0.000486447
0.000486448
0.000502414
0.000502416
0.000502417
0.000525381
0.000525384
0.000525385
0.000550993
0.000550997
0.000550997
0.000576185
0.00057619
0.00057619
0.000598817
0.000598824
0.000598824
0.000617267
0.000617275
0.000617275
0.000630429
0.000630436
0.000630436
0.000637591
0.000637599
0.000637599
0.000637589
0.000637597
0.000637598
0.000630424
0.000630431
0.000630431
0.00061726
0.000617268
0.000617268
0.00059881
0.000598817
0.000598817
0.000576179
0.000576184
0.000576184
0.000550984
0.000550989
0.000550989
0.000525374
0.000525377
0.000525378
0.000502409
0.000502411
0.000502412
0.000486443
0.000486445
0.000486446
0.000482713
0.000482714
0.000482715
0.000496353
0.000496353
0.000496354
0.000532341
0.00053234
0.00053234
0.000600333
0.000600331
0.000600331
0.000753197
0.000753195
0.000753195
0.00145538
0.00145538
0.00145538
0.0015353
0.0015353
0.0015353
0.000707516
0.000707515
0.000707515
0.00053832
0.000538319
0.000538319
0.00046657
0.000466569
0.00046657
0.000424377
0.000424377
0.000424378
0.000401453
0.000401455
0.000401456
0.00039477
0.000394773
0.000394774
0.00040109
0.000401094
0.000401095
0.000416211
0.000416215
0.000416215
0.000435803
0.000435808
0.000435808
0.000456304
0.000456311
0.000456311
0.000475135
0.000475143
0.000475143
0.000490526
0.000490534
0.000490534
0.00050145
0.000501458
0.000501458
0.000507363
0.000507371
0.000507372
0.000507362
0.00050737
0.00050737
0.000501446
0.000501454
0.000501454
0.000490521
0.000490529
0.000490529
0.00047513
0.000475137
0.000475137
0.0004563
0.000456306
0.000456306
0.000435795
0.000435801
0.000435801
0.000416205
0.000416209
0.00041621
0.000401087
0.00040109
0.000401091
0.000394769
0.000394772
0.000394773
0.000401454
0.000401456
0.000401457
0.00042438
0.000424381
0.000424382
0.000466574
0.000466574
0.000466574
0.000538323
0.000538322
0.000538322
0.000707512
0.000707511
0.000707511
0.00153529
0.00153529
0.00153529
0.00160576
0.00160576
0.00160576
0.000672034
0.000672033
0.000672033
0.000483067
0.000483067
0.000483067
0.000408637
0.000408637
0.000408638
0.000363728
0.00036373
0.000363731
0.000335113
0.000335116
0.000335117
0.000320654
0.000320657
0.000320659
0.000318759
0.000318763
0.000318764
0.000326589
0.000326594
0.000326595
0.000340398
0.000340404
0.000340405
0.000356484
0.000356492
0.000356492
0.000371887
0.000371895
0.000371895
0.000384605
0.000384613
0.000384613
0.0003936
0.000393608
0.000393608
0.000398439
0.000398447
0.000398447
0.000398437
0.000398446
0.000398446
0.000393597
0.000393605
0.000393605
0.0003846
0.000384609
0.000384609
0.000371883
0.000371891
0.000371891
0.000356482
0.000356489
0.000356489
0.000340392
0.000340398
0.000340398
0.000326584
0.000326589
0.00032659
0.000318756
0.00031876
0.000318761
0.000320653
0.000320657
0.000320658
0.000335116
0.000335119
0.00033512
0.000363734
0.000363735
0.000363736
0.000408643
0.000408644
0.000408644
0.000483072
0.000483072
0.000483072
0.000672032
0.000672031
0.000672031
0.00160575
0.00160575
0.00160575
0.00167027
0.00167027
0.00167028
0.000646732
0.000646731
0.000646732
0.000434099
0.000434099
0.000434099
0.000356149
0.000356149
0.00035615
0.00031062
0.000310622
0.000310623
0.000279425
0.000279429
0.00027943
0.000259991
0.000259996
0.000259997
0.00025173
0.000251736
0.000251737
0.000253108
0.000253114
0.000253115
0.000261363
0.000261369
0.00026137
0.000273121
0.000273128
0.000273129
0.00028526
0.000285269
0.000285269
0.000295535
0.000295545
0.000295545
0.000302814
0.000302823
0.000302823
0.000306708
0.000306717
0.000306718
0.000306707
0.000306716
0.000306717
0.000302812
0.00030282
0.000302821
0.000295532
0.000295542
0.000295542
0.000285258
0.000285266
0.000285266
0.00027312
0.000273128
0.000273128
0.000261357
0.000261364
0.000261364
0.000253105
0.000253111
0.000253112
0.000251728
0.000251734
0.000251735
0.000259992
0.000259996
0.000259998
0.000279429
0.000279433
0.000279434
0.000310626
0.000310628
0.000310629
0.000356156
0.000356157
0.000356158
0.000434106
0.000434106
0.000434106
0.000646732
0.000646731
0.000646732
0.00167027
0.00167027
0.00167027
0.00173129
0.00173129
0.00173129
0.0006318
0.000631799
0.0006318
0.000391765
0.000391765
0.000391766
0.000308092
0.000308094
0.000308095
0.000262602
0.000262605
0.000262606
0.000231181
0.000231185
0.000231187
0.000209496
0.000209502
0.000209503
0.000197067
0.000197073
0.000197074
0.000193236
0.000193243
0.000193244
0.000196324
0.000196332
0.000196332
0.000203741
0.000203749
0.000203749
0.000212588
0.000212597
0.000212597
0.00022049
0.0002205
0.0002205
0.000226169
0.000226178
0.000226179
0.000229205
0.000229215
0.000229215
0.000229205
0.000229214
0.000229215
0.000226167
0.000226176
0.000226177
0.000220488
0.000220498
0.000220498
0.000212586
0.000212595
0.000212595
0.000203741
0.000203749
0.000203749
0.000196319
0.000196327
0.000196327
0.000193232
0.000193239
0.00019324
0.000197065
0.000197071
0.000197073
0.000209497
0.000209503
0.000209504
0.000231185
0.00023119
0.000231191
0.000262609
0.000262612
0.000262614
0.000308102
0.000308103
0.000308104
0.000391774
0.000391774
0.000391775
0.000631802
0.000631801
0.000631802
0.00173129
0.00173129
0.00173129
0.00178932
0.00178932
0.00178932
0.000627176
0.000627176
0.000627177
0.000356785
0.000356786
0.000356787
0.000264579
0.000264582
0.000264583
0.000218627
0.000218631
0.000218632
0.00018843
0.000188435
0.000188436
0.000166865
0.000166871
0.000166873
0.000152599
0.000152606
0.000152607
0.000145203
0.000145211
0.000145212
0.000143849
0.000143857
0.000143857
0.000146971
0.00014698
0.00014698
0.000152365
0.000152374
0.000152374
0.000157812
0.000157821
0.000157822
0.000161914
0.000161923
0.000161924
0.00016414
0.00016415
0.00016415
0.00016414
0.000164149
0.00016415
0.000161913
0.000161922
0.000161923
0.00015781
0.00015782
0.00015782
0.000152363
0.000152372
0.000152373
0.000146972
0.00014698
0.000146981
0.000143844
0.000143852
0.000143852
0.0001452
0.000145208
0.000145208
0.000152597
0.000152604
0.000152605
0.000166866
0.000166873
0.000166874
0.000188434
0.00018844
0.000188441
0.000218635
0.000218639
0.00021864
0.00026459
0.000264592
0.000264593
0.000356796
0.000356797
0.000356798
0.00062718
0.00062718
0.00062718
0.00178932
0.00178932
0.00178932
0.00184267
0.00184267
0.00184268
0.00063192
0.00063192
0.00063192
0.000329931
0.000329932
0.000329933
0.000226663
0.000226666
0.000226667
0.00017919
0.000179195
0.000179196
0.000150851
0.000150857
0.000150858
0.000131155
0.000131162
0.000131163
0.000117158
0.000117166
0.000117167
0.000108033
0.000108041
0.000108042
0.000103375
0.000103383
0.000103383
0.000102572
0.00010258
0.00010258
0.000104432
0.00010444
0.00010444
0.000107296
0.000107305
0.000107305
0.000109797
0.000109806
0.000109806
0.000111241
0.00011125
0.000111251
0.000111241
0.00011125
0.00011125
0.000109796
0.000109805
0.000109805
0.000107295
0.000107304
0.000107304
0.000104431
0.000104439
0.00010444
0.000102573
0.000102581
0.000102581
0.00010337
0.000103378
0.000103378
0.00010803
0.000108038
0.000108038
0.000117157
0.000117165
0.000117166
0.000131156
0.000131163
0.000131164
0.000150856
0.000150862
0.000150863
0.000179199
0.000179204
0.000179205
0.000226675
0.000226678
0.000226679
0.000329944
0.000329945
0.000329946
0.000631924
0.000631924
0.000631924
0.00184268
0.00184268
0.00184268
0.00188725
0.00188725
0.00188725
0.000643063
0.000643063
0.000643063
0.000311814
0.000311816
0.000311817
0.000196498
0.000196502
0.000196503
0.000146708
0.000146713
0.000146714
0.000120268
0.000120275
0.000120276
0.00010328
0.000103287
0.000103288
9.09167e-05
9.09249e-05
9.09256e-05
8.16171e-05
8.16254e-05
8.16261e-05
7.50542e-05
7.50623e-05
7.50628e-05
7.12618e-05
7.12696e-05
7.12701e-05
7.00154e-05
7.00231e-05
7.00235e-05
7.0455e-05
7.04628e-05
7.04632e-05
7.14589e-05
7.14669e-05
7.14672e-05
7.22006e-05
7.22088e-05
7.22091e-05
7.22005e-05
7.22087e-05
7.2209e-05
7.14585e-05
7.14665e-05
7.14668e-05
7.04544e-05
7.04622e-05
7.04626e-05
7.00146e-05
7.00223e-05
7.00227e-05
7.12623e-05
7.12701e-05
7.12706e-05
7.50487e-05
7.50568e-05
7.50574e-05
8.16141e-05
8.16224e-05
8.1623e-05
9.09159e-05
9.09241e-05
9.09248e-05
0.000103282
0.000103289
0.00010329
0.000120274
0.00012028
0.000120281
0.000146717
0.000146723
0.000146724
0.000196512
0.000196516
0.000196517
0.000311828
0.00031183
0.000311831
0.000643067
0.000643067
0.000643067
0.00188726
0.00188726
0.00188726
0.00191569
0.00191569
0.00191569
0.000653915
0.000653915
0.000653916
0.000302654
0.000302656
0.000302657
0.000178054
0.000178059
0.00017806
0.000126237
0.000126244
0.000126244
0.00010117
0.000101177
0.000101178
8.63958e-05
8.64038e-05
8.64044e-05
7.56868e-05
7.56952e-05
7.56957e-05
6.68862e-05
6.68946e-05
6.68951e-05
5.96189e-05
5.9627e-05
5.96275e-05
5.42408e-05
5.42484e-05
5.42489e-05
5.11132e-05
5.11204e-05
5.11208e-05
4.99781e-05
4.99852e-05
4.99856e-05
4.99905e-05
4.99977e-05
4.99981e-05
5.02735e-05
5.02808e-05
5.02812e-05
5.02734e-05
5.02807e-05
5.02811e-05
4.99903e-05
4.99975e-05
4.99979e-05
4.99776e-05
4.99847e-05
4.99851e-05
5.11123e-05
5.11194e-05
5.11199e-05
5.42411e-05
5.42487e-05
5.42492e-05
5.96133e-05
5.96214e-05
5.96219e-05
6.68833e-05
6.68917e-05
6.68923e-05
7.56863e-05
7.56947e-05
7.56953e-05
8.63982e-05
8.64063e-05
8.64069e-05
0.000101176
0.000101183
0.000101184
0.000126248
0.000126254
0.000126255
0.000178069
0.000178074
0.000178075
0.000302669
0.000302671
0.000302672
0.000653919
0.000653919
0.000653919
0.0019157
0.0019157
0.0019157
)
;

boundaryField
{
    freeSurface
    {
        type            slip;
    }
    inlet
    {
        type            cyclic;
    }
    outlet
    {
        type            cyclic;
    }
    sidewalls
    {
        type            epsilonWallFunction;
        Cmu             0.09;
        kappa           0.41;
        E               9.8;
        value           nonuniform List<scalar> 
120
(
0.00103079
0.000336514
0.00042187
0.000519978
0.000630297
0.000751109
0.000879195
0.00100985
0.00113742
0.00125641
0.00136287
0.00145539
0.0015353
0.00160576
0.00167027
0.00173129
0.00178932
0.00184267
0.00188725
0.00191569
0.00103079
0.000336513
0.000421869
0.000519977
0.000630296
0.000751109
0.000879194
0.00100985
0.00113741
0.00125641
0.00136287
0.00145539
0.0015353
0.00160576
0.00167027
0.00173129
0.00178932
0.00184267
0.00188725
0.00191569
0.00103079
0.000336514
0.00042187
0.000519978
0.000630297
0.00075111
0.000879196
0.00100985
0.00113742
0.00125641
0.00136287
0.00145539
0.0015353
0.00160576
0.00167028
0.00173129
0.00178932
0.00184268
0.00188725
0.00191569
0.00103077
0.000336508
0.000421863
0.00051997
0.000630288
0.000751099
0.000879183
0.00100983
0.0011374
0.0012564
0.00136286
0.00145538
0.00153529
0.00160575
0.00167027
0.00173129
0.00178932
0.00184268
0.00188726
0.0019157
0.00103077
0.000336507
0.000421862
0.000519969
0.000630287
0.000751098
0.000879182
0.00100983
0.0011374
0.0012564
0.00136285
0.00145538
0.00153529
0.00160575
0.00167027
0.00173129
0.00178932
0.00184268
0.00188726
0.0019157
0.00103077
0.000336508
0.000421863
0.00051997
0.000630288
0.000751099
0.000879184
0.00100983
0.0011374
0.0012564
0.00136286
0.00145538
0.00153529
0.00160575
0.00167027
0.00173129
0.00178932
0.00184268
0.00188726
0.0019157
)
;
    }
    noSlipWalls
    {
        type            epsilonWallFunction;
        Cmu             0.09;
        kappa           0.41;
        E               9.8;
        value           nonuniform List<scalar> 
90
(
0.00103079
0.00399401
0.00456082
0.00499522
0.00535818
0.00567154
0.00595054
0.00620681
0.00644854
0.00667923
0.00689656
0.00709228
0.00725447
0.00737206
0.00743671
0.0074367
0.00737201
0.0072544
0.00709221
0.00689649
0.00667914
0.00644845
0.00620674
0.00595048
0.00567149
0.00535815
0.00499519
0.00456078
0.00399398
0.00103077
0.00103079
0.00399401
0.00456082
0.00499522
0.00535819
0.00567154
0.00595055
0.00620682
0.00644854
0.00667924
0.00689657
0.00709228
0.00725448
0.00737203
0.00743668
0.00743666
0.00737198
0.00725441
0.00709221
0.00689649
0.00667915
0.00644846
0.00620675
0.00595049
0.0056715
0.00535815
0.00499519
0.00456078
0.00399398
0.00103077
0.00103079
0.00399401
0.00456083
0.00499523
0.00535819
0.00567154
0.00595055
0.00620682
0.00644855
0.00667924
0.00689657
0.00709228
0.00725448
0.00737204
0.0074367
0.00743668
0.007372
0.00725441
0.00709221
0.00689649
0.00667915
0.00644846
0.00620675
0.00595049
0.0056715
0.00535815
0.00499519
0.00456079
0.00399398
0.00103077
)
;
    }
}


// ************************************************************************* //
