/*--------------------------------*- C++ -*----------------------------------*\
  =========                 |
  \\      /  F ield         | OpenFOAM: The Open Source CFD Toolbox
   \\    /   O peration     | Website:  https://openfoam.org
    \\  /    A nd           | Version:  6
     \\/     M anipulation  |
\*---------------------------------------------------------------------------*/
FoamFile
{
    version     2.0;
    format      ascii;
    class       volScalarField;
    location    "48";
    object      yPlus;
}
// * * * * * * * * * * * * * * * * * * * * * * * * * * * * * * * * * * * * * //

dimensions      [0 0 0 0 0 0 0];

internalField   uniform 0;

boundaryField
{
    inlet
    {
        type            calculated;
        value           uniform 0;
    }
    outlet
    {
        type            calculated;
        value           uniform 0;
    }
    roughCylinder
    {
        type            calculated;
        value           nonuniform List<scalar> 
5120
(
43.4937
51.3153
57.5448
63.6717
68.9609
73.2512
76.6888
79.4673
81.742
83.6475
85.3034
86.786
88.1328
89.3776
90.5515
91.6851
92.8089
93.9512
95.1354
96.3789
97.6911
99.0745
100.526
102.039
103.602
105.204
106.827
108.45
110.032
111.509
112.72
113.442
42.7923
50.327
56.3557
62.3411
67.5557
71.8098
75.2282
77.9978
80.2719
82.1835
83.8474
85.3332
86.6711
87.902
89.0581
90.1704
91.2705
92.3878
93.5465
94.7628
96.0462
97.3994
98.8194
100.299
101.827
103.393
104.979
106.564
108.108
109.549
110.73
111.434
41.9932
49.2823
55.1251
60.9721
66.1143
70.3381
73.7465
76.5179
78.8029
80.7306
82.4088
83.9005
85.2354
86.4557
87.5952
88.6877
89.7663
90.8601
91.9927
93.1819
94.4373
95.7608
97.1496
98.596
100.091
101.62
103.169
104.717
106.223
107.628
108.778
109.464
41.1965
48.248
53.9022
59.6044
64.671
68.8651
72.2656
75.0432
77.3464
79.2981
80.9953
82.4953
83.8309
85.0416
86.1684
87.244
88.3021
89.3732
90.4828
91.6471
92.8752
94.17
95.5281
96.9423
98.4029
99.8972
101.409
102.92
104.388
105.759
106.879
107.546
40.3204
47.1516
52.6183
58.1742
63.1692
67.3452
70.7548
73.5565
75.8922
77.8758
79.5967
81.1104
82.4528
83.6623
84.7789
85.8396
86.8803
87.932
89.0183
90.1577
91.3603
92.6276
93.9565
95.3398
96.7677
98.2276
99.7046
101.178
102.61
103.947
105.037
105.686
39.4683
46.0759
51.3462
56.7471
61.6679
65.8285
69.2503
72.0766
74.4453
76.4646
78.2142
79.7461
81.0987
82.3104
83.4217
84.4725
85.4981
86.5308
87.5981
88.7164
89.8943
91.1353
92.4359
93.789
95.1843
96.6104
98.0512
99.4891
100.885
102.188
103.249
103.881
38.5262
44.9205
49.989
55.2285
60.0762
64.2343
67.6898
70.5657
72.9878
75.0526
76.8354
78.3912
79.7609
80.9848
82.0978
83.1414
84.1558
85.1751
86.2231
87.3194
88.4749
89.691
90.9647
92.289
93.6534
95.0468
96.4541
97.8559
99.2177
100.488
101.519
102.134
37.6099
43.7833
48.6381
53.7033
58.4732
62.6335
66.1285
69.0521
71.5216
73.6334
75.4582
77.0458
78.4393
79.6762
80.798
81.8421
82.8501
83.8561
84.8904
85.9704
87.1046
88.2972
89.5448
90.8403
92.174
93.5344
94.9072
96.2746
97.6004
98.8387
99.8417
100.439
36.5778
42.5367
47.1671
52.0445
56.7313
60.9028
64.46
67.4651
70.0178
72.1975
74.0711
75.6971
77.12
78.3834
79.5196
80.5711
81.5773
82.5791
83.5998
84.6614
85.7769
86.9475
88.1704
89.4389
90.7435
92.0734
93.413
94.7453
96.038
97.2443
98.2187
98.7995
35.5505
41.283
45.6741
50.3415
54.9316
59.1198
62.7559
65.8481
68.4739
70.7209
72.6582
74.3359
75.8024
77.093
78.2521
79.3162
80.3302
81.3287
82.3429
83.3949
84.4932
85.6431
86.842
88.0833
89.3575
90.6536
91.9591
93.2573
94.5138
95.6899
96.6356
97.1994
34.3455
39.866
44.0101
48.4517
52.9322
57.1363
60.865
64.0831
66.8432
69.2004
71.2159
72.9564
74.4686
75.8039
76.9918
78.078
79.1007
80.1059
81.1152
82.154
83.2378
84.3689
85.5449
86.7601
88.0057
89.2721
90.5441
91.8074
93.0309
94.1756
95.0924
95.6394
33.083
38.389
42.2602
46.4313
50.7621
54.981
58.8461
62.2282
65.1159
67.5832
69.7027
71.5247
73.1109
74.4934
75.7244
76.8374
77.8831
78.894
79.9056
80.9435
82.0154
83.129
84.283
85.4717
86.6867
87.918
89.1561
90.3836
91.5708
92.6857
93.5735
94.1031
31.5538
36.6645
40.2573
44.1455
48.3139
52.5315
56.5098
60.0784
63.1988
65.8612
68.1161
70.0499
71.7091
73.1644
74.4426
75.5986
76.6662
77.6973
78.7137
79.7428
80.8048
81.9032
83.0365
84.2006
85.3878
86.5908
87.7937
88.987
90.1412
91.2249
92.0824
92.5962
29.8799
34.7972
38.0745
41.5867
45.4767
49.6501
53.8493
57.7318
61.083
63.9471
66.3916
68.4583
70.2439
71.7763
73.129
74.3293
75.4398
76.4891
77.5187
78.5587
79.6159
80.7006
81.8139
82.9519
84.1075
85.2726
86.4413
87.5964
88.7121
89.7668
90.5932
91.0885
27.6876
32.445
35.4099
38.5506
42.1846
46.2979
50.5584
54.6944
58.5152
61.7693
64.4707
66.7594
68.6723
70.3325
71.7611
73.0381
74.1902
75.2787
76.3265
77.3625
78.4146
79.4881
80.583
81.6976
82.8257
83.9633
85.0944
86.2152
87.2971
88.3191
89.1137
89.5935
25.1469
29.8122
32.4687
35.099
38.1629
41.998
46.6616
51.413
55.5699
59.2102
62.3081
64.8349
66.9894
68.7776
70.3327
71.6775
72.8987
74.0217
75.097
76.1611
77.2183
78.2831
79.3597
80.4474
81.5415
82.6362
83.7309
84.8083
85.8471
86.8422
87.6005
88.0609
21.2389
25.9279
28.22
30.2719
32.8759
36.5067
40.7923
45.8886
51.4024
55.9752
59.6124
62.6455
65.0341
67.0694
68.7626
70.2473
71.5443
72.7369
73.8501
74.915
75.9723
77.0299
78.0904
79.1558
80.2212
81.2885
82.3432
83.3828
84.3898
85.3458
86.0712
86.515
16.5083
21.5498
23.8637
25.5962
27.2391
30.1741
35.5788
41.4492
46.4309
51.7841
56.4422
59.9433
62.8962
65.1844
67.1029
68.6914
70.1007
71.3501
72.5105
73.6294
74.7059
75.7621
76.8056
77.8407
78.8675
79.8832
80.8929
81.8856
82.8356
83.7714
84.4481
84.8727
4.4582
4.67693
7.87033
11.0678
12.9855
7.15166
11.8739
25.3086
38.3389
46.0145
51.8143
56.7251
60.0939
62.8896
65.0948
66.969
68.5145
69.8894
71.1214
72.2463
73.3294
74.3815
75.4102
76.4247
77.4195
78.407
79.3785
80.318
81.2426
82.1273
82.7704
83.1751
8.56832
10.9165
9.9931
9.2559
8.73898
15.4273
14.7503
21.0525
20.6307
36.3979
45.9226
51.7471
56.8459
60.2805
62.9631
64.9971
66.7601
68.2331
69.5433
70.767
71.8902
72.9537
73.9669
74.9409
75.887
76.8064
77.7073
78.6059
79.448
80.3196
80.8937
81.2785
11.6574
17.4381
17.8247
15.7759
12.1414
11.7322
19.0766
18.5722
21.3076
19.7022
36.068
46.7648
52.0247
56.6578
59.9699
62.6928
64.6951
66.403
67.8536
69.089
70.2316
71.292
72.2869
73.2464
74.1544
75.0439
75.924
76.7215
77.5466
78.3589
78.8888
79.255
19.3861
23.7146
25.7986
26.8384
26.3889
24.2087
20.3737
13.4165
16.4054
24.5029
14.1944
32.6487
46.0713
52.1522
56.806
59.7501
62.2778
64.1949
65.7846
67.2133
68.4296
69.5266
70.5131
71.4035
72.2396
73.0264
73.768
74.5572
75.2603
76.0493
76.4846
76.8145
21.891
26.8745
29.5873
31.6008
32.8157
33.074
32.1723
29.617
24.4301
22.3274
14.4323
17.0776
30.9142
45.1304
51.327
56.2754
59.2066
61.5851
63.4745
64.9142
66.1812
67.2742
68.2233
69.1183
69.9027
70.6581
71.4352
72.0013
72.6935
73.4477
73.7932
74.1282
22.8309
27.9026
30.8158
33.1609
34.8973
35.9998
36.4092
35.9259
33.956
29.2492
26.7884
27.8487
32.4823
33.8704
45.9379
50.7888
55.2607
58.171
60.3425
62.2194
63.622
64.8035
65.7679
66.5186
67.1757
67.7483
68.2198
68.8573
69.3616
70.0294
70.2372
70.4803
22.3328
27.5534
30.6371
33.2191
35.2596
36.749
37.6887
38.0655
37.7559
36.1581
31.6924
27.8157
34.5794
35.3791
34.0342
45.2814
49.8847
53.8384
56.7178
58.542
60.0654
61.2478
62.108
62.9115
63.4707
64.0179
64.6749
64.8188
65.3535
66.0779
66.0866
66.3804
20.9587
26.3149
29.4953
32.2135
34.4412
36.1762
37.4388
38.2625
38.6697
38.5758
37.4028
33.3421
30.6242
27.4745
13.8916
30.8258
42.2998
47.4837
51.0764
54.1053
55.9024
57.2598
58.2071
58.6403
58.9417
59.0816
59.0024
59.3362
59.5355
59.9963
59.6647
59.7616
19.0292
24.4841
27.696
30.4678
32.7899
34.6761
36.1534
37.2751
38.1117
38.704
38.9374
38.1897
34.5202
26.1296
21.8285
14.5941
28.37
39.3778
44.7044
47.1571
49.0037
50.5571
51.0567
51.773
51.6116
51.9745
52.3652
51.757
52.982
53.1099
52.8901
52.4481
16.7922
22.2335
25.3744
28.0951
30.4142
32.3689
34.0008
35.3643
36.5402
37.6066
38.5715
39.2152
38.723
35.1337
25.9924
26.9419
12.9572
21.7805
31.2783
38.9077
42.1874
43.2377
44.3776
43.7641
43.3398
41.6255
41.4591
39.9976
38.6648
40.8947
36.1869
37.6697
14.5188
19.8063
22.7711
25.3384
27.5598
29.4951
31.2026
32.7443
34.193
35.6253
37.0698
38.4297
39.3421
38.831
34.4658
29.2525
22.5481
29.7344
26.9831
24.6358
21.5839
29.3647
26.0321
25.151
17.8621
30.2115
15.938
22.1199
39.7285
24.3368
32.2843
11.4342
12.5052
17.5146
20.2261
22.5667
24.6203
26.4654
28.1714
29.804
31.4277
33.1053
34.8776
36.6917
38.3377
39.333
38.7183
34.461
28.0932
26.6922
28.9448
31.062
22.7694
35.7691
15.6988
30.0362
9.41731
39.6647
19.3417
23.0985
41.3566
30.3653
36.1686
23.8953
10.948
15.6048
18.0445
20.1386
21.9998
23.7195
25.3711
27.015
28.7032
30.4815
32.3924
34.4351
36.5073
38.311
39.3137
38.6592
36.5535
30.8011
26.2546
32.8848
27.8478
33.3399
26.7788
33.0559
27.606
37.887
25.3862
36.9125
29.5749
40.7158
31.2487
32.7751
9.79569
14.2043
16.4127
18.2987
19.997
21.6024
23.182
24.7829
26.4414
28.191
30.0694
32.1091
34.3027
36.5196
38.4242
39.4885
39.6867
38.1162
34.2792
29.1351
35.4677
28.3663
28.8587
31.7485
35.9391
35.6986
37.6808
36.2753
37.2303
36.3103
40.4595
42.133
9.17677
13.3906
15.4354
17.1854
18.7839
20.3163
21.8331
23.3635
24.9293
26.5566
28.2816
30.1514
32.2083
34.444
36.7205
38.6965
40.0665
40.4106
39.5077
37.4615
36.2331
37.0271
36.3683
40.0635
42.3434
42.0982
42.7617
41.1207
42.65
39.9417
44.0093
44.8952
8.98835
13.1108
15.0823
16.7817
18.3502
19.8573
21.3338
22.7927
24.2458
25.7152
27.236
28.8558
30.6312
32.6118
34.7959
37.0471
39.0879
40.4672
40.9303
40.5166
39.607
40.6299
40.0267
42.3553
43.408
43.2525
43.5311
42.197
43.1021
41.6322
43.9986
44.6462
9.1581
13.2691
15.2414
16.9595
18.5531
20.0733
21.5338
22.9374
24.2921
25.6176
26.9455
28.3172
29.7839
31.4062
33.2396
35.2859
37.4276
39.3407
40.6555
41.1765
41.0216
41.6597
41.2501
42.584
43.1162
42.938
43.0367
41.9544
42.0314
41.599
42.7907
43.2535
9.58775
13.7403
15.7626
17.5462
19.2019
20.7636
22.2333
23.608
24.8944
26.1121
27.2898
28.4617
29.6677
30.9576
32.3915
34.0231
35.8545
37.7454
39.4152
40.5568
41.0412
41.5801
41.339
41.8733
41.9677
41.6868
41.5974
40.6844
40.1909
40.4202
40.947
41.2282
10.2199
14.4443
16.5406
18.4106
20.1445
21.7613
23.2556
24.6232
25.8725
27.0241
28.1044
29.1408
30.1611
31.2
32.3037
33.5273
34.9147
36.4473
37.991
39.2971
40.1252
40.6864
40.5579
40.6135
40.3955
39.9977
39.7539
38.9844
38.2793
38.8259
39.1379
39.2801
11.0007
15.3245
17.5075
19.4707
21.285
22.9587
24.4832
25.8566
27.0915
28.2111
29.2402
30.2003
31.109
31.9862
32.8613
33.7747
34.7715
35.8758
37.053
38.1675
39.0065
39.537
39.4828
39.2934
38.8873
38.401
38.0529
37.4547
36.8145
37.4683
37.8066
37.9043
11.8401
16.3319
18.6102
20.6669
22.5583
24.2861
25.8422
27.2295
28.4661
29.5779
30.5891
31.5169
32.3713
33.1612
33.9013
34.6155
35.3354
36.0904
36.8856
37.6672
38.3037
38.6939
38.6373
38.3255
37.8202
37.2812
36.8807
36.4528
36.01
36.6802
37.1387
37.268
12.8205
17.4345
19.8067
21.954
23.9183
25.6972
27.2855
28.6921
29.9411
31.0615
32.0767
33.0007
33.8382
34.5915
35.2658
35.871
36.4237
36.9438
37.4453
37.9137
38.2835
38.4682
38.3315
37.9346
37.3708
36.8026
36.3857
36.1002
35.882
36.542
37.1333
37.3328
13.5623
13.9773
14.458
14.8442
15.2188
15.517
15.7776
15.9798
16.1427
16.2577
16.3362
16.3762
16.3816
16.3538
16.2967
16.2129
16.1046
15.9769
15.8415
15.7297
15.7379
15.857
15.9964
16.1269
16.2378
16.3238
16.3829
16.4124
16.4082
16.3692
16.2911
16.1758
16.012
15.8079
15.5447
15.2427
14.8637
14.4718
13.9855
13.5641
18.2992
18.7302
19.2307
19.6347
20.0269
20.3459
20.6287
20.8552
21.0433
21.1855
21.2915
21.36
21.3935
21.3922
21.3583
21.2934
21.1988
21.0784
20.9429
20.8263
20.836
20.9614
21.1013
21.225
21.3224
21.3896
21.4256
21.4285
21.3961
21.3283
21.2223
21.0794
20.8899
20.661
20.375
20.0517
19.6545
19.2445
18.7382
18.3006
20.7461
21.2023
21.7324
22.1616
22.5819
22.931
23.248
23.5114
23.7396
23.9248
24.0753
24.1901
24.2706
24.3155
24.325
24.2998
24.2401
24.1485
24.0346
23.931
23.9408
24.0537
24.1726
24.2679
24.3308
24.3587
24.3515
24.3084
24.2291
24.1151
23.9645
23.7785
23.5487
23.2827
22.9624
22.6086
22.1831
21.7476
21.2113
20.7482
22.9508
23.4259
23.9786
24.4272
24.8716
25.2477
25.5962
25.895
26.162
26.3899
26.5847
26.7454
26.8728
26.9644
27.0187
27.0349
27.0125
26.9534
26.8672
26.7858
26.7946
26.886
26.9779
27.0412
27.0672
27.0541
27.0025
26.913
26.787
26.6273
26.4324
26.2038
25.9351
25.6336
25.2814
24.9006
24.4508
23.9956
23.4365
22.9542
24.9521
25.4313
25.9915
26.4462
26.9022
27.2933
27.6618
27.9849
28.2797
28.5402
28.7709
28.9693
29.1352
29.2654
29.3573
29.4088
29.4187
29.3888
29.3289
29.2701
29.2778
29.3469
29.413
29.4476
29.4418
29.3937
29.3047
29.177
29.0126
28.8153
28.5847
28.3237
28.0272
27.7014
27.3292
26.9332
26.4716
26.0102
25.4433
24.9568
26.7499
27.217
27.7708
28.2197
28.6759
29.072
29.451
29.7913
30.1088
30.3958
30.6567
30.887
31.086
31.2491
31.3731
31.4549
31.4927
31.488
31.4507
31.4097
31.4166
31.4678
31.5118
31.5216
31.4881
31.41
31.2891
31.1284
30.9314
30.7022
30.4417
30.1539
29.8348
29.4921
29.1093
28.7082
28.2464
27.7905
27.2299
26.7553
28.3446
28.7883
29.3282
29.7658
30.2178
30.6165
31.0056
31.3623
31.7008
32.013
32.3011
32.5607
32.7891
32.9817
33.1341
33.2424
33.3041
33.3205
33.3011
33.2727
33.2791
33.3176
33.344
33.3328
33.2755
33.1711
33.0219
32.832
32.6053
32.3472
32.0594
31.7466
31.4066
31.0472
30.6544
30.2507
29.7931
29.3484
28.8015
28.3501
29.752
30.1685
30.694
31.1217
31.5721
31.9777
32.3788
32.7529
33.1121
33.4478
33.7615
34.0474
34.3025
34.5212
34.6983
34.8295
34.9113
34.9447
34.9385
34.9184
34.9247
34.9548
34.9678
34.9398
34.8624
34.7352
34.5613
34.3453
34.0922
33.8075
33.4944
33.158
32.7973
32.4205
32.0157
31.6052
31.1491
30.7142
30.1815
29.7573
31.0015
31.3924
31.9076
32.3306
32.784
33.1986
33.6125
34.0036
34.3821
34.7395
35.0758
35.3852
35.6635
35.9045
36.1028
36.2527
36.3508
36.3972
36.4005
36.3854
36.3916
36.4165
36.4202
36.3791
36.2855
36.1395
35.9446
35.7063
35.4301
35.1219
34.786
34.4281
34.048
33.6542
33.2365
32.8168
32.3575
31.9274
31.4051
31.0063
32.124
32.4926
33.0013
33.4237
33.8813
34.3054
34.7315
35.138
35.5335
35.9094
36.2651
36.5942
36.8919
37.1514
37.3667
37.5319
37.6426
37.6986
37.7082
37.6959
37.7021
37.7242
37.7215
37.6708
37.5646
37.4035
37.1915
36.9347
36.6391
36.3112
35.9559
35.5793
35.1822
34.7729
34.343
33.9138
33.45
33.0206
32.5045
32.1282
33.1411
33.489
33.9935
34.4154
34.8773
35.3097
35.7462
36.1657
36.5756
36.9672
37.3388
37.684
37.9972
38.2716
38.5003
38.6771
38.7975
38.8607
38.8746
38.8638
38.87
38.8906
38.8837
38.8258
38.7099
38.5371
38.3116
38.04
37.7287
37.3848
37.0135
36.6213
36.2099
35.7874
35.347
34.9093
34.4412
34.0119
33.5003
33.1447
34.0638
34.3898
34.8891
35.3099
35.775
36.2144
36.6597
37.0901
37.5118
37.9161
38.3007
38.6589
38.9845
39.2705
39.5098
39.6958
39.8238
39.8928
39.9106
39.9018
39.908
39.9268
39.9158
39.852
39.7286
39.5465
39.3105
39.0272
38.7035
38.3466
37.9624
37.5574
37.134
36.7007
36.2513
35.8066
35.3353
34.9069
34.4005
34.067
34.8937
35.1952
35.6872
36.1061
36.5734
37.0187
37.4713
37.9109
38.3424
38.7573
39.1524
39.5209
39.8564
40.1517
40.3994
40.5929
40.7275
40.8022
40.825
40.8195
40.8257
40.841
40.8251
40.7557
40.6256
40.4361
40.1917
39.8991
39.5656
39.1983
38.8035
38.3879
37.9547
37.5121
37.0553
36.6046
36.131
35.7045
35.2052
34.8964
35.6292
35.9024
36.3844
36.8003
37.2691
37.7195
38.1787
38.6267
39.0667
39.4905
39.8944
40.2713
40.6148
40.9174
41.172
41.3718
41.5124
41.5934
41.6227
41.6227
41.6287
41.6385
41.6163
41.5407
41.4046
41.2087
40.9575
40.6576
40.3161
39.9404
39.5367
39.1123
38.6704
38.2194
37.7559
37.2999
36.8248
36.4013
35.9118
35.6317
36.2703
36.5081
36.9767
37.3882
37.8576
38.3132
38.779
39.2347
39.6828
40.1147
40.5262
40.9104
41.2606
41.5693
41.8297
42.0352
42.182
42.2701
42.3073
42.314
42.3198
42.3227
42.2927
42.2103
42.0682
41.8666
41.6096
41.3037
40.9554
40.5725
40.1611
39.7286
39.2784
38.8196
38.3495
37.8883
37.4121
36.9927
36.5169
36.2721
36.8188
37.0097
37.459
37.8642
38.3337
38.7943
39.2668
39.7307
40.1868
40.6265
41.0454
41.4362
41.7923
42.1065
42.3721
42.5832
42.7362
42.8318
42.8776
42.8914
42.8969
42.8929
42.8544
42.7646
42.6164
42.4095
42.1473
41.8358
41.4817
41.0922
40.6736
40.233
39.7748
39.3078
38.8307
38.3642
37.8875
37.4742
37.0169
36.8189
37.2789
37.4039
37.8257
38.2208
38.6892
39.155
39.6348
40.1072
40.5719
41.0197
41.4458
41.8431
42.2049
42.5244
42.795
43.0115
43.1708
43.274
43.3282
43.3485
43.3539
43.3432
43.2966
43.1996
43.0452
42.833
42.5659
42.2493
41.8895
41.4934
41.0674
40.6187
40.152
39.6762
39.1917
38.7197
38.2437
37.8395
37.4089
37.2763
37.6581
37.6886
38.0668
38.4485
38.9136
39.3844
39.8716
40.3533
40.8271
41.2835
41.7174
42.1213
42.4891
42.8138
43.0896
43.3114
43.4769
43.5873
43.6491
43.675
43.6803
43.6641
43.61
43.506
43.3458
43.1284
42.8563
42.5345
42.1689
41.766
41.3324
40.8749
40.399
39.9138
39.4215
38.944
38.4706
38.0787
37.6904
37.6514
37.9648
37.865
38.1762
38.5348
38.9939
39.4688
39.9636
40.4551
40.9386
41.4044
41.8465
42.2577
42.6317
42.962
43.243
43.4702
43.6417
43.7587
43.8273
43.8577
43.863
43.8422
43.7817
43.6715
43.5055
43.2829
43.0058
42.6784
42.3066
41.8964
41.4546
40.9877
40.5018
40.0066
39.5063
39.0239
38.5549
38.185
37.8625
37.9531
38.1946
37.9321
38.15
38.4704
38.9178
39.395
39.8966
40.3978
40.8915
41.3671
41.8181
42.2371
42.6178
42.9541
43.2406
43.4732
43.6503
43.7732
43.8475
43.8817
43.887
43.8627
43.7968
43.6809
43.5095
43.2817
42.9992
42.6659
42.2874
41.8695
41.4187
40.9419
40.4456
39.9403
39.4324
38.9462
38.4879
38.1556
37.9261
38.1806
38.3201
37.8813
37.986
38.2515
38.6772
39.1544
39.6609
40.171
40.6741
41.1595
41.6195
42.0466
42.4343
42.7767
43.0687
43.3066
43.4889
43.617
43.6957
43.7331
43.7385
43.7112
43.641
43.5203
43.344
43.111
42.8231
42.4837
42.0982
41.6723
41.2123
40.7256
40.2197
39.7049
39.1913
38.704
38.2663
37.9885
37.8729
38.3078
38.3102
37.6984
37.6822
37.8807
38.2743
38.7447
39.2555
39.7727
40.2843
40.7783
41.2464
41.6809
42.0751
42.4233
42.7204
42.963
43.1496
43.2817
43.364
43.4036
43.4092
43.3799
43.3065
43.1818
43.0014
42.7639
42.4708
42.1257
41.7336
41.3001
40.8319
40.3362
39.8211
39.2983
38.7785
38.2967
37.8897
37.6768
37.6789
38.2827
38.0569
37.3333
37.2274
37.3677
37.729
38.1885
38.7001
39.2208
39.738
40.2376
40.7116
41.1514
41.5505
41.9028
42.2034
42.4491
42.6385
42.773
42.8573
42.8982
42.904
42.8737
42.7985
42.6714
42.4883
42.2475
41.9508
41.6014
41.2042
40.765
40.2905
39.7884
39.2668
38.7386
38.2171
37.7461
37.3714
37.2177
37.3107
38.0293
37.5831
36.8012
36.6439
36.7435
37.0782
37.5241
38.0323
38.5556
39.0748
39.577
40.0532
40.495
40.8957
41.2492
41.5507
41.7969
41.9864
42.1208
42.2049
42.2458
42.2517
42.2217
42.1468
42.0197
41.8361
41.5946
41.2967
40.9456
40.5463
40.1045
39.627
39.1215
38.5969
38.0649
37.5458
37.0876
36.7396
36.6278
36.7757
37.5593
36.955
36.1611
35.9909
36.0735
36.3937
36.8292
37.3319
37.853
38.3696
38.8695
39.3431
39.7822
40.18
40.5304
40.8285
41.0711
41.257
41.3876
41.4684
41.5075
41.5137
41.4858
41.414
41.2903
41.1098
40.8712
40.5758
40.227
39.8295
39.3895
38.9136
38.4095
37.8865
37.3559
36.8424
36.396
36.066
35.9779
36.1497
36.9604
36.3303
35.5539
35.3947
35.475
35.7881
36.214
36.7074
37.2203
37.7288
38.2207
38.6863
39.1175
39.5072
39.8496
40.1396
40.3741
40.5516
40.6741
40.7478
40.7826
40.7892
40.7661
40.7012
40.5849
40.4119
40.1804
39.892
39.5502
39.1598
38.7265
38.2576
37.7604
37.2449
36.7224
36.2191
35.7853
35.4683
35.3924
35.5689
36.3833
35.843
35.116
34.987
35.0781
35.39
35.8066
36.2869
36.7851
37.2794
37.7572
38.2089
38.6261
39.0022
39.3311
39.6078
39.8288
39.9929
40.1022
40.1636
40.191
40.1986
40.1841
40.1312
40.0275
39.8668
39.6476
39.3715
39.0422
38.6643
38.2439
37.7879
37.3039
36.8018
36.2939
35.8052
35.384
35.0757
35.0024
35.1716
35.9732
35.7182
35.0284
34.9192
35.0127
35.3157
35.7152
36.1737
36.648
37.1209
37.5782
38.0103
38.4086
38.7664
39.0775
39.337
39.5413
39.6887
39.7809
39.8261
39.8423
39.8518
39.8501
39.8135
39.726
39.5813
39.3783
39.1188
38.8067
38.4468
38.0452
37.6086
37.1453
36.6649
36.1811
35.7144
35.3104
35.0088
34.9273
35.0602
35.796
36.0133
35.355
35.2609
35.3473
35.6311
36.0015
36.4262
36.8677
37.3102
37.7391
38.1445
38.5179
38.8521
39.1412
39.3801
39.5651
39.6939
39.7676
39.7943
39.797
39.8105
39.8269
39.8103
39.7426
39.6177
39.4352
39.1975
38.9084
38.5728
38.1964
37.7858
37.3489
36.8945
36.4363
35.9877
35.5886
35.2704
35.1421
35.1841
35.7737
36.5439
35.9492
35.8839
35.9648
36.2259
36.5611
36.9476
37.353
37.7615
38.1587
38.5346
38.8804
39.1895
39.4556
39.6737
39.8397
39.9511
40.0081
40.0179
40.0056
40.0205
40.0509
40.0491
39.9959
39.886
39.7196
39.4991
39.2285
38.9125
38.5567
38.1678
37.7536
37.3241
36.8932
36.476
36.1082
35.8193
35.7192
35.7889
36.4116
37.1218
36.5407
36.4792
36.5541
36.8006
37.1157
37.4823
37.8673
38.256
38.6338
38.9911
39.3196
39.6124
39.8638
40.0688
40.2236
40.3253
40.3742
40.377
40.3604
40.3825
40.4272
40.4406
40.4036
40.3118
40.1654
39.9672
39.7209
39.4313
39.1038
38.7448
38.3623
37.9658
37.5689
37.1862
36.8498
36.5809
36.4861
36.5309
37.1033
37.6884
37.0648
36.9685
37.0095
37.2272
37.519
37.8667
38.2357
38.6104
38.9759
39.322
39.6405
39.9244
40.168
40.3662
40.5153
40.6125
40.658
40.6581
40.6398
40.6639
40.7141
40.7343
40.7052
40.6223
40.4858
40.2982
40.0632
39.7853
39.4695
39.1221
38.7505
38.3634
37.9737
37.5946
37.2561
36.9764
36.8569
36.8633
37.3748
43.4837
51.3029
57.5307
63.6567
68.9453
73.2352
76.6725
79.4509
81.7257
83.6312
85.287
86.7697
88.1167
89.3617
90.5358
91.6694
92.7932
93.9354
95.1195
96.3628
97.6748
99.0578
100.509
102.021
103.582
105.183
106.804
108.425
110.005
111.477
112.692
113.413
42.7655
50.3013
56.3305
62.3167
67.5326
71.7883
75.2084
77.9795
80.2547
82.1668
83.8311
85.3173
86.6554
87.8862
89.042
90.1542
91.2544
92.3717
93.5302
94.7464
96.0296
97.3824
98.8017
100.28
101.808
103.371
104.955
106.538
108.08
109.516
110.701
111.403
41.9832
49.2695
55.1108
60.9566
66.0983
70.3214
73.7288
76.4996
78.7843
80.7121
82.3904
83.8822
85.2173
86.438
87.5781
88.6711
89.7496
90.8435
91.976
93.1652
94.4204
95.7436
97.1316
98.5773
100.07
101.599
103.145
104.69
106.194
107.594
108.75
109.433
41.1643
48.2167
53.8711
59.574
64.6423
68.8386
72.242
75.0224
77.3276
79.2802
80.9777
82.4781
83.8142
85.025
86.1514
87.2267
88.2851
89.3562
90.4658
91.63
92.8579
94.1524
95.51
96.9234
98.3824
99.8747
101.384
102.892
104.358
105.723
106.849
107.513
40.3088
47.1372
52.6022
58.1573
63.152
67.3272
70.7354
73.5352
75.8695
77.8529
79.5745
81.0892
82.4321
83.6422
84.7599
85.8217
86.8625
87.9144
89.0009
90.1403
91.3427
92.6098
93.9382
95.3206
96.7469
98.2048
99.679
101.149
102.579
103.909
105.006
105.653
39.4302
46.0379
51.3075
56.7089
61.6314
65.7949
69.2207
72.0519
74.4248
76.4463
78.1963
79.7278
81.0807
82.2928
83.4038
84.4539
85.4799
86.5128
87.5802
88.6986
89.8766
91.1173
92.4173
93.7695
95.1632
96.5869
98.0255
99.4594
100.853
102.149
103.217
103.846
38.5098
44.9013
49.9684
55.2073
60.0552
64.2131
67.6672
70.5401
72.9589
75.0221
76.8061
78.3646
79.7362
80.9614
82.0759
83.1216
84.1365
85.1564
86.2048
87.3012
88.4567
89.6727
90.9458
92.2687
93.632
95.0231
96.4272
97.8259
99.1839
100.446
101.487
102.098
37.5653
43.7376
48.5909
53.6559
58.4276
62.5911
66.0911
69.0214
71.4986
73.616
75.4419
77.0279
78.4202
79.6569
80.7786
81.8218
82.8304
83.8369
84.8714
85.9518
87.0862
88.2786
89.5256
90.8201
92.152
93.51
94.8792
96.2427
97.5655
98.795
99.8076
100.402
36.5517
42.5075
47.136
52.0126
56.6999
60.8724
64.4297
67.4323
69.9799
72.1553
74.0294
75.6605
77.0884
78.3554
79.4943
80.5488
81.5561
82.5588
83.5804
84.6424
85.758
86.9285
88.151
89.4183
90.7211
92.0478
93.3844
94.7132
96.0012
97.198
98.1848
98.7613
35.4974
41.2279
45.6168
50.284
54.8765
59.0689
62.7104
65.8103
68.4467
70.704
72.6459
74.3208
75.7835
77.0716
78.2297
79.2931
80.3082
81.3075
82.3224
83.3753
84.474
85.6239
86.8223
88.0624
89.3348
90.6282
91.9288
93.2228
94.4756
95.6392
96.5989
97.1589
34.3033
39.82
43.9605
48.3993
52.8792
57.0851
60.8166
64.0357
66.7917
69.1424
71.1556
72.9034
74.425
75.7683
76.9621
78.0527
79.0768
80.0835
81.0943
82.1336
83.218
84.3493
85.5249
86.7386
87.982
89.245
90.514
91.7726
92.9902
94.1222
95.0563
95.5983
33.015
38.3188
42.1871
46.358
50.6926
54.9181
58.7913
62.1821
65.0816
67.5635
69.6948
71.5143
73.0937
74.4703
75.6974
76.8092
77.8577
78.8702
79.8831
80.9225
81.9952
83.1088
84.2626
85.4501
86.663
87.891
89.1217
90.3459
91.5277
92.6258
93.5334
94.0587
31.4923
36.5991
40.187
44.0712
48.2383
52.4565
56.4353
60.0063
63.1274
65.785
68.0307
69.9735
71.6477
73.1169
74.407
75.57
76.6385
77.6718
78.6905
79.7206
80.7839
81.8829
83.0157
84.1781
85.3627
86.5612
87.7623
88.9485
90.0956
91.1616
92.0427
92.5502
29.7819
34.6951
37.9634
41.4652
45.3481
49.5261
53.7509
57.6583
61.0268
63.9084
66.3833
68.4515
70.2267
71.7502
73.0943
74.2925
75.4091
76.4616
77.4935
78.5361
79.5944
80.6793
81.7929
82.9295
84.0826
85.2433
86.4013
87.5544
88.6614
89.693
90.5492
91.0387
27.6173
32.3765
35.3476
38.5086
42.1748
46.305
50.5208
54.6218
58.4361
61.6903
64.3554
66.6496
68.5882
70.269
71.7179
73.0069
74.1578
75.2487
76.2999
77.3376
78.3921
79.4674
80.5617
81.6738
82.7988
83.9307
85.061
86.1717
87.2444
88.2413
89.0692
89.5414
25.0119
29.6648
32.2753
34.8059
37.7194
41.455
46.288
51.191
55.4078
59.08
62.2765
64.8283
66.9642
68.7403
70.2835
71.6242
72.8588
73.9889
75.0682
76.1367
77.1953
78.2599
79.338
80.4243
81.5149
82.6035
83.6838
84.7612
85.7861
86.7471
87.5515
88.0043
21.2724
25.9532
28.3089
30.5747
33.5896
37.622
41.3654
46.0452
51.4385
55.979
59.4664
62.4749
64.9141
66.9881
68.7116
70.2167
71.5078
72.7011
73.8189
74.8861
75.9476
77.0092
78.0691
79.1302
80.1925
81.2517
82.3049
83.3334
84.327
85.2477
86.0201
86.4545
16.4943
21.6291
23.8615
25.1925
25.6793
25.7358
33.5225
40.5407
45.7801
51.3509
56.355
59.9432
62.8582
65.1176
67.0236
68.6072
70.0427
71.3084
72.4764
73.6032
74.6822
75.7363
76.7826
77.8172
78.8387
79.8458
80.8396
81.8319
82.7607
83.6401
84.3927
84.8063
4.96432
11.6431
13.5041
13.9361
15.9381
17.6408
16.5688
25.6607
39.0298
46.1675
51.4359
56.3656
59.8692
62.7753
65.0364
66.9423
68.4776
69.8475
71.0845
72.2117
73.3011
74.3624
75.3916
76.3965
77.3892
78.3636
79.3274
80.2606
81.1638
81.9999
82.7101
83.1033
5.21699
11.8138
13.2755
14.5632
16.3888
11.8404
12.3171
13.6963
19.1994
36.8726
46.692
51.8803
56.8354
60.1668
62.8224
64.8644
66.6671
68.174
69.5006
70.7394
71.8685
72.9232
73.9405
74.9172
75.8557
76.7627
77.6527
78.544
79.3515
80.1226
80.8287
81.1962
11.1035
15.5062
16.5833
16.4567
15.3409
12.3277
16.6739
20.1992
15.5456
8.81631
29.7941
45.7095
51.3775
56.4231
59.9017
62.6558
64.6607
66.3567
67.8091
69.0465
70.1952
71.2766
72.2784
73.2149
74.1229
74.9895
75.8467
76.6526
77.4423
78.1865
78.8155
79.164
19.619
24.0281
25.9018
26.708
26.3419
24.5995
21.1535
18.5665
14.0741
18.7797
25.6212
28.7803
46.1188
52.0302
56.5465
59.5681
62.1303
64.1023
65.7287
67.1853
68.4197
69.4885
70.4782
71.3802
72.2067
72.972
73.716
74.4856
75.1242
75.7253
76.4036
76.7107
21.949
26.9327
29.6336
31.6163
32.7814
32.9881
31.9238
29.0143
24.2916
23.1188
27.757
29.0456
31.2427
45.0978
51.3107
56.1466
59.1547
61.534
63.4147
64.8601
66.1254
67.2654
68.2428
69.0815
69.8725
70.5846
71.3267
71.9158
72.5426
73.182
73.7003
73.9926
22.8077
27.8973
30.8194
33.1632
34.8861
35.9647
36.3469
35.832
33.7381
28.7636
27.1932
30.7085
32.7361
32.85
45.5236
50.6771
55.0599
58.0206
60.2666
62.194
63.6519
64.7531
65.7177
66.4979
67.147
67.6674
68.1471
68.7762
69.1427
69.4367
70.125
70.3582
22.2222
27.4504
30.5338
33.1094
35.1359
36.6026
37.5084
37.8355
37.4482
35.6793
30.7532
27.0178
28.6776
32.5886
31.4338
44.2263
49.6994
53.7566
56.6232
58.4704
59.9669
61.2432
62.196
62.8627
63.4573
63.9087
64.6186
64.7186
65.0689
65.5563
65.9621
66.1404
20.7286
26.0911
29.2668
31.9782
34.1997
35.9311
37.1961
38.0321
38.4646
38.4109
37.3393
33.6801
26.8199
32.9697
30.3679
31.8038
42.4238
47.3904
50.936
54.0882
56.0584
57.1841
58.1395
58.6513
58.9491
58.9164
58.7527
59.2411
59.1286
58.7115
59.4837
59.7402
18.7422
24.1916
27.3887
30.1446
32.4542
34.3351
35.8178
36.9606
37.8433
38.5214
38.9069
38.4452
35.2317
30.6938
31.7408
28.6099
28.328
38.6412
44.6662
46.984
48.8458
50.4705
51.3134
51.7485
51.7158
51.7248
53.3007
51.9237
51.7588
51.5674
52.7382
52.1706
16.4879
21.9073
25.0219
27.7166
30.0144
31.9558
33.5862
34.9639
36.1751
37.303
38.3569
39.1279
38.8478
35.4296
26.5443
29.9885
24.8736
24.1322
30.3135
39.1698
42.4388
43.4208
44.4764
44.3729
43.6742
41.5533
40.4262
39.8258
38.3696
37.3533
35.9379
38.7373
14.2416
19.4894
22.4172
24.9492
27.1407
29.054
30.7497
32.2923
33.7594
35.2333
36.7429
38.1911
39.2212
38.9159
35.3674
31.3722
30.4149
14.5006
21.939
19.2519
23.945
24.3564
24.6034
27.111
20.7968
29.8284
26.3896
25.3354
41.7387
4.52231
31.3082
43.2254
12.2823
17.2431
19.9135
22.2147
24.2341
26.0517
27.7377
29.3583
30.9799
32.6685
34.4646
36.3234
38.0521
39.1968
38.9402
35.4792
29.4701
23.996
27.8979
25.6285
4.35438
27.405
20.8239
31.5021
19.3786
42.6151
33.3051
31.118
39.2497
25.0522
36.8012
39.5943
10.7838
15.3956
17.7975
19.8556
21.6849
23.3772
25.0056
26.6301
28.3016
30.0664
31.9654
34.0035
36.0927
37.9636
39.1283
38.3625
36.1276
31.3314
29.3169
27.528
25.0282
34.923
22.3088
36.4529
29.7713
37.4267
32.6499
39.0946
33.2644
31.0747
33.5974
30.4345
9.68781
14.0591
16.2376
18.0956
19.769
21.3519
22.91
24.4887
26.1223
27.8426
29.6863
31.6883
33.8487
36.0529
37.9939
39.0552
39.1801
37.6151
33.129
28.7374
28.0498
33.1952
29.5335
28.0057
34.873
36.8765
34.0148
35.2175
40.0001
38.3708
40.4196
41.6103
9.11399
13.3023
15.3274
17.0592
18.6411
20.1573
21.6566
23.1663
24.7061
26.2999
27.9828
29.8008
31.7954
33.9654
36.1906
38.1157
39.4721
39.7768
38.8132
37.3422
35.7181
37.1957
37.6727
36.8448
41.2828
42.5994
40.3989
40.7473
43.3147
41.8721
44.2837
44.7407
8.95877
13.0658
15.0265
16.7158
18.2747
19.7713
21.235
22.6772
24.1086
25.55
27.0346
28.6076
30.3224
32.2281
34.3309
36.5104
38.5381
39.9214
40.4452
40.371
39.5725
40.8404
40.9101
40.7034
42.6109
43.3209
42.1341
42.1469
43.1278
42.2987
44.3966
44.6217
9.14852
13.2511
15.2186
16.9325
18.5216
20.0357
21.4882
22.881
24.221
25.5269
26.8289
28.1663
29.588
31.1527
32.918
34.8983
37.0215
38.9608
40.3648
41.0578
40.9015
41.8468
41.6931
41.6067
42.4714
42.7625