/*--------------------------------*- C++ -*----------------------------------*\
  =========                 |
  \\      /  F ield         | OpenFOAM: The Open Source CFD Toolbox
   \\    /   O peration     | Website:  https://openfoam.org
    \\  /    A nd           | Version:  6
     \\/     M anipulation  |
\*---------------------------------------------------------------------------*/
FoamFile
{
    version     2.0;
    format      ascii;
    class       volScalarField;
    location    "48";
    object      yPlus;
}
// * * * * * * * * * * * * * * * * * * * * * * * * * * * * * * * * * * * * * //

dimensions      [0 0 0 0 0 0 0];

internalField   uniform 0;

boundaryField
{
    inlet
    {
        type            calculated;
        value           uniform 0;
    }
    outlet
    {
        type            calculated;
        value           uniform 0;
    }
    roughCylinder
    {
        type            calculated;
        value           nonuniform List<scalar> 
5120
(
43.4913
51.3121
57.5415
63.669
68.959
73.2501
76.6884
79.4674
81.7424
83.648
85.3036
86.786
88.1326
89.3774
90.5513
91.6848
92.8083
93.9503
95.1341
96.3771
97.6887
99.0712
100.522
102.033
103.595
105.194
106.816
108.436
110.017
111.49
112.704
113.424
42.7868
50.3209
56.3498
62.3358
67.5513
71.8062
75.2254
77.9957
80.2704
82.1824
83.8468
85.3332
86.6715
87.9023
89.058
90.1699
91.2699
92.3867
93.5449
94.7606
96.0434
97.3958
98.8145
100.292
101.82
103.383
104.967
106.549
108.091
109.529
110.713
111.414
41.9884
49.2768
55.1198
60.9674
66.1107
70.3356
73.7449
76.5172
78.8029
80.7307
82.4086
83.8997
85.234
86.4543
87.5941
88.6867
89.7651
90.8585
91.9907
93.1795
94.4342
95.757
97.1447
98.5897
100.082
101.61
103.156
104.701
106.206
107.608
108.761
109.443
41.1892
48.2396
53.8938
59.5964
64.6641
68.8591
72.2604
75.0386
77.3422
79.2943
80.9922
82.4935
83.8304
85.0415
86.1678
87.243
88.3008
89.3715
90.4806
91.6443
92.8718
94.1657
95.5228
96.9357
98.394
99.8857
101.396
102.903
104.37
105.737
106.86
107.524
40.3107
47.1414
52.6082
58.1649
63.1615
67.3391
70.7505
73.5539
75.891
77.8754
79.5963
81.1092
82.4502
83.6591
84.7761
85.8374
86.8781
87.9297
89.0157
90.1548
91.3566
92.623
93.9509
95.3328
96.7585
98.2162
99.6893
101.16
102.59
103.923
105.017
105.663
39.4594
46.0652
51.3351
56.7366
61.6586
65.8205
69.2431
72.0697
74.4383
76.4573
78.2074
79.7409
81.0961
82.3093
83.4206
84.4707
85.4958
86.5283
87.5952
88.7128
89.8903
91.1305
92.4298
93.7811
95.1742
96.5973
98.0361
99.4699
100.864
102.163
103.228
103.856
38.508
44.9017
49.9698
55.2099
60.0593
64.2198
67.6782
70.5573
72.9825
75.0499
76.8342
78.3897
79.7573
80.9796
82.0927
83.1373
84.1523
85.1718
86.2196
87.3157
88.4705
89.6857
90.9582
92.2807
93.6434
95.0339
96.4369
97.8368
99.1954
100.461
101.498
102.108
37.5995
43.7704
48.6247
53.6911
58.4632
62.6256
66.1214
69.0445
71.5132
73.6238
75.4477
77.036
78.4328
79.6728
80.7956
81.8392
82.8466
83.8524
84.8864
85.9658
87.0997
88.2915
89.5378
90.8314
92.1623
93.5198
94.8897
96.2526
97.5765
98.8101
99.8193
100.412
36.5462
42.5034
47.1318
52.0082
56.6958
60.8703
64.4331
67.4448
70.0034
72.1876
74.0649
75.6931
77.1148
78.3761
79.5118
80.5645
81.572
82.5742
83.5951
84.6568
85.7715
86.9412
88.1629
89.4296
90.7318
92.058
93.3931
94.7235
96.0122
97.2142
98.1952
98.7703
35.5367
41.267
45.6588
50.3299
54.9253
59.1177
62.7536
65.8425
68.4651
70.7107
72.6474
74.3236
75.7918
77.0855
78.2468
79.3113
80.3247
81.3231
82.3374
83.389
84.4871
85.6364
86.8339
88.073
89.3442
90.6369
91.9388
93.2318
94.4857
95.6558
96.61
97.1675
34.2947
39.8114
43.9491
48.384
52.8603
57.0666
60.8066
64.0412
66.8149
69.1794
71.1973
72.9427
74.4576
75.7933
76.981
78.068
79.0927
80.0987
81.1084
82.1477
83.2311
84.3612
85.5359
86.7492
87.9918
89.2538
90.52
91.7815
93.0007
94.1392
95.0661
95.606
33.06
38.3652
42.2406
46.4225
50.7685
54.9984
58.8603
62.2276
65.1026
67.5665
69.6931
71.5154
73.0998
74.4819
75.7141
76.8289
77.8745
78.8857
79.8981
80.9355
82.0074
83.1206
84.2733
85.4595
86.6709
87.8989
89.1312
90.3535
91.5365
92.6452
93.5441
94.066
31.4803
36.5843
40.1631
44.0307
48.1773
52.386
56.3862
59.9976
63.1553
65.8366
68.0836
70.017
71.683
73.1455
74.4279
75.5844
76.6539
77.6866
78.7036
79.7339
80.7961
81.8936
83.0255
84.1875
85.3709
86.5674
87.7645
88.9553
90.1052
91.1798
92.0525
92.5563
29.8318
34.7491
38.0353
41.5728
45.5057
49.7178
53.9066
57.7418
61.0509
63.895
66.3665
68.4502
70.2358
71.7626
73.111
74.3144
75.427
76.4772
77.5085
78.5483
79.6054
80.69
81.8023
82.9373
84.0887
85.25
86.4108
87.5603
88.6689
89.7175
90.5583
91.0444
27.5976
32.3514
35.2968
38.3964
41.9611
46.0037
50.2995
54.5432
58.4574
61.7719
64.4457
66.7115
68.6259
70.2977
71.7401
73.0191
74.1715
75.2626
76.3114
77.3496
78.4031
79.4762
80.5694
81.6817
82.8048
83.9331
85.0571
86.1751
87.2529
88.2617
89.0795
89.5451
25.0532
29.7114
32.3635
35.0016
38.1341
42.1559
46.8152
51.4329
55.4873
59.0549
62.2128
64.7948
66.969
68.758
70.3029
71.6508
72.8795
74.0045
75.0828
76.1473
77.2043
78.2691
79.3458
80.4296
81.5182
82.6083
83.6925
84.7647
85.7929
86.779
87.5586
88.0063
21.222
25.9165
28.225
30.4112
33.1192
36.1874
40.3421
45.6657
51.3413
56.0576
59.6424
62.6197
64.9844
67.0182
68.7316
70.2225
71.516
72.7125
73.828
74.8962
75.9568
77.0153
78.0734
79.1364
80.1953
81.2496
82.2933
83.3321
84.3305
85.2723
86.0301
86.4558
16.4337
21.4182
23.6932
24.2899
23.9013
28.8477
35.3088
41.1711
46.1695
51.4153
56.1862
59.7748
62.8023
65.1317
67.0499
68.6447
70.0709
71.3248
72.4892
73.6106
74.6874
75.743
76.7883
77.8186
78.8376
79.847
80.8445
81.8299
82.7689
83.6834
84.3989
84.8021
7.70746
12.1831
13.8212
15.8594
15.2814
13.6006
15.197
26.3736
38.4842
46.1437
51.881
56.7956
60.0859
62.836
65.0503
66.9302
68.4703
69.8527
71.0907
72.2195
73.308
74.3641
75.3897
76.4008
77.3869
78.3556
79.3061
80.2559
81.1576
82.0339
82.7171
83.1007
3.03901
8.31358
9.71291
12.4744
13.1518
11.022
18.1591
20.4085
20.0826
36.2801
45.6454
51.2234
56.5464
60.1221
62.8571
64.9273
66.7157
68.1924
69.5057
70.738
71.8656
72.9262
73.9436
74.9132
75.8479
76.7575
77.6478
78.5281
79.3644
80.1858
80.8353
81.1842
12.379
16.9097
18.4075
18.804
17.5012
17.1099
8.23773
19.3369
21.0339
12.854
33.9484
46.8405
52.0206
56.6082
59.8985
62.5932
64.6076
66.3471
67.8173
69.0529
70.2006
71.2711
72.2645
73.2162
74.1116
74.9726
75.8059
76.6532
77.4212
78.2386
78.8174
79.152
19.9485
24.4051
26.3095
27.1532
27.0009
25.6894
23.5991
17.5228
18.2912
19.6961
21.7452
31.829
45.3783
51.7164
56.5834
59.6965
62.2406
64.125
65.7009
67.1587
68.3964
69.486
70.4791
71.3692
72.1867
72.9564
73.6972
74.4316
75.1428
75.8292
76.4086
76.6902
22.2166
27.1858
29.8957
31.9046
33.1207
33.4077
32.5251
30.1616
25.2524
27.3365
17.3469
26.1398
30.6136
45.237
51.1181
55.8957
58.945
61.4839
63.4543
64.8736
66.1325
67.2453
68.2001
69.077
69.844
70.5557
71.2184
71.9583
72.4991
73.2752
73.7033
73.9625
22.8566
27.9368
30.8547
33.2013
34.9382
36.0411
36.4462
35.9316
33.9014
29.3863
25.2249
19.6748
10.0434
31.6127
45.5775
51.0498
55.4064
58.0636
60.1161
62.0833
63.5768
64.745
65.7216
66.4786
67.0988
67.6271
68.1279
68.6192
69.169
69.6355
70.1164
70.3171
22.2347
27.4446
30.5145
33.0775
35.0916
36.5431
37.4241
37.703
37.2221
35.43
31.5001
31.527
15.8179
14.2709
30.2064
43.2637
48.7977
53.5534
56.8132
58.5323
59.9823
61.1887
62.0819
62.8412
63.39
63.8894
64.2225
64.9376
64.9697
65.763
66.0254
66.1035
20.7733
26.1184
29.2825
31.9813
34.1845
35.8873
37.1053
37.865
38.1864
38.015
36.9534
33.9615
26.7264
21.2626
17.5659
33.4205
44.1589
47.6077
50.323
53.6291
55.8293
57.1895
58.1639
58.6238
58.814
58.7728
58.829
58.8318
59.1761
59.1815
59.4666
59.5438
18.8744
24.3091
27.5006
30.2502
32.5467
34.4014
35.8386
36.9074
37.6731
38.1843
38.3835
37.7138
34.9369
29.7749
22.5829
9.28618
21.9679
37.6022
45.4948
47.3388
48.8905
50.2621
51.0325
51.5352
51.5415
51.9643
51.3133
52.867
51.2892
52.2059
53.5337
52.6144
16.7
22.1204
25.2423
27.9423
30.2376
32.1635
33.7608
35.083
36.208
37.2108
38.1028
38.7169
38.4199
34.6765
27.9026
12.8465
15.3571
23.7526
30.4319
36.7836
41.7648
43.6665
44.8515
43.8995
43.2277
41.2887
39.9611
40.5603
39.9607
38.6295
37.6128
35.8222
14.4854
19.7572
22.7079
25.259
27.4611
29.3733
31.0539
32.5661
33.9851
35.3894
36.8109
38.1596
39.1159
38.7016
34.8404
24.6576
31.5194
17.4001
7.05898
19.9189
22.6913
23.4898
25.7971
30.6355
17.8694
23.1216
27.3404
26.9254
44.4276
17.6705
34.6151
32.5066
12.5082
17.5098
20.2127
22.5417
24.5808
26.4083
28.0942
29.7057
31.3105
32.9748
34.744
36.5742
38.2605
39.315
38.8439
35.219
31.6784
15.4458
25.041
28.0578
29.1285
20.1259
21.2905
39.9784
17.1197
26.0944
42.8904
33.315
33.1205
27.7077
42.9651
36.4174
10.9637
15.6191
18.0536
20.1393
21.9895
23.6964
25.3344
26.966
28.6456
30.4226
32.3426
34.4121
36.5341
38.4117
39.5163
39.2142
35.7525
30.5535
28.0465
19.0092
25.382
34.5501
32.4757
33.3159
28.9172
35.8225
37.791
36.4841
35.169
38.7891
42.9572
30.4362
9.81253
14.2227
16.4268
18.3053
19.9944
21.5901
23.1608
24.7553
26.4117
28.1663
30.0598
32.129
34.3699
36.6505
38.6233
39.7754
39.2899
38.272
33.3726
32.0006
28.6778
37.033
28.2006
31.5376
35.013
34.4664
40.0438
32.893
41.6746
37.4799
34.645
40.1866
9.19339
13.4094
15.4498
17.1925
18.7829
20.3081
21.8197
23.3478
24.9149
26.5484
28.2867
30.1792
32.2706
34.5521
36.8726
38.8702
39.948
40.3957
38.7165
38.8746
37.3404
36.5317
34.8947
40.2791
41.6607
40.4871
44.42
38.731
43.295
40.3114
40.3654
43.7205
9.00559
13.1306
15.0977
16.7904
18.3526
19.8552
21.3299
22.7898
24.2464
25.7217
27.2518
28.8857
30.6819
32.6901
34.9017
37.1634
39.089
40.4647
40.5146
40.9882
40.581
40.4784
39.5441
42.4318
42.9751
42.2635
44.5384
41.1814
42.533
41.3507
42.5509
44.0389
9.17586
13.2893
15.258
16.971
18.5606
20.0796
21.5415
22.9487
24.3081
25.6392
26.9739
28.3544
29.833
31.4708
33.3204
35.3748
37.4734
39.3701
40.4984
41.3943
41.5525
41.774
41.1237
42.6433
42.8914
42.3229
43.4089
41.3125
41.0209
41.0611
42.4186
43.1212
9.60381
13.7582
15.7779
17.5585
19.2132
20.7768
22.251
23.6316
24.9244
26.1482
27.3318
28.5101
29.7238
31.0237
32.4695
34.1111
35.935
37.8229
39.413
40.6958
41.3225
41.729
41.3555
41.9929
41.9035
41.2535
41.5083
40.0746
39.3151
39.8293
41.0757
41.4512
10.234
14.4595
16.5542
18.4231
20.1582
21.7792
23.28
24.6552
25.9122
27.0708
28.1573
29.1996
30.2265
31.2737
32.3882
33.625
35.0239
36.5717
38.0989
39.4622
40.3315
40.8557
40.6565
40.7979
40.4374
39.6566
39.4327
38.3357
37.6971
38.2981
39.4212
39.7036
11.0139
15.3384
17.5206
19.4839
21.3008
22.9799
24.5118
25.8936
27.1367
28.2636
29.2991
30.2651
31.1801
32.0653
32.9512
33.8796
34.8962
36.0277
37.2241
38.377
39.2254
39.7409
39.6407
39.5096
38.9831
38.1443
37.6859
36.8258
36.491
37.059
38.0681
38.3646
11.8526
16.3455
18.6236
20.681
22.5757
24.3093
25.8731
27.2687
28.5132
29.6321
30.6492
31.5827
32.443
33.2402
33.9905
34.7193
35.4605
36.2458
37.0742
37.8933
38.5381
38.9213
38.8277
38.539
37.9333
37.1026
36.5643
35.8988
35.8403
36.3777
37.3114
37.6627
12.8346
17.449
19.8209
21.9691
23.9366
25.7212
27.3167
28.731
29.9872
31.1139
32.1344
33.0631
33.9058
34.6655
35.3482
35.9661
36.5379
37.0854
37.6208
38.1247
38.5076
38.6911
38.524
38.1241
37.4802
36.6867
36.1444
35.6418
35.7817
36.3153
37.2048
37.6177
13.6295
14.0502
14.5347
14.9239
15.3005
15.5994
15.8603
16.0622
16.2239
16.3375
16.414
16.4515
16.4542
16.4234
16.3632
16.2762
16.1645
16.0338
15.8951
15.7783
15.7753
15.8898
16.0264
16.1545
16.2629
16.3464
16.4029
16.4302
16.4238
16.3828
16.3032
16.1866
16.0221
15.8177
15.5545
15.2527
14.8743
14.4836
13.9981
13.5789
18.3754
18.8121
19.3163
19.7236
20.1182
20.4387
20.7225
20.9491
21.1368
21.278
21.3825
21.4488
21.4797
21.4754
21.4381
21.3696
21.2712
21.1468
21.0069
20.8828
20.8762
20.9945
21.1305
21.2507
21.3448
21.4089
21.4419
21.4423
21.4076
21.338
21.2306
21.0868
20.8969
20.6682
20.3828
20.0602
19.6642
19.2559
18.7507
18.3155
20.8298
21.2916
21.8257
22.2586
22.6817
23.033
23.3515
23.6157
23.8439
24.0285
24.1777
24.2905
24.3683
24.4101
24.4158
24.3864
24.3222
24.2257
24.1063
23.9938
23.986
24.0904
24.2042
24.2951
24.3537
24.3777
24.3669
24.3207
24.2387
24.1226
23.9706
23.7837
23.5537
23.288
22.9686
22.6161
22.192
21.7584
21.2234
20.7628
23.0413
23.5222
24.0794
24.5321
24.98
25.359
25.7098
26.0099
26.2775
26.505
26.6986
26.8572
26.9818
27.0698
27.1199
27.1312
27.1034
27.0385
26.9455
26.8539
26.846
26.9275
27.0128
27.0705
27.0913
27.0735
27.0176
26.9243
26.7952
26.633
26.4366
26.207
25.9383
25.6374
25.2865
24.9073
24.4594
24.0066
23.4491
22.9695
25.0474
25.5327
26.098
26.5577
27.0179
27.4125
27.7838
28.1088
28.4046
28.6648
28.8945
29.0907
29.2537
29.3799
29.4671
29.5131
29.517
29.4803
29.4127
29.3427
29.335
29.3934
29.4517
29.4798
29.4679
29.4144
29.3205
29.1883
29.0204
28.8204
28.588
28.3261
28.0297
27.7048
27.3343
26.9405
26.4815
26.023
25.4584
24.9749
26.8479
27.3215
27.8812
28.3359
28.7971
29.1975
29.5799
29.9226
30.2414
30.5287
30.7883
31.0165
31.2122
31.3711
31.49
31.5659
31.5971
31.5849
31.539
31.4865
31.479
31.5188
31.5543
31.5568
31.5166
31.4323
31.3059
31.1406
30.9395
30.7074
30.445
30.1564
29.8376
29.4961
29.1155
28.7174
28.2589
27.8068
27.2494
26.7785
28.4437
28.8946
29.4412
29.8855
30.3434
30.7473
31.1405
31.5001
31.8403
32.1527
32.4399
32.6971
32.9221
33.1102
33.2572
33.3592
33.4138
33.4223
33.3937
33.3534
33.3459
33.3726
33.3897
33.3707
33.3062
33.1951
33.04
32.8449
32.6142
32.3527
32.0629
31.7496
31.4099
31.0521
30.6621
30.2622
29.8088
29.3691
28.8264
28.3797
29.8518
30.2763
30.8095
31.245
31.7023
32.1137
32.5193
32.8967
33.2577
33.5939
33.9065
34.1902
34.4417
34.6557
34.8271
34.9516
35.026
35.0511
35.0352
35.003
34.9951
35.0132
35.0166
34.9801
34.8951
34.7608
34.5807
34.3592
34.1016
33.8135
33.4982
33.1611
32.801
32.4262
32.0246
31.6187
31.1678
30.739
30.2118
29.7935
31.1024
31.5022
32.0262
32.4577
32.9187
33.3399
33.7588
34.1535
34.534
34.8918
35.2271
35.534
35.8085
36.0446
36.2368
36.3799
36.4702
36.5079
36.5011
36.4736
36.4654
36.4779
36.4716
36.4216
36.3199
36.1664
35.9648
35.7206
35.4397
35.128
34.7899
34.4312
34.0519
33.6603
33.2463
32.8318
32.3785
31.9557
31.44
31.0486
32.2269
32.6053
33.1236
33.5552
34.021
34.452
34.8834
35.2937
35.6913
36.0678
36.4224
36.7489
37.0427
37.297
37.506
37.6639
37.7665
37.8135
37.8126
37.7874
37.7787
37.7881
37.775
37.715
37.6003
37.4312
37.2122
36.9493
36.6487
36.3171
35.9595
35.5821
35.1859
34.7791
34.3532
33.9297
33.4728
33.0515
32.5433
32.1757
33.2472
33.6053
34.1199
34.5517
35.0222
35.4618
35.9039
36.3273
36.7393
37.1314
37.5019
37.8444
38.1535
38.4225
38.6447
38.814
38.9258
38.9796
38.9826
38.9585
38.9494
38.9567
38.9388
38.8713
38.7465
38.5654
38.3325
38.0545
37.738
37.3901
37.0164
36.6235
36.213
35.7933
35.3572
34.9257
34.4652
34.0449
33.542
33.1964
34.1739
34.5105
35.0203
35.4514
35.9254
36.3722
36.8231
37.2576
37.6815
38.0862
38.4696
38.8249
39.1462
39.4266
39.659
39.8372
39.9563
40.0155
40.0221
39.9994
39.9897
39.9946
39.9723
39.8983
39.7655
39.5748
39.3311
39.041
38.7118
38.3509
37.9642
37.5584
37.1362
36.7058
36.2613
35.8232
35.36
34.9415
34.4449
34.1226
35.0084
35.3208
35.8236
36.2531
36.7293
37.1821
37.6407
38.0844
38.518
38.9333
39.327
39.6925
40.0236
40.3129
40.5534
40.7387
40.8639
40.9285
40.9395
40.9198
40.9096
40.9105
40.8826
40.8024
40.6626
40.4639
40.2114
39.9118
39.5724
39.201
38.8036
38.3874
37.9553
37.5159
37.0643
36.6209
36.1563
35.7404
35.2522
34.9559
35.7494
36.0333
36.5264
36.953
37.4309
37.8889
38.3542
38.806
39.2484
39.6724
40.0748
40.4486
40.7873
41.0837
41.3307
41.5219
41.6528
41.7231
41.74
41.7252
41.7144
41.7093
41.6743
41.5873
41.4408
41.2354
40.9757
40.6684
40.3209
39.9408
39.5346
39.1095
38.669
38.2216
37.7638
37.3157
36.8503
36.4387
35.9616
35.6957
36.3962
36.645
37.1246
37.5466
38.0255
38.4886
38.9605
39.4202
39.8706
40.3026
40.7126
41.0934
41.4385
41.7407
41.9931
42.1897
42.3262
42.4028
42.427
42.4184
42.407
42.3944
42.3508
42.2562
42.1031
41.8914
41.6255
41.3118
40.9574
40.5699
40.1561
39.7228
39.2745
38.8196
38.3557
37.9034
37.4381
37.0322
36.5707
36.3426
36.9509
37.1524
37.6128
38.0284
38.5075
38.9759
39.4545
39.9224
40.3806
40.8206
41.2377
41.6249
41.9758
42.2831
42.5404
42.7419
42.8841
42.9675
42.9996
42.9973
42.9854
42.9649
42.912
42.8093
42.6494
42.4317
42.1601
41.8406
41.4801
41.0859
40.6648
40.2239
39.7677
39.3052
38.8353
38.3788
37.9146
37.517
37.0771
36.8993
37.4173
37.5524
37.985
38.3907
38.8687
39.3423
39.8282
40.3049
40.7717
41.2197
41.644
42.0375
42.3939
42.7062
42.9682
43.1745
43.3223
43.4125
43.4521
43.4556
43.4429
43.4152
43.3532
43.2422
43.0754
42.8518
42.5748
42.2498
41.8833
41.4827
41.0543
40.6055
40.1413
39.6709
39.1946
38.7342
38.2731
37.888
37.4791
37.3714
37.8029
37.8422
38.2309
38.623
39.0979
39.5767
40.0704
40.5565
41.0325
41.4893
41.9213
42.3215
42.6835
43.0007
43.2674
43.4785
43.6318
43.7283
43.7747
43.783
43.7696
43.7354
43.6649
43.5461
43.3725
43.1432
42.8606
42.53
42.1576
41.7502
41.3142
40.8571
40.3845
39.9056
39.423
38.9595
38.5043
38.1364
37.7755
37.7684
38.115
38.0222
38.3432
38.7119
39.1813
39.6648
40.1665
40.6627
41.149
41.6152
42.0557
42.4631
42.8313
43.1538
43.4253
43.6412
43.7998
43.902
43.9541
43.9662
43.9519
43.9122
43.8343
43.7082
43.5281
43.2928
43.0047
42.6684
42.2896
41.8749
41.431
40.9649
40.4832
39.9956
39.5072
39.0419
38.5964
38.2564
37.9683
38.0983
38.347
38.0887
38.3158
38.6465
39.105
39.5922
40.1018
40.6086
41.1056
41.5821
42.0316
42.4471
42.8219
43.1503
43.4269
43.6477
43.8112
43.9186
43.9754
43.9903
43.9751
43.9307
43.8464
43.7137
43.5273
43.2862
42.9923
42.6498
42.2642
41.8418
41.3892
40.9139
40.4229
39.9268
39.4334
38.9688
38.5387
38.2421
38.0541
38.3555
38.4565
38.0232
38.14
38.4192
38.8592
39.3491
39.8655
40.3826
40.8902
41.3772
41.8363
42.26
42.6421
42.9764
43.2584
43.484
43.6521
43.7638
43.8242
43.8412
43.8251
43.7768
43.6872
43.5486
43.3565
43.1097
42.8098
42.461
42.0683
41.638
41.1768
40.6922
40.1923
39.6884
39.1916
38.7292
38.3235
38.0853
38.0148
38.4975
38.3858
37.7994
37.8086
38.03
38.4439
38.9313
39.4559
39.9825
40.5
40.9969
41.4648
41.8965
42.2854
42.6256
42.9125
43.1425
43.3144
43.4294
43.4925
43.5106
43.4935
43.4422
43.3482
43.2049
43.0079
42.7559
42.4507
42.0959
41.6967
41.259
40.7898
40.2969
39.789
39.2786
38.7785
38.323
37.9491
37.7767
37.8244
38.4743
38.1122
37.4108
37.3319
37.4987
37.8839
38.3633
38.8916
39.4252
39.9504
40.4546
40.9295
41.3673
41.7615
42.1062
42.3967
42.6297
42.8039
42.9208
42.985
43.0035
42.9853
42.9318
42.835
42.6886
42.4881
42.2325
41.9232
41.564
41.1597
40.7166
40.2415
39.7427
39.2293
38.715
38.2132
37.7673
37.4237
37.3068
37.4405
38.1974
37.6313
36.8672
36.7346
36.8605
37.2202
37.688
38.2149
38.7531
39.2821
39.7902
40.2683
40.709
41.1054
41.4517
41.7432
41.9767
42.1509
42.2672
42.3304
42.3478
42.3284
42.2739
42.1764
42.0291
41.8278
41.571
41.2604
40.8993
40.4929
40.0473
39.5693
39.0673
38.5507
38.0323
37.5316
37.0963
36.7768
36.6986
36.8864
37.711
37.057
36.2549
36.0925
36.1906
36.5301
36.9849
37.5059
38.0425
38.5699
39.0766
39.5532
39.9921
40.3863
40.7301
41.0187
41.2488
41.4192
41.5316
41.5908
41.6051
41.5844
41.5303
41.4348
41.2902
41.0914
40.8373
40.529
40.1702
39.7658
39.3219
38.8456
38.3449
37.8295
37.3116
36.8146
36.388
36.0813
36.0187
36.2174
37.0522
36.4626
35.6613
35.4987
35.588
35.9171
36.3613
36.8729
37.402
37.922
38.4215
38.8909
39.3223
39.7089
40.045
40.3257
40.5477
40.7097
40.8135
40.8647
40.873
40.8504
40.7991
40.7094
40.5717
40.3802
40.1331
39.8319
39.4801
39.0825
38.6452
38.1753
37.6802
37.1699
36.6559
36.1623
35.7378
35.4282
35.3532
35.5223
36.31
35.9682
35.2192
35.0869
35.1845
35.5103
35.9439
36.4419
36.9563
37.4627
37.9487
38.4046
38.8228
39.1963
39.5193
39.787
39.9961
40.145
40.2354
40.2739
40.2722
40.2469
40.2012
40.1218
39.9958
39.8162
39.5809
39.2915
38.9515
38.566
38.1408
37.6827
37.1997
36.7011
36.199
35.7162
35.299
34.9897
34.9053
35.0486
35.7991
35.7298
35.0608
34.9779
35.0969
35.4257
35.8487
36.3288
36.8214
37.3069
37.7721
38.2078
38.6061
38.9602
39.2645
39.514
39.7053
39.8366
39.9094
39.93
39.9138
39.8844
39.8478
39.7835
39.6736
39.5099
39.2906
39.0174
38.694
38.3253
37.9171
37.4761
37.0097
36.527
36.0399
35.567
35.1504
34.8273
34.7068
34.7853
35.4317
35.9779
35.3046
35.22
35.334
35.6514
36.0577
36.516
36.9843
37.4473
37.8907
38.3054
38.6831
39.0174
39.3025
39.5338
39.7075
39.8216
39.8769
39.8793
39.8465
39.813
39.7894
39.7435
39.652
39.5065
39.3059
39.0526
38.7506
38.4049
38.0216
37.6073
37.1704
36.7203
36.2707
35.836
35.4536
35.1546
35.0444
35.1021
35.6946
36.3795
35.8253
35.8053
35.9364
36.2459
36.6259
37.0501
37.4835
37.9125
38.3233
38.7071
39.0556
39.3628
39.6227
39.8309
39.9837
40.0785
40.1154
40.0994
40.0482
40.0066
39.9937
39.9628
39.8861
39.756
39.572
39.3367
39.0538
38.7288
38.367
37.9756
37.5624
37.1372
36.7139
36.3078
35.9508
35.6714
35.5739
35.6376
36.2319
36.8567
36.3379
36.3415
36.4861
36.7977
37.1708
37.5815
37.9997
38.4117
38.805
39.1707
39.5016
39.7916
40.0355
40.2287
40.3678
40.4505
40.4765
40.4503
40.3895
40.345
40.3412
40.3217
40.2574
40.141
39.9723
39.7541
39.4905
39.1863
38.8475
38.4809
38.0947
37.6992
37.309
36.9404
36.6269
36.39
36.3359
36.4383
37.083
37.3143
36.8679
36.9042
37.0482
37.3449
37.6939
38.0798
38.473
38.8615
39.2326
39.5777
39.8896
40.1623
40.3905
40.5698
40.6968
40.769
40.7859
40.7521
40.6845
40.6358
40.634
40.619
40.5607
40.4515
40.2916
40.0835
39.8313
39.5396
39.2145
38.8627
38.4922
38.1129
37.7397
37.3881
37.0917
36.8691
36.8219
36.917
37.5411
43.5061
51.3273
57.5566
63.6832
68.9717
73.261
76.6977
79.4757
81.7501
83.6555
85.3114
86.794
88.1406
89.3856
90.5598
91.6937
92.8179
93.9607
95.1455
96.3896
97.7024
99.0863
100.538
102.051
103.615
105.217
106.84
108.463
110.046
111.517
112.735
113.45
42.7921
50.3294
56.36
62.3468
67.5621
71.8167
75.2354
78.005
80.2789
82.1901
83.854
85.3402
86.6788
87.9101
89.0665
90.1792
91.2798
92.3976
93.5567
94.7736
96.0577
97.4115
98.8321
100.312
101.84
103.406
104.992
106.576
108.122
109.557
110.745
111.44
42.0075
49.296
55.1387
60.9852
66.1265
70.349
73.756
76.5264
78.811
80.7389
82.4173
83.9089
85.2434
86.4637
87.6036
88.6965
89.7754
90.8698
92.003
93.1929
94.449
95.7732
97.1622
98.6093
100.104
101.634
103.183
104.729
106.238
107.636
108.794
109.47
41.1958
48.2495
53.9056
59.6089
64.6764
68.8711
72.2725
75.0507
77.3541
79.3055
81.0022
82.5023
83.8386
85.05
86.1771
87.2532
88.3118
89.3834
90.4936
91.6583
92.8872
94.1827
95.5415
96.9565
98.4173
99.9114
101.424
102.932
104.404
105.766
106.895
107.552
40.3355
47.1665
52.6333
58.1888
63.1829
67.3575
70.7654
73.5653
75.8999
77.8836
79.6052
81.1193
82.4613
83.6705
84.7875
85.8486
86.8898
87.9421
89.0291
90.1694
91.3727
92.6407
93.9703
95.3544
96.7825
98.2421
99.7189
101.191
102.626
103.954
105.054
105.692
39.4679
46.0776
51.3494
56.7517
61.6732
65.8344
69.2571
72.0846
74.4545
76.4738
78.2225
79.7537
81.107
82.3195
83.4311
84.4821
85.5083
86.5416
87.6096
88.7285
89.9073
91.1491
92.4504
93.8038
95.1998
96.6257
98.0667
99.5018
100.902
102.195
103.266
103.886
38.5406
44.935
50.0038
55.243
60.0897
64.2465
67.7006
70.5747
72.9949
75.0587
76.8425
78.3998
79.7695
80.9931
82.1065
83.1508
84.1658
85.1859
86.2345
87.3319
88.4883
89.7052
90.9797
92.3042
93.6692
95.0625
96.4699
97.8706
99.2344
100.494
101.538
102.14
37.6121
43.7872
48.6439
53.7111
58.4822
62.6427
66.1374
69.0612
71.5323
73.6456
75.4698
77.0555
78.4488
79.6866
80.8085
81.8526
82.8612
83.8678
84.903
85.9835
87.1188
88.3123
89.5607
90.8568
92.1907
93.5513
94.9242
96.2884
97.6186
98.8446
99.8613
100.443
36.5887
42.5474
47.1775
52.0536
56.7385
60.9089
64.4669
67.4729
70.0245
72.2017
74.0748
75.7032
77.1275
78.3911
79.5285
80.5812
81.5882
82.591
83.6122
84.6752
85.7916
86.9632
88.1871
89.4561
90.7609
92.0897
93.43
94.7612
96.0566
97.2505
98.2402
98.8044
35.5576
41.2924
45.6874
50.3596
54.9535
59.1424
62.7747
65.8614
68.485
70.7342
72.6742
74.3503
75.8153
77.106
78.2644
79.3282
80.3425
81.3415
82.357
83.4097
84.5092
85.6603
86.86
88.1019
89.3767
90.6729
91.9785
93.2723
94.5349
95.694
96.6582
97.2015
34.3497
39.8686
44.0093
48.4451
52.9194
57.1209
60.8551
64.0838
66.8507
69.2067
71.2168
72.9575
74.4723
75.8092
77
78.0885
79.1126
80.1194
81.1292
82.1697
83.2548
84.387
85.5643
86.78
88.0256
89.2905
90.563
91.8252
93.0527
94.1818
95.1174
95.6439
33.0958
38.4063
42.2859
46.4693
50.8125
55.037
58.8924
62.2535
65.1247
67.5891
69.7182
71.5445
73.1298
74.5117
75.7401
76.8516
77.8977
78.9087
79.9222
80.9607
82.0341
83.1492
84.3041
85.4936
86.7089
87.9407
89.178
90.401
91.5959
92.6878
93.601
94.1035
31.5527
36.6595
40.2441
44.1179
48.2678
52.4712
56.4595
60.0607
63.21
65.8819
68.1234
70.0479
71.7068
73.1642
74.4487
75.6092
76.6785
77.7126
78.7297
79.7612
80.825
81.9248
83.0598
84.2243
85.4115
86.6121
87.8152
89.0074
90.1663
91.2299
92.1119
92.5986
29.8969
34.819
38.1075
41.6381
45.5535
49.7566
53.9467
57.7772
61.0803
63.9253
66.3895
68.4753
70.2679
71.8025
73.1493
74.3467
75.4586
76.507
77.5389
78.5794
79.6384
80.7251
81.8395
82.9786
84.1339
85.2987
86.4671
87.6172
88.7436
89.7651
90.628
91.0864
27.7064
32.4618
35.4253
38.5683
42.1919
46.2269
50.4586
54.6591
58.5458
61.8282
64.5034
66.7657
68.6685
70.3259
71.7649
73.0491
74.2021
75.2956
76.3449
77.3847
78.4395
79.5148
80.6122
81.727
82.8552
83.9903
85.1185
86.2378
87.3265
88.322
89.15
89.5927
25.2264
29.8784
32.5011
35.0276
37.9376
41.9469
46.7639
51.4441
55.5087
59.1196
62.2626
64.8318
67.0072
68.808
70.3566
71.6974
72.9235
74.0449
75.1225
76.1866
77.2458
78.3134
79.3917
80.4809
81.5729
82.6647
83.7622
84.834
85.8886
86.8359
87.6453
88.0551
21.497
26.1531
28.5358
31.026
34.4757
37.544
41.0007
45.9513
51.5353
56.1084
59.6757
62.6654
65.0397
67.0654
68.769
70.2624
71.556
72.7552
73.8717
74.9426
76.004
77.0644
78.1285
79.1934
80.2603
81.3273
82.3694
83.4109
84.423
85.3446
86.1181
86.5092
17.5996
22.5046
24.5986
25.1845
22.1459
26.3339
34.6586
41.3034
46.1138
51.5502
56.361
59.9274
62.8972
65.2005
67.1209
68.7097
70.1328
71.3816
72.5436
73.6619
74.7409
75.8006
76.8463
77.8842
78.9053
79.911
80.9335
81.9156
82.8943
83.7568
84.5073
84.8608
7.96653
13.1262
14.7768
15.8422
11.2096
18.7681
13.2782
22.7819
38.4001
46.0958
51.7363
56.6575
60.0907
62.9206
65.1244
66.9965
68.5287
69.9104
71.1486
72.2821
73.3715
74.4287
75.4634
76.4754
77.4736
78.4673
79.4034
80.3598
81.2804
82.12
82.8343
83.161
3.07926
7.38517
10.2601
12.7109
16.2267
16.865
18.7493
18.2431
22.1929
36.6962
46.3097
51.95
56.8876
60.2271
62.9402
65.0071
66.8016
68.2764
69.5861
70.8091
71.9369
73.0037
74.019
75.0004
75.9348
76.8308
77.7665
78.6345
79.5319
80.2864
80.9747
81.2578
9.97451
14.7138
16.3521
17.3103
17.5449
16.8569
20.0758
19.7399
9.0964
16.9456
33.4387
45.7549
51.8385
56.8455
60.095
62.7427
64.7119
66.4304
67.8944
69.1394
70.2898
71.361
72.3689
73.319
74.2316
75.1373
75.936
76.7971
77.595
78.3467
78.9814
79.2225
19.322
23.7123
25.4909
26.1529
25.655
23.9892
22.1645
12.9491
16.6043
25.6805
22.7914
33.9335
46.1712
51.756
56.6143
59.7441
62.3446
64.2588
65.8381
67.2676
68.4974
69.5952
70.5802
71.4924
72.3076
73.0531
73.8675
74.5716
75.3787
75.9732
76.6057
76.7864
21.8763
26.8674
29.5659
31.541
32.7074
32.9406
31.9284
29.5865
23.7551
24.7141
27.7198
22.3699
33.4922
46.6007
51.7691
56.3218
59.1974
61.624
63.5495
64.9952
66.2656
67.3828
68.3646
69.2302
70.018
70.795
71.4047
72.1518
72.767
73.4292
73.9285
74.0555
22.8097
27.9026
30.8283
33.1817
34.9281
36.0478
36.4863
36.0355
34.0164
28.615
26.8823
30.8255
21.8857
30.948
45.1237
50.7648
55.4362
58.2877
60.4067
62.2818
63.7334
64.9103
65.857
66.6706
67.2905
67.804
68.4038
68.8375
69.5257
69.8552
70.4622
70.4453
22.2798
27.5027
30.5868
33.1706
35.2176
36.7224
37.6893
38.1044
37.832
36.283
31.9984
28.0554
16.5014
16.0865
31.3374
44.6384
49.6796
53.9003
56.885
58.6938
60.1953
61.4329
62.3852
63.1042
63.6707
64.2046
64.5253
65.1166
65.4476
66.0228
66.2456
66.2547
20.8147
26.1718
29.3488
32.0668
34.3019
36.056
37.3555
38.2423
38.7504
38.8106
37.9411
34.7043
27.177
24.573
20.7102
31.9082
43.0242
47.8003
51.1403
54.106
56.0982
57.4622
58.3315
58.9583
59.1675
59.2578
59.3631
59.2518
59.6946
59.5705
60.318
59.6829
18.8718
24.319
27.5216
30.2869
32.6094
34.5058
36.0061
37.1681
38.0698
38.7667
39.1697
38.7013
35.418
32.4507
25.6684
34.6577
30.7261
39.5854
44.9476
47.3812
49.2168
50.8678
51.7274
52.0574
52.2296
51.9309
51.8452
52.1351
52.388
52.7156
52.4178
52.8795
16.6488
22.078
25.2071
27.9188
30.2344
32.1928
33.8389
35.2294
36.4477
37.5742
38.6173
39.3703
39.074
35.8531
27.0908
27.1012
28.0506
22.972
33.2818
38.7929
42.1638
43.8078
44.8721
44.5883
43.4889
43.1796
41.6574
40.3736
38.9017
39.726
41.8837
35.8945
14.3985
19.6704
22.6222
25.1792
27.3943
29.329
31.0428
32.5996
34.074
35.5456
37.046
38.478
39.4899
39.1916
36.0321
26.4062
20.7486
26.4121
27.5829
17.2839
21.5328
31.7569
26.7498
25.8341
26.7798
16.9948
14.1994
1.89876
21.7503
17.7663
45.8321
29.4331
12.4117
17.4036
20.1021
22.4322
24.4792
26.3221
28.0309
29.6713
31.3087
33.0072
34.8112
36.6771
38.4098
39.5675
39.3783
35.3997
29.7108
15.2141
13.0243
23.141
15.1333
38.9801
27.5277
3.09685
34.7023
34.1451
16.861
10.732
30.5277
25.3827
36.1265
34.9016
10.8789
15.5204
17.9491
20.0348
21.891
23.6092
25.2624
26.9105
28.6053
30.3933
32.32
34.3914
36.5196
38.4398
39.6847
39.3436
36.3439
31.5313
24.734
30.4309
19.6649
33.5959
34.8408
26.4896
35.2843
25.5423
34.7442
30.3255
37.6989
31.9411
31.3732
33.8776
9.75359
14.1502
16.3511
18.2323
19.9287
21.5344
23.1154
24.7175
26.3767
28.1268
30.0074
32.056
34.2728
36.5401
38.5418
39.7447
39.6487
38.673
35.1335
31.3782
31.4797
26.2948
37.4748
32.1841
33.818
37.0688
37.8693
40.6947
38.5258
37.3933
40.5939
41.2011
9.15953
13.3668
15.4089
17.1589
18.759
20.2937
21.8117
23.3412
24.9037
26.5252
28.243
30.1064
32.161
34.404
36.7014
38.7069
39.9813
40.5943
39.7243
38.5359
38.3742
37.1196
35.4959
39.4597
41.3362
42.5591
42.5104
44.1267
43.4119
41.5421
44.1196
43.9259
8.99248
13.1137
15.0871
16.7905
18.3636
19.8742
21.3518
22.8089
24.257
25.7184
27.2287
28.8358
30.5968
32.5624
34.7317
36.9705
38.9676
40.471
40.9422
40.8995
41.0133
40.8986
40.3247
42.0017
43.0078
43.268
42.9022
43.8959
43.9186
42.022
43.8978
43.5266
9.17857
13.2925
15.27
16.9948
18.5945
20.1186
21.5803
22.9822
24.3326
25.6513
26.9698
28.3291
29.7802
31.3832
33.1928
35.2122
37.3212
39.2867
40.6119
41.326
41.651
41.831
41.8835
42.4031
42.9241
42.852
42.304
42.6326
43.1201
41.4144