/*--------------------------------*- C++ -*----------------------------------*\
  =========                 |
  \\      /  F ield         | OpenFOAM: The Open Source CFD Toolbox
   \\    /   O peration     | Website:  https://openfoam.org
    \\  /    A nd           | Version:  6
     \\/     M anipulation  |
\*---------------------------------------------------------------------------*/
FoamFile
{
    version     2.0;
    format      ascii;
    class       volScalarField;
    location    "1";
    object      nut;
}
// * * * * * * * * * * * * * * * * * * * * * * * * * * * * * * * * * * * * * //

dimensions      [0 2 -1 0 0 0 0];

internalField   nonuniform List<scalar> 
63264
(
3.56725e-07
4.36956e-07
4.28108e-07
3.99859e-07
3.80093e-07
3.68497e-07
3.61992e-07
3.59871e-07
3.58404e-07
3.58558e-07
3.59605e-07
3.58819e-07
3.57279e-07
3.5693e-07
3.57939e-07
3.59546e-07
3.61104e-07
3.62387e-07
3.63444e-07
3.64477e-07
3.65588e-07
3.67047e-07
3.68647e-07
3.70934e-07
3.73135e-07
3.76546e-07
3.79234e-07
3.84468e-07
3.87071e-07
3.95363e-07
3.9699e-07
4.10306e-07
4.09499e-07
4.33782e-07
4.23892e-07
3.75973e-07
4.78032e-07
4.83138e-07
4.62827e-07
4.50939e-07
4.44258e-07
4.3925e-07
4.36075e-07
4.33595e-07
4.32117e-07
4.31477e-07
4.29179e-07
4.25663e-07
4.23091e-07
4.22269e-07
4.22871e-07
4.24339e-07
4.26256e-07
4.2834e-07
4.30485e-07
4.32528e-07
4.34721e-07
4.36709e-07
4.39366e-07
4.41539e-07
4.45318e-07
4.47684e-07
4.53582e-07
4.5572e-07
4.64986e-07
4.658e-07
4.80201e-07
4.78826e-07
5.01342e-07
4.93485e-07
3.91488e-07
5.04713e-07
5.07754e-07
4.80616e-07
4.63528e-07
4.53764e-07
4.46875e-07
4.42937e-07
4.40008e-07
4.3785e-07
4.39005e-07
4.3757e-07
4.3152e-07
4.26685e-07
4.25297e-07
4.26207e-07
4.27905e-07
4.29592e-07
4.31014e-07
4.3222e-07
4.33209e-07
4.34278e-07
4.35228e-07
4.36606e-07
4.38003e-07
4.39869e-07
4.42318e-07
4.44709e-07
4.48817e-07
4.51999e-07
4.57632e-07
4.62427e-07
4.71211e-07
4.76361e-07
4.90523e-07
4.10753e-07
5.38782e-07
5.36971e-07
4.98326e-07
4.72452e-07
4.57692e-07
4.49051e-07
4.44546e-07
4.42168e-07
4.39681e-07
4.40721e-07
4.40252e-07
4.34471e-07
4.29339e-07
4.27713e-07
4.28486e-07
4.29913e-07
4.31012e-07
4.31543e-07
4.31602e-07
4.31455e-07
4.31209e-07
4.31212e-07
4.31223e-07
4.31816e-07
4.32392e-07
4.33678e-07
4.35194e-07
4.37217e-07
4.40131e-07
4.43025e-07
4.47647e-07
4.51369e-07
4.59808e-07
4.63779e-07
4.33152e-07
5.73763e-07
5.65701e-07
5.17993e-07
4.86688e-07
4.688e-07
4.58397e-07
4.52569e-07
4.49313e-07
4.46651e-07
4.46052e-07
4.44762e-07
4.41203e-07
4.37956e-07
4.36526e-07
4.36433e-07
4.36686e-07
4.36655e-07
4.36194e-07
4.35395e-07
4.34505e-07
4.33595e-07
4.32985e-07
4.32449e-07
4.32417e-07
4.32643e-07
4.33006e-07
4.34728e-07
4.34902e-07
4.3939e-07
4.38562e-07
4.47213e-07
4.44191e-07
4.6188e-07
4.53127e-07
4.46637e-07
6.23953e-07
6.39401e-07
5.96421e-07
5.70859e-07
5.57837e-07
5.488e-07
5.41699e-07
5.36266e-07
5.31035e-07
5.27857e-07
5.24372e-07
5.17202e-07
5.10023e-07
5.05666e-07
5.03903e-07
5.03463e-07
5.0337e-07
5.03187e-07
5.02767e-07
5.02155e-07
5.01317e-07
5.00465e-07
4.99531e-07
4.98615e-07
4.98295e-07
4.97088e-07
4.98471e-07
4.96541e-07
5.00556e-07
4.98053e-07
5.04435e-07
5.01071e-07
5.12794e-07
5.07064e-07
4.59075e-07
6.47435e-07
6.61704e-07
6.1281e-07
5.83516e-07
5.6834e-07
5.58286e-07
5.49736e-07
5.4481e-07
5.38183e-07
5.3567e-07
5.38403e-07
5.28477e-07
5.14979e-07
5.07152e-07
5.04822e-07
5.04883e-07
5.05168e-07
5.04861e-07
5.03885e-07
5.02351e-07
5.00495e-07
4.98353e-07
4.96242e-07
4.9398e-07
4.91993e-07
4.90053e-07
4.884e-07
4.87159e-07
4.86145e-07
4.85926e-07
4.85906e-07
4.87031e-07
4.86932e-07
4.92861e-07
4.7504e-07
6.78839e-07
6.88751e-07
6.28375e-07
5.90967e-07
5.71423e-07
5.60148e-07
5.51193e-07
5.4714e-07
5.40266e-07
5.37389e-07
5.42169e-07
5.32552e-07
5.17657e-07
5.08584e-07
5.0562e-07
5.05318e-07
5.05161e-07
5.04166e-07
5.02265e-07
4.99637e-07
4.96638e-07
4.93284e-07
4.90066e-07
4.86507e-07
4.83542e-07
4.80016e-07
4.77533e-07
4.743e-07
4.72337e-07
4.69945e-07
4.68574e-07
4.6682e-07
4.6667e-07
4.66585e-07
4.94246e-07
7.10015e-07
7.13948e-07
6.44705e-07
6.02308e-07
5.80386e-07
5.67365e-07
5.58255e-07
5.52468e-07
5.46456e-07
5.43311e-07
5.41756e-07
5.3446e-07
5.24612e-07
5.1738e-07
5.13518e-07
5.1142e-07
5.09575e-07
5.07229e-07
5.04254e-07
5.007e-07
4.96883e-07
4.92658e-07
4.88732e-07
4.84147e-07
4.80695e-07
4.75743e-07
4.73221e-07
4.67877e-07
4.66551e-07
4.61089e-07
4.61478e-07
4.55074e-07
4.59291e-07
4.51681e-07
5.06458e-07
7.77331e-07
8.11786e-07
7.37127e-07
6.93628e-07
6.74209e-07
6.61441e-07
6.50508e-07
6.40862e-07
6.31747e-07
6.23579e-07
6.15345e-07
6.05665e-07
5.95956e-07
5.87865e-07
5.81718e-07
5.76961e-07
5.72866e-07
5.6887e-07
5.64698e-07
5.60148e-07
5.553e-07
5.49905e-07
5.44492e-07
5.38359e-07
5.32749e-07
5.26135e-07
5.2069e-07
5.13816e-07
5.0888e-07
5.01886e-07
4.98112e-07
4.90102e-07
4.8815e-07
4.80241e-07
5.14717e-07
7.94502e-07
8.29384e-07
7.50192e-07
7.03976e-07
6.83278e-07
6.70041e-07
6.58267e-07
6.49085e-07
6.39311e-07
6.31799e-07
6.30987e-07
6.20572e-07
6.02666e-07
5.88158e-07
5.80023e-07
5.75757e-07
5.72554e-07
5.68951e-07
5.64529e-07
5.59342e-07
5.53476e-07
5.4717e-07
5.40321e-07
5.33412e-07
5.25942e-07
5.1877e-07
5.11045e-07
5.03793e-07
4.96162e-07
4.89035e-07
4.81688e-07
4.75349e-07
4.67436e-07
4.63247e-07
5.23246e-07
8.15544e-07
8.49559e-07
7.622e-07
7.10334e-07
6.86387e-07
6.72636e-07
6.59554e-07
6.52155e-07
6.4173e-07
6.31583e-07
6.43393e-07
6.3408e-07
6.06998e-07
5.85718e-07
5.75625e-07
5.71786e-07
5.69391e-07
5.66179e-07
5.61623e-07
5.55924e-07
5.49305e-07
5.42135e-07
5.34351e-07
5.26493e-07
5.18022e-07
5.09849e-07
5.01014e-07
4.92688e-07
4.83767e-07
4.75444e-07
4.66624e-07
4.58819e-07
4.49379e-07
4.43256e-07
5.36528e-07
8.39456e-07
8.69132e-07
7.73547e-07
7.16724e-07
6.90432e-07
6.7517e-07
6.62368e-07
6.5385e-07
6.43994e-07
6.35844e-07
6.40033e-07
6.31269e-07
6.08819e-07
5.89362e-07
5.7858e-07
5.73343e-07
5.69684e-07
5.6546e-07
5.60032e-07
5.53498e-07
5.46028e-07
5.37988e-07
5.29304e-07
5.20543e-07
5.11134e-07
5.02032e-07
4.92217e-07
4.8291e-07
4.72968e-07
4.63539e-07
4.53778e-07
4.44479e-07
4.34491e-07
4.2604e-07
5.51029e-07
8.65198e-07
8.90358e-07
7.86379e-07
7.24678e-07
6.96141e-07
6.79482e-07
6.66905e-07
6.57271e-07
6.47961e-07
6.40623e-07
6.36571e-07
6.27197e-07
6.11802e-07
5.97389e-07
5.87301e-07
5.80404e-07
5.74564e-07
5.68434e-07
5.61515e-07
5.53801e-07
5.45365e-07
5.3646e-07
5.27015e-07
5.17439e-07
5.07376e-07
4.97337e-07
4.87007e-07
4.76532e-07
4.66248e-07
4.55352e-07
4.45512e-07
4.34297e-07
4.24969e-07
4.13725e-07
5.57972e-07
9.26501e-07
9.81579e-07
8.65806e-07
7.97982e-07
7.69466e-07
7.52197e-07
7.37589e-07
7.24344e-07
7.11889e-07
7.00268e-07
6.8896e-07
6.76422e-07
6.62975e-07
6.50229e-07
6.39106e-07
6.29437e-07
6.20542e-07
6.11775e-07
6.0271e-07
5.93184e-07
5.83073e-07
5.72485e-07
5.61281e-07
5.49784e-07
5.37783e-07
5.25498e-07
5.13203e-07
5.00168e-07
4.8794e-07
4.74389e-07
4.62352e-07
4.48749e-07
4.36555e-07
4.23151e-07
5.60872e-07
9.3267e-07
9.89232e-07
8.7206e-07
8.03325e-07
7.74482e-07
7.57219e-07
7.42318e-07
7.2951e-07
7.17102e-07
7.0617e-07
7.02078e-07
6.91795e-07
6.70642e-07
6.49447e-07
6.34619e-07
6.2499e-07
6.17382e-07
6.0971e-07
6.01167e-07
5.91681e-07
5.81273e-07
5.70257e-07
5.58449e-07
5.46455e-07
5.33642e-07
5.20983e-07
5.07586e-07
4.94394e-07
4.80783e-07
4.67205e-07
4.53686e-07
4.40089e-07
4.26305e-07
4.13298e-07
5.63863e-07
9.40581e-07
9.97192e-07
8.76742e-07
8.05846e-07
7.75847e-07
7.58576e-07
7.43179e-07
7.31308e-07
7.19221e-07
7.06108e-07
7.13021e-07
7.08404e-07
6.78514e-07
6.47784e-07
6.29116e-07
6.19589e-07
6.1327e-07
6.06673e-07
5.9866e-07
5.89264e-07
5.78672e-07
5.67322e-07
5.55107e-07
5.42677e-07
5.29421e-07
5.16283e-07
5.02434e-07
4.88715e-07
4.74621e-07
4.60494e-07
4.4641e-07
4.32251e-07
4.17864e-07
4.04162e-07
5.67865e-07
9.48996e-07
1.00496e-06
8.81486e-07
8.0874e-07
7.77745e-07
7.60092e-07
7.44322e-07
7.32594e-07
7.20599e-07
7.06775e-07
7.15861e-07
7.1281e-07
6.81124e-07
6.48121e-07
6.28269e-07
6.18395e-07
6.12048e-07
6.05446e-07
5.97355e-07
5.87796e-07
5.76968e-07
5.65325e-07
5.52788e-07
5.40005e-07
5.26398e-07
5.12884e-07
4.98669e-07
4.84565e-07
4.70092e-07
4.5557e-07
4.41107e-07
4.26518e-07
4.11825e-07
3.97582e-07
5.73293e-07
9.59467e-07
1.01358e-06
8.86269e-07
8.11233e-07
7.79256e-07
7.60761e-07
7.45442e-07
7.32838e-07
7.20717e-07
7.09855e-07
7.07953e-07
6.99502e-07
6.76166e-07
6.51361e-07
6.34061e-07
6.23302e-07
6.15205e-07
6.07115e-07
5.98007e-07
5.87726e-07
5.76453e-07
5.64324e-07
5.51628e-07
5.38283e-07
5.24719e-07
5.10562e-07
4.96401e-07
4.8178e-07
4.67177e-07
4.52366e-07
4.37518e-07
4.22755e-07
4.07941e-07
3.93241e-07
5.78879e-07
9.69886e-07
1.02156e-06
8.90495e-07
8.13439e-07
7.80529e-07
7.61431e-07
7.46154e-07
7.32979e-07
7.20718e-07
7.0982e-07
7.0101e-07
6.8927e-07
6.72711e-07
6.55733e-07
6.41634e-07
6.30331e-07
6.20337e-07
6.10409e-07
5.99944e-07
5.88754e-07
5.76887e-07
5.64353e-07
5.51368e-07
5.37783e-07
5.24023e-07
5.09678e-07
4.95351e-07
4.80562e-07
4.65813e-07
4.50844e-07
4.35861e-07
4.20939e-07
4.06008e-07
3.91121e-07
3.87734e-06
3.95479e-06
3.92942e-06
3.94179e-06
3.93931e-06
3.92677e-06
3.91245e-06
3.90554e-06
3.90041e-06
3.89709e-06
3.89702e-06
3.89703e-06
3.89605e-06
3.89497e-06
3.89471e-06
3.89546e-06
3.89682e-06
3.89828e-06
3.89939e-06
3.90033e-06
3.90077e-06
3.90191e-06
3.90216e-06
3.90447e-06
3.90433e-06
3.90917e-06
3.90623e-06
3.91727e-06
3.90798e-06
3.9266e-06
3.91276e-06
3.93595e-06
3.91977e-06
3.94802e-06
3.92442e-06
3.92036e-06
3.98702e-06
3.95661e-06
3.97544e-06
3.99022e-06
3.99483e-06
3.99261e-06
3.98891e-06
3.98473e-06
3.98077e-06
3.97911e-06
3.97811e-06
3.97638e-06
3.97397e-06
3.97143e-06
3.9694e-06
3.96824e-06
3.96813e-06
3.96884e-06
3.97035e-06
3.97174e-06
3.97402e-06
3.97481e-06
3.9779e-06
3.97713e-06
3.98277e-06
3.97806e-06
3.98984e-06
3.97913e-06
3.99679e-06
3.98322e-06
4.0038e-06
3.98967e-06
4.01247e-06
3.99663e-06
3.94533e-06
4.01617e-06
3.98424e-06
4.00019e-06
4.01097e-06
4.01183e-06
4.00646e-06
4.0011e-06
3.99708e-06
3.99153e-06
3.98989e-06
3.98941e-06
3.9871e-06
3.98414e-06
3.9815e-06
3.97967e-06
3.97875e-06
3.97869e-06
3.9791e-06
3.97994e-06
3.9805e-06
3.98156e-06
3.98189e-06
3.98271e-06
3.98365e-06
3.98347e-06
3.9859e-06
3.98481e-06
3.98881e-06
3.98686e-06
3.99268e-06
3.99043e-06
3.99886e-06
3.9946e-06
4.00835e-06
3.98011e-06
4.04718e-06
4.01576e-06
4.02881e-06
4.03184e-06
4.02326e-06
4.01202e-06
4.0032e-06
3.99971e-06
3.99421e-06
3.99219e-06
3.99183e-06
3.98964e-06
3.98696e-06
3.98485e-06
3.98367e-06
3.98338e-06
3.98362e-06
3.98403e-06
3.9841e-06
3.98405e-06
3.98333e-06
3.98319e-06
3.98217e-06
3.98226e-06
3.98179e-06
3.98175e-06
3.98215e-06
3.98228e-06
3.98325e-06
3.98376e-06
3.98519e-06
3.98676e-06
3.98833e-06
3.99206e-06
4.02329e-06
4.07602e-06
4.04116e-06
4.05138e-06
4.05133e-06
4.03965e-06
4.0265e-06
4.01639e-06
4.01113e-06
4.00605e-06
4.00318e-06
4.00153e-06
3.9994e-06
3.99727e-06
3.9957e-06
3.99492e-06
3.99474e-06
3.99475e-06
3.99463e-06
3.99403e-06
3.9933e-06
3.99195e-06
3.99115e-06
3.9899e-06
3.98884e-06
3.98947e-06
3.98616e-06
3.99129e-06
3.98319e-06
3.99504e-06
3.98123e-06
3.99857e-06
3.98229e-06
4.00319e-06
3.9839e-06
4.04864e-06
4.0999e-06
4.06274e-06
4.07566e-06
4.08834e-06
4.09122e-06
4.08828e-06
4.08267e-06
4.07815e-06
4.07269e-06
4.06879e-06
4.0662e-06
4.06279e-06
4.05908e-06
4.05566e-06
4.05281e-06
4.05067e-06
4.04917e-06
4.04821e-06
4.04748e-06
4.0471e-06
4.04656e-06
4.0461e-06
4.0461e-06
4.044e-06
4.04666e-06
4.04066e-06
4.0476e-06
4.03824e-06
4.04731e-06
4.03814e-06
4.04647e-06
4.03845e-06
4.04857e-06
4.03934e-06
4.06543e-06
4.11966e-06
4.08045e-06
4.09066e-06
4.10176e-06
4.10305e-06
4.10023e-06
4.09246e-06
4.08944e-06
4.08276e-06
4.07785e-06
4.07672e-06
4.07245e-06
4.06762e-06
4.06377e-06
4.06063e-06
4.05815e-06
4.05638e-06
4.05519e-06
4.05435e-06
4.05347e-06
4.05269e-06
4.05143e-06
4.05042e-06
4.04893e-06
4.04745e-06
4.04623e-06
4.04445e-06
4.04315e-06
4.04192e-06
4.04071e-06
4.03905e-06
4.03983e-06
4.03578e-06
4.04274e-06
4.09027e-06
4.1415e-06
4.10207e-06
4.10978e-06
4.11588e-06
4.11073e-06
4.10409e-06
4.09358e-06
4.09116e-06
4.08469e-06
4.07941e-06
4.07862e-06
4.07435e-06
4.06943e-06
4.06572e-06
4.06277e-06
4.06041e-06
4.05871e-06
4.05747e-06
4.05643e-06
4.05505e-06
4.0537e-06
4.0514e-06
4.04995e-06
4.0468e-06
4.04573e-06
4.042e-06
4.04131e-06
4.03766e-06
4.03622e-06
4.03443e-06
4.03128e-06
4.03056e-06
4.02743e-06
4.02893e-06
4.12297e-06
4.16175e-06
4.11923e-06
4.12433e-06
4.12775e-06
4.12103e-06
4.11191e-06
4.10247e-06
4.09748e-06
4.09178e-06
4.08709e-06
4.08432e-06
4.08068e-06
4.07668e-06
4.0732e-06
4.07027e-06
4.06787e-06
4.06592e-06
4.06417e-06
4.06257e-06
4.06052e-06
4.05875e-06
4.05556e-06
4.05428e-06
4.0494e-06
4.04985e-06
4.04259e-06
4.04564e-06
4.03608e-06
4.04074e-06
4.03085e-06
4.03551e-06
4.02586e-06
4.03049e-06
4.02237e-06
4.14762e-06
4.18573e-06
4.14421e-06
4.14716e-06
4.15706e-06
4.15993e-06
4.15723e-06
4.15185e-06
4.14633e-06
4.14055e-06
4.13531e-06
4.1308e-06
4.12617e-06
4.12148e-06
4.117e-06
4.11284e-06
4.10909e-06
4.10582e-06
4.10293e-06
4.10045e-06
4.09794e-06
4.09594e-06
4.09309e-06
4.09136e-06
4.08763e-06
4.08614e-06
4.08133e-06
4.08056e-06
4.07414e-06
4.07467e-06
4.067e-06
4.0681e-06
4.05992e-06
4.0613e-06
4.05391e-06
4.15773e-06
4.19799e-06
4.15533e-06
4.15635e-06
4.16544e-06
4.16775e-06
4.16542e-06
4.15909e-06
4.15438e-06
4.1483e-06
4.1422e-06
4.13904e-06
4.13377e-06
4.12726e-06
4.12188e-06
4.11749e-06
4.11368e-06
4.11034e-06
4.10742e-06
4.10475e-06
4.10227e-06
4.09949e-06
4.09692e-06
4.09347e-06
4.09069e-06
4.08662e-06
4.08342e-06
4.07909e-06
4.07559e-06
4.07065e-06
4.06759e-06
4.06172e-06
4.05953e-06
4.05188e-06
4.05292e-06
4.16775e-06
4.2117e-06
4.16867e-06
4.16705e-06
4.17352e-06
4.17198e-06
4.1688e-06
4.15926e-06
4.15615e-06
4.15005e-06
4.14218e-06
4.14183e-06
4.13603e-06
4.12754e-06
4.12163e-06
4.11729e-06
4.11341e-06
4.10994e-06
4.10698e-06
4.10436e-06
4.10189e-06
4.09893e-06
4.09605e-06
4.09209e-06
4.08884e-06
4.08409e-06
4.08049e-06
4.0753e-06
4.07149e-06
4.06563e-06
4.06202e-06
4.05536e-06
4.05242e-06
4.0438e-06
4.04369e-06
4.1885e-06
4.22511e-06
4.1803e-06
4.17644e-06
4.18028e-06
4.17672e-06
4.17078e-06
4.16156e-06
4.15682e-06
4.15092e-06
4.14413e-06
4.14177e-06
4.13662e-06
4.12922e-06
4.12337e-06
4.11886e-06
4.11487e-06
4.11126e-06
4.10808e-06
4.10514e-06
4.10228e-06
4.09889e-06
4.09556e-06
4.09108e-06
4.08735e-06
4.08201e-06
4.07792e-06
4.07211e-06
4.06772e-06
4.06147e-06
4.05666e-06
4.05051e-06
4.04512e-06
4.03806e-06
4.03449e-06
4.21128e-06
4.23874e-06
4.1921e-06
4.18622e-06
4.18802e-06
4.18304e-06
4.17493e-06
4.16618e-06
4.16003e-06
4.15419e-06
4.14844e-06
4.14424e-06
4.13924e-06
4.13332e-06
4.12807e-06
4.12369e-06
4.11982e-06
4.11623e-06
4.11283e-06
4.10938e-06
4.10585e-06
4.10183e-06
4.09781e-06
4.09299e-06
4.08843e-06
4.08326e-06
4.07779e-06
4.07285e-06
4.06637e-06
4.06166e-06
4.05409e-06
4.05002e-06
4.04128e-06
4.03685e-06
4.02865e-06
4.22724e-06
4.2578e-06
4.21533e-06
4.20435e-06
4.20771e-06
4.20768e-06
4.20299e-06
4.19638e-06
4.18981e-06
4.18338e-06
4.17726e-06
4.17158e-06
4.16577e-06
4.15991e-06
4.15442e-06
4.14937e-06
4.14465e-06
4.14015e-06
4.13581e-06
4.13148e-06
4.12723e-06
4.12269e-06
4.11828e-06
4.11334e-06
4.10826e-06
4.10341e-06
4.09671e-06
4.09264e-06
4.08443e-06
4.08018e-06
4.0719e-06
4.06651e-06
4.05857e-06
4.05193e-06
4.04438e-06
4.23063e-06
4.26202e-06
4.21942e-06
4.20776e-06
4.2111e-06
4.21121e-06
4.20702e-06
4.20017e-06
4.19397e-06
4.18767e-06
4.18095e-06
4.17643e-06
4.17063e-06
4.16278e-06
4.15586e-06
4.15049e-06
4.14583e-06
4.14141e-06
4.13717e-06
4.13293e-06
4.12876e-06
4.1241e-06
4.11972e-06
4.11423e-06
4.10949e-06
4.10335e-06
4.09782e-06
4.09147e-06
4.08511e-06
4.07833e-06
4.07137e-06
4.0643e-06
4.05676e-06
4.04873e-06
4.04184e-06
4.23401e-06
4.26688e-06
4.22413e-06
4.21134e-06
4.2138e-06
4.21263e-06
4.20833e-06
4.20035e-06
4.19466e-06
4.18885e-06
4.18082e-06
4.17854e-06
4.17333e-06
4.163e-06
4.15467e-06
4.14924e-06
4.14472e-06
4.14033e-06
4.13613e-06
4.13202e-06
4.12799e-06
4.1234e-06
4.11898e-06
4.11335e-06
4.10839e-06
4.10206e-06
4.0962e-06
4.08969e-06
4.08296e-06
4.0759e-06
4.06876e-06
4.06108e-06
4.05351e-06
4.04484e-06
4.03748e-06
4.2395e-06
4.27158e-06
4.22833e-06
4.21443e-06
4.21608e-06
4.2141e-06
4.20943e-06
4.2009e-06
4.19519e-06
4.18946e-06
4.18108e-06
4.17925e-06
4.17429e-06
4.16343e-06
4.15476e-06
4.14925e-06
4.14465e-06
4.14014e-06
4.13582e-06
4.13162e-06
4.12756e-06
4.12294e-06
4.11843e-06
4.11271e-06
4.10759e-06
4.10111e-06
4.09504e-06
4.08833e-06
4.08138e-06
4.07412e-06
4.06666e-06
4.05887e-06
4.05081e-06
4.04217e-06
4.03406e-06
4.24785e-06
4.2766e-06
4.23272e-06
4.21789e-06
4.21849e-06
4.21595e-06
4.20988e-06
4.20184e-06
4.1953e-06
4.18914e-06
4.18225e-06
4.17798e-06
4.17247e-06
4.16406e-06
4.15658e-06
4.15099e-06
4.14621e-06
4.14164e-06
4.13719e-06
4.13282e-06
4.12829e-06
4.12362e-06
4.11836e-06
4.11309e-06
4.10692e-06
4.10105e-06
4.09426e-06
4.08758e-06
4.08045e-06
4.07304e-06
4.06533e-06
4.05735e-06
4.04914e-06
4.04047e-06
4.0317e-06
4.25632e-06
4.28157e-06
4.23683e-06
4.22096e-06
4.22061e-06
4.2174e-06
4.21042e-06
4.20243e-06
4.19543e-06
4.18899e-06
4.18273e-06
4.17728e-06
4.17138e-06
4.16472e-06
4.15855e-06
4.15327e-06
4.14849e-06
4.14389e-06
4.13929e-06
4.1346e-06
4.12966e-06
4.12459e-06
4.11899e-06
4.11349e-06
4.1071e-06
4.1011e-06
4.09415e-06
4.08737e-06
4.08011e-06
4.07261e-06
4.06477e-06
4.05672e-06
4.04836e-06
4.03966e-06
4.03063e-06
8.52689e-06
8.79559e-06
8.69263e-06
8.66684e-06
8.67137e-06
8.67002e-06
8.65233e-06
8.64265e-06
8.63058e-06
8.62e-06
8.61942e-06
8.61792e-06
8.61086e-06
8.60389e-06
8.60141e-06
8.60335e-06
8.60732e-06
8.61135e-06
8.61405e-06
8.6162e-06
8.61637e-06
8.61857e-06
8.61697e-06
8.62187e-06
8.61678e-06
8.62986e-06
8.61218e-06
8.64463e-06
8.60668e-06
8.65645e-06
8.60948e-06
8.66381e-06
8.61423e-06
8.67603e-06
8.61437e-06
8.59387e-06
8.86043e-06
8.74945e-06
8.72715e-06
8.75549e-06
8.78287e-06
8.79129e-06
8.78969e-06
8.78206e-06
8.77174e-06
8.76722e-06
8.76425e-06
8.75815e-06
8.75073e-06
8.7447e-06
8.74098e-06
8.73925e-06
8.73927e-06
8.74025e-06
8.74303e-06
8.74478e-06
8.74978e-06
8.74945e-06
8.7575e-06
8.75089e-06
8.76819e-06
8.74635e-06
8.78222e-06
8.74291e-06
8.79029e-06
8.7471e-06
8.79524e-06
8.75328e-06
8.80366e-06
8.75804e-06
8.64296e-06
8.9157e-06
8.80423e-06
8.77713e-06
8.79804e-06
8.81894e-06
8.82129e-06
8.81614e-06
8.81028e-06
8.79583e-06
8.79202e-06
8.79256e-06
8.78441e-06
8.7727e-06
8.76487e-06
8.76223e-06
8.76264e-06
8.76429e-06
8.76581e-06
8.76798e-06
8.76891e-06
8.77148e-06
8.77208e-06
8.77332e-06
8.77595e-06
8.77332e-06
8.77932e-06
8.77354e-06
8.78236e-06
8.77404e-06
8.78487e-06
8.77616e-06
8.78846e-06
8.78059e-06
8.79276e-06
8.69729e-06
8.97616e-06
8.86718e-06
8.8353e-06
8.84315e-06
8.84601e-06
8.83646e-06
8.82177e-06
8.81661e-06
8.80219e-06
8.79715e-06
8.79875e-06
8.79178e-06
8.78033e-06
8.77283e-06
8.77117e-06
8.77313e-06
8.77601e-06
8.77857e-06
8.77979e-06
8.78089e-06
8.77987e-06
8.78065e-06
8.77864e-06
8.77904e-06
8.77827e-06
8.77723e-06
8.77796e-06
8.77656e-06
8.77787e-06
8.77625e-06
8.77798e-06
8.77663e-06
8.77808e-06
8.78007e-06
8.75756e-06
9.03404e-06
8.91888e-06
8.88041e-06
8.88217e-06
8.87902e-06
8.86621e-06
8.84982e-06
8.84055e-06
8.82866e-06
8.82221e-06
8.81978e-06
8.81404e-06
8.80641e-06
8.80124e-06
8.79985e-06
8.80108e-06
8.80297e-06
8.80451e-06
8.80456e-06
8.8045e-06
8.80245e-06
8.80183e-06
8.80023e-06
8.79701e-06
8.80191e-06
8.78912e-06
8.80844e-06
8.77905e-06
8.81663e-06
8.77273e-06
8.81899e-06
8.77294e-06
8.8209e-06
8.77242e-06
8.79995e-06
9.08309e-06
8.97073e-06
8.93618e-06
8.95568e-06
8.97693e-06
8.98454e-06
8.97897e-06
8.97243e-06
8.96072e-06
8.95199e-06
8.94775e-06
8.94049e-06
8.93055e-06
8.92203e-06
8.91662e-06
8.91382e-06
8.91247e-06
8.91203e-06
8.91163e-06
8.91199e-06
8.91198e-06
8.9115e-06
8.91441e-06
8.90736e-06
8.91997e-06
8.90014e-06
8.92414e-06
8.89698e-06
8.92172e-06
8.89899e-06
8.91865e-06
8.8964e-06
8.9226e-06
8.89298e-06
8.83606e-06
9.12187e-06
9.00699e-06
8.96742e-06
8.9837e-06
9.00119e-06
9.01063e-06
8.99931e-06
8.99794e-06
8.98421e-06
8.97179e-06
8.97348e-06
8.96738e-06
8.95284e-06
8.94048e-06
8.9339e-06
8.93134e-06
8.93056e-06
8.9302e-06
8.93011e-06
8.92959e-06
8.92962e-06
8.92844e-06
8.92818e-06
8.9268e-06
8.92516e-06
8.92418e-06
8.92227e-06
8.91958e-06
8.91936e-06
8.91621e-06
8.91429e-06
8.91442e-06
8.90848e-06
8.91455e-06
8.87572e-06
9.1653e-06
9.05092e-06
9.00702e-06
9.01475e-06
9.01972e-06
9.02183e-06
9.0029e-06
9.00237e-06
8.98923e-06
8.97528e-06
8.97832e-06
8.97373e-06
8.95908e-06
8.94617e-06
8.9395e-06
8.93728e-06
8.937e-06
8.93703e-06
8.93713e-06
8.93606e-06
8.93575e-06
8.93257e-06
8.93273e-06
8.92719e-06
8.92862e-06
8.92129e-06
8.92322e-06
8.91706e-06
8.91491e-06
8.9141e-06
8.90887e-06
8.90633e-06
8.90422e-06
8.90227e-06
8.91998e-06
9.20689e-06
9.08686e-06
9.03761e-06
9.03947e-06
9.04209e-06
9.03778e-06
9.0233e-06
9.01603e-06
9.00475e-06
8.99472e-06
8.99157e-06
8.98592e-06
8.97574e-06
8.9662e-06
8.96025e-06
8.95733e-06
8.95602e-06
8.95491e-06
8.95402e-06
8.95158e-06
8.95096e-06
8.94546e-06
8.94752e-06
8.93661e-06
8.94477e-06
8.92632e-06
8.94173e-06
8.91803e-06
8.93532e-06
8.91274e-06
8.92855e-06
8.90685e-06
8.92082e-06
8.90202e-06
8.95425e-06
9.25297e-06
9.14379e-06
9.09717e-06
9.10872e-06
9.1276e-06
9.1351e-06
9.13079e-06
9.12239e-06
9.11144e-06
9.10098e-06
9.09262e-06
9.08381e-06
9.07403e-06
9.06476e-06
9.05709e-06
9.05111e-06
9.04655e-06
9.04273e-06
9.03989e-06
9.03661e-06
9.03521e-06
9.03103e-06
9.03113e-06
9.02488e-06
9.02651e-06
9.01716e-06
9.02182e-06
9.00782e-06
9.01592e-06
8.99931e-06
9.00847e-06
8.99038e-06
9.0009e-06
8.98141e-06
8.97822e-06
9.27778e-06
9.1667e-06
9.11674e-06
9.12661e-06
9.14395e-06
9.15309e-06
9.14635e-06
9.14056e-06
9.12972e-06
9.11666e-06
9.11264e-06
9.10614e-06
9.09249e-06
9.0785e-06
9.0686e-06
9.06244e-06
9.05828e-06
9.05503e-06
9.05193e-06
9.04931e-06
9.04591e-06
9.04374e-06
9.03928e-06
9.03722e-06
9.03198e-06
9.02903e-06
9.02358e-06
9.02048e-06
9.01336e-06
9.01161e-06
9.0029e-06
9.00235e-06
8.99122e-06
8.99396e-06
9.00203e-06
9.30479e-06
9.19352e-06
9.13914e-06
9.1446e-06
9.15336e-06
9.16241e-06
9.14668e-06
9.14481e-06
9.13516e-06
9.11571e-06
9.1183e-06
9.11639e-06
9.09937e-06
9.08112e-06
9.06939e-06
9.06291e-06
9.05886e-06
9.0559e-06
9.05307e-06
9.05071e-06
9.04722e-06
9.0449e-06
9.03972e-06
9.03731e-06
9.03087e-06
9.02793e-06
9.0208e-06
9.01803e-06
9.00949e-06
9.00744e-06
8.99777e-06
8.9971e-06
8.98467e-06
8.98631e-06
9.03082e-06
9.33243e-06
9.21784e-06
9.15931e-06
9.15914e-06
9.16443e-06
9.16654e-06
9.15249e-06
9.1463e-06
9.13653e-06
9.12136e-06
9.11953e-06
9.11615e-06
9.10198e-06
9.08581e-06
9.07449e-06
9.0678e-06
9.06349e-06
9.06018e-06
9.05687e-06
9.05393e-06
9.04973e-06
9.04675e-06
9.04073e-06
9.03772e-06
9.03035e-06
9.02694e-06
9.019e-06
9.0154e-06
9.00738e-06
9.00226e-06
8.99623e-06
8.98971e-06
8.98236e-06
8.9787e-06
9.06072e-06
9.36024e-06
9.24214e-06
9.1801e-06
9.1757e-06
9.17892e-06
9.17573e-06
9.16378e-06
9.15397e-06
9.14364e-06
9.13247e-06
9.12638e-06
9.11996e-06
9.10892e-06
9.09684e-06
9.08746e-06
9.08115e-06
9.07661e-06
9.07272e-06
9.06859e-06
9.06452e-06
9.05933e-06
9.05491e-06
9.04871e-06
9.04351e-06
9.03776e-06
9.03045e-06
9.02638e-06
9.01705e-06
9.01471e-06
9.00253e-06
9.00331e-06
8.98915e-06
8.98927e-06
8.97659e-06
9.08048e-06
9.39243e-06
9.28735e-06
9.22631e-06
9.22568e-06
9.2374e-06
9.24047e-06
9.23402e-06
9.22377e-06
9.21228e-06
9.20103e-06
9.19114e-06
9.18114e-06
9.17034e-06
9.15985e-06
9.1507e-06
9.14302e-06
9.13632e-06
9.13027e-06
9.12424e-06
9.11866e-06
9.11246e-06
9.10703e-06
9.10092e-06
9.09397e-06
9.09009e-06
9.07895e-06
9.07823e-06
9.06491e-06
9.06318e-06
9.05194e-06
9.04757e-06
9.03795e-06
9.03285e-06
9.02238e-06
9.08895e-06
9.40103e-06
9.29554e-06
9.23357e-06
9.23295e-06
9.24481e-06
9.24937e-06
9.24234e-06
9.23319e-06
9.2226e-06
9.20974e-06
9.20273e-06
9.19595e-06
9.18274e-06
9.16754e-06
9.15547e-06
9.14706e-06
9.14064e-06
9.13503e-06
9.12923e-06
9.12392e-06
9.11736e-06
9.11247e-06
9.1048e-06
9.09991e-06
9.09203e-06
9.0857e-06
9.07846e-06
9.07108e-06
9.0637e-06
9.05563e-06
9.04884e-06
9.04053e-06
9.03261e-06
9.02573e-06
9.09741e-06
9.41057e-06
9.30481e-06
9.24102e-06
9.239e-06
9.24795e-06
9.25294e-06
9.24282e-06
9.23473e-06
9.22609e-06
9.20944e-06
9.20629e-06
9.20506e-06
9.18979e-06
9.16982e-06
9.1551e-06
9.14604e-06
9.13967e-06
9.13418e-06
9.12853e-06
9.12341e-06
9.11699e-06
9.11216e-06
9.10442e-06
9.09929e-06
9.09134e-06
9.08451e-06
9.07725e-06
9.06956e-06
9.06165e-06
9.05411e-06
9.04594e-06
9.03866e-06
9.02971e-06
9.02287e-06
9.10695e-06
9.42003e-06
9.31326e-06
9.24762e-06
9.24399e-06
9.25106e-06
9.25544e-06
9.244e-06
9.23585e-06
9.22769e-06
9.21014e-06
9.20758e-06
9.2078e-06
9.19239e-06
9.17152e-06
9.15616e-06
9.14678e-06
9.14017e-06
9.13447e-06
9.12867e-06
9.12344e-06
9.11699e-06
9.11205e-06
9.10427e-06
9.09891e-06
9.09082e-06
9.08375e-06
9.07628e-06
9.06835e-06
9.06034e-06
9.05239e-06
9.04444e-06
9.03651e-06
9.028e-06
9.02055e-06
9.11771e-06
9.43012e-06
9.32209e-06
9.25504e-06
9.24911e-06
9.25557e-06
9.2563e-06
9.2465e-06
9.2364e-06
9.22637e-06
9.21322e-06
9.20688e-06
9.20189e-06
9.18883e-06
9.17244e-06
9.15927e-06
9.15026e-06
9.14359e-06
9.13763e-06
9.13183e-06
9.12564e-06
9.11966e-06
9.11261e-06
9.1065e-06
9.09842e-06
9.09183e-06
9.08361e-06
9.07586e-06
9.06795e-06
9.0598e-06
9.05154e-06
9.04337e-06
9.03533e-06
9.02724e-06
9.01914e-06
9.12876e-06
9.44007e-06
9.33033e-06
9.26156e-06
9.25368e-06
9.25896e-06
9.25747e-06
9.24802e-06
9.23685e-06
9.22567e-06
9.21442e-06
9.20575e-06
9.19722e-06
9.18597e-06
9.17391e-06
9.16361e-06
9.15551e-06
9.14875e-06
9.14239e-06
9.13603e-06
9.12917e-06
9.12253e-06
9.11476e-06
9.10815e-06
9.09956e-06
9.09267e-06
9.08412e-06
9.0762e-06
9.06804e-06
9.05981e-06
9.05138e-06
9.04314e-06
9.03494e-06
9.02692e-06
9.01857e-06
1.44338e-05
1.48894e-05
1.47808e-05
1.46863e-05
1.46691e-05
1.46798e-05
1.46644e-05
1.46569e-05
1.46399e-05
1.46178e-05
1.46154e-05
1.46154e-05
1.46011e-05
1.45812e-05
1.45697e-05
1.45703e-05
1.45783e-05
1.4588e-05
1.4595e-05
1.46007e-05
1.46013e-05
1.46063e-05
1.46018e-05
1.46122e-05
1.45969e-05
1.46277e-05
1.45805e-05
1.46518e-05
1.45675e-05
1.46608e-05
1.45718e-05
1.46617e-05
1.45721e-05
1.46715e-05
1.45687e-05
1.45332e-05
1.49868e-05
1.48652e-05
1.47669e-05
1.47758e-05
1.48248e-05
1.48538e-05
1.48624e-05
1.48555e-05
1.48375e-05
1.48285e-05
1.48249e-05
1.48146e-05
1.47986e-05
1.47847e-05
1.47768e-05
1.47743e-05
1.47755e-05
1.47776e-05
1.47829e-05
1.47849e-05
1.47947e-05
1.47915e-05
1.48093e-05
1.47898e-05
1.48312e-05
1.47756e-05
1.48539e-05
1.47695e-05
1.48575e-05
1.47767e-05
1.48567e-05
1.47806e-05
1.4862e-05
1.47796e-05
1.4612e-05
1.50696e-05
1.49498e-05
1.48476e-05
1.48466e-05
1.48865e-05
1.49061e-05
1.49078e-05
1.49058e-05
1.48806e-05
1.4871e-05
1.48758e-05
1.4865e-05
1.48396e-05
1.48179e-05
1.48095e-05
1.48114e-05
1.48177e-05
1.48233e-05
1.48294e-05
1.4832e-05
1.48374e-05
1.48397e-05
1.48411e-05
1.48479e-05
1.48415e-05
1.48531e-05
1.48415e-05
1.48562e-05
1.48415e-05
1.4855e-05
1.48443e-05
1.48507e-05
1.48518e-05
1.48448e-05
1.46933e-05
1.51598e-05
1.50488e-05
1.49437e-05
1.49257e-05
1.49372e-05
1.49372e-05
1.49196e-05
1.49171e-05
1.48923e-05
1.48798e-05
1.4886e-05
1.48785e-05
1.48545e-05
1.48328e-05
1.4825e-05
1.48291e-05
1.48379e-05
1.48467e-05
1.4852e-05
1.48569e-05
1.48568e-05
1.48601e-05
1.48581e-05
1.48591e-05
1.48597e-05
1.48571e-05
1.48595e-05
1.48558e-05
1.48592e-05
1.48532e-05
1.48586e-05
1.48497e-05
1.4855e-05
1.48505e-05
1.47802e-05
1.52463e-05
1.51294e-05
1.50159e-05
1.49893e-05
1.49914e-05
1.49865e-05
1.49677e-05
1.49573e-05
1.49381e-05
1.49256e-05
1.49234e-05
1.4916e-05
1.49007e-05
1.48869e-05
1.48814e-05
1.48838e-05
1.48896e-05
1.48958e-05
1.4899e-05
1.4902e-05
1.49006e-05
1.49011e-05
1.49016e-05
1.48933e-05
1.491e-05
1.4878e-05
1.49259e-05
1.48595e-05
1.49391e-05
1.48529e-05
1.49363e-05
1.48556e-05
1.49342e-05
1.4854e-05
1.48474e-05
1.53169e-05
1.52016e-05
1.50916e-05
1.50864e-05
1.51227e-05
1.51511e-05
1.51532e-05
1.515e-05
1.51333e-05
1.51183e-05
1.51131e-05
1.51045e-05
1.5088e-05
1.50708e-05
1.50595e-05
1.50551e-05
1.5055e-05
1.50572e-05
1.50591e-05
1.50619e-05
1.50646e-05
1.50638e-05
1.50753e-05
1.50574e-05
1.50917e-05
1.50475e-05
1.51001e-05
1.50495e-05
1.50932e-05
1.50573e-05
1.50914e-05
1.50487e-05
1.51008e-05
1.50412e-05
1.49068e-05
1.53763e-05
1.52583e-05
1.51421e-05
1.5133e-05
1.51622e-05
1.51961e-05
1.51867e-05
1.51938e-05
1.51757e-05
1.51523e-05
1.51554e-05
1.51536e-05
1.51316e-05
1.5105e-05
1.50884e-05
1.50835e-05
1.50856e-05
1.50895e-05
1.50936e-05
1.50959e-05
1.50993e-05
1.51001e-05
1.51026e-05
1.51033e-05
1.51034e-05
1.51033e-05
1.51051e-05
1.50993e-05
1.51045e-05
1.50979e-05
1.50999e-05
1.5096e-05
1.50955e-05
1.50934e-05
1.4968e-05
1.54418e-05
1.53279e-05
1.52083e-05
1.51883e-05
1.51973e-05
1.52195e-05
1.51947e-05
1.52017e-05
1.5185e-05
1.51585e-05
1.51627e-05
1.51646e-05
1.5144e-05
1.51165e-05
1.50989e-05
1.50941e-05
1.50972e-05
1.51023e-05
1.51077e-05
1.511e-05
1.51143e-05
1.51117e-05
1.51172e-05
1.51095e-05
1.51176e-05
1.51063e-05
1.51138e-05
1.51075e-05
1.51042e-05
1.51067e-05
1.51043e-05
1.50944e-05
1.51023e-05
1.50917e-05
1.50334e-05
1.5505e-05
1.53848e-05
1.52586e-05
1.52292e-05
1.52361e-05
1.52454e-05
1.52309e-05
1.52255e-05
1.52108e-05
1.51935e-05
1.51896e-05
1.51857e-05
1.51712e-05
1.51529e-05
1.514e-05
1.51351e-05
1.5136e-05
1.51384e-05
1.51419e-05
1.51415e-05
1.51461e-05
1.51383e-05
1.51498e-05
1.51295e-05
1.51547e-05
1.51187e-05
1.51564e-05
1.51145e-05
1.515e-05
1.51138e-05
1.51459e-05
1.5111e-05
1.51388e-05
1.51074e-05
1.50876e-05
1.55659e-05
1.54572e-05
1.53396e-05
1.53253e-05
1.53572e-05
1.53851e-05
1.53912e-05
1.53857e-05
1.53726e-05
1.53578e-05
1.53468e-05
1.53362e-05
1.53227e-05
1.53084e-05
1.52963e-05
1.52878e-05
1.5283e-05
1.52799e-05
1.52793e-05
1.52772e-05
1.52797e-05
1.52756e-05
1.52818e-05
1.52737e-05
1.52841e-05
1.5269e-05
1.52868e-05
1.52629e-05
1.52858e-05
1.52589e-05
1.52832e-05
1.52524e-05
1.52815e-05
1.52452e-05
1.51283e-05
1.56054e-05
1.54939e-05
1.53718e-05
1.53553e-05
1.5384e-05
1.54158e-05
1.54171e-05
1.54166e-05
1.54049e-05
1.53849e-05
1.53785e-05
1.53743e-05
1.5358e-05