/*--------------------------------*- C++ -*----------------------------------*\
  =========                 |
  \\      /  F ield         | OpenFOAM: The Open Source CFD Toolbox
   \\    /   O peration     | Website:  https://openfoam.org
    \\  /    A nd           | Version:  6
     \\/     M anipulation  |
\*---------------------------------------------------------------------------*/
FoamFile
{
    version     2.0;
    format      ascii;
    class       volScalarField;
    location    "1";
    object      omega;
}
// * * * * * * * * * * * * * * * * * * * * * * * * * * * * * * * * * * * * * //

dimensions      [0 0 -1 0 0 0 0];

internalField   nonuniform List<scalar> 
63264
(
843.917
843.917
843.917
843.917
843.917
843.917
843.917
843.917
843.917
843.917
843.917
843.917
843.917
843.917
843.917
843.917
843.917
843.917
843.917
843.917
843.917
843.917
843.917
843.917
843.917
843.917
843.917
843.917
843.917
843.917
843.917
843.917
843.917
843.917
843.917
843.917
843.917
843.917
843.917
843.917
843.917
843.917
843.917
843.917
843.917
843.917
843.917
843.917
843.917
843.917
843.917
843.917
843.917
843.917
843.917
843.917
843.917
843.917
843.917
843.917
843.917
843.917
843.917
843.917
843.917
843.917
843.917
843.917
843.917
843.917
843.917
843.917
843.917
843.917
843.917
843.917
843.917
843.917
843.917
843.917
843.917
843.917
843.917
843.917
843.917
843.917
843.917
843.917
843.917
843.917
843.917
843.917
843.917
843.917
843.917
843.917
843.917
843.917
843.917
843.917
843.917
843.917
843.917
843.917
843.917
843.917
843.917
843.917
843.917
843.917
843.917
843.917
843.917
843.917
843.917
843.917
843.917
843.917
843.917
843.917
843.917
843.917
843.917
843.917
843.917
843.917
843.917
843.917
843.917
843.917
843.917
843.917
843.917
843.917
843.917
843.917
843.917
843.917
843.917
843.917
843.917
843.917
843.917
843.917
843.917
843.917
843.917
843.917
843.917
843.917
843.917
843.917
843.917
843.917
843.917
843.917
843.917
843.917
843.917
843.917
843.917
843.917
843.917
843.917
843.917
843.917
843.917
843.917
843.917
843.917
843.917
843.917
843.917
843.917
843.917
843.917
843.917
843.917
843.917
843.917
843.917
843.917
843.917
843.917
843.917
843.917
843.917
843.917
843.917
843.917
843.917
843.917
843.917
843.917
843.917
843.917
843.917
843.917
843.917
843.917
843.917
843.917
843.917
843.917
843.917
843.917
843.917
843.917
843.917
843.917
843.917
843.917
843.917
843.917
843.917
843.917
843.917
843.917
843.917
843.917
843.917
843.917
843.917
843.917
843.917
843.917
843.917
843.917
843.917
843.917
843.917
843.917
843.917
843.917
843.917
843.917
843.917
843.917
843.917
843.917
843.917
843.917
843.917
843.917
843.917
843.917
843.917
843.917
843.917
843.917
843.917
843.917
843.917
843.917
843.917
843.917
843.917
843.917
843.917
843.917
843.917
843.917
843.917
843.917
843.917
843.917
843.917
843.917
843.917
843.917
843.917
843.917
843.917
843.917
843.917
843.917
843.917
843.917
843.917
843.917
843.917
843.917
843.917
843.917
843.917
843.917
843.917
843.917
843.917
843.917
843.917
843.917
843.917
843.917
843.917
843.917
843.917
843.917
843.917
843.917
843.917
843.917
843.917
843.917
843.917
843.917
843.917
843.917
843.917
843.917
843.917
843.917
843.917
843.917
843.917
843.917
843.917
843.917
843.917
843.917
843.917
843.917
843.917
843.917
843.917
843.917
843.917
843.917
843.917
843.917
843.917
843.917
843.917
843.917
843.917
843.917
843.917
843.917
843.917
843.917
843.917
843.917
843.917
843.917
843.917
843.917
843.917
843.917
843.917
843.917
843.917
843.917
843.917
843.917
843.917
843.917
843.917
843.917
843.917
843.917
843.917
843.917
843.917
843.917
843.917
843.917
843.917
843.917
843.917
843.917
843.917
843.917
843.917
843.917
843.917
843.917
843.917
843.917
843.917
843.917
843.917
843.917
843.917
843.917
843.917
843.917
843.917
843.917
843.917
843.917
843.917
843.917
843.917
843.917
843.917
843.917
843.917
843.917
843.917
843.917
843.917
843.917
843.917
843.917
843.917
843.917
843.917
843.917
843.917
843.917
843.917
843.917
843.917
843.917
843.917
843.917
843.917
843.917
843.917
843.917
843.917
843.917
843.917
843.917
843.917
843.917
843.917
843.917
843.917
843.917
843.917
843.917
843.917
843.917
843.917
843.917
843.917
843.917
843.917
843.917
843.917
843.917
843.917
843.917
843.917
843.917
843.917
843.917
843.917
843.917
843.917
843.917
843.917
843.917
843.917
843.917
843.917
843.917
843.917
843.917
843.917
843.917
843.917
843.917
843.917
843.917
843.917
843.917
843.917
843.917
843.917
843.917
843.917
843.917
843.917
843.917
843.917
843.917
843.917
843.917
843.917
843.917
843.917
843.917
843.917
843.917
843.917
843.917
843.917
843.917
843.917
843.917
843.917
843.917
843.917
843.917
843.917
843.917
843.917
843.917
843.917
843.917
843.917
843.917
843.917
843.917
843.917
843.917
843.917
843.917
843.917
843.917
843.917
843.917
843.917
843.917
843.917
843.917
843.917
843.917
843.917
843.917
843.917
843.917
843.917
843.917
843.917
843.917
843.917
843.917
843.917
843.917
843.917
843.917
843.917
843.917
843.917
843.917
843.917
843.917
843.917
843.917
843.917
843.917
843.917
843.917
843.917
843.917
843.917
843.917
843.917
843.917
843.917
843.917
843.917
843.917
843.917
843.917
843.917
843.917
843.917
843.917
843.917
843.917
843.917
843.917
843.917
843.917
843.917
843.917
843.917
843.917
843.917
843.917
843.917
843.917
843.917
843.917
843.917
843.917
843.917
843.917
843.917
843.917
843.917
843.917
843.917
843.917
843.917
843.917
843.917
843.917
843.917
843.917
843.917
843.917
843.917
843.917
843.917
843.917
843.917
843.917
843.917
843.917
843.917
843.917
843.917
843.917
843.917
843.917
843.917
843.917
843.917
843.917
843.917
843.917
843.917
843.917
843.917
843.917
843.917
843.917
843.917
843.917
843.917
843.917
843.917
843.917
843.917
843.917
843.917
843.917
843.917
843.917
843.917
843.917
843.917
843.917
843.917
843.917
843.917
843.917
843.917
843.917
843.917
843.917
843.917
843.917
843.917
843.917
843.917
843.917
843.917
843.917
843.917
843.917
843.917
843.917
843.917
843.917
843.917
843.917
843.917
843.917
843.917
843.917
843.917
843.917
843.917
843.917
843.917
843.917
843.917
843.917
843.917
843.917
843.917
843.917
843.917
843.917
843.917
843.917
843.917
843.917
843.917
843.917
843.917
843.917
843.917
843.917
843.917
843.917
843.917
843.917
843.917
843.917
843.917
843.917
843.917
843.917
276.183
262.7
264.509
265.544
265.372
264.951
264.638
264.459
264.418
264.394
264.382
264.453
264.542
264.562
264.527
264.487
264.469
264.473
264.486
264.5
264.51
264.519
264.531
264.543
264.564
264.589
264.617
264.649
264.705
264.716
264.816
264.813
264.933
264.905
265.199
276.504
262.744
264.418
265.478
265.474
265.277
265.138
265.05
265.012
264.988
264.976
265.018
265.082
265.1
265.062
265.003
264.953
264.924
264.915
264.919
264.932
264.946
264.962
264.975
264.99
265.006
265.022
265.035
265.076
265.069
265.143
265.131
265.211
265.19
265.338
276.831
262.95
264.617
265.714
265.7
265.46
265.284
265.168
265.122
265.095
265.041
265.081
265.208
265.269
265.217
265.124
265.05
265.012
265.001
265.003
265.009
265.013
265.018
265.018
265.024
265.028
265.031
265.045
265.05
265.074
265.084
265.115
265.129
265.169
265.206
277.036
263.039
264.807
266.002
265.972
265.633
265.361
265.196
265.13
265.116
265.059
265.074
265.195
265.27
265.23
265.141
265.069
265.035
265.027
265.028
265.026
265.02
265.009
265
264.987
264.983
264.977
264.975
264.978
264.983
264.992
265.006
265.026
265.033
265.117
277.171
263.094
264.966
266.211
266.174
265.809
265.51
265.329
265.244
265.213
265.172
265.171
265.225
265.26
265.237
265.186
265.143
265.12
265.111
265.105
265.097
265.085
265.068
265.054
265.034
265.026
265.012
265.006
265.007
264.992
265.023
264.99
265.048
264.987
265.138
277.34
262.968
264.608
265.845
265.943
265.761
265.619
265.533
265.483
265.459
265.425
265.421
265.474
265.515
265.49
265.424
265.356
265.306
265.275
265.256
265.243
265.234
265.222
265.214
265.198
265.189
265.176
265.156
265.161
265.125
265.145
265.118
265.132
265.103
265.153
277.511
263.069
264.696
265.95
266.051
265.859
265.71
265.621
265.555
265.539
265.476
265.408
265.505
265.635
265.635
265.535
265.427
265.354
265.318
265.301
265.29
265.28
265.266
265.249
265.231
265.21
265.188
265.169
265.144
265.126
265.105
265.086
265.072
265.059
265.045
277.587
263.08
264.779
266.115
266.221
265.971
265.757
265.633
265.551
265.547
265.485
265.39
265.48
265.63
265.648
265.55
265.437
265.361
265.325
265.309
265.299
265.285
265.264
265.239
265.211
265.181
265.152
265.119
265.094
265.056
265.032
265.007
264.975
264.951
264.944
277.602
263.068
264.848
266.222
266.324
266.056
265.827
265.69
265.613
265.584
265.533
265.488
265.531
265.599
265.603
265.54
265.463
265.403
265.367
265.346
265.329
265.31
265.285
265.255
265.223
265.187
265.154
265.111
265.086
265.031
265.012
264.96
264.941
264.871
264.897
277.642
262.81
264.351
265.702
265.903
265.759
265.642
265.582
265.551
265.534
265.517
265.511
265.53
265.547
265.535
265.491
265.434
265.382
265.34
265.307
265.282
265.26
265.239
265.216
265.193
265.164
265.135
265.102
265.07
265.028
264.998
264.951
264.924
264.866
264.847
277.714
262.848
264.379
265.742
265.949
265.805
265.688
265.628
265.588
265.572
265.531
265.465
265.497
265.598
265.637
265.581
265.489
265.412
265.361
265.331
265.31
265.29
265.268
265.243
265.213
265.183
265.145
265.108
265.066
265.021
264.973
264.925
264.87
264.819
264.753
277.772
262.868
264.41
265.812
266.03
265.861
265.711
265.636
265.575
265.571
265.531
265.366
265.387
265.583
265.687
265.624
265.501
265.401
265.343
265.317
265.301
265.284
265.262
265.234
265.199
265.163
265.119
265.075
265.026
264.975
264.917
264.86
264.795
264.734
264.648
277.739
262.831
264.432
265.871
266.093
265.906
265.733
265.639
265.579
265.562
265.517
265.403
265.418
265.562
265.648
265.603
265.497
265.405
265.347
265.318
265.299
265.28
265.256
265.225
265.186
265.145
265.096
265.045
264.989
264.931
264.862
264.797
264.723
264.646
264.564
277.686
262.783
264.445
265.922
266.153
265.955
265.767
265.659
265.6
265.573
265.533
265.479
265.486
265.55
265.585
265.554
265.486
265.421
265.375
265.345
265.321
265.296
265.266
265.231
265.188
265.144
265.09
265.034
264.974
264.906
264.834
264.755
264.678
264.58
264.503
277.666
262.552
264.023
265.461
265.752
265.627
265.507
265.449
265.425
265.413
265.4
265.39
265.397
265.413
265.415
265.392
265.353
265.311
265.274
265.244
265.217
265.192
265.165
265.137
265.102
265.066
265.021
264.971
264.921
264.853
264.792
264.713
264.638
264.548
264.458
277.689
262.561
264.025
265.465
265.761
265.64
265.523
265.467
265.438
265.422
265.39
265.326
265.321
265.402
265.469
265.457
265.393
265.326
265.277
265.247
265.224
265.203
265.178
265.149
265.113
265.075
265.026
264.974
264.916
264.85
264.776
264.695
264.608
264.51
264.402
277.704
262.563
264.03
265.483
265.784
265.655
265.528
265.467
265.429
265.414
265.379
265.241
265.197
265.346
265.492
265.497
265.408
265.317
265.259
265.23
265.214
265.197
265.174
265.145
265.107
265.067
265.015
264.96
264.898
264.827
264.749
264.662
264.568
264.464
264.345
277.7
262.557
264.033
265.496
265.799
265.667
265.533
265.468
265.425
265.409
265.374
265.221
265.165
265.326
265.491
265.502
265.41
265.313
265.252
265.222
265.207
265.191
265.169
265.14
265.102
265.059
265.006
264.948
264.883
264.809
264.727
264.636
264.536
264.425
264.301
277.667
262.532
264.034
265.511
265.82
265.682
265.541
265.467
265.427
265.407
265.368
265.285
265.265
265.36
265.455
265.458
265.392
265.318
265.265
265.235
265.214
265.195
265.17
265.139
265.101
265.053
265.002
264.941
264.873
264.798
264.713
264.618
264.513
264.397
264.271
277.628
262.509
264.036
265.526
265.837
265.695
265.547
265.468
265.43
265.409
265.382
265.347
265.343
265.379
265.409
265.399
265.36
265.315
265.278
265.25
265.227
265.202
265.174
265.14
265.1
265.052
265
264.938
264.869
264.793
264.706
264.609
264.503
264.384
264.256
133.969
127.664
127.788
128.541
128.676
128.458
128.208
128.04
127.974
127.942
127.921
127.949
128.013
128.054
128.05
128.023
127.998
127.986
127.984
127.985
127.986
127.988
127.99
127.995
128.002
128.016
128.026
128.052
128.065
128.102
128.116
128.167
128.187
128.222
128.317
134.247
127.853
127.889
128.64
128.896
128.855
128.747
128.651
128.593
128.557
128.535
128.547
128.584
128.606
128.592
128.552
128.508
128.476
128.46
128.459
128.466
128.476
128.486
128.497
128.505
128.519
128.524
128.545
128.551
128.582
128.586
128.634
128.643
128.683
128.75
134.504
128.102
128.134
128.884
129.118
129.04
128.9
128.783
128.718
128.68
128.637
128.639
128.704
128.763
128.761
128.708
128.645
128.599
128.575
128.566
128.564
128.564
128.564
128.563
128.563
128.563
128.564
128.565
128.574
128.575
128.594
128.592
128.63
128.614
128.694
134.704
128.288
128.356
129.141
129.349
129.192
128.976
128.819
128.739
128.707
128.666
128.656
128.712
128.775
128.783
128.738
128.68
128.637
128.613
128.601
128.592
128.582
128.571
128.558
128.547
128.537
128.529
128.523
128.52
128.518
128.521
128.522
128.54
128.526
128.599
134.878
128.47
128.57
129.362
129.551
129.367
129.128
128.955
128.861
128.816
128.779
128.763
128.784
128.812
128.814
128.788
128.753
128.724
128.705
128.69
128.676
128.66
128.643
128.626
128.609
128.595
128.581
128.575
128.559
128.564
128.548
128.561
128.548
128.549
128.584
135.03
128.562
128.586
129.358
129.63
129.583
129.466
129.364
129.292
129.247
129.207
129.186
129.196
129.213
129.202
129.161
129.108
129.061
129.026
129.002
128.985
128.972
128.959
128.947
128.931
128.92
128.901
128.893
128.873
128.87
128.848
128.854
128.836
128.83
128.856
135.183
128.715
128.734
129.499
129.759
129.7
129.575
129.469
129.389
129.346
129.29
129.247
129.268
129.325
129.34
129.292
129.216
129.147
129.1
129.07
129.05
129.033
129.015
128.995
128.974
128.952
128.93
128.907
128.885
128.86
128.843
128.816
128.808
128.769
128.787
135.291
128.825
128.868
129.655
129.903
129.798
129.624
129.49
129.401
129.363
129.309
129.257
129.271
129.334
129.359
129.316
129.239
129.167
129.117
129.085
129.062
129.041
129.016
128.989
128.959
128.93
128.898
128.868
128.838
128.807
128.779
128.748
128.728
128.682
128.693
135.374
128.933
129.001
129.79
130.021
129.896
129.706
129.562
129.471
129.421
129.373
129.334
129.331
129.355
129.358
129.324
129.267
129.21
129.165
129.131
129.103
129.076
129.046
129.016
128.98
128.948
128.908
128.877
128.836
128.806
128.761
128.735
128.694
128.649
128.64
135.434
128.977
129.015
129.771
130.034
129.988
129.877
129.784
129.715
129.665
129.622
129.588
129.568
129.554
129.529
129.488
129.436
129.383
129.336
129.295
129.26
129.229
129.198
129.168
129.135
129.101
129.063
129.027
128.985
128.948
128.902
128.865
128.822
128.772
128.751
135.513
129.057
129.094
129.846
130.107
130.057
129.945
129.851
129.779
129.729
129.674
129.626
129.612
129.627
129.626
129.585
129.516
129.444
129.384
129.338
129.3
129.266
129.232
129.196
129.159
129.118
129.076
129.031
128.986
128.936
128.889
128.834
128.79
128.723
128.689
135.585
129.127
129.168
129.926
130.181
130.11
129.974
129.866
129.783
129.741
129.675
129.609
129.593
129.635
129.662
129.624
129.54
129.452
129.382
129.332
129.295
129.26
129.224
129.184
129.142
129.096
129.048
128.997
128.946
128.891
128.837
128.776
128.724
128.653
128.605
135.616
129.179
129.239
130.002
130.247
130.157
130.002
129.88
129.794
129.744
129.684
129.625
129.606
129.631
129.649
129.614
129.54
129.457
129.387
129.335
129.294
129.256
129.217
129.174
129.127
129.076
129.024
128.968
128.911
128.851
128.79
128.724
128.664
128.588
128.533
135.637
129.228
129.307
130.075
130.315
130.213
130.045
129.913
129.826
129.769
129.717
129.669
129.643
129.639
129.632
129.596
129.536
129.471
129.411
129.361
129.317
129.274
129.23
129.182
129.132
129.078
129.021
128.961
128.9
128.837
128.769
128.7
128.631
128.551
128.486
135.638
129.249
129.333
130.062
130.301
130.233
130.105
130.002
129.929
129.873
129.824
129.78
129.744
129.715
129.681
129.637
129.583
129.526
129.471
129.419
129.371
129.324
129.277
129.228
129.176
129.122
129.063
129.003
128.939
128.874
128.802
128.731
128.657
128.576
128.505
135.665
129.274
129.357
130.085
130.325
130.26
130.136
130.035
129.96
129.903
129.845
129.791
129.759
129.749
129.736
129.696
129.631
129.558
129.492
129.435
129.386
129.338
129.29
129.24
129.186
129.128
129.068
129.004
128.938
128.867
128.794
128.717
128.64
128.553
128.473
135.687
129.295
129.379
130.109
130.347
130.276
130.145
130.04
129.961
129.908
129.839
129.773
129.742
129.75
129.76
129.726
129.65
129.563
129.487
129.428
129.378
129.332
129.285
129.233
129.178
129.118
129.055
128.988
128.919
128.846
128.77
128.69
128.609
128.521
128.434
135.7
129.314
129.402
130.131
130.367
130.291
130.155
130.046
129.964
129.911
129.839
129.77
129.738
129.749
129.763
129.731
129.653
129.563
129.484
129.422
129.372
129.326
129.279
129.226
129.17
129.109
129.044
128.976
128.904
128.829
128.751
128.669
128.584
128.494
128.404
135.701
129.328
129.424
130.155
130.389
130.307
130.164
130.049
129.967
129.908
129.847
129.788
129.755
129.748
129.742
129.706
129.639
129.561
129.489
129.429
129.377
129.328
129.278
129.224
129.166
129.104
129.037
128.968
128.895
128.819
128.739
128.655
128.568
128.476
128.383
135.699
129.34
129.446
130.177
130.407
130.32
130.171
130.052
129.97
129.909
129.855
129.804
129.766
129.74
129.713
129.671
129.614
129.552
129.492
129.436
129.384
129.333
129.28
129.224
129.165
129.102
129.035
128.965
128.891
128.814
128.733
128.648
128.56
128.467
128.373
79.6202
77.027
76.6469
76.9984
77.2093
77.1655
77.021
76.8951
76.8256
76.7905
76.7684
76.7706
76.7998
76.832
76.8446
76.8369
76.8214
76.8081
76.7998
76.7951
76.7912
76.7885
76.7849
76.7847
76.7829
76.7891
76.7848
76.8062
76.7878
76.8321
76.8006
76.8557
76.8303
76.8728
76.8669
79.8348
77.1944
76.7431
77.0691
77.3492
77.4294
77.3942
77.327
77.2714
77.2338
77.2108
77.2081
77.2249
77.2428
77.2427
77.2218
77.1912
77.1637
77.1463
77.1395
77.1397
77.1444
77.1483
77.1549
77.1557
77.1653
77.1588
77.1811
77.1599
77.2019
77.1703
77.2216
77.1987
77.2376
77.2493
80.012
77.3891
76.944
77.2667
77.5293
77.5831
77.5257
77.4453
77.3851
77.3449
77.3118
77.3001
77.3248
77.3644
77.3822
77.3654
77.3284
77.2912
77.2645
77.2498
77.2423
77.2396
77.2363
77.2343
77.2315
77.2268
77.2279
77.2196
77.2264
77.2142
77.2308
77.2099
77.2408
77.2072
77.2562
80.1736
77.5438
77.115
77.4563
77.7026
77.7048
77.5929
77.4794
77.4084
77.3703
77.3394
77.323
77.3411
77.3801
77.4033
77.3936
77.3624
77.3289
77.3037
77.2875
77.2766
77.2664
77.2571
77.2457
77.2368
77.2268
77.2188
77.2118
77.2057
77.1995
77.1984
77.189
77.2009
77.1779
77.2157
80.332
77.7065
77.2909
77.631
77.862
77.8446
77.7167
77.5922
77.5121
77.467
77.4358
77.4173
77.42
77.4364
77.4469
77.4409
77.4228
77.4019
77.3839
77.3692
77.3562
77.3423
77.3294
77.3144
77.3018
77.2903
77.2752
77.2742
77.2493
77.265
77.2261
77.2551
77.2157
77.233
77.2131
80.4504
77.8008
77.3469
77.6644
77.9386
78.0137
77.9761
77.9072
77.8468
77.8029
77.7686
77.7478
77.7453
77.7528
77.7524
77.7341
77.7021
77.6674
77.638
77.6161
77.6009
77.5886
77.579
77.569
77.5575
77.5515
77.5314
77.5355
77.5047
77.517
77.4849
77.4951
77.4753
77.4713
77.4725
80.5609
77.9239
77.4738
77.7841
78.0469
78.1122
78.0697
77.9984
77.9354
77.8925
77.8479
77.8175
77.8167
77.8434
77.8645
77.8537
77.8141
77.7655
77.7237
77.6936
77.6727
77.6571
77.6425
77.6288
77.6136
77.5979
77.5832
77.5645
77.5511
77.531
77.5187
77.4947
77.4912
77.4552
77.4649
80.659
78.0198
77.5775
77.8974
78.1529
78.1889
78.113
78.0201
77.9497
77.9096
77.8666
77.8333
77.8284
77.8559
77.8825
77.8767
77.839
77.7897
77.7463
77.7146
77.6915
77.6729
77.6539
77.6358
77.6141
77.5957
77.5723
77.5543
77.5311
77.5112
77.493
77.465
77.458
77.4199
77.4239
80.7531
78.122
77.6908
78.0082
78.2501
78.2704
78.1822
78.0827
78.01
77.9634
77.9254
77.8959
77.8851
77.8931
77.9011
77.8912
77.8618
77.8235
77.7872
77.7575
77.7332
77.7122
77.6902
77.6701
77.644
77.6257
77.5941
77.5812
77.5429
77.5355
77.4939
77.4835
77.4498
77.4241
77.4061
80.8165
78.1845
77.7613
78.0619
78.3141
78.3815
78.3475
78.2856
78.2282
78.1824
78.1447
78.1153
78.0953
78.0812
78.0648
78.04
78.0068
77.9701
77.9347
77.9036
77.8766
77.8535
77.831
77.8107
77.787
77.7661
77.7392
77.7178
77.6864
77.6671
77.6314
77.6111
77.58
77.5502
77.5293
80.8784
78.2511
77.8305
78.1279
78.3761
78.4408
78.4067
78.3454
78.2876
78.243
78.1971
78.163
78.1478
78.1484
78.1486
78.1309
78.0927
78.0442
77.9971
77.9573
77.9249
77.8972
77.8722
77.8464
77.8218
77.7936
77.7672
77.7369
77.7088
77.6752
77.6483
77.6081
77.5855
77.5365
77.5199
80.9362
78.3084
77.8893
78.1871
78.4304
78.4814
78.4319
78.3598
78.2944
78.2566
78.1999
78.1606
78.1485
78.1619
78.1786
78.169
78.1267
78.0678
78.011
77.9651
77.9297
77.9001
77.8732
77.8448
77.8171
77.7854
77.7558
77.7219
77.6908
77.654
77.6238
77.5816
77.5544
77.5051
77.4819
80.9854
78.3619
77.9493
78.2469
78.4822
78.5192
78.4548
78.3723
78.3043
78.2602
78.2113
78.1732
78.1575
78.1634
78.1735
78.1632
78.1255
78.0715
78.0172
77.9713
77.9344
77.9028
77.8738
77.843
77.8129
77.7784
77.7462
77.7092
77.6755
77.6359
77.6019
77.5589
77.5249
77.4778
77.4473
81.0319
78.413
78.0067
78.3043
78.5353
78.565
78.4921
78.4034
78.3337
78.2847
78.2424
78.2077
78.1864
78.1776
78.1711
78.1532
78.1197
78.0762
78.0313
77.9904
77.9545
77.9214
77.8901
77.857
77.8243
77.7885
77.7527
77.7161
77.6767
77.6393
77.5979
77.5582
77.5157
77.4712
77.4314
81.0499
78.4488
78.0762
78.3623
78.5838
78.6276
78.5792
78.51
78.4488
78.3995
78.3575
78.3214
78.2917
78.2663
78.2407
78.2103
78.1739
78.1336
78.0929
78.0537
78.0172
77.982
77.9485
77.9138
77.8794
77.8433
77.8044
77.7688
77.7239
77.6878
77.6413
77.5997
77.5563
77.5074
77.4679
81.0709
78.4707
78.0986
78.3835
78.6052
78.6513
78.606
78.539
78.478
78.4296
78.3814
78.3422
78.3194
78.3067
78.2937
78.2691
78.2291
78.1794
78.1285
78.0818
78.0405
78.0026
77.9674
77.9306
77.8953
77.8559
77.8179
77.7766
77.7352
77.6918
77.6485
77.602
77.5573
77.5074
77.4631
81.0894
78.4884
78.1163
78.4009
78.6215
78.664
78.6145
78.5448
78.4805
78.4369
78.3801
78.3357
78.3206
78.3202
78.3196
78.3009
78.2579
78.1994
78.1394
78.0866
78.0424
78.0033
77.9674
77.9297
77.8931
77.8523
77.8124
77.77
77.7267
77.6823
77.6376
77.5899
77.5442
77.4933
77.4475
81.1061
78.5063
78.1359
78.4195
78.6374
78.6759
78.6225
78.5499
78.4833
78.4401
78.3814
78.3354
78.3217
78.3234
78.3253
78.308
78.2644
78.2036
78.1411
78.0863
78.0408
78.0012
77.965
77.927
77.8898
77.8483
77.8074
77.7641
77.7196
77.6744
77.6283
77.5802
77.5326
77.4818
77.4337
81.1193
78.5219
78.1542
78.4377
78.6537
78.6885
78.6302
78.5533
78.4871
78.4376
78.3882
78.3472
78.3252
78.3153
78.3062
78.2844
78.2443
78.1917
78.1367
78.0862
78.042
78.0024
77.9643
77.9268
77.8868
77.8468
77.8036
77.7603
77.7155
77.6692
77.6224
77.5741
77.5254
77.4742
77.4246
81.1315
78.5363
78.1714
78.4545
78.6679
78.6987
78.636
78.556
78.489
78.4374
78.3928
78.3549
78.3262
78.3038
78.2818
78.2534
78.2159
78.1721
78.1267
78.0831
78.0422
78.0034
77.9649
77.9266
77.886
77.8456
77.8021
77.7586
77.7134
77.6669
77.6196
77.5711
77.5219
77.4705
77.4203
52.9663
51.9312
51.547
51.6356
51.795
51.831
51.766
51.6848
51.6242
51.5887
51.5704
51.5622
51.5655
51.5784
51.5914
51.5966
51.5942
51.5882
51.5819
51.5769
51.5721
51.5689
51.5637
51.5628
51.5571
51.5625
51.5481
51.5744
51.5359
51.5869
51.5359
51.5897
51.5448
51.5944
51.5438
53.1311
52.0696
51.6345
51.6916
51.8854
52.0042
52.0226
51.9891
51.9458
51.9107
51.8894
51.881
51.8832
51.8902
51.8925
51.8843
51.8678
51.8498
51.8359
51.8287
51.8263
51.8289
51.8296
51.8353
51.8321
51.8429
51.8269
51.8566
51.8182
51.8666
51.8211
51.8698
51.834
51.8732
51.8505
53.2588
52.2166
51.7941
51.8506
52.0312
52.1316
52.1341
52.0922
52.047
52.0089
51.9833
51.9703
51.9713
51.9856
52.0006
52.0026
51.9894
51.9685
51.9487
51.935
51.9264
51.923
51.9192
51.9173
51.9158
51.909
51.9122
51.9009
51.908
51.8915
51.9058
51.8829
51.9025
51.8762
51.8935
53.386
52.3393
51.9243
51.9912
52.1626
52.2292
52.1931
52.1241
52.0701
52.0321
52.0079
51.9945
51.9926
52.005
52.0215
52.0277
52.0194
52.0026
51.9854
51.9715
51.9618
51.953
51.9467
51.9377
51.9318
51.9242
51.9176
51.9121
51.9067
51.9005
51.8981
51.8886
51.8936
51.8782
51.8904
53.5158
52.4732
52.0672
52.1314
52.2899
52.3413
52.2942
52.2176
52.1575
52.1169
52.091
52.075
52.0685
52.0715
52.0784
52.0812
52.0767
52.067
52.0558
52.0449
52.0353
52.0247
52.0161
52.0049
51.9959
51.9893
51.9734
51.9809
51.949
51.9769
51.9272
51.9654
51.9174
51.9461
51.9028
53.6087
52.5523
52.1251
52.1714
52.3524
52.4652
52.4849
52.4531
52.411
52.3738
52.3453
52.3279
52.3202
52.3192
52.3186
52.3113
52.2954
52.2749
52.255
52.2384
52.2267
52.2172
52.2109
52.2048
52.1954
52.1972
52.1749
52.1902
52.1563
52.1762
52.1456
52.1567
52.1373
52.1436
52.1239
53.6903
52.6463
52.228
52.2711
52.4425
52.5471
52.5637
52.5304
52.4892
52.453
52.4172
52.3958
52.3887
52.3953
52.4074
52.41
52.3959
52.3699
52.3416
52.3176
52.2997
52.287
52.2763
52.2674
52.258
52.2474
52.2398
52.2266
52.2185
52.2061
52.1974
52.1808
52.1776
52.1549
52.154
53.7714
52.7239
52.3071
52.3541
52.5216
52.608
52.6019
52.5513
52.5041
52.4692
52.4341
52.4126
52.4044
52.4108
52.425
52.4308
52.419
52.3937
52.3651
52.3403
52.3211
52.3068
52.2931
52.2822
52.2674
52.2576
52.2413
52.2324
52.2164
52.204
52.1957
52.1739
52.1708
52.1497
52.1448
53.8541
52.8102
52.4004
52.4451
52.6016
52.6756
52.6597
52.6052
52.5554
52.5173
52.4869
52.466
52.4548
52.4533
52.4566
52.4557
52.4444
52.4243
52.4013
52.3799
52.3616
52.3469
52.3313
52.3202
52.3011
52.2946
52.2684
52.2699
52.2357
52.2421
52.2083
52.2085
52.1812
52.173
52.1514
53.912
52.8633
52.4669
52.5086
52.6709
52.7745
52.7967
52.7718
52.7338
52.6982
52.6682
52.6452
52.6288
52.6165
52.6047
52.5897
52.5702
52.5474
52.5242
52.5031
52.4846
52.4696
52.4546
52.4433
52.4279
52.4172
52.3995
52.3904
52.367
52.3619
52.3352
52.3283
52.3048
52.2949
52.2714
53.9593
52.9156
52.5237
52.564
52.7229
52.8242
52.8468
52.8228
52.786
52.7523
52.7166
52.6913
52.6794
52.6757
52.674
52.6664
52.6478
52.6201
52.5893
52.5605
52.5362
52.5157
52.4991
52.4819
52.4679
52.4502
52.4355
52.4172
52.4019
52.3806
52.3679
52.342
52.3311
52.3012
52.2918
54.0049
52.9603
52.5684
52.6078
52.763
52.8554
52.868
52.8353
52.7933
52.7651
52.721
52.6926
52.6859
52.6908
52.699
52.6986
52.6809
52.6484
52.6107
52.576
52.5478
52.5247
52.5061
52.4869
52.4709
52.4509
52.4344
52.4139
52.3972
52.3743
52.3598
52.3336
52.3208
52.2913
52.2792
54.0516
53.007
52.6173
52.6551
52.8037
52.8857
52.8869
52.8463
52.8017
52.7686
52.7307
52.7038
52.6938
52.6945
52.6988
52.697
52.6812
52.652
52.617
52.5835
52.5551
52.5311
52.5113
52.4907
52.4733
52.4517
52.4338
52.4114
52.3937
52.3695
52.3523
52.3282
52.3091
52.2844
52.267
54.0981
53.0523
52.6637
52.6999
52.8451
52.9225
52.918
52.8739
52.8276
52.7906
52.7584
52.7338
52.7192
52.7114
52.7059
52.6968
52.68
52.6554
52.6269
52.5986
52.573
52.5496
52.5292
52.5078
52.4885
52.4672
52.4459
52.4261
52.4026
52.383
52.3586
52.3402
52.3136
52.2938
52.2689
54.1214
53.0805
52.722
52.7632
52.9045
52.989
52.9999
52.9702
52.9302
52.8935
52.8617
52.8352
52.8139
52.7958
52.7782
52.7588
52.7362
52.7109
52.6843
52.6581
52.6336
52.6101
52.589
52.567
52.5465
52.5258
52.501
52.4841
52.4548
52.4375
52.4104
52.3882
52.3648
52.3393
52.3168
54.1374
53.0982
52.741
52.7815
52.9225
53.0086
53.0224
52.9949
52.9559
52.9208
52.8849
52.8562
52.841
52.8327
52.8242
52.8101
52.7878
52.7579
52.7244
52.6913
52.6614
52.6342
52.6108
52.5864
52.5657
52.5413
52.5195
52.4959
52.4724
52.4479
52.4246
52.3998
52.3755
52.3497
52.3266
54.1523
53.1124
52.7546
52.7944
52.9345
53.0184
53.0297
53.0002
52.9585
52.9278
52.8863
52.8527
52.8446
52.8474
52.8482
52.8396
52.8174
52.7829
52.7427
52.7036
52.6694
52.6397
52.6147
52.5892
52.5673
52.5422
52.5189
52.495
52.4702
52.4453
52.4216
52.3958
52.3722
52.3455
52.3228
54.1674
53.1275
52.7703
52.8091
52.9469
53.0277
53.036
53.0042
52.9609
52.9307
52.888
52.8531
52.8464
52.8515
52.8543
52.847
52.8248
52.7891
52.7472
52.7063
52.6709
52.6404
52.6149
52.5892
52.5669
52.5414
52.5175
52.4931
52.4678
52.4426
52.4181
52.3926
52.3678
52.3417
52.3181
54.1823
53.1418
52.7849
52.8229
52.9591
53.0374
53.0422
53.0074
52.9643
52.9287
52.8923
52.8627
52.8491
52.844
52.8387
52.8271
52.8055
52.7745
52.7383
52.7023
52.6695
52.6408
52.6143
52.5903
52.5651
52.5418
52.5163
52.4915
52.4667
52.4411
52.4158
52.3904
52.3656
52.3396
52.315
54.1966
53.1551
52.7985
52.8356
52.9699
53.0454
53.047
53.0098
52.966
52.9282
52.8952
52.8683
52.8491
52.8344
52.8201
52.8027
52.7804
52.7534
52.7238
52.6941
52.6657
52.6393
52.6138
52.59
52.5647
52.5413
52.5158
52.4909
52.466
52.4403
52.4148
52.3894
52.3644
52.3385
52.3137
37.7755
37.3508
37.0769
37.0452
37.1325
37.1866
37.1676
37.1218
37.0754
37.043
37.0288
37.0193
37.0098
37.0073
37.0137
37.0231
37.0293
37.0307
37.0288
37.0259
37.022
37.0198
37.0147
37.0148
37.0069
37.0155
36.9931
37.0266
36.9776
37.031
36.9759
37.0262
36.9743
37.0283
36.9632
37.9042
37.4651
37.1577
37.0973
37.1979
37.3045
37.3475
37.3401
37.3117
37.2825
37.2644
37.2552
37.25
37.2481
37.2478
37.2454
37.2387
37.2294
37.2206
37.2153
37.2125
37.2147
37.2135
37.2202
37.2134
37.229
37.2044
37.2421
37.1954
37.2451
37.1978
37.2427
37.2026
37.2434
37.2037
38.0004
37.577
37.2838
37.2257
37.3172
37.4107
37.4421
37.4291
37.4005
37.3683
37.3485
37.3388
37.3303
37.3269
37.3319
37.339
37.3401
37.3335
37.3228
37.3133
37.3059
37.303
37.2999
37.2981
37.2989
37.2916
37.2967
37.2857
37.2929
37.2779
37.2883
37.2716
37.2799
37.2676
37.2638
38.1013
37.6749
37.3849
37.3322
37.4184
37.4898
37.4938
37.4587
37.4227
37.3896
37.3703
37.3617
37.3533
37.3487
37.3531
37.3618
37.3662
37.3632
37.3554
37.3466
37.3397
37.3329
37.3291
37.3225
37.319
37.3141
37.3093
37.3059
37.3017
37.298
37.2944
37.2896
37.2881
37.2829
37.2817
38.2054
37.7831
37.5014
37.4469
37.5226
37.5816
37.5777
37.5372
37.4968
37.4637
37.4426
37.4306
37.4216
37.4161
37.4167
37.4209
37.4237
37.4227
37.4184
37.4123
37.4064
37.3991
37.3939
37.3865
37.3794
37.3787
37.3611
37.3773
37.3404
37.3776
37.3251
37.3666
37.3187
37.3538
37.3041
38.2796
37.8484
37.5545
37.4874
37.5744
37.6738
37.7189
37.7146
37.6907
37.6626
37.6399
37.6264
37.6179
37.6118
37.608
37.6044
37.5981
37.5884
37.5774
37.5669
37.5591
37.5528
37.5485
37.5469
37.5374
37.547
37.5226
37.5454