/*--------------------------------*- C++ -*----------------------------------*\
  =========                 |
  \\      /  F ield         | OpenFOAM: The Open Source CFD Toolbox
   \\    /   O peration     | Website:  https://openfoam.org
    \\  /    A nd           | Version:  6
     \\/     M anipulation  |
\*---------------------------------------------------------------------------*/
FoamFile
{
    version     2.0;
    format      ascii;
    class       volScalarField;
    location    "1";
    object      p;
}
// * * * * * * * * * * * * * * * * * * * * * * * * * * * * * * * * * * * * * //

dimensions      [0 2 -2 0 0 0 0];

internalField   nonuniform List<scalar> 
63264
(
0.0123305
0.0127078
0.0124556
0.0123921
0.0123458
0.0122951
0.0122496
0.0122039
0.0121557
0.0121034
0.0120466
0.0119854
0.011921
0.0118553
0.0117893
0.0117231
0.0116565
0.0115895
0.0115219
0.0114534
0.0113837
0.0113125
0.0112389
0.0111633
0.0110838
0.0110015
0.0109141
0.0108221
0.010724
0.0106196
0.0105071
0.0103882
0.0102524
0.0101223
0.00992075
0.0123555
0.0127418
0.01248
0.0124092
0.0123583
0.0123048
0.0122583
0.0122135
0.0121674
0.0121182
0.0120655
0.012009
0.0119498
0.0118895
0.0118294
0.0117696
0.0117099
0.0116503
0.0115906
0.0115306
0.0114699
0.0114086
0.0113454
0.0112811
0.0112137
0.0111441
0.0110703
0.0109927
0.0109099
0.0108221
0.0107271
0.0106297
0.0105179
0.0104219
0.0102731
0.0123796
0.0127739
0.0125053
0.0124299
0.0123763
0.0123205
0.0122722
0.0122262
0.0121798
0.0121317
0.0120812
0.0120283
0.0119732
0.0119177
0.011863
0.0118094
0.0117565
0.0117042
0.0116524
0.0116008
0.0115492
0.0114974
0.0114447
0.011391
0.0113354
0.0112776
0.0112168
0.0111523
0.0110829
0.0110089
0.0109272
0.0108418
0.0107429
0.0106508
0.0105312
0.0123999
0.0128025
0.0125263
0.0124459
0.0123895
0.012332
0.0122832
0.0122376
0.0121925
0.0121466
0.0120992
0.0120502
0.0119996
0.0119489
0.0118995
0.0118517
0.0118051
0.0117598
0.0117154
0.0116721
0.0116293
0.0115871
0.0115447
0.0115021
0.0114584
0.0114135
0.0113663
0.0113165
0.0112628
0.0112054
0.0111415
0.0110744
0.010994
0.0109196
0.0108078
0.0124189
0.0128319
0.0125493
0.0124654
0.0124071
0.0123479
0.0122977
0.0122515
0.0122065
0.0121616
0.0121161
0.01207
0.0120232
0.0119767
0.0119322
0.0118898
0.0118495
0.0118109
0.011774
0.0117386
0.0117045
0.0116716
0.0116391
0.0116075
0.011575
0.0115427
0.0115082
0.0114726
0.0114334
0.0113915
0.0113432
0.0112931
0.0112265
0.0111719
0.0110552
0.0124352
0.0128563
0.0125686
0.0124805
0.0124195
0.0123588
0.0123082
0.0122625
0.0122188
0.0121761
0.0121333
0.0120906
0.0120475
0.0120053
0.0119655
0.0119285
0.011894
0.0118619
0.011832
0.0118044
0.0117785
0.0117548
0.0117321
0.0117113
0.0116906
0.0116708
0.0116504
0.0116293
0.0116064
0.0115819
0.0115528
0.0115238
0.0114834
0.0114547
0.0113894
0.0124516
0.0128799
0.0125891
0.0124986
0.0124363
0.0123743
0.0123227
0.0122764
0.0122328
0.0121909
0.0121499
0.01211
0.0120703
0.0120316
0.011996
0.0119642
0.0119356
0.0119098
0.0118869
0.0118667
0.0118491
0.0118341
0.0118213
0.0118107
0.0118016
0.0117939
0.0117867
0.0117798
0.011772
0.0117635
0.0117516
0.011739
0.0117188
0.0117026
0.0116704
0.0124652
0.0129006
0.0126054
0.0125118
0.012448
0.0123854
0.0123337
0.0122879
0.0122452
0.0122049
0.0121661
0.012129
0.0120927
0.0120576
0.0120261
0.0119989
0.0119755
0.0119555
0.011939
0.0119258
0.0119159
0.0119095
0.011906
0.0119056
0.0119077
0.0119121
0.0119184
0.0119259
0.0119339
0.0119424
0.0119491
0.0119561
0.0119574
0.0119621
0.0119501
0.0124777
0.0129213
0.0126227
0.0125275
0.0124629
0.0123996
0.0123472
0.012301
0.0122587
0.0122192
0.0121818
0.0121468
0.0121132
0.0120817
0.0120541
0.0120311
0.0120126
0.0119983
0.0119879
0.0119816
0.0119791
0.011981
0.0119862
0.0119957
0.0120083
0.0120244
0.0120431
0.0120644
0.0120872
0.0121117
0.0121357
0.012161
0.01218
0.012206
0.0122023
0.0124883
0.0129395
0.0126376
0.0125396
0.0124732
0.0124092
0.0123568
0.0123112
0.01227
0.012232
0.0121965
0.0121637
0.0121329
0.0121047
0.0120808
0.0120618
0.0120478
0.0120385
0.0120338
0.0120338
0.0120383
0.0120477
0.0120615
0.0120802
0.0121031
0.0121305
0.0121617
0.0121967
0.0122347
0.0122758
0.0123184
0.0123643
0.0124079
0.0124592
0.012496
0.0124985
0.0129554
0.012652
0.0125527
0.0124859
0.0124214
0.0123687
0.012323
0.0122819
0.0122447
0.0122106
0.0121799
0.0121515
0.0121258
0.0121048
0.0120897
0.0120802
0.0120758
0.0120766
0.0120825
0.0120936
0.0121102
0.0121321
0.0121594
0.0121921
0.01223
0.012273
0.0123208
0.0123728
0.0124292
0.0124886
0.0125519
0.0126162
0.0126851
0.0127514
0.0125078
0.0129692
0.0126639
0.0125628
0.0124953
0.0124306
0.012378
0.0123327
0.0122923
0.0122561
0.0122234
0.0121949
0.0121691
0.0121455
0.0121271
0.0121153
0.0121097
0.0121098
0.0121154
0.0121266
0.0121437
0.0121668
0.0121961
0.0122316
0.0122733
0.0123213
0.0123753
0.0124353
0.012501
0.0125722
0.0126484
0.0127297
0.0128146
0.0129044
0.0129964
0.0125154
0.0129823
0.0126752
0.0125733
0.0125054
0.0124406
0.0123879
0.0123427
0.0123026
0.012267
0.0122354
0.0122081
0.0121841
0.0121631
0.0121474
0.0121386
0.0121365
0.0121405
0.0121505
0.0121667
0.0121894
0.0122186
0.0122546
0.0122975
0.0123475
0.0124046
0.0124687
0.01254
0.0126179
0.0127028
0.012794
0.0128917
0.0129949
0.0131045
0.0132178
0.0125219
0.0129938
0.0126844
0.0125813
0.0125131
0.0124483
0.0123958
0.0123507
0.0123113
0.0122765
0.012246
0.0122199
0.0121976
0.012179
0.0121658
0.0121595
0.0121601
0.0121674
0.0121813
0.0122019
0.0122293
0.012264
0.012306
0.0123557
0.012413
0.0124784
0.0125516
0.0126331
0.0127224
0.0128199
0.0129249
0.013038
0.0131571
0.0132855
0.0134131
0.0125272
0.0130042
0.0126936
0.0125893
0.0125202
0.0124553
0.0124028
0.0123579
0.0123189
0.0122849
0.0122552
0.0122302
0.0122092
0.0121924
0.0121815
0.0121775
0.0121808
0.0121911
0.0122083
0.0122327
0.0122645
0.0123039
0.0123511
0.0124067
0.0124706
0.0125432
0.0126246
0.012715
0.0128144
0.0129231
0.0130408
0.0131682
0.0133038
0.0134505
0.0136024
0.0125319
0.0130118
0.0127004
0.0125953
0.0125261
0.012461
0.0124086
0.012364
0.0123253
0.0122919
0.0122631
0.0122393
0.0122198
0.0122042
0.0121945
0.0121923
0.0121979
0.0122108
0.012231
0.0122586
0.012294
0.0123374
0.0123891
0.0124496
0.012519
0.0125978
0.0126861
0.0127843
0.0128924
0.0130107
0.0131392
0.0132783
0.0134275
0.0135878
0.0137575
0.0125359
0.0130182
0.0127062
0.0126005
0.012531
0.012466
0.0124136
0.0123691
0.0123307
0.0122976
0.0122693
0.0122466
0.0122284
0.0122136
0.0122048
0.0122041
0.0122117
0.0122268
0.0122494
0.0122796
0.0123178
0.0123644
0.0124198
0.0124843
0.0125583
0.0126421
0.0127361
0.0128406
0.0129558
0.0130821
0.0132196
0.0133686
0.0135292
0.013702
0.0138863
0.0125388
0.013023
0.0127103
0.0126043
0.0125348
0.0124697
0.0124175
0.0123731
0.0123348
0.012302
0.0122742
0.0122521
0.0122347
0.0122208
0.0122128
0.0122132
0.0122221
0.0122388
0.0122632
0.0122954
0.0123358
0.0123848
0.0124429
0.0125105
0.0125879
0.0126756
0.0127739
0.0128832
0.0130038
0.0131361
0.0132804
0.013437
0.0136061
0.0137883
0.0139832
0.0125407
0.0130264
0.0127132
0.0126069
0.0125374
0.0124724
0.0124201
0.0123758
0.0123377
0.0123051
0.0122776
0.0122556
0.0122384
0.0122253
0.0122184
0.0122197
0.0122293
0.0122469
0.0122723
0.0123058
0.0123477
0.0123985
0.0124584
0.0125281
0.0126078
0.0126981
0.0127993
0.0129118
0.0130362
0.0131726
0.0133215
0.0134833
0.0136583
0.013847
0.0140492
0.0125417
0.0130285
0.0127146
0.0126083
0.0125388
0.0124738
0.0124216
0.0123773
0.0123392
0.0123067
0.0122793
0.0122573
0.0122401
0.0122276
0.0122214
0.0122231
0.012233
0.0122509
0.0122768
0.012311
0.0123536
0.0124052
0.0124662
0.0125369
0.0126178
0.0127094
0.012812
0.0129262
0.0130524
0.0131909
0.0133421
0.0135065
0.0136844
0.0138764
0.0140823
0.0123296
0.012706
0.0124555
0.0123921
0.0123457
0.0122951
0.0122496
0.0122039
0.0121557
0.0121034
0.0120466
0.0119854
0.011921
0.0118553
0.0117893
0.0117231
0.0116565
0.0115895
0.0115219
0.0114535
0.0113837
0.0113125
0.0112389
0.0111633
0.0110839
0.0110015
0.0109141
0.0108221
0.010724
0.0106197
0.0105072
0.0103883
0.0102526
0.0101224
0.00992097
0.0123546
0.01274
0.01248
0.0124093
0.0123583
0.0123048
0.0122583
0.0122135
0.0121673
0.0121182
0.0120654
0.012009
0.0119498
0.0118895
0.0118294
0.0117696
0.0117099
0.0116503
0.0115906
0.0115306
0.0114699
0.0114086
0.0113454
0.0112811
0.0112137
0.0111442
0.0110704
0.0109928
0.0109099
0.0108222
0.0107272
0.0106298
0.0105181
0.010422
0.0102733
0.0123787
0.0127721
0.0125053
0.01243
0.0123763
0.0123205
0.0122722
0.0122262
0.0121798
0.0121317
0.0120812
0.0120283
0.0119732
0.0119176
0.011863
0.0118094
0.0117565
0.0117042
0.0116524
0.0116008
0.0115492
0.0114974
0.0114447
0.011391
0.0113354
0.0112777
0.0112168
0.0111523
0.011083
0.011009
0.0109273
0.010842
0.0107431
0.010651
0.0105313
0.0123991
0.0128007
0.0125262
0.0124458
0.0123894
0.012332
0.0122832
0.0122376
0.0121925
0.0121466
0.0120992
0.0120502
0.0119996
0.0119489
0.0118995
0.0118517
0.0118051
0.0117598
0.0117154
0.011672
0.0116293
0.0115871
0.0115447
0.0115021
0.0114584
0.0114135
0.0113663
0.0113166
0.0112628
0.0112055
0.0111415
0.0110744
0.0109941
0.0109198
0.0108079
0.0124183
0.01283
0.0125492
0.0124653
0.012407
0.0123478
0.0122977
0.0122514
0.0122065
0.0121616
0.0121161
0.01207
0.0120231
0.0119767
0.0119322
0.0118898
0.0118495
0.0118109
0.011774
0.0117386
0.0117045
0.0116716
0.0116391
0.0116075
0.011575
0.0115427
0.0115082
0.0114726
0.0114334
0.0113915
0.0113433
0.0112931
0.0112266
0.0111719
0.0110554
0.0124347
0.0128546
0.0125686
0.0124805
0.0124195
0.0123588
0.0123081
0.0122624
0.0122188
0.012176
0.0121333
0.0120905
0.0120475
0.0120053
0.0119655
0.0119285
0.011894
0.0118619
0.011832
0.0118043
0.0117785
0.0117548
0.0117321
0.0117113
0.0116906
0.0116708
0.0116504
0.0116293
0.0116064
0.0115819
0.0115529
0.0115238
0.0114835
0.0114547
0.0113895
0.012451
0.0128782
0.012589
0.0124985
0.0124362
0.0123742
0.0123226
0.0122764
0.0122328
0.0121909
0.0121499
0.01211
0.0120702
0.0120315
0.011996
0.0119642
0.0119355
0.0119098
0.0118868
0.0118667
0.0118491
0.0118341
0.0118213
0.0118107
0.0118016
0.0117938
0.0117867
0.0117798
0.011772
0.0117634
0.0117516
0.0117391
0.0117188
0.0117027
0.0116705
0.0124647
0.0128988
0.0126053
0.0125117
0.0124479
0.0123853
0.0123336
0.0122878
0.0122452
0.0122049
0.0121661
0.012129
0.0120926
0.0120575
0.0120261
0.0119989
0.0119754
0.0119555
0.0119389
0.0119258
0.0119159
0.0119095
0.0119059
0.0119056
0.0119077
0.0119121
0.0119183
0.0119258
0.0119338
0.0119423
0.0119491
0.0119561
0.0119574
0.0119621
0.0119501
0.0124773
0.0129196
0.0126226
0.0125274
0.0124628
0.0123995
0.0123471
0.012301
0.0122586
0.0122191
0.0121818
0.0121467
0.0121131
0.0120816
0.012054
0.0120311
0.0120126
0.0119983
0.0119878
0.0119816
0.0119791
0.0119809
0.0119862
0.0119956
0.0120082
0.0120243
0.012043
0.0120643
0.0120872
0.0121116
0.0121356
0.0121609
0.01218
0.012206
0.0122023
0.0124881
0.0129379
0.0126376
0.0125394
0.0124731
0.0124091
0.0123567
0.0123112
0.0122699
0.0122319
0.0121965
0.0121636
0.0121329
0.0121047
0.0120807
0.0120618
0.0120478
0.0120385
0.0120337
0.0120337
0.0120382
0.0120476
0.0120614
0.0120801
0.012103
0.0121304
0.0121616
0.0121966
0.0122346
0.0122757
0.0123183
0.0123642
0.0124078
0.0124591
0.0124959
0.0124983
0.0129538
0.0126519
0.0125525
0.0124858
0.0124213
0.0123686
0.0123229
0.0122819
0.0122446
0.0122106
0.0121798
0.0121514
0.0121257
0.0121048
0.0120897
0.0120801
0.0120758
0.0120765
0.0120824
0.0120936
0.0121101
0.012132
0.0121593
0.012192
0.0122299
0.0122729
0.0123207
0.0123727
0.0124291
0.0124885
0.0125518
0.0126161
0.012685
0.0127513
0.0125075
0.0129676
0.0126638
0.0125626
0.0124951
0.0124305
0.0123779
0.0123327
0.0122923
0.0122561
0.0122234
0.0121948
0.0121689
0.0121454
0.012127
0.0121153
0.0121097
0.0121098
0.0121153
0.0121266
0.0121436
0.0121667
0.012196
0.0122315
0.0122732
0.0123212
0.0123752
0.0124352
0.0125009
0.0125721
0.0126482
0.0127296
0.0128145
0.0129042
0.0129963
0.0125152
0.0129807
0.0126751
0.012573
0.0125052
0.0124405
0.0123879
0.0123426
0.0123025
0.0122669
0.0122353
0.0122081
0.0121839
0.0121629
0.0121473
0.0121385
0.0121364
0.0121404
0.0121505
0.0121667
0.0121893
0.0122185
0.0122545
0.0122974
0.0123474
0.0124045
0.0124686
0.0125398
0.0126178
0.0127027
0.0127939
0.0128916
0.0129947
0.0131043
0.0132177
0.0125219
0.0129922
0.0126842
0.012581
0.0125129
0.0124482
0.0123957
0.0123507
0.0123112
0.0122765
0.012246
0.0122199
0.0121975
0.0121788
0.0121657
0.0121594
0.01216
0.0121673
0.0121812
0.0122018
0.0122292
0.0122639
0.0123059
0.0123556
0.0124129
0.0124783
0.0125515
0.012633
0.0127222
0.0128197
0.0129247
0.0130378
0.0131569
0.0132853
0.0134129
0.0125273
0.0130028
0.0126935
0.0125889
0.01252
0.0124551
0.0124027
0.0123578
0.0123188
0.0122848
0.0122551
0.0122301
0.0122091
0.0121923
0.0121814
0.0121774
0.0121807
0.012191
0.0122082
0.0122326
0.0122643
0.0123038
0.012351
0.0124066
0.0124704
0.012543
0.0126244
0.0127148
0.0128142
0.0129229
0.0130406
0.0131679
0.0133036
0.0134503
0.0136022
0.012532
0.0130104
0.0127003
0.012595
0.0125259
0.0124609
0.0124085
0.0123639
0.0123252
0.0122918
0.012263
0.0122392
0.0122197
0.0122041
0.0121944
0.0121922
0.0121978
0.0122107
0.0122309
0.0122585
0.0122938
0.0123372
0.0123889
0.0124494
0.0125188
0.0125976
0.0126859
0.0127841
0.0128922
0.0130105
0.013139
0.013278
0.0134272
0.0135876
0.0137573
0.012536
0.0130168
0.012706
0.0126001
0.0125308
0.0124658
0.0124135
0.012369
0.0123306
0.0122975
0.0122693
0.0122466
0.0122282
0.0122134
0.0122046
0.012204
0.0122116
0.0122267
0.0122493
0.0122795
0.0123177
0.0123643
0.0124196
0.0124841
0.0125581
0.0126419
0.0127359
0.0128404
0.0129556
0.0130818
0.0132193
0.0133684
0.013529
0.0137018
0.013886
0.0125389
0.0130216
0.0127102
0.0126039
0.0125346
0.0124696
0.0124173
0.012373
0.0123347
0.0123019
0.0122742
0.0122521
0.0122345
0.0122205
0.0122126
0.0122131
0.012222
0.0122387
0.0122631
0.0122952
0.0123356
0.0123847
0.0124428
0.0125103
0.0125877
0.0126754
0.0127737
0.012883
0.0130036
0.0131359
0.0132802
0.0134368
0.0136059
0.013788
0.0139829
0.0125408
0.013025
0.012713
0.0126065
0.0125371
0.0124722
0.01242
0.0123757
0.0123376
0.012305
0.0122775
0.0122555
0.0122382
0.0122251
0.0122183
0.0122196
0.0122292
0.0122468
0.0122722
0.0123057
0.0123476
0.0123983
0.0124583
0.0125279
0.0126076
0.0126979
0.0127991
0.0129116
0.0130359
0.0131723
0.0133212
0.0134831
0.013658
0.0138467
0.0140489
0.0125419
0.0130271
0.0127144
0.0126079
0.0125385
0.0124737
0.0124215
0.0123772
0.0123391
0.0123066
0.0122792
0.0122572
0.01224
0.0122274
0.0122212
0.0122229
0.0122329
0.0122508
0.0122767
0.0123108
0.0123535
0.0124051
0.012466
0.0125367
0.0126176
0.0127092
0.0128118
0.012926
0.0130522
0.0131906
0.0133419
0.0135063
0.0136841
0.0138761
0.014082
0.0123327
0.0127031
0.0124554
0.0123923
0.0123458
0.0122951
0.0122496
0.0122039
0.0121557
0.0121033
0.0120466
0.0119854
0.011921
0.0118553
0.0117893
0.0117231
0.0116565
0.0115895
0.0115219
0.0114534
0.0113837
0.0113125
0.0112389
0.0111633
0.0110839
0.0110015
0.0109141
0.0108221
0.010724
0.0106197
0.0105072
0.0103883
0.0102526
0.0101223
0.00992075
0.0123578
0.012737
0.0124799
0.0124095
0.0123585
0.0123049
0.0122583
0.0122135
0.0121673
0.0121182
0.0120654
0.012009
0.0119498
0.0118895
0.0118294
0.0117696
0.0117099
0.0116503
0.0115906
0.0115306
0.0114699
0.0114086
0.0113454
0.0112811
0.0112137
0.0111442
0.0110704
0.0109928
0.0109099
0.0108222
0.0107272
0.0106298
0.0105181
0.010422
0.0102734
0.0123819
0.012769
0.0125052
0.0124302
0.0123765
0.0123205
0.0122722
0.0122261
0.0121798
0.0121317
0.0120812
0.0120283
0.0119732
0.0119177
0.011863
0.0118094
0.0117565
0.0117042
0.0116524
0.0116008
0.0115492
0.0114974
0.0114447
0.011391
0.0113354
0.0112777
0.0112168
0.0111523
0.011083
0.011009
0.0109272
0.010842
0.010743
0.010651
0.0105313
0.0124023
0.0127975
0.0125261
0.012446
0.0123896
0.012332
0.0122831
0.0122375
0.0121924
0.0121466
0.0120992
0.0120502
0.0119996
0.0119489
0.0118995
0.0118517
0.0118051
0.0117597
0.0117154
0.011672
0.0116293
0.0115871
0.0115447
0.0115021
0.0114584
0.0114135
0.0113663
0.0113166
0.0112628
0.0112055
0.0111415
0.0110744
0.0109941
0.0109197
0.0108079
0.0124216
0.0128267
0.0125491
0.0124656
0.0124072
0.0123479
0.0122977
0.0122514
0.0122064
0.0121616
0.0121161
0.01207
0.0120231
0.0119767
0.0119322
0.0118898
0.0118495
0.0118109
0.011774
0.0117386
0.0117045
0.0116716
0.0116391
0.0116074
0.011575
0.0115427
0.0115082
0.0114726
0.0114334
0.0113915
0.0113433
0.0112931
0.0112266
0.0111719
0.0110553
0.0124379
0.0128512
0.0125684
0.0124807
0.0124197
0.0123588
0.0123082
0.0122624
0.0122188
0.012176
0.0121333
0.0120905
0.0120475
0.0120053
0.0119655
0.0119285
0.011894
0.0118619
0.011832
0.0118043
0.0117785
0.0117548
0.0117321
0.0117113
0.0116906
0.0116708
0.0116504
0.0116293
0.0116064
0.0115819
0.0115529
0.0115238
0.0114834
0.0114547
0.0113895
0.0124543
0.0128748
0.0125889
0.0124988
0.0124364
0.0123743
0.0123226
0.0122763
0.0122328
0.0121909
0.0121499
0.01211
0.0120702
0.0120316
0.0119961
0.0119642
0.0119355
0.0119098
0.0118868
0.0118667
0.011849
0.0118341
0.0118213
0.0118107
0.0118015
0.0117938
0.0117867
0.0117798
0.011772
0.0117634
0.0117516
0.0117391
0.0117188
0.0117027
0.0116705
0.012468
0.0128953
0.0126051
0.0125119
0.0124481
0.0123853
0.0123336
0.0122878
0.0122452
0.0122049
0.0121661
0.012129
0.0120926
0.0120576
0.0120261
0.0119989
0.0119754
0.0119555
0.0119389
0.0119258
0.0119159
0.0119095
0.0119059
0.0119056
0.0119077
0.0119121
0.0119183
0.0119258
0.0119338
0.0119423
0.0119491
0.0119561
0.0119574
0.0119621
0.0119502
0.0124806
0.0129159
0.0126224
0.0125276
0.012463
0.0123995
0.0123471
0.012301
0.0122586
0.0122191
0.0121818
0.0121467
0.0121131
0.0120817
0.0120541
0.0120311
0.0120126
0.0119982
0.0119878
0.0119816
0.0119791
0.0119809
0.0119862
0.0119956
0.0120082
0.0120243
0.012043
0.0120643
0.0120872
0.0121116
0.0121356
0.0121609
0.01218
0.0122059
0.0122022
0.0124914
0.0129342
0.0126373
0.0125396
0.0124733
0.0124092
0.0123568
0.0123112
0.0122699
0.0122319
0.0121965
0.0121636
0.0121329
0.0121047
0.0120807
0.0120618
0.0120478
0.0120385
0.0120337
0.0120337
0.0120382
0.0120476
0.0120614
0.0120801
0.012103
0.0121304
0.0121616
0.0121966
0.0122346
0.0122757
0.0123183
0.0123642
0.0124078
0.0124592
0.0124959
0.0125016
0.01295
0.0126517
0.0125528
0.012486
0.0124214
0.0123687
0.0123229
0.0122819
0.0122446
0.0122105
0.0121798
0.0121515
0.0121258
0.0121048
0.0120897
0.0120801
0.0120758
0.0120765
0.0120824
0.0120936
0.0121101
0.012132
0.0121593
0.012192
0.0122299
0.0122729
0.0123207
0.0123727
0.0124291
0.0124885
0.0125518
0.0126161
0.0126851
0.0127514
0.0125109
0.0129638
0.0126635
0.0125629
0.0124953
0.0124305
0.0123779
0.0123327
0.0122923
0.012256
0.0122234
0.0121948
0.0121689
0.0121454
0.0121271
0.0121153
0.0121097
0.0121097
0.0121153
0.0121265
0.0121436
0.0121667
0.012196
0.0122315
0.0122732
0.0123212
0.0123752
0.0124352
0.0125009
0.0125721
0.0126483
0.0127296
0.0128145
0.0129043
0.0129963
0.0125186
0.0129769
0.0126748
0.0125733
0.0125055
0.0124406
0.0123879
0.0123426
0.0123025
0.0122669
0.0122353
0.012208
0.012184
0.012163
0.0121474
0.0121386
0.0121364
0.0121404
0.0121504
0.0121666
0.0121893
0.0122185
0.0122545
0.0122974
0.0123474
0.0124045
0.0124686
0.0125398
0.0126178
0.0127027
0.0127939
0.0128916
0.0129947
0.0131043
0.0132177
0.0125252
0.0129883
0.012684
0.0125813
0.0125131
0.0124482
0.0123957
0.0123507
0.0123112
0.0122765
0.0122459
0.0122199
0.0121975
0.0121789
0.0121657
0.0121594
0.0121601
0.0121673
0.0121812
0.0122018
0.0122292
0.0122639
0.0123059
0.0123556
0.0124129
0.0124783
0.0125515
0.012633
0.0127222
0.0128197
0.0129247
0.0130378
0.0131569
0.0132853
0.0134129
0.0125306
0.0129988
0.0126932
0.0125892
0.0125203
0.0124552
0.0124027
0.0123578
0.0123188
0.0122848
0.0122551
0.0122301
0.0122091
0.0121924
0.0121814
0.0121775
0.0121807
0.012191
0.0122082
0.0122326
0.0122643
0.0123038
0.012351
0.0124066
0.0124704
0.012543
0.0126244
0.0127148
0.0128143
0.0129229
0.0130406
0.013168
0.0133036
0.0134503
0.0136022
0.0125354
0.0130064
0.0127
0.0125953
0.0125261
0.012461
0.0124085
0.0123639
0.0123252
0.0122918
0.012263
0.0122392
0.0122197
0.0122041
0.0121944
0.0121923
0.0121978
0.0122107
0.0122309
0.0122585
0.0122938
0.0123372
0.012389
0.0124494
0.0125189
0.0125976
0.0126859
0.0127841
0.0128922
0.0130105
0.013139
0.0132781
0.0134272
0.0135876
0.0137573
0.0125393
0.0130128
0.0127058
0.0126004
0.0125311
0.0124659
0.0124135
0.012369
0.0123306
0.0122975
0.0122693
0.0122466
0.0122282
0.0122135
0.0122047
0.0122041
0.0122116
0.0122267
0.0122493
0.0122795
0.0123177
0.0123643
0.0124196
0.0124841
0.0125581
0.0126419
0.0127359
0.0128404
0.0129556
0.0130819
0.0132193
0.0133684
0.013529
0.0137018
0.013886
0.0125423
0.0130175
0.0127099
0.0126042
0.0125348
0.0124697
0.0124174
0.012373
0.0123347
0.0123019
0.0122741
0.0122521
0.0122345
0.0122206
0.0122127
0.0122132
0.012222
0.0122387
0.012263
0.0122952
0.0123356
0.0123847
0.0124428
0.0125103
0.0125877
0.0126754
0.0127737
0.012883
0.0130036
0.0131359
0.0132802
0.0134368
0.0136059
0.013788
0.0139829
0.0125442
0.013021
0.0127127
0.0126068
0.0125374
0.0124723
0.01242
0.0123757
0.0123376
0.012305
0.0122775
0.0122555
0.0122382
0.0122252
0.0122183
0.0122196
0.0122292
0.0122468
0.0122722
0.0123057
0.0123476
0.0123983
0.0124583
0.0125279
0.0126076
0.0126979
0.0127991
0.0129116
0.0130359
0.0131724
0.0133213
0.0134831
0.013658
0.0138467
0.014049
0.0125452
0.013023
0.0127142
0.0126082
0.0125388
0.0124738
0.0124215
0.0123772
0.0123391
0.0123066
0.0122792
0.0122572
0.01224
0.0122275
0.0122213
0.012223
0.0122329
0.0122508
0.0122767
0.0123108
0.0123535
0.0124051
0.012466
0.0125367
0.0126176
0.0127092
0.0128118
0.012926
0.0130522
0.0131907
0.0133419
0.0135063
0.0136841
0.0138761
0.014082
0.0123363
0.0126992
0.0124552
0.0123924
0.0123459
0.0122952
0.0122496
0.0122039
0.0121556
0.0121033
0.0120466
0.0119854
0.011921
0.0118553
0.0117893
0.0117231
0.0116565
0.0115895
0.0115219
0.0114534
0.0113837
0.0113125
0.0112389
0.0111633
0.0110839
0.0110015
0.0109142
0.0108221
0.0107241
0.0106197
0.0105072
0.0103883
0.0102526
0.0101222
0.00992041
0.0123615
0.012733
0.0124796
0.0124096
0.0123586
0.012305
0.0122584
0.0122135
0.0121673
0.0121182
0.0120654
0.012009
0.0119498
0.0118895
0.0118294
0.0117696
0.0117099
0.0116503
0.0115906
0.0115306
0.0114699
0.0114086
0.0113454
0.0112812
0.0112137
0.0111442
0.0110704
0.0109928
0.01091
0.0108222
0.0107272
0.0106299
0.0105181
0.0104221
0.0102736
0.0123857
0.012765
0.0125049
0.0124303
0.0123766
0.0123206
0.0122722
0.0122261
0.0121797
0.0121316
0.0120812
0.0120282
0.0119732
0.0119177
0.011863
0.0118094
0.0117565
0.0117042
0.0116523
0.0116008
0.0115492
0.0114974
0.0114447
0.011391
0.0113354
0.0112777
0.0112168
0.0111523
0.011083
0.011009
0.0109272
0.010842
0.010743
0.010651
0.0105315
0.0124062
0.0127934
0.0125258
0.0124461
0.0123897
0.0123321
0.0122832
0.0122375
0.0121924
0.0121466
0.0120992
0.0120502
0.0119996
0.0119489
0.0118995
0.0118517
0.0118051
0.0117597
0.0117154
0.011672
0.0116293
0.0115871
0.0115447
0.0115021
0.0114584
0.0114135
0.0113663
0.0113166
0.0112628
0.0112055
0.0111415
0.0110745
0.0109941
0.0109198
0.0108079
0.0124256
0.0128225
0.0125488
0.0124656
0.0124073
0.0123479
0.0122977
0.0122514
0.0122064
0.0121616
0.0121161
0.01207
0.0120231
0.0119767
0.0119322
0.0118898
0.0118495
0.0118109
0.011774
0.0117386
0.0117045
0.0116716
0.0116391
0.0116074
0.011575
0.0115427
0.0115083
0.0114726
0.0114334
0.0113915
0.0113433
0.0112931
0.0112266
0.0111719
0.0110551
0.012442
0.0128468
0.0125681
0.0124808
0.0124198
0.0123589
0.0123082
0.0122624
0.0122188
0.012176
0.0121332
0.0120905
0.0120475
0.0120053
0.0119655
0.0119285
0.011894
0.0118619
0.011832
0.0118043
0.0117785
0.0117548
0.0117321
0.0117113
0.0116906
0.0116708
0.0116504
0.0116293
0.0116064
0.0115819
0.0115528
0.0115238
0.0114835
0.0114547
0.0113896
0.0124584
0.0128704
0.0125886
0.0124988
0.0124366
0.0123744
0.0123227
0.0122763
0.0122327
0.0121908
0.0121499
0.0121099
0.0120702
0.0120316
0.0119961
0.0119642
0.0119355
0.0119098
0.0118868
0.0118667
0.011849
0.0118341
0.0118213
0.0118107
0.0118015
0.0117938
0.0117867
0.0117798
0.011772
0.0117634
0.0117516
0.0117391
0.0117188
0.0117027
0.0116706
0.0124722
0.0128909
0.0126048
0.012512
0.0124482
0.0123854
0.0123336
0.0122878
0.0122452
0.0122049
0.0121661
0.012129
0.0120926
0.0120576
0.0120261
0.0119989
0.0119754
0.0119555
0.0119389
0.0119258
0.0119159
0.0119094
0.0119059
0.0119056
0.0119077
0.0119121
0.0119183
0.0119258
0.0119338
0.0119423
0.0119491
0.0119561
0.0119574
0.0119621
0.0119502
0.012485
0.0129114
0.0126221
0.0125277
0.0124631
0.0123996
0.0123471
0.012301
0.0122586
0.0122191
0.0121818
0.0121467
0.0121131
0.0120817
0.0120541
0.0120311
0.0120126
0.0119982
0.0119878
0.0119816
0.0119791
0.0119809
0.0119862
0.0119956
0.0120082
0.0120243
0.012043
0.0120643
0.0120872
0.0121116
0.0121356
0.0121609
0.0121799
0.0122059
0.0122022
0.0124958
0.0129296
0.012637
0.0125397
0.0124735
0.0124093
0.0123568
0.0123111
0.0122699
0.0122319
0.0121965
0.0121636
0.0121329
0.0121047
0.0120807
0.0120618
0.0120478
0.0120385
0.0120337
0.0120337
0.0120382
0.0120476
0.0120614
0.0120801
0.012103
0.0121304
0.0121616
0.0121966
0.0122346
0.0122757
0.0123183
0.0123641
0.0124078
0.0124591
0.012496
0.0125061
0.0129454
0.0126514
0.0125529
0.0124862
0.0124215
0.0123687
0.0123229
0.0122818
0.0122446
0.0122105
0.0121798
0.0121514
0.0121257
0.0121048
0.0120897
0.0120801
0.0120758
0.0120765
0.0120824
0.0120935
0.0121101
0.012132
0.0121593
0.012192
0.0122299
0.0122729
0.0123206
0.0123727
0.0124291
0.0124885
0.0125518
0.0126161
0.012685
0.0127514
0.0125154
0.0129592
0.0126632
0.0125629
0.0124955
0.0124306
0.012378
0.0123326
0.0122922
0.012256
0.0122234
0.0121948
0.0121689
0.0121454
0.0121271
0.0121153
0.0121097
0.0121097
0.0121153
0.0121265
0.0121436
0.0121667
0.012196
0.0122315
0.0122732
0.0123211
0.0123752
0.0124352
0.0125008
0.0125721
0.0126482
0.0127295
0.0128145
0.0129042
0.0129964
0.0125231
0.0129722
0.0126745
0.0125733
0.0125056
0.0124407
0.0123879
0.0123426
0.0123025
0.0122669
0.0122353
0.012208
0.0121839
0.012163
0.0121474
0.0121386
0.0121364
0.0121404
0.0121504
0.0121666
0.0121892
0.0122184
0.0122545
0.0122974
0.0123474
0.0124044
0.0124685
0.0125398
0.0126178
0.0127027
0.0127939
0.0128915
0.0129947
0.0131043
0.0132177
0.0125298
0.0129835
0.0126837
0.0125814
0.0125133
0.0124483
0.0123957
0.0123506
0.0123112
0.0122764
0.0122459
0.0122199
0.0121975
0.0121789
0.0121657
0.0121594
0.01216
0.0121673
0.0121812
0.0122017
0.0122292
0.0122639
0.0123059
0.0123555
0.0124129
0.0124782
0.0125515
0.0126329
0.0127222
0.0128197
0.0129247
0.0130377
0.0131569
0.0132853
0.0134129
0.0125353
0.012994
0.0126929
0.0125893
0.0125204
0.0124553
0.0124027
0.0123578
0.0123188
0.0122848
0.0122551
0.01223
0.0122091
0.0121923
0.0121814
0.0121775
0.0121807
0.012191
0.0122082
0.0122326
0.0122643
0.0123038
0.012351
0.0124065
0.0124704
0.012543
0.0126244
0.0127148
0.0128142
0.0129229
0.0130406
0.0131679
0.0133036
0.0134503
0.0136022
0.01254
0.0130016
0.0126997
0.0125953
0.0125263
0.0124611
0.0124086
0.0123639
0.0123252
0.0122917
0.012263
0.0122392
0.0122197
0.0122041
0.0121944
0.0121923
0.0121978
0.0122107
0.0122309
0.0122585
0.0122938
0.0123372
0.0123889
0.0124494
0.0125188
0.0125976
0.0126859
0.0127841
0.0128921
0.0130105
0.013139
0.013278
0.0134272
0.0135875
0.0137573
0.012544
0.0130079
0.0127054
0.0126005
0.0125312
0.012466
0.0124136
0.012369
0.0123306
0.0122975
0.0122693
0.0122466
0.0122282
0.0122134
0.0122047
0.0122041
0.0122116
0.0122267
0.0122492
0.0122794
0.0123177
0.0123643
0.0124196
0.0124841
0.0125581
0.0126419
0.0127359
0.0128403
0.0129555
0.0130818
0.0132193
0.0133684
0.0135289
0.0137017
0.013886
0.012547
0.0130127
0.0127096
0.0126043
0.012535
0.0124698
0.0124174
0.012373
0.0123347
0.0123019
0.0122741
0.0122521
0.0122345
0.0122206
0.0122127
0.0122132
0.012222
0.0122387
0.012263
0.0122952
0.0123356
0.0123846
0.0124427
0.0125103
0.0125877
0.0126753
0.0127736
0.0128829
0.0130036
0.0131359
0.0132801
0.0134368
0.0136058
0.013788
0.0139829
0.0125488
0.0130161
0.0127123
0.0126069
0.0125375
0.0124724
0.0124201
0.0123757
0.0123376
0.012305
0.0122775
0.0122555
0.0122382
0.0122252
0.0122183
0.0122196
0.0122292
0.0122467
0.0122721
0.0123056
0.0123475
0.0123983
0.0124582
0.0125279
0.0126076
0.0126978
0.012799
0.0129116
0.0130359
0.0131723
0.0133212
0.013483
0.013658
0.0138467
0.0140489
0.0125499
0.0130182
0.0127138
0.0126082
0.0125389
0.0124738
0.0124215
0.0123771
0.0123391
0.0123066
0.0122792
0.0122572
0.01224
0.0122275
0.0122213
0.012223
0.0122329
0.0122508
0.0122767
0.0123108
0.0123535
0.012405
0.012466
0.0125367
0.0126176
0.0127091
0.0128118
0.012926
0.0130521
0.0131906
0.0133418
0.0135062
0.0136841
0.0138761
0.0140819
0.0123409
0.0126945
0.0124548
0.0123923
0.012346
0.0122952
0.0122496
0.0122039
0.0121556
0.0121033
0.0120465
0.0119854
0.011921
0.0118553
0.0117893
0.0117231
0.0116565
0.0115895
0.0115219
0.0114534
0.0113837
0.0113125
0.0112389
0.0111633
0.0110839
0.0110015
0.0109142
0.0108221
0.0107241
0.0106197
0.0105072
0.0103883
0.0102526
0.0101221
0.00991987
0.0123663
0.0127281
0.0124793
0.0124096
0.0123587
0.0123051
0.0122584
0.0122135
0.0121673
0.0121182
0.0120654
0.012009
0.0119497
0.0118895
0.0118294
0.0117696
0.0117099
0.0116503
0.0115906
0.0115306
0.0114699
0.0114086
0.0113454
0.0112812
0.0112138
0.0111442
0.0110705
0.0109928
0.01091
0.0108222
0.0107272
0.0106299
0.0105181
0.0104221
0.0102737
0.0123905
0.01276
0.0125046
0.0124303
0.0123767
0.0123207
0.0122723
0.0122261
0.0121797
0.0121316
0.0120812
0.0120282
0.0119732
0.0119177
0.011863
0.0118094
0.0117565
0.0117042
0.0116523
0.0116008
0.0115492
0.0114974
0.0114447
0.011391
0.0113354
0.0112777
0.0112168
0.0111523
0.011083
0.011009
0.0109273
0.010842
0.0107431
0.010651
0.0105316
0.0124111
0.0127883
0.0125254
0.012446
0.0123897
0.0123321
0.0122832
0.0122375
0.0121924
0.0121465
0.0120992
0.0120502
0.0119996
0.0119489
0.0118995
0.0118517
0.0118051
0.0117597
0.0117154
0.011672
0.0116293
0.011587
0.0115447
0.0115021
0.0114584
0.0114135
0.0113663
0.0113166
0.0112628
0.0112055
0.0111415
0.0110744
0.0109941
0.0109197
0.0108078
0.0124307
0.0128173
0.0125484
0.0124656
0.0124073
0.012348
0.0122977
0.0122514
0.0122064
0.0121615
0.0121161
0.01207
0.0120231
0.0119767
0.0119322
0.0118899
0.0118495
0.0118109
0.011774
0.0117386
0.0117045
0.0116716
0.0116391