/*--------------------------------*- C++ -*----------------------------------*\
  =========                 |
  \\      /  F ield         | OpenFOAM: The Open Source CFD Toolbox
   \\    /   O peration     | Website:  https://openfoam.org
    \\  /    A nd           | Version:  6
     \\/     M anipulation  |
\*---------------------------------------------------------------------------*/
FoamFile
{
    version     2.0;
    format      ascii;
    class       volVectorField;
    location    "1";
    object      U;
}
// * * * * * * * * * * * * * * * * * * * * * * * * * * * * * * * * * * * * * //

dimensions      [0 1 -1 0 0 0 0];

internalField   nonuniform List<vector> 
63264
(
(0.102616 -0.00018397 -0.000420034)
(0.111272 -0.000494732 -4.71292e-05)
(0.110627 -0.000718583 8.71142e-06)
(0.109322 -0.000948287 3.59047e-06)
(0.108535 -0.00108294 8.46595e-07)
(0.108071 -0.00106708 7.47029e-07)
(0.107798 -0.00095169 5.95902e-07)
(0.107704 -0.000817359 3.63539e-07)
(0.107661 -0.000714908 2.83139e-07)
(0.107669 -0.000660261 9.04818e-08)
(0.107713 -0.000646005 1.95886e-07)
(0.107706 -0.000662026 5.44764e-07)
(0.107664 -0.000700889 5.38094e-07)
(0.107653 -0.000758022 1.68106e-07)
(0.107693 -0.000831628 -1.81032e-07)
(0.107763 -0.000920672 -3.23749e-07)
(0.107834 -0.00102398 -2.96473e-07)
(0.107895 -0.00114114 -2.02437e-07)
(0.107946 -0.00127209 -1.13748e-07)
(0.107995 -0.0014174 -5.30483e-08)
(0.108047 -0.00157627 -3.45232e-08)
(0.108114 -0.0017488 -2.6337e-08)
(0.108187 -0.00193286 -4.58599e-08)
(0.108287 -0.00212956 -5.98855e-08)
(0.108389 -0.00233536 -8.53058e-08)
(0.108533 -0.00255296 -3.02919e-08)
(0.10866 -0.00277742 -2.30069e-07)
(0.108869 -0.00301169 1.17675e-07)
(0.109005 -0.00324962 -2.77098e-07)
(0.109304 -0.00349686 3.68941e-08)
(0.109452 -0.00374077 1.18397e-08)
(0.109861 -0.00399659 -1.80251e-07)
(0.110015 -0.0042388 9.42231e-07)
(0.110686 -0.0044921 5.33108e-08)
(0.110598 -0.00474229 7.68268e-06)
(0.103407 -0.0001667 -0.000428564)
(0.112374 -0.000448037 -4.76286e-05)
(0.112028 -0.000676025 9.0645e-06)
(0.111115 -0.000913394 3.01583e-06)
(0.110755 -0.00105883 -9.34235e-08)
(0.110589 -0.00105629 1.33946e-08)
(0.110449 -0.000952616 3.0096e-07)
(0.110354 -0.000826069 3.04625e-07)
(0.110286 -0.00072825 2.49973e-07)
(0.110247 -0.000674537 1.16013e-07)
(0.110232 -0.000659653 9.26538e-08)
(0.110184 -0.00067511 2.68916e-07)
(0.110098 -0.000712085 3.49606e-07)
(0.110022 -0.000766112 2.09341e-07)
(0.109989 -0.000837601 8.76249e-09)
(0.109999 -0.000926838 -1.29611e-07)
(0.110039 -0.00103248 -1.98614e-07)
(0.110097 -0.00115292 -2.20308e-07)
(0.110164 -0.00128722 -2.14729e-07)
(0.110236 -0.00143498 -1.84798e-07)
(0.110306 -0.00159632 -1.45627e-07)
(0.110381 -0.00177079 -8.62236e-08)
(0.11045 -0.00195914 -3.82881e-08)
(0.110539 -0.00215985 1.92346e-08)
(0.110617 -0.00237448 3.80995e-08)
(0.110738 -0.0026003 1.775e-07)
(0.110827 -0.00283852 7.61622e-09)
(0.111008 -0.00308755 3.72381e-07)
(0.111101 -0.00334524 1.42314e-07)
(0.111358 -0.00361304 2.90089e-07)
(0.111458 -0.00388892 4.57208e-07)
(0.111793 -0.00416697 1.0381e-07)
(0.11189 -0.00448477 8.39769e-07)
(0.112354 -0.00474653 -2.03027e-07)
(0.112306 -0.0052646 -3.9635e-07)
(0.104004 -0.000148391 -0.000432379)
(0.113085 -0.000421245 -4.83905e-05)
(0.112712 -0.000661534 9.14746e-06)
(0.111664 -0.00090784 3.07087e-06)
(0.11117 -0.00105001 -1.56811e-07)
(0.110912 -0.00103978 -1.20447e-07)
(0.110711 -0.000932777 1.64937e-07)
(0.110586 -0.000808615 2.00761e-07)
(0.110504 -0.000715552 2.62079e-07)
(0.110443 -0.000664943 1.72243e-07)
(0.110455 -0.000649892 1.64885e-07)
(0.110421 -0.000662702 5.34459e-07)
(0.11028 -0.000696472 7.38762e-07)
(0.110145 -0.00074859 4.66003e-07)
(0.110093 -0.000820395 5.9107e-08)
(0.110109 -0.000911911 -1.63106e-07)
(0.110156 -0.00102084 -2.0207e-07)
(0.110208 -0.00114421 -1.53743e-07)
(0.110253 -0.00128021 -9.39912e-08)
(0.110294 -0.00142787 -2.94986e-08)
(0.110329 -0.00158798 1.44558e-08)
(0.110366 -0.00176068 7.96356e-08)
(0.110401 -0.00194781 1.19148e-07)
(0.110448 -0.00214824 1.51567e-07)
(0.1105 -0.00236403 2.34682e-07)
(0.110562 -0.00259217 2.22404e-07)
(0.110649 -0.00283465 3.21354e-07)
(0.110736 -0.00308827 3.47599e-07)
(0.110866 -0.00335366 4.82957e-07)
(0.11099 -0.0036264 4.59344e-07)
(0.111167 -0.0039101 6.66269e-07)
(0.111345 -0.00418812 6.37546e-07)
(0.111581 -0.00448503 9.23561e-07)
(0.111802 -0.00473581 1.14745e-06)
(0.112066 -0.00506627 -1.87045e-06)
(0.10467 -0.000129309 -0.000439269)
(0.113948 -0.000387684 -4.93918e-05)
(0.113501 -0.000609805 9.0355e-06)
(0.112222 -0.000842115 3.11658e-06)
(0.111485 -0.000984283 1.56248e-07)
(0.111055 -0.000988191 2.37293e-07)
(0.11078 -0.000900634 4.11521e-07)
(0.110631 -0.000793186 2.77476e-07)
(0.110562 -0.000710376 2.57331e-07)
(0.110495 -0.000664245 1.90914e-07)
(0.110501 -0.000649887 1.28124e-07)
(0.110483 -0.000660103 4.5624e-07)
(0.110351 -0.000690433 6.81785e-07)
(0.110213 -0.000739467 4.03487e-07)
(0.110157 -0.000807587 -6.63667e-08)
(0.110171 -0.000894701 -3.50254e-07)
(0.110211 -0.00099944 -4.08915e-07)
(0.110246 -0.0011196 -3.37015e-07)
(0.110265 -0.00125343 -2.26587e-07)
(0.110268 -0.0013999 -1.25049e-07)
(0.110264 -0.00155912 -3.31718e-08)
(0.110256 -0.00173171 1.84042e-08)
(0.110256 -0.00191811 7.47797e-08)
(0.110258 -0.00211975 9.86553e-08)
(0.110277 -0.00233563 1.13096e-07)
(0.110302 -0.00256787 1.75755e-07)
(0.110344 -0.00281378 1.66557e-07)
(0.110402 -0.00307572 2.19506e-07)
(0.110474 -0.00335087 2.82073e-07)
(0.110574 -0.0036394 3.11416e-07)
(0.110683 -0.00394112 4.30274e-07)
(0.110838 -0.00425133 3.46254e-07)
(0.11098 -0.00456691 7.92683e-07)
(0.111244 -0.00488752 5.0245e-07)
(0.111334 -0.00515511 1.07538e-06)
(0.105376 -0.000116133 -0.000448311)
(0.114787 -0.000335594 -4.99199e-05)
(0.114199 -0.000509694 9.344e-06)
(0.112764 -0.000704914 3.06326e-06)
(0.111916 -0.000847958 3.1734e-08)
(0.111409 -0.000886158 1.1965e-07)
(0.111085 -0.000840242 3.1077e-07)
(0.110897 -0.000763226 2.08841e-07)
(0.110797 -0.000696359 1.62047e-07)
(0.110719 -0.000656689 1.51233e-07)
(0.110686 -0.000645192 1.43418e-07)
(0.110646 -0.000657308 3.39862e-07)
(0.110558 -0.000688727 4.81674e-07)
(0.11047 -0.000737254 3.18221e-07)
(0.110425 -0.00080278 1.41915e-08)
(0.110418 -0.000885058 -1.94971e-07)
(0.110426 -0.000982871 -2.56709e-07)
(0.110427 -0.00109499 -2.17067e-07)
(0.110414 -0.001221 -1.32536e-07)
(0.110389 -0.00136147 -5.46402e-08)
(0.11036 -0.00151687 1.49055e-08)
(0.11033 -0.00168821 3.56326e-08)
(0.110308 -0.00187485 7.99472e-08)
(0.110291 -0.00207797 8.28772e-08)
(0.110288 -0.00229621 8.57992e-08)
(0.110299 -0.00253097 1.70237e-07)
(0.110311 -0.0027812 7.22652e-08)
(0.11037 -0.00304738 3.01816e-07)
(0.110389 -0.00332916 9.83055e-08)
(0.110521 -0.00362626 4.3678e-07)
(0.110542 -0.00393887 3.31514e-07)
(0.110771 -0.00426284 3.04513e-07)
(0.110792 -0.00461239 1.09104e-06)
(0.111223 -0.00494792 2.43882e-07)
(0.111111 -0.00535126 4.04593e-06)
(0.105838 -0.000107967 -0.000452975)
(0.115634 -0.000294778 -4.97083e-05)
(0.115402 -0.000446294 9.83143e-06)
(0.114245 -0.000625366 2.72489e-06)
(0.113716 -0.000769906 -6.27697e-07)
(0.113471 -0.000825112 -4.7578e-07)
(0.113279 -0.000800295 -3.38154e-08)
(0.113114 -0.000738962 7.78613e-08)
(0.112988 -0.000680829 9.69661e-08)
(0.112869 -0.000645225 1.02807e-07)
(0.112786 -0.000635012 8.67836e-08)
(0.112699 -0.000649635 2.01136e-07)
(0.112551 -0.00068344 3.20122e-07)
(0.112392 -0.000730425 2.49097e-07)
(0.11228 -0.000790766 3.95118e-08)
(0.112223 -0.000866352 -1.30684e-07)
(0.112198 -0.000957615 -2.08136e-07)
(0.112186 -0.00106448 -2.25008e-07)
(0.112174 -0.00118693 -2.06361e-07)
(0.112158 -0.00132522 -1.87652e-07)
(0.112138 -0.00147939 -1.43236e-07)
(0.112113 -0.00164935 -1.26572e-07)
(0.112087 -0.00183565 -8.03151e-08)
(0.112062 -0.00203763 -3.27067e-08)
(0.112033 -0.00225699 -6.5981e-08)
(0.112025 -0.00249236 1.17782e-07)
(0.111991 -0.00274583 -3.96202e-08)
(0.112023 -0.00301609 1.92694e-07)
(0.111987 -0.00330478 1.5817e-07)
(0.112066 -0.00361012 1.70522e-07)
(0.112046 -0.00393711 4.61281e-07)
(0.112162 -0.00427345 1.23347e-07)
(0.112157 -0.00465823 6.80568e-07)
(0.112365 -0.00500546 1.94145e-07)
(0.112297 -0.00554832 -6.13873e-07)
(0.106209 -9.79219e-05 -0.000456286)
(0.116089 -0.00028357 -5.0184e-05)
(0.115841 -0.000452056 9.93787e-06)
(0.114605 -0.000641594 2.69208e-06)
(0.114015 -0.000778184 -7.78457e-07)
(0.113731 -0.000814585 -6.86504e-07)
(0.11352 -0.000774499 -1.92326e-07)
(0.113323 -0.000707328 -5.94609e-08)
(0.113203 -0.000650429 1.31612e-08)
(0.113058 -0.000617884 9.23946e-08)
(0.112983 -0.000608627 1.33691e-07)
(0.112973 -0.000621544 3.24194e-07)
(0.112786 -0.000652206 4.80199e-07)
(0.112516 -0.000696672 3.98836e-07)
(0.11233 -0.000756211 6.69816e-08)
(0.112255 -0.000832445 -1.96766e-07)
(0.112238 -0.000924789 -2.88179e-07)
(0.112233 -0.00103211 -2.83989e-07)
(0.112218 -0.00115367 -2.44644e-07)
(0.112188 -0.0012893 -1.95708e-07)
(0.112144 -0.00143924 -1.48334e-07)
(0.112092 -0.00160369 -9.73992e-08)
(0.112032 -0.00178407 -6.41383e-08)
(0.111971 -0.00198006 -1.9381e-08)
(0.111907 -0.00219408 2.64519e-08)
(0.111848 -0.00242488 4.42771e-08)
(0.111794 -0.00267482 1.21193e-07)
(0.111745 -0.00294262 1.59555e-07)
(0.111709 -0.00323001 1.93187e-07)
(0.111685 -0.00353455 2.95268e-07)
(0.111673 -0.00386063 4.03902e-07)
(0.111681 -0.00419672 3.92661e-07)
(0.111705 -0.00456453 5.72981e-07)
(0.111735 -0.0049131 6.88936e-07)
(0.111814 -0.00534903 -1.89122e-06)
(0.106648 -8.42604e-05 -0.000461099)
(0.116676 -0.0002543 -5.07928e-05)
(0.11638 -0.000398964 9.69466e-06)
(0.11498 -0.000566666 2.48108e-06)
(0.114224 -0.000695275 -7.0764e-07)
(0.113821 -0.000740202 -4.80818e-07)
(0.113563 -0.000715877 -3.89223e-09)
(0.11335 -0.000663842 2.81001e-08)
(0.113247 -0.0006179 3.35175e-08)
(0.113101 -0.000591179 1.23178e-07)
(0.113019 -0.000585616 1.64415e-07)
(0.113033 -0.000597559 3.40095e-07)
(0.112854 -0.000624263 4.8754e-07)
(0.112563 -0.00066631 4.04178e-07)
(0.112354 -0.000723544 2.95297e-08)
(0.112265 -0.000795177 -2.87606e-07)
(0.11224 -0.000880889 -4.06125e-07)
(0.112225 -0.000980932 -4.04196e-07)
(0.112193 -0.00109549 -3.45346e-07)
(0.11214 -0.00122483 -2.64199e-07)
(0.112065 -0.00136881 -1.86911e-07)
(0.11198 -0.00152808 -1.18189e-07)
(0.111883 -0.0017025 -8.05202e-08)
(0.111788 -0.00189367 -2.39182e-08)
(0.111685 -0.00210136 -1.63286e-08)
(0.111593 -0.00232759 4.27288e-08)
(0.111491 -0.00257235 4.33889e-08)
(0.11141 -0.00283676 1.08832e-07)
(0.111318 -0.00312167 1.5853e-07)
(0.111251 -0.0034267 1.24529e-07)
(0.111184 -0.00375354 3.78404e-07)
(0.111134 -0.00409936 2.43373e-07)
(0.111091 -0.00446478 4.60147e-07)
(0.111089 -0.00484694 4.62799e-07)
(0.111047 -0.00523059 -3.43005e-07)
(0.107138 -7.44278e-05 -0.000467142)
(0.117247 -0.000228188 -5.09399e-05)
(0.116838 -0.000350329 9.89166e-06)
(0.115319 -0.000493899 2.35038e-06)
(0.114483 -0.000612856 -8.84231e-07)
(0.114037 -0.000666929 -6.24692e-07)
(0.113741 -0.000659535 -1.56738e-07)
(0.113524 -0.000622424 -6.19813e-08)
(0.113384 -0.000585688 -4.16388e-08)
(0.113248 -0.000563144 4.18583e-08)
(0.113154 -0.000559056 8.48457e-08)
(0.113083 -0.000569872 2.03691e-07)
(0.11293 -0.00059441 3.28708e-07)
(0.112727 -0.00063454 2.68767e-07)
(0.112559 -0.000689684 1.81051e-08)
(0.112456 -0.000758335 -2.18795e-07)
(0.112392 -0.000839755 -3.33933e-07)
(0.112337 -0.000933833 -3.59938e-07)
(0.112271 -0.00104092 -3.3058e-07)
(0.112189 -0.00116169 -2.84443e-07)
(0.11209 -0.00129722 -2.3987e-07)
(0.111982 -0.00144821 -1.95899e-07)
(0.111861 -0.00161546 -1.74701e-07)
(0.111745 -0.00179944 -1.1919e-07)
(0.11161 -0.00200063 -1.4467e-07)
(0.111501 -0.00222044 -4.36293e-08)
(0.111358 -0.0024585 -1.2402e-07)
(0.111267 -0.00271753 3.17296e-08)
(0.111118 -0.00299651 -3.26906e-08)
(0.11105 -0.0032977 3.29275e-08)
(0.110911 -0.00362174 2.08267e-07)
(0.110874 -0.00396729 6.6092e-08)
(0.110742 -0.0043412 5.31355e-07)
(0.110799 -0.00472725 1.24899e-07)
(0.110623 -0.0051655 1.54314e-06)
(0.10751 -6.74136e-05 -0.000471106)
(0.118105 -0.000194835 -4.99653e-05)
(0.118031 -0.00029452 1.04699e-05)
(0.116609 -0.000416809 1.95726e-06)
(0.115919 -0.000528565 -1.36339e-06)
(0.115638 -0.000591223 -1.03594e-06)
(0.115432 -0.00060015 -4.76615e-07)
(0.115237 -0.000577684 -2.58631e-07)
(0.115058 -0.000550022 -1.96161e-07)
(0.114887 -0.000532341 -1.53346e-07)
(0.114728 -0.000529734 -1.44937e-07)
(0.114569 -0.000543115 -8.54586e-08)
(0.114389 -0.000570404 6.18136e-09)
(0.114202 -0.000608344 1.34559e-09)
(0.114033 -0.000656716 -1.0363e-07)
(0.113893 -0.000717146 -2.16575e-07)
(0.113778 -0.000790585 -2.8497e-07)
(0.113675 -0.000877089 -3.16064e-07)
(0.113575 -0.00097705 -3.3025e-07)
(0.113472 -0.00109067 -3.40406e-07)
(0.11336 -0.00121922 -3.51106e-07)
(0.113241 -0.00136251 -3.47927e-07)
(0.113109 -0.00152236 -3.53748e-07)
(0.112973 -0.00169796 -3.30307e-07)
(0.112819 -0.00189154 -3.23304e-07)
(0.112671 -0.00210271 -2.94875e-07)
(0.112502 -0.00233334 -2.83967e-07)
(0.112351 -0.00258409 -2.11621e-07)
(0.112171 -0.00285637 -2.45147e-07)
(0.112026 -0.00315075 -1.4668e-07)
(0.11184 -0.00347104 -5.91389e-08)
(0.111708 -0.00381214 -1.2687e-07)
(0.111512 -0.0041946 8.84411e-08)
(0.111414 -0.00457684 -1.33608e-07)
(0.111192 -0.00508277 -9.02181e-07)
(0.107708 -6.28297e-05 -0.000473672)
(0.118366 -0.000183262 -5.02288e-05)
(0.118297 -0.000298662 1.05771e-05)
(0.116831 -0.000435474 1.91523e-06)
(0.11611 -0.000544096 -1.47594e-06)
(0.115814 -0.000587355 -1.17553e-06)
(0.115604 -0.000575512 -5.90404e-07)
(0.115395 -0.000539926 -3.49034e-07)
(0.115222 -0.000506867 -2.67203e-07)
(0.115042 -0.00048828 -1.92001e-07)
(0.114894 -0.00048441 -1.10785e-08)
(0.114812 -0.000497636 1.35167e-07)
(0.114617 -0.000524937 7.7701e-08)
(0.114312 -0.000559328 -1.79833e-08)
(0.11404 -0.000602004 -1.67213e-07)
(0.113865 -0.000657864 -3.18354e-07)
(0.113757 -0.000728657 -3.92796e-07)
(0.113672 -0.000813373 -4.1215e-07)
(0.113579 -0.000911018 -4.0995e-07)
(0.11347 -0.00102073 -4.03413e-07)
(0.113344 -0.00114299 -3.96124e-07)
(0.113201 -0.00127769 -3.91177e-07)
(0.113045 -0.00142663 -3.67203e-07)
(0.112873 -0.00159005 -3.56553e-07)
(0.112695 -0.00177036 -3.256e-07)
(0.112502 -0.0019678 -2.95054e-07)
(0.112307 -0.00218459 -2.79371e-07)
(0.1121 -0.00242092 -2.2848e-07)
(0.111893 -0.00267902 -1.75225e-07)
(0.111678 -0.00295843 -1.78068e-07)
(0.111469 -0.00326314 -5.28167e-08)
(0.111251 -0.00358793 -3.72379e-08)
(0.111047 -0.00394729 5.62794e-08)
(0.110824 -0.00431102 6.50961e-08)
(0.110642 -0.00475545 -1.46642e-06)
(0.107915 -5.37786e-05 -0.000476168)
(0.118674 -0.000159526 -5.06738e-05)
(0.11861 -0.000253332 1.03569e-05)
(0.117055 -0.000367548 1.68364e-06)
(0.116245 -0.000463978 -1.53576e-06)
(0.115881 -0.000509735 -1.13657e-06)
(0.115651 -0.000508688 -5.04363e-07)
(0.115415 -0.000484799 -3.0877e-07)
(0.115267 -0.000460691 -2.64216e-07)
(0.115079 -0.00044706 -2.46475e-07)
(0.11491 -0.000446014 1.4913e-07)
(0.114959 -0.000457995 4.23506e-07)
(0.114783 -0.000480693 9.83247e-08)
(0.114356 -0.000512207 -9.78876e-08)
(0.113977 -0.00055328 -2.72946e-07)
(0.113765 -0.000605257 -4.56761e-07)
(0.113664 -0.000668527 -5.29371e-07)
(0.113593 -0.0007431 -5.40477e-07)
(0.113509 -0.000829378 -5.25204e-07)
(0.113397 -0.000927752 -4.94803e-07)
(0.113258 -0.00103882 -4.63721e-07)
(0.113095 -0.00116281 -4.38919e-07)
(0.112916 -0.00130057 -4.00403e-07)
(0.112718 -0.00145261 -3.84101e-07)
(0.112511 -0.00162033 -3.51673e-07)
(0.112286 -0.00180463 -3.2911e-07)
(0.112059 -0.00200698 -3.11099e-07)
(0.111815 -0.00222861 -2.75118e-07)
(0.11157 -0.00247095 -2.22722e-07)
(0.111309 -0.00273505 -2.21997e-07)
(0.111052 -0.00302343 -1.23651e-07)
(0.110778 -0.00333503 -9.96566e-08)
(0.110517 -0.00367652 -1.8329e-09)
(0.110225 -0.00403739 -1.73029e-08)
(0.109979 -0.00445371 -1.36867e-06)
(0.108208 -4.44393e-05 -0.000479568)
(0.119027 -0.000145222 -5.07154e-05)
(0.118899 -0.000236167 1.03374e-05)
(0.117253 -0.000346047 1.46884e-06)
(0.11637 -0.000434434 -1.67888e-06)
(0.115962 -0.000471842 -1.19991e-06)
(0.115699 -0.000464395 -5.59973e-07)
(0.115463 -0.000437859 -3.4615e-07)
(0.115297 -0.000414111 -2.9807e-07)
(0.115116 -0.000401166 -2.29368e-07)
(0.114961 -0.000401276 4.99183e-08)
(0.11493 -0.00040972 2.61617e-07)
(0.114752 -0.000425147 9.7605e-08)
(0.114386 -0.000452124 -7.5127e-08)
(0.114038 -0.000491398 -2.51224e-07)
(0.113815 -0.000541302 -4.37739e-07)
(0.113688 -0.00060126 -5.31487e-07)
(0.113591 -0.000671326 -5.53654e-07)
(0.113484 -0.00075144 -5.46734e-07)
(0.113352 -0.000841609 -5.27911e-07)
(0.113193 -0.00094218 -5.04407e-07)
(0.113009 -0.00105397 -4.83077e-07)
(0.112807 -0.00117782 -4.43749e-07)
(0.112583 -0.00131505 -4.27106e-07)
(0.112349 -0.00146655 -3.9193e-07)
(0.112095 -0.00163382 -3.71237e-07)
(0.111836 -0.00181783 -3.47259e-07)
(0.111557 -0.00202016 -3.18391e-07)
(0.111276 -0.00224184 -2.59745e-07)
(0.110975 -0.00248446 -2.46817e-07)
(0.110673 -0.00274902 -1.81152e-07)
(0.110356 -0.00303702 -8.59925e-08)
(0.110035 -0.00334824 -2.62565e-08)
(0.1097 -0.00368499 -1.70925e-09)
(0.109366 -0.00405096 -7.50857e-07)
(0.10852 -3.70391e-05 -0.000483024)
(0.119399 -0.000120762 -5.06716e-05)
(0.119203 -0.000184998 1.03156e-05)
(0.11747 -0.000263246 1.23799e-06)
(0.116521 -0.000335103 -1.80084e-06)
(0.116074 -0.000377682 -1.21192e-06)
(0.115783 -0.000387188 -5.54628e-07)
(0.115549 -0.000377104 -3.34539e-07)
(0.115365 -0.000363846 -2.90228e-07)
(0.115191 -0.000356175 -2.12493e-07)
(0.115037 -0.000357444 -8.24405e-08)
(0.114916 -0.000365336 2.66388e-08)
(0.114729 -0.00037986 2.27553e-08)
(0.114459 -0.000404439 -7.54988e-08)
(0.114192 -0.000439282 -2.47404e-07)
(0.113986 -0.000482563 -4.27728e-07)
(0.113831 -0.000533565 -5.34829e-07)
(0.113694 -0.00059264 -5.65556e-07)
(0.113549 -0.000660366 -5.58804e-07)
(0.113385 -0.000737471 -5.44446e-07)
(0.113199 -0.000824606 -5.21556e-07)
(0.112991 -0.000922848 -5.08937e-07)
(0.112766 -0.00103262 -4.78643e-07)
(0.112521 -0.00115526 -4.69682e-07)
(0.112263 -0.00129092 -4.49648e-07)
(0.111988 -0.00144116 -4.16439e-07)
(0.1117 -0.00160677 -4.22445e-07)
(0.111399 -0.00178892 -3.66347e-07)
(0.11108 -0.00198947 -3.40167e-07)
(0.110756 -0.00220931 -3.05886e-07)
(0.110407 -0.00245036 -2.57052e-07)
(0.110066 -0.00271427 -1.61024e-07)
(0.109685 -0.00300274 -4.77317e-08)
(0.109339 -0.00331483 -7.87751e-08)
(0.108919 -0.00366728 1.62726e-07)
(0.10873 -3.14262e-05 -0.000484682)
(0.120028 -9.92153e-05 -4.9304e-05)
(0.120104 -0.000153501 1.07494e-05)
(0.118364 -0.000220022 6.93419e-07)
(0.117445 -0.000282992 -2.25403e-06)
(0.117079 -0.000322359 -1.56142e-06)
(0.116836 -0.00033341 -8.63574e-07)
(0.11661 -0.000326417 -5.84808e-07)
(0.116395 -0.000315253 -4.93806e-07)
(0.116189 -0.000308251 -4.34575e-07)
(0.11599 -0.000308496 -3.86428e-07)
(0.115791 -0.000316747 -3.171e-07)
(0.115574 -0.000332575 -2.51125e-07)
(0.115342 -0.000354297 -2.75576e-07)
(0.115114 -0.000381522 -3.87237e-07)
(0.114903 -0.000415827 -5.01209e-07)
(0.11471 -0.000458534 -5.66891e-07)
(0.114526 -0.000509752 -5.94282e-07)
(0.11434 -0.00056915 -6.07253e-07)
(0.114144 -0.000636601 -6.26313e-07)
(0.113935 -0.000712543 -6.40347e-07)
(0.113708 -0.000797573 -6.69095e-07)
(0.113465 -0.000892635 -6.69256e-07)
(0.113201 -0.000998465 -6.82618e-07)
(0.11292 -0.00111613 -6.88031e-07)
(0.11262 -0.0012464 -6.37037e-07)
(0.112299 -0.00139059 -6.89811e-07)
(0.111969 -0.00154952 -5.86443e-07)
(0.111605 -0.00172488 -5.88266e-07)
(0.111245 -0.00191753 -5.72132e-07)
(0.110844 -0.00212982 -4.41071e-07)
(0.110449 -0.00236191 -4.5105e-07)
(0.110014 -0.00262044 -2.80175e-07)
(0.109582 -0.00289503 -3.3735e-07)
(0.109102 -0.00322966 -6.26917e-07)
(0.108786 -2.75979e-05 -0.000485899)
(0.120108 -8.17164e-05 -4.94008e-05)
(0.120199 -0.000132097 1.08501e-05)
(0.118451 -0.000194805 7.02307e-07)
(0.117527 -0.00024986 -2.27775e-06)
(0.117161 -0.000278668 -1.58908e-06)
(0.116921 -0.000281999 -8.79387e-07)
(0.116691 -0.000272073 -5.92639e-07)
(0.116483 -0.000260872 -5.07811e-07)
(0.116278 -0.00025452 -4.49539e-07)
(0.116091 -0.000254137 -2.25037e-07)
(0.115962 -0.00026282 -2.68781e-08)
(0.115762 -0.000279842 -1.70714e-07)
(0.115431 -0.000298573 -4.05735e-07)
(0.115087 -0.000317959 -5.50876e-07)
(0.114821 -0.000342989 -6.4145e-07)
(0.11463 -0.000376988 -6.77941e-07)
(0.114468 -0.000419861 -6.75815e-07)
(0.114301 -0.000470488 -6.70454e-07)
(0.114115 -0.000528052 -6.78373e-07)
(0.113905 -0.000592551 -6.85833e-07)
(0.11367 -0.000664057 -7.02309e-07)
(0.113415 -0.000743562 -6.92257e-07)
(0.113135 -0.000831485 -7.01002e-07)
(0.11284 -0.000929382 -6.83967e-07)
(0.112517 -0.00103777 -6.59362e-07)
(0.11218 -0.00115808 -6.60643e-07)
(0.111818 -0.00129114 -6.06246e-07)
(0.111438 -0.00143815 -5.68983e-07)
(0.111037 -0.00160018 -5.40943e-07)
(0.110616 -0.00177899 -4.67144e-07)
(0.110176 -0.00197458 -3.75182e-07)
(0.109712 -0.00219185 -3.02156e-07)
(0.109227 -0.00242267 -2.69964e-07)
(0.108726 -0.00269705 -6.18738e-07)
(0.108848 -2.18561e-05 -0.000486996)
(0.120207 -6.45533e-05 -4.95792e-05)
(0.120304 -0.000104436 1.07676e-05)
(0.118526 -0.000154569 5.81398e-07)
(0.117573 -0.000198835 -2.34108e-06)
(0.117185 -0.000222025 -1.60895e-06)
(0.116942 -0.000224696 -8.73763e-07)
(0.116703 -0.000216627 -5.87939e-07)
(0.116506 -0.00020748 -5.07208e-07)
(0.116305 -0.000202297 -5.30379e-07)
(0.116105 -0.000201667 -5.74598e-08)
(0.116084 -0.000207903 4.01756e-07)
(0.115942 -0.000220616 -7.05032e-08)
(0.115508 -0.000235142 -5.95569e-07)
(0.115034 -0.000250946 -7.4575e-07)
(0.114711 -0.000271438 -7.91571e-07)
(0.114522 -0.000298521 -7.89405e-07)
(0.114383 -0.000331943 -7.53984e-07)
(0.114235 -0.000371079 -7.33794e-07)
(0.114058 -0.00041572 -7.38351e-07)
(0.113849 -0.000466023 -7.42695e-07)
(0.113609 -0.000522257 -7.50982e-07)
(0.113346 -0.00058494 -7.29971e-07)
(0.113053 -0.000654568 -7.29311e-07)
(0.112744 -0.000731972 -7.08557e-07)
(0.112406 -0.000817843 -6.78385e-07)
(0.112052 -0.000913142 -6.83748e-07)
(0.111672 -0.00101861 -6.23622e-07)
(0.111271 -0.0011354 -5.8662e-07)
(0.110847 -0.00126428 -5.63219e-07)
(0.1104 -0.00140678 -4.72769e-07)
(0.109929 -0.00156347 -3.96788e-07)
(0.109433 -0.00173724 -3.07166e-07)
(0.108909 -0.00192494 -2.6849e-07)
(0.108368 -0.00214389 -4.7878e-07)
(0.108929 -1.4755e-05 -0.000488034)
(0.120313 -4.80849e-05 -4.96109e-05)
(0.120401 -8.00418e-05 1.07573e-05)
(0.118595 -0.000120362 5.02325e-07)
(0.117619 -0.000154146 -2.39138e-06)
(0.117216 -0.000169764 -1.63435e-06)
(0.116966 -0.000168847 -8.85004e-07)
(0.11672 -0.000160479 -5.94956e-07)
(0.116524 -0.000152618 -5.11822e-07)
(0.116323 -0.000148531 -5.53127e-07)
(0.116117 -0.000149042 -2.98786e-08)
(0.116116 -0.000152015 4.8449e-07)
(0.11599 -0.000156572 -6.03038e-08)
(0.115536 -0.000165409 -6.47863e-07)
(0.115032 -0.000179535 -7.97706e-07)
(0.11469 -0.00019757 -8.34351e-07)
(0.114495 -0.000218611 -8.24313e-07)
(0.114354 -0.000242869 -7.81578e-07)
(0.114206 -0.000270725 -7.58137e-07)
(0.114026 -0.000302582 -7.62232e-07)
(0.113813 -0.000338545 -7.67059e-07)
(0.113568 -0.000378952 -7.73517e-07)
(0.113296 -0.000424051 -7.50316e-07)
(0.112995 -0.000474232 -7.46609e-07)
(0.112675 -0.000530097 -7.23096e-07)
(0.112325 -0.000592044 -6.92349e-07)
(0.111958 -0.000660853 -6.95125e-07)
(0.111563 -0.000737103 -6.35411e-07)
(0.111146 -0.0008216 -5.97056e-07)
(0.110704 -0.000914971 -5.68772e-07)
(0.110237 -0.00101831 -4.82886e-07)
(0.109745 -0.00113207 -3.94394e-07)
(0.109225 -0.00125797 -3.10709e-07)
(0.108675 -0.00139464 -2.5999e-07)
(0.108103 -0.00155318 -3.36494e-07)
(0.109038 -8.57975e-06 -0.000489072)
(0.120445 -3.12356e-05 -4.95366e-05)
(0.120508 -5.07272e-05 1.07047e-05)
(0.118666 -7.586e-05 3.63634e-07)
(0.117662 -9.72142e-05 -2.46456e-06)
(0.117244 -0.00010735 -1.64742e-06)
(0.116977 -0.000106911 -8.87265e-07)
(0.116736 -0.000101689 -5.9577e-07)
(0.116528 -9.69233e-05 -5.19779e-07)
(0.116327 -9.45823e-05 -4.68393e-07)
(0.11614 -9.5459e-05 -1.92032e-07)
(0.116033 -9.57172e-05 6.79117e-08)
(0.115849 -9.473e-05 -1.38286e-07)
(0.11549 -9.86195e-05 -4.71508e-07)
(0.115097 -0.000109157 -6.45744e-07)
(0.114794 -0.000122673 -7.383e-07)
(0.114584 -0.0001367 -7.73074e-07)
(0.114413 -0.000151451 -7.65621e-07)
(0.114237 -0.000167739 -7.55697e-07)
(0.114038 -0.000186252 -7.58173e-07)
(0.11381 -0.000207206 -7.65405e-07)
(0.113554 -0.000231023 -7.63359e-07)
(0.113271 -0.000257871 -7.62335e-07)
(0.112964 -0.000288013 -7.41898e-07)
(0.112631 -0.000321722 -7.34585e-07)
(0.112277 -0.000359159 -7.13158e-07)
(0.111896 -0.000400762 -6.78328e-07)
(0.111493 -0.000446892 -6.64548e-07)
(0.111064 -0.000498059 -6.05266e-07)
(0.11061 -0.000554664 -5.50551e-07)
(0.110129 -0.000617421 -5.01305e-07)
(0.109621 -0.000686689 -4.15858e-07)
(0.109085 -0.000763398 -3.12405e-07)
(0.108519 -0.000847181 -2.30606e-07)
(0.107922 -0.000944214 -2.12698e-07)
(0.109152 -2.89376e-06 -0.000489982)
(0.120577 -1.39551e-05 -4.94469e-05)
(0.120607 -2.22649e-05 1.06435e-05)
(0.118729 -3.33274e-05 2.3494e-07)
(0.1177 -4.27426e-05 -2.5299e-06)
(0.117266 -4.68504e-05 -1.66605e-06)
(0.116988 -4.61473e-05 -8.95286e-07)
(0.116747 -4.33679e-05 -6.02571e-07)
(0.116531 -4.08667e-05 -5.19157e-07)
(0.116327 -3.9463e-05 -4.5135e-07)
(0.116135 -3.91248e-05 -3.34974e-07)
(0.115958 -3.83649e-05 -2.28221e-07)
(0.115744 -3.71629e-05 -2.40512e-07)
(0.11547 -3.796e-05 -3.61282e-07)
(0.115183 -4.14779e-05 -5.17937e-07)
(0.114929 -4.61996e-05 -6.49755e-07)
(0.114711 -5.10072e-05 -7.18911e-07)
(0.114509 -5.5902e-05 -7.36581e-07)
(0.114301 -6.12155e-05 -7.34999e-07)
(0.114077 -6.71939e-05 -7.34145e-07)
(0.113831 -7.39678e-05 -7.39437e-07)
(0.113563 -8.16797e-05 -7.40685e-07)
(0.11327 -9.0443e-05 -7.48317e-07)
(0.112957 -0.000100331 -7.35559e-07)
(0.112617 -0.000111417 -7.3406e-07)
(0.112258 -0.000123771 -7.15566e-07)
(0.11187 -0.000137502 -6.81323e-07)
(0.111462 -0.000152757 -6.67371e-07)
(0.111026 -0.000169698 -6.08448e-07)
(0.110566 -0.000188479 -5.52314e-07)
(0.110077 -0.000209297 -5.02347e-07)
(0.109562 -0.000232304 -4.16402e-07)
(0.109016 -0.000257792 -3.12502e-07)
(0.108441 -0.000285591 -2.27068e-07)
(0.107833 -0.000317735 -1.6603e-07)
(0.184373 -0.000177041 -0.000490413)
(0.188146 -0.000581141 -8.92174e-05)
(0.18857 -0.000952218 1.38875e-05)
(0.187719 -0.00136779 1.74673e-05)
(0.186898 -0.00168178 9.2398e-06)
(0.186343 -0.00176033 4.95436e-06)
(0.186013 -0.00163212 2.52192e-06)
(0.185881 -0.00142045 1.16613e-06)
(0.185843 -0.00123131 6.73138e-07)
(0.185846 -0.00111147 -1.42913e-07)
(0.185883 -0.00105963 2.72485e-07)
(0.18591 -0.00106005 1.91775e-06)
(0.185903 -0.00109861 2.36997e-06)
(0.185895 -0.00116644 1.10468e-06)
(0.185915 -0.0012598 -4.87067e-07)
(0.185966 -0.00137689 -1.36332e-06)
(0.186028 -0.00151593 -1.45229e-06)
(0.186089 -0.00167593 -1.14157e-06)
(0.186142 -0.00185666 -7.80428e-07)
(0.186192 -0.00205885 -5.16074e-07)
(0.186244 -0.00228183 -4.19176e-07)
(0.186307 -0.00252537 -4.06446e-07)
(0.186379 -0.00278689 -5.23482e-07)
(0.186472 -0.00306675 -6.53774e-07)
(0.186572 -0.00336129 -9.06994e-07)
(0.186706 -0.00367224 -9.00206e-07)
(0.186832 -0.00399544 -1.67088e-06)
(0.187022 -0.0043317 -1.10897e-06)
(0.187174 -0.00467704 -2.3964e-06)
(0.18742 -0.00503267 -1.82719e-06)
(0.187617 -0.00539118 -3.08383e-06)
(0.187926 -0.00575882 -2.83785e-06)
(0.188158 -0.00612099 -4.44372e-06)
(0.188659 -0.0064865 -3.33519e-06)
(0.188743 -0.00685077 9.07626e-06)
(0.18518 -0.000159452 -0.000502756)
(0.188968 -0.000523082 -9.47114e-05)
(0.189556 -0.000886537 1.11641e-05)
(0.189064 -0.00130262 1.50922e-05)
(0.188681 -0.0016229 6.88256e-06)
(0.188471 -0.00171559 3.36816e-06)
(0.188326 -0.00160538 2.09901e-06)
(0.188233 -0.00140968 1.30426e-06)
(0.188178 -0.00123196 9.03931e-07)
(0.188145 -0.00111733 4.28218e-07)
(0.188133 -0.00106653 6.67545e-07)
(0.188117 -0.00106654 1.88454e-06)
(0.188076 -0.00110281 2.47728e-06)
(0.18802 -0.00116649 1.68372e-06)
(0.187978 -0.00125613 2.93326e-07)
(0.187966 -0.00137216 -8.23655e-07)
(0.187984 -0.00151332 -1.38718e-06)
(0.188024 -0.00167736 -1.50158e-06)
(0.188077 -0.00186246 -1.37331e-06)
(0.188138 -0.00206754 -1.13495e-06)
(0.1882 -0.00229243 -9.20947e-07)
(0.188267 -0.00253653 -7.07171e-07)
(0.188331 -0.00280062 -6.30442e-07)
(0.188408 -0.00308299 -5.33515e-07)
(0.188479 -0.00338528 -7.02388e-07)
(0.188583 -0.00370437 -4.66182e-07)
(0.188666 -0.00404162 -1.20873e-06)
(0.188814 -0.00439431 -6.00155e-07)
(0.188917 -0.0047618 -1.628e-06)
(0.189104 -0.00514147 -1.15312e-06)
(0.189244 -0.00553655 -2.09913e-06)
(0.189469 -0.00593192 -1.98828e-06)
(0.189623 -0.00637512 -3.31613e-06)
(0.189923 -0.00675756 -2.62754e-06)
(0.189988 -0.00739202 -4.26615e-06)
(0.185787 -0.000139966 -0.000504466)
(0.18956 -0.000486578 -9.57031e-05)
(0.190132 -0.000863081 1.25446e-05)
(0.189571 -0.0012935 1.6931e-05)
(0.18909 -0.00161006 7.84932e-06)
(0.188794 -0.00168796 3.54903e-06)
(0.188588 -0.00156767 1.92705e-06)
(0.188459 -0.0013729 1.06678e-06)
(0.188388 -0.00120332 9.61704e-07)
(0.188336 -0.00109669 1.6315e-07)
(0.188323 -0.0010489 -1.54909e-08)
(0.188315 -0.00104687 2.44286e-06)
(0.188259 -0.00107894 4.37542e-06)
(0.18817 -0.00113939 3.23307e-06)
(0.188101 -0.00122877 6.67171e-07)
(0.188081 -0.00134782 -1.20173e-06)
(0.188098 -0.00149428 -1.84254e-06)
(0.188132 -0.00166393 -1.68123e-06)
(0.188169 -0.00185317 -1.26251e-06)
(0.188205 -0.00205961 -8.31931e-07)
(0.188237 -0.0022834 -5.5824e-07)
(0.188269 -0.0025248 -3.36287e-07)
(0.188302 -0.00278619 -2.84129e-07)
(0.18834 -0.00306698 -3.16455e-07)
(0.188388 -0.00336949 -3.17123e-07)
(0.188441 -0.00369094 -5.81277e-07)
(0.188516 -0.00403254 -6.29538e-07)
(0.188596 -0.00439171 -1.02834e-06)
(0.188703 -0.00476761 -1.1134e-06)
(0.188821 -0.00515651 -1.55354e-06)
(0.188966 -0.00556029 -1.85832e-06)
(0.189137 -0.00596343 -2.85059e-06)
(0.189314 -0.00638639 -3.15872e-06)
(0.189541 -0.00677014 -4.04728e-06)
(0.189714 -0.00721714 -8.26625e-06)
(0.186413 -0.000121656 -0.000513696)
(0.190206 -0.000445135 -9.82361e-05)
(0.190786 -0.000791297 1.34638e-05)
(0.190116 -0.00119268 1.86009e-05)
(0.189446 -0.00149957 9.17711e-06)
(0.188975 -0.00159313 4.30885e-06)
(0.18867 -0.00150224 2.31254e-06)
(0.188502 -0.00133601 1.11934e-06)
(0.188431 -0.00118559 9.50859e-07)
(0.188381 -0.00108844 3.55161e-07)
(0.188361 -0.00104363 -1.69537e-07)
(0.188353 -0.00103971 2.06976e-06)