/*--------------------------------*- C++ -*----------------------------------*\
  =========                 |
  \\      /  F ield         | OpenFOAM: The Open Source CFD Toolbox
   \\    /   O peration     | Website:  https://openfoam.org
    \\  /    A nd           | Version:  6
     \\/     M anipulation  |
\*---------------------------------------------------------------------------*/
FoamFile
{
    version     2.0;
    format      ascii;
    class       volScalarField;
    location    "0.6";
    object      omega;
}
// * * * * * * * * * * * * * * * * * * * * * * * * * * * * * * * * * * * * * //

dimensions      [0 0 -1 0 0 0 0];

internalField   nonuniform List<scalar> 
63400
(
843.917
843.917
843.917
843.917
843.917
843.917
843.917
843.917
843.917
843.917
843.917
843.917
843.917
843.917
843.917
843.917
843.917
843.917
843.917
843.917
843.917
843.917
843.917
843.917
843.917
843.917
843.917
843.917
843.917
843.917
843.917
843.917
843.917
843.917
843.917
843.917
843.917
843.917
843.917
843.917
843.917
843.917
843.917
843.917
843.917
843.917
843.917
843.917
843.917
843.917
843.917
843.917
843.917
843.917
843.917
843.917
843.917
843.917
843.917
843.917
843.917
843.917
843.917
843.917
843.917
843.917
843.917
843.917
843.917
843.917
843.917
843.917
843.917
843.917
843.917
843.917
843.917
843.917
843.917
843.917
843.917
843.917
843.917
843.917
843.917
843.917
843.917
843.917
843.917
843.917
843.917
843.917
843.917
843.917
843.917
843.917
843.917
843.917
843.917
843.917
843.917
843.917
843.917
843.917
843.917
843.917
843.917
843.917
843.917
843.917
843.917
843.917
843.917
843.917
843.917
843.917
843.917
843.917
843.917
843.917
843.917
843.917
843.917
843.917
843.917
843.917
843.917
843.917
843.917
843.917
843.917
843.917
843.917
843.917
843.917
843.917
843.917
843.917
843.917
843.917
843.917
843.917
843.917
843.917
843.917
843.917
843.917
843.917
843.917
843.917
843.917
843.917
843.917
843.917
843.917
843.917
843.917
843.917
843.917
843.917
425.974
425.861
425.755
425.709
425.694
425.677
425.611
425.574
268.067
267.814
267.616
267.357
267.11
266.957
266.766
266.585
267.399
267.3
267.223
267.241
267.168
267.056
266.921
266.504
267.147
267.058
266.924
266.81
266.644
266.453
266.524
266.362
266.925
266.899
266.662
266.481
266.322
266.155
266.166
265.849
265.842
265.868
265.853
265.827
265.979
265.959
266.043
265.647
265.226
265.467
265.666
265.549
265.415
265.137
265.07
264.79
264.814
264.907
265.022
265.067
264.809
264.499
264.577
264.389
264.344
264.069
263.6
263.367
263.315
263.313
263.659
263.662
263.205
263.009
262.745
262.372
262.379
262.682
263.15
262.878
261.011
260.769
260.928
261.141
261.466
261.841
262.339
262.043
259.857
259.606
259.833
260.308
260.632
260.6
260.615
260.17
258.319
258.82
259.102
259.287
259.417
259.327
259.421
259.096
257.139
257.392
257.631
257.814
257.751
257.375
257.219
256.796
255.782
255.793
255.849
255.925
255.922
255.705
255.733
255.35
253.303
253.139
253.314
253.561
253.322
252.538
252.159
251.978
250.856
250.909
251.106
251.258
251.016
250.422
250.224
249.962
246.549
246.779
247.152
246.658
246.552
246.65
246.319
244.938
243.159
243.725
244.462
244.32
243.567
242.822
242.406
241.526
231.981
232.915
233.815
233.934
233.231
232.353
231.935
231.343
208.563
209.49
210.951
214.314
218.772
222.558
224.616
225.376
13.9738
13.6142
13.2947
13.0815
12.8904
12.6751
12.353
12.1168
130.423
130.271
130.11
129.993
129.905
129.826
129.762
129.639
129.889
129.804
129.762
129.729
129.708
129.633
129.545
129.375
129.355
129.349
129.315
129.285
129.222
129.15
129.15
129.091
129.042
128.97
128.882
128.781
128.726
128.666
128.664
128.603
128.171
128.199
128.218
128.26
128.324
128.367
128.381
128.233
127.457
127.623
127.771
127.833
127.789
127.695
127.663
127.571
127.111
127.165
127.289
127.343
127.245
127.085
127.055
127.013
126.514
126.366
126.17
126.058
126.067
126.136
126.333
126.443
125.643
125.616
125.438
125.236
125.223
125.413
125.689
125.715
124.005
123.896
124.009
124.214
124.477
124.793
125.14
125.13
123.078
122.976
123.128
123.418
123.636
123.702
123.791
123.722
121.8
122.23
122.51
122.684
122.824
122.9
123.019
122.972
120.863
121.202
121.441
121.531
121.471
121.315
121.299
121.241
119.92
119.984
120.083
120.166
120.238
120.255
120.353
120.264
118.097
118.144
118.3
118.433
118.32
117.902
117.673
117.659
116.232
116.313
116.546
116.752
116.757
116.513
116.406
116.363
113.187
113.481
113.781
113.802
113.757
113.667
113.444
112.782
110.369
110.748
111.484
111.857
111.618
111.138
110.797
110.364
101.834
102.63
103.649
104.172
103.965
103.425
103.053
102.808
84.654
85.9471
88.0675
90.6711
93.5139
95.9952
97.5152
98.2844
16.3842
15.9699
15.5936
15.3244
15.0773
14.8074
14.4201
14.1268
77.9606
77.8883
77.795
77.7462
77.7595
77.7286
77.7476
77.717
77.5655
77.5308
77.5381
77.5214
77.5313
77.5134
77.4652
77.4343
77.0659
77.0948
77.117
77.1454
77.1394
77.1632
77.1732
77.1776
76.7966
76.7418
76.7146
76.6814
76.6791
76.7061
76.7012
76.762
76.1574
76.2081
76.2352
76.3205
76.3553
76.427
76.4229
76.4107
75.5332
75.6694
75.741
75.8638
75.8963
75.9168
75.9244
75.9562
75.2752
75.3296
75.4305
75.4908
75.4681
75.4437
75.3939
75.4117
74.7004
74.6319
74.5915
74.5854
74.6197
74.7376
74.8642
74.9947
74.0709
74.1278
74.0464
73.9568
73.9501
74.0849
74.2151
74.3447
72.9007
72.9057
72.9929
73.1626
73.3639
73.6265
73.8446
73.9458
72.2108
72.179
72.3049
72.4981
72.6185
72.7096
72.7962
72.9212
71.2019
71.5378
71.7865
71.9486
72.0497
72.179
72.292
72.3999
70.4531
70.7294
70.9797
71.064
70.9817
70.9188
70.9509
71.1174
69.7856
69.8626
69.97
70.0502
70.0978
70.1966
70.3157
70.4293
68.4063
68.4724
68.6382
68.724
68.6429
68.4597
68.3542
68.4945
67.0037
67.0503
67.248
67.4322
67.4918
67.4569
67.4248
67.5584
64.7193
64.9752
65.1428
65.3237
65.4082
65.3144
65.0873
64.8743
62.5191
62.6895
63.1629
63.63
63.709
63.5172
63.2435
63.1166
56.8975
57.3123
58.0128
58.5361
58.5745
58.3259
58.0108
57.9485
45.8834
46.3836
48.0265
49.9802
51.8254
53.3834
54.3411
54.9682
18.3786
17.9296
17.5045
17.1819
16.8875
16.5826
16.1509
15.816
51.9673
51.9461
51.902
51.8734
51.9452
51.9448
52.0035
52.0359
51.6761
51.6805
51.7194
51.726
51.7536
51.7715
51.7434
51.7811
51.2732
51.3201
51.3638
51.4264
51.4418
51.5093
51.5452
51.5914
51.0706
51.0485
51.0406
51.0409
51.0524
51.1301
51.1339
51.2358
50.6026
50.6778
50.7005
50.8024
50.8307
50.9121
50.903
50.9457
50.0979
50.2347
50.255
50.3709
50.4378
50.5117
50.5398
50.6335
49.9146
49.9849
50.0631
50.1225
50.1151
50.1622
50.13
50.1725
49.4321
49.3989
49.4145
49.4716
49.5086
49.6397
49.7435
49.8713
48.9825
49.0589
49.0355
49.0057
49.0016
49.1163
49.1697
49.3014
48.1253
48.1907
48.2661
48.3975
48.5464
48.7727
48.9165
49.0289
47.6371
47.6247
47.7297
47.8837
47.9471
48.0296
48.0835
48.2513
46.8512
47.1026
47.308
47.4624
47.5307
47.659
47.7443
47.8922
46.2737
46.4546
46.6829
46.7975
46.7146
46.675
46.6885
46.9127
45.7793
45.8512
45.9473
46.0319
46.0498
46.1503
46.2438
46.425
44.7519
44.7762
44.9313
45.018
44.9418
44.8591
44.8016
44.9885
43.6869
43.6972
43.841
43.999
44.0465
44.0924
44.0896
44.2805
41.9992
42.1961
42.2672
42.4348
42.5855
42.5552
42.3346
42.2854
40.3767
40.4255
40.65
41.0177
41.2136
41.2148
41.0187
41.0029
37.4122
37.5654
37.8841
38.1812
38.2336
38.123
37.8763
37.8527
30.7838
30.864
31.8561
33.061
34.1383
35.0683
35.6426
36.096
20.1191
19.6518
19.1905
18.8185
18.4784
18.1463
17.6823
17.3126
37.072
37.0791
37.067
37.034
37.1259
37.1419
37.2109
37.2726
36.8552
36.8803
36.9324
36.9525
36.9885
37.024
37.0011
37.0603
36.5467
36.601
36.646
36.7229
36.7446
36.8177
36.8667
36.9363
36.4051
36.4097
36.407
36.4197
36.424
36.5166
36.5302
36.637
36.0554
36.1446
36.1604
36.261
36.2873
36.3677
36.3571
36.4121
35.658
35.7974
35.7952
35.8813
35.9525
36.0432
36.0736
36.1869
35.5312
35.6126
35.6755
35.7314
35.7174
35.7851
35.7711
35.825
35.1516
35.1335
35.1548
35.2398
35.2722
35.391
35.4833
35.6071
34.8297
34.8965
34.8972
34.8967
34.8885
34.991
35.0116
35.1195
34.1699
34.2561
34.3263
34.4269
34.5315
34.728
34.8348
34.9305
33.8259
33.8151
33.8945
34.0303
34.0668
34.1361
34.1611
34.3097
33.2109
33.3962
33.5561
33.7004
33.7493
33.8631
33.92
34.0574
32.7603
32.8643
33.0471
33.1867
33.1226
33.0913
33.0738
33.2773
32.373
32.4352
32.5116
32.5995
32.6019
32.6858
32.7404
32.9177
31.5992
31.585
31.7107
31.8081
31.7388
31.6963
31.6513
31.8294
30.7774
30.7657
30.8591
30.9925
31.0159
31.0812
31.083
31.2702
29.5579
29.6996
29.7171
29.8289
29.9811
30.0068
29.8198
29.8155
28.4414
28.4357
28.4957
28.7178
28.9112
29.0017
28.8805
28.8897
27.4403
27.4723
27.5258
27.5765
27.534
27.4438
27.2485
27.2112
23.745
23.6418
24.126
24.7204
25.2322
25.7116
26.0302
26.3171
21.6792
21.2031
20.7223
20.311
19.9274
19.5711
19.0825
18.6814
27.6938
27.712
27.7209
27.677
27.765
27.787
27.8533
27.9225
27.5284
27.5601
27.6146
27.6375
27.674
27.7173
27.6943
27.7503
27.29
27.3451
27.3832
27.4618
27.4864
27.5494
27.5967
27.6746
27.1945
27.2145
27.2128
27.2295
27.221
27.3071
27.3255
27.4259
26.9236
27.017
27.0266
27.1179
27.1416
27.2159
27.2058
27.2558
26.6083
26.7428
26.7367
26.7938
26.8553
26.9465
26.9709
27.0805
26.5211
26.6041
26.6575
26.7112
26.6878
26.751
26.7454
26.8033
26.2255
26.2168
26.2255
26.3171
26.3454
26.443
26.5217
26.6421
25.9919
26.0433
26.0482
26.0613
26.0462
26.1364
26.1447
26.2321
25.4585
25.5433
25.6099
25.6901
25.7589
25.9282
26.0174
26.0981
25.2075
25.1955
25.2487
25.3712
25.397
25.4573
25.4648
25.5821
24.7191
24.8572
24.9766
25.1082
25.1458
25.2458
25.2822
25.3963
24.3568
24.4134
24.5454
24.694
24.655
24.6341
24.5939
24.7549
24.0414
24.0943
24.1505
24.2381
24.2348
24.3042
24.3264
24.4743
23.456
23.4216
23.5108
23.6133
23.5572
23.5333
23.4883
23.6364
22.8196
22.7987
22.8511
22.9613
22.9665
23.0274
23.025
23.1831
21.9934
22.0832
22.0765
22.1399
22.2589
22.3126
22.1766
22.182
21.3106
21.2809
21.2512
21.3466
21.4904
21.596
21.5365
21.5421
21.6294
21.6168
21.5291
21.3996
21.2492
21.1198
20.9557
20.8909
19.9921
19.8361
19.9599
20.0958
20.1971
20.3341
20.4696
20.6051
23.1019
22.6162
22.1305
21.6956
21.2752
20.8963
20.3889
19.9585
21.3641
21.3823
21.4053
21.3534
21.4271
21.4484
21.5078
21.5744
21.2331
21.2634
21.3156
21.3356
21.3672
21.4133
21.3909
21.4349
21.0408
21.0935
21.1234
21.1964
21.2236
21.2751
21.3129
21.3885
20.9772
21.0039
21.0017
21.0201
21.0015
21.0725
21.0901
21.1821
20.7583
20.8497
20.8549
20.9347
20.9551
21.0218
21.0134
21.0546
20.5025
20.6254
20.6243
20.6607
20.7079
20.7938
20.8112
20.9076
20.442
20.5192
20.5662
20.6195
20.5908
20.6418
20.6368
20.6935
20.207
20.2072
20.201
20.2875
20.3136
20.3914
20.4536
20.5686
20.0337
20.0735
20.0744
20.0932
20.072
20.1494
20.1531
20.2277
19.59
19.6628
19.7246
19.7928
19.8341
19.9773
20.0567
20.1295
19.3962
19.3849
19.4154
19.5246
19.5467
19.6018
19.6013
19.692
19.0031
19.1082
19.1943
19.3116
19.3418
19.4301
19.4538
19.5464
18.7062
18.7395
18.8264
18.9694
18.953
18.9453
18.8945
19.0141
18.4464
18.4916
18.53
18.6136
18.6091
18.6678
18.6687
18.7835
18.0157
17.9779
18.0322
18.1293
18.0893
18.0778
18.0321
18.1441
17.5354
17.513
17.5345
17.6203
17.6157
17.6645
17.6585
17.7777
17.0544
17.0961
17.0785
17.1119
17.1882
17.2415
17.1603
17.1708
16.7358
16.6922
16.6215
16.6247
16.7119
16.7898
16.7752
16.7712
17.8854
17.8591
17.7167
17.4852
17.2584
17.0727
16.9263
16.8332
17.7303
17.6108
17.5161
17.3305
17.1406
17.0091
17.0041
17.0026
24.4193
23.9144
23.429
22.9858
22.5391
22.1404
21.619
21.1617
16.856
16.8689
16.9011
16.8467
16.9042
16.9215
16.9733
17.0341
16.7483
16.7739
16.8222
16.8381
16.8622
16.9079
16.8888
16.9207
16.5857
16.6345
16.6579
16.7221
16.7512
16.7946
16.8216
16.8894
16.5432
16.5719
16.5688
16.5884
16.5647
16.6195
16.633
16.7164
16.36
16.4461
16.4489
16.5172
16.5343
16.5935
16.5876
16.6214
16.1486
16.2558
16.2626
16.2865
16.3196
16.3984
16.411
16.4918
16.1056
16.1729
16.2144
16.2682
16.2392
16.2782
16.2707
16.3227
15.9134
15.9227
15.9054
15.981
16.0059
16.0681
16.1136
16.22
15.781
15.8146
15.81
15.8307
15.806
15.8711
15.8725
15.9393
15.4116
15.4686
15.5229
15.5841
15.6054
15.723
15.794
15.8639
15.2532
15.2447
15.2579
15.3526
15.3731
15.4246
15.4221
15.4934
14.9371
15.0174
15.0763
15.1785
15.203
15.28
15.296
15.3714
14.6937
14.7189
14.7707
14.8975
14.8979
14.9032
14.8518
14.9372
14.4838
14.5222
14.5462
14.6222
14.6185
14.6677
14.6568
14.7416
14.1912
14.1605
14.1867
14.268
14.2429
14.2417
14.2
14.2765
13.8535
13.8326
13.8328
13.8921
13.8836
13.918
13.9134
13.992
13.6723
13.6727
13.6473
13.6655
13.7047
13.7366
13.7029
13.7206
13.6505
13.5955
13.5112
13.4543
13.4946
13.5253
13.5394
13.527
15.2873
15.255
15.1082
14.8368
14.5761
14.3403
14.2056
14.0881
16.1712
16.1388
15.9647
15.5893
15.2094
14.8688
14.7519
14.6268
25.6562
25.1209
24.6287
24.184
23.7212
23.3065
22.7758
22.2939
13.5115
13.5175
13.5549
13.5033
13.5467
13.5588
13.6032
13.6579
13.4204
13.4405
13.4845
13.4972
13.5136
13.5565
13.5426
13.5658
13.2784
13.3227
13.3417
13.3961
13.4258
13.4646
13.483
13.5409
13.2493
13.2778
13.2741
13.2945
13.2701
13.3114
13.3192
13.394
13.0929
13.1719
13.1739
13.2317
13.2457
13.2979
13.2947
13.3237
12.9168
13.0065
13.0207
13.0387
13.0595
13.1303
13.1405
13.207
12.885
12.9405
12.9766
13.0303
13.0047
13.0346
13.0243
13.0702
12.7248
12.7419
12.7189
12.7815
12.8047
12.8556
12.8864
12.981
12.6202
12.651
12.6424
12.6632
12.6378
12.6915
12.6916
12.7528
12.3195
12.3611
12.405
12.4607
12.4685
12.5614
12.6228
12.6905
12.1849
12.1802
12.1816
12.2608
12.2798
12.3274
12.3258
12.3836
11.9368
11.9963
12.0325
12.1183
12.1381
12.2032
12.2142
12.2751
11.7416
11.7651
11.7926
11.8968
11.9071
11.9226
11.8778
11.9366
11.58
11.6119
11.6248
11.6899
11.6877
11.7273
11.7115
11.77
11.4139
11.3943
11.4019
11.4602
11.4459
11.4522
11.4206
11.4661
11.2107
11.1915
11.179
11.2108
11.2011
11.2204
11.2225
11.2637
11.2781
11.2477
11.2135
11.2243
11.2385
11.2376
11.2383
11.2634
11.4909
11.4255
11.3414
11.2487
11.2566
11.2354
11.2646
11.2461
13.3903
13.351
13.2232
12.9511
12.6927
12.4218
12.2974
12.161
14.9752
15.0309
14.888
14.4415
13.9601
13.4631
13.2576
13.022
26.8275
26.2575
25.7439
25.2923
24.8175
24.3891
23.8533
23.3494
10.9536
10.9533
10.9926
10.9472
10.9798
10.9873
11.0247
11.0738
10.8754
10.8903
10.9299
10.9408
10.9508
10.989
10.9808
10.9991
10.7496
10.7888
10.8053
10.8505
10.879
10.9152
10.928
10.9763
10.7285
10.7558
10.752
10.7726
10.7505
10.7819
10.7842
10.8502
10.5945
10.6651
10.6673
10.7157
10.7268
10.7725
10.7716
10.7979
10.4478
10.5204
10.5396
10.5558
10.5672
10.6291
10.6386
10.6932
10.4229
10.4668
10.497
10.549
10.5289
10.5528
10.5409
10.5802
10.2892
10.3117
10.2877
10.3375
10.358
10.4004
10.4193
10.5001
10.2039
10.2332
10.2227
10.2425
10.2189
10.2626
10.2617
10.3174
9.96957
9.9984
10.0302
10.0796
10.0788
10.1488
10.1983
10.2621
9.85434
9.85323
9.84786
9.91107
9.92719
9.96963
9.97013
10.0178
9.67088
9.71119
9.72819
9.79581
9.81121
9.86378
9.87102
9.91854
9.52134
9.54394
9.55618
9.63473
9.64865
9.66957
9.63574
9.6743
9.40761
9.43265
9.43782
9.48885
9.48845
9.51768
9.50185
9.53738
9.35533
9.3458
9.34437
9.3768
9.36787
9.37788
9.36074
9.38166
9.27757
9.25858
9.24079
9.24615
9.23584
9.23967
9.25208
9.26244
9.53964
9.48974
9.44572
9.45117
9.45329
9.41697
9.43759
9.46745
9.93329
9.85909
9.78084
9.66877
9.65815
9.589
9.62219
9.59926
11.9633
11.9154
11.813
11.5579
11.3244
11.0328
10.9188
10.7688
14.0361
14.1503
14.0927
13.656
13.1411
12.532
12.2572
11.9242
27.9365
27.3379
26.7899
26.3174
25.8268
25.3827
24.8443
24.3202
8.95218
8.947
8.98563
8.94801
8.97304
8.97705
9.00797
9.05193
8.88478
8.89524
8.93031
8.94048
8.94571
8.9785
8.97513
8.99138
8.77338
8.80707
8.82216
8.85928
8.88505
8.91933
8.92896
8.969
8.7563
8.78172
8.77845
8.79872
8.78044
8.80501
8.80298
8.86012
8.64272
8.70391
8.70681
8.74696
8.75537
8.79486
8.79548
8.82037
8.52167
8.57826
8.59972
8.61623
8.62104
8.67365
8.68294
8.72805
8.50052
8.53389
8.55784
8.6063
8.59206
8.61238
8.60031
8.63342
8.39121
8.41598
8.39448
8.43286
8.44969
8.48495
8.49483
8.56078
8.3208
8.34794
8.3373
8.35526
8.33515
8.37011
8.36839
8.41795
8.14987
8.16956
8.18909
8.23007
8.22407
8.27354
8.3098
8.36606
8.05462
8.05585
8.04751
8.09493
8.10681
8.14203
8.14435
8.18347
7.93431
7.9565
7.95731
8.00513
8.01582
8.05525
8.05959
8.0938
7.82942
7.84827
7.85205
7.90481
7.91716
7.93817
7.917
7.94029
7.76223
7.77976
7.78041
7.81524
7.81595
7.83436
7.82185
7.83768
7.80861
7.80504
7.80234
7.81003
7.80189
7.81065
7.80994
7.81289
7.84342
7.82288
7.80518
7.78723
7.77604
7.76433
7.78825
7.77538
8.24908
8.19005
8.13683
8.13571
8.13587
8.0676
8.09584
8.12576
8.78085
8.70018
8.62901
8.50747
8.48942
8.38001
8.40908
8.38157
10.8773
10.8208
10.7422
10.5068
10.3066
10.0036
9.89883
9.73885
13.3346
13.4761
13.5137
13.1204
12.6094
11.9183
11.5874
11.1679
28.9789
28.3628
27.7762
27.2689
26.7538
26.287
25.7457
25.2019
7.35803
7.34958
7.38571
7.35601
7.37607
7.37789
7.40317
7.44213
7.30032
7.30713
7.33758
7.34745
7.34968
7.37679
7.37681
7.39274
7.2028
7.23074
7.24463
7.27513
7.29704
7.32908
7.33707
7.37038
7.18683
7.20991
7.20742
7.22685
7.21297
7.23324
7.22837
7.27676
7.09299
7.14412
7.14752
7.18052
7.18621
7.21985
7.22104
7.24483
6.99483
7.0375
7.05838
7.07572
7.07645
7.11966
7.12844
7.16575
6.97539
6.99996
7.0176
7.0604
7.05134
7.06956
7.05866
7.0863
6.89042
6.91442
6.8971
6.92616
6.9387
6.96723
6.97072
7.02165
6.83358
6.85691
6.84706
6.86249
6.84685
6.87395
6.87164
6.91381
6.72175
6.73565
6.74432
6.77487
6.76574
6.79729
6.81995
6.86482
6.64991
6.65182
6.64313
6.67547
6.68195
6.7078
6.71087
6.74138
6.59099
6.59625
6.58413
6.6113
6.6165
6.64227
6.64445
6.66525
6.52991
6.54122
6.54075
6.5695
6.57684
6.59273
6.58379
6.5953
6.50666
6.51572
6.51464
6.53255
6.53321
6.54045
6.53339
6.53291
6.63429
6.63159
6.63264
6.61955
6.60907
6.61194
6.62683
6.61783
6.76537
6.74161
6.72751
6.69078
6.67818
6.6513
6.68572
6.65703
7.27127
7.21077
7.15053
7.1405
7.14527
7.05175
7.07872
7.10358
7.90953
7.82483
7.76011
7.63382
7.61591
7.47515
7.49441
7.46059
10.053
9.98814
9.93007
9.70994
9.54182
9.23055
9.13104
8.96221
12.853
12.9949
13.1215
12.7804
12.2871
11.5289
11.1465
10.6475
29.9501
29.3252
28.7047
28.1554
27.6078
27.1089
26.5612
25.9965
6.06974
6.05947
6.09191
6.06943
6.08639
6.08711
6.1077
6.1417
6.02105
6.02488
6.0507
6.0602
6.06082
6.08264
6.08457
6.10085
5.93749
5.95978
5.97222
5.99731
6.01477
6.04381
6.05075
6.07864
5.92081
5.94112
5.93948
5.95758
5.94798
5.96559
5.95946
5.99951
5.84659
5.88743
5.89072
5.91739
5.92041
5.94837
5.9493
5.97166
5.76946
5.80048
5.81846
5.83594
5.83457
5.86863
5.87623
5.90669
5.75066
5.76825
5.78
5.81528
5.80997
5.82662
5.81781
5.84067
5.6909
5.71145
5.69875
5.72042
5.72865
5.75034
5.74952
5.78598
5.64869
5.66633
5.65746
5.66959
5.65877
5.67859
5.67591
5.70928
5.59026
5.60061
5.60099
5.61976
5.60865
5.62489
5.63493
5.66506
5.54615
5.54696
5.53945
5.55788
5.55838
5.57308
5.57551
5.59618
5.54512
5.53511
5.51362
5.52059
5.51952
5.53123
5.53184
5.53936
5.52644
5.52702
5.52443
5.53213
5.53272
5.53927
5.54057
5.54256
5.54317
5.5428
5.54195
5.54379
5.54308
5.53893
5.53817
5.52486
5.73385
5.72746
5.73453
5.7059
5.69163
5.68507
5.7127
5.69651
5.94316
5.91489
5.90611
5.85563
5.8413
5.8001
5.84254
5.80413
6.51597
6.45868
6.39438
6.37331
6.38591
6.27466
6.29492
6.31024
7.23887
7.15206
7.0927
6.96292
6.94951
6.78575
6.79162
6.74851
9.43554
9.36143
9.32078
9.11041
8.96905
8.64899
8.54871
8.36923
12.5581
12.6726
12.8775
12.5944
12.1271
11.3096
10.8741
10.297
30.8506
30.2207
29.5743
28.9834
28.3997
27.8607
27.3012
26.7131
5.01581
5.00491
5.03302
5.01666
5.03167
5.03206
5.04893
5.07801
4.97583
4.9772
4.99845
5.00719
5.00716
5.02435
5.02699
5.04358
4.90659
4.92359
4.93415
4.95463
4.96748
4.99266
4.9985
5.02183
4.88846
4.9056
4.90466
4.92095
4.9151
4.93091
4.92489
4.95723
4.8339
4.86462
4.86699
4.88787
4.88831
4.91066
4.91072
4.93088
4.77658
4.79823
4.8117
4.82788
4.82567
4.85108
4.85681
4.88067
4.75843
4.77063
4.77733
4.80372
4.8004
4.81515
4.80889
4.82741
4.72475
4.73985
4.73122
4.74696
4.75135
4.76593
4.76245
4.78546
4.69957
4.71003
4.70182
4.70979
4.70362
4.71649
4.71365
4.73698
4.68782
4.69558
4.69068
4.69741
4.68496
4.68833
4.68778
4.70109
4.675
4.67312
4.66749
4.67347
4.66814
4.67067
4.67123
4.68037
4.72615
4.70306
4.67574
4.66439
4.65665
4.65422
4.65359
4.64834
4.74738
4.73553
4.73157
4.72173
4.71523
4.70973
4.71836
4.71225
4.79903
4.78862
4.78893
4.77677
4.77364
4.75818
4.76334
4.74044
5.03557
5.02222
5.03539
4.99649
4.97834
4.96033
4.9968
4.97673
5.3054
5.27169
5.2686
5.20906
5.19303
5.13868
5.18607
5.1423
5.92207
5.87008
5.80458
5.77115
5.79238
5.67015
5.68105
5.68346
6.71559
6.62765
6.57273
6.43869
6.43169
6.25193
6.2426
6.18651
8.98335
8.89781
8.87168
8.6667
8.54692
8.21667
8.1093
7.91511
12.411
12.4721
12.7392
12.5206
12.0919
11.2248
10.7339
10.077
31.6863
31.0515
30.3867
29.759
29.1408
28.557
27.9805
27.3659
4.14473
4.13412
4.15761
4.14617
4.1598
4.16031
4.1743
4.19847
4.11344
4.11275
4.12952
4.13694
4.13677
4.15005
4.15257
4.16897
4.0589
4.07121
4.07943
4.09577
4.10413
4.12467
4.12902
4.14809
4.0397
4.05332
4.05277
4.06672
4.06389
4.07807
4.07315
4.09845
4.00472
4.02586
4.02651
4.04183
4.03991
4.0566
4.05542
4.07243
3.96636
3.98073
3.98887
4.00199
3.99953
4.01689
4.02027
4.03731
3.94994
3.95796
3.96069
3.97744
3.97441
3.98631
3.98261
3.99685
3.9425
3.9509
3.9453
3.95591
3.95721
3.96452
3.95965
3.97057
3.93691
3.93941
3.93139
3.9344
3.93223
3.93838
3.93561
3.9481
3.96465
3.96969
3.96227
3.95777
3.94446
3.93713
3.92871
3.92469
3.98461
3.97884
3.97522
3.9705
3.96008
3.95041
3.94833
3.94459
4.08047
4.04679
4.01666
3.99003
3.97584
3.95976
3.95794
3.94078
4.13779
4.11352
4.10816
4.08444
4.07147
4.05286
4.06569
4.05235
4.21872
4.19825
4.19969
4.1763
4.17021
4.14386
4.15362
4.12377
4.48653
4.46442
4.48241
4.43773
4.41639
4.38633
4.42759
4.40562
4.8013
4.76153
4.7635
4.69876
4.68136
4.61515
4.6645
4.61795
5.44807
5.40163
5.33716
5.2908
5.32008
5.19209
5.1929
5.1801
6.30405
6.21497
6.16394
6.02388
6.0236
5.83321
5.80832
5.73552
8.66388
8.56456
8.55004
8.34708
8.24514
7.90414
7.78481
7.57088
12.3769
12.3653
12.6741
12.5227
12.1477
11.2464
10.7019
9.96341
32.467
31.8252
31.1477
30.4893
29.8411
29.2117
28.6143
27.9705
3.41905
3.40939
3.42817
3.42051
3.43286
3.43362
3.44534
3.46457
3.39665
3.39422
3.4066
3.41212
3.41193
3.42185
3.42379
3.4392
3.35711
3.36537
3.37095
3.38328
3.38745
3.40276
3.40517
3.41982
3.33819
3.34803
3.34746
3.35848
3.35778
3.36997
3.36674
3.38555
3.32228
3.33473
3.33306
3.3428
3.3388
3.34974
3.34723
3.36012
3.30206
3.31094
3.3137
3.3221
3.31943
3.32932
3.33018
3.34001
3.28929
3.29392
3.29383
3.3009
3.2968
3.30462
3.30308
3.31276
3.30701
3.30831
3.30455
3.31034
3.30934
3.30948
3.30411
3.30451
3.32272
3.31727
3.30902
3.30654
3.30744
3.30712
3.30465
3.30621
3.38271
3.3843
3.37643
3.36233
3.34858
3.33254
3.31912
3.29885
3.43429
3.42397
3.42215
3.40869
3.39435
3.37341
3.3685
3.35148
3.56653
3.52482
3.49409
3.45578
3.43596
3.40737
3.4042
3.37627
3.65508
3.61975
3.61272
3.57855
3.56024
3.52889
3.54308
3.52313
3.75958
3.72974
3.73161
3.69983
3.69074
3.65434
3.66688
3.63193
4.04775
4.01631
4.03725
3.99009
3.96657
3.92491
3.96745
3.94446
4.39537
4.34905
4.35495
4.2877
4.26945
4.19252
4.24138
4.19319
5.06619
5.0245
4.96242
4.90299
4.93925
4.809
4.80014
4.77065
5.98091
5.88988
5.8425
5.69424
5.70008
5.50289
5.46321
5.37038
8.45259
8.33761
8.33205
8.12819
8.04152
7.69032
7.55628
7.31781
12.4285
12.3336
12.6622
12.5744
12.2663
11.3495
10.7589
9.94
33.2025
32.5511
31.8645
31.1811
30.5085
29.8358
29.2154
28.5409
2.81164
2.80339
2.81744
2.81255
2.82338
2.82422
2.834
2.84818
2.79842
2.79454
2.80265
2.80575
2.80537
2.81227
2.8134
2.82686
2.7739
2.77874
2.78157
2.78982
2.79025
2.79996
2.8001
2.8099
2.75735
2.76325
2.76225
2.76976
2.77028
2.77974
2.77834
2.79103
2.75935
2.76427
2.76
2.76405
2.75833
2.76345
2.75971
2.76765
2.75619
2.76101
2.75899
2.76141
2.75824
2.76122
2.7597
2.76201
2.7493
2.75099
2.74914
2.74716
2.74114
2.74377
2.74374
2.7484
2.78969
2.78426
2.78128
2.78232
2.7797
2.77305
2.7678
2.75934
2.82675
2.81408
2.80534
2.79729
2.80019
2.79386
2.79189
2.78324
2.91203
2.90944
2.90233
2.88072
2.86691
2.84397
2.82814
2.79399
2.99165
2.97667
2.97623
2.95613
2.93918
2.90867
2.90126
2.87175
3.15212
3.10476
3.07467
3.02822
3.00398
2.96461
2.95988
2.92254
3.26651
3.22227
3.21328
3.17169
3.14931
3.10659
3.11989
3.09392
3.38939
3.35135
3.35268
3.315
3.30329
3.25795
3.2714
3.23237
3.6912
3.65063
3.67265
3.62509
3.6004
3.5481
3.58929
3.56534
4.06376
4.01039
4.01889
3.95066
3.93214
3.84526
3.89195
3.84217
4.75867
4.72046
4.66143
4.58873
4.63095
4.50046
4.483
4.43572
5.73173
5.63735
5.59363
5.43489
5.44584
5.24436
5.19137
5.07588
8.33161
8.19971
8.20089
7.99358
7.92021
7.56005
7.41053
7.14363
12.5446
12.364
12.6921
12.6588
12.4253
11.5118
10.8869
9.99277
33.8992
33.2359
32.5418
31.8382
31.1466
30.435
29.7913
29.0859
2.30328
2.29666
2.30605
2.30303
2.31184
2.31243
2.32028
2.32923
2.29942
2.29439
2.29839
2.29868
2.2978
2.30176
2.30202
2.31247
2.2895
2.29146
2.29162
2.29566
2.29291
2.29688
2.2947
2.29913
2.27764
2.27963
2.27788
2.2814
2.28227
2.28815
2.28835
2.29511
2.29559
2.29434
2.28758
2.28593
2.27887
2.27825
2.27354
2.27596
2.30789
2.30968
2.30395
2.29986
2.2958
2.29244
2.28894
2.28379
2.30875
2.30782
2.30503
2.2952
2.28697
2.28374
2.28451
2.28379
2.36806
2.35687
2.35393
2.35033
2.34662
2.3339
2.32909
2.31345
2.42457
2.40591
2.39661
2.38341
2.38731
2.37571
2.37437
2.35703
2.52869
2.52161
2.51568
2.48877
2.47522
2.44704
2.43078
2.38593
2.63115
2.61182
2.61233
2.58766
2.56936
2.53142
2.52209
2.48197
2.81278
2.76176
2.73272
2.68112
2.65371
2.60563
2.5992
2.55392
2.94786
2.89702
2.8859
2.83928
2.81402
2.76171
2.77265
2.7412
3.08485
3.04001
3.0399
2.99811
2.98438
2.93129
2.94413
2.90131
3.39775
3.34855
3.37012
3.32319
3.29816
3.23624
3.27442
3.24903
3.79156
3.73046
3.74036
3.67164
3.65342
3.55677
3.60041
3.54847
4.51492
4.47875
4.42306
4.33658
4.38398
4.25414
4.22951
4.16354
5.54795
5.4485
5.40866
5.23733
5.25221
5.04796
4.98356
4.84354
8.28682
8.13739
8.1436
7.93082
7.86902
7.50154
7.33719
7.03926
12.7064
12.4445
12.7558
12.7645
12.607
11.7127
11.0671
10.1068
34.5576
33.8808
33.1798
32.4594
31.7534
31.0082
30.3422
29.6074
1.8809
1.87597
1.88083
1.87894
1.88512
1.88501
1.89074
1.89429
1.88623
1.8804
1.88057
1.8779
1.87616
1.87711
1.87653
1.88298
1.88993
1.88947
1.88724
1.88702
1.88172
1.88009
1.87583
1.87454
1.88468
1.88307
1.88038
1.87966
1.88023
1.88181
1.88315
1.88413
1.91587
1.9099
1.90112
1.89405
1.88604
1.87996
1.87462
1.8714
1.94138
1.94088
1.93271
1.92236
1.91715
1.90816
1.90321
1.89117
1.95085
1.94761
1.94448
1.9284
1.91813
1.90906
1.91
1.9039
2.02447
2.0089
2.00559
1.99777
1.99332
1.97556
1.9713
1.95015
2.09689
2.07374
2.06389
2.04638
2.05049
2.03464
2.03399
2.01006
2.21407
2.20277
2.19796
2.16772
2.15462
2.12276
2.10732
2.05518
2.33357
2.31053
2.31153
2.28419
2.26559
2.22241
2.21185
2.16365
2.53106
2.47784
2.44962
2.39498
2.36549
2.31077
2.3026
2.25088
2.68256
2.6271
2.61377
2.5638
2.53659
2.47646
2.48422
2.44785
2.83061
2.78027
2.77802
2.73319
2.71807
2.65828
2.66951
2.62264
3.15566
3.09823
3.11834
3.07226
3.04749
2.97672
3.01111
2.98345
3.57056
3.50082
3.51114
3.44166
3.42431
3.31754
3.35781
3.30291
4.32905
4.29342
4.24131
4.14023
4.19223
4.06321
4.03306
3.94766
5.4239
5.31756
5.28197
5.09642
5.11399
4.90799
4.83426
4.66876
8.30455
8.13761
8.14751
7.92813
7.87628
7.50343
7.32595
6.99592
12.8957
12.5619
12.845
12.8822
12.7966
11.9328
11.2799
10.2647
35.1714
34.4805
33.7725
33.038
32.3209
31.5479
30.8618
30.1001
1.53642
1.53307
1.53367
1.53233
1.53539
1.53419
1.5375
1.53562
1.55025
1.544
1.54077
1.53526
1.53239
1.53026
1.52894
1.53063
1.56588
1.56344
1.55927
1.55498
1.54781
1.54101
1.53515
1.52814
1.56821
1.56354
1.55995
1.55512
1.55499
1.55198
1.55394
1.54946
1.60943
1.60013
1.59004
1.5782
1.56961
1.55871
1.55309
1.54457
1.64526
1.64304
1.63365
1.61801
1.61166
1.59797
1.59214
1.57429
1.66285
1.65774
1.65466
1.6341
1.62227
1.60807
1.60876
1.59783
1.74596
1.72746
1.72371
1.71245
1.70753
1.68597
1.68221
1.65717
1.82971
1.80359
1.79326
1.77254
1.77636
1.75749
1.75751
1.7293
1.95508
1.94031
1.93632
1.90436
1.89176
1.85759
1.84355
1.78724
2.08618
2.06016
2.06133
2.03285
2.01473
1.96828
1.95705
1.90343
2.29626
2.24172
2.21371
2.15722
2.12636
2.06674
2.05692
2.00012
2.46123
2.40255
2.38698
2.33459
2.30601
2.23946
2.24381
2.203
2.61841
2.56354
2.55878
2.51127
2.4953
2.42957
2.43875
2.38726
2.95921
2.8937
2.91181
2.86628
2.84222
2.76296
2.79347
2.76263
3.39708
3.31765
3.32769
3.25674
3.24083
3.1233
3.16024
3.10166
4.1972
4.16054
4.11232
3.99592
4.0519
3.92348
3.8896
3.78459
5.35354
5.2387
5.20768
5.00719
5.02613
4.8191
4.73834
4.54769
8.36857
8.18489
8.19722
7.97097
7.92733
7.5512
7.36314
7.00206
13.0932
12.7
12.949
13.0023
12.9796
12.1522
11.5029
10.4455
35.7278
35.0231
34.308
33.5613
32.8357
32.0405
31.3368
30.5518
1.2663
1.26433
1.26117
1.26001
1.25975
1.25724
1.25798
1.25097
1.28735
1.28102
1.27502
1.26708
1.263
1.25792
1.25597
1.2527
1.31257
1.30863
1.30306
1.29522
1.28683
1.27565
1.26873
1.25651
1.32217
1.31517
1.31092
1.30251
1.30161
1.29431
1.29647
1.28718
1.37005
1.35866
1.34801
1.33246
1.32362
1.30883
1.3032
1.29024
1.41297
1.40953
1.39991
1.38043
1.3732
1.35595
1.34973
1.32755
1.43698
1.43052
1.42775
1.40447
1.39166
1.37357
1.37381
1.3591
1.52518
1.5051
1.501
1.48735
1.48221
1.45816
1.45478
1.42736
1.61557
1.58782
1.5771
1.55428
1.55762
1.53699
1.5376
1.5073
1.74535
1.72811
1.72467
1.69211
1.67994
1.64457
1.632
1.57396
1.88359
1.85531
1.85647
1.82799
1.81079
1.7626
1.75107
1.69439
2.10478
2.0493
2.02078
1.96283
1.93094
1.86768
1.85638
1.79563
2.28147
2.22036
2.2026
2.14815
2.11852
2.04648
2.04758
2.00277
2.44654
2.38778
2.38046
2.33021
2.31381
2.24264
2.24982
2.19315
2.80739
2.73386
2.74983
2.70431
2.6813
2.59381
2.6208
2.58595
3.26999
3.18011
3.18945
3.11627
3.10239
2.97374
3.00752
2.94484
4.11491
4.07575
4.0317
3.90013
3.95937
3.83125
3.79538
3.67169
5.32793
5.2037
5.17727
4.96263
4.98185
4.77462
4.68917
4.47542
8.45875
8.26009
8.27376
8.04163
8.00497
7.62793
7.43236
7.04338
13.2782
12.84
13.055
13.1151
13.1439
12.3535
11.7151
10.6276
36.2061
35.489
34.7666
34.0093
33.2767
32.4649
31.7477
30.9442
1.073
1.07211
1.06603
1.06487
1.06165
1.05791
1.05628
1.04498
1.09939
1.09324
1.08528
1.07554
1.07042
1.06288
1.06045
1.05278
1.13131