/*--------------------------------*- C++ -*----------------------------------*\
  =========                 |
  \\      /  F ield         | OpenFOAM: The Open Source CFD Toolbox
   \\    /   O peration     | Website:  https://openfoam.org
    \\  /    A nd           | Version:  6
     \\/     M anipulation  |
\*---------------------------------------------------------------------------*/
FoamFile
{
    version     2.0;
    format      ascii;
    class       volVectorField;
    location    "0.6";
    object      U;
}
// * * * * * * * * * * * * * * * * * * * * * * * * * * * * * * * * * * * * * //

dimensions      [0 1 -1 0 0 0 0];

internalField   nonuniform List<vector> 
63400
(
(0.108205 -0.0039033 1.0173e-06)
(0.107896 -0.00383438 1.00296e-06)
(0.10771 -0.00371305 4.87446e-07)
(0.107814 -0.00355706 -4.29619e-07)
(0.108153 -0.00336034 1.36278e-07)
(0.108348 -0.00319122 -3.19357e-07)
(0.108588 -0.00296669 -6.64354e-07)
(0.10856 -0.00299037 -3.22776e-06)
(0.107769 -0.00338294 5.89114e-07)
(0.107564 -0.00341055 4.75441e-07)
(0.107359 -0.00340128 7.27639e-07)
(0.107078 -0.00334761 1.76682e-06)
(0.106961 -0.00321741 1.99595e-06)
(0.106956 -0.00308032 1.82912e-06)
(0.106996 -0.00283912 1.25902e-06)
(0.107554 -0.00276036 -2.61666e-06)
(0.105647 -0.00324958 5.84504e-07)
(0.105803 -0.00316204 7.9942e-07)
(0.105959 -0.00304621 1.09318e-06)
(0.106083 -0.00293396 1.39719e-06)
(0.106136 -0.00282659 3.42261e-07)
(0.106315 -0.00277334 2.33863e-07)
(0.106196 -0.00266591 1.57934e-06)
(0.106576 -0.0026273 -1.75529e-06)
(0.104343 -0.00296099 2.47457e-06)
(0.104012 -0.00295466 2.73539e-06)
(0.10397 -0.00292387 9.64896e-07)
(0.104033 -0.00286348 2.8026e-07)
(0.104195 -0.0027627 -3.71703e-07)
(0.104575 -0.00265477 4.26764e-07)
(0.104668 -0.00248199 9.86459e-07)
(0.105355 -0.0023795 -3.77896e-06)
(0.103432 -0.00248756 -9.97396e-07)
(0.103473 -0.00250769 -6.69709e-08)
(0.103425 -0.00252467 -4.41349e-07)
(0.103439 -0.00251482 7.81442e-07)
(0.103228 -0.00246873 2.03247e-06)
(0.103287 -0.00242477 2.62891e-06)
(0.103021 -0.00235587 2.78476e-06)
(0.103548 -0.00229516 -3.39508e-06)
(0.101012 -0.00257223 -1.25557e-06)
(0.101206 -0.00248814 1.15219e-06)
(0.101238 -0.00239603 8.21646e-07)
(0.101452 -0.00228871 1.15721e-06)
(0.101543 -0.00216246 1.17673e-06)
(0.101888 -0.00207871 2.2528e-07)
(0.101925 -0.00203144 1.64696e-07)
(0.102511 -0.00202789 -3.21181e-06)
(0.0999494 -0.00216593 1.14932e-06)
(0.0998235 -0.00204943 2.83481e-06)
(0.0996954 -0.00197247 3.57863e-06)
(0.0995471 -0.00197423 3.53878e-06)
(0.0995294 -0.00200412 6.1243e-07)
(0.0998426 -0.00203011 2.82338e-07)
(0.0998451 -0.00201532 3.71582e-07)
(0.100508 -0.00200118 -4.22423e-06)
(0.0967294 -0.0019012 3.58779e-06)
(0.0967385 -0.00178846 1.64362e-06)
(0.0970784 -0.00168767 -7.20746e-07)
(0.0975095 -0.00165872 -1.24761e-06)
(0.0978525 -0.00168821 -2.32573e-06)
(0.0983391 -0.00171134 -6.61133e-07)
(0.0983385 -0.00166325 1.54478e-06)
(0.0988786 -0.00163218 -1.51161e-06)
(0.0949332 -0.00145293 4.22987e-06)
(0.0947943 -0.00154824 3.37596e-06)
(0.0947151 -0.00167276 7.96292e-07)
(0.0950464 -0.00175931 -2.68612e-06)
(0.0953622 -0.00177474 -2.42803e-06)
(0.0957577 -0.0017286 6.6344e-07)
(0.0956582 -0.00160859 1.59737e-06)
(0.0963468 -0.00151661 -4.26033e-06)
(0.092002 -0.00125146 -3.45942e-06)
(0.0926893 -0.00129516 -4.1699e-06)
(0.0931992 -0.00140767 -3.92722e-06)
(0.0936637 -0.00149473 -2.55413e-06)
(0.0938853 -0.00144502 2.87428e-08)
(0.0941077 -0.0012843 3.97775e-06)
(0.093744 -0.00113531 5.19173e-06)
(0.0941063 -0.00110815 -1.82679e-06)
(0.0892937 -0.00144445 -2.10417e-06)
(0.0897055 -0.00155177 -4.50978e-06)
(0.0900825 -0.0015632 -1.49825e-06)
(0.0903716 -0.0015044 1.36422e-06)
(0.0905631 -0.00136735 7.32051e-07)
(0.0910705 -0.00118818 -5.92978e-07)
(0.0913019 -0.00103998 -2.42534e-06)
(0.092236 -0.00105184 -7.48765e-06)
(0.0884284 -0.00115787 -4.12874e-06)
(0.0886197 -0.00123726 -7.81849e-07)
(0.0886353 -0.00125961 1.80944e-06)
(0.0886233 -0.00122944 4.21474e-06)
(0.0885187 -0.00113855 3.83528e-06)
(0.088768 -0.00101264 3.15629e-06)
(0.0887024 -0.00088056 1.36051e-06)
(0.0894874 -0.00087708 -5.04544e-06)
(0.0841639 -0.00121075 -1.13296e-06)
(0.0843879 -0.00108644 -5.42137e-07)
(0.0843903 -0.000988931 4.2905e-06)
(0.0843328 -0.000934467 5.90714e-06)
(0.0843508 -0.000904217 1.882e-06)
(0.0849158 -0.000876019 -2.26481e-06)
(0.0853119 -0.000825057 -5.54498e-06)
(0.0865952 -0.000818187 -1.02684e-05)
(0.08258 -0.000863025 9.91343e-07)
(0.0825104 -0.000763794 2.02111e-06)
(0.0823652 -0.000711869 4.35691e-06)
(0.0822024 -0.000731363 6.6317e-06)
(0.0819987 -0.000802553 5.15297e-06)
(0.0822214 -0.00085295 3.56814e-06)
(0.0821248 -0.000814919 1.22894e-06)
(0.0829621 -0.000711647 -5.39094e-06)
(0.0768817 -0.000611247 1.27679e-06)
(0.0770176 -0.000429447 3.68299e-07)
(0.0768996 -0.00030656 6.50436e-06)
(0.0766685 -0.000318058 8.57259e-06)
(0.0766233 -0.000448228 2.689e-06)
(0.0773844 -0.00059122 -5.32981e-06)
(0.0781777 -0.000659496 -1.09656e-05)
(0.0797808 -0.000647234 -1.37016e-05)
(0.0751248 -0.000380109 -1.11123e-07)
(0.0750856 -0.00022436 7.87232e-07)
(0.0748385 -0.000143937 6.02801e-06)
(0.0744206 -0.000294733 9.44274e-06)
(0.0740362 -0.000699895 6.43602e-06)
(0.0742558 -0.00106623 2.79022e-06)
(0.0743461 -0.00110728 -1.34479e-06)
(0.0755312 -0.00084521 -6.07337e-06)
(0.0678796 -0.000106866 -1.86071e-07)
(0.0679614 0.000250626 3.37073e-06)
(0.067565 0.000492251 3.39759e-06)
(0.0675915 0.000401769 1.71322e-06)
(0.0673126 2.22263e-05 7.4714e-06)
(0.0670832 -0.000363099 8.7877e-06)
(0.0668124 -0.00058586 2.07201e-07)
(0.0682467 -0.000462329 -1.5323e-05)
(0.0659919 5.55846e-06 -2.52276e-06)
(0.066046 0.000305181 1.82048e-06)
(0.0655184 0.00040217 9.07313e-06)
(0.0649004 0.000215873 1.26238e-05)
(0.0643658 -0.000131382 1.12669e-05)
(0.0642545 -0.00054991 8.06453e-06)
(0.0639332 -0.00102947 3.70413e-07)
(0.064827 -0.00121504 -6.24913e-06)
(0.0548255 0.000182932 3.30216e-06)
(0.0551641 0.000869203 4.77269e-06)
(0.0551418 0.00132514 6.9336e-06)
(0.0547543 0.00117759 6.20988e-06)
(0.0542425 0.000636913 1.9522e-06)
(0.054108 0.000151059 -9.77708e-07)
(0.053647 -0.000226137 -4.31916e-06)
(0.0540265 -0.000117062 -8.35646e-06)
(0.0407119 0.000188671 9.44295e-06)
(0.0408615 0.000561857 -6.14751e-06)
(0.0431983 0.000894296 -1.74778e-05)
(0.04641 0.00093138 -1.91557e-05)
(0.0488833 0.000668565 -1.65035e-05)
(0.0502655 0.000338985 -1.34637e-05)
(0.0506607 -3.38257e-05 -1.1183e-05)
(0.0508887 2.87005e-05 -6.84877e-06)
(0.0687444 -0.000165784 -1.50187e-05)
(0.0685922 -0.0010753 -2.05162e-05)
(0.0679793 -0.00165674 -3.43079e-05)
(0.0679163 -0.00138528 -4.45225e-05)
(0.0685908 -0.000737127 -4.53041e-05)
(0.0695978 -0.000256771 -3.80255e-05)
(0.0702317 -7.9644e-05 -3.39554e-05)
(0.0708458 3.63323e-05 -2.02462e-05)
(0.187445 -0.0059994 4.62288e-06)
(0.18706 -0.0059839 5.13802e-06)
(0.186863 -0.00588857 4.9873e-06)
(0.18682 -0.00572378 1.92594e-07)
(0.186978 -0.00549694 4.93062e-07)
(0.187076 -0.00528384 -2.85751e-07)
(0.187178 -0.00501436 1.9081e-06)
(0.187134 -0.00498013 -3.75356e-06)
(0.186829 -0.00516734 4.78109e-06)
(0.186621 -0.00527192 6.7403e-06)
(0.186412 -0.00534778 7.68383e-06)
(0.186208 -0.0053579 7.21577e-06)
(0.186066 -0.00524738 6.62844e-06)
(0.186061 -0.00508477 6.1787e-06)
(0.186053 -0.0047907 1.99527e-06)
(0.186348 -0.00465111 -7.56001e-06)
(0.185049 -0.00499 2.89982e-06)
(0.18512 -0.00495556 2.59102e-06)
(0.185186 -0.00487786 2.7431e-06)
(0.185235 -0.00477376 3.65959e-06)
(0.185207 -0.00464294 2.89974e-06)
(0.185281 -0.00455706 4.40797e-06)
(0.185233 -0.00443476 5.86113e-06)
(0.185515 -0.00438659 -2.26169e-06)
(0.183855 -0.00455746 5.18403e-06)
(0.183582 -0.00459489 5.33446e-06)
(0.183423 -0.00459336 2.48477e-06)
(0.183421 -0.00455307 1.78768e-06)
(0.183482 -0.0044611 -9.5177e-07)
(0.183741 -0.00435786 3.53757e-08)
(0.183828 -0.00418327 5.25385e-07)
(0.1843 -0.00405139 -9.68306e-06)
(0.182677 -0.00383705 -1.24039e-06)
(0.182718 -0.00390038 1.74794e-06)
(0.182652 -0.00397913 1.78673e-06)
(0.182627 -0.00403661 4.26297e-06)
(0.182513 -0.00403499 5.09964e-06)
(0.18254 -0.00399396 5.90282e-06)
(0.182376 -0.0039067 5.02668e-06)
(0.182701 -0.00381783 -9.46408e-06)
(0.180324 -0.00399173 -1.69589e-06)
(0.18058 -0.00392906 2.10061e-06)
(0.180678 -0.00384423 2.92961e-07)
(0.180787 -0.00374466 -1.58599e-07)
(0.180827 -0.00360144 -4.997e-07)
(0.181013 -0.00345942 -2.73566e-07)
(0.181023 -0.00336466 1.53746e-07)
(0.181446 -0.00336844 -8.11233e-06)
(0.179179 -0.00350004 2.28e-06)
(0.179093 -0.00338668 5.95085e-06)
(0.178996 -0.00322995 6.91132e-06)
(0.178891 -0.00315743 6.36341e-06)
(0.178774 -0.00317473 7.02587e-07)
(0.178946 -0.00323137 5.41948e-07)
(0.179003 -0.00326628 -3.29924e-07)
(0.179535 -0.0033042 -1.20052e-05)
(0.176065 -0.00306264 1.30399e-06)
(0.175982 -0.00295406 -9.59856e-07)
(0.176093 -0.00276911 -3.44594e-06)
(0.1764 -0.00265286 -2.31826e-06)
(0.176683 -0.00267757 -3.55129e-06)
(0.177105 -0.0027801 -1.27509e-07)
(0.177236 -0.00281917 3.51467e-06)
(0.177728 -0.00281988 -4.98668e-06)
(0.173928 -0.00228698 7.29743e-06)
(0.173703 -0.00235529 6.17777e-06)
(0.173557 -0.00251633 2.42282e-06)
(0.173721 -0.00270282 -2.94493e-06)
(0.174022 -0.00283201 -4.35329e-06)
(0.174498 -0.00286859 -7.26681e-07)
(0.174595 -0.00277181 -7.72858e-07)
(0.175128 -0.00262341 -1.57591e-05)
(0.170399 -0.0019616 -6.4114e-06)
(0.170939 -0.00197559 -5.98554e-06)
(0.171467 -0.00214222 -5.41269e-06)
(0.171955 -0.00238067 -3.85424e-06)
(0.17226 -0.00249702 -7.28687e-07)
(0.172576 -0.00238063 6.36632e-06)
(0.172419 -0.00211272 9.12753e-06)
(0.172652 -0.00191379 -6.04886e-06)
(0.167358 -0.00204602 -1.27793e-06)
(0.167628 -0.00236206 -5.51795e-06)
(0.16806 -0.00252746 -3.09518e-06)
(0.168523 -0.00255222 -1.41307e-07)
(0.168845 -0.00243633 -2.73086e-06)
(0.169312 -0.00217721 -4.55806e-06)
(0.169524 -0.00184851 -6.63205e-06)
(0.170224 -0.00168671 -2.03294e-05)
(0.165955 -0.00175441 -7.42308e-06)
(0.166293 -0.00200934 -4.0047e-06)
(0.166385 -0.00214993 -8.52651e-07)
(0.166423 -0.00216305 4.11482e-06)
(0.16635 -0.00206037 5.69812e-06)
(0.166513 -0.00185964 7.88124e-06)
(0.166478 -0.00158982 7.04155e-06)
(0.167106 -0.00145722 -8.41903e-06)
(0.161384 -0.00210531 -3.31816e-06)
(0.161639 -0.00194032 -4.53935e-06)
(0.161711 -0.00178579 8.10938e-07)
(0.161744 -0.00167547 4.47449e-06)
(0.161757 -0.00160366 -3.5623e-07)
(0.16215 -0.00153759 -5.0637e-06)
(0.162455 -0.00143137 -9.44782e-06)
(0.163518 -0.00136381 -2.57347e-05)
(0.159311 -0.00159339 -3.72734e-06)
(0.159221 -0.00143336 -1.91679e-06)
(0.159069 -0.0012978 2.00764e-06)
(0.158912 -0.00125088 8.23521e-06)
(0.158674 -0.00130666 9.47826e-06)
(0.158754 -0.00139845 1.03967e-05)
(0.158662 -0.00140825 8.03148e-06)
(0.159348 -0.00129719 -9.63397e-06)
(0.152822 -0.00122649 -2.60363e-06)
(0.152817 -0.000957976 -3.68748e-06)
(0.15273 -0.000695754 4.99553e-06)
(0.152603 -0.000579608 1.05789e-05)
(0.152494 -0.000676492 4.10251e-06)
(0.152965 -0.000899973 -5.80701e-06)
(0.153603 -0.00108271 -1.47184e-05)
(0.155094 -0.00112707 -3.0192e-05)
(0.150181 -0.000830584 -5.4393e-06)
(0.150122 -0.000581029 -5.36111e-06)
(0.149882 -0.000349474 1.67043e-06)
(0.149475 -0.000328112 1.05926e-05)
(0.148961 -0.00071159 1.05964e-05)
(0.148925 -0.00138446 8.63207e-06)
(0.148938 -0.00187024 3.53894e-06)
(0.150002 -0.00177972 -1.24669e-05)
(0.141404 -0.000477023 -4.90491e-06)
(0.141477 1.06905e-05 1.21443e-06)
(0.141208 0.000567822 4.20849e-06)
(0.140932 0.000788305 3.29351e-06)
(0.140601 0.00043447 8.35403e-06)
(0.140483 -0.000278351 8.53521e-06)
(0.140154 -0.000938053 -2.48986e-06)
(0.141082 -0.00103254 -3.15755e-05)
(0.138332 -0.000261413 -7.62559e-06)
(0.138514 0.000208018 -4.52088e-06)
(0.138124 0.000613179 4.08546e-06)
(0.137317 0.00063298 1.09612e-05)
(0.136469 0.000241397 1.11834e-05)
(0.136106 -0.000395337 8.93015e-06)
(0.135688 -0.00123833 -1.14349e-06)
(0.136241 -0.00186733 -1.70447e-05)
(0.123329 -0.000111943 5.42845e-06)
(0.123826 0.000832026 1.30288e-05)
(0.123977 0.00206081 1.50385e-05)
(0.12359 0.00254797 8.42828e-06)
(0.122856 0.00196528 -5.75067e-06)
(0.122432 0.000917204 -1.61678e-05)
(0.121859 -0.000103436 -2.67369e-05)
(0.122001 -0.000445167 -4.4103e-05)
(0.100576 0.000150376 4.37186e-05)
(0.100512 0.000760667 6.11639e-05)
(0.102956 0.00158198 2.97028e-05)
(0.107536 0.0019695 -1.31609e-05)
(0.111972 0.00166069 -3.57207e-05)
(0.114943 0.000996986 -3.41992e-05)
(0.116134 0.00020166 -2.64538e-05)
(0.116566 -8.10932e-05 -1.15142e-05)
(0.0931606 -0.000132367 -1.28649e-05)
(0.0928834 -0.00122937 -7.48713e-06)
(0.0919755 -0.00207004 -1.78357e-05)
(0.0915788 -0.00186075 -3.40796e-05)
(0.0920657 -0.00106389 -4.34163e-05)
(0.0929825 -0.000402043 -3.9317e-05)
(0.0935167 -0.000130451 -4.01827e-05)
(0.0938893 2.18417e-05 -1.93538e-05)
(0.227117 -0.00670604 -6.938e-06)
(0.226679 -0.00673908 -3.89157e-06)
(0.226432 -0.00668598 -2.07912e-06)
(0.226332 -0.0065521 -5.17455e-06)
(0.226422 -0.00634705 -4.02227e-06)
(0.226488 -0.00614413 -4.56018e-06)
(0.226527 -0.00588716 -4.13561e-06)
(0.226422 -0.00583344 -1.35451e-05)
(0.226343 -0.00576827 -1.65538e-06)
(0.226091 -0.00590553 -7.3862e-07)
(0.225831 -0.00603096 -4.81206e-07)
(0.225609 -0.00609394 4.08051e-08)
(0.225456 -0.00602845 9.55458e-07)
(0.225427 -0.00588603 1.54676e-06)
(0.225404 -0.0056008 -2.64151e-07)
(0.225612 -0.00544758 -1.43559e-05)
(0.224451 -0.00553598 -2.19777e-07)
(0.224501 -0.00555723 -5.6664e-07)
(0.224534 -0.00553603 -1.1999e-06)
(0.224551 -0.00547704 5.86169e-08)
(0.224494 -0.00536731 -4.71285e-07)
(0.224498 -0.00527502 -4.06867e-08)
(0.224437 -0.00514745 2.5795e-06)
(0.224682 -0.00510062 -1.02785e-05)
(0.22317 -0.00507282 -1.43265e-06)
(0.222908 -0.00514345 2.61829e-07)
(0.222719 -0.00516903 -1.65217e-06)
(0.22267 -0.00515266 -1.84037e-06)
(0.222685 -0.00508204 -4.43181e-06)
(0.22288 -0.00499873 -3.81376e-06)
(0.222967 -0.00485353 -1.70608e-06)
(0.223366 -0.00474181 -1.77763e-05)
(0.221753 -0.00427917 -2.91993e-06)
(0.221782 -0.00436201 -6.9433e-07)
(0.221712 -0.00446764 -1.70751e-06)
(0.221657 -0.00456561 -2.33119e-07)
(0.221568 -0.00460752 3.30357e-07)
(0.221591 -0.00459341 1.19349e-06)
(0.221469 -0.00451532 2.18827e-06)
(0.221725 -0.00442477 -1.68327e-05)
(0.21926 -0.0044145 -4.0587e-06)
(0.219537 -0.0043989 -1.60936e-06)
(0.219706 -0.0043422 -4.3315e-06)
(0.219804 -0.00427347 -5.47279e-06)
(0.219822 -0.00415982 -4.91129e-06)
(0.219935 -0.00401619 -3.43437e-06)
(0.219913 -0.00389356 -1.5408e-06)
(0.220247 -0.00387997 -1.57042e-05)
(0.218006 -0.00394604 -1.78223e-06)
(0.217927 -0.00389504 1.9803e-06)
(0.217865 -0.00373428 2.83871e-06)
(0.217801 -0.00361276 3.44892e-06)
(0.217665 -0.00359033 -1.32603e-06)
(0.217737 -0.00363689 -1.85012e-06)
(0.217785 -0.0036872 -2.56077e-06)
(0.21826 -0.00375973 -2.06909e-05)
(0.214906 -0.00344316 -7.14298e-06)
(0.214788 -0.00339133 -6.57862e-06)
(0.214779 -0.00320183 -6.37829e-06)
(0.214984 -0.00302767 -2.38583e-06)
(0.215224 -0.00300381 -2.78967e-06)
(0.215596 -0.00311854 -7.09002e-07)
(0.215781 -0.00322071 2.24423e-06)
(0.216275 -0.00328304 -1.25694e-05)
(0.212504 -0.00258453 4.88281e-06)
(0.21226 -0.0026209 5.48753e-06)
(0.212068 -0.0027469 3.96637e-06)
(0.212126 -0.0029393 -4.71767e-07)
(0.21238 -0.00312075 -4.69759e-06)
(0.212877 -0.00323208 -4.92387e-06)
(0.21311 -0.00320506 -6.56619e-06)
(0.213618 -0.00308476 -2.83019e-05)
(0.208635 -0.00219708 -5.95054e-06)
(0.209033 -0.00217376 -3.22698e-06)
(0.20953 -0.00231518 -2.53627e-06)
(0.210032 -0.00259618 -2.70191e-06)
(0.210394 -0.00282925 -2.75306e-06)
(0.210774 -0.00283035 2.52978e-06)
(0.210777 -0.00258912 6.77294e-06)
(0.211004 -0.00231416 -1.25721e-05)
(0.205372 -0.00208485 2.83781e-06)
(0.205546 -0.00247916 -1.8296e-06)
(0.205966 -0.00275512 -2.84113e-06)
(0.206514 -0.00287781 -3.26519e-06)
(0.206945 -0.00284292 -8.40553e-06)
(0.20742 -0.00262497 -1.04752e-05)
(0.207646 -0.00225411 -1.00402e-05)
(0.208217 -0.00196897 -3.03857e-05)
(0.2035 -0.00183393 -6.27332e-06)
(0.203965 -0.00218051 -6.66731e-06)
(0.204147 -0.00242668 -6.25591e-06)
(0.204241 -0.00251172 -1.35243e-06)
(0.204229 -0.00244658 2.31338e-06)
(0.204372 -0.00225011 8.79273e-06)
(0.204365 -0.00193529 1.27962e-05)
(0.204891 -0.00170771 -8.32655e-06)
(0.198903 -0.00239772 -4.61457e-06)
(0.19926 -0.00225829 -9.88536e-06)
(0.19939 -0.00210769 -8.07493e-06)
(0.19947 -0.00198494 -4.3899e-06)
(0.199506 -0.0018962 -7.03591e-06)
(0.199802 -0.00181471 -8.00728e-06)
(0.200039 -0.00168544 -8.59275e-06)
(0.200917 -0.00157482 -3.43577e-05)
(0.19658 -0.0018904 -1.06127e-05)
(0.196502 -0.00173061 -9.17797e-06)
(0.19637 -0.00156341 -5.75288e-06)
(0.196241 -0.00146875 2.65405e-06)
(0.196037 -0.00148386 8.24481e-06)
(0.19606 -0.00156865 1.49413e-05)
(0.195973 -0.00160741 1.71603e-05)
(0.196532 -0.00152624 -8.16714e-06)
(0.189911 -0.00149057 -1.04272e-05)
(0.189876 -0.00123032 -1.14621e-05)
(0.189792 -0.000930001 -3.20588e-06)
(0.189728 -0.000734511 4.57866e-06)
(0.18963 -0.000753734 2.20035e-06)
(0.189905 -0.000956006 -2.53439e-06)
(0.190359 -0.00118206 -8.34821e-06)
(0.191641 -0.00128372 -3.64443e-05)
(0.18667 -0.00104254 -1.26915e-05)
(0.186626 -0.000792736 -1.4184e-05)
(0.186433 -0.000513444 -8.91105e-06)
(0.186103 -0.000371266 3.08572e-06)
(0.185613 -0.000591285 9.1465e-06)
(0.185437 -0.00122642 1.38019e-05)
(0.185364 -0.00191152 1.26313e-05)
(0.186246 -0.00209926 -1.22295e-05)
(0.177442 -0.000681828 -1.33985e-05)
(0.177534 -0.000242801 -6.88246e-06)
(0.177409 0.000372674 -9.69554e-07)
(0.177078 0.00079173 2.88307e-06)
(0.176685 0.000648622 8.37807e-06)
(0.176575 -3.11131e-05 5.79448e-06)
(0.176288 -0.000875513 -5.43896e-06)
(0.176863 -0.00122677 -4.06842e-05)
(0.173452 -0.000431847 -1.30865e-05)
(0.173729 1.78464e-05 -1.4475e-05)
(0.173583 0.000534099 -9.73554e-06)
(0.172887 0.000758018 -2.48936e-07)
(0.171954 0.000518056 4.87855e-06)
(0.171402 -7.74284e-05 6.41543e-06)
(0.17092 -0.000971516 -1.53943e-06)
(0.171203 -0.00177562 -2.17939e-05)
(0.156402 -0.000297925 -1.19836e-06)
(0.157073 0.000459925 8.92821e-06)
(0.157481 0.00182215 1.51601e-05)
(0.157293 0.0027651 1.3115e-05)
(0.156591 0.00256119 -3.10905e-06)
(0.156023 0.00153282 -2.04193e-05)
(0.155405 0.000266967 -4.01513e-05)
(0.155385 -0.000433812 -7.09824e-05)
(0.128609 5.512e-05 4.98659e-05)
(0.129127 0.000587374 0.000104809)
(0.131757 0.00151918 7.71807e-05)
(0.136645 0.00218663 2.7178e-06)
(0.141846 0.00209056 -4.98663e-05)
(0.145717 0.00143059 -5.41163e-05)
(0.147562 0.000498864 -3.87529e-05)
(0.148258 -1.21522e-05 -1.33608e-05)
(0.10619 -7.54939e-05 -9.35335e-06)
(0.105914 -0.00118827 -7.96422e-07)
(0.104948 -0.00217183 -9.8309e-06)
(0.104416 -0.0020825 -2.53072e-05)
(0.104807 -0.00126892 -3.44965e-05)
(0.105687 -0.000513988 -2.79526e-05)
(0.106194 -0.000173028 -3.51043e-05)
(0.106457 3.75176e-06 -5.24909e-06)
(0.253617 -0.0069856 -1.4858e-05)
(0.253146 -0.00705636 -1.03154e-05)
(0.252862 -0.00704157 -6.49385e-06)
(0.25273 -0.00694284 -8.66158e-06)
(0.252767 -0.00676776 -7.43159e-06)
(0.252804 -0.00658561 -7.5918e-06)
(0.252799 -0.00635083 -7.18538e-06)
(0.252646 -0.00629584 -1.92912e-05)
(0.252698 -0.00601501 -4.85108e-06)
(0.252415 -0.00616637 -3.9593e-06)
(0.252124 -0.00631974 -4.06346e-06)
(0.251884 -0.00642099 -4.17665e-06)
(0.251723 -0.00639771 -3.04042e-06)
(0.25168 -0.00628557 -1.56747e-06)
(0.251648 -0.00602306 -1.88357e-06)
(0.251803 -0.00587184 -1.97845e-05)
(0.250684 -0.00572605 -8.65314e-07)
(0.25072 -0.00578977 -1.89157e-06)
(0.250734 -0.00581672 -3.71945e-06)
(0.250729 -0.00580493 -2.7387e-06)
(0.250661 -0.00572888 -2.30378e-06)
(0.250629 -0.00564419 -1.40123e-06)
(0.250549 -0.00551413 1.60184e-06)
(0.250767 -0.00546663 -1.57628e-05)
(0.2493 -0.00526482 -5.82311e-06)
(0.249042 -0.00536244 -4.13296e-06)
(0.248846 -0.00541133 -5.46488e-06)
(0.248774 -0.00541671 -4.664e-06)
(0.248767 -0.00536621 -6.7915e-06)
(0.248914 -0.00529979 -6.67118e-06)
(0.248991 -0.00517971 -3.7594e-06)
(0.249355 -0.00509431 -2.4024e-05)
(0.24767 -0.00445541 -2.67016e-06)
(0.24769 -0.00454937 -9.4813e-07)
(0.247628 -0.0046663 -2.64266e-06)
(0.247563 -0.00478643 -2.03147e-06)
(0.247488 -0.00486061 -2.57646e-06)
(0.247512 -0.00487554 -2.51239e-06)
(0.247417 -0.00481571 -7.62292e-07)
(0.247649 -0.00473427 -2.34835e-05)
(0.245024 -0.00454103 -3.70851e-06)
(0.245306 -0.00457236 -3.38825e-06)
(0.245531 -0.00454543 -8.14127e-06)
(0.245651 -0.00450553 -1.06885e-05)
(0.245667 -0.00442728 -1.0014e-05)
(0.245743 -0.00430306 -6.79658e-06)
(0.245704 -0.00416969 -2.81085e-06)
(0.245988 -0.00413379 -2.14742e-05)
(0.243651 -0.00410779 -3.50831e-06)
(0.243574 -0.00412764 -4.19936e-07)
(0.243543 -0.0039955 -8.47574e-07)
(0.243517 -0.00385175 -3.93839e-07)
(0.243399 -0.00379162 -3.96368e-06)
(0.243416 -0.00381426 -3.72057e-06)
(0.243439 -0.00386029 -4.21987e-06)
(0.24388 -0.00394741 -2.79874e-05)
(0.240493 -0.00358179 -1.76743e-05)
(0.240365 -0.0035927 -1.48447e-05)
(0.240298 -0.00343156 -1.11798e-05)
(0.240435 -0.0032282 -3.32361e-06)
(0.240652 -0.00315024 -1.04542e-06)
(0.240998 -0.00324246 1.11818e-06)
(0.241208 -0.00337515 2.8127e-06)
(0.241719 -0.00349309 -1.84579e-05)
(0.237834 -0.00272187 1.12634e-06)
(0.237602 -0.0027446 3.06433e-06)
(0.237385 -0.00283014 4.33987e-06)
(0.237383 -0.00299461 3.03194e-06)
(0.237605 -0.00318723 -2.06385e-06)
(0.238104 -0.0033465 -6.63447e-06)
(0.238426 -0.00338627 -1.20131e-05)
(0.238968 -0.00332016 -4.06498e-05)
(0.233667 -0.00229835 -7.12679e-06)
(0.233976 -0.00225135 -1.04679e-07)
(0.234444 -0.00235037 2.45068e-06)
(0.234963 -0.00262361 1.77832e-06)
(0.23538 -0.0029211 -1.47368e-06)
(0.235816 -0.00303159 8.67224e-09)
(0.235934 -0.00286567 3.20022e-06)
(0.236214 -0.00258057 -1.987e-05)
(0.230149 -0.00201562 7.30827e-06)
(0.230277 -0.00241896 4.6434e-06)
(0.230687 -0.00275965 8.45521e-07)
(0.231281 -0.00296321 -4.57358e-06)
(0.231799 -0.00301194 -1.4206e-05)
(0.232314 -0.00286747 -1.78558e-05)
(0.232583 -0.00251737 -1.48813e-05)
(0.233127 -0.00216468 -3.95266e-05)
(0.227814 -0.00178798 -2.74073e-07)
(0.228399 -0.00217065 -5.71753e-06)
(0.228678 -0.00249594 -9.86806e-06)
(0.228829 -0.00265576 -7.50992e-06)
(0.228878 -0.00264313 -3.49134e-06)
(0.229039 -0.00247767 6.94792e-06)
(0.22907 -0.00215892 1.75705e-05)
(0.229576 -0.00187041 -5.45138e-06)
(0.223097 -0.00248634 -2.88135e-06)
(0.223584 -0.00238924 -1.30611e-05)
(0.223793 -0.00226347 -1.72707e-05)
(0.223899 -0.0021485 -1.67387e-05)
(0.223951 -0.00205686 -1.8176e-05)
(0.22421 -0.00197059 -1.4019e-05)
(0.224432 -0.0018322 -7.38648e-06)
(0.225242 -0.00169241 -3.84519e-05)
(0.220532 -0.00203174 -1.74997e-05)
(0.220484 -0.0018934 -1.70142e-05)
(0.220387 -0.00171897 -1.52715e-05)
(0.22028 -0.00159583 -6.77034e-06)
(0.220113 -0.00157508 2.46157e-06)
(0.22013 -0.00163936 1.6131e-05)
(0.220068 -0.0016886 2.63965e-05)
(0.220593 -0.00163457 -2.42714e-06)
(0.213593 -0.00162067 -2.03342e-05)
(0.213576 -0.00139173 -2.03929e-05)
(0.213506 -0.00109059 -1.38945e-05)
(0.213459 -0.00085319 -6.53679e-06)
(0.213374 -0.000806981 -5.13013e-06)
(0.213561 -0.000964108 -1.82398e-06)
(0.213921 -0.00119643 9.04753e-07)
(0.215101 -0.0013386 -3.54184e-05)
(0.209741 -0.00115462 -2.09138e-05)
(0.209729 -0.000928102 -2.34717e-05)
(0.209592 -0.000641803 -2.14725e-05)
(0.209322 -0.000435368 -9.44814e-06)
(0.20888 -0.000518025 2.112e-06)
(0.208652 -0.00103316 1.55375e-05)
(0.208536 -0.00176411 2.30734e-05)
(0.209337 -0.00215868 -6.69089e-06)
(0.199937 -0.000793703 -2.30686e-05)
(0.200073 -0.000422129 -1.72359e-05)
(0.200051 0.000169214 -9.76216e-06)
(0.199775 0.000680117 2.37837e-07)
(0.199364 0.000717679 6.6006e-06)
(0.1992 0.00016599 -1.86522e-07)
(0.198912 -0.000718407 -1.13397e-05)
(0.199345 -0.00125551 -4.87524e-05)
(0.19492 -0.00052867 -1.73276e-05)
(0.195276 -0.000131732 -2.33074e-05)
(0.195345 0.000406137 -2.61491e-05)
(0.194833 0.0007585 -1.71798e-05)
(0.193922 0.000673952 -6.56442e-06)
(0.193251 0.000179354 5.24836e-07)
(0.192692 -0.000678412 -2.11141e-06)
(0.192848 -0.00153915 -2.33971e-05)
(0.175545 -0.000378137 -9.66987e-06)
(0.176376 0.000193933 1.78273e-07)
(0.177087 0.00147702 7.56478e-06)
(0.177212 0.00262547 1.15074e-05)
(0.176677 0.00275302 -4.44938e-07)
(0.17609 0.00190689 -1.96616e-05)
(0.175432 0.000604201 -4.61799e-05)
(0.175346 -0.000299351 -8.85877e-05)
(0.143751 -3.09433e-06 4.37758e-05)
(0.144492 0.00043436 0.000123133)
(0.147458 0.00133426 0.000104461)
(0.152785 0.00213264 9.14495e-06)
(0.158603 0.00223379 -6.63246e-05)
(0.163147 0.00167894 -7.163e-05)
(0.165525 0.000733502 -4.49664e-05)
(0.166499 0.00010425 -9.04274e-06)
(0.118703 5.18869e-06 1.77891e-06)
(0.118506 -0.00103548 1.27021e-05)
(0.117607 -0.00213549 6.7461e-06)
(0.11701 -0.00223841 -2.28217e-06)
(0.117317 -0.00148586 -4.70596e-06)
(0.118184 -0.000658386 8.70464e-06)
(0.118723 -0.000232782 -5.83651e-06)
(0.118941 -2.16016e-05 3.24298e-05)
(0.273646 -0.00708237 -2.18094e-05)
(0.273161 -0.00718237 -1.62296e-05)
(0.272857 -0.0071996 -1.10295e-05)
(0.272712 -0.00713384 -1.19427e-05)
(0.272719 -0.00698951 -1.0488e-05)
(0.272738 -0.00683036 -1.00681e-05)
(0.272712 -0.00661883 -9.51793e-06)
(0.272533 -0.00657072 -2.36845e-05)
(0.272596 -0.00611353 -7.56087e-06)
(0.272299 -0.00627078 -6.9527e-06)
(0.271992 -0.00643869 -7.64102e-06)
(0.271741 -0.00656606 -8.36824e-06)
(0.271578 -0.00657801 -7.03118e-06)
(0.271533 -0.00649736 -4.81815e-06)
(0.271505 -0.00626194 -3.34141e-06)
(0.271639 -0.0061205 -2.38671e-05)
(0.270454 -0.00577086 -8.18494e-07)
(0.270486 -0.00586498 -2.22887e-06)
(0.270496 -0.00592906 -5.26812e-06)
(0.270483 -0.00595895 -5.14367e-06)
(0.270418 -0.00591964 -4.00718e-06)
(0.270379 -0.00585155 -2.49896e-06)
(0.27029 -0.00572316 9.31468e-07)
(0.270492 -0.00567326 -2.0158e-05)
(0.268957 -0.00532031 -8.8558e-06)
(0.268709 -0.00544035 -7.79706e-06)
(0.268522 -0.00550959 -9.16866e-06)
(0.268446 -0.00553483 -7.87587e-06)
(0.268434 -0.00550314 -9.06677e-06)
(0.268558 -0.00545091 -8.92538e-06)
(0.268626 -0.00534899 -5.23021e-06)
(0.268981 -0.00528619 -2.84363e-05)
(0.267144 -0.00452174 -1.18817e-06)
(0.267164 -0.00462402 -2.26384e-07)
(0.267118 -0.00474508 -2.90783e-06)
(0.267059 -0.00487587 -3.42212e-06)
(0.266997 -0.0049716 -4.97806e-06)
(0.26703 -0.00501177 -5.67532e-06)
(0.266957 -0.00497264 -3.58796e-06)
(0.267193 -0.00490608 -2.8817e-05)
(0.264346 -0.00454696 -2.39383e-06)
(0.264629 -0.00461946 -4.21354e-06)
(0.264895 -0.00462076 -1.10626e-05)
(0.265053 -0.00460485 -1.50717e-05)
(0.265089 -0.00455869 -1.46918e-05)
(0.265161 -0.00446194 -1.01086e-05)
(0.265119 -0.00433143 -4.05197e-06)
(0.265383 -0.00427723 -2.59322e-05)
(0.262851 -0.00414301 -3.73731e-06)
(0.262782 -0.00422832 -1.65133e-06)
(0.262781 -0.00413947 -3.75766e-06)
(0.262792 -0.00399436 -4.22787e-06)
(0.262711 -0.00390637 -6.76829e-06)
(0.262715 -0.00390252 -5.63087e-06)
(0.262716 -0.00393451 -5.7356e-06)
(0.263133 -0.00402161 -3.35452e-05)
(0.259613 -0.00361573 -2.80765e-05)
(0.259492 -0.00368385 -2.37063e-05)
(0.259407 -0.00356594 -1.68518e-05)
(0.259504 -0.00335694 -5.34231e-06)
(0.259709 -0.00323305 4.61323e-07)
(0.260048 -0.00328645 3.83462e-06)
(0.260274 -0.00342342 4.51163e-06)
(0.260804 -0.00358118 -2.22964e-05)
(0.25672 -0.00278764 -2.68144e-06)
(0.256519 -0.00281206 1.11577e-07)
(0.256302 -0.00286729 3.85151e-06)
(0.256268 -0.00299434 6.26152e-06)
(0.256468 -0.00317343 1.8736e-06)
(0.256965 -0.00335535 -6.19711e-06)
(0.257342 -0.00344735 -1.58055e-05)
(0.25794 -0.00344034 -5.05167e-05)
(0.252315 -0.0023441 -9.94507e-06)
(0.252568 -0.00228769 1.77781e-06)
(0.253008 -0.00234632 7.50424e-06)
(0.25354 -0.00258819 7.89151e-06)
(0.254006 -0.00291057 2.42524e-06)
(0.254496 -0.00310529 -4.11206e-07)
(0.254702 -0.00302706 7.15237e-08)
(0.255059 -0.00277284 -2.64138e-05)
(0.248555 -0.00193553 1.12872e-05)
(0.248664 -0.00231086 1.15536e-05)
(0.249068 -0.00267974 6.56774e-06)
(0.24969 -0.00294213 -3.36387e-06)
(0.250273 -0.00306393 -1.8101e-05)
(0.250838 -0.00299878 -2.49584e-05)
(0.251159 -0.00270061 -2.08334e-05)
(0.251728 -0.00232514 -4.79126e-05)
(0.245772 -0.00171366 8.32851e-06)
(0.246463 -0.00209516 -1.41843e-06)
(0.246846 -0.00247176 -1.03696e-05)
(0.247065 -0.00269937 -1.2053e-05)
(0.247172 -0.00274409 -9.6526e-06)
(0.247367 -0.00262142 3.12338e-06)
(0.247439 -0.00232134 2.02303e-05)
(0.247966 -0.00199954 -1.19928e-06)
(0.240938 -0.00248293 1.50173e-06)
(0.241549 -0.00243076 -1.35778e-05)
(0.24186 -0.00233788 -2.43094e-05)
(0.242001 -0.00224183 -2.87713e-05)
(0.242061 -0.00215686 -3.09469e-05)
(0.2423 -0.00207261 -2.27946e-05)
(0.242523 -0.00193311 -8.13588e-06)
(0.243324 -0.00177459 -3.95046e-05)
(0.238149 -0.00209651 -2.25574e-05)
(0.238142 -0.00198913 -2.36635e-05)
(0.238094 -0.00182094 -2.41492e-05)
(0.238016 -0.00168301 -1.70209e-05)
(0.237879 -0.00163488 -5.74817e-06)
(0.237909 -0.00167625 1.44226e-05)
(0.237879 -0.00172499 3.4248e-05)
(0.238423 -0.00169021 6.68146e-06)
(0.230989 -0.00168591 -3.07753e-05)
(0.231 -0.00149458 -3.00786e-05)
(0.230957 -0.00120852 -2.47357e-05)
(0.23092 -0.000951984 -1.83765e-05)
(0.230843 -0.000857112 -1.4576e-05)
(0.230986 -0.00096642 -4.25819e-06)
(0.231285 -0.00118624 8.24294e-06)
(0.23241 -0.00135312 -3.09471e-05)
(0.226535 -0.00121652 -2.89318e-05)
(0.226554 -0.00101942 -3.24468e-05)
(0.226475 -0.000742829 -3.33793e-05)
(0.226267 -0.000505414 -2.24871e-05)
(0.225883 -0.000489474 -6.84891e-06)
(0.225649 -0.000876736 1.51267e-05)
(0.225511 -0.00157544 3.30065e-05)
(0.226278 -0.002097 3.40285e-06)
(0.216229 -0.000857553 -3.35056e-05)
(0.216407 -0.000546415 -2.8817e-05)
(0.216461 -3.69969e-06 -2.07924e-05)
(0.216274 0.000538242 -4.06092e-06)
(0.215895 0.000706117 6.681e-06)
(0.215689 0.000297848 -2.02742e-06)
(0.215377 -0.000552087 -1.52044e-05)
(0.215743 -0.00120682 -5.56636e-05)
(0.210114 -0.000584596 -2.10052e-05)
(0.210521 -0.000240453 -3.21918e-05)
(0.21076 0.000283063 -4.37068e-05)
(0.210462 0.000709836 -3.51872e-05)
(0.209662 0.000754942 -1.66681e-05)
(0.208954 0.000371927 -1.72112e-06)
(0.208328 -0.000421159 9.72629e-07)
(0.208416 -0.00128735 -1.9769e-05)
(0.188847 -0.00041111 -1.93091e-05)
(0.189751 2.32709e-05 -1.61311e-05)
(0.190703 0.00117283 -1.04914e-05)
(0.191172 0.00238541 3.968e-06)
(0.190914 0.002755 4.82605e-06)
(0.190428 0.00212322 -9.44057e-06)
(0.189775 0.000880022 -4.06049e-05)