/*--------------------------------*- C++ -*----------------------------------*\
  =========                 |
  \\      /  F ield         | OpenFOAM: The Open Source CFD Toolbox
   \\    /   O peration     | Website:  https://openfoam.org
    \\  /    A nd           | Version:  6
     \\/     M anipulation  |
\*---------------------------------------------------------------------------*/
FoamFile
{
    version     2.0;
    format      ascii;
    class       volScalarField;
    location    "49";
    object      p;
}
// * * * * * * * * * * * * * * * * * * * * * * * * * * * * * * * * * * * * * //

dimensions      [0 2 -2 0 0 0 0];

internalField   nonuniform List<scalar> 
380496
(
0.0142072
0.0146812
0.0142814
0.0141808
0.0140695
0.0139552
0.0138469
0.0137384
0.0136304
0.0135233
0.0134175
0.0133129
0.0132098
0.0131082
0.013008
0.0129089
0.0128107
0.0127131
0.0126156
0.0125178
0.0124192
0.0123192
0.0122172
0.0121124
0.0120044
0.0118922
0.0117754
0.011653
0.0115249
0.0113897
0.0112489
0.0110985
0.0109484
0.0107798
0.0106408
0.014183
0.0146497
0.014262
0.0141656
0.0140576
0.013945
0.0138368
0.0137274
0.0136175
0.013508
0.0133989
0.0132906
0.0131832
0.0130768
0.0129712
0.0128662
0.0127617
0.0126572
0.0125524
0.0124468
0.01234
0.0122313
0.0121204
0.0120064
0.0118891
0.0117675
0.0116414
0.0115096
0.0113726
0.011228
0.0110787
0.0109169
0.0107578
0.0105649
0.0104155
0.0141554
0.0146172
0.0142407
0.0141492
0.0140442
0.0139328
0.0138242
0.0137131
0.0136006
0.0134877
0.0133746
0.0132617
0.0131491
0.0130369
0.012925
0.0128131
0.0127011
0.0125885
0.0124751
0.0123603
0.0122437
0.0121248
0.0120031
0.0118779
0.011749
0.0116155
0.0114774
0.0113334
0.0111844
0.0110279
0.0108679
0.0106953
0.0105296
0.0103284
0.0101823
0.0141198
0.0145818
0.0142192
0.0141341
0.0140332
0.0139237
0.0138152
0.0137029
0.0135884
0.0134726
0.0133561
0.0132393
0.0131223
0.0130053
0.012888
0.0127704
0.0126522
0.012533
0.0124125
0.0122902
0.0121658
0.0120388
0.0119088
0.0117752
0.0116377
0.0114956
0.0113489
0.0111966
0.0110395
0.010875
0.0107076
0.0105268
0.0103542
0.0101424
0.00999056
0.0140875
0.0145441
0.0141979
0.0141199
0.0140231
0.0139153
0.0138064
0.0136925
0.0135754
0.0134565
0.0133362
0.0132151
0.0130934
0.0129712
0.0128484
0.0127247
0.0126
0.0124739
0.0123462
0.0122162
0.0120839
0.0119485
0.0118099
0.0116675
0.0115211
0.01137
0.0112145
0.0110534
0.0108878
0.0107151
0.0105403
0.0103524
0.0101748
0.00995739
0.00980505
0.0140419
0.0145038
0.0141764
0.0141071
0.0140152
0.0139094
0.0138002
0.0136849
0.0135654
0.0134435
0.0133198
0.0131949
0.0130689
0.0129421
0.0128143
0.0126853
0.0125549
0.0124228
0.0122887
0.0121522
0.0120129
0.0118705
0.0117248
0.0115751
0.0114215
0.0112633
0.0111007
0.0109329
0.0107609
0.0105821
0.0104017
0.0102083
0.0100263
0.0098035
0.00964866
0.0139937
0.0144615
0.0141556
0.014096
0.0140095
0.0139054
0.0137957
0.0136785
0.0135565
0.0134314
0.013304
0.0131751
0.0130449
0.0129135
0.0127808
0.0126466
0.0125106
0.0123727
0.0122325
0.0120896
0.0119438
0.0117947
0.0116421
0.0114855
0.011325
0.0111601
0.010991
0.0108167
0.0106388
0.0104543
0.010269
0.010071
0.00988567
0.00965928
0.00950406
0.0139354
0.0144183
0.0141367
0.014088
0.014007
0.0139042
0.0137937
0.0136746
0.0135498
0.0134216
0.0132909
0.0131583
0.0130241
0.0128885
0.0127513
0.0126124
0.0124715
0.0123284
0.0121828
0.0120343
0.0118828
0.0117279
0.0115694
0.011407
0.0112408
0.0110702
0.0108957
0.0107164
0.0105338
0.0103449
0.0101558
0.00995423
0.00976649
0.00953704
0.00938151
0.0138657
0.0143752
0.0141195
0.014083
0.0140077
0.0139058
0.0137942
0.0136729
0.0135454
0.0134141
0.0132801
0.0131441
0.0130063
0.0128669
0.0127257
0.0125827
0.0124374
0.0122898
0.0121394
0.0119862
0.0118297
0.0116698
0.0115063
0.0113391
0.011168
0.0109927
0.0108137
0.0106302
0.0104437
0.0102513
0.0100592
0.00985487
0.0096655
0.00943373
0.00927865
0.0137958
0.0143401
0.0141081
0.0140828
0.0140118
0.0139099
0.0137966
0.013673
0.0135428
0.0134087
0.0132718
0.0131329
0.012992
0.0128495
0.012705
0.0125585
0.0124096
0.0122583
0.0121041
0.0119469
0.0117865
0.0116226
0.0114552
0.011284
0.0111091
0.0109302
0.0107478
0.0105611
0.0103717
0.0101767
0.00998259
0.00977621
0.00958587
0.00935222
0.00919794
0.013704
0.014305
0.0140973
0.0140851
0.0140187
0.0139162
0.013801
0.0136748
0.0135419
0.013405
0.0132654
0.0131236
0.01298
0.0128345
0.012687
0.0125374
0.0123854
0.0122308
0.0120733
0.0119127
0.0117488
0.0115815
0.0114106
0.0112361
0.0110579
0.010876
0.0106907
0.0105014
0.0103096
0.0101126
0.00991681
0.00970887
0.00951804
0.00928283
0.00912999
0.0136107
0.0142813
0.014093
0.0140926
0.0140289
0.0139244
0.0138068
0.0136778
0.013542
0.0134026
0.0132603
0.0131161
0.0129699
0.012822
0.0126719
0.0125197
0.0123649
0.0122075
0.0120471
0.0118836
0.0117168
0.0115466
0.0113729
0.0111956
0.0110148
0.0108304
0.0106427
0.0104514
0.0102578
0.0100592
0.00986229
0.00965319
0.00946223
0.00922563
0.00907463
0.0134866
0.0142619
0.0140902
0.0141036
0.0140421
0.0139349
0.0138143
0.0136823
0.0135437
0.0134016
0.0132569
0.0131103
0.0129619
0.0128116
0.0126593
0.0125047
0.0123476
0.0121878
0.012025
0.0118591
0.0116898
0.0115172
0.011341
0.0111614
0.0109784
0.010792
0.0106024
0.0104094
0.0102144
0.0100146
0.00981695
0.00960708
0.00941634
0.00917872
0.00903013
0.0133568
0.0142586
0.0140938
0.0141192
0.0140574
0.0139462
0.0138222
0.013687
0.0135457
0.0134011
0.0132543
0.0131057
0.0129553
0.0128031
0.0126489
0.0124923
0.0123333
0.0121714
0.0120066
0.0118386
0.0116673
0.0114927
0.0113146
0.0111332
0.0109484
0.0107603
0.0105693
0.010375
0.0101789
0.00997832
0.00978009
0.00956972
0.00937923
0.00914076
0.00899441
0.0131945
0.0142676
0.014101
0.0141398
0.0140761
0.0139598
0.0138319
0.0136932
0.013549
0.013402
0.0132532
0.0131027
0.0129505
0.0127967
0.0126408
0.0124826
0.0123219
0.0121584
0.0119919
0.0118222
0.0116493
0.011473
0.0112933
0.0111104
0.0109242
0.0107348
0.0105427
0.0103474
0.0101506
0.00994944
0.00975093
0.00954052
0.00935049
0.00911227
0.00896836
0.0130137
0.0142964
0.0141126
0.0141624
0.0140943
0.0139722
0.0138404
0.0136985
0.0135518
0.0134028
0.0132522
0.0131002
0.0129467
0.0127915
0.0126343
0.0124748
0.0123128
0.0121479
0.0119801
0.0118091
0.0116349
0.0114573
0.0112765
0.0110923
0.010905
0.0107147
0.0105217
0.0103257
0.0101284
0.00992691
0.00972817
0.00951791
0.00932763
0.00908972
0.00894534
0.0128103
0.0143454
0.0141308
0.0141922
0.0141168
0.0139875
0.013851
0.0137055
0.0135562
0.0134053
0.0132531
0.0130997
0.0129449
0.0127886
0.0126303
0.0124697
0.0123066
0.0121407
0.0119719
0.0117999
0.0116246
0.0114461
0.0112643
0.0110793
0.0108912
0.0107001
0.0105065
0.0103101
0.0101124
0.00991087
0.00971217
0.00950268
0.00931271
0.00907793
0.00893368
0.0125706
0.0144172
0.0141483
0.0142181
0.0141343
0.0139989
0.0138589
0.0137107
0.0135595
0.0134071
0.0132538
0.0130993
0.0129437
0.0127865
0.0126275
0.0124661
0.0123023
0.0121356
0.011966
0.0117933
0.0116173
0.0114381
0.0112557
0.0110699
0.0108814
0.0106897
0.0104958
0.010299
0.0101011
0.00989962
0.00970081
0.00949204
0.00930037
0.00906753
0.00891296
0.0123265
0.0145051
0.0141765
0.0142547
0.0141589
0.0140158
0.013871
0.0137195
0.013566
0.013412
0.0132574
0.013102
0.0129455
0.0127875
0.0126278
0.0124658
0.0123014
0.0121341
0.011964
0.0117906
0.0116143
0.0114344
0.0112516
0.0110655
0.0108766
0.0106846
0.0104905
0.0102934
0.0100957
0.00989426
0.00969585
0.00948846
0.00929804
0.0090724
0.0089196
0.0120606
0.0146083
0.0141997
0.0142835
0.0141767
0.014028
0.01388
0.0137263
0.0135713
0.0134162
0.0132607
0.0131046
0.0129475
0.012789
0.0126288
0.0124664
0.0123016
0.0121339
0.0119635
0.0117898
0.0116131
0.011433
0.01125
0.0110635
0.0108745
0.0106822
0.0104881
0.0102909
0.0100932
0.00989195
0.00969351
0.00948713
0.00929363
0.00907135
0.00888657
0.0118097
0.0147162
0.0142458
0.0143275
0.0142058
0.0140486
0.0138952
0.0137378
0.0135803
0.0134235
0.0132667
0.0131096
0.0129519
0.0127928
0.0126322
0.0124694
0.0123043
0.0121364
0.0119658
0.011792
0.0116152
0.011435
0.0112519
0.0110654
0.0108764
0.0106841
0.01049
0.0102929
0.0100954
0.00989421
0.00969643
0.00949091
0.00930257
0.00908753
0.00894985
0.0142104
0.014674
0.0142814
0.0141811
0.0140696
0.0139552
0.0138469
0.0137384
0.0136304
0.0135233
0.0134174
0.0133129
0.0132098
0.0131082
0.013008
0.0129089
0.0128107
0.0127131
0.0126156
0.0125178
0.0124192
0.0123192
0.0122172
0.0121124
0.0120044
0.0118922
0.0117754
0.011653
0.011525
0.0113897
0.011249
0.0110986
0.0109485
0.0107799
0.0106409
0.0141859
0.0146427
0.014262
0.014166
0.0140577
0.013945
0.0138368
0.0137274
0.0136175
0.013508
0.0133989
0.0132906
0.0131833
0.0130768
0.0129712
0.0128663
0.0127617
0.0126572
0.0125524
0.0124468
0.01234
0.0122313
0.0121204
0.0120065
0.0118892
0.0117675
0.0116415
0.0115097
0.0113727
0.0112281
0.0110788
0.010917
0.0107579
0.010565
0.0104155
0.0141582
0.0146103
0.0142408
0.0141496
0.0140443
0.0139328
0.0138242
0.0137131
0.0136006
0.0134877
0.0133746
0.0132617
0.0131491
0.0130369
0.012925
0.0128131
0.0127011
0.0125886
0.0124751
0.0123603
0.0122437
0.0121248
0.0120031
0.011878
0.0117491
0.0116155
0.0114774
0.0113334
0.0111844
0.0110279
0.0108679
0.0106954
0.0105296
0.0103285
0.0101823
0.0141227
0.0145751
0.0142192
0.0141345
0.0140333
0.0139238
0.0138152
0.0137029
0.0135884
0.0134726
0.0133561
0.0132393
0.0131223
0.0130053
0.012888
0.0127704
0.0126522
0.012533
0.0124125
0.0122902
0.0121659
0.0120388
0.0119089
0.0117752
0.0116377
0.0114956
0.011349
0.0111967
0.0110396
0.0108751
0.0107077
0.0105269
0.0103544
0.0101426
0.00999066
0.01409
0.0145376
0.0141979
0.0141202
0.0140232
0.0139153
0.0138064
0.0136925
0.0135754
0.0134565
0.0133362
0.0132151
0.0130934
0.0129712
0.0128484
0.0127247
0.0126001
0.012474
0.0123462
0.0122163
0.0120839
0.0119485
0.0118099
0.0116675
0.0115211
0.0113701
0.0112145
0.0110534
0.0108879
0.0107152
0.0105404
0.0103525
0.0101749
0.00995751
0.00980514
0.0140444
0.0144974
0.0141765
0.0141074
0.0140153
0.0139094
0.0138002
0.0136849
0.0135654
0.0134435
0.0133198
0.0131949
0.0130689
0.0129421
0.0128143
0.0126853
0.0125549
0.0124228
0.0122887
0.0121522
0.012013
0.0118706
0.0117248
0.0115752
0.0114215
0.0112633
0.0111008
0.010933
0.010761
0.0105822
0.0104018
0.0102084
0.0100264
0.00980364
0.00964876
0.013996
0.0144552
0.0141557
0.0140963
0.0140096
0.0139054
0.0137957
0.0136785
0.0135565
0.0134314
0.013304
0.0131751
0.0130449
0.0129135
0.0127808
0.0126466
0.0125107
0.0123727
0.0122325
0.0120896
0.0119438
0.0117947
0.0116421
0.0114856
0.0113251
0.0111602
0.010991
0.0108168
0.0106389
0.0104544
0.0102691
0.0100711
0.00988579
0.00965942
0.00950415
0.0139375
0.0144122
0.0141368
0.0140883
0.0140071
0.0139042
0.0137937
0.0136746
0.0135498
0.0134216
0.0132909
0.0131583
0.0130241
0.0128885
0.0127513
0.0126124
0.0124715
0.0123284
0.0121828
0.0120343
0.0118828
0.0117279
0.0115694
0.0114071
0.0112409
0.0110703
0.0108958
0.0107165
0.0105339
0.010345
0.0101559
0.00995435
0.00976662
0.00953718
0.00938161
0.0138678
0.0143693
0.0141196
0.0140833
0.0140077
0.0139059
0.0137942
0.0136729
0.0135454
0.0134141
0.0132801
0.0131441
0.0130063
0.0128669
0.0127258
0.0125827
0.0124374
0.0122898
0.0121395
0.0119862
0.0118297
0.0116699
0.0115064
0.0113391
0.011168
0.0109928
0.0108138
0.0106303
0.0104438
0.0102514
0.0100594
0.00985499
0.00966562
0.00943387
0.00927874
0.0137977
0.0143344
0.0141081
0.014083
0.0140119
0.0139099
0.0137966
0.013673
0.0135428
0.0134087
0.0132718
0.0131329
0.012992
0.0128495
0.012705
0.0125585
0.0124097
0.0122583
0.0121041
0.011947
0.0117865
0.0116227
0.0114552
0.011284
0.0111091
0.0109303
0.0107479
0.0105612
0.0103718
0.0101769
0.0099827
0.00977634
0.009586
0.00935237
0.00919803
0.0137059
0.0142996
0.0140974
0.0140853
0.0140187
0.0139162
0.013801
0.0136748
0.0135419
0.013405
0.0132654
0.0131236
0.01298
0.0128345
0.012687
0.0125375
0.0123854
0.0122308
0.0120733
0.0119127
0.0117488
0.0115815
0.0114106
0.0112361
0.011058
0.0108761
0.0106907
0.0105015
0.0103097
0.0101127
0.00991693
0.009709
0.00951816
0.00928298
0.00913007
0.0136122
0.0142761
0.014093
0.0140928
0.0140289
0.0139244
0.0138068
0.0136777
0.013542
0.0134025
0.0132603
0.0131161
0.0129699
0.012822
0.0126719
0.0125197
0.0123649
0.0122075
0.0120471
0.0118837
0.0117169
0.0115467
0.0113729
0.0111957
0.0110148
0.0108305
0.0106428
0.0104515
0.0102579
0.0100593
0.0098624
0.00965332
0.00946236
0.00922578
0.0090747
0.0134881
0.0142569
0.0140902
0.0141038
0.0140421
0.0139349
0.0138143
0.0136822
0.0135437
0.0134015
0.0132569
0.0131103
0.0129619
0.0128116
0.0126593
0.0125047
0.0123476
0.0121878
0.012025
0.0118591
0.0116898
0.0115172
0.0113411
0.0111615
0.0109785
0.010792
0.0106025
0.0104095
0.0102145
0.0100148
0.00981707
0.0096072
0.00941646
0.00917888
0.0090302
0.013358
0.0142539
0.0140938
0.0141194
0.0140574
0.0139461
0.0138222
0.013687
0.0135456
0.0134011
0.0132543
0.0131057
0.0129553
0.0128031
0.0126489
0.0124924
0.0123333
0.0121715
0.0120066
0.0118387
0.0116674
0.0114928
0.0113147
0.0111332
0.0109484
0.0107604
0.0105694
0.0103751
0.010179
0.00997844
0.00978021
0.00956986
0.00937936
0.00914093
0.00899447
0.0131956
0.0142632
0.014101
0.0141399
0.0140761
0.0139598
0.0138319
0.0136931
0.0135489
0.013402
0.0132531
0.0131026
0.0129505
0.0127967
0.0126408
0.0124826
0.0123219
0.0121584
0.0119919
0.0118223
0.0116493
0.0114731
0.0112934
0.0111105
0.0109243
0.0107349
0.0105428
0.0103475
0.0101507
0.00994957
0.00975106
0.00954067
0.00935063
0.00911245
0.00896843
0.0130146
0.0142924
0.0141126
0.0141625
0.0140942
0.0139721
0.0138403
0.0136984
0.0135517
0.0134028
0.0132522
0.0131002
0.0129467
0.0127915
0.0126343
0.0124748
0.0123128
0.012148
0.0119801
0.0118092
0.011635
0.0114574
0.0112765
0.0110924
0.0109051
0.0107148
0.0105218
0.0103259
0.0101285
0.00992706
0.00972833
0.00951807
0.00932779
0.00908992
0.00894542
0.012811
0.0143417
0.0141307
0.0141922
0.0141167
0.0139874
0.0138509
0.0137054
0.0135561
0.0134052
0.0132531
0.0130997
0.012945
0.0127886
0.0126303
0.0124697
0.0123067
0.0121408
0.011972
0.0118
0.0116247
0.0114462
0.0112644
0.0110794
0.0108913
0.0107002
0.0105067
0.0103102
0.0101126
0.00991104
0.00971236
0.00950287
0.0093129
0.00907817
0.00893381
0.0125713
0.0144138
0.0141481
0.0142181
0.0141342
0.0139988
0.0138588
0.0137107
0.0135595
0.0134072
0.0132538
0.0130994
0.0129438
0.0127866
0.0126276
0.0124662
0.0123024
0.0121357
0.0119662
0.0117934
0.0116175
0.0114382
0.0112558
0.0110701
0.0108815
0.0106899
0.0104959
0.0102991
0.0101013
0.00989981
0.00970101
0.00949224
0.00930057
0.00906777
0.00891309
0.0123255
0.0145025
0.0141762
0.0142547
0.014159
0.0140159
0.0138711
0.0137196
0.0135662
0.0134122
0.0132576
0.0131021
0.0129457
0.0127877
0.0126279
0.0124659
0.0123015
0.0121342
0.0119641
0.0117908
0.0116144
0.0114346
0.0112518
0.0110656
0.0108767
0.0106847
0.0104906
0.0102936
0.0100958
0.00989443
0.00969603
0.00948864
0.00929824
0.00907261
0.0089198
0.0120578
0.0146074
0.0141999
0.0142839
0.014177
0.0140283
0.0138802
0.0137264
0.0135714
0.0134163
0.0132608
0.0131047
0.0129476
0.0127891
0.0126289
0.0124664
0.0123016
0.012134
0.0119635
0.0117898
0.0116132
0.011433
0.01125
0.0110636
0.0108745
0.0106823
0.0104882
0.010291
0.0100933
0.009892
0.00969357
0.00948718
0.0092937
0.00907137
0.00888663
0.011824
0.0147195
0.0142454
0.0143264
0.0142045
0.0140475
0.0138942
0.0137369
0.0135796
0.0134228
0.0132661
0.0131091
0.0129514
0.0127923
0.0126317
0.012469
0.0123039
0.012136
0.0119655
0.0117916
0.0116148
0.0114346
0.0112515
0.011065
0.010876
0.0106837
0.0104897
0.0102925
0.010095
0.00989382
0.00969603
0.0094905
0.00930216
0.00908709
0.00894921
0.0142188
0.0146687
0.0142813
0.0141812
0.0140697
0.0139553
0.0138469
0.0137384
0.0136304
0.0135233
0.0134174
0.0133129
0.0132098
0.0131082
0.013008
0.0129089
0.0128107
0.0127131
0.0126156
0.0125178
0.0124192
0.0123192
0.0122172
0.0121124
0.0120044
0.0118922
0.0117754
0.011653
0.011525
0.0113897
0.011249
0.0110986
0.0109485
0.01078
0.010641
0.0141941
0.0146374
0.0142619
0.0141661
0.0140577
0.013945
0.0138368
0.0137274
0.0136175
0.013508
0.0133989
0.0132906
0.0131833
0.0130768
0.0129712
0.0128663
0.0127617
0.0126572
0.0125524
0.0124468
0.01234
0.0122314
0.0121204
0.0120065
0.0118892
0.0117676
0.0116415
0.0115098
0.0113727
0.0112281
0.0110789
0.0109171
0.010758
0.010565
0.0104156
0.0141663
0.0146051
0.0142406
0.0141496
0.0140443
0.0139329
0.0138242
0.0137131
0.0136006
0.0134877
0.0133746
0.0132617
0.0131491
0.0130369
0.012925
0.0128131
0.0127011
0.0125885
0.0124751
0.0123603
0.0122437
0.0121248
0.0120031
0.011878
0.0117491
0.0116155
0.0114774
0.0113335
0.0111844
0.0110279
0.010868
0.0106954
0.0105297
0.0103285
0.0101824
0.0141307
0.0145699
0.0142191
0.0141346
0.0140333
0.0139238
0.0138152
0.0137029
0.0135884
0.0134726
0.0133561
0.0132393
0.0131223
0.0130053
0.012888
0.0127704
0.0126522
0.012533
0.0124125
0.0122902
0.0121659
0.0120389
0.0119089
0.0117752
0.0116378
0.0114957
0.011349
0.0111967
0.0110396
0.0108751
0.0107077
0.010527
0.0103544
0.0101426
0.00999076
0.0140978
0.0145325
0.0141978
0.0141203
0.0140232
0.0139153
0.0138064
0.0136925
0.0135754
0.0134565
0.0133362
0.0132151
0.0130934
0.0129712
0.0128484
0.0127248
0.0126001
0.012474
0.0123462
0.0122163
0.0120839
0.0119485
0.0118099
0.0116675
0.0115211
0.0113701
0.0112145
0.0110535
0.0108879
0.0107152
0.0105404
0.0103526
0.0101749
0.00995754
0.00980523
0.0140521
0.0144925
0.0141764
0.0141075
0.0140154
0.0139094
0.0138002
0.0136849
0.0135654
0.0134435
0.0133198
0.0131949
0.0130689
0.0129421
0.0128143
0.0126853
0.0125549
0.0124228
0.0122887
0.0121522
0.012013
0.0118706
0.0117248
0.0115752
0.0114216
0.0112634
0.0111008
0.010933
0.010761
0.0105822
0.0104019
0.0102085
0.0100265
0.0098037
0.00964886
0.0140036
0.0144504
0.0141556
0.0140964
0.0140096
0.0139054
0.0137957
0.0136785
0.0135565
0.0134313
0.013304
0.0131751
0.0130449
0.0129135
0.0127808
0.0126466
0.0125107
0.0123727
0.0122325
0.0120896
0.0119438
0.0117947
0.0116421
0.0114856
0.0113251
0.0111602
0.0109911
0.0108169
0.0106389
0.0104545
0.0102691
0.0100711
0.00988585
0.00965946
0.00950425
0.0139449
0.0144075
0.0141367
0.0140884
0.0140071
0.0139043
0.0137937
0.0136746
0.0135498
0.0134216
0.0132909
0.0131583
0.0130241
0.0128885
0.0127513
0.0126124
0.0124716
0.0123284
0.0121828
0.0120344
0.0118828
0.0117279
0.0115695
0.0114071
0.0112409
0.0110704
0.0108959
0.0107166
0.0105339
0.0103451
0.010156
0.00995441
0.00976669
0.00953724
0.00938172
0.0138749
0.0143647
0.0141195
0.0140834
0.0140078
0.0139059
0.0137942
0.0136729
0.0135454
0.0134141
0.0132801
0.0131441
0.0130063
0.0128669
0.0127258
0.0125827
0.0124374
0.0122898
0.0121395
0.0119862
0.0118298
0.0116699
0.0115064
0.0113391
0.011168
0.0109928
0.0108138
0.0106304
0.0104438
0.0102515
0.0100594
0.00985504
0.00966569
0.00943393
0.00927885
0.0138046
0.01433
0.014108
0.0140831
0.0140119
0.0139099
0.0137966
0.0136729
0.0135428
0.0134087
0.0132718
0.0131329
0.012992
0.0128495
0.012705
0.0125585
0.0124097
0.0122583
0.0121041
0.011947
0.0117865
0.0116227
0.0114552
0.0112841
0.0111092
0.0109303
0.0107479
0.0105612
0.0103718
0.0101769
0.00998276
0.00977639
0.00958607
0.00935243
0.00919814
0.0137127
0.0142953
0.0140973
0.0140854
0.0140188
0.0139162
0.013801
0.0136748
0.0135419
0.013405
0.0132654
0.0131236
0.01298
0.0128345
0.012687
0.0125375
0.0123854
0.0122308
0.0120733
0.0119127
0.0117488
0.0115815
0.0114107
0.0112361
0.011058
0.0108761
0.0106908
0.0105015
0.0103097
0.0101127
0.00991698
0.00970905
0.00951823
0.00928304
0.00913018
0.0136187
0.014272
0.0140929
0.0140929
0.014029
0.0139244
0.0138067
0.0136777
0.013542
0.0134025
0.0132603
0.0131161
0.0129699
0.0128219
0.0126719
0.0125197
0.0123649
0.0122075
0.0120471
0.0118837
0.0117169
0.0115467
0.0113729
0.0111957
0.0110149
0.0108305
0.0106429
0.0104515
0.0102579
0.0100594
0.00986246
0.00965338
0.00946242
0.00922584
0.00907482
0.0134945
0.014253
0.0140902
0.0141038
0.0140421
0.0139349
0.0138143
0.0136822
0.0135436
0.0134015
0.0132569
0.0131103
0.0129619
0.0128116
0.0126593
0.0125047
0.0123476
0.0121878
0.012025
0.0118591
0.0116898
0.0115172
0.0113411
0.0111615
0.0109785
0.0107921
0.0106026
0.0104095
0.0102146
0.0100148
0.00981712
0.00960726
0.00941653
0.00917894
0.00903032
0.013364
0.0142502
0.0140937
0.0141194
0.0140574
0.0139461
0.0138222
0.0136869
0.0135456
0.0134011
0.0132543
0.0131056
0.0129553
0.0128031
0.0126488
0.0124923
0.0123333
0.0121714
0.0120066
0.0118387
0.0116674
0.0114928
0.0113147
0.0111333
0.0109485
0.0107604
0.0105694
0.0103751
0.0101791
0.00997849
0.00978027
0.00956992
0.00937943
0.009141
0.0089946
0.0132015
0.0142597
0.0141009
0.0141399
0.0140761
0.0139597
0.0138318
0.013693
0.0135488
0.0134019
0.0132531
0.0131026
0.0129505
0.0127966
0.0126407
0.0124826
0.0123219
0.0121584
0.0119919
0.0118223
0.0116493
0.0114731
0.0112934
0.0111105
0.0109243
0.010735
0.0105428
0.0103476
0.0101508
0.00994964
0.00975114
0.00954075
0.00935072
0.00911254
0.00896858
0.0130201
0.0142891
0.0141125
0.0141624
0.0140941
0.013972
0.0138402
0.0136983
0.0135516
0.0134027
0.0132522
0.0131002
0.0129467
0.0127915
0.0126343
0.0124748
0.0123128
0.012148
0.0119802
0.0118092
0.011635
0.0114575
0.0112766
0.0110925
0.0109052
0.0107149
0.0105219
0.0103259
0.0101286
0.00992715
0.00972842
0.00951817
0.0093279
0.00909003
0.00894558
0.0128161
0.0143388
0.0141305
0.0141921
0.0141166
0.0139872
0.0138508
0.0137053
0.0135561
0.0134052
0.0132531
0.0130997
0.012945
0.0127886
0.0126303
0.0124698
0.0123067
0.0121409
0.011972
0.0118
0.0116248
0.0114463
0.0112645
0.0110795
0.0108914
0.0107003
0.0105068
0.0103103
0.0101127
0.00991116
0.00971248
0.009503
0.00931304
0.00907831
0.00893402
0.012576
0.0144112
0.0141478
0.014218
0.0141341
0.0139987
0.0138588
0.0137107
0.0135595
0.0134072
0.0132539
0.0130995
0.0129439
0.0127867
0.0126277
0.0124663
0.0123025
0.0121358
0.0119663
0.0117935
0.0116176
0.0114383
0.0112559
0.0110702
0.0108816
0.01069
0.0104961
0.0102993
0.0101015
0.00989994
0.00970115
0.00949238
0.00930072
0.00906791
0.00891326
0.0123291
0.0145007
0.014176
0.0142546
0.014159
0.014016
0.0138713
0.0137198
0.0135663
0.0134123
0.0132577
0.0131023
0.0129458
0.0127878
0.0126281
0.012466
0.0123016
0.0121343
0.0119642
0.0117909
0.0116145
0.0114347
0.0112519
0.0110657
0.0108768
0.0106848
0.0104907
0.0102937
0.0100959
0.00989455
0.00969615
0.00948875
0.00929838
0.00907274
0.00892001
0.0120599
0.0146075
0.0142002
0.0142844
0.0141774
0.0140286
0.0138804
0.0137266
0.0135716
0.0134164
0.0132609
0.0131047
0.0129477
0.0127891
0.0126289
0.0124664
0.0123016
0.012134
0.0119635
0.0117898
0.0116132
0.011433
0.01125
0.0110636
0.0108745
0.0106823
0.0104881
0.010291
0.0100933
0.00989199
0.00969357
0.00948716
0.0092937
0.0090713
0.00888651
0.0118323
0.0147216
0.0142454
0.0143259
0.0142039
0.0140469
0.0138937
0.0137365
0.0135792
0.0134225
0.0132658
0.0131088
0.0129511
0.0127921
0.0126315
0.0124688
0.0123037
0.0121359
0.0119653
0.0117914
0.0116146
0.0114344
0.0112514
0.0110648
0.0108758
0.0106836
0.0104895
0.0102923
0.0100948
0.00989364
0.00969584
0.00949032
0.00930196
0.00908691
0.00894893
0.0142239
0.0146635
0.014281
0.0141811
0.0140697
0.0139553
0.013847
0.0137384
0.0136304
0.0135233
0.0134174
0.0133129
0.0132098
0.0131082
0.0130079
0.0129089
0.0128107
0.0127131
0.0126156
0.0125178
0.0124192
0.0123192
0.0122172
0.0121124
0.0120044
0.0118922
0.0117754
0.011653
0.0115249
0.0113897
0.0112489
0.0110986
0.0109485
0.01078
0.0106411
0.0141991
0.0146323
0.0142616
0.014166
0.0140578
0.0139451
0.0138369
0.0137274
0.0136175
0.013508
0.0133989
0.0132906
0.0131833
0.0130768
0.0129712
0.0128663
0.0127617
0.0126572
0.0125524
0.0124468
0.01234
0.0122314
0.0121205
0.0120065
0.0118892
0.0117676
0.0116415
0.0115098
0.0113727
0.0112282
0.0110789
0.0109171
0.010758
0.0105651
0.0104157
0.0141712
0.0146001
0.0142403
0.0141495
0.0140443
0.0139329
0.0138242
0.0137131
0.0136006
0.0134877
0.0133746
0.0132617
0.0131491
0.0130369
0.012925
0.0128131
0.0127011
0.0125885
0.0124751
0.0123603
0.0122437
0.0121248
0.0120031
0.0118779
0.011749
0.0116155
0.0114774
0.0113334
0.0111844
0.0110279
0.0108679
0.0106954
0.0105296
0.0103285
0.0101825
0.0141356
0.0145649
0.0142188
0.0141345
0.0140334
0.0139238
0.0138152
0.0137029
0.0135884
0.0134726
0.0133561
0.0132393
0.0131223
0.0130053
0.012888
0.0127704
0.0126522
0.012533
0.0124125
0.0122903
0.0121659
0.0120389
0.0119089
0.0117753
0.0116378
0.0114957
0.011349
0.0111967
0.0110397
0.0108752
0.0107077
0.010527
0.0103544
0.0101426
0.00999085
0.0141026
0.0145277
0.0141975
0.0141202
0.0140232
0.0139154
0.0138064
0.0136925
0.0135754
0.0134564
0.0133362
0.0132151
0.0130934
0.0129712
0.0128484
0.0127247
0.0126
0.012474
0.0123462
0.0122163
0.0120839
0.0119485
0.0118099
0.0116675
0.0115211
0.0113701
0.0112145
0.0110535
0.0108879
0.0107152
0.0105404
0.0103526
0.0101749
0.00995757
0.00980531
0.0140569
0.0144876
0.0141761
0.0141074
0.0140154
0.0139094
0.0138003
0.0136849
0.0135654
0.0134435
0.0133198
0.0131948
0.0130689
0.0129421
0.0128143
0.0126853
0.0125549
0.0124228
0.0122887
0.0121522
0.012013
0.0118706
0.0117248
0.0115752
0.0114216
0.0112634
0.0111009
0.010933
0.0107611
0.0105823
0.0104019
0.0102085
0.0100265
0.00980374
0.00964897
0.0140082
0.0144457
0.0141553
0.0140963
0.0140096
0.0139054
0.0137957
0.0136785
0.0135565
0.0134313
0.013304
0.0131751
0.0130449
0.0129135
0.0127808
0.0126466
0.0125107
0.0123727
0.0122325
0.0120896
0.0119438
0.0117947
0.0116421
0.0114856
0.0113251
0.0111602
0.0109911
0.0108169
0.0106389
0.0104545
0.0102692
0.0100712
0.00988585
0.0096595
0.00950436
0.0139494
0.0144029
0.0141365
0.0140883
0.0140071
0.0139043
0.0137937
0.0136746
0.0135498
0.0134216
0.0132908
0.0131583
0.0130241
0.0128885
0.0127513
0.0126124
0.0124715
0.0123284
0.0121828
0.0120344
0.0118828
0.0117279
0.0115695
0.0114071
0.0112409
0.0110704
0.0108959
0.0107166
0.0105339
0.0103451
0.010156
0.00995444
0.0097667
0.00953729
0.00938185
0.0138794
0.0143602
0.0141193
0.0140833
0.0140078
0.0139059
0.0137942
0.0136729
0.0135453
0.0134141
0.01328
0.013144
0.0130063
0.0128669
0.0127257
0.0125827
0.0124374
0.0122898
0.0121395
0.0119862
0.0118297
0.0116699
0.0115064
0.0113391
0.011168
0.0109928
0.0108138
0.0106304
0.0104438
0.0102515
0.0100594
0.00985507
0.0096657
0.00943397
0.00927898
0.0138089
0.0143257
0.0141078
0.014083
0.0140119
0.0139099
0.0137966
0.0136729
0.0135427
0.0134087
0.0132718
0.0131328
0.012992
0.0128495
0.012705
0.0125585
0.0124096
0.0122583
0.0121041
0.011947
0.0117865
0.0116227
0.0114552
0.0112841
0.0111092
0.0109303
0.0107479
0.0105613
0.0103718
0.0101769
0.00998277
0.00977642
0.00958608
0.00935247
0.00919828
0.0137169
0.014291
0.0140971
0.0140853
0.0140188
0.0139162
0.013801
0.0136748
0.0135418
0.013405
0.0132653
0.0131236
0.0129799
0.0128345
0.012687
0.0125374
0.0123854
0.0122308
0.0120733
0.0119127
0.0117488
0.0115815
0.0114106
0.0112361
0.011058
0.0108761
0.0106908
0.0105015
0.0103097
0.0101128
0.00991699
0.00970908
0.00951824
0.00928308
0.00913033
0.0136228
0.0142679
0.0140927
0.0140928
0.014029
0.0139244
0.0138067
0.0136777
0.013542
0.0134025
0.0132603
0.013116
0.0129699
0.0128219
0.0126719
0.0125196
0.0123649
0.0122075
0.0120471
0.0118836
0.0117168
0.0115467
0.0113729
0.0111957
0.0110149
0.0108305
0.0106429
0.0104515
0.0102579
0.0100594
0.00986247
0.0096534
0.00946243
0.00922589
0.00907497
0.0134984
0.014249
0.01409
0.0141037
0.0140421
0.0139349
0.0138143
0.0136822
0.0135436
0.0134015
0.0132568
0.0131102
0.0129618
0.0128116
0.0126593
0.0125047
0.0123476
0.0121878
0.012025
0.0118591
0.0116898
0.0115172
0.0113411
0.0111615
0.0109785
0.0107921
0.0106026
0.0104096
0.0102146
0.0100148
0.00981713
0.00960729
0.00941654
0.009179
0.00903048
0.0133678
0.0142464
0.0140936
0.0141193
0.0140574
0.013946
0.0138221
0.0136868
0.0135455
0.013401
0.0132542
0.0131056
0.0129552
0.012803
0.0126488
0.0124923
0.0123332
0.0121714
0.0120066
0.0118386
0.0116674
0.0114927
0.0113147
0.0111332
0.0109485
0.0107604
0.0105694
0.0103751
0.0101791
0.00997851
0.00978028
0.00956996
0.00937945
0.00914106
0.00899478
0.0132051
0.0142561
0.0141008
0.0141398
0.0140761
0.0139596
0.0138317
0.013693
0.0135488
0.0134019
0.013253
0.0131025
0.0129504
0.0127966
0.0126407
0.0124825
0.0123218
0.0121584
0.0119919
0.0118222
0.0116493
0.0114731
0.0112934
0.0111105
0.0109243
0.010735
0.0105428
0.0103476
0.0101508
0.00994967
0.00975116
0.0095408
0.00935075
0.00911262
0.00896878
0.0130236
0.0142859
0.0141123
0.0141623
0.0140941
0.0139719
0.0138401
0.0136982
0.0135515
0.0134026
0.0132521
0.0131001
0.0129466
0.0127914
0.0126342
0.0124748
0.0123128
0.012148
0.0119802
0.0118092
0.011635
0.0114575
0.0112766
0.0110925
0.0109052
0.0107149
0.0105219
0.010326
0.0101286
0.00992719
0.00972846
0.00951823
0.00932794
0.00909013
0.0089458
0.0128193
0.0143358
0.0141304
0.0141919
0.0141165
0.0139871
0.0138507
0.0137052
0.013556
0.0134051
0.013253
0.0130997
0.012945
0.0127886
0.0126303
0.0124698
0.0123067
0.0121409
0.0119721
0.0118
0.0116248
0.0114463
0.0112645
0.0110795
0.0108915
0.0107004
0.0105068
0.0103104
0.0101128
0.00991123
0.00971255
0.00950308
0.0093131
0.00907842
0.00893426
0.012579
0.0144086
0.0141477
0.0142178
0.014134
0.0139986
0.0138587
0.0137106
0.0135595
0.0134072
0.0132539
0.0130995
0.012944
0.0127868
0.0126277
0.0124664
0.0123026
0.0121359
0.0119663
0.0117936
0.0116177
0.0114384
0.011256
0.0110703
0.0108817
0.0106901
0.0104961
0.0102993
0.0101015
0.00990002
0.00970122
0.00949246
0.00930079
0.00906801
0.00891346
0.0123316
0.0144992
0.0141761
0.0142546
0.014159
0.014016
0.0138713
0.0137199
0.0135664
0.0134124
0.0132578
0.0131024
0.0129459
0.0127879
0.0126281
0.0124661
0.0123017
0.0121344
0.0119643
0.0117909
0.0116145
0.0114347
0.0112519
0.0110658
0.0108769
0.0106849
0.0104908
0.0102938
0.010096
0.00989459
0.0096962
0.00948879
0.00929842
0.0090728
0.00892015
0.0120618
0.014608
0.0142005
0.0142846
0.0141776
0.0140287
0.0138805
0.0137266
0.0135716
0.0134164
0.0132609
0.0131047
0.0129476
0.0127891
0.0126289
0.0124664
0.0123016
0.0121339
0.0119635
0.0117898
0.0116131
0.011433
0.01125
0.0110635
0.0108745
0.0106822
0.0104881
0.0102909
0.0100932
0.00989193
0.0096935
0.0094871
0.00929363
0.00907121
0.008886
0.0118309
0.0147229
0.014246
0.0143259
0.0142039
0.0140468
0.0138936
0.0137364
0.0135791
0.0134224
0.0132658
0.0131088
0.0129511
0.0127921
0.0126315
0.0124687
0.0123037
0.0121358
0.0119653
0.0117914
0.0116146
0.0114344
0.0112514
0.0110649
0.0108758
0.0106836