/*--------------------------------*- C++ -*----------------------------------*\
  =========                 |
  \\      /  F ield         | OpenFOAM: The Open Source CFD Toolbox
   \\    /   O peration     | Website:  https://openfoam.org
    \\  /    A nd           | Version:  6
     \\/     M anipulation  |
\*---------------------------------------------------------------------------*/
FoamFile
{
    version     2.0;
    format      ascii;
    class       volVectorField;
    location    "16";
    object      wallShearStress;
}
// * * * * * * * * * * * * * * * * * * * * * * * * * * * * * * * * * * * * * //

dimensions      [0 2 -2 0 0 0 0];

internalField   uniform (0 0 0);

boundaryField
{
    inlet
    {
        type            calculated;
        value           uniform (0 0 0);
    }
    outlet
    {
        type            calculated;
        value           uniform (0 0 0);
    }
    roughCylinder
    {
        type            calculated;
        value           nonuniform List<vector> 
5120
(
(-0.000112221 -0.000127856 -6.36913e-05)
(-0.000128157 -0.000208557 -6.002e-05)
(-0.000213516 -0.000376294 -1.19456e-05)
(-0.000257093 -0.000450834 3.58393e-05)
(-0.000309065 -0.000512605 8.0227e-05)
(-0.00035501 -0.000545495 0.000118233)
(-0.00039732 -0.000562039 0.000149046)
(-0.00043128 -0.000562762 0.000171152)
(-0.000459742 -0.000557009 0.000186985)
(-0.000482125 -0.000547999 0.000197897)
(-0.000499397 -0.000539234 0.000205938)
(-0.000511663 -0.000530727 0.00021144)
(-0.000519975 -0.000524004 0.000214223)
(-0.000527462 -0.000520723 0.000215035)
(-0.000533805 -0.000519686 0.000213718)
(-0.000540131 -0.000521269 0.000210682)
(-0.000543534 -0.000522197 0.000204886)
(-0.000541748 -0.000519832 0.000195786)
(-0.000538449 -0.000517151 0.000185095)
(-0.00053414 -0.000514421 0.000173408)
(-0.000537945 -0.000519383 0.000163632)
(-0.000544196 -0.000526446 0.000153703)
(-0.000553198 -0.00053673 0.000143579)
(-0.000541473 -0.000528256 0.000128045)
(-0.000550216 -0.000538068 0.000116785)
(-0.00055431 -0.000542985 0.000103765)
(-0.00055245 -0.000543201 8.9382e-05)
(-0.000554589 -0.000546647 7.50748e-05)
(-0.000547141 -0.000541025 5.91943e-05)
(-0.000545543 -0.000540641 4.34532e-05)
(-0.00053808 -0.000534342 2.65346e-05)
(-0.000538286 -0.000535249 9.0127e-06)
(-9.16744e-05 -9.20786e-05 -4.24136e-05)
(-0.000143289 -0.000209161 -6.64857e-05)
(-0.000227445 -0.000366157 -2.00399e-05)
(-0.000273479 -0.00044427 2.72206e-05)
(-0.000327504 -0.000508593 7.15851e-05)
(-0.00037553 -0.000544621 0.00011012)
(-0.000419488 -0.000563308 0.000141293)
(-0.000455494 -0.000566677 0.000163872)
(-0.000486036 -0.000563588 0.000180262)
(-0.000510333 -0.000556832 0.00019214)
(-0.000530982 -0.000551211 0.00020206)
(-0.000545789 -0.000543825 0.000209168)
(-0.000556492 -0.000537208 0.000213229)
(-0.00056494 -0.000533605 0.000214634)
(-0.000572422 -0.000532576 0.000213832)
(-0.000579433 -0.000534029 0.00021104)
(-0.000583414 -0.000535107 0.000205466)
(-0.000581228 -0.000532474 0.000196402)
(-0.000577159 -0.000529362 0.000185717)
(-0.000574871 -0.000528601 0.000174852)
(-0.000579241 -0.000533941 0.000165232)
(-0.000584834 -0.000540216 0.000155075)
(-0.000592899 -0.000549344 0.000144638)
(-0.000583183 -0.000543179 0.000129724)
(-0.000592782 -0.000553438 0.000118423)
(-0.000593417 -0.00055531 0.000104707)
(-0.000594043 -0.000557801 9.06482e-05)
(-0.00059604 -0.000561201 7.61557e-05)
(-0.000589204 -0.00055658 6.02186e-05)
(-0.000588165 -0.000556887 4.42797e-05)
(-0.000581263 -0.000551578 2.71047e-05)
(-0.000582034 -0.00055303 9.22151e-06)
(-0.000121991 -0.000105848 -4.17299e-05)
(-0.000148337 -0.000192224 -6.82383e-05)
(-0.000239957 -0.000349765 -2.83542e-05)
(-0.000288777 -0.000431603 1.74694e-05)
(-0.000344992 -0.000498845 6.15629e-05)
(-0.000395254 -0.000538303 0.000100573)
(-0.00044185 -0.000560618 0.000132402)
(-0.000479934 -0.000566884 0.00015561)
(-0.00051289 -0.000567031 0.000172965)
(-0.000540605 -0.00056429 0.000186585)
(-0.000562606 -0.000559663 0.000197584)
(-0.000579226 -0.000553178 0.000205802)
(-0.000591567 -0.000546133 0.000210766)
(-0.000601484 -0.000541929 0.000212903)
(-0.000610318 -0.000540925 0.000212651)
(-0.000618909 -0.000542841 0.000210413)
(-0.000622579 -0.000543243 0.000204824)
(-0.000620159 -0.000540514 0.000195967)
(-0.000616122 -0.000537664 0.000185633)
(-0.000615633 -0.000538486 0.000175507)
(-0.000621121 -0.000544644 0.000166261)
(-0.000627589 -0.000551513 0.000156354)
(-0.000636414 -0.00056103 0.000146049)
(-0.000629078 -0.000557339 0.000131749)
(-0.000639605 -0.000568062 0.000120393)
(-0.000637058 -0.000567485 0.000106075)
(-0.000640226 -0.000572103 9.22575e-05)
(-0.000641275 -0.000574786 7.74401e-05)
(-0.000634857 -0.000570964 6.13825e-05)
(-0.000633255 -0.000570926 4.51275e-05)
(-0.00062583 -0.00056563 2.76385e-05)
(-0.000626737 -0.000567201 9.41253e-06)
(-0.000119652 -8.84254e-05 -2.59373e-05)
(-0.000157749 -0.000180271 -7.20774e-05)
(-0.000250919 -0.00032991 -3.68425e-05)
(-0.000301803 -0.000414143 6.93022e-06)
(-0.000359572 -0.000483616 5.03684e-05)
(-0.000412053 -0.000526615 8.96465e-05)
(-0.000460285 -0.000551516 0.00012172)
(-0.000500842 -0.000561528 0.000145708)
(-0.000536897 -0.000565956 0.000164418)
(-0.000566435 -0.000565707 0.000179378)
(-0.000592192 -0.000564562 0.000192312)
(-0.000612026 -0.000560264 0.000202008)
(-0.000628219 -0.000555373 0.000208555)
(-0.000640784 -0.000551146 0.000211727)
(-0.00065123 -0.000549746 0.00021209)
(-0.000659994 -0.00055075 0.000209923)
(-0.000663706 -0.000550677 0.000204493)
(-0.000661493 -0.000548129 0.000196018)
(-0.000658553 -0.000546327 0.000186322)
(-0.000659195 -0.00054803 0.000176681)
(-0.000665167 -0.000554401 0.000167632)
(-0.000671114 -0.000560627 0.00015763)
(-0.000679361 -0.000569355 0.000147179)
(-0.000673436 -0.00056716 0.000133274)
(-0.000683886 -0.000577512 0.000121756)
(-0.000679366 -0.000575847 0.00010717)
(-0.000683961 -0.000581486 9.34555e-05)
(-0.000685038 -0.000584439 7.85177e-05)
(-0.000679406 -0.000581721 6.24133e-05)
(-0.000678399 -0.000582419 4.5963e-05)
(-0.000671765 -0.00057832 2.82226e-05)
(-0.000673118 -0.000580267 9.62694e-06)
(-0.000126218 -7.80958e-05 -1.1729e-05)
(-0.000162003 -0.00016186 -7.34004e-05)
(-0.000257208 -0.000303636 -4.47337e-05)
(-0.000310512 -0.000390307 -4.05417e-06)
(-0.000370117 -0.00046259 3.81685e-05)
(-0.000424715 -0.000509167 7.73965e-05)
(-0.000476167 -0.00053875 0.000109958)
(-0.000519893 -0.000553342 0.000134943)
(-0.00055855 -0.000561463 0.000154976)
(-0.000592444 -0.00056609 0.000172117)
(-0.000620494 -0.000566834 0.000186516)
(-0.000642744 -0.0005639 0.00019743)
(-0.000660441 -0.000559187 0.000204689)
(-0.000675539 -0.000555377 0.000208842)
(-0.000687821 -0.000553323 0.000209917)
(-0.000698012 -0.000553951 0.000208304)
(-0.000701636 -0.000553304 0.000203126)
(-0.000700155 -0.000551231 0.000195256)
(-0.00069882 -0.000550663 0.000186349)
(-0.000700157 -0.000552826 0.000177132)
(-0.000707526 -0.00056009 0.000168582)
(-0.000714702 -0.000567116 0.000158959)
(-0.000723844 -0.000576312 0.000148707)
(-0.000719461 -0.000575642 0.000135169)
(-0.00072983 -0.000585709 0.000123496)
(-0.00072444 -0.000584002 0.000108802)
(-0.000729989 -0.000590233 9.50564e-05)
(-0.000730234 -0.000592797 7.98508e-05)
(-0.000725078 -0.000590887 6.36165e-05)
(-0.000723364 -0.000591251 4.68423e-05)
(-0.000716362 -0.00058747 2.87875e-05)
(-0.000717644 -0.000589413 9.82962e-06)
(-0.000118757 -6.01079e-05 3.05467e-06)
(-0.00016107 -0.000139429 -7.25076e-05)
(-0.000260794 -0.000274892 -5.17394e-05)
(-0.000315442 -0.000362129 -1.51312e-05)
(-0.000376087 -0.000436411 2.51093e-05)
(-0.000433453 -0.00048752 6.40302e-05)
(-0.000486996 -0.000520619 9.67046e-05)
(-0.000533536 -0.000539492 0.00012256)
(-0.000576417 -0.000552811 0.000144351)
(-0.000612335 -0.000559786 0.000162936)
(-0.000644163 -0.000563701 0.000179152)
(-0.000670028 -0.000563193 0.000191647)
(-0.00069223 -0.000561211 0.000200576)
(-0.000710634 -0.000558743 0.000205935)
(-0.000725721 -0.000557152 0.000208022)
(-0.000736551 -0.000556493 0.000206841)
(-0.000740701 -0.00055509 0.000202153)
(-0.000740662 -0.000553572 0.000195054)
(-0.000741161 -0.000554217 0.000186966)
(-0.000742811 -0.000556513 0.000178096)
(-0.000750844 -0.000564002 0.000169872)
(-0.000757293 -0.000570262 0.000160205)
(-0.000765737 -0.000578688 0.000149867)
(-0.000762003 -0.000578973 0.000136577)
(-0.000771312 -0.000588288 0.000124704)
(-0.000766163 -0.000587652 0.000110158)
(-0.000771465 -0.000593753 9.62934e-05)
(-0.000772031 -0.000597132 8.1032e-05)
(-0.000767632 -0.000596399 6.47291e-05)
(-0.000766477 -0.000597635 4.77511e-05)
(-0.000760374 -0.000595232 2.94238e-05)
(-0.000761791 -0.000597361 1.0061e-05)
(-0.000122432 -4.93403e-05 1.6831e-05)
(-0.000160776 -0.000118638 -7.10252e-05)
(-0.000258091 -0.000241402 -5.76146e-05)
(-0.000314246 -0.000328347 -2.57634e-05)
(-0.000376369 -0.000405198 1.14412e-05)
(-0.000435744 -0.000460201 4.93842e-05)
(-0.000493115 -0.000498844 8.22913e-05)
(-0.000544274 -0.000523678 0.000109357)
(-0.000589964 -0.000540448 0.000132534)
(-0.000631029 -0.000552201 0.000153278)
(-0.000666161 -0.000558456 0.000171092)
(-0.000695078 -0.00055971 0.000185003)
(-0.000718877 -0.000558082 0.000194841)
(-0.000739354 -0.000556153 0.000201148)
(-0.000756035 -0.000554599 0.000204019)
(-0.000769128 -0.000554378 0.000203842)
(-0.000774908 -0.000552987 0.000200055)
(-0.000776854 -0.00055214 0.000194002)
(-0.00077906 -0.000553501 0.000186764)
(-0.00078107 -0.000555911 0.000178357)
(-0.000790676 -0.000564246 0.000170748)
(-0.000798378 -0.000571321 0.000161533)
(-0.000807324 -0.000580091 0.000151404)
(-0.000804391 -0.000581503 0.000138377)
(-0.000812569 -0.000590227 0.000126315)
(-0.000808405 -0.000591192 0.000111971)
(-0.000812842 -0.000596887 9.78766e-05)
(-0.00081242 -0.000600183 8.23795e-05)
(-0.000808147 -0.000600175 6.59192e-05)
(-0.000805892 -0.000601075 4.86151e-05)
(-0.000799425 -0.000598989 2.99768e-05)
(-0.000800467 -0.000600883 1.02582e-05)
(-0.000123303 -3.76575e-05 3.06676e-05)
(-0.00015422 -9.50167e-05 -6.59338e-05)
(-0.000251905 -0.00020728 -6.25515e-05)
(-0.000307878 -0.00029141 -3.54839e-05)
(-0.000369851 -0.000369089 -2.40249e-06)
(-0.000432476 -0.000429402 3.39008e-05)
(-0.000492674 -0.000472652 6.66178e-05)
(-0.00054666 -0.000501614 9.43936e-05)
(-0.000597749 -0.00052395 0.000119321)
(-0.000641504 -0.000537903 0.000141445)
(-0.000680561 -0.000546798 0.00016085)
(-0.000713331 -0.000550377 0.000176333)
(-0.000742273 -0.000551871 0.000188095)
(-0.000766593 -0.000551869 0.000195964)
(-0.000786347 -0.000551575 0.000200167)
(-0.00080032 -0.000551049 0.000200758)
(-0.000807801 -0.000550074 0.000198022)
(-0.000812063 -0.000550202 0.000193135)
(-0.000815911 -0.000552132 0.000186761)
(-0.000818457 -0.000554747 0.000178949)
(-0.000828445 -0.00056301 0.000171738)
(-0.000834808 -0.000569104 0.000162497)
(-0.00084237 -0.000576985 0.000152284)
(-0.000839529 -0.00057895 0.00013944)
(-0.00084592 -0.00058666 0.000127195)
(-0.000843166 -0.000589225 0.000113165)
(-0.000845855 -0.000593953 9.88342e-05)
(-0.00084574 -0.000598028 8.33302e-05)
(-0.000841872 -0.000598843 6.68056e-05)
(-0.000840001 -0.000600475 4.9346e-05)
(-0.000834635 -0.000599749 3.04994e-05)
(-0.000835576 -0.000601626 1.04492e-05)
(-0.000127534 -2.679e-05 4.61343e-05)
(-0.000142474 -7.1802e-05 -5.82031e-05)
(-0.000237973 -0.000169926 -6.4739e-05)
(-0.000293645 -0.000250122 -4.33099e-05)
(-0.000356234 -0.000328885 -1.57643e-05)
(-0.000420032 -0.000392545 1.77115e-05)
(-0.000484048 -0.000441565 4.9812e-05)
(-0.000544211 -0.000477609 7.85527e-05)
(-0.000598438 -0.000503114 0.000104602)
(-0.000648074 -0.000521519 0.000128582)
(-0.000691608 -0.00053302 0.000149589)
(-0.000728584 -0.000538838 0.000166702)
(-0.000759513 -0.000540915 0.000179651)
(-0.000785737 -0.000541493 0.000188722)
(-0.000806723 -0.000541358 0.000193977)
(-0.000823152 -0.000541837 0.000195926)
(-0.000832844 -0.000541765 0.000194498)
(-0.000838997 -0.00054265 0.000190761)
(-0.000844112 -0.000545039 0.000185309)
(-0.00084749 -0.000548073 0.000178294)
(-0.000858638 -0.000556699 0.000171747)
(-0.000866067 -0.000563423 0.000163044)
(-0.000873366 -0.000571206 0.000153009)
(-0.000871098 -0.000574056 0.00014045)
(-0.000876207 -0.000581183 0.000128141)
(-0.000875399 -0.000585442 0.000114473)
(-0.000876209 -0.000589301 9.99085e-05)
(-0.000875105 -0.000593215 8.42572e-05)
(-0.000871099 -0.000594436 6.76296e-05)
(-0.000867829 -0.000595565 4.99337e-05)
(-0.000862076 -0.000595093 3.08789e-05)
(-0.000862427 -0.000596632 1.05862e-05)
(-0.000136966 -1.59719e-05 6.58426e-05)
(-0.000139047 -5.56557e-05 -5.35094e-05)
(-0.00022278 -0.000135228 -6.52429e-05)
(-0.000274153 -0.000208121 -4.88044e-05)
(-0.000333752 -0.000283998 -2.77081e-05)
(-0.000400141 -0.000352289 1.63422e-06)
(-0.00046737 -0.000406642 3.23198e-05)
(-0.000529784 -0.000446327 6.1016e-05)
(-0.000590492 -0.000477741 8.83062e-05)
(-0.000643885 -0.000498562 0.000113447)
(-0.00069199 -0.0005124 0.000135872)
(-0.000733123 -0.000520118 0.00015448)
(-0.000769827 -0.00052533 0.000169491)
(-0.000800636 -0.000528268 0.000180518)
(-0.000825572 -0.000530107 0.000187645)
(-0.00084344 -0.000530963 0.000190881)
(-0.000854953 -0.000531594 0.000190787)
(-0.000863178 -0.000533411 0.000188329)
(-0.00086927 -0.000536167 0.000183828)
(-0.000873654 -0.000539714 0.000177704)
(-0.000884449 -0.000547723 0.000171564)
(-0.000890006 -0.000553232 0.000162908)
(-0.000895311 -0.000559902 0.000152847)
(-0.000892751 -0.000563097 0.000140528)
(-0.000896163 -0.000569405 0.000128218)
(-0.00089662 -0.000574629 0.000114913)
(-0.000895056 -0.000577481 0.000100206)
(-0.000894143 -0.000582007 8.46509e-05)
(-0.000890211 -0.000583763 6.80451e-05)
(-0.00088725 -0.000585588 5.03285e-05)
(-0.000882526 -0.000586301 3.11891e-05)
(-0.000882508 -0.000587698 1.07033e-05)
(-0.000147594 -3.45541e-06 8.97146e-05)
(-0.000157189 -4.79395e-05 -5.60876e-05)
(-0.000199156 -0.00010011 -6.12992e-05)
(-0.000246191 -0.000164163 -5.03574e-05)
(-0.000304395 -0.000237124 -3.72063e-05)
(-0.000369088 -0.000306189 -1.34798e-05)
(-0.000438567 -0.000365212 1.45315e-05)
(-0.000508341 -0.000412969 4.2877e-05)
(-0.000572398 -0.000447705 7.04665e-05)
(-0.000632516 -0.000473163 9.69239e-05)
(-0.000686449 -0.000489887 0.000120894)
(-0.000733489 -0.000500087 0.00014134)
(-0.000772929 -0.000505758 0.000157757)
(-0.000805706 -0.000509114 0.000170241)
(-0.000831641 -0.000511066 0.000178738)
(-0.000852129 -0.000513152 0.000183706)
(-0.000866192 -0.000515044 0.000185269)
(-0.000875926 -0.000517546 0.000184123)
(-0.000882858 -0.000520702 0.000180711)
(-0.000888355 -0.000524804 0.000175629)
(-0.000899481 -0.00053266 0.000170166)
(-0.000905986 -0.000538773 0.0001622)
(-0.000910448 -0.000545206 0.000152406)
(-0.000907967 -0.000549032 0.000140431)
(-0.000910445 -0.000554993 0.000128266)
(-0.000912131 -0.000560953 0.000115333)
(-0.00090821 -0.000563049 0.000100527)
(-0.000905904 -0.000567179 8.49214e-05)
(-0.000901339 -0.000569021 6.83112e-05)
(-0.000896453 -0.000570149 5.0496e-05)
(-0.000891138 -0.000570948 3.13006e-05)
(-0.000890317 -0.000571983 1.07475e-05)
(-0.000148623 1.01105e-05 0.000110617)
(-0.000162045 -3.51278e-05 -5.28037e-05)
(-0.000177567 -7.15194e-05 -5.56914e-05)
(-0.000215716 -0.000123627 -4.84418e-05)
(-0.000264987 -0.000186922 -4.25544e-05)
(-0.000329437 -0.000257263 -2.63657e-05)
(-0.000401151 -0.000320936 -2.51332e-06)
(-0.000471179 -0.000371215 2.39301e-05)
(-0.000542453 -0.000412624 5.13357e-05)
(-0.00060735 -0.000441456 7.82298e-05)
(-0.00066703 -0.00046114 0.000103412)
(-0.000718864 -0.000472866 0.000125417)
(-0.000764928 -0.000480953 0.000144037)
(-0.000803204 -0.000486367 0.000158708)
(-0.000834042 -0.000490581 0.000169472)
(-0.000856426 -0.000493464 0.000176199)
(-0.000872013 -0.000496068 0.000179381)
(-0.000883451 -0.000499466 0.000179733)
(-0.000891126 -0.000503065 0.000177515)
(-0.000897578 -0.000507614 0.000173522)
(-0.000907315 -0.000514419 0.000168489)
(-0.000911269 -0.000519183 0.000160667)
(-0.000913001 -0.000524452 0.000150932)
(-0.000909473 -0.000528311 0.000139218)
(-0.000910564 -0.00053357 0.000127241)
(-0.000911953 -0.000539181 0.000114613)
(-0.000905603 -0.000540681 9.98718e-05)
(-0.000902917 -0.000545104 8.44664e-05)
(-0.000897964 -0.000547214 6.80126e-05)
(-0.000893248 -0.000549097 5.03746e-05)
(-0.0008885 -0.000550741 3.12741e-05)
(-0.000887136 -0.000551687 1.0748e-05)
(-0.000141285 2.23617e-05 0.000125868)
(-0.00013604 -1.84305e-05 -3.97548e-05)
(-0.000141358 -4.39084e-05 -4.38436e-05)
(-0.000176202 -8.41129e-05 -4.11046e-05)
(-0.000222259 -0.000139449 -4.32873e-05)
(-0.000278734 -0.000204255 -3.53929e-05)
(-0.000348192 -0.000268892 -1.7581e-05)
(-0.000425933 -0.000327729 5.61258e-06)
(-0.000499844 -0.000372554 3.14706e-05)
(-0.000571953 -0.000406886 5.83684e-05)
(-0.000638313 -0.000430446 8.45064e-05)
(-0.000697932 -0.00044579 0.000108472)
(-0.000748154 -0.000454494 0.000128949)
(-0.000788922 -0.000459675 0.000145418)
(-0.000820553 -0.000463131 0.000157797)
(-0.000845393 -0.00046662 0.000166437)
(-0.000863435 -0.000470365 0.000171481)
(-0.00087591 -0.000474407 0.00017335)
(-0.000884218 -0.000478485 0.000172481)
(-0.000891314 -0.000483309 0.000169642)
(-0.000900441 -0.000489666 0.000165319)
(-0.000905037 -0.000495085 0.000158337)
(-0.000905343 -0.00050035 0.000148993)
(-0.00090106 -0.000504637 0.000137642)
(-0.00090156 -0.000509681 0.000125996)
(-0.000902354 -0.000515032 0.000113717)
(-0.000893478 -0.000516149 9.90932e-05)
(-0.000888626 -0.000519991 8.37465e-05)
(-0.000882364 -0.000521904 6.74394e-05)
(-0.000875004 -0.000522877 4.99028e-05)
(-0.000869301 -0.000524368 3.09734e-05)
(-0.000866861 -0.000524973 1.06481e-05)
(-0.000128659 3.08665e-05 0.000132016)
(-0.000130509 -8.38704e-06 -3.35685e-05)
(-0.000114205 -2.60791e-05 -3.35068e-05)
(-0.000141558 -5.38186e-05 -3.1926e-05)
(-0.000169291 -9.18312e-05 -3.72488e-05)
(-0.000221043 -0.000151019 -3.90421e-05)
(-0.000289122 -0.000216714 -2.94685e-05)
(-0.000361991 -0.000274691 -1.12726e-05)
(-0.000443159 -0.000326833 1.17094e-05)
(-0.000520345 -0.000365572 3.73658e-05)
(-0.000593525 -0.000393673 6.37927e-05)
(-0.00065805 -0.000411416 8.8908e-05)
(-0.000715341 -0.000423214 0.000111623)
(-0.00076263 -0.000430604 0.000130697)
(-0.000800255 -0.000436212 0.000145769)
(-0.000827558 -0.000440098 0.000156514)
(-0.000846641 -0.000443845 0.000163291)
(-0.000860393 -0.000448378 0.00016681)
(-0.000869163 -0.000452798 0.000167312)
(-0.000876255 -0.000457752 0.000165579)
(-0.000882901 -0.00046306 0.000161746)
(-0.000883929 -0.000467061 0.000154969)
(-0.000880684 -0.000471371 0.000145778)
(-0.00087432 -0.000475385 0.000134655)
(-0.000873253 -0.000479567 0.000123308)
(-0.000871712 -0.000483815 0.000111359)
(-0.000860562 -0.000484762 9.70762e-05)
(-0.000854452 -0.000488594 8.20523e-05)
(-0.000847318 -0.000490525 6.61077e-05)
(-0.00083994 -0.000492197 4.90227e-05)
(-0.000834105 -0.00049398 3.04442e-05)
(-0.000831081 -0.000494599 1.04756e-05)
(-0.000110551 3.3673e-05 0.000125288)
(-0.000123656 -2.70534e-07 -2.77804e-05)
(-0.000110307 -1.77567e-05 -2.93604e-05)
(-8.77314e-05 -2.51966e-05 -1.70158e-05)
(-0.000122494 -5.46758e-05 -2.75455e-05)
(-0.000156446 -9.84107e-05 -3.5741e-05)
(-0.00021277 -0.000156323 -3.50957e-05)
(-0.000292263 -0.00022177 -2.51815e-05)
(-0.000373183 -0.000275906 -6.8392e-06)
(-0.000457786 -0.000321173 1.66298e-05)
(-0.00053733 -0.000353932 4.26779e-05)
(-0.000610551 -0.000377002 6.91081e-05)
(-0.000672466 -0.000391029 9.36088e-05)
(-0.000722362 -0.000399182 0.000114683)
(-0.000760284 -0.000404042 0.000131518)
(-0.000789652 -0.000408243 0.000144302)
(-0.000811152 -0.000412731 0.000153087)
(-0.000825487 -0.000417344 0.000158167)
(-0.00083445 -0.000421886 0.000160063)
(-0.000841081 -0.000426748 0.000159451)
(-0.000846289 -0.000431766 0.000156436)
(-0.000847328 -0.00043651 0.000150629)
(-0.000842008 -0.000440852 0.000141903)
(-0.000834089 -0.00044492 0.000131085)
(-0.000832241 -0.000448609 0.000120161)
(-0.000828221 -0.000451959 0.000108626)
(-0.000814242 -0.000452556 9.46836e-05)
(-0.000805103 -0.000455424 7.98476e-05)
(-0.000795903 -0.00045667 6.42611e-05)
(-0.000785115 -0.000457038 4.75631e-05)
(-0.000777744 -0.00045814 2.94956e-05)
(-0.000773363 -0.000458277 1.01479e-05)
(-9.38991e-05 3.21473e-05 0.000110295)
(-0.000116976 5.29919e-06 -2.31929e-05)
(-0.000105517 -1.20885e-05 -2.43939e-05)
(-7.25662e-05 -1.48399e-05 -9.28338e-06)
(-5.67303e-05 -1.87919e-05 -1.06431e-05)
(-9.23006e-05 -5.20288e-05 -2.54812e-05)
(-0.000141396 -0.000103163 -3.54124e-05)
(-0.000203848 -0.000158453 -3.35119e-05)
(-0.00029096 -0.000219744 -2.2525e-05)
(-0.000378684 -0.000268988 -2.84997e-06)
(-0.000465864 -0.000308085 2.20064e-05)
(-0.000543025 -0.000334428 4.86773e-05)
(-0.000611046 -0.00035268 7.47063e-05)
(-0.000666757 -0.000364485 9.79563e-05)
(-0.000710948 -0.000372767 0.000117391)
(-0.000742871 -0.000378228 0.000132241)
(-0.000764562 -0.000382667 0.000142614)
(-0.000779598 -0.000387483 0.000149298)
(-0.0007884 -0.000391914 0.00015254)
(-0.000793689 -0.000396287 0.000152911)
(-0.000795325 -0.000400145 0.000150361)
(-0.000791201 -0.000403225 0.000144676)
(-0.000781452 -0.000406405 0.000136084)
(-0.000770479 -0.000409448 0.000125364)
(-0.000765986 -0.000411507 0.000114717)
(-0.000757984 -0.000413178 0.000103643)
(-0.000741804 -0.000413415 9.03527e-05)
(-0.000730544 -0.000415596 7.60343e-05)
(-0.000720163 -0.000416383 6.11541e-05)
(-0.000709333 -0.000417152 4.53543e-05)
(-0.000701502 -0.000418001 2.81066e-05)
(-0.000696592 -0.000418053 9.67688e-06)
(-8.06256e-05 2.78854e-05 9.01259e-05)
(-0.000111619 8.05687e-06 -2.01821e-05)
(-9.95302e-05 -8.62709e-06 -1.89114e-05)
(-6.26917e-05 -8.71164e-06 -2.14374e-06)
(-3.9309e-05 -8.02349e-06 -2.71333e-06)
(-3.46125e-05 -1.65658e-05 -9.73273e-06)
(-5.1617e-05 -3.94265e-05 -2.04284e-05)
(-0.000120325 -0.000100176 -3.62784e-05)
(-0.000198093 -0.000157466 -3.33742e-05)
(-0.000293538 -0.000214767 -1.88996e-05)
(-0.000384407 -0.000258293 3.97735e-06)
(-0.000469536 -0.000291443 3.07161e-05)
(-0.000540592 -0.000313087 5.74705e-05)
(-0.000597133 -0.000326844 8.16797e-05)
(-0.000639385 -0.000335288 0.000101847)
(-0.000671488 -0.000341751 0.00011786)
(-0.000694956 -0.000347588 0.000129792)
(-0.000709696 -0.000352471 0.000137725)
(-0.000717689 -0.000356656 0.000142118)
(-0.000721115 -0.000360446 0.000143372)
(-0.000720561 -0.000363928 0.000141595)
(-0.00071583 -0.000367619 0.000136928)
(-0.00070377 -0.000370525 0.000128833)
(-0.000691234 -0.00037299 0.000118388)
(-0.000685471 -0.000374015 0.000108233)
(-0.000674349 -0.0003744 9.78213e-05)
(-0.000655169 -0.000373507 8.51258e-05)
(-0.000640687 -0.00037412 7.12649e-05)
(-0.000627804 -0.00037341 5.71124e-05)
(-0.000613121 -0.000372064 4.21771e-05)
(-0.000603 -0.000371349 2.60197e-05)
(-0.000596798 -0.00037069 8.94952e-06)
(-6.93377e-05 2.18107e-05 6.71014e-05)
(-0.000109211 8.83667e-06 -1.85519e-05)
(-9.31493e-05 -6.31273e-06 -1.35725e-05)
(-5.3131e-05 -4.65176e-06 4.49233e-06)
(-2.41234e-05 -7.5975e-07 5.66088e-06)
(-7.85739e-06 -2.27381e-06 4.90455e-07)
(-6.46636e-06 -9.61393e-06 -9.45262e-06)
(-2.41089e-05 -2.58544e-05 -1.77121e-05)
(-0.000107442 -9.33009e-05 -3.70278e-05)
(-0.000196777 -0.000151117 -2.84989e-05)
(-0.000293991 -0.000203187 -8.46394e-06)
(-0.000378497 -0.000239555 1.67292e-05)
(-0.000452411 -0.000266373 4.27963e-05)
(-0.000511984 -0.000284769 6.69024e-05)
(-0.000559084 -0.000298033 8.77754e-05)
(-0.000592915 -0.000306972 0.000104498)
(-0.000614787 -0.000312979 0.000116911)
(-0.000628951 -0.000318117 0.000125752)
(-0.000635609 -0.000322033 0.000131019)
(-0.000636527 -0.000325119 0.000132914)
(-0.000631651 -0.000327208 0.000131396)
(-0.000619992 -0.000328183 0.000126469)
(-0.000602709 -0.000328915 0.000118293)
(-0.000586641 -0.000329278 0.000107807)
(-0.000576808 -0.000327506 9.78472e-05)
(-0.000561406 -0.000325521 8.81798e-05)
(-0.000540247 -0.000323379 7.65236e-05)
(-0.000523448 -0.000322338 6.36036e-05)
(-0.000509724 -0.000320582 5.07973e-05)
(-0.000495708 -0.000319298 3.75513e-05)
(-0.000485708 -0.000318167 2.31017e-05)
(-0.000479224 -0.00031718 7.94099e-06)
(-6.33352e-05 1.89188e-05 5.21221e-05)
(-0.000103766 9.40148e-06 -1.72159e-05)
(-8.8095e-05 -3.40587e-06 -1.04332e-05)
(-4.64034e-05 7.46931e-07 8.88365e-06)
(-1.28209e-05 8.3305e-06 9.55824e-06)
(1.29731e-05 1.10067e-05 3.37814e-06)
(1.98545e-05 1.0562e-05 -2.72811e-06)
(7.37369e-06 6.93625e-07 -1.49463e-05)
(-2.82482e-05 -2.72415e-05 -2.35568e-05)
(-0.00011376 -9.08667e-05 -2.75848e-05)
(-0.000201213 -0.000144196 -1.10339e-05)
(-0.000288259 -0.00018866 1.10317e-05)
(-0.000359102 -0.000218872 3.39705e-05)
(-0.000415002 -0.000239477 5.52124e-05)
(-0.000456228 -0.000252826 7.34143e-05)
(-0.000487025 -0.000262524 8.85996e-05)
(-0.000509581 -0.000270358 0.0001009)
(-0.000522109 -0.000275508 0.000109775)
(-0.000526522 -0.000278872 0.000115292)
(-0.000524361 -0.000280979 0.00011742)
(-0.000516776 -0.000282262 0.000116315)
(-0.000504757 -0.000283517 0.000112346)
(-0.000486269 -0.000283645 0.000104766)
(-0.000469687 -0.000283072 9.47555e-05)
(-0.000459171 -0.000280064 8.55491e-05)
(-0.000442197 -0.000276705 7.70141e-05)
(-0.000418731 -0.000272519 6.63343e-05)
(-0.000399874 -0.000269393 5.44531e-05)
(-0.000384049 -0.000265323 4.30277e-05)
(-0.000366393 -0.000260802 3.14133e-05)
(-0.000353784 -0.000257049 1.90692e-05)
(-0.000346406 -0.000254966 6.52248e-06)
(-5.42025e-05 1.6805e-05 4.04616e-05)
(-9.72272e-05 1.05668e-05 -1.53744e-05)
(-8.40989e-05 -3.44732e-07 -9.37946e-06)
(-4.31705e-05 4.86982e-06 7.65973e-06)
(-3.2859e-06 9.37678e-06 3.40857e-06)
(1.93561e-05 1.10009e-05 2.91653e-06)
(2.19901e-05 1.36847e-05 6.92799e-06)
(1.29425e-05 1.25689e-05 2.72788e-06)
(-4.93625e-06 -1.68822e-06 -5.71891e-06)
(-3.02891e-05 -2.35003e-05 -5.31432e-06)
(-0.000115316 -8.67147e-05 4.27944e-07)
(-0.00018522 -0.000129657 1.54779e-05)
(-0.000251255 -0.000164464 3.16971e-05)
(-0.000305686 -0.000189681 4.72332e-05)
(-0.00034982 -0.000208456 6.17734e-05)
(-0.000381923 -0.000221335 7.46427e-05)
(-0.000400816 -0.000228688 8.50168e-05)
(-0.000411386 -0.000233723 9.32001e-05)
(-0.000413545 -0.000236546 9.84615e-05)
(-0.000408683 -0.000237741 0.000100479)
(-0.00039708 -0.000237161 9.9086e-05)
(-0.000377266 -0.000233964 9.40388e-05)
(-0.000353155 -0.000230033 8.58868e-05)
(-0.000333287 -0.000226056 7.58995e-05)
(-0.000318447 -0.000218925 6.69351e-05)
(-0.000298309 -0.000212053 5.93636e-05)
(-0.000274072 -0.000205429 5.02501e-05)
(-0.000254 -0.000199513 4.01898e-05)
(-0.00023896 -0.000194121 3.1269e-05)
(-0.000224038 -0.000189727 2.26801e-05)
(-0.000213666 -0.000186052 1.36136e-05)
(-0.000207228 -0.000183799 4.61391e-06)
(-4.4643e-05 1.41602e-05 3.21912e-05)
(-8.87416e-05 1.08447e-05 -1.32115e-05)
(-7.88144e-05 1.28834e-06 -7.42915e-06)
(-3.45693e-05 2.96686e-06 7.84834e-06)
(7.25916e-06 6.34015e-06 9.1364e-06)
(1.72354e-05 9.93323e-06 1.57858e-05)
(2.05132e-05 1.02588e-05 1.95074e-05)
(1.90118e-05 8.16972e-06 2.36212e-05)
(8.50474e-06 1.49738e-06 2.14215e-05)
(-7.99196e-06 -1.18908e-05 1.9572e-05)
(-4.01603e-05 -3.93245e-05 2.24594e-05)
(-9.53328e-05 -8.13198e-05 3.01895e-05)
(-0.00014662 -0.000113819 3.61729e-05)
(-0.000190592 -0.000137756 4.2215e-05)
(-0.000224701 -0.000153862 4.86939e-05)
(-0.00024992 -0.000164957 5.58612e-05)
(-0.000269247 -0.000173937 6.36483e-05)
(-0.000277579 -0.000178478 6.98397e-05)
(-0.000276777 -0.000180009 7.36764e-05)
(-0.000268548 -0.00017924 7.46036e-05)
(-0.000254522 -0.000176649 7.26989e-05)
(-0.000236823 -0.000173464 6.85714e-05)
(-0.00021542 -0.000169222 6.16409e-05)
(-0.000198253 -0.000164861 5.31687e-05)
(-0.000186471 -0.000157492 4.59568e-05)
(-0.000169112 -0.000149988 4.0132e-05)
(-0.000145708 -0.000141005 3.25886e-05)
(-0.000126954 -0.000133081 2.47425e-05)
(-0.000111856 -0.000124693 1.82231e-05)
(-9.54791e-05 -0.000115638 1.22297e-05)
(-8.31081e-05 -0.000107613 6.69745e-06)
(-7.60143e-05 -0.000103202 2.12901e-06)
(-3.51373e-05 1.26034e-05 2.5204e-05)
(-8.0477e-05 1.10559e-05 -1.26863e-05)
(-7.59085e-05 4.32386e-06 -6.9427e-06)
(-3.54343e-05 6.54603e-06 9.94044e-06)
(-7.81909e-06 1.40871e-05 1.67549e-05)
(5.92468e-06 1.47993e-05 1.89059e-05)
(1.79207e-05 1.58617e-05 2.40868e-05)
(2.68161e-05 1.21208e-05 2.92094e-05)
(3.21972e-05 6.08923e-06 3.60974e-05)
(2.63306e-05 -2.56483e-06 3.72493e-05)
(1.16611e-05 -1.14189e-05 3.03923e-05)
(-4.02107e-06 -2.15565e-05 2.4593e-05)
(-3.26731e-05 -5.11374e-05 3.25031e-05)
(-7.1842e-05 -8.00671e-05 3.48018e-05)
(-0.000109722 -0.000102095 3.64009e-05)
(-0.000139152 -0.000117444 3.96875e-05)
(-0.000153852 -0.000123804 4.2871e-05)
(-0.000159699 -0.000127008 4.6326e-05)
(-0.000157195 -0.00012738 4.82988e-05)
(-0.000148119 -0.000125458 4.80714e-05)
(-0.000133073 -0.000120689 4.52308e-05)
(-0.000110375 -0.000110489 3.88644e-05)
(-8.49846e-05 -9.83972e-05 3.04533e-05)
(-6.55595e-05 -8.73656e-05 2.23359e-05)
(-5.25236e-05 -7.30982e-05 1.5996e-05)
(-3.60166e-05 -5.80336e-05 1.06963e-05)
(-1.86926e-05 -4.32041e-05 5.54158e-06)
(-6.90215e-06 -2.81963e-05 1.80426e-06)
(-1.29863e-06 -1.844e-05 2.32255e-07)
(3.1289e-06 -1.46237e-05 -6.08164e-07)
(5.8114e-06 -1.18494e-05 -7.06116e-07)
(8.10342e-06 -1.13599e-05 -3.69227e-07)
(-1.81381e-05 1.25521e-05 2.20004e-05)
(-6.37346e-05 1.25346e-05 -1.33454e-05)
(-7.4034e-05 9.23744e-06 -1.36384e-05)
(-5.00469e-05 1.27784e-05 1.46618e-06)
(-3.32229e-05 2.67211e-05 1.22467e-05)
(-1.71972e-05 4.04222e-05 1.22475e-05)
(1.49127e-06 4.22377e-05 1.08583e-05)
(1.97627e-05 3.03637e-05 1.22553e-05)
(2.83241e-05 1.94811e-05 1.50047e-05)
(3.56206e-05 1.31095e-05 2.14202e-05)
(4.38437e-05 7.90769e-06 3.08601e-05)
(3.64058e-05 2.24097e-07 2.96384e-05)
(2.77725e-05 -9.30915e-06 2.66272e-05)
(1.08987e-05 -1.74956e-05 1.68597e-05)
(-2.89158e-06 -2.27811e-05 1.03973e-05)
(-1.29108e-05 -2.64311e-05 7.7935e-06)
(-2.76441e-05 -4.18228e-05 1.00759e-05)
(-3.28223e-05 -4.6081e-05 1.07771e-05)
(-2.96608e-05 -4.36727e-05 9.84074e-06)
(-2.10988e-05 -3.62503e-05 7.17315e-06)
(-9.58997e-06 -2.2969e-05 3.02593e-06)
(-2.64217e-06 -1.82217e-05 1.29233e-07)
(6.47061e-06 -1.97502e-05 -4.21848e-06)
(8.75639e-06 -8.79233e-06 -4.62383e-06)
(9.92056e-06 -6.58479e-06 -5.26253e-06)