/*--------------------------------*- C++ -*----------------------------------*\
  =========                 |
  \\      /  F ield         | OpenFOAM: The Open Source CFD Toolbox
   \\    /   O peration     | Website:  https://openfoam.org
    \\  /    A nd           | Version:  6
     \\/     M anipulation  |
\*---------------------------------------------------------------------------*/
FoamFile
{
    version     2.0;
    format      ascii;
    class       volScalarField;
    location    "16";
    object      yPlus;
}
// * * * * * * * * * * * * * * * * * * * * * * * * * * * * * * * * * * * * * //

dimensions      [0 0 0 0 0 0 0];

internalField   uniform 0;

boundaryField
{
    inlet
    {
        type            calculated;
        value           uniform 0;
    }
    outlet
    {
        type            calculated;
        value           uniform 0;
    }
    roughCylinder
    {
        type            calculated;
        value           nonuniform List<scalar> 
5120
(
16.4787
18.9891
33.8565
37.9685
41.4242
43.1542
44.4332
45.0583
45.5308
45.6992
45.5817
45.2968
44.9782
44.7827
44.63
44.5923
44.3478
43.656
42.8659
42.0346
41.9808
42.1597
42.6167
41.2177
41.6706
41.6925
41.2478
41.1697
40.2852
39.9662
39.1737
39.1276
9.10127
19.6541
33.363
37.6345
41.0975
42.8972
44.1868
44.876
45.3609
45.4822
45.5083
45.296
45.1087
44.9484
44.85
44.8247
44.6014
43.8782
43.0383
42.4052
42.3755
42.4622
42.7882
41.6249
42.1016
41.8173
41.5909
41.4955
40.7061
40.4456
39.7424
39.7439
14.9407
18.5923
32.6917
37.2286
40.7676
42.6572
44.0555
44.7622
45.2563
45.4839
45.4406
45.247
45.0368
44.9404
44.9035
44.9609
44.6782
43.943
43.128
42.6515
42.6908
42.8223
43.1705
42.2449
42.7486
42.2184
42.1893
42.0173
41.2975
41.003
40.2969
40.3085
13.3459
18.4057
32.1043
36.8519
40.4256
42.4036
43.7671
44.5091
45.0684
45.2429
45.3625
45.2959
45.2596
45.2329
45.2524
45.2561
44.9416
44.2251
43.5104
43.1169
43.1682
43.2317
43.4987
42.7134
43.17
42.5179
42.5853
42.4228
41.7952
41.5585
40.9479
40.992
13.2564
17.6585
31.2037
36.3108
40.0245
42.0861
43.579
44.3936
44.9457
45.2994
45.4222
45.3849
45.3045
45.3092
45.3422
45.3868
45.0305
44.3671
43.7776
43.4279
43.5605
43.695
44.0001
43.3517
43.7713
43.091
43.2155
43.0049
42.44
42.1669
41.5647
41.6048
4.30134
16.5029
30.346
35.7523
39.5731
41.8104
43.2917
44.1265
44.8182
45.1207
45.3677
45.4442
45.5486
45.6417
45.7227
45.6859
45.3246
44.7491
44.2834
43.9454
44.1021
44.1673
44.4017
43.8228
44.1525
43.5302
43.635
43.4675
42.9844
42.7696
42.271
42.3286
7.51307
15.6021
29.0693
34.9234
39.0199
41.382
43.0452
44.0596
44.7278
45.2282
45.5183
45.6303
45.668
45.7471
45.7959
45.7975
45.456
44.9678
44.6042
44.2837
44.5293
44.6698
44.9277
44.4423
44.7095
44.2105
44.2803
44.0906
43.6594
43.4064
42.9233
42.9661
11.2384
14.094
27.7763
34.0088
38.3104
41.0048
42.7537
43.7666
44.6412
45.0994
45.4642
45.6563
45.882
46.0629
46.1779
46.1182
45.8061
45.4198
45.1283
44.8324
45.0919
45.1491
45.3301
44.8925
45.0687
44.7157
44.7061
44.5831
44.2221
44.0308
43.657
43.7058
12.2786
12.2345
25.8509
32.6585
37.455
40.3531
42.3506
43.6941
44.5394
45.194
45.6342
45.8955
46.0463
46.1767
46.2266
46.2176
45.9711
45.6583
45.4199
45.1747
45.5045
45.6434
45.8318
45.4773
45.6099
45.4324
45.3506
45.2191
44.8973
44.6624
44.3063
44.3351
14.1487
11.0799
24.0206
31.1694
36.232
39.6848
41.9458
43.2609
44.3891
45.0334
45.5328
45.8412
46.1815
46.4368
46.5956
46.5585
46.3446
46.1133
45.9115
45.7303
46.0425
46.0888
46.1919
45.8772
45.956
45.9154
45.7492
45.6937
45.4326
45.2688
45.0221
45.05
16.8909
13.3077
21.2428
28.9641
34.8293
38.5769
41.1664
43.044
44.1615
45.0256
45.6352
46.071
46.3456
46.5311
46.596
46.6123
46.4828
46.3034
46.1398
46.038
46.3895
46.534
46.6423
46.4041
46.4904
46.5931
46.3621
46.2994
46.0658
45.8469
45.6167
45.623
19.0482
13.9603
18.8218
26.6662
32.6413
37.2735
40.4276
42.2385
43.7885
44.7124
45.4163
45.8692
46.3322
46.674
46.9079
46.9324
46.8233
46.7121
46.5887
46.5651
46.8659
46.9098
46.927
46.7135
46.7916
46.9542
46.6724
46.6811
46.5022
46.3727
46.2423
46.251
20.5292
9.0356
14.562
22.9845
30.3265
35.2472
38.8211
41.6505
43.2418
44.4741
45.3385
46.0082
46.4293
46.689
46.7925
46.8621
46.8528
46.792
46.7222
46.7724
47.0885
47.252
47.2883
47.1444
47.2802
47.5105
47.1955
47.1903
47.0278
46.8287
46.7155
46.7008
21.1477
7.66593
11.024
19.7305
26.2123
32.6223
37.3407
39.9731
42.3463
43.7779
44.8723
45.5653
46.1967
46.6559
46.9949
47.1034
47.0975
47.1089
47.0972
47.2045
47.4481
47.4937
47.4468
47.3152
47.4631
47.6744
47.3605
47.423
47.3191
47.2361
47.2079
47.2111
20.1299
10.1594
10.6319
12.4705
22.4611
28.5421
33.6777
38.5097
41.0259
43.0511
44.3901
45.4657
46.1382
46.5355
46.7133
46.8542
46.9697
47.0337
47.0896
47.254
47.5214
47.7111
47.7072
47.654
47.8804
48.0904
47.7714
47.8124
47.7071
47.5312
47.5063
47.4804
18.2925
11.454
3.87704
5.9755
11.8815
22.6333
30.622
34.5627
38.9486
41.4139
43.361
44.539
45.5219
46.2207
46.7535
47.0048
47.1131
47.2588
47.378
47.5637
47.7399
47.7648
47.6781
47.6216
47.8052
47.9202
47.6512
47.7482
47.7098
47.6935
47.758
47.7668
15.9228
11.3303
5.96899
8.04579
10.8474
13.315
17.5879
30.5256
35.2984
39.5561
41.9689
43.898
45.0587
45.7666
46.1174
46.4048
46.7053
46.9153
47.0922
47.2964
47.508
47.7264
47.7347
47.7982
48.0344
48.1183
47.8489
47.9245
47.8461
47.685
47.6857
47.6626
13.1054
11.7831
3.773
10.2861
10.3384
5.01747
12.3149
12.1211
29.5894
35.2366
39.6176
41.8871
43.6541
44.8666
45.8101
46.3642
46.6467
46.9485
47.1818
47.3852
47.4857
47.4121
47.2847
47.2936
47.2954
47.1961
46.9775
47.0716
47.0602
47.142
47.2851
47.3119
12.0607
7.71029
10.522
8.00999
11.1559
10.9893
10.8337
12.6289
15.8509
30.3096
35.8934
40.0984
42.2821
43.6104
44.3089
44.8612
45.4678
45.8459
46.1051
46.2799
46.4094
46.6253
46.7179
46.9327
46.9287
46.8391
46.5917
46.675
46.5173
46.2914
46.1831
46.1423
11.0575
9.33143
8.89525
4.31146
9.51622
8.34056
11.8261
11.3506
12.8902
12.3388
30.4716
35.3378
38.96
41.3126
43.1348
44.3234
44.8472
45.3117
45.6215
45.8074
45.7921
45.3956
45.0842
45.0343
44.2926
43.7413
43.3931
43.3043
43.1627
43.3838
43.5858
43.6783
10.7748
9.72247
10.7438
7.49318
9.51263
12.5092
0.978345
12.2586
5.92335
14.2381
21.2163
31.1386
35.4589
37.8965
39.1876
40.0893
41.2881
41.8851
42.1452
42.1481
41.9951
42.1129
42.3867
42.7896
42.0261
41.7084
41.2397
41.1723
40.3841
39.5489
38.3787
37.8495
6.29425
8.14779
5.68231
10.2503
13.2641
8.54024
10.9552
8.25107
12.8058
12.9237
9.52164
10.6827
21.784
29.6051
34.7872
38.2116
39.0953
39.7025
40.0294
40.1492
39.8069
38.0698
36.1293
34.2972
29.7185
25.5783
21.5136
15.9107
11.484
5.42125
8.61579
13.4349
1.58174
4.28571
5.03098
11.5411
17.0859
20.6164
20.3179
15.398
6.94695
11.586
14.2393
13.3573
14.8656
12.982
10.0421
11.6253
19.1703
21.4532
20.9831
18.2883
12.0719
1.48569
19.1426
10.5103
11.0275
14.0623
13.8834
12.7361
16.2433
11.8263
12.2713
13.669
5.66209
11.2883
9.57642
8.53006
16.0103
22.7666
26.112
27.3186
27.2552
23.925
15.7693
10.6015
5.02933
6.32512
14.242
14.5777
15.9474
11.2417
11.3024
16.2361
16.1074
10.9741
6.80317
16.2338
14.1431
14.6004
12.23
10.3561
6.01891
8.85937
7.25183
11.504
7.04133
13.026
12.6908
11.562
14.5575
20.4069
25.1564
27.794
28.4668
27.863
27.0345
23.2535
16.7451
14.4778
10.0008
13.8211
14.9208
1.86448
13.9452
12.2675
15.7587
9.90402
10.7221
11.7688
11.6106
15.6392
19.7289
22.3188
24.217
25.4487
26.9205
26.5288
6.53016
14.7921
16.954
17.1834
17.8801
20.6906
24.2231
27.0991
28.7517
29.2584
28.2603
25.4281
23.3364
24.5486
25.3614
22.5927
19.8598
17.6836
16.8742
17.5824
19.4894
21.6202
23.6722
25.496
26.7584
27.1558
26.9501
27.1099
27.1644
27.1359
26.8093
26.9496
5.65815
15.1828
18.8898
20.8924
22.0149
23.4428
25.3414
27.2842
28.7376
29.2921
28.3298
24.6225
21.1506
22.8203
24.4356
24.6819
25.1504
25.2807
25.3296
25.4571
25.6542
25.7875
25.8544
25.9378
26.3787
26.8499
26.942
27.1004
27.0387
26.8139
26.8314
26.4677
4.54276
13.6106
17.9434
21.0984
23.1867
24.6436
25.8092
26.7205
26.9649
25.6026
21.4997
11.7289
7.22167
15.2737
20.7831
22.1657
23.6877
24.1237
24.2598
24.3802
24.4477
24.4199
24.2876
24.1255
24.3889
24.2876
23.5878
22.9459
22.4591
21.9076
21.4466
21.1691
3.71218
11.4887
14.8287
18.3791
21.1962
23.0941
24.19
24.5063
23.6995
21.1987
15.8174
11.1638
11.6461
3.15196
6.54966
6.94031
15.1343
17.9933
18.9527
19.0413
18.7295
18.2964
18.0838
18.2337
18.6748
19.3377
19.7667
20.2006
20.5957
20.8029
20.931
20.9498
2.84463
9.25468
11.7486
14.9296
17.7944
19.7195
20.587
20.2619
18.2724
14.0856
8.89395
8.5198
8.71381
13.6316
15.4067
16.3745
14.6566
14.4154
14.9048
15.5986
16.417
17.3845
18.3878
19.1886
19.7189
20.0827
20.2005
20.2489
20.1575
19.9279
19.7408
19.5985
2.51419
8.14445
10.3652
11.6276
13.3179
14.4278
14.4178
12.5838
8.46308
2.52551
7.14175
9.90999
11.6298
9.99581
10.1556
12.1906
15.5603
16.8634
17.3479
17.5285
17.5924
17.5984
17.6461
17.7512
18.0146
18.3989
18.6362
18.8064
18.9234
18.9711
19.0073
19.0146
2.62374
8.25112
10.0095
11.2133
11.6325
11.6347
11.5722
9.62313
7.74995
6.28074
7.71269
11.2585
11.4999
11.9877
13.088
13.2768
12.9627
13.6867
14.5295
15.2172
15.8103
16.4063
17.0235
17.5974
18.0954
18.5147
18.8126
19.0257
19.1532
19.2092
19.2249
19.2099
2.8902
8.8811
10.6244
11.5046
12.4175
13.1087
13.2451
13.1155
12.1202
11.6008
11.8097
11.5143
11.5385
11.7138
12.1693
13.4553
14.779
15.4583
15.9223
16.3171
16.6841
17.0317
17.3843
17.776
18.2549
18.7576
19.1449
19.4408
19.6326
19.7238
19.7597
19.7672
2.61655
8.54065
10.4133
11.6532
12.9106
13.763
13.9399
13.297
12.0732
11.551
11.4956
11.6574
12.3974
13.0864
13.6144
13.7917
14.074
14.7405
15.4457
16.0946
16.703
17.3003
17.9065
18.5015
19.0525
19.5395
19.9322
20.2136
20.3869
20.4624
20.4782
20.4744
2.65575
8.65644
10.3012
11.5462
12.4529
13.0933
13.1265
12.5839
11.9556
11.5357
12.0522
12.8856
13.2778
13.5685
14.0195
14.776
15.5071
16.0697
16.6036
17.1387
17.672
18.2037
18.7418
19.288
19.8435
20.3731
20.8039
21.1197
21.3129
21.3895
21.3985
21.3935
2.79829
9.05002
10.5477
11.4983
12.0233
12.2463
12.0193
11.5467
11.5479
12.1341
13.0106
13.5858
14.1144
14.6439
15.0936
15.4201
15.8574
16.4562
17.0959
17.7366
18.379
19.0267
19.6818
20.3273
20.939
21.4908
21.9499
22.2823
22.4811
22.5551
22.5532
22.5429
2.65138
8.79695
10.2105
10.932
11.2893
11.3414
11.2145
11.5463
12.1793
13.1658
13.9403
14.5563
15.0943
15.5513
16.0116
16.5589
17.1096
17.6517
18.2354
18.8609
19.5147
20.1887
20.8745
21.5524
22.2023
22.7951
23.2876
23.6451
23.8566
23.9314
23.9223
23.9081
2.06179
7.51969
9.28229
10.259
10.8218
11.4654
11.5667
12.2135
13.2211
14.0149
14.7731
15.499
16.1242
16.6684
17.1434
17.5829
18.0808
18.6651
19.3062
19.9898
20.7098
21.4569
22.217
22.9637
23.669
24.302
24.8288
25.211
25.4365
25.516
25.5031
25.4859
2.38724
8.65687
10.6385
11.5364
11.5814
11.4967
11.9839
12.9459
13.9431
14.9696
15.8786
16.614
17.2389
17.7898
18.3146
18.8511
19.4035
19.9929
20.6446
21.3579
22.1208
22.919
23.7336
24.5354
25.2936
25.9741
26.5398
26.9522
27.1963
27.2843
27.2715
27.2529
2.50125
9.1007
11.0241
11.4627
11.5583
11.8925
12.94
14.106
15.2081
16.1406
16.955
17.7102
18.3958
19.0148
19.5798
20.1251
20.7032
21.3417
22.045
22.8113
23.633
24.4948
25.3738
26.2381
27.0535
27.7827
28.3894
28.8343
29.1003
29.2011
29.1924
29.1742
2.89336
3.07948
3.20279
3.33965
3.45637
3.55818
3.63438
3.69347
3.7392
3.79775
3.85092
3.90241
3.95177
3.99759
4.05242
4.12747
4.17061
4.12956
4.11739
4.13366
4.18078
4.26613
4.36607
4.33881
4.32583
4.30258
4.2074
4.10683
3.97776
3.85484
3.75665
3.65179
3.55855
3.47163
3.44669
3.41769
3.34183
3.20164
2.98199
2.80903
9.93507
10.3656
10.6405
10.8767
11.0128
11.0884
11.0876
11.0478
10.9659
10.9189
10.8447
10.7563
10.652
10.5267
10.3876
10.2601
10.1559
10.0888
10.0646
10.0862
10.1567
10.2846
10.4966
10.7709
11.048
11.3039
11.4327
11.5251
11.5011
11.4481
11.46
11.3848
11.415
11.3424
11.4504
11.4074
11.2096
10.8445
10.2768
9.84033
11.3302
11.5021
11.4797
11.5094
11.5274
11.5853
11.5513
11.6426
11.591
11.7073
11.7864
11.8513
11.8959
11.9251
11.9396
11.9488
11.9684
12.0053
12.0379
12.0674
12.0947
12.1254
12.1855
12.2841
12.3673
12.4278
12.4381
12.4233
12.3667
12.2847
12.1958
12.0805
11.9503
11.8013
11.622
11.5195
11.5008
11.5452
11.4566
11.4645
11.5738
11.5491
11.541
11.716
11.9707
12.1664
12.3791
12.5781
12.7686
12.9636
13.1329
13.2842
13.4174
13.539
13.6516
13.749
13.8336
13.9021
13.9521
13.9835
13.9963
13.9934
13.9831
13.9642
13.9276
13.8735
13.8094
13.7329
13.637
13.5161
13.365
13.1863
12.9792
12.749
12.4783
12.214
11.9538
11.679
11.5975
11.5019
11.5535
11.8339
12.1667
12.5237
12.9063
13.2298
13.5566
13.8475
14.1217
14.3734
14.6042
14.8169
15.0129
15.1879
15.3414
15.4726
15.5811
15.6655
15.7249
15.7589
15.7671
15.7505
15.7117
15.6507
15.5664
15.4616
15.3371
15.1963
15.048
14.886
14.6989
14.4833
14.2299
13.951
13.6266
13.287
12.8998
12.5079
12.1269
11.7471
12.2169
12.6693
13.158
13.606
14.0444
14.4316
14.8053
15.1443
15.463
15.7578
16.0324
16.2828
16.5094
16.7116
16.8889
17.0401
17.1643
17.2604
17.3272
17.3642
17.3706
17.3465
17.2934
17.2121
17.104
16.9715
16.8162
16.6411
16.4462
16.2391
16.0167
15.778
15.504
15.2047
14.8552
14.4887
14.0546
13.6238
13.11
12.6736
13.2391
13.7097
14.2667
14.7314
15.1942
15.61
16.0092
16.3789
16.7272
17.0497
17.3483
17.6218
17.8704
18.0932
18.289
18.4564
18.5938
18.6997
18.7727
18.8121
18.8168
18.7866
18.7228
18.6268
18.5009
18.348
18.1706
17.9717
17.752
17.5151
17.2576
16.9911
16.6995
16.3918
16.0378
15.6664
15.2272
14.7907
14.2532
13.7757
14.3444
14.779
15.356
15.8183
16.2934
16.7248
17.1404
17.5279
17.8937
18.2346
18.552
18.8445
19.1115
19.3516
19.5631
19.744
19.8925
20.0064
20.0843
20.1251
20.1279
20.0919
20.0185
19.9096
19.7681
19.5975
19.4009
19.1818
18.942
18.6849
18.4081
18.1172
17.8041
17.4822
17.127
16.7558
16.3326
15.8932
15.3946
14.8745
15.4005
15.8175
16.387
16.8504
17.3284
17.7674
18.1925
18.5926
18.9721
19.3282
19.6612
19.9693
20.2514
20.5057
20.7299
20.9217
21.0787
21.1987
21.2798
21.3211
21.3213
21.2798
21.1976
21.0773
20.922
20.7357
20.5222
20.2855
20.0281
19.7535
19.4612
19.1549
18.8294
18.4903
18.1283
17.7505
17.3449
16.9021
16.4532
15.9108
16.3668
16.8095
17.3558
17.821
18.2983
18.7432
19.176
19.5861
19.9768
20.3449
20.6902
21.0105
21.3043
21.5692
21.8028
22.0024
22.1652
22.2888
22.3713
22.4119
22.4092
22.3624
22.2725
22.1422
21.9751
21.7755
21.5476
21.2958
21.0234
20.7339
20.4281
20.1089
19.7737
19.4251
19.0581
18.6722
18.2682
17.8309
17.3915
16.8962
17.2861
17.7334
18.2677
18.7331
19.2124
19.6622
20.1018
20.5196
20.919
21.2961
21.6503
21.9793
22.2811
22.5532
22.7927
22.9968
23.1625
23.2872
23.3694
23.408
23.402
23.3502
23.2535
23.1149
22.938
22.7275
22.4879
22.2238
21.939
21.6372
21.3201
20.9901
20.6461
20.2902
19.9174
19.5311
19.1202
18.6958
18.2268
17.804
18.1553
18.5898
19.1295
19.5947
20.0794
20.5337
20.9795
21.4035
21.8092
22.1926
22.5528
22.8872
23.1936
23.4694
23.7115
23.9168
24.0825
24.206
24.2858
24.3214
24.3118
24.2554
24.153
24.0075
23.8228
23.6037
23.3549
23.0811
22.7866
22.475
22.1484
21.8095
21.4572
21.0949
20.7149
20.3279
19.9071
19.4949
18.9976
18.607
18.9665
19.3935
19.9465
20.4159
20.9085
21.3685
21.8202
22.2495
22.66
23.0475
23.411
23.7479
24.056
24.3323
24.5739
24.7776
24.9405
25.0603
25.1359
25.1674
25.154
25.0936
24.9865
24.8356
24.6449
24.4193
24.1634
23.8823
23.5802
23.2608
22.9263
22.5798
22.2198
21.8506
21.4626
21.0711
20.6393
20.2264
19.7101
19.3227
19.7289
20.1602
20.7298
21.2096
21.7121
22.1798
22.6378
23.072
23.4863
23.8763
24.2412
24.5784
24.8856
25.1599
25.3982
25.5976
25.7551
25.8688
25.9384
25.965
25.9481
25.8843
25.7737
25.6188
25.4237
25.1932
24.9322
24.6455
24.3374
24.0117
23.6706
23.3169
22.9493
22.5721
22.1749
21.7746
21.3291
20.9046
20.3685
19.9702
20.4649
20.9079
21.4968
21.9914
22.5063
22.9835
23.4486
23.8879
24.3054
24.6971
25.062
25.3978
25.7022
25.9724
26.2053
26.3981
26.5479
26.6532
26.7147
26.7356
26.7159
26.6502
26.5372
26.3796
26.1813
25.9473
25.6826
25.3917
25.0789
24.7478
24.4005
24.0399
23.6643
23.2779
22.8699
22.4566
21.9931
21.5506
20.9896
20.5782
21.2007
21.6564
22.2677
22.779
23.3086
23.7968
24.27
24.715
25.1357
25.5285
25.8927
26.2261
26.5264
26.7911
27.0171
27.2014
27.3416
27.4366
27.4886
27.5036
27.4816
27.4151
27.3011
27.1417
26.9412
26.7048
26.4372
26.143
25.8263
25.4904
25.1373
24.7695
24.3854
23.9886
23.5681
23.1388
22.6539
22.1906
21.6006
21.1797
21.9561
22.4263
23.0609
23.5904
24.1359
24.6365
25.1186
25.5696
25.9938
26.3878
26.7511
27.0816
27.3773
27.6358
27.854
28.0291
28.1587
28.2426
28.285
28.2942
28.2701
28.2032
28.0884
27.9276
27.7255
27.4872
27.2173
26.9204
26.6001
26.2597
25.9009
25.5259
25.1327
24.7247
24.2908
23.8433
23.337
22.851
22.2358
21.8009
22.7452
23.2336
23.8912
24.4403
25.0021
25.5157
26.0074
26.4652
26.8933
27.2888
27.6513
27.9791
28.2701
28.5224
28.7329
28.8989
29.0182
29.0912
29.1248
29.1289
29.1025
29.0346
28.9184
28.7562
28.5525
28.3122
28.0404
27.7409
27.4173
27.0725
26.7079
26.3256
25.9233
25.5038
25.0564
24.5908
24.0651
23.5566
22.9212
22.4684
23.578
24.0878
24.7686
25.3378
25.9158
26.443
26.9447
27.4097
27.8423
28.2397
28.6019
28.9273
29.2143
29.4609
29.6644
29.8223
29.9323
29.9961
30.0222
30.0215
29.9925
29.9222
29.8038
29.6393
29.4334
29.1913
28.9173
28.6153
28.2883
27.9392
27.5691
27.1794
26.7683
26.3377
25.8774
25.3955
24.8529
24.3245
23.6709
23.2017
24.4587
24.9916
25.6961
26.2856
26.8796
27.4201
27.932
28.4046
28.842
29.2419
29.6042
29.9279
30.2114
30.4531
30.6506
30.8015
30.904
30.9603
30.9802
30.9753
30.9429
30.8689
30.747
30.5796
30.3713
30.1269
29.8508
29.5461
29.2161
28.8626
28.4871
28.0904
27.6709
27.23
26.7579
26.2623
25.7052
25.1595
24.4883
24.0038
25.3848
25.9416
26.67
27.2791
27.8886
28.442
28.9638
29.4439
29.8863
30.2888
30.6517
30.9741
31.2547
31.4922
31.6847
31.8297
31.926
31.9764
31.9913
31.9821
31.9457
31.867
31.7408
31.57
31.3592
31.1126
30.8343
30.5272
30.194
29.8365
29.4558
29.0527
28.6253
28.175
27.6925
27.1852
26.6157
26.0547
25.3663
24.8657
26.347
26.9269
27.6783
28.3058
28.9299
29.4954
30.0266
30.5138
30.9608
31.366
31.7296
32.0507
32.3289
32.5627
32.7507
32.8907
32.982
33.0274
33.0378
33.0243
32.9834
32.8995
32.7691
32.5949
32.3815
32.133
31.8526
31.5432
31.207
30.8459
30.4604
30.0512
29.6167
29.1578
28.666
28.1485
27.5681
26.993
26.2878
25.7708
27.3268
27.9283
28.7014
29.3453
29.983
30.5594
31.0992
31.5927
32.0438
32.4512
32.8153
33.1353
33.4112
33.6416
33.8255
33.9613
34.0484
34.0898
34.0959
34.0779
34.0319
33.9428
33.8083
33.631
33.4153
33.1647
32.8824
32.5709
32.232
31.8674
31.4776
31.063
30.622
30.1552
29.6546
29.1277
28.5373
27.949
27.227
26.6938
28.2968
28.918
29.7114
30.3696
31.0196
31.6056
32.1528
32.6516
33.1062
33.5154
33.8794
34.1984
34.4718
34.6992
34.8796
35.0119
35.0957
35.134
35.1364
35.1139
35.0621
34.9677
34.8289
34.6485
34.4306
34.1781
33.8939
33.5804
33.2391
32.8714
32.4775
32.0579
31.6107
31.1365
30.6276
30.0916
29.4914
28.8903
28.1513
27.6021
29.2209
29.8602
30.6725
31.3435
32.0041
32.5986
33.152
33.6553
34.1125
34.5227
34.8865
35.204
35.4753
35.6998
35.8775
36.0074
36.0896
36.1268
36.1266
36.0991
36.0402
35.9394
35.7958
35.6122
35.3917
35.1373
34.8515
34.5361
34.1926
33.8219
33.4244
33
32.547
32.0659
31.5485
31.0033
30.393
29.7796
29.0238
28.4597
30.0598
30.7152
31.5445
32.227
32.8972
33.4988
34.0575
34.5642
35.0234
35.434
35.7972
36.113
36.382
36.6042
36.7797
36.9087
36.9914
37.0297
37.0281
36.9952
36.9274
36.8189
36.67
36.4828
36.2599
36.0038
35.7164
35.3994
35.0539
34.6806
34.2796
33.8507
33.3922
32.9043
32.3789
31.8242
31.2031
30.5771
29.805
29.2275
30.7787
31.4447
32.287
32.9784
33.6561
34.2638
34.8267
35.3363
35.7968
36.2078
36.5701
36.8843
37.1511
37.371
37.5445
37.6722
37.7548
37.7938
37.7917
37.7534
37.6787
37.5641
37.4109
37.221
36.9963
36.7388
36.4502
36.1317
35.7843
35.4085
35.0042
34.571
34.1072
33.6127
33.0793
32.515
31.8825
31.2439
30.4565
29.8672
31.3329
32.0091
32.8633
33.5632
34.2479
34.8607
35.4273
35.9392
36.4008
36.8116
37.1728
37.4852
37.7498
37.967
38.138
38.2634
38.3443
38.3818
38.3779
38.3366
38.2582
38.1406
37.9851
37.7936
37.5679
37.3096
37.0201
36.7004
36.3515
35.9734
35.5659
35.1286
34.6594
34.1581
33.6166
33.0418
32.3965
31.744
30.941
30.34
31.7044
32.3857
33.2472
33.9534
34.643
35.2601
35.8297
36.3438
36.8065
37.2177
37.5785
37.8899
38.1527
38.3682
38.537
38.6602
38.739
38.7747
38.7692
38.7265
38.6467
38.5279
38.3717
38.1796
37.9534
37.6947
37.4045
37.0838
36.7332
36.3528
35.9422
35.5008
35.0261
34.5178
33.9677
33.3815
32.7222
32.0553
31.2382
30.6269
31.8959
32.5798
33.4457
34.1565
34.8498
35.4698
36.0418
36.5574
37.0211
37.4324
37.7929
38.1034
38.3652
38.5792
38.7465
38.8684
38.9459
38.9804
38.9741
38.9309
38.8508
38.7317
38.5754
38.3836
38.1575
37.8988
37.6085
37.2874
36.9358
36.5538
36.1407
35.6957
35.2163
34.7016
34.1433
33.5455
32.8727
32.1927
31.3633
30.7424
31.9408
32.6256
33.4939
34.2079
34.9034
35.5256
36.099
36.6158
37.0801
37.4918
37.8523
38.1626
38.4239
38.6374
38.8043
38.9258
39.0031
39.0377
39.0318
38.9891
38.9096
38.7913
38.6359
38.445
38.2199
37.9621
37.6724
37.3515
36.9997
36.6168
36.202
35.7545
35.2715
34.7519
34.1869
33.5797
32.8969
32.207
31.369
30.7415
31.9312
32.6146
33.4824
34.1969
34.8927
35.5151
36.0887
36.6055
37.0698
37.4814
37.8418
38.152
38.4132
38.6267
38.7938
38.9157
38.9936
39.0291
39.0244
38.983
38.9049
38.7883
38.6345
38.4453
38.2221
37.9659
37.6778
37.3581
37.0072
36.6249
36.2102
35.7622
35.278
34.7567
34.1889
33.5777
32.8908
32.1968
31.3557
30.7257
13.6267
20.336
34.0188
38.0423
41.4677
43.1614
44.3335
44.7911
45.0718
45.0444
44.8494
44.6836
44.561
44.748
45.0239
45.2318
44.7331
43.9105
44.1127
43.6194
43.6116
43.5989
44.4386
42.1248
41.2076
40.1819
42.2601
40.7394
40.6289
39.8457
39.4517
39.1336
11.9936
19.6866
33.5434
37.7355
41.1809
42.8828
44.0407
44.5338
44.7682
44.7725
44.8366
44.7641
44.8407
45.0326
45.2545
45.3014
44.8437
44.1538
44.4152
43.8008
43.9527
44.039
44.6811
42.5199
41.5105
40.3115
42.5473
41.0509
40.9792
40.2666
39.9587
39.6752
10.4185
19.5863
32.9121
37.3733
40.8383
42.6533
43.8877
44.3679
44.7008
44.8222
44.7685
44.7235
44.763
45.0023
45.1809
45.2089
44.7328
44.1797
44.4709
43.7966
44.17
44.4398
44.9611
43.0888
42.0625
40.8107
43.1255
41.658
41.5962
40.8935
40.5916
40.2891
16.1225
18.7604
32.3262
36.9958
40.5591
42.4322
43.6515
44.2367
44.5846
44.6647
44.8492
44.9132
45.1243
45.3299
45.4477
45.3517
44.9614
44.5546
44.8136
44.1034
44.5877
44.8972
45.175
43.4711
42.4137
41.1572
43.4562
42.0538
42.0168
41.3855
41.1564
40.8941
9.81261
18.2648
31.4819
36.5322
40.1797
42.2038
43.5849
44.182
44.6014
44.8784
44.9596
45.0204
45.1309
45.3203
45.3945
45.3446
44.9798
44.6811
44.8885
44.2152
44.8573
45.2766
45.4508
44.0111
42.999
41.826
44.0659
42.7261
42.6885
42.0711
41.8417
41.57
10.5984
17.1851
30.6669
35.9926
39.8519
42.0196
43.3747
44.1096
44.6183
44.7897
45.0722
45.253
45.5272
45.6942
45.735
45.5964
45.3292
45.1207
45.2649
44.66
45.3494
45.735
45.6977
44.3846
43.3981
42.3116
44.4233
43.1762
43.1513
42.6053
42.4411
42.2123
10.9669
16.2277
29.4767
35.3
39.3239
41.6769
43.2933
44.0917
44.621
45.055
45.2807
45.4433
45.5765
45.7046
45.7232
45.6772
45.435
45.2803
45.3656
44.8772
45.6467
46.0804
45.9939
44.8991
44.01
43.0681
45.054
43.888
43.8572
43.3276
43.1586
42.9277
12.0397
14.7936
28.2738
34.3991
38.7627
41.3892
42.9888
43.944
44.6705
44.9732
45.3612
45.6472
45.9656
46.1155
46.1441
46.0238
45.862
45.7422
45.7952
45.4327
46.1769
46.5341
46.278
45.2778
44.4461
43.6193
45.4204
44.3623
44.3353
43.8769
43.7702
43.5835
12.69
13.102
26.5578
33.2694
37.885
40.7412
42.7425
43.8644
44.5658
45.1919
45.5844
45.858
46.019
46.1263
46.1522
46.1547
46.0005
45.9033
45.9361
45.7052
46.451
46.8337
46.5865
45.774
45.0681
44.4012
46.056
45.0848
45.0502
44.608
44.4933
44.3065
14.8474
12.5495
24.7327
31.7126
36.8437
40.173
42.2028
43.5052
44.5485
45.0471
45.5682
45.965
46.3534
46.5448
46.6231
46.5479
46.4532
46.369
46.4182
46.3031
46.9628
47.2612
46.8826
46.1494
45.5036
44.9464
46.3909
45.5352
45.4984
45.1272
45.0743
44.9317
17.5367
10.2129
22.5298
29.9866
35.363
38.9689
41.6213
43.2579
44.2397
45.1307
45.7242
46.135
46.3599
46.5048
46.5869
46.6609
46.5666
46.5043
46.5676
46.5394
47.1477
47.4778
47.1704
46.6061
46.0964
45.6971
46.9956
46.2275
46.1841
45.8281
45.7644
45.6205
20.6674
9.87216
19.7427
27.3296
33.5119
37.9093
40.6415
42.5082
44.0463
44.8339
45.5409
46.0729
46.5763
46.8714
47.047
47.034
46.9944
46.9512
47.0574
47.0984
47.5968
47.8486
47.4427
46.9396
46.4737
46.1589
47.2321
46.5812
46.5309
46.2462
46.2449
46.1438
22.7267
9.16962
17.1914
25.0363
31.0628
35.6735
39.4479
41.9204
43.3607
44.6715
45.5424
46.1402
46.4652
46.6912
46.8606
47.0332
47.0106
47.0061
47.1329
47.1985
47.6311
47.9219
47.6462
47.2978
46.9758
46.8136
47.7455
47.1814
47.129
46.8597
46.8428
46.7367
24.1141
10.9289
13.6737
20.4082
27.8956
33.8125
37.5861
40.4052
42.8064
44.0521
45.0793
45.8269
46.505
46.951
47.2458
47.3039
47.3438
47.3744
47.5445
47.6422
47.984
48.1939
47.8347
47.5104
47.2128
47.1044
47.8269
47.3769
47.3184
47.12
47.1706
47.1097
23.8119
12.411
11.2343
18.0652
23.7073
29.3132
35.1711
39.1077
41.3206
43.418
44.7651
45.6892
46.1965
46.5511
46.8267
47.1212
47.1955
47.2692
47.442
47.5264
47.8285
48.077
47.8976
47.7324
47.6044
47.6503
48.2296
47.8672
47.8118
47.6288
47.6532
47.5753
22.4417
13.577
2.90131
5.75783
17.5582
26.1954
31.1304
35.769
40.0087
42.0743
43.7444
44.9233
45.948
46.6386
47.1024
47.2628
47.4101
47.5307
47.7393
47.8543
48.106
48.2526
47.9733
47.768
47.6285
47.6642
48.0177
47.7624
47.697
47.5906
47.6852
47.6669
20.0608
13.6975
6.65162
10.6181
6.88807
12.1376
25.695
32.7603
36.4261
40.419
42.7615
44.3375
45.2012
45.8049
46.2626
46.7632
46.9923
47.1675
47.3484
47.4298
47.6486
47.8017
47.7443
47.7182
47.8002
48.0204
48.2183
48.0608
48.0053
47.9181
47.9607
47.895
17.6245
13.661
9.99517
5.87815
6.15273
5.83809
14.8358
22.1001
33.2741
37.1994
40.4842
42.6354
44.3896
45.5479
46.3292
46.6537
46.9713
47.2045
47.439
47.5963
47.8078
47.83
47.5832
47.3782
47.3284
47.4007
47.3259
47.2186
47.1178
47.0927
47.2036
47.2294
15.359
12.4912
4.96308
4.74407
10.605
10.6733
10.7747
4.82237
19.6903
32.8601
37.9652
41.0925
42.673
43.7648
44.5629
45.4501
45.9256
46.2311
46.392
46.4704
46.5848
46.5389
46.5497
46.6148
46.8552
47.2
46.9572
46.9819
46.9071
46.9168
46.9138
46.8191
11.9694
11.513
8.22552
10.7328
10.8832
3.00713
11.3471
5.64101
14.7916
22.5257
32.3636
37.1241
40.6294
42.7724
44.1808
44.7305
45.2828
45.6477
45.9387
46.1915
46.3295
46.1481
45.7651
45.2537
44.9924
44.8098
44.0868
43.9311
43.6383
43.5864
43.5767
43.6454
11.74
11.7184
10.6584
6.682
9.89878
6.28944
2.1266
7.39424
5.91093
9.66376
26.7635
33.6531
36.441
38.429
39.8913
41.648
42.5563
43.0523
43.135
43.0572
42.7619
42.2334
42.1162
42.2059
42.4231
42.8101
41.9383
42.0499
41.8452
41.8813
41.5697
41.1927
11.3208
11.7628
4.31882
11.3001
9.24773
11.5431
10.4169
8.95558
6.56504
6.27811
3.55434
19.6834
29.9938
35.4856
38.492
39.22
40.0617
40.5621
40.986
41.3588
41.1985
40.6787
39.5575
37.2423
34.6895
31.8352
28.1519
24.9364
21.3469
17.6486
12.7164
12.2025
7.50983
11.4723
9.83221
8.86504
11.4643
11.6323
11.8059
12.0865
6.64666
7.80077
8.35825
7.65226
6.19412
5.57286
18.3109
26.7663
29.9886
31.0993
30.4079
27.9663
23.369
17.2193
11.4589
7.59513
19.9797
15.9939
5.60828
14.946
9.31907
17.0814
16.2644
16.7155
6.48796
11.9732
8.36478
9.21029
16.2967
21.6087
24.404
25.0813
23.2959
17.3344
10.0756
14.6781
13.2939
13.2704
14.7283
5.74617
17.1597
14.908
6.86414
2.27866
12.4399
15.9234
4.17
6.165
12.2283
12.8442
17.5637
11.4446
10.7988
12.8445
10.1366
14.7638
8.33016
12.0397
11.5963
9.2933
14.7349
21.9761
26.4712
28.3743
28.5161
27.8586
25.2874
17.7572
2.86689
4.45319
9.19738
8.09795
14.9181
4.47453
12.019
12.3603
13.2504
17.2895
14.1269
17.8371
7.50866
10.2947
15.6687
18.9091
21.0139
22.5227
23.6268
24.0212
8.18854
14.5059
15.043
13.349
14.8864
20.2126
25.2025
28.3107
29.6679
29.5372
27.5911
25.0177
24.1458
22.9927
19.7742
15.1357
10.6705
2.86066
10.4056
11.2725
14.3899
18.1643
20.6552
22.7941
24.6566
26.5689
26.4896
26.8328
26.775
26.7906
26.8641
26.8113
6.90363
15.613
18.0308
18.3405
18.763
21.2419
24.7167
27.7425
29.5688
30.0509
28.8332
25.276
22.4067
23.8988
24.5674
25.3519
24.958
24.4241
23.7404
24.9067
25.2043
25.3118
25.4379
25.7983
26.3558
26.9313
26.7986
27.2951
27.2755
27.1861
27.036
26.9491
5.7282
15.5874
19.2676
21.2051
22.2749
23.6434
25.5483
27.4225
28.5399
28.0509
25.0234
19.6375
18.5626
21.5519
22.9627
24.41
24.5239
24.6813
24.8228
24.5631
24.6117
24.7474
24.9618
25.2512
25.3847
25.5046
24.7487
24.3516
23.788
23.164
22.5866
22.2475
4.62532
14.256
18.5484
21.4177
23.2554
24.5416
25.5839
26.265
26.0044
23.9091
19.095
11.0886
4.85076
9.14904
11.3912
18.6947
21.3716
22.2226
22.1566
21.4301
20.277
19.7602
19.7643
20.074
19.934
19.87
20.0646
20.3462
20.5477
20.6138
20.6589
20.6905
3.47957
11.525
15.7906
19.255
21.7194
23.2842
24.0831
24.0878
22.856
20.0284
12.8972
5.55748
11.5122
13.2811
13.9321
10.876
11.9529
14.0969
14.8356
14.9462
15.5129
16.5093
17.6231
18.6519
19.4779
20.0845
20.3505
20.4861
20.5286
20.4295
20.2418
20.1061
3.15978
10.1136
12.0733
15.2391
18.0956
19.9738
20.7425
20.2709
18.2576
13.2069
8.04065
8.07547
10.754
10.009
11.892
15.8516
16.9378
17.1044
17.4157
17.6853
17.7362
17.8546
18.1332
18.4831
18.5948
18.6964
18.9376
19.0736
19.186
19.2436
19.2309
19.218
2.18806
7.21421
9.33474
11.4215
12.1049
13.3142
13.4496
11.9897
6.22131
9.01594
4.13949
9.50011
11.5156
11.6821
12.384
11.8745
13.1372
14.4627
15.1677
15.5591
15.9782
16.5494
17.1602
17.7361
18.1974
18.5937
18.93
19.1187
19.2896
19.387
19.4081
19.411
1.87058
6.17918
7.11112
7.9823
8.92998
9.34506
9.07508
7.69821
7.08147
7.91948
10.9916
11.5833
11.5298
11.6784
12.5415
14.3027
15.0605
15.5037
15.9366
16.3424
16.6856
17.0658
17.5079
17.9731
18.4021
18.8657
19.3042
19.6062
19.8453
19.9803
20.029
20.0482
2.43135
7.74147
9.39404
10.5686
11.4063
11.4857
11.5007
11.4964
11.5147
11.481
11.1922
11.4342
11.6263
12.5928
13.3191
13.6295
14.341
15.1137
15.7349
16.2718
16.8521
17.46
18.0687
18.6614
19.2083
19.7058
20.1542
20.4532
20.6907
20.8196
20.8593
20.8733
2.31775
7.69176
9.36334
10.6323
11.5523
11.9488
12.1112
11.8245
11.5389
11.4695
11.5781
11.9751
12.9453
13.4762
14.0911
14.916
15.5872
16.1612
16.7208
17.2724
17.8108
18.3686
18.9515
19.5382
20.0983
20.6372
21.1283
21.4753
21.7355
21.8729