/*--------------------------------*- C++ -*----------------------------------*\
  =========                 |
  \\      /  F ield         | OpenFOAM: The Open Source CFD Toolbox
   \\    /   O peration     | Website:  https://openfoam.org
    \\  /    A nd           | Version:  6
     \\/     M anipulation  |
\*---------------------------------------------------------------------------*/
FoamFile
{
    version     2.0;
    format      ascii;
    class       volVectorField;
    location    "0.2";
    object      wallShearStress;
}
// * * * * * * * * * * * * * * * * * * * * * * * * * * * * * * * * * * * * * //

dimensions      [0 2 -2 0 0 0 0];

internalField   uniform (0 0 0);

boundaryField
{
    inlet
    {
        type            calculated;
        value           uniform (0 0 0);
    }
    outlet
    {
        type            calculated;
        value           uniform (0 0 0);
    }
    roughCylinder
    {
        type            calculated;
        value           nonuniform List<vector> 
5120
(
(-0.000516966 -0.000757059 -0.000403978)
(-0.000471154 -0.000665275 -2.33321e-05)
(-0.000407533 -0.000589225 3.86621e-05)
(-0.000456369 -0.000615573 9.30529e-05)
(-0.000509704 -0.000629257 0.000130059)
(-0.000553795 -0.000625569 0.000148673)
(-0.000597149 -0.000622552 0.000158537)
(-0.000639062 -0.000624723 0.000166144)
(-0.000679149 -0.000632222 0.000172485)
(-0.000716916 -0.000644346 0.000177405)
(-0.000751082 -0.000659738 0.000180678)
(-0.000780989 -0.000677227 0.000182267)
(-0.000806818 -0.000695918 0.000182454)
(-0.000829498 -0.000715186 0.000181668)
(-0.000850359 -0.00073465 0.000180267)
(-0.000870701 -0.000754151 0.000178402)
(-0.000891435 -0.000773697 0.000176002)
(-0.000912973 -0.000793392 0.000172865)
(-0.0009354 -0.000813384 0.00016878)
(-0.0009586 -0.000833796 0.000163581)
(-0.000982439 -0.00085474 0.000157183)
(-0.00100687 -0.000876293 0.000149567)
(-0.0010319 -0.000898485 0.000140749)
(-0.0010575 -0.000921236 0.000130705)
(-0.00108357 -0.000944386 0.000119408)
(-0.00110988 -0.000967717 0.000106712)
(-0.00113608 -0.000990939 9.26094e-05)
(-0.00116152 -0.00101356 7.68057e-05)
(-0.00118524 -0.00103497 5.98241e-05)
(-0.00120512 -0.001054 4.19535e-05)
(-0.00122094 -0.0010693 2.72722e-05)
(-0.00123291 -0.00107865 1.11421e-05)
(-0.000741636 -0.000981767 -0.000537003)
(-0.000525723 -0.000688903 -3.12588e-05)
(-0.00044947 -0.00060049 3.20518e-05)
(-0.000493369 -0.000621139 8.69505e-05)
(-0.000548465 -0.000635534 0.000125247)
(-0.00059462 -0.000633272 0.000144633)
(-0.000639613 -0.000630973 0.000155383)
(-0.000682506 -0.000631767 0.00016339)
(-0.000723 -0.000637254 0.000169439)
(-0.000761785 -0.000648145 0.000173947)
(-0.000797454 -0.000662946 0.000176927)
(-0.000829102 -0.000680306 0.000178287)
(-0.000856686 -0.000699139 0.000178257)
(-0.000880969 -0.000718654 0.000177244)
(-0.000903199 -0.000738343 0.000175623)
(-0.000924705 -0.000757979 0.000173572)
(-0.000946484 -0.000777559 0.000171046)
(-0.000969053 -0.000797195 0.000167857)
(-0.000992541 -0.000817058 0.000163788)
(-0.00101688 -0.000837284 0.000158664)
(-0.00104187 -0.000857958 0.000152374)
(-0.00106742 -0.000879155 0.000144881)
(-0.00109352 -0.000900938 0.000136208)
(-0.00112018 -0.000923273 0.000126343)
(-0.00114731 -0.000946019 0.000115268)
(-0.00117469 -0.000968953 0.000102839)
(-0.00120198 -0.000991799 8.90595e-05)
(-0.00122849 -0.0010141 7.36432e-05)
(-0.00125327 -0.00103525 5.7138e-05)
(-0.00127409 -0.00105409 3.98406e-05)
(-0.00129069 -0.00106929 2.58865e-05)
(-0.00130318 -0.00107858 1.0657e-05)
(-0.000747056 -0.000891338 -0.000487458)
(-0.000570469 -0.000685506 -3.95102e-05)
(-0.000489676 -0.000602206 2.38283e-05)
(-0.000532828 -0.000623349 7.98797e-05)
(-0.000589897 -0.000639163 0.000119938)
(-0.000637969 -0.000638289 0.000140724)
(-0.000683975 -0.000635871 0.000152458)
(-0.000727338 -0.000635026 0.000160745)
(-0.000767703 -0.000638137 0.00016633)
(-0.000807036 -0.000647465 0.000170205)
(-0.000843864 -0.000661372 0.000172738)
(-0.000877063 -0.000678353 0.000173785)
(-0.000906344 -0.000697125 0.00017351)
(-0.000932234 -0.000716713 0.000172272)
(-0.000955847 -0.000736464 0.000170434)
(-0.000978482 -0.000756065 0.000168194)
(-0.0010012 -0.000775482 0.000165534)
(-0.00102463 -0.00079484 0.00016228)
(-0.00104897 -0.000814324 0.00015822)
(-0.00107419 -0.000834106 0.000153174)
(-0.00110013 -0.000854263 0.000147014)
(-0.0011266 -0.00087485 0.000139679)
(-0.00115356 -0.000895928 0.000131184)
(-0.001181 -0.00091751 0.000121524)
(-0.00120891 -0.000939506 0.000110699)
(-0.00123706 -0.000961709 9.85755e-05)
(-0.00126513 -0.000983852 8.51628e-05)
(-0.00129243 -0.0010055 7.01876e-05)
(-0.00131799 -0.00102607 5.42198e-05)
(-0.00133955 -0.00104447 3.75637e-05)
(-0.00135676 -0.00105934 2.43933e-05)
(-0.00136962 -0.0010684 1.01272e-05)
(-0.000703858 -0.000763039 -0.000400772)
(-0.000621335 -0.000673152 -5.03727e-05)
(-0.000533226 -0.00060309 1.47444e-05)
(-0.000573695 -0.000622927 7.19682e-05)
(-0.000633251 -0.000640898 0.000114216)
(-0.000683026 -0.00064144 0.00013683)
(-0.000729558 -0.000638477 0.000149639)
(-0.00077292 -0.000635894 0.000158213)
(-0.000812724 -0.00063628 0.000163302)
(-0.000852111 -0.000643687 0.000166429)
(-0.000889708 -0.000656362 0.000168413)
(-0.000924184 -0.000672657 0.000169078)
(-0.000955023 -0.000691131 0.000168523)
(-0.000982512 -0.000710635 0.000167059)
(-0.00100758 -0.000730359 0.00016502)
(-0.00103143 -0.000749875 0.000162608)
(-0.00105514 -0.000769082 0.000159821)
(-0.00107941 -0.00078811 0.000156506)
(-0.00110452 -0.000807152 0.000152458)
(-0.00113056 -0.000826419 0.000147502)
(-0.00115735 -0.000845991 0.000141491)
(-0.0011847 -0.000865915 0.000134349)
(-0.00121248 -0.000886232 0.00012607)
(-0.00124064 -0.000906962 0.000116641)
(-0.00126919 -0.00092807 0.000106079)
(-0.00129796 -0.000949389 9.42686e-05)
(-0.00132665 -0.000970676 8.12309e-05)
(-0.00135459 -0.000991522 6.67024e-05)
(-0.0013808 -0.00101138 5.12802e-05)
(-0.00140297 -0.00102921 3.5272e-05)
(-0.00142072 -0.00104365 2.28915e-05)
(-0.00143386 -0.00105241 9.59442e-06)
(-0.000965355 -0.000928361 -0.000484148)
(-0.000669668 -0.000667722 -5.9173e-05)
(-0.000578441 -0.000598342 5.05127e-06)
(-0.000616016 -0.000619541 6.30382e-05)
(-0.000677914 -0.000640351 0.000107854)
(-0.000729294 -0.000642212 0.000132696)
(-0.000776057 -0.000638429 0.000146717)
(-0.000818901 -0.000633867 0.000155568)
(-0.000857868 -0.000631421 0.000160189)
(-0.000896785 -0.000636545 0.000162546)
(-0.000934637 -0.000647573 0.000163913)
(-0.000970002 -0.000662805 0.000164149)
(-0.00100215 -0.000680653 0.000163297)
(-0.00103113 -0.000699817 0.000161608)
(-0.00105764 -0.000719338 0.000159386)
(-0.00108275 -0.000738649 0.000156821)
(-0.0011075 -0.000757578 0.000153922)
(-0.00113261 -0.000776203 0.000150554)
(-0.00115846 -0.000794733 0.000146526)
(-0.00118521 -0.000813394 0.000141664)
(-0.00121275 -0.000832302 0.000135818)
(-0.0012409 -0.000851503 0.000128897)
(-0.00126946 -0.000871011 0.000120873)
(-0.00129833 -0.000890832 0.000111712)
(-0.00132749 -0.000910964 0.000101439)
(-0.00135676 -0.00093128 8.9955e-05)
(-0.00138593 -0.000951566 7.72973e-05)
(-0.00141436 -0.000971476 6.32203e-05)
(-0.00144108 -0.000990496 4.83463e-05)
(-0.00146379 -0.00100764 3.29881e-05)
(-0.001482 -0.00102158 2.13971e-05)
(-0.00149534 -0.00102995 9.0648e-06)
(-0.000930389 -0.000795483 -0.000409195)
(-0.00071448 -0.000651522 -6.68939e-05)
(-0.00061991 -0.000585964 -5.75626e-06)
(-0.00065939 -0.000613267 5.32049e-05)
(-0.00072383 -0.000637334 0.000100833)
(-0.000776719 -0.000640516 0.000128207)
(-0.000823516 -0.000635787 0.000143576)
(-0.000865534 -0.00062909 0.000152735)
(-0.000903375 -0.000623784 0.00015695)
(-0.00094125 -0.000626268 0.000158541)
(-0.000978808 -0.000635258 0.000159241)
(-0.00101458 -0.000649017 0.000159003)
(-0.00104768 -0.000665867 0.000157832)
(-0.00107793 -0.00068437 0.000155926)
(-0.00110581 -0.000703435 0.000153535)
(-0.00113218 -0.00072237 0.000150834)
(-0.00115798 -0.000740889 0.000147841)
(-0.00118396 -0.000759021 0.000144432)
(-0.00121052 -0.000776953 0.000140429)
(-0.00123792 -0.000794928 0.000135665)
(-0.00126611 -0.000813082 0.000129992)
(-0.00129495 -0.000831486 0.000123312)
(-0.00132426 -0.000850131 0.000115573)
(-0.00135384 -0.000869015 0.00010672)
(-0.00138361 -0.000888131 9.67728e-05)
(-0.00141338 -0.00090737 8.56376e-05)
(-0.00144295 -0.000926568 7.33714e-05)
(-0.00147178 -0.000945444 5.97502e-05)
(-0.00149894 -0.000963523 4.54276e-05)
(-0.0015221 -0.000979904 3.07191e-05)
(-0.00154075 -0.00099326 1.99164e-05)
(-0.00155423 -0.0010012 8.5419e-06)
(-0.00100565 -0.000774768 -0.000371395)
(-0.000795568 -0.000646267 -8.05141e-05)
(-0.000671674 -0.000580431 -1.77632e-05)
(-0.000703664 -0.000604421 4.26559e-05)
(-0.000770582 -0.000631508 9.33138e-05)
(-0.000824975 -0.000636136 0.000123376)
(-0.000871793 -0.000630597 0.000140189)
(-0.000912806 -0.000621788 0.000149692)
(-0.000949326 -0.000613712 0.000153584)
(-0.000985621 -0.000613282 0.000154443)
(-0.00102229 -0.000619882 0.000154426)
(-0.00105792 -0.000631783 0.000153674)
(-0.00109151 -0.000647234 0.000152157)
(-0.00112272 -0.000664725 0.000150022)
(-0.00115177 -0.000683042 0.000147475)
(-0.00117933 -0.000701373 0.000144661)
(-0.00120619 -0.000719319 0.00014159)
(-0.00123303 -0.000736843 0.000138152)
(-0.0012603 -0.000754087 0.000134182)
(-0.0012883 -0.000771287 0.000129523)
(-0.00131705 -0.000788599 0.000124027)
(-0.00134652 -0.000806128 0.000117598)
(-0.0013765 -0.000823864 0.000110165)
(-0.00140679 -0.000841782 0.000101655)
(-0.00143722 -0.000859866 9.207e-05)
(-0.00146753 -0.000878013 8.13134e-05)
(-0.00149752 -0.00089609 6.94561e-05)
(-0.00152674 -0.000913881 5.62996e-05)
(-0.0015543 -0.000930974 4.25299e-05)
(-0.00157792 -0.00094655 2.84695e-05)
(-0.00159701 -0.0009593 1.84544e-05)
(-0.00161061 -0.00096677 8.02878e-06)
(-0.00106258 -0.000732129 -0.000320629)
(-0.000845672 -0.000609155 -9.26879e-05)
(-0.000716051 -0.000564312 -2.97242e-05)
(-0.00074782 -0.000592243 3.15875e-05)
(-0.000817416 -0.000622616 8.5256e-05)
(-0.000873499 -0.000628839 0.000118117)
(-0.000920405 -0.000622676 0.000136454)
(-0.00096041 -0.000611945 0.000146364)
(-0.000995532 -0.000601302 0.000150059)
(-0.00102981 -0.000597812 0.000150256)
(-0.00106506 -0.000601777 0.00014949)
(-0.00109997 -0.000611497 0.000148189)
(-0.00113356 -0.000625203 0.000146301)
(-0.00116531 -0.000641328 0.000143929)
(-0.00119525 -0.000658576 0.00014123)
(-0.00122382 -0.00067604 0.000138316)
(-0.00125166 -0.000693215 0.000135186)
(-0.00127933 -0.000709977 0.000131736)
(-0.00130729 -0.000726419 0.000127811)
(-0.00133585 -0.000742752 0.00012326)
(-0.00136511 -0.000759136 0.000117946)
(-0.00139511 -0.000775708 0.00011177)
(-0.00142568 -0.00079246 0.000104654)
(-0.00145663 -0.000809377 9.6507e-05)
(-0.00148775 -0.000826423 8.73187e-05)
(-0.00151868 -0.000843474 7.69735e-05)
(-0.00154918 -0.000860427 6.55481e-05)
(-0.00157884 -0.000877135 5.28683e-05)
(-0.00160684 -0.000893223 3.96564e-05)
(-0.00163096 -0.000907987 2.62416e-05)
(-0.00165055 -0.000920131 1.70136e-05)
(-0.00166428 -0.00092713 7.52674e-06)
(-0.000973482 -0.000591799 -0.000239295)
(-0.000881692 -0.000566396 -0.000101836)
(-0.000764219 -0.000546221 -4.17295e-05)
(-0.000791768 -0.000576762 1.99002e-05)
(-0.000863703 -0.000610358 7.65569e-05)
(-0.000921668 -0.000618308 0.000112292)
(-0.000968943 -0.00061186 0.000132258)
(-0.0010081 -0.000599519 0.000142671)
(-0.00104191 -0.000586615 0.000146331)
(-0.00107381 -0.000580019 0.000145967)
(-0.00110715 -0.000581215 0.000144447)
(-0.00114082 -0.000588515 0.000142576)
(-0.00117385 -0.000600172 0.000140294)
(-0.00120566 -0.000614602 0.000137672)
(-0.0012361 -0.000630469 0.000134823)
(-0.00126542 -0.000646785 0.000131822)
(-0.00129406 -0.00066296 0.000128652)
(-0.00132247 -0.000678781 0.000125205)
(-0.00135106 -0.000694285 0.000121337)
(-0.00138011 -0.000709636 0.000116904)
(-0.00140981 -0.000724995 0.000111772)
(-0.00144023 -0.000740514 0.000105848)
(-0.00147129 -0.0007562 9.90509e-05)
(-0.00150282 -0.000772052 9.12799e-05)
(-0.0015346 -0.000788021 8.25097e-05)
(-0.00156621 -0.000803972 7.2605e-05)
(-0.00159731 -0.000819807 6.16388e-05)
(-0.00162751 -0.000835428 4.94522e-05)
(-0.00165604 -0.000850521 3.68032e-05)
(-0.00168075 -0.000864481 2.40336e-05)
(-0.00170092 -0.000876031 1.55937e-05)
(-0.00171481 -0.000882555 7.03613e-06)
(-0.00129843 -0.00067976 -0.000270694)
(-0.000920599 -0.000536671 -0.000108933)
(-0.000806015 -0.000519328 -5.29758e-05)
(-0.000834626 -0.000557583 7.96051e-06)
(-0.0009089 -0.000594628 6.72544e-05)
(-0.00096896 -0.000604369 0.000105847)
(-0.00101679 -0.000597873 0.000127507)
(-0.00105539 -0.000584316 0.000138521)
(-0.00108809 -0.000569583 0.000142331)
(-0.00111748 -0.000559935 0.000141546)
(-0.00114859 -0.000558362 0.000139288)
(-0.00118056 -0.000563133 0.000136847)
(-0.00121255 -0.000572542 0.000134163)
(-0.00124392 -0.000585019 0.000131282)
(-0.00127442 -0.000599219 0.000128282)
(-0.00130411 -0.000614109 0.000125204)
(-0.00133328 -0.00062904 0.000122008)
(-0.00136224 -0.000643718 0.000118582)
(-0.0013913 -0.000658122 0.000114784)
(-0.00142075 -0.000672362 0.000110476)
(-0.00145076 -0.000686588 0.00010553)
(-0.00148148 -0.000700946 9.98565e-05)
(-0.00151288 -0.00071547 9.3375e-05)
(-0.00154486 -0.00073016 8.59811e-05)
(-0.00157721 -0.000744989 7.76388e-05)
(-0.00160948 -0.000759806 6.81969e-05)
(-0.00164124 -0.000774508 5.77155e-05)
(-0.00167207 -0.000789036 4.6042e-05)
(-0.00170122 -0.00080313 3.39649e-05)
(-0.00172662 -0.000816289 2.18415e-05)
(-0.00174748 -0.000827251 1.41912e-05)
(-0.00176157 -0.000833294 6.55487e-06)
(-0.00123839 -0.000564188 -0.000210373)
(-0.000982254 -0.000507538 -0.000118104)
(-0.000852498 -0.000494218 -6.51647e-05)
(-0.000876061 -0.000535037 -4.15375e-06)
(-0.0009525 -0.000575054 5.75269e-05)
(-0.00101475 -0.000586724 9.88499e-05)
(-0.00106348 -0.000580551 0.000122207)
(-0.00110183 -0.000566176 0.000133899)
(-0.00113361 -0.000550064 0.00013798)
(-0.00116067 -0.000537599 0.000136917)
(-0.00118933 -0.000533341 0.000133994)
(-0.00121929 -0.000535563 0.000130999)
(-0.00124979 -0.000542619 0.000127913)
(-0.00128025 -0.000552969 0.000124774)
(-0.00131035 -0.000565284 0.000121627)
(-0.00134001 -0.000578516 0.00011848)
(-0.00136936 -0.000591974 0.000115271)
(-0.00139859 -0.000605318 0.000111884)
(-0.00142792 -0.000618448 0.000108172)
(-0.00145758 -0.000631443 0.000103998)
(-0.00148773 -0.000644416 9.92426e-05)
(-0.00151857 -0.000657505 9.38176e-05)
(-0.00155012 -0.000670755 8.76456e-05)
(-0.00158235 -0.00068419 8.06237e-05)
(-0.0016151 -0.000697783 7.27111e-05)
(-0.00164791 -0.000711393 6.37428e-05)
(-0.00168032 -0.000724919 5.37675e-05)
(-0.00171182 -0.000738321 4.26272e-05)
(-0.00174167 -0.000751391 3.11333e-05)
(-0.00176783 -0.000763735 1.96598e-05)
(-0.00178944 -0.000774089 1.28019e-05)
(-0.00180378 -0.000779646 6.08043e-06)
(-0.00118289 -0.000466711 -0.000149401)
(-0.00101446 -0.000453739 -0.000126886)
(-0.00089249 -0.000463506 -7.63548e-05)
(-0.000915202 -0.000508635 -1.61712e-05)
(-0.000993779 -0.000551435 4.745e-05)
(-0.00105833 -0.000565145 9.12914e-05)
(-0.00110815 -0.000559584 0.000116287)
(-0.00114668 -0.000544861 0.000128746)
(-0.00117772 -0.000527733 0.000133155)
(-0.00120294 -0.000512938 0.000131968)
(-0.00122917 -0.000506178 0.000128512)
(-0.00125695 -0.000505946 0.000125004)
(-0.00128567 -0.000510653 0.00012154)
(-0.00131483 -0.000518798 0.000118155)
(-0.00134409 -0.000529079 0.000114869)
(-0.00137329 -0.000540479 0.000111664)
(-0.00140243 -0.000552281 0.00010846)
(-0.00143158 -0.000564102 0.000105125)
(-0.00146089 -0.00057581 0.000101513)
(-0.0014905 -0.00058742 9.74863e-05)
(-0.00152058 -0.000599027 9.29268e-05)
(-0.00155133 -0.000610748 8.77508e-05)
(-0.00158279 -0.000622627 8.18834e-05)
(-0.00161502 -0.000634698 7.52257e-05)
(-0.0016479 -0.00064695 6.77357e-05)
(-0.00168104 -0.000659268 5.92437e-05)
(-0.00171396 -0.000671545 4.97872e-05)
(-0.00174608 -0.000683763 3.91982e-05)
(-0.00177661 -0.000695756 2.83006e-05)
(-0.00180356 -0.000707238 1.74833e-05)
(-0.00182596 -0.000716953 1.14206e-05)
(-0.00184054 -0.000721991 5.60981e-06)
(-0.00118726 -0.000393139 -0.000113668)
(-0.00105215 -0.000409949 -0.000133757)
(-0.00093174 -0.000429501 -8.70734e-05)
(-0.000951535 -0.000478459 -2.81827e-05)
(-0.00103198 -0.000523927 3.68938e-05)
(-0.00109899 -0.000539681 8.30461e-05)
(-0.00115023 -0.000535007 0.000109645)
(-0.00118913 -0.000520222 0.00012294)
(-0.00121971 -0.000502394 0.000127713)
(-0.00124371 -0.000485808 0.000126587)
(-0.0012676 -0.000476821 0.000122784)
(-0.00129319 -0.000474297 0.000118802)
(-0.00131999 -0.000476749 0.000115008)
(-0.0013476 -0.000482708 0.000111404)
(-0.00137569 -0.000490919 0.000108002)
(-0.00140404 -0.000500383 0.000104761)
(-0.00143259 -0.000510402 0.000101578)
(-0.00146132 -0.000520578 9.83162e-05)
(-0.00149028 -0.000530735 9.48223e-05)
(-0.00151957 -0.000540856 9.09558e-05)
(-0.0015493 -0.000550999 8.66008e-05)
(-0.00157966 -0.000561262 8.1675e-05)
(-0.00161076 -0.000571682 7.61081e-05)
(-0.00164268 -0.000582303 6.98061e-05)
(-0.00167539 -0.000593122 6.27294e-05)
(-0.00170855 -0.00060405 5.47073e-05)
(-0.00174172 -0.000614996 4.57744e-05)
(-0.00177429 -0.000625951 3.57505e-05)
(-0.0018054 -0.000636788 2.54617e-05)
(-0.00183309 -0.000647351 1.5309e-05)
(-0.00185622 -0.00065637 1.00439e-05)
(-0.00187103 -0.000660844 5.14028e-06)
(-0.00101449 -0.000276865 -7.08006e-05)
(-0.00104753 -0.000350779 -0.000134823)
(-0.000960631 -0.000389313 -9.61826e-05)
(-0.00098408 -0.000444705 -3.98744e-05)
(-0.00106649 -0.000492615 2.60126e-05)
(-0.001136 -0.000510385 7.41562e-05)
(-0.00118876 -0.000506758 0.000102246)
(-0.00122848 -0.000492295 0.000116409)
(-0.00125893 -0.000474104 0.000121528)
(-0.0012826 -0.00045647 0.000120712)
(-0.00130416 -0.000445216 0.000116782)
(-0.00132764 -0.000440643 0.000112359)
(-0.00135249 -0.000441005 0.000108279)
(-0.00137838 -0.00044487 0.000104499)
(-0.00140504 -0.000451033 0.000101013)
(-0.00143225 -0.000458543 9.77608e-05)
(-0.00145987 -0.000466728 9.46266e-05)
(-0.00148783 -0.000475177 9.14592e-05)
(-0.00151611 -0.000483706 8.8102e-05)
(-0.00154475 -0.000492269 8.44123e-05)
(-0.00157384 -0.000500889 8.02745e-05)
(-0.00160355 -0.000509642 7.56049e-05)
(-0.00163399 -0.000518552 7.03373e-05)
(-0.00166529 -0.000527669 6.43837e-05)
(-0.00169747 -0.000536989 5.77098e-05)
(-0.00173027 -0.000546448 5.01487e-05)
(-0.00176334 -0.000555978 4.17358e-05)
(-0.00179606 -0.000565602 3.22824e-05)
(-0.00182753 -0.000575215 2.26142e-05)
(-0.00185578 -0.000584775 1.31348e-05)
(-0.00187952 -0.000593026 8.66778e-06)
(-0.00189448 -0.0005969 4.66907e-06)
(-0.00155572 -0.000335138 -8.00292e-05)
(-0.00113132 -0.000323516 -0.000145425)
(-0.000996986 -0.000350137 -0.000105447)
(-0.00101295 -0.000407762 -5.1434e-05)
(-0.00109671 -0.000457722 1.48362e-05)
(-0.00116868 -0.000477391 6.46685e-05)
(-0.00122303 -0.000474976 9.41147e-05)
(-0.00126351 -0.000461035 0.000109098)
(-0.00129433 -0.000442898 0.000114567)
(-0.00131826 -0.000424971 0.000114116)
(-0.00133836 -0.000411566 0.000110319)
(-0.00135971 -0.000405002 0.000105642)
(-0.00138265 -0.000403412 0.000101323)
(-0.0014068 -0.000405318 9.74147e-05)
(-0.00143189 -0.000409537 9.38847e-05)
(-0.00145773 -0.000415147 9.06553e-05)
(-0.00148415 -0.000421513 8.7599e-05)
(-0.00151104 -0.000428237 8.45543e-05)
(-0.00153835 -0.000435124 8.13576e-05)
(-0.00156605 -0.000442102 7.78626e-05)
(-0.00159421 -0.00044918 7.39535e-05)
(-0.00162296 -0.000456402 6.95472e-05)
(-0.00165244 -0.000463792 6.45808e-05)
(-0.00168277 -0.000471378 5.89712e-05)
(-0.00171405 -0.000479172 5.26906e-05)
(-0.00174611 -0.000487116 4.55792e-05)
(-0.00177865 -0.000495182 3.76786e-05)
(-0.00181113 -0.000503395 2.87968e-05)
(-0.00184264 -0.000511698 1.97549e-05)
(-0.00187119 -0.000520168 1.09567e-05)
(-0.00189536 -0.000527572 7.29072e-06)
(-0.00191035 -0.000530794 4.1959e-06)
(-0.00125759 -0.000206808 -3.66495e-05)
(-0.00114512 -0.000266346 -0.000146462)
(-0.00102501 -0.000306649 -0.000114459)
(-0.00103732 -0.000367484 -6.28249e-05)
(-0.00112204 -0.000419248 3.53525e-06)
(-0.00119637 -0.000440832 5.47084e-05)
(-0.00125213 -0.00043974 8.53146e-05)
(-0.00129366 -0.00042672 0.000101059)
(-0.00132483 -0.000408953 0.000106908)
(-0.00134912 -0.000391205 0.000106669)
(-0.00136934 -0.000376778 0.00010317)
(-0.00138899 -0.000368068 9.85629e-05)
(-0.00141006 -0.00036447 9.41164e-05)
(-0.00143245 -0.000364436 9.01465e-05)
(-0.00145591 -0.000366756 8.66261e-05)
(-0.00148023 -0.000370513 8.34638e-05)
(-0.00150525 -0.000375087 8.05175e-05)
(-0.00153082 -0.000380093 7.76205e-05)
(-0.00155687 -0.000385332 7.46041e-05)
(-0.00158338 -0.000390735 7.13207e-05)
(-0.00161035 -0.000396286 6.76554e-05)
(-0.00163789 -0.000402004 6.35219e-05)
(-0.00166613 -0.000407899 5.886e-05)
(-0.00169521 -0.000413991 5.35937e-05)
(-0.00172524 -0.000420279 4.76985e-05)
(-0.00175616 -0.000426747 4.10258e-05)
(-0.00178776 -0.000433365 3.36274e-05)
(-0.00181957 -0.0004402 2.53112e-05)
(-0.00185072 -0.000447242 1.68985e-05)
(-0.00187925 -0.000454746 8.78823e-06)
(-0.00190357 -0.000461424 5.91711e-06)
(-0.00191845 -0.000463883 3.7194e-06)
(-0.0016029 -0.000177112 -1.75789e-05)
(-0.00119671 -0.000220361 -0.000153499)
(-0.0010528 -0.000261523 -0.000122869)
(-0.00105775 -0.000324627 -7.38003e-05)
(-0.00114195 -0.000377738 -7.90615e-06)
(-0.00121823 -0.00040101 4.42951e-05)
(-0.00127542 -0.000401348 7.58912e-05)
(-0.00131769 -0.000389427 9.23008e-05)
(-0.00134937 -0.000372488 9.85907e-05)
(-0.00137398 -0.000355278 9.85986e-05)
(-0.00139451 -0.000340855 9.53082e-05)
(-0.00141386 -0.000331002 9.09301e-05)
(-0.0014336 -0.00032562 8.65985e-05)
(-0.0014544 -0.000323701 8.26864e-05)
(-0.00147626 -0.000324138 7.92517e-05)
(-0.00149901 -0.000326057 7.62076e-05)
(-0.00152253 -0.000328842 7.34103e-05)
(-0.00154667 -0.00033212 7.06897e-05)
(-0.00157132 -0.000335706 6.78773e-05)
(-0.00159644 -0.000339524 6.48255e-05)
(-0.00162201 -0.000343562 6.14176e-05)
(-0.00164811 -0.000347815 5.75671e-05)
(-0.00167486 -0.000352283 5.32146e-05)
(-0.0017024 -0.000356963 4.82892e-05)
(-0.00173086 -0.000361841 4.2772e-05)
(-0.00176022 -0.000366903 3.65243e-05)
(-0.00179037 -0.000372112 2.96111e-05)
(-0.0018209 -0.000377576 2.18495e-05)
(-0.00185102 -0.000383336 1.40653e-05)
(-0.00187864 -0.000389833 6.64547e-06)
(-0.0019023 -0.00039571 4.54999e-06)
(-0.00191712 -0.000397401 3.23633e-06)
(-0.00146798 -9.33288e-05 1.347e-05)
(-0.00121658 -0.000159904 -0.00015534)
(-0.00106615 -0.000212528 -0.000130321)
(-0.00107025 -0.000278706 -8.40123e-05)
(-0.00115581 -0.000333321 -1.93108e-05)
(-0.00123386 -0.000358222 3.34804e-05)
(-0.00129221 -0.000360035 6.58763e-05)
(-0.00133519 -0.000349447 8.28793e-05)
(-0.00136701 -0.000333593 8.96114e-05)
(-0.00139177 -0.000317271 8.99845e-05)
(-0.00141228 -0.000303325 8.69786e-05)
(-0.00143119 -0.000293218 8.28067e-05)
(-0.00145009 -0.000286864 7.86422e-05)
(-0.00146967 -0.000283554 7.48952e-05)
(-0.00149009 -0.000282389 7.16311e-05)
(-0.00151134 -0.000282608 6.87671e-05)
(-0.00153334 -0.000283677 6.61653e-05)
(-0.001556 -0.000285264 6.36618e-05)
(-0.0015792 -0.000287215 6.10894e-05)
(-0.00160284 -0.000289464 5.83004e-05)
(-0.00162687 -0.000291995 5.51757e-05)
(-0.00165135 -0.000294795 5.16261e-05)
(-0.00167636 -0.000297842 4.75945e-05)
(-0.00170204 -0.000301118 4.30138e-05)
(-0.00172856 -0.00030459 3.78725e-05)
(-0.00175595 -0.00030823 3.20435e-05)
(-0.0017842 -0.000312025 2.56093e-05)
(-0.00181298 -0.000316092 1.83989e-05)
(-0.00184157 -0.000320516 1.12458e-05)
(-0.00186774 -0.00032584 4.52163e-06)
(-0.00189033 -0.000330732 3.18982e-06)
(-0.00190491 -0.000331738 2.74879e-06)
(-0.00137102 -2.40564e-05 4.72203e-05)
(-0.00122696 -9.45212e-05 -0.000160352)
(-0.00108587 -0.000164749 -0.000136863)
(-0.00108107 -0.000231777 -9.35586e-05)
(-0.00116364 -0.000286566 -3.05775e-05)
(-0.00124279 -0.000312806 2.23904e-05)
(-0.00130224 -0.000316167 5.5371e-05)
(-0.00134551 -0.000306972 7.28548e-05)
(-0.00137755 -0.000292462 8.00127e-05)
(-0.00140207 -0.000277243 8.07876e-05)
(-0.00142224 -0.000264034 7.81592e-05)
(-0.00144043 -0.000254065 7.42726e-05)
(-0.00145823 -0.00024728 7.03126e-05)
(-0.00147645 -0.000243065 6.67505e-05)
(-0.0014954 -0.000240674 6.36876e-05)
(-0.00151517 -0.000239476 6.10473e-05)
(-0.00153571 -0.000239037 5.86902e-05)
(-0.00155692 -0.000239102 5.64524e-05)
(-0.00157865 -0.000239545 5.41643e-05)
(-0.00160078 -0.000240322 5.16751e-05)
(-0.00162323 -0.000241413 4.8864e-05)
(-0.00164602 -0.000242809 4.56416e-05)
(-0.00166923 -0.000244473 4.19529e-05)
(-0.001693 -0.000246374 3.77345e-05)
(-0.00171748 -0.000248467 3.29816e-05)
(-0.00174276 -0.00025072 2.75811e-05)
(-0.00176887 -0.000253126 2.16303e-05)
(-0.00179558 -0.000255819 1.49726e-05)
(-0.00182223 -0.000258893 8.451e-06)
(-0.0018466 -0.000262953 2.425e-06)
(-0.00186779 -0.000266758 1.84533e-06)
(-0.00188193 -0.000267136 2.26158e-06)
(-0.00116872 3.8859e-05 6.02476e-05)
(-0.00118719 -3.50891e-05 -0.000156541)
(-0.00108341 -0.000112348 -0.000140713)
(-0.00108331 -0.00018269 -0.000102259)
(-0.00116534 -0.000238151 -4.16591e-05)
(-0.00124499 -0.000265417 1.10876e-05)
(-0.00130496 -0.000270146 4.4433e-05)
(-0.00134838 -0.000262395 6.2293e-05)
(-0.00138017 -0.00024926 6.98259e-05)
(-0.00140433 -0.000235282 7.10086e-05)
(-0.00142391 -0.000222972 6.87902e-05)
(-0.0014412 -0.000213382 6.52523e-05)
(-0.00145778 -0.00020645 6.15698e-05)
(-0.00147459 -0.000201655 5.82555e-05)
(-0.00149204 -0.000198356 5.54457e-05)
(-0.00151029 -0.000196029 5.30763e-05)
(-0.00152935 -0.000194347 5.10115e-05)
(-0.0015491 -0.000193118 4.90837e-05)
(-0.00156937 -0.000192256 4.71187e-05)
(-0.00158999 -0.000191738 4.49635e-05)
(-0.00161084 -0.000191547 4.2496e-05)
(-0.00163193 -0.000191669 3.96268e-05)
(-0.0016533 -0.000192066 3.63035e-05)
(-0.0016751 -0.000192699 3.24671e-05)
(-0.00169747 -0.000193515 2.81192e-05)
(-0.00172052 -0.000194482 2.31592e-05)
(-0.00174435 -0.000195591 1.76987e-05)
(-0.00176876 -0.00019698 1.15966e-05)
(-0.0017932 -0.000198746 5.70578e-06)
(-0.00181551 -0.000201527 3.76962e-07)
(-0.00183504 -0.000204226 5.29418e-07)
(-0.00184857 -0.000204036 1.77801e-06)
(-0.00148143 0.000130226 8.93775e-05)
(-0.00118928 1.30183e-05 -0.000156589)
(-0.00107938 -5.98901e-05 -0.000143119)
(-0.00107894 -0.000132739 -0.000109768)
(-0.00115953 -0.000188404 -5.24017e-05)
(-0.00123981 -0.000216497 -3.70025e-07)
(-0.00130012 -0.000222491 3.31358e-05)
(-0.00134352 -0.000216167 5.12731e-05)
(-0.0013748 -0.000204427 5.91372e-05)
(-0.00139817 -0.000191685 6.07114e-05)
(-0.00141679 -0.000180317 5.89105e-05)
(-0.00143299 -0.000171241 5.57609e-05)
(-0.0014483 -0.000164378 5.24204e-05)
(-0.00146373 -0.000159262 4.94256e-05)
(-0.00147975 -0.000155339 4.6934e-05)
(-0.00149656 -0.000152177 4.48935e-05)
(-0.00151418 -0.000149526 4.31696e-05)
(-0.00153245 -0.000147253 4.15921e-05)
(-0.00155122 -0.000145314 3.9985e-05)
(-0.00157029 -0.000143703 3.81941e-05)
(-0.00158954 -0.000142416 3.60979e-05)
(-0.00160893 -0.000141439 3.36073e-05)
(-0.0016285 -0.000140732 3.06728e-05)
(-0.00164835 -0.000140254 2.72388e-05)
(-0.00166862 -0.000139945 2.33132e-05)
(-0.00168944 -0.000139771 1.88061e-05)
(-0.00171091 -0.000139722 1.38425e-05)
(-0.00173287 -0.000139923 8.29847e-06)
(-0.00175494 -0.000140488 3.03649e-06)
(-0.00177497 -0.000142045 -1.60064e-06)
(-0.00179268 -0.00014368 -7.45218e-07)
(-0.00180543 -0.000142984 1.30183e-06)
(-0.00135178 0.000183802 9.5584e-05)
(-0.0012052 6.73591e-05 -0.000156405)
(-0.00108494 -8.53538e-06 -0.000146654)
(-0.00107494 -8.31e-05 -0.000116899)
(-0.00114952 -0.000138265 -6.27547e-05)
(-0.00122809 -0.000166747 -1.17401e-05)
(-0.00128777 -0.000173814 2.16923e-05)
(-0.00133063 -0.000168827 3.9958e-05)
(-0.00136128 -0.000158488 4.80836e-05)
(-0.00138373 -0.000146995 5.00274e-05)
(-0.00140117 -0.000136581 4.86478e-05)
(-0.00141601 -0.000128079 4.59116e-05)
(-0.00142989 -0.000121418 4.29573e-05)
(-0.00144385 -0.000116174 4.03325e-05)
(-0.00145843 -0.000111862 3.82094e-05)
(-0.00147385 -0.000108125 3.65445e-05)
(-0.0014901 -0.000104771 3.52037e-05)
(-0.00150701 -0.000101714 3.40146e-05)
(-0.00152435 -9.89408e-05 3.27988e-05)
(-0.00154192 -9.64635e-05 3.14008e-05)
(-0.00155957 -9.4286e-05 2.97009e-05)
(-0.00157726 -9.24023e-05 2.76115e-05)
(-0.00159503 -9.07768e-05 2.50856e-05)
(-0.00161296 -8.93649e-05 2.20725e-05)
(-0.00163117 -8.81063e-05 1.85848e-05)
(-0.00164979 -8.69671e-05 1.45432e-05)
(-0.00166891 -8.59316e-05 1.0084e-05)
(-0.00168847 -8.51154e-05 5.10086e-06)
(-0.00170808 -8.46284e-05 4.63137e-07)
(-0.0017258 -8.50893e-05 -3.49196e-06)
(-0.0017416 -8.57614e-05 -1.96804e-06)
(-0.00175345 -8.46259e-05 8.37389e-07)
(-0.00112847 0.000204813 0.00010401)
(-0.00116104 0.000125635 -0.000153505)
(-0.00106643 4.12053e-05 -0.00014657)
(-0.00105617 -3.31073e-05 -0.000121861)
(-0.00112979 -8.77696e-05 -7.22038e-05)
(-0.00120856 -0.000116727 -2.28233e-05)
(-0.00126774 -0.000124836 1.02685e-05)
(-0.00130967 -0.000121114 2.85233e-05)
(-0.00133928 -0.000112104 3.68216e-05)
(-0.00136066 -0.000101833 3.90943e-05)
(-0.00137694 -9.23901e-05 3.81297e-05)
(-0.00139047 -8.45314e-05 3.58244e-05)
(-0.00140295 -7.81895e-05 3.32886e-05)
(-0.00141548 -7.29866e-05 3.10719e-05)
(-0.00142864 -6.84926e-05 2.93541e-05)
(-0.00144265 -6.44061e-05 2.80981e-05)
(-0.00145749 -6.05823e-05 2.71698e-05)
(-0.001473 -5.69729e-05 2.63953e-05)
(-0.00148893 -5.35898e-05 2.55953e-05)
(-0.00150506 -5.04638e-05 2.46142e-05)
(-0.00152121 -4.76082e-05 2.33325e-05)
(-0.00153731 -4.50238e-05 2.16646e-05)
(-0.00155338 -4.26774e-05 1.9566e-05)
(-0.00156946 -4.05265e-05 1.69901e-05)
(-0.00158569 -3.85132e-05 1.39544e-05)
(-0.00160217 -3.6601e-05 1.03896e-05)
(-0.00161902 -3.47711e-05 6.44151e-06)
(-0.00163616 -3.31224e-05 2.02099e-06)
(-0.00165328 -3.17687e-05 -1.99872e-06)
(-0.00166866 -3.13063e-05 -5.28461e-06)
(-0.00168252 -3.11554e-05 -3.1301e-06)
(-0.00169336 -2.96523e-05 3.88438e-07)
(-0.00141593 0.00033722 0.000140018)
(-0.00118536 0.000176077 -0.000156025)
(-0.0010714 9.28932e-05 -0.000149229)
(-0.00104656 1.59165e-05 -0.000127632)
(-0.00110815 -3.85585e-05 -8.14998e-05)
(-0.00118281 -6.75467e-05 -3.37503e-05)
(-0.0012403 -7.64562e-05 -1.05667e-06)
(-0.00128079 -7.38778e-05 1.71108e-05)