/*--------------------------------*- C++ -*----------------------------------*\
  =========                 |
  \\      /  F ield         | OpenFOAM: The Open Source CFD Toolbox
   \\    /   O peration     | Website:  https://openfoam.org
    \\  /    A nd           | Version:  6
     \\/     M anipulation  |
\*---------------------------------------------------------------------------*/
FoamFile
{
    version     2.0;
    format      ascii;
    class       volScalarField;
    location    "0";
    object      nut;
}
// * * * * * * * * * * * * * * * * * * * * * * * * * * * * * * * * * * * * * //

dimensions      [0 2 -1 0 0 0 0];

internalField   nonuniform List<scalar> 
63264
(
1.25476e-06
1.26058e-06
1.26703e-06
1.27434e-06
1.28293e-06
1.2936e-06
1.308e-06
1.33006e-06
1.3705e-06
1.46328e-06
1.69211e-06
1.60936e-06
1.43281e-06
1.36138e-06
1.32542e-06
1.30268e-06
1.28565e-06
1.2714e-06
1.25859e-06
1.24656e-06
1.23496e-06
1.22359e-06
1.21232e-06
1.20108e-06
1.18981e-06
1.17848e-06
1.16708e-06
1.15558e-06
1.14398e-06
1.10661e-06
1.11703e-06
1.12682e-06
1.13606e-06
1.14481e-06
1.15311e-06
1.38218e-06
1.38804e-06
1.39456e-06
1.40197e-06
1.41068e-06
1.42142e-06
1.43561e-06
1.45618e-06
1.48965e-06
1.55139e-06
1.66816e-06
1.65113e-06
1.54467e-06
1.48861e-06
1.45573e-06
1.43336e-06
1.41617e-06
1.40171e-06
1.38875e-06
1.37666e-06
1.36507e-06
1.35376e-06
1.34259e-06
1.33149e-06
1.3204e-06
1.30928e-06
1.29811e-06
1.28687e-06
1.27554e-06
1.23062e-06
1.24104e-06
1.25083e-06
1.26006e-06
1.26879e-06
1.27708e-06
1.38254e-06
1.38847e-06
1.39511e-06
1.40271e-06
1.41176e-06
1.42317e-06
1.4388e-06
1.46299e-06
1.50728e-06
1.60827e-06
1.89276e-06
1.91549e-06
1.62561e-06
1.51969e-06
1.47085e-06
1.44229e-06
1.42231e-06
1.40645e-06
1.39274e-06
1.38024e-06
1.36842e-06
1.35701e-06
1.34583e-06
1.33476e-06
1.32374e-06
1.31272e-06
1.30167e-06
1.29057e-06
1.27941e-06
1.22727e-06
1.23778e-06
1.24765e-06
1.25695e-06
1.26575e-06
1.2741e-06
1.38276e-06
1.38872e-06
1.39539e-06
1.40305e-06
1.4122e-06
1.42375e-06
1.43963e-06
1.4642e-06
1.50899e-06
1.60909e-06
1.87566e-06
1.97206e-06
1.65683e-06
1.53483e-06
1.4794e-06
1.44795e-06
1.42655e-06
1.40995e-06
1.39584e-06
1.38313e-06
1.37122e-06
1.35979e-06
1.34864e-06
1.33764e-06
1.32672e-06
1.31583e-06
1.30493e-06
1.29399e-06
1.28301e-06
1.27197e-06
1.23454e-06
1.24446e-06
1.2538e-06
1.26264e-06
1.27101e-06
1.38284e-06
1.38878e-06
1.39541e-06
1.403e-06
1.41199e-06
1.42321e-06
1.43821e-06
1.46029e-06
1.49698e-06
1.5665e-06
1.7041e-06
1.7638e-06
1.61517e-06
1.52604e-06
1.47839e-06
1.44902e-06
1.42825e-06
1.41185e-06
1.39783e-06
1.38518e-06
1.37335e-06
1.36201e-06
1.35097e-06
1.3401e-06
1.32932e-06
1.31858e-06
1.30785e-06
1.2971e-06
1.28631e-06
1.27548e-06
1.23136e-06
1.24129e-06
1.25065e-06
1.25948e-06
1.26786e-06
1.52731e-06
1.5332e-06
1.53979e-06
1.54735e-06
1.55631e-06
1.56744e-06
1.58213e-06
1.60316e-06
1.63635e-06
1.695e-06
1.80723e-06
1.87296e-06
1.74755e-06
1.66765e-06
1.62336e-06
1.59503e-06
1.57455e-06
1.55825e-06
1.54431e-06
1.53178e-06
1.5201e-06
1.50896e-06
1.49815e-06
1.48754e-06
1.47705e-06
1.46662e-06
1.45623e-06
1.44583e-06
1.43541e-06
1.42496e-06
1.37556e-06
1.38532e-06
1.3945e-06
1.40316e-06
1.41137e-06
1.52782e-06
1.53382e-06
1.54059e-06
1.54844e-06
1.55788e-06
1.56988e-06
1.58632e-06
1.61126e-06
1.65449e-06
1.74271e-06
1.95356e-06
2.19853e-06
1.87017e-06
1.71722e-06
1.64726e-06
1.60856e-06
1.58329e-06
1.56454e-06
1.54924e-06
1.5359e-06
1.52373e-06
1.51229e-06
1.50129e-06
1.49058e-06
1.48005e-06
1.46962e-06
1.45925e-06
1.4489e-06
1.43855e-06
1.42819e-06
1.4178e-06
1.38291e-06
1.39218e-06
1.40093e-06
1.40921e-06
1.52817e-06
1.53424e-06
1.5411e-06
1.54908e-06
1.55873e-06
1.57105e-06
1.58802e-06
1.61389e-06
1.65881e-06
1.7497e-06
1.96041e-06
2.26923e-06
1.9139e-06
1.74014e-06
1.66016e-06
1.61671e-06
1.58902e-06
1.56894e-06
1.55287e-06
1.53907e-06
1.52662e-06
1.515e-06
1.50392e-06
1.49317e-06
1.48264e-06
1.47225e-06
1.46193e-06
1.45166e-06
1.44141e-06
1.43115e-06
1.42088e-06
1.38054e-06
1.38986e-06
1.39865e-06
1.40698e-06
1.52836e-06
1.53444e-06
1.54131e-06
1.54927e-06
1.55885e-06
1.57094e-06
1.58727e-06
1.61125e-06
1.65034e-06
1.72159e-06
1.85954e-06
1.99758e-06
1.85438e-06
1.72656e-06
1.65789e-06
1.61758e-06
1.59078e-06
1.57093e-06
1.55489e-06
1.54108e-06
1.52862e-06
1.51701e-06
1.50595e-06
1.49525e-06
1.48478e-06
1.47447e-06
1.46424e-06
1.45408e-06
1.44394e-06
1.43381e-06
1.42369e-06
1.37824e-06
1.38757e-06
1.39638e-06
1.40472e-06
1.67728e-06
1.68311e-06
1.68967e-06
1.69721e-06
1.70612e-06
1.71702e-06
1.73093e-06
1.7495e-06
1.77523e-06
1.81123e-06
1.85782e-06
1.88894e-06
1.85804e-06
1.81384e-06
1.77916e-06
1.75306e-06
1.73277e-06
1.71623e-06
1.70209e-06
1.68949e-06
1.67792e-06
1.66702e-06
1.65659e-06
1.64645e-06
1.63653e-06
1.62675e-06
1.61705e-06
1.60742e-06
1.59782e-06
1.58824e-06
1.57866e-06
1.53035e-06
1.53928e-06
1.5477e-06
1.55567e-06
1.67798e-06
1.684e-06
1.69085e-06
1.69885e-06
1.70852e-06
1.72079e-06
1.73734e-06
1.76147e-06
1.80022e-06
1.86983e-06
2.00753e-06
2.18406e-06
2.04163e-06
1.89504e-06
1.81879e-06
1.77501e-06
1.74636e-06
1.72547e-06
1.70886e-06
1.69479e-06
1.68229e-06
1.67078e-06
1.65992e-06
1.64951e-06
1.63939e-06
1.62947e-06
1.61969e-06
1.61e-06
1.60037e-06
1.59077e-06
1.5812e-06
1.57164e-06
1.53786e-06
1.54639e-06
1.55446e-06
1.67851e-06
1.68467e-06
1.69171e-06
1.7e-06
1.71014e-06
1.72322e-06
1.74127e-06
1.76844e-06
1.81392e-06
1.89982e-06
2.08134e-06
2.45429e-06
2.16368e-06
1.94857e-06
1.84605e-06
1.79059e-06
1.75625e-06
1.73234e-06
1.71402e-06
1.69891e-06
1.68574e-06
1.67379e-06
1.66265e-06
1.65204e-06
1.64179e-06
1.63179e-06
1.62196e-06
1.61224e-06
1.60261e-06
1.59303e-06
1.58348e-06
1.57395e-06
1.53648e-06
1.54508e-06
1.55321e-06
1.67887e-06
1.6851e-06
1.69223e-06
1.70064e-06
1.71094e-06
1.72422e-06
1.74251e-06
1.76986e-06
1.81499e-06
1.89783e-06
2.06273e-06
2.32941e-06
2.15737e-06
1.95713e-06
1.85385e-06
1.79656e-06
1.76084e-06
1.736e-06
1.71705e-06
1.70152e-06
1.68806e-06
1.67593e-06
1.66465e-06
1.65396e-06
1.64366e-06
1.63364e-06
1.62381e-06
1.61411e-06
1.6045e-06
1.59496e-06
1.58547e-06
1.576e-06
1.53516e-06
1.54379e-06
1.55195e-06
1.67906e-06
1.68529e-06
1.69241e-06
1.70076e-06
1.71091e-06
1.72382e-06
1.74115e-06
1.76606e-06
1.80463e-06
1.8689e-06
1.97864e-06
2.10406e-06
2.04253e-06
1.91904e-06
1.84019e-06
1.79168e-06
1.75939e-06
1.73598e-06
1.71767e-06
1.70244e-06
1.68913e-06
1.67708e-06
1.66586e-06
1.65521e-06
1.64496e-06
1.63499e-06
1.62521e-06
1.61557e-06
1.60603e-06
1.59656e-06
1.58714e-06
1.57776e-06
1.53391e-06
1.54253e-06
1.55069e-06
1.78486e-06
1.79078e-06
1.79753e-06
1.8054e-06
1.81481e-06
1.82643e-06
1.84125e-06
1.86075e-06
1.8869e-06
1.92149e-06
1.96286e-06
1.9935e-06
1.97999e-06
1.94182e-06
1.9059e-06
1.87702e-06
1.85418e-06
1.83569e-06
1.82021e-06
1.80677e-06
1.79474e-06
1.78369e-06
1.77333e-06
1.76346e-06
1.75394e-06
1.74468e-06
1.73561e-06
1.72667e-06
1.71783e-06
1.70907e-06
1.70037e-06
1.69171e-06
1.64841e-06
1.65641e-06
1.66398e-06
1.78547e-06
1.79158e-06
1.79864e-06
1.80699e-06
1.81723e-06
1.83035e-06
1.84803e-06
1.87342e-06
1.91254e-06
1.97761e-06
2.09103e-06
2.23409e-06
2.1771e-06
2.0407e-06
1.95559e-06
1.90425e-06
1.87049e-06
1.84627e-06
1.82755e-06
1.81217e-06
1.79892e-06
1.78707e-06
1.77616e-06
1.7659e-06
1.7561e-06
1.74663e-06
1.73739e-06
1.72833e-06
1.7194e-06
1.71057e-06
1.7018e-06
1.69309e-06
1.64787e-06
1.65596e-06
1.66362e-06
1.78589e-06
1.79213e-06
1.79938e-06
1.80804e-06
1.81881e-06
1.83284e-06
1.85229e-06
1.88128e-06
1.92832e-06
2.01193e-06
2.17214e-06
2.45298e-06
2.33295e-06
2.10824e-06
1.98924e-06
1.92274e-06
1.88159e-06
1.85349e-06
1.83259e-06
1.81592e-06
1.80185e-06
1.78945e-06
1.77817e-06
1.76766e-06
1.75767e-06
1.74806e-06
1.73873e-06
1.72959e-06
1.72061e-06
1.71173e-06
1.70293e-06
1.6942e-06
1.64739e-06
1.65553e-06
1.66325e-06
1.78612e-06
1.79242e-06
1.79975e-06
1.80853e-06
1.81946e-06
1.83377e-06
1.85368e-06
1.88349e-06
1.93206e-06
2.01854e-06
2.18406e-06
2.49316e-06
2.36545e-06
2.12473e-06
1.99899e-06
1.92882e-06
1.88564e-06
1.85637e-06
1.83477e-06
1.81765e-06
1.80329e-06
1.79069e-06
1.77927e-06
1.76866e-06
1.7586e-06
1.74894e-06
1.73958e-06
1.73042e-06
1.72142e-06
1.71253e-06
1.70373e-06
1.69501e-06
1.64698e-06
1.65515e-06
1.66289e-06
1.78616e-06
1.79245e-06
1.79973e-06
1.80843e-06
1.81918e-06
1.83311e-06
1.85215e-06
1.87997e-06
1.92369e-06
1.99768e-06
2.12778e-06
2.30344e-06
2.24985e-06
2.08585e-06
1.98271e-06
1.92135e-06
1.88202e-06
1.85456e-06
1.83386e-06
1.81723e-06
1.80314e-06
1.79072e-06
1.7794e-06
1.76886e-06
1.75886e-06
1.74924e-06
1.73991e-06
1.73079e-06
1.72182e-06
1.71297e-06
1.7042e-06
1.69551e-06
1.68687e-06
1.65482e-06
1.66255e-06
1.78602e-06
1.79221e-06
1.79935e-06
1.80776e-06
1.81801e-06
1.83094e-06
1.84797e-06
1.87141e-06
1.90512e-06
1.95514e-06
2.02786e-06
2.10147e-06
2.08231e-06
2.00603e-06
1.94473e-06
1.90202e-06
1.87143e-06
1.84837e-06
1.83003e-06
1.81474e-06
1.80146e-06
1.78955e-06
1.77858e-06
1.76827e-06
1.75845e-06
1.74896e-06
1.73974e-06
1.7307e-06
1.72181e-06
1.71303e-06
1.70433e-06
1.6957e-06
1.68712e-06
1.65454e-06
1.66222e-06
4.18244e-06
4.18381e-06
4.18534e-06
4.18709e-06
4.18916e-06
4.19178e-06
4.19538e-06
4.20095e-06
4.21111e-06
4.23327e-06
4.28086e-06
4.26463e-06
4.22622e-06
4.20897e-06
4.20002e-06
4.19437e-06
4.19021e-06
4.18677e-06
4.18372e-06
4.18087e-06
4.17814e-06
4.17547e-06
4.17282e-06
4.17017e-06
4.16751e-06
4.16483e-06
4.16212e-06
4.15938e-06
4.1566e-06
4.14761e-06
4.15016e-06
4.15254e-06
4.15478e-06
4.15689e-06
4.15889e-06
4.32127e-06
4.3227e-06
4.32426e-06
4.32602e-06
4.32806e-06
4.33051e-06
4.33367e-06
4.33815e-06
4.34529e-06
4.35849e-06
4.38446e-06
4.38058e-06
4.35697e-06
4.34492e-06
4.33782e-06
4.33287e-06
4.32896e-06
4.32559e-06
4.3225e-06
4.31957e-06
4.31671e-06
4.3139e-06
4.31109e-06
4.30828e-06
4.30545e-06
4.30259e-06
4.29969e-06
4.29676e-06
4.29379e-06
4.28181e-06
4.28461e-06
4.28722e-06
4.28967e-06
4.29197e-06
4.29415e-06
4.32149e-06
4.32297e-06
4.32462e-06
4.3265e-06
4.32872e-06
4.3315e-06
4.33527e-06
4.34107e-06
4.35162e-06
4.37541e-06
4.4391e-06
4.4439e-06
4.37943e-06
4.35452e-06
4.34289e-06
4.33603e-06
4.33119e-06
4.32731e-06
4.32393e-06
4.32082e-06
4.31786e-06
4.31497e-06
4.31213e-06
4.3093e-06
4.30647e-06
4.30362e-06
4.30075e-06
4.29785e-06
4.29491e-06
4.28101e-06
4.28384e-06
4.28649e-06
4.28897e-06
4.29131e-06
4.29352e-06
4.32168e-06
4.3232e-06
4.32491e-06
4.32687e-06
4.32921e-06
4.33218e-06
4.33626e-06
4.34257e-06
4.35392e-06
4.37846e-06
4.43817e-06
4.45786e-06
4.3897e-06
4.36037e-06
4.34648e-06
4.33848e-06
4.33302e-06
4.32878e-06
4.32517e-06
4.32192e-06
4.31888e-06
4.31595e-06
4.31308e-06
4.31024e-06
4.30741e-06
4.30458e-06
4.30174e-06
4.29887e-06
4.29597e-06
4.29305e-06
4.28307e-06
4.28575e-06
4.28825e-06
4.29062e-06
4.29285e-06
4.32184e-06
4.32339e-06
4.32513e-06
4.32713e-06
4.32954e-06
4.33256e-06
4.33665e-06
4.34271e-06
4.35272e-06
4.37108e-06
4.40452e-06
4.41789e-06
4.3833e-06
4.36052e-06
4.34779e-06
4.33985e-06
4.33425e-06
4.32987e-06
4.32616e-06
4.32284e-06
4.31975e-06
4.31679e-06
4.31391e-06
4.31108e-06
4.30827e-06
4.30546e-06
4.30264e-06
4.29981e-06
4.29696e-06
4.29409e-06
4.28231e-06
4.285e-06
4.28753e-06
4.2899e-06
4.29215e-06
4.45174e-06
4.45342e-06
4.4553e-06
4.45743e-06
4.45995e-06
4.46304e-06
4.46709e-06
4.47282e-06
4.48176e-06
4.49741e-06
4.52696e-06
4.54393e-06
4.51128e-06
4.49007e-06
4.47819e-06
4.4705e-06
4.46487e-06
4.46034e-06
4.45642e-06
4.45287e-06
4.44952e-06
4.4463e-06
4.44316e-06
4.44006e-06
4.43697e-06
4.43388e-06
4.43079e-06
4.42767e-06
4.42454e-06
4.42137e-06
4.4062e-06
4.40922e-06
4.41205e-06
4.41472e-06
4.41723e-06
4.45196e-06
4.45369e-06
4.45565e-06
4.4579e-06
4.4606e-06
4.46403e-06
4.46869e-06
4.47571e-06
4.48774e-06
4.51178e-06
4.56621e-06
4.62338e-06
4.5452e-06
4.50489e-06
4.48572e-06
4.47493e-06
4.46781e-06
4.46249e-06
4.45811e-06
4.45428e-06
4.45076e-06
4.44743e-06
4.44422e-06
4.44107e-06
4.43796e-06
4.43486e-06
4.43177e-06
4.42867e-06
4.42555e-06
4.42241e-06
4.41925e-06
4.40853e-06
4.4114e-06
4.4141e-06
4.41664e-06
4.45213e-06
4.4539e-06
4.45591e-06
4.45824e-06
4.46105e-06
4.46463e-06
4.46956e-06
4.47702e-06
4.4898e-06
4.51489e-06
4.56922e-06
4.63864e-06
4.55766e-06
4.51229e-06
4.49019e-06
4.47786e-06
4.46991e-06
4.46411e-06
4.45944e-06
4.45543e-06
4.45179e-06
4.44838e-06
4.44512e-06
4.44195e-06
4.43883e-06
4.43574e-06
4.43265e-06
4.42957e-06
4.42648e-06
4.42337e-06
4.42025e-06
4.40785e-06
4.41074e-06
4.41346e-06
4.41602e-06
4.45226e-06
4.45405e-06
4.45608e-06
4.45844e-06
4.46127e-06
4.46486e-06
4.46971e-06
4.4768e-06
4.48821e-06
4.50845e-06
4.54539e-06
4.57967e-06
4.54404e-06
4.50982e-06
4.49043e-06
4.47875e-06
4.47089e-06
4.46505e-06
4.46032e-06
4.45624e-06
4.45257e-06
4.44914e-06
4.44586e-06
4.44269e-06
4.43957e-06
4.43649e-06
4.43343e-06
4.43037e-06
4.42731e-06
4.42424e-06
4.42116e-06
4.40719e-06
4.41009e-06
4.41282e-06
4.41539e-06
4.56988e-06
4.57185e-06
4.57407e-06
4.57661e-06
4.5796e-06
4.58325e-06
4.58788e-06
4.59401e-06
4.6024e-06
4.61395e-06
4.62858e-06
4.63816e-06
4.62864e-06
4.61478e-06
4.60368e-06
4.59519e-06
4.58851e-06
4.58302e-06
4.5783e-06
4.57406e-06
4.57015e-06
4.56644e-06
4.56288e-06
4.5594e-06
4.55598e-06
4.5526e-06
4.54922e-06
4.54586e-06
4.54249e-06
4.53911e-06
4.53571e-06
4.51834e-06
4.52158e-06
4.52463e-06
4.5275e-06
4.57012e-06
4.57216e-06
4.57447e-06
4.57717e-06
4.58042e-06
4.58453e-06
4.59003e-06
4.59799e-06
4.61058e-06
4.63264e-06
4.6743e-06
4.72411e-06
4.68423e-06
4.64046e-06
4.61655e-06
4.60244e-06
4.59306e-06
4.58613e-06
4.58059e-06
4.57586e-06
4.57164e-06
4.56773e-06
4.56403e-06
4.56046e-06
4.55697e-06
4.55354e-06
4.55015e-06
4.54676e-06
4.54338e-06
4.54e-06
4.53661e-06
4.53321e-06
4.52107e-06
4.52415e-06
4.52706e-06
4.5703e-06
4.57239e-06
4.57477e-06
4.57757e-06
4.58098e-06
4.58536e-06
4.59136e-06
4.60032e-06
4.61507e-06
4.64211e-06
4.6959e-06
4.79051e-06
4.71889e-06
4.657e-06
4.62532e-06
4.60757e-06
4.59636e-06
4.58845e-06
4.58234e-06
4.57727e-06
4.57282e-06
4.56877e-06
4.56497e-06
4.56133e-06
4.55781e-06
4.55435e-06
4.55094e-06
4.54755e-06
4.54417e-06
4.5408e-06
4.53742e-06
4.53404e-06
4.52056e-06
4.52368e-06
4.52661e-06
4.57042e-06
4.57253e-06
4.57495e-06
4.57779e-06
4.58125e-06
4.58571e-06
4.5918e-06
4.60082e-06
4.61549e-06
4.64164e-06
4.69082e-06
4.76267e-06
4.71741e-06
4.65976e-06
4.62789e-06
4.60957e-06
4.5979e-06
4.58969e-06
4.58337e-06
4.57816e-06
4.57361e-06
4.5695e-06
4.56565e-06
4.56199e-06
4.55845e-06
4.55499e-06
4.55158e-06
4.5482e-06
4.54484e-06
4.54148e-06
4.53812e-06
4.53476e-06
4.52008e-06
4.52321e-06
4.52615e-06
4.57049e-06
4.5726e-06
4.57501e-06
4.57783e-06
4.58125e-06
4.58558e-06
4.59137e-06
4.59961e-06
4.61221e-06
4.63274e-06
4.66643e-06
4.70285e-06
4.68525e-06
4.64836e-06
4.62367e-06
4.60804e-06
4.59746e-06
4.5897e-06
4.58359e-06
4.57847e-06
4.57398e-06
4.56989e-06
4.56607e-06
4.56243e-06
4.5589e-06
4.55546e-06
4.55207e-06
4.54871e-06
4.54537e-06
4.54204e-06
4.53872e-06
4.53539e-06
4.51962e-06
4.52275e-06
4.5257e-06
4.65665e-06
4.65896e-06
4.66157e-06
4.66461e-06
4.66823e-06
4.67267e-06
4.6783e-06
4.68564e-06
4.69536e-06
4.70801e-06
4.72283e-06
4.73359e-06
4.72888e-06
4.71534e-06
4.70234e-06
4.69171e-06
4.68318e-06
4.6762e-06
4.6703e-06
4.66514e-06
4.66049e-06
4.6562e-06
4.65215e-06
4.64827e-06
4.64451e-06
4.64083e-06
4.63721e-06
4.63362e-06
4.63006e-06
4.62652e-06
4.62298e-06
4.61944e-06
4.60145e-06
4.6048e-06
4.60795e-06
4.65687e-06
4.65924e-06
4.66196e-06
4.66518e-06
4.6691e-06
4.67408e-06
4.68074e-06
4.69019e-06
4.70449e-06
4.72765e-06
4.76628e-06
4.81218e-06
4.79425e-06
4.74939e-06
4.71989e-06
4.70147e-06
4.68908e-06
4.68005e-06
4.67298e-06
4.66713e-06
4.66204e-06
4.65745e-06
4.6532e-06
4.64918e-06
4.64532e-06
4.64156e-06
4.63789e-06
4.63426e-06
4.63067e-06
4.6271e-06
4.62354e-06
4.61999e-06
4.6012e-06
4.60458e-06
4.60777e-06
4.65701e-06
4.65942e-06
4.66222e-06
4.66554e-06
4.66964e-06
4.67495e-06
4.68223e-06
4.69295e-06
4.71001e-06
4.73938e-06
4.79256e-06
4.87679e-06
4.8422e-06
4.77181e-06
4.73151e-06
4.70799e-06
4.69303e-06
4.68263e-06
4.67479e-06
4.66847e-06
4.66309e-06
4.65831e-06
4.65393e-06
4.64982e-06
4.6459e-06
4.6421e-06
4.63839e-06
4.63474e-06
4.63113e-06
4.62754e-06
4.62397e-06
4.62041e-06
4.60098e-06
4.60439e-06
4.6076e-06
4.65707e-06
4.65951e-06
4.66232e-06
4.66568e-06
4.66983e-06
4.67523e-06
4.68266e-06
4.69365e-06
4.71121e-06
4.74151e-06
4.79627e-06
4.8878e-06
4.85176e-06
4.7771e-06
4.73475e-06
4.71003e-06
4.69439e-06
4.6836e-06
4.67553e-06
4.66906e-06
4.66358e-06
4.65873e-06
4.65431e-06
4.65017e-06
4.64622e-06
4.64241e-06
4.63869e-06
4.63504e-06
4.63142e-06
4.62784e-06
4.62428e-06
4.62072e-06
4.60079e-06
4.6042e-06
4.60742e-06
4.65707e-06
4.65949e-06
4.66229e-06
4.6656e-06
4.66968e-06
4.67491e-06
4.68201e-06
4.69225e-06
4.70808e-06
4.73415e-06
4.77796e-06
4.83322e-06
4.81683e-06
4.76411e-06
4.72893e-06
4.70721e-06
4.69295e-06
4.68283e-06
4.6751e-06
4.66883e-06
4.66346e-06
4.65869e-06
4.65431e-06
4.65021e-06
4.64628e-06
4.64249e-06
4.63879e-06
4.63515e-06
4.63156e-06
4.62799e-06
4.62444e-06
4.6209e-06
4.61737e-06
4.60404e-06
4.60726e-06
4.65699e-06
4.65938e-06
4.66211e-06
4.66531e-06
4.66918e-06
4.67404e-06
4.68037e-06
4.689e-06
4.70124e-06
4.71906e-06
4.74431e-06
4.76908e-06
4.7627e-06
4.7368e-06
4.71536e-06
4.70008e-06
4.68894e-06
4.68043e-06
4.67358e-06
4.66781e-06
4.66276e-06
4.65819e-06
4.65395e-06
4.64994e-06
4.64609e-06
4.64235e-06
4.63869e-06
4.63509e-06
4.63153e-06
4.62799e-06
4.62447e-06
4.62096e-06
4.61745e-06
4.60391e-06
4.6071e-06
8.95557e-06
8.95703e-06
8.95867e-06
8.96057e-06
8.96286e-06
8.96578e-06
8.96986e-06
8.97626e-06
8.98795e-06
9.01281e-06
9.06245e-06
9.04604e-06
9.00505e-06
8.98558e-06
8.97536e-06
8.96897e-06
8.96433e-06
8.96056e-06
8.95726e-06
8.95421e-06
8.95131e-06
8.94849e-06
8.9457e-06
8.94292e-06
8.94014e-06
8.93735e-06
8.93452e-06
8.93167e-06
8.92878e-06
8.91952e-06
8.92216e-06
8.92464e-06
8.92698e-06
8.92918e-06
8.93127e-06
9.1805e-06
9.18172e-06
9.18303e-06
9.18445e-06
9.18603e-06
9.18782e-06
9.18998e-06
9.19282e-06
9.1972e-06
9.20596e-06
9.22748e-06
9.22392e-06
9.20469e-06
9.19658e-06
9.19199e-06
9.18863e-06
9.18578e-06
9.18315e-06
9.18063e-06
9.17815e-06
9.17568e-06
9.17319e-06
9.17069e-06
9.16815e-06
9.16557e-06
9.16296e-06
9.1603e-06
9.1576e-06
9.15486e-06
9.1437e-06
9.14628e-06
9.14869e-06
9.15094e-06
9.15305e-06
9.15504e-06
9.18096e-06
9.1823e-06
9.18378e-06
9.18544e-06
9.18738e-06
9.18978e-06
9.19298e-06
9.19786e-06
9.20683e-06
9.22799e-06
9.28862e-06
9.29327e-06
9.23161e-06
9.2092e-06
9.19917e-06
9.19332e-06
9.18915e-06
9.18576e-06
9.18276e-06
9.17997e-06
9.17729e-06
9.17466e-06
9.17205e-06
9.16945e-06
9.16683e-06
9.1642e-06
9.16153e-06
9.15884e-06
9.15611e-06
9.14314e-06
9.14578e-06
9.14824e-06
9.15054e-06
9.15271e-06
9.15476e-06
9.1814e-06
9.18284e-06
9.18446e-06
9.18634e-06
9.18859e-06
9.19145e-06
9.1954e-06
9.20153e-06
9.21256e-06
9.23616e-06
9.29246e-06
9.31066e-06
9.2468e-06
9.21872e-06
9.2053e-06
9.19757e-06
9.1923e-06
9.18824e-06
9.1848e-06
9.18172e-06
9.17883e-06
9.17607e-06
9.17337e-06
9.1707e-06
9.16805e-06
9.16539e-06
9.16272e-06
9.16003e-06
9.15732e-06
9.15458e-06
9.14526e-06
9.14777e-06
9.15012e-06
9.15233e-06
9.15442e-06
9.1818e-06
9.18333e-06
9.18508e-06
9.18712e-06
9.18961e-06
9.1928e-06
9.1972e-06
9.20382e-06
9.2148e-06
9.23454e-06
9.26806e-06
9.28055e-06
9.24707e-06
9.22326e-06
9.20952e-06
9.20095e-06
9.19501e-06
9.19045e-06
9.18667e-06
9.18334e-06
9.18028e-06
9.17739e-06
9.17461e-06
9.17188e-06
9.16919e-06
9.16652e-06
9.16384e-06
9.16116e-06
9.15847e-06
9.15576e-06
9.14475e-06
9.14729e-06
9.14967e-06
9.15191e-06
9.15404e-06
9.38195e-06
9.38321e-06
9.38459e-06
9.38611e-06
9.38784e-06
9.38989e-06
9.39246e-06
9.39598e-06
9.40149e-06
9.41187e-06
9.43467e-06
9.4491e-06
9.42192e-06
9.40652e-06
9.39876e-06
9.39387e-06
9.39021e-06
9.38714e-06
9.38438e-06
9.38179e-06
9.37929e-06
9.37683e-06
9.37439e-06
9.37196e-06
9.36951e-06
9.36705e-06
9.36456e-06
9.36205e-06
9.35952e-06
9.35695e-06
9.34448e-06
9.34693e-06
9.34923e-06
9.35138e-06
9.35341e-06
9.38242e-06
9.3838e-06
9.38534e-06
9.3871e-06
9.38918e-06
9.39179e-06
9.39532e-06
9.40063e-06
9.40987e-06
9.42906e-06
9.47511e-06
9.52451e-06
9.45697e-06
9.42331e-06
9.40808e-06
9.39975e-06
9.3943e-06
9.3902e-06
9.38681e-06
9.3838e-06
9.38101e-06
9.37836e-06
9.37578e-06
9.37324e-06
9.37072e-06
9.36821e-06
9.36569e-06
9.36316e-06
9.36061e-06
9.35805e-06
9.35546e-06
9.34661e-06
9.34895e-06
9.35116e-06
9.35323e-06
9.38285e-06
9.38434e-06
9.38602e-06
9.38798e-06
9.39035e-06
9.39339e-06
9.39758e-06
9.40395e-06
9.41486e-06
9.43622e-06
9.48214e-06
9.53871e-06
9.47234e-06
9.4339e-06
9.41509e-06
9.4046e-06
9.39786e-06
9.39295e-06
9.38903e-06
9.38566e-06
9.38262e-06
9.37979e-06
9.37708e-06
9.37445e-06
9.37187e-06
9.36931e-06
9.36676e-06
9.36421e-06
9.36165e-06
9.35909e-06
9.35651e-06
9.34628e-06
9.34867e-06
9.35091e-06
9.35302e-06
9.38325e-06
9.38482e-06
9.38662e-06
9.38874e-06
9.39132e-06
9.39465e-06
9.3992e-06
9.40592e-06
9.4167e-06
9.43535e-06
9.46758e-06
9.49577e-06
9.46634e-06
9.43648e-06
9.41876e-06
9.40788e-06
9.40058e-06
9.39521e-06
9.39093e-06
9.3873e-06
9.38406e-06
9.38109e-06
9.37827e-06
9.37556e-06
9.37292e-06
9.37032e-06
9.36775e-06
9.36519e-06
9.36263e-06
9.36007e-06
9.3575e-06
9.34596e-06
9.34837e-06
9.35065e-06
9.35279e-06
9.55278e-06
9.55405e-06
9.55545e-06
9.557e-06
9.55878e-06
9.56086e-06
9.56339e-06
9.56662e-06
9.57093e-06
9.57688e-06
9.58482e-06
9.59046e-06
9.58454e-06
9.57685e-06
9.57101e-06
9.56652e-06
9.56286e-06
9.55973e-06
9.55692e-06
9.5543e-06
9.55182e-06
9.5494e-06
9.54703e-06
9.54469e-06
9.54235e-06
9.54002e-06
9.53768e-06
9.53532e-06
9.53296e-06
9.53058e-06
9.52818e-06
9.51567e-06
9.51797e-06
9.52012e-06
9.52214e-06
9.55324e-06
9.55463e-06
9.55619e-06
9.55799e-06
9.56012e-06
9.56279e-06
9.56635e-06
9.5715e-06
9.57984e-06
9.5952e-06
9.62636e-06
9.66557e-06
9.63402e-06
9.60076e-06
9.58371e-06
9.57414e-06
9.56792e-06
9.56335e-06
9.55968e-06
9.55651e-06
9.55365e-06
9.55098e-06
9.54842e-06
9.54594e-06
9.5435e-06
9.54109e-06
9.53869e-06
9.53629e-06
9.53389e-06
9.53148e-06
9.52907e-06
9.52664e-06
9.51784e-06
9.52004e-06
9.52211e-06
9.55366e-06
9.55515e-06
9.55686e-06
9.55885e-06
9.56129e-06
9.56441e-06
9.56871e-06
9.57516e-06
9.58591e-06
9.60601e-06
9.64701e-06
9.71658e-06
9.66472e-06
9.61719e-06
9.5934e-06
9.58033e-06
9.57219e-06
9.5665e-06
9.56212e-06
9.55849e-06
9.55531e-06
9.55241e-06
9.54969e-06
9.54708e-06
9.54455e-06
9.54207e-06
9.53962e-06
9.53718e-06
9.53476e-06
9.53233e-06
9.5299e-06
9.52746e-06
9.51772e-06
9.51995e-06
9.52206e-06
9.55404e-06
9.55562e-06
9.55744e-06
9.55959e-06
9.56224e-06
9.56568e-06
9.5704e-06
9.57744e-06
9.58885e-06
9.60906e-06
9.64657e-06
9.70015e-06
9.66658e-06
9.6229e-06
9.59843e-06
9.58426e-06
9.57524e-06
9.56892e-06
9.56409e-06
9.56014e-06
9.55673e-06
9.55365e-06
9.5508e-06
9.5481e-06
9.54549e-06
9.54296e-06
9.54046e-06
9.53799e-06
9.53555e-06
9.5331e-06
9.53067e-06
9.52823e-06
9.5176e-06
9.51987e-06
9.522e-06
9.55437e-06
9.55602e-06
9.55793e-06
9.56019e-06
9.56298e-06
9.56656e-06
9.57141e-06
9.57837e-06
9.58896e-06
9.60586e-06
9.63239e-06
9.65969e-06
9.64661e-06
9.61828e-06
9.59847e-06
9.5856e-06
9.57684e-06
9.57046e-06
9.56548e-06
9.56138e-06
9.55784e-06
9.55466e-06
9.55172e-06
9.54895e-06
9.5463e-06
9.54372e-06
9.5412e-06
9.53871e-06
9.53625e-06
9.5338e-06
9.53136e-06
9.52892e-06
9.5175e-06
9.51978e-06
9.52194e-06
9.66723e-06
9.66867e-06
9.67031e-06
9.67222e-06
9.67449e-06
9.67729e-06
9.68083e-06
9.68545e-06
9.69159e-06
9.69963e-06
9.70916e-06
9.7162e-06
9.71304e-06
9.70425e-06
9.69595e-06
9.68923e-06
9.68386e-06
9.67947e-06
9.67577e-06
9.67253e-06
9.66962e-06
9.66693e-06
9.66439e-06
9.66196e-06
9.65961e-06
9.6573e-06
9.65504e-06
9.65279e-06
9.65056e-06
9.64835e-06
9.64613e-06
9.64392e-06
9.63258e-06
9.63467e-06
9.63664e-06
9.66751e-06
9.66903e-06
9.6708e-06
9.67289e-06
9.67545e-06
9.67874e-06
9.68319e-06
9.68958e-06
9.69942e-06
9.71574e-06
9.74375e-06
9.77777e-06
9.76444e-06
9.73144e-06
9.7103e-06
9.69744e-06
9.68898e-06
9.68291e-06
9.67823e-06
9.67439e-06
9.67108e-06
9.66813e-06
9.6654e-06
9.66283e-06
9.66038e-06
9.658e-06
9.65567e-06
9.65338e-06
9.65111e-06
9.64886e-06
9.64662e-06
9.64438e-06
9.63253e-06
9.63466e-06
9.63666e-06
9.66774e-06
9.66933e-06
9.67118e-06
9.67341e-06
9.67618e-06
9.67982e-06
9.68488e-06
9.69242e-06
9.70458e-06
9.72583e-06
9.76484e-06
9.8267e-06
9.80147e-06
9.74961e-06
9.72021e-06
9.7033e-06
9.69272e-06
9.68548e-06
9.6801e-06
9.67582e-06
9.67223e-06
9.66907e-06
9.6662e-06
9.66353e-06
9.661e-06
9.65856e-06
9.65619e-06
9.65386e-06
9.65156e-06
9.64929e-06
9.64703e-06
9.64478e-06
9.63251e-06
9.63466e-06
9.63668e-06
9.66793e-06
9.66956e-06
9.67147e-06
9.67378e-06
9.67667e-06
9.68048e-06
9.68579e-06
9.69374e-06
9.70655e-06
9.72875e-06
9.76891e-06
9.8351e-06
9.80945e-06
9.75491e-06
9.72391e-06
9.70589e-06
9.69459e-06
9.68689e-06
9.6812e-06
9.67672e-06
9.67297e-06
9.66971e-06
9.66676e-06
9.66403e-06
9.66145e-06
9.65898e-06
9.65657e-06
9.65423e-06
9.65191e-06
9.64963e-06
9.64736e-06
9.6451e-06
9.6325e-06
9.63466e-06
9.6367e-06
9.66806e-06
9.66971e-06
9.67165e-06
9.67399e-06
9.6769e-06
9.6807e-06
9.68592e-06
9.69352e-06
9.70533e-06
9.72472e-06
9.75696e-06
9.79707e-06
9.78524e-06
9.74687e-06
9.72098e-06
9.70493e-06
9.69442e-06
9.68703e-06
9.68147e-06
9.67703e-06
9.67329e-06
9.67002e-06
9.66706e-06
9.66432e-06
9.66172e-06
9.65924e-06
9.65683e-06
9.65447e-06
9.65215e-06
9.64986e-06
9.64759e-06
9.64534e-06
9.64309e-06
9.63467e-06
9.63672e-06
9.66814e-06
9.6698e-06
9.67173e-06
9.67404e-06
9.67688e-06
9.6805e-06
9.6853e-06
9.69193e-06
9.70139e-06
9.71514e-06
9.73429e-06
9.75265e-06
9.74798e-06
9.72871e-06
9.71247e-06
9.70082e-06
9.69236e-06
9.68598e-06
9.68094e-06
9.67677e-06
9.67319e-06
9.67e-06
9.6671e-06
9.66438e-06
9.66181e-06
9.65934e-06
9.65694e-06
9.65459e-06
9.65228e-06
9.65e-06
9.64774e-06
9.64549e-06
9.64325e-06
9.63469e-06
9.63673e-06
1.49907e-05
1.49921e-05
1.49937e-05
1.49956e-05
1.49979e-05
1.50009e-05
1.50052e-05
1.5012e-05
1.50244e-05
1.50502e-05
1.50975e-05
1.50825e-05
1.50423e-05
1.5022e-05
1.50112e-05
1.50046e-05
1.49998e-05
1.4996e-05
1.49928e-05
1.49898e-05
1.4987e-05
1.49843e-05
1.49817e-05
1.49791e-05
1.49765e-05
1.49738e-05
1.49712e-05
1.49685e-05
1.49658e-05
1.49573e-05
1.49598e-05
1.49621e-05
1.49643e-05
1.49664e-05
1.49683e-05
1.53305e-05
1.53315e-05
1.53326e-05
1.53337e-05
1.53349e-05
1.53361e-05
1.53373e-05
1.53386e-05
1.53404e-05
1.53451e-05
1.53627e-05
1.53594e-05
1.53441e-05
1.53396e-05
1.53373e-05
1.53354e-05
1.53335e-05
1.53316e-05
1.53296e-05
1.53275e-05
1.53254e-05
1.53232e-05
1.5321e-05
1.53187e-05
1.53163e-05
1.53139e-05
1.53115e-05
1.5309e-05
1.53064e-05
1.5296e-05
1.52984e-05
1.53006e-05
1.53027e-05
1.53046e-05
1.53065e-05
1.53312e-05
1.53324e-05
1.53337e-05
1.53352e-05
1.53369e-05
1.5339e-05
1.53417e-05
1.53457e-05
1.53533e-05
1.53724e-05
1.5431e-05
1.54356e-05
1.53757e-05
1.53553e-05
1.53466e-05
1.53416e-05
1.5338e-05
1.53351e-05
1.53324e-05
1.53299e-05
1.53275e-05
1.53251e-05
1.53227e-05
1.53202e-05
1.53178e-05
1.53154e-05
1.53129e-05
1.53104e-05
1.53078e-05
1.52957e-05
1.52981e-05
1.53004e-05
1.53026e-05
1.53046e-05
1.53065e-05
1.53319e-05
1.53332e-05
1.53348e-05
1.53366e-05
1.53388e-05
1.53416e-05
1.53455e-05
1.53515e-05
1.53624e-05
1.53855e-05
1.54395e-05
1.54564e-05
1.53958e-05
1.53684e-05
1.53552e-05
1.53476e-05
1.53425e-05
1.53386e-05
1.53352e-05
1.53323e-05
1.53295e-05
1.53269e-05
1.53243e-05
1.53218e-05
1.53193e-05
1.53168e-05
1.53143e-05
1.53117e-05
1.53092e-05
1.53066e-05
1.52979e-05
1.53002e-05
1.53024e-05
1.53045e-05
1.53065e-05
1.53325e-05
1.5334e-05
1.53358e-05
1.53379e-05
1.53405e-05
1.53439e-05
1.53487e-05
1.53559e-05
1.5368e-05
1.53893e-05
1.54235e-05
1.54353e-05
1.54024e-05
1.53772e-05
1.53623e-05
1.5353e-05
1.53466e-05
1.53419e-05
1.5338e-05
1.53346e-05
1.53315e-05
1.53287e-05
1.5326e-05
1.53233e-05
1.53207e-05
1.53182e-05
1.53156e-05
1.53131e-05
1.53105e-05
1.53079e-05
1.52976e-05
1.53e-05
1.53023e-05
1.53044e-05
1.53064e-05
1.56363e-05
1.56374e-05
1.56386e-05
1.56398e-05
1.56412e-05
1.56427e-05
1.56445e-05
1.56468e-05
1.56504e-05
1.56582e-05
1.56786e-05
1.56928e-05
1.56666e-05
1.56537e-05
1.5648e-05
1.56446e-05
1.56419e-05
1.56396e-05
1.56374e-05
1.56352e-05
1.5633e-05
1.56308e-05
1.56286e-05
1.56264e-05
1.56242e-05
1.56219e-05
1.56195e-05
1.56172e-05
1.56148e-05
1.56124e-05
1.56005e-05
1.56028e-05
1.5605e-05
1.5607e-05
1.56089e-05
1.5637e-05
1.56383e-05
1.56397e-05
1.56413e-05
1.56432e-05
1.56455e-05
1.56486e-05
1.56533e-05
1.56615e-05
1.56794e-05
1.57246e-05
1.57736e-05
1.57065e-05
1.56738e-05
1.56597e-05
1.56522e-05
1.56473e-05
1.56437e-05
1.56406e-05
1.56379e-05
1.56353e-05
1.56328e-05
1.56304e-05
1.5628e-05
1.56257e-05
1.56233e-05
1.56209e-05
1.56185e-05
1.56161e-05
1.56136e-05
1.56112e-05
1.56027e-05
1.56049e-05
1.5607e-05
1.5609e-05
1.56377e-05
1.56391e-05
1.56408e-05
1.56427e-05
1.5645e-05
1.5648e-05
1.56521e-05
1.56584e-05
1.56692e-05
1.56903e-05
1.57353e-05
1.57882e-05
1.57257e-05
1.56879e-05
1.56694e-05
1.5659e-05
1.56524e-05
1.56476e-05
1.56437e-05
1.56405e-05
1.56375e-05
1.56348e-05
1.56322e-05
1.56296e-05
1.56271e-05
1.56247e-05
1.56222e-05
1.56198e-05
1.56173e-05
1.56149e-05
1.56124e-05
1.56026e-05
1.56049e-05
1.5607e-05
1.56091e-05
1.56383e-05
1.56399e-05
1.56417e-05
1.56439e-05
1.56466e-05
1.56501e-05
1.5655e-05
1.56622e-05
1.56738e-05
1.56934e-05
1.57259e-05
1.57528e-05
1.57246e-05
1.56945e-05
1.56759e-05
1.56644e-05
1.56567e-05
1.5651e-05
1.56466e-05
1.56429e-05
1.56396e-05
1.56366e-05
1.56338e-05
1.56311e-05
1.56285e-05
1.5626e-05
1.56235e-05
1.5621e-05
1.56185e-05
1.5616e-05
1.56136e-05
1.56025e-05
1.56048e-05
1.5607e-05
1.56091e-05
1.58967e-05
1.58978e-05
1.5899e-05
1.59003e-05
1.59017e-05
1.59032e-05
1.5905e-05
1.59072e-05
1.591e-05
1.59138e-05
1.59194e-05
1.59238e-05
1.59188e-05
1.59133e-05
1.59094e-05
1.59063e-05
1.59037e-05
1.59014e-05
1.58991e-05
1.5897e-05
1.58948e-05
1.58927e-05
1.58906e-05
1.58884e-05
1.58863e-05
1.58841e-05
1.58819e-05
1.58797e-05
1.58774e-05
1.58752e-05
1.58729e-05
1.58607e-05
1.58629e-05
1.58649e-05
1.58669e-05
1.58974e-05
1.58986e-05
1.59001e-05
1.59017e-05
1.59036e-05
1.59059e-05
1.5909e-05
1.59135e-05
1.5921e-05
1.59354e-05
1.59664e-05
1.60069e-05
1.59743e-05
1.59407e-05
1.59244e-05