/*--------------------------------*- C++ -*----------------------------------*\
  =========                 |
  \\      /  F ield         | OpenFOAM: The Open Source CFD Toolbox
   \\    /   O peration     | Website:  https://openfoam.org
    \\  /    A nd           | Version:  6
     \\/     M anipulation  |
\*---------------------------------------------------------------------------*/
FoamFile
{
    version     2.0;
    format      ascii;
    class       volScalarField;
    location    "0";
    object      omega;
}
// * * * * * * * * * * * * * * * * * * * * * * * * * * * * * * * * * * * * * //

dimensions      [0 0 -1 0 0 0 0];

internalField   nonuniform List<scalar> 
63264
(
709.359
708.418
707.377
706.199
704.82
703.114
700.821
697.318
690.889
675.957
638.157
651.94
680.891
692.353
698.082
701.709
704.434
706.726
708.792
710.737
712.616
714.461
716.291
718.119
719.951
721.794
723.65
725.521
727.41
733.506
731.809
730.215
728.711
727.288
725.938
709.271
708.278
707.164
705.885
704.361
702.451
699.884
696.102
689.896
678.584
658.237
661.107
679.747
689.983
696.018
700.072
703.131
705.66
707.891
709.949
711.904
713.8
715.661
717.504
719.341
721.178
723.022
724.874
726.738
734.097
732.383
730.771
729.25
727.809
726.44
709.277
708.29
707.182
705.905
704.374
702.432
699.75
695.578
687.944
670.752
623.485
619.739
667.808
685.764
694.142
699.041
702.45
705.135
707.438
709.527
711.492
713.383
715.232
717.057
718.872
720.684
722.5
724.323
726.155
734.695
732.971
731.351
729.823
728.377
727.005
709.307
708.333
707.243
705.99
704.495
702.606
700.009
695.983
688.622
672.081
627.705
611.596
664.136
684.331
693.457
698.621
702.127
704.847
707.156
709.237
711.186
713.056
714.881
716.68
718.467
720.249
722.033
723.822
725.62
727.426
733.553
731.93
730.4
728.955
727.584
709.36
708.407
707.347
706.14
704.718
702.959
700.625
697.208
691.532
680.639
658.334
648.388
672.823
686.99
694.429
699.004
702.258
704.846
707.074
709.097
710.999
712.83
714.617
716.38
718.131
719.878
721.625
723.377
725.136
726.904
734.123
732.502
730.976
729.535
728.17
709.064
708.035
706.871
705.521
703.898
701.853
699.112
695.144
688.873
677.999
658.222
647.097
668.521
682.909
691.145
696.439
700.232
703.206
705.709
707.93
709.975
711.908
713.771
715.588
717.377
719.148
720.911
722.669
724.428
726.189
734.463
732.82
731.272
729.808
728.42
709.069
708.043
706.88
705.526
703.884
701.784
698.89
694.486
686.88
671.58
635.898
595.112
649.878
675.911
688.059
694.842
699.272
702.546
705.199
707.497
709.582
711.534
713.402
715.216
716.995
718.754
720.501
722.242
723.981
725.721
727.464
733.296
731.74
730.27
728.876
709.101
708.087
706.94
705.606
703.993
701.933
699.092
694.757
687.213
671.908
636.305
584.017
644.145
673.471
686.934
694.234
698.879
702.246
704.938
707.249
709.333
711.277
713.132
714.929
716.691
718.43
720.155
721.873
723.587
725.302
727.019
733.763
732.204
730.733
729.339
709.158
708.166
707.049
705.761
704.222
702.29
699.697
695.896
689.679
678.175
655.252
631.728
656.082
677.317
688.45
694.909
699.194
702.38
704.969
707.213
709.247
711.151
712.971
714.738
716.469
718.179
719.876
721.566
723.252
724.937
726.624
734.216
732.661
731.194
729.805
708.707
707.629
706.403
704.975
703.263
701.133
698.371
694.634
689.404
682.081
672.769
666.727
672.6
681.368
688.367
693.619
697.647
700.877
703.591
705.968
708.123
710.127
712.029
713.86
715.642
717.39
719.115
720.824
722.522
724.214
725.901
734.329
732.758
731.273
729.867
708.691
707.604
706.362
704.902
703.122
700.849
697.767
693.271
686.116
673.539
649.532
619.627
643.684
669.021
682.638
690.631
695.909
699.761
702.807
705.371
707.636
709.706
711.648
713.504
715.299
717.054
718.78
720.487
722.18
723.865
725.544
727.22
733.091
731.596
730.179
708.704
707.621
706.38
704.917
703.122
700.804
697.604
692.792
684.776
669.78
638.504
574.93
624.41
661.304
679.101
688.824
694.877
699.103
702.341
705.009
707.33
709.432
711.389
713.251
715.047
716.797
718.517
720.215
721.898
723.571
725.238
726.9
733.417
731.916
730.496
708.748
707.679
706.458
705.021
703.265
701.008
697.906
693.27
685.606
671.467
643.108
596.96
626.741
661.266
678.956
688.724
694.803
699.035
702.268
704.926
707.235
709.323
711.266
713.113
714.893
716.628
718.332
720.013
721.68
723.336
724.986
726.63
733.731
732.231
730.813
708.821
707.778
706.592
705.212
703.547
701.448
698.646
694.632
688.392
677.842
659.345
637.646
648.327
669.43
682.572
690.526
695.791
699.615
702.624
705.146
707.366
709.391
711.286
713.095
714.843
716.55
718.228
719.886
721.529
723.163
724.79
726.412
734.029
732.537
731.126
708.402
707.292
706.028
704.554
702.791
700.616
697.843
694.197
689.316
682.88
675.236
669.631
672.07
679.08
685.748
691.136
695.408
698.869
701.771
704.289
706.545
708.617
710.56
712.412
714.198
715.936
717.639
719.316
720.974
722.618
724.251
725.876
733.988
732.487
731.065
708.35
707.219
705.919
704.383
702.508
700.12
696.919
692.358
685.402
673.996
654.471
630.207
639.845
663.108
677.869
686.917
692.947
697.315
700.718
703.53
705.966
708.154
710.174
712.079
713.901
715.665
717.388
719.079
720.748
722.399
724.039
725.669
734.136
732.621
731.187
708.331
707.191
705.874
704.308
702.376
699.874
696.435
691.35
683.17
668.765
641.412
593.781
614.116
652.316
672.707
684.211
691.401
696.357
700.078
703.071
705.616
707.872
709.937
711.87
713.712
715.489
717.22
718.917
720.589
722.243
723.883
725.513
734.271
732.749
731.308
708.345
707.208
705.895
704.334
702.404
699.901
696.446
691.311
682.987
668.215
639.975
587.244
609.034
650.119
671.605
683.63
691.071
696.153
699.938
702.966
705.53
707.795
709.864
711.798
713.639
715.414
717.142
718.835
720.503
722.153
723.788
725.413
734.39
732.867
731.425
708.392
707.272
705.983
704.459
702.593
700.199
696.954
692.246
684.868
672.36
650.222
620.134
629.333
657.398
674.952
685.366
692.057
696.757
700.332
703.235
705.718
707.931
709.961
711.867
713.686
715.443
717.155
718.835
720.491
722.129
723.753
725.368
726.974
732.974
731.538
708.473
707.38
706.135
704.681
702.932
700.75
697.911
694.035
688.488
680.241
668.122
655.675
658.938
671.811
682.036
689.129
694.227
698.105
701.223
703.856
706.171
708.271
710.224
712.074
713.85
715.574
717.259
718.916
720.552
722.172
723.78
725.379
726.97
733.069
731.646
347.989
348.462
348.984
349.573
350.261
351.108
352.242
353.962
357.076
364.101
380.668
374.817
361.813
356.374
353.591
351.808
350.457
349.314
348.278
347.298
346.346
345.407
344.471
343.531
342.584
341.627
340.658
339.675
338.678
335.424
336.336
337.188
337.989
338.743
339.456
348.636
349.135
349.692
350.33
351.087
352.031
353.292
355.134
358.115
363.425
372.596
371.331
362.887
358.074
355.174
353.2
351.695
350.441
349.328
348.295
347.307
346.345
345.395
344.45
343.502
342.55
341.589
340.618
339.637
335.708
336.631
337.494
338.305
339.07
339.794
348.634
349.129
349.684
350.322
351.082
352.043
353.362
355.395
359.057
367.035
387.227
388.728
368.365
360.089
356.09
353.71
352.036
350.705
349.557
348.509
347.518
346.559
345.616
344.68
343.746
342.807
341.862
340.908
339.945
335.386
336.315
337.185
338.001
338.769
339.496
348.619
349.109
349.655
350.28
351.024
351.961
353.24
355.206
358.745
366.446
385.533
391.956
370.027
360.776
356.429
353.922
352.199
350.852
349.701
348.657
347.674
346.726
345.796
344.875
343.956
343.034
342.106
341.171
340.228
339.274
336.003
336.875
337.693
338.463
339.191
348.593
349.072
349.604
350.207
350.916
351.789
352.941
354.616
357.364
362.521
372.617
376.93
366.128
359.534
355.968
353.74
352.139
350.856
349.744
348.729
347.77
346.843
345.932
345.03
344.13
343.227
342.319
341.405
340.482
339.551
335.696
336.569
337.387
338.156
338.881
348.962
349.48
350.063
350.737
351.545
352.557
353.906
355.841
358.857
363.967
372.888
377.708
368.301
361.679
357.772
355.213
353.358
351.89
350.646
349.535
348.506
347.527
346.58
345.651
344.732
343.817
342.902
341.985
341.063
340.135
335.714
336.6
337.432
338.215
338.954
348.959
349.475
350.058
350.735
351.551
352.591
354.014
356.158
359.802
366.909
382.413
398.544
376.508
364.927
359.243
355.987
353.829
352.217
350.9
349.751
348.703
347.717
346.768
345.841
344.928
344.021
343.115
342.208
341.298
340.382
339.461
336.344
337.181
337.968
338.711
348.943
349.453
350.028
350.694
351.496
352.517
353.914
356.026
359.642
366.756
382.24
402.709
378.952
366.044
359.775
356.28
354.02
352.364
351.029
349.875
348.828
347.847
346.905
345.987
345.084
344.188
343.295
342.401
341.504
340.603
339.696
336.092
336.931
337.72
338.464
348.914
349.413
349.972
350.616
351.382
352.339
353.616
355.472
358.466
363.875
374.175
384.129
373.812
364.272
359.052
355.951
353.864
352.296
351.012
349.892
348.871
347.91
346.986
346.085
345.198
344.317
343.439
342.561
341.68
340.795
339.905
335.847
336.685
337.473
338.216
349.075
349.618
350.234
350.948
351.801
352.857
354.218
356.044
358.568
362.042
366.362
369.108
366.441
362.378
359.066
356.539
354.577
352.988
351.643
350.456
349.374
348.362
347.397
346.463
345.549
344.648
343.755
342.866
341.978
341.09
340.199
335.687
336.537
337.336
338.091
349.082
349.629
350.252
350.983
351.869
352.994
354.51
356.697
360.123
365.985
376.64
389.024
379.136
368.043
361.765
357.971
355.419
353.533
352.028
350.752
349.617
348.573
347.588
346.643
345.724
344.821
343.928
343.041
342.157
341.273
340.387
339.5
336.356
337.162
337.922
349.074
349.619
350.242
350.973
351.866
353.013
354.585
356.922
360.748
367.686
381.302
406.104
387.091
371.487
363.407
358.828
355.914
353.852
352.256
350.929
349.768
348.709
347.718
346.771
345.852
344.951
344.063
343.181
342.303
341.426
340.548
339.668
336.18
336.989
337.752
349.051
349.589
350.202
350.919
351.793
352.909
354.433
356.685
360.347
366.908
379.354
397.813
386.137
371.492
363.464
358.867
355.944
353.88
352.287
350.967
349.812
348.762
347.779
346.839
345.929
345.037
344.158
343.285
342.416
341.549
340.681
339.811
336.009
336.818
337.581
349.014
349.538
350.133
350.822
351.65
352.689
354.066
356.02
359.016
363.968
372.327
381.637
377.118
367.82
361.765
357.997
355.458
353.59
352.107
350.854
349.744
348.725
347.766
346.846
345.953
345.076
344.21
343.35
342.494
341.639
340.783
339.926
335.847
336.653
337.412
349.082
349.642
350.277
351.014
351.893
352.97
354.335
356.113
358.467
361.522
365.082
367.646
366.535
363.301
360.167
357.593
355.525
353.832
352.399
351.147
350.018
348.974
347.99
347.047
346.133
345.239
344.359
343.488
342.622
341.761
340.9
340.041
335.688
336.501
337.268
349.108
349.678
350.331
351.098
352.031
353.213
354.784
356.998
360.322
365.637
374.366
384.614
380.619
370.56
363.85
359.603
356.713
354.589
352.917
351.523
350.306
349.206
348.184
347.216
346.284
345.377
344.488
343.61
342.74
341.875
341.012
340.15
335.606
336.428
337.202
349.117
349.691
350.352
351.135
352.095
353.332
355.017
357.48
361.369
368.012
379.952
398.891
391.067
375.294
366.219
360.878
357.454
355.054
353.23
351.749
350.479
349.346
348.303
347.321
346.38
345.467
344.574
343.694
342.822
341.956
341.093
340.232
335.533
336.358
337.136
349.109
349.682
350.341
351.121
352.08
353.317
355.009
357.495
361.45
368.255
380.55
401.334
393.051
376.236
366.716
361.147
357.609
355.15
353.296
351.799
350.521
349.384
348.339
347.356
346.416
345.505
344.613
343.735
342.866
342.003
341.143
340.284
335.468
336.294
337.072
349.085
349.649
350.296
351.057
351.985
353.168
354.758
357.041
360.559
366.366
376.186
388.671
384.952
373.064
365.178
360.323
357.13
354.852
353.1
351.663
350.425
349.314
348.288
347.32
346.391
345.489
344.606
343.735
342.872
342.015
341.161
340.308
339.455
336.235
337.011
349.044
349.594
350.219
350.945
351.815
352.894
354.288
356.174
358.837
362.723
368.281
373.81
372.378
366.608
361.883
358.529
356.078
354.191
352.657
351.352
350.196
349.141
348.154
347.214
346.306
345.421
344.551
343.692
342.84
341.992
341.146
340.301
339.457
336.183
336.952
144.099
144.19
144.291
144.405
144.539
144.704
144.925
145.262
145.872
147.242
150.444
149.317
146.797
145.735
145.191
144.843
144.58
144.358
144.158
143.968
143.785
143.604
143.423
143.242
143.06
142.875
142.689
142.5
142.308
141.682
141.857
142.022
142.176
142.321
142.458
144.919
145.013
145.119
145.24
145.383
145.561
145.797
146.142
146.7
147.697
149.44
149.197
147.594
146.69
146.147
145.776
145.493
145.256
145.045
144.849
144.661
144.478
144.297
144.117
143.936
143.754
143.571
143.385
143.198
142.447
142.623
142.788
142.943
143.089
143.227
144.92
145.014
145.12
145.242
145.386
145.569
145.82
146.207
146.903
148.427
152.311
152.6
148.682
147.099
146.338
145.885
145.566
145.313
145.094
144.894
144.705
144.522
144.342
144.163
143.984
143.805
143.624
143.442
143.258
142.386
142.564
142.73
142.886
143.033
143.172
144.919
145.012
145.117
145.237
145.38
145.56
145.806
146.184
146.866
148.347
152.014
153.248
149.035
147.256
146.42
145.937
145.606
145.348
145.127
144.927
144.739
144.557
144.379
144.203
144.027
143.85
143.673
143.494
143.313
143.131
142.505
142.672
142.829
142.976
143.115
144.915
145.007
145.11
145.226
145.364
145.533
145.757
146.084
146.622
147.627
149.578
150.406
148.325
147.045
146.35
145.916
145.604
145.356
145.141
144.945
144.761
144.583
144.408
144.235
144.062
143.889
143.715
143.54
143.363
143.185
142.448
142.615
142.771
142.919
143.058
145.475
145.572
145.682
145.809
145.961
146.15
146.403
146.765
147.329
148.288
149.976
150.895
149.105
147.856
147.124
146.645
146.297
146.022
145.788
145.579
145.385
145.2
145.021
144.845
144.671
144.498
144.325
144.152
143.977
143.801
142.963
143.131
143.288
143.437
143.577
145.476
145.573
145.683
145.811
145.966
146.162
146.431
146.836
147.525
148.873
151.826
154.912
150.7
148.496
147.418
146.803
146.395
146.09
145.841
145.624
145.425
145.239
145.059
144.884
144.711
144.539
144.367
144.195
144.023
143.849
143.675
143.084
143.242
143.391
143.532
145.474
145.571
145.68
145.807
145.959
146.153
146.419
146.822
147.511
148.866
151.815
155.723
151.189
148.73
147.536
146.87
146.44
146.125
145.871
145.652
145.453
145.266
145.088
144.914
144.742
144.572
144.403
144.233
144.063
143.892
143.72
143.037
143.196
143.346
143.487
145.47
145.565
145.672
145.795
145.941
146.125
146.37
146.727
147.302
148.34
150.306
152.199
150.237
148.415
147.415
146.82
146.419
146.119
145.873
145.66
145.465
145.282
145.106
144.935
144.766
144.599
144.432
144.265
144.098
143.93
143.761
142.992
143.151
143.3
143.441
145.799
145.9
146.015
146.148
146.307
146.503
146.755
147.093
147.561
148.204
149.005
149.516
149.019
148.265
147.651
147.183
146.819
146.524
146.274
146.053
145.851
145.662
145.482
145.307
145.136
144.967
144.8
144.634
144.467
144.301
144.134
143.288
143.448
143.597
143.739
145.801
145.904
146.02
146.157
146.322
146.532
146.815
147.224
147.864
148.963
150.969
153.31
151.44
149.35
148.171
147.461
146.984
146.632
146.35
146.112
145.899
145.704
145.52
145.343
145.17
145.001
144.834
144.668
144.502
144.336
144.17
144.004
143.415
143.566
143.708
145.801
145.903
146.02
146.157
146.325
146.54
146.835
147.274
147.993
149.298
151.865
156.566
152.957
150.014
148.493
147.632
147.084
146.697
146.398
146.149
145.931
145.732
145.546
145.369
145.196
145.027
144.861
144.695
144.531
144.366
144.202
144.037
143.382
143.534
143.677
145.798
145.899
146.014
146.149
146.314
146.524
146.812
147.237
147.928
149.165
151.512
154.991
152.79
150.03
148.516
147.649
147.097
146.708
146.408
146.16
145.943
145.745
145.56
145.384
145.213
145.045
144.88
144.716
144.553
144.39
144.227
144.064
143.351
143.503
143.646
145.792
145.891
146.003
146.133
146.29
146.487
146.748
147.119
147.687
148.626
150.205
151.958
151.107
149.354
148.209
147.495
147.014
146.66
146.379
146.142
145.933
145.741
145.56
145.387
145.219
145.054
144.891
144.73
144.569
144.408
144.248
144.087
143.322
143.473
143.616
145.932
146.036
146.154
146.291
146.453
146.653
146.907
147.237
147.673
148.24
148.902
149.379
149.172
148.571
147.989
147.511
147.127
146.813
146.547
146.315
146.106
145.912
145.729
145.554
145.385
145.219
145.056
144.894
144.734
144.574
144.414
144.255
143.448
143.599
143.741
145.937
146.043
146.164
146.307
146.481
146.7
146.993
147.405
148.025
149.017
150.649
152.569
151.82
149.937
148.683
147.891
147.353
146.957
146.646
146.387
146.161
145.956
145.767
145.587
145.414
145.246
145.081
144.918
144.756
144.596
144.436
144.276
143.433
143.585
143.729
145.94
146.046
146.169
146.315
146.494
146.724
147.038
147.498
148.225
149.467
151.701
155.25
153.783
150.829
149.132
148.133
147.494
147.046
146.707
146.431
146.194
145.984
145.79
145.607
145.433
145.263
145.097
144.934
144.772
144.611
144.451
144.291
143.42
143.573
143.717
145.939
146.045
146.168
146.313
146.492
146.723
147.039
147.504
148.244
149.517
151.818
155.712
154.158
151.011
149.229
148.188
147.526
147.067
146.721
146.442
146.204
145.992
145.798
145.615
145.44
145.271
145.105
144.942
144.781
144.62
144.461
144.301
143.408
143.561
143.706
145.934
146.04
146.16
146.302
146.476
146.697
146.994
147.422
148.081
149.169
151.006
153.342
152.647
150.423
148.947
148.038
147.44
147.014
146.686
146.418
146.187
145.98
145.789
145.609
145.436
145.269
145.104
144.943
144.782
144.623
144.465
144.306
144.148
143.551
143.695
145.927
146.03
146.147
146.282
146.445
146.647
146.909
147.263
147.763
148.492
149.535
150.57
150.302
149.221
148.335
147.706
147.246
146.893
146.606
146.362
146.146
145.949
145.765
145.59
145.421
145.257
145.095
144.935
144.777
144.619
144.462
144.305
144.149
143.542
143.684
81.6663
81.6944
81.7255
81.7607
81.8021
81.8534
81.9227
82.0286
82.2208
82.6497
83.6346
83.2898
82.511
82.1783
82.0074
81.8985
81.8167
81.748
81.6862
81.6279
81.5715
81.516
81.4608
81.4054
81.3497
81.2934
81.2364
81.1787
81.1201
80.9293
80.9829
81.033
81.08
81.1244
81.1663
82.3876
82.4163
82.4482
82.4845
82.5273
82.5802
82.6502
82.7517
82.9155
83.2103
83.7385
83.6639
83.1793
82.9117
82.7516
82.6419
82.5576
82.4867
82.4232
82.3639
82.3069
82.2512
82.1961
82.1411
82.0859
82.0303
81.9743
81.9176
81.8602
81.63
81.6839
81.7343
81.7817
81.8264
81.8686
82.3888
82.4177
82.4499
82.4869
82.531
82.5865
82.6625
82.7796
82.9912
83.4572
84.6598
84.7501
83.5353
83.0505
82.8188
82.6813
82.5846
82.5075
82.4409
82.3799
82.3222
82.2662
82.2112
82.1565
82.1018
82.0469
81.9916
81.9358
81.8793
81.6121
81.6666
81.7175
81.7652
81.8102
81.8528
82.3893
82.4182
82.4504
82.4874
82.5315
82.5871
82.6633
82.7806
82.992
83.451
84.5843
84.9657
83.6636
83.1129
82.8537
82.7043
82.602
82.5221
82.454
82.3924
82.3345
82.2787
82.2241
82.1699
82.1159
82.0618
82.0073
81.9524
81.8971
81.8411
81.6493
81.7005
81.7485
81.7937
81.8364
82.3892
82.4178
82.4496
82.486
82.529
82.5823
82.6534
82.7574
82.9285
83.2472
83.8569
84.1124
83.4665
83.063
82.8425
82.7049
82.6067
82.5287
82.4616
82.4008
82.3435
82.2884
82.2345
82.1811
82.128
82.0748
82.0213
81.9675
81.9132
81.8584
81.6324
81.6837
81.7318
81.777
81.8197
82.9477
82.9775
83.011
83.0496
83.0955
83.1529
83.2289
83.3377
83.5074
83.7977
84.3169
84.6032
84.0473
83.666
83.4445
83.3001
83.1952
83.1119
83.0408
82.9771
82.9179
82.8614
82.8065
82.7527
82.6993
82.6461
82.5928
82.5394
82.4856
82.4315
82.1733
82.225
82.2735
82.3191
82.3622
82.9488
82.9788
83.0127
83.0519
83.0993
83.1595
83.2418
83.3659
83.5775
83.9935
84.9126
85.8809
84.5609
83.8766
83.5443
83.3551
83.2299
83.1365
83.0601
82.9934
82.9324
82.875
82.8197
82.7657
82.7124
82.6595
82.6066
82.5536
82.5004
82.447
82.3931
82.211
82.2599
82.3059
82.3493
82.9491
82.979
83.0128
83.0521
83.0994
83.1597
83.2424
83.3676
83.582
84.0039
84.9216
86.1432
84.7264
83.9613
83.5896
83.3826
83.2489
83.1511
83.0724
83.0045
82.943
82.8853
82.8301
82.7763
82.7233
82.6708
82.6185
82.5662
82.5137
82.4609
82.4079
82.1973
82.2464
82.2926
82.3361
82.9486
82.9782
83.0115
83.05
83.096
83.1538
83.2312
83.344
83.526
83.8529
84.4674
85.0545
84.4455
83.8764
83.5617
83.374
83.2478
83.1533
83.0764
83.0095
82.9488
82.8919
82.8373
82.7841
82.7318
82.68
82.6284
82.5769
82.5252
82.4733
82.4211
82.1839
82.233
82.2792
82.3228
83.3451
83.3762
83.4114
83.4521
83.5006
83.5603
83.637
83.7396
83.8811
84.0759
84.3196
84.4759
84.3231
84.0935
83.9074
83.7654
83.6548
83.5649
83.4884
83.4207
83.3588
83.3007
83.2451
83.1912
83.1385
83.0864
83.0346
82.9831
82.9316
82.8801
82.8284
82.566
82.6153
82.6617
82.7055
83.3465
83.3781
83.414
83.4561
83.5071
83.5718
83.6588
83.7846
83.9822
84.323
84.9498
85.6863
85.0975
84.443
84.0768
83.8572
83.71
83.6014
83.5147
83.4411
83.3755
83.3152
83.2582
83.2034
83.1501
83.0977
83.0459
82.9944
82.943
82.8916
82.8401
82.7885
82.6056
82.6525
82.6967
83.347
83.3787
83.415
83.4576
83.5096
83.5764
83.6681
83.8045
84.0284
84.436
85.2397
86.7287
85.5825
84.6597
84.1842
83.9158
83.7454
83.6251
83.532
83.4548
83.3871
83.3255
83.2678
83.2126
83.1591
83.1067
83.055
83.0037
82.9526
82.9015
82.8504
82.7992
82.5962
82.6433
82.6877
83.3466
83.3782
83.4142
83.4564
83.5079
83.5738
83.6639
83.7972
84.014
84.4021
85.1367
86.2266
85.5367
84.6727
84.1984
83.9266
83.7538
83.632
83.5381
83.4604
83.3926
83.331
83.2734
83.2184
83.1652
83.1132
83.0618
83.0109
82.9602
82.9096
82.859
82.8083
82.587
82.6342
82.6787
83.3454
83.3764
83.4117
83.4527
83.5021
83.5642
83.6469
83.7645
83.9447
84.2412
84.7375
85.2857
85.0199
84.4703
84.1097
83.8841
83.7319
83.6202
83.5317
83.4572
83.3915
83.3313
83.2748
83.2207
83.1683
83.1169
83.0661
83.0159
82.9658
82.9158
82.8658
82.8158
82.5784
82.6254
82.6697
83.5698
83.6021
83.6388
83.6813
83.732
83.7942
83.873
83.9756
84.1116
84.2882
84.4944
84.6433
84.5786
84.3909
84.2096
84.0609
83.9415
83.8438
83.7612
83.6889
83.6238
83.5636
83.5068
83.4524
83.3997
83.3481
83.2973
83.2471
83.1972
83.1475
83.0979
83.0483
82.7976
82.8445
82.8887
83.5718
83.6047
83.6426
83.6871
83.7412
83.8099
83.9013
84.0305
84.2248
84.5369
85.052
85.6596
85.4225
84.8272
84.4321
84.1831
84.0143
83.8906
83.7933
83.7124
83.6419
83.5782
83.519
83.463
83.4092
83.3568
83.3054
83.2547
83.2045
83.1545
83.1047
83.055
82.7933
82.8406
82.8853
83.5727
83.6061
83.6445
83.69
83.7461
83.8183
83.917
84.0615
84.2903
84.6821
85.3882
86.5129
86.0471
85.1126
84.5766
84.262
84.0608
83.9202
83.8136
83.7272
83.6533
83.5875
83.5269
83.47
83.4155
83.3626
83.311
83.2601
83.2097
83.1597
83.1098
83.0601
82.7893
82.837
82.8819
83.5727
83.606
83.6445
83.6901
83.7463
83.8189
83.9185
84.0651
84.2986
84.7008
85.4279
86.6612
86.1679
85.1729
84.6102
84.2814
84.0728
83.9281
83.8193
83.7316
83.657
83.5907
83.5299
83.4729
83.4183
83.3655
83.3139
83.263
83.2128
83.1628
83.1131
83.0635
82.7859
82.8336
82.8786
83.5717
83.6046
83.6425
83.6872
83.7418
83.8115
83.9056
84.0408
84.2494
84.5936
85.1745
85.9122
85.6925
84.9901
84.5236
84.2362
84.0474
83.9128
83.8096
83.7252
83.6526
83.5877
83.5279
83.4715
83.4176
83.3652
83.314
83.2635
83.2136
83.1639
83.1145
83.0652
83.0159
82.8306
82.8754
83.5697
83.6019
83.6386
83.6814
83.7328
83.7968
83.8797
83.9921
84.1511
84.383
84.7137
85.0413
84.9566
84.6145
84.3335
84.1338
83.988
83.876
83.7853
83.7083
83.6404
83.5786
83.5209
83.4661
83.4133
83.3618
83.3113
83.2615
83.2121
83.163
83.1141
83.0652
83.0163
82.8279
82.8724
53.5528
53.5644
53.5773
53.592
53.6093
53.6309
53.6603
53.7055
53.7876
53.9694
54.3772
54.2356
53.911
53.7698
53.697
53.6509
53.6164
53.5877
53.562
53.5379
53.5146
53.4918
53.4691
53.4463
53.4235
53.4004
53.3771
53.3534
53.3294
53.2514
53.2733
53.2938
53.3131
53.3312
53.3484
54.1107
54.1222
54.135
54.1495
54.1664
54.1872
54.2144
54.2536
54.3166
54.4311
54.6442
54.6134
54.4187
54.3145
54.2526
54.2099
54.1768
54.1487
54.1234
54.0996
54.0766
54.054
54.0317
54.0093
53.9868
53.9642
53.9413
53.9181
53.8947
53.8004
53.8224
53.843
53.8624
53.8806
53.8978
54.1117
54.1235
54.1366
54.1516
54.1694
54.1919
54.2225
54.2697
54.3553
54.5457
55.0458
55.0837
54.5777
54.3792
54.2852
54.2297
54.1905
54.1593
54.1323
54.1075
54.084
54.0611
54.0387
54.0163
53.994
53.9715
53.9489
53.926
53.9029
53.7935
53.8157
53.8366
53.8561
53.8745
53.8919
54.1124
54.1243
54.1376
54.1529
54.1711
54.1942
54.2259
54.2747
54.3628
54.5538
55.0238
55.1821
54.6419
54.4131
54.3052
54.2431
54.2006
54.1676
54.1394
54.1141
54.0902
54.0673
54.0448
54.0226
54.0004
53.9782
53.9558
53.9333
53.9106
53.8877
53.8091
53.8301
53.8498
53.8683
53.8858
54.1129
54.1248
54.1381
54.1534
54.1715
54.1942
54.2247
54.2694
54.3433
54.4801
54.7367
54.8425
54.573
54.4013
54.3066
54.2475
54.2057
54.1726
54.1444
54.119
54.0952
54.0723
54.05
54.028
54.0061
53.9841
53.9621
53.94
53.9177
53.8952
53.8025
53.8236
53.8434
53.8619
53.8795
54.5538
54.5659
54.5794
54.5949
54.6134
54.6363
54.6665
54.7096
54.7769
54.8931
55.1059
55.2253
54.9944
54.8397
54.7513
54.6938
54.652
54.6187
54.5901
54.5644
54.5404
54.5174
54.4951
54.4731
54.4513
54.4296
54.4078
54.3859
54.3639
54.3417
54.2356
54.2569
54.2767
54.2954
54.3131
54.5547
54.567
54.5808
54.5969
54.6162
54.6407
54.6742
54.7248
54.8113
54.9825
55.3653
55.7735
55.2181
54.934
54.7974
54.72
54.669
54.6308
54.5997
54.5724
54.5475
54.524
54.5013
54.4792
54.4574
54.4356
54.4139
54.3922
54.3704
54.3484
54.3263
54.2515
54.2716
54.2904
54.3083
54.5553
54.5676
54.5816
54.5978
54.6175
54.6425
54.6768
54.7289
54.8182
54.9939
55.376
55.8892
55.2946
54.976
54.8213
54.7352
54.6796
54.6391
54.6065
54.5784
54.553
54.5292
54.5065
54.4843
54.4625
54.4409
54.4194
54.3978
54.3762
54.3545
54.3327
54.2462
54.2664
54.2854
54.3033
54.5555
54.5679
54.5818
54.5979
54.6173
54.6417
54.6745
54.7225
54.7999
54.9383
55.1955
55.439
55.1863
54.948
54.8151
54.7355
54.6821
54.6423
54.6099
54.582
54.5566
54.533
54.5103
54.4883
54.4667
54.4453
54.424
54.4027
54.3814
54.36
54.3385
54.241
54.2613
54.2803
54.2982
54.8744
54.8871
54.9013
54.9178
54.9374
54.9614
54.9921
55.0331
55.0895
55.1673
55.265
55.3283
55.2661
55.1738
55.0994
55.0427
54.9983
54.9622
54.9313
54.9039
54.8787
54.8551
54.8324
54.8104
54.7887
54.7674
54.7462
54.725
54.7038
54.6827
54.6614
54.5534
54.5737
54.5928
54.6108
54.8753
54.8883
54.903
54.9202
54.941
54.9674
55.0029
55.0542
55.1351
55.2755
55.5365
55.8461
55.5983
55.3251
55.1737
55.0836
55.0234
54.979
54.9436
54.9134
54.8866
54.8618
54.8385
54.816
54.7941
54.7725
54.7512
54.73
54.7089
54.6877
54.6665
54.6453
54.57
54.5893
54.6075
54.8759
54.889
54.9039
54.9215
54.943
54.9705
55.0084
55.0648
55.1577
55.3271
55.6628
56.2964
55.8063
55.4203
55.2223
55.1109
55.0403
54.9906
54.9522
54.9203
54.8924
54.8669
54.8432
54.8204
54.7984
54.7767
54.7554
54.7343
54.7132
54.6921
54.6711
54.6499
54.5664
54.5859
54.6042
54.8761
54.8892
54.9041
54.9217
54.9432
54.9707
55.0083
55.0642
55.1549
55.3172
55.624
56.0797
55.7909
55.4302
55.232
55.1184
55.0462
54.9953
54.9561
54.9238
54.8956
54.8701
54.8462
54.8235
54.8014
54.7799
54.7587
54.7376
54.7167
54.6958
54.6749
54.654
54.5629
54.5824
54.6008
54.8759
54.8889
54.9036
54.9209
54.9417
54.9679
55.0029
55.0528
55.1292
55.2545
55.4628
55.6913
55.5806
55.3508
55.1991
55.1038
55.0394
54.9923
54.955
54.9238
54.8962
54.8711
54.8476
54.8251
54.8033
54.782
54.7609
54.7401
54.7194
54.6987
54.6781
54.6574
54.5596
54.5791
54.5974
55.0603
55.0736
55.0887
55.1063
55.1272
55.1528
55.1853
55.2276
55.2837
55.3566
55.4418
55.5036
55.4766
55.3989
55.3241
55.2627
55.2135
55.1732
55.1392
55.1094
55.0826
55.0578
55.0344
55.012
54.9902
54.969
54.9481
54.9274
54.9069
54.8864
54.866
54.8455
54.7425
54.7618
54.78
55.0613
55.0749
55.0906
55.109
55.1314
55.1599
55.1978
55.2515
55.3325
55.463
55.6793
55.9355
55.8355
55.5849
55.4192
55.3153
55.245
55.1936
55.1532
55.1197
55.0905
55.0642
55.0398
55.0167
54.9944
54.9728
54.9516
54.9307
54.91
54.8894
54.8689
54.8484
54.7408
54.7603
54.7787
55.0618
55.0757
55.0916
55.1105
55.1338
55.1639
55.2051
55.2655
55.3613
55.5257
55.8228
56.2981
56.1006
55.7068
55.4815
55.3496
55.2655
55.2068
55.1623
55.1264
55.0957
55.0685
55.0434
55.0198
54.9973
54.9755
54.9541
54.9331
54.9124
54.8917
54.8712
54.8507
54.7393
54.759
54.7775
55.062
55.0758
55.0918
55.1108
55.1343
55.1646
55.2064
55.2679
55.366
55.5351
55.841
56.362
56.1527
55.7337
55.4971
55.359
55.2715
55.2109
55.1654
55.1288
55.0977
55.0702
55.045
55.0213
54.9987
54.9769
54.9555
54.9345
54.9138
54.8932
54.8727
54.8522
54.738
54.7577
54.7763
55.0617
55.0754
55.0912
55.1099
55.1328
55.162
55.2016
55.2586
55.3465
55.4915
55.736
56.0462
55.9538
55.6585
55.4622
55.3412
55.2617
55.2052
55.1619
55.1266
55.0963
55.0693
55.0444
55.021
54.9987
54.977
54.9558
54.9349
54.9143
54.8938
54.8734
54.853
54.8327
54.7566
54.7751
55.061
55.0745
55.0898
55.1078
55.1294
55.1563
55.1914
55.239
55.3064
55.4046
55.5444
55.6825
55.6468
55.5026
55.3839
55.2994
55.2378
55.1905
55.1524
55.1201
55.0917
55.0659
55.0418
55.0191
54.9971
54.9758
54.9549
54.9343
54.9138
54.8935
54.8733
54.8531
54.833
54.7556
54.7739
38.0051
38.0109
38.0174
38.0247
38.0335
38.0445
38.0596
38.0829
38.1254
38.2186
38.4221
38.3521
38.1889
38.1164
38.0789
38.0552
38.0377
38.0232
38.0103
37.9983
37.9868
37.9754
37.9642
37.953
37.9417
37.9303
37.9188
37.9072
37.8954
37.857
37.8678
37.8779
37.8873
37.8963
37.9048
38.4372
38.4428
38.4489
38.4557
38.4637
38.4734
38.4859
38.5036
38.5321
38.5847
38.6874
38.6721
38.5787
38.5308
38.5026
38.483
38.4676
38.4544
38.4423
38.4309
38.4199
38.4089
38.3981
38.3872
38.3762
38.3652
38.354
38.3427
38.3312
38.2848
38.2956
38.3057
38.3152
38.3241
38.3325
38.438
38.4438
38.4502
38.4575
38.4661
38.4769
38.4917
38.5144
38.5558
38.6491
38.8996
38.9188
38.6648
38.5673
38.5217
38.4949
38.476
38.4608
38.4477
38.4356
38.4241
38.413
38.402
38.3911
38.3801
38.3691
38.358
38.3468
38.3355
38.2817
38.2926
38.3028
38.3124
38.3214
38.33
38.4387
38.4446
38.4512
38.4588
38.4678
38.4793
38.4952
38.5197
38.5638
38.6595
38.8941
38.9734
38.7035
38.589
38.535
38.5039
38.4827
38.4662
38.4523
38.4397
38.4279
38.4166
38.4055
38.3946
38.3837
38.3727
38.3618
38.3507
38.3395
38.3282
38.2896
38.2999
38.3096
38.3187
38.3273
38.4392
38.4452
38.4519
38.4596
38.4689
38.4806
38.4963
38.5196
38.5582
38.6292
38.7596
38.8123
38.6768
38.5884
38.5392
38.5086
38.4871
38.4702
38.4559
38.4431
38.4312
38.4198
38.4087
38.3977
38.3869
38.376
38.3652
38.3543
38.3433
38.3322
38.2866
38.297
38.3067
38.3159
38.3246
38.7815
38.7873
38.7938
38.8013
38.8101
38.821
38.8352
38.8555
38.8873
38.9428
39.0473
39.1072
38.9919
38.9169
38.8748
38.8476
38.8278
38.8119
38.7982
38.7858
38.7742
38.7631
38.7522
38.7415
38.7308
38.7202
38.7095
38.6988
38.688
38.6771
38.625
38.6354
38.6452
38.6544
38.663
38.7822
38.7882
38.795
38.8028