/*--------------------------------*- C++ -*----------------------------------*\
  =========                 |
  \\      /  F ield         | OpenFOAM: The Open Source CFD Toolbox
   \\    /   O peration     | Website:  https://openfoam.org
    \\  /    A nd           | Version:  6
     \\/     M anipulation  |
\*---------------------------------------------------------------------------*/
FoamFile
{
    version     2.0;
    format      ascii;
    class       volScalarField;
    location    "32";
    object      yPlus;
}
// * * * * * * * * * * * * * * * * * * * * * * * * * * * * * * * * * * * * * //

dimensions      [0 0 0 0 0 0 0];

internalField   uniform 0;

boundaryField
{
    inlet
    {
        type            calculated;
        value           uniform 0;
    }
    outlet
    {
        type            calculated;
        value           uniform 0;
    }
    roughCylinder
    {
        type            calculated;
        value           nonuniform List<scalar> 
3840
(
45.8918
54.2921
62.2026
69.2193
74.5487
78.5194
81.5493
83.9577
86.0216
87.8392
89.4894
91.0353
92.548
94.0965
95.7343
97.4927
99.3787
101.382
103.48
105.642
107.821
109.943
111.812
113.048
45.0796
53.2032
60.9033
67.8218
73.1155
77.0695
80.0972
82.5169
84.5863
86.3924
88.0196
89.5372
91.0181
92.532
94.1339
95.8537
97.6983
99.6573
101.708
103.821
105.949
108.021
109.844
111.048
44.1919
52.0814
59.5806
66.3977
71.6627
75.6135
78.6537
81.0931
83.1699
84.969
86.5781
88.0704
89.5214
91.0031
92.569
94.2504
96.0546
97.9703
99.9752
102.039
104.116
106.138
107.915
109.087
43.3089
50.951
58.2476
64.9598
70.1982
74.152
77.2149
79.6851
81.7778
83.5795
85.1721
86.6413
88.0652
89.5153
91.0483
92.6938
94.4583
96.3314
98.2905
100.306
102.334
104.306
106.036
107.178
42.3517
49.7739
56.8691
63.4793
68.7071
72.6864
75.7899
78.2968
80.4078
82.2147
83.7986
85.2502
86.65
88.0733
89.5739
91.1839
92.9109
94.7435
96.6587
98.6273
100.606
102.529
104.216
105.326
41.4591
48.5993
55.4778
61.9819
67.2024
71.2106
74.3569
76.9094
79.0509
80.8748
82.4578
83.8955
85.2752
86.6717
88.1444
89.7229
91.4134
93.2059
95.0772
97.0006
98.9311
100.806
102.448
103.528
40.4313
47.345
54.007
60.4122
65.6482
69.7159
72.9308
75.5375
77.7105
79.5491
81.1424
82.574
83.9383
85.3158
86.761
88.3077
89.9641
91.7189
93.5495
95.4276
97.311
99.1406
100.739
101.789
39.5492
46.1139
52.5209
58.811
64.0656
68.1964
71.4748
74.1426
76.3634
78.24
79.8489
81.2833
82.6393
83.9972
85.4207
86.9414
88.565
90.2827
92.0714
93.9058
95.7423
97.5247
99.0806
100.101
38.4077
44.736
50.8979
57.0841
62.3826
66.6159
70.0037
72.7541
75.0288
76.9327
78.568
80.016
81.3704
82.7208
84.1238
85.6167
87.2101
88.8929
90.6432
92.434
94.2248
95.9636
97.4768
98.4679
37.5188
43.4112
49.2465
55.287
60.6332
64.9836
68.4708
71.3092
73.6543
75.6255
77.2973
78.7649
80.1289
81.4721
82.8616
84.3355
85.9
87.5482
89.2578
91.0054
92.7488
94.4406
95.9114
96.8726
36.1681
41.8308
47.3788
53.2803
58.6903
63.2025
66.8705
69.8436
72.2847
74.304
76.0228
77.5243
78.9016
80.2511
81.63
83.0813
84.6193
86.2346
87.9064
89.6108
91.3096
92.9588
94.3878
95.3193
35.1296
40.3301
45.4511
51.1357
56.6112
61.3282
65.1632
68.2806
70.8273
72.9544
74.7392
76.2814
77.6881
79.0423
80.4185
81.8594
83.3727
84.9558
86.5872
88.2473
89.8982
91.5
92.8852
93.787
33.7781
38.5725
43.2092
48.626
54.1494
59.1058
63.268
66.6225
69.3483
71.5654
73.4282
75.0328
76.471
77.8487
79.2246
80.6485
82.1398
83.6925
85.2871
86.9043
88.5103
90.07
91.4136
92.2849
32.4121
36.8294
40.8993
45.8998
51.4463
56.7545
61.1935
64.8149
67.7146
70.1034
72.0778
73.7521
75.2477
76.6461
78.0338
79.4577
80.9297
82.4521
84.0059
85.5767
87.1316
88.6442
89.9406
90.781
30.3979
34.4603
37.9162
42.4314
47.9223
53.5123
58.6271
62.7168
65.9794
68.5518
70.6611
72.4419
73.9941
75.4405
76.8403
78.2547
79.7093
81.2039
82.7211
84.2493
85.7598
87.2263
88.482
89.2888
28.3686
32.2245
35.0094
38.6815
43.8958
50.2451
55.7542
60.3892
63.9753
66.8499
69.1543
71.0531
72.7045
74.1926
75.6253
77.0533
78.4948
79.9606
81.4345
82.9105
84.3618
85.784
86.9844
87.7602
24.76
28.3937
30.4614
33.5427
38.7914
44.4357
51.586
57.2494
61.6717
64.9441
67.5076
69.5931
71.3404
72.915
74.3759
75.8033
77.2329
78.6735
80.1099
81.5429
82.9531
84.3174
85.4784
86.2139
21.1399
25.337
26.6029
26.2986
27.2533
39.0553
46.5948
53.6829
58.8013
62.7284
65.672
67.9733
69.896
71.5418
73.0669
74.5278
75.9514
77.3637
78.7509
80.1196
81.451
82.7792
83.8722
84.5762
8.41284
15.6226
18.4513
21.4667
21.279
25.4143
39.0951
47.9095
55.1958
60.018
63.5329
66.1978
68.2893
70.0928
71.6722
73.143
74.5616
75.9505
77.2975
78.6227
79.9241
81.1699
82.2206
82.8742
2.42832
11.8303
17.3925
20.0751
21.6083
9.52116
18.1751
40.2151
49.8925
56.6262
60.9869
64.0963
66.5287
68.4545
70.1487
71.6881
73.1098
74.4697
75.7549
76.9916
78.1733
79.3978
80.3647
80.981
14.9198
17.7739
18.1254
18.338
14.265
17.0678
20.2461
26.1981
43.1695
51.7947
57.7
61.64
64.4106
66.6484
68.4515
70.0117
71.4393
72.7762
74.0143
75.2064
76.3784
77.4808
78.3922
78.9449
23.111
26.2456
27.4269
26.8549
24.0779
17.0113
24.0192
26.8624
28.8314
45.5787
53.484
58.4708
61.9906
64.4601
66.4753
68.1818
69.6248
70.9315
72.0815
73.1357
74.1178
75.2112
76.0118
76.5101
25.854
29.8413
32.2963
33.7262
33.7298
31.405
24.1829
24.3378
33.349
33.447
47.1853
54.4208
58.7387
61.9064
64.1648
65.8926
67.3648
68.6462
69.7303
70.7359
71.7252
72.6503
73.3764
73.7882
27.0879
31.157
33.8146
35.7168
36.6999
36.5265
34.3773
26.9003
25.7262
11.8097
38.2447
48.6371
54.8533
58.5088
61.1903
63.2757
64.7822
66.0321
66.9691
67.7226
68.4168
69.3066
69.829
70.1554
26.5492
30.8009
33.7071
35.9688
37.4794
38.2026
38.0313
36.0666
28.3428
17.3809
19.909
40.5558
48.9132
54.3387
57.6254
59.6281
61.21
62.4331
63.2382
63.9574
64.6106
65.3544
65.8129
66.0013
24.4295
29.0113
32.1857
34.7798
36.69
37.9392
38.6157
38.6097
36.1238
31.6163
2.24196
25.0346
41.2153
48.1111
52.207
55.2976
56.9478
58.1158
58.6339
58.7263
59.007
59.4773
59.3075
59.3734
21.5092
26.4664
29.8546
32.7018
34.9405
36.6097
37.8559
38.8032
39.083
35.8711
28.5387
31.3042
28.9658
40.274
46.3772
48.4755
50.026
51.3479
51.2901
51.7689
51.2301
52.935
52.718
52.7522
18.4729
23.637
27.0551
29.9778
32.3995
34.3932
36.1009
37.6877
39.0528
39.241
34.176
33.5989
28.0963
29.5277
33.8076
40.0352
42.5088
43.4319
42.7527
41.0198
41.4035
39.2214
36.6574
36.7547
15.8222
20.9171
24.1563
26.9662
29.4061
31.5861
33.6438
35.7309
37.8341
39.4299
38.936
30.8399
30.0542
35.1377
26.2584
26.7351
21.4124
25.4671
18.6909
22.8685
7.35332
40.4302
24.5559
29.651
13.4374
18.3621
21.3515
23.9729
26.3416
28.5918
30.8551
33.2537
35.8411
38.3437
39.8389
37.9736
29.1825
34.1607
26.1626
33.2441
15.4878
28.65
33.0881
29.9541
19.5527
44.7411
31.6274
39.9374
11.7333
16.3641
19.0537
21.4395
23.6747
25.8927
28.2019
30.6974
33.4628
36.4315
39.0676
40.0941
37.2568
28.63
30.246
34.4282
25.5565
34.383
28.7057
38.3946
36.689
42.9154
30.2306
42.3327
10.7608
15.0675
17.4995
19.6813
21.7777
23.8983
26.1175
28.5118
31.1755
34.1795
37.3379
39.8291
40.3503
37.293
32.6774
29.0706
31.4882
29.907
35.4859
34.8046
37.3941
36.0362
39.8729
37.7925
10.3419
14.5055
16.7706
18.824
20.816
22.8169
24.8687
27.0319
29.4056
32.1206
35.2291
38.3838
40.545
40.6105
38.5091
37.7426
38.7376
38.3051
41.4578
40.6249
39.5567
42.3334
43.4857
42.3291
10.4612
14.5427
16.747
18.7594
20.6991
22.5977
24.4733
26.3757
28.3965
30.671
33.3511
36.4375
39.4009
41.0655
40.9669
41.127
41.4435
41.3896
42.6545
42.1493
40.6132
43.72
43.7849
43.6254
10.9
15.002
17.2364
19.279
21.2152
23.0496
24.786
26.4661
28.1693
30.0085
32.1394
34.7137
37.6346
40.1379
41.3997
42.0273
42.2433
42.0512
42.4852
41.9824
40.641
42.926
42.8625
43.0317
11.534
15.7466
18.0539
20.1675
22.1395
23.9523
25.6025
27.1281
28.5962
30.0914
31.7349
33.691
36.0698
38.5851
40.5442
41.6415
41.9762
41.6156
41.496
40.8082
39.7687
41.0674
41.1291
41.4089
12.4173
16.7051
19.0932
21.29
23.3131
25.131
26.7402
28.1791
29.503
30.7694
32.0581
33.4958
35.229
37.2493
39.1975
40.5145
40.9875
40.5314
40.0547
39.2029
38.3643
38.9572
39.2334
39.5984
13.4512
17.8023
20.2798
22.5634
24.6424
26.4794
28.0778
29.4797
30.7328
31.8725
32.942
34.0208
35.2272
36.6417
38.1577
39.3439
39.83
39.3439
38.6617
37.7188
36.9916
37.1932
37.6876
38.1759
14.5469
18.9852
21.5589
23.9301
26.0672
27.9333
29.5418
30.9405
32.1725
33.2583
34.2153
35.0836
35.9356
36.8545
37.8476
38.6758
39.0123
38.4888
37.6849
36.6965
36.0265
36.0797
36.7619
37.3914
15.6549
20.2096
22.8898
25.3515
27.5491
29.4513
31.0845
32.5023
33.7443
34.8212
35.7357
36.5013
37.1508
37.7373
38.2982
38.7246
38.805
38.1952
37.2948
36.276
35.6386
35.6782
36.509
37.2677
16.3281
16.7821
17.2514
17.6042
17.9259
18.1642
18.368
18.5115
18.621
18.6866
18.7233
18.7252
18.6998
18.6452
18.5649
18.4603
18.3352
18.1936
18.0478
17.9329
17.9648
18.1065
18.2655
18.4157
18.5478
18.6589
18.7449
18.805
18.836
18.8395
18.8082
18.7482
18.6433
18.5037
18.3035
18.0678
17.7482
17.3971
16.9282
16.4752
20.9848
21.4278
21.9063
22.2762
22.6243
22.8977
23.1395
23.3277
23.4831
23.5977
23.6833
23.7355
23.7585
23.7499
23.7106
23.6405
23.5422
23.4187
23.2807
23.1651
23.198
23.3407
23.4911
23.6227
23.7276
23.8038
23.8486
23.8626
23.8453
23.7985
23.7185
23.6094
23.4584
23.2741
23.0357
22.765
22.4189
22.0506
21.5728
21.1309
23.7365
24.2007
24.7156
25.1206
25.5139
25.8374
26.1343
26.3824
26.6013
26.7813
26.9329
27.0525
27.142
27.1985
27.2208
27.2072
27.1585
27.0774
26.9747
26.8865
26.9145
27.0299
27.1457
27.2351
27.2907
27.3108
27.2944
27.2442
27.1611
27.0481
26.9031
26.729
26.5152
26.2721
25.9795
25.6595
25.2688
24.8659
24.3523
23.889
26.2445
26.7165
27.2526
27.678
28.1014
28.459
28.7953
29.0879
29.3565
29.5911
29.7987
29.9755
30.1216
30.2334
30.3084
30.3443
30.3407
30.3
30.2343
30.1779
30.1996
30.2826
30.3622
30.4116
30.4226
30.3934
30.3249
30.2199
30.0807
29.9113
29.7109
29.4834
29.2213
28.9357
28.6046
28.2514
27.8317
27.4091
26.8751
26.4043
28.4643
28.9214
29.457
29.8831
30.3165
30.6912
31.0532
31.3787
31.6844
31.961
32.2126
32.4346
32.6257
32.7816
32.8988
32.9743
33.0066
32.9984
32.961
32.9263
32.9442
33.0039
33.0551
33.0723
33.0471
32.9784
32.8676
32.7186
32.5348
32.3203
32.0765
31.8078
31.5097
31.192
30.8365
30.4684
30.0398
29.6174
29.0845
28.6289
30.377
30.8066
31.3328
31.7541
32.1947
32.5857
32.97
33.3244
33.6623
33.9747
34.2638
34.5243
34.7537
34.9467
35.0992
35.207
35.2681
35.2844
35.2671
35.245
35.2611
35.3062
35.3368
35.3289
35.2746
35.173
35.0269
34.8405
34.6183
34.3653
34.084
33.7797
33.45
33.1038
32.7272
32.3434
31.909
31.4925
30.9695
30.5421
32.0218
32.4249
32.9451
33.3682
33.8185
34.2266
34.632
35.0124
35.3786
35.7221
36.0433
36.3364
36.5976
36.8213
37.0023
37.1358
37.219
37.2532
37.2489
37.2338
37.2488
37.2857
37.3022
37.2757
37.1985
37.0707
36.8955
36.6781
36.4237
36.1379
35.8246
35.4892
35.1312
34.7592
34.3617
33.9615
33.5177
33.1008
32.5841
32.1839
33.4555
33.8363
34.3561
34.7827
35.2429
35.6665
36.0901
36.4925
36.8823
37.2512
37.5981
37.9174
38.2038
38.4515
38.6544
38.8074
38.9069
38.9538
38.958
38.9469
38.9613
38.9929
38.9999
38.9598
38.8656
38.7176
38.5198
38.278
37.9978
37.6857
37.3462
36.9853
36.6036
36.2097
35.7941
35.3785
34.9253
34.505
33.9897
33.6122
34.7129
35.0715
35.5896
36.0191
36.487
36.9231
37.3616
37.7815
38.1899
38.5787
38.9458
39.2849
39.5907
39.8565
40.076
40.2435
40.3554
40.4123
40.4237
40.4163
40.4298
40.4564
40.4552
40.4044
40.297
40.1338
39.9188
39.6582
39.3583
39.0257
38.6657
38.2847
37.8842
37.4727
37.0422
36.6141
36.1531
35.7301
35.2167
34.862
35.799
36.1323
36.6458
37.0765
37.5502
37.9966
38.447
38.881
39.3044
39.7087
40.0913
40.4458
40.7661
41.0457
41.2777
41.4568
41.5792
41.6456
41.6656
41.6642
41.6763
41.6954
41.6848
41.6237
41.5051
41.3297
41.1014
40.8265
40.5114
40.163
39.7872
39.3902
38.9746
38.5486
38.1061
37.6676
37.2008
36.7764
36.2675
35.9382
36.7079
37.0104
37.5154
37.9458
38.4241
38.8796
39.3407
39.7873
40.2234
40.6407
41.036
41.4026
41.7344
42.0246
42.2668
42.4556
42.5879
42.6649
42.696
42.7025
42.7128
42.7217
42.6993
42.627
42.498
42.3121
42.0731
41.7868
41.4597
41.0987
40.7097
40.2994
39.8707
39.432
38.9786
38.5305
38.0588
37.6346
37.134
36.8357
37.4383
37.6971
38.1864
38.6141
39.0961
39.5609
40.0327
40.4916
40.9399
41.3692
41.7757
42.1528
42.4942
42.7935
43.0446
43.2424
43.3846
43.4729
43.5158
43.5309
43.5392
43.537
43.5016
43.4176
43.278
43.0824
42.8339
42.5379
42.2006
41.8285
41.4279
41.0052
40.5641
40.1129
39.6484
39.1908
38.715
38.2928
37.8067
37.5526
37.9915
38.179
38.642
39.0626
39.5466
40.0208
40.504
40.9759
41.4368
41.8783
42.2958
42.6829
43.0335
43.3411
43.6004
43.8069
43.9587
44.0578
44.1117
44.1341
44.1405
44.1285
44.0806
43.9849
43.835
43.63
43.3726
43.0676
42.7207
42.3382
41.9262
41.4912
41.0372
40.5727
40.0967
39.6294
39.1509
38.7348
38.275
38.0935
38.3856
38.4505
38.8581
39.2644
39.7461
40.229
40.7237
41.2095
41.6841
42.1386
42.5678
42.9653
43.325
43.6411
43.9084
44.1231
44.2839
44.3927
44.4559
44.4839
44.4887
44.4685
44.4097
44.303
44.1433
43.9292
43.6631
43.349
42.9924
42.5993
42.1754
41.7274
41.2598
40.7814
40.2938
39.8173
39.34
38.9375
38.5337
38.478
38.6301
38.5072
38.8135
39.1834
39.657
40.1455
40.6514
41.1513
41.6404
42.1088
42.5508
42.9595
43.3292
43.6541
43.9297
44.1526
44.3216
44.4387
44.5092
44.5414
44.5447
44.5178
44.4499
44.3336
44.1644
43.9414
43.6662
43.3427
42.9759
42.5714
42.135
41.6733
41.1917
40.6997
40.2013
39.7191
39.2505
38.8866
38.5893
38.7323
38.6804
38.3312
38.4952
38.7985
39.247
39.7375
40.251
40.7636
41.2662
41.7485
42.2033
42.6237
43.0037
43.3378
43.6217
43.8522
44.0286
44.1524
44.2286
44.2636
44.2656
44.2334
44.1579
44.0332
43.8554
43.6235
43.3393
43.0061
42.6286
42.2125
41.7637
41.2886
40.7942
40.2899
39.7844
39.3009
38.8601
38.5686
38.425
38.8147
38.4814
37.9
37.9008
38.1112
38.5136
38.9922
39.5097
40.0308
40.5441
41.0376
41.5035
41.9342
42.3235
42.6658
42.9569
43.1938
43.3759
43.5047
43.5843
43.6212
43.6221
43.5857
43.5045
43.3731
43.1881
42.9486
42.6561
42.3143
41.9275
41.5014
41.0421
40.5568
40.0528
39.5416
39.0325
38.5632
38.1721
37.9777
37.9995
38.6194
37.8377
37.1166
37.0054
37.1397
37.4969
37.9564
38.4711
38.9965
39.5152
40.0149
40.4869
40.9234
41.3178
41.6646
41.9594
42.1992
42.3834
42.5136
42.594
42.6309
42.6307
42.5919
42.5077
42.3726
42.1833
41.9391
41.6416
41.2942
40.9015
40.4691
40.0035
39.5114
39.001
38.4825
37.9745
37.5224
37.1722
37.0453
37.1636
37.8941
36.8749
36.0957
35.931
36.0173
36.3391
36.7761
37.2799
37.8021
38.3182
38.8164
39.287
39.7221
40.115
40.4596
40.7516
40.9882
41.1685
41.2945
41.3711
41.4052
41.4038
41.3654
41.2821
41.148
40.9594
40.7156
40.4182
40.0707
39.6778
39.2452
38.7794
38.2874
37.7775
37.2608
36.7629
36.3331
36.019
35.9425
36.1187
36.9159
35.9507
35.1324
34.9375
34.9962
35.2938
35.7112
36.2003
36.7117
37.2185
37.7078
38.1696
38.5955
38.9784
39.3127
39.5938
39.8185
39.9864
40.0997
40.165
40.1919
40.1893
40.1551
40.0789
39.9524
39.7711
39.5342
39.2434
38.9024
38.5159
38.0896
37.6301
37.1445
36.641
36.1337
35.6496
35.2381
34.9447
34.8892
35.0782
35.8837
35.4741
34.6726
34.4834
34.5282
34.803
35.1908
35.6481
36.1283
36.608
37.0721
37.5099
37.9127
38.2729
38.5847
38.8432
39.0451
39.1895
39.2788
39.3216
39.3336
39.33
39.3065
39.2453
39.1341
38.9677
38.7453
38.4689
38.1426
37.7715
37.3611
36.9186
36.4515
35.9692
35.484
35.0218
34.6306
34.3528
34.3054
34.487
35.2749
35.5929
34.8771
34.7402
34.8005
35.0682
35.4313
35.854
36.2952
36.7376
37.1654
37.5679
37.9363
38.2633
38.5427
38.7698
38.9409
39.0544
39.1121
39.1229
39.1105
39.1066
39.1007
39.0605
38.9695
38.8227
38.6205
38.3655
38.0621
37.7152
37.3308
36.9155
36.4777
36.027
35.577
35.1456
34.7765
34.5077
34.4532
34.6066
35.3517
36.2283
35.6015
35.5205
35.6023
35.8684
36.211
36.6028
37.011
37.419
37.8122
38.1802
38.5148
38.8091
39.0577
39.2555
39.3992
39.4867
39.5188
39.5038
39.4693
39.4675
39.4796
39.4581
39.3863
39.2605
39.0817
38.8533
38.5796
38.2659
37.9181
37.5433
37.1501
36.7486
36.3542
35.9836
35.6707
35.444
35.416
35.5624
36.2774
37.0557
36.4542
36.3844
36.4583
36.7053
37.0202
37.3844
37.7644
38.1445
38.5104
38.8521
39.1615
39.4322
39.6586
39.8364
39.962
40.0335
40.0515
40.024
39.9795
39.978
39.9977
39.9857
39.9255
39.8135
39.6512
39.4417
39.1894
38.8993
38.5775
38.2309
37.8679
37.4986
37.1379
36.8019
36.5253
36.3266
36.3129
36.447
37.1245
45.8265
54.2455
62.1655
69.1854
74.5152
78.4852
81.5145
83.9227
85.9861
87.8033
89.4532
90.999
92.5115
94.0602
95.6983
97.4572
99.3441
101.348
103.447
105.61
107.79
109.909
111.779
113.01
45.0402
53.1774
60.8771
67.7912
73.0826
77.0352
80.0619
82.4809
84.5498
86.3556
87.9826
89.5
90.9811
92.495
94.0972
95.8177
97.6632
99.6237
101.676
103.79
105.918
107.986
109.81
111.009
44.174
52.0668
59.5598
66.3685
71.6287
75.5774
78.6171
81.0565
83.1331
84.9317
86.5407
88.0327
89.4835
90.9655
92.5316
94.2138
96.0189
97.9357
99.9422
102.007
104.086
106.103
107.88
109.048
43.2868
50.9314
58.2247
64.9307
70.1648
74.1172
77.1793
79.6483
81.7397
83.541
85.1334
86.6026
88.0268
89.477
91.0104
92.6566
94.422
96.2967
98.2573
100.274
102.303
104.27
106.002
107.137
42.3335
49.7535
56.8448
63.4491
68.6714
72.6475
75.75
78.2573
80.3692
82.1762
83.7598
85.2115
86.6107
88.0343
89.5353
91.1462
92.8742
94.7077
96.625
98.5951
100.575
102.493
104.181
105.285
41.4183
48.5626
55.443
61.9465
67.1657
71.1742
74.3211
76.8727
79.0119
80.8344
82.4174
83.855
85.2354
86.6322
88.1053
89.6847
91.3763
93.1704
95.0443
96.9688
98.8998
100.769
102.412
103.486
40.4024
47.3153
53.9764
60.3795
65.6116
69.6752
72.8872
75.4936
77.6688
79.5092
81.1024
82.5341
83.8978
85.2755
86.7212
88.2687
89.9267
91.683
93.5154
95.3956
97.2809
99.1029
100.703
101.746
39.4938
46.0644
52.4745
58.7664
64.0221
68.1555
71.4375
74.1064
76.3245
78.1979
79.8067
81.2411
82.5981
83.9565
85.3806
86.9023
88.5271
90.2466
92.0385
93.8744
95.712
97.4868
99.0441
100.057
38.3781
44.706
50.867
57.0522
62.3483
66.5769
69.9587
72.7058
74.9826
76.8907
78.5265
79.9748
81.3285
82.6791
84.0826
85.5765
87.1719
88.8565
90.6092
92.4024
94.1956
95.9251
97.4406
98.423
37.4605
43.3569
49.1929
55.2334
60.5801
64.934
68.4276
71.2714
73.6154
75.582
77.2531
78.7209
80.0863
81.4299
82.8205
84.2957
85.8613
87.5117
89.2249
90.9748
92.7201
94.4019
95.8745
96.827
36.1429
41.8044
47.3505
53.2508
58.6598
63.1682
66.8289
69.7944
72.235
74.2589
75.9792
77.4812
78.8577
80.2079
81.5875
83.0398
84.5805
86.198
87.873
89.5808
91.2818
92.9198
94.3506
95.2722
35.0715
40.2737
45.393
51.0758
56.5491
61.2671
65.108
68.2345
70.784
72.9088
74.6927
76.2353
77.6442
78.9987
80.3758
81.8188
83.3334
84.919
86.555
88.2191
89.8713
91.4598
92.8481
93.7392
33.7569
38.5488
43.181
48.5927
54.1159
59.074
63.2339
66.5799
69.3016
71.5174
73.3819
74.9872
76.4241
77.8034
79.181
80.6054
82.1004
83.6556
85.2546
86.8765
88.4856
90.0311
91.3765
92.2355
32.3412
36.7603
40.831
45.8379
51.3855
56.6831
61.118
64.7478
67.6541
70.0533
72.028
73.7031
75.2026
76.6008
77.9885
79.4161
80.8897
82.4153
83.975
85.5518
87.109
88.6018
89.903
90.7302
30.3701
34.4286
37.8698
42.3502
47.8256
53.4659
58.6093
62.6955
65.952
68.5015
70.611
72.3932
73.9424
75.3921
76.796
78.2098
79.669
81.1665
82.6898
84.2249
85.7392
87.188
88.4438
89.2373
28.2179
32.0827
34.8889
38.6826
44.0238
50.1892
55.6258
60.2733
63.8726
66.7933
69.1005
70.9997
72.6585
74.1452
75.5752
77.0096
78.4538
79.9238
81.4061
82.8915
84.3458
85.7373
86.9468
87.705
24.6092
28.2649
30.2482
32.7828
37.4468
44.1481
51.6396
57.2908
61.6905
64.8844
67.4486
69.5402
71.2814
72.8615
74.3315
75.7567
77.1915
78.6352
80.08
81.5234
82.9375
84.2808
85.44
86.1595
20.305
24.6094
26.0457
27.8431
32.73
39.7234
46.2268
53.4454
58.6209
62.6773
65.6174
67.9126
69.8488
71.4925
73.0093
74.4802
75.9092
77.3266
78.7268
80.111
81.4468
82.7285
83.8337
84.515
5.05613
14.5801
16.5998
14.1881
1.68299
20.8739
39.3361
48.0431
55.2837
59.9009
63.4458
66.1405
68.2218
70.0301
71.6275
73.0947
74.5187
75.9113
77.2687
78.6108
79.9146
81.1336
82.1834
82.8162
7.25559
9.48387
14.716
19.6528
14.4033
17.8395
18.8416
40.4076
49.675
56.6398
60.9408
64.0181
66.4743
68.4044
70.0808
71.6344
73.0658
74.4314
75.7384
77.0015
78.1906
79.3449
80.3217
80.9102
15.3479
17.7389
17.2784
16.9912
6.96618
9.63608
20.0483
24.1905
43.2082
51.4468
57.5351
61.5914
64.3444
66.5701
68.4051
69.9616
71.3938
72.7361
73.9867
75.2073
76.3777
77.4419
78.3593
78.8836
23.64
26.8494
28.1646
27.4457
24.6519
17.7674
17.8356
1.38963
28.2514
45.4111
53.3921
58.3343
61.903
64.4087
66.3887
68.1171
69.5798
70.8901
72.0788
73.181
74.1729
75.1581
75.9636
76.4214
25.7504
29.7374
32.3755
33.9559
34.0561
32.0528
25.9297
27
31.7329
33.8973
47.0062
54.4913
58.7318
61.804
64.1223
65.8429
67.3121
68.6035
69.7046
70.7623
71.7461
72.6148
73.3385
73.7191
26.9819
31.0894
33.8529
35.8823
36.9991
36.9661
34.9674
27.5463
31.5325
2.35725
37.5962
48.2223
54.6441
58.4527
61.0476
63.1828
64.7407
65.9827
66.9928
67.845
68.5408
69.2338
69.8053
70.0314
26.5975
30.8695
33.819
36.1312
37.6726
38.3675
38.0595
35.9608
28.0598
17.2448
17.3597
41.4374
49.2432
54.1749
57.6418
59.5968
61.1329
62.3732
63.2178
64.0215
64.7113
65.3679
65.7193
65.8572
24.5729
29.1652
32.3635
34.985
36.9075
38.1195
38.6502
38.3208
35.5546
31.4204
8.23032
25.036
41.2469
48.0046
51.8168
55.0741
56.9232
58.0468
58.7145
59.077
59.2886
59.2013
59.5738
59.1717
21.6587
26.6228
30.0273
32.8878
35.125
36.757
37.8997
38.6507
38.6271
35.3995
26.1462
8.52533
27.9689
39.7134
47.1749
48.4673
49.8366
51.0427
51.3101
51.6046
52.1349
53.0425
52.4423
51.4724
18.5723
23.7506
27.1874
30.124
32.5477
34.5213
36.1683
37.6342
38.8318
38.8318
34.2146
28.6042
32.5414
27.7064
32.4493
38.934
42.4863
43.3126
42.8436
42.1611
41.9384
37.6109
39.728
36.5627
15.89
20.9969
24.2486
27.0682
29.5117
31.6854
33.7201
35.7582
37.7817
39.2762
38.9211
30.6831
34.5967
23.3305
23.284
23.1976
19.6868
21.6848
19.1459
15.9756
45.94
29.2199
43.0311
36.3749
13.4606
18.3966
21.395
24.0231
26.3956
28.6464
30.9058
33.291
35.8511
38.2882
39.6903
36.7617
29.2517
27.7969
31.2272
30.068
1.04692
13.9758
29.039
14.5566
44.6466
33.2536
41.9361
21.6225
11.7175
16.354
19.0469
21.434
23.669
25.8868
28.1969
30.6924
33.4479
36.3684
38.8703
39.3263
35.6636
28.8773
35.1467
22.4346
24.307
28.8887
30.7409
31.6501
38.2659
31.113
28.7555
32.904
10.713
15.018
17.4472
19.6252
21.7173
23.8346
26.0521
28.4443
31.0973
34.0559
37.0782
39.1558
38.9802
36.7574
30.9908
31.5337
31.781
32.0832
34.5405
37.4878
36.4257
38.035
38.8003
42.3925
10.27
14.4254
16.6839
18.7307
20.7168
22.713
24.7605
26.9168
29.2728
31.9397
34.9243
37.7776
39.4016
39.6352
36.1821
38.1856
39.6553
39.6399
40.5136
42.963
42.5187
42.8496
43.2746
44.6352
10.3768
14.4422
16.6369
18.6419
20.5763
22.4712
24.3429
26.2371
28.2393
30.4697
33.0475
35.9095
38.4779
40.1342
39.5038
40.6604
41.736
41.6843
41.8104
43.5934
43.5594
43.3943
43.6025
44.4441
10.8199
14.8885
17.1111
19.1466
21.0785
22.9109
24.6457
26.321
28.0109
29.8186
31.8789
34.3026
36.9501
39.3849
40.3577
41.2556
42.1175
42.0216
41.7888
42.976
42.9016
42.5432
42.6146
43.2315
11.4894
15.6219
17.919
20.0263
21.9944
23.8063
25.4573
26.9823
28.4445
29.9231
31.5268
33.3969
35.6133
38.0425
39.7875
40.8609
41.6337
41.4898
41.0244
41.5233
41.262
40.8027
40.8231
41.3537
12.2635
16.5673
18.9528
21.1437
23.1625
24.9798
26.5912
28.0326
29.3569
30.6187
31.8911
33.2888
34.941
36.8952
38.6801
39.8603
40.6002
40.4118
39.7684
39.7017
39.2825
38.8441
38.9054
39.4402
13.327
17.6696
20.1379
22.4131
24.4871
26.3236
27.9247
29.3308
30.5881
31.7311
32.7994
33.8663
35.0408
36.4199
37.8282
38.8717
39.495
39.2518
38.4974
38.0338
37.5331
37.2103
37.3877
37.9832
14.4048
18.8439
21.4114
23.7753
25.9075
27.773
29.3844
30.7881
32.0264
33.1196
34.0834
34.9552
35.8017
36.7088
37.6411
38.365
38.756
38.4158
37.5866
36.8804
36.3637
36.1972
36.5321
37.2119
15.5129
20.0669
22.7396
25.1931
27.3855
29.2871
30.9232
32.3463
33.5955
34.6818
35.6066
36.3829
37.0395
37.6285
38.1603
38.5234
38.6167
38.1317
37.2319
36.3836
35.8808
35.8695
36.3685
37.1344
45.8344
44.1636
43.3552
41.7415
40.7535
39.1949
38.2056
36.7227
35.73
34.4059
33.3932
32.2275
31.3006
30.3187
29.3927
28.56
27.8728
27.3593
26.995
26.5607
26.5644
26.9911
27.4023
27.8467
28.6474
29.4337
30.3269
31.3118
32.2265
33.4058
34.465
35.7356
36.7476
38.2255
39.2269
40.7347
41.8241
43.3698
44.2179
45.9151
54.4593
52.9489
52.1504
50.758
49.8191
48.4898
47.5658
46.3234
45.3658
44.2393
43.3322
42.3685
41.5569
40.7084
40.0012
39.3232
38.828
38.3157
38.0954
37.8172
37.8193
38.0999
38.3278
38.7888
39.3273
40.0205
40.7235
41.5741
42.3777
43.3477
44.344
45.4061
46.3081
47.5618
48.5173
49.7902
50.8312
52.1934
53.0082
54.5254
62.5047
61.0781
60.2723
58.9408
58.0114
56.7684
55.8195
54.6773
53.7269
52.6962
51.8044
50.906
50.1048
49.3335
48.6598
48.0495
47.5429
47.1118
46.8381
46.6536
46.6552
46.8431
47.1191
47.5436
48.0527
48.6727
49.3495
50.1213
50.9249
51.8223
52.7391
53.7588
54.6884
55.8337
56.7951
58.0192
58.979
60.3048
61.1178
62.5497
69.5199
68.0809
67.1902
65.8362
64.8489
63.5949
62.5858
61.4434
60.4577
59.4345
58.5179
57.6239
56.8124
56.0581
55.3863
54.7942
54.2959
53.8995
53.6229
53.4711
53.4725
53.6272
53.9061
54.3045
54.804
55.3988
56.0729
56.8285
57.6417
58.5378
59.4576
60.4811
61.4638
62.6076
63.6198
64.8718
65.8652
67.2198
68.1124
69.554
74.803
73.3113
72.3277
70.9273
69.8688
68.5815
67.5145
66.3497
65.3247
64.2873
63.3472
62.4455
61.6258
60.8731
60.205
59.6232
59.1383
58.7593
58.4961
58.3571
58.3583
58.4999
58.7655
59.1469
59.6335
60.2172
60.8872
61.6414
62.4626
63.3663
64.3076
65.346
66.3714
67.5378
68.6061
69.895
70.9555
72.3577
73.3425
74.8359
78.7317
77.198
76.1437
74.7125
73.5984
72.2918
71.1836
70.0065
68.9557
67.9109
66.9584
66.0543
65.233
64.4846
63.8233
63.2518
62.7793
62.4133
62.1615
62.0302
62.0314
62.165
62.4192
62.7875
63.2618
63.835
64.4981
65.2483
66.0711
66.9768
67.9305
68.9767
70.0286
71.2073
72.3166
73.6252
74.7407
76.1741
77.2297
78.7653
81.7278
80.1666
79.0579
77.6125
76.4569
75.1421
74.0059
72.8233
71.757
70.7092
69.7509
68.8472
68.027
67.2831
66.628
66.0647
65.6013
65.2443
65
64.8736
64.8747
65.0034
65.2499
65.6091
66.0743
66.6394
67.2963
68.0418
68.8635
69.7689
70.7286
71.7779
72.8456
74.0297
75.1673
76.484
77.6409
79.0885
80.1985
81.7619
84.1044
82.524
81.3704
79.919
78.7338
77.4159
76.2615
75.0755
73.9996
72.9493
71.9872
71.0832
70.2632
69.5214
68.8693
68.3103
67.8516
67.4991
67.2586
67.1346
67.1357
67.262
67.5046
67.8591
68.3197
68.8806
69.5343
70.2778
71.0993
72.005
72.9685
74.0204
75.0978
76.2854
77.4413
78.761
79.9477
81.4011
82.5563
84.1388
86.1435
84.5451
83.3563
81.8945
80.6863
79.3594
78.1897
76.9955
75.9091
74.852
73.8827
72.9736
72.149
71.4038
70.7491
70.1883
69.7286
69.3755
69.1346
69.0101
69.0113
69.1379
69.3809
69.736
70.1976
70.7602
71.4166
72.1634
72.9897
73.9004
74.8713
75.93
77.0179
78.2138
79.385
80.7137
81.9235
83.3872
84.5776
86.178
87.9531
86.3271
85.1159
83.6364
82.4105
81.0701
79.8858
78.6802
77.5816
76.5145
75.5349
74.6171
73.7839
73.0313
72.3698
71.8031
71.3382
70.981
70.7369
70.6101
70.6113
70.7402
70.9864
71.3457
71.8124
72.3809
73.0442
73.7985
74.6332
75.5527
76.5339
77.6025
78.7028
79.9101
81.0959
82.438
83.6656
85.1471
86.3599
87.9878
89.6047
87.9494
86.7189
85.2191
83.9751
82.6186
81.4178
80.1978
79.0843
78.0039
77.0109
76.0807
75.2355
74.4717
73.7997
73.2233
72.7501
72.3858
72.1361
72.0057
72.0069
72.1396
72.3913
72.7576
73.2328
73.8109
74.4847
75.2502
76.0969
77.0288
78.0234
79.1055
80.2205
81.4423
82.6446
84.003
85.2485
86.7502
87.9823
89.6397
91.1582
89.4712
88.2246
86.7012
85.4398
84.0639
82.8458
81.6084
80.4781
79.3815
78.3726
77.427
76.567
75.789
75.1035
74.5147
74.0302
73.6565
73.3995
73.2643
73.2656
73.403
73.6621
74.0379
74.5243
75.1149
75.8021
76.5818
77.4434
78.3906
79.4011
80.4994
81.6312
82.8703
84.09
85.4678
86.7308
88.256
89.5043
91.1933
92.6812
90.9606
89.6991
88.1499
86.8706
85.473
84.2361
82.9792
81.8302
80.7152
79.6882
78.7251
77.8478
77.0531
76.3515
75.7478
75.2499
74.8645
74.5987
74.4578
74.4591
74.6023
74.8703
75.2577
75.7576
76.3631
77.0664
77.8627
78.7416
79.7064
80.7349
81.8516
83.0021
84.2608
85.4992
86.8986
88.1795
89.7305
90.9938
92.7163
94.2409
92.4848
91.208
89.6308
88.3325
86.911
85.6538
84.3751
83.2057
82.07
81.0229
80.0399
79.1432
78.3295
77.6096
76.9886
76.4748
76.0759
75.7997
75.6522
75.6535
75.8034
76.0818
76.4827
76.9984
77.6213
78.3429
79.1582
80.0565
81.0412
82.0898
83.2271
84.398
85.6784
86.9372
88.3605
89.6604
91.2394
92.5179
94.2759
95.8911
94.0967
92.8036
91.1957
89.8767
88.429
87.1495
85.8467
84.6547
83.4962
82.4269
81.4218
80.5032
79.6682
78.9276
78.2868
77.7548
77.3403
77.0518
76.8969
76.8982
77.0557
77.3463
77.7629
78.2968
78.9394
79.6817
80.5184
81.4384
82.4451
83.516
84.6761
85.8696
87.174
88.4551
89.9046
91.225
92.8349
94.1295
95.9259
97.6621
95.827
94.5156
92.8747
91.5329
90.0565
88.7524
87.4233
86.2065
85.0229
83.929
82.8995
81.957
81.0982
80.3344
79.6712
79.1183
78.6855
78.383
78.2192
78.2206
78.3869
78.6917
79.1266
79.6813
80.3463
81.1117
81.9721
82.9162
83.9472
85.0425
86.2277
87.4459
88.7767
90.0822
91.5604
92.9037
94.5465
95.8594
97.6964
99.5612
97.6835
96.3519
94.6758
93.3091
91.8019
90.4712
89.1137
87.87
86.6592
85.5388
84.4828
83.514
82.6292
81.8397
81.1514
80.5749
80.121
79.8018
79.6279
79.6294
79.8058
80.1273
80.5832
81.1616
81.8516
82.6427
83.5291
84.4993
85.5567
86.6786
87.8909
89.136
90.4951
91.8272
93.3361
94.7042
96.3821
97.7152
99.5947
101.578
99.6568
98.3038
96.5911
95.1978
93.6585
92.2996
90.9118
89.6397
88.4002
87.2515
86.1674
85.1706
84.2578
83.4403
82.7244
82.1211
81.6429
81.3041
81.1182
81.1197
81.3082
81.6493
82.1295
82.7346
83.4522
84.2712
85.1855
86.1837
87.2692
88.4192
89.6602
90.9336
92.3226
93.6831
95.2241
96.6186
98.333
99.6874
101.611
103.692
101.726
100.35
98.6008
97.1804
95.6082
94.2202
92.8015
91.5005
90.2313
89.053
87.9398
86.9139
85.9716
85.1242
84.3783
83.7453
83.2392
82.8772
82.6769
82.6784
82.8814
83.2457
83.7538
84.3885
85.1361
85.9848
86.9286
87.9559
89.0705
90.2498
91.5204
92.823
94.2428
95.6318
97.2056
98.6273
100.379
101.756
103.723
105.87
103.861
102.463
100.677
99.2295
97.6246
96.2077
94.7585
93.4278
92.1288
90.9214
89.7788
88.7231
87.7504
86.8723
86.0941
85.4286
84.8904
84.5009
84.2828
84.2845
84.5051
84.8971
85.4375
86.1047
86.8841
87.7635
88.7375
89.7946
90.9386
92.1469
93.4474
94.7795
96.2297
97.6482
99.2547
100.703
102.491