/*--------------------------------*- C++ -*----------------------------------*\
  =========                 |
  \\      /  F ield         | OpenFOAM: The Open Source CFD Toolbox
   \\    /   O peration     | Website:  https://openfoam.org
    \\  /    A nd           | Version:  6
     \\/     M anipulation  |
\*---------------------------------------------------------------------------*/
FoamFile
{
    version     2.0;
    format      ascii;
    class       volScalarField;
    location    "38";
    object      omega;
}
// * * * * * * * * * * * * * * * * * * * * * * * * * * * * * * * * * * * * * //

dimensions      [0 0 -1 0 0 0 0];

internalField   nonuniform List<scalar> 
380496
(
843.917
843.917
843.917
843.917
843.917
843.917
843.917
843.917
843.917
843.917
843.917
843.917
843.917
843.917
843.917
843.917
843.917
843.917
843.917
843.917
843.917
843.917
843.917
843.917
843.917
843.917
843.917
843.917
843.917
843.917
843.917
843.917
843.917
843.917
843.917
843.917
843.917
843.917
843.917
843.917
843.917
843.917
843.917
843.917
843.917
843.917
843.917
843.917
843.917
843.917
843.917
843.917
843.917
843.917
843.917
843.917
843.917
843.917
843.917
843.917
843.917
843.917
843.917
843.917
843.917
843.917
843.917
843.917
843.917
843.917
843.917
843.917
843.917
843.917
843.917
843.917
843.917
843.917
843.917
843.917
843.917
843.917
843.917
843.917
843.917
843.917
843.917
843.917
843.917
843.917
843.917
843.917
843.917
843.917
843.917
843.917
843.917
843.917
843.917
843.917
843.917
843.917
843.917
843.917
843.917
843.917
843.917
843.917
843.917
843.917
843.917
843.917
843.917
843.917
843.917
843.917
843.917
843.917
843.917
843.917
843.917
843.917
843.917
843.917
843.917
843.917
843.917
843.917
843.917
843.917
843.917
843.917
843.917
843.917
843.917
843.917
843.917
843.917
843.917
843.917
843.917
843.917
843.917
843.917
843.917
843.917
843.917
843.917
843.917
843.917
843.917
843.917
843.917
843.917
843.917
843.917
843.917
843.917
843.917
843.917
843.917
843.917
843.917
843.917
843.917
843.917
843.917
843.917
843.917
843.917
843.917
843.917
843.917
843.917
843.917
843.917
843.917
843.917
843.917
843.917
843.917
843.917
843.917
843.917
843.917
843.917
843.917
843.917
843.917
843.917
843.917
843.917
843.917
843.917
843.917
843.917
843.917
843.917
843.917
843.917
843.917
843.917
843.917
843.917
843.917
843.917
843.917
843.917
843.917
843.917
843.917
843.917
843.917
843.917
843.917
843.917
843.917
843.917
843.917
843.917
843.917
843.917
843.917
843.917
843.917
843.917
843.917
843.917
843.917
843.917
843.917
843.917
843.917
843.917
843.917
843.917
843.917
843.917
843.917
843.917
843.917
843.917
843.917
843.917
843.917
843.917
843.917
843.917
843.917
843.917
843.917
843.917
843.917
843.917
843.917
843.917
843.917
843.917
843.917
843.917
843.917
843.917
843.917
843.917
843.917
843.917
843.917
843.917
843.917
843.917
843.917
843.917
843.917
843.917
843.917
843.917
843.917
843.917
843.917
843.917
843.917
843.917
843.917
843.917
843.917
843.917
843.917
843.917
843.917
843.917
843.917
843.917
843.917
843.917
843.917
843.917
843.917
843.917
843.917
843.917
843.917
843.917
843.917
843.917
843.917
843.917
843.917
843.917
843.917
843.917
843.917
843.917
843.917
843.917
843.917
843.917
843.917
843.917
843.917
843.917
843.917
843.917
843.917
843.917
843.917
843.917
843.917
843.917
843.917
843.917
843.917
843.917
843.917
843.917
843.917
843.917
843.917
843.917
843.917
843.917
843.917
843.917
843.917
843.917
843.917
843.917
843.917
843.917
843.917
843.917
843.917
843.917
843.917
843.917
843.917
843.917
843.917
843.917
843.917
843.917
843.917
843.917
843.917
843.917
843.917
843.917
843.917
843.917
843.917
843.917
843.917
843.917
843.917
843.917
843.917
843.917
843.917
843.917
843.917
843.917
843.917
843.917
843.917
843.917
843.917
843.917
843.917
843.917
843.917
843.917
843.917
843.917
843.917
843.917
843.917
843.917
843.917
843.917
843.917
843.917
843.917
843.917
843.917
843.917
843.917
843.917
843.917
843.917
843.917
843.917
843.917
843.917
843.917
843.917
843.917
843.917
843.917
843.917
843.917
843.917
843.917
843.917
843.917
843.917
843.917
843.917
843.917
843.917
843.917
843.917
843.917
843.917
843.917
843.917
843.917
843.917
843.917
843.917
843.917
843.917
843.917
843.917
843.917
843.917
843.917
843.917
843.917
843.917
843.917
843.917
843.917
843.917
843.917
843.917
843.917
843.917
843.917
843.917
843.917
843.917
843.917
843.917
843.917
843.917
843.917
843.917
843.917
843.917
843.917
843.917
843.917
843.917
843.917
843.917
843.917
843.917
843.917
843.917
843.917
843.917
843.917
843.917
843.917
843.917
843.917
843.917
843.917
843.917
843.917
843.917
843.917
843.917
843.917
843.917
843.917
843.917
843.917
843.917
843.917
843.917
843.917
843.917
843.917
843.917
843.917
843.917
843.917
843.917
843.917
843.917
843.917
843.917
843.917
843.917
843.917
843.917
843.917
843.917
843.917
843.917
843.917
843.917
843.917
843.917
843.917
843.917
843.917
843.917
843.917
843.917
843.917
843.917
843.917
843.917
843.917
843.917
843.917
843.917
843.917
843.917
843.917
843.917
843.917
843.917
843.917
843.917
843.917
843.917
843.917
843.917
843.917
843.917
843.917
843.917
843.917
843.917
843.917
843.917
843.917
843.917
843.917
843.917
843.917
843.917
843.917
843.917
843.917
843.917
843.917
843.917
843.917
843.917
843.917
843.917
843.917
843.917
843.917
843.917
843.917
843.917
843.917
843.917
843.917
843.917
843.917
843.917
843.917
843.917
843.917
843.917
843.917
843.917
843.917
843.917
843.917
843.917
843.917
843.917
843.917
843.917
843.917
843.917
843.917
843.917
843.917
843.917
843.917
843.917
843.917
843.917
843.917
843.917
843.917
843.917
843.917
843.917
843.917
843.917
843.917
843.917
843.917
843.917
843.917
843.917
843.917
843.917
843.917
843.917
843.917
843.917
843.917
843.917
843.917
843.917
843.917
843.917
843.917
843.917
843.917
843.917
843.917
843.917
843.917
843.917
843.917
843.917
843.917
843.917
843.917
843.917
843.917
843.917
843.917
843.917
843.917
843.917
843.917
843.917
843.917
843.917
843.917
843.917
843.917
843.917
843.917
843.917
843.917
843.917
843.917
843.917
843.917
843.917
843.917
843.917
843.917
843.917
843.917
843.917
843.917
843.917
843.917
843.917
843.917
843.917
843.917
843.917
843.917
843.917
843.917
843.917
843.917
843.917
843.917
843.917
843.917
843.917
843.917
843.917
843.917
843.917
423.923
423.923
423.923
423.923
423.923
423.923
423.923
423.923
423.923
423.923
423.923
423.923
423.923
423.923
423.923
423.923
423.923
423.923
423.923
423.923
423.923
423.923
423.923
423.923
423.923
423.923
423.923
423.923
423.923
423.923
423.923
423.923
423.923
423.923
423.923
281.629
267.584
268.716
269.789
269.88
269.719
269.608
269.541
269.51
269.488
269.482
269.475
269.48
269.481
269.489
269.494
269.504
269.512
269.522
269.534
269.544
269.561
269.572
269.595
269.608
269.636
269.652
269.683
269.701
269.736
269.754
269.79
269.801
269.846
269.824
281.467
267.569
268.638
269.665
269.73
269.567
269.448
269.386
269.35
269.335
269.326
269.329
269.33
269.342
269.349
269.366
269.374
269.396
269.406
269.433
269.444
269.478
269.49
269.532
269.545
269.595
269.61
269.668
269.681
269.747
269.754
269.829
269.812
269.916
269.789
281.133
267.393
268.464
269.458
269.498
269.327
269.206
269.145
269.111
269.101
269.095
269.106
269.113
269.134
269.147
269.176
269.191
269.227
269.245
269.287
269.308
269.358
269.382
269.441
269.468
269.537
269.567
269.645
269.676
269.764
269.791
269.891
269.893
270.032
269.927
280.565
267.015
268.167
269.134
269.142
268.958
268.834
268.775
268.745
268.742
268.743
268.763
268.778
268.81
268.833
268.873
268.899
268.947
268.977
269.033
269.066
269.132
269.17
269.246
269.289
269.376
269.423
269.521
269.57
269.679
269.724
269.848
269.866
270.037
269.936
280.148
266.778
267.819
268.718
268.706
268.518
268.394
268.337
268.31
268.312
268.319
268.346
268.369
268.409
268.441
268.491
268.528
268.587
268.629
268.699
268.747
268.827
268.881
268.974
269.035
269.14
269.207
269.325
269.394
269.527
269.592
269.744
269.782
269.99
269.9
279.34
266.187
267.264
268.118
268.074
267.877
267.754
267.703
267.685
267.697
267.716
267.754
267.79
267.842
267.887
267.951
268.002
268.076
268.133
268.218
268.282
268.38
268.452
268.563
268.643
268.768
268.854
268.995
269.084
269.241
269.327
269.505
269.563
269.805
269.724
278.499
265.568
266.583
267.367
267.295
267.092
266.972
266.926
266.917
266.937
266.968
267.016
267.065
267.129
267.187
267.263
267.329
267.417
267.49
267.591
267.672
267.787
267.877
268.008
268.107
268.253
268.36
268.522
268.634
268.814
268.923
269.127
269.206
269.482
269.412
277.444
264.749
265.698
266.406
266.306
266.099
265.985
265.947
265.949
265.981
266.024
266.085
266.147
266.224
266.296
266.386
266.467
266.569
266.658
266.775
266.874
267.006
267.115
267.265
267.384
267.55
267.677
267.862
267.994
268.197
268.328
268.557
268.656
268.964
268.901
276.189
263.729
264.62
265.249
265.119
264.909
264.804
264.779
264.797
264.844
264.904
264.98
265.057
265.149
265.236
265.341
265.437
265.555
265.661
265.794
265.911
266.061
266.189
266.357
266.495
266.682
266.829
267.034
267.187
267.412
267.563
267.815
267.933
268.27
268.214
274.955
262.701
263.441
263.982
263.83
263.623
263.528
263.513
263.543
263.601
263.673
263.76
263.85
263.953
264.053
264.17
264.28
264.411
264.531
264.679
264.811
264.977
265.121
265.306
265.462
265.666
265.831
266.054
266.225
266.469
266.637
266.91
267.044
267.406
267.354
273.277
261.256
261.945
262.407
262.229
262.027
261.951
261.958
262.011
262.091
262.184
262.29
262.398
262.517
262.635
262.767
262.894
263.04
263.178
263.341
263.491
263.674
263.836
264.038
264.212
264.434
264.617
264.859
265.048
265.31
265.497
265.789
265.938
266.324
266.275
271.661
259.847
260.304
260.661
260.467
260.275
260.214
260.235
260.302
260.394
260.5
260.617
260.737
260.868
260.998
261.142
261.283
261.442
261.595
261.772
261.939
262.136
262.315
262.533
262.724
262.963
263.164
263.422
263.629
263.908
264.111
264.422
264.586
264.994
264.947
269.373
257.801
258.177
258.457
258.246
258.076
258.048
258.103
258.202
258.323
258.454
258.594
258.736
258.885
259.035
259.196
259.355
259.531
259.703
259.897
260.082
260.296
260.494
260.73
260.94
261.196
261.415
261.692
261.916
262.213
262.433
262.762
262.941
263.37
263.325
267.102
255.731
255.815
255.988
255.77
255.623
255.621
255.699
255.818
255.957
256.106
256.261
256.419
256.583
256.748
256.923
257.099
257.289
257.478
257.687
257.889
258.119
258.336
258.587
258.816
259.089
259.326
259.62
259.862
260.176
260.413
260.758
260.952
261.401
261.357
264.032
252.894
252.805
252.902
252.688
252.585
252.632
252.757
252.915
253.088
253.266
253.447
253.628
253.813
253.999
254.193
254.389
254.597
254.806
255.032
255.255
255.502
255.739
256.008
256.257
256.547
256.805
257.115
257.376
257.708
257.963
258.325
258.534
259.004
258.96
260.551
249.609
249.23
249.254
249.057
249.007
249.104
249.275
249.47
249.677
249.882
250.089
250.292
250.498
250.704
250.916
251.13
251.356
251.583
251.825
252.068
252.331
252.587
252.872
253.141
253.447
253.725
254.052
254.333
254.68
254.953
255.331
255.556
256.044
256
256.376
245.603
244.846
244.789
244.623
244.643
244.799
245.021
245.25
245.49
245.717
245.948
246.167
246.392
246.612
246.842
247.07
247.31
247.553
247.81
248.069
248.347
248.621
248.921
249.209
249.53
249.828
250.172
250.471
250.842
251.13
251.534
251.775
252.287
252.254
249.995
239.62
238.814
238.809
238.708
238.826
239.068
239.364
239.648
239.938
240.196
240.459
240.697
240.946
241.178
241.427
241.665
241.923
242.176
242.451
242.723
243.02
243.311
243.636
243.946
244.295
244.618
244.991
245.317
245.713
246.031
246.455
246.729
247.251
247.255
240.797
231.456
230.479
230.642
230.712
230.961
231.273
231.599
231.887
232.171
232.415
232.667
232.89
233.133
233.355
233.604
233.837
234.102
234.353
234.639
234.913
235.237
235.559
235.919
236.269
236.654
237.023
237.427
237.805
238.233
238.606
239.065
239.404
239.943
240.061
214.293
212.123
212.376
213.298
213.932
214.668
215.389
216.06
216.657
217.221
217.731
218.232
218.694
219.164
219.603
220.061
220.492
220.949
221.382
221.845
222.286
222.758
223.208
223.69
224.15
224.638
225.107
225.595
226.068
226.549
227.02
227.482
227.946
228.338
228.971
9.02143
7.66289
7.59002
7.55655
7.60867
7.68008
7.77123
7.86247
7.96306
8.0548
8.15125
8.23622
8.32557
8.40332
8.48694
8.55936
8.63961
8.70859
8.78764
8.8544
8.93409
8.99891
9.08088
9.14289
9.22892
9.28584
9.37847
9.42608
9.52943
9.56059
9.68135
9.68336
9.83273
9.77666
9.97408
135.248
128.879
128.551
129.042
129.239
129.233
129.182
129.136
129.101
129.077
129.061
129.05
129.044
129.042
129.043
129.047
129.053
129.061
129.072
129.084
129.098
129.115
129.134
129.155
129.181
129.208
129.241
129.274
129.315
129.356
129.406
129.459
129.515
129.588
129.647
135.076
128.679
128.311
128.779
128.963
128.952
128.898
128.85
128.814
128.79
128.774
128.766
128.762
128.762
128.766
128.773
128.782
128.794
128.809
128.825
128.845
128.865
128.891
128.916
128.95
128.98
129.022
129.056
129.11
129.148
129.214
129.258
129.328
129.397
129.426
134.794
128.386
128.004
128.457
128.631
128.616
128.559
128.51
128.475
128.453
128.439
128.434
128.433
128.438
128.447
128.459
128.474
128.492
128.513
128.535
128.563
128.59
128.625
128.657
128.7
128.738
128.79
128.834
128.897
128.945
129.021
129.077
129.156
129.241
129.281
134.361
127.975
127.612
128.061
128.225
128.202
128.142
128.093
128.059
128.039
128.029
128.028
128.033
128.043
128.057
128.075
128.097
128.121
128.148
128.178
128.212
128.247
128.288
128.329
128.379
128.425
128.485
128.536
128.607
128.664
128.746
128.81
128.893
128.987
129.024
134.043
127.65
127.237
127.65
127.797
127.767
127.703
127.651
127.617
127.597
127.589
127.59
127.598
127.612
127.63
127.652
127.678
127.707
127.74
127.775
127.815
127.856
127.904
127.952
128.009
128.063
128.13
128.19
128.269
128.334
128.424
128.496
128.586
128.691
128.733
133.489
127.122
126.719
127.12
127.252
127.213
127.145
127.094
127.061
127.046
127.042
127.049
127.062
127.082
127.106
127.135
127.167
127.203
127.243
127.285
127.332
127.381
127.436
127.492
127.557
127.619
127.693
127.761
127.847
127.92
128.016
128.097
128.191
128.306
128.346
132.924
126.585
126.159
126.527
126.639
126.589
126.517
126.464
126.433
126.42
126.42
126.431
126.449
126.474
126.504
126.538
126.576
126.619
126.664
126.713
126.767
126.823
126.885
126.948
127.02
127.09
127.172
127.247
127.34
127.421
127.524
127.614
127.712
127.838
127.878
132.248
125.943
125.495
125.829
125.919
125.858
125.781
125.728
125.699
125.689
125.694
125.71
125.733
125.764
125.8
125.84
125.884
125.933
125.985
126.04
126.101
126.164
126.233
126.303
126.382
126.459
126.548
126.631
126.731
126.819
126.928
127.025
127.126
127.262
127.3
131.463
125.209
124.746
125.044
125.108
125.035
124.954
124.902
124.876
124.872
124.883
124.906
124.936
124.974
125.016
125.063
125.113
125.169
125.227
125.29
125.357
125.427
125.503
125.581
125.666
125.751
125.846
125.937
126.043
126.139
126.252
126.358
126.462
126.609
126.643
130.701
124.496
123.978
124.224
124.261
124.176
124.093
124.04
124.017
124.017
124.032
124.06
124.095
124.137
124.184
124.237
124.293
124.353
124.417
124.486
124.559
124.635
124.717
124.801
124.892
124.984
125.085
125.182
125.294
125.396
125.514
125.627
125.733
125.889
125.92
129.711
123.569
123.042
123.251
123.261
123.164
123.079
123.031
123.015
123.023
123.047
123.083
123.126
123.176
123.231
123.291
123.354
123.421
123.492
123.568
123.647
123.731
123.819
123.91
124.008
124.107
124.214
124.318
124.436
124.545
124.668
124.787
124.896
125.061
125.089
128.745
122.677
122.06
122.197
122.173
122.064
121.976
121.93
121.918
121.931
121.96
122.002
122.051
122.106
122.166
122.232
122.3
122.373
122.45
122.532
122.617
122.707
122.801
122.899
123.003
123.108
123.222
123.332
123.455
123.571
123.699
123.825
123.936
124.111
124.134
127.448
121.461
120.82
120.914
120.86
120.74
120.656
120.619
120.619
120.643
120.684
120.736
120.795
120.86
120.929
121.003
121.079
121.16
121.245
121.334
121.427
121.524
121.626
121.731
121.843
121.955
122.076
122.193
122.323
122.445
122.579
122.712
122.826
123.01
123.029
126.136
120.248
119.483
119.489
119.396
119.265
119.182
119.152
119.159
119.193
119.242
119.302
119.369
119.441
119.517
119.598
119.681
119.77
119.861
119.957
120.058
120.162
120.271
120.384
120.502
120.622
120.749
120.874
121.01
121.139
121.279
121.419
121.537
121.731
121.744
124.43
118.648
117.809
117.752
117.624
117.487
117.414
117.398
117.422
117.471
117.534
117.607
117.686
117.769
117.855
117.945
118.038
118.135
118.235
118.34
118.449
118.561
118.679
118.8
118.926
119.054
119.189
119.322
119.465
119.601
119.747
119.895
120.017
120.222
120.231
122.481
116.821
115.841
115.698
115.533
115.393
115.331
115.332
115.372
115.437
115.515
115.601
115.691
115.785
115.882
115.981
116.083
116.189
116.297
116.41
116.526
116.647
116.773
116.901
117.035
117.171
117.314
117.454
117.605
117.749
117.902
118.057
118.184
118.399
118.402
120.129
114.623
113.442
113.183
112.971
112.832
112.786
112.808
112.866
112.947
113.037
113.135
113.234
113.337
113.44
113.547
113.655
113.767
113.882
114.002
114.126
114.254
114.386
114.522
114.664
114.807
114.958
115.106
115.266
115.419
115.582
115.747
115.883
116.112
116.116
116.507
111.184
110.003
109.757
109.544
109.422
109.399
109.445
109.52
109.618
109.719
109.827
109.933
110.044
110.153
110.267
110.381
110.501
110.623
110.751
110.883
111.021
111.164
111.313
111.468
111.626
111.791
111.956
112.13
112.299
112.477
112.655
112.809
113.047
113.07
111.045
106.318
104.832
104.496
104.267
104.169
104.17
104.238
104.329
104.446
104.561
104.69
104.814
104.949
105.08
105.222
105.362
105.514
105.664
105.825
105.988
106.164
106.338
106.517
106.7
106.887
107.08
107.273
107.475
107.672
107.879
108.084
108.277
108.529
108.625
95.7364
95.7819
94.6616
94.3695
94.1631
94.1385
94.2532
94.4496
94.6803
94.9359
95.1932
95.4593
95.7188
95.9839
96.241
96.5036
96.7591
97.0206
97.2761
97.5381
97.7953
98.0588
98.3184
98.5839
98.8464
99.1136
99.378
99.6455
99.9098
100.175
100.438
100.692
100.965
101.17
101.532
11.442
9.87535
9.84014
9.88392
9.99933
10.1217
10.2565
10.3829
10.5151
10.6327
10.7536
10.8587
10.9678
11.0619
11.1623
11.2484
11.3435
11.4246
11.5173
11.5949
11.6877
11.7626
11.8573
11.9286
12.0276
12.093
12.1991
12.254
12.3717
12.4087
12.5451
12.5521
12.7174
12.6714
12.8748
79.7825
77.2364
76.6742
76.7662
76.8921
76.9366
76.9314
76.9106
76.8866
76.8666
76.8491
76.8366
76.8263
76.8201
76.8155
76.8139
76.8138
76.8157
76.8195
76.8241
76.8316
76.8387
76.8501
76.8597
76.8752
76.8878
76.9076
76.9241
76.9482
76.97
76.9983
77.0285
77.0598
77.1025
77.1412
79.595
77.049
76.4703
76.5469
76.6643
76.7031
76.6951
76.6712
76.6465
76.6248
76.6081
76.5948
76.5864
76.5798
76.578
76.5762
76.5797
76.5814
76.5896
76.594
76.607
76.6134
76.6316
76.6397
76.6638
76.6732
76.7044
76.7146
76.7542
76.7648
76.8133
76.8267
76.8778
76.9048
76.9455
79.3539
76.8069
76.2184
76.2859
76.3976
76.4323
76.4217
76.3957
76.3701
76.3478
76.3317
76.3189
76.3124
76.3072
76.3081
76.3083
76.3152
76.3192
76.3314
76.3384
76.3557
76.3651
76.388
76.3995
76.4287
76.4419
76.4783
76.4928
76.5378
76.5533
76.6074
76.6264
76.6837
76.7177
76.7668
79.0384
76.4934
75.9089
75.9757
76.0836
76.114
76.1
76.072
76.0456
76.0234
76.0085
75.9973
75.9929
75.9901
75.9939
75.9969
76.0071
76.0143
76.0301
76.0404
76.0617
76.0747
76.1018
76.1171
76.1507
76.1678
76.209
76.2272
76.277
76.296
76.3544
76.3768
76.4364
76.4741
76.5214
78.7525
76.2183
75.6164
75.6635
75.7581
75.7803
75.761
75.7294
75.7006
75.6772
75.6618
75.6508
75.6472
75.6456
75.6509
75.6557
75.6679
75.6774
75.6955
75.7086
75.7325
75.7487
75.7788
75.7974
75.8344
75.8551
75.8998
75.9217
75.9755
75.9979
76.0608
76.0861
76.151
76.1907
76.2455
78.3535
75.8245
75.2269
75.2702
75.3576
75.3733
75.3492
75.3149
75.285
75.2618
75.2474
75.2383
75.2369
75.2381
75.2462
75.2542
75.2696
75.2825
75.304
75.3206
75.3482
75.3679
75.4018
75.4242
75.4652
75.4895
75.5384
75.5638
75.6216
75.6474
75.7139
75.7425
75.8097
75.8528
75.908
77.928
75.4146
74.8116
74.8404
74.9144
74.9203
74.8896
74.8514
74.8194
74.7956
74.7816
74.7738
74.7741
74.7774
74.7877
74.7984
74.8163
74.8322
74.8564
74.8763
74.9068
74.9299
74.967
74.9929
75.0372
75.0651
75.1174
75.1464
75.2076
75.2369
75.3065
75.3386
75.4083
75.455
75.5125
77.4333
74.9368
74.331
74.3451
74.4042
74.3991
74.3611
74.3188
74.2847
74.2607
74.2473
74.2412
74.2434
74.2492
74.262
74.2756
74.2962
74.3151
74.3423
74.3654
74.399
74.4256
74.4659
74.4953
74.543
74.5744
74.6302
74.6626
74.7272
74.7597
74.8322
74.8676
74.939
74.9892
75.0467
76.8735
74.4027
73.7987
73.7986
73.8414
73.8236
73.7776
73.7312
73.6956
73.672
73.66
73.6562
73.661
73.6698
73.6856
73.7024
73.7261
73.7483
73.7787
73.8052
73.842
73.872
73.9156
73.9485
73.9995
74.0344
74.0935
74.1292
74.197
74.2328
74.308
74.3469
74.4198
74.474
74.5316
76.3104
73.8747
73.2589
73.2337
73.2555
73.2239
73.1698
73.1191
73.0817
73.058
73.047
73.0449
73.0515
73.0627
73.0807
73.1002
73.1263
73.1514
73.1843
73.2138
73.2533
73.2864
73.3329
73.369
73.423
73.461
73.5231
73.5618
73.6325
73.6712
73.7489
73.7908
73.865
73.9226
73.9799
75.6269
73.2232
72.6142
72.5758
72.5796
72.5337
72.4714
72.4173
72.3794
72.3574
72.3489
72.3501
72.3602
72.3751
72.3967
72.4198
72.4493
72.4781
72.5143
72.5473
72.5902
72.6268
72.6767
72.7162
72.7735
72.8149
72.8803
72.9223
72.9961
73.0379
73.1183
73.1633
73.2392
73.3005
73.3576
74.9228
72.5728
71.9396
71.8627
71.8368
71.773
71.7014
71.6431
71.6042
71.5829
71.5761
71.5797
71.5923
71.6101
71.6343
71.6606
71.6929
71.7248
71.7639
71.8003
71.8461
71.8862
71.9391
71.9821
72.0426
72.0874
72.156
72.2013
72.2782
72.3231
72.4062
72.4543
72.5318
72.5969
72.6536
74.0387
71.7348
71.105
71.0098
70.9613
70.881
70.8013
70.7408
70.7031
70.6851
70.6824
70.6906
70.7077
70.7302
70.7586
70.7893
70.8256
70.8618
70.9047
70.9453
70.9948
71.039
71.0956
71.1426
71.2068
71.2555
71.3277
71.3766
71.4571
71.5054
71.5917
71.6433
71.7228
71.7922
71.8486
73.1015
70.8714
70.2033
70.0569
69.9702
69.8684
69.7792
69.7159
69.679
69.6636
69.6645
69.6768
69.6979
69.7246
69.7571
69.792
69.832
69.8725
69.9191
69.9639
70.0172
70.0656
70.1259
70.1771
70.245
70.2977
70.3737
70.4264
70.5106
70.5625
70.6522
70.7074
70.7891
70.8631
70.9187
71.9315
69.7757
69.0904
68.9086
68.7889
68.6673
68.5706
68.5068
68.4734
68.4631
68.4697
68.4877
68.5144
68.5466
68.5841
68.6242
68.6688
68.7142
68.7651
68.8147
68.872
68.9252
68.9894
69.0453
69.1171
69.1743
69.2541
69.3111
69.3992
69.4549
69.5485
69.6076
69.692
69.7712
69.8268
70.5749
68.5122
67.7783
67.5409
67.3791
67.2351
67.1305
67.0665
67.0369
67.032
67.0447
67.0688
67.1014
67.1391
67.1817
67.2267
67.2758
67.3258
67.3806
67.4348
67.4957
67.5534
67.6211
67.6815
67.7567
67.8184
67.9019
67.9631
68.0551
68.1148
68.2125
68.2753
68.3632
68.4467
68.5027
68.9304
66.9876
66.1752
65.8557
65.6364
65.4652
65.3529
65.2895
65.2639
65.2634
65.2808
65.3084
65.3444
65.3845
65.4296
65.4767
65.528
65.5802
65.6372
65.6943
65.7576
65.819
65.8893
65.954
66.0324
66.0985
66.1865
66.2512
66.35
66.4108
66.5176
66.5806
66.6778
66.7653
66.8252
66.5751
64.6701
63.8508
63.5269
63.2884
63.1023
62.9821
62.9133
62.8841
62.8795
62.8937
62.9175
62.9514
62.9892
63.0342
63.0812
63.1345
63.1889
63.2498
63.3109
63.3796
63.4466
63.524
63.5949
63.6811
63.7543
63.8508
63.9234
64.031
64.1008
64.2172
64.2876
64.3977
64.4884
64.5658
63.074
61.536
60.4585
59.9529
59.6038
59.361
59.2136
59.1331
59.1022
59.1023
59.127
59.1649
59.2173
59.2753
59.3442
59.415
59.4955
59.576
59.6661
59.7541
59.8539
59.9506
60.0542
60.1507
60.2579
60.3568
60.4712
60.5702
60.6938
60.7885
60.9215
61.0114
61.1444
61.244
61.364
55.4841
57.2199
56.149
55.3614
54.7633
54.3536
54.1159
53.9916
53.953
53.9617
54.0122
54.0796
54.1708
54.2655
54.3768
54.485
54.6074
54.7233
54.8527
54.9737
55.108
55.2328
55.3706
55.499
55.6392
55.7714
55.9128
56.0487
56.19
56.3276
56.4708
56.6005
56.7619
56.8549
57.0822
13.0135
11.4065
11.4192
11.5473
11.7309
11.903
12.076
12.2291
12.3829
12.5156
12.6497
12.7637
12.8816
12.9812
13.0877
13.1772
13.2768
13.3598
13.4559
13.5347
13.6302
13.7056
13.8028
13.8743
13.9755
14.0409
14.149
14.2042
14.3237
14.3621
14.4989
14.5105
14.6725
14.6419
14.8308
52.8625
51.8612
51.4544
51.3867
51.4236
51.4587
51.4693
51.4651
51.4521
51.4386
51.4241
51.4124
51.4012
51.3931
51.3856
51.3806
51.3766
51.374
51.3732
51.3723
51.3744
51.3749
51.3796
51.3814
51.3887
51.392
51.4015
51.4069
51.4183
51.4267
51.4393
51.4526
51.4661
51.4852
51.5044
52.6912
51.7001
51.2906
51.215
51.2469
51.2769
51.2854
51.2778
51.2643
51.2483
51.2346
51.221
51.2114
51.2016
51.1966
51.19
51.1892
51.1848
51.188
51.185
51.1921
51.1898
51.2011
51.1989
51.2148
51.212
51.2332
51.2293
51.2563
51.2513
51.2837
51.2791
51.3137
51.3124
51.3493
52.4925
51.5065
51.094
51.0134
51.0417
51.0684
51.0746
51.0646
51.0499
51.0323
51.0183
51.0038
50.995
50.9849
50.9813
50.9748
50.976
50.9719
50.9775
50.975
50.9847
50.9833
50.9973
50.9961
51.0149
51.0135
51.0376
51.0353
51.0655
51.0622
51.0983
51.0955
51.1351
51.1357
51.1806
52.255
51.2697
50.8587
50.778
50.8051
50.8296
50.8335
50.8213
50.8051
50.7865
50.7722
50.7577
50.7495
50.7401
50.7378
50.7323
50.7353
50.7325
50.7401
50.7392
50.7513
50.7514
50.768
50.7686
50.7902
50.7906
50.8177
50.8174
50.8506
50.8493
50.888
50.8875
50.9279
50.9318
50.9737
52.0124
51.0415
50.6282
50.5393
50.5581
50.576
50.5748
50.5589
50.5398
50.5193
50.5036
50.4884
50.48
50.4706
50.4687
50.4637
50.4674
50.4656
50.4742
50.4744
50.4876
50.4891
50.5072
50.5093
50.5326
50.5345
50.5637
50.5647
50.6006
50.6001
50.6424
50.6418
50.6874
50.6894
50.7398
51.7113
50.7441
50.3344
50.2453
50.2613
50.2753
50.2701
50.2511
50.2297
50.2078
50.1914
50.1762
50.168
50.1594
50.1585
50.1548
50.1599
50.1596
50.1699
50.1718
50.1869
50.1901
50.2103
50.2142
50.2398
50.2434
50.2752
50.2778
50.3163
50.3173
50.3621
50.3631
50.4105
50.4141
50.4651
51.3809
50.425
50.0175
49.9238
49.9325
49.9396
49.9285
49.9052
49.8806
49.8568
49.8392
49.8236
49.8154
49.8074
49.8071
49.8045
49.8105
49.8115
49.8229
49.8263
49.8428
49.8476
49.8693
49.8748
49.9022
49.9075
49.9412
49.9453
49.9859
49.9884
50.0354
50.0375
50.0873
50.0916
50.1456
51.0013
50.0574
49.6539
49.5562
49.5572
49.5564
49.5385
49.5103
49.4821
49.4563
49.4374
49.4216
49.4135
49.4062
49.4066
49.4052
49.4124
49.4148
49.4276
49.4326
49.4507
49.4571
49.4806
49.4878
49.5172
49.5241
49.5599
49.5657
49.6085
49.6124
49.6615
49.6651
49.7166
49.722
49.7773
50.5804
49.6505
49.2543
49.1538
49.1467
49.137
49.1116
49.0779
49.0461
49.0183
48.9984
48.9826
48.9748
48.9684
48.9698
48.9698
48.9782
48.9822
48.9964
49.003
49.0226
49.0308
49.056
49.0649
49.0961
49.1048
49.1425
49.1499
49.1947
49.2002
49.2511
49.2562
49.3093
49.3162
49.3727
50.1473
49.2389
48.846
48.7369
48.7176
48.6968
48.663
48.6238
48.5884
48.5586
48.5377
48.5218
48.5143
48.5087
48.511
48.5122
48.5217
48.5272
48.5427
48.5509
48.572
48.5818
48.6086
48.6192
48.6521
48.6624
48.702
48.7109
48.7576
48.7645
48.8173
48.8237
48.8783
48.8864
48.9441
49.6403
48.7498
48.3683
48.2582
48.2302
48.1993
48.1569
48.1119
48.0727
48.0412
48.0194
48.0039
47.997
47.9927
47.9962
47.999
48.0099
48.0172
48.0342
48.0443
48.067
48.0787
48.1072
48.1196
48.1545
48.1665
48.2081
48.2186
48.2673
48.2757
48.3305
48.3383
48.3945
48.404
48.463
49.0985
48.2407
47.8592
47.7335
47.6866
47.6401
47.5871
47.5357
47.4928
47.4597
47.4375
47.4226
47.4164
47.4136
47.4182
47.4229
47.4352
47.4444
47.463
47.475
47.4994
47.5131
47.5435
47.5579
47.5947
47.6086
47.6522
47.6645
47.7154
47.7253
47.7822
47.7915
47.8494
47.8604
47.9206
48.4418
47.614
47.2455
47.1171
47.0581
46.9984
46.9352
46.8772
46.8306
46.7962
46.7736
46.7596
46.7544
46.7534
46.7596
46.7663
46.7803
46.7917
46.8121
46.8264
46.8527
46.8687
46.901
46.9176
46.9564
46.9724
47.0183
47.0325
47.0857
47.0973
47.1565
47.1675
47.2273
47.2399
47.3017
47.7236
46.9428
46.5701
46.4188
46.334
46.2543
46.1785
46.1137
46.0638
46.0285
46.0064
45.9938
45.9903
45.9915
45.9996
46.0089
46.0249
46.039
46.0614
46.0784
46.1067
46.1253
46.1597
46.1789
46.2199
46.2382
46.2865
46.3027
46.3585
46.372
46.4337
46.4464
46.5084
46.5228
46.586
46.846
46.1181
45.7531
45.5893
45.4832
45.3844
45.2961
45.224
45.1707
45.1344
45.1126
45.1013
45.0992
45.1026
45.1124
45.1241
45.1419
45.1586
45.1827
45.2024
45.2323
45.2537
45.2899
45.3116
45.3545
45.3753
45.4257
45.4441
45.5024
45.5177
45.5821
45.5964
45.6611
45.6772
45.7429
45.8227
45.1595
44.787
44.5959
44.4589
44.3359
44.2331
44.1526
44.0958
44.0582
44.0369
44.0268
44.0263
44.0316
44.043
44.0569
44.0761
44.095
44.1202
44.1423
44.1732
44.1971
44.2342
44.2586
44.3027
44.326
44.378
44.3987
44.4591
44.4763
44.5435
44.5592
44.627
44.644
44.7131
44.58
44.003
43.61
43.374
43.192
43.037
42.9163
42.8254
42.764
42.7229
42.7003
42.6881
42.6867
42.6904
42.7009
42.7137
42.732
42.7506
42.7751
42.7979
42.8285
42.8541
42.8912
42.9181
42.9629
42.9888
43.0429
43.0654
43.1298
43.1475
43.2198
43.2361
43.3088
43.3281
43.4016
43.0292
42.4152
41.9898
41.7323
41.5225
41.3394
41.1969
41.086
41.0096
40.9534
40.9201
40.8964
40.888
40.8836
40.8905
40.8989
40.9164
40.9339
40.9596
40.9838
41.017
41.046
41.0868
41.1183
41.1666
41.1983
41.2557
41.285
41.3526
41.3777
41.4545
41.4766
41.5567
41.579
41.6632
40.8417
40.5282
39.9115
39.4669
39.1202
38.8467
38.6502
38.5049
38.4116
38.3453
38.3127
38.291
38.293
38.2974
38.3203
38.341
38.3775
38.4092
38.4552
38.4946
38.5484
38.5951
38.6529
38.7009
38.7613
38.8104
38.8763
38.9243
38.9981
39.0419
39.1238
39.1622
39.2497
39.2844
39.3814
37.8607
40.6881
39.875
38.9231
38.123
37.5082
37.0723
36.7594
36.5516
36.4034
36.3154
36.2526
36.2283
36.2114
36.2225
36.2314
36.2634
36.2877
36.3329
36.3673
36.4211
36.4628
36.5221
36.5699
36.6326
36.6863
36.7507
36.8101
36.8753
36.9381
37.0073
37.0649
37.1521
37.1853
37.3227
14.2725
12.6905
12.7689
12.9796
13.2297
13.448
13.6547
13.8295
13.9994
14.1416
14.2837
14.4013
14.5231
14.6231
14.7313
14.8196
14.9195
15.0002
15.0959
15.1716
15.2662
15.3382
15.434
15.5019
15.6014
15.6635
15.7695
15.8222
15.9385
15.9764
16.1079
16.1233
16.2753
16.2579
16.4293
37.6238
37.2104
36.982
36.8888
36.8736
36.8847
36.8932
36.8952
36.8896
36.8819
36.8714
36.8622
36.8521
36.8441
36.836
36.8295
36.8239
36.8188
36.8156
36.8115
36.8105
36.8071
36.808
36.8053
36.8078
36.8058