/*--------------------------------*- C++ -*----------------------------------*\
  =========                 |
  \\      /  F ield         | OpenFOAM: The Open Source CFD Toolbox
   \\    /   O peration     | Website:  https://openfoam.org
    \\  /    A nd           | Version:  6
     \\/     M anipulation  |
\*---------------------------------------------------------------------------*/
FoamFile
{
    version     2.0;
    format      ascii;
    class       volScalarField;
    location    "42";
    object      yPlus;
}
// * * * * * * * * * * * * * * * * * * * * * * * * * * * * * * * * * * * * * //

dimensions      [0 0 0 0 0 0 0];

internalField   uniform 0;

boundaryField
{
    inlet
    {
        type            calculated;
        value           uniform 0;
    }
    outlet
    {
        type            calculated;
        value           uniform 0;
    }
    roughCylinder
    {
        type            calculated;
        value           nonuniform List<scalar> 
5120
(
78.06
61.491
52.7886
55.5889
61.5746
66.6524
70.8691
74.4047
77.4112
80.0371
82.4123
84.5984
86.6398
88.5814
90.4444
92.2735
94.0977
95.9746
97.9183
99.9419
102.053
104.253
106.535
108.887
111.293
113.726
116.15
118.514
120.742
122.725
124.28
125.148
94.3821
62.0684
52.1261
54.1113
59.898
64.9382
69.1368
72.6557
75.6514
78.2855
80.6501
82.8057
84.813
86.6981
88.5072
90.269
92.044
93.8443
95.7114
97.6642
99.7054
101.831
104.036
106.308
108.631
110.98
113.322
115.605
117.756
119.672
121.173
122.01
92.6759
60.5842
50.9724
52.6675
58.2562
63.218
67.3698
70.8869
73.9082
76.5433
78.9068
81.0518
83.0138
84.8594
86.6102
88.3218
90.0131
91.7565
93.5638
95.4443
97.407
99.4541
101.578
103.77
106.011
108.279
110.539
112.742
114.818
116.666
118.114
118.919
94.0983
61.574
50.4558
51.0971
56.48
61.4265
65.6034
69.1431
72.1674
74.8306
77.1968
79.3155
81.2575
83.0528
84.7604
86.4041
88.0628
89.7346
91.4647
93.2782
95.1772
97.156
99.2093
101.323
103.486
105.673
107.852
109.976
111.978
113.761
115.156
115.931
88.1446
59.355
49.6037
49.7062
54.7892
59.6733
63.8085
67.3535
70.4406
73.1196
75.4898
77.6199
79.531
81.304
82.961
84.5749
86.1471
87.7697
89.4541
91.2034
93.0271
94.9305
96.9056
98.946
101.032
103.142
105.244
107.293
109.224
110.943
112.289
113.033
76.6262
58.4571
48.5
48.0269
52.8804
57.7615
61.9736
65.5982
68.6907
71.4116
73.81
75.918
77.8349
79.5719
81.2073
82.7532
84.318
85.8808
87.4886
89.1767
90.9477
92.7926
94.7071
96.6761
98.6892
100.723
102.75
104.726
106.587
108.245
109.541
110.257
76.074
59.8521
48.5026
46.6239
51.0942
55.944
60.1212
63.7288
66.925
69.6849
72.0901
74.2431
76.1425
77.8885
79.4843
81.0339
82.5102
84.0318
85.6138
87.2495
88.9491
90.7223
92.5615
94.4624
96.4052
98.3692
100.324
102.229
104.024
105.622
106.872
107.559
67.5779
57.3591
47.5451
44.914
48.9638
53.7958
58.108
61.8979
65.1024
67.9152
70.3927
72.5292
74.4636
76.1855
77.7961
79.2766
80.7805
82.262
83.767
85.347
87.0072
88.7343
90.5247
92.362
94.2374
96.1306
98.0152
99.8521
101.582
103.123
104.326
104.986
88.9866
59.1294
47.1695
43.4606
46.9714
51.8159
56.1242
59.8334
63.2009
66.104
68.5894
70.8206
72.7534
74.5202
76.0972
77.6309
79.047
80.495
82.0009
83.5453
85.1378
86.7957
88.5118
90.2858
92.0967
93.9255
95.7439
97.5135
99.1815
100.668
101.827
102.458
75.608
59.0572
46.7571
41.6616
44.4434
49.1909
53.6967
57.8007
61.1983
64.1667
66.8029
69.0251
71.0357
72.7873
74.4238
75.8757
77.361
78.7979
80.2255
81.7187
83.2887
84.916
86.5984
88.3162
90.0655
91.8272
93.5781
95.2853
96.8915
98.3224
99.4374
100.041
75.6763
58.2303
46.7314
40.1528
41.9969
46.8194
51.4339
55.3173
58.9897
62.1607
64.8045
67.2014
69.2311
71.0832
72.6846
74.2556
75.6455
77.0496
78.5122
79.9924
81.4966
83.0542
84.659
86.3175
88.0064
89.7083
91.3975
93.0389
94.5863
95.965
97.0378
97.6123
70.9832
54.7037
44.944
38.2433
38.7509
43.2183
48.0839
52.8527
56.6145
59.869
62.8148
65.2151
67.3935
69.2369
70.9693
72.4314
73.9444
75.3777
76.754
78.1818
79.6838
81.2303
82.8211
84.432
86.0642
87.7021
89.3257
90.9077
92.3951
93.7204
94.7499
95.2974
74.7992
56.7349
45.0923
36.2358
35.4053
39.9543
45.242
49.4295
53.7537
57.4711
60.4236
63.1488
65.3771
67.4155
69.0999
70.7834
72.1893
73.5828
75.0404
76.4876
77.9236
79.3957
80.9009
82.4534
84.0291
85.6114
87.1773
88.6933
90.1236
91.3988
92.387
92.9052
65.3897
54.8253
45.0843
35.0323
30.5276
33.9132
39.5454
46.0763
50.5867
54.4357
58.0284
60.7802
63.2949
65.327
67.2643
68.7864
70.3937
71.8793
73.2351
74.6223
76.0832
77.5718
79.0894
80.6085
82.1327
83.6525
85.1524
86.6136
87.9848
89.2062
90.1516
90.6432
47.8798
47.6672
41.9441
32.3451
25.8605
28.4104
35.4422
40.0307
46.2076
51.2216
54.8221
58.243
60.861
63.2712
65.1254
67.0398
68.5174
69.9424
71.4477
72.904
74.2953
75.6987
77.117
78.5699
80.0404
81.5088
82.9547
84.3472
85.6613
86.8338
87.7382
88.1984
25.1323
36.4217
35.6557
29.5712
13.7271
10.4591
19.8404
34.5947
40.9259
46.4014
51.5996
55.0904
58.3186
60.7154
63.0552
64.7038
66.5088
68.1289
69.5018
70.8774
72.3326
73.793
75.2581
76.7064
78.1313
79.5368
80.9141
82.2554
83.5104
84.6275
85.488
85.9225
11.141
19.7283
20.1921
12.365
7.67778
15.8764
7.20334
14.4053
32.0861
41.0237
46.3905
51.5971
55.0347
58.2253
60.3994
62.7619
64.3882
65.8996
67.5316
69.0579
70.4331
71.7855
73.1318
74.4855
75.8568
77.2148
78.5413
79.8062
81.0018
82.0697
82.8886
83.2868
9.24537
5.19286
5.1013
13.897
4.27653
15.948
16.8299
6.86383
5.47655
30.5487
41.1922
46.5405
51.5843
54.7317
57.9067
59.7799
61.9713
63.8625
65.2998
66.6986
68.1993
69.6738
71.114
72.5207
73.8556
75.147
76.3976
77.6172
78.7515
79.7602
80.5321
80.9062
3.80402
2.21059
11.8266
13.9184
15.6976
17.1786
17.9719
18.3372
18.2264
22.1268
28.6782
40.8447
46.2779
51.402
54.202
57.4995
59.394
61.0734
62.9707
64.6677
66.0633
67.3834
68.6693
69.9201
71.1932
72.4412
73.644
74.77
75.8387
76.7959
77.5236
77.8517
7.88222
11.3754
5.86096
15.5108
17.6977
11.8838
11.5588
10.238
9.9759
7.44115
22.3941
28.1343
40.6892
45.688
50.9258
53.1799
56.195
58.6325
60.1983
61.6672
63.3019
64.8634
66.335
67.7348
68.9933
70.165
71.2777
72.3692
73.3728
74.2636
74.9394
75.2472
6.66534
16.0181
19.8253
20.6685
16.9721
11.7187
21.8505
22.236
22.4501
20.8819
20.2727
10.714
28.3259
40.4387
44.6614
50.3469
52.7134
54.7155
57.188
59.2579
60.7289
62.0358
63.2466
64.4011
65.5708
66.7063
67.774
68.7363
69.6611
70.4955
71.1209
71.3626
8.01354
18.3856
23.2038
26.7081
28.626
27.0533
17.4438
17.8342
19.5242
25.3597
13.2704
13.3985
3.04711
26.9996
39.7847
42.5704
47.8428
51.5463
53.3381
54.9563
56.9226
58.7303
60.3846
61.8233
63.0292
64.068
65.0205
65.9751
66.8304
67.5871
68.1539
68.3866
7.85752
18.2735
24.0165
28.2053
30.7866
31.9389
31.737
24.497
28.6073
20.5215
18.7447
24.2367
20.6337
22.9858
22.7959
39.0734
42.1425
44.925
48.8956
51.8949
53.5408
54.8496
55.93
56.9866
58.0464
59.0678
59.9801
60.726
61.4747
62.1662
62.6705
62.7903
7.47357
17.1484
23.198
27.9099
31.3606
33.3825
33.5908
32.7949
27.7498
14.1763
22.9552
19.3828
24.262
10.7555
15.5008
12.6104
32.9643
40.344
42.5921
44.4255
47.3583
49.9245
52.0261
53.7753
54.9896
55.8701
56.6174
57.4358
58.1185
58.7164
59.1523
59.3015
6.69926
15.5805
21.5574
26.253
29.828
32.4126
34.0322
34.0751
33.0044
28.7449
28.0015
29.5819
15.1955
18.4338
13.8523
12.6044
5.77688
23
33.7868
40.2732
42.2388
43.3359
44.75
45.1931
46.1305
47.0563
47.789
48.1603
48.6677
49.1718
49.5359
49.4152
5.9827
14.3591
20.005
24.4872
27.9939
30.6546
32.4413
33.443
33.2404
32.1558
30.756
15.3084
2.50849
27.9063
18.3713
16.1786
15.4344
7.15827
14.2827
18.8877
28.5012
35.1038
36.6868
41.041
42.5125
43.2312
43.5855
44.4484
44.8963
45.3469
45.5051
45.6876
5.23936
13.2348
18.2629
22.2607
25.4537
28.0225
30.0026
31.2445
31.8161
31.6886
30.4386
31.8981
22.8651
25.4231
27.9608
14.0491
4.3824
23.8433
17.5613
4.99512
25.9136
28.3667
20.6158
13.0967
15.9827
15.6024
18.1412
14.6971
14.3696
14.5865
16.8775
12.697
4.62491
12.2781
16.0858
19.1815
21.8405
24.1763
26.128
27.6217
28.5782
29.224
30.1445
29.4524
31.3356
26.9342
9.79063
27.8401
21.8068
13.2165
25.3748
19.04
5.28447
17.9098
10.2103
6.62391
28.1563
20.6854
28.6887
8.37535
22.2102
8.57152
31.0749
7.85095
4.29088
12.502
13.6815
15.317
17.0525
18.8913
20.7359
22.4297
23.9641
25.4541
26.847
29.1675
29.7902
31.3362
31.1637
17.6895
9.70033
12.9231
6.85507
14.4477
26.7838
7.50811
21.7108
28.0444
18.619
6.42117
4.93815
29.0668
11.8453
30.746
21.404
30.4398
3.98175
11.9364
12.1592
12.5794
13.1424
14.004
15.3106
17.0613
19.0636
21.2079
23.5995
25.4831
28.2197
29.9453
31.0709
32.8149
26.0872
8.21613
27.34
27.4831
22.8725
17.5759
9.17386
18.4291
24.1595
26.6441
19.9691
8.59758
31.5911
19.931
31.8963
7.40936
3.69701
11.7254
11.6097
11.8371
11.9885
12.2006
13.0331
14.6374
16.6121
18.689
20.7421
23.2958
25.3456
27.8221
30.2248
31.1301
32.3635
30.9315
20.9803
11.0425
29.4259
28.9891
29.9046
11.727
13.75
24.528
18.7562
8.21684
21.275
9.059
33.8226
29.9469
3.56577
11.3783
11.6014
11.7373
11.8582
12.121
13.2957
15.1304
16.9754
18.6286
20.2626
21.6951
23.6599
25.5781
27.5751
30.2314
31.718
32.2695
32.6755
29.587
21.5765
17.5802
26.3266
6.95329
14.1912
19.0671
5.46455
11.2171
7.18737
31.3239
28.6912
31.2517
2.45668
9.16482
11.3623
11.5378
11.6894
11.9932
13.7973
15.9797
17.9032
19.5095
20.8279
22.1526
23.2101
24.4812
26.0889
27.6409
29.8101
31.8134
32.4583
32.4728
32.4195
29.6807
26.6153
23.6995
20.294
18.0837
18.6863
18.5659
18.6972
18.8127
18.7033
20.2297
2.22387
8.45272
10.7649
11.6719
11.529
13.1485
15.524
17.6636
19.3929
20.8025
22.0189
22.9758
23.9169
24.6939
25.4042
26.5817
27.9419
29.5628
31.4411
32.5396
32.3829
32.0612
31.3946
31.0874
30.7668
30.5529
30.0834
29.7765
29.4377
29.2983
29.392
29.45
2.87184
9.70944
11.3769
11.86
12.8623
15.2319
17.5274
19.4369
21.0157
22.3396
23.4368
24.3976
25.1062
25.6718
26.1625
26.4781
27.0866
28.1657
29.43
30.7231
31.6793
31.931
31.4589
30.476
29.3799
28.1252
26.9501
26.0971
25.5196
25.3525
25.5471
25.8292
3.70559
11.2722
11.8613
13.0938
15.4348
17.7353
19.7151
21.3918
22.8167
24.0326
25.0826
25.9315
26.6304
27.1116
27.3548
27.5343
27.6156
27.7838
28.3893
29.3028
30.0901
30.4667
30.4112
29.9568
29.1702
28.2102
27.0614
26.1615
25.628
25.5688
25.7823
26.0093
3.84533
11.4204
13.4978
15.7906
17.9848
19.9574
21.7048
23.2424
24.5956
25.7853
26.8137
27.6895
28.349
28.7944
29.0399
29.0252
28.8798
28.7195
28.6055
28.7149
29.0801
29.4211
29.366
28.7942
27.7655
26.3742
24.8742
23.6651
23.0127
23.0162
23.4244
23.8699
4.28029
12.3965
15.5909
18.0941
20.1795
21.9973
23.6213
25.082
26.3979
27.5767
28.6212
29.4964
30.1903
30.6602
30.8742
30.8782
30.6594
30.2622
29.8294
29.4611
29.1865
28.9848
28.7162
28.1867
27.3071
26.1523
24.8464
23.7703
23.2584
23.411
23.9064
24.3673
5.53554
14.6205
17.8139
20.1432
22.0579
23.7754
25.3561
26.81
28.1466
29.3643
30.4495
31.38
32.1093
32.6148
32.8898
32.8994
32.6693
32.2403
31.641
30.9523
30.2815
29.6569
29.0137
28.221
27.1767
25.8751
24.4755
23.3299
22.813
23.0374
23.6597
24.2374
6.70987
16.1532
19.421
21.7663
23.6969
25.4289
27.0233
28.5038
29.8835
31.1534
32.2958
33.2739
34.0616
34.6292
34.9509
35.0292
34.8513
34.4164
33.7666
32.9528
32.0266
31.0521
30.0536
28.9948
27.8168
26.5219
25.2104
24.1776
23.7763
24.0904
24.7599
25.344
8.042
9.38527
10.7064
11.2117
11.4614
11.3136
11.4162
11.6517
11.9906
11.6534
11.6776
11.4723
11.5245
11.2263
10.4079
9.92654
9.50305
9.20473
9.0081
8.91249
8.91237
9.00771
9.20407
9.5021
9.92511
10.4064
11.2158
11.6492
11.7905
11.5327
11.6042
11.5289
11.4981
11.5215
11.7957
11.5476
11.2107
10.7025
9.3859
8.04405
17.4264
18.2238
18.8772
19.2286
19.4983
19.6509
19.7529
19.7765
19.7725
19.7114
19.6308
19.5161
19.4034
19.2591
19.1144
19.013
18.9203
18.855
18.8099
18.788
18.7879
18.8097
18.8547
18.9199
19.0125
19.1136
19.2586
19.4039
19.5215
19.6284
19.7068
19.7597
19.7676
19.7581
19.6605
19.5007
19.2248
18.8741
18.2233
17.4273
20.6389
21.2512
21.755
22.0313
22.2612
22.3631
22.4352
22.4302
22.4121
22.3528
22.2905
22.2091
22.1313
22.0479
21.9739
21.9119
21.859
21.8202
21.7929
21.779
21.779
21.7928
21.8199
21.8586
21.9115
21.9733
22.0474
22.1303
22.2085
22.2897
22.352
22.4098
22.4283
22.4344
22.3627
22.2603
22.0295
21.7535
21.2508
20.6395
22.9076
23.4315
23.8844
24.1536
24.385
24.5056
24.606
24.6429
24.6691
24.6635
24.6578
24.6385
24.6209
24.5996
24.5796
24.5632
24.549
24.5392
24.5317
24.5275
24.5274
24.5316
24.5389
24.5486
24.5627
24.5791
24.5989
24.6201
24.6377
24.6569
24.6627
24.6679
24.6418
24.6049
24.5046
24.3841
24.1526
23.8835
23.4313
22.9078
24.8049
25.2957
25.7396
26.0234
26.2781
26.4377
26.5829
26.6777
26.766
26.8268
26.8863
26.9332
26.9783
27.0175
27.0525
27.0843
27.1108
27.1323
27.1464
27.1526
27.1525
27.1462
27.1321
27.1106
27.0839
27.052
27.0169
26.9776
26.9324
26.8854
26.8259
26.765
26.6767
26.5818
26.4367
26.2771
26.0225
25.7388
25.2953
24.8048
26.536
27.0041
27.4583
27.7616
28.0552
28.2646
28.4705
28.6284
28.7847
28.9143
29.0424
29.1566
29.2664
29.3669
29.4584
29.5399
29.6083
29.6621
29.6982
29.7152
29.7151
29.698
29.6619
29.608
29.5395
29.4579
29.3664
29.2658
29.1559
29.0414
28.9135
28.7838
28.6274
28.4695
28.2636
28.0542
27.7607
27.4575
27.0036
26.5356
28.153
28.6047
29.0871
29.417
29.7637
30.0235
30.2915
30.5104
30.7322
30.9269
31.1202
31.2979
31.469
31.6266
31.7709
31.8985
32.0057
32.0891
32.1453
32.1718
32.1718
32.1452
32.0889
32.0053
31.898
31.7704
31.6261
31.4684
31.2972
31.1195
30.9261
30.7314
30.5095
30.2905
30.0225
29.7627
29.4161
29.0863
28.604
28.1525
29.6756
30.1196
30.6424
31.0019
31.3993
31.7058
32.0296
32.3038
32.5839
32.8367
33.0878
33.3217
33.5466
33.7544
33.9446
34.1121
34.2526
34.3614
34.4344
34.4685
34.4685
34.4343
34.3612
34.2522
34.1117
33.9443
33.754
33.546
33.3211
33.0872
32.836
32.5831
32.3029
32.0288
31.7049
31.3983
31.001
30.6416
30.1189
29.6751
31.1083
31.5484
32.1135
32.4975
32.94
33.2862
33.6577
33.979
34.3084
34.6105
34.9104
35.1916
35.4613
35.7108
35.9388
36.1387
36.306
36.4351
36.5212
36.5613
36.5613
36.5211
36.4349
36.3058
36.1385
35.9385
35.7105
35.4608
35.191
34.9098
34.6099
34.3077
33.9783
33.657
33.2853
32.9391
32.4967
32.1128
31.5478
31.1078
32.4343
32.8718
33.4728
33.8772
34.3564
34.7358
35.1461
35.5064
35.8759
36.2184
36.5577
36.877
37.1825
37.465
37.7224
37.9476
38.1354
38.2797
38.3759
38.4201
38.4201
38.3758
38.2796
38.1352
37.9473
37.7221
37.4647
37.1821
36.8765
36.5571
36.2178
35.8753
35.5057
35.1453
34.735
34.3556
33.8764
33.4719
32.8711
32.4337
33.6266
34.0598
34.6912
35.1119
35.6208
36.0274
36.4689
36.8609
37.2625
37.6373
38.0075
38.3566
38.6896
38.9971
39.2764
39.5201
39.7227
39.878
39.9811
40.0284
40.0283
39.981
39.8779
39.7226
39.5199
39.2762
38.9969
38.6893
38.3562
38.0071
37.6367
37.262
36.8602
36.4682
36.0267
35.62
35.1113
34.6905
34.0592
33.6261
34.6561
35.0815
35.7417
36.1755
36.7101
37.1394
37.607
38.0251
38.4529
38.8534
39.248
39.62
39.9738
40.2997
40.5947
40.8514
41.064
41.2265
41.334
41.3832
41.3832
41.334
41.2264
41.0639
40.8512
40.5946
40.2995
39.9735
39.6197
39.2476
38.853
38.4523
38.0245
37.6064
37.1388
36.7095
36.1749
35.7412
35.081
34.6557
35.4903
35.9141
36.6012
37.0494
37.6078
38.0586
38.5497
38.9908
39.4411
39.8634
40.2779
40.6684
41.0381
41.3779
41.6842
41.9499
42.1694
42.3366
42.4469
42.4971
42.4971
42.4469
42.3366
42.1693
41.9499
41.6842
41.3778
41.0379
40.6682
40.2777
39.8631
39.4407
38.9904
38.5491
38.0581
37.6072
37.0489
36.6006
35.9137
35.4899
36.1073
36.5386
37.2544
37.7221
38.3051
38.7793
39.2935
39.7576
40.2289
40.6712
41.1035
41.5096
41.8927
42.2436
42.5586
42.831
43.0552
43.2256
43.3378
43.3887
43.3887
43.3378
43.2256
43.0552
42.831
42.5586
42.2435
41.8926
41.5095
41.1033
40.671
40.2286
39.7573
39.2931
38.7788
38.3047
37.7218
37.254
36.5383
36.1069
36.497
36.94
37.6951
38.1866
38.7997
39.2998
39.8398
40.3277
40.8209
41.2829
41.7321
42.153
42.5483
42.9089
43.2314
43.5092
43.7371
43.91
44.0236
44.075
44.075
44.0236
43.91
43.7371
43.5092
43.2314
42.9089
42.5482
42.153
41.732
41.2827
40.8207
40.3275
39.8396
39.2995
38.7993
38.1862
37.6947
36.9397
36.4968
36.637
37.115
37.9133
38.4398
39.0875
39.6191
40.1881
40.7023
41.2186
41.7012
42.168
42.6036
43.0106
43.3804
43.7098
43.9926
44.2239
44.399
44.5139
44.566
44.566
44.5139
44.399
44.224
43.9927
43.7099
43.3805
43.0106
42.6036
42.168
41.7012
41.2185
40.7022
40.1878
39.6188
39.0873
38.4396
37.9132
37.115
36.6371
36.5212
37.052
37.9013
38.4739
39.1611
39.7305
40.3315
40.8755
41.4169
41.9216
42.4067
42.8576
43.2766
43.6558
43.9922
44.28
44.5147
44.692
44.8083
44.8612
44.8612
44.8084
44.692
44.5148
44.2801
43.9923
43.656
43.2767
42.8578
42.4068
41.9217
41.4169
40.8755
40.3315
39.7304
39.161
38.4738
37.9012
37.0521
36.5215
36.1491
36.7298
37.6461
38.2723
39.0068
39.6187
40.256
40.8326
41.4015
41.9302
42.4347
42.9019
43.3337
43.7229
44.0667
44.3598
44.5983
44.7782
44.8962
44.9501
44.9501
44.8962
44.7783
44.5985
44.3601
44.0669
43.7232
43.3339
42.9021
42.435
41.9304
41.4017
40.8327
40.256
39.6187
39.0068
38.2724
37.6462
36.7303
36.1495
35.5187
36.1437
37.1229
37.8153
38.6015
39.2617
39.9385
40.5511
41.1497
41.7042
42.2301
42.7148
43.1607
43.5609
43.9131
44.2124
44.4554
44.6385
44.7585
44.8137
44.8137
44.7586
44.6385
44.4556
44.2127
43.9133
43.5613
43.161
42.7152
42.2304
41.7046
41.15
40.5513
39.9387
39.2618
38.6018
37.8155
37.1234
36.1441
35.5198
34.6531
35.297
36.3168
37.0743
37.9195
38.6323
39.3518
40.0029
40.6335
41.2161
41.7651
42.2692
42.7308
43.1435
43.5055
43.8123
44.0609
44.2479
44.3707
44.4274
44.4275
44.3708
44.248
44.0611
43.8127
43.5059
43.144
42.7312
42.2697
41.7655
41.2166
40.6339
40.0032
39.3521
38.6327
37.9198
37.0749
36.3173
35.298
34.6538
33.6033
34.2127
35.2379
36.0406
36.9365
37.7072
38.4697
39.1614
39.8251
40.4375
41.011
41.5366
42.0155
42.4426
42.816
43.1319
43.3873
43.5793
43.7055
43.7643
43.7644
43.7057
43.5796
43.3876
43.1323
42.8166
42.4432
42.016
41.5371
41.0117
40.438
39.8256
39.1619
38.4701
37.7076
36.937
36.0413
35.2387
34.2134
33.6047
32.4299
32.936
33.9206
34.731
35.6557
36.4737
37.2788
38.0089
38.705
39.3469
39.9458
40.4934
40.9911
41.434
41.8204
42.1467
42.4103
42.6083
42.7387
42.8
42.8
42.7389
42.6086
42.4107
42.1472
41.821
41.4347
40.9917
40.4942
39.9465
39.3476
38.7057
38.0097
37.2795
36.4744
35.6565
34.7318
33.9216
32.9367
32.4311
31.1785
31.5241
32.4186
33.1904
34.1115
34.9524
35.7897
36.5506
37.2739
37.9416
38.5637
39.1324
39.6484
40.1075
40.5074
40.8449
41.1174
41.3223
41.4574
41.5213
41.5214
41.4576
41.3226
41.1178
40.8455
40.5081
40.1082
39.6493
39.1332
38.5646
37.9426
37.2749
36.5515
35.7907
34.9534
34.1124
33.1915
32.4197
31.5256
31.1797
29.8607
30.0279
30.7933
31.4851
32.3643
33.1948
34.0416
34.8236
35.565
36.2515
36.8912
37.477
38.0087
38.4822
38.8946
39.2427
39.5239
39.7355
39.8754
39.9421
39.9422
39.8757
39.736
39.5245
39.2435
38.8954
38.4831
38.0098
37.4781
36.8923
36.2526
35.5661
34.8246
34.0427
33.196
32.3655
31.4861
30.7942
30.029
29.862
28.4672
28.4842
29.1125
29.7038
30.515
31.3067
32.1378
32.9198
33.6654
34.3592
35.0077
35.6035
36.1457
36.6291
37.0509
37.4075
37.6957
37.9129
38.0568
38.126
38.1261
38.0572
37.9134
37.6965
37.4083
37.052
36.6303
36.1469
35.6049
35.0092
34.3606
33.6668
32.9213
32.1391
31.308
30.516
29.7048
29.1131
28.4848
28.4674
27.0087
26.9468
27.4586
27.9598
28.6946
29.4325
30.228
30.991
31.7285
32.418
33.0657
33.6633
34.2086
34.6961
35.1224
35.4833
35.7755
35.9961
36.1426
36.2133
36.2134
36.1429
35.9967
35.7764
35.4843
35.1236
34.6976
34.2101
33.665
33.0675
32.4198
31.7304
30.9928
30.23
29.4344
28.6965
27.9617
27.4602
26.9489
27.0104
25.6034
25.543
25.9776
26.4264
27.0974
27.787
28.5413
29.2751
29.9916
30.6663
31.3036
31.8941
32.4345
32.9191
33.3436
33.7036
33.9956
34.2161
34.3628
34.434
34.4341
34.3633
34.2169
33.9965
33.7049
33.3451
32.9208
32.4365
31.8961
31.3058
30.6686
29.9939
29.2775
28.5438
27.7893
27.0998
26.428
25.9795
25.5428
25.6034
24.5315
24.5233
24.9262
25.3605
25.9896
26.6435
27.3572
28.0554
28.7393
29.3896
30.0067
30.5807
31.1074
31.5804
31.9954
32.3477
32.6337
32.85
32.9939
33.0638
33.064
32.9943
32.8506
32.6346
32.3489
31.9967
31.5818
31.1089
30.5823
30.0084
29.3912
28.7408
28.0569
27.3585
26.6447
25.9904
25.3607
24.9259
24.5219
24.5289
24.1295
24.1795
24.5712
25.0017
25.5949
26.2122
26.8774
27.5296
28.1735
28.7902
29.3772
29.9244
30.4273
30.8796
31.2767
31.6141
31.8879
32.0951
32.233
32.2999
32.3
32.2334
32.0957
31.8887
31.615
31.2779
30.8809
30.4287
29.9258
29.3785
28.7914
28.1747
27.5307
26.8783
26.2129
25.5955
25.0019
24.5714
24.1791
24.1296
24.4765
24.5398
24.9213
25.3282
25.8809
26.449
27.059
27.6603
28.259
28.8347
29.3843
29.8976
30.3698
30.7948
31.1681
31.4855
31.7433
31.9383
32.068
32.1307
32.1308
32.0684
31.9389
31.7441
31.4866
31.1693
30.796
30.3711
29.899
29.3858
28.8363
28.2603
27.6614
27.0598
26.4498
25.881
25.3285
24.92
24.5395
24.4726
25.1912
25.2445
25.6186
25.9952
26.5131
27.0359
27.6025
28.1625
28.7229
29.262
29.7775
30.2591
30.7027
31.102
31.4531
31.7517
31.994
32.1774
32.2991
32.3578
32.3578
32.2995
32.1779
31.9947
31.7525
31.4541
31.1032
30.7038
30.2604
29.7787
29.2631
28.7239
28.1634
27.6032
27.0364
26.5135
25.9953
25.6191
25.2445
25.1927
25.8216
25.8481
26.2228
26.5726
27.0713
27.565
28.1086
28.6438
29.1816
29.6986
30.1937
30.6563
31.0825
31.4664
31.804
32.091
32.3242
32.5006
32.6175
32.6736
32.6737
32.618
32.5012
32.3252
32.0922
31.8053
31.468
31.0843
30.6581
30.1957
29.7007
29.1837
28.6457
28.1105
27.5668
27.0729
26.5741
26.2242
25.8496
25.8229
94.3692
61.4891
52.5662
55.5876
61.5712
66.6509
70.869
74.405
77.4119
80.0383
82.4134
84.5993
86.6408
88.5823
90.4452
92.2744
94.0985
95.9753
97.919
99.9429
102.054
104.254
106.536
108.887
111.293
113.727
116.151
118.515
120.743
122.726
124.28
125.149
80.1929
59.3426
51.2128
54.0379
59.9013
64.941
69.1389
72.6574
75.6529
78.2862
80.6509
82.8066
84.8137
86.6988
88.5081
90.2698
92.0448
93.8451
95.7121
97.6647
99.7064
101.832
104.036
106.309
108.632
110.981
113.323
115.606
117.757
119.673
121.174
122.011
79.9674
60.9534
51.1457
52.6659
58.2526
63.2155
67.3693
70.8871
73.9086
76.5446
78.908
81.0529
83.0149
84.8604
86.611
88.3226
90.0139
91.7573
93.5646
95.4455
97.408
99.455
101.58
103.77
106.012
108.28
110.539
112.742
114.818
116.667
118.115
118.92
74.0428
58.9902
50.0622
51.0751
56.4878
61.4337
65.6082
69.1465
72.17
74.8318
77.1976
79.3164
81.2583
83.0535
84.7613
86.4049
88.0637
89.7354
91.4655
93.2785
95.178
97.156
99.2088
101.325
103.487
105.674
107.852
109.977
111.979
113.761
115.157
115.932
88.61
59.5079
49.4639
49.6942
54.7892
59.6714
63.8076
67.3531
70.4402
73.1206
75.4912
77.621
79.5321
81.3051
82.9619
84.5757
86.1478
87.7704
89.4549
91.2047
93.0278
94.9319
96.9079
98.9465
101.033
103.143
105.245
107.293
109.224
110.944
112.289
113.034
88.5489
59.8982
48.7968
48.0232
52.8902
57.7722
61.981
65.6034
68.6952
71.4135
73.8107
75.919
77.8356
79.5725
81.2081
82.7541
84.3188
85.8816
87.4895
89.1767
90.9486
92.7929
94.7061
96.677
98.6897
100.724
102.751
104.726
106.587
108.245
109.541
110.257
85.8128
58.9791
48.2759
46.6459
51.0965
55.9409
60.1187
63.7268
66.9224
69.6849
72.0915
74.244
76.1435
77.8897
79.4851
81.0347
82.5109
84.0326
85.6144
87.2512
88.9497
90.7236
92.5637
94.4629
96.4061
98.3696
100.324
102.23
104.024
105.623
106.872
107.56
78.6412
57.1627
47.1993
44.8819
48.9765
53.8094
58.1174
61.9049
65.1098
67.9187
70.3935
72.53
74.4643
76.186
77.7969
79.2775
80.7815
82.2628
83.768
85.3467
87.0081
88.7346
90.5239
92.3629
94.2383
96.1319
98.0164
99.8525
101.583
103.123
104.326
104.986
88.4212
58.6993
47.0741
43.461
46.9693
51.8085
56.1195
59.8299
63.1945
66.1017
68.5905
70.8215
72.7544
74.5215
76.0981
77.6316
79.0475
80.4958
82.0013
83.5474
85.1383
86.7968
88.5141
90.2862
92.0972
93.9259
95.7435
97.5143
99.1819
100.668
101.827
102.458
88.7299
59.6003
46.7146
41.7059
44.4631
49.2106
53.7082
57.8082
61.21
64.173
66.8041
69.0257
71.0361
72.7873
74.4243
75.8765
77.362
78.7985
80.2268
81.7178
83.2897
84.9164
86.5973
88.317
90.066
91.8285
93.5798
95.2853
96.8919
98.3228
99.4378
100.042
71.132
57.7903
46.5588
40.1723
42.0081
46.8075
51.429
55.3146
58.9782
62.1541
64.8047
67.2024
69.2323
71.0849
72.6858
74.2565
75.6459
77.0506
78.5123
79.9952
81.4972
83.0553
84.6619
86.3181
88.0069
89.7087
91.3966
93.0397
94.5867
95.9659
97.0382
97.6131
67.3603
54.4356
44.9348
38.2452
38.7625
43.2492
48.094
52.8578
56.6316
59.8804
62.817
65.2156
67.3937
69.2363
70.9692
72.4318
73.9456
75.3782
76.7557
78.18
79.6847
81.2306
82.8188
84.4326
86.065
87.7029
89.3278
90.9077
92.3955
93.7204
94.7503
95.2982
74.9194
56.8704
45.1092
36.2167
35.408
39.9155
45.239
49.4305
53.7343
57.4576
60.4216
63.1494
65.378
67.418
69.1018
70.7846
72.1893
73.5839
75.0398
76.4916
77.9241
79.397
80.9059
82.4542
84.0294
85.6114
87.1751
88.6941
90.1236
91.3992
92.387
92.9056
65.0038
54.5537
44.8271
34.8701
30.4709
33.9905
39.5602
46.0683
50.6131
54.4559
58.0329
60.781
63.2957
65.3256
67.2635
68.7864
70.3959
71.8796
73.2375
74.619
76.084
77.5718
79.0842
80.6087
82.1336
83.6537
85.1561
86.6128
87.9848
89.2062
90.1521
90.644
47.4285
47.3319
41.6167
32.0881
25.8554
28.4447
35.4251
40.1014
46.189
51.1968
54.817
58.2432
60.861
63.2743
65.1283
67.0415
68.5154
69.9436
71.4461
72.9099
74.2959
75.7
77.125
78.5713
80.0404
81.5087
82.9512
84.3482
85.6613
86.8342
87.7378
88.1988
24.9152
36.0434
35.2853
29.1866
12.9733
6.12897
19.8163
34.2869
40.8609
46.415
51.6061
55.0909
58.3201
60.7134
63.0537
64.7036
66.5144
68.129
69.5056
70.8715
72.3334
73.7932
75.2507
76.7054
78.1326
79.5384
80.92
82.2543
83.5103
84.6269
85.4885
85.9229
5.91523
19.3913
19.8035
11.7974
7.28371
15.8179
8.73488
14.8303
32.5001
41.1504
46.3916
51.5992
55.0371
58.2304
60.4032
62.764
64.381
65.9011
67.5283
69.0673
70.4337
71.786
73.1388
74.4883
75.856
77.2142
78.5349
79.8076
81.0014
82.0703
82.8875
83.2874
13.0689
5.25211
5.29897
7.10309
4.87576
15.9797
16.8413
4.36312
21.9277
29.5459
41.1767
46.5512
51.5752
54.7255
57.9045
59.779
61.9841
63.8621
65.3061
66.688
68.2001
69.6757
71.1136
72.518
73.8576
75.1492
76.4078
77.615
78.751
79.7588
80.5329
80.9066
11.7538
10.2504
7.76418
14.3744
16.0126
17.0802
6.14234
6.01999
6.54634
10.3791
28.4722
40.7124
46.3172
51.4216
54.2082
57.5039
59.3794
61.0759
62.9635
64.6835
66.0642
67.3811
68.66
69.9239
71.1911
72.4399
73.6322
74.7721
75.8378
76.7968
77.5214
77.8526
7.73669
11.3962
6.08574
16.3373
13.0124
19.5045
19.7959
19.7865
19.9072
10.4368
9.28414
29.3139
40.6364
45.6426
50.9203
53.1747
56.2133
58.6297
60.2106
61.6474
63.3023
64.8692
66.3615
67.7319
68.9963
70.169
71.296
72.3651
73.3719
74.2611
74.9409
75.2473
6.6631
16.0045
19.8064
20.7418
16.8603
19.605
17.1626
23.0021
22.464
21.0973
20.2463
22.9063
27.9457
40.5824
44.6752
50.3586
52.6953
54.7232
57.1727
59.2872
60.7309
62.029
63.1999
64.4026
65.5664
66.7025
67.7514
68.7401
69.6591
70.497
71.1165
71.3641
7.99937
18.3763
23.1984
26.6951
28.6394
27.2527
17.287
17.9457
22.0914
7.81902
14.9775
10.0987
18.8693
26.381
39.7683
42.5573
47.8651
51.5334
53.3561
54.915
56.9214
58.7407
60.4563
61.8234
63.0339
64.0775
65.0563
65.9667
66.829
67.5827
68.1571
68.3864
7.82735
18.2634
24.0152
28.207
30.7818
31.8783
31.7398
24.4791
22.2583
1.38573
25.4107
4.92423
21.6356
8.68127
23.0755
39.0576
42.1614
44.9573
48.8923
51.9614
53.546
54.8398
55.8142
56.9834
58.0376
59.056
59.9323
60.7342
61.4705
62.1695
62.6614
62.7925
7.4719
17.1496
23.2012
27.9152
31.3683
33.3961
33.5881
32.7884
26.8843
24.9901
18.6094
26.5469
3.64891
21.2887
3.12802
13.6124
32.3383
40.2107
42.5707
44.3101
47.3536
49.9362
52.2641
53.7752
54.9956
55.8969
56.698
57.4159
58.1163
58.7045
59.1606
59.3032
6.70472
15.5855
21.5616
26.2569
29.8322
32.4179
34.0437
34.0874
33.0393
28.473
15.9112
19.3507
16.5528
24.233
21.9058
22.2453
17.0879
24.2055
33.5711
40.4773
42.2517
43.3265
44.0561
45.195
46.1115
47.0124
47.6603
48.1913
48.6568
49.1999
49.5122
49.4159
5.98655
14.3648
20.0105
24.4927
27.9991
30.6588
32.4423
33.4411
33.232
32.0844
29.5273
14.3268
16.6452
17.2214
10.7876
23.0238
23.5491
24.6042
19.5232
18.285
28.4923
35.1107
38.6643
40.9169
42.5599
43.3445
43.831
44.3503
44.8399
45.2495
45.5339
45.7017
5.2424
13.242
18.2685
22.2665
25.4599
28.0292
30.0108
31.253
31.8249
31.6977
30.9326
31.8823
22.4321
29.7203
6.35353
14.2991
19.2465
15.1153
24.4723
7.87458
25.9767
28.1406
13.5862
15.8356
14.0116
15.4472
17.1847
14.8634
16.4115
14.857
16.7135
12.7462
4.6331
12.2835
16.0898
19.185
21.8462
24.1834
26.1351
27.6283
28.5832
29.2218
30.0489
29.4944
31.3961
27.5372
26.8486
10.9784
17.738
25.2046
6.46659
25.2275
6.20228
17.4448
16.2892
27.9328
20.2398
7.71205
29.4628
21.4943
30.6709
22.214
31.2232
7.73721
4.36069
11.9544
13.6773
15.3165
17.0555
18.8981
20.7445
22.438
23.9713
25.465
26.8466
29.1349
29.7709
31.2813
30.3914
17.5131
14.3571
7.74679
17.6997
20.1124
25.8418
9.11905
20.7664
20.2352
10.2863
28.0387
20.1742
7.82253
21.9115
6.98337
21.6364
31.9635
4.02248
11.5346
12.1594
12.5779
13.1399
14.0055
15.3139
17.0644
19.0649
21.2047
23.6096
25.4999
28.2236
29.9858
30.9415
32.7964
25.7793
9.88294
18.1168
24.4216
27.4728
23.6878
8.73308
18.4464
5.40108
29.5611
30.7197
25.8686
9.27324
20.2748
32.1148
27.257
3.67779
11.4943
11.6714
11.8563
11.9879
12.1968
13.0293
14.6341
16.6102
18.6888
20.7383
23.2871
25.3455
27.8132
30.3221
31.1356
32.4508
30.6459
20.1602
17.7071
28.5627
9.05777
25.1337
13.436
24.5215
20.1468
11.7856
6.20479
26.1526
14.2189
32.95
21.8148
3.55555
11.3658
11.75
11.731
11.8593
12.1195
13.2918
15.1264
16.9716
18.625
20.2588
21.6979
23.6569
25.5744
27.5471
30.2322
31.6885
32.3213
32.7023
29.155
21.574
17.4155
23.2142
28.1791
16.3821
11.6519
32.1372
10.4584
13.1208
33.3271
21.1019
25.2294
2.4578
9.16808
11.3643
11.4831
11.597
11.9855
13.7904
15.9744
17.8995
19.507
20.8268
22.1467
23.21
24.4834
26.0905
27.6342
29.8118
31.7939
32.4305
32.5
32.4085
29.6523
26.5249
23.2033
20.1202
18.4335
19.5391
18.872
18.1962
19.544
18.0302
19.2319
2.22213
8.44954
10.7571
11.4109
11.7964
13.1544
15.5188
17.6593
19.3896
20.7997
22.0164
22.9769
23.9139
24.69
25.4027
26.5796
27.9365
29.5574
31.4379
32.5361
32.3663
32.0678
31.3727
30.9709
30.7437
30.6049
30.1305
29.7477
29.4441
29.3189
29.4475
29.4481
2.87258
9.70473
11.4717
11.8655
12.8457
15.224
17.5217
19.4331
21.0131
22.3375
23.4349
24.3939
25.1053
25.6711
26.1604
26.4758
27.0831
28.1635
29.4144
30.7287
31.6643
31.9299
31.465
30.4973
29.3654
28.0886
27.0493
26.1584
25.52
25.3979
25.5132
25.8161
3.72566
11.2883
11.6094