/*--------------------------------*- C++ -*----------------------------------*\
  =========                 |
  \\      /  F ield         | OpenFOAM: The Open Source CFD Toolbox
   \\    /   O peration     | Website:  https://openfoam.org
    \\  /    A nd           | Version:  6
     \\/     M anipulation  |
\*---------------------------------------------------------------------------*/
FoamFile
{
    version     2.0;
    format      ascii;
    class       volScalarField;
    location    "1.8";
    object      k;
}
// * * * * * * * * * * * * * * * * * * * * * * * * * * * * * * * * * * * * * //

dimensions      [0 2 -2 0 0 0 0];

internalField   nonuniform List<scalar> 
63264
(
0.000299084
0.000371418
0.000380578
0.000369431
0.000360539
0.000353468
0.000346177
0.000338786
0.000332167
0.000326893
0.000323167
0.000320936
0.000319953
0.000319918
0.000320398
0.000321275
0.000322135
0.000323496
0.00032447
0.000326597
0.000327544
0.000330662
0.000331511
0.000335566
0.000336671
0.000341641
0.000343408
0.000349655
0.000352345
0.000360456
0.000364053
0.000375611
0.000378297
0.000398751
0.000395647
0.000315749
0.000400406
0.000412955
0.000399816
0.000390515
0.000385325
0.000381927
0.00037937
0.000377225
0.00037522
0.000373326
0.000371682
0.000370421
0.000369687
0.000369281
0.000369279
0.000369106
0.000369531
0.000369285
0.000370549
0.000370351
0.000372917
0.000373067
0.00037687
0.000377782
0.000382654
0.000384487
0.000390639
0.000393406
0.000401365
0.000404915
0.000415828
0.00041899
0.000435497
0.000435788
0.000328505
0.000424708
0.000441314
0.00042616
0.000414769
0.000407707
0.000402482
0.00039779
0.000393595
0.000389848
0.000386584
0.000383921
0.000381845
0.000380381
0.000379378
0.000378691
0.00037811
0.000377654
0.000377406
0.000377309
0.000377697
0.000378141
0.000379212
0.000380291
0.000381946
0.000383839
0.000386098
0.000389028
0.000392188
0.000396417
0.000400933
0.000406789
0.000413291
0.000420469
0.000430661
0.000344106
0.00045321
0.000474412
0.000457142
0.000443876
0.000434337
0.00042544
0.000415954
0.000406821
0.000398925
0.000392692
0.000388177
0.00038504
0.000382923
0.000381528
0.000380505
0.000379718
0.000379047
0.000378576
0.000378369
0.000378267
0.000378592
0.000378718
0.000379441
0.000379731
0.000380854
0.000381514
0.000383267
0.000384648
0.000387493
0.000389812
0.00039464
0.000397526
0.000406202
0.000408999
0.000362372
0.00048654
0.000511099
0.000489157
0.000471891
0.000459433
0.000447724
0.000435843
0.000424665
0.000415052
0.000407437
0.000401775
0.000397692
0.000394784
0.000392695
0.000391148
0.00038984
0.00038893
0.000387821
0.000387627
0.000386408
0.000387098
0.000385541
0.000386966
0.000385239
0.000387193
0.000385736
0.000388372
0.000387522
0.000391383
0.000391167
0.000397553
0.000396709
0.000409343
0.000404722
0.000374781
0.000513217
0.000546295
0.000522414
0.000504058
0.000493989
0.000487175
0.000481222
0.00047554
0.000469948
0.000464515
0.000459456
0.000454723
0.000450407
0.000446544
0.000443247
0.000440048
0.000437506
0.000434416
0.000432717
0.000429663
0.000428869
0.000426098
0.000425893
0.000423603
0.00042393
0.000422037
0.000423185
0.000421725
0.000423985
0.000423067
0.000427069
0.000426289
0.000433154
0.000431747
0.000384863
0.000535799
0.000575136
0.000547768
0.000526292
0.000513682
0.00050556
0.000498409
0.000491726
0.000485411
0.000479169
0.000473715
0.000468459
0.000463188
0.000458235
0.000453842
0.000449774
0.000446033
0.000442358
0.000439074
0.000435832
0.000433085
0.000430258
0.000427935
0.000425401
0.000423386
0.000421173
0.000419506
0.000417797
0.000416673
0.000415749
0.00041537
0.000415812
0.000415682
0.000419001
0.000397604
0.000562267
0.000608713
0.000577977
0.000553499
0.000538016
0.000526496
0.000515014
0.000503869
0.000493814
0.00048482
0.000477733
0.000471557
0.000465654
0.000460144
0.000455314
0.000450766
0.000446703
0.000442484
0.000438887
0.000434961
0.000431731
0.000428077
0.000424952
0.000421373
0.000418311
0.000414714
0.000411829
0.000408467
0.000405927
0.000403091
0.000401279
0.000399144
0.000398485
0.000397541
0.00041301
0.000592876
0.0006442
0.00060786
0.000577919
0.000559573
0.000545192
0.000531495
0.000518538
0.000506859
0.00049677
0.000488444
0.000481265
0.000474831
0.000468893
0.000463698
0.000458549
0.000454183
0.000449104
0.000445304
0.000440092
0.000436728
0.000431461
0.000428219
0.000422951
0.000419681
0.000414434
0.00041125
0.000406153
0.00040334
0.000398509
0.000396643
0.000391838
0.000392296
0.0003868
0.000425073
0.000622624
0.000690141
0.000649195
0.000613814
0.000595908
0.000585176
0.000576495
0.000568221
0.00055987
0.000551419
0.000543006
0.00053462
0.000526454
0.000518584
0.000511266
0.000504078
0.000497431
0.00049042
0.000484149
0.00047712
0.000471216
0.000464221
0.000458653
0.000451711
0.000446389
0.000439491
0.00043437
0.000427587
0.000422717
0.000416142
0.000411768
0.000405394
0.000401919
0.000395629
0.000431661
0.000639045
0.000714052
0.00066988
0.000631084
0.000611045
0.000599501
0.000590327
0.000581739
0.000573264
0.000564362
0.00055603
0.000547643
0.000538449
0.000529015
0.000520022
0.000511695
0.000503711
0.000496028
0.000488371
0.00048095
0.000473503
0.000466282
0.000458934
0.000451753
0.000444396
0.000437141
0.000429782
0.000422499
0.000415238
0.000408126
0.000401015
0.000394507
0.000387296
0.000382298
0.000438353
0.000656788
0.000741401
0.000693642
0.000651486
0.000628207
0.000614344
0.000602185
0.000590429
0.000579663
0.000568237
0.000559217
0.000550927
0.000540936
0.000530161
0.000520005
0.000510919
0.000502326
0.000494175
0.00048596
0.000478094
0.000470056
0.000462323
0.000454298
0.000446437
0.000438253
0.000430142
0.000421774
0.000413505
0.000405048
0.000396859
0.000388394
0.000380677
0.000372059
0.000365567
0.000448877
0.00067872
0.0007696
0.000717066
0.00066986
0.000644099
0.000627563
0.000612846
0.000598617
0.000585349
0.000572516
0.000561798
0.000552134
0.00054169
0.000530847
0.000520514
0.00051109
0.000502085
0.000493485
0.000484793
0.000476356
0.000467767
0.000459286
0.000450675
0.00044191
0.000433091
0.000423986
0.000414885
0.000405564
0.000396304
0.000386973
0.00037772
0.000368676
0.000359488
0.000351197
0.00046033
0.000703042
0.000800632
0.000742401
0.000689581
0.0006612
0.000642268
0.000625427
0.000609307
0.000594218
0.000580409
0.000568309
0.000557296
0.000546472
0.000535806
0.000525606
0.000515968
0.000506705
0.000497566
0.000488567
0.000479348
0.000470377
0.000460865
0.000451778
0.000441852
0.000432492
0.000422201
0.000412515
0.000402032
0.000392157
0.000381659
0.000371856
0.00036146
0.000352142
0.000341942
0.000468197
0.000725628
0.000845694
0.000780796
0.000718543
0.000688009
0.000671114
0.000657678
0.000644694
0.000631674
0.000618737
0.000606054
0.00059358
0.000581285
0.000569267
0.000557645
0.000546332
0.000535371
0.000524318
0.000513599
0.000502394
0.000491673
0.000480295
0.000469404
0.000457878
0.000446758
0.000435027
0.000423726
0.000411834
0.000400439
0.000388535
0.000377187
0.000365424
0.000354333
0.000342819
0.000470495
0.000731592
0.000856429
0.000790296
0.000726277
0.000694831
0.000677853
0.000664597
0.000651824
0.000639136
0.000626133
0.000613887
0.000602056
0.000589206
0.000575577
0.000562194
0.000549716
0.000537823
0.000526368
0.000514926
0.000503557
0.000492114
0.000480591
0.000468985
0.000457177
0.000445283
0.000433158
0.000420974
0.000408633
0.000396298
0.000383913
0.0003716
0.000359404
0.000347228
0.000335551
0.000472811
0.000738144
0.000868117
0.000800193
0.000734243
0.000701285
0.000683408
0.000669155
0.000655209
0.000641984
0.000627774
0.000615563
0.000604898
0.000591928
0.000576828
0.000561921
0.000548502
0.000536113
0.000524381
0.000512714
0.000501174
0.000489546
0.000477882
0.000466048
0.000454051
0.000441833
0.00042942
0.000416833
0.000404118
0.000391324
0.000378521
0.000365714
0.000353066
0.0003404
0.000328198
0.000475958
0.00074576
0.000879919
0.000809785
0.000741536
0.000707164
0.000688335
0.00067314
0.000658219
0.000644238
0.000629222
0.000616554
0.000605842
0.000592656
0.000577078
0.000561705
0.000547947
0.000535329
0.000523389
0.00051152
0.000499758
0.0004879
0.000475991
0.00046391
0.000451651
0.000439169
0.000426479
0.00041361
0.000400598
0.000387506
0.000374382
0.000361275
0.000348276
0.000335344
0.000322715
0.000480229
0.000755016
0.000892508
0.000819932
0.00074892
0.000713508
0.000693548
0.000677262
0.000661418
0.000646072
0.000630895
0.000617213
0.000604654
0.000591121
0.000576501
0.00056216
0.000548771
0.000536261
0.000524102
0.000512122
0.000500066
0.000487986
0.000475749
0.000463378
0.000450792
0.000438016
0.000425027
0.000411879
0.000398592
0.000385236
0.000371848
0.000358501
0.000345227
0.000332092
0.000319154
0.000484582
0.000764825
0.000905454
0.000829737
0.00075585
0.000719083
0.000698028
0.000680696
0.000663943
0.000647637
0.000632022
0.000617487
0.000603719
0.000590039
0.000576346
0.000563036
0.000550216
0.000537877
0.00052567
0.000513566
0.000501323
0.000489015
0.000476512
0.000463862
0.000450996
0.000437956
0.000424723
0.000411355
0.000397867
0.000384331
0.000370773
0.000357275
0.000343845
0.000330589
0.000317484
0.00107066
0.00103717
0.00103643
0.00104512
0.0010482
0.00104837
0.00104766
0.00104612
0.00104378
0.00104107
0.00103842
0.00103615
0.00103446
0.0010335
0.00103305
0.0010332
0.00103317
0.00103386
0.00103345
0.00103474
0.00103377
0.00103587
0.00103463
0.00103715
0.00103598
0.00103872
0.00103751
0.00104058
0.00103937
0.00104283
0.00104161
0.00104573
0.00104422
0.00104944
0.00104748
0.00108356
0.00104686
0.00104584
0.00105446
0.00105732
0.00105691
0.0010559
0.00105501
0.0010543
0.0010537
0.00105306
0.00105232
0.00105148
0.00105081
0.00105023
0.00105019
0.00104981
0.00105034
0.00104951
0.00105054
0.00104907
0.00105057
0.00104898
0.00105069
0.0010494
0.00105138
0.00105029
0.0010527
0.00105167
0.00105454
0.0010535
0.00105692
0.00105573
0.00105981
0.0010586
0.00109184
0.00105523
0.00105373
0.0010622
0.00106532
0.00106507
0.00106421
0.00106328
0.00106225
0.00106117
0.00106003
0.00105881
0.00105757
0.00105654
0.00105582
0.00105545
0.00105525
0.00105507
0.00105492
0.00105456
0.00105442
0.00105409
0.00105404
0.00105403
0.001054
0.00105443
0.00105439
0.00105513
0.00105521
0.00105613
0.00105643
0.00105746
0.00105828
0.00105892
0.00106141
0.00110256
0.00106318
0.00106131
0.00106969
0.00107334
0.00107378
0.00107343
0.00107243
0.00107053
0.00106796
0.0010652
0.00106259
0.0010604
0.00105876
0.00105772
0.00105711
0.00105678
0.00105653
0.00105617
0.00105597
0.00105549
0.00105553
0.0010551
0.00105543
0.00105508
0.00105558
0.00105528
0.00105584
0.00105554
0.00105624
0.00105595
0.00105687
0.00105673
0.00105779
0.00105837
0.00111515
0.00107093
0.00106882
0.00107721
0.00108089
0.00108139
0.00108088
0.00107963
0.00107749
0.00107468
0.00107166
0.00106883
0.00106644
0.00106459
0.00106326
0.00106243
0.00106168
0.00106147
0.00106052
0.0010609
0.00105942
0.00106052
0.00105872
0.00106028
0.0010585
0.00106015
0.00105841
0.00106011
0.00105835
0.00106016
0.00105838
0.00106057
0.00105859
0.00106152
0.00105926
0.00112272
0.00107719
0.0010749
0.00108296
0.00108639
0.00108654
0.00108577
0.00108489
0.00108397
0.00108297
0.00108187
0.00108063
0.00107928
0.00107797
0.00107671
0.00107584
0.00107474
0.00107444
0.00107307
0.00107319
0.00107148
0.00107177
0.00107016
0.00107049
0.00106901
0.00106965
0.00106807
0.00106904
0.00106743
0.00106863
0.00106703
0.00106848
0.00106695
0.00106852
0.00106748
0.00112811
0.00108277
0.00108038
0.00108799
0.00109152
0.00109156
0.0010907
0.00108979
0.00108884
0.00108782
0.00108672
0.00108552
0.00108413
0.0010827
0.00108137
0.00108031
0.00107933
0.00107855
0.00107757
0.00107677
0.00107565
0.00107486
0.00107376
0.00107313
0.00107216
0.00107168
0.00107084
0.00107045
0.00106971
0.00106938
0.00106875
0.00106838
0.00106814
0.00106727
0.00106838
0.00113551
0.00108816
0.00108571
0.00109296
0.00109672
0.00109717
0.00109667
0.00109581
0.0010944
0.00109249
0.00109034
0.00108822
0.00108617
0.00108433
0.00108273
0.00108157
0.00108041
0.00107965
0.00107848
0.00107771
0.00107643
0.0010756
0.00107442
0.00107371
0.00107257
0.00107209
0.00107094
0.00107048
0.00106941
0.00106887
0.00106786
0.00106723
0.00106643
0.00106549
0.00106555
0.00114467
0.00109348
0.00109093
0.00109808
0.0011016
0.0011021
0.00110149
0.00110037
0.00109874
0.00109663
0.00109428
0.00109196
0.00108976
0.00108786
0.00108609
0.00108487
0.00108337
0.00108272
0.00108105
0.0010807
0.00107878
0.00107852
0.0010766
0.00107637
0.00107453
0.0010744
0.00107255
0.00107248
0.00107058
0.00107052
0.00106859
0.0010685
0.00106659
0.00106647
0.00106485
0.00115171
0.00109825
0.00109607
0.00110257
0.00110558
0.00110584
0.00110501
0.00110398
0.001103
0.00110203
0.00110096
0.00109977
0.0010984
0.00109697
0.00109541
0.00109404
0.0010925
0.00109141
0.00108981
0.0010889
0.00108711
0.00108628
0.00108433
0.00108359
0.00108157
0.00108096
0.0010789
0.00107838
0.00107633
0.00107584
0.0010738
0.0010733
0.00107134
0.00107062
0.00106914
0.00115483
0.0011016
0.00109961
0.00110567
0.00110861
0.0011088
0.00110789
0.00110685
0.0011059
0.001105
0.00110404
0.00110298
0.0011017
0.0011002
0.00109867
0.00109716
0.00109574
0.0010943
0.00109289
0.00109138
0.00108988
0.00108826
0.00108672
0.00108512
0.0010836
0.00108209
0.00108056
0.00107912
0.00107753
0.0010761
0.00107451
0.00107291
0.00107152
0.00106943
0.00106879
0.00115798
0.00110498
0.00110336
0.00110877
0.00111176
0.00111204
0.00111124
0.00111022
0.00110901
0.00110765
0.00110608
0.00110453
0.00110287
0.00110104
0.00109933
0.0010977
0.00109627
0.00109475
0.00109333
0.00109166
0.00109011
0.00108832
0.00108671
0.00108495
0.00108334
0.00108166
0.00108005
0.00107838
0.00107673
0.00107497
0.00107329
0.00107132
0.00106972
0.00106726
0.00106628
0.00116366
0.00110826
0.00110681
0.00111194
0.00111466
0.00111503
0.00111426
0.00111313
0.00111168
0.00110993
0.00110792
0.00110588
0.00110383
0.00110176
0.00109987
0.00109811
0.00109658
0.00109497
0.00109348
0.00109179
0.00109014
0.00108839
0.00108659
0.00108491
0.00108305
0.0010814
0.00107955
0.00107784
0.00107592
0.0010741
0.00107207
0.00107002
0.00106799
0.00106552
0.00106385
0.00116979
0.0011116
0.00111045
0.00111522
0.00111763
0.00111802
0.00111726
0.00111602
0.00111441
0.00111244
0.00111021
0.00110792
0.00110566
0.00110351
0.00110152
0.00109969
0.00109797
0.00109636
0.00109465
0.00109311
0.00109122
0.00108971
0.00108763
0.00108618
0.001084
0.00108252
0.00108031
0.0010787
0.0010764
0.00107461
0.00107216
0.00107017
0.00106759
0.00106531
0.00106281
0.00117428
0.00111433
0.0011145
0.00111825
0.00111986
0.00111997
0.00111906
0.00111781
0.00111651
0.00111516
0.00111368
0.00111205
0.0011103
0.00110846
0.00110657
0.00110475
0.00110286
0.00110119
0.00109925
0.00109767
0.00109561
0.00109396
0.00109183
0.00109006
0.00108785
0.00108605
0.00108371
0.00108184
0.00107938
0.00107737
0.00107479
0.00107257
0.00106987
0.00106736
0.00106469
0.00117532
0.00111546
0.0011159
0.00111944
0.00112096
0.00112104
0.00112011
0.00111889
0.00111765
0.00111641
0.00111504
0.00111355
0.00111192
0.00111008
0.00110821
0.00110633
0.00110453
0.00110268
0.00110084
0.00109894
0.00109696
0.00109498
0.0010929
0.00109087
0.00108873
0.00108664
0.00108443
0.00108223
0.00107988
0.00107752
0.001075
0.00107242
0.00106974
0.00106684
0.00106415
0.00117637
0.00111661
0.00111735
0.00112057
0.00112201
0.0011221
0.00112117
0.00111996
0.00111865
0.00111729
0.00111573
0.00111412
0.00111241
0.00111044
0.00110848
0.00110657
0.0011048
0.00110293
0.00110106
0.00109907
0.00109703
0.00109493
0.0010928
0.00109066
0.0010885
0.00108632
0.00108408
0.00108179
0.0010794
0.00107692
0.00107433
0.0010716
0.00106882
0.00106575
0.00106287
0.0011779
0.00111775
0.00111876
0.00112172
0.00112304
0.0011231
0.00112216
0.00112091
0.00111951
0.00111802
0.0011163
0.00111454
0.00111271
0.00111063
0.00110858
0.00110663
0.00110482
0.00110293
0.00110104
0.00109903
0.00109696
0.00109483
0.00109267
0.00109048
0.00108826
0.00108602
0.00108373
0.00108137
0.00107892
0.00107637
0.0010737
0.0010709
0.00106799
0.00106487
0.00106177
0.00118009
0.0011189
0.00112013
0.00112292
0.00112404
0.00112411
0.0011232
0.00112189
0.00112041
0.00111877
0.00111691
0.00111496
0.00111292
0.0011108
0.00110869
0.00110671
0.00110478
0.0011029
0.00110095
0.00109898
0.00109692
0.00109482
0.00109267
0.00109049
0.00108826
0.001086
0.00108367
0.00108127
0.00107876
0.00107616
0.00107341
0.00107055
0.00106754
0.00106437
0.00106111
0.00118229
0.00112006
0.00112154
0.00112408
0.001125
0.00112503
0.0011241
0.00112272
0.00112114
0.00111936
0.00111738
0.00111527
0.0011131
0.00111093
0.00110879
0.00110677
0.00110477
0.00110286
0.0011009
0.00109895
0.00109693
0.00109488
0.00109277
0.00109061
0.0010884
0.00108613
0.00108379
0.00108136
0.00107881
0.00107617
0.00107338
0.00107047
0.0010674
0.0010642
0.00106085
0.00114183
0.00112119
0.00110946
0.00111363
0.00111804
0.00112002
0.00112067
0.00112015
0.00111854
0.0011162
0.00111355
0.00111099
0.00110881
0.00110735
0.00110638
0.00110632
0.00110583
0.00110667
0.00110551
0.00110732
0.00110515
0.00110799
0.00110544
0.00110868
0.00110624
0.00110967
0.00110709
0.00111082
0.00110813
0.00111211
0.00110928
0.00111379
0.00111064
0.00111581
0.00111252
0.00115306
0.0011318
0.00112001
0.00112398
0.00112806
0.00112915
0.00112888
0.00112828
0.00112769
0.00112719
0.00112662
0.00112587
0.00112488
0.001124
0.00112306
0.00112292
0.00112211
0.00112293
0.00112142
0.00112313
0.00112065
0.00112287
0.00112022
0.00112245
0.00112015
0.0011226
0.00112038
0.00112332
0.00112107
0.00112448
0.0011221
0.00112603
0.0011234
0.00112791
0.00112519
0.00116191
0.00114091
0.00112898
0.00113272
0.00113695
0.00113816
0.00113815
0.00113769
0.00113695
0.00113608
0.00113506
0.00113384
0.00113243
0.00113113
0.00113008
0.00112948
0.00112914
0.00112887
0.00112872
0.00112825
0.00112804
0.00112754
0.00112726
0.00112717
0.00112673
0.00112721
0.00112666
0.00112746
0.00112697
0.00112791
0.00112751
0.00112852
0.00112845
0.00112911
0.00113011
0.00117122
0.00114986
0.00113779
0.00114125
0.00114578
0.00114759
0.00114822
0.001148
0.0011467
0.00114449
0.0011418
0.00113901
0.00113645
0.00113433
0.00113288
0.00113197
0.00113147
0.00113118
0.00113073
0.00113059
0.00112985
0.00112996
0.00112917
0.00112961
0.0011289
0.00112954
0.00112889
0.00112958
0.00112883
0.00112965
0.00112874
0.00112969
0.00112882
0.00112969
0.00112938
0.00118084
0.00115882
0.00114658
0.00114994
0.00115432
0.00115616
0.00115662
0.00115615
0.00115464
0.00115223
0.00114931
0.00114632
0.0011436
0.00114135
0.00113962
0.00113856
0.00113748
0.00113743
0.00113598
0.00113692
0.00113457
0.00113648
0.00113366
0.00113604
0.00113335
0.00113573
0.00113314
0.00113553
0.00113288
0.0011353
0.00113253
0.00113519
0.00113214
0.00113526
0.001132
0.00118805
0.00116591
0.00115397
0.00115728
0.00116138
0.00116274
0.00116265
0.00116209
0.00116134
0.00116046
0.00115942
0.0011582
0.00115677
0.00115531
0.00115376
0.0011528
0.00115132
0.0011513
0.00114942
0.0011501
0.00114781
0.00114859
0.00114647
0.0011472
0.00114514
0.00114631
0.001144
0.00114556
0.00114321
0.00114497
0.00114257
0.00114454
0.00114213
0.00114417
0.00114202
0.00119426
0.00117217
0.0011605
0.00116337
0.00116753
0.00116868
0.00116846
0.00116791
0.00116713
0.00116626
0.00116527
0.00116416
0.00116278
0.00116124
0.00115965
0.00115839
0.00115721
0.00115646
0.00115544
0.00115479
0.0011536
0.00115293
0.00115166
0.00115111
0.00114996
0.00114957
0.00114857
0.00114831
0.00114738
0.00114722
0.00114632
0.00114613
0.00114551
0.0011449
0.00114505
0.00120073
0.00117842
0.00116697
0.0011695
0.00117369
0.00117507
0.00117514
0.00117475
0.00117368
0.00117203
0.00116998
0.00116786
0.00116568
0.00116364
0.00116167
0.00116031
0.0011589
0.00115824
0.00115698
0.00115643
0.00115509
0.00115439
0.00115309
0.00115252
0.00115118
0.00115094
0.00114965
0.00114942
0.00114827
0.00114796
0.00114684
0.00114643
0.00114544
0.00114469
0.00114425
0.00120735
0.00118481
0.00117328
0.00117585
0.00117957
0.0011809
0.00118084
0.00118014
0.00117886
0.00117702
0.00117478
0.00117245
0.00117009
0.00116802
0.0011659
0.00116461
0.00116273
0.00116235
0.0011603
0.00116046
0.00115813
0.00115837
0.00115608
0.0011563
0.0011541
0.00115447
0.00115227
0.00115277
0.00115054
0.00115104
0.00114883
0.00114923
0.00114704
0.00114733
0.00114528
0.00121297
0.00119031
0.00117965
0.00118227
0.00118548
0.00118649
0.00118611
0.00118528
0.00118438
0.00118345
0.00118243
0.00118126
0.00117985
0.00117836
0.0011766
0.00117516
0.00117335
0.00117234
0.0011705
0.00116987
0.00116784
0.00116739
0.00116517
0.00116485
0.00116253
0.00116239
0.00116004
0.00116001
0.00115772
0.00115775
0.00115549
0.00115553
0.00115336
0.00115321
0.00115136
0.00121691
0.00119416
0.00118385
0.00118621
0.00118931
0.00119016
0.00118966
0.00118881
0.00118793
0.00118709
0.00118619
0.0011852
0.001184
0.00118249
0.00118082
0.00117909
0.00117753
0.00117601
0.00117464
0.00117318
0.00117179
0.00117023
0.00116879
0.00116725
0.00116579
0.00116442
0.00116294
0.00116176
0.00116026
0.00115915
0.00115772
0.00115646
0.00115526
0.00115364
0.00115289
0.00122087
0.00119797
0.00118825
0.00119011
0.00119323
0.00119401
0.0011935
0.00119271
0.00119162
0.00119037
0.00118884
0.0011873
0.00118573
0.00118386
0.00118192
0.00117997
0.00117838
0.00117676
0.00117546
0.00117387
0.00117251
0.00117079
0.0011693
0.00116761
0.00116609
0.00116455
0.00116309
0.00116166
0.00116025
0.00115882
0.00115746
0.0011559
0.00115467
0.00115275
0.00115192
0.00122501
0.00120196
0.00119235
0.00119416
0.00119687
0.00119761
0.00119709
0.00119614
0.00119483
0.0011932
0.00119122
0.00118914
0.00118707
0.00118488
0.00118275
0.00118068
0.00117898
0.00117727
0.00117587
0.00117429
0.00117279
0.00117121
0.00116949
0.001168
0.00116623
0.00116481
0.00116314
0.00116176
0.00116011
0.00115875
0.0011571
0.00115559
0.00115403
0.00115223
0.00115091
0.00122918
0.001206
0.00119659
0.00119832
0.0012006
0.00120121
0.00120064
0.00119955
0.00119809
0.00119625
0.00119408
0.00119176
0.00118942
0.00118709
0.00118487
0.00118281
0.00118091
0.00117928
0.00117753
0.00117618
0.00117427
0.00117307
0.00117095
0.00116987
0.0011677
0.00116663
0.00116455
0.00116342
0.00116138
0.00116019
0.00115812
0.00115684
0.00115475
0.00115327
0.0011513
0.00123239
0.00120905
0.00120119
0.00120293
0.00120456
0.00120475
0.00120394
0.00120274
0.00120144
0.00120007
0.00119858
0.00119692
0.00119509
0.00119313
0.00119106
0.00118909
0.001187
0.00118532
0.00118321
0.0011818
0.00117968
0.00117825
0.00117617
0.00117466
0.00117255
0.00117111
0.00116892
0.00116753
0.00116533
0.0011639
0.00116172
0.00116021
0.00115806
0.00115642
0.00115436
0.00123377
0.00121037
0.00120275
0.00120442
0.00120599
0.00120613
0.00120528
0.0012041
0.00120286
0.00120162
0.00120026
0.00119878
0.00119717
0.00119529
0.00119327
0.00119114
0.00118916
0.0011872
0.00118534
0.00118353
0.00118163
0.00117982
0.00117785
0.00117602
0.00117405
0.00117223
0.0011703
0.00116849
0.00116654
0.00116473
0.00116276
0.00116089
0.00115891
0.00115692
0.00115504
0.00123514
0.00121166
0.00120435
0.00120583
0.00120732
0.00120742
0.00120652
0.00120535
0.00120404
0.00120272
0.00120117
0.00119953
0.0011979
0.00119597
0.00119383
0.00119158
0.00118956
0.00118757
0.00118573
0.00118385
0.00118195
0.00118002
0.00117805
0.00117608
0.00117411
0.00117219
0.00117025
0.00116836
0.00116643
0.00116451
0.00116257
0.00116058
0.00115863
0.00115652
0.00115463
0.00123656
0.00121298
0.00120591
0.00120725
0.00120863
0.00120865
0.0012077
0.00120649
0.00120509
0.00120364
0.00120191
0.0012001
0.00119834
0.0011963
0.00119406
0.00119174
0.00118966
0.00118764
0.00118578
0.00118389
0.00118199
0.00118003
0.00117804
0.00117604
0.00117404
0.00117207
0.0011701
0.00116816
0.0011662
0.00116425
0.00116227
0.00116026
0.00115825
0.00115616
0.00115415
0.00123799
0.00121439
0.00120741
0.00120876
0.00120991
0.00120988
0.00120894
0.00120764
0.00120617
0.00120455
0.00120269
0.0012007
0.00119864
0.00119645
0.00119413
0.00119187
0.0011897
0.00118771
0.00118576
0.00118388
0.00118197
0.00118003
0.00117806
0.00117609
0.00117411
0.00117214
0.00117017
0.00116822
0.00116624
0.00116426
0.00116223
0.0011602
0.00115813
0.00115603
0.00115393
0.00123944
0.00121577
0.00120895
0.0012102
0.00121114
0.00121098
0.00121
0.00120861
0.00120703
0.00120527
0.00120328
0.00120113
0.00119886
0.00119654
0.00119419
0.00119195
0.00118977
0.00118776
0.00118578
0.00118388
0.00118198
0.00118007
0.00117814
0.00117621
0.00117426
0.00117232
0.00117035
0.00116839
0.0011664
0.0011644
0.00116234
0.00116029
0.00115818
0.00115606
0.00115391
0.00114866
0.00114506
0.00113253
0.00113188
0.00113524
0.00113812
0.00114016
0.00114101
0.00114052
0.00113896
0.00113667
0.00113407
0.00113154
0.00112966
0.00112816
0.00112788
0.00112688
0.00112792
0.00112595
0.00112833
0.00112501
0.00112851
0.0011249
0.00112862
0.00112526
0.00112917
0.0011256
0.00112972
0.00112604
0.00113022
0.0011264
0.00113083
0.00112682
0.00113148
0.00112736
0.00115956
0.00115561
0.00114308
0.00114218
0.00114511
0.00114679
0.00114723
0.00114714
0.00114693
0.00114675
0.00114643
0.00114583
0.00114478
0.0011438
0.00114251
0.00114234
0.00114102
0.00114223
0.00113998
0.0011424
0.001139
0.00114183
0.00113838
0.00114093
0.00113784
0.00114061
0.00113748
0.00114076
0.00113756
0.00114127
0.00113788
0.00114205
0.00113834
0.00114297
0.00113903
0.00116849
0.00116469
0.0011521
0.00115094
0.00115403
0.00115587
0.00115671
0.00115702
0.00115689
0.00115653
0.00115589
0.00115488
0.00115345
0.00115198
0.00115067
0.00114985
0.00114937
0.00114902
0.00114887
0.00114833
0.00114804
0.00114747
0.00114692
0.00114688
0.00114598
0.00114662
0.00114556
0.00114652
0.00114547
0.00114661
0.00114544
0.00114678
0.00114557
0.00114683
0.00114592
0.00117768
0.00117364
0.00116088
0.00115931
0.0011626
0.00116505
0.00116678
0.00116779
0.00116758
0.00116621
0.00116402
0.00116135
0.00115862
0.00115615
0.00115433
0.00115313
0.00115244
0.00115215
0.00115156
0.00115152
0.00115054
0.00115075
0.00114963
0.0011502
0.00114919
0.00114999
0.00114906
0.00114995
0.00114884
0.00114989
0.00114848
0.00114961
0.0011481
0.00114912
0.00114777
0.00118701
0.0011826
0.00116958
0.00116789
0.00117101
0.0011736
0.00117528
0.00117614
0.00117586
0.00117439
0.00117204
0.00116925
0.00116643
0.00116393
0.00116186
0.00116064
0.00115919
0.00115938
0.00115736
0.00115893
0.00115573
0.0011584
0.00115474
0.00115773
0.00115442
0.00115732
0.00115418
0.00115707
0.00115389
0.00115669
0.00115338
0.00115625
0.00115271
0.00115574
0.00115199
0.00119429
0.00118969
0.0011769
0.00117526
0.00117812
0.00118005
0.00118072
0.00118082
0.00118061
0.00118019
0.00117954
0.00117861
0.00117733
0.00117594
0.00117424
0.00117337
0.00117155
0.00117194
0.00116959
0.00117087
0.00116816
0.00116935
0.00116692
0.00116801
0.00116547
0.00116718
0.00116431
0.00116637
0.00116352
0.00116575
0.00116279
0.00116522
0.0011622
0.00116467
0.00116171
0.00120074
0.00119595
0.00118345
0.0011814
0.00118438
0.00118615
0.00118669
0.00118688
0.00118672
0.00118636
0.00118583
0.0011851
0.00118397
0.00118255
0.00118092
0.00117965
0.0011784
0.00117779
0.00117679
0.00117639
0.00117519
0.00117473
0.00117338
0.00117299
0.00117174
0.00117153
0.00117042
0.00117041
0.00116933
0.00116955
0.00116837
0.00116867
0.00116754
0.00116768
0.00116674
0.00120732
0.00120223
0.00118987
0.00118745
0.00119042
0.00119239
0.00119331
0.00119391
0.00119378
0.00119289
0.00119143
0.00118968
0.00118765
0.00118565
0.00118355
0.00118217
0.00118063
0.00118018
0.00117892
0.00117866
0.00117738
0.00117687
0.00117555
0.00117523
0.00117376
0.00117383
0.00117251
0.00117258
0.00117146
0.00117154
0.00117038
0.00117042
0.00116926
0.00116911
0.00116809
0.00121392
0.0012087
0.00119603
0.0011938
0.0011963
0.00119827
0.00119917
0.00119952
0.00119924
0.00119824
0.00119663
0.00119472
0.00119252
0.00119056
0.0011883
0.00118714
0.00118499
0.00118504
0.00118269
0.00118344
0.00118088
0.00118161
0.00117916
0.00117982
0.00117745
0.00117834
0.00117598
0.00117704
0.00117471
0.00117576
0.00117351
0.00117443
0.00117219
0.001173
0.00117074
0.00121964
0.00121415
0.001202
0.00120015
0.00120232
0.00120391
0.0012043
0.0012041
0.00120373
0.0012033
0.00120273
0.00120199
0.0012009
0.00119968
0.00119803
0.00119681
0.00119496
0.00119427
0.00119236
0.0011922
0.00119011
0.00119019
0.00118791
0.00118812
0.00118572
0.00118613
0.00118371
0.00118425
0.00118193
0.00118256
0.00118029
0.00118098
0.0011788
0.00117936
0.00117734
0.00122385
0.0012181
0.0012062
0.00120415
0.00120628
0.00120774
0.00120799
0.00120778
0.00120744
0.0012071
0.0012067
0.00120616
0.00120537
0.00120419
0.00120276
0.00120119
0.00119979
0.00119845
0.00119732
0.00119613
0.00119503
0.00119375
0.00119256
0.0011913
0.00119002
0.00118901
0.00118771
0.00118697
0.00118568
0.00118509
0.00118392
0.00118326
0.00118225
0.00118146
0.00118056
0.00122812
0.00122193
0.00121053
0.001208
0.00121019
0.0012116
0.00121181
0.00121178
0.0012114
0.00121077
0.00120981
0.00120871
0.00120751
0.00120594
0.00120423
0.00120239
0.00120097
0.00119952
0.00119856
0.00119726
0.00119627
0.00119484
0.00119364
0.00119223
0.00119096
0.00118974
0.00118857
0.00118755
0.00118651
0.0011856
0.00118464
0.00118374
0.00118287
0.00118178
0.00118108
0.00123241
0.00122605
0.00121452
0.00121208
0.00121388
0.00121524
0.0012155
0.00121538
0.00121487
0.00121394
0.00121257
0.00121093
0.0012092
0.00120724
0.00120531
0.00120332
0.0012018
0.00120028
0.00119919
0.00119795
0.00119678
0.00119561
0.00119414
0.00119305
0.00119155
0.00119053
0.0011892
0.00118833
0.00118708
0.00118632
0.00118516
0.00118436
0.00118329
0.00118237
0.00118136
0.00123671
0.00123017
0.00121857
0.00121622
0.00121764
0.00121885
0.00121911
0.00121886
0.00121826
0.00121722
0.00121571
0.00121387
0.00121187
0.00120977
0.00120771
0.00120581
0.00120404
0.00120268
0.00120111
0.0012002
0.00119848
0.00119783
0.00119588
0.00119535
0.00119343
0.0011929
0.00119118
0.00119067
0.00118905
0.00118859
0.00118701
0.00118653
0.00118501
0.0011844
0.00118298
0.00124006
0.00123318
0.00122257
0.00122068
0.00122181
0.00122263
0.00122256
0.00122199
0.00122127
0.00122047
0.00121952
0.00121834
0.00121693
0.00121531
0.0012135
0.00121181
0.00120987
0.00120855
0.00120661
0.00120565
0.0012038
0.00120284
0.00120112
0.00120013
0.00119836
0.00119754
0.00119573
0.00119501
0.00119329
0.00119259
0.00119098
0.00119028
0.00118877
0.00118805
0.00118664
0.00124156