/*--------------------------------*- C++ -*----------------------------------*\
  =========                 |
  \\      /  F ield         | OpenFOAM: The Open Source CFD Toolbox
   \\    /   O peration     | Website:  https://openfoam.org
    \\  /    A nd           | Version:  6
     \\/     M anipulation  |
\*---------------------------------------------------------------------------*/
FoamFile
{
    version     2.0;
    format      ascii;
    class       surfaceScalarField;
    location    "1.8";
    object      phi;
}
// * * * * * * * * * * * * * * * * * * * * * * * * * * * * * * * * * * * * * //

dimensions      [0 3 -1 0 0 0 0];

internalField   nonuniform List<scalar> 
184155
(
1.04463e-06
-2.2294e-09
-3.10301e-07
5.44935e-09
1.08451e-06
-9.07906e-09
-4.38451e-08
1.30473e-08
1.07627e-06
-1.10591e-08
4.29835e-09
1.4996e-08
1.06835e-06
-1.18941e-08
4.15826e-09
1.5655e-08
1.06303e-06
-1.27216e-08
1.59075e-09
1.64552e-08
1.05817e-06
-1.41421e-08
1.03255e-09
1.79683e-08
1.05311e-06
-1.61391e-08
1.18566e-09
2.00167e-08
1.04801e-06
-1.80657e-08
1.35995e-09
2.18038e-08
1.04325e-06
-1.92366e-08
1.37768e-09
2.26121e-08
1.03912e-06
-1.93812e-08
1.25363e-09
2.22617e-08
1.0357e-06
-1.87073e-08
1.03452e-09
2.10927e-08
1.03295e-06
-1.76896e-08
7.55217e-10
1.96801e-08
1.03076e-06
-1.67919e-08
4.71711e-10
1.85158e-08
1.02893e-06
-1.63173e-08
2.47639e-10
1.78943e-08
1.02732e-06
-1.63645e-08
1.13277e-10
1.78617e-08
1.02579e-06
-1.6905e-08
5.99515e-11
1.83769e-08
1.02433e-06
-1.78383e-08
1.33183e-11
1.92876e-08
1.02287e-06
-1.90728e-08
7.85667e-12
2.0527e-08
1.02152e-06
-2.05258e-08
-9.81112e-11
2.19704e-08
1.02016e-06
-2.21481e-08
-8.79093e-11
2.35946e-08
1.01896e-06
-2.3888e-08
-2.28839e-10
2.53242e-08
1.01774e-06
-2.57257e-08
-2.00023e-10
2.71406e-08
1.01664e-06
-2.76104e-08
-2.81356e-10
2.8989e-08
1.0156e-06
-2.95414e-08
-2.82972e-10
3.08627e-08
1.01468e-06
-3.14671e-08
-3.19591e-10
3.27101e-08
1.01387e-06
-3.33984e-08
-3.28374e-10
3.45386e-08
1.01325e-06
-3.52814e-08
-3.94951e-10
3.63006e-08
1.01278e-06
-3.71386e-08
-4.10293e-10
3.80115e-08
1.01258e-06
-3.89064e-08
-4.99201e-10
3.96117e-08
1.01258e-06
-4.06265e-08
-5.22478e-10
4.11468e-08
1.01298e-06
-4.22207e-08
-6.66569e-10
4.24882e-08
1.01353e-06
-4.37529e-08
-6.23324e-10
4.38233e-08
1.0149e-06
-4.51974e-08
-8.55987e-10
4.46839e-08
1.01619e-06
-4.64135e-08
-7.66605e-10
4.58897e-08
-4.82467e-08
1.65787e-10
1.01842e-06
4.58535e-08
1.05388e-06
4.81095e-10
-3.15997e-07
1.09543e-06
-5.52398e-09
-4.51119e-08
1.08759e-06
-7.57054e-09
4.35147e-09
1.07992e-06
-8.6337e-09
4.41753e-09
1.07528e-06
-9.71483e-09
1.63051e-09
1.07176e-06
-1.1383e-08
7.65367e-10
1.06865e-06
-1.36004e-08
5.71278e-10
1.06578e-06
-1.57244e-08
5.19032e-10
1.0631e-06
-1.70815e-08
5.28518e-10
1.06056e-06
-1.74032e-08
5.67597e-10
1.05814e-06
-1.68911e-08
5.94655e-10
1.0559e-06
-1.60049e-08
5.64138e-10
1.05384e-06
-1.52052e-08
4.64105e-10
1.05198e-06
-1.47812e-08
3.31953e-10
1.05025e-06
-1.48511e-08
2.1185e-10
1.04857e-06
-1.53772e-08
1.55123e-10
1.04693e-06
-1.62997e-08
1.01315e-10
1.04524e-06
-1.75132e-08
1.26183e-10
1.04364e-06
-1.89704e-08
4.67109e-11
1.04201e-06
-2.06075e-08
8.59545e-11
1.04054e-06
-2.23856e-08
-2.75701e-11
1.03912e-06
-2.42753e-08
-2.70412e-11
1.03783e-06
-2.62307e-08
-9.49149e-11
1.03667e-06
-2.82368e-08
-1.44885e-10
1.03564e-06
-3.02549e-08
-1.8231e-10
1.03474e-06
-3.22774e-08
-2.18159e-10
1.034e-06
-3.42705e-08
-2.71642e-10
1.03339e-06
-3.62346e-08
-2.92721e-10
1.03298e-06
-3.81358e-08
-3.59345e-10
1.0327e-06
-3.99714e-08
-3.76467e-10
1.03268e-06
-4.17276e-08
-4.7324e-10
1.03273e-06
-4.33359e-08
-4.65456e-10
1.0331e-06
-4.49824e-08
-5.9077e-10
1.0334e-06
-4.61401e-08
-5.74723e-10
-4.82349e-08
-7.6554e-10
1.03416e-06
1.06084e-06
2.90753e-09
-3.15658e-07
1.10402e-06
-2.60943e-09
-4.60919e-08
1.09686e-06
-4.61839e-09
4.20508e-09
1.08933e-06
-5.80244e-09
4.70553e-09
1.08474e-06
-7.02766e-09
1.90255e-09
1.08119e-06
-8.82166e-09
9.87663e-10
1.07794e-06
-1.11406e-08
7.90721e-10
1.07482e-06
-1.33639e-08
7.53328e-10
1.07187e-06
-1.48479e-08
7.17432e-10
1.06912e-06
-1.53333e-08
6.78724e-10
1.06659e-06
-1.50062e-08
6.47366e-10
1.06429e-06
-1.42978e-08
5.95277e-10
1.06223e-06
-1.36402e-08
4.94387e-10
1.06039e-06
-1.33147e-08
3.70852e-10
1.0587e-06
-1.34325e-08
2.69726e-10
1.05708e-06
-1.39823e-08
2.28109e-10
1.05546e-06
-1.48966e-08
2.18123e-10
1.05384e-06
-1.61049e-08
2.05809e-10
1.05224e-06
-1.75433e-08
1.7971e-10
1.05069e-06
-1.91719e-08
1.16142e-10
1.04919e-06
-2.09492e-08
6.32825e-11
1.04776e-06
-2.2845e-08
-2.35421e-12
1.04641e-06
-2.48282e-08
-5.14054e-11
1.04512e-06
-2.68678e-08
-8.0324e-11
1.04393e-06
-2.89416e-08
-1.27349e-10
1.04282e-06
-3.10269e-08
-1.36399e-10
1.04183e-06
-3.31057e-08
-1.7588e-10
1.04097e-06
-3.51634e-08
-2.06725e-10
1.04026e-06
-3.7187e-08
-2.41598e-10
1.03974e-06
-3.91544e-08
-3.01563e-10
1.03943e-06
-4.10715e-08
-3.41651e-10
1.03939e-06
-4.286e-08
-4.42397e-10
1.03945e-06
-4.46157e-08
-4.25612e-10
1.03997e-06
-4.60502e-08
-6.10656e-10
-4.75678e-08
-9.18554e-10
1.04023e-06
1.06848e-06
4.92774e-09
-3.19833e-07
1.11318e-06
-1.44498e-10
-4.71652e-08
1.10653e-06
-2.12968e-09
4.16156e-09
1.09926e-06
-3.37498e-09
4.84184e-09
1.09488e-06
-4.5669e-09
1.91875e-09
1.0912e-06
-6.20286e-09
1.05898e-09
1.08734e-06
-8.33423e-09
1.05727e-09
1.08322e-06
-1.04785e-08
1.23413e-09
1.07914e-06
-1.20742e-08
1.29948e-09
1.07544e-06
-1.28424e-08
1.21146e-09
1.07227e-06
-1.2877e-08
1.04184e-09
1.06964e-06
-1.25125e-08
8.43788e-10
1.06748e-06
-1.21142e-08
6.39165e-10
1.06566e-06
-1.19539e-08
4.50248e-10
1.06407e-06
-1.21519e-08
3.17521e-10
1.06257e-06
-1.27369e-08
2.53651e-10
1.06109e-06
-1.36506e-08
2.30078e-10
1.05962e-06
-1.48499e-08
2.1623e-10
1.05818e-06
-1.62645e-08
1.65466e-10
1.05675e-06
-1.78671e-08
1.2019e-10
1.05537e-06
-1.96149e-08
4.20232e-11
1.05401e-06
-2.14862e-08
8.72793e-12
1.05267e-06
-2.34493e-08
-3.7693e-11
1.05132e-06
-2.54862e-08
-3.77149e-11
1.05e-06
-2.75675e-08
-4.9393e-11
1.0487e-06
-2.96836e-08
-4.25978e-11
1.04745e-06
-3.18097e-08
-4.71721e-11
1.04628e-06
-3.39387e-08
-5.62476e-11
1.04523e-06
-3.60522e-08
-8.74002e-11
1.04432e-06
-3.81355e-08
-1.10271e-10
1.04362e-06
-4.01919e-08
-1.80791e-10
1.04313e-06
-4.21569e-08
-2.11965e-10
1.04295e-06
-4.41298e-08
-2.99472e-10
1.04311e-06
-4.58408e-08
-3.71819e-10
-4.76892e-08
-2.66053e-10
1.0435e-06
1.07669e-06
6.47088e-09
-3.27566e-07
1.12272e-06
2.07765e-09
-4.82595e-08
1.11601e-06
7.96718e-11
4.50457e-09
1.10846e-06
-1.22127e-09
5.39689e-09
1.10392e-06
-2.33918e-09
2.316e-09
1.10011e-06
-3.77251e-09
1.37719e-09
1.09609e-06
-5.67433e-09
1.35441e-09
1.09185e-06
-7.70971e-09
1.47811e-09
1.08766e-06
-9.4005e-09
1.51183e-09
1.08385e-06
-1.04415e-08
1.4053e-09
1.0806e-06
-1.0829e-08
1.20433e-09
1.07792e-06
-1.07994e-08
9.70237e-10
1.07572e-06
-1.06603e-08
7.45604e-10
1.07389e-06
-1.06675e-08
5.47152e-10
1.07229e-06
-1.09619e-08
4.05167e-10
1.07082e-06
-1.15863e-08
3.2172e-10
1.06942e-06
-1.25193e-08
2.69189e-10
1.06801e-06
-1.37076e-08
2.64984e-10
1.06667e-06
-1.51129e-08
1.87823e-10
1.06528e-06
-1.66873e-08
2.08395e-10
1.06399e-06
-1.84087e-08
9.19426e-11
1.06262e-06
-2.02506e-08
1.27442e-10
1.06131e-06
-2.21863e-08
5.03807e-11
1.05996e-06
-2.42077e-08
7.23812e-11
1.05862e-06
-2.62837e-08
5.5447e-11
1.05729e-06
-2.8415e-08
5.94072e-11
1.05601e-06
-3.05723e-08
4.3612e-11
1.05479e-06
-3.27577e-08
4.19736e-11
1.05369e-06
-3.49468e-08
-4.05964e-12
1.05269e-06
-3.71292e-08
-1.15742e-11
1.05193e-06
-3.93187e-08
-1.1001e-10
1.05128e-06
-4.14215e-08
-8.3566e-11
1.05109e-06
-4.36644e-08
-2.77746e-10
1.05099e-06
-4.55111e-08
-2.32389e-10
-4.82284e-08
-9.44777e-11
1.05162e-06
1.08246e-06
7.61094e-09
-3.29733e-07
1.13029e-06
3.79246e-09
-4.95457e-08
1.12436e-06
1.8502e-09
4.15385e-09
1.11705e-06
5.04686e-10
5.58283e-09
1.11307e-06
-6.75565e-10
2.32222e-09
1.11043e-06
-2.16965e-09
1.03527e-09
1.10813e-06
-4.10431e-09
7.25882e-10
1.1059e-06
-6.1546e-09
6.73793e-10
1.10368e-06
-7.86875e-09
6.93078e-10
1.10147e-06
-8.95811e-09
7.25832e-10
1.09931e-06
-9.41774e-09
7.4979e-10
1.09722e-06
-9.46999e-09
7.57003e-10
1.09523e-06
-9.41091e-09
7.38575e-10
1.09337e-06
-9.47515e-09
6.74077e-10
1.09163e-06
-9.80601e-09
5.83357e-10
1.08996e-06
-1.04328e-08
5.19787e-10
1.08834e-06
-1.1355e-08
4.49834e-10
1.08669e-06
-1.25143e-08
4.62162e-10
1.08508e-06
-1.38874e-08
3.81972e-10
1.08342e-06
-1.54303e-08
3.96625e-10
1.08182e-06
-1.71212e-08
3.1513e-10
1.08023e-06
-1.89374e-08
2.79846e-10
1.07865e-06
-2.0856e-08
2.46112e-10
1.0771e-06
-2.28614e-08
2.03643e-10
1.07558e-06
-2.4936e-08
1.72168e-10
1.07406e-06
-2.70683e-08
1.7201e-10
1.07261e-06
-2.92432e-08
1.27215e-10
1.07118e-06
-3.14512e-08
1.25672e-10
1.06982e-06
-3.36819e-08
8.82976e-11
1.06853e-06
-3.59118e-08
7.52477e-11
1.06736e-06
-3.81664e-08
1.9427e-11
1.06626e-06
-4.03387e-08
1.69093e-11
1.06528e-06
-4.26456e-08
-3.82718e-11
1.06439e-06
-4.45745e-08
-4.45777e-11
-4.73119e-08
-3.46054e-10
1.06382e-06
1.08707e-06
8.54066e-09
-3.29544e-07
1.13638e-06
5.05842e-09
-5.05818e-08
1.13101e-06
3.22743e-09
3.99472e-09
1.12363e-06
1.89717e-09
5.9901e-09
1.11955e-06
6.89392e-10
2.71554e-09
1.11689e-06
-8.38076e-10
1.32388e-09
1.11467e-06
-2.78586e-09
8.99109e-10
1.11255e-06
-4.82665e-09
7.99064e-10
1.11044e-06
-6.52857e-09
7.63085e-10
1.10837e-06
-7.62566e-09
7.37279e-10
1.10636e-06
-8.12325e-09
7.16804e-10
1.10441e-06
-8.23691e-09
7.21386e-10
1.10248e-06
-8.24164e-09
7.5921e-10
1.10061e-06
-8.35826e-09
7.50651e-10
1.09885e-06
-8.71278e-09
6.71916e-10
1.09716e-06
-9.34346e-09
5.97878e-10
1.0955e-06
-1.02418e-08
5.51441e-10
1.09381e-06
-1.13708e-08
5.45094e-10
1.0921e-06
-1.26997e-08
5.2084e-10
1.09038e-06
-1.41962e-08
4.89472e-10
1.08866e-06
-1.58375e-08
4.31224e-10
1.08695e-06
-1.76037e-08
3.78833e-10
1.08524e-06
-1.94762e-08
3.26264e-10
1.08353e-06
-2.14403e-08
2.92617e-10
1.0818e-06
-2.34824e-08
2.70436e-10
1.08007e-06
-2.55894e-08
2.53704e-10
1.07833e-06
-2.77522e-08
2.49115e-10
1.0766e-06
-2.99567e-08
2.32571e-10
1.0749e-06
-3.22001e-08
2.25189e-10
1.07325e-06
-3.44569e-08
1.96819e-10
1.07164e-06
-3.67456e-08
1.81975e-10
1.07018e-06
-3.89922e-08
1.14779e-10
1.06869e-06
-4.12948e-08
1.40266e-10
1.06751e-06
-4.34036e-08
1.17311e-11
-4.57713e-08
-4.04827e-10
1.06637e-06
1.09228e-06
9.17685e-09
-3.32302e-07
1.14297e-06
5.98482e-09
-5.16199e-08
1.13807e-06
4.24647e-09
3.88594e-09
1.13074e-06
2.94701e-09
6.27401e-09
1.12674e-06
1.80044e-09
2.89016e-09
1.12403e-06
4.14252e-10
1.45632e-09
1.12148e-06
-1.34953e-09
1.11732e-09
1.11874e-06
-3.24076e-09
1.1493e-09
1.11593e-06
-4.89116e-09
1.17887e-09
1.11323e-06
-6.04828e-09
1.11808e-09
1.1108e-06
-6.68623e-09
9.93532e-10
1.10864e-06
-6.96521e-09
8.84976e-10
1.10666e-06
-7.11092e-09
8.52851e-10
1.10481e-06
-7.32183e-09
8.15589e-10
1.10309e-06
-7.71892e-09
7.19962e-10
1.10147e-06
-8.35725e-09
6.41077e-10
1.09987e-06
-9.23266e-09
5.84688e-10
1.09824e-06
-1.0328e-08
5.87295e-10
1.09659e-06
-1.16055e-08
5.58535e-10
1.09491e-06
-1.30432e-08
5.31532e-10
1.0932e-06
-1.46147e-08
4.80653e-10
1.09148e-06
-1.63058e-08
4.2189e-10
1.08972e-06
-1.81014e-08
3.8508e-10
1.08791e-06
-1.99927e-08
3.63711e-10
1.08605e-06
-2.1966e-08
3.42863e-10
1.08412e-06
-2.4016e-08
3.58878e-10
1.08214e-06
-2.61304e-08
3.60965e-10
1.08012e-06
-2.83022e-08
3.6295e-10
1.07807e-06
-3.05241e-08
3.72547e-10
1.07603e-06
-3.27813e-08
3.61307e-10
1.07402e-06
-3.508e-08
3.50393e-10
1.07208e-06
-3.73758e-08
3.18039e-10
1.0702e-06
-3.97219e-08
3.11489e-10
1.06852e-06
-4.19624e-08
2.4221e-10
-4.43726e-08
7.52651e-11
1.06704e-06
1.09803e-06
9.44247e-09
-3.37684e-07
1.14981e-06
6.67777e-09
-5.24741e-08
1.14488e-06
5.01143e-09
4.16517e-09
1.13719e-06
3.74188e-09
6.90042e-09
1.13294e-06
2.68896e-09
3.35278e-09
1.13013e-06
1.47739e-09
1.7556e-09
1.12744e-06
-6.82178e-11
1.40056e-09
1.12461e-06
-1.78038e-09
1.36942e-09
1.12174e-06
-3.36054e-09
1.34765e-09
1.119e-06
-4.56874e-09
1.25888e-09
1.11653e-06
-5.34176e-09
1.12075e-09
1.11435e-06
-5.779e-09
9.93144e-10
1.1124e-06
-6.06605e-09
9.09437e-10
1.11061e-06
-6.3681e-09
8.36809e-10
1.10896e-06
-6.81353e-09
7.42661e-10
1.10737e-06
-7.45316e-09
6.81201e-10
1.10584e-06
-8.30744e-09
6.12688e-10
1.10424e-06
-9.35562e-09
6.26996e-10
1.10263e-06
-1.05741e-08
5.75401e-10
1.10094e-06
-1.19412e-08
5.90838e-10
1.09922e-06
-1.34345e-08
5.36378e-10
1.09744e-06
-1.50445e-08
5.17919e-10
1.0956e-06
-1.67562e-08
4.91369e-10
1.0937e-06
-1.8565e-08
4.7487e-10
1.09173e-06
-2.04582e-08
4.67488e-10
1.08967e-06
-2.2434e-08
4.7473e-10
1.08755e-06
-2.44806e-08
4.71969e-10
1.08536e-06
-2.65965e-08
4.83606e-10
1.08313e-06
-2.87732e-08
4.74838e-10
1.08088e-06
-3.10018e-08
4.77307e-10
1.07864e-06
-3.32925e-08
4.50374e-10
1.07641e-06
-3.55961e-08
4.44901e-10
1.07433e-06
-3.80227e-08
3.82003e-10
1.07229e-06
-4.02994e-08
3.76823e-10
-4.31189e-08
3.53033e-10
1.07069e-06
1.1029e-06
9.39797e-09
-3.41267e-07
1.15663e-06
7.10043e-09
-5.41517e-08
1.15249e-06
5.54412e-09
3.60551e-09
1.14457e-06
4.31675e-09
7.35031e-09
1.14035e-06
3.2786e-09
3.63202e-09
1.1382e-06
2.06938e-09
1.55095e-09
1.13666e-06
5.44722e-10
9.32754e-10
1.13521e-06
-1.12167e-09
7.93379e-10
1.1337e-06
-2.64521e-09
7.87464e-10
1.13212e-06
-3.80291e-09
8.22268e-10
1.13045e-06
-4.54003e-09
8.65695e-10
1.12872e-06
-4.95775e-09
9.11566e-10
1.12694e-06
-5.24224e-09
9.47894e-10
1.12517e-06
-5.5427e-09
9.51218e-10
1.12342e-06
-5.97813e-09
9.10324e-10
1.12169e-06
-6.58757e-09
8.67434e-10
1.11996e-06
-7.39456e-09
8.14973e-10
1.11817e-06
-8.37336e-09
8.05221e-10
1.11634e-06
-9.51241e-09
7.73138e-10
1.11441e-06
-1.07894e-08
7.77411e-10
1.11243e-06
-1.21946e-08
7.43481e-10
1.11036e-06
-1.37152e-08
7.3752e-10
1.10824e-06
-1.53421e-08
7.04305e-10
1.10604e-06
-1.70653e-08
6.96316e-10
1.10379e-06
-1.88758e-08
6.72199e-10
1.10145e-06
-2.07674e-08
6.71806e-10
1.09905e-06
-2.27329e-08
6.58782e-10
1.09656e-06
-2.4768e-08
6.59016e-10
1.094e-06
-2.68696e-08
6.54799e-10
1.09137e-06
-2.90267e-08
6.53175e-10
1.08869e-06
-3.12546e-08
6.44596e-10
1.08595e-06
-3.35008e-08
6.40218e-10
1.08317e-06
-3.58801e-08
6.3745e-10
1.08036e-06
-3.81079e-08
6.22722e-10
-4.09143e-08
3.71747e-10
1.07778e-06
1.10554e-06
9.1254e-09
-3.40969e-07
1.16045e-06
7.1329e-09
-5.49454e-08
1.15683e-06
5.72875e-09
3.43834e-09
1.14882e-06
4.59332e-09
7.73071e-09
1.14451e-06
3.60193e-09
3.98621e-09
1.14241e-06
2.41182e-09
1.76507e-09
1.141e-06
9.13196e-10
1.03832e-09
1.13973e-06
-7.02003e-10
8.4988e-10
1.13843e-06
-2.15212e-09
8.03089e-10
1.13705e-06
-3.23161e-09
8.10397e-10
1.13559e-06
-3.90103e-09
8.18189e-10
1.13406e-06
-4.27043e-09
8.44596e-10
1.13238e-06
-4.52077e-09
9.58039e-10
1.13057e-06
-4.79585e-09
1.06593e-09
1.12872e-06
-5.19789e-09
1.06898e-09
1.1269e-06
-5.76502e-09
9.97372e-10
1.12509e-06
-6.51023e-09
9.3141e-10
1.12323e-06
-7.41593e-09
8.98959e-10
1.1213e-06
-8.46786e-09
8.87929e-10
1.11928e-06
-9.65096e-09
8.73777e-10
1.11719e-06
-1.09554e-08
8.51899e-10
1.11503e-06
-1.23707e-08
8.18397e-10
1.11279e-06
-1.38895e-08
7.92003e-10
1.11045e-06
-1.55011e-08
7.68723e-10
1.10802e-06
-1.72003e-08
7.55729e-10
1.10548e-06
-1.89788e-08
7.5518e-10
1.10282e-06
-2.0834e-08
7.55699e-10
1.10005e-06
-2.27592e-08
7.65011e-10
1.09717e-06
-2.47554e-08
7.70179e-10
1.09418e-06
-2.6812e-08
7.71696e-10
1.09108e-06
-2.89413e-08
7.83405e-10
1.08794e-06
-3.11075e-08
7.53617e-10
1.08465e-06
-3.33768e-08
7.829e-10
1.08141e-06
-3.55792e-08
7.09177e-10
-3.81538e-08
3.57343e-10
1.07829e-06
1.10825e-06
8.73572e-09
-3.40853e-07
1.16446e-06
6.91235e-09
-5.59864e-08
1.16142e-06
5.6639e-09
3.10247e-09
1.15335e-06
4.63746e-09
8.02034e-09
1.14896e-06
3.72636e-09
4.26434e-09
1.14677e-06
2.63544e-09
1.96883e-09
1.14522e-06
1.26091e-09
1.20905e-09
1.14365e-06
-2.25599e-10
1.0887e-09
1.142e-06
-1.56695e-09
1.06669e-09
1.14028e-06
-2.57468e-09
1.06064e-09
1.13862e-06
-3.21452e-09
9.78505e-10
1.13706e-06
-3.58201e-09
8.68123e-10
1.13538e-06
-3.82952e-09
9.91696e-10
1.13349e-06
-4.09483e-09
1.18789e-09
1.13155e-06
-4.46918e-09
1.21077e-09
1.12968e-06
-4.99325e-09
1.09303e-09
1.12786e-06
-5.67368e-09
9.90036e-10
1.126e-06
-6.50353e-09
9.45403e-10
1.12405e-06
-7.46586e-09
9.43373e-10
1.12202e-06
-8.54982e-09
9.31934e-10
1.1199e-06
-9.74216e-09
9.07828e-10
1.11769e-06
-1.10353e-08
8.69945e-10
1.11539e-06
-1.24232e-08
8.34632e-10
1.11298e-06
-1.38985e-08
8.13411e-10
1.11043e-06
-1.54585e-08
8.02486e-10
1.10774e-06
-1.70969e-08
8.10204e-10
1.10489e-06
-1.88119e-08
8.24222e-10
1.10189e-06
-2.05986e-08
8.43381e-10
1.09873e-06
-2.24571e-08
8.66664e-10
1.09542e-06
-2.43809e-08
8.7771e-10
1.09195e-06
-2.63747e-08
9.01722e-10
1.08838e-06
-2.84239e-08
8.88397e-10
1.08463e-06
-3.05476e-08
9.20378e-10
1.08086e-06
-3.26815e-08
8.71194e-10
-3.50305e-08
5.47145e-10
1.07719e-06
1.1117e-06
8.11446e-09
-3.43664e-07
1.16874e-06
6.4989e-09
-5.66211e-08
1.16582e-06
5.38307e-09
3.20144e-09
1.15748e-06
4.45832e-09
8.51833e-09
1.1529e-06
3.65577e-09
4.6435e-09
1.15063e-06
2.71648e-09
2.19716e-09
1.1489e-06
1.53549e-09
1.44779e-09
1.1471e-06
2.44909e-10
1.33015e-09
1.14517e-06
-9.43653e-10
1.30806e-09
1.1432e-06
-1.86732e-09
1.26585e-09
1.14132e-06
-2.488e-09
1.15309e-09
1.13958e-06
-2.87609e-09
1.03117e-09
1.13782e-06
-3.14893e-09
1.07551e-09
1.13597e-06
-3.42615e-09
1.18911e-09
1.13409e-06
-3.78552e-09
1.19803e-09
1.13226e-06
-4.27056e-09
1.10323e-09
1.13045e-06
-4.8872e-09
1.01931e-09
1.12861e-06
-5.63566e-09
9.78121e-10
1.12667e-06
-6.50196e-09
9.76931e-10
1.12462e-06
-7.47529e-09
9.72808e-10
1.12247e-06
-8.54506e-09
9.53743e-10
1.1202e-06
-9.70372e-09
9.35594e-10
1.11782e-06
-1.09468e-08
9.02303e-10
1.1153e-06
-1.22708e-08
8.97311e-10
1.11262e-06
-1.36729e-08
8.90921e-10
1.10977e-06
-1.51503e-08
9.02351e-10
1.10674e-06
-1.67009e-08
9.24827e-10
1.10351e-06
-1.83227e-08
9.47202e-10
1.1001e-06
-2.00148e-08
9.72297e-10
1.0965e-06
-2.17752e-08
9.91943e-10
1.09272e-06
-2.36047e-08
1.01478e-09
1.08878e-06
-2.54986e-08
1.01124e-09
1.08466e-06
-2.74614e-08
1.03698e-09
1.08043e-06
-2.94595e-08
1.0091e-09
-3.16295e-08
8.31329e-10
1.07619e-06
1.11536e-06
7.27816e-09
-3.47108e-07
1.17322e-06
5.94812e-09
-5.73046e-08
1.17033e-06
4.94896e-09
3.31695e-09
1.16164e-06
4.11555e-09
9.03645e-09
1.15684e-06
3.44565e-09
5.00826e-09
1.15449e-06
2.69962e-09
2.37052e-09
1.15266e-06
1.75867e-09
1.60256e-09
1.15073e-06
7.0106e-10
1.48069e-09
1.14865e-06
-3.19467e-10
1.45446e-09
1.14655e-06
-1.16572e-09
1.39292e-09
1.14456e-06
-1.78299e-09
1.28288e-09
1.14271e-06
-2.20627e-09
1.18038e-09
1.14093e-06
-2.5207e-09
1.16016e-09
1.13914e-06
-2.81889e-09
1.17651e-09
1.13737e-06
-3.16815e-09
1.15577e-09
1.13562e-06
-3.61036e-09
1.09146e-09
1.13386e-06
-4.16066e-09
1.03174e-09
1.13204e-06
-4.81889e-09
1.00492e-09
1.13012e-06
-5.57932e-09
9.90255e-10
1.12808e-06
-6.42854e-09
9.97413e-10
1.12592e-06
-7.36289e-09
9.78788e-10
1.12361e-06
-8.374e-09
9.83937e-10
1.12115e-06
-9.46e-09
9.64151e-10
1.11853e-06
-1.0619e-08
9.76552e-10
1.11572e-06
-1.18482e-08
9.80392e-10
1.11272e-06
-1.31471e-08
9.98609e-10
1.10951e-06
-1.4514e-08
1.02542e-09
1.10609e-06
-1.59487e-08
1.04646e-09
1.10245e-06
-1.7451e-08
1.07265e-09
1.0986e-06
-1.90208e-08
1.09126e-09
1.09456e-06
-2.06615e-08
1.10646e-09
1.09031e-06
-2.2366e-08
1.11432e-09
1.0859e-06
-2.4162e-08
1.11314e-09
1.0813e-06
-2.59745e-08
1.10768e-09
-2.80703e-08
1.06569e-09
1.07668e-06
1.11831e-06
6.26458e-09
-3.49579e-07
1.17794e-06
5.25064e-09
-5.89301e-08
1.17587e-06
4.4135e-09
2.60446e-09
1.16657e-06
3.69388e-09
9.71619e-09
1.16131e-06
3.09833e-09
5.61418e-09
1.15916e-06
2.43448e-09
2.41082e-09
1.15797e-06
1.60804e-09
1.34241e-09
1.15684e-06
6.89738e-10
1.14405e-09
1.15556e-06
-1.88184e-10
1.14271e-09
1.15414e-06
-9.09909e-10
1.16175e-09
1.15261e-06
-1.43004e-09
1.17689e-09
1.151e-06
-1.78385e-09
1.19696e-09
1.1493e-06
-2.0545e-09
1.23048e-09
1.14754e-06
-2.3132e-09
1.24965e-09
1.14575e-06
-2.61515e-09
1.2392e-09
1.14392e-06
-2.98975e-09
1.20806e-09
1.14205e-06
-3.45636e-09
1.16808e-09
1.14008e-06
-4.01006e-09
1.15766e-09
1.13802e-06
-4.64705e-09
1.13517e-09
1.1358e-06
-5.35902e-09
1.14756e-09
1.13344e-06
-6.14437e-09
1.14097e-09
1.13092e-06
-7.00028e-09
1.14255e-09
1.12824e-06
-7.92561e-09
1.15014e-09
1.12538e-06
-8.91664e-09
1.1517e-09
1.12235e-06
-9.97107e-09
1.1603e-09
1.11911e-06
-1.10859e-08
1.17794e-09
1.11567e-06
-1.22599e-08
1.18861e-09
1.112e-06
-1.34924e-08
1.20814e-09
1.10811e-06
-1.47844e-08
1.22471e-09
1.10399e-06
-1.61355e-08
1.23792e-09
1.09962e-06
-1.75516e-08
1.25287e-09
1.09502e-06
-1.90232e-08
1.25825e-09
1.09018e-06
-2.0584e-08
1.26917e-09
1.08508e-06
-2.21477e-08
1.26622e-09
-2.39936e-08
1.16929e-09
1.07984e-06
1.11915e-06
5.12487e-09
-3.49396e-07
1.17934e-06
4.33658e-09
-5.92778e-08
1.1776e-06
3.67361e-09
2.4849e-09
1.16831e-06
3.09681e-09
9.88213e-09
1.16304e-06
2.60271e-09
5.7688e-09
1.16096e-06
2.03218e-09
2.4764e-09
1.15991e-06
1.31806e-09
1.34356e-09
1.15895e-06
5.33202e-10
1.12194e-09
1.15785e-06
-2.02409e-10
1.10845e-09
1.1566e-06
-7.91272e-10
1.12805e-09
1.15525e-06
-1.19907e-09
1.12351e-09
1.15382e-06
-1.46393e-09
1.10998e-09
1.15222e-06
-1.66455e-09
1.20813e-09
1.15041e-06
-1.86144e-09
1.36475e-09
1.14846e-06
-2.09679e-09
1.42895e-09
1.14649e-06
-2.39372e-09
1.36793e-09
1.14453e-06
-2.7666e-09
1.27747e-09
1.14251e-06
-3.21078e-09
1.21948e-09
1.14039e-06
-3.72174e-09
1.19701e-09
1.13812e-06
-4.2942e-09
1.19681e-09
1.13572e-06
-4.92773e-09
1.18978e-09
1.13315e-06
-5.62117e-09
1.18671e-09
1.13042e-06
-6.37353e-09
1.18027e-09
1.1275e-06
-7.18143e-09
1.18344e-09
1.12438e-06
-8.04255e-09
1.19262e-09
1.12104e-06
-8.95398e-09
1.20892e-09
1.11746e-06
-9.91501e-09
1.23257e-09
1.11364e-06
-1.09249e-08
1.25569e-09
1.10956e-06
-1.19853e-08
1.27929e-09
1.10522e-06
-1.30959e-08
1.29948e-09
1.10061e-06
-1.42622e-08
1.31805e-09
1.09574e-06
-1.54778e-08
1.3243e-09
1.09059e-06
-1.67657e-08
1.33763e-09
1.08519e-06
-1.80682e-08
1.32273e-09
-1.95748e-08
1.22156e-09
1.07955e-06
1.12002e-06
3.93433e-09
-3.4932e-07
1.18077e-06
3.31333e-09
-5.97262e-08
1.1793e-06
2.81698e-09
2.32619e-09
1.16997e-06
2.38452e-09
1.00456e-08
1.16464e-06
2.00305e-09
5.92907e-09
1.16254e-06
1.55055e-09
2.57887e-09
1.16147e-06
9.79693e-10
1.40914e-09
1.16045e-06
3.547e-10
1.20028e-09
1.15929e-06
-2.23238e-10
1.18287e-09
1.15797e-06
-6.75521e-10
1.20643e-09
1.15659e-06
-9.79442e-10
1.16155e-09
1.15526e-06
-1.16758e-09
1.02876e-09
1.15375e-06
-1.29964e-09
1.14183e-09
1.15187e-06
-1.42925e-09
1.45268e-09
1.14976e-06
-1.59337e-09
1.60355e-09
1.14767e-06
-1.80982e-09
1.50753e-09
1.14564e-06
-2.08594e-09
1.34959e-09
1.14359e-06
-2.41871e-09
1.2544e-09
1.14145e-06
-2.80488e-09
1.22645e-09
1.13917e-06
-3.24009e-09
1.22815e-09
1.13674e-06
-3.72234e-09
1.22134e-09
1.13416e-06
-4.24925e-09
1.21015e-09
1.13141e-06
-4.81957e-09
1.19869e-09
1.12846e-06
-5.43132e-09
1.19565e-09
1.1253e-06
-6.08347e-09
1.20366e-09
1.12189e-06
-6.77492e-09
1.22405e-09
1.11823e-06
-7.50564e-09
1.25133e-09
1.1143e-06
-8.27544e-09
1.28198e-09
1.11009e-06
-9.08557e-09
1.31324e-09
1.10559e-06
-9.93609e-09
1.33965e-09
1.10079e-06
-1.08303e-08
1.36458e-09
1.0957e-06
-1.17653e-08
1.37733e-09
1.0903e-06
-1.27538e-08
1.39269e-09
1.08461e-06
-1.37638e-08
1.38626e-09
-1.49151e-08
1.31375e-09
1.07863e-06
1.12105e-06
2.67869e-09
-3.49761e-07
1.18223e-06
2.20251e-09
-6.00655e-08
1.18091e-06
1.87344e-09
2.26706e-09
1.17146e-06
1.59183e-09
1.02437e-08
1.16602e-06
1.33206e-09
6.1036e-09
1.16387e-06
1.01202e-09
2.68801e-09
1.16276e-06
6.03345e-10
1.49414e-09
1.16166e-06
1.56934e-10
1.28899e-09
1.16042e-06
-2.49593e-10
1.26973e-09
1.15902e-06
-5.58363e-10
1.2875e-09
1.15757e-06
-7.58659e-10
1.22442e-09
1.15623e-06
-8.74809e-10
1.05109e-09
1.15472e-06
-9.43221e-10
1.15157e-09
1.15281e-06
-1.00892e-09
1.48822e-09
1.15067e-06
-1.10471e-09
1.65567e-09
1.14855e-06
-1.2415e-09
1.55038e-09
1.14651e-06
-1.42049e-09
1.37569e-09
1.14446e-06
-1.63947e-09
1.27122e-09
1.14231e-06
-1.89794e-09
1.24307e-09
1.14001e-06
-2.19204e-09
1.24751e-09
1.13756e-06
-2.51818e-09
1.2438e-09
1.13495e-06
-2.87281e-09
1.23477e-09
1.13216e-06
-3.25461e-09
1.22412e-09
1.12917e-06
-3.66292e-09
1.22172e-09
1.12596e-06
-4.09828e-09
1.23044e-09
1.12249e-06
-4.561e-09
1.25131e-09
1.11876e-06
-5.05153e-09
1.27994e-09
1.11474e-06
-5.56993e-09
1.31242e-09
1.11043e-06
-6.11687e-09
1.34514e-09
1.10581e-06
-6.69242e-09
1.37457e-09
1.10087e-06
-7.2982e-09
1.4004e-09
1.09563e-06
-7.93313e-09
1.41686e-09
1.09004e-06
-8.60368e-09
1.43035e-09
1.08414e-06
-9.29251e-09
1.4288e-09
-1.00726e-08
1.38566e-09
1.07792e-06
1.12231e-06
1.3518e-09
-3.50948e-07
1.18378e-06
1.0432e-09
-6.03132e-08
1.18248e-06
8.79265e-10
2.2966e-09
1.17286e-06
7.43765e-10
1.04689e-08
1.16731e-06
6.11588e-10
6.27172e-09
1.16512e-06
4.40564e-10
2.76554e-09
1.16392e-06
2.18559e-10
1.57751e-09
1.16273e-06
-2.45238e-11
1.37504e-09
1.16136e-06
-2.43911e-10
1.36846e-09
1.15984e-06
-4.06534e-10
1.36227e-09
1.15829e-06
-5.07233e-10
1.30138e-09
1.15676e-06
-5.59149e-10
1.21311e-09
1.15513e-06
-5.81066e-10
1.26969e-09
1.15328e-06
-5.99606e-10
1.44238e-09
1.15128e-06
-6.35529e-10
1.52213e-09
1.14928e-06
-6.9479e-10
1.45746e-09
1.14729e-06
-7.76887e-10
1.34455e-09
1.14526e-06
-8.80708e-10
1.27444e-09
1.14312e-06
-1.0063e-09
1.25258e-09
1.14082e-06
-1.15142e-09
1.25194e-09
1.13836e-06
-1.31321e-09
1.25458e-09
1.13573e-06
-1.48897e-09
1.25144e-09
1.1329e-06
-1.6777e-09
1.25044e-09
1.12986e-06
-1.87932e-09
1.2558e-09
1.12659e-06
-2.09454e-09
1.27025e-09
1.12306e-06
-2.32396e-09
1.29303e-09
1.11925e-06
-2.56804e-09
1.32206e-09
1.11515e-06
-2.82692e-09
1.35381e-09
1.11075e-06
-3.10089e-09
1.38505e-09
1.10604e-06
-3.38994e-09
1.41309e-09
1.101e-06
-3.69469e-09
1.43632e-09
1.09563e-06
-4.01477e-09
1.4533e-09
1.08991e-06
-4.35292e-09
1.46389e-09
1.08386e-06
-4.70135e-09
1.46386e-09
-5.09543e-09
1.44193e-09
1.07744e-06
1.1236e-06
-3.52209e-07
1.18533e-06
-6.05823e-08
1.18397e-06
2.34837e-09
1.17411e-06
1.07146e-08
1.16838e-06
6.4533e-09
1.16609e-06
2.86017e-09
1.16479e-06
1.66125e-09
1.16348e-06
1.46056e-09
1.16198e-06
1.45255e-09
1.16036e-06
1.43223e-09
1.15869e-06
1.37965e-09
1.15702e-06
1.33102e-09
1.15531e-06
1.34068e-09
1.15352e-06
1.38593e-09
1.15167e-06
1.3935e-09
1.14978e-06
1.35358e-09
1.14786e-06
1.29708e-09
1.14586e-06
1.26207e-09
1.14373e-06
1.25001e-09
1.14144e-06
1.25002e-09
1.13898e-06
1.257e-09
1.13633e-06
1.26297e-09
1.13347e-06
1.27305e-09
1.13039e-06
1.28781e-09
1.12706e-06
1.30854e-09
1.12348e-06
1.33399e-09
1.11962e-06
1.36259e-09
1.11547e-06
1.39212e-09
1.11101e-06
1.41984e-09
1.10623e-06
1.4444e-09
1.10113e-06
1.46365e-09
1.09569e-06
1.47826e-09
1.0899e-06
1.48528e-09
1.08376e-06
1.48446e-09
1.47149e-09
1.07724e-06
2.1259e-06
5.5272e-12
-3.92373e-07
6.22214e-09
2.14659e-06
-1.12868e-08
-7.17645e-08
1.85183e-08
2.1414e-06
-1.66112e-08
2.05211e-09
2.40453e-08
2.13187e-06
-1.92484e-08
6.42227e-09
2.65227e-08
2.12345e-06
-2.122e-08
2.76825e-09
2.84623e-08
2.11582e-06
-2.39481e-08
1.21949e-09
3.13878e-08
2.10825e-06
-2.78292e-08
1.09555e-09
3.54906e-08
2.10064e-06
-3.19932e-08
1.35674e-09
3.96014e-08
2.09333e-06
-3.51048e-08
1.56701e-09
4.22276e-08
2.08668e-06
-3.63071e-08
1.6218e-09
4.25925e-08
2.08087e-06
-3.56323e-08
1.52064e-09
4.09537e-08
2.0759e-06
-3.38064e-08
1.26124e-09
3.82662e-08
2.07165e-06
-3.17572e-08
9.03308e-10
3.55772e-08
2.06791e-06
-3.02241e-08
5.62056e-10
3.36504e-08
2.06449e-06
-2.95743e-08
3.31334e-10
3.27802e-08
2.0612e-06
-2.98669e-08
2.35459e-10
3.29803e-08
2.05799e-06
-3.09656e-08
1.61692e-10
3.40232e-08
2.05479e-06
-3.26919e-08
1.66409e-10
3.57382e-08
2.05167e-06
-3.48795e-08
-3.48919e-12
3.79037e-08
2.04856e-06
-3.74084e-08
8.04166e-12
4.04227e-08
2.04555e-06
-4.01875e-08
-2.12259e-10
4.31791e-08
2.04259e-06
-4.31517e-08
-1.99807e-10
4.61077e-08
2.03971e-06
-4.62389e-08
-2.90429e-10
4.9135e-08
2.03691e-06
-4.94055e-08
-3.00481e-10
5.22163e-08
2.03422e-06
-5.26037e-08
-3.11639e-10
5.5292e-08
2.03164e-06
-5.58021e-08
-2.82941e-10
5.83352e-08
2.02922e-06
-5.89592e-08
-3.16441e-10
6.13002e-08
2.02698e-06
-6.20548e-08
-2.92549e-10
6.41731e-08
2.02496e-06
-6.50449e-08
-3.30276e-10
6.6898e-08
2.02318e-06
-6.79239e-08
-3.15362e-10
6.94967e-08
2.02172e-06
-7.0644e-08
-3.97669e-10
7.18386e-08
2.02052e-06
-7.32047e-08
-3.22522e-10
7.41008e-08
2.01993e-06
-7.56548e-08
-4.08805e-10
7.57973e-08
2.01948e-06
-7.77118e-08
-3.23047e-10
7.77239e-08
-8.03846e-08
1.87101e-09
2.01974e-06
7.84141e-08
2.13598e-06
5.26214e-09
-3.97461e-07
2.15767e-06
-4.93026e-09
-7.31616e-08
2.15339e-06
-1.00792e-08
2.10073e-09
2.14471e-06
-1.29271e-08
6.77187e-09
2.13735e-06
-1.52526e-08
3.02161e-09
2.13126e-06
-1.83696e-08
1.27964e-09
2.12583e-06
-2.26096e-08
7.84202e-10
2.12078e-06
-2.70961e-08
6.68124e-10
2.11603e-06
-3.05198e-08
6.99027e-10
2.11154e-06
-3.2042e-08
7.90204e-10
2.10731e-06
-3.16917e-08
8.81016e-10
2.10334e-06
-3.01662e-08
8.93009e-10
2.09964e-06
-2.83709e-08
7.82899e-10
2.09617e-06
-2.7012e-08
5.91757e-10
2.09288e-06
-2.64694e-08
3.91492e-10
2.08967e-06
-2.67926e-08
2.88663e-10
2.08652e-06
-2.78982e-08
1.92331e-10
2.08331e-06
-2.96056e-08
2.45732e-10
2.08013e-06
-3.17951e-08
1.36521e-10
2.07694e-06
-3.43445e-08
2.16908e-10
2.07381e-06
-3.71743e-08
8.69193e-11
2.07076e-06
-4.02203e-08
9.18225e-11
2.06779e-06
-4.3415e-08
5.25302e-11
2.06494e-06
-4.67096e-08
6.85543e-12
2.06221e-06
-5.00539e-08
2.00236e-12
2.05959e-06
-5.34102e-08
7.56108e-12
2.05711e-06
-5.67411e-08
-7.90282e-12
2.05476e-06
-6.00196e-08
2.18548e-11
2.05256e-06
-6.32171e-08
1.23617e-11
2.0505e-06
-6.63008e-08
5.88105e-11
2.04862e-06
-6.9274e-08
3.80121e-11
2.04684e-06
-7.20187e-08
1.32196e-10
2.04525e-06
-7.47787e-08
1.24429e-10
2.04363e-06
-7.69106e-08
2.43272e-10
-7.99663e-08
3.43041e-10
2.0421e-06
2.14373e-06
9.80962e-09
-3.97009e-07
2.1664e-06
3.05513e-10
-7.40004e-08
2.16308e-06
-4.61336e-09
2.05907e-09
2.15523e-06
-7.53671e-09
7.16743e-09
2.14853e-06
-1.00487e-08
3.39906e-09
2.14293e-06
-1.33537e-08
1.57357e-09
2.13783e-06
-1.7743e-08
1.02234e-09
2.13296e-06
-2.23685e-08
8.89333e-10
2.1283e-06
-2.5982e-08
8.40248e-10
2.12391e-06
-2.77791e-08
8.05098e-10
2.11983e-06
-2.77722e-08
8.09018e-10
2.11606e-06
-2.66063e-08
8.06468e-10
2.11259e-06
-2.51253e-08
7.16734e-10
2.1094e-06
-2.40027e-08
5.59364e-10
2.10639e-06
-2.36004e-08
4.07567e-10
2.10348e-06
-2.40001e-08
3.45735e-10
2.10058e-06
-2.51195e-08
3.42397e-10
2.09766e-06