/*--------------------------------*- C++ -*----------------------------------*\
  =========                 |
  \\      /  F ield         | OpenFOAM: The Open Source CFD Toolbox
   \\    /   O peration     | Website:  https://openfoam.org
    \\  /    A nd           | Version:  6
     \\/     M anipulation  |
\*---------------------------------------------------------------------------*/
FoamFile
{
    version     2.0;
    format      ascii;
    class       volVectorField;
    location    "1.8";
    object      U;
}
// * * * * * * * * * * * * * * * * * * * * * * * * * * * * * * * * * * * * * //

dimensions      [0 1 -1 0 0 0 0];

internalField   nonuniform List<vector> 
63264
(
(0.10254 -0.000183151 -0.000419479)
(0.111306 -0.000461334 -4.7577e-05)
(0.111135 -0.000549376 7.87372e-06)
(0.110369 -0.000594733 2.53356e-06)
(0.110024 -0.000643275 -3.38386e-07)
(0.109802 -0.000720759 -3.36008e-07)
(0.109554 -0.000828831 8.98689e-08)
(0.109277 -0.000939822 4.68675e-07)
(0.109005 -0.00102078 7.20756e-07)
(0.108774 -0.00105537 8.3073e-07)
(0.108601 -0.00104984 8.09565e-07)
(0.108491 -0.00102576 6.70422e-07)
(0.10844 -0.00100673 4.70746e-07)
(0.108436 -0.00101096 2.87391e-07)
(0.10846 -0.00104606 1.7446e-07)
(0.108505 -0.00111414 1.35301e-07)
(0.10855 -0.00121064 1.03472e-07)
(0.108616 -0.00133342 1.20723e-07)
(0.108667 -0.0014774 8.03184e-09)
(0.108763 -0.00164209 4.9614e-08)
(0.108818 -0.00182427 -1.29384e-07)
(0.108952 -0.00202433 -6.30172e-08)
(0.109015 -0.00223915 -1.45524e-07)
(0.109178 -0.00247017 -1.31604e-07)
(0.109264 -0.00271337 -1.06525e-07)
(0.109456 -0.00297106 -7.74881e-08)
(0.109577 -0.00323817 -7.96383e-08)
(0.109813 -0.00351779 -1.91573e-08)
(0.109977 -0.00380269 9.54273e-09)
(0.11027 -0.00409859 3.85722e-08)
(0.110485 -0.00439242 1.9989e-07)
(0.110869 -0.00469911 9.44309e-08)
(0.111104 -0.00498809 1.03768e-06)
(0.111708 -0.00529534 1.59406e-07)
(0.111772 -0.00557801 5.01891e-06)
(0.103337 -0.000168157 -0.000428158)
(0.112315 -0.000416702 -4.84155e-05)
(0.112181 -0.000506887 8.28015e-06)
(0.111385 -0.000557145 2.73942e-06)
(0.111043 -0.000610541 -1.33635e-07)
(0.110884 -0.000692222 -1.48835e-07)
(0.110775 -0.000804482 5.10631e-08)
(0.110694 -0.000921587 1.2709e-07)
(0.110626 -0.00101137 1.8316e-07)
(0.110561 -0.00105652 2.62325e-07)
(0.110497 -0.00106156 3.51776e-07)
(0.110438 -0.0010462 3.93656e-07)
(0.11039 -0.00103357 3.56332e-07)
(0.110363 -0.00104092 2.59068e-07)
(0.110351 -0.00107731 1.52233e-07)
(0.110356 -0.00114366 9.44826e-08)
(0.110358 -0.00123862 4.59688e-08)
(0.110379 -0.0013581 1.00045e-07)
(0.110377 -0.00150067 4.62325e-08)
(0.110422 -0.00166413 1.60703e-07)
(0.110423 -0.0018471 8.24875e-08)
(0.110506 -0.00204957 1.50366e-07)
(0.110529 -0.00226875 1.51644e-07)
(0.110648 -0.00250571 1.23812e-07)
(0.110708 -0.00275729 1.76032e-07)
(0.110862 -0.00302488 1.87174e-07)
(0.110961 -0.00330495 2.18759e-07)
(0.111156 -0.00359948 2.85443e-07)
(0.111294 -0.00390401 3.66803e-07)
(0.111539 -0.00422095 4.22738e-07)
(0.111713 -0.00454688 6.28075e-07)
(0.112026 -0.00487898 5.29576e-07)
(0.112208 -0.00523872 1.14859e-06)
(0.112646 -0.00556226 5.71627e-07)
(0.112718 -0.00606153 4.64366e-07)
(0.103932 -0.000152472 -0.000431965)
(0.113064 -0.000380724 -4.9105e-05)
(0.113013 -0.000465592 8.42196e-06)
(0.112201 -0.000518256 2.75328e-06)
(0.11183 -0.00057818 -2.25283e-07)
(0.111638 -0.000668511 -2.65938e-07)
(0.111488 -0.000788886 -5.10643e-08)
(0.111351 -0.000911516 7.87806e-08)
(0.11122 -0.00100391 1.63977e-07)
(0.111099 -0.00104956 2.42808e-07)
(0.110987 -0.00105414 3.43709e-07)
(0.11089 -0.00103788 4.09928e-07)
(0.110811 -0.00102399 3.86644e-07)
(0.110756 -0.00102919 3.04342e-07)
(0.110722 -0.00106248 2.22873e-07)
(0.110702 -0.00112484 1.97963e-07)
(0.110686 -0.00121554 2.1268e-07)
(0.110673 -0.00133115 2.39244e-07)
(0.110666 -0.0014707 2.60072e-07)
(0.110663 -0.00163219 2.42588e-07)
(0.110676 -0.00181478 2.36346e-07)
(0.110693 -0.00201737 2.14845e-07)
(0.110729 -0.00223864 2.03801e-07)
(0.110773 -0.00247744 2.3614e-07)
(0.110832 -0.00273275 2.30255e-07)
(0.110909 -0.00300361 3.15581e-07)
(0.110992 -0.00328901 3.5926e-07)
(0.111106 -0.00358835 4.39526e-07)
(0.111225 -0.00390046 5.67199e-07)
(0.111382 -0.00422344 6.42818e-07)
(0.111547 -0.00455788 8.56991e-07)
(0.111763 -0.00489357 9.11189e-07)
(0.111974 -0.00524635 1.34112e-06)
(0.112253 -0.00556846 1.35603e-06)
(0.11247 -0.00595783 -5.29698e-07)
(0.104586 -0.000134082 -0.000438687)
(0.113894 -0.000353818 -4.9576e-05)
(0.113891 -0.000434843 8.76005e-06)
(0.113064 -0.000486364 2.6345e-06)
(0.11269 -0.000544208 -5.96699e-07)
(0.112474 -0.000629853 -6.83869e-07)
(0.112254 -0.000744524 -3.65013e-07)
(0.111994 -0.000863818 -1.44022e-08)
(0.111713 -0.000958098 2.95335e-07)
(0.111449 -0.00101125 4.85963e-07)
(0.111225 -0.00102681 5.80041e-07)
(0.111053 -0.001022 5.77454e-07)
(0.110929 -0.00101715 4.77522e-07)
(0.110846 -0.00102824 3.30139e-07)
(0.110794 -0.00106354 2.11511e-07)
(0.110759 -0.00112615 1.58391e-07)
(0.110733 -0.00121423 1.53956e-07)
(0.11071 -0.00132708 1.71587e-07)
(0.110692 -0.0014618 1.47094e-07)
(0.110683 -0.00161875 1.32374e-07)
(0.110677 -0.00179643 6.4171e-08)
(0.110688 -0.00199478 4.9613e-08)
(0.110694 -0.00221305 1.36021e-08)
(0.110721 -0.00245031 4.31766e-08)
(0.110739 -0.00270592 7.53546e-08)
(0.110781 -0.00297914 1.40538e-07)
(0.110815 -0.00326931 2.30062e-07)
(0.110879 -0.0035759 3.0809e-07)
(0.110942 -0.00389858 4.13617e-07)
(0.111046 -0.00423601 4.93281e-07)
(0.111145 -0.00458908 6.60996e-07)
(0.111314 -0.00495209 6.20045e-07)
(0.111446 -0.00532991 1.15896e-06)
(0.111735 -0.00570414 7.61404e-07)
(0.111819 -0.00607811 1.20749e-06)
(0.105289 -0.000120911 -0.000447669)
(0.114796 -0.00032241 -4.99144e-05)
(0.114782 -0.000400839 9.21947e-06)
(0.113887 -0.000450975 2.56953e-06)
(0.113455 -0.000500624 -7.90477e-07)
(0.113194 -0.000569861 -8.54123e-07)
(0.112923 -0.000665607 -4.97783e-07)
(0.112616 -0.000772454 -1.41993e-07)
(0.112293 -0.000866619 1.90397e-07)
(0.111989 -0.000931425 4.17676e-07)
(0.11173 -0.000964892 5.23725e-07)
(0.111527 -0.000977961 5.21555e-07)
(0.111375 -0.00098654 4.43431e-07)
(0.111266 -0.00100549 3.25586e-07)
(0.111188 -0.00104385 2.3036e-07)
(0.111133 -0.00110647 1.74045e-07)
(0.111085 -0.00119322 1.47244e-07)
(0.111052 -0.00130358 1.69757e-07)
(0.11101 -0.00143579 1.01192e-07)
(0.110998 -0.00158917 1.51473e-07)
(0.110956 -0.00176288 1.34138e-08)
(0.110972 -0.00195701 7.31774e-08)
(0.110927 -0.00217019 -9.59196e-09)
(0.110963 -0.00240369 2.47938e-08)
(0.110924 -0.0026553 6.44992e-08)
(0.110972 -0.00292699 9.55233e-08)
(0.110951 -0.00321649 1.72458e-07)
(0.111018 -0.00352566 2.43915e-07)
(0.111025 -0.00385237 3.31796e-07)
(0.111131 -0.00419725 3.96347e-07)
(0.111171 -0.00456093 5.87395e-07)
(0.111347 -0.00493659 5.12805e-07)
(0.111404 -0.00534302 1.15749e-06)
(0.111744 -0.00573325 5.40429e-07)
(0.111697 -0.00621094 2.30155e-06)
(0.105755 -0.00011277 -0.000452655)
(0.115439 -0.000290283 -5.02138e-05)
(0.115533 -0.000365843 9.57999e-06)
(0.114629 -0.000415221 2.67657e-06)
(0.11419 -0.000460959 -6.25338e-07)
(0.113985 -0.000523201 -5.95351e-07)
(0.113834 -0.000610855 -3.20141e-07)
(0.113697 -0.000712708 -2.07768e-07)
(0.11356 -0.000807974 -1.32333e-07)
(0.113419 -0.000879745 -5.50999e-08)
(0.113276 -0.000923315 4.39511e-08)
(0.113135 -0.000946459 1.34499e-07)
(0.112999 -0.000963227 1.78975e-07)
(0.112874 -0.000987166 1.59267e-07)
(0.112763 -0.00102813 1.10341e-07)
(0.112668 -0.00109035 7.81162e-08)
(0.112574 -0.00117579 3.72882e-08)
(0.112498 -0.00128273 8.76133e-08)
(0.112404 -0.00141131 3.47071e-08)
(0.112346 -0.00156004 9.73215e-08)
(0.112251 -0.00172904 5.17142e-08)
(0.112212 -0.00191835 3.48943e-08)
(0.112132 -0.00212738 5.75002e-08)
(0.112106 -0.00235706 2.30999e-08)
(0.112044 -0.00260648 3.23466e-08)
(0.112035 -0.00287688 8.96159e-08)
(0.111988 -0.00316718 8.32403e-08)
(0.112005 -0.00347871 1.50368e-07)
(0.111978 -0.00381044 2.24592e-07)
(0.112026 -0.00416225 2.68542e-07)
(0.112025 -0.00453723 4.26632e-07)
(0.11212 -0.00492483 4.1994e-07)
(0.112135 -0.00535512 8.32452e-07)
(0.112308 -0.00575864 6.28511e-07)
(0.112281 -0.00631733 -1.57856e-07)
(0.106124 -0.000102976 -0.000455951)
(0.115947 -0.000266897 -5.06148e-05)
(0.11613 -0.000337611 9.75339e-06)
(0.115189 -0.000386188 2.63802e-06)
(0.11471 -0.000435741 -7.14357e-07)
(0.114466 -0.00050539 -6.52954e-07)
(0.114293 -0.000599967 -3.87319e-07)
(0.114139 -0.000704541 -2.82178e-07)
(0.113985 -0.000797356 -2.07682e-07)
(0.113832 -0.000863165 -1.65605e-07)
(0.113678 -0.000899912 -6.81605e-08)
(0.113528 -0.000917397 7.00131e-08)
(0.11338 -0.000930343 1.42182e-07)
(0.113233 -0.000951542 1.27875e-07)
(0.113098 -0.000989903 7.04137e-08)
(0.112977 -0.00104875 4.08766e-08)
(0.112863 -0.00112989 4.33826e-08)
(0.112753 -0.00123199 9.11018e-08)
(0.112642 -0.00135538 1.17549e-07)
(0.112537 -0.00149926 1.37063e-07)
(0.112432 -0.00166362 1.16054e-07)
(0.112339 -0.00184849 9.5301e-08)
(0.112245 -0.00205361 6.25469e-08)
(0.112164 -0.002279 5.0615e-08)
(0.112081 -0.00252487 5.56217e-08)
(0.112011 -0.00279123 7.26903e-08)
(0.111938 -0.00307857 1.23316e-07)
(0.11188 -0.00338683 1.70186e-07)
(0.111824 -0.00371698 2.58113e-07)
(0.111787 -0.00406732 3.2837e-07)
(0.111754 -0.0044417 4.60849e-07)
(0.111749 -0.00483074 5.15482e-07)
(0.111748 -0.00525273 7.63652e-07)
(0.111776 -0.00566501 8.30262e-07)
(0.111803 -0.00616161 -1.11712e-06)
(0.106554 -8.93873e-05 -0.000460659)
(0.11652 -0.00024454 -5.07101e-05)
(0.116769 -0.000309474 1.00918e-05)
(0.115801 -0.000353726 2.50092e-06)
(0.115303 -0.000398253 -1.04442e-06)
(0.115038 -0.000460168 -1.03997e-06)
(0.114819 -0.000545746 -7.45517e-07)
(0.114587 -0.000643026 -5.1881e-07)
(0.114334 -0.000732758 -2.73764e-07)
(0.114084 -0.000800317 -1.16104e-07)
(0.113851 -0.000842454 1.83214e-08)
(0.113649 -0.000866728 1.4555e-07)
(0.113468 -0.00088532 1.83436e-07)
(0.113301 -0.000910125 1.33638e-07)
(0.113148 -0.00094913 4.88384e-08)
(0.113014 -0.00100704 1.10502e-08)
(0.112885 -0.00108488 3.31909e-09)
(0.112765 -0.0011831 5.79479e-08)
(0.112636 -0.00130083 7.13857e-08)
(0.11252 -0.00143804 7.87673e-08)
(0.112394 -0.00159455 5.27675e-08)
(0.112283 -0.00177066 -6.59932e-09)
(0.112164 -0.00196667 -3.80705e-08)
(0.112056 -0.00218323 -5.92581e-08)
(0.111939 -0.0024206 -8.52429e-08)
(0.111833 -0.00267946 -3.55795e-08)
(0.111714 -0.00296022 9.95527e-10)
(0.111612 -0.00326325 4.55136e-08)
(0.1115 -0.00358941 1.53459e-07)
(0.111407 -0.00393811 2.07431e-07)
(0.111312 -0.00431156 3.483e-07)
(0.111244 -0.0047058 3.62549e-07)
(0.11117 -0.00512645 6.68127e-07)
(0.111153 -0.00555973 5.76213e-07)
(0.111077 -0.00602549 -1.73324e-07)
(0.107037 -7.97165e-05 -0.000466606)
(0.117155 -0.000223347 -5.05797e-05)
(0.117408 -0.000285302 1.04904e-05)
(0.116378 -0.000328091 2.33887e-06)
(0.115812 -0.000368591 -1.27177e-06)
(0.115512 -0.000421972 -1.23215e-06)
(0.115254 -0.000495653 -8.77112e-07)
(0.114984 -0.000581513 -6.33165e-07)
(0.1147 -0.000664257 -3.95696e-07)
(0.11442 -0.000730883 -2.01272e-07)
(0.114163 -0.000777166 -5.13417e-08)
(0.113937 -0.000807719 5.1006e-08)
(0.113736 -0.0008321 8.92352e-08)
(0.113556 -0.000860196 6.57934e-08)
(0.113391 -0.000899923 1.00465e-08)
(0.113245 -0.000955996 -1.72019e-08)
(0.113099 -0.00103048 -5.29471e-08)
(0.11297 -0.00112416 -9.36681e-09)
(0.112819 -0.00123628 -4.37231e-08)
(0.112697 -0.00136726 -1.03404e-08)
(0.112538 -0.00151628 -5.7772e-08)
(0.112419 -0.00168435 -8.60084e-08)
(0.112258 -0.00187125 -1.07771e-07)
(0.112137 -0.00207834 -1.43193e-07)
(0.111976 -0.00230551 -1.47573e-07)
(0.111851 -0.00255444 -1.2813e-07)
(0.111687 -0.00282505 -1.11792e-07)
(0.111561 -0.00311896 -5.60619e-08)
(0.111398 -0.00343643 -1.66187e-09)
(0.11128 -0.00377835 5.36776e-08)
(0.111126 -0.00414648 1.85264e-07)
(0.111031 -0.00453801 1.62825e-07)
(0.110886 -0.00496292 5.07975e-07)
(0.110865 -0.00539865 3.23725e-07)
(0.11068 -0.00590305 6.35842e-07)
(0.107415 -7.27405e-05 -0.000471248)
(0.117719 -0.000197324 -5.02767e-05)
(0.118121 -0.000255327 1.10262e-05)
(0.117056 -0.000295221 2.20241e-06)
(0.116429 -0.000329855 -1.34429e-06)
(0.116143 -0.000374341 -1.09147e-06)
(0.115959 -0.000437418 -6.51155e-07)
(0.115799 -0.000514433 -5.06875e-07)
(0.115639 -0.000593177 -4.69405e-07)
(0.115472 -0.000661197 -4.35985e-07)
(0.115296 -0.00071252 -3.76025e-07)
(0.115113 -0.000749099 -2.99303e-07)
(0.114924 -0.000778913 -2.27097e-07)
(0.114734 -0.000810104 -1.83152e-07)
(0.114547 -0.000850793 -1.76849e-07)
(0.114369 -0.000905008 -1.82935e-07)
(0.11419 -0.00097607 -2.07972e-07)
(0.11402 -0.00106398 -2.0176e-07)
(0.113837 -0.0011692 -2.19231e-07)
(0.113665 -0.00129163 -1.99419e-07)
(0.113472 -0.00143145 -2.16289e-07)
(0.113298 -0.00158945 -2.06589e-07)
(0.113098 -0.00176594 -2.26195e-07)
(0.112923 -0.00196211 -2.24928e-07)
(0.112719 -0.00217828 -2.42017e-07)
(0.112544 -0.00241593 -2.30237e-07)
(0.112335 -0.00267541 -2.30708e-07)
(0.112159 -0.00295831 -2.08452e-07)
(0.111948 -0.00326529 -1.67863e-07)
(0.111771 -0.00359726 -1.34527e-07)
(0.111562 -0.0039571 -4.38017e-08)
(0.111392 -0.00434073 -2.0505e-08)
(0.111183 -0.00476468 2.08675e-07)
(0.111038 -0.00519344 1.32953e-07)
(0.110804 -0.00573198 -6.68837e-07)
(0.107611 -6.71801e-05 -0.000473788)
(0.118013 -0.000175791 -5.03952e-05)
(0.118501 -0.000228167 1.12518e-05)
(0.117411 -0.000265793 2.13306e-06)
(0.116747 -0.000302669 -1.4542e-06)
(0.116437 -0.00035392 -1.14748e-06)
(0.116242 -0.000424301 -6.8599e-07)
(0.116079 -0.0005047 -5.48065e-07)
(0.115919 -0.000580719 -5.17784e-07)
(0.115755 -0.000640764 -5.22581e-07)
(0.115579 -0.000681353 -4.71691e-07)
(0.1154 -0.000707403 -3.52955e-07)
(0.115211 -0.00072878 -2.7256e-07)
(0.115005 -0.000753714 -2.59458e-07)
(0.114793 -0.000789093 -2.76538e-07)
(0.114585 -0.000838005 -2.86579e-07)
(0.114386 -0.000902769 -2.72829e-07)
(0.114186 -0.000983173 -2.38385e-07)
(0.113986 -0.00107987 -2.04555e-07)
(0.113779 -0.00119295 -1.84573e-07)
(0.113571 -0.00132335 -1.85459e-07)
(0.113358 -0.00147147 -2.09267e-07)
(0.113145 -0.00163812 -2.34329e-07)
(0.112926 -0.0018236 -2.63126e-07)
(0.112705 -0.00202865 -2.84322e-07)
(0.112477 -0.00225383 -2.81973e-07)
(0.112245 -0.0025002 -2.76158e-07)
(0.112007 -0.00276854 -2.40801e-07)
(0.111763 -0.00306046 -1.99809e-07)
(0.111517 -0.00337626 -1.4452e-07)
(0.111265 -0.00371926 -4.97436e-08)
(0.111014 -0.00408595 -1.24494e-08)
(0.110763 -0.00448861 1.56209e-07)
(0.110508 -0.00490137 1.78438e-07)
(0.110269 -0.00539745 -1.19478e-06)
(0.107813 -5.8216e-05 -0.000476253)
(0.118321 -0.000158247 -5.04824e-05)
(0.118915 -0.00020502 1.1465e-05)
(0.117798 -0.000237509 1.97638e-06)
(0.117107 -0.000268056 -1.71601e-06)
(0.116767 -0.000310491 -1.40183e-06)
(0.116545 -0.000370717 -9.339e-07)
(0.11634 -0.000442111 -7.53226e-07)
(0.116124 -0.000512375 -6.05312e-07)
(0.115907 -0.000570594 -5.67665e-07)
(0.115681 -0.000612427 -4.89998e-07)
(0.115477 -0.000641041 -2.98976e-07)
(0.115276 -0.000664063 -2.21868e-07)
(0.115051 -0.000689088 -2.73088e-07)
(0.114813 -0.000722464 -3.44246e-07)
(0.114584 -0.000767867 -3.75803e-07)
(0.114368 -0.000827288 -3.47869e-07)
(0.114153 -0.000901288 -2.88833e-07)
(0.113939 -0.000990043 -2.264e-07)
(0.113715 -0.00109391 -1.9855e-07)
(0.113491 -0.00121325 -2.05067e-07)
(0.113258 -0.00134865 -2.4212e-07)
(0.113026 -0.00150093 -2.92536e-07)
(0.112783 -0.00167067 -3.34963e-07)
(0.112537 -0.00185902 -3.70592e-07)
(0.11228 -0.00206673 -3.77308e-07)
(0.112015 -0.0022951 -3.65148e-07)
(0.111737 -0.00254503 -3.33589e-07)
(0.111452 -0.0028181 -2.7336e-07)
(0.111156 -0.00311498 -2.17642e-07)
(0.110854 -0.00343819 -1.15714e-07)
(0.11054 -0.00378679 -5.80687e-08)
(0.110229 -0.00416703 9.77645e-08)
(0.109899 -0.00456809 1.38294e-07)
(0.109593 -0.00502899 -1.04311e-06)
(0.108099 -4.80762e-05 -0.000479592)
(0.118701 -0.000139914 -5.01878e-05)
(0.119324 -0.000180829 1.1782e-05)
(0.118165 -0.00020973 1.78082e-06)
(0.117424 -0.000239287 -1.96127e-06)
(0.117061 -0.000281131 -1.62424e-06)
(0.116809 -0.000339242 -1.12182e-06)
(0.116565 -0.000406164 -9.02977e-07)
(0.116307 -0.000469844 -7.32267e-07)
(0.116043 -0.000520614 -6.23693e-07)
(0.11578 -0.000555831 -5.07644e-07)
(0.11554 -0.000579321 -3.44863e-07)
(0.11531 -0.000597993 -2.68673e-07)
(0.115071 -0.000619213 -2.99286e-07)
(0.114827 -0.000648405 -3.56512e-07)
(0.114589 -0.000688896 -3.89927e-07)
(0.114363 -0.000741923 -3.72175e-07)
(0.114137 -0.000808383 -3.30832e-07)
(0.113911 -0.000888304 -2.81379e-07)
(0.113674 -0.000982159 -2.57982e-07)
(0.113434 -0.00109018 -2.70697e-07)
(0.113184 -0.00121299 -2.93159e-07)
(0.112929 -0.00135133 -3.5214e-07)
(0.112666 -0.00150589 -3.81245e-07)
(0.112391 -0.00167764 -4.16679e-07)
(0.112107 -0.00186736 -4.29849e-07)
(0.111807 -0.00207613 -4.06579e-07)
(0.111496 -0.00230498 -3.776e-07)
(0.111169 -0.00255525 -3.19754e-07)
(0.110831 -0.00282811 -2.49889e-07)
(0.110478 -0.00312521 -1.47574e-07)
(0.110117 -0.00344758 -8.59595e-08)
(0.109744 -0.00379696 8.89472e-08)
(0.109362 -0.00417193 1.34665e-07)
(0.108971 -0.00458861 -5.06576e-07)
(0.108405 -4.12285e-05 -0.000482964)
(0.119108 -0.000121879 -4.97685e-05)
(0.119757 -0.000159223 1.20944e-05)
(0.118548 -0.00018477 1.51566e-06)
(0.117752 -0.000206799 -2.25119e-06)
(0.117365 -0.000236195 -1.86332e-06)
(0.11709 -0.000278507 -1.3124e-06)
(0.116817 -0.000330341 -1.04538e-06)
(0.116529 -0.000383816 -8.51116e-07)
(0.116236 -0.000431049 -6.81846e-07)
(0.115951 -0.000468143 -5.31018e-07)
(0.115685 -0.000496115 -4.02994e-07)
(0.115434 -0.00051911 -3.34633e-07)
(0.115186 -0.000542758 -3.34792e-07)
(0.114942 -0.000571596 -3.62072e-07)
(0.114704 -0.000609166 -3.88247e-07)
(0.114471 -0.000657064 -3.92761e-07)
(0.114239 -0.000716438 -3.77884e-07)
(0.114 -0.000787638 -3.72496e-07)
(0.113758 -0.000870733 -3.60845e-07)
(0.113501 -0.000966172 -3.93025e-07)
(0.113243 -0.0010743 -4.06987e-07)
(0.112963 -0.00119585 -4.60067e-07)
(0.112685 -0.00133186 -4.76785e-07)
(0.112379 -0.00148314 -5.01186e-07)
(0.112074 -0.00165095 -5.05224e-07)
(0.111738 -0.00183627 -4.75618e-07)
(0.111399 -0.00204044 -4.47063e-07)
(0.111031 -0.00226465 -3.86307e-07)
(0.11066 -0.00251036 -3.20952e-07)
(0.110261 -0.00277917 -2.25896e-07)
(0.10986 -0.00307221 -1.57775e-07)
(0.10943 -0.00339279 7.98831e-09)
(0.109016 -0.00373673 5.01792e-08)
(0.108544 -0.00412964 4.13631e-08)
(0.108624 -3.5117e-05 -0.000485477)
(0.119461 -0.000100232 -4.89808e-05)
(0.120299 -0.000132921 1.26923e-05)
(0.119042 -0.000156011 1.15459e-06)
(0.118144 -0.000175401 -2.53502e-06)
(0.117734 -0.000200574 -1.84696e-06)
(0.117496 -0.000236394 -1.1488e-06)
(0.117288 -0.000280304 -9.04597e-07)
(0.117073 -0.000326079 -8.44964e-07)
(0.116845 -0.000367196 -8.08975e-07)
(0.116607 -0.000400061 -7.50293e-07)
(0.116364 -0.000425264 -6.77086e-07)
(0.116115 -0.00044648 -6.04462e-07)
(0.115862 -0.000467979 -5.57443e-07)
(0.115608 -0.000493617 -5.36219e-07)
(0.115355 -0.000526129 -5.35512e-07)
(0.115101 -0.000567475 -5.48669e-07)
(0.114847 -0.000618306 -5.44092e-07)
(0.114581 -0.000679229 -5.66534e-07)
(0.114314 -0.000750304 -5.59009e-07)
(0.114026 -0.000832197 -5.75023e-07)
(0.113738 -0.000925381 -5.92379e-07)
(0.113427 -0.0010306 -5.93172e-07)
(0.113112 -0.00114862 -6.12638e-07)
(0.112775 -0.00128014 -6.21163e-07)
(0.112432 -0.00142613 -6.05334e-07)
(0.112062 -0.00158746 -6.04335e-07)
(0.111686 -0.00176532 -5.68706e-07)
(0.111282 -0.00196092 -5.24862e-07)
(0.110869 -0.00217559 -4.7197e-07)
(0.110427 -0.00241128 -3.84536e-07)
(0.109977 -0.00266841 -3.14293e-07)
(0.109496 -0.00295293 -1.63409e-07)
(0.109012 -0.00325537 -9.93731e-08)
(0.108482 -0.00361688 -3.26996e-07)
(0.108679 -3.01771e-05 -0.000486682)
(0.119553 -8.14143e-05 -4.89904e-05)
(0.12044 -0.000107374 1.28529e-05)
(0.119177 -0.000125836 1.12274e-06)
(0.118264 -0.000142834 -2.60047e-06)
(0.117846 -0.000166228 -1.87378e-06)
(0.117608 -0.000199261 -1.15075e-06)
(0.117406 -0.000238667 -9.06362e-07)
(0.117197 -0.000278315 -8.4805e-07)
(0.116978 -0.00031247 -8.39401e-07)
(0.116747 -0.000338366 -7.9191e-07)
(0.116513 -0.000357363 -6.77891e-07)
(0.116274 -0.000373663 -6.0258e-07)
(0.116014 -0.000390781 -6.10876e-07)
(0.115738 -0.000411683 -6.3974e-07)
(0.115459 -0.000438278 -6.50672e-07)
(0.115187 -0.000472301 -6.31421e-07)
(0.114915 -0.000514012 -5.96347e-07)
(0.11464 -0.000563803 -5.70795e-07)
(0.114354 -0.00062196 -5.52358e-07)
(0.114059 -0.000689172 -5.64908e-07)
(0.113752 -0.000766181 -5.85152e-07)
(0.113431 -0.000853726 -6.17335e-07)
(0.113098 -0.00095231 -6.44395e-07)
(0.112748 -0.00106258 -6.61562e-07)
(0.112382 -0.00118509 -6.65998e-07)
(0.111995 -0.00132061 -6.4584e-07)
(0.11159 -0.00147003 -6.13496e-07)
(0.111161 -0.0016345 -5.60936e-07)
(0.110712 -0.00181506 -4.91348e-07)
(0.11024 -0.00201355 -4.01543e-07)
(0.109746 -0.0022303 -3.12636e-07)
(0.109229 -0.00246999 -1.78005e-07)
(0.108689 -0.0027252 -8.44237e-08)
(0.108127 -0.00302674 -3.38213e-07)
(0.108739 -2.39859e-05 -0.000487771)
(0.119653 -6.48818e-05 -4.89958e-05)
(0.120589 -8.52997e-05 1.29749e-05)
(0.119314 -9.96875e-05 1.0429e-06)
(0.118384 -0.000112971 -2.72285e-06)
(0.117953 -0.000131659 -1.97875e-06)
(0.117706 -0.000158437 -1.24717e-06)
(0.117492 -0.000190526 -1.00025e-06)
(0.117267 -0.000222732 -8.95004e-07)
(0.117034 -0.000250292 -8.85155e-07)
(0.116785 -0.000270843 -8.37494e-07)
(0.116548 -0.000285489 -6.38222e-07)
(0.116318 -0.000297635 -5.41296e-07)
(0.116053 -0.000310319 -6.27169e-07)
(0.115755 -0.000325954 -7.27439e-07)
(0.115453 -0.000346278 -7.55851e-07)
(0.115165 -0.000372551 -7.13109e-07)
(0.114883 -0.000405099 -6.37824e-07)
(0.114599 -0.000444163 -5.73964e-07)
(0.114305 -0.000489949 -5.35122e-07)
(0.114001 -0.00054298 -5.42086e-07)
(0.113685 -0.000603723 -5.75983e-07)
(0.113356 -0.000672719 -6.21771e-07)
(0.113013 -0.0007504 -6.68407e-07)
(0.112653 -0.000837266 -7.00208e-07)
(0.112273 -0.000933854 -7.09032e-07)
(0.111871 -0.00104088 -6.94578e-07)
(0.111447 -0.00115909 -6.57737e-07)
(0.110998 -0.0012895 -5.96254e-07)
(0.110524 -0.00143299 -5.20427e-07)
(0.110025 -0.00159101 -4.19953e-07)
(0.1095 -0.00176415 -3.18498e-07)
(0.108948 -0.00195551 -1.81368e-07)
(0.108369 -0.00216131 -6.9966e-08)
(0.107765 -0.00240124 -1.86272e-07)
(0.108818 -1.62965e-05 -0.000488798)
(0.119769 -4.74892e-05 -4.8885e-05)
(0.120738 -6.18866e-05 1.30947e-05)
(0.119446 -7.1835e-05 9.36599e-07)
(0.118495 -8.18861e-05 -2.84344e-06)
(0.11805 -9.67817e-05 -2.0653e-06)
(0.117793 -0.000118138 -1.31437e-06)
(0.117567 -0.000143314 -1.05822e-06)
(0.117327 -0.000167848 -9.32582e-07)
(0.11708 -0.000187956 -9.11897e-07)
(0.116816 -0.000202299 -8.59817e-07)
(0.116569 -0.000211982 -6.39066e-07)
(0.116335 -0.000219277 -5.33389e-07)
(0.116064 -0.000226923 -6.34605e-07)
(0.115756 -0.000237198 -7.5155e-07)
(0.115446 -0.000251302 -7.87296e-07)
(0.115151 -0.000269843 -7.44528e-07)
(0.114863 -0.000293027 -6.66114e-07)
(0.114575 -0.000321152 -5.96953e-07)
(0.114274 -0.000354345 -5.54793e-07)
(0.113963 -0.000392812 -5.59293e-07)
(0.113639 -0.000436745 -5.91425e-07)
(0.113302 -0.000486487 -6.3714e-07)
(0.112949 -0.000542396 -6.83795e-07)
(0.112578 -0.000604953 -7.15753e-07)
(0.112187 -0.000674645 -7.26164e-07)
(0.111772 -0.000752033 -7.11714e-07)
(0.111333 -0.000837692 -6.74059e-07)
(0.110868 -0.000932325 -6.12212e-07)
(0.110377 -0.00103661 -5.31266e-07)
(0.109857 -0.00115149 -4.2901e-07)
(0.109309 -0.00127757 -3.18212e-07)
(0.108732 -0.00141669 -1.8208e-07)
(0.108124 -0.00156695 -5.64516e-08)
(0.107488 -0.00174104 -4.49097e-08)
(0.108925 -9.55283e-06 -0.000489822)
(0.119909 -3.13322e-05 -4.86365e-05)
(0.120892 -4.01508e-05 1.32224e-05)
(0.119582 -4.58281e-05 7.97297e-07)
(0.118606 -5.17658e-05 -2.97924e-06)
(0.118152 -6.0962e-05 -2.17413e-06)
(0.117885 -7.44379e-05 -1.40743e-06)
(0.117645 -9.05206e-05 -1.12418e-06)
(0.11739 -0.00010624 -1.00488e-06)
(0.117123 -0.000119028 -9.35974e-07)
(0.116849 -0.000128084 -8.46615e-07)
(0.116583 -0.000133979 -6.96782e-07)
(0.116323 -0.000137797 -6.11833e-07)
(0.116045 -0.000141547 -6.41379e-07)
(0.115749 -0.000147065 -7.01751e-07)
(0.115451 -0.000155125 -7.2456e-07)
(0.11516 -0.000165965 -7.06981e-07)
(0.114873 -0.000179735 -6.64536e-07)
(0.114581 -0.000196717 -6.24692e-07)
(0.114279 -0.000216942 -6.07992e-07)
(0.113963 -0.000240384 -6.13152e-07)
(0.113634 -0.000267008 -6.41461e-07)
(0.11329 -0.000296964 -6.77984e-07)
(0.112929 -0.000330505 -7.10209e-07)
(0.112549 -0.000368008 -7.31725e-07)
(0.112147 -0.000409856 -7.34029e-07)
(0.111722 -0.00045645 -7.14669e-07)
(0.111271 -0.000508168 -6.72353e-07)
(0.110793 -0.000565449 -6.08944e-07)
(0.110287 -0.000628712 -5.26079e-07)
(0.109752 -0.000698514 -4.24365e-07)
(0.109187 -0.000775272 -3.09069e-07)
(0.108591 -0.00086 -1.74785e-07)
(0.107963 -0.000951828 -4.21282e-08)
(0.107303 -0.00105802 5.98832e-08)
(0.109035 -3.293e-06 -0.0004907)
(0.120056 -1.37746e-05 -4.83639e-05)
(0.12105 -1.67825e-05 1.33087e-05)
(0.119712 -1.86278e-05 6.23446e-07)
(0.118709 -2.10341e-05 -3.12709e-06)
(0.118242 -2.50382e-05 -2.27759e-06)
(0.117964 -3.08541e-05 -1.48895e-06)
(0.11771 -3.76337e-05 -1.18338e-06)
(0.11744 -4.40442e-05 -1.0568e-06)
(0.117158 -4.89991e-05 -9.58674e-07)
(0.116872 -5.21845e-05 -8.50213e-07)
(0.116592 -5.38753e-05 -7.38368e-07)
(0.116314 -5.46204e-05 -6.6329e-07)
(0.116034 -5.52706e-05 -6.40302e-07)
(0.115749 -5.65686e-05 -6.49874e-07)
(0.115465 -5.87933e-05 -6.60067e-07)
(0.115181 -6.20031e-05 -6.63373e-07)
(0.114897 -6.62471e-05 -6.57287e-07)
(0.114604 -7.16135e-05 -6.5214e-07)
(0.114302 -7.81248e-05 -6.5888e-07)
(0.113985 -8.57556e-05 -6.71616e-07)
(0.113653 -9.448e-05 -6.94901e-07)
(0.113305 -0.000104334 -7.1884e-07)
(0.112938 -0.000115401 -7.35871e-07)
(0.112551 -0.000127807 -7.42914e-07)
(0.112143 -0.000141685 -7.33751e-07)
(0.111709 -0.000157174 -7.07017e-07)
(0.111251 -0.000174404 -6.60483e-07)
(0.110765 -0.00019352 -5.96003e-07)
(0.11025 -0.000214661 -5.13281e-07)
(0.109706 -0.000238006 -4.13683e-07)
(0.109132 -0.000263693 -2.98212e-07)
(0.108525 -0.000292047 -1.66895e-07)
(0.107888 -0.000322793 -3.21267e-08)
(0.107214 -0.000358343 1.12805e-07)
(0.18434 -0.000178347 -0.000489935)
(0.188107 -0.000559046 -9.41725e-05)
(0.188744 -0.000752713 5.84915e-06)
(0.188328 -0.000861112 1.06472e-05)
(0.18798 -0.000951989 4.73969e-06)
(0.187751 -0.00107679 2.69352e-06)
(0.187535 -0.00125388 2.85337e-06)
(0.1873 -0.00145287 3.35685e-06)
(0.187058 -0.00162 3.56967e-06)
(0.186839 -0.00171509 3.43987e-06)
(0.186666 -0.00173234 3.03002e-06)
(0.186548 -0.0016976 2.37558e-06)
(0.186485 -0.0016498 1.60748e-06)
(0.18647 -0.00162457 9.3492e-07)
(0.186487 -0.0016424 5.02346e-07)
(0.186529 -0.00171153 3.25366e-07)
(0.186575 -0.00182809 1.6028e-07)
(0.186639 -0.00198753 1.37907e-07)
(0.186692 -0.00218228 -2.9217e-07)
(0.186778 -0.00240896 -2.84268e-07)
(0.186839 -0.00266364 -8.91978e-07)
(0.18695 -0.00294458 -8.42869e-07)
(0.18703 -0.00324935 -1.20227e-06)
(0.187161 -0.003577 -1.27727e-06)
(0.187268 -0.00392514 -1.46488e-06)
(0.187423 -0.00429312 -1.53832e-06)
(0.187561 -0.00467819 -1.8959e-06)
(0.187753 -0.00507977 -2.03306e-06)
(0.187933 -0.00549356 -2.5392e-06)
(0.188169 -0.00592049 -2.74949e-06)
(0.188398 -0.00635163 -3.67224e-06)
(0.188699 -0.00679475 -3.49406e-06)
(0.188963 -0.00722768 -5.19197e-06)
(0.189413 -0.00767176 -4.56212e-06)
(0.18957 -0.00809429 2.33251e-06)
(0.185146 -0.000163098 -0.000501299)
(0.188917 -0.000503551 -9.75094e-05)
(0.18957 -0.00068901 5.82176e-06)
(0.189158 -0.000798985 1.1284e-05)
(0.188822 -0.000894163 4.91362e-06)
(0.188636 -0.00102284 2.16077e-06)
(0.18852 -0.00120303 1.47909e-06)
(0.188441 -0.00140699 1.36189e-06)
(0.188379 -0.00158342 1.45206e-06)
(0.188323 -0.00169235 1.6359e-06)
(0.188269 -0.00172606 1.79945e-06)
(0.188217 -0.00170718 1.79816e-06)
(0.188174 -0.00167249 1.56485e-06)
(0.188147 -0.00165538 1.19187e-06)
(0.188134 -0.00167729 8.1792e-07)
(0.188141 -0.00174531 6.40172e-07)
(0.188146 -0.00185923 4.5453e-07)
(0.188169 -0.00201333 5.62839e-07)
(0.188173 -0.00220402 2.61691e-07)
(0.188209 -0.00242713 4.16542e-07)
(0.188219 -0.00268047 -2.91406e-08)
(0.188276 -0.00296246 -5.54311e-08)
(0.188311 -0.0032709 -3.19898e-07)
(0.188392 -0.00360456 -5.55971e-07)
(0.188461 -0.00396161 -7.27951e-07)
(0.188573 -0.0043408 -8.8765e-07)
(0.188676 -0.00474031 -1.16019e-06)
(0.188824 -0.00515915 -1.27596e-06)
(0.188962 -0.00559526 -1.64026e-06)
(0.189148 -0.00604707 -1.73929e-06)
(0.189321 -0.00651487 -2.33787e-06)
(0.189554 -0.00698953 -2.21747e-06)
(0.189741 -0.00749917 -3.14864e-06)
(0.190056 -0.0079705 -2.71946e-06)
(0.190167 -0.00861378 -3.69719e-06)
(0.185755 -0.000147559 -0.000503387)
(0.189525 -0.00045859 -9.99045e-05)
(0.1902 -0.000629692 5.47822e-06)
(0.189801 -0.000737296 1.20427e-05)
(0.189467 -0.000838132 5.69012e-06)
(0.18927 -0.000977489 2.8058e-06)
(0.18913 -0.0011693 2.0878e-06)
(0.189015 -0.00138216 1.98693e-06)
(0.188907 -0.0015634 1.94031e-06)
(0.188803 -0.00167381 1.89078e-06)
(0.188707 -0.00170735 1.87452e-06)
(0.18862 -0.00168782 1.81113e-06)
(0.188547 -0.0016523 1.5874e-06)
(0.188494 -0.00163345 1.25821e-06)
(0.188462 -0.0016522 9.64375e-07)
(0.188444 -0.00171544 8.55054e-07)
(0.188434 -0.00182352 8.50177e-07)
(0.188427 -0.00197173 8.32905e-07)
(0.188422 -0.00215712 7.45529e-07)
(0.18842 -0.00237643 4.97357e-07)
(0.188427 -0.00262766 2.63118e-07)
(0.188442 -0.00290925 -2.45301e-08)
(0.188468 -0.00321911 -2.6168e-07)
(0.188507 -0.0035555 -3.91189e-07)
(0.188554 -0.00391658 -6.18202e-07)
(0.188621 -0.00430077 -6.65179e-07)
(0.188692 -0.00470651 -8.5685e-07)
(0.188789 -0.00513246 -1.02858e-06)
(0.188892 -0.00557745 -1.23847e-06)
(0.189027 -0.00603869 -1.5751e-06)
(0.189167 -0.00651691 -1.90216e-06)
(0.189353 -0.00700102 -2.47008e-06)
(0.189522 -0.00750572 -2.62199e-06)
(0.189773 -0.00798556 -3.57816e-06)
(0.189923 -0.00852087 -5.76773e-06)
(0.18638 -0.000129475 -0.000512352)
(0.190136 -0.000423443 -0.000102805)
(0.190818 -0.000584892 5.27564e-06)
(0.190435 -0.000688089 1.24139e-05)
(0.190127 -0.00078445 5.75344e-06)
(0.189944 -0.000915467 2.90729e-06)
(0.189781 -0.00109603 2.60208e-06)
(0.189596 -0.00129981 3.03924e-06)
(0.18938 -0.00147983 3.31845e-06)
(0.189157 -0.00159916 3.23069e-06)
(0.188955 -0.00164951 2.92303e-06)
(0.188789 -0.00164975 2.51463e-06)
(0.188666 -0.00163164 2.03543e-06)
(0.188581 -0.00162527 1.53761e-06)