/*--------------------------------*- C++ -*----------------------------------*\
  =========                 |
  \\      /  F ield         | OpenFOAM: The Open Source CFD Toolbox
   \\    /   O peration     | Website:  https://openfoam.org
    \\  /    A nd           | Version:  6
     \\/     M anipulation  |
\*---------------------------------------------------------------------------*/
FoamFile
{
    version     2.0;
    format      ascii;
    class       volVectorField;
    location    "45";
    object      wallShearStress;
}
// * * * * * * * * * * * * * * * * * * * * * * * * * * * * * * * * * * * * * //

dimensions      [0 2 -2 0 0 0 0];

internalField   uniform (0 0 0);

boundaryField
{
    inlet
    {
        type            calculated;
        value           uniform (0 0 0);
    }
    outlet
    {
        type            calculated;
        value           uniform (0 0 0);
    }
    roughCylinder
    {
        type            calculated;
        value           nonuniform List<vector> 
5120
(
(-0.000125911 -0.00014996 -7.88721e-05)
(-0.000166626 -0.000268002 -6.38108e-05)
(-0.000253121 -0.000429132 -7.10089e-07)
(-0.000302187 -0.000502126 5.0008e-05)
(-0.000358647 -0.000560388 9.55916e-05)
(-0.000405537 -0.000586358 0.000132776)
(-0.000446372 -0.000595051 0.000161453)
(-0.000476866 -0.000587939 0.000180472)
(-0.000501927 -0.000576482 0.000192902)
(-0.00052233 -0.000566785 0.000202281)
(-0.000539954 -0.000559582 0.00021032)
(-0.000552835 -0.000554131 0.000215498)
(-0.000562233 -0.000550196 0.000217685)
(-0.000566975 -0.000545748 0.000216507)
(-0.000570971 -0.000543585 0.000213317)
(-0.000577664 -0.00054647 0.000209425)
(-0.000581073 -0.000548355 0.000202872)
(-0.000583895 -0.00055116 0.000194861)
(-0.000580819 -0.000549453 0.000183982)
(-0.000584523 -0.000554111 0.000174288)
(-0.000585159 -0.000556195 0.00016292)
(-0.000591627 -0.000563753 0.000152392)
(-0.000580384 -0.000555954 0.000136965)
(-0.000555883 -0.000535012 0.000119058)
(-0.00058242 -0.000561668 0.000111848)
(-0.000603348 -0.000582618 0.000101886)
(-0.000590986 -0.000573034 8.6096e-05)
(-0.000588894 -0.00057275 7.17778e-05)
(-0.000577977 -0.000563969 5.62509e-05)
(-0.000578367 -0.000565439 4.14396e-05)
(-0.000574063 -0.000562236 2.54579e-05)
(-0.000570893 -0.000559817 8.61461e-06)
(-0.00010257 -0.000108116 -5.37811e-05)
(-0.00018152 -0.00026266 -6.94555e-05)
(-0.000272525 -0.000422321 -9.00787e-06)
(-0.000324316 -0.000498817 4.16791e-05)
(-0.000383549 -0.000560339 8.76295e-05)
(-0.000432991 -0.000589802 0.000125775)
(-0.000475878 -0.000600802 0.000155086)
(-0.000507924 -0.000595542 0.000174301)
(-0.000535539 -0.000587525 0.000187777)
(-0.000558977 -0.000580783 0.000198916)
(-0.000578785 -0.00057445 0.000208452)
(-0.000592745 -0.000567768 0.000214349)
(-0.000601623 -0.00056208 0.000216473)
(-0.000607218 -0.000557604 0.000215707)
(-0.000614108 -0.00055758 0.000213594)
(-0.000619958 -0.000559268 0.000209375)
(-0.00062368 -0.000561237 0.000202951)
(-0.000626676 -0.000564082 0.000195028)
(-0.000624967 -0.000563735 0.000184694)
(-0.000627756 -0.000567478 0.000174754)
(-0.000628852 -0.000569964 0.000163555)
(-0.000632462 -0.000574752 0.000152294)
(-0.000627058 -0.000572696 0.000138373)
(-0.00059721 -0.00054836 0.000119766)
(-0.00063059 -0.000579857 0.000113472)
(-0.000652625 -0.000600934 0.00010334)
(-0.000640967 -0.000592697 8.76363e-05)
(-0.000639667 -0.000593323 7.32176e-05)
(-0.000628727 -0.000585193 5.75112e-05)
(-0.000629096 -0.000586687 4.24042e-05)
(-0.000624454 -0.000583428 2.60639e-05)
(-0.000620915 -0.000580865 8.81966e-06)
(-0.000112386 -0.000103197 -4.59957e-05)
(-0.000196434 -0.000253264 -7.49029e-05)
(-0.000292969 -0.000411623 -1.79435e-05)
(-0.000347844 -0.000491964 3.23881e-05)
(-0.000409455 -0.000556084 7.8662e-05)
(-0.000460911 -0.000588335 0.000117618)
(-0.000505942 -0.000602015 0.000147591)
(-0.000540943 -0.000600632 0.000167785)
(-0.000571443 -0.000596403 0.000182769)
(-0.000596707 -0.000591235 0.000195265)
(-0.000618875 -0.00058628 0.00020609)
(-0.000634964 -0.000579405 0.000212923)
(-0.000646028 -0.000574252 0.00021598)
(-0.000651335 -0.000568559 0.000215177)
(-0.000655461 -0.000565456 0.000212187)
(-0.00066257 -0.000567769 0.000208408)
(-0.000667631 -0.000570616 0.000202454)
(-0.000671661 -0.000574173 0.0001949)
(-0.000672847 -0.000576342 0.000185506)
(-0.000675774 -0.00058014 0.000175647)
(-0.000679374 -0.000584726 0.000165085)
(-0.000680496 -0.000587349 0.000153211)
(-0.000679361 -0.000589177 0.000140229)
(-0.000644496 -0.000562306 0.000121078)
(-0.000681403 -0.00059507 0.000114958)
(-0.00070261 -0.000614478 0.000104397)
(-0.000688927 -0.00060516 8.84731e-05)
(-0.00068768 -0.000605983 7.39836e-05)
(-0.000676226 -0.000598104 5.81931e-05)
(-0.000677397 -0.00060036 4.29999e-05)
(-0.000673146 -0.000597733 2.64727e-05)
(-0.000670049 -0.000595789 8.96948e-06)
(-0.000160696 -0.000127179 -4.68445e-05)
(-0.000208086 -0.000237795 -7.92324e-05)
(-0.000310549 -0.000394381 -2.70775e-05)
(-0.000368377 -0.000478024 2.21662e-05)
(-0.000432608 -0.000545235 6.85035e-05)
(-0.00048715 -0.000581765 0.000108247)
(-0.000534903 -0.000599122 0.000138941)
(-0.000572331 -0.000601414 0.000160198)
(-0.000606039 -0.000601354 0.000177022)
(-0.000634841 -0.000599419 0.000191454)
(-0.00065883 -0.000595247 0.000203196)
(-0.000677472 -0.000589149 0.000211104)
(-0.000687637 -0.000581174 0.000214037)
(-0.00069445 -0.00057579 0.000213823)
(-0.000702033 -0.00057484 0.00021198)
(-0.000708608 -0.000576115 0.000208045)
(-0.000714311 -0.000579094 0.000202309)
(-0.000718956 -0.000582891 0.000194973)
(-0.000721378 -0.000585957 0.000185997)
(-0.000724049 -0.000589467 0.000176163)
(-0.000727685 -0.000593921 0.000165646)
(-0.000725683 -0.000594112 0.000153182)
(-0.000728967 -0.000599578 0.000141157)
(-0.000690157 -0.000571477 0.000121831)
(-0.000732404 -0.000606744 0.000116217)
(-0.000755045 -0.000626473 0.000105626)
(-0.000742473 -0.000618873 8.98634e-05)
(-0.000742419 -0.00062088 7.53342e-05)
(-0.000731546 -0.000614248 5.94369e-05)
(-0.000733114 -0.000616873 4.39847e-05)
(-0.000728652 -0.000614356 2.7099e-05)
(-0.000725359 -0.000612466 9.18483e-06)
(-0.000131639 -8.86845e-05 -2.33746e-05)
(-0.000223828 -0.000225315 -8.48902e-05)
(-0.000327409 -0.000374248 -3.6354e-05)
(-0.000387958 -0.000460696 1.14105e-05)
(-0.000454247 -0.000530334 5.75791e-05)
(-0.000511163 -0.000570271 9.77434e-05)
(-0.000562204 -0.000592118 0.000129205)
(-0.000603839 -0.000600069 0.000152175)
(-0.00064049 -0.000603729 0.000170897)
(-0.000670832 -0.000603053 0.000186695)
(-0.000697824 -0.000600715 0.000199705)
(-0.000718169 -0.00059502 0.000208328)
(-0.000732707 -0.000588627 0.000212753)
(-0.000739125 -0.000581503 0.000212632)
(-0.000743882 -0.000577381 0.000210048)
(-0.000751932 -0.000579128 0.000206616)
(-0.000759029 -0.0005827 0.000201338)
(-0.000764984 -0.000587184 0.000194442)
(-0.000769935 -0.000592011 0.000186221)
(-0.000773692 -0.000596269 0.000176776)
(-0.000780202 -0.000602782 0.000166935)
(-0.000777465 -0.000602692 0.000154391)
(-0.00078277 -0.000609626 0.000142714)
(-0.000742454 -0.000582546 0.00012362)
(-0.000786258 -0.00061695 0.000117812)
(-0.000807815 -0.000634942 0.000106834)
(-0.000793009 -0.000626353 9.08355e-05)
(-0.000792514 -0.000628181 7.6174e-05)
(-0.000780972 -0.000621808 6.01745e-05)
(-0.000782893 -0.000624761 4.45969e-05)
(-0.000778559 -0.000622683 2.75083e-05)
(-0.000775642 -0.00062133 9.33416e-06)
(-0.000140671 -7.93996e-05 -9.92426e-06)
(-0.000231333 -0.000203721 -8.70537e-05)
(-0.000339892 -0.000347952 -4.51309e-05)
(-0.000403253 -0.000436907 2.21959e-07)
(-0.00047197 -0.000509518 4.56637e-05)
(-0.000532595 -0.000554446 8.61489e-05)
(-0.00058693 -0.000580913 0.000118332)
(-0.000631354 -0.000593065 0.000142758)
(-0.00067165 -0.000600932 0.000163555)
(-0.000706125 -0.000603782 0.000181383)
(-0.000735083 -0.000602316 0.000195396)
(-0.000758373 -0.000598038 0.000205022)
(-0.000772844 -0.000590188 0.000209679)
(-0.000782372 -0.000583473 0.000210683)
(-0.000791423 -0.000581492 0.000209458)
(-0.000799245 -0.000582139 0.000206035)
(-0.000807152 -0.000585624 0.000201038)
(-0.000814034 -0.000590347 0.00019446)
(-0.000819901 -0.000595533 0.000186571)
(-0.000824414 -0.000600175 0.000177445)
(-0.000830591 -0.000606174 0.000167591)
(-0.000825215 -0.000604488 0.000154684)
(-0.000831558 -0.000612096 0.000143267)
(-0.000790474 -0.000586682 0.000124622)
(-0.000836345 -0.000620581 0.000118818)
(-0.000859645 -0.000639088 0.000107932)
(-0.000846282 -0.000632504 9.21378e-05)
(-0.000847356 -0.000635775 7.74904e-05)
(-0.000837145 -0.000631264 6.14493e-05)
(-0.000839819 -0.000634841 4.56319e-05)
(-0.0008355 -0.000633127 2.81762e-05)
(-0.0008326 -0.000632029 9.56739e-06)
(-0.000149082 -6.9254e-05 4.24859e-06)
(-0.000242595 -0.00018525 -9.02857e-05)
(-0.00035073 -0.000319821 -5.34108e-05)
(-0.000415732 -0.000409654 -1.11418e-05)
(-0.000486278 -0.000484631 3.29593e-05)
(-0.00054972 -0.00053368 7.33408e-05)
(-0.000608202 -0.00056567 0.000106338)
(-0.000657764 -0.000584033 0.000132752)
(-0.000701336 -0.000595382 0.000155503)
(-0.000737704 -0.000599632 0.000174734)
(-0.000770101 -0.000600256 0.000190168)
(-0.000795475 -0.000596674 0.000200631)
(-0.000815361 -0.000591844 0.000206924)
(-0.000825733 -0.000584044 0.000208471)
(-0.000832317 -0.000578398 0.00020689)
(-0.000841951 -0.000579247 0.0002041)
(-0.000851197 -0.000582869 0.000199581)
(-0.000859299 -0.000587854 0.000193461)
(-0.000867083 -0.000593955 0.000186195)
(-0.00087333 -0.000599547 0.00017765)
(-0.000882647 -0.000607449 0.000168525)
(-0.000878446 -0.000607063 0.000155979)
(-0.000884193 -0.000614293 0.000144511)
(-0.000845713 -0.000592917 0.000126756)
(-0.00089098 -0.000624366 0.000120524)
(-0.000913007 -0.000641168 0.000109299)
(-0.000897364 -0.00063389 9.32727e-05)
(-0.000897484 -0.000636733 7.84451e-05)
(-0.000886338 -0.000632597 6.22804e-05)
(-0.000888586 -0.000636066 4.62851e-05)
(-0.00088405 -0.000634701 2.86034e-05)
(-0.000881328 -0.000634056 9.72189e-06)
(-0.000172454 -6.44011e-05 2.04994e-05)
(-0.000249515 -0.000163191 -9.14107e-05)
(-0.000356349 -0.000287715 -6.05417e-05)
(-0.000423341 -0.000377829 -2.23399e-05)
(-0.000495617 -0.00045514 1.95276e-05)
(-0.000562737 -0.000509258 5.9544e-05)
(-0.00062462 -0.000546019 9.31733e-05)
(-0.000677507 -0.000568736 0.000121101)
(-0.000725645 -0.000584432 0.000145903)
(-0.000766746 -0.000592264 0.000167096)
(-0.000802059 -0.000594478 0.000183844)
(-0.000830847 -0.000592587 0.000195592)
(-0.00085075 -0.000586826 0.000202222)
(-0.000865916 -0.000581276 0.000205258)
(-0.000878788 -0.000578094 0.000205534)
(-0.000888575 -0.000577215 0.000203045)
(-0.000898693 -0.000580118 0.000198885)
(-0.000907976 -0.000585189 0.000193224)
(-0.000916522 -0.000591267 0.000186328)
(-0.000924304 -0.000597496 0.00017831)
(-0.00093334 -0.000604835 0.000169244)
(-0.000926672 -0.000603325 0.000156462)
(-0.000930433 -0.000609464 0.000144862)
(-0.000893949 -0.000591611 0.000127959)
(-0.000937746 -0.000620444 0.000121375)
(-0.0009612 -0.000637732 0.000110283)
(-0.000947159 -0.000632788 9.44967e-05)
(-0.000949062 -0.000637435 7.97463e-05)
(-0.000939724 -0.000635734 6.35926e-05)
(-0.000942765 -0.000640004 4.73627e-05)
(-0.000938391 -0.000639338 2.93077e-05)
(-0.000935797 -0.000639141 9.97097e-06)
(-0.000195635 -5.66358e-05 3.97514e-05)
(-0.000253795 -0.000139566 -9.03577e-05)
(-0.000358145 -0.000253894 -6.70472e-05)
(-0.000424977 -0.000341626 -3.30091e-05)
(-0.000498348 -0.000420682 5.61323e-06)
(-0.000568698 -0.000479494 4.46707e-05)
(-0.000635479 -0.000522241 7.89463e-05)
(-0.00069398 -0.000550912 0.000108604)
(-0.000745783 -0.000569866 0.000135111)
(-0.000790348 -0.00058004 0.000157875)
(-0.000829483 -0.000584436 0.000176135)
(-0.000861545 -0.000584093 0.000189212)
(-0.000887537 -0.000581608 0.000197739)
(-0.00090314 -0.000575389 0.000201303)
(-0.000914611 -0.000570139 0.000201651)
(-0.00092757 -0.000569623 0.000200221)
(-0.000939664 -0.000572281 0.000196867)
(-0.000949872 -0.000576837 0.000191744)
(-0.000959641 -0.000582965 0.000185415)
(-0.000969212 -0.00058982 0.000178053)
(-0.000981329 -0.000598727 0.000169745)
(-0.000976909 -0.000599369 0.000157587)
(-0.000978722 -0.000605023 0.000145944)
(-0.00094773 -0.000592731 0.000130296)
(-0.000989197 -0.00061871 0.000123226)
(-0.00101053 -0.000634284 0.000111776)
(-0.000994225 -0.00062923 9.5782e-05)
(-0.000994322 -0.000633395 8.08016e-05)
(-0.000983477 -0.000631807 6.44681e-05)
(-0.000984885 -0.000635173 4.79953e-05)
(-0.000979744 -0.000634538 2.97065e-05)
(-0.000976927 -0.000634501 1.01125e-05)
(-0.000243978 -5.15043e-05 6.89356e-05)
(-0.000265418 -0.00012026 -9.01621e-05)
(-0.000355828 -0.000218751 -7.22947e-05)
(-0.000422319 -0.000303391 -4.28075e-05)
(-0.000495691 -0.000383231 -8.33715e-06)
(-0.000568579 -0.000446205 2.91063e-05)
(-0.000638402 -0.000493342 6.3572e-05)
(-0.000701197 -0.000526595 9.44522e-05)
(-0.000759195 -0.000550463 0.000122766)
(-0.000808693 -0.000563849 0.000147219)
(-0.000852454 -0.000570782 0.000167116)
(-0.000887922 -0.000571976 0.000181613)
(-0.000914588 -0.000569174 0.000190947)
(-0.000936205 -0.000565936 0.000196411)
(-0.000954178 -0.000563679 0.000198669)
(-0.000968025 -0.000562514 0.000197888)
(-0.000981525 -0.000564792 0.000195274)
(-0.00099348 -0.000569206 0.000190903)
(-0.0010042 -0.000575087 0.000185165)
(-0.00101577 -0.000582489 0.000178517)
(-0.00102763 -0.000590853 0.00017039)
(-0.00102033 -0.000590645 0.000158084)
(-0.00101839 -0.000595116 0.000146265)
(-0.000990317 -0.000586187 0.000131485)
(-0.00102699 -0.000608064 0.000123802)
(-0.00104815 -0.000623094 0.000112378)
(-0.00103317 -0.000620092 9.66302e-05)
(-0.00103459 -0.000625649 8.17405e-05)
(-0.00102615 -0.000626611 6.55015e-05)
(-0.00102849 -0.00063072 4.88756e-05)
(-0.00102391 -0.000630992 3.03017e-05)
(-0.0010214 -0.000631451 1.03273e-05)
(-0.000266849 -3.61972e-05 9.61531e-05)
(-0.000268061 -9.76911e-05 -8.5599e-05)
(-0.00034896 -0.000182724 -7.56308e-05)
(-0.00041107 -0.000261163 -5.06711e-05)
(-0.000483503 -0.000340504 -2.16272e-05)
(-0.000559309 -0.000407827 1.31405e-05)
(-0.00063443 -0.000461057 4.74427e-05)
(-0.000702743 -0.000499556 7.93709e-05)
(-0.00076441 -0.000526169 0.00010883)
(-0.000819741 -0.000543081 0.000134892)
(-0.000867558 -0.000551935 0.000156225)
(-0.000908246 -0.000555652 0.000172493)
(-0.000941388 -0.000556065 0.000183915)
(-0.000963184 -0.000552232 0.000190198)
(-0.000980313 -0.000548721 0.000192994)
(-0.00099768 -0.000548665 0.000193573)
(-0.00101336 -0.000551177 0.000191977)
(-0.00102628 -0.00055517 0.000188353)
(-0.00103765 -0.000560655 0.000183309)
(-0.00105043 -0.000567992 0.000177354)
(-0.0010643 -0.000577024 0.000169923)
(-0.00105922 -0.000578899 0.000158379)
(-0.00105524 -0.000583375 0.000146707)
(-0.00103409 -0.000579626 0.000133251)
(-0.00106806 -0.000598914 0.000125224)
(-0.00108637 -0.000611882 0.000113481)
(-0.00106984 -0.000609217 9.765e-05)
(-0.00106904 -0.000614 8.25541e-05)
(-0.00105878 -0.000614932 6.61705e-05)
(-0.0010583 -0.000617513 4.93148e-05)
(-0.00105239 -0.000617544 3.05702e-05)
(-0.00104928 -0.000617924 1.04223e-05)
(-0.000314321 -1.97793e-05 0.000137279)
(-0.000281976 -8.0028e-05 -8.35151e-05)
(-0.000338945 -0.000147502 -7.66567e-05)
(-0.000396079 -0.000219314 -5.638e-05)
(-0.00046555 -0.000296142 -3.35774e-05)
(-0.000541142 -0.000365518 -2.59975e-06)
(-0.000618383 -0.000422556 3.05264e-05)
(-0.00069229 -0.000466259 6.2861e-05)
(-0.000762081 -0.000498489 9.36093e-05)
(-0.000822089 -0.000517839 0.000120869)
(-0.000876482 -0.000529858 0.000143929)
(-0.000920202 -0.000534485 0.000161531)
(-0.000955225 -0.000535226 0.000174191)
(-0.000984651 -0.000535053 0.000182853)
(-0.00100847 -0.000534536 0.000187815)
(-0.00102667 -0.000534142 0.000189367)
(-0.00104362 -0.000536441 0.000188729)
(-0.0010583 -0.000540502 0.000186096)
(-0.00107079 -0.000545815 0.000181892)
(-0.00108569 -0.000553436 0.000176807)
(-0.00109916 -0.000561783 0.000169704)
(-0.00109117 -0.00056305 0.000158207)
(-0.00108354 -0.000566853 0.000146564)
(-0.00106482 -0.000565305 0.000133859)
(-0.00109167 -0.000579903 0.000125158)
(-0.00110776 -0.000591295 0.000113374)
(-0.00109211 -0.000590289 9.78425e-05)
(-0.00109187 -0.000595851 8.2901e-05)
(-0.00108413 -0.00059922 6.67399e-05)
(-0.00108449 -0.000602458 4.98597e-05)
(-0.00107948 -0.000603597 3.09735e-05)
(-0.00107667 -0.000604451 1.05735e-05)
(-0.000338755 2.57324e-06 0.000173947)
(-0.000296542 -6.2172e-05 -8.07238e-05)
(-0.00032827 -0.000115048 -7.55806e-05)
(-0.000373886 -0.000176724 -5.8786e-05)
(-0.000437886 -0.00024846 -4.30387e-05)
(-0.000514213 -0.000320144 -1.7302e-05)
(-0.000595293 -0.000382156 1.36555e-05)
(-0.000673191 -0.000430082 4.5598e-05)
(-0.000746405 -0.000464842 7.66388e-05)
(-0.000814759 -0.000488749 0.000105254)
(-0.00087348 -0.000502178 0.000129509)
(-0.000924834 -0.000509965 0.000149112)
(-0.000966495 -0.000513415 0.000163858)
(-0.000995716 -0.00051247 0.000173562)
(-0.00101975 -0.000511488 0.000179641)
(-0.00104243 -0.000512748 0.000183015)
(-0.00106199 -0.000515592 0.000183755)
(-0.00107751 -0.000519314 0.000182118)
(-0.00109013 -0.000523965 0.000178737)
(-0.00110502 -0.000530715 0.000174315)
(-0.00111858 -0.00053866 0.000167804)
(-0.00111219 -0.000541687 0.000157196)
(-0.00110343 -0.000546304 0.000146051)
(-0.00109113 -0.000548667 0.000134599)
(-0.00111571 -0.000561454 0.000125839)
(-0.00112824 -0.000570788 0.000113853)
(-0.00111176 -0.000570544 9.83973e-05)
(-0.00110883 -0.000575156 8.33231e-05)
(-0.00109888 -0.00057839 6.70862e-05)
(-0.00109528 -0.000579717 5.00248e-05)
(-0.0010881 -0.000580296 3.10571e-05)
(-0.00108429 -0.000580897 1.06036e-05)
(-0.00036527 2.74565e-05 0.000214631)
(-0.000313211 -4.43535e-05 -7.77496e-05)
(-0.000313417 -8.48668e-05 -7.16013e-05)
(-0.000346614 -0.000135798 -5.76412e-05)
(-0.000403015 -0.000200181 -4.91071e-05)
(-0.000474238 -0.00026998 -2.98304e-05)
(-0.000555638 -0.000334528 -2.66473e-06)
(-0.000640053 -0.000388393 2.77437e-05)
(-0.000722165 -0.000429323 5.87951e-05)
(-0.000794792 -0.000455374 8.78962e-05)
(-0.000861893 -0.000472345 0.000113729)
(-0.000916003 -0.000480069 0.000134507)
(-0.00096126 -0.000484085 0.000150762)
(-0.000999982 -0.000487112 0.000163172)
(-0.00103061 -0.000488764 0.000171612)
(-0.00105382 -0.000489667 0.000176285)
(-0.00107457 -0.000492361 0.000178321)
(-0.00109174 -0.000496155 0.000177965)
(-0.00110566 -0.0005007 0.000175718)
(-0.00112247 -0.000507454 0.000172347)
(-0.00113539 -0.000514712 0.000166396)
(-0.00112657 -0.000517652 0.000156173)
(-0.00111466 -0.000522288 0.000145322)
(-0.00110294 -0.000525342 0.000134394)
(-0.00111876 -0.000533417 0.000124982)
(-0.0011267 -0.000540444 0.000112897)
(-0.00110988 -0.000541202 9.7744e-05)
(-0.00110608 -0.000545806 8.28702e-05)
(-0.00109802 -0.000551016 6.69763e-05)
(-0.00109492 -0.000552979 5.00615e-05)
(-0.00108888 -0.000554858 3.11606e-05)
(-0.00108514 -0.00055585 1.06529e-05)
(-0.000377204 5.16999e-05 0.000247139)
(-0.000336906 -2.64459e-05 -7.57795e-05)
(-0.000303905 -6.00436e-05 -6.71242e-05)
(-0.000319605 -9.94622e-05 -5.35601e-05)
(-0.00036376 -0.000153751 -5.11314e-05)
(-0.000430416 -0.000221057 -3.94948e-05)
(-0.000510401 -0.000287085 -1.74151e-05)
(-0.000594501 -0.000343064 1.01614e-05)
(-0.000679719 -0.000387074 3.98162e-05)
(-0.000762238 -0.0004189 6.92134e-05)
(-0.000834444 -0.000437791 9.58516e-05)
(-0.000898849 -0.00044927 0.000118776)
(-0.000950769 -0.000454726 0.000137067)
(-0.000988771 -0.000456008 0.000150559)
(-0.00102087 -0.000457521 0.000160517)
(-0.00104984 -0.000460441 0.000167474)
(-0.00107357 -0.000463815 0.000171287)
(-0.00109162 -0.000467362 0.000172269)
(-0.00110539 -0.000471157 0.000171076)
(-0.00112051 -0.000476316 0.000168348)
(-0.0011311 -0.00048228 0.000162918)
(-0.00112248 -0.000486412 0.000153674)
(-0.00110972 -0.00049227 0.000143564)
(-0.00110242 -0.000497603 0.000133644)
(-0.00111675 -0.000505081 0.000124492)
(-0.00112098 -0.000510926 0.000112446)
(-0.00110385 -0.000512751 9.75425e-05)
(-0.001097 -0.000516534 8.26489e-05)
(-0.00108616 -0.000521463 6.67783e-05)
(-0.00107829 -0.000521631 4.98024e-05)
(-0.00106904 -0.00052262 3.09606e-05)
(-0.00106393 -0.000523278 1.05854e-05)
(-0.000371529 7.1157e-05 0.000263626)
(-0.000351711 -7.37203e-06 -7.14186e-05)
(-0.000289974 -3.83664e-05 -6.03695e-05)
(-0.000284028 -6.60549e-05 -4.52917e-05)
(-0.000314948 -0.000108483 -4.7677e-05)
(-0.00036949 -0.000167578 -4.38771e-05)
(-0.000446513 -0.000233078 -2.89296e-05)
(-0.000536239 -0.000294415 -6.08221e-06)
(-0.000627604 -0.000343658 2.1119e-05)
(-0.000713779 -0.000378262 4.94987e-05)
(-0.00079497 -0.00040164 7.67795e-05)
(-0.000862196 -0.000413494 0.000100632)
(-0.000920344 -0.000420274 0.000120793)
(-0.000969831 -0.000425141 0.000137197)
(-0.00100808 -0.000428038 0.000149559)
(-0.00103681 -0.000429742 0.000157976)
(-0.00106138 -0.000432603 0.000163303)
(-0.00108062 -0.000436014 0.000165782)
(-0.00109542 -0.000439717 0.00016595)
(-0.00111201 -0.00044493 0.00016449)
(-0.00112205 -0.000450663 0.000160001)
(-0.00111178 -0.000455239 0.000151574)
(-0.00109599 -0.000461571 0.000141928)
(-0.00108691 -0.000466457 0.000132217)
(-0.00109163 -0.000470208 0.000122538)
(-0.00108889 -0.000473938 0.000110427)
(-0.0010694 -0.000475773 9.57682e-05)
(-0.00105972 -0.000478903 8.11031e-05)
(-0.00104941 -0.00048487 6.5702e-05)
(-0.00104138 -0.000485673 4.91059e-05)
(-0.00103324 -0.000487856 3.06135e-05)
(-0.00102778 -0.000488686 1.04783e-05)
(-0.000363485 8.56904e-05 0.000270422)
(-0.000363725 1.11968e-05 -6.67439e-05)
(-0.000283108 -2.14145e-05 -5.42908e-05)
(-0.000258822 -4.0962e-05 -3.64184e-05)
(-0.000271843 -7.10166e-05 -4.07363e-05)
(-0.000314539 -0.000121269 -4.43132e-05)
(-0.000379342 -0.000181338 -3.66587e-05)
(-0.000461138 -0.000240762 -1.96749e-05)
(-0.00055571 -0.00029386 3.37302e-06)
(-0.000650652 -0.00033453 2.97858e-05)
(-0.000737909 -0.000361491 5.66658e-05)
(-0.000817007 -0.000378716 8.19658e-05)
(-0.000880846 -0.000387095 0.000103821)
(-0.000929405 -0.000390103 0.000121506)
(-0.000970844 -0.000392816 0.000135784)
(-0.00100665 -0.000396343 0.000146735)
(-0.00103441 -0.000399568 0.000154079)
(-0.00105462 -0.00040274 0.000158171)
(-0.00106911 -0.000405851 0.000159622)
(-0.00108224 -0.000409395 0.00015885)
(-0.00108741 -0.00041347 0.000154902)
(-0.00107493 -0.00041817 0.000147431)
(-0.00105734 -0.000425286 0.000138509)
(-0.00105 -0.000431171 0.00012948)
(-0.00105359 -0.000435186 0.000120367)
(-0.00104753 -0.000438874 0.000108622)
(-0.00102815 -0.000441804 9.43653e-05)
(-0.00101543 -0.000444444 7.98417e-05)
(-0.00100189 -0.000449533 6.46117e-05)
(-0.00098873 -0.000448929 4.81708e-05)
(-0.000976338 -0.000449758 2.99584e-05)
(-0.000969277 -0.000450154 1.02536e-05)
(-0.000341256 9.17181e-05 0.000257321)
(-0.000364853 2.76958e-05 -6.0885e-05)
(-0.000273244 -7.71367e-06 -4.71787e-05)
(-0.000221227 -2.01699e-05 -2.46824e-05)
(-0.00021823 -3.79049e-05 -2.87938e-05)
(-0.000242867 -7.44125e-05 -3.71707e-05)
(-0.000300375 -0.000128224 -3.818e-05)
(-0.000381763 -0.000188631 -2.94354e-05)
(-0.000473219 -0.000242652 -1.19291e-05)
(-0.000571286 -0.000286905 1.11426e-05)
(-0.000665475 -0.000318536 3.67372e-05)
(-0.000747177 -0.000337585 6.19618e-05)
(-0.000819958 -0.000349901 8.53599e-05)
(-0.000881225 -0.000357588 0.000105791)
(-0.000927559 -0.000361218 0.00012222)
(-0.000961996 -0.000363016 0.000134562)
(-0.000990039 -0.000365317 0.000143507)
(-0.00101048 -0.000367982 0.000149157)
(-0.00102497 -0.000370724 0.000152029)
(-0.00103873 -0.000374459 0.000152679)
(-0.00104369 -0.000378993 0.000150091)
(-0.00103071 -0.000384504 0.000143879)
(-0.0010101 -0.000391825 0.000135449)
(-0.000999041 -0.000396552 0.000126316)
(-0.000992781 -0.000397548 0.000116818)
(-0.00097722 -0.000399063 0.000104952)
(-0.00095303 -0.00040078 9.08048e-05)
(-0.000935172 -0.000401896 7.65296e-05)
(-0.000919971 -0.000406185 6.1914e-05)
(-0.0009058 -0.000405918 4.62232e-05)
(-0.00089432 -0.000407469 2.88155e-05)
(-0.000886409 -0.000407663 9.86793e-06)
(-0.000317524 9.22389e-05 0.000233562)
(-0.000356542 4.0287e-05 -5.45274e-05)
(-0.000265763 2.74318e-06 -4.05489e-05)
(-0.000199435 -6.66328e-06 -1.47494e-05)
(-0.000175742 -1.45691e-05 -1.6503e-05)
(-0.000185751 -3.89826e-05 -2.75894e-05)
(-0.000217674 -7.86905e-05 -3.35102e-05)
(-0.00028221 -0.00013064 -3.24441e-05)
(-0.000377641 -0.000188254 -2.30274e-05)
(-0.000477816 -0.000236021 -4.89393e-06)
(-0.000579087 -0.000272989 1.84558e-05)
(-0.000671371 -0.000298179 4.35046e-05)
(-0.000746125 -0.000312184 6.73232e-05)
(-0.000805441 -0.00031948 8.83443e-05)
(-0.000856769 -0.000325012 0.000106483)
(-0.000899368 -0.000329398 0.000121262)
(-0.000930502 -0.000332279 0.000132139)
(-0.000951923 -0.00033479 0.000139459)
(-0.000965977 -0.000337122 0.000143698)
(-0.000974832 -0.000339343 0.000145015)
(-0.000972473 -0.000342083 0.000142887)
(-0.000953554 -0.000346326 0.00013731)
(-0.000929127 -0.000352826 0.000129294)
(-0.000916605 -0.000357008 0.000120377)
(-0.00090899 -0.000358338 0.00011167)
(-0.000891569 -0.000360674 0.000100613)
(-0.000867896 -0.000362966 8.70487e-05)
(-0.000848235 -0.000363761 7.32517e-05)
(-0.000830295 -0.000366443 5.91269e-05)
(-0.000811698 -0.000364828 4.40196e-05)
(-0.000795504 -0.000364334 2.73122e-05)
(-0.000786218 -0.000363942 9.35046e-06)
(-0.000291834 8.79713e-05 0.00020133)
(-0.000343789 4.87853e-05 -4.90274e-05)
(-0.000255254 1.01594e-05 -3.38897e-05)
(-0.000160801 2.1951e-06 -4.6138e-06)
(-0.000133217 1.30524e-06 -4.1919e-06)
(-0.000121534 -1.04338e-05 -1.37847e-05)
(-0.000147684 -3.88275e-05 -2.49205e-05)
(-0.000197342 -8.2468e-05 -3.14787e-05)
(-0.000270784 -0.000131295 -2.83181e-05)
(-0.000374436 -0.000182972 -1.63165e-05)
(-0.000475348 -0.000222477 3.47925e-06)
(-0.000569593 -0.000251017 2.68877e-05)
(-0.000655091 -0.00027151 5.07241e-05)
(-0.000725672 -0.000284621 7.28491e-05)
(-0.000777847 -0.000291195 9.16566e-05)
(-0.000816598 -0.000294465 0.000106886)
(-0.000846854 -0.000297159 0.000118846)
(-0.000867116 -0.000299288 0.000127343)
(-0.000879562 -0.000301189 0.00013268)
(-0.000887841 -0.000303692 0.000135293)
(-0.000885694 -0.000307258 0.000134758)
(-0.000867964 -0.000312459 0.000130828)
(-0.000841358 -0.00031832 0.000123288)
(-0.000824713 -0.00032083 0.000114028)
(-0.000808783 -0.000319547 0.000105198)
(-0.000779783 -0.000318496 9.38568e-05)
(-0.000749913 -0.000317937 8.0316e-05)
(-0.000722954 -0.000315498 6.68282e-05)
(-0.000701145 -0.000315391 5.35987e-05)
(-0.000680623 -0.000312988 3.9835e-05)
(-0.000665295 -0.000312479 2.47182e-05)
(-0.000654671 -0.000311253 8.45109e-06)
(-0.000258455 7.91182e-05 0.00016143)
(-0.000323367 5.27283e-05 -4.43178e-05)
(-0.000244807 1.52792e-05 -2.83428e-05)
(-0.000143984 7.38984e-06 2.3311e-06)
(-7.86709e-05 7.82088e-06 4.08901e-06)
(-5.64062e-05 4.54895e-06 -1.19004e-06)
(-4.66717e-05 -3.7615e-06 -6.58358e-06)
(-9.2685e-05 -3.01407e-05 -1.96082e-05)
(-0.000174565 -7.96434e-05 -2.83223e-05)
(-0.000262844 -0.00012704 -2.12478e-05)
(-0.00037084 -0.000173137 -5.25072e-06)
(-0.000467525 -0.000206233 1.56084e-05)
(-0.000547253 -0.0002275 3.72728e-05)
(-0.000613732 -0.000241503 5.76043e-05)
(-0.000672707 -0.000252353 7.63141e-05)
(-0.000720019 -0.000259751 9.2597e-05)
(-0.000752377 -0.000263828 0.000105531)
(-0.000773074 -0.000266545 0.000115134)
(-0.000784829 -0.000268631 0.000121489)
(-0.000787812 -0.000270004 0.000124516)
(-0.000776801 -0.00027119 0.000124055)
(-0.000748522 -0.000272719 0.000119881)
(-0.000715604 -0.000275586 0.000112111)
(-0.000694544 -0.000275836 0.00010249)
(-0.000676284 -0.000273711 9.44812e-05)
(-0.000648535 -0.000273575 8.45512e-05)
(-0.000619813 -0.000272527 7.19047e-05)
(-0.000594835 -0.000270273 5.96839e-05)
(-0.000572515 -0.000268449 4.76257e-05)
(-0.000550408 -0.000264949 3.52712e-05)
(-0.000531344 -0.000261945 2.16688e-05)
(-0.000520626 -0.000260226 7.4043e-06)
(-0.000222582 6.94688e-05 0.000123683)
(-0.00030125 5.46601e-05 -4.08733e-05)
(-0.000229259 1.91364e-05 -2.50503e-05)
(-0.000110529 9.04033e-06 4.7312e-06)
(-7.23243e-05 1.32733e-05 9.25578e-06)
(-4.471e-05 1.37719e-05 4.15969e-06)
(-2.87995e-05 1.05447e-05 -2.63304e-06)
(-2.79492e-05 6.03701e-07 -9.05411e-06)
(-6.38738e-05 -2.12985e-05 -1.62583e-05)
(-0.000162342 -7.35384e-05 -1.88687e-05)
(-0.000250764 -0.000116821 -5.10825e-06)
(-0.000346498 -0.000154784 1.20508e-05)
(-0.00043471 -0.000184084 2.99924e-05)
(-0.000506504 -0.000203595 4.72768e-05)
(-0.000558965 -0.000214276 6.29523e-05)
(-0.000598493 -0.000220411 7.70779e-05)
(-0.000628663 -0.000224867 8.94464e-05)
(-0.000646815 -0.000227566 9.89936e-05)
(-0.000655053 -0.000229157 0.000105377)
(-0.000655776 -0.000230451 0.000108874)
(-0.000645176 -0.000232055 0.000109641)
(-0.000621677 -0.000234777 0.000107393)
(-0.000589081 -0.000236697 0.000100139)
(-0.000566295 -0.000235412 9.02548e-05)
(-0.000544679 -0.000231381 8.27e-05)
(-0.000505308 -0.000226024 7.22647e-05)
(-0.000471754 -0.000221058 5.98612e-05)
(-0.000437956 -0.000213241 4.81226e-05)
(-0.000410782 -0.000206869 3.74735e-05)
(-0.000386195 -0.000200884 2.73359e-05)
(-0.000368227 -0.000196954 1.66132e-05)
(-0.000355917 -0.000193598 5.62669e-06)
(-0.000169665 5.50945e-05 8.47944e-05)
(-0.000272859 5.44546e-05 -3.80141e-05)
(-0.000221302 2.29166e-05 -2.53742e-05)
(-0.000107527 1.11241e-05 5.51021e-06)
(-6.60805e-05 1.61149e-05 1.16869e-05)
(-3.389e-05 1.85735e-05 5.04703e-06)
(-1.80911e-05 1.67551e-05 -1.98937e-07)
(-1.74619e-05 9.99611e-06 -2.3079e-06)
(-3.33596e-05 -1.23937e-06 -2.97284e-06)
(-7.13976e-05 -2.42644e-05 -8.18924e-07)
(-0.000158353 -7.06823e-05 7.38901e-06)
(-0.000231644 -0.000106984 1.8608e-05)
(-0.000300129 -0.000134096 2.89825e-05)
(-0.00036578 -0.000155279 3.93778e-05)
(-0.000428051 -0.000172401 5.10781e-05)
(-0.000476663 -0.00018364 6.33333e-05)
(-0.000507031 -0.000189388 7.44831e-05)
(-0.000524333 -0.000192735 8.35908e-05)
(-0.000531807 -0.000194797 8.9911e-05)
(-0.000528799 -0.000195297 9.31179e-05)
(-0.000510425 -0.000194002 9.31461e-05)
(-0.000471973 -0.000189986 8.88301e-05)
(-0.000431433 -0.00018668 8.03218e-05)
(-0.000402692 -0.000181214 6.95847e-05)
(-0.000377278 -0.000174077 6.25005e-05)
(-0.000343472 -0.000169086 5.41251e-05)
(-0.000312335 -0.000162559 4.33728e-05)
(-0.000288407 -0.000156797 3.46586e-05)