/*--------------------------------*- C++ -*----------------------------------*\
  =========                 |
  \\      /  F ield         | OpenFOAM: The Open Source CFD Toolbox
   \\    /   O peration     | Website:  https://openfoam.org
    \\  /    A nd           | Version:  6
     \\/     M anipulation  |
\*---------------------------------------------------------------------------*/
FoamFile
{
    version     2.0;
    format      ascii;
    class       volScalarField;
    location    "45";
    object      yPlus;
}
// * * * * * * * * * * * * * * * * * * * * * * * * * * * * * * * * * * * * * //

dimensions      [0 0 0 0 0 0 0];

internalField   uniform 0;

boundaryField
{
    inlet
    {
        type            calculated;
        value           uniform 0;
    }
    outlet
    {
        type            calculated;
        value           uniform 0;
    }
    roughCylinder
    {
        type            calculated;
        value           nonuniform List<scalar> 
5120
(
16.76
22.7306
35.6002
39.4341
42.6584
44.0605
44.9888
45.2825
45.4953
45.5166
45.6105
45.6525
45.5727
45.2198
44.9253
44.9814
44.8031
44.6163
43.9227
43.8416
43.4974
43.6599
42.3112
39.8187
41.774
43.2311
41.873
41.421
40.2603
40.0991
39.5991
39.2602
9.00485
22.5529
35.1655
39.1027
42.3796
43.8899
44.8693
45.1417
45.3598
45.466
45.5835
45.6339
45.4616
45.1628
45.1058
45.0514
44.8817
44.6925
44.1312
43.9502
43.6397
43.5296
42.7198
39.9394
42.2918
43.7246
42.4919
42.1148
41.0133
40.8496
40.3472
39.9976
6.8564
22.282
34.834
38.9484
42.2364
43.7736
44.7743
45.1197
45.3623
45.4325
45.6097
45.6938
45.6682
45.3164
44.9965
45.0165
44.9356
44.812
44.4859
44.2992
44.1749
43.8527
43.3912
40.3862
42.8322
44.0975
42.7761
42.4136
41.3345
41.2331
40.7849
40.4868
16.2736
21.6633
34.2898
38.6064
41.9798
43.6584
44.7049
45.0385
45.3353
45.5213
45.6857
45.8066
45.6318
45.3728
45.2981
45.2384
45.1775
45.0759
44.8309
44.6092
44.4686
43.9172
43.776
40.655
43.3143
44.5948
43.4149
43.1454
42.1603
42.0855
41.6434
41.3469
9.08369
21.689
33.8981
38.4259
41.8357
43.5532
44.669
45.1364
45.4539
45.5737
45.8059
45.9025
45.9205
45.5908
45.2673
45.2804
45.2895
45.2562
45.174
45.0154
45.0564
44.464
44.4429
41.3763
43.9791
45.1092
43.8351
43.5449
42.567
42.5178
42.1068
41.8507
6.7657
20.8735
33.2255
38.0467
41.581
43.4717
44.6373
45.0955
45.4907
45.7454
45.945
46.0973
45.9516
45.7586
45.6993
45.6506
45.676
45.6746
45.6286
45.5043
45.4991
44.7486
44.7771
41.8113
44.4042
45.5857
44.4607
44.281
43.4343
43.4352
43.0451
42.8039
11.3314
20.6523
32.6655
37.7128
41.3468
43.3216
44.6099
45.2471
45.6642
45.8542
46.1164
46.2444
46.3236
46.0402
45.7491
45.7754
45.8472
45.8924
45.9443
45.9142
46.0874
45.4296
45.4053
42.7293
45.1629
46.2153
45.0041
44.7791
43.9236
43.9069
43.5277
43.3123
13.0648
20.1073
31.8588
37.2513
41.0438
43.2064
44.5522
45.2098
45.7399
46.0585
46.3217
46.5009
46.4217
46.3178
46.297
46.2641
46.3402
46.4207
46.489
46.5323
46.665
45.8787
45.7322
43.2896
45.5415
46.6441
45.5836
45.4824
44.7932
44.8457
44.509
44.322
14.736
19.3665
30.9824
36.598
40.5818
42.9357
44.487
45.343
45.8905
46.2161
46.5229
46.7243
46.8694
46.6498
46.418
46.4628
46.5742
46.6723
46.7847
46.9146
47.2093
46.5763
46.3267
44.3075
46.3763
47.3581
46.2425
46.0846
45.3741
45.3624
45.0183
44.8407
19.1267
19.3698
29.9881
35.9484
40.1306
42.6747
44.2994
45.2543
46.0003
46.4141
46.7912
47.0016
47.0092
47.0103
47.0416
47.0261
47.1321
47.2671
47.3955
47.6187
47.8882
47.1301
46.7153
44.9571
46.7373
47.7246
46.7558
46.7216
46.2057
46.2782
46.002
45.8641
21.5596
18.6754
28.7868
34.8656
39.3215
42.2109
44.1564
45.3071
46.0455
46.5872
46.9735
47.2869
47.4954
47.3434
47.1929
47.2742
47.4249
47.5578
47.6919
47.967
48.3451
47.7493
47.2801
45.9777
47.6151
48.4807
47.5041
47.4109
46.8682
46.8319
46.5281
46.3847
27.132
19.1552
27.4502
33.8149
38.5266
41.6184
43.7027
45.0982
46.1576
46.7219
47.2562
47.5094
47.6217
47.7462
47.8363
47.8489
47.9876
48.1612
48.327
48.7041
49.0649
48.3617
47.7681
46.6747
47.9645
48.7649
47.9192
47.929
47.5984
47.6593
47.4538
47.3574
31.1458
19.9186
26.1836
32.3724
37.3195
40.923
43.4187
44.9712
46.0082
46.8384
47.3475
47.8061
48.0856
48.0065
47.96
48.1108
48.3128
48.4809
48.6315
49.004
49.3885
48.8309
48.2653
47.5913
48.817
49.5081
48.7125
48.6709
48.3182
48.2347
47.9754
47.8627
36.1846
21.1608
24.6339
30.6502
35.8571
39.6813
42.5005
44.5581
46.032
46.8277
47.5529
47.8766
48.1261
48.4042
48.5703
48.6264
48.8093
49.0169
49.2185
49.6964
50.0786
49.4669
48.8444
48.2952
49.1373
49.6843
48.9823
49.0003
48.8587
48.8815
48.756
48.6924
40.1544
23.3769
23.7353
29.0838
34.284
38.6921
41.9028
44.0143
45.5619
46.7745
47.488
48.1299
48.4901
48.4991
48.5892
48.8559
49.1261
49.3389
49.5203
49.9218
50.2305
49.7256
49.1919
48.9859
49.8528
50.3349
49.7493
49.7378
49.5867
49.4506
49.2412
49.1584
42.159
25.268
22.5667
26.5597
31.7804
36.3195
40.2344
43.2701
45.279
46.4874
47.4835
47.9507
48.3888
48.8437
49.1072
49.2249
49.4621
49.7029
49.9396
50.4506
50.8001
50.3284
49.8034
49.6408
50.123
50.3972
49.8396
49.828
49.8696
49.8418
49.8011
49.7633
43.7458
27.3612
22.2574
25.1131
29.8732
34.8488
38.8056
41.7634
44.2692
46.0427
47.1739
48.1115
48.584
48.7085
48.9701
49.3815
49.7293
49.9969
50.2289
50.5999
50.7792
50.3379
49.9217
50.0247
50.602
50.8984
50.5361
50.5429
50.5995
50.4181
50.2574
50.2014
42.9849
28.7997
21.8184
22.0102
26.126
30.8285
36.1198
40.4626
43.1468
45.204
46.6653
47.4938
48.3068
49.0071
49.3666
49.5562
49.8463
50.1162
50.3795
50.8613
51.1555
50.8728
50.5466
50.6458
50.8287
50.8184
50.3878
50.2939
50.4632
50.381
50.4236
50.3996
41.5222
29.5134
21.7571
20.6075
23.1862
28.0194
32.2713
36.6808
41.2204
43.8649
45.9148
47.3814
48.0898
48.4534
49.0048
49.6136
50.0399
50.3665
50.6488
50.9374
50.9585
50.5538
50.2947
50.5377
50.8333
51.0052
50.8667
50.8996
51.1361
50.935
50.8114
50.7845
39.3985
29.8126
21.4731
16.7922
19.1994
21.8799
28.8477
34.299
37.6955
41.8843
44.2138
45.9259
47.4941
48.62
49.122
49.3929
49.7472
50.0313
50.2898
50.6767
50.916
50.8807
50.841
51.0764
50.9986
50.6781
50.3434
50.0466
50.2069
50.0147
50.1125
50.0593
36.0674
29.2168
21.2254
15.4825
3.94113
10.2205
10.1632
23.32
34.3114
38.262
42.6409
45.0427
46.2565
47.1508
48.2773
49.2345
49.7787
50.1659
50.4914
50.6694
50.5094
50.0195
49.8752
50.0099
49.9036
50.0155
50.0324
50.1216
50.4678
50.2899
50.1759
50.1888
33.0323
28.5017
20.3619
5.61307
5.38572
11.3673
12.0463
11.821
18.6783
33.5933
37.8876
41.9848
45.0888
46.9209
47.5975
47.9804
48.4733
48.8034
49.0188
49.2188
49.3471
49.6158
49.9349
50.1553
49.8359
49.1016
48.7604
47.9101
47.6969
47.1799
47.1853
46.9477
28.0152
27.421
20.4714
7.11205
3.72038
5.80304
11.8748
6.54275
14.8468
20.9516
34.6958
38.8104
41.1188
43.3133
45.717
47.3679
48.0847
48.5434
48.9145
48.9847
48.6007
47.6216
47.3484
46.8576
45.8783
45.8649
45.7223
46.0808
46.3769
46.302
46.1098
46.1898
20.0826
25.4065
19.3682
7.85189
8.63343
4.96046
12.5194
7.68096
5.58395
12.4638
20.3151
32.3985
39.0351
41.9361
42.6186
43.1596
44.0903
44.6106
44.7171
44.4641
44.1237
44.8638
45.6195
45.6169
45.0902
43.5163
42.8393
39.5577
36.692
34.078
32.1508
30.1198
12.9097
22.8776
19.4684
2.23958
11.4154
12.7111
9.59079
11.7194
9.29553
14.2407
9.79144
0.833381
17.8734
29.8545
37.9827
41.7493
42.7193
43.2288
43.6464
43.6314
43.0037
39.8414
37.5833
33.6515
28.0386
23.5496
14.9229
15.8297
17.9823
12.7743
17.908
16.1805
11.4641
18.9515
19.4557
9.50551
8.10737
15.249
19.6755
20.3621
18.8794
13.877
7.76275
9.36072
15.0327
13.0275
7.84924
18.5395
25.7512
28.4112
28.0328
25.1375
18.4499
17.6609
15.8993
15.1799
10.3518
18.3489
18.0553
9.32915
2.66972
18.4525
13.0551
19.4384
11.9452
16.6028
17.7935
13.0276
7.70956
12.0599
18.5116
22.4031
23.8053
22.7562
19.4352
8.50746
15.0345
2.80201
9.47872
15.635
6.98499
18.1343
9.47625
5.28433
2.80906
17.4359
17.1022
18.353
15.9755
8.36783
17.8131
9.71003
14.4615
18.0596
19.9618
21.3558
12.3486
17.2719
17.7737
15.9662
12.4454
12.097
15.9646
20.1547
22.7102
23.0394
22.0149
20.2518
15.7775
4.88831
4.68275
15.9856
16.3873
12.5362
17.2719
9.92749
8.5203
9.2895
9.50533
15.4446
18.264
22.5319
24.7306
25.922
26.672
27.23
27.7479
28.041
12.5757
18.1646
19.2267
19.2124
17.9515
17.0921
18.1198
20.4344
22.4772
23.7915
24.6179
24.2589
22.4313
20.9989
19.3933
17.2461
14.6415
13.5336
14.6287
16.741
19.9974
23.6629
26.4532
27.6483
28.7799
29.2315
29.8553
30.1203
30.4518
30.6719
30.9125
31.0666
9.62093
17.1097
19.5945
21.12
21.655
21.7775
22.3233
23.5595
24.9821
26.1898
26.81
26.3364
24.9788
24.2974
24.6523
25.0743
25.3983
25.8649
26.5953
27.593
28.8376
30.1395
31.0472
31.7922
32.686
32.3945
32.4549
32.0925
31.8525
31.6549
31.5868
31.5394
6.25179
15.2423
18.787
21.364
23.1267
24.3078
25.3124
26.3534
27.2494
27.8049
27.5976
26.4197
25.0807
25.3079
26.7019
27.8342
28.6641
29.4838
30.3589
31.3129
32.2952
33.0809
33.366
33.662
34.1035
33.109
32.5525
31.6649
31.0115
30.5904
30.4299
30.3348
4.45227
13.8518
17.7783
20.8651
23.3105
25.1785
26.5986
27.6177
28.2052
28.2467
27.4431
25.7152
24.0636
24.5129
26.6861
28.5898
29.9181
30.9882
31.9013
32.6838
33.2636
33.4667
33.2451
33.2169
33.2698
32.0767
31.3359
30.4354
29.8715
29.6169
29.6563
29.6935
3.98049
13.2163
17.1583
20.3717
23.0647
25.1931
26.7591
27.7639
28.1825
27.9669
27.0606
25.4621
23.8619
23.9613
25.884
28.0038
29.5564
30.6587
31.4277
31.9181
32.1096
31.9874
31.7174
31.7544
31.8048
30.9762
30.3983
29.6878
29.2673
29.1251
29.2629
29.3809
3.97133
12.998
16.8699
20.012
22.6767
24.8
26.3486
27.3242
27.6834
27.4114
26.5034
25.0456
23.6794
23.7677
25.279
27.0225
28.3747
29.2879
29.8539
30.149
30.2023
30.0597
29.8773
29.9465
30.001
29.397
29.0366
28.6004
28.4356
28.53
28.8684
29.1487
4.01442
12.9059
16.6904
19.69
22.2098
24.239
25.753
26.7179
27.0823
26.8155
25.8883
24.3815
22.8864
22.6604
23.8345
25.2849
26.4363
27.2038
27.6363
27.8062
27.7481
27.5185
27.3251
27.4153
27.6295
27.6356
27.8534
27.9637
28.1953
28.5853
29.1245
29.5519
4.08986
12.9048
16.5944
19.4392
21.8063
23.7379
25.2229
26.181
26.5475
26.2622
25.2654
23.6193
21.8451
21.1012
21.6611
22.6646
23.6076
24.3405
24.8621
25.2183
25.4409
25.5674
25.6608
25.8103
26.0634
26.4913
27.2201
27.8415
28.4449
29.1021
29.8155
30.36
4.15578
12.9179
16.5283
19.2367
21.4926
23.3598
24.8061
25.738
26.0791
25.7482
24.6632
22.8458
20.7052
19.3096
19.2288
20.0299
21.1777
22.3311
23.387
24.3305
25.1381
25.7623
26.1301
26.1878
26.0772
26.3264
27.2055
28.1709
29.0824
29.9904
30.8822
31.5276
4.26844
13.0958
16.6428
19.2249
21.375
23.1671
24.5394
25.4043
25.6789
25.2682
24.0703
22.0535
19.5049
17.4613
17.1679
18.5868
20.5696
22.4883
24.2191
25.7512
27.0566
28.0605
28.6382
28.6317
28.054
27.5678
28.0281
29.0575
30.1903
31.3521
32.4437
33.1753
4.29526
13.1735
16.6747
19.1565
21.2091
22.9171
24.2064
24.9934
25.1881
24.6816
23.3484
21.0983
18.099
15.6975
16.5155
19.3781
22.2162
24.6727
26.8138
28.694
30.3081
31.581
32.3608
32.4274
31.6372
30.4131
29.9968
30.7199
31.9267
33.3223
34.6233
35.4211
4.37507
13.4248
16.9237
19.331
21.2921
22.9004
24.08
24.7489
24.8096
24.1368
22.5769
19.9595
16.4039
14.9651
18.2596
22.0808
25.2478
27.9306
30.2848
32.3782
34.2095
35.6985
36.6727
36.8753
36.0757
34.4504
33.1447
33.2841
34.3992
35.9768
37.4725
38.3126
3.265
4.17885
3.30172
2.91149
3.6521
4.40637
4.67328
4.90258
4.17121
2.97728
1.7738
1.07919
1.31816
1.28058
1.33912
0.797398
0.656094
1.20752
1.75791
1.25272
1.5602
1.15319
0.879369
0.936032
0.374256
1.82151
2.4326
2.98433
3.42026
3.66032
3.78976
3.79806
3.81225
3.73726
3.69752
3.72881
3.82578
3.94968
4.11246
4.2831
12.8496
15.2657
13.015
11.7914
12.5088
12.4188
12.0853
11.5872
10.3585
7.87697
4.82167
2.53285
3.244
3.31344
5.92393
3.89625
4.05714
5.58551
2.44662
6.08021
7.25249
6.2637
6.35688
5.44243
3.2339
4.27614
6.17282
7.95055
9.29223
10.1827
10.7892
11.1411
11.481
11.3901
11.4057
11.6128
12.0133
12.416
12.8512
13.2682
18.2692
19.6124
17.4032
15.8196
16.0584
15.4008
14.3856
13.0346
11.2917
6.37446
4.03917
6.61037
3.96283
8.00204
6.91583
8.27155
11.3128
11.6224
12.1224
12.7579
13.0128
12.4434
11.0766
8.59769
6.19656
5.79786
5.26198
7.09818
8.82234
10.0939
10.9108
11.5301
12.2323
12.8242
13.4191
14.0569
14.7131
15.3594
16.0017
16.6124
21.4829
21.8699
19.8888
18.067
17.8965
16.7406
14.8322
12.3176
8.54041
7.17297
8.16259
2.73167
5.02797
10.8372
13.5161
16.2246
18.0407
19.2805
20.0224
20.3097
20.1608
19.7736
19.0536
17.8427
16.0446
13.7219
11.2397
8.92976
8.63577
9.49549
10.6887
11.759
12.8532
13.7706
14.6316
15.5004
16.3706
17.222
18.0506
18.8483
23.5435
23.1744
21.3624
19.2921
18.5418
16.5435
13.0899
8.48674
6.81596
8.96932
8.75306
11.8862
15.9254
18.7509
20.8717
22.443
23.5721
24.3427
24.8035
24.9874
24.9222
24.5813
23.9919
23.126
21.9201
20.2345
17.9515
14.8398
11.9358
9.84816
10.1452
11.3876
13.0187
14.3302
15.463
16.5459
17.6162
18.6581
19.6655
20.6436
24.8307
23.8827
22.0824
19.6241
17.9285
14.5696
10.7381
8.95907
10.7672
13.9216
17.3713
20.1802
22.4582
24.2689
25.6986
26.8138
27.653
28.2407
28.587
28.6953
28.5695
28.2253
27.6688
26.9045
25.9281
24.706
23.1091
20.9387
17.8704
13.9969
11.2781
10.798
12.3984
14.3268
15.8651
17.2185
18.5095
19.7499
20.9396
22.095
25.5024
24.0809
22.0474
19.0004
16.1619
12.4904
11.9694
14.9952
18.1681
20.949
23.2799
25.2623
26.9264
28.3103
29.444
30.3522
31.0514
31.55
31.8456
31.9291
31.7951
31.4521
30.9098
30.1684
29.2311
28.0932
26.7365
25.0783
22.9619
20.0476
16.0065
11.9184
11.2302
13.4352
15.6234
17.3808
18.9466
20.4106
21.7946
23.1277
25.5942
23.6897
21.1718
17.6393
14.9385
15.2157
17.9573
20.8834
23.4419
25.6515
27.5292
29.1302
30.4912
31.6438
32.6082
33.3982
34.0197
34.4719
34.744
34.8256
34.7114
34.4101
33.9238
33.2456
32.3728
31.2992
30.0061
28.4751
26.6775
24.4906
21.5766
17.4765
12.93
11.9435
14.3982
16.8157
18.7786
20.5233
22.1281
23.6491
25.037
22.5884
19.7197
16.9807
17.3555
19.9681
22.7806
25.3246
27.4991
29.3597
30.9469
32.3114
33.4872
34.5001
35.3658
36.091
36.6741
37.1065
37.3797
37.4872
37.4165
37.1652
36.7331
36.1124
35.3054
34.3081
33.1061
31.6764
30.0052
28.0576
25.7357
22.7717
18.6259
13.785
12.5248
15.1527
17.7696
19.923
21.8091
23.5452
23.763
21.0373
19.0224
19.019
21.4462
24.1771
26.7153
28.9218
30.8096
32.4246
33.8158
35.0229
36.0788
37.0048
37.8139
38.5078
39.0781
39.5128
39.812
39.9615
39.9347
39.7299
39.349
38.7823
38.0337
37.0997
35.9759
34.652
33.1134
31.3212
29.2365
26.7939
23.7655
19.6474
14.6375
12.9165
15.5367
18.3329
20.6515
22.6656
22.1321
20.2802
20.5119
22.5241
25.1945
27.7201
29.981
31.9267
33.5995
35.0373
36.2882
37.3862
38.3626
39.2355
40.0148
40.699
41.2748
41.7313
42.062
42.2452
42.2507
42.0857
41.7561
41.25
40.5691
39.6981
38.6446
37.4053
35.9765
34.3322
32.4375
30.247
27.7057
24.6454
20.6486
15.6574
13.1668
15.3938
18.335
20.8079
21.3491
21.4297
23.3821
25.8538
28.4032
30.7107
32.7425
34.4912
35.9997
37.3053
38.4522
39.4733
40.3971
41.2401
42.0089
42.6995
43.2984
43.7871
44.1404
44.3394
44.3524
44.2151
43.9372
43.5037
42.905
42.1026
41.1277
39.9716
38.6323
37.1004
35.3638
33.3858
31.1151
28.5076
25.4644
21.6702
16.9633
13.5614
14.7387
17.66
22.2832
23.7596
26.2608
28.7297
31.1361
33.2484
35.1081
36.7026
38.0863
39.2902
40.36
41.326
42.2167
43.0491
43.832
44.5503
45.1797
45.6839
46.0174
46.1801
46.1325
45.9998
45.7894
45.48
45.0072
44.3041
43.4262
42.3522
41.0979
39.6674
38.0521
36.2355
34.1892
31.8664
29.226
26.2276
22.6907
18.4567
14.6697
14.2616
24.1778
26.1702
28.7839
31.1737
33.4439
35.4067
37.1348
38.6121
39.9012
41.0284
42.0418
42.9709
43.8513
44.7013
45.5159
46.2696
46.9186
47.3838
47.5499
47.6296
47.6903
47.6336
47.451
47.1392
46.7301
46.2669
45.5356
44.5594
43.3851
42.0413
40.533
38.8489
36.9681
34.8669
32.5129
29.8718
26.9341
23.6611
19.9954
16.5444
26.1819
28.2876
30.9139
33.2002
35.3693
37.2209
38.8541
40.2473
41.4689
42.5431
43.5203
44.4371
45.3352
46.2189
47.0751
47.8616
48.498
48.7993
48.9777
49.2275
49.3
49.2682
49.1281
48.8585
48.4734
47.9812
47.4373
46.6096
45.5219
44.2499
42.8254
41.2511
39.5096
37.576
35.4287
33.0505
30.4268
27.568
24.5097
21.3804
27.9655
30.0326
32.6231
34.8298
36.9282
38.7098
40.2835
41.6267
42.8094
43.8564
44.8223
45.7546
46.6865
47.6143
48.5169
49.3323
49.9269
50.1209
50.4327
50.6848
50.7939
50.8123
50.7054
50.4722
50.127
49.6869
49.1758
48.5434
47.5444
46.3353
44.9755
43.4829
41.8494
40.0518
38.0655
35.8717
33.4621
30.8513
28.0644
25.2495
29.3389
31.3714
33.8965
36.0687
38.1288
39.8851
41.4376
42.768
43.9446
44.9938
45.9751
46.9408
47.9162
48.8937
49.8451
50.6903
51.2419
51.4533
51.8114
52.0948
52.2429
52.2938
52.2304
52.0443
51.7463
51.3566
50.9066
50.4055
49.4982
48.3476
47.0401
45.6081
44.053
42.3562
40.4901
38.4342
36.1742
33.7209
31.0844
28.4222
30.2622
32.2524
34.7369
36.9117
38.9799
40.7558
42.3313
43.689
44.8952
45.9764
46.9953
48.005
49.0292
50.0592
51.0652
51.9628
52.5516
52.7655
53.1359
53.4578
53.6418
53.7337
53.7193
53.5868
53.3474
53.0211
52.6435
52.2538
51.4447
50.3522
49.09
47.7029
46.2002
44.5701
42.7862
40.8228
38.6609
36.3088
33.7548
31.1653
30.7275
32.6632
35.1463
37.3616
39.4879
41.3309
42.976
44.4023
45.6749
46.8182
47.8932
48.9545
50.0309
51.1153
52.1827
53.1603
53.8805
54.1026
54.4437
54.8121
55.0407
55.1795
55.2241
55.1573
54.987
54.7325
54.4316
54.145
53.4511
52.4238
51.2049
49.8507
48.3776
46.7804
45.0374
43.1215
41.0082
38.7051
36.181
33.6142
30.7658
32.6304
35.1391
37.4294
39.6586
41.6144
43.3735
44.9096
46.2846
47.5206
48.6729
49.7957
50.9292
52.0711
53.2038
54.2726
55.161
55.5487
55.7943
56.2049
56.4995
56.6955
56.8111
56.8217
56.7302
56.5532
56.3254
56.1087
55.5804
54.6324
53.4556
52.1201
50.6515
49.052
47.3059
45.3897
43.2734
40.9666
38.4216
35.831
30.4671
32.2212
34.7471
37.13
39.4917
41.5984
43.5106
45.1954
46.7083
48.0697
49.3279
50.5297
51.7298
52.9377
54.1434
55.3121
56.3694
57.107
57.2933
57.673
58.0661
58.3357
58.532
58.6304
58.6233
58.5227
58.3567
58.1796
57.8569
57.0019
55.8614
54.525
53.0304
51.3894
49.5943
47.6272
45.4553
43.0911
40.4744
37.8136
29.9638
31.5338
34.0246
36.4825
38.9809
41.2591
43.3531
45.2195
46.9038
48.4234
49.8216
51.1333
52.4169
53.7029
54.9897
56.2569
57.462
58.4814
59.011
59.2347
59.7046
60.0786
60.3586
60.5483
60.6261
60.5944
60.476
60.3086
60.153
59.4282
58.3231
56.9639
55.4108
53.6887
51.7996
49.7329
47.4558
44.9845
42.2501
39.4758
29.3552
30.6536
33.0196
35.4969
38.104
40.5502
42.8367
44.9052
46.7863
48.4922
50.0614
51.5212
52.9151
54.2922
55.6691
57.0348
58.3704
59.6032
60.5752
60.9021
61.2595
61.7526
62.1192
62.3884
62.5426
62.5665
62.4786
62.307
62.1249
61.631
60.5633
59.1645
57.5272
55.6931
53.6749
51.4702
49.05
46.4332
43.5477
40.629
28.6411
29.5893
31.7281
34.1499
36.8144
39.4029
41.8723
44.1457
46.2345
48.1427
49.9013
51.5339
53.0709
54.5508
56.0165
57.4713
58.9072
60.2835
61.5008
62.3556
62.5676
63.0234
63.4846
63.806
64.0109
64.0685
63.986
63.7895
63.5287
63.1802
62.1313
60.6827
58.9501
56.9907
54.8285
52.4683
49.8873
47.1076
44.0595
40.9883
27.7004
28.2259
30.0643
32.3548
35.0296
37.7282
40.3633
42.8328
45.1271
47.2391
49.1904
51.0008
52.695
54.2947
55.838
57.3558
58.8491
60.2989
61.6401
62.7629
63.4136
63.5914
64.0259
64.373
64.5766
64.631
64.5223
64.2737
63.9368
63.5737
62.5041
60.9964
59.1724
57.0979
54.8039
52.3002
49.5709
46.6441
43.4582
40.269
26.3563
26.3746
27.8649
30.0117
32.7057
35.5213
38.3221
40.9807
43.4683
45.7693
47.8976
49.8691
51.7053
53.4223
55.0375
56.5827
58.0815
59.5298
60.8849
62.0765
62.9861
63.407
63.5041
63.7632
63.9091
63.8956
63.7174
63.3876
62.9744
62.4711
61.3192
59.748
57.8589
55.7099
53.3316
50.7367
47.9197
44.9178
41.6887
38.5093
24.6838
23.9647
25.018
27.1044
29.9432
32.9792
36.0069
38.8814
41.564
44.0392
46.3188
48.4185
50.3587
52.1555
53.8204
55.3646
56.8159
58.1928
59.4669
60.5844
61.4644
62.0639
62.2579
62.1556
62.1468
62.0181
61.7343
61.3171
60.8425
60.0993
58.8505
57.2488
55.3543
53.2072
50.8351
48.2547
45.477
42.5525
39.4857
36.613
23.2843
21.4408
21.8568
24.0972
27.3874
30.8754
34.2677
37.4237
40.3169
42.9485
45.3407
47.5179
49.5054
51.323
52.9829
54.4897
55.8582
57.1179
58.2555
59.223
59.9518
60.4415
60.7507
60.6506
60.3422
60.067
59.6933
59.2223
58.6917
57.7359
56.4691
54.9266
53.126
51.0925
48.8527
46.4295
43.8498
41.1831
38.4852
36.1165
22.7028
19.9163
19.8139
22.5287
26.5139
30.5475
34.315
37.7184
40.7675
43.4916
45.9301
48.119
50.0905
51.8689
53.4688
54.8963
56.1675
57.3136
58.3197
59.1416
59.7201
60.0667
60.2761
60.2898
59.8699
59.4472
59.0105
58.5131
57.9273
56.9502
55.7419
54.3112
52.6456
50.7579
48.6717
46.4136
44.0176
41.5591
39.1077
37.0062
22.4958
19.776
20.1425
23.5044
27.9321
32.2304
36.1513
39.636
42.7174
45.4391
47.8498
49.9918
51.9017
53.6069
55.1245
56.4678
57.665
58.7348
59.652
60.3759
60.8565
61.113
61.2532
61.2345
60.7872
60.3073
59.8326
59.3115
58.7549
57.8538
56.7084
55.3742
53.8141
52.0299
50.0404
47.8717
45.5577
43.1684
40.761
38.671
22.6018
20.5765
21.8134
25.5565
30.0698
34.3665
38.2542
41.691
44.7179
47.3822
49.7344
51.818
53.6697
55.3161
56.7733
58.0596
59.2121
60.2338
61.0931
61.753
62.1729
62.3794
62.492
62.4424
61.9744
61.4808
60.9911
60.4563
59.895
59.1207
58.0274
56.7618
55.2798
53.5685
51.6392
49.5165
47.2344
44.86
42.4352
40.2993
22.7657
21.1758
22.792
26.6429
31.1487
35.418
39.2728
42.6742
45.6648
48.2927
50.6093
52.6577
54.4739
56.083
57.5014
58.7519
59.8719
60.8543
61.667
62.2765
62.6476
62.811
62.8976
62.8658
62.4442
61.922
61.4139
60.8772
60.3175
59.581
58.5185
57.3033
55.885
54.2321
52.349
50.2613
48.0078
45.6601
43.2592
41.1487
11.547
25.7364
37.4371
41.3109
44.4082
45.6489
46.4783
46.5443
46.5843
46.3903
46.2995
46.1289
46.1086
46.2279
46.2873
46.0592
45.6463
45.7424
46.2313
46.6248
46.2397
43.6622
43.5677
42.5443
45.4215
43.8438
42.849
42.5301
41.9436
41.6339
41.2217
40.8256
7.85523
25.9916
37.2628
41.2995
44.3707
45.6651
46.4812
46.5568
46.6124
46.467
46.4228
46.2978
46.3081
46.4097
46.4511
46.2732
45.9683
46.0838
46.5898
46.8277
46.3701
43.8105
44.0574
43.0836
45.8122
44.3512
43.4081
43.1043
42.5222
42.2084
41.7861
41.4101
5.69819
25.3745
36.79
41.1055
44.2366
45.6469
46.5095
46.6462
46.7491
46.6501
46.6237
46.5155
46.5002
46.5622
46.5953
46.4638
46.2799
46.4364
46.9414
47.0719
46.6054
44.1752
44.6613
43.6704
46.2136
44.8203
43.938
43.7014
43.1922
42.9392
42.561
42.2368
3.30393
25.5249
36.4869
41.0163
44.2084
45.7302
46.6394
46.8373
46.9788
46.9159
46.9057
46.8033
46.7995
46.8447
46.8771
46.8004
46.6988
46.8634
47.3038
47.3134
46.8368
44.5944
45.3027
44.3166
46.6657
45.3986
44.5755
44.3392
43.8228
43.5565
43.1677
42.8647
8.55246
24.5299
35.8055
40.6848
44.0141
45.6942
46.7002
47.0111
47.2394
47.2453
47.2524
47.1764
47.1536
47.1611
47.1853
47.1465
47.1243
47.3097
47.6895
47.6379
47.188
45.1858
45.9844
44.9657
47.0963
45.9273
45.1906
45.0327
44.5857
44.3783
44.0339
43.7789
10.5723
24.3441
35.2066
40.3719
43.8537
45.6978
46.8159
47.2513
47.559
47.6089
47.6443
47.5692
47.5527
47.5531
47.5882
47.5932
47.6198
47.7857
48.0737
47.957
47.5302
45.7976
46.6866
45.6961
47.59
46.5558
45.8729
45.705
45.2403
45.0203
44.6701
44.4375
11.7832
23.1831
34.2415
39.7764
43.484
45.5482
46.8206
47.4057
47.8159
47.9664
48.0487
48.0179
48.0167
48.01
48.037
48.0621
48.1237
48.2867
48.5059
48.3712
47.9824
46.5085
47.358
46.3898
48.0457
47.1348
46.5522
46.4675
46.0662
45.9017
45.5924
45.3997
13.8429
22.617
33.2484
39.1208
43.0811
45.374
46.8079
47.5617
48.1062
48.3319
48.4555
48.4545
48.4616
48.459
48.5064
48.5606
48.6454
48.7778
48.9211
48.7648
48.4133
47.2054
48.0505
47.1738
48.5688
47.7911
47.2509
47.1479
46.7252
46.559
46.2535
46.0862
11.9963
21.3809
31.8812
38.1074
42.3939
44.9981
46.6703
47.6307
48.2848
48.6097
48.8266
48.8811
48.9366
48.9647
49.02
49.0856
49.1792
49.3003
49.3981
49.2497
48.9329
47.9386
48.6726
47.8944
49.0607
48.4139
47.9812
47.9575
47.5925
47.475
47.2029
47.066
15.6843
20.473
30.4282
36.9525
41.5916
44.5364
46.4438
47.5917
48.4142
48.89
49.1542
49.2733
49.354
49.392
49.4707
49.5594
49.6696
49.7737
49.8342
49.6943
49.4196
48.6424
49.3273
48.6911
49.6043
49.0697
48.6642
48.6157
48.2353
48.1304
47.8758
47.7695
21.0715
19.9902
28.5449
35.3079
40.3738
43.7534
46.01
47.4648
48.4791
49.02
49.4128
49.5975
49.7441
49.8466
49.9551
50.0593
50.1742
50.2774
50.3268
50.2092
49.9596
49.3283
49.8854
49.3936
50.124
49.7084
49.4143
49.4319
49.1046
49.0352
48.8027
48.7168
25.1365
20.065
26.715
33.4162
38.8798
42.767
45.4285
47.1531
48.3155
49.1118
49.5875
49.8651
50.0663
50.1889
50.3212
50.4451
50.5814
50.6923
50.7463
50.6604
50.4565
49.9838
50.4816
50.1396
50.6563
50.3158
50.0355
50.028
49.7044
49.661
49.4629
49.4134
29.3324
20.4914
24.4617
30.9035
36.7849
41.2744
44.4414
46.5848
48.1711
49.0601
49.6767
50.0351
50.3078
50.5157
50.7018
50.8579
51.0088
51.1354
51.2053
51.149
50.9623
50.5758
50.9648
50.7693
51.1704
50.9252
50.7549
50.7915
50.5162
50.4872
50.2986
50.26
31.9429
21.6701
22.4229
27.9065
34.0261
39.2195
43.1162
45.8521
47.5728
48.8099
49.6223
50.121
50.4809
50.7268
50.938
51.1119
51.2939
51.4515
51.5578
51.5524
51.4166
51.1358
51.4663
51.3846
51.6264
51.4113
51.2464
51.2652
51.0264
51.0318
50.8982
50.9009
32.7914
22.7014
20.2778
24.1703
30.3276
36.3368
41.0727
44.3296
46.9071
48.4713
49.4705
50.1015
50.5525
50.8897
51.1609
51.3806
51.592
51.7789
51.9135
51.936
51.8121
51.5779
51.8345
51.8834
52.0863
51.9493
51.8904
51.9333
51.735
51.7333
51.598
51.6037
32.1766
23.4688
18.3531
19.614
25.1231
31.6853
37.7942
42.6608
45.5412
47.5739
49.0164
49.9203
50.5412
50.9641
51.2743
51.5104
51.746
51.9732
52.1609
52.2509
52.1926
52.0291
52.2295
52.337
52.4199
52.2752
52.225
52.2644
52.1432
52.1815
52.1199
52.1683
30.4516
23.4877
15.6973
11.1148
16.2818
25.0853
33.11
38.5655
43.4779
46.5611
48.3788
49.5665
50.3717
50.9126
51.3139
51.6213
51.9042
52.1663
52.3791
52.4855
52.4401
52.307
52.4701
52.6821
52.7794
52.688
52.72
52.7474
52.6497
52.6526
52.585
52.6323
27.9268
22.8499
13.2328
5.67934
12.5677
10.2509
19.2471
33.8277
39.9586
44.1442
47.0983
48.8633
50.0079
50.7585
51.2491
51.5813
51.8953
52.2074
52.48
52.6522
52.6725
52.575
52.6669
52.8641
52.8566
52.7455
52.8025
52.8465
52.8718
52.9127
52.9256
53.0098
25.209
20.9293
14.0224
4.45946
11.4269
11.7243
12.5138
18.4189
31.6894
40.9476
45.2006
47.7582
49.3402
50.3161
50.9635
51.4303
51.8193
52.1654
52.4418
52.6078
52.6442
52.5765
52.6685
52.9509
52.9664
52.8704
52.9616
52.9463
52.9664
52.9329
52.9293
53.0035
22.2136
18.765
13.056
11.2238
11.5712
11.966
11.9732
12.2424
7.83587
32.7683
41.8432
45.9242
48.2099
49.6305
50.5086
51.0586
51.501
51.9045
52.2371
52.452
52.5376
52.4679
52.4403
52.5987
52.467
52.3108
52.4172
52.4102
52.5809
52.5671
52.6517
52.7534
19.6353
17.5255
12.9497
5.13211
12.3799
6.09648
12.9163
12.9133
8.34186
17.606
36.1165
43.0272
46.4388
48.3091
49.4573
50.2481
50.8374
51.2847
51.5834
51.754
51.8246
51.7466
51.7118
51.947
51.7888
51.5752
51.6161
51.4502
51.5264
51.3354
51.3466
51.404
16.1845
16.3171
3.61068
7.84698
13.1332
13.4767
5.45686
13.6476
14.111
14.975
30.433
38.9434
43.5185
46.3176
48.0062
49.0166
49.6998
50.1963
50.5272
50.7174
50.7854
50.62
50.2696
50.0864
49.5461
49.0503
48.9584
48.6844
48.8583
48.6059
48.7293
48.7842
11.5244
15.0011
13.1508
10.4919
11.1301
11.2104
8.0657
8.42305
1.45787
3.9533
22.6406
32.8312
39.1119
42.5386
44.7237
46.251
47.273
47.8304
48.0199
48.0387
47.8782
47.4992
46.9782
46.8583
46.1351
45.3283
44.7183
43.7282
43.0297
41.7392
40.7634
40.306
11.9009
12.6736
6.86003
9.46689
18.9156
24.8788
24.131
17.674
11.5025
8.47922
15.659
10.056
27.731
35.343
39.9188
42.2125
43.4301
43.9927
44.1252
44.0847
43.6847
42.717
40.2801
37.3202
33.2737
28.448
23.8616
18.0115
10.2184
22.4716
15.4301
14.5146
8.9533
10.561
11.6026
14.8228
14.3467
23.8275
28.5266
29.0935
24.1722
11.8718
15.798
14.8097
9.7848
6.72215
15.6938
26.0314
30.6258
31.745
30.7282
28.778
24.5467
17.3832
18.2043
21.2022
10.9675
6.53533
4.96931
13.5442
18.8029
9.78216
19.0582
19.2511
6.17684
10.3989
9.1373
10.8333
13.6073
17.9273
22.2867
25.185
27.1564
27.5886
19.2609
5.08877
11.6553
11.1101
9.75077
2.26333
18.2444
7.41345
5.20788
13.7745
14.4175
17.8248
18.7094
6.98801
11.4546
4.52814
5.75304
8.53713
20.0517
16.2478
17.892
19.8839
6.61155
7.90021
13.4691
17.355
20.52
23.0447
24.9873
26.198
25.6146
23.2219
23.6686
21.325
16.2741
15.7414
11.0618
15.1349
8.98827
10.7675
17.1556
17.4194
15.7016
8.43566
16.4586
21.7446
24.7459
27.5282
30.0097
31.164
29.8978
31.814
32.3581
31.8659
5.7757
16.1331
20.9274
24.6723
27.6869
29.5493
30.3331
30.1818
29.2924
27.8066
25.8794
25.593
25.3329
26.4051
27.5587
27.2383
26.8666
25.7689
25.4322
26.5943
27.7249
30.913
32.8861
34.1445
34.2599
34.4663
34.1118
33.4341
33.2644
32.4024
32.0318
32.2611
7.01279
16.475
21.0215
24.802
27.8661
29.7913
30.4249
29.8937
28.5712
27.3901
27.0023
26.1216
26.2184
27.8328
29.0572
31.3189
32.814
33.3899
34.1711
34.5089
35
35.1296
35.4139
35.2093
36.2409
35.8833
35.877
35.1433
34.2692
33.7408
33.6089
33.3387
5.61574
13.7934
17.9236
21.3939
24.3432
26.2508
26.8701
26.129
24.052
21.0669
18.8755
18.3567
19.4336
22.8545
26.886
31.0904
33.4828
34.7904
35.231
35.8074
36.5081
37.0579
37.3288
37.298
37.1624
36.6667
35.7708
34.6048
33.1565
31.9985
31.5192
31.4066
5.12807
13.8143
17.3374
19.95
22.1076
23.4528
23.6252
22.1299
18.2297
11.0274
9.77694
4.38127
4.4015
10.5978
16.4103
25.2068
30.8074
33.5342
35.1902
36.0029
36.3997
36.3779
35.8393
35.0197
35.0278
34.5091
34.0488
33.3062
32.2835
31.4179
31.2468
31.1329
5.80291
15.216
18.6793
21.0495
22.7964
23.6907
23.4267
21.6527
18.4851
14.4159
13.8164
16.5379
20.7386
21.3849
19.8559
20.4381
24.786
28.4386
30.6739
32.141
33.1415
33.6742
33.8483
34.0117
34.3024
34.3766
34.0988
33.7325
32.8442
31.9649
31.5179
31.2212
5.75938
15.5976
19.327
21.8177
23.6345
24.5564
24.3948
23.3278
21.9482
21.1827
20.6752
21.0115
20.6642
20.9036
23.5412
26.0774
27.8117
29.5098
31.0984
32.2847
33.0504
33.4083
33.3122
33.0175
32.9925
32.6998
32.4592
32.2362
31.6167
30.8154
30.3624
30.0413
5.11094
15.0829
19.0645
21.6787
23.6362
24.7762
25.0755
24.7321
24.063
23.2301
22.753
21.9766
20.3392
17.4
14.4335
19.2752
24.3207
27.2324
28.9416
29.9401
30.4795
30.604
30.4475
30.3654
30.5936
30.7617
31.0109
31.2713
31.0309
30.4683
30.0564
29.7397
4.37614
14.3675
18.7081
21.5578
23.7512
25.1843
25.8681
25.8943
25.4165
24.7786
23.925
22.8168
21.9201
21.506
21.2062
19.6592
21.0123
23.4074
25.3025
26.6282
27.5453
28.2118
28.7059
29.1286
29.5867
29.9256
30.3237
30.7514