/*--------------------------------*- C++ -*----------------------------------*\
  =========                 |
  \\      /  F ield         | OpenFOAM: The Open Source CFD Toolbox
   \\    /   O peration     | Website:  https://openfoam.org
    \\  /    A nd           | Version:  6
     \\/     M anipulation  |
\*---------------------------------------------------------------------------*/
FoamFile
{
    version     2.0;
    format      ascii;
    class       volScalarField;
    location    "32";
    object      yPlus;
}
// * * * * * * * * * * * * * * * * * * * * * * * * * * * * * * * * * * * * * //

dimensions      [0 0 0 0 0 0 0];

internalField   uniform 0;

boundaryField
{
    inlet
    {
        type            calculated;
        value           uniform 0;
    }
    outlet
    {
        type            calculated;
        value           uniform 0;
    }
    roughCylinder
    {
        type            calculated;
        value           nonuniform List<scalar> 
5120
(
9.4489
20.3709
34.0796
37.9808
41.2913
42.8071
43.9139
44.3716
44.5914
44.6269
44.7591
44.7378
44.9264
45.1652
45.0779
44.5128
43.4913
42.5954
42.8954
41.6927
41.6357
41.0038
42.2729
43.276
42.2244
41.3353
41.2271
40.3533
40.2577
39.6463
39.2522
38.6677
14.8135
18.2516
33.4888
37.5435
40.9572
42.642
43.7776
44.157
44.5191
44.6993
44.8206
44.9901
45.3241
45.5404
45.4198
44.8256
43.8772
43.0686
43.3453
42.075
41.9586
41.4484
42.767
43.7364
42.6087
41.7047
41.5807
40.7391
40.6371
40.0424
39.6694
39.1103
8.71415
19.9286
33.056
37.3995
40.8608
42.5493
43.7221
44.2873
44.6198
44.7047
44.9285
45.0387
45.2734
45.5295
45.4848
45.029
44.1618
43.4497
43.6472
42.3097
42.0911
41.675
43.0077
43.9365
42.909
42.1371
42.1051
41.343
41.2805
40.7498
40.4167
39.8927
15.4013
17.0167
32.3352
36.9716
40.5206
42.4159
43.7026
44.1587
44.567
44.8508
45.041
45.262
45.6657
45.9558
45.9168
45.4396
44.6504
43.9812
44.1216
42.8238
42.5238
42.222
43.5334
44.3916
43.441
42.5724
42.5352
41.8043
41.7199
41.2096
40.8941
40.401
7.9395
18.7418
31.708
36.6644
40.3704
42.3043
43.5744
44.2936
44.7933
44.9545
45.2317
45.4183
45.6508
45.9134
45.9409
45.6217
44.9228
44.3282
44.3988
43.1566
42.7597
42.5511
43.8034
44.5907
43.8503
43.0588
43.1399
42.4863
42.4335
41.9895
41.7093
41.2564
14.7093
15.2654
30.6872
36.0906
39.8886
42.0633
43.5758
44.2146
44.7106
45.0965
45.3398
45.5519
45.9777
46.3396
46.3953
46.0325
45.3813
44.8039
44.842
43.7364
43.2885
43.1912
44.3558
45.079
44.4674
43.5464
43.6261
42.9976
42.9103
42.4886
42.2222
41.8052
5.1424
16.8172
29.6675
35.4027
39.5247
41.8381
43.2965
44.2443
44.9528
45.2166
45.5234
45.7671
46.007
46.2688
46.3423
46.1232
45.566
45.0691
45.0865
44.1114
43.6176
43.6068
44.6477
45.3139
44.9048
44.0699
44.2807
43.7264
43.6708
43.3163
43.0819
42.7085
9.89285
11.711
28.1566
34.5096
38.7679
41.3791
43.2427
44.1642
44.7925
45.2881
45.5974
45.8038
46.2468
46.6612
46.7904
46.5132
45.9757
45.5003
45.5255
44.7237
44.2385
44.3193
45.2249
45.8622
45.5474
44.5998
44.8027
44.2631
44.1662
43.8341
43.6109
43.2763
12.4034
14.8208
26.6199
33.2332
38.0379
40.9406
42.729
43.9988
44.9563
45.3622
45.7202
46.0519
46.3294
46.5747
46.6551
46.5036
46.0863
45.7265
45.7814
45.1253
44.6574
44.7913
45.5336
46.1389
45.9599
45.1472
45.4803
45.0131
44.9535
44.6879
44.4935
44.2041
13.1465
3.42308
24.1616
31.7239
36.771
40.0967
42.5224
43.8254
44.6575
45.3108
45.7449
45.993
46.4666
46.9154
47.0946
46.8903
46.4806
46.1623
46.2503
45.7528
45.3483
45.5306
46.1287
46.7366
46.5923
45.6984
46.0022
45.5358
45.4319
45.1862
45.0011
44.7518
15.2578
10.203
22.2716
29.6737
35.4974
39.2588
41.5772
43.3526
44.6537
45.2829
45.7559
46.2359
46.5851
46.8114
46.8806
46.7923
46.5442
46.3795
46.5221
46.1433
45.8018
45.9878
46.4245
47.0097
46.9313
46.2269
46.6536
46.2636
46.2071
46.027
45.869
45.6663
17.5058
2.17102
17.9351
27.0864
33.1648
37.6817
41.0751
42.9098
44.1011
45.0342
45.6989
46.0488
46.5804
47.0752
47.3123
47.1968
46.9516
46.8304
47.0003
46.7404
46.4936
46.6849
47.012
47.6123
47.5295
46.7648
47.1227
46.7176
46.6146
46.4469
46.2956
46.1325
19.3735
7.743
16.3594
23.7945
31.1852
36.0557
39.1935
41.9132
43.7917
44.8113
45.5097
46.223
46.6825
46.9099
46.9844
46.9963
46.9548
47.01
47.2335
47.0532
46.8856
47.0412
47.2392
47.7985
47.7327
47.1967
47.6734
47.3558
47.3162
47.2136
47.0916
46.9755
19.5955
8.66917
9.50086
19.9113
26.3537
32.9724
38.1786
40.7937
42.701
44.1809
45.2819
45.8268
46.4712
47.0552
47.3913
47.3984
47.3477
47.4155
47.6395
47.542
47.4751
47.6175
47.7679
48.3364
48.2599
47.6617
48.0239
47.6719
47.5891
47.4873
47.3698
47.2894
18.8334
11.8853
11.8028
12.138
23.963
29.5342
33.8543
38.7486
41.7347
43.5202
44.6692
45.8177
46.4869
46.767
46.8865
47.0426
47.2122
47.4559
47.7265
47.6821
47.6886
47.7921
47.8625
48.3621
48.2748
47.9321
48.4346
48.1864
48.19
48.1536
48.0746
48.0398
16.544
8.5867
10.5825
8.64629
6.13729
22.7132
32.0717
35.6548
39.3184
42.0014
44.0235
44.9717
45.9225
46.7432
47.2683
47.4219
47.5582
47.7629
48.0087
48.0315
48.1325
48.2314
48.3203
48.8159
48.7346
48.3058
48.6091
48.2988
48.2464
48.1867
48.1067
48.0994
13.2235
10.4734
10.3259
9.9983
10.2738
2.25133
15.811
30.8598
36.5303
40.2346
42.3988
44.5105
45.6347
46.1215
46.3876
46.79
47.1893
47.5838
47.8739
47.9354
48.0631
48.1242
48.1546
48.5091
48.3851
48.246
48.7406
48.5754
48.6517
48.6624
48.6443
48.6787
11.5591
9.61446
10.167
10.2829
5.79375
10.9522
6.55519
13.2145
29.5436
36.1929
40.7516
42.5981
44.3179
45.7177
46.6527
47.0144
47.335
47.6254
47.8871
48.0225
48.238
48.3398
48.4684
48.8111
48.7396
48.448
48.5935
48.29
48.2529
48.1721
48.1222
48.1557
11.9859
5.63325
9.9346
6.50785
11.088
11.3642
6.47456
6.88705
13.1857
30.9668
36.3498
41.1252
43.2543
44.2108
44.8159
45.697
46.4022
46.9637
47.3017
47.4694
47.6003
47.6304
47.6722
47.7311
47.4828
47.5007
47.9524
47.8763
48.0491
48.0729
48.1436
48.2229
7.47039
8.97095
10.1536
9.58766
7.49262
9.76046
12.4409
11.5384
12.8719
14.5463
32.5058
36.397
40.1145
42.9364
44.7547
45.3746
45.8923
46.2431
46.5708
46.8324
47.0733
47.2381
47.4887
47.5595
47.4903
47.2491
47.0132
46.5696
46.4118
46.1195
46.0389
46.0125
3.18306
5.54027
8.30624
5.33026
10.9557
7.64163
9.92013
12.7608
11.7842
3.0601
19.3041
32.7427
37.1243
38.8866
40.1728
42.2224
43.5162
44.3976
44.882
45.1687
45.0201
44.9188
44.9189
44.3415
43.5769
43.5247
43.8323
43.8505
44.1041
44.1205
44.314
44.3657
5.60552
8.41813
1.83518
11.648
11.8654
19.3791
20.8447
10.0979
13.6001
12.2866
14.0833
10.6508
25.7728
34.966
39.4668
40.2647
40.9959
41.4006
41.8363
42.1719
42.3218
42.6293
43.0795
42.668
42.5878
42.1282
40.6165
39.1305
37.763
35.595
34.5621
33.6792
7.89349
11.341
11.0736
10.1147
11.3032
15.282
18.9347
19.8321
15.6243
14.6511
8.96366
7.02598
10.0068
17.712
17.2016
28.6821
33.2364
35.3552
36.5918
37.0235
34.9471
33.5435
32.3405
29.1148
23.0021
16.609
11.5264
8.26519
20.3762
13.0002
15.1333
7.96256
9.30185
15.8108
16.8035
16.9825
17.2441
18.3628
20.0809
20.7061
19.5246
9.83872
5.35634
12.0714
5.51218
13.6287
14.4375
7.95872
4.59696
13.5954
9.6452
3.27293
16.8696
5.57572
13.3435
4.98109
7.6987
16.9074
16.9239
12.0602
16.3729
3.28632
15.5148
12.3114
8.98662
18.4523
21.4975
23.164
24.0786
24.6729
25.0464
24.7855
23.1977
19.7973
15.3562
14.3184
13.651
9.01288
5.50644
16.6784
12.4803
12.7794
16.0978
10.9866
11.7451
12.8859
14.7475
11.9457
16.7165
10.9286
12.4841
6.05616
11.1121
13.8558
15.3396
16.0268
8.10534
18.7207
22.6416
25.1278
26.6704
27.4586
27.5553
26.9074
25.4232
23.7136
23.4587
24.269
24.8911
25.5442
25.1216
23.5546
20.6557
17.2777
14.1503
12.7319
12.4727
14.565
16.1375
17.509
20.1145
23.3682
25.1174
26.6604
26.7612
26.4459
26.1709
25.9809
7.41149
18.2677
22.449
25.2117
27.045
28.0421
28.2155
27.6242
26.4987
25.4613
25.0715
25.1313
25.6224
26.3226
27.3417
27.9019
27.9747
27.7877
27.5893
27.4424
27.5515
27.5387
27.8208
28.1983
28.7809
28.7033
28.7842
28.4561
28.2287
27.8589
27.3917
27.0577
6.80577
17.5096
21.7244
24.554
26.4942
27.6051
27.8637
27.2944
25.9902
23.993
21.9489
20.8682
21.4786
24.0219
27.3821
29.361
30.1012
30.192
30.0015
29.7642
29.6717
29.6529
29.9142
30.2456
30.6553
30.3963
30.2382
29.5335
28.464
27.149
25.9239
25.0352
6.16006
16.5259
20.677
23.4996
25.4892
26.6952
27.0743
26.6061
25.2857
23.2064
20.9276
18.5517
15.4173
13.5438
18.1444
23.1182
26.4881
28.4547
29.4519
29.8393
29.9066
29.7427
29.7731
29.9007
29.7428
28.5868
27.5374
26.159
24.5049
22.6787
21.0295
19.9072
5.59762
15.5773
19.6332
22.4298
24.4637
25.7821
26.3343
26.0945
25.0849
23.4963
21.7063
19.6621
18.1061
18.5164
19.743
20.952
22.235
23.6596
24.9285
25.8341
26.3579
26.572
26.7337
26.8859
26.6939
25.9154
25.1231
24.1498
23.0276
21.6784
20.4833
19.7642
5.10176
14.7303
18.6992
21.4359
23.4423
24.7769
25.3645
25.1443
24.0979
22.3625
20.1483
17.3037
13.6011
11.5413
14.31
18.4222
21.4065
23.3514
24.468
25.0965
25.4511
25.614
25.6934
25.736
25.4931
24.6838
23.703
22.5329
21.3857
20.2779
19.3593
18.7493
4.49578
13.6277
17.4738
20.1004
21.9859
23.2186
23.72
23.4354
22.4371
21.0595
19.4838
17.2756
15.1824
15.7495
16.8293
18.0978
19.7228
21.2825
22.5159
23.3192
23.7135
23.7937
23.7345
23.5908
23.1647
22.446
21.7614
21.0096
20.2717
19.4927
18.8457
18.4331
3.86741
12.1512
15.7432
18.2496
20.0642
21.2838
21.8919
21.9238
21.5547
20.8792
19.3686
16.3376
12.9497
11.7038
14.2169
17.0765
19.2365
20.8091
21.8722
22.49
22.7662
22.8183
22.7475
22.5913
22.275
21.7681
21.229
20.6178
20.0437
19.4495
18.907
18.5514
3.78547
11.6466
14.5486
16.8731
18.7074
20.109
21.0609
21.5959
21.6559
20.8505
18.5268
15.0208
13.3689
15.2256
17.2387
18.7121
19.9648
21.0725
21.9471
22.5302
22.8331
22.9042
22.8154
22.6176
22.3062
21.8803
21.4277
20.9344
20.4565
19.9503
19.4822
19.1965
4.04672
11.5463
14.1731
16.4641
18.461
20.0837
21.2704
21.8847
21.5566
19.9012
16.7643
13.6545
13.5462
15.4467
17.5755
19.4515
20.9591
22.1002
22.9122
23.4253
23.6732
23.7071
23.5813
23.3376
22.9909
22.5482
22.074
21.577
21.1104
20.6273
20.1729
19.9053
4.29892
11.522
14.2422
16.6602
18.7687
20.4245
21.4442
21.4843
20.2024
17.6918
14.4393
13.2297
15.2006
17.7634
19.7465
21.2026
22.3564
23.3034
24.0396
24.5423
24.8068
24.8501
24.7066
24.4163
24.01
23.5108
22.9847
22.455
21.964
21.4726
21.0168
20.7665
4.6745
11.8922
14.7582
17.1139
19.0289
20.2923
20.5732
19.5681
17.5063
14.8518
13.0744
14.5267
17.3013
19.5992
21.373
22.8012
23.9552
24.8667
25.5555
26.0246
26.2724
26.3082
26.1498
25.8214
25.3535
24.7826
24.179
23.5854
23.0408
22.5173
22.0426
21.7951
4.77307
12.318
15.0939
17.138
18.5502
19.0182
18.2776
16.73
14.9473
13.0617
13.7927
16.8169
19.5933
21.7141
23.3386
24.6149
25.6538
26.5075
27.1812
27.6635
27.9422
28.0106
27.8688
27.5265
27.0084
26.3599
25.6618
24.982
24.3605
23.7831
23.2729
23.015
4.15313
11.7987
14.5949
16.3173
17.1562
16.892
15.8692
14.6025
12.831
12.9379
16.1343
19.3661
21.846
23.7483
25.2509
26.48
27.4959
28.3274
28.9882
29.4772
29.7826
29.8886
29.78
29.4491
28.9065
28.1963
27.4066
26.6307
25.9202
25.2758
24.7196
24.44
3.74798
11.4288
13.8013
15.1648
15.5069
14.991
14.1252
12.8731
12.4733
15.411
18.9839
21.8424
24.068
25.8139
27.2217
28.3849
29.3622
30.1836
30.8569
31.3765
31.7268
31.8857
31.8277
31.5316
30.9942
30.2508
29.389
28.523
27.7228
27.006
26.3979
26.0873
2.19003
2.41656
2.49323
2.6437
2.94251
3.67602
4.58328
6.1627
8.39718
10.582
11.1616
11.7476
11.4184
11.9331
11.689
11.428
11.7994
11.7924
11.4976
11.4529
11.0196
9.31521
8.64196
7.93815
7.4275
7.00428
6.6376
6.31058
5.92219
5.38034
4.86901
4.37074
3.61968
3.07639
2.59716
2.31926
2.13398
2.11056
2.48623
3.1835
11.0858
11.3766
11.5222
11.5601
12.1413
13.9338
15.3122
16.6758
17.7303
18.5041
18.933
19.2667
19.3805
19.4239
19.3148
19.1439
18.9135
18.6162
18.2711
17.8972
17.4785
17.0127
16.5905
16.1284
15.6488
15.1164
14.5183
13.8483
13.1408
12.3498
11.499
10.5209
9.36404
8.50146
7.54996
7.05804
6.81576
7.25014
8.64048
10.4463
12.4094
12.8414
13.3906
14.8052
16.356
17.9463
19.2521
20.3185
21.1083
21.6839
22.0542
22.2971
22.3848
22.3875
22.2826
22.1164
21.8798
21.5977
21.2736
20.9194
20.5373
20.1296
19.6946
19.2234
18.7097
18.1173
17.484
16.7798
16.0062
15.1327
14.0883
12.8862
11.6336
10.8807
9.59975
9.12011
8.79248
9.28331
10.564
11.9687
14.0838
14.6595
15.8548
17.6266
19.1778
20.5984
21.7777
22.7133
23.4439
23.9935
24.3768
24.6356
24.7651
24.8053
24.7501
24.6262
24.4327
24.185
23.8891
23.5581
23.1955
22.8009
22.3692
21.8889
21.3649
20.7987
20.1897
19.5221
18.7502
17.8452
16.7695
15.499
14.0867
12.6859
11.4784
10.9608
10.3979
10.7757
11.5668
12.9834
15.9381
16.7103
18.2763
20.0138
21.4623
22.806
23.9026
24.8046
25.5168
26.0695
26.4691
26.7508
26.9147
26.9895
26.9752
26.8885
26.7319
26.5157
26.2443
25.9304
25.5818
25.1962
24.7743
24.3165
23.8307
23.3229
22.7454
22.0958
21.3365
20.4492
19.4088
18.1853
16.788
15.3021
13.6207
11.9779
11.4561
11.5151
11.7481
13.2312
17.8515
18.7864
20.4956
22.0968
23.4736
24.7541
25.7845
26.664
27.3528
27.906
28.3136
28.6146
28.8074
28.916
28.9412
28.8949
28.775
28.5864
28.3349
28.033
27.6948
27.3146
26.919
26.5076
26.0765
25.6023
25.0573
24.4426
23.7143
22.8645
21.8845
20.7535
19.4632
18.0015
16.4185
14.5102
12.4393
11.6576
11.7723
12.9953
19.6863
20.7377
22.4658
23.9119
25.2462
26.4533
27.4384
28.2947
28.9678
29.5241
29.9435
30.2679
30.4923
30.6394
30.7089
30.7032
30.6187
30.4534
30.2105
29.9062
29.5692
29.1827
28.8129
28.4336
28.0387
27.6156
27.1199
26.5629
25.8803
25.0718
24.1498
23.1086
21.9421
20.6207
19.1191
17.4324
15.298
12.8289
11.6345
12.4818
21.3551
22.5012
24.1778
25.4921
26.8074
27.9405
28.9072
29.7408
30.4125
30.9749
31.4127
31.763
32.0225
32.2121
32.3243
32.3596
32.3063
32.155
31.8999
31.5553
31.1996
30.8468
30.4853
30.1136
29.7281
29.3298
28.915
28.4572
27.8472
27.0836
26.2096
25.2388
24.1747
22.9966
21.673
20.1407
18.3695
16.0839
13.4416
12.1139
22.831
24.0805
25.6574
26.8948
28.1971
29.2695
30.2362
31.0495
31.7309
32.2998
32.7598
33.1358
33.4336
33.6633
33.8192
33.8939
33.8695
33.7233
33.4294
33.0822
32.7418
32.4062
32.0446
31.6748
31.2892
30.8945
30.4928
30.079
29.6162
28.9155
28.0822
27.1637
26.1742
25.1068
23.9408
22.6272
21.0944
19.3
17.0135
14.5582
24.151
25.497
26.9455
28.174
29.4444
30.4854
31.453
32.2542
32.9486
33.5251
34.0073
34.408
34.7434
35.0129
35.2133
35.3288
35.3353
35.1931
34.8415
34.5493
34.2028
33.8795
33.5183
33.1477
32.759
32.3613
31.9604
31.5617
31.1502
30.58
29.7841
28.9047
27.9684
26.9794
25.9268
24.7876
23.4986
22.0293
20.2463
18.2701
25.3804
26.7392
28.0991
29.3477
30.5726
31.6103
32.5702
33.3712
34.0749
34.6622
35.165
35.5928
35.9629
36.2724
36.5164
36.6754
36.7187
36.5915
36.197
35.9375
35.5937
35.2759
34.9159
34.5433
34.1507
33.7486
33.3457
32.9541
32.5731
32.0999
31.3312
30.4799
29.5814
28.6473
27.6724
26.6519
25.5379
24.3369
22.8839
21.3982
26.5253
27.8111
29.1627
30.4128
31.607
32.651
33.6024
34.4118
35.1233
35.725
36.2471
36.7025
37.1055
37.4529
37.7371
37.937
38.0169
37.9128
37.5045
37.2576
36.9189
36.6035
36.244
35.8686
35.4725
35.0663
34.6622
34.2767
33.9185
33.4915
32.7393
31.9068
31.0343
30.1374
29.2156
28.2731
27.273
26.2475
25.036
23.8777
27.5211
28.763
30.1389
31.3732
32.5616
33.6092
34.561
35.3818
36.1048
36.7241
37.2671
37.7508
38.186
38.5698
38.8929
39.1326
39.2497
39.1726
38.766
38.5209
38.1862
37.8712
37.5102
37.132
36.7322
36.3235
35.9206
35.5449
35.2057
34.7715
34.0265
33.2047
32.3477
31.4738
30.5865
29.694
28.7679
27.8483
26.7927
25.8459
28.4038
29.619
31.0228
32.2428
33.4409
34.4927
35.4553
36.2908
37.0311
37.6714
38.2382
38.7501
39.2163
39.6335
39.9909
40.2649
40.4152
40.3699
40.0037
39.7347
39.4075
39.089
38.7253
38.3437
37.9409
37.5317
37.1339
36.7729
36.4494
35.9565
35.2114
34.3933
33.5423
32.6792
31.8111
30.9483
30.0688
29.2131
28.2528
27.4383
29.1833
30.3983
31.8182
33.0383
34.2521
35.3153
36.2965
37.1514
37.9143
38.5789
39.1714
39.7108
40.2057
40.6523
41.04
41.3453
41.5289
41.5249
41.2223
40.9089
40.5945
40.266
39.8999
39.514
39.1095
38.7029
38.3147
37.9714
37.6547
37.0642
36.3118
35.4911
34.6376
33.7747
32.9129
32.0639
31.2102
30.3925
29.489
28.761
29.8821
31.1125
32.5402
33.7741
35.0068
36.09
37.0946
37.974
38.7629
39.4538
40.073
40.639
41.1605
41.6339
42.0484
42.3814
42.5964
42.6426
42.424
42.049
41.7504
41.4065
41.0387
40.6488
40.2456
39.8464
39.473
39.139
38.7733
38.1015
37.3413
36.5129
35.6498
34.7783
33.9116
33.0635
32.2194
31.4212
30.5503
29.8805
30.5382
31.7559
33.2049
34.4553
35.7129
36.8214
37.8533
38.7599
39.5762
40.2941
40.9393
41.5297
42.0748
42.571
43.0082
43.3652
43.6127
43.7118
43.5951
43.1528
42.8683
42.5068
42.1389
41.7471
41.3498
40.9644
40.6111
40.2696
39.746
39.0724
38.3077
37.4669
36.588
35.7005
34.8206
33.963
33.1167
32.3231
31.4693
30.8352
31.1251
32.3312
33.8054
35.0775
36.3638
37.5013
38.5624
39.4976
40.341
41.0846
41.7532
42.3642
42.9271
43.4385
43.8881
44.2558
44.5215
44.6456
44.5839
44.2731
43.9172
43.5612
43.1897
42.8024
42.4172
42.0481
41.6976
41.2913
40.6574
39.9846
39.2095
38.3508
37.4512
36.5429
35.644
34.7697
33.9129
33.1125
32.2648
31.6464
31.6099
32.8222
34.3203
35.6211
36.9374
38.1069
39.1972
40.161
41.03
41.797
42.4849
43.1107
43.6848
44.2046
44.6605
45.0378
45.316
45.4662
45.4595
45.2744
44.9089
44.553
44.1766
43.8017
43.432
43.077
42.6987
42.11
41.4943
40.8218
40.0295
39.1489
38.2265
37.2956
36.3753
35.4808
34.6079
33.793
32.942
32.3233
31.9767
33.1995
34.7194
36.0549
37.401
38.6036
39.7233
40.7154
41.6091
42.3979
43.1028
43.7396
44.3202
44.8423
45.2974
45.676
45.9557
46.1151
46.1347
46.0139
45.7965
45.4881
45.0984
44.7288
44.3546
43.9348
43.3988
42.8386
42.237
41.5538
40.7374
39.8334
38.8893
37.9375
36.9967
36.0818
35.1906
34.3563
33.4938
32.8624
32.1929
33.4355
34.9745
36.342
37.7198
38.9543
40.104
41.1252
42.0442
42.8553
43.5768
44.222
44.8052
45.3251
45.78
46.1549
46.4341
46.5972
46.6262
46.5167
46.3033
46.04
45.7228
45.3544
44.9385
44.4802
43.9831
43.4471
42.8472
42.1366
41.2928
40.3677
39.4063
38.4382
37.4808
36.5479
35.6384
34.7825
33.9021
33.2473
32.2326
33.4981
35.0623
36.4541
37.8604
39.1281
40.3078
41.3598
42.3062
43.1417
43.881
44.534
45.1194
45.641
46.0945
46.4702
46.7534
46.9255
46.9666
46.8646
46.638
46.3718
46.0613
45.7108
45.3195
44.8891
44.417
43.8906
43.2761
42.5242
41.6528
40.712
39.7402
38.7626
37.7941
36.8469
35.9209
35.0424
34.1392
33.4525
32.0896
33.3723
34.9597
36.377
37.8059
39.1057
40.3175
41.4017
42.378
43.2398
43.9984
44.6611
45.2523
45.775
46.2288
46.6053
46.8921
47.0726
47.1293
47.0501
46.8446
46.5634
46.2532
45.9135
45.5399
45.1269
44.663
44.1245
43.4728
42.6752
41.7812
40.8325
39.8578
38.8769
37.9026
36.9447
36.0036
35.1017
34.1723
33.4459
31.7834
33.0714
34.6742
36.1168
37.5725
38.9005
40.1442
41.2608
42.2657
43.1527
43.9327
44.6134
45.2117
45.7366
46.1903
46.5675
46.859
47.0525
47.1336
47.0884
46.9137
46.6296
46.3112
45.9683
45.5953
45.178
44.6954
44.1151
43.4014
42.5677
41.6607
40.7113
39.7387
38.7583
37.7802
36.8129
35.8563
34.9285
33.9697
33.1985
31.3592
32.645
34.2555
35.7186
37.2007
38.5609
39.8344
40.9814
42.015
42.9297
43.7354
44.4357
45.0418
45.5691
46.0219
46.398
46.6913
46.8925
46.9909
46.9764
46.8446
46.5989
46.263
45.8961
45.4935
45.0364
44.4962
43.8434
43.0739
42.2173
41.3038
40.355
39.3842
38.4023
37.418
36.4377
35.4613
34.5029
33.5119
32.6951
30.8821
32.1677
33.7858
35.2685
36.7739
38.1631
39.4663
40.644
41.7069
42.6486
43.4769
44.1929
44.8058
45.3333
45.7814
46.1507
46.4378
46.6362
46.7384
46.7372
46.63
46.4155
46.1007
45.7033
45.233
44.6942
44.0684
43.3504
42.5465
41.6745
40.7533
39.7994
38.8233
37.8326
36.8339
35.8324
34.8287
33.8339
32.8116
31.9586
30.4162
31.7116
33.3419
34.8478
36.3769
37.7943
39.1248
40.3297
41.4166
42.3786
43.2214
43.9468
44.5636
45.0863
45.5235
45.878
46.1476
46.328
46.4132
46.3975
46.2797
46.0563
45.7279
45.301
44.7852
44.1861
43.5034
42.7393
41.9045
41.0122
40.075
39.1045
38.1104
37.0986
36.0743
35.0419
34.0044
32.9743
31.934
31.0667
30.0122
31.3294
32.9778
34.5089
36.0607
37.5028
38.8553
40.0806
41.184
42.1582
43.0084
43.7365
44.3507
44.863
45.2839
45.6173
45.862
46.0146
46.0703
46.0242
45.8765
45.6242
45.2682
44.8118
44.2592
43.6164
42.8904
42.0902
41.2256
40.3069
39.3444
38.3472
37.3239
36.281
35.2234
34.1568
33.0891
32.0373
31.001
30.1439
29.6807
31.0236
32.6902
34.2438
35.8137
37.2747
38.643
39.8819
40.9955
41.9766
42.8295
43.5564
44.1649
44.6658
45.07
45.3821
45.6018
45.7259
45.7504
45.6713
45.489
45.2015
44.8097
44.3175
43.7293
43.0512
42.291
41.4577
40.561
39.6107
38.6165
37.587
36.5297
35.452
34.361
33.2657
32.18
31.1243
30.1105
29.2772
29.4068
30.7707
32.4502
34.0195
35.6016
37.075
38.4533
39.7008
40.8204
41.8049
42.6582
43.3823
43.9844
44.4741
44.8629
45.1558
45.3527
45.451
45.4471
45.3376
45.1233
44.8028
44.3775
43.8518
43.2303
42.5195
41.7273
40.8625
39.9347
38.9537
37.9284
36.8675
35.7789
34.671
33.5538
32.4406
31.3483
30.2998
29.313
28.5026
29.1989
30.579
32.2685
33.849
35.4395
36.921
38.3052
39.5572
40.679
41.6634
42.5141
43.2329
43.8266
44.3047
44.6786
44.9536
45.1297
45.2049
45.1758
45.0394
44.7971
44.4477
43.9932
43.4386
42.7884
42.0496
41.2301
40.3388
39.3851
38.3785
37.3281
36.2423
35.1298
34.0007
32.867
31.7445
30.6524
29.613
28.6479
27.8516
29.1652
30.5611
32.2594
33.8471
35.4407
36.9232
38.3059
39.5545
40.6709
41.6486
42.491
43.1994
43.7805
44.2459
44.6057
44.8647
45.0231
45.079
45.0292
44.8711
44.6059
44.2333
43.7554
43.1775
42.5047
41.7441
40.9038
39.993
39.0213
37.9981
36.9329
35.8346
34.7127
33.5783
32.4447
31.3287
30.2495
29.2287
28.2882
27.5098
16.3973
25.1508
36.7478
40.5627
43.609
44.8838
45.7872
46.1543
46.6043
46.8691
46.9648
46.6163
46.1713
45.8221
45.8141
45.8452
45.5226
44.6819
44.2854
43.8476
43.2862
43.6764
42.74
43.6863
44.1874
43.5722
42.8497
42.444
41.664
41.4764
40.8126
40.514
15.9324
25.0568
36.375
40.3423
43.4162
44.7926
45.7373
46.0782
46.4591
46.7287
46.8727
46.6017
46.311
46.0955
46.144
46.1995
45.9228
45.132
44.6646
44.2004
43.5786
43.863
43.2012
44.0238
44.4605
43.8489
43.2196
42.922
42.2373
42.1243
41.543
41.2908
1.13738
24.6735
35.9939
40.1898
43.3229
44.784
45.7428
46.1376
46.5924
46.8285
46.8552
46.5334
46.2457
46.0914
46.1857
46.3408
46.1246
45.34
44.8479
44.406
43.8596
44.1666
43.8481
44.6028
45.0381
44.3414
43.8417
43.5408
42.8028
42.6524
42.0775
41.829
13.9858
24.2778
35.5079
39.9216
43.1231
44.7055
45.7433
46.1698
46.5598
46.7738
46.8793
46.6957
46.5706
46.5507
46.6995
46.8379
46.6114
45.8215
45.2563
44.8088
44.3055
44.5652
44.419
44.9274
45.4221
44.7032
44.3036
44.0886
43.4565
43.3702
42.8774
42.6754
12.6092
23.9093
35.0039
39.7048
43.0291
44.7319
45.7956
46.2612
46.7374
46.983
47.0285
46.8233
46.7081
46.7123
46.8821
47.0613
46.8368
46.0246
45.4726
45.0825
44.7532
45.0646
45.1293
45.4809
46.0723
45.2646
44.9774
44.7528
44.0875
43.9613
43.4772
43.2798
12.1225
23.0194
34.3113
39.3094
42.7619
44.6054
45.7814
46.348
46.797
47.0113
47.1535
47.123
47.1668
47.2908
47.4838
47.592
47.3044
46.485
45.9217
45.5655
45.3534
45.631
45.7355
45.794
46.506
45.7061
45.5043
45.3487
44.7983
44.7306
44.3262
44.1731
14.5076
22.7862
33.6156
38.9283
42.5777
44.6018
45.8474
46.448
46.9788
47.2872
47.4288
47.3816
47.4173
47.5185
47.6905
47.7939
47.4976
46.6975
46.2049
45.9433
45.9273
46.2582
46.4513
46.3461
47.1762
46.3329
46.2032
46.0353
45.4649
45.3588
44.9638
44.8156
12.2762
21.6106
32.6313
38.2828
42.1417
44.3494
45.7416
46.5156
47.0886
47.3696
47.5978
47.7257
47.8985
48.1014
48.275
48.2961
47.9492
47.1901
46.7332
46.5275
46.609
46.9069
47.037
46.6782
47.6145
46.8418
46.7707
46.6636
46.2148
46.1635
45.8462
45.7387
18.0751
21.4653
31.6379
37.5888
41.7218
44.2027
45.7527
46.5834
47.2248
47.6469
47.923
48.0236
48.1623
48.2965
48.4289
48.4463
48.1341
47.4591
47.1057
47.0089
47.2346
47.587
47.7312
47.275
48.282
47.5256
47.4806
47.3616
46.8986
46.8088
46.501
46.3979
20.0746
20.6825
30.3136
36.5351
40.9705
43.7126
45.4577
46.5318
47.3119
47.7263
48.0623
48.3212
48.5776
48.8139
48.9555
48.924
48.606
48.014
47.7145
47.6698
47.9267
48.2406
48.266
47.6547
48.7003
48.0702
48.0581
47.9963
47.6575
47.6202
47.3888
47.3223
24.3021
20.7333
28.9488
35.3536
40.1156
43.2528
45.2962
46.4979
47.3356
47.9262
48.3575
48.5856
48.7958
48.938
49.041
49.0297
48.7933
48.3253
48.141
48.1971
48.5348
48.8983
48.9157
48.3104
49.3468
48.7724
48.7514
48.6772
48.3218
48.244
48.0221
47.9592
26.8493
20.4848
27.3192
33.7434
38.8625
42.3663
44.6813
46.2011
47.3078
47.9344
48.4013
48.7757
49.1013
49.3725
49.5201
49.5075
49.2941
48.9172
48.7821
48.8668
49.1791
49.4831
49.3715
48.7203
49.7187
49.2945
49.2942
49.2768
49.0469
49.0215
48.8743
48.844
31.4456
21.1728
25.6649
31.9248
37.2955
41.3334
44.1525
45.9499
47.1278
47.977
48.6007
48.9598
49.2462
49.4176
49.5378
49.5645
49.4583
49.2118
49.19
49.3555
49.7119
50.0542
49.9568
49.4063
50.3212
49.954
49.9295
49.8945
49.6365
49.5683
49.4275
49.3987
35.1428
22.3933
24.0626
29.6866
35.3313
39.7892
42.9885
45.2045
46.8537
47.8283
48.4937
49.0015
49.4114
49.7549
49.9688
50.0371
49.958
49.7851
49.794
49.9548
50.2528
50.4999
50.2955
49.7762
50.5969
50.3657
50.3654
50.3871
50.2578
50.2464
50.179
50.1811
38.1747
24.2539
22.6551
27.1286
32.6245
37.7168
41.7256
44.5083
46.2827
47.5883
48.5222
49.0718
49.4705
49.7077
49.8782
49.9819
50.0183
49.9676
50.082
50.3046
50.6363
50.918
50.7765
50.4106
51.1242
50.923
50.9092
50.911
50.7365
50.6844
50.6143
50.6123
39.2638
26.1163
21.7249
24.3937
29.7669
35.065
39.5119
42.8572
45.4976
47.0894
48.1431
48.9098
49.4708
49.934
50.2568
50.4336
50.4757
50.4641
50.5849
50.78
51.0439
51.2029
50.9901
50.6789
51.2724
51.1722
51.1962
51.2564
51.2173
51.2337
51.2361
51.2647
38.8325
27.4953
20.9198
20.8034
24.9062
30.8478
36.6542
41.2079
44.046
46.2648
47.805
48.7356
49.3758
49.7399
50.0122
50.209
50.3678
50.4734
50.6951
50.9478
51.2551
51.4661
51.3663
51.2129
51.6927
51.5755
51.5966
51.6204
51.5128
51.4767
51.4562
51.4703
36.867
28.1798
20.5005
17.7708
21.0882
26.2981
32.0127
37.2122
42.1025
44.9215
46.808
48.1465
49.0585
49.773
50.274
50.5849
50.7365
50.8564
51.0512
51.2473
51.456
51.503
51.3554
51.2394
51.5756
51.5178
51.5939
51.6766
51.7234
51.7799
51.8342
51.8785
34.2336
27.8875
19.4383
11.1877
4.00686
11.868
23.6641
33.2387
38.0717
42.6877
45.6253
47.3825
48.5518
49.2135
49.6631
49.9806
50.2772
50.5167
50.8117
51.0741
51.3458
51.5043
51.5179
51.5202
51.7577
51.6396
51.7192
51.7268
51.6166
51.5714
51.5463
51.5513
31.3615
27.044
18.1694
13.109
10.818
2.55316
13.4812
13.2218
32.8074
38.9218
43.1029
45.8116
47.5024
48.7324
49.5761
50.1316
50.4278
50.6683
50.9024
51.0789
51.1695
51.0983
50.9949
50.9359
50.9424
50.7983
50.9156
50.9779
51.1049
51.1928
51.2569
51.2929
28.2557
25.616
16.0037
12.6009
11.2999
5.17627
4.49372
2.36185
18.4168
32.4363
39.8113
43.6883
46.0147
47.2782
48.0525
48.5535
49.0405
49.4205
49.7684
50.0266
50.2217
50.3789
50.4839
50.4808
50.4217
50.1916
50.2859
50.1413
49.8134
49.6336
49.4504
49.3636
25.0249
24.2788
15.1378
8.69122
7.97765
12.6054
6.56888
5.30339
6.68931
18.0917
33.4227
39.7368
43.1978
45.4893
47.0132
48.0342
48.5791
48.9408
49.1843
49.2986
49.0326
48.7765
48.4618
48.1211
47.4649
46.9244
46.868
46.7644
46.9232
46.9552
46.9237
46.8717
20.7762
22.7923
13.8749
7.80404
6.598
9.65084
13.1865
12.678
12.7375
16.2496
27.7857
35.031
39.2829
41.59
42.8905
43.6668
44.3457
44.9312
45.3108
45.4666
45.4857
45.6682
45.6636
45.3309
44.6768
44.0142
43.7149
42.1855
40.3756
38.8555
36.9823
36.0072
15.1101
20.4437
12.8886
3.52566
3.88385
4.7087
6.63794
6.01944
9.02132
13.2632
3.15208
18.899
28.7881
34.3513
38.088
40.5358
42.153
42.6033
42.7474
42.5481
40.4645
39.0581
36.46
33.6155
28.4948
22.0936
14.5964
19.176
8.579
21.7932
10.5473
8.63456
8.02538
18.542
11.4727
12.8595
10.4788
11.5705
11.835
10.2249
12.1193
15.0765
8.11881
7.47613
16.7071
6.07796
16.5709
13.8195
9.81129
14.9322
15.4074
11.0247
10.4841
3.63973
20.0518
12.0052
19.7442
8.02763
13.3964
13.2602
17.8196
13.5429
11.0806
18.0955
11.2737
14.6872
13.3141
3.82856
11.2178
19.8463
24.252
25.3218
23.1909
17.2204
4.89604
13.9325
11.6447
11.4506
16.5477
15.8106
15.9347
15.9985
16.7366
15.8753
16.7438
11.9011
17.2614
14.8698
12.8544
12.1453
13.4731
21.2569
14.7868
12.1823
13.2523
14.9232
5.47271
11.2058
12.0624
8.75119
7.82675
17.2468
25.0107
28.8355
30.3493
31.132
29.8285
22.5323
16.1623
17.0591
16.093
13.487
16.46
10.2301
15.6922
6.87731
9.93255
11.1286
12.2078
14.1873
17.542
21.9493
24.4342
27.312
26.8623
28.0955
28.748
28.4442
4.00232
11.6915
13.3971
12.6261
11.4975
13.3581
20.44
26.7862
30.5598
32.0561
31.4741
29.4523
27.7754
28.2474
29.4405
29.4244
28.3181
28.049
26.9556
27.0941
27.0222
28.1524
29.0655
29.681
30.6351
30.3016
30.1039
29.6102
29.3547
28.8267
27.9253
27.8511
6.11332
12.97
16.2585
18.6679
18.8175
17.9114
19.9155
24.6202
29.3022
32.4111
33.1603
30.3298
26.3296
26.4126
27.7161
28.8036
29.3466
30.2545
30.5636
30.5097
30.5814
30.3594
30.4802
30.6119
30.7348
30.6228
30.5771
30.2251
29.4447
28.5042
27.7635
26.8663
3.65635
9.66448
13.6937
18.3239
21.4439
22.274
22.7993
25.0293
28.2133
30.8107
30.7983
27.0484
22.0482
20.9739
22.4352
24.2421
26.5935
29.1508
30.4911
30.9477
31.015
30.9028
30.814
30.7555
30.7756
29.4152
28.2078
26.7891
24.9856
23.1355
20.9544
19.7543
0.621288
2.04068
8.51728
13.1042
18.0473
21.1785
22.778
24.1867
25.6634
26.2756
24.0941
17.4237
7.59936
7.88537
8.55769
2.89858
9.45441
18.4764
23.3928
25.8377
26.8297
26.9562
26.758
26.6507
26.2405
25.1646
24.3074
23.4077
22.2115
21.0197
20.2973
19.9344
1.43066
3.93105
6.3351
4.87892
10.5917
14.437
16.9129
18.2377
18.5879
17.7967
12.8761
8.8015
10.7585
11.8174
16.6108
20.0675
21.9239
21.3422
21.826
23.0963
24.2169
24.8517
25.1226
25.1557
25.0973
24.645
23.9847
23.0887
21.9965
21.0069
20.1641
19.7398
1.80872
6.70938
6.6282
5.85115
6.57218
6.85898
6.13348
1.09844
13.2905
8.86628
11.7824
8.19545
11.1192
12.7508
12.6589
12.9021
16.3338
20.6839
23.0641
24.2087
24.7501
24.8543
24.661
24.3433
23.7729
22.8411
22.0293
21.2478
20.4118
19.6628
19.0842
18.7994
3.15266
11.0372
11.9797
13.3349
13.9791
13.5262
12.0056
7.53622
10.4717
10.9158
9.69604
12.2707
13.8629
15.5414
17.4901
18.8806
18.7644
18.7405
20.0661
21.5084
22.379
22.671
22.6191
22.409
22.0811
21.6098
21.1861
20.6899
20.1018
19.5659
19.1481
18.9501
2.97583
10.9723
12.4282
14.0604
15.8436
17.2329
18.0085
18.53
17.5263
16.7181
17.4311
16.9212
16.9754
17.1026
16.8719
17.3117
19.2931
20.9714
21.8247
22.3463
22.664
22.7509
22.6551
22.4455
22.1237
21.7178
21.2963
20.8392
20.3778
19.9566
19.6258