/*--------------------------------*- C++ -*----------------------------------*\
  =========                 |
  \\      /  F ield         | OpenFOAM: The Open Source CFD Toolbox
   \\    /   O peration     | Website:  https://openfoam.org
    \\  /    A nd           | Version:  6
     \\/     M anipulation  |
\*---------------------------------------------------------------------------*/
FoamFile
{
    version     2.0;
    format      ascii;
    class       volScalarField;
    location    "35";
    object      omega;
}
// * * * * * * * * * * * * * * * * * * * * * * * * * * * * * * * * * * * * * //

dimensions      [0 0 -1 0 0 0 0];

internalField   nonuniform List<scalar> 
380496
(
843.917
843.917
843.917
843.917
843.917
843.917
843.917
843.917
843.917
843.917
843.917
843.917
843.917
843.917
843.917
843.917
843.917
843.917
843.917
843.917
843.917
843.917
843.917
843.917
843.917
843.917
843.917
843.917
843.917
843.917
843.917
843.917
843.917
843.917
843.917
843.917
843.917
843.917
843.917
843.917
843.917
843.917
843.917
843.917
843.917
843.917
843.917
843.917
843.917
843.917
843.917
843.917
843.917
843.917
843.917
843.917
843.917
843.917
843.917
843.917
843.917
843.917
843.917
843.917
843.917
843.917
843.917
843.917
843.917
843.917
843.917
843.917
843.917
843.917
843.917
843.917
843.917
843.917
843.917
843.917
843.917
843.917
843.917
843.917
843.917
843.917
843.917
843.917
843.917
843.917
843.917
843.917
843.917
843.917
843.917
843.917
843.917
843.917
843.917
843.917
843.917
843.917
843.917
843.917
843.917
843.917
843.917
843.917
843.917
843.917
843.917
843.917
843.917
843.917
843.917
843.917
843.917
843.917
843.917
843.917
843.917
843.917
843.917
843.917
843.917
843.917
843.917
843.917
843.917
843.917
843.917
843.917
843.917
843.917
843.917
843.917
843.917
843.917
843.917
843.917
843.917
843.917
843.917
843.917
843.917
843.917
843.917
843.917
843.917
843.917
843.917
843.917
843.917
843.917
843.917
843.917
843.917
843.917
843.917
843.917
843.917
843.917
843.917
843.917
843.917
843.917
843.917
843.917
843.917
843.917
843.917
843.917
843.917
843.917
843.917
843.917
843.917
843.917
843.917
843.917
843.917
843.917
843.917
843.917
843.917
843.917
843.917
843.917
843.917
843.917
843.917
843.917
843.917
843.917
843.917
843.917
843.917
843.917
843.917
843.917
843.917
843.917
843.917
843.917
843.917
843.917
843.917
843.917
843.917
843.917
843.917
843.917
843.917
843.917
843.917
843.917
843.917
843.917
843.917
843.917
843.917
843.917
843.917
843.917
843.917
843.917
843.917
843.917
843.917
843.917
843.917
843.917
843.917
843.917
843.917
843.917
843.917
843.917
843.917
843.917
843.917
843.917
843.917
843.917
843.917
843.917
843.917
843.917
843.917
843.917
843.917
843.917
843.917
843.917
843.917
843.917
843.917
843.917
843.917
843.917
843.917
843.917
843.917
843.917
843.917
843.917
843.917
843.917
843.917
843.917
843.917
843.917
843.917
843.917
843.917
843.917
843.917
843.917
843.917
843.917
843.917
843.917
843.917
843.917
843.917
843.917
843.917
843.917
843.917
843.917
843.917
843.917
843.917
843.917
843.917
843.917
843.917
843.917
843.917
843.917
843.917
843.917
843.917
843.917
843.917
843.917
843.917
843.917
843.917
843.917
843.917
843.917
843.917
843.917
843.917
843.917
843.917
843.917
843.917
843.917
843.917
843.917
843.917
843.917
843.917
843.917
843.917
843.917
843.917
843.917
843.917
843.917
843.917
843.917
843.917
843.917
843.917
843.917
843.917
843.917
843.917
843.917
843.917
843.917
843.917
843.917
843.917
843.917
843.917
843.917
843.917
843.917
843.917
843.917
843.917
843.917
843.917
843.917
843.917
843.917
843.917
843.917
843.917
843.917
843.917
843.917
843.917
843.917
843.917
843.917
843.917
843.917
843.917
843.917
843.917
843.917
843.917
843.917
843.917
843.917
843.917
843.917
843.917
843.917
843.917
843.917
843.917
843.917
843.917
843.917
843.917
843.917
843.917
843.917
843.917
843.917
843.917
843.917
843.917
843.917
843.917
843.917
843.917
843.917
843.917
843.917
843.917
843.917
843.917
843.917
843.917
843.917
843.917
843.917
843.917
843.917
843.917
843.917
843.917
843.917
843.917
843.917
843.917
843.917
843.917
843.917
843.917
843.917
843.917
843.917
843.917
843.917
843.917
843.917
843.917
843.917
843.917
843.917
843.917
843.917
843.917
843.917
843.917
843.917
843.917
843.917
843.917
843.917
843.917
843.917
843.917
843.917
843.917
843.917
843.917
843.917
843.917
843.917
843.917
843.917
843.917
843.917
843.917
843.917
843.917
843.917
843.917
843.917
843.917
843.917
843.917
843.917
843.917
843.917
843.917
843.917
843.917
843.917
843.917
843.917
843.917
843.917
843.917
843.917
843.917
843.917
843.917
843.917
843.917
843.917
843.917
843.917
843.917
843.917
843.917
843.917
843.917
843.917
843.917
843.917
843.917
843.917
843.917
843.917
843.917
843.917
843.917
843.917
843.917
843.917
843.917
843.917
843.917
843.917
843.917
843.917
843.917
843.917
843.917
843.917
843.917
843.917
843.917
843.917
843.917
843.917
843.917
843.917
843.917
843.917
843.917
843.917
843.917
843.917
843.917
843.917
843.917
843.917
843.917
843.917
843.917
843.917
843.917
843.917
843.917
843.917
843.917
843.917
843.917
843.917
843.917
843.917
843.917
843.917
843.917
843.917
843.917
843.917
843.917
843.917
843.917
843.917
843.917
843.917
843.917
843.917
843.917
843.917
843.917
843.917
843.917
843.917
843.917
843.917
843.917
843.917
843.917
843.917
843.917
843.917
843.917
843.917
843.917
843.917
843.917
843.917
843.917
843.917
843.917
843.917
843.917
843.917
843.917
843.917
843.917
843.917
843.917
843.917
843.917
843.917
843.917
843.917
843.917
843.917
843.917
843.917
843.917
843.917
843.917
843.917
843.917
843.917
843.917
843.917
843.917
843.917
843.917
843.917
843.917
843.917
843.917
843.917
843.917
843.917
843.917
843.917
843.917
843.917
843.917
843.917
843.917
843.917
843.917
843.917
843.917
843.917
843.917
843.917
843.917
843.917
843.917
843.917
843.917
843.917
843.917
843.917
843.917
843.917
843.917
843.917
843.917
843.917
843.917
843.917
843.917
843.917
843.917
843.917
843.917
843.917
843.917
843.917
843.917
843.917
843.917
843.917
843.917
843.917
843.917
843.917
843.917
843.917
843.917
843.917
843.917
843.917
843.917
843.917
843.917
843.917
843.917
843.917
843.917
843.917
843.917
843.917
843.917
843.917
843.917
843.917
843.917
843.917
843.917
843.917
843.917
843.917
843.917
843.917
843.917
843.917
423.923
423.923
423.923
423.923
423.923
423.923
423.923
423.923
423.923
423.923
423.923
423.923
423.923
423.923
423.923
423.923
423.923
423.923
423.923
423.923
423.923
423.923
423.923
423.923
423.923
423.923
423.923
423.923
423.923
423.923
423.923
423.923
423.923
423.923
423.923
281.628
267.585
268.727
269.813
269.916
269.765
269.662
269.6
269.573
269.553
269.549
269.544
269.55
269.554
269.566
269.578
269.594
269.611
269.632
269.655
269.68
269.708
269.737
269.772
269.805
269.847
269.882
269.933
269.971
270.029
270.067
270.133
270.165
270.248
270.25
281.466
267.57
268.649
269.69
269.766
269.612
269.501
269.442
269.41
269.396
269.387
269.391
269.393
269.409
269.417
269.441
269.454
269.486
269.503
269.542
269.564
269.609
269.636
269.689
269.719
269.78
269.814
269.884
269.919
269.997
270.03
270.118
270.129
270.252
270.148
281.132
267.395
268.476
269.482
269.533
269.371
269.256
269.199
269.168
269.159
269.153
269.165
269.172
269.197
269.212
269.246
269.267
269.31
269.336
269.388
269.42
269.481
269.518
269.588
269.63
269.711
269.757
269.848
269.896
269.998
270.043
270.159
270.182
270.34
270.255
280.564
267.017
268.178
269.159
269.176
269.001
268.882
268.827
268.798
268.795
268.796
268.816
268.832
268.866
268.89
268.935
268.966
269.021
269.058
269.123
269.167
269.242
269.291
269.377
269.433
269.53
269.59
269.699
269.761
269.882
269.94
270.078
270.11
270.296
270.209
280.147
266.78
267.831
268.743
268.74
268.56
268.441
268.386
268.361
268.362
268.369
268.394
268.417
268.459
268.492
268.546
268.587
268.653
268.702
268.78
268.836
268.926
268.99
269.092
269.162
269.278
269.354
269.482
269.561
269.703
269.78
269.941
269.991
270.209
270.131
279.34
266.189
267.276
268.142
268.108
267.917
267.799
267.749
267.732
267.742
267.76
267.797
267.832
267.885
267.932
267.999
268.054
268.133
268.197
268.289
268.361
268.467
268.547
268.667
268.754
268.888
268.982
269.129
269.227
269.39
269.484
269.669
269.735
269.983
269.909
278.498
265.571
266.595
267.391
267.329
267.131
267.015
266.97
266.96
266.979
267.008
267.055
267.102
267.166
267.225
267.304
267.374
267.467
267.546
267.653
267.741
267.863
267.96
268.097
268.203
268.355
268.468
268.636
268.753
268.937
269.052
269.26
269.344
269.623
269.557
277.443
264.752
265.711
266.431
266.34
266.137
266.026
265.988
265.989
266.019
266.06
266.118
266.178
266.255
266.328
266.421
266.505
266.612
266.706
266.829
266.934
267.072
267.187
267.342
267.466
267.637
267.768
267.956
268.092
268.297
268.431
268.662
268.763
269.071
269.01
276.189
263.733
264.633
265.274
265.152
264.946
264.843
264.818
264.833
264.878
264.934
265.008
265.083
265.174
265.263
265.369
265.469
265.591
265.702
265.84
265.962
266.117
266.25
266.422
266.564
266.754
266.904
267.111
267.265
267.491
267.643
267.895
268.013
268.349
268.292
274.955
262.704
263.455
264.007
263.864
263.66
263.565
263.549
263.576
263.631
263.7
263.784
263.871
263.974
264.075
264.193
264.307
264.441
264.566
264.718
264.855
265.025
265.173
265.361
265.519
265.725
265.892
266.116
266.288
266.531
266.699
266.97
267.103
267.462
267.408
273.277
261.26
261.96
262.433
262.261
262.062
261.986
261.992
262.042
262.118
262.207
262.309
262.415
262.534
262.652
262.786
262.916
263.066
263.207
263.375
263.528
263.714
263.879
264.084
264.259
264.482
264.666
264.907
265.096
265.357
265.542
265.831
265.978
266.36
266.308
271.661
259.851
260.318
260.687
260.5
260.31
260.248
260.266
260.329
260.417
260.518
260.632
260.75
260.88
261.011
261.157
261.301
261.463
261.619
261.8
261.969
262.169
262.35
262.57
262.762
263
263.201
263.459
263.663
263.941
264.141
264.449
264.609
265.013
264.962
269.373
257.805
258.193
258.483
258.278
258.109
258.079
258.131
258.225
258.341
258.468
258.604
258.745
258.894
259.044
259.207
259.369
259.547
259.722
259.919
260.106
260.322
260.521
260.757
260.967
261.223
261.441
261.716
261.938
262.233
262.45
262.775
262.95
263.374
263.325
267.102
255.736
255.831
256.014
255.802
255.655
255.65
255.724
255.838
255.972
256.116
256.268
256.424
256.587
256.754
256.93
257.108
257.3
257.491
257.702
257.907
258.138
258.355
258.606
258.834
259.106
259.342
259.633
259.873
260.184
260.417
260.759
260.948
261.393
261.344
264.032
252.899
252.822
252.929
252.719
252.615
252.659
252.778
252.93
253.098
253.271
253.449
253.629
253.814
254.001
254.196
254.394
254.604
254.814
255.041
255.265
255.513
255.75
256.018
256.266
256.554
256.81
257.118
257.376
257.704
257.956
258.314
258.518
258.983
258.935
260.551
249.615
249.247
249.281
249.087
249.035
249.127
249.291
249.48
249.682
249.883
250.087
250.289
250.495
250.701
250.914
251.129
251.356
251.584
251.827
252.07
252.333
252.589
252.872
253.14
253.444
253.72
254.044
254.322
254.666
254.935
255.309
255.53
256.012
255.964
256.376
245.609
244.863
244.815
244.652
244.668
244.818
245.032
245.255
245.49
245.714
245.942
246.16
246.385
246.604
246.834
247.062
247.303
247.546
247.803
248.061
248.339
248.612
248.91
249.197
249.516
249.812
250.151
250.45
250.809
251.099
251.491
251.73
252.233
252.192
249.996
239.627
238.832
238.835
238.734
238.846
239.081
239.37
239.647
239.932
240.187
240.448
240.684
240.932
241.163
241.411
241.649
241.907
242.159
242.433
242.704
242.999
243.29
243.607
243.914
244.257
244.575
244.943
245.265
245.656
245.971
246.39
246.659
247.176
247.176
240.798
231.462
230.495
230.666
230.737
230.981
231.286
231.607
231.891
232.172
232.415
232.666
232.889
233.131
233.353
233.602
233.835
234.101
234.353
234.639
234.914
235.225
235.535
235.889
236.233
236.613
236.977
237.377
237.754
238.173
238.546
238.994
239.327
239.86
239.973
214.295
212.129
212.388
213.313
213.944
214.673
215.388
216.054
216.647
217.208
217.714
218.213
218.673
219.141
219.58
220.037
220.468
220.925
221.358
221.821
222.262
222.735
223.185
223.667
224.126
224.614
225.081
225.568
226.039
226.519
226.987
227.448
227.91
228.299
228.929
9.02126
7.66186
7.58858
7.55475
7.6063
7.67704
7.76759
7.85832
7.95847
8.04982
8.14589
8.23049
8.3195
8.39692
8.48022
8.55235
8.63232
8.70108
8.77991
8.8465
8.92606
8.99082
9.07278
9.13482
9.22092
9.27795
9.37075
9.41871
9.52222
9.55411
9.67501
9.67788
9.82783
9.77248
9.97062
135.248
128.879
128.554
129.049
129.248
129.243
129.19
129.14
129.101
129.072
129.05
129.034
129.024
129.018
129.015
129.016
129.019
129.026
129.035
129.046
129.06
129.075
129.094
129.115
129.139
129.165
129.196
129.228
129.268
129.305
129.356
129.403
129.462
129.525
129.597
135.076
128.678
128.314
128.785
128.972
128.961
128.905
128.853
128.813
128.783
128.761
128.747
128.738
128.734
128.734
128.738
128.745
128.755
128.768
128.783
128.802
128.821
128.846
128.869
128.901
128.929
128.969
129.002
129.051
129.089
129.148
129.194
129.254
129.327
129.343
134.794
128.386
128.006
128.463
128.64
128.625
128.566
128.513
128.472
128.444
128.425
128.414
128.408
128.409
128.413
128.422
128.435
128.45
128.47
128.491
128.517
128.544
128.577
128.608
128.649
128.686
128.735
128.777
128.837
128.884
128.955
129.009
129.083
129.168
129.2
134.361
127.975
127.614
128.068
128.234
128.21
128.148
128.094
128.055
128.029
128.013
128.006
128.005
128.011
128.021
128.036
128.054
128.076
128.101
128.129
128.162
128.196
128.236
128.275
128.323
128.367
128.424
128.473
128.541
128.595
128.673
128.734
128.812
128.903
128.936
134.043
127.65
127.239
127.656
127.806
127.775
127.708
127.652
127.611
127.586
127.571
127.566
127.568
127.577
127.591
127.609
127.632
127.659
127.69
127.723
127.762
127.802
127.848
127.894
127.95
128.001
128.066
128.123
128.198
128.26
128.346
128.415
128.5
128.602
128.638
133.489
127.122
126.722
127.125
127.26
127.219
127.149
127.092
127.054
127.032
127.022
127.023
127.03
127.045
127.064
127.089
127.118
127.152
127.189
127.23
127.275
127.323
127.377
127.43
127.493
127.552
127.624
127.688
127.771
127.84
127.932
128.009
128.098
128.209
128.244
132.924
126.585
126.161
126.532
126.646
126.595
126.52
126.462
126.424
126.405
126.398
126.403
126.415
126.434
126.459
126.49
126.524
126.564
126.608
126.655
126.707
126.761
126.822
126.883
126.952
127.019
127.098
127.17
127.259
127.336
127.434
127.52
127.613
127.735
127.77
132.248
125.942
125.497
125.834
125.925
125.863
125.783
125.724
125.688
125.672
125.67
125.679
125.696
125.722
125.752
125.789
125.829
125.875
125.925
125.979
126.037
126.098
126.165
126.234
126.31
126.384
126.469
126.549
126.644
126.729
126.832
126.926
127.022
127.154
127.186
131.463
125.209
124.748
125.049
125.114
125.039
124.954
124.896
124.864
124.853
124.857
124.873
124.896
124.928
124.965
125.008
125.055
125.108
125.164
125.225
125.29
125.358
125.432
125.507
125.59
125.671
125.763
125.85
125.951
126.043
126.152
126.253
126.352
126.494
126.524
130.701
124.495
123.98
124.228
124.267
124.18
124.091
124.033
124.004
123.996
124.004
124.024
124.053
124.089
124.131
124.18
124.232
124.29
124.352
124.418
124.489
124.563
124.643
124.724
124.813
124.9
124.998
125.091
125.198
125.296
125.41
125.517
125.618
125.77
125.796
129.711
123.569
123.043
123.256
123.266
123.166
123.076
123.022
122.999
123
123.016
123.045
123.082
123.126
123.176
123.231
123.291
123.356
123.424
123.498
123.575
123.656
123.742
123.83
123.925
124.019
124.123
124.223
124.336
124.44
124.559
124.673
124.777
124.938
124.961
128.745
122.677
122.061
122.201
122.178
122.065
121.973
121.92
121.901
121.906
121.928
121.961
122.004
122.054
122.109
122.17
122.235
122.306
122.38
122.459
122.542
122.629
122.721
122.815
122.916
123.017
123.127
123.232
123.351
123.462
123.585
123.707
123.813
123.983
124.003
127.448
121.46
120.821
120.918
120.864
120.74
120.65
120.606
120.599
120.616
120.649
120.693
120.746
120.805
120.869
120.939
121.012
121.09
121.172
121.259
121.349
121.443
121.542
121.644
121.752
121.86
121.976
122.089
122.214
122.331
122.461
122.589
122.699
122.879
122.895
126.136
120.247
119.485
119.493
119.399
119.264
119.175
119.137
119.137
119.162
119.204
119.257
119.317
119.384
119.455
119.532
119.612
119.697
119.786
119.879
119.977
120.078
120.184
120.292
120.407
120.522
120.645
120.765
120.896
121.021
121.156
121.292
121.406
121.596
121.606
124.43
118.648
117.811
117.755
117.625
117.484
117.405
117.381
117.397
117.438
117.493
117.559
117.631
117.709
117.791
117.877
117.967
118.06
118.158
118.259
118.364
118.474
118.587
118.704
118.826
118.949
119.08
119.208
119.346
119.478
119.62
119.764
119.882
120.083
120.089
122.481
116.821
115.842
115.701
115.534
115.389
115.32
115.312
115.344
115.401
115.471
115.55
115.634
115.723
115.815
115.911
116.009
116.111
116.216
116.325
116.438
116.555
116.676
116.801
116.93
117.061
117.199
117.335
117.481
117.621
117.77
117.922
118.045
118.256
118.257
120.129
114.623
113.443
113.185
112.971
112.826
112.773
112.785
112.834
112.908
112.99
113.081
113.175
113.272
113.371
113.474
113.578
113.686
113.797
113.913
114.033
114.156
114.284
114.416
114.553
114.692
114.838
114.982
115.136
115.284
115.442
115.602
115.734
115.958
115.96
116.507
111.184
110.004
109.758
109.542
109.413
109.381
109.418
109.485
109.575
109.668
109.77
109.87
109.976
110.08
110.189
110.299
110.415
110.533
110.657
110.784
110.917
111.055
111.197
111.345
111.496
111.655
111.814
111.983
112.148
112.322
112.497
112.648
112.883
112.905
111.046
106.318
104.833
104.496
104.264
104.158
104.151
104.21
104.293
104.402
104.511
104.633
104.751
104.882
105.007
105.146
105.281
105.428
105.574
105.732
105.89
106.056
106.222
106.397
106.575
106.758
106.946
107.134
107.331
107.524
107.727
107.928
108.116
108.364
108.46
95.7372
95.7807
94.6596
94.3653
94.1531
94.1202
94.2262
94.4145
94.6377
94.8864
95.1372
95.3972
95.651
95.9106
96.1627
96.4205
96.6714
96.9282
97.179
97.4363
97.6886
97.9473
98.2024
98.4633
98.7216
98.9846
99.2452
99.5091
99.7703
100.033
100.293
100.546
100.817
101.022
101.383
11.4419
9.87417
9.83839
9.88166
9.99632
10.1178
10.2518
10.3774
10.509
10.6261
10.7464
10.8509
10.9596
11.0531
11.1531
11.2388
11.3335
11.4141
11.5065
11.5839
11.6764
11.7511
11.8457
11.917
12.016
12.0814
12.1875
12.2428
12.3605
12.3983
12.5348
12.5425
12.7085
12.6631
12.8674
79.7825
77.236
76.6744
76.7676
76.8938
76.9371
76.9289
76.9039
76.875
76.8496
76.8268
76.809
76.7939
76.783
76.7742
76.7687
76.7649
76.7636
76.7638
76.7658
76.7696
76.7743
76.7814
76.7883
76.7993
76.8079
76.8234
76.8338
76.8547
76.8673
76.8944
76.9111
76.9452
76.9669
77.0173
79.5949
77.0485
76.4703
76.5483
76.6664
76.704
76.693
76.6647
76.6347
76.6072
76.585
76.566
76.5528
76.5412
76.5355
76.5296
76.5299
76.5282
76.5335
76.535
76.5446
76.5485
76.5624
76.5682
76.5866
76.5938
76.6177
76.6259
76.6562
76.6653
76.7025
76.7149
76.7528
76.7785
76.8047
79.3539
76.8064
76.2184
76.2874
76.3996
76.4329
76.4192
76.3888
76.3579
76.33
76.3085
76.2902
76.2787
76.2686
76.2653
76.2615
76.2649
76.2657
76.2747
76.279
76.2932
76.2999
76.3193
76.3279
76.3528
76.3626
76.394
76.4045
76.4436
76.4546
76.5016
76.5162
76.5649
76.5949
76.6332
79.0384
76.4928
75.9088
75.977
76.0854
76.1144
76.0973
76.0647
76.0331
76.0052
75.9846
75.9678
75.9584
75.9507
75.9502
75.9492
75.9559
75.9598
75.9725
75.9802
75.9984
76.0088
76.0325
76.045
76.0746
76.0883
76.1247
76.1389
76.1833
76.1975
76.2499
76.2668
76.3202
76.3509
76.393
78.7525
76.2176
75.6162
75.6647
75.7598
75.7807
75.7582
75.7221
75.688
75.6588
75.6376
75.621
75.6122
75.6056
75.6065
75.6073
75.6159
75.6222
75.6374
75.6478
75.6691
75.6824
75.7097
75.7253
75.7589
75.7759
75.8166
75.8343
75.883
75.9011
75.9578
75.979
76.0364
76.0726
76.1184
78.3535
75.8239
75.2267
75.2713
75.3591
75.3732
75.3458
75.3068
75.2715
75.2426
75.2225
75.2079
75.2012
75.1974
75.2011
75.2051
75.2168
75.2265
75.2452
75.2592
75.2841
75.3014
75.3325
75.352
75.3896
75.4106
75.4554
75.477
75.53
75.5515
75.6124
75.6367
75.6977
75.7362
75.7853
77.928
75.4139
74.8113
74.8414
74.9158
74.92
74.886
74.843
74.8056
74.776
74.7562
74.7428
74.7377
74.736
74.7419
74.7485
74.7629
74.7756
74.7971
74.8144
74.8425
74.8632
74.8976
74.9207
74.9619
74.9865
75.035
75.0602
75.1169
75.142
75.2065
75.2344
75.2985
75.3409
75.3925
77.4333
74.9361
74.3306
74.346
74.4054
74.3985
74.357
74.3099
74.2703
74.2404
74.2212
74.2093
74.2061
74.2069
74.2152
74.2248
74.2419
74.2579
74.2824
74.3031
74.3344
74.3586
74.3965
74.4232
74.4679
74.4961
74.5482
74.5768
74.6371
74.6656
74.7333
74.7647
74.8309
74.877
74.9294
76.8737
74.4019
73.7983
73.7994
73.8423
73.8226
73.7729
73.7216
73.6804
73.6509
73.6331
73.6236
73.6229
73.6268
73.638
73.6509
73.6712
73.6905
73.7183
73.7425
73.7771
73.8048
73.846
73.8763
73.9244
73.9561
74.0116
74.0437
74.1073
74.1392
74.2099
74.2448
74.313
74.3633
74.4164
76.3105
73.874
73.2584
73.2344
73.2562
73.2225
73.1646
73.1089
73.0659
73.0362
73.0192
73.0113
73.0126
73.0188
73.0325
73.0481
73.0709
73.0932
73.1237
73.1509
73.1883
73.2192
73.2633
73.2967
73.3478
73.3826
73.4412
73.4763
73.543
73.5778
73.6512
73.6892
73.7592
73.813
73.8663
75.6271
73.2225
72.6137
72.5764
72.58
72.5318
72.4654
72.4061
72.3626
72.3346
72.3203
72.3158
72.3205
72.3306
72.3478
72.3672
72.3935
72.4195
72.4534
72.4843
72.525
72.5594
72.6068
72.6437
72.6981
72.7363
72.7982
72.8366
72.9064
72.9445
73.0208
73.0621
73.134
73.1917
73.2453
74.9229
72.572
71.9391
71.8632
71.837
71.7707
71.6949
71.6314
71.5866
71.5592
71.5465
71.5444
71.5517
71.5648
71.5849
71.6075
71.6368
71.6661
71.7029
71.7371
71.7808
71.8186
71.869
71.9093
71.9668
72.0083
72.0734
72.1151
72.1881
72.2293
72.3086
72.3532
72.427
72.4888
72.5424
74.0389
71.7341
71.1046
71.0103
70.9611
70.878
70.7938
70.7279
70.6843
70.6603
70.6518
70.6544
70.6664
70.6843
70.7087
70.736
70.7693
70.8029
70.8435
70.8819
70.9292
70.971
71.0251
71.0693
71.1303
71.1757
71.2444
71.2897
71.3665
71.4112
71.4938
71.5421
71.6182
71.6846
71.7383
73.1017
70.8706
70.2028
70.0572
69.9698
69.865
69.7711
69.7021
69.6591
69.6377
69.6328
69.6397
69.6558
69.6782
69.7068
69.7384
69.7757
69.8136
69.8579
69.9004
69.9513
69.9972
70.0548
70.1031
70.1678
70.2171
70.2896
70.3388
70.4193
70.4677
70.554
70.6061
70.6847
70.7559
70.8093
71.9317
69.775
69.0899
68.9088
68.788
68.663
68.5613
68.4918
68.4522
68.436
68.4369
68.4498
68.4717
68.4998
68.5336
68.5705
68.6123
68.6552
68.7037
68.7509
68.8057
68.8562
68.9176
68.9704
69.0389
69.0927
69.1691
69.2226
69.3072
69.3597
69.45
69.5062
69.588
69.6646
69.7183
70.5751
68.5115
67.7777
67.5409
67.3778
67.2301
67.1203
67.0501
67.0144
67.0035
67.0109
67.03
67.0582
67.0919
67.131
67.173
67.2193
67.2667
67.3189
67.3705
67.4287
67.4836
67.5483
67.6056
67.6775
67.7359
67.8159
67.8738
67.9625
68.0192
68.1139
68.174
68.2595
68.341
68.3953
68.9306
66.9868
66.1746
65.8554
65.6344
65.4592
65.3413
65.2716
65.24
65.2338
65.246
65.2689
65.3007
65.3371
65.3788
65.4228
65.4712
65.5207
65.575
65.6293
65.6898
65.7483
65.8157
65.8772
65.9522
66.0154
66.099
66.1621
66.2551
66.3167
66.4174
66.4803
66.5739
66.6595
66.72
66.5754
64.6693
63.8499
63.5259
63.2853
63.0947
62.9685
62.8935
62.8584
62.8484
62.8579
62.8775
62.9073
62.9415
62.9831
63.0269
63.0773
63.1288
63.1869
63.2452
63.3108
63.3751
63.4486
63.5172
63.6
63.6698
63.763
63.8327
63.9374
64.0049
64.1191
64.1876
64.2961
64.3856
64.4625
63.0744
61.5353
60.4574
59.9512
59.5991
59.3511
59.1972
59.1103
59.0735
59.0685
59.0887
59.1224
59.1709
59.2252
59.2906
59.3581
59.4353
59.5128
59.5995
59.685
59.7801
59.8721
59.9734
60.0688
60.1751
60.2726
60.3842
60.4813
60.6004
60.6949
60.8239
60.9136
61.046
61.1449
61.2655
55.4845
57.2195
56.1482
55.3591
54.7569
54.3414
54.0976
53.968
53.925
53.9299
53.9769
54.0407
54.1284
54.2195
54.3273
54.4322
54.5514
54.664
54.7902
54.9078
55.0388
55.1602
55.2947
55.4198
55.557
55.6862
55.8248
55.958
56.0971
56.2326
56.3742
56.5027
56.6629
56.7559
56.982
13.0134
11.4054
11.4174
11.545
11.7278
11.8989
12.0709
12.2233
12.3764
12.5085
12.642
12.7554
12.8727
12.9717
13.0777
13.1667
13.2657
13.3483
13.4441
13.5225
13.6177
13.6929
13.7899
13.8612
13.9623
14.0277
14.1358
14.1913
14.3107
14.3497
14.4866
14.4988
14.6614
14.6312
14.821
52.8625
51.8609
51.454
51.3868
51.424
51.4583
51.4669
51.4598
51.4432
51.4257
51.4074
51.3917
51.3771
51.3654
51.355
51.347
51.3403
51.3354
51.3317
51.3292
51.3282
51.3272
51.3287
51.3286
51.3326
51.3326
51.3396
51.3394
51.3497
51.3494
51.3632
51.3633
51.382
51.3814
51.4123
52.6912
51.6997
51.2901
51.2152
51.2475
51.277
51.2835
51.2729
51.2557
51.2354
51.2176
51.1996
51.1868
51.1731
51.1656
51.1557
51.1529
51.146
51.1471
51.1423
51.1468
51.1432
51.1509
51.1479
51.1589
51.1556
51.1704
51.1662
51.1853
51.18
51.2033
51.1981
51.2231
51.2197
51.2475
52.4926
51.5061
51.0935
51.0137
51.0424
51.0685
51.0727
51.0597
51.0411
51.0195
51.0014
50.983
50.9706
50.957
50.9505
50.9411
50.9399
50.9335
50.9369
50.9326
50.94
50.9369
50.9483
50.9453
50.961
50.9574
50.9777
50.9728
50.9983
50.9921
51.0225
51.0169
51.0494
51.0476
51.0834
52.2551
51.2692
50.8582
50.7783
50.8059
50.8298
50.8316
50.8164
50.7964
50.7736
50.7553
50.7368
50.7251
50.7121
50.707
50.6986
50.6992
50.6942
50.6997
50.697
50.7069
50.7055
50.7197
50.7186
50.7373
50.7356
50.7594
50.7562
50.7857
50.7806
50.8155
50.8102
50.8471
50.8444
50.8841
52.0125
51.041
50.6276
50.5395
50.5589
50.5762
50.5731
50.5541
50.5313
50.5067
50.4869
50.4678
50.4556
50.4428
50.4379
50.4302
50.4315
50.4274
50.4341
50.4326
50.4441
50.4439
50.4601
50.4603
50.4814
50.481
50.5073
50.5056
50.5378
50.5345
50.572
50.569
50.6086
50.6087
50.6514
51.7113
50.7436
50.3339
50.2457
50.2622
50.2755
50.2683
50.2461
50.2209
50.1949
50.1745
50.1554
50.1436
50.1317
50.1278
50.1214
50.1241
50.1217
50.1301
50.1304
50.1439
50.1456
50.164
50.1662
50.1897
50.1913
50.2203
50.2205
50.2556
50.2538
50.2947
50.2926
50.3357
50.3357
50.3826
51.381
50.4245
50.0169
49.9241
49.9335
49.9399
49.9267
49.9003
49.8719
49.844
49.8224
49.803
49.7911
49.7798
49.7765
49.7712
49.775
49.774
49.7837
49.7855
49.8006
49.804
49.8242
49.8281
49.8536
49.8569
49.8881
49.8899
49.9275
49.9272
49.9706
49.97
50.0157
50.0171
50.0668
51.0014
50.0569
49.6534
49.5566
49.5581
49.5566
49.5366
49.5052
49.4733
49.4434
49.4206
49.4009
49.3892
49.3785
49.3761
49.372
49.377
49.3776
49.3888
49.3924
49.4092
49.4144
49.4365
49.4423
49.4698
49.475
49.5084
49.512
49.5519
49.5533
49.599
49.6
49.6478
49.6505
49.7021
50.5805
49.65
49.2537
49.1542
49.1476
49.1371
49.1095
49.0727
49.0371
49.0053
48.9814
48.9618
48.9504
48.9408
48.9394
48.9368
48.9431
48.9454
48.9582
48.9635
48.982
48.989
49.013
49.0205
49.05
49.0569
49.0925
49.0977
49.1397
49.1428
49.1907
49.1932
49.243
49.2473
49.3007
50.1475
49.2384
48.8454
48.7373
48.7184
48.6968
48.6608
48.6184
48.5791
48.5454
48.5205
48.5009
48.4898
48.4811
48.4806
48.4794
48.487
48.4909
48.5051
48.5121
48.5321
48.5409
48.5665
48.5757
48.607
48.6156
48.6531
48.6599
48.7039
48.7085
48.7584
48.7624
48.8139
48.8197
48.8745
49.6404
48.7493
48.3678
48.2586
48.2311
48.1991
48.1544
48.106
48.063
48.0275
48.002
47.9829
47.9725
47.9653
47.966
47.9666
47.9757
47.9815
47.9973
48.0062
48.028
48.0386
48.066
48.0771
48.1103
48.1206
48.1601
48.1685
48.2148
48.2209
48.2729
48.2784
48.3319
48.3391
48.3956
49.0986
48.2402
47.8586
47.7339
47.6874
47.6398
47.5843
47.5295
47.4828
47.4458
47.4198
47.4013
47.3919
47.3862
47.3883
47.3909
47.4015
47.4093
47.4268
47.4378
47.4613
47.4739
47.5031
47.5161
47.5513
47.5634
47.605
47.6152
47.6637
47.6714
47.7257
47.7329
47.7883
47.7971
47.8552
48.442
47.6135
47.2451
47.1176
47.0588
46.9978
46.932
46.8705
46.8201
46.7818
46.7556
46.7382
46.73
46.7262
46.7301
46.7349
46.7473
46.7574
46.7767
46.79
46.8153
46.8302
46.8613
46.8765
46.9137
46.9279
46.9718
46.9839
47.0348
47.0443
47.1011
47.11
47.1676
47.1783
47.2382
47.7238
46.9423
46.5696
46.4193
46.3346
46.2535
46.175
46.1065
46.0528
46.0137
45.9881
45.9723
45.9659
45.9646
45.9706
45.9781
45.9927
46.0056
46.0269
46.0428
46.0701
46.0876
46.1207
46.1384
46.1778
46.1943
46.2405
46.2548
46.3083
46.3198
46.3793
46.3901
46.4501
46.4629
46.5245
46.8461
46.1176
45.7528
45.5898
45.4837
45.3833
45.292
45.2162
45.1591
45.1191
45.094
45.0798
45.0751
45.0762
45.0841
45.0942
45.1106
45.1261
45.149
45.1677
45.1965
45.2167
45.2515
45.2717
45.313
45.332
45.3804
45.3969
45.453
45.4665
45.5289
45.5415
45.6044
45.6191
45.6835
45.8229
45.1589
44.7866
44.5963
44.4591
44.3344
44.2284
44.1441
44.0836
44.0425
44.0182
44.0054
44.0026
44.0058
44.0155
44.0279
44.0457
44.0634
44.0875
44.1084
44.1382
44.1607
44.1965
44.2193
44.2618
44.2834
44.3335
44.3524
44.4109
44.4264
44.4918
44.506
44.5722
44.5882
44.656
44.5802
44.0025
43.6096
43.3743
43.1919
43.0349
42.9109
42.8163
42.7512
42.7069
42.6815
42.6671
42.6636
42.6654
42.6743
42.6856
42.7026
42.72
42.7433
42.7649
42.7942
42.8185
42.8544
42.8798
42.9228
42.9476
42.9989
43.0213
43.0818
43.1005
43.1695
43.1856
43.2571
43.2751
43.3492
43.0295
42.4147
41.9893
41.7324
41.522
41.3366
41.1905
41.0759
40.9961
40.9371
40.9015
40.8759
40.8657
40.8598
40.8651
40.872
40.8881
40.9043
40.9288
40.9519
40.9836
41.0117
41.0506
41.0813
41.1284
41.1589
41.215
41.2435
41.3097
41.3341
41.4097
41.4311
41.5104
41.5322
41.6162
40.8419
40.5278
39.9112
39.4669
39.1188
38.8422
38.6417
38.4924
38.3958
38.3269
38.2923
38.2689
38.2693
38.272
38.2933
38.3122
38.347
38.3772
38.4214
38.4598
38.5112
38.5558
38.6128
38.6613
38.7224
38.772
38.8371
38.885
38.9561
39
39.0799
39.1181
39.2056
39.2405
39.3383
37.8608
40.6886
39.8763
38.9242
38.1215
37.5028
37.063
36.7471
36.5373
36.3877
36.2986
36.2345
36.2087
36.1901
36.1995
36.2067
36.2371
36.2598
36.3034
36.3364
36.3886
36.4287
36.4864
36.5326
36.5938
36.646
36.7089
36.7669
36.831
36.8926
36.9609
37.0178
37.1043
37.1375
37.2743
14.2725
12.6895
12.7673
12.9775
13.2268
13.4441
13.6498
13.8237
13.993
14.1347
14.2761
14.3931
14.5143
14.6137
14.7213
14.809
14.9084
14.9887
15.0839
15.1593
15.2534
15.3251
15.4207
15.4885
15.5878
15.6499
15.7557
15.8086
15.9247
15.9631
16.0947
16.1105
16.263
16.2458
16.418
37.6239
37.2102
36.9816
36.8887
36.874
36.8851
36.8927
36.8931
36.8853
36.8751
36.8622
36.8503
36.8382
36.8277
36.818
36.8097
36.8025
36.7963
36.7914
36.7868
36.7839
36.7803
36.7794
36.776
36.7771
36.7731
36.7765
36.7713
36.777
36.7705
36.7788