/*--------------------------------*- C++ -*----------------------------------*\
  =========                 |
  \\      /  F ield         | OpenFOAM: The Open Source CFD Toolbox
   \\    /   O peration     | Website:  https://openfoam.org
    \\  /    A nd           | Version:  6
     \\/     M anipulation  |
\*---------------------------------------------------------------------------*/
FoamFile
{
    version     2.0;
    format      ascii;
    class       volScalarField;
    location    "35";
    object      p;
}
// * * * * * * * * * * * * * * * * * * * * * * * * * * * * * * * * * * * * * //

dimensions      [0 2 -2 0 0 0 0];

internalField   nonuniform List<scalar> 
380496
(
0.0128108
0.0131613
0.0129145
0.0128368
0.012777
0.0127116
0.0126469
0.0125789
0.0125073
0.0124329
0.0123557
0.0122761
0.0121943
0.0121105
0.0120248
0.0119372
0.0118475
0.0117554
0.0116608
0.0115632
0.0114621
0.0113571
0.0112477
0.0111332
0.0110131
0.0108866
0.0107534
0.0106125
0.0104639
0.0103063
0.010141
0.00996493
0.00978534
0.00958907
0.00940985
0.0127774
0.013119
0.0128831
0.0128107
0.0127544
0.0126912
0.0126271
0.0125586
0.0124855
0.0124086
0.0123282
0.0122448
0.0121585
0.0120697
0.0119784
0.0118846
0.0117883
0.0116891
0.011587
0.0114815
0.0113723
0.0112588
0.0111408
0.0110175
0.0108887
0.0107535
0.0106119
0.0104628
0.0103065
0.0101413
0.00996939
0.00978483
0.0095991
0.00938369
0.00919914
0.0127408
0.0130759
0.0128504
0.0127838
0.0127314
0.0126703
0.0126067
0.0125371
0.0124619
0.0123819
0.0122975
0.0122093
0.0121177
0.0120228
0.0119249
0.0118239
0.0117199
0.0116124
0.0115015
0.0113867
0.0112677
0.011144
0.0110154
0.0108812
0.0107412
0.0105948
0.0104418
0.0102814
0.0101142
0.00993829
0.00975675
0.0095628
0.00937131
0.0091496
0.00896878
0.0126975
0.0130297
0.0128167
0.0127575
0.0127101
0.012652
0.0125892
0.0125192
0.0124423
0.0123597
0.0122721
0.0121799
0.0120837
0.0119837
0.0118803
0.0117733
0.0116628
0.0115486
0.0114305
0.0113082
0.0111816
0.01105
0.0109134
0.0107712
0.0106233
0.010469
0.0103085
0.0101409
0.00996695
0.00978468
0.00959758
0.00939777
0.00920202
0.00897283
0.0087897
0.0126575
0.0129807
0.0127831
0.0127323
0.01269
0.0126349
0.012573
0.0125023
0.0124236
0.0123381
0.0122468
0.0121504
0.0120494
0.0119441
0.0118349
0.0117216
0.0116045
0.0114833
0.0113579
0.0112279
0.0110933
0.0109536
0.0108088
0.0106582
0.010502
0.0103395
0.0101711
0.00999572
0.00981453
0.00962545
0.00943246
0.00922719
0.00902813
0.00879511
0.00861436
0.012606
0.0129287
0.0127487
0.0127078
0.0126718
0.0126203
0.0125596
0.0124883
0.0124079
0.0123199
0.0122252
0.0121249
0.0120195
0.0119094
0.011795
0.0116763
0.0115533
0.0114259
0.0112942
0.0111576
0.0110163
0.0108698
0.0107182
0.0105609
0.0103981
0.0102293
0.0100548
0.00987384
0.00968757
0.00949387
0.00929706
0.00908821
0.00888707
0.00865068
0.00847089
0.0125535
0.0128737
0.0127144
0.0126848
0.0126558
0.012608
0.0125484
0.0124766
0.0123944
0.0123036
0.0122056
0.0121013
0.0119916
0.0118768
0.0117573
0.0116331
0.0115045
0.0113712
0.0112333
0.0110905
0.0109428
0.0107898
0.0106317
0.0104681
0.0102991
0.0101243
0.00994415
0.00975793
0.0095669
0.00936895
0.00916871
0.00895681
0.0087543
0.00851581
0.00833864
0.0124933
0.0128161
0.0126811
0.0126642
0.0126428
0.0125988
0.0125404
0.0124679
0.0123838
0.0122904
0.0121891
0.0120811
0.0119673
0.0118481
0.011724
0.011595
0.0114612
0.0113226
0.0111793
0.011031
0.0108777
0.0107192
0.0105557
0.0103867
0.0102126
0.010033
0.00984838
0.00965814
0.00946362
0.00926266
0.00906019
0.00884636
0.00864337
0.00840343
0.00822897
0.0124261
0.0127577
0.0126493
0.0126466
0.0126334
0.0125933
0.0125358
0.0124626
0.0123767
0.0122806
0.0121763
0.0120649
0.0119474
0.0118243
0.011696
0.0115626
0.0114244
0.0112812
0.0111332
0.0109801
0.010822
0.0106588
0.0104906
0.0103172
0.0101388
0.00995521
0.00976698
0.00957348
0.00937619
0.00917288
0.00896876
0.00875352
0.00855043
0.00830951
0.00813778
0.0123615
0.0127051
0.0126233
0.0126341
0.0126283
0.0125912
0.0125342
0.0124601
0.0123723
0.0122738
0.0121667
0.0120524
0.0119316
0.0118052
0.0116734
0.0115364
0.0113945
0.0112475
0.0110956
0.0109387
0.0107768
0.0106098
0.0104379
0.010261
0.0100793
0.00989267
0.00970173
0.00950589
0.00930669
0.00910186
0.00889679
0.0086808
0.00847804
0.00823655
0.00806745
0.0122818
0.0126505
0.0125975
0.0126237
0.0126261
0.0125919
0.0125354
0.0124602
0.0123704
0.0122696
0.0121599
0.0120426
0.011919
0.0117894
0.0116544
0.0115142
0.011369
0.0112186
0.0110634
0.010903
0.0107378
0.0105675
0.0103925
0.0102126
0.0100281
0.009839
0.00964586
0.00944814
0.00924746
0.0090415
0.00883583
0.00861939
0.00841717
0.00817536
0.00800886
0.0122043
0.0126017
0.0125772
0.0126183
0.0126276
0.0125955
0.0125387
0.0124621
0.0123703
0.0122672
0.0121549
0.0120351
0.0119088
0.0117765
0.0116387
0.0114957
0.0113476
0.0111944
0.0110362
0.010873
0.010705
0.010532
0.0103543
0.0101719
0.00998527
0.00979413
0.00959928
0.00940017
0.00919847
0.0089918
0.00878591
0.00856937
0.00836791
0.00812603
0.00796203
0.0121062
0.0125533
0.012558
0.0126158
0.0126325
0.012602
0.0125448
0.0124665
0.0123726
0.0122671
0.0121524
0.0120301
0.0119012
0.0117665
0.0116262
0.0114807
0.0113301
0.0111743
0.0110137
0.010848
0.0106775
0.0105022
0.0103224
0.010138
0.00994943
0.00975667
0.00956047
0.00936031
0.00915789
0.00895082
0.00874495
0.00852858
0.00832802
0.00808633
0.00792471
0.0120087
0.0125128
0.0125439
0.0126175
0.0126401
0.0126102
0.012552
0.0124719
0.0123757
0.012268
0.012151
0.0120265
0.0118955
0.0117586
0.0116162
0.0114685
0.0113157
0.0111579
0.0109951
0.0108274
0.010655
0.0104778
0.0102961
0.0101101
0.00992005
0.00972604
0.00952883
0.00932793
0.00912509
0.00891789
0.00871227
0.00849631
0.00829671
0.00805545
0.0078959
0.0118915
0.012478
0.0125335
0.0126243
0.012652
0.0126218
0.012562
0.0124796
0.012381
0.0122709
0.0121517
0.0120251
0.0118921
0.0117532
0.0116089
0.0114593
0.0113047
0.011145
0.0109805
0.0108111
0.0106369
0.0104582
0.010275
0.0100876
0.00989646
0.00970146
0.00950348
0.00930208
0.00909902
0.0088919
0.0086867
0.00847143
0.0082729
0.00803266
0.00787507
0.0117673
0.012452
0.0125254
0.0126325
0.0126641
0.0126331
0.0125716
0.0124869
0.0123861
0.0122739
0.0121528
0.0120244
0.0118896
0.0117491
0.0116033
0.0114522
0.0112961
0.011135
0.010969
0.0107982
0.0106227
0.0104427
0.0102584
0.01007
0.00987792
0.00968221
0.00948369
0.009282
0.00907888
0.00887203
0.00866733
0.00845297
0.00825532
0.00801634
0.00785948
0.011633
0.0124388
0.0125255
0.0126488
0.0126819
0.0126483
0.012584
0.0124966
0.0123933
0.0122789
0.0121558
0.0120256
0.0118893
0.0117473
0.0116
0.0114476
0.0112903
0.0111279
0.0109608
0.0107889
0.0106124
0.0104314
0.0102462
0.010057
0.00986417
0.00966793
0.00946902
0.00926719
0.00906413
0.00885768
0.00865362
0.00844051
0.00824392
0.00800775
0.00785161
0.0114811
0.0124332
0.012522
0.012662
0.0126963
0.0126607
0.0125941
0.0125043
0.0123989
0.0122827
0.0121581
0.0120266
0.0118891
0.0117461
0.0115978
0.0114445
0.0112862
0.011123
0.010955
0.0107823
0.010605
0.0104233
0.0102375
0.0100477
0.00985443
0.00965785
0.00945873
0.00925687
0.00905394
0.00884798
0.00864446
0.00843279
0.00823645
0.00800319
0.00784257
0.0113346
0.0124486
0.0125321
0.0126849
0.0127162
0.0126768
0.012607
0.0125142
0.0124066
0.0122886
0.0121625
0.0120297
0.0118912
0.0117471
0.011598
0.0114438
0.0112848
0.0111209
0.0109523
0.010779
0.0106012
0.010419
0.0102327
0.0100425
0.00984896
0.00965215
0.0094529
0.00925108
0.00904832
0.00884287
0.00864005
0.00843005
0.00823514
0.00800797
0.00784488
0.01118
0.012456
0.0125315
0.0127006
0.0127301
0.0126882
0.012616
0.0125213
0.0124122
0.0122931
0.0121662
0.0120326
0.0118935
0.0117488
0.0115993
0.0114446
0.0112852
0.0111208
0.0109519
0.0107781
0.0106
0.0104175
0.010231
0.0100406
0.00984684
0.00964992
0.00945061
0.00924887
0.00904621
0.00884126
0.00863877
0.00843062
0.00823518
0.00801411
0.00783864
0.0111028
0.012481
0.012543
0.0127207
0.0127466
0.0127022
0.0126276
0.012531
0.0124204
0.0123
0.0121722
0.0120378
0.011898
0.0117528
0.0116028
0.0114477
0.0112879
0.0111233
0.0109541
0.0107801
0.0106018
0.0104192
0.0102325
0.010042
0.00984829
0.00965134
0.00945209
0.00925038
0.00904793
0.00884317
0.00864139
0.00843407
0.00824314
0.00802667
0.00788592
0.01281
0.0131599
0.0129145
0.0128369
0.0127771
0.0127116
0.0126469
0.0125789
0.0125073
0.0124329
0.0123557
0.0122761
0.0121943
0.0121105
0.0120248
0.0119372
0.0118475
0.0117554
0.0116608
0.0115632
0.0114621
0.0113572
0.0112478
0.0111332
0.0110132
0.0108867
0.0107535
0.0106126
0.010464
0.0103064
0.0101411
0.0099651
0.00978553
0.0095893
0.00941013
0.0127765
0.0131176
0.0128831
0.0128107
0.0127544
0.0126912
0.0126271
0.0125586
0.0124855
0.0124086
0.0123282
0.0122448
0.0121585
0.0120697
0.0119784
0.0118846
0.0117883
0.0116891
0.011587
0.0114815
0.0113723
0.0112588
0.0111408
0.0110175
0.0108887
0.0107536
0.0106119
0.0104629
0.0103066
0.0101415
0.00996953
0.00978501
0.00959928
0.00938394
0.00919943
0.0127399
0.0130745
0.0128503
0.0127838
0.0127314
0.0126703
0.0126066
0.0125371
0.0124619
0.0123819
0.0122975
0.0122093
0.0121177
0.0120228
0.0119249
0.0118239
0.0117199
0.0116124
0.0115015
0.0113867
0.0112677
0.011144
0.0110154
0.0108812
0.0107413
0.0105948
0.0104419
0.0102815
0.0101143
0.0099384
0.00975687
0.00956296
0.00937146
0.00914983
0.00896902
0.0126966
0.0130284
0.0128166
0.0127576
0.0127101
0.012652
0.0125892
0.0125192
0.0124423
0.0123597
0.0122721
0.0121799
0.0120837
0.0119837
0.0118803
0.0117733
0.0116628
0.0115486
0.0114306
0.0113083
0.0111816
0.01105
0.0109134
0.0107712
0.0106233
0.010469
0.0103086
0.010141
0.00996704
0.0097848
0.0095977
0.00939793
0.00920217
0.00897305
0.00878993
0.0126564
0.0129794
0.0127831
0.0127323
0.01269
0.0126349
0.012573
0.0125023
0.0124236
0.0123381
0.0122468
0.0121504
0.0120494
0.0119441
0.0118349
0.0117216
0.0116045
0.0114833
0.0113579
0.0112279
0.0110934
0.0109537
0.0108088
0.0106583
0.0105021
0.0103396
0.0101711
0.0099958
0.00981462
0.00962556
0.00943257
0.00922733
0.00902826
0.0087953
0.00861455
0.012605
0.0129274
0.0127487
0.0127078
0.0126719
0.0126203
0.0125596
0.0124883
0.0124079
0.0123198
0.0122252
0.0121249
0.0120195
0.0119094
0.011795
0.0116763
0.0115533
0.011426
0.0112942
0.0111576
0.0110164
0.0108699
0.0107182
0.010561
0.0103982
0.0102294
0.0100549
0.00987392
0.00968764
0.00949396
0.00929716
0.00908833
0.00888719
0.00865085
0.00847106
0.0125525
0.0128724
0.0127144
0.0126849
0.0126558
0.012608
0.0125484
0.0124766
0.0123944
0.0123036
0.0122056
0.0121013
0.0119916
0.0118768
0.0117573
0.0116331
0.0115045
0.0113712
0.0112333
0.0110905
0.0109428
0.0107899
0.0106318
0.0104681
0.0102991
0.0101243
0.0099442
0.009758
0.00956697
0.00936903
0.00916879
0.00895692
0.0087544
0.00851597
0.00833878
0.0124922
0.0128149
0.012681
0.0126643
0.0126429
0.0125988
0.0125404
0.0124679
0.0123838
0.0122904
0.0121891
0.0120811
0.0119673
0.0118481
0.011724
0.011595
0.0114612
0.0113227
0.0111793
0.011031
0.0108777
0.0107193
0.0105557
0.0103867
0.0102126
0.010033
0.00984842
0.0096582
0.00946368
0.00926274
0.00906027
0.00884646
0.00864345
0.00840357
0.00822909
0.012425
0.0127565
0.0126492
0.0126466
0.0126334
0.0125933
0.0125358
0.0124626
0.0123767
0.0122806
0.0121763
0.0120649
0.0119474
0.0118243
0.011696
0.0115626
0.0114244
0.0112812
0.0111332
0.0109801
0.0108221
0.0106589
0.0104907
0.0103172
0.0101389
0.00995525
0.00976702
0.00957353
0.00937624
0.00917295
0.00896882
0.00875361
0.00855049
0.00830963
0.00813789
0.0123603
0.012704
0.0126232
0.0126342
0.0126283
0.0125911
0.0125342
0.0124601
0.0123722
0.0122738
0.0121667
0.0120524
0.0119316
0.0118052
0.0116734
0.0115364
0.0113945
0.0112475
0.0110956
0.0109387
0.0107768
0.0106098
0.0104379
0.010261
0.0100793
0.0098927
0.00970177
0.00950594
0.00930674
0.00910192
0.00889685
0.00868087
0.0084781
0.00823666
0.00806754
0.0122806
0.0126494
0.0125974
0.0126237
0.0126261
0.0125919
0.0125354
0.0124602
0.0123704
0.0122696
0.0121599
0.0120426
0.011919
0.0117894
0.0116544
0.0115142
0.011369
0.0112187
0.0110634
0.010903
0.0107378
0.0105676
0.0103925
0.0102126
0.0100282
0.00983904
0.00964589
0.00944819
0.0092475
0.00904155
0.00883588
0.00861946
0.00841722
0.00817546
0.00800894
0.012203
0.0126007
0.0125771
0.0126183
0.0126276
0.0125955
0.0125387
0.0124621
0.0123703
0.0122672
0.0121549
0.0120351
0.0119088
0.0117765
0.0116387
0.0114957
0.0113476
0.0111944
0.0110362
0.010873
0.010705
0.010532
0.0103544
0.010172
0.00998529
0.00979416
0.00959931
0.00940021
0.0091985
0.00899184
0.00878595
0.00856943
0.00836795
0.00812611
0.0079621
0.0121051
0.0125523
0.012558
0.0126158
0.0126326
0.012602
0.0125448
0.0124665
0.0123726
0.0122671
0.0121524
0.0120301
0.0119012
0.0117665
0.0116262
0.0114807
0.0113301
0.0111743
0.0110137
0.010848
0.0106775
0.0105022
0.0103224
0.010138
0.00994945
0.0097567
0.00956049
0.00936034
0.00915792
0.00895086
0.00874499
0.00852863
0.00832805
0.00808641
0.00792477
0.0120075
0.0125119
0.0125439
0.0126175
0.0126401
0.0126102
0.012552
0.0124719
0.0123757
0.012268
0.012151
0.0120265
0.0118955
0.0117586
0.0116162
0.0114685
0.0113157
0.0111579
0.0109951
0.0108274
0.010655
0.0104778
0.0102961
0.0101101
0.00992007
0.00972607
0.00952885
0.00932796
0.00912512
0.00891793
0.0087123
0.00849636
0.00829674
0.00805553
0.00789595
0.0118905
0.0124772
0.0125335
0.0126243
0.012652
0.0126218
0.012562
0.0124796
0.012381
0.0122709
0.0121517
0.0120251
0.0118921
0.0117532
0.0116089
0.0114593
0.0113047
0.011145
0.0109805
0.0108111
0.0106369
0.0104582
0.0102751
0.0100877
0.00989647
0.00970148
0.0095035
0.00930211
0.00909904
0.00889194
0.00868673
0.00847148
0.00827293
0.00803272
0.00787511
0.0117662
0.0124513
0.0125254
0.0126325
0.0126641
0.0126331
0.0125716
0.0124869
0.0123861
0.0122739
0.0121528
0.0120244
0.0118896
0.0117491
0.0116033
0.0114522
0.0112961
0.011135
0.010969
0.0107982
0.0106227
0.0104427
0.0102584
0.01007
0.00987794
0.00968223
0.00948371
0.00928202
0.0090789
0.00887206
0.00866736
0.00845301
0.00825534
0.0080164
0.00785952
0.0116319
0.0124382
0.0125255
0.0126489
0.0126819
0.0126483
0.012584
0.0124966
0.0123933
0.0122788
0.0121558
0.0120256
0.0118893
0.0117473
0.0116
0.0114476
0.0112903
0.0111279
0.0109608
0.0107889
0.0106124
0.0104314
0.0102462
0.010057
0.00986419
0.00966795
0.00946905
0.00926721
0.00906415
0.00885772
0.00865364
0.00844055
0.00824394
0.00800782
0.00785165
0.0114803
0.0124327
0.0125219
0.012662
0.0126963
0.0126607
0.0125941
0.0125042
0.0123989
0.0122827
0.0121581
0.0120266
0.0118891
0.0117461
0.0115978
0.0114445
0.0112862
0.011123
0.010955
0.0107823
0.010605
0.0104233
0.0102375
0.0100477
0.00985446
0.00965788
0.00945876
0.00925691
0.00905397
0.00884802
0.0086445
0.00843284
0.00823648
0.00800326
0.00784261
0.0113338
0.0124482
0.0125321
0.0126849
0.0127162
0.0126768
0.0126069
0.0125142
0.0124066
0.0122886
0.0121625
0.0120297
0.0118912
0.0117471
0.011598
0.0114438
0.0112849
0.0111209
0.0109523
0.010779
0.0106012
0.010419
0.0102328
0.0100426
0.009849
0.00965219
0.00945294
0.00925112
0.00904835
0.00884291
0.00864009
0.0084301
0.00823518
0.00800804
0.0078449
0.0111791
0.012456
0.0125316
0.0127008
0.0127302
0.0126883
0.0126161
0.0125214
0.0124123
0.0122931
0.0121662
0.0120327
0.0118935
0.0117489
0.0115993
0.0114446
0.0112852
0.0111209
0.0109519
0.0107782
0.0106001
0.0104175
0.010231
0.0100406
0.00984687
0.00964996
0.00945065
0.00924891
0.00904625
0.0088413
0.00863881
0.00843066
0.00823523
0.00801414
0.00783862
0.011104
0.0124815
0.0125431
0.0127207
0.0127466
0.0127021
0.0126276
0.0125309
0.0124203
0.0123
0.0121721
0.0120378
0.0118979
0.0117527
0.0116027
0.0114476
0.0112879
0.0111232
0.010954
0.0107801
0.0106018
0.0104191
0.0102325
0.010042
0.00984822
0.00965127
0.00945202
0.00925032
0.00904787
0.00884311
0.00864132
0.00843401
0.00824307
0.00802663
0.00788593
0.0128126
0.0131573
0.0129143
0.0128369
0.0127771
0.0127117
0.0126469
0.0125788
0.0125073
0.0124329
0.0123557
0.0122761
0.0121943
0.0121105
0.0120248
0.0119372
0.0118475
0.0117554
0.0116608
0.0115632
0.0114621
0.0113572
0.0112478
0.0111332
0.0110132
0.0108867
0.0107535
0.0106126
0.010464
0.0103064
0.0101411
0.0099651
0.00978554
0.00958932
0.00941025
0.012779
0.0131151
0.0128829
0.0128108
0.0127545
0.0126912
0.0126271
0.0125586
0.0124855
0.0124086
0.0123282
0.0122448
0.0121585
0.0120697
0.0119784
0.0118846
0.0117883
0.0116891
0.011587
0.0114815
0.0113723
0.0112589
0.0111408
0.0110175
0.0108887
0.0107536
0.010612
0.0104629
0.0103066
0.0101415
0.00996956
0.00978505
0.00959932
0.009384
0.00919949
0.0127423
0.0130721
0.0128501
0.0127839
0.0127315
0.0126704
0.0126066
0.0125371
0.0124619
0.0123818
0.0122975
0.0122093
0.0121177
0.0120228
0.0119249
0.0118239
0.0117199
0.0116124
0.0115015
0.0113867
0.0112677
0.011144
0.0110154
0.0108812
0.0107413
0.0105948
0.0104419
0.0102815
0.0101143
0.00993841
0.00975687
0.00956297
0.00937147
0.00914986
0.00896907
0.0126991
0.0130259
0.0128165
0.0127577
0.0127102
0.012652
0.0125892
0.0125192
0.0124423
0.0123597
0.012272
0.0121799
0.0120837
0.0119837
0.0118803
0.0117733
0.0116628
0.0115486
0.0114306
0.0113083
0.0111816
0.01105
0.0109135
0.0107712
0.0106233
0.0104691
0.0103086
0.010141
0.00996706
0.00978483
0.00959773
0.00939797
0.0092022
0.0089731
0.00879
0.0126589
0.012977
0.0127829
0.0127324
0.0126901
0.0126349
0.012573
0.0125023
0.0124236
0.0123381
0.0122468
0.0121504
0.0120493
0.0119441
0.0118349
0.0117216
0.0116045
0.0114833
0.0113579
0.0112279
0.0110934
0.0109537
0.0108088
0.0106583
0.0105021
0.0103396
0.0101711
0.00999581
0.00981463
0.00962558
0.00943258
0.00922735
0.00902827
0.00879535
0.00861463
0.0126074
0.0129251
0.0127485
0.0127079
0.0126719
0.0126203
0.0125596
0.0124883
0.0124079
0.0123198
0.0122252
0.0121249
0.0120195
0.0119094
0.011795
0.0116763
0.0115533
0.011426
0.0112942
0.0111577
0.0110164
0.0108699
0.0107183
0.010561
0.0103982
0.0102294
0.0100549
0.00987394
0.00968766
0.009494
0.00929718
0.00908837
0.00888721
0.00865092
0.00847115
0.0125548
0.0128702
0.0127142
0.0126849
0.0126559
0.012608
0.0125484
0.0124766
0.0123944
0.0123036
0.0122056
0.0121013
0.0119916
0.0118768
0.0117573
0.0116331
0.0115045
0.0113712
0.0112333
0.0110905
0.0109428
0.0107899
0.0106318
0.0104681
0.0102992
0.0101244
0.00994421
0.00975802
0.00956699
0.00936906
0.00916881
0.00895696
0.00875442
0.00851603
0.00833888
0.0124944
0.0128128
0.0126809
0.0126643
0.0126429
0.0125988
0.0125404
0.0124679
0.0123838
0.0122904
0.0121891
0.0120811
0.0119673
0.0118481
0.011724
0.011595
0.0114612
0.0113227
0.0111793
0.011031
0.0108777
0.0107193
0.0105557
0.0103867
0.0102126
0.010033
0.00984844
0.00965822
0.0094637
0.00926277
0.00906029
0.0088465
0.00864348
0.00840364
0.0082292
0.0124272
0.0127545
0.0126491
0.0126467
0.0126335
0.0125933
0.0125358
0.0124626
0.0123766
0.0122806
0.0121763
0.0120649
0.0119474
0.0118243
0.011696
0.0115626
0.0114244
0.0112812
0.0111332
0.0109801
0.0108221
0.0106589
0.0104907
0.0103172
0.0101389
0.00995527
0.00976703
0.00957356
0.00937626
0.00917298
0.00896884
0.00875365
0.00855052
0.0083097
0.00813799
0.0123624
0.0127021
0.0126231
0.0126342
0.0126284
0.0125912
0.0125342
0.01246
0.0123722
0.0122738
0.0121667
0.0120523
0.0119316
0.0118052
0.0116734
0.0115364
0.0113945
0.0112475
0.0110956
0.0109387
0.0107768
0.0106098
0.0104379
0.010261
0.0100793
0.00989272
0.00970178
0.00950597
0.00930676
0.00910195
0.00889687
0.00868092
0.00847812
0.00823673
0.00806765
0.0122827
0.0126475
0.0125973
0.0126238
0.0126261
0.0125919
0.0125354
0.0124602
0.0123704
0.0122696
0.0121599
0.0120426
0.011919
0.0117894
0.0116544
0.0115142
0.011369
0.0112187
0.0110634
0.010903
0.0107378
0.0105676
0.0103925
0.0102126
0.0100282
0.00983905
0.00964591
0.00944821
0.00924752
0.00904158
0.0088359
0.0086195
0.00841725
0.00817554
0.00800905
0.0122049
0.012599
0.012577
0.0126183
0.0126277
0.0125954
0.0125387
0.0124621
0.0123703
0.0122672
0.0121549
0.0120351
0.0119088
0.0117765
0.0116387
0.0114957
0.0113476
0.0111944
0.0110362
0.010873
0.010705
0.010532
0.0103544
0.010172
0.0099853
0.00979418
0.00959932
0.00940023
0.00919852
0.00899188
0.00878597
0.00856947
0.00836798
0.00812619
0.00796221
0.0121069
0.0125507
0.0125579
0.0126159
0.0126326
0.012602
0.0125448
0.0124665
0.0123726
0.0122671
0.0121524
0.0120301
0.0119012
0.0117665
0.0116262
0.0114807
0.0113301
0.0111743
0.0110137
0.010848
0.0106775
0.0105022
0.0103224
0.010138
0.00994946
0.00975672
0.00956051
0.00936036
0.00915794
0.00895089
0.00874501
0.00852867
0.00832807
0.00808649
0.00792489
0.0120092
0.0125105
0.0125438
0.0126176
0.0126401
0.0126102
0.012552
0.0124719
0.0123757
0.0122679
0.012151
0.0120265
0.0118955
0.0117586
0.0116162
0.0114685
0.0113157
0.0111579
0.0109951
0.0108274
0.010655
0.0104778
0.0102961
0.0101101
0.00992008
0.00972608
0.00952886
0.00932799
0.00912514
0.00891796
0.00871232
0.0084964
0.00829676
0.00805561
0.00789607
0.011892
0.0124758
0.0125334
0.0126243
0.0126521
0.0126218
0.012562
0.0124795
0.012381
0.0122709
0.0121517
0.0120251
0.011892
0.0117532
0.0116089
0.0114593
0.0113047
0.011145
0.0109805
0.0108111
0.0106369
0.0104582
0.0102751
0.0100877
0.00989648
0.0097015
0.00950352
0.00930213
0.00909906
0.00889197
0.00868675
0.00847152
0.00827295
0.00803281
0.00787523
0.0117676
0.0124501
0.0125253
0.0126325
0.0126641
0.0126331
0.0125715
0.0124869
0.0123861
0.0122739
0.0121528
0.0120244
0.0118896
0.0117491
0.0116032
0.0114522
0.0112961
0.011135
0.010969
0.0107982
0.0106227
0.0104427
0.0102585
0.01007
0.00987795
0.00968225
0.00948372
0.00928205
0.00907892
0.0088721
0.00866738
0.00845306
0.00825536
0.0080165
0.00785964
0.0116332
0.0124373
0.0125255
0.0126488
0.0126819
0.0126483
0.012584
0.0124965
0.0123932
0.0122788
0.0121558
0.0120256
0.0118893
0.0117473
0.0116
0.0114476
0.0112902
0.0111279
0.0109608
0.0107889
0.0106124
0.0104314
0.0102462
0.010057
0.00986421
0.00966797
0.00946907
0.00926725
0.00906418
0.00885776
0.00865367
0.0084406
0.00824397
0.00800793
0.00785179
0.0114815
0.0124319
0.0125219
0.012662
0.0126963
0.0126607
0.0125941
0.0125042
0.0123988
0.0122827
0.0121581
0.0120266
0.0118891
0.0117461
0.0115978
0.0114445
0.0112862
0.011123
0.010955
0.0107823
0.010605
0.0104233
0.0102375
0.0100477
0.00985449
0.00965792
0.0094588
0.00925696
0.00905401
0.00884808
0.00864454
0.00843291
0.00823652
0.00800337
0.00784273
0.0113347
0.0124478
0.0125321
0.0126848
0.0127162
0.0126767
0.0126069
0.0125142
0.0124066
0.0122886
0.0121625
0.0120298
0.0118912
0.0117471
0.011598
0.0114439
0.0112849
0.011121
0.0109524
0.010779
0.0106013
0.0104191
0.0102328
0.0100426
0.00984905
0.00965225
0.009453
0.00925118
0.00904842
0.00884298
0.00864015
0.00843018
0.00823523
0.00800815
0.00784498
0.0111797
0.0124558
0.0125318
0.012701
0.0127304
0.0126885
0.0126163
0.0125215
0.0124124
0.0122933
0.0121663
0.0120328
0.0118936
0.011749
0.0115994
0.0114447
0.0112853
0.0111209
0.010952
0.0107782
0.0106001
0.0104176
0.0102311
0.0100407
0.00984692
0.00965001
0.0094507
0.00924896
0.0090463
0.00884135
0.00863887
0.00843071
0.00823529
0.00801413
0.00783815
0.0111051
0.0124818
0.0125433
0.0127207
0.0127466
0.0127021
0.0126275
0.0125309
0.0124203
0.0122999
0.012172
0.0120377
0.0118978
0.0117527
0.0116026
0.0114476
0.0112878
0.0111231
0.0109539
0.01078
0.0106017
0.010419
0.0102324
0.0100419
0.00984815
0.00965121
0.00945195
0.00925025
0.00904779
0.00884304
0.00864124
0.00843394
0.00824298
0.00802663
0.00788619
0.012816
0.0131538
0.012914
0.012837
0.0127772
0.0127117
0.0126469
0.0125788
0.0125073
0.0124329
0.0123557
0.0122761
0.0121943
0.0121105
0.0120248
0.0119372
0.0118475
0.0117554
0.0116608
0.0115632
0.0114621
0.0113571
0.0112478
0.0111332
0.0110132
0.0108867
0.0107535
0.0106126
0.010464
0.0103064
0.0101411
0.00996512
0.00978556
0.00958937
0.00941048
0.0127824
0.0131117
0.0128826
0.0128108
0.0127546
0.0126913
0.0126271
0.0125586
0.0124855
0.0124086
0.0123282
0.0122448
0.0121585
0.0120697
0.0119784
0.0118846
0.0117883
0.0116892
0.011587
0.0114815
0.0113723
0.0112589
0.0111408
0.0110176
0.0108888
0.0107536
0.010612
0.0104629
0.0103067
0.0101416
0.00996961
0.00978512
0.00959939
0.00938411
0.00919966
0.0127456
0.0130687
0.0128499
0.0127839
0.0127315
0.0126704
0.0126066
0.0125371
0.0124619
0.0123818
0.0122975
0.0122093
0.0121176
0.0120228
0.0119249
0.0118239
0.0117199
0.0116124
0.0115015
0.0113867
0.0112677
0.011144
0.0110154
0.0108812
0.0107413
0.0105948
0.0104419
0.0102815
0.0101143
0.00993843
0.00975688
0.00956301
0.00937149
0.00914993
0.00896921
0.0127023
0.0130226
0.0128163
0.0127577
0.0127102
0.012652
0.0125892
0.0125192
0.0124423
0.0123597
0.012272
0.0121798
0.0120837
0.0119837
0.0118803
0.0117733
0.0116628
0.0115486
0.0114306
0.0113083
0.0111816
0.0110501
0.0109135
0.0107713
0.0106233
0.0104691
0.0103086
0.010141
0.00996709
0.00978487
0.00959777
0.00939803
0.00920225
0.00897321
0.00879018
0.012662
0.0129738
0.0127827
0.0127324
0.0126901
0.0126349
0.012573
0.0125023
0.0124235
0.0123381
0.0122468
0.0121503
0.0120493
0.0119441
0.0118348
0.0117216
0.0116045
0.0114833
0.0113579
0.0112279
0.0110934
0.0109537
0.0108088
0.0106583
0.0105021
0.0103396
0.0101711
0.00999584
0.00981464
0.00962561
0.0094326
0.0092274
0.00902831
0.00879544
0.00861481
0.0126105
0.0129219
0.0127483
0.0127079
0.012672
0.0126203
0.0125596
0.0124883
0.0124079
0.0123198
0.0122252
0.0121249
0.0120195
0.0119094
0.011795
0.0116763
0.0115533
0.011426
0.0112942
0.0111577
0.0110164
0.0108699
0.0107183
0.010561
0.0103982
0.0102294
0.0100549
0.00987397
0.00968769
0.00949404
0.00929721
0.00908843
0.00888725
0.00865102
0.00847135
0.0125578
0.0128672
0.012714
0.0126849
0.0126559
0.012608
0.0125484
0.0124766
0.0123944
0.0123036
0.0122056
0.0121013
0.0119916
0.0118768
0.0117573
0.0116331
0.0115045
0.0113712
0.0112333
0.0110905
0.0109428
0.0107899
0.0106318
0.0104682
0.0102992
0.0101244
0.00994422
0.00975804
0.009567
0.00936909
0.00916884
0.00895701
0.00875445
0.00851612
0.00833908
0.0124973
0.0128098
0.0126807
0.0126644
0.0126429
0.0125989
0.0125403
0.0124679
0.0123838
0.0122903
0.0121891
0.0120811
0.0119673
0.0118481
0.011724
0.011595
0.0114612
0.0113227
0.0111793
0.011031
0.0108777
0.0107193
0.0105557
0.0103868
0.0102127
0.0100331
0.00984845
0.00965825
0.00946372
0.00926281
0.00906031
0.00884655
0.00864351
0.00840374
0.00822942
0.01243
0.0127516
0.0126489
0.0126467
0.0126335
0.0125933
0.0125358
0.0124626
0.0123766
0.0122806
0.0121763
0.0120649
0.0119474
0.0118243
0.011696
0.0115626
0.0114244
0.0112812
0.0111332
0.0109801
0.0108221
0.0106589
0.0104907
0.0103172
0.0101389
0.00995529
0.00976704
0.00957358
0.00937627
0.00917301
0.00896886
0.0087537
0.00855055
0.0083098
0.00813822
0.0123651
0.0126994
0.0126229
0.0126342
0.0126284
0.0125912
0.0125342
0.01246
0.0123722
0.0122738
0.0121667
0.0120523
0.0119316
0.0118052
0.0116734
0.0115364
0.0113945
0.0112475
0.0110956
0.0109387
0.0107768
0.0106098
0.0104379
0.010261
0.0100793
0.00989274
0.0097018
0.00950599
0.00930677
0.00910198
0.00889689
0.00868097
0.00847815
0.00823683
0.00806788
0.0122853
0.0126449
0.0125971
0.0126238
0.0126261
0.0125919
0.0125354
0.0124601
0.0123704
0.0122696
0.0121598
0.0120426
0.0119189
0.0117894
0.0116544
0.0115142
0.011369
0.0112187
0.0110634
0.010903
0.0107378
0.0105676
0.0103926
0.0102126
0.0100282
0.00983907
0.00964592
0.00944823
0.00924754
0.00904161
0.00883592
0.00861955
0.00841727
0.00817564
0.00800929
0.0122073
0.0125965
0.0125768
0.0126184
0.0126277
0.0125954
0.0125387
0.0124621
0.0123703
0.0122672
0.0121549
0.0120351
0.0119087
0.0117765
0.0116387
0.0114957
0.0113476
0.0111944
0.0110362
0.010873
0.010705
0.010532
0.0103544
0.010172
0.00998531
0.00979419
0.00959933
0.00940025
0.00919853
0.00899191
0.00878599
0.00856952
0.008368
0.0081263
0.00796246
0.0121093
0.0125483
0.0125578
0.0126159
0.0126326
0.012602
0.0125448
0.0124665
0.0123726
0.012267
0.0121523
0.0120301
0.0119012
0.0117665
0.0116262
0.0114807
0.01133
0.0111743
0.0110137
0.010848
0.0106775
0.0105022
0.0103224
0.010138
0.00994946
0.00975673
0.00956051
0.00936038
0.00915795
0.00895092
0.00874502
0.00852872
0.00832809
0.00808659
0.00792513
0.0120113
0.0125084
0.0125436
0.0126176
0.0126401
0.0126102
0.0125519
0.0124718
0.0123757
0.0122679
0.012151
0.0120265
0.0118955
0.0117586
0.0116162
0.0114685
0.0113157
0.0111579
0.0109951
0.0108274
0.010655
0.0104778
0.0102961
0.0101101
0.00992008
0.00972609
0.00952887
0.009328
0.00912514
0.00891798
0.00871233
0.00849644
0.00829678
0.00805572
0.00789631
0.011894
0.0124739
0.0125334
0.0126243
0.0126521
0.0126218
0.0125619
0.0124795
0.012381
0.0122709
0.0121517
0.0120251
0.011892
0.0117532
0.0116088
0.0114593
0.0113047
0.011145
0.0109805
0.0108111
0.0106369
0.0104582
0.0102751
0.0100877
0.00989648
0.00970151
0.00950352
0.00930215
0.00909907
0.008892
0.00868676
0.00847156
0.00827296
0.00803292
0.00787548
0.0117694
0.0124484
0.0125253
0.0126325
0.0126642
0.0126331
0.0125715
0.0124869
0.0123861
0.0122739
0.0121528
0.0120243
0.0118896
0.0117491
0.0116032
0.0114522
0.011296
0.0111349
0.010969
0.0107982
0.0106227
0.0104427
0.0102584
0.01007
0.00987794
0.00968226
0.00948373
0.00928207
0.00907893
0.00887213
0.0086674
0.00845311
0.00825538
0.00801661
0.00785989
0.0116347
0.0124358
0.0125255
0.0126489
0.0126819
0.0126483
0.012584
0.0124965
0.0123932
0.0122788
0.0121557
0.0120256
0.0118892
0.0117473
0.0116
0.0114476
0.0112902
0.0111279
0.0109608
0.0107889
0.0106124
0.0104314
0.0102462
0.010057
0.00986421
0.00966799
0.00946908
0.00926728
0.0090642
0.0088578
0.00865369
0.00844066
0.00824399
0.00800805
0.00785205
0.0114828
0.0124306
0.0125219
0.012662
0.0126963
0.0126607
0.012594
0.0125042
0.0123988
0.0122826
0.0121581
0.0120266
0.0118891
0.0117461
0.0115978
0.0114445
0.0112862
0.011123
0.010955
0.0107823
0.010605
0.0104234
0.0102375
0.0100478
0.00985452
0.00965796
0.00945883
0.009257
0.00905405
0.00884814
0.00864458
0.00843298
0.00823656
0.0080035
0.00784295
0.0113359
0.0124471
0.0125322
0.0126849
0.0127162
0.0126767
0.0126069
0.0125142
0.0124066
0.0122886
0.0121626
0.0120298
0.0118912
0.0117472
0.0115981
0.0114439
0.0112849
0.011121
0.0109524
0.0107791
0.0106013
0.0104191
0.0102329
0.0100427
0.0098491
0.0096523
0.00945305
0.00925124
0.00904847
0.00884305
0.0086402
0.00843026
0.00823527
0.00800826
0.00784517
0.0111817
0.0124554
0.0125321
0.0127013
0.0127307
0.0126887
0.0126164
0.0125217
0.0124126
0.0122934
0.0121665
0.0120329
0.0118937
0.011749
0.0115994
0.0114448
0.0112853
0.011121
0.010952
0.0107783
0.0106001
0.0104176