/*--------------------------------*- C++ -*----------------------------------*\
  =========                 |
  \\      /  F ield         | OpenFOAM: The Open Source CFD Toolbox
   \\    /   O peration     | Website:  https://openfoam.org
    \\  /    A nd           | Version:  6
     \\/     M anipulation  |
\*---------------------------------------------------------------------------*/
FoamFile
{
    version     2.0;
    format      ascii;
    class       volVectorField;
    location    "8";
    object      wallShearStress;
}
// * * * * * * * * * * * * * * * * * * * * * * * * * * * * * * * * * * * * * //

dimensions      [0 2 -2 0 0 0 0];

internalField   uniform (0 0 0);

boundaryField
{
    inlet
    {
        type            calculated;
        value           uniform (0 0 0);
    }
    outlet
    {
        type            calculated;
        value           uniform (0 0 0);
    }
    roughCylinder
    {
        type            calculated;
        value           nonuniform List<vector> 
5120
(
(-0.000524926 -0.00074941 -0.000393521)
(-0.000394331 -0.000570977 -3.90411e-05)
(-0.000353344 -0.000549952 2.55671e-06)
(-0.000393301 -0.000615495 5.1156e-05)
(-0.000461461 -0.000694764 0.000107446)
(-0.000533198 -0.000755068 0.000160429)
(-0.000605419 -0.000794537 0.000206885)
(-0.000673689 -0.000815402 0.000245565)
(-0.000735651 -0.000821997 0.000275811)
(-0.000791592 -0.000822703 0.00029881)
(-0.000842308 -0.000824038 0.000316465)
(-0.000884502 -0.00082648 0.000327761)
(-0.000920274 -0.000833444 0.000333278)
(-0.000950688 -0.00084472 0.000334012)
(-0.000976995 -0.000859823 0.000331153)
(-0.00100067 -0.00087781 0.000325754)
(-0.00102338 -0.000897981 0.000318693)
(-0.00104633 -0.000919777 0.000310495)
(-0.00107023 -0.000942836 0.000301396)
(-0.00109556 -0.000967108 0.000291488)
(-0.00112238 -0.000992518 0.00028073)
(-0.00115063 -0.001019 0.000269041)
(-0.00118016 -0.00104645 0.000256292)
(-0.00121077 -0.00107469 0.000242314)
(-0.00124223 -0.00110347 0.000226843)
(-0.00127417 -0.00113244 0.000209507)
(-0.00130614 -0.00116114 0.000189749)
(-0.00133748 -0.00118894 0.000166823)
(-0.00136721 -0.00121493 0.000139607)
(-0.00139385 -0.00123784 0.000106953)
(-0.00141468 -0.001256 6.71468e-05)
(-0.00142607 -0.00126658 2.24575e-05)
(-0.000576098 -0.000748871 -0.000394365)
(-0.000429621 -0.000569943 -4.30761e-05)
(-0.000379054 -0.000541168 -3.35862e-06)
(-0.000413983 -0.000598896 4.20966e-05)
(-0.000483387 -0.000678107 9.62259e-05)
(-0.000557082 -0.000740084 0.000147934)
(-0.000631236 -0.000781624 0.000193565)
(-0.000701963 -0.000805212 0.000231869)
(-0.000767532 -0.000815922 0.000262595)
(-0.000827861 -0.000820828 0.000286942)
(-0.000882112 -0.000824152 0.00030595)
(-0.000927703 -0.000826088 0.000318393)
(-0.000965018 -0.000831774 0.00032447)
(-0.000997053 -0.000842144 0.000325519)
(-0.00102475 -0.000856524 0.000322841)
(-0.00104988 -0.000874097 0.000317594)
(-0.0010739 -0.00089392 0.000310639)
(-0.00109812 -0.000915412 0.000302559)
(-0.00112346 -0.000938316 0.00029366)
(-0.00115016 -0.000962375 0.000283989)
(-0.00117838 -0.000987536 0.000273528)
(-0.00120804 -0.00101373 0.000262186)
(-0.00123901 -0.00104084 0.000249837)
(-0.00127108 -0.00106872 0.000236303)
(-0.00130398 -0.00109711 0.000221314)
(-0.00133736 -0.00112567 0.000204497)
(-0.00137072 -0.00115394 0.000185293)
(-0.0014034 -0.0011813 0.000162969)
(-0.00143436 -0.00120689 0.00013642)
(-0.00146209 -0.00122943 0.000104527)
(-0.00148376 -0.0012473 6.56141e-05)
(-0.00149563 -0.0012577 2.19338e-05)
(-0.000608852 -0.000709034 -0.000369824)
(-0.000449336 -0.00054552 -4.56249e-05)
(-0.000399449 -0.000519161 -9.75072e-06)
(-0.000433162 -0.00057576 3.22453e-05)
(-0.000503523 -0.000654807 8.40232e-05)
(-0.000578934 -0.000718104 0.00013432)
(-0.000655139 -0.000761982 0.000179165)
(-0.000728851 -0.00078915 0.000217438)
(-0.000798246 -0.000804216 0.000248951)
(-0.000862578 -0.00081283 0.000274531)
(-0.00092057 -0.000818405 0.000294598)
(-0.000969839 -0.000821162 0.000308181)
(-0.00100902 -0.000825083 0.00031475)
(-0.00104245 -0.000834275 0.000316077)
(-0.00107175 -0.00084786 0.000313668)
(-0.00109824 -0.000864725 0.000308591)
(-0.00112368 -0.00088407 0.000301816)
(-0.00114934 -0.000905196 0.000293944)
(-0.0011759 -0.000927606 0.000285242)
(-0.00120393 -0.000951218 0.000275846)
(-0.0012335 -0.000975925 0.000265722)
(-0.00126456 -0.00100165 0.000254781)
(-0.00129694 -0.00102826 0.000242882)
(-0.00133041 -0.00105559 0.000229839)
(-0.00136469 -0.00108338 0.000215376)
(-0.00139941 -0.00111132 0.000199119)
(-0.00143409 -0.00113897 0.000180513)
(-0.00146802 -0.0011657 0.000158835)
(-0.00150014 -0.00119069 0.000133004)
(-0.00152887 -0.00121271 0.000101926)
(-0.00155134 -0.00123017 6.3973e-05)
(-0.00156363 -0.0012403 2.13744e-05)
(-0.000558982 -0.000587173 -0.000290439)
(-0.000478405 -0.000522658 -4.96837e-05)
(-0.000421544 -0.000498564 -1.71577e-05)
(-0.00044819 -0.000546843 2.18667e-05)
(-0.000518832 -0.000624892 7.10782e-05)
(-0.000596076 -0.000689848 0.000119795)
(-0.000674685 -0.000736633 0.000163806)
(-0.000751428 -0.000767628 0.000202039)
(-0.000824637 -0.000787167 0.00023439)
(-0.000893151 -0.000799678 0.000261266)
(-0.000954547 -0.000807196 0.000282265)
(-0.00100726 -0.000811282 0.000296767)
(-0.00104963 -0.000814264 0.000304117)
(-0.00108488 -0.000822219 0.000305936)
(-0.00111568 -0.00083463 0.000303786)
(-0.00114378 -0.000850759 0.000298997)
(-0.00117063 -0.000869432 0.000292456)
(-0.00119755 -0.000889899 0.000284807)
(-0.00122561 -0.000911882 0.000276426)
(-0.00125503 -0.000935001 0.000267378)
(-0.00128596 -0.000959163 0.000257649)
(-0.00131833 -0.000984258 0.000247144)
(-0.00135201 -0.0010102 0.000235728)
(-0.00138677 -0.00103681 0.000223206)
(-0.00142232 -0.00106386 0.000209299)
(-0.00145827 -0.00109102 0.000193626)
(-0.00149413 -0.00111787 0.000175636)
(-0.00152919 -0.00114383 0.000154622)
(-0.00156234 -0.00116808 0.000129523)
(-0.00159197 -0.00118944 9.92788e-05)
(-0.00161513 -0.00120638 6.23039e-05)
(-0.0016278 -0.0012162 2.08064e-05)
(-0.000659183 -0.000618812 -0.000288101)
(-0.000496928 -0.00048984 -5.33157e-05)
(-0.000435965 -0.000467698 -2.38677e-05)
(-0.000459145 -0.000513618 1.14292e-05)
(-0.000529317 -0.00059023 5.77352e-05)
(-0.000607994 -0.000656337 0.00010456)
(-0.000688761 -0.000705777 0.000147499)
(-0.000768882 -0.000740936 0.000185666)
(-0.000845979 -0.000764897 0.000218783)
(-0.000917899 -0.000780546 0.000246672)
(-0.000983177 -0.000790436 0.000268777)
(-0.00103921 -0.000795694 0.000284042)
(-0.00108573 -0.000799246 0.000292474)
(-0.00112315 -0.00080525 0.000294874)
(-0.00115585 -0.000816643 0.000293219)
(-0.0011855 -0.000831642 0.000288756)
(-0.0012139 -0.000849482 0.000282557)
(-0.00124243 -0.00086937 0.000275286)
(-0.00127166 -0.000890545 0.000267223)
(-0.0013023 -0.000912921 0.000258556)
(-0.00133447 -0.000936333 0.000249266)
(-0.00136811 -0.000960686 0.000239258)
(-0.00140302 -0.000985822 0.000228374)
(-0.00143896 -0.00101157 0.000216414)
(-0.00147565 -0.0010377 0.000203093)
(-0.0015127 -0.00106392 0.000188028)
(-0.0015496 -0.00108982 0.000170676)
(-0.00158563 -0.00111484 0.000150342)
(-0.00161969 -0.00113821 0.00012599)
(-0.00165012 -0.00115878 9.65939e-05)
(-0.00167389 -0.0011751 6.06148e-05)
(-0.00168687 -0.00118454 2.02328e-05)
(-0.000617766 -0.000515527 -0.000225396)
(-0.000520319 -0.000463254 -5.60312e-05)
(-0.000450353 -0.000437398 -3.09267e-05)
(-0.000464189 -0.000475746 9.09398e-07)
(-0.00053306 -0.000550359 4.39559e-05)
(-0.000613224 -0.000617788 8.85834e-05)
(-0.000696727 -0.000670468 0.000130323)
(-0.000779983 -0.000709401 0.000168192)
(-0.000860513 -0.000737116 0.000201797)
(-0.000936708 -0.000756423 0.000230781)
(-0.00100527 -0.000768131 0.00025381)
(-0.00106519 -0.000774866 0.000270042)
(-0.00111537 -0.000779152 0.000279358)
(-0.00115702 -0.000784694 0.000282859)
(-0.00119155 -0.000793891 0.000281756)
(-0.00122313 -0.000807829 0.000277838)
(-0.00125321 -0.000824651 0.000272087)
(-0.00128297 -0.000843436 0.000265194)
(-0.0013138 -0.000863905 0.000257623)
(-0.00134586 -0.000885524 0.000249454)
(-0.00137932 -0.000908112 0.000240684)
(-0.00141411 -0.000931527 0.000231215)
(-0.00145012 -0.000955677 0.000220901)
(-0.00148711 -0.000980396 0.000209536)
(-0.0015248 -0.00100547 0.000196826)
(-0.00156278 -0.00103058 0.000182389)
(-0.00160057 -0.00105538 0.000165687)
(-0.00163745 -0.00107932 0.000146042)
(-0.00167227 -0.00110165 0.000122444)
(-0.00170335 -0.0011213 9.38992e-05)
(-0.00172764 -0.00113691 5.89212e-05)
(-0.00174087 -0.00114594 1.9659e-05)
(-0.000600031 -0.000446488 -0.000174537)
(-0.000525304 -0.000416889 -5.87925e-05)
(-0.000458018 -0.000402686 -3.75782e-05)
(-0.000464287 -0.000436028 -9.27675e-06)
(-0.000530759 -0.000507774 3.01276e-05)
(-0.000611824 -0.000575972 7.21222e-05)
(-0.000696968 -0.00063082 0.000112178)
(-0.000783484 -0.000673506 0.000149528)
(-0.000868283 -0.000705385 0.00018357)
(-0.000947534 -0.000727066 0.000213165)
(-0.00102038 -0.000741226 0.000237287)
(-0.00108397 -0.000749183 0.000254505)
(-0.0011384 -0.000754503 0.000264906)
(-0.00118377 -0.000759981 0.000269364)
(-0.00122236 -0.000768188 0.000269363)
(-0.00125585 -0.000780041 0.00026609)
(-0.00128773 -0.000795367 0.000260918)
(-0.00131945 -0.000813308 0.000254673)
(-0.00135147 -0.000832605 0.000247599)
(-0.00138466 -0.000853126 0.000239961)
(-0.00141922 -0.000874646 0.00023176)
(-0.00145514 -0.00089703 0.000222905)
(-0.00149219 -0.000920097 0.000213224)
(-0.00153012 -0.00094366 0.000202498)
(-0.00156865 -0.000967521 0.000190434)
(-0.00160742 -0.00099141 0.000176652)
(-0.00164594 -0.00101497 0.000160619)
(-0.00168348 -0.00103769 0.000141677)
(-0.00171893 -0.00105888 0.000118847)
(-0.00175057 -0.00107752 9.11694e-05)
(-0.00177527 -0.00109233 5.72088e-05)
(-0.00178866 -0.00110089 1.90804e-05)
(-0.000586569 -0.000387082 -0.000133937)
(-0.000524906 -0.000372123 -5.99239e-05)
(-0.000457099 -0.00036285 -4.32847e-05)
(-0.000456867 -0.000393033 -1.91363e-05)
(-0.000519371 -0.000460996 1.6107e-05)
(-0.000600707 -0.000529488 5.49586e-05)
(-0.000688658 -0.000587534 9.31072e-05)
(-0.00077833 -0.000633714 0.000129577)
(-0.000865927 -0.000668333 0.000163467)
(-0.00095025 -0.000693708 0.000193873)
(-0.00102665 -0.000709599 0.000218793)
(-0.0010948 -0.000719289 0.000237235)
(-0.00115315 -0.000725297 0.000248785)
(-0.00120299 -0.000731213 0.000254475)
(-0.00124515 -0.000738791 0.000255515)
(-0.00128228 -0.000749388 0.000253304)
(-0.00131687 -0.000763293 0.000249072)
(-0.00134985 -0.000779364 0.000243455)
(-0.00138369 -0.000797503 0.000237104)
(-0.00141844 -0.000816927 0.000230168)
(-0.0014543 -0.00083732 0.000222654)
(-0.0014912 -0.000858471 0.000214466)
(-0.0015291 -0.000880269 0.000205455)
(-0.0015678 -0.000902555 0.000195407)
(-0.00160702 -0.000925109 0.000184017)
(-0.00164639 -0.000947662 0.000170905)
(-0.00168545 -0.000969879 0.000155551)
(-0.0017235 -0.000991291 0.000137317)
(-0.00175941 -0.00101122 0.000115253)
(-0.00179143 -0.00102872 8.84415e-05)
(-0.00181642 -0.00104265 5.55019e-05)
(-0.0018299 -0.00105077 1.85061e-05)
(-0.000648369 -0.000374709 -0.000116842)
(-0.00052511 -0.000335526 -6.05764e-05)
(-0.000453299 -0.000323843 -4.80202e-05)
(-0.000442631 -0.000348595 -2.82884e-05)
(-0.000500621 -0.000412876 2.35801e-06)
(-0.000581917 -0.000481407 3.75922e-05)
(-0.000670165 -0.000540477 7.31094e-05)
(-0.000762251 -0.000589454 0.000108159)
(-0.000855036 -0.000628462 0.000141918)
(-0.00094211 -0.000655609 0.000172397)
(-0.00102363 -0.000674147 0.000198284)
(-0.00109595 -0.000685144 0.000217836)
(-0.00115935 -0.000692388 0.000230882)
(-0.00121317 -0.000698326 0.000237884)
(-0.00125963 -0.000705691 0.000240261)
(-0.00130021 -0.000715354 0.000239225)
(-0.00133754 -0.000727914 0.000236049)
(-0.0013736 -0.000742885 0.000231517)
(-0.00140902 -0.000759459 0.000225996)
(-0.00144499 -0.000777388 0.000219843)
(-0.00148189 -0.000796373 0.000213095)
(-0.00151983 -0.000816227 0.000205685)
(-0.00155856 -0.000836705 0.000197433)
(-0.00159788 -0.00085761 0.000188114)
(-0.00163755 -0.00087874 0.000177434)
(-0.00167729 -0.000899863 0.00016502)
(-0.00171666 -0.000920645 0.000150364)
(-0.00175499 -0.000940646 0.000132853)
(-0.0017912 -0.000959273 0.000111578)
(-0.00182355 -0.000975614 8.56579e-05)
(-0.00184874 -0.000988642 5.37663e-05)
(-0.00186207 -0.000996235 1.79238e-05)
(-0.000601045 -0.000304126 -8.2208e-05)
(-0.000521413 -0.000297492 -6.0416e-05)
(-0.000443746 -0.000284809 -5.2631e-05)
(-0.000421286 -0.000303661 -3.66323e-05)
(-0.000470769 -0.000361439 -1.07607e-05)
(-0.000549741 -0.000428247 2.00822e-05)
(-0.000640586 -0.000490147 5.24965e-05)
(-0.000736191 -0.000542647 8.56466e-05)
(-0.000830432 -0.000583192 0.000118213)
(-0.000923838 -0.000614512 0.000149004)
(-0.00100938 -0.000634786 0.000175425)
(-0.00108721 -0.000647739 0.000196282)
(-0.00115503 -0.00065563 0.000210752)
(-0.00121413 -0.000662154 0.000219484)
(-0.00126457 -0.000668986 0.000223348)
(-0.00130901 -0.000677856 0.000223746)
(-0.00134969 -0.000689361 0.00022188)
(-0.00138746 -0.000702563 0.000218365)
(-0.00142526 -0.000717971 0.000213977)
(-0.00146321 -0.000734738 0.000208868)
(-0.00150156 -0.000752465 0.000203074)
(-0.00154034 -0.00077088 0.000196523)
(-0.00157962 -0.000789857 0.000189085)
(-0.00161933 -0.000809256 0.00018055)
(-0.00165926 -0.000828865 0.000170623)
(-0.00169911 -0.000848441 0.000158936)
(-0.00173853 -0.000867698 0.000145003)
(-0.00177694 -0.000886245 0.000128243)
(-0.00181321 -0.000903495 0.000107781)
(-0.00184562 -0.000918627 8.27802e-05)
(-0.00187081 -0.000930691 5.1973e-05)
(-0.00188393 -0.000937698 1.73232e-05)
(-0.000544745 -0.000242369 -4.6008e-05)
(-0.000500471 -0.00024855 -6.09961e-05)
(-0.000425724 -0.000245356 -5.64331e-05)
(-0.000392211 -0.000258748 -4.3608e-05)
(-0.000432985 -0.000310225 -2.27269e-05)
(-0.000510328 -0.000375845 3.16995e-06)
(-0.000599087 -0.000436977 3.15263e-05)
(-0.000694906 -0.000490598 6.177e-05)
(-0.00079607 -0.000536484 9.31916e-05)
(-0.000891591 -0.000569076 0.000123191)
(-0.000983363 -0.00059243 0.000150241)
(-0.00106612 -0.000606799 0.000172171)
(-0.00114019 -0.00061614 0.000188413)
(-0.00120391 -0.000622639 0.000198885)
(-0.0012595 -0.000629329 0.000204645)
(-0.00130804 -0.000637354 0.000206739)
(-0.00135166 -0.000647426 0.000206321)
(-0.00139319 -0.000659759 0.000204334)
(-0.00143264 -0.000673485 0.000201114)
(-0.0014716 -0.000688499 0.000197055)
(-0.00151073 -0.000704554 0.00019226)
(-0.00155032 -0.000721463 0.000186692)
(-0.00159017 -0.000738934 0.000180182)
(-0.00163012 -0.000756751 0.000172509)
(-0.00167003 -0.000774736 0.000163389)
(-0.00170976 -0.000792694 0.000152481)
(-0.00174898 -0.000810351 0.000139314)
(-0.00178714 -0.000827336 0.000123343)
(-0.00182325 -0.000843163 0.000103745)
(-0.00185556 -0.000857055 7.97223e-05)
(-0.00188061 -0.000868134 5.00695e-05)
(-0.00189342 -0.0008745 1.66872e-05)
(-0.000553309 -0.000211719 -2.3066e-05)
(-0.000470255 -0.000205025 -6.08237e-05)
(-0.000397355 -0.000205101 -5.8427e-05)
(-0.000356042 -0.000214995 -4.8939e-05)
(-0.000382701 -0.000256926 -3.2867e-05)
(-0.000452574 -0.000317033 -1.26118e-05)
(-0.000543469 -0.000380323 1.08442e-05)
(-0.000644236 -0.000438308 3.75432e-05)
(-0.000744047 -0.000484006 6.6216e-05)
(-0.000847717 -0.000521854 9.55905e-05)
(-0.000943889 -0.000547137 0.000122609)
(-0.00103337 -0.000563873 0.00014572)
(-0.00111253 -0.000573828 0.000163533)
(-0.00118273 -0.000581003 0.000176157)
(-0.00124312 -0.000587108 0.000183949)
(-0.00129612 -0.000594218 0.000188032)
(-0.00134405 -0.000603281 0.000189504)
(-0.00138719 -0.000613541 0.000188937)
(-0.00142937 -0.000625955 0.000187235)
(-0.0014707 -0.000639714 0.000184573)
(-0.00151145 -0.000654398 0.000181021)
(-0.00155169 -0.000669674 0.000176529)
(-0.00159172 -0.000685445 0.000170996)
(-0.00163163 -0.000701581 0.000164233)
(-0.00167134 -0.000717896 0.000155967)
(-0.00171067 -0.000734164 0.000145863)
(-0.00174943 -0.000750169 0.000133482)
(-0.00178718 -0.000765586 0.000118323)
(-0.00182286 -0.000779938 9.96047e-05)
(-0.00185482 -0.000792541 7.65823e-05)
(-0.00187952 -0.000802581 4.8116e-05)
(-0.00189195 -0.000808303 1.60366e-05)
(-0.000446856 -0.000143903 -6.85126e-06)
(-0.000407074 -0.000159107 -5.49266e-05)
(-0.000352533 -0.000162746 -5.70512e-05)
(-0.000309559 -0.000171359 -5.1462e-05)
(-0.000325078 -0.000205581 -4.02966e-05)
(-0.000391952 -0.000263023 -2.65159e-05)
(-0.000476536 -0.000322557 -8.80903e-06)
(-0.000572495 -0.000378507 1.30189e-05)
(-0.000682606 -0.000431792 3.87498e-05)
(-0.000786659 -0.000470243 6.59368e-05)
(-0.000890457 -0.000499553 9.27988e-05)
(-0.000985733 -0.000518186 0.000116661)
(-0.00107272 -0.000530114 0.000136347)
(-0.00114832 -0.00053724 0.000151041)
(-0.00121483 -0.000543151 0.000161245)
(-0.00127293 -0.000549363 0.000167639)
(-0.00132409 -0.000556706 0.000171098)
(-0.00137218 -0.00056616 0.000172644)
(-0.00141624 -0.000576694 0.000172538)
(-0.00145836 -0.000588394 0.000171249)
(-0.00149955 -0.000601122 0.000168956)
(-0.00154039 -0.000614717 0.000165673)
(-0.00158074 -0.000628864 0.000161253)
(-0.0016205 -0.000643307 0.000155488)
(-0.00165968 -0.00065788 0.000148125)
(-0.00169837 -0.000672441 0.000138871)
(-0.00173638 -0.000686761 0.000127316)
(-0.00177334 -0.00070054 0.000113002)
(-0.00180839 -0.000713409 9.52136e-05)
(-0.00183982 -0.000724726 7.32531e-05)
(-0.00186406 -0.000733732 4.60492e-05)
(-0.00187596 -0.000738792 1.53501e-05)
(-0.000372328 -0.000101068 5.28556e-06)
(-0.000354205 -0.00012257 -5.08827e-05)
(-0.000309304 -0.000128096 -5.60648e-05)
(-0.000262416 -0.000133626 -5.2526e-05)
(-0.000257322 -0.000154368 -4.38716e-05)
(-0.000305565 -0.000198797 -3.56887e-05)
(-0.000392212 -0.000259797 -2.53601e-05)
(-0.000496722 -0.000322338 -1.00113e-05)
(-0.000598568 -0.0003718 1.08479e-05)
(-0.000713941 -0.000417906 3.5583e-05)
(-0.000821926 -0.000449592 6.11901e-05)
(-0.000925042 -0.00047146 8.56026e-05)
(-0.00101761 -0.000484334 0.000106698)
(-0.00110125 -0.00049264 0.000123804)
(-0.00117368 -0.000498102 0.000136533)
(-0.00123691 -0.000503237 0.00014546)
(-0.00129366 -0.000509625 0.000151451)
(-0.00134307 -0.000516584 0.000154888)
(-0.00139033 -0.000525631 0.000156767)
(-0.00143542 -0.000536033 0.0001573)
(-0.00147859 -0.000547343 0.000156593)
(-0.00151995 -0.000559199 0.00015463)
(-0.00156005 -0.000571509 0.000151354)
(-0.00159927 -0.000584177 0.000146622)
(-0.00163776 -0.000597036 0.000140201)
(-0.0016755 -0.000609879 0.00013181)
(-0.0017125 -0.000622521 0.000121087)
(-0.00174857 -0.000634733 0.000107631)
(-0.0017827 -0.000646107 9.0775e-05)
(-0.00181333 -0.000656115 6.9883e-05)
(-0.0018369 -0.000664072 4.39593e-05)
(-0.00184821 -0.000668494 1.46594e-05)
(-0.000241599 -5.47852e-05 1.69757e-05)
(-0.000268508 -7.8946e-05 -4.4517e-05)
(-0.000246046 -9.22561e-05 -5.2846e-05)
(-0.000205532 -9.74285e-05 -5.049e-05)
(-0.000186251 -0.000107529 -4.22361e-05)
(-0.000230806 -0.000147166 -4.12647e-05)
(-0.000301178 -0.000197922 -3.80043e-05)
(-0.000389909 -0.000252175 -2.90822e-05)
(-0.000511103 -0.000315305 -1.51007e-05)
(-0.000621299 -0.000359845 5.11355e-06)
(-0.000738541 -0.000397468 2.88071e-05)
(-0.000848133 -0.00042239 5.29126e-05)
(-0.000950419 -0.000438564 7.54187e-05)
(-0.00103982 -0.000447199 9.45607e-05)
(-0.00111911 -0.000452685 0.000109976)
(-0.00118855 -0.000457108 0.000121724)
(-0.00124853 -0.000461502 0.000130193)
(-0.00130448 -0.000467825 0.000136347)
(-0.00135387 -0.000474831 0.000140293)
(-0.00139933 -0.000482876 0.000142543)
(-0.0014424 -0.000491974 0.000143365)
(-0.00148405 -0.000502029 0.000142842)
(-0.00152425 -0.000512699 0.000140866)
(-0.00156293 -0.000523682 0.000137261)
(-0.00160033 -0.000534806 0.000131822)
(-0.00163684 -0.000545969 0.000124337)
(-0.00167252 -0.000556963 0.00011448)
(-0.0017072 -0.000567557 0.000101909)
(-0.0017402 -0.000577482 8.60425e-05)
(-0.0017699 -0.000586234 6.62905e-05)
(-0.00179267 -0.000593183 4.17361e-05)
(-0.00180324 -0.000596977 1.39266e-05)
(-0.000112609 -1.95819e-05 1.60552e-05)
(-0.000167456 -4.33734e-05 -3.30602e-05)
(-0.000168661 -5.76136e-05 -4.55248e-05)
(-0.000147056 -6.59012e-05 -4.61376e-05)
(-0.000107849 -6.12781e-05 -3.30051e-05)
(-0.000104346 -6.6591e-05 -2.75781e-05)
(-0.000189833 -0.000126319 -3.96261e-05)
(-0.000297381 -0.000194053 -4.38588e-05)
(-0.000389514 -0.000242507 -3.64568e-05)
(-0.000519897 -0.000301628 -2.27954e-05)
(-0.000639554 -0.000342189 -2.97068e-06)
(-0.000757854 -0.00037222 1.99159e-05)
(-0.000865303 -0.000390314 4.28246e-05)
(-0.000964433 -0.000401568 6.39469e-05)
(-0.00105075 -0.000407454 8.19338e-05)
(-0.00112571 -0.000411055 9.648e-05)
(-0.00119283 -0.000414921 0.000107965)
(-0.00124926 -0.000418416 0.000116394)
(-0.00130224 -0.000423877 0.000122752)
(-0.00135151 -0.000430714 0.000127248)
(-0.00139715 -0.000438492 0.00013001)
(-0.00143923 -0.000446823 0.000131052)
(-0.0014786 -0.000455627 0.000130374)
(-0.00151616 -0.000464858 0.000127904)
(-0.00155235 -0.000474355 0.000123477)
(-0.00158732 -0.000483891 0.000116894)
(-0.00162143 -0.000493322 0.000107894)
(-0.00165475 -0.000502462 9.62139e-05)
(-0.00168634 -0.000510983 8.13216e-05)
(-0.00171478 -0.000518486 6.26998e-05)
(-0.00173652 -0.000524448 3.95165e-05)
(-0.00174633 -0.000527672 1.31989e-05)
(-2.28719e-05 -2.17379e-06 8.82656e-06)
(-6.93199e-05 -1.63823e-05 -1.578e-05)
(-8.2083e-05 -2.46208e-05 -3.05193e-05)
(-7.11627e-05 -3.02951e-05 -3.24272e-05)
(-5.30853e-05 -3.10893e-05 -2.5011e-05)
(-7.49776e-05 -5.25238e-05 -3.06641e-05)
(-7.5933e-05 -5.3965e-05 -2.41237e-05)
(-0.000138961 -9.40287e-05 -3.39903e-05)
(-0.000288779 -0.000182003 -5.15076e-05)
(-0.000395083 -0.000232139 -4.57817e-05)
(-0.000527276 -0.000283683 -3.15095e-05)
(-0.000651691 -0.00031877 -1.16946e-05)
(-0.000770755 -0.000342898 1.06869e-05)
(-0.000875055 -0.000355713 3.28403e-05)
(-0.000968432 -0.000362689 5.30169e-05)
(-0.00105053 -0.0003665 7.03405e-05)
(-0.00112009 -0.00036848 8.44481e-05)
(-0.00118502 -0.00037196 9.59822e-05)
(-0.00124026 -0.00037548 0.000104766)
(-0.00128908 -0.000379817 0.000111255)
(-0.00133366 -0.000385228 0.000115755)
(-0.0013755 -0.000391755 0.000118425)
(-0.0014148 -0.000399062 0.000119214)
(-0.00145138 -0.000406759 0.000117973)
(-0.00148584 -0.000414664 0.000114581)
(-0.00151898 -0.000422684 0.000108933)
(-0.00155115 -0.000430628 0.000100821)
(-0.00158242 -0.000438295 9.00561e-05)
(-0.00161237 -0.000445506 7.62097e-05)
(-0.00163947 -0.000451875 5.88127e-05)
(-0.0016601 -0.000456927 3.71177e-05)
(-0.00166893 -0.000459599 1.24132e-05)
(-1.71632e-06 2.27069e-06 1.40124e-05)
(-1.03211e-05 -1.81858e-06 -2.43148e-06)
(-1.70404e-05 -3.86146e-06 -1.2812e-05)
(-2.23747e-05 -1.10706e-05 -1.95642e-05)
(-2.60281e-05 -1.93732e-05 -2.19794e-05)
(-3.9611e-05 -3.55314e-05 -2.77704e-05)
(-5.58709e-05 -4.75002e-05 -2.92072e-05)
(-5.80357e-05 -4.40249e-05 -2.29174e-05)
(-0.000112348 -7.3406e-05 -3.27874e-05)
(-0.000277971 -0.000165171 -5.88932e-05)
(-0.000400967 -0.000218346 -5.36739e-05)
(-0.000534955 -0.000263121 -3.93769e-05)
(-0.000657165 -0.000291153 -1.92923e-05)
(-0.000772568 -0.000309461 2.67063e-06)
(-0.000872962 -0.000318603 2.42071e-05)
(-0.000959944 -0.000322634 4.37245e-05)
(-0.00103835 -0.00032538 6.07047e-05)
(-0.00110178 -0.000326069 7.45376e-05)
(-0.00116068 -0.000328365 8.59081e-05)
(-0.00121428 -0.000331918 9.49177e-05)
(-0.00126226 -0.000336384 0.000101639)
(-0.00130451 -0.000341421 0.000106074)
(-0.00134216 -0.000346971 0.000108256)
(-0.00137693 -0.000353098 0.000108209)
(-0.0014096 -0.000359606 0.00010586)
(-0.00144059 -0.000366242 0.000101123)
(-0.00147062 -0.000372861 9.38729e-05)
(-0.00150011 -0.000379313 8.402e-05)
(-0.00152817 -0.000385318 7.11858e-05)
(-0.00155357 -0.000390607 5.49826e-05)
(-0.00157282 -0.000394798 3.47548e-05)
(-0.00158075 -0.000397022 1.16434e-05)
(5.61176e-06 6.58064e-06 2.32577e-05)
(1.03361e-05 5.13809e-06 -1.58516e-06)
(9.6099e-06 1.64195e-06 -1.1608e-05)
(7.21912e-06 -6.24362e-06 -1.87262e-05)
(3.10901e-07 -1.52068e-05 -2.25953e-05)
(-8.67803e-06 -2.4149e-05 -2.43534e-05)
(-2.19615e-05 -3.26645e-05 -2.60643e-05)
(-4.26561e-05 -4.16725e-05 -3.02829e-05)
(-7.57368e-05 -5.70026e-05 -3.6985e-05)
(-8.03181e-05 -4.95362e-05 -2.68508e-05)
(-0.000265804 -0.000145831 -6.13088e-05)
(-0.000399699 -0.00019878 -5.85855e-05)
(-0.000537364 -0.000239141 -4.44856e-05)
(-0.000655888 -0.000261438 -2.4634e-05)
(-0.000764019 -0.000274516 -3.13981e-06)
(-0.000859005 -0.000280975 1.77882e-05)
(-0.000937459 -0.000282598 3.66999e-05)
(-0.00101184 -0.000284814 5.33608e-05)
(-0.00107273 -0.000285799 6.71447e-05)
(-0.00112426 -0.000287037 7.81729e-05)
(-0.00116944 -0.000289235 8.66574e-05)
(-0.00121049 -0.00029267 9.27722e-05)
(-0.00124793 -0.0002971 9.65091e-05)
(-0.00128122 -0.00030201 9.77232e-05)
(-0.00131146 -0.000307223 9.64075e-05)
(-0.00133994 -0.00031264 9.25996e-05)
(-0.00136737 -0.000318056 8.62375e-05)
(-0.0013941 -0.000323273 7.73188e-05)
(-0.00142002 -0.000328215 6.55963e-05)
(-0.00144368 -0.000332587 5.07222e-05)
(-0.00146152 -0.000336042 3.21274e-05)
(-0.00146823 -0.000337819 1.07859e-05)
(1.07818e-05 1.07648e-05 3.05246e-05)
(2.33932e-05 1.01094e-05 -2.77097e-06)
(2.78865e-05 6.50454e-06 -1.22559e-05)
(2.70508e-05 -6.3946e-07 -1.55064e-05)
(2.23512e-05 -7.6333e-06 -1.532e-05)
(1.50837e-05 -1.29066e-05 -1.39873e-05)
(5.91913e-06 -1.62789e-05 -1.28627e-05)
(-6.27716e-06 -1.85215e-05 -1.42985e-05)
(-2.31622e-05 -2.32487e-05 -1.94536e-05)
(-4.85522e-05 -3.28478e-05 -2.53996e-05)
(-9.01151e-05 -5.0199e-05 -3.18203e-05)
(-0.000275074 -0.000135279 -6.52707e-05)
(-0.000402118 -0.000179693 -6.14337e-05)
(-0.000534117 -0.000213388 -4.69211e-05)
(-0.000645723 -0.000230768 -2.73599e-05)
(-0.000742913 -0.000239282 -6.37734e-06)
(-0.000832355 -0.000244274 1.39127e-05)
(-0.000901074 -0.000244236 3.21644e-05)
(-0.000965023 -0.000244972 4.81055e-05)
(-0.00102244 -0.000246463 6.15193e-05)
(-0.0010722 -0.000248567 7.22603e-05)
(-0.00111369 -0.000251086 8.01869e-05)
(-0.00114823 -0.000254067 8.52788e-05)
(-0.0011789 -0.00025778 8.76564e-05)
(-0.00120672 -0.000261972 8.73464e-05)
(-0.00123246 -0.000266369 8.44111e-05)
(-0.00125725 -0.000270811 7.88881e-05)
(-0.00128194 -0.000275172 7.08986e-05)
(-0.00130551 -0.000279199 6.02259e-05)
(-0.00132705 -0.000282738 4.66145e-05)
(-0.00134317 -0.000285527 2.95925e-05)
(-0.00134893 -0.000286987 9.96289e-06)
(2.07281e-05 1.28583e-05 3.47218e-05)
(3.84025e-05 1.30894e-05 -3.93906e-06)
(4.95166e-05 1.04337e-05 -1.5197e-05)
(4.65794e-05 2.69455e-06 -1.75999e-05)
(3.88678e-05 -4.57327e-06 -1.60395e-05)
(5.22352e-05 -1.71565e-05 -2.26984e-05)
(3.83917e-05 -2.38769e-05 -1.8301e-05)
(2.10263e-05 -2.66202e-05 -1.4506e-05)
(-1.65728e-06 -2.49698e-05 -1.61835e-05)
(-3.29278e-05 -2.83481e-05 -2.76802e-05)
(-7.47262e-05 -4.35121e-05 -4.00872e-05)
(-0.000146166 -7.17583e-05 -5.22749e-05)
(-0.000267353 -0.000118325 -6.42891e-05)
(-0.000392817 -0.000158264 -6.00177e-05)
(-0.000514954 -0.000184953 -4.57377e-05)
(-0.000621735 -0.000199592 -2.71954e-05)
(-0.000705971 -0.000204651 -6.93134e-06)
(-0.000789243 -0.000209024 1.25354e-05)
(-0.000854242 -0.000209805 3.01181e-05)
(-0.000906517 -0.000209592 4.50687e-05)
(-0.000950376 -0.00020985 5.7202e-05)
(-0.00098902 -0.000211278 6.65599e-05)
(-0.00102332 -0.000213817 7.31029e-05)
(-0.00105187 -0.000216817 7.66249e-05)
(-0.00107653 -0.000220149 7.72465e-05)
(-0.00109907 -0.000223721 7.51727e-05)
(-0.00112061 -0.000227322 7.0509e-05)
(-0.00114171 -0.000230744 6.34663e-05)
(-0.00116267 -0.000234027 5.39938e-05)
(-0.00118212 -0.000236932 4.18494e-05)
(-0.00119657 -0.000239212 2.66458e-05)
(-0.0012009 -0.000240326 8.99858e-06)
(3.00509e-05 1.45622e-05 3.84535e-05)
(6.62417e-05 1.94277e-05 -4.8522e-06)
(8.95143e-05 1.74966e-05 -2.19917e-05)
(0.000102047 8.49232e-06 -3.16882e-05)
(0.000100878 -4.39728e-06 -3.45816e-05)
(8.51045e-05 -1.56944e-05 -3.10199e-05)
(3.91479e-05 -1.43016e-05 -1.49758e-05)
(2.83562e-05 -1.8151e-05 -1.10668e-05)
(2.75222e-05 -3.25367e-05 -1.19822e-05)
(-1.54021e-07 -1.47812e-05 -6.8686e-06)
(-2.38424e-05 -1.71814e-05 -1.79666e-05)
(-4.75412e-05 -2.41683e-05 -2.50521e-05)
(-7.94524e-05 -3.46086e-05 -2.81543e-05)
(-0.000260351 -0.000105481 -6.15444e-05)
(-0.000382731 -0.000138676 -5.63557e-05)
(-0.000486445 -0.000157588 -4.23466e-05)
(-0.000585913 -0.000170184 -2.45212e-05)
(-0.000655313 -0.000172729 -5.09967e-06)
(-0.000721875 -0.000174956 1.31719e-05)
(-0.000781724 -0.000176903 2.95576e-05)
(-0.000831974 -0.000178598 4.34654e-05)
(-0.000871128 -0.000180091 5.43528e-05)
(-0.000900699 -0.000181677 6.19605e-05)
(-0.00092571 -0.000184013 6.64444e-05)
(-0.000947354 -0.000186797 6.79191e-05)
(-0.000966682 -0.000189786 6.66124e-05)
(-0.000985243 -0.000192816 6.27324e-05)
(-0.00100437 -0.000195807 5.66351e-05)
(-0.00102266 -0.000198519 4.82491e-05)
(-0.00103961 -0.000200875 3.7438e-05)
(-0.0010521 -0.00020272 2.39116e-05)
(-0.00105555 -0.000203645 8.10858e-06)
(3.73499e-05 1.55906e-05 4.24087e-05)
(7.56257e-05 2.0823e-05 -3.12776e-06)
(0.000105211 2.09253e-05 -2.14385e-05)
(0.000123223 1.37018e-05 -3.32707e-05)
(0.00012961 1.10852e-06 -4.03685e-05)
(0.000124724 -1.32419e-05 -4.24912e-05)
(0.000111612 -2.70204e-05 -3.99473e-05)
(7.27428e-05 -3.02764e-05 -2.64102e-05)
(3.00161e-05 -2.03276e-05 -1.05733e-05)
(3.01523e-05 -3.71224e-05 -9.84063e-06)
(-1.15037e-06 -2.4293e-05 -9.33092e-06)
(-3.6071e-05 -1.9922e-05 -2.56836e-05)
(-8.05065e-05 -3.51401e-05 -4.15039e-05)
(-0.000129192 -5.10476e-05 -4.40881e-05)
(-0.00023925 -8.69024e-05 -5.40617e-05)
(-0.00035556 -0.000116971 -5.06522e-05)
(-0.000439909 -0.000130132 -3.59417e-05)
(-0.000532024 -0.000141953 -1.9386e-05)
(-0.000597518 -0.00014595 -1.38867e-06)
(-0.000646471 -0.000146843 1.52955e-05)
(-0.000685347 -0.00014715 2.95545e-05)
(-0.00071906 -0.000148279 4.107e-05)
(-0.000748619 -0.000150392 4.96419e-05)
(-0.000770863 -0.000152645 5.48785e-05)
(-0.000788613 -0.000155022 5.70084e-05)
(-0.000804108 -0.000157562 5.64007e-05)
(-0.000818821 -0.000160069 5.3317e-05)
(-0.000833353 -0.000162351 4.81757e-05)
(-0.000848645 -0.000164633 4.1118e-05)
(-0.000863283 -0.000166654 3.19688e-05)
(-0.000873884 -0.000168216 2.05008e-05)
(-0.0008757 -0.000168837 6.97895e-06)
(4.25295e-05 1.58388e-05 4.5359e-05)
(7.85708e-05 2.02581e-05 -1.91926e-06)
(0.000110282 2.1663e-05 -2.01116e-05)