/*--------------------------------*- C++ -*----------------------------------*\
  =========                 |
  \\      /  F ield         | OpenFOAM: The Open Source CFD Toolbox
   \\    /   O peration     | Website:  https://openfoam.org
    \\  /    A nd           | Version:  6
     \\/     M anipulation  |
\*---------------------------------------------------------------------------*/
FoamFile
{
    version     2.0;
    format      ascii;
    class       volScalarField;
    location    "8";
    object      yPlus;
}
// * * * * * * * * * * * * * * * * * * * * * * * * * * * * * * * * * * * * * //

dimensions      [0 0 0 0 0 0 0];

internalField   uniform 0;

boundaryField
{
    inlet
    {
        type            calculated;
        value           uniform 0;
    }
    outlet
    {
        type            calculated;
        value           uniform 0;
    }
    roughCylinder
    {
        type            calculated;
        value           nonuniform List<scalar> 
5120
(
94.3249
61.1168
52.6971
56.0955
62.1213
67.1997
71.4136
74.94
77.9342
80.5607
82.9408
85.1236
87.1721
89.11
90.9792
92.8048
94.639
96.515
98.4525
100.475
102.585
104.782
107.056
109.397
111.788
114.204
116.609
118.954
121.164
123.132
124.674
125.535
95.8758
61.9427
52.3254
54.6619
60.4791
65.5092
69.692
73.1977
76.1944
78.8288
81.1869
83.3492
85.3509
87.2442
89.0477
90.8164
92.5809
94.3826
96.2584
98.2103
100.246
102.364
104.557
106.816
109.124
111.455
113.777
116.041
118.173
120.074
121.562
122.392
93.489
60.3871
51.145
53.2054
58.8407
63.8013
67.9527
71.4672
74.4728
77.101
79.4709
81.6022
83.5711
85.4059
87.1631
88.8648
90.5687
92.3116
94.1065
95.9829
97.9429
99.9851
102.101
104.279
106.504
108.752
110.991
113.173
115.23
117.063
118.499
119.298
78.611
60.4098
50.7517
51.7107
57.1202
62.0559
66.2123
69.7274
72.7529
75.4203
77.7672
79.8939
81.8204
83.6247
85.3202
86.9735
88.6147
90.2825
92.0244
93.8371
95.7282
97.6946
99.7331
101.832
103.976
106.143
108.3
110.404
112.387
114.153
115.537
116.305
89.6642
59.4779
49.7228
50.2697
55.4334
60.3115
64.4444
67.9994
71.0693
73.7236
76.1036
78.2069
80.1237
81.876
83.54
85.1344
86.7216
88.3464
90.0103
91.7503
93.5697
95.4676
97.4337
99.4574
101.524
103.612
105.691
107.718
109.629
111.332
112.665
113.404
79.0039
60.1338
49.3109
48.7196
53.6077
58.4776
62.6689
66.247
69.3298
72.0654
74.426
76.5461
78.435
80.1813
81.7941
83.3539
84.8927
86.4422
88.0663
89.7551
91.5153
93.3433
95.2378
97.1885
99.1802
101.191
103.194
105.148
106.989
108.63
109.914
110.623
73.9184
58.6802
48.7005
47.2822
51.8302
56.6684
60.8273
64.4616
67.6462
70.3497
72.7727
74.88
76.7874
78.4983
80.1026
81.6179
83.1109
84.6403
86.1912
87.8101
89.5028
91.2699
93.0999
94.9807
96.9004
98.8391
100.769
102.65
104.424
106.006
107.244
107.924
70.7225
57.6219
47.7617
45.7036
49.8271
54.6398
58.94
62.6474
65.8104
68.6601
71.0715
73.2273
75.1171
76.852
78.4245
79.9239
81.3917
82.8441
84.371
85.9554
87.6017
89.3059
91.0687
92.8824
94.7331
96.5998
98.4581
100.271
101.98
103.504
104.695
105.348
79.553
57.878
47.3071
44.1178
47.8444
52.6797
56.9236
60.6776
64.0558
66.8472
69.3657
71.5248
73.4709
75.1835
76.7752
78.2547
79.6872
81.1521
82.6138
84.1294
85.7109
87.3619
89.0683
90.8186
92.6011
94.3999
96.1891
97.9332
99.58
101.049
102.197
102.821
74.7187
58.7198
47.105
42.5411
45.489
50.2222
54.7502
58.715
61.9995
65.0479
67.5711
69.8232
71.7632
73.5353
75.1114
76.593
78.0312
79.4156
80.8725
82.3768
83.9292
85.5244
87.1678
88.8551
90.5733
92.3038
94.0252
95.7052
97.2894
98.7036
99.8064
100.404
70.5403
58.1767
46.8674
40.9165
43.116
47.9457
52.3751
56.3172
60.0531
63.008
65.7138
67.9977
70.051
71.8193
73.4466
74.9363
76.3422
77.7819
79.1827
80.6155
82.1019
83.651
85.2464
86.8756
88.5291
90.1946
91.8494
93.4629
94.9873
96.3495
97.4108
97.9795
78.471
57.9845
46.3908
39.2915
40.1111
44.5506
49.5382
54.0535
57.5444
60.968
63.7093
66.1547
68.2191
70.099
71.7377
73.2475
74.7011
76.0462
77.4618
78.9127
80.3929
81.8942
83.4288
84.9976
86.5905
88.1904
89.7801
91.3324
92.7965
94.1047
95.1228
95.665
69.5897
54.8002
44.8597
37.1416
36.8771
41.6312
46.4226
50.7015
55.2027
58.4645
61.5426
64.0823
66.354
68.2539
69.9819
71.5419
72.9621
74.424
75.7949
77.1653
78.572
80.0334
81.5301
83.0472
84.5773
86.1144
87.6393
89.1242
90.5311
91.7895
92.7671
93.2803
67.8041
55.0057
45.0524
35.7282
32.6574
35.9124
41.9877
47.8348
51.6697
55.9284
59.104
61.9266
64.2405
66.3481
68.1409
69.7444
71.2776
72.6169
74.0274
75.4586
76.8932
78.3179
79.7534
81.2104
82.6837
84.1566
85.6177
87.0458
88.3926
89.5972
90.5316
91.0186
53.98
50.1266
43.1026
33.4172
27.6802
31.6656
36.9379
41.9828
48.6103
52.4434
56.3261
59.3912
62.1015
64.2588
66.1869
67.9044
69.3932
70.9449
72.326
73.6579
75.0009
76.3887
77.8001
79.2135
80.624
82.035
83.4308
84.789
86.0787
87.2356
88.1305
88.5874
33.8465
40.6885
38.2084
30.8688
19.6838
16.1917
27.5076
37.8607
42.0985
48.781
52.9445
56.5958
59.4177
61.9789
64.0776
65.8753
67.5854
68.9595
70.4132
71.87
73.2945
74.6635
76.0075
77.3575
78.7141
80.0606
81.3931
82.6977
83.9273
85.0288
85.8797
86.3109
9.09021
25.8644
26.7433
20.3751
13.0782
17.1513
13.2583
20.6254
37.6002
42.6721
48.8074
53.0823
56.7341
59.4167
61.747
63.7724
65.4063
67.1525
68.598
69.9185
71.2127
72.5405
73.8821
75.1978
76.4892
77.7722
79.0362
80.2635
81.4351
82.489
83.3008
83.6986
7.79767
10.5038
11.0171
5.02034
6.0769
15.9378
17.0014
7.7789
16.9282
36.2631
43.0401
48.9457
52.9572
56.4776
59.1446
61.3049
63.3598
64.8197
66.3849
67.9332
69.3984
70.7388
71.9946
73.2394
74.4777
75.6939
76.893
78.0723
79.1811
80.1765
80.941
81.3139
7.03833
10.6958
7.45416
14.4766
15.7955
16.9021
17.6551
18.0961
18.7716
9.24761
34.399
42.5288
48.8683
52.786
56.0582
58.7155
60.6202
62.7472
64.3401
65.6802
66.9361
68.2159
69.5074
70.7275
71.8949
73.0415
74.1641
75.2493
76.2964
77.2433
77.9683
78.3006
5.5615
8.26604
8.6085
11.3971
10.7176
10.1572
10.0677
9.67437
6.44479
9.09087
13.5131
35.6545
42.6738
48.733
52.526
55.3992
58.1513
59.7658
61.5556
63.309
64.8995
66.2498
67.4133
68.55
69.6619
70.7364
71.7912
72.8397
73.8191
74.7011
75.3725
75.6818
4.19942
12.5315
14.5921
13.2311
9.22044
20.6296
20.8596
21.4677
21.4064
20.6806
20.2845
24.551
34.4898
41.8716
47.7382
51.8603
54.285
57.2054
59.0972
60.4904
61.7085
62.9524
64.2245
65.3469
66.3765
67.3681
68.3294
69.249
70.1586
70.9904
71.621
71.8755
7.43465
17.654
22.4579
25.8545
26.8682
24.5602
10.6308
2.88151
23.7952
2.99001
13.9379
10.3554
8.74978
34.0503
41.9425
46.6436
51.0567
52.9202
55.1806
57.3899
59.28
60.7079
61.7626
62.7799
63.7484
64.6603
65.5515
66.4636
67.2989
68.0534
68.6217
68.8588
6.73455
17.0079
22.6768
26.7959
29.5752
30.9639
31.3609
23.3574
9.7917
25.7883
24.7444
22.326
21.7261
21.5282
32.0595
40.8006
44.4973
49.4571
51.9774
53.4569
54.5967
55.8231
57.1435
58.1679
59.0318
59.8307
60.5922
61.2977
62.0485
62.7561
63.2779
63.4298
6.43654
15.8667
21.9336
26.6128
30.0159
32.0672
32.2883
32.2331
26.9108
7.02728
26.8566
25.6215
3.6538
15.2569
16.9698
30.4433
39.8057
41.8883
45.433
48.8092
51.511
53.1892
54.0825
54.9486
55.7448
56.4609
57.1586
57.9428
58.6148
59.2183
59.6741
59.8263
5.82733
13.8416
19.4858
23.9436
27.4853
30.2463
32.2358
32.481
32.1203
29.1855
4.41055
15.687
27.0952
16.4105
1.76903
24.0315
22.3772
36.692
40.7778
42.3459
43.111
44.3158
45.9478
46.9067
47.5356
48.0432
48.5197
48.8929
49.4513
50.037
50.4134
50.405
5.49503
13.1372
17.9796
21.9973
25.3088
27.9712
29.893
31.3433
31.646
31.2051
30.0339
24.3893
18.3555
22.4018
23.7919
22.2695
16.526
12.5976
24.5566
33.4313
38.8317
41.5867
42.0394
42.5931
43.232
43.731
44.1917
44.9158
45.3527
45.8315
46.2141
46.232
4.62941
11.7893
15.3572
18.7572
21.8486
24.5824
26.8978
28.5538
29.8484
30.5376
30.2376
28.7802
30.8384
8.59038
26.3811
24.0451
16.1646
14.2376
11.011
6.15857
13.5771
11.6511
17.6403
20.4688
18.9639
18.6841
18.2882
17.1324
19.2333
18.1973
18.4789
17.533
4.81666
12.1098
13.5532
15.6457
18.0906
20.5607
22.8408
24.9375
26.6718
28.1988
29.518
29.5187
30.1589
8.97529
24.8966
16.099
12.5082
16.9802
18.2499
25.5567
17.4572
15.1323
19.5702
27.6344
21.008
3.89235
3.88112
22.2124
30.9086
23.166
11.0811
23.4788
4.38696
11.5785
12.0022
12.8448
14.3533
16.3058
18.4751
20.6449
22.8337
24.8954
26.7673
28.7242
28.6016
29.9689
12.2351
25.3541
6.26169
21.028
12.8045
20.3289
9.78061
20.6795
8.62417
26.739
29.4056
21.4755
21.7421
11.074
20.5174
7.5006
30.2756
12.4639
4.31468
11.9301
11.9519
12.136
12.8109
13.9265
15.3604
17.1125
19.0864
21.2551
23.5145
25.5763
28.0482
28.4705
28.8472
12.1871
6.92022
9.81926
26.1022
9.31909
28.2041
16.024
28.719
28.0307
19.1928
31.4497
26.458
30.6716
25.4826
20.4402
6.66963
31.6758
3.95306
12.0898
12.1373
11.7757
12.3507
13.2517
14.2973
15.4291
16.7665
18.3649
20.2593
22.5121
24.6757
27.3099
28.7379
30.4144
19.3057
27.5588
28.0461
19.4176
26.4531
30.7732
22.8042
31.3204
17.5844
21.0656
24.0959
32.6848
34.8257
19.2819
12.8705
12.4705
3.83711
11.2687
11.8053
11.8136
12.5672
13.5774
14.5826
15.5234
16.3795
17.2546
18.3291
19.765
21.8621
24.2058
26.8042
28.0828
30.4791
25.9076
12.9362
21.9022
21.3622
26.1048
13.883
28.8331
10.4549
18.7323
13.2494
26.257
31.2516
7.97921
29.4092
7.84848
3.83608
11.9519
11.5427
12.0112
12.9174
13.9937
15.0462
16.0022
16.847
17.5366
18.0948
18.7323
19.7059
21.5038
24.0116
27.1188
28.3011
30.0157
31.0138
26.3838
22.1812
19.3037
17.5824
18.4877
19.0491
19.2851
20.3838
20.4525
21.2
21.0225
20.8934
21.6988
3.77566
11.8125
11.7415
12.4907
13.6561
14.848
15.9077
16.8189
17.5793
18.2074
18.7061
19.0541
19.4091
20.057
21.5203
23.7102
26.9642
28.6231
29.0709
30.0391
30.3902
30.4531
30.5504
30.4967
30.5129
30.473
30.5346
30.5529
30.7215
30.9147
30.882
31.0676
3.76933
11.8121
12.0016
13.1958
14.5462
15.7822
16.8623
17.796
18.5746
19.1725
19.5988
19.9058
20.0989
20.2797
20.7184
22.0071
23.7685
26.484
28.6885
29.2499
29.2074
28.8276
28.3455
27.9938
27.7455
27.6373
27.6664
27.787
27.8865
27.9844
28.1149
28.2064
3.82635
11.2488
12.6289
14.1716
15.668
16.9565
18.0462
18.9672
19.7254
20.3268
20.7671
21.0358
21.1795
21.248
21.3244
21.5884
22.7105
24.1589
25.8823
27.5296
28.4454
28.7485
28.6343
28.3263
28.0317
27.8495
27.8273
27.963
28.1242
28.3123
28.4896
28.5971
3.93146
11.4277
13.4264
15.3044
16.8824
18.1722
19.273
20.2239
21.0159
21.6358
22.088
22.3888
22.536
22.5584
22.5296
22.5516
22.663
23.491
24.7256
25.8421
26.6211
26.8738
26.7248
26.4133
26.13
25.9979
26.0541
26.2467
26.5001
26.7513
26.9801
27.1284
4.13808
12.8274
14.4475
16.5268
18.1446
19.4558
20.5855
21.5611
22.38
23.0435
23.5487
23.8882
24.0728
24.1195
24.0502
23.9451
23.9575
24.012
24.4458
25.231
25.9825
26.4365
26.5425
26.4318
26.3022
26.2805
26.4145
26.6956
27.0239
27.3604
27.6535
27.8435
4.49338
12.3036
15.5743
17.7796
19.3907
20.7208
21.8913
22.9177
23.7928
24.5122
25.077
25.488
25.7378
25.8316
25.7986
25.6675
25.4836
25.4464
25.5076
25.7076
26.0106
26.2425
26.3089
26.265
26.2315
26.3128
26.5506
26.9082
27.3215
27.7239
28.0754
28.3033
5.47247
13.8495
16.8964
18.9889
20.6011
21.9833
23.2111
24.2911
25.2239
26.0121
26.6537
27.1407
27.4693
27.6414
27.66
27.5619
27.3964
27.1698
27.028
27.0127
27.0934
27.1954
27.2517
27.267
27.3168
27.4773
27.7787
28.2052
28.6873
29.1592
29.5579
29.82
6.21909
7.2139
8.33224
9.60262
10.7169
11.422
11.221
11.2796
11.7168
11.7351
11.3498
11.4697
10.3601
9.66011
8.87875
8.32918
7.85599
7.52156
7.30012
7.19275
7.1916
7.29492
7.51111
7.83913
8.30444
8.83561
9.64894
10.1738
11.55
11.191
11.4338
11.6196
11.7138
11.0796
11.3624
10.633
9.51127
8.24651
7.14318
6.15459
14.6072
15.4262
15.9954
16.5464
16.8874
17.1008
17.1636
17.2262
17.2017
17.1368
17.0029
16.8678
16.6622
16.5259
16.3671
16.264
16.1647
16.1004
16.0574
16.0385
16.038
16.0533
16.0922
16.1525
16.247
16.3436
16.5062
16.6155
16.8378
16.9875
17.0912
17.1563
17.1879
17.1246
17.0495
16.8296
16.4826
15.9243
15.3602
14.5295
17.7167
18.3381
18.7241
19.0697
19.2611
19.3967
19.4538
19.4775
19.4519
19.4022
19.3301
19.2533
19.1772
19.111
19.0476
18.9988
18.957
18.9289
18.9113
18.9037
18.9028
18.9061
18.9191
18.9426
18.9793
19.0235
19.083
19.1432
19.2151
19.2939
19.3594
19.4071
19.4287
19.4056
19.3447
19.2074
19.0147
18.6621
18.2801
17.6465
19.8474
20.2978
20.6307
20.8997
21.0852
21.2242
21.3153
21.3724
21.4064
21.4234
21.4358
21.4415
21.4547
21.4673
21.4878
21.5092
21.5344
21.5588
21.5799
21.5925
21.5903
21.5724
21.5464
21.5173
21.4871
21.4613
21.4361
21.4195
21.4017
21.3936
21.3772
21.3587
21.3211
21.2634
21.1705
21.0304
20.8461
20.5724
20.2434
19.7853
21.5006
21.8663
22.2187
22.4696
22.6944
22.8573
23.0047
23.1166
23.2277
23.321
23.4227
23.5186
23.6281
23.7383
23.8582
23.9763
24.0924
24.195
24.2749
24.3188
24.3153
24.265
24.18
24.0728
23.952
23.8296
23.7053
23.5912
23.4776
23.3785
23.2734
23.1781
23.0643
22.951
22.8025
22.6382
22.4145
22.1609
21.8109
21.4415
22.9268
23.2605
23.6448
23.8974
24.1675
24.3617
24.5715
24.741
24.9267
25.0951
25.282
25.4663
25.6687
25.8743
26.0897
26.3008
26.5022
26.6771
26.8095
26.8803
26.8762
26.7983
26.6603
26.4808
26.2749
26.0595
25.8399
25.6304
25.4242
25.2366
25.0467
24.876
24.6881
24.5172
24.3063
24.1109
23.8412
23.5871
23.2036
22.8676
24.2
24.5208
24.9366
25.2007
25.5154
25.7471
26.0144
26.2395
26.493
26.7315
26.9951
27.2595
27.5446
27.8342
28.1317
28.4211
28.6924
28.9246
29.0973
29.1879
29.1835
29.0855
28.907
28.6698
28.394
28.1001
27.7984
27.5049
27.2162
26.9485
26.6821
26.4413
26.1859
25.9594
25.6913
25.4587
25.1438
24.8789
24.4629
24.1402
25.3309
25.6486
26.0994
26.3821
26.7416
27.0115
27.331
27.6087
27.9225
28.2241
28.5546
28.8885
29.2435
29.6027
29.9667
30.3176
30.6418
30.9158
31.1166
31.2201
31.2158
31.1046
30.8977
30.6183
30.2894
29.9339
29.5656
29.2023
28.8437
28.5066
28.1734
27.8695
27.554
27.275
26.9547
26.6842
26.3245
26.0411
25.5897
25.27
26.3228
26.6477
27.1372
27.4438
27.8459
28.154
28.5209
28.8471
29.2136
29.5702
29.957
30.3485
30.7594
31.1729
31.5863
31.9809
32.3407
32.6411
32.8581
32.9683
32.9642
32.8463
32.6227
32.3166
31.9518
31.5522
31.1343
30.7167
30.302
29.9074
29.5179
29.1589
28.7908
28.4633
28.0956
27.7869
27.3845
27.0774
26.5869
26.2597
27.1758
27.5182
28.0494
28.385
28.827
29.1734
29.5826
29.9531
30.3645
30.7679
31.2004
31.6368
32.0897
32.5416
32.9879
33.4094
33.7887
34.1018
34.3249
34.4366
34.4325
34.3132
34.0833
33.7642
33.3794
32.9526
32.5016
32.0453
31.5886
31.1486
30.7135
30.3078
29.8944
29.5229
29.1126
28.7656
28.3231
27.9868
27.4545
27.1091
27.8893
28.258
28.8338
29.2017
29.6831
30.0671
30.5151
30.925
31.3751
31.8169
32.2851
32.7552
33.237
33.7133
34.1779
34.6116
34.9971
35.3113
35.5326
35.6417
35.6378
35.521
35.2926
34.972
34.5806
34.1413
33.6717
33.1908
32.7048
32.2313
31.7602
31.3158
30.8638
30.4524
30.0033
29.6185
29.1364
28.7674
28.1902
27.8179
28.4585
28.86
29.4866
29.8899
30.4119
30.8327
31.3174
31.7632
32.2463
32.7198
33.2153
33.7092
34.2093
34.6987
35.1698
35.6046
35.9862
36.2937
36.5076
36.6115
36.6076
36.4959
36.2748
35.9606
35.5727
35.132
34.6554
34.1612
33.6568
33.1591
32.6603
32.1843
31.699
31.2516
30.7655
30.3437
29.8206
29.4157
28.7873
28.3816
28.874
29.3185
30.0025
30.4469
31.0115
31.4702
31.9903
32.4693
32.9817
33.4814
33.9981
34.5086
35.0191
35.513
35.9828
36.4112
36.7826
37.0785
37.282
37.3794
37.3755
37.2702
37.0592
36.7563
36.3782
35.9437
35.4682
34.9691
34.4541
33.9395
33.4195
32.9168
32.4021
31.9211
31.3995
30.9393
30.3732
29.9267
29.24
28.7914
29.1305
29.6279
30.3755
30.8713
31.4809
31.9806
32.5359
33.0474
33.5866
34.1092
34.6427
35.1649
35.6806
36.1741
36.6378
37.0558
37.4141
37.6963
37.8885
37.9793
37.9752
37.8765
37.6767
37.3871
37.0219
36.5974
36.1278
35.6289
35.1083
34.5819
34.0447
33.5189
32.9772
32.4634
31.9062
31.4047
30.7934
30.295
29.5447
29.0434
29.2372
29.7868
30.6078
31.1606
31.8219
32.3647
32.9575
33.5013
34.0669
34.6108
35.1591
35.6904
36.209
36.6996
37.1553
37.5617
37.9063
38.1753
38.3566
38.4413
38.4372
38.3445
38.1553
37.8787
37.527
37.1139
36.652
36.1557
35.6322
35.0964
34.5441
33.9968
33.4283
32.8822
32.2871
31.7422
31.0788
30.5234
29.6996
29.1472
29.1977
29.8035
30.6936
31.313
32.0324
32.6241
33.2568
33.835
34.4274
34.9929
35.5558
36.0958
36.6167
37.1045
37.5526
37.9483
38.2805
38.5377
38.7097
38.7891
38.7851
38.6974
38.5174
38.2527
37.913
37.5105
37.056
36.5624
36.0362
35.4915
34.9246
34.3556
33.7601
33.1792
32.5442
31.9503
31.2288
30.6073
29.7151
29.1087
29.0274
29.6994
30.6386
31.334
32.1111
32.7598
33.4339
34.0505
34.6712
35.2602
35.8388
36.3888
36.9135
37.4
37.8425
38.2296
38.552
38.7996
38.9642
39.0397
39.0356
38.9519
38.7794
38.5239
38.1942
37.8002
37.3513
36.8588
36.3289
35.7739
35.1912
34.5985
33.9746
33.3553
32.6785
32.0289
31.2475
30.5563
29.6069
28.9526
28.8231
29.4663
30.4747
31.2163
32.0632
32.7679
33.4909
34.1472
34.8004
35.4149
36.0121
36.5748
37.1058
37.5939
38.0337
38.4155
38.7309
38.9719
39.1312
39.2039
39.1998
39.119
38.9518
38.7034
38.3805
37.9919
37.5457
37.0517
36.5153
35.9478
35.3465
34.7283
34.0719
33.4132
32.688
31.9826
31.1338
30.3952
29.3839
28.7524
28.5803
29.1768
30.2105
30.9911
31.8949
32.6576
33.4297
34.1291
34.8171
35.4607
36.0794
36.6579
37.1988
37.692
38.1329
38.5127
38.8248
39.0618
39.2179
39.2892
39.2853
39.2061
39.0423
38.798
38.4788
38.0923
37.6453
37.1464
36.6003
36.0171
35.3943
34.7473
34.0564
33.3551
32.5818
31.8188
30.9163
30.1373
29.1099
28.5171
28.3464
28.8813
29.8793
30.6871
31.6228
32.4407
33.2606
34.0052
34.7292
35.4045
36.0476
36.6453
37.1994
37.7014
38.1467
38.5283
38.8402
39.0761
39.2313
39.3023
39.2985
39.2201
39.0577
38.8149
38.4964
38.1085
37.6572
37.1499
36.591
35.9889
35.3423
34.664
33.9378
33.192
32.3722
31.5557
30.6229
29.8195
28.8292
28.3026
28.1776
28.6116
29.5415
30.3474
31.2953
32.1538
33.0134
33.7991
34.5573
35.2641
35.9324
36.5511
37.1207
37.6341
38.0869
38.4732
38.7875
39.0247
39.1806
39.2522
39.2488
39.1703
39.0079
38.7642
38.4439
38.0519
37.5937
37.0755
36.5016
35.8792
35.2079
34.4989
33.7395
32.9537
32.0958
31.2403
30.2976
29.498
28.578
28.1529
28.0649
28.3966
29.2437
30.0254
30.9664
31.8466
32.7332
33.551
34.3377
35.0722
35.7635
36.402
36.9872
37.5126
37.9741
38.3665
38.6848
38.9247
39.0823
39.1554
39.1523
39.0732
38.9097
38.6644
38.3407
37.9434
37.4773
36.9478
36.359
35.7177
35.0241
34.2884
33.5016
32.6852
31.8019
30.9265
29.9922
29.2187
28.3811
28.06
27.9888
28.2504
29.0251
29.7736
30.6946
31.5793
32.4781
33.3173
34.1238
34.8785
35.5873
36.2412
36.8389
37.3743
37.8432
38.241
38.5632
38.8057
38.9653
39.0399
39.0372
38.9575
38.7931
38.5458
38.2193
37.8175
37.3448
36.8062
36.206
35.5501
34.8402
34.0855
33.2802
32.4444
31.5505
30.6721
29.7585
29.0186
28.2527
28.0012
27.9601
28.192
28.9234
29.6435
30.5431
31.4207
32.3197
33.1663
33.9814
34.7458
35.4635
36.1256
36.7298
37.2703
37.7431
38.1435
38.4676
38.7115
38.8724
38.9479
38.9457
38.866
38.7013
38.4538
38.1263
37.7227
37.2472
36.7044
36.0986
35.4356
34.7176
33.9543
33.1417
32.2997
31.4069
30.5364
29.6449
28.9332
28.2105
27.9862
28.0189
28.2566
28.9717
29.6759
30.5584
31.4248
32.3155
33.1583
33.9713
34.7355
35.4531
36.1149
36.7185
37.258
37.7295
38.1286
38.4512
38.6943
38.8548
38.9308
38.9291
38.8499
38.6866
38.4408
38.1156
37.7143
37.241
36.7001
36.0958
35.4338
34.717
33.9547
33.1449
32.3079
31.424
30.5653
29.6906
28.9953
28.287
28.0586
28.2159
28.4714
29.1914
29.8898
30.7634
31.6185
32.4981
33.3299
34.1342
34.8905
35.6007
36.2554
36.852
37.3849
37.8502
38.2438
38.562
38.8017
38.9601
39.0355
39.0342
38.9565
38.796
38.5545
38.2345
37.8395
37.3731
36.8395
36.2428
35.5885
34.8796
34.1254
33.3248
32.4981
31.6257
30.7789
29.9139
29.2251
28.5122
28.266
28.5675
28.8461
29.5794
30.2793
31.1483
31.9942
32.862
33.6827
34.4758
35.2213
35.9203
36.5642
37.1499
37.6727
38.1286
38.5139
38.8253
39.0598
39.2148
39.2889
39.2878
39.2122
39.0556
38.8199
38.5074
38.1212
37.6647
37.1418
36.5562
35.9132
35.2157
34.4728
33.6831
32.8677
32.0071
31.1702
30.3091
29.6199
28.8915
28.6256
29.0463
29.3469
30.0999
30.806
31.676
32.5157
33.3743
34.1854
34.9682
35.7026
36.3902
37.0222
37.5964
38.1079
38.5535
38.9296
39.2333
39.4619
39.6131
39.6853
39.6845
39.611
39.4588
39.2292
38.9247
38.548
38.1022
37.5907
37.0171
36.3859
35.7
34.968
34.1888
33.3828
32.5317
31.7003
30.8386
30.1413
29.3951
29.1031
29.5863
29.9139
30.6904
31.4085
32.2844
33.1226
33.9754
34.7797
35.5546
36.2799
36.9576
37.5793
38.143
38.6444
39.0803
39.4479
39.7444
39.9673
40.1147
40.1851
40.1843
40.1128
39.9645
39.7407
39.4436
39.0755
38.6394
38.1381
37.575
36.9542
36.2782
35.5553
34.7839
33.9846
33.139
32.3087
31.4414
30.7311
29.9617
29.6403
30.1146
30.4733
31.2747
32.009
32.8938
33.7346
34.5853
35.3862
36.1562
36.8753
37.5457
38.1597
38.7154
39.2086
39.6371
39.9977
40.2883
40.5067
40.6509
40.7195
40.7187
40.6489
40.5036
40.2844
39.993
39.6317
39.203
38.7096
38.1544
37.5412
36.8721
36.1552
35.3883
34.5919
33.7481
32.9147
32.0378
31.3107
30.5165
30.1632
30.5612
30.9471
31.772
32.5221
33.4168
34.262
35.1132
35.9131
36.6808
37.3965
38.0627
38.6716
39.222
39.71
40.1332
40.4892
40.7757
40.9908
41.1326
41.1999
41.1989
41.13
40.9868
40.7704
40.4827
40.1257
39.7017
39.2132
38.6627
38.054
37.3887
36.6746
35.9096
35.1138
34.269
33.4315
32.5442
31.8032
30.9848
30.6096
30.863
31.2595
32.1004
32.858
33.7593
34.6065
35.4579
36.2575
37.0245
37.7388
38.4032
39.01
39.558
40.0437
40.4646
40.8184
41.1031
41.3165
41.4573
41.5239
41.5228
41.4543
41.312
41.097
40.811
40.456
40.0341
39.5479
38.9996
38.3928
37.7291
37.0162
36.2516
35.4556
34.61
33.7698
32.8764
32.1261
31.293
30.9019
95.1157
61.1695
52.6055
56.0986
62.1309
67.2082
71.4205
74.9453
77.9387
80.5653
82.9449
85.1266
87.1745
89.113
90.9827
92.808
94.6422
96.5184
98.456
100.479
102.589
104.786
107.06
109.401
111.792
114.208
116.614
118.959
121.169
123.137
124.679
125.541
93.7958
60.7102
51.9215
54.6402
60.4824
65.5116
69.6946
73.2013
76.1983
78.8317
81.1898
83.3529
85.3555
87.248
89.0508
90.82
92.5846
94.3863
96.262
98.2142
100.25
102.367
104.562
106.821
109.128
111.46
113.782
116.046
118.179
120.079
121.568
122.398
93.6254
60.2824
50.9804
53.1953
58.852
63.812
67.9618
71.4737
74.4775
77.106
79.4757
81.6058
83.5734
85.4088
87.167
88.8684
90.5723
92.3155
94.1105
95.9869
97.9472
99.9898
102.106
104.284
106.509
108.757
110.997
113.179
115.236
117.07
118.505
119.304
94.0367
61.1245
50.6721
51.7002
57.124
62.0579
66.2139
69.7307
72.7579
75.4245
77.7706
79.8979
81.8255
83.6294
85.3235
86.9772
88.6187
90.2864
92.0283
93.8412
95.7326
97.6993
99.7377
101.837
103.982
106.148
108.306
110.41
112.393
114.159
115.543
116.311
75.7019
58.6159
49.6165
50.2735
55.4485
60.3253
64.4568
68.0083
71.074
73.7279
76.1085
78.2112
80.1266
81.8787
83.5443
85.1383
86.7255
88.3506
90.0147
91.7549
93.5741
95.4728
97.4392
99.4628
101.53
103.618
105.697
107.724
109.635
111.339
112.672
113.411
90.4768
60.5477
49.2326
48.7061
53.612
58.4801
62.669
66.2487
69.3361
72.072
74.4312
76.5505
78.4399
80.1868
81.798
83.3579
84.897
86.4463
88.0704
89.7594
91.5201
93.348
95.2428
97.1934
99.1855
101.198
103.201
105.154
106.995
108.637
109.921
110.63
85.6128
58.9913
48.6417
47.2967
51.8491
56.6849
60.8441
64.4757
67.6531
70.3537
72.777
74.8854
76.7923
78.5018
80.1071
81.6224
83.1152
84.6449
86.1961
87.8151
89.5075
91.2754
93.1054
94.9869
96.9069
98.8451
100.775
102.657
104.431
106.014
107.251
107.932
85.8233
58.7041
47.7228
45.6845
49.8308
54.6422
58.9372
62.6439
65.8138
68.6675
71.0783
73.2323
75.1212
76.8573
78.4292
79.9285
81.3964
82.8485
84.3754
85.9599
87.607
89.3108
91.0742
92.8882
94.7388
96.6067
98.4653
100.278
101.988
103.511
104.702
105.355
74.1248
58.9576
47.517
44.111
47.8576
52.6981
56.947
60.7029
64.0727
66.8562
69.3735
71.5325
73.4788
75.1894
76.7806
78.2598
79.6922
81.1576
82.6193
84.1353
85.7161
87.3682
89.0746
90.8253
92.6086
94.4068
96.1972
97.9415
99.5882
101.058
102.205
102.83
78.7937
58.0971
46.9606
42.552
45.5028
50.227
54.7443
58.7013
61.9915
65.0504
67.574
69.8271
71.767
73.5402
75.1166
76.5986
78.0365
79.4203
80.8774
82.3815
83.9354
85.5296
87.1738
88.8618
90.5795
92.3119
94.0332
95.7136
97.2983
98.7121
99.8148
100.413
75.8642
57.6778
46.6528
40.8772
43.1291
47.9695
52.4102
56.3627
60.0933
63.0298
65.7337
68.012
70.0615
71.8272
73.454
74.9423
76.3481
77.7886
79.1892
80.6228
82.1075
83.6588
85.2541
86.883
88.5379
90.2024
91.8588
93.472
94.9972
96.36
97.4204
97.9895
67.768
56.2913
45.9149
39.168
40.1004
44.5581
49.529
54.0262
57.5153
60.9627
63.7033
66.1564
68.2268
70.1083
71.7437
73.2544
74.7075
76.0516
77.4673
78.9174
80.4003
81.8996
83.4351
85.0056
86.5975
88.2
89.7895
91.3425
92.8068
94.1149
95.1324
95.675
65.7792
56.1319
45.5426
37.319
36.9397
41.6735
46.483
50.778
55.2752
58.5032
61.5783
64.1019
66.3603
68.2563
69.9907
71.5493
72.9693
74.4317
75.8026
77.1747
78.5783
80.0436
81.5402
83.0559
84.5886
86.1237
87.6501
89.1357
90.5427
91.8019
92.7785
93.292
69.4494
56.1293
45.5241
35.8273
32.6782
35.9449
41.976
47.7983
51.6437
55.9245
59.0931
61.9366
64.2661
66.374
68.1516
69.7532
71.2854
72.6241
74.0341
75.4632
76.9024
78.3227
79.7594
81.2204
82.6915
84.1686
85.6289
87.0577
88.4048
89.6092
90.5431
91.0309
54.4586
50.3953
43.1669
33.38
27.727
31.7494
37.0506
42.1136
48.6427
52.4779
56.3822
59.4055
62.0871
64.2444
66.1928
67.9132
69.402
70.9532
72.3348
73.67
75.0082
76.4034
77.8144
79.2237
80.6387
82.0462
83.4445
84.803
86.0937
87.2512
88.1443
88.6019
33.7098
40.6877
38.2048
30.8747
19.8565
16.0006
27.8387
37.8046
42.2773
48.8578
52.9174
56.6241
59.482
62.0297
64.098
65.8872
67.5952
68.9697
70.422
71.8749
73.3056
74.6657
76.0122
77.3699
78.7227
80.0758
81.4068
82.7121
83.9421
85.0432
85.8933
86.3257
9.48052
26.035
26.9029
20.5956
2.9727
15.5997
18.8973
21.3718
37.5049
42.6055
48.9469
53.1071
56.6922
59.3939
61.7516
63.7831
65.4172
67.161
68.6081
69.9336
71.2217
72.5638
73.9031
75.2108
76.509
77.7859
79.0537
80.2817
81.4543
82.5093
83.318
83.7167
7.02163
12.8278
10.854
5.1643
4.88401
15.8707
16.4186
18.3916
13.8846
36.3868
42.8959
48.9555
53.0431
56.5239
59.1658
61.3193
63.3719
64.8336
66.3963
67.9386
69.4121
70.7342
71.9968
73.2546
74.4871
75.7138
76.9103
78.09
79.1994
80.194
80.957
81.3318
7.68989
10.4324
11.9649
13.9028
15.5587
16.7232
2.11555
17.924
6.00864
11.9417
34.6108
42.6899
48.8993
52.8247
56.0855
58.7331
60.6349
62.7572
64.3523
65.7012
66.9477
68.2556
69.5387
70.7454
71.9224
73.0586
74.1872
75.2738
76.3223
77.2708
77.9907
78.324
5.10496
5.81218
4.75994
14.9478
16.588
18.4205
18.943
19.7625
19.2904
19.9255
17.3599
35.3045
42.5627
48.6887
52.518
55.4129
58.1652
59.7822
61.5697
63.3096
64.9166
66.2303
67.4108
68.5678
69.6716
70.7638
71.8133
72.8616
73.8419
74.7226
75.3914
75.7041
4.11076
12.5193
14.589
13.2424
8.1989
16.8218
22.4605
14.7828
22.0053
20.4947
20.8716
11.3538
34.9511
41.9402
47.8303
51.8895
54.3073
57.2221
59.1135
60.5315
61.7245
63.0233
64.2732
65.3748
66.4168
67.3898
68.3615
69.2839
70.1957
71.0292
71.6521
71.907
7.42756
17.6678
22.4603
25.8576
26.883
23.7556
13.409
15.3871
24.3653
23.8138
14.2069
12.1758
8.81763
35.1557
41.8655
46.648
51.0698
52.9357
55.198
57.3658
59.3009
60.6578
61.7494
62.7983
63.7572
64.7006
65.5799
66.4909
67.3275
68.081
68.6421
68.8874
6.72387
17.0043
22.6691
26.7749
29.5413
31.0058
30.484
22.1423
9.21998
12.339
8.29246
22.7914
20.7027
24.7267
32.1883
40.9968
44.5482
49.4817
51.9975
53.5384
54.6229
55.9588
57.2298
58.2187
59.0969
59.8592
60.6419
61.3516
62.1053
62.8139
63.327
63.4758
6.42421
15.9258
21.9798
26.64
30.0143
32.0191
32.5183
32.3727
26.7772
6.75713
15.3493
10.7565
22.7265
21.9238
22.1273
29.2462
39.758
41.9374
45.4714
48.7905
51.5372
53.0621
54.0341
54.9599
55.7439
56.5249
57.1936
57.9772
58.6551
59.2554
59.6893
59.8616
5.84594
13.9604
19.5511
23.9662
27.4828
30.2211
32.1083
32.3668
32.0765
28.5964
12.7614
25.123
1.61419
23.1191
23.4566
14.1782
22.7411
36.6125
40.7589
42.3618
43.1438
44.6619
46.1516
47.0232
47.6739
48.0984
48.6224
48.9955
49.5374
50.1419
50.5125
50.4912
5.60537
13.3153
18.0565
22.0005
25.2691
27.9083
29.8191
31.239
31.5103
31.2368
28.6602
17.1623
25.4994
14.9146
17.5088
23.5561
18.3305
12.2405
24.6028
33.0248
39.0332
41.0798
41.836
42.5678
43.1581
43.7561
44.1954
44.8991
45.5271
45.8147
46.1918
46.2666
4.75482
11.7957
15.3451
18.7028
21.7723
24.4904
26.8051
28.4664
29.7704
30.4222
30.5226
28.6845
8.17333
19.7748
23.5349
8.71312
24.105
23.4006
19.7143
23.7339
9.10525
16.2829
18.8805
21.0535
19.7986
20.3784
18.5515
19.36
17.8745
20.3994
18.9212
17.9422
4.6549
11.6404
13.3632
15.5247
17.979
20.4455
22.7123
24.8098
26.5609
28.1226
29.3978
29.8629
30.4027
10.7068
16.7257
26.0741
18.4032
24.7447
25.1575
4.21855
16.8254
26.7869
18.1113
27.6128
19.3216
28.7301
21.491
30.2806
10.7868
31.1654
11.3855
23.5683
4.44191
12.0466
12.0198
12.8
14.2928
16.2319
18.3945
20.5582
22.7487
24.8199
26.6903
28.5049
28.7631
29.0998
8.16902
27.5999
21.4492
20.2776
18.8188
25.1502
26.6402
18.112
19.6004
28.4073
21.6032
4.43528
29.5801
19.7946
31.1356
21.2669
31.7018
8.05813
4.20337
12.3294
11.9184
12.1176
12.8139
13.9306
15.3509
17.0894
19.0516
21.2147
23.4917
25.5602
27.8384
28.841
29.7509
12.9179
28.6184
15.903
23.0293
8.07225
16.5315
14.7558
29.0989
22.2636
5.02306
18.6484
30.7212
24.9452
24.7255
33.0708
25.2086
20.4695
3.97798
11.4772
11.9514
11.8018
12.3889
13.3074
14.3605
15.4866
16.8086
18.3842
20.2511
22.5161
24.7533
27.1186
28.4098
30.4252
19.7538
5.55398
8.0571
7.96309
13.4587
26.9823
15.543
28.0302
17.851
8.55776
20.4888
32.8367
29.4752
23.4722
29.0179
18.2939
3.90456
12.0942
11.5491
11.838
12.6263
13.6419
14.654
15.6025
16.4618
17.3308
18.3834
19.7716
21.8169
24.2583
26.9421
28.1254
30.4879
26.2231
13.4902
15.6361
9.94116
18.0617
30.8977
25.3399
27.5769
13.7471
19.044
32.7526
22.9356
34.4033
14.7389
34.1395
3.76937
11.8277
11.9952
12.0386
12.9707
14.0692
15.128
16.0848
16.9298
17.6208
18.18
18.8096
19.763
21.514
23.9784
27.1081
28.316
30.0635
30.9233
26.3744
22.6518
18.5865
18.5856
17.8866
18.5449
19.6987
19.5777
21.5589
19.7152
22.031
20.6772
22.0862
3.79649
11.847
11.5979
12.4944
13.7223
14.9262
15.9896
16.9048
17.6679
18.2958
18.7912
19.1371
19.4813
20.0899
21.5323
23.713
26.97
28.6124
29.1364
30.1603
30.4341
30.5492
30.5255
30.4853
30.5105
30.4609
30.5282
30.6047
30.76
30.8265
31.0449
31.0022
3.86563
11.5342
12.1402
13.2964
14.6251
15.8595
16.9419
17.8777
18.659
19.2606
19.6897
19.9928
20.1784
20.3605
20.7701
22.0145
23.7401
26.4638
28.6197
29.209
29.2071
28.8292
28.3345
27.9993
27.717
27.6368
27.6157
27.7586
27.8486
27.9587