/*--------------------------------*- C++ -*----------------------------------*\
  =========                 |
  \\      /  F ield         | OpenFOAM: The Open Source CFD Toolbox
   \\    /   O peration     | Website:  https://openfoam.org
    \\  /    A nd           | Version:  6
     \\/     M anipulation  |
\*---------------------------------------------------------------------------*/
FoamFile
{
    version     2.0;
    format      ascii;
    class       volScalarField;
    location    "43";
    object      omega;
}
// * * * * * * * * * * * * * * * * * * * * * * * * * * * * * * * * * * * * * //

dimensions      [0 0 -1 0 0 0 0];

internalField   nonuniform List<scalar> 
380496
(
843.917
843.917
843.917
843.917
843.917
843.917
843.917
843.917
843.917
843.917
843.917
843.917
843.917
843.917
843.917
843.917
843.917
843.917
843.917
843.917
843.917
843.917
843.917
843.917
843.917
843.917
843.917
843.917
843.917
843.917
843.917
843.917
843.917
843.917
843.917
843.917
843.917
843.917
843.917
843.917
843.917
843.917
843.917
843.917
843.917
843.917
843.917
843.917
843.917
843.917
843.917
843.917
843.917
843.917
843.917
843.917
843.917
843.917
843.917
843.917
843.917
843.917
843.917
843.917
843.917
843.917
843.917
843.917
843.917
843.917
843.917
843.917
843.917
843.917
843.917
843.917
843.917
843.917
843.917
843.917
843.917
843.917
843.917
843.917
843.917
843.917
843.917
843.917
843.917
843.917
843.917
843.917
843.917
843.917
843.917
843.917
843.917
843.917
843.917
843.917
843.917
843.917
843.917
843.917
843.917
843.917
843.917
843.917
843.917
843.917
843.917
843.917
843.917
843.917
843.917
843.917
843.917
843.917
843.917
843.917
843.917
843.917
843.917
843.917
843.917
843.917
843.917
843.917
843.917
843.917
843.917
843.917
843.917
843.917
843.917
843.917
843.917
843.917
843.917
843.917
843.917
843.917
843.917
843.917
843.917
843.917
843.917
843.917
843.917
843.917
843.917
843.917
843.917
843.917
843.917
843.917
843.917
843.917
843.917
843.917
843.917
843.917
843.917
843.917
843.917
843.917
843.917
843.917
843.917
843.917
843.917
843.917
843.917
843.917
843.917
843.917
843.917
843.917
843.917
843.917
843.917
843.917
843.917
843.917
843.917
843.917
843.917
843.917
843.917
843.917
843.917
843.917
843.917
843.917
843.917
843.917
843.917
843.917
843.917
843.917
843.917
843.917
843.917
843.917
843.917
843.917
843.917
843.917
843.917
843.917
843.917
843.917
843.917
843.917
843.917
843.917
843.917
843.917
843.917
843.917
843.917
843.917
843.917
843.917
843.917
843.917
843.917
843.917
843.917
843.917
843.917
843.917
843.917
843.917
843.917
843.917
843.917
843.917
843.917
843.917
843.917
843.917
843.917
843.917
843.917
843.917
843.917
843.917
843.917
843.917
843.917
843.917
843.917
843.917
843.917
843.917
843.917
843.917
843.917
843.917
843.917
843.917
843.917
843.917
843.917
843.917
843.917
843.917
843.917
843.917
843.917
843.917
843.917
843.917
843.917
843.917
843.917
843.917
843.917
843.917
843.917
843.917
843.917
843.917
843.917
843.917
843.917
843.917
843.917
843.917
843.917
843.917
843.917
843.917
843.917
843.917
843.917
843.917
843.917
843.917
843.917
843.917
843.917
843.917
843.917
843.917
843.917
843.917
843.917
843.917
843.917
843.917
843.917
843.917
843.917
843.917
843.917
843.917
843.917
843.917
843.917
843.917
843.917
843.917
843.917
843.917
843.917
843.917
843.917
843.917
843.917
843.917
843.917
843.917
843.917
843.917
843.917
843.917
843.917
843.917
843.917
843.917
843.917
843.917
843.917
843.917
843.917
843.917
843.917
843.917
843.917
843.917
843.917
843.917
843.917
843.917
843.917
843.917
843.917
843.917
843.917
843.917
843.917
843.917
843.917
843.917
843.917
843.917
843.917
843.917
843.917
843.917
843.917
843.917
843.917
843.917
843.917
843.917
843.917
843.917
843.917
843.917
843.917
843.917
843.917
843.917
843.917
843.917
843.917
843.917
843.917
843.917
843.917
843.917
843.917
843.917
843.917
843.917
843.917
843.917
843.917
843.917
843.917
843.917
843.917
843.917
843.917
843.917
843.917
843.917
843.917
843.917
843.917
843.917
843.917
843.917
843.917
843.917
843.917
843.917
843.917
843.917
843.917
843.917
843.917
843.917
843.917
843.917
843.917
843.917
843.917
843.917
843.917
843.917
843.917
843.917
843.917
843.917
843.917
843.917
843.917
843.917
843.917
843.917
843.917
843.917
843.917
843.917
843.917
843.917
843.917
843.917
843.917
843.917
843.917
843.917
843.917
843.917
843.917
843.917
843.917
843.917
843.917
843.917
843.917
843.917
843.917
843.917
843.917
843.917
843.917
843.917
843.917
843.917
843.917
843.917
843.917
843.917
843.917
843.917
843.917
843.917
843.917
843.917
843.917
843.917
843.917
843.917
843.917
843.917
843.917
843.917
843.917
843.917
843.917
843.917
843.917
843.917
843.917
843.917
843.917
843.917
843.917
843.917
843.917
843.917
843.917
843.917
843.917
843.917
843.917
843.917
843.917
843.917
843.917
843.917
843.917
843.917
843.917
843.917
843.917
843.917
843.917
843.917
843.917
843.917
843.917
843.917
843.917
843.917
843.917
843.917
843.917
843.917
843.917
843.917
843.917
843.917
843.917
843.917
843.917
843.917
843.917
843.917
843.917
843.917
843.917
843.917
843.917
843.917
843.917
843.917
843.917
843.917
843.917
843.917
843.917
843.917
843.917
843.917
843.917
843.917
843.917
843.917
843.917
843.917
843.917
843.917
843.917
843.917
843.917
843.917
843.917
843.917
843.917
843.917
843.917
843.917
843.917
843.917
843.917
843.917
843.917
843.917
843.917
843.917
843.917
843.917
843.917
843.917
843.917
843.917
843.917
843.917
843.917
843.917
843.917
843.917
843.917
843.917
843.917
843.917
843.917
843.917
843.917
843.917
843.917
843.917
843.917
843.917
843.917
843.917
843.917
843.917
843.917
843.917
843.917
843.917
843.917
843.917
843.917
843.917
843.917
843.917
843.917
843.917
843.917
843.917
843.917
843.917
843.917
843.917
843.917
843.917
843.917
843.917
843.917
843.917
843.917
843.917
843.917
843.917
843.917
843.917
843.917
843.917
843.917
843.917
843.917
843.917
843.917
843.917
843.917
843.917
843.917
843.917
843.917
843.917
843.917
843.917
843.917
843.917
843.917
843.917
843.917
843.917
843.917
843.917
843.917
843.917
843.917
843.917
843.917
843.917
843.917
843.917
843.917
843.917
843.917
843.917
843.917
843.917
843.917
843.917
843.917
843.917
843.917
843.917
843.917
843.917
843.917
843.917
843.917
843.917
843.917
843.917
843.917
843.917
843.917
843.917
423.923
423.923
423.923
423.923
423.923
423.923
423.923
423.923
423.923
423.923
423.923
423.923
423.923
423.923
423.923
423.923
423.923
423.923
423.923
423.923
423.923
423.923
423.923
423.923
423.923
423.923
423.923
423.923
423.923
423.923
423.923
423.923
423.923
423.923
423.923
281.629
267.587
268.727
269.808
269.901
269.739
269.624
269.549
269.511
269.479
269.464
269.449
269.446
269.442
269.445
269.448
269.455
269.463
269.473
269.485
269.496
269.513
269.526
269.548
269.563
269.591
269.608
269.644
269.661
269.707
269.722
269.781
269.785
269.867
269.834
281.467
267.572
268.649
269.683
269.749
269.583
269.459
269.388
269.343
269.317
269.298
269.292
269.285
269.291
269.291
269.306
269.309
269.332
269.337
269.365
269.372
269.407
269.416
269.456
269.469
269.516
269.533
269.586
269.605
269.667
269.685
269.756
269.756
269.858
269.753
281.132
267.396
268.475
269.474
269.513
269.339
269.211
269.14
269.096
269.075
269.058
269.058
269.056
269.07
269.075
269.099
269.11
269.142
269.157
269.196
269.214
269.261
269.283
269.338
269.364
269.428
269.457
269.532
269.563
269.65
269.676
269.78
269.784
269.934
269.83
280.564
267.018
268.176
269.148
269.154
268.965
268.832
268.763
268.721
268.706
268.695
268.704
268.708
268.732
268.746
268.78
268.8
268.844
268.868
268.92
268.949
269.01
269.044
269.114
269.153
269.234
269.277
269.369
269.415
269.519
269.563
269.683
269.704
269.873
269.779
280.148
266.781
267.828
268.731
268.715
268.521
268.388
268.318
268.279
268.266
268.261
268.274
268.286
268.316
268.339
268.381
268.411
268.464
268.5
268.564
268.605
268.679
268.727
268.812
268.866
268.964
269.022
269.133
269.196
269.321
269.382
269.528
269.563
269.768
269.677
279.34
266.19
267.272
268.128
268.079
267.874
267.741
267.676
267.644
267.641
267.646
267.67
267.693
267.735
267.77
267.824
267.867
267.933
267.983
268.061
268.117
268.206
268.269
268.371
268.441
268.557
268.633
268.763
268.844
268.99
269.069
269.237
269.289
269.523
269.438
278.499
265.571
266.59
267.375
267.298
267.085
266.953
266.892
266.867
266.872
266.887
266.92
266.955
267.007
267.054
267.12
267.176
267.255
267.319
267.41
267.482
267.587
267.666
267.785
267.873
268.006
268.101
268.251
268.35
268.517
268.616
268.808
268.878
269.142
269.064
277.444
264.752
265.704
266.413
266.306
266.087
265.959
265.905
265.891
265.905
265.932
265.977
266.024
266.088
266.148
266.227
266.297
266.389
266.468
266.573
266.661
266.781
266.877
267.013
267.118
267.27
267.383
267.552
267.67
267.858
267.975
268.189
268.276
268.57
268.496
276.19
263.732
264.626
265.254
265.115
264.892
264.772
264.73
264.73
264.759
264.801
264.86
264.922
265
265.074
265.167
265.251
265.357
265.451
265.572
265.675
265.811
265.924
266.077
266.199
266.369
266.5
266.688
266.824
267.032
267.167
267.403
267.506
267.827
267.757
274.956
262.704
263.447
263.985
263.824
263.603
263.491
263.458
263.468
263.507
263.561
263.63
263.704
263.792
263.879
263.982
264.079
264.197
264.305
264.438
264.556
264.705
264.834
265.001
265.139
265.325
265.472
265.677
265.829
266.054
266.206
266.46
266.578
266.922
266.854
273.278
261.259
261.95
262.409
262.219
262.002
261.908
261.896
261.929
261.989
262.062
262.15
262.241
262.345
262.449
262.566
262.679
262.812
262.935
263.083
263.216
263.381
263.526
263.709
263.864
264.066
264.23
264.451
264.621
264.863
265.031
265.303
265.435
265.802
265.736
271.661
259.85
260.308
260.661
260.456
260.247
260.166
260.166
260.212
260.283
260.369
260.468
260.571
260.686
260.801
260.93
261.056
261.2
261.336
261.497
261.645
261.823
261.983
262.181
262.352
262.569
262.749
262.987
263.172
263.431
263.614
263.904
264.049
264.437
264.372
269.373
257.804
258.181
258.455
258.231
258.042
257.994
258.028
258.104
258.204
258.315
258.436
258.56
258.693
258.827
258.972
259.115
259.274
259.428
259.604
259.769
259.963
260.141
260.355
260.543
260.777
260.975
261.229
261.432
261.707
261.906
262.213
262.372
262.781
262.717
267.103
255.734
255.819
255.985
255.753
255.586
255.561
255.616
255.713
255.83
255.959
256.095
256.235
256.381
256.53
256.688
256.846
257.018
257.187
257.376
257.558
257.767
257.961
258.19
258.396
258.646
258.86
259.131
259.35
259.641
259.857
260.18
260.353
260.781
260.718
264.032
252.897
252.808
252.897
252.666
252.542
252.566
252.667
252.801
252.953
253.11
253.271
253.434
253.602
253.77
253.946
254.123
254.311
254.5
254.705
254.905
255.13
255.344
255.588
255.814
256.079
256.313
256.6
256.838
257.146
257.378
257.717
257.906
258.353
258.29
260.551
249.612
249.233
249.247
249.033
248.959
249.032
249.177
249.349
249.534
249.718
249.905
250.089
250.277
250.463
250.656
250.85
251.054
251.259
251.479
251.698
251.937
252.169
252.429
252.674
252.955
253.208
253.51
253.767
254.09
254.34
254.694
254.898
255.362
255.299
256.377
245.606
244.848
244.78
244.594
244.589
244.719
244.915
245.121
245.339
245.545
245.755
245.955
246.16
246.359
246.567
246.773
246.991
247.21
247.443
247.677
247.93
248.179
248.453
248.715
249.011
249.283
249.6
249.876
250.214
250.484
250.852
251.077
251.555
251.502
249.996
239.623
238.814
238.796
238.673
238.764
238.978
239.25
239.51
239.777
240.014
240.256
240.472
240.7
240.909
241.135
241.349
241.583
241.811
242.061
242.306
242.576
242.841
243.133
243.415
243.73
244.025
244.366
244.665
245.033
245.326
245.724
245.975
246.471
246.454
240.797
231.457
230.477
230.627
230.676
230.901
231.188
231.491
231.759
232.023
232.248
232.48
232.683
232.905
233.105
233.333
233.544
233.786
234.015
234.277
234.528
234.812
235.086
235.4
235.712
236.065
236.404
236.78
237.132
237.528
237.88
238.298
238.616
239.122
239.215
214.291
212.117
212.361
213.265
213.875
214.586
215.283
215.931
216.505
217.046
217.533
218.01
218.449
218.895
219.311
219.744
220.151
220.582
220.99
221.427
221.84
222.286
222.71
223.164
223.598
224.058
224.5
224.962
225.408
225.864
226.31
226.749
227.19
227.559
228.175
9.0208
7.66059
7.58688
7.55245
7.6033
7.67339
7.76326
7.85324
7.95251
8.04289
8.13785
8.22123
8.30889
8.38484
8.46656
8.53698
8.61514
8.68199
8.75879
8.82329
8.90061
8.96311
9.04266
9.10229
9.18584
9.24034
9.33053
9.37584
9.47667
9.50585
9.62389
9.62409
9.77108
9.71249
9.90873
135.248
128.88
128.553
129.045
129.237
129.225
129.165
129.108
129.063
129.028
129.001
128.981
128.966
128.956
128.949
128.946
128.944
128.945
128.948
128.953
128.959
128.967
128.977
128.988
129.003
129.018
129.039
129.058
129.088
129.11
129.152
129.179
129.233
129.27
129.338
135.076
128.679
128.314
128.781
128.961
128.943
128.88
128.82
128.774
128.739
128.712
128.693
128.68
128.673
128.669
128.668
128.67
128.675
128.682
128.69
128.701
128.713
128.729
128.744
128.766
128.784
128.813
128.835
128.872
128.9
128.944
128.981
129.023
129.091
129.082
134.794
128.387
128.006
128.459
128.629
128.606
128.539
128.48
128.433
128.399
128.375
128.359
128.349
128.345
128.346
128.35
128.357
128.367
128.381
128.395
128.414
128.433
128.457
128.479
128.51
128.537
128.576
128.607
128.656
128.69
128.751
128.791
128.855
128.923
128.948
134.361
127.976
127.614
128.063
128.222
128.191
128.121
128.06
128.015
127.984
127.963
127.951
127.946
127.947
127.952
127.962
127.976
127.992
128.012
128.033
128.058
128.084
128.115
128.145
128.184
128.218
128.265
128.304
128.36
128.404
128.47
128.521
128.585
128.668
128.684
134.043
127.651
127.239
127.651
127.794
127.755
127.681
127.618
127.571
127.54
127.52
127.51
127.507
127.512
127.521
127.535
127.552
127.574
127.598
127.625
127.656
127.688
127.726
127.763
127.809
127.851
127.905
127.952
128.017
128.068
128.143
128.202
128.275
128.367
128.392
133.489
127.123
126.721
127.12
127.247
127.2
127.121
127.058
127.013
126.986
126.97
126.966
126.968
126.979
126.994
127.014
127.038
127.066
127.097
127.131
127.169
127.209
127.254
127.298
127.351
127.401
127.463
127.518
127.59
127.649
127.731
127.799
127.876
127.979
128.003
132.924
126.585
126.16
126.527
126.634
126.575
126.492
126.427
126.383
126.358
126.345
126.345
126.352
126.367
126.388
126.414
126.443
126.477
126.514
126.555
126.599
126.646
126.697
126.749
126.809
126.867
126.936
126.999
127.078
127.145
127.234
127.31
127.393
127.507
127.532
132.248
125.943
125.497
125.828
125.912
125.842
125.754
125.689
125.646
125.624
125.616
125.621
125.633
125.654
125.68
125.712
125.747
125.787
125.831
125.878
125.929
125.982
126.04
126.099
126.166
126.231
126.307
126.377
126.463
126.538
126.633
126.717
126.804
126.928
126.951
131.463
125.21
124.747
125.043
125.101
125.018
124.926
124.86
124.822
124.805
124.803
124.814
124.833
124.86
124.893
124.931
124.973
125.02
125.069
125.123
125.18
125.24
125.306
125.372
125.445
125.517
125.6
125.678
125.77
125.853
125.953
126.046
126.136
126.271
126.292
130.701
124.496
123.979
124.222
124.253
124.158
124.062
123.997
123.961
123.947
123.95
123.965
123.989
124.021
124.059
124.102
124.149
124.201
124.256
124.316
124.379
124.444
124.515
124.588
124.667
124.745
124.834
124.918
125.016
125.105
125.21
125.31
125.403
125.547
125.566
129.711
123.569
123.042
123.249
123.252
123.144
123.046
122.985
122.956
122.951
122.962
122.986
123.018
123.058
123.103
123.153
123.207
123.266
123.328
123.394
123.463
123.536
123.613
123.692
123.778
123.863
123.958
124.049
124.153
124.249
124.359
124.466
124.562
124.716
124.732
128.745
122.678
122.06
122.195
122.163
122.043
121.943
121.883
121.857
121.857
121.873
121.902
121.94
121.985
122.036
122.092
122.151
122.215
122.282
122.354
122.429
122.508
122.591
122.676
122.768
122.859
122.96
123.057
123.167
123.27
123.385
123.499
123.598
123.762
123.774
127.449
121.461
120.82
120.911
120.849
120.717
120.62
120.569
120.555
120.566
120.594
120.634
120.682
120.737
120.796
120.86
120.927
120.999
121.074
121.152
121.235
121.32
121.41
121.503
121.602
121.7
121.808
121.913
122.029
122.139
122.26
122.381
122.484
122.658
122.666
126.136
120.248
119.483
119.486
119.384
119.241
119.144
119.099
119.093
119.113
119.149
119.197
119.253
119.315
119.382
119.453
119.527
119.605
119.687
119.772
119.861
119.953
120.05
120.15
120.255
120.361
120.476
120.588
120.71
120.827
120.955
121.083
121.19
121.373
121.377
124.43
118.648
117.809
117.747
117.61
117.46
117.373
117.343
117.353
117.388
117.439
117.5
117.568
117.641
117.717
117.798
117.881
117.967
118.057
118.15
118.247
118.347
118.452
118.56
118.673
118.787
118.909
119.029
119.159
119.283
119.417
119.554
119.665
119.86
119.859
122.481
116.821
115.84
115.693
115.518
115.365
115.288
115.274
115.3
115.352
115.417
115.492
115.571
115.655
115.741
115.83
115.922
116.017
116.114
116.215
116.319
116.427
116.539
116.655
116.775
116.897
117.027
117.154
117.292
117.424
117.565
117.71
117.825
118.031
118.024
120.129
114.623
113.441
113.176
112.954
112.801
112.74
112.747
112.791
112.859
112.937
113.024
113.112
113.204
113.297
113.393
113.49
113.591
113.694
113.801
113.912
114.026
114.145
114.268
114.396
114.526
114.663
114.799
114.944
115.085
115.234
115.388
115.511
115.729
115.723
116.507
111.184
110.001
109.748
109.524
109.387
109.349
109.38
109.442
109.527
109.616
109.713
109.807
109.907
110.005
110.107
110.21
110.318
110.427
110.543
110.661
110.785
110.913
111.046
111.185
111.327
111.477
111.627
111.788
111.944
112.11
112.277
112.421
112.648
112.662
111.045
106.317
104.828
104.484
104.243
104.13
104.116
104.169
104.246
104.35
104.453
104.57
104.681
104.805
104.923
105.054
105.181
105.32
105.456
105.604
105.752
105.909
106.07
106.238
106.409
106.584
106.762
106.942
107.13
107.315
107.509
107.702
107.881
108.122
108.208
95.7352
95.7766
94.6517
94.3502
94.1303
94.0907
94.1911
94.3741
94.5921
94.8355
95.0804
95.334
95.581
95.8334
96.0776
96.327
96.5688
96.8163
97.0573
97.3045
97.5466
97.7949
98.0396
98.2901
98.5377
98.7902
99.0404
99.2941
99.5452
99.7979
100.048
100.292
100.553
100.749
101.102
11.4413
9.87263
9.83631
9.87887
9.9927
10.1134
10.2466
10.3713
10.5019
10.6178
10.7368
10.84
10.9471
11.0389
11.1371
11.2209
11.3135
11.392
11.4821
11.5571
11.647
11.7192
11.8112
11.8798
11.9759
12.0385
12.1418
12.1941
12.309
12.3438
12.4772
12.482
12.6449
12.5959
12.7982
79.7825
77.2365
76.6748
76.7664
76.8896
76.9293
76.9175
76.8895
76.8578
76.8305
76.8061
76.787
76.7707
76.7588
76.749
76.7423
76.7373
76.7342
76.7328
76.7322
76.7339
76.7349
76.7397
76.7417
76.7502
76.7528
76.7662
76.7686
76.7887
76.7904
76.8195
76.8205
76.8611
76.8604
76.9234
79.5949
77.0491
76.471
76.5475
76.6625
76.6964
76.6816
76.65
76.6173
76.5879
76.5641
76.5441
76.5299
76.5176
76.5111
76.504
76.5034
76.4998
76.5036
76.5022
76.51
76.5101
76.5214
76.5228
76.5379
76.5406
76.5601
76.564
76.5885
76.5946
76.6232
76.6355
76.6599
76.6912
76.6957
79.3539
76.8069
76.2192
76.2865
76.3956
76.4253
76.4079
76.3743
76.3408
76.3109
76.2877
76.2683
76.2557
76.2448
76.2405
76.2356
76.2377
76.2369
76.2441
76.246
76.2577
76.2614
76.2775
76.2823
76.3035
76.3088
76.3362
76.3412
76.3768
76.3809
76.4255
76.431
76.4794
76.4966
76.5387
79.0384
76.4934
75.9097
75.9764
76.0817
76.107
76.0861
76.0504
76.0161
75.9862
75.9641
75.9461
75.9357
75.9271
75.9257
75.9236
75.9291
75.9315
75.9425
75.9478
75.9637
75.9709
75.9915
76.0002
76.026
76.0356
76.0674
76.0776
76.1165
76.1273
76.1728
76.1876
76.2321
76.2625
76.2932
78.7525
76.2182
75.6172
75.6643
75.7564
75.7735
75.7473
75.7079
75.6711
75.6399
75.6171
75.5994
75.5895
75.5822
75.5821
75.582
75.5895
75.5943
75.6078
75.616
75.6347
75.6451
75.669
75.681
75.7107
75.7236
75.76
75.7732
75.8176
75.8308
75.8832
75.8992
75.9524
75.9827
76.0253
78.3534
75.8245
75.2277
75.2709
75.3556
75.366
75.335
75.2929
75.2551
75.2242
75.2025
75.1866
75.179
75.1743
75.1771
75.1802
75.1909
75.1992
75.2161
75.228
75.2504
75.2648
75.2926
75.3086
75.3423
75.3593
75.3998
75.4172
75.4657
75.4831
75.5392
75.5596
75.6154
75.6504
75.6941
77.9279
75.4145
74.8124
74.8411
74.9125
74.9131
74.8754
74.8293
74.7893
74.7578
74.7364
74.7218
74.7158
74.7134
74.7184
74.7242
74.7375
74.7489
74.7688
74.784
74.8095
74.8273
74.8585
74.8781
74.9153
74.9361
74.9804
75.0015
75.0538
75.0749
75.135
75.1591
75.2185
75.2574
75.3044
77.4332
74.9367
74.3318
74.3458
74.4022
74.3916
74.3466
74.2964
74.2544
74.2226
74.2019
74.1889
74.1847
74.1848
74.1924
74.2012
74.2174
74.232
74.2549
74.2735
74.3023
74.3236
74.3582
74.3814
74.4222
74.4465
74.4945
74.5192
74.5753
74.6
74.6634
74.6913
74.7532
74.7962
74.8444
76.8735
74.4026
73.7995
73.7993
73.8391
73.8158
73.7627
73.7084
73.6648
73.6335
73.6143
73.6036
73.6022
73.6053
73.6159
73.6281
73.6474
73.6655
73.6916
73.7136
73.7457
73.7705
73.8084
73.8351
73.8794
73.9073
73.9588
73.9871
74.0466
74.0749
74.1416
74.1732
74.2374
74.2847
74.3339
76.3104
73.8746
73.2597
73.2343
73.2531
73.2158
73.1545
73.096
73.0506
73.0192
73.0008
72.9919
72.9924
72.9981
73.0111
73.0261
73.0479
73.0689
73.0977
73.1227
73.1575
73.1854
73.2262
73.2561
73.3034
73.3345
73.3891
73.4205
73.4833
73.5146
73.5842
73.6191
73.6854
73.7364
73.7862
75.6269
73.2231
72.615
72.5762
72.5768
72.5251
72.4554
72.3934
72.3477
72.318
72.3024
72.297
72.3011
72.3106
72.3272
72.3459
72.3713
72.3959
72.428
72.4567
72.4947
72.5261
72.5701
72.6035
72.6541
72.6887
72.7467
72.7815
72.8476
72.8823
72.955
72.9933
73.0617
73.1169
73.1671
74.9227
72.5727
71.9404
71.863
71.8338
71.764
71.685
71.6188
71.5719
71.543
71.5292
71.5264
71.5331
71.5457
71.5652
71.5871
71.6153
71.6432
71.6781
71.71
71.7509
71.7857
71.8327
71.8695
71.9233
71.9612
72.0225
72.0607
72.1302
72.1682
72.244
72.2857
72.3562
72.4156
72.4659
74.0387
71.7348
71.1058
71.01
70.9577
70.8713
70.784
70.7156
70.6702
70.6448
70.6352
70.6372
70.6486
70.666
70.6899
70.7163
70.7485
70.7806
70.8192
70.8552
70.8997
70.9384
70.989
71.0298
71.0872
71.129
71.1941
71.2361
71.3093
71.351
71.4303
71.4758
71.5488
71.6127
71.6632
73.1015
70.8712
70.204
70.0569
69.9664
69.8582
69.7614
69.69
69.6453
69.6228
69.617
69.6233
69.639
69.6609
69.6889
69.7196
69.7556
69.7918
69.834
69.874
69.922
69.9649
70.0191
70.0639
70.125
70.171
70.2399
70.2858
70.363
70.4085
70.4915
70.541
70.6165
70.6854
70.7355
71.9315
69.7756
69.091
68.9083
68.7844
68.6562
68.5517
68.48
68.439
68.4218
68.4221
68.4344
68.456
68.4835
68.5166
68.5524
68.5929
68.6339
68.6801
68.7248
68.7766
68.8241
68.8821
68.9315
68.9965
69.047
69.12
69.1703
69.2516
69.3013
69.3884
69.442
69.5207
69.595
69.6455
70.5748
68.512
67.7789
67.5403
67.3741
67.2232
67.1107
67.0388
67.0018
66.9903
66.9971
67.0158
67.0435
67.0767
67.1149
67.1556
67.2003
67.2458
67.2957
67.3447
67.3999
67.4517
67.5131
67.5671
67.6355
67.6906
67.7673
67.8222
67.9076
67.9614
68.0529
68.1104
68.1928
68.2719
68.3228
68.9303
66.9873
66.1755
65.8546
65.6305
65.4522
65.332
65.2608
65.2282
65.2215
65.2334
65.2559
65.2871
65.3228
65.3634
65.406
65.4527
65.5001
65.5519
65.6036
65.6611
65.7165
65.7806
65.8388
65.9105
65.9702
66.0507
66.1106
66.2005
66.2593
66.356
66.4188
66.507
66.5929
66.6488
66.5751
64.6696
63.8505
63.5247
63.2811
63.0877
62.9595
62.8834
62.8477
62.8375
62.8466
62.8655
62.8947
62.9278
62.9682
63.0105
63.059
63.1084
63.1639
63.2195
63.2821
63.3432
63.4135
63.4792
63.5581
63.6267
63.7163
63.7841
63.8859
63.9507
64.0617
64.1276
64.2328
64.3197
64.3928
63.0741
61.5354
60.4574
59.9488
59.5934
59.3425
59.1866
59.0986
59.0611
59.0554
59.0748
59.1074
59.1546
59.2072
59.2706
59.3359
59.4107
59.4853
59.5688
59.6511
59.7423
59.8307
59.9303
60.0263
60.1324
60.2277
60.3361
60.4298
60.5455
60.6375
60.7619
60.8522
60.979
61.0766
61.1942
55.4837
57.2185
56.1466
55.3548
54.7499
54.3325
54.0879
53.9581
53.9147
53.9191
53.965
54.0275
54.1135
54.2029
54.3087
54.4114
54.5279
54.6379
54.761
54.8755
55.0032
55.1213
55.2522
55.3738
55.5072
55.6327
55.7674
55.897
56.0321
56.1641
56.3015
56.4266
56.5821
56.6725
56.8918
13.0129
11.4039
11.4153
11.5422
11.724
11.8944
12.0656
12.2171
12.3691
12.5001
12.6322
12.7442
12.86
12.9573
13.0614
13.1485
13.2455
13.3259
13.4193
13.4953
13.588
13.6606
13.755
13.8236
13.9219
13.9844
14.0897
14.1422
14.2587
14.2948
14.4287
14.4379
14.5976
14.5637
14.7516
52.8625
51.8612
51.4547
51.3872
51.4232
51.4558
51.4627
51.4542
51.4365
51.4186
51.3999
51.3845
51.37
51.3587
51.3487
51.341
51.3348
51.3298
51.3267
51.3233
51.3229
51.3203
51.3224
51.3197
51.3247
51.3211
51.3299
51.3243
51.3381
51.3295
51.3503
51.3378
51.3682
51.3489
51.3983
52.6912
51.7
51.291
51.2159
51.247
51.2747
51.2793
51.2672
51.2487
51.228
51.21
51.1924
51.1799
51.1668
51.1599
51.1504
51.1482
51.1411
51.1428
51.137
51.142
51.1368
51.1446
51.1397
51.1501
51.1453
51.1584
51.1536
51.1696
51.1654
51.1829
51.1822
51.1968
51.2037
51.2136
52.4925
51.5064
51.0945
51.0144
51.042
51.0663
51.0686
51.0541
51.0345
51.0124
50.9941
50.976
50.9639
50.9509
50.9449
50.9359
50.9351
50.9289
50.9324
50.9277
50.935
50.931
50.9418
50.9376
50.9524
50.9469
50.9666
50.959
50.9847
50.9742
51.0066
50.9944
51.0315
51.0198
51.0639
52.255
51.2695
50.8592
50.7792
50.8057
50.8277
50.8278
50.811
50.7899
50.7667
50.7482
50.73
50.7186
50.7062
50.7016
50.6937
50.6947
50.6898
50.6955
50.6925
50.7022
50.7
50.7135
50.7112
50.7287
50.7258
50.7477
50.7437
50.7704
50.7654
50.7963
50.7925
50.8237
50.8243
50.8562
52.0124
51.0413
50.6287
50.5406
50.5589
50.5744
50.5694
50.5489
50.525
50.4999
50.48
50.4611
50.4493
50.4371
50.4327
50.4256
50.4273
50.4236
50.4304
50.4287
50.4399
50.439
50.4544
50.4534
50.4733
50.4715
50.4964
50.4929
50.5238
50.5184
50.555
50.5494
50.5885
50.5853
50.6286
51.7112
50.7439
50.3351
50.2468
50.2622
50.2737
50.2647
50.2411
50.215
50.1886
50.1681
50.1492
50.1378
50.1264
50.1231
50.1173
50.1204
50.1184
50.1269
50.127
50.1401
50.1413
50.1588
50.1599
50.182
50.1823
50.2097
50.2084
50.2418
50.2386
50.2775
50.2742
50.3153
50.3144
50.359
51.3808
50.4248
50.0181
49.9254
49.9336
49.9383
49.9234
49.8955
49.8662
49.8379
49.8162
49.7971
49.7857
49.7749
49.7723
49.7676
49.7719
49.7713
49.7811
49.7828
49.7975
49.8003
49.8195
49.8224
49.8465
49.8484
49.8781
49.8783
49.9142
49.9125
49.9542
49.9522
49.9962
49.9963
50.0444
51.0012
50.0572
49.6546
49.5579
49.5584
49.5551
49.5335
49.5007
49.4679
49.4377
49.4148
49.3954
49.3842
49.3742
49.3724
49.3691
49.3746
49.3756
49.3869
49.3904
49.4068
49.4113
49.4325
49.4371
49.4633
49.467
49.4989
49.5009
49.5391
49.5392
49.5832
49.5829
49.6291
49.6308
49.6807
50.5804
49.6503
49.2551
49.1556
49.148
49.1358
49.1065
49.0684
49.032
48.9999
48.9761
48.9568
48.946
48.9371
48.9363
48.9345
48.9414
48.944
48.9569
48.9622
48.9802
48.9865
49.0094
49.0158
49.0439
49.0494
49.0834
49.0871
49.1275
49.1293
49.1755
49.1769
49.2251
49.2284
49.2802
50.1473
49.2387
48.8468
48.7388
48.7188
48.6956
48.6579
48.6143
48.5743
48.5404
48.5156
48.4964
48.4859
48.478
48.4782
48.4778
48.4859
48.4902
48.5044
48.5113
48.5308
48.5388
48.5634
48.5714
48.6013
48.6084
48.6443
48.6497
48.6922
48.6955
48.7438
48.7467
48.7968
48.8016
48.855
49.6403
48.7497
48.3692
48.2601
48.2315
48.1979
48.1516
48.1021
48.0586
48.023
47.9976
47.979
47.9693
47.9628
47.9643
47.9656
47.9752
47.9814
47.9972
48.0059
48.0271
48.037
48.0632
48.0731
48.1049
48.1138
48.1517
48.1588
48.2035
48.2084
48.2589
48.2634
48.3155
48.3219
48.377
49.0985
48.2405
47.86
47.7354
47.6878
47.6386
47.5817
47.5259
47.4786
47.4416
47.4159
47.398
47.3893
47.3844
47.3873
47.3906
47.4017
47.4098
47.4272
47.4379
47.4607
47.4726
47.5006
47.5124
47.5461
47.5569
47.597
47.6059
47.6529
47.6595
47.7124
47.7186
47.7726
47.7807
47.8375
48.4418
47.6138
47.2465
47.119
47.0591
46.9966
46.9294
46.8671
46.8164
46.7782
46.7524
46.7356
46.7281
46.7252
46.7297
46.7352
46.7481
46.7584
46.7775
46.7905
46.815
46.8291
46.859
46.873
46.9088
46.9217
46.9641
46.975
47.0245
47.0329
47.0884
47.0964
47.1527
47.1627
47.2213
47.7236
46.9426
46.571
46.4207
46.3349
46.2523
46.1725
46.1033
46.0494
46.0106
45.9855
45.9704
45.9648
45.9643
45.971
45.9791
45.994
46.0069
46.028
46.0435
46.07
46.0866
46.1186
46.1351
46.1731
46.1884
46.2332
46.2464
46.2985
46.309
46.3672
46.3772
46.4359
46.4479
46.5083
46.846
46.1179
45.7542
45.5911
45.4839
45.382
45.2896
45.2133
45.1562
45.1167
45.0922
45.0787
45.0748
45.0766
45.0851
45.0957
45.1123
45.1278
45.1504
45.1685
45.1966
45.2158
45.2495
45.2686
45.3085
45.3264
45.3735
45.3889
45.4437
45.4562
45.5173
45.5291
45.5907
45.6047
45.6677
45.8227
45.1592
44.7879
44.5976
44.4593
44.3331
44.2261
44.1415
44.0812
44.0407
44.0172
44.0052
44.0031
44.007
44.0172
44.0298
44.0477
44.0653
44.0889
44.1094
44.1383
44.16
44.1946
44.2164
44.2575
44.278
44.3268
44.3447
44.4018
44.4164
44.4805
44.4939
44.5588
44.574
44.6403
44.5799
44.0027
43.6109
43.3754
43.1919
43.0336
42.9088
42.8141
42.7495
42.7059
42.6814
42.6677
42.6648
42.6671
42.6764
42.6878
42.7047
42.7219
42.7448
42.7658
42.7943
42.8177
42.8525
42.8767
42.9186
42.9421
42.9923
43.0134
43.0728
43.0906
43.1578
43.1742
43.2435
43.2617
43.3344
43.0292
42.4149
41.9904
41.7333
41.5218
41.3352
41.1886
41.0742
40.9951
40.937
40.9022
40.8773
40.8675
40.8618
40.8673
40.8743
40.8902
40.9061
40.9301
40.9526
40.9835
41.0106
41.0484
41.0783
41.1239
41.1543
41.2092
41.2371
41.3023
41.3259
41.4001
41.4206
41.4984
41.5194
41.6016
40.8417
40.5283
39.9124
39.4674
39.1178
38.8401
38.6392
38.4904
38.3946
38.3266
38.2925
38.2695
38.2699
38.2725
38.2935
38.3122
38.3465
38.3761
38.4196
38.4572
38.5075
38.5507
38.6071
38.6564
38.7184
38.7676
38.8316
38.8781
38.9476
38.9908
39.0685
39.1074
39.193
39.2272
39.324
37.8605
40.6891
39.8767
38.9233
38.1191
37.5
37.0608
36.7461
36.5373
36.3885
36.2996
36.2356
36.2097
36.1909
36.2002
36.2071
36.2372
36.2596
36.3028
36.3351
36.3866
36.426
36.4828
36.5282
36.5883
36.6395
36.7012
36.7582
36.8209
36.8816
36.9483
37.0045
37.0886
37.1219
37.2548
14.272
12.688
12.7652
12.9746
13.223
13.4395
13.6444
13.8174
13.9857
14.1261
14.2662
14.3818
14.5014
14.5991
14.7049
14.7907
14.8881
14.9662
15.0592
15.1322
15.2239
15.2931
15.3861
15.4512
15.5478
15.607
15.7101
15.7602
15.8735
15.909
16.0377
16.0505
16.2004
16.1796
16.35
37.6238
37.2103
36.9822
36.8896
36.8745
36.885
36.8916
36.8914
36.883
36.8728
36.8601
36.8487
36.8372
36.8275
36.8187
36.8111
36.805
36.7991
36.7956
36.7907
36.7895
36.7847
36.7859
36.7804
36.7841
36.7771
36.7839
36.7743
36.7853
36.7718
36.7883
36.7698