/*--------------------------------*- C++ -*----------------------------------*\
  =========                 |
  \\      /  F ield         | OpenFOAM: The Open Source CFD Toolbox
   \\    /   O peration     | Website:  https://openfoam.org
    \\  /    A nd           | Version:  6
     \\/     M anipulation  |
\*---------------------------------------------------------------------------*/
FoamFile
{
    version     2.0;
    format      ascii;
    class       volVectorField;
    location    "43";
    object      wallShearStress;
}
// * * * * * * * * * * * * * * * * * * * * * * * * * * * * * * * * * * * * * //

dimensions      [0 2 -2 0 0 0 0];

internalField   uniform (0 0 0);

boundaryField
{
    inlet
    {
        type            calculated;
        value           uniform (0 0 0);
    }
    outlet
    {
        type            calculated;
        value           uniform (0 0 0);
    }
    roughCylinder
    {
        type            calculated;
        value           nonuniform List<vector> 
3840
(
(-0.000104777 -0.000136272 -6.04639e-05)
(-0.00020496 -0.000344759 -4.1202e-05)
(-0.000295882 -0.000500554 3.7538e-05)
(-0.000358269 -0.000565211 9.68316e-05)
(-0.000425702 -0.000606761 0.000147014)
(-0.000469683 -0.000602659 0.000177905)
(-0.00050817 -0.000592558 0.00019803)
(-0.00053059 -0.000574929 0.000208891)
(-0.000550704 -0.000565479 0.000217558)
(-0.00056109 -0.000556485 0.000220138)
(-0.000574378 -0.000557256 0.000220651)
(-0.000584213 -0.000559781 0.000216627)
(-0.000586988 -0.000559458 0.000207088)
(-0.000584068 -0.000556381 0.00019326)
(-0.000582002 -0.000555978 0.000178055)
(-0.000578466 -0.000554851 0.000161178)
(-0.000582988 -0.000561446 0.000145606)
(-0.000598562 -0.000578082 0.000131327)
(-0.000608701 -0.000589906 0.000114461)
(-0.000594362 -0.000579253 9.30363e-05)
(-0.000595415 -0.000582355 7.39806e-05)
(-0.000590164 -0.000579299 5.37512e-05)
(-0.000588988 -0.000579667 3.3118e-05)
(-0.000587577 -0.000579332 1.12317e-05)
(-0.000145834 -0.000168916 -7.31882e-05)
(-0.000222231 -0.000339011 -4.76857e-05)
(-0.000316933 -0.000494784 2.91882e-05)
(-0.000383223 -0.000565188 8.91612e-05)
(-0.000454154 -0.000610692 0.00014002)
(-0.000500773 -0.000610103 0.000171677)
(-0.000542038 -0.00060365 0.000192951)
(-0.000568567 -0.000590048 0.000206242)
(-0.000590899 -0.000580377 0.000216417)
(-0.00060302 -0.000570947 0.000220069)
(-0.000614337 -0.000568423 0.000219786)
(-0.000624642 -0.000570592 0.000215875)
(-0.00062803 -0.000570709 0.000206662)
(-0.00062447 -0.000567334 0.000192913)
(-0.000624062 -0.000568536 0.000178385)
(-0.000620987 -0.000567964 0.000161771)
(-0.000627042 -0.000575758 0.00014653)
(-0.000643748 -0.000592711 0.000132246)
(-0.000654278 -0.000604526 0.000115303)
(-0.000641389 -0.000596091 9.42047e-05)
(-0.000644834 -0.000601513 7.5274e-05)
(-0.000640771 -0.000599911 5.4897e-05)
(-0.000639513 -0.000600354 3.38628e-05)
(-0.000638044 -0.00060007 1.14949e-05)
(-0.000138955 -0.000141411 -5.77945e-05)
(-0.000237011 -0.000324771 -5.36506e-05)
(-0.000338947 -0.000484769 1.99293e-05)
(-0.000408168 -0.000559311 8.01814e-05)
(-0.00048164 -0.000607693 0.000131348)
(-0.000531708 -0.000612174 0.000164283)
(-0.000577137 -0.000611161 0.000187518)
(-0.000605168 -0.000599141 0.000202256)
(-0.000631561 -0.000591886 0.000214489)
(-0.000645786 -0.000581699 0.000219113)
(-0.000662356 -0.000582337 0.000220597)
(-0.000672093 -0.000583063 0.000216407)
(-0.000674307 -0.00058196 0.000206919)
(-0.000670796 -0.000578894 0.000193446)
(-0.000672444 -0.000581862 0.000179585)
(-0.000669999 -0.000581979 0.000163202)
(-0.000677825 -0.000591028 0.000148233)
(-0.000694868 -0.000607522 0.000133708)
(-0.000703695 -0.000617498 0.000116291)
(-0.000689378 -0.000608657 9.50775e-05)
(-0.000693141 -0.000614355 7.60823e-05)
(-0.000688689 -0.000612719 5.55548e-05)
(-0.00068731 -0.000613218 3.43095e-05)
(-0.000686018 -0.000613219 1.16615e-05)
(-0.000124094 -0.000110056 -4.07183e-05)
(-0.000253472 -0.000310627 -6.01079e-05)
(-0.000357815 -0.00046766 9.93361e-06)
(-0.000430857 -0.000547559 7.0033e-05)
(-0.000508147 -0.000600711 0.000121653)
(-0.000561844 -0.0006108 0.000156076)
(-0.000610642 -0.000614438 0.000181244)
(-0.000644159 -0.000607959 0.000198784)
(-0.000672656 -0.000601402 0.000212234)
(-0.000689831 -0.000590896 0.000217962)
(-0.000703551 -0.000587377 0.000218602)
(-0.000713908 -0.000587643 0.000214638)
(-0.000717792 -0.000587694 0.00020588)
(-0.000715339 -0.000585662 0.000193034)
(-0.000719143 -0.000590254 0.000179874)
(-0.000716586 -0.000590426 0.00016364)
(-0.000725428 -0.000599972 0.000148881)
(-0.000742457 -0.00061575 0.000134219)
(-0.000750792 -0.00062512 0.000116727)
(-0.000739056 -0.000619337 9.60381e-05)
(-0.000746265 -0.000627903 7.72908e-05)
(-0.000743036 -0.000627669 5.66397e-05)
(-0.000741934 -0.000628605 3.50447e-05)
(-0.000740662 -0.000628766 1.19245e-05)
(-0.000133493 -0.000102231 -3.25267e-05)
(-0.000261931 -0.000285818 -6.45646e-05)
(-0.000374881 -0.000446562 -3.63394e-07)
(-0.000450419 -0.000530026 5.88917e-05)
(-0.000530599 -0.000587062 0.000110512)
(-0.00058922 -0.000604417 0.000146702)
(-0.000642894 -0.000614227 0.000174314)
(-0.000678146 -0.000609646 0.000193535)
(-0.000711521 -0.000606385 0.000208883)
(-0.000732794 -0.000597183 0.000216143)
(-0.0007514 -0.000595126 0.000218355)
(-0.000761157 -0.000593775 0.000214265)
(-0.000764645 -0.000593046 0.000205596)
(-0.000763804 -0.00059227 0.000193447)
(-0.00076965 -0.000598189 0.000180859)
(-0.000767595 -0.00059896 0.000164883)
(-0.000778087 -0.000609463 0.000150396)
(-0.000794694 -0.000624296 0.00013548)
(-0.000801133 -0.000632078 0.000117649)
(-0.000789219 -0.00062699 9.70358e-05)
(-0.000796794 -0.000635736 7.82053e-05)
(-0.000792601 -0.000635131 5.73508e-05)
(-0.000791197 -0.000636067 3.55276e-05)
(-0.000789825 -0.000636332 1.21007e-05)
(-0.000142413 -9.31942e-05 -2.33683e-05)
(-0.000275215 -0.000265816 -6.99052e-05)
(-0.000387332 -0.000419219 -1.07898e-05)
(-0.000466801 -0.000507878 4.69423e-05)
(-0.000551104 -0.000570307 9.86041e-05)
(-0.000613886 -0.00059399 0.000136361)
(-0.00067167 -0.000608945 0.000166196)
(-0.000713568 -0.000610494 0.000188436)
(-0.000749967 -0.000608673 0.000205145)
(-0.000773295 -0.000599688 0.000213323)
(-0.000790432 -0.000593629 0.000215234)
(-0.00080186 -0.000592105 0.000211892)
(-0.000808424 -0.000592997 0.000204329)
(-0.000810032 -0.000593773 0.0001931)
(-0.000817421 -0.000600458 0.000181014)
(-0.000815054 -0.000601241 0.000165237)
(-0.000826068 -0.000611784 0.000150923)
(-0.000841191 -0.000625042 0.000135764)
(-0.000846565 -0.000632127 0.000117915)
(-0.000838334 -0.000630652 9.79509e-05)
(-0.00084978 -0.000642182 7.93933e-05)
(-0.000846769 -0.000642971 5.84283e-05)
(-0.000845998 -0.000644672 3.62848e-05)
(-0.000844734 -0.000645241 1.23749e-05)
(-0.000200242 -0.000110561 -1.79835e-05)
(-0.000277126 -0.000235272 -7.20112e-05)
(-0.000396865 -0.000388911 -2.10566e-05)
(-0.000478166 -0.000480418 3.41797e-05)
(-0.000565707 -0.000547544 8.53857e-05)
(-0.000634945 -0.00057962 0.000125)
(-0.000698073 -0.000600456 0.000157253)
(-0.000742739 -0.000604428 0.000181399)
(-0.000784044 -0.000605619 0.00019999)
(-0.000812584 -0.000599437 0.000209888)
(-0.000835941 -0.00059577 0.000213715)
(-0.000847635 -0.000592103 0.000210758)
(-0.000854339 -0.000591974 0.000203537)
(-0.000858168 -0.000593829 0.000193119)
(-0.00086667 -0.000600856 0.000181443)
(-0.000865439 -0.00060271 0.000166174)
(-0.00087803 -0.000614036 0.000152202)
(-0.000892166 -0.000626292 0.000136867)
(-0.000896048 -0.00063255 0.000118882)
(-0.00088891 -0.000632701 9.91457e-05)
(-0.000899891 -0.000643954 8.04208e-05)
(-0.000895302 -0.000644396 5.92206e-05)
(-0.000893827 -0.0006461 3.68196e-05)
(-0.000892153 -0.00064676 1.25682e-05)
(-0.000175965 -8.06523e-05 -3.80632e-06)
(-0.000285452 -0.000211352 -7.5267e-05)
(-0.000400497 -0.000353718 -3.07264e-05)
(-0.000485367 -0.000449714 2.0912e-05)
(-0.000577039 -0.000522526 7.14716e-05)
(-0.000650531 -0.000560574 0.000112409)
(-0.000719303 -0.000587087 0.000146923)
(-0.000771129 -0.00059673 0.000173879)
(-0.000817072 -0.000600454 0.000194319)
(-0.000846327 -0.000593795 0.000204921)
(-0.000869617 -0.000588649 0.000209144)
(-0.000885852 -0.000586035 0.000207771)
(-0.000896968 -0.000587088 0.000202033)
(-0.000903637 -0.000589818 0.000192586)
(-0.000912537 -0.000596568 0.00018126)
(-0.000911436 -0.000598846 0.000166414)
(-0.000923863 -0.000609922 0.000152615)
(-0.000935522 -0.00062062 0.000137073)
(-0.000938037 -0.000626625 0.000119174)
(-0.00093487 -0.000630474 0.000100111)
(-0.000948668 -0.000643773 8.15718e-05)
(-0.000945009 -0.00064583 6.02828e-05)
(-0.00094408 -0.000648528 3.75812e-05)
(-0.00094244 -0.000649672 1.28469e-05)
(-0.000179682 -6.69314e-05 7.17203e-06)
(-0.000281034 -0.000179594 -7.46918e-05)
(-0.00040008 -0.000316575 -3.95378e-05)
(-0.000485155 -0.000413741 7.32077e-06)
(-0.000580173 -0.000491671 5.64196e-05)
(-0.000661705 -0.000538627 9.89213e-05)
(-0.000735644 -0.00056989 0.000135383)
(-0.000792289 -0.000582908 0.000164419)
(-0.000842482 -0.000588834 0.000186596)
(-0.000879343 -0.000586622 0.000199705)
(-0.000908548 -0.000584181 0.00020592)
(-0.000925854 -0.000580737 0.000205371)
(-0.000938019 -0.000580719 0.000200368)
(-0.000947023 -0.000583745 0.000191869)
(-0.000956107 -0.000590083 0.000180997)
(-0.000957271 -0.000594087 0.000167027)
(-0.000970542 -0.000605642 0.000153591)
(-0.000981036 -0.000615965 0.000138046)
(-0.000982496 -0.000622161 0.000120213)
(-0.000980815 -0.000627793 0.000101409)
(-0.000992294 -0.000639528 8.25423e-05)
(-0.000986232 -0.000640883 6.10061e-05)
(-0.000983735 -0.000643066 3.80497e-05)
(-0.000981215 -0.000644027 1.30137e-05)
(-0.000194573 -5.73668e-05 1.85141e-05)
(-0.000281328 -0.0001524 -7.45828e-05)
(-0.000392713 -0.000276328 -4.69588e-05)
(-0.000479876 -0.000375482 -6.11048e-06)
(-0.000578023 -0.000458502 4.07999e-05)
(-0.000663417 -0.000510619 8.3928e-05)
(-0.000745366 -0.000548332 0.000122433)
(-0.000808898 -0.000565788 0.000153732)
(-0.000865831 -0.000575326 0.000178155)
(-0.000902502 -0.00057226 0.000192169)
(-0.0009333 -0.000569914 0.000199596)
(-0.000956365 -0.000568851 0.000201092)
(-0.000973831 -0.000570733 0.000197897)
(-0.000985768 -0.000574575 0.000190599)
(-0.000994515 -0.000580351 0.000180233)
(-0.000996164 -0.000584794 0.000166896)
(-0.00100798 -0.000595351 0.000153567)
(-0.0010155 -0.000604241 0.000137925)
(-0.0010151 -0.000610064 0.000120228)
(-0.00101661 -0.000618135 0.000101998)
(-0.0010294 -0.000630599 8.32619e-05)
(-0.00102459 -0.000633619 6.17836e-05)
(-0.00102268 -0.00063669 3.86422e-05)
(-0.0010203 -0.000638133 1.3238e-05)
(-0.00019619 -4.38125e-05 2.8462e-05)
(-0.00027629 -0.000123871 -7.17458e-05)
(-0.000380718 -0.000235691 -5.29631e-05)
(-0.000464871 -0.000332146 -1.88299e-05)
(-0.000565621 -0.00041988 2.45961e-05)
(-0.000660228 -0.000481077 6.82194e-05)
(-0.000746316 -0.000521901 0.000107882)
(-0.000817385 -0.000543671 0.000141259)
(-0.000878194 -0.000554601 0.000167244)
(-0.000925118 -0.000557212 0.000184431)
(-0.000961857 -0.000557502 0.000194186)
(-0.000985502 -0.000555714 0.000196792)
(-0.00100354 -0.000556819 0.000194562)
(-0.00101689 -0.000560702 0.000188296)
(-0.00102517 -0.00056602 0.000178582)
(-0.00103012 -0.000572353 0.000166436)
(-0.00104201 -0.000582887 0.000153535)
(-0.0010491 -0.000591959 0.000138197)
(-0.00104868 -0.000598514 0.000120837)
(-0.00105173 -0.000607709 0.000102923)
(-0.0010606 -0.000617827 8.38612e-05)
(-0.00105273 -0.0006199 6.22313e-05)
(-0.00104845 -0.000622076 3.89263e-05)
(-0.00104477 -0.000623105 1.33402e-05)
(-0.00023338 -3.63139e-05 4.46859e-05)
(-0.000270276 -9.76182e-05 -6.74615e-05)
(-0.000362011 -0.000194042 -5.65955e-05)
(-0.000444577 -0.000287977 -3.03029e-05)
(-0.000545133 -0.000378408 8.45636e-06)
(-0.000642303 -0.000443772 5.1012e-05)
(-0.00073928 -0.000492318 9.20529e-05)
(-0.000816784 -0.00051712 0.000127062)
(-0.000886389 -0.000531988 0.000155405)
(-0.000932943 -0.000533493 0.000173715)
(-0.000973044 -0.000534925 0.000185417)
(-0.001004 -0.000536336 0.00019068)
(-0.00102745 -0.000539496 0.000190551)
(-0.00104321 -0.000544092 0.000185646)
(-0.00105106 -0.000549168 0.000176725)
(-0.00105607 -0.000555465 0.0001653)
(-0.00106542 -0.000564644 0.000152568)
(-0.00106966 -0.000572617 0.000137371)
(-0.00106702 -0.000578625 0.000120277)
(-0.00107145 -0.00058854 0.000102859)
(-0.00107967 -0.000598368 8.39595e-05)
(-0.00107324 -0.000602155 6.25936e-05)
(-0.00106925 -0.000605087 3.92655e-05)
(-0.00106565 -0.000606528 1.34812e-05)
(-0.000260784 -2.37296e-05 6.13143e-05)
(-0.000269579 -7.5935e-05 -6.34519e-05)
(-0.00033932 -0.000153755 -5.76111e-05)
(-0.000412694 -0.000239816 -3.9278e-05)
(-0.000513512 -0.000332654 -6.93183e-06)
(-0.000619286 -0.000406354 3.36186e-05)
(-0.00071843 -0.000456901 7.44606e-05)
(-0.000806408 -0.000487124 0.000111282)
(-0.000880695 -0.00050275 0.000141164)
(-0.00093972 -0.000509912 0.00016289)
(-0.000985592 -0.000513478 0.000177127)
(-0.00101632 -0.00051393 0.00018382)
(-0.00104005 -0.000516497 0.000185026)
(-0.00105656 -0.000521094 0.000181397)
(-0.00106389 -0.000526064 0.000173468)
(-0.0010722 -0.000533905 0.000163419)
(-0.00108097 -0.00054293 0.000151271)
(-0.00108526 -0.000551417 0.000136676)
(-0.00108317 -0.000558376 0.000120189)
(-0.00108812 -0.000568352 0.00010314)
(-0.0010914 -0.000575803 8.40355e-05)
(-0.00108081 -0.000578276 6.26337e-05)
(-0.00107353 -0.000580069 3.92805e-05)
(-0.00106806 -0.000580847 1.34887e-05)
(-0.000289612 -8.26071e-06 8.01028e-05)
(-0.000262685 -5.53695e-05 -5.74403e-05)
(-0.000312283 -0.000115657 -5.53534e-05)
(-0.000377199 -0.00019351 -4.5293e-05)
(-0.000471135 -0.000283694 -2.05742e-05)
(-0.000576496 -0.000359908 1.58647e-05)
(-0.000688488 -0.000419688 5.6127e-05)
(-0.000782456 -0.000452812 9.36397e-05)
(-0.000867199 -0.000472288 0.000125853)
(-0.000926754 -0.00047754 0.000148985)
(-0.000977557 -0.00048228 0.000165529)
(-0.00101693 -0.000486288 0.000175368)
(-0.00104601 -0.00049092 0.000179056)
(-0.00106442 -0.000496238 0.000177093)
(-0.00107172 -0.000501526 0.000170364)
(-0.00107855 -0.000508551 0.000161015)
(-0.00108406 -0.000516266 0.000149177)
(-0.00108527 -0.000523728 0.000134911)
(-0.00107997 -0.000529691 0.00011879)
(-0.00108341 -0.000538537 0.00010212)
(-0.00108419 -0.000545445 8.32825e-05)
(-0.0010749 -0.000549669 6.24006e-05)
(-0.0010674 -0.000552209 3.92486e-05)
(-0.0010617 -0.000553324 1.35035e-05)
(-0.000301221 9.7837e-06 9.53631e-05)
(-0.000263709 -3.90323e-05 -5.30239e-05)
(-0.000284224 -8.20903e-05 -5.02298e-05)
(-0.000330353 -0.000145945 -4.64471e-05)
(-0.000419449 -0.000233029 -3.13005e-05)
(-0.000529121 -0.000314736 -7.00687e-07)
(-0.000639946 -0.000375634 3.68916e-05)
(-0.000746088 -0.000415931 7.47753e-05)
(-0.00083754 -0.000437595 0.000108413)
(-0.000911414 -0.000447862 0.000135111)
(-0.000967638 -0.000453124 0.000154292)
(-0.00100579 -0.000454947 0.000165746)
(-0.00103472 -0.000458729 0.000171035)
(-0.00105334 -0.000464138 0.000170649)
(-0.00106012 -0.0004697 0.000165273)
(-0.00106925 -0.000477747 0.000157349)
(-0.00107379 -0.00048571 0.000146301)
(-0.00107484 -0.000493778 0.000132872)
(-0.00107007 -0.000500722 0.000117608)
(-0.00107218 -0.000509063 0.000101362)
(-0.00106793 -0.000514595 8.25942e-05)
(-0.00105293 -0.000517136 6.18375e-05)
(-0.00104109 -0.000518439 3.88656e-05)
(-0.00103288 -0.000518758 1.33702e-05)
(-0.000302626 2.79632e-05 0.000107378)
(-0.000256371 -2.38468e-05 -4.7166e-05)
(-0.000252469 -5.33354e-05 -4.20656e-05)
(-0.000283874 -0.0001037 -4.34344e-05)
(-0.000355873 -0.000180049 -3.75955e-05)
(-0.000459809 -0.000260884 -1.49874e-05)
(-0.000582664 -0.000331057 1.84175e-05)
(-0.0006936 -0.000374965 5.49691e-05)
(-0.000794974 -0.000401408 8.98148e-05)
(-0.000870932 -0.00041115 0.000118161)
(-0.000934175 -0.00041755 0.00014016)
(-0.000982262 -0.000422372 0.000155084)
(-0.00101622 -0.00042739 0.000163037)
(-0.00103599 -0.000433087 0.000164518)
(-0.0010428 -0.000439112 0.000160632)
(-0.00104835 -0.000446033 0.000153307)
(-0.00104905 -0.000453083 0.000142746)
(-0.00104615 -0.000460047 0.000129789)
(-0.00103652 -0.000465449 0.000114945)
(-0.00103382 -0.000471889 9.9041e-05)
(-0.00102533 -0.000476628 8.07035e-05)
(-0.00101103 -0.000480604 6.07606e-05)
(-0.000998522 -0.000482592 3.82963e-05)
(-0.000989593 -0.000483136 1.31966e-05)
(-0.000294029 4.40321e-05 0.000114066)
(-0.00025489 -1.16981e-05 -4.28076e-05)
(-0.000226813 -3.19597e-05 -3.30638e-05)
(-0.000230508 -6.50138e-05 -3.50736e-05)
(-0.000290173 -0.000130506 -3.90194e-05)
(-0.000388041 -0.000209878 -2.59068e-05)
(-0.000504421 -0.00027918 1.32283e-06)
(-0.000626554 -0.000331002 3.53997e-05)
(-0.00073664 -0.000362436 7.04859e-05)
(-0.00082663 -0.00037836 0.000101694)
(-0.000894246 -0.000385243 0.000126233)
(-0.00093997 -0.000387544 0.000142819)
(-0.000973275 -0.000391398 0.000152568)
(-0.000992971 -0.000396849 0.000155835)
(-0.000999065 -0.000402866 0.000153431)
(-0.00100538 -0.000410716 0.000147514)
(-0.00100469 -0.000417864 0.000137904)
(-0.00100081 -0.000424997 0.00012591)
(-0.000991327 -0.00043119 0.000112165)
(-0.000985211 -0.000436779 9.67727e-05)
(-0.000972273 -0.000440861 7.88343e-05)
(-0.000950542 -0.000442548 5.92291e-05)
(-0.000932454 -0.000442962 3.72515e-05)
(-0.000920294 -0.00044249 1.28244e-05)
(-0.000286839 5.77973e-05 0.000117869)
(-0.000246456 -1.68522e-06 -3.78927e-05)
(-0.000188026 -1.52694e-05 -2.16105e-05)
(-0.00018006 -3.45636e-05 -2.37483e-05)
(-0.000213315 -8.16164e-05 -3.341e-05)
(-0.000298457 -0.000153372 -3.09427e-05)
(-0.000420619 -0.000228313 -1.26595e-05)
(-0.000545115 -0.000283844 1.7211e-05)
(-0.000661075 -0.000319858 5.13587e-05)
(-0.000753639 -0.000337916 8.33671e-05)
(-0.000829571 -0.000348574 0.000110422)
(-0.000885886 -0.000354876 0.000130384)
(-0.000923325 -0.000359853 0.000142661)
(-0.00094296 -0.000365142 0.000147726)
(-0.000948588 -0.000371226 0.000146829)
(-0.0009494 -0.000377508 0.00014135)
(-0.000944203 -0.00038339 0.00013225)
(-0.000934944 -0.000388829 0.000120723)
(-0.000918419 -0.000392521 0.000107413)
(-0.000904157 -0.000395368 9.23163e-05)
(-0.000885411 -0.000397777 7.49989e-05)
(-0.0008637 -0.000400139 5.66508e-05)
(-0.00084491 -0.000400959 3.57186e-05)
(-0.000831958 -0.000400484 1.23126e-05)
(-0.000279694 6.79343e-05 0.000116256)
(-0.000242272 5.74175e-06 -3.42609e-05)
(-0.000167389 -5.42072e-06 -1.2449e-05)
(-0.000130049 -1.21115e-05 -1.10516e-05)
(-0.00014988 -4.37358e-05 -2.48191e-05)
(-0.000211609 -0.000102152 -3.07101e-05)
(-0.000319463 -0.000171396 -2.17587e-05)
(-0.000449149 -0.000232736 2.02693e-06)
(-0.000575235 -0.000276352 3.44102e-05)
(-0.000677824 -0.000301001 6.72882e-05)
(-0.000753874 -0.000313061 9.53543e-05)
(-0.000805081 -0.000318197 0.000115969)
(-0.000840961 -0.000323042 0.000129533)
(-0.000860175 -0.000328429 0.000136154)
(-0.000864335 -0.000334123 0.000136558)
(-0.000864424 -0.000340634 0.000132274)
(-0.00085732 -0.000345972 0.000124125)
(-0.00084621 -0.000350869 0.000113659)
(-0.000830163 -0.000354844 0.000101814)
(-0.000811531 -0.000356676 8.74366e-05)
(-0.000790154 -0.000358359 7.09804e-05)
(-0.000760239 -0.000357303 5.33618e-05)
(-0.000735189 -0.000355534 3.3466e-05)
(-0.00071833 -0.000353305 1.14964e-05)
(-0.000274713 7.42303e-05 0.000109395)
(-0.000234714 1.11432e-05 -3.07663e-05)
(-0.000125517 6.84337e-07 -3.71127e-06)
(-6.99032e-05 6.98107e-07 -4.67415e-07)
(-6.46809e-05 -1.01936e-05 -9.06924e-06)
(-0.000122092 -5.26786e-05 -2.3374e-05)
(-0.000221013 -0.000117677 -2.55228e-05)
(-0.000348232 -0.000181126 -8.13108e-06)
(-0.000469731 -0.000226531 2.07651e-05)
(-0.000573709 -0.000255608 5.22374e-05)
(-0.000657746 -0.00027403 8.0719e-05)
(-0.000718235 -0.000284911 0.000102986)
(-0.000755512 -0.000291495 0.000117726)
(-0.000772541 -0.000296676 0.000125279)
(-0.000775104 -0.000302075 0.000126729)
(-0.000768797 -0.000306635 0.00012256)
(-0.000756861 -0.000310048 0.000114804)
(-0.000739374 -0.000312276 0.000104755)
(-0.000714142 -0.000312017 9.32719e-05)
(-0.000685598 -0.000310083 7.92285e-05)
(-0.000656898 -0.000307977 6.36132e-05)
(-0.000626957 -0.000306338 4.79711e-05)
(-0.0006021 -0.000304315 3.01019e-05)
(-0.000585719 -0.000302056 1.03489e-05)
(-0.000265639 7.54436e-05 9.5295e-05)
(-0.00022562 1.4991e-05 -2.81878e-05)
(-0.000106102 3.76221e-06 1.33709e-06)
(-5.83609e-05 7.02445e-06 5.97679e-06)
(-3.76034e-05 2.89582e-06 -9.75392e-07)
(-3.28509e-05 -1.0141e-05 -7.7407e-06)
(-0.000121528 -6.23709e-05 -2.07994e-05)
(-0.000237945 -0.000124774 -1.0885e-05)
(-0.000367659 -0.00017984 1.40731e-05)
(-0.000470553 -0.000213646 4.25001e-05)
(-0.00054645 -0.000232905 6.79784e-05)
(-0.000597475 -0.000243161 8.76662e-05)
(-0.000632346 -0.000250842 0.00010167)
(-0.000648361 -0.00025657 0.000109488)
(-0.000648115 -0.000261121 0.000111323)
(-0.000640092 -0.000265199 0.000107828)
(-0.000625659 -0.000267094 0.000100815)
(-0.00060615 -0.000267842 9.19238e-05)
(-0.00058368 -0.000267835 8.25171e-05)
(-0.000552801 -0.00026491 6.97007e-05)
(-0.000525288 -0.000262083 5.57376e-05)
(-0.000489066 -0.000256187 4.15692e-05)
(-0.000458865 -0.000250445 2.57263e-05)
(-0.000438311 -0.000245254 8.74327e-06)
(-0.000243728 7.1707e-05 7.50804e-05)
(-0.000214734 1.8454e-05 -2.67404e-05)
(-0.000101501 6.71569e-06 3.95568e-06)
(-5.08725e-05 1.28911e-05 1.10062e-05)
(-1.87874e-05 1.30701e-05 2.57071e-06)
(-1.29766e-05 6.12314e-06 -4.83797e-06)
(-3.72176e-05 -1.4723e-05 -7.4667e-06)
(-0.00014598 -7.49893e-05 -4.07366e-06)
(-0.000245819 -0.000124237 1.53177e-05)
(-0.000345422 -0.000163892 3.77248e-05)
(-0.000426848 -0.000191116 5.8715e-05)
(-0.000484221 -0.000207796 7.59453e-05)
(-0.000515948 -0.000216472 8.77893e-05)
(-0.000527431 -0.00022141 9.44069e-05)
(-0.000524581 -0.000225152 9.6044e-05)
(-0.000511154 -0.000226944 9.21332e-05)
(-0.000493166 -0.000226466 8.53747e-05)
(-0.000468436 -0.000223797 7.69189e-05)
(-0.000435074 -0.00021722 6.75283e-05)
(-0.000395706 -0.000209102 5.52656e-05)
(-0.000359636 -0.000199343 4.24202e-05)
(-0.000324717 -0.000191356 3.12608e-05)
(-0.000297162 -0.000184751 1.91444e-05)
(-0.000280605 -0.000180114 6.49428e-06)
(-0.000211646 6.56355e-05 5.56888e-05)
(-0.000203874 2.21666e-05 -2.6769e-05)
(-0.000105646 1.00479e-05 4.39144e-06)
(-4.4592e-05 1.5565e-05 1.16417e-05)
(-1.12858e-05 1.6925e-05 2.39927e-06)
(-7.02267e-06 1.05674e-05 3.21301e-06)
(-1.72583e-05 -1.2342e-06 5.82932e-06)
(-5.57709e-05 -2.60753e-05 1.23621e-05)
(-0.000152709 -8.2208e-05 2.85391e-05)
(-0.000227568 -0.000118901 4.03504e-05)
(-0.000288047 -0.000142552 5.07607e-05)
(-0.000331464 -0.000157092 5.98069e-05)
(-0.000362186 -0.000167618 6.76047e-05)
(-0.000373014 -0.000173027 7.20541e-05)
(-0.000366782 -0.000174914 7.23026e-05)
(-0.000351593 -0.000174949 6.81599e-05)
(-0.000331094 -0.00017156 6.17493e-05)
(-0.000305878 -0.000166431 5.45808e-05)
(-0.000281537 -0.000161525 4.82805e-05)
(-0.000245972 -0.000152805 3.82675e-05)
(-0.000218614 -0.000143991 2.87118e-05)
(-0.000184066 -0.000132128 2.02674e-05)
(-0.000155078 -0.000120835 1.17377e-05)
(-0.000135277 -0.000111384 3.74271e-06)
(-0.000161115 5.19769e-05 3.63788e-05)
(-0.000192223 2.47314e-05 -2.84002e-05)
(-9.65617e-05 1.06893e-05 3.4519e-06)
(-4.00054e-05 1.60107e-05 1.28385e-05)
(-1.20603e-05 1.49626e-05 1.11107e-05)
(-4.14724e-06 9.1677e-06 2.05645e-05)
(-3.98833e-06 1.65332e-06 3.11978e-05)
(-1.11757e-05 -9.4314e-06 2.83824e-05)
(-3.55257e-05 -2.81136e-05 3.27309e-05)
(-0.000100336 -6.85086e-05 4.40389e-05)
(-0.000165453 -0.000100196 4.73873e-05)
(-0.000211774 -0.000119462 4.94056e-05)
(-0.000234285 -0.000127557 5.03364e-05)
(-0.000239396 -0.000130319 5.04461e-05)
(-0.000231741 -0.000130619 4.86797e-05)
(-0.000214749 -0.000128102 4.36817e-05)
(-0.000195647 -0.000122893 3.79081e-05)
(-0.000170392 -0.000114615 3.16511e-05)
(-0.000135168 -9.87861e-05 2.45276e-05)
(-9.74526e-05 -8.25075e-05 1.60253e-05)
(-6.27041e-05 -5.94423e-05 8.45098e-06)
(-3.43354e-05 -4.08368e-05 3.547e-06)
(-1.58624e-05 -2.58103e-05 8.24552e-07)
(-9.11031e-06 -2.11771e-05 -7.93935e-09)
(-7.87928e-05 3.06586e-05 1.89744e-05)
(-0.000162949 2.56308e-05 -3.25103e-05)
(-0.000100592 1.31085e-05 -3.44678e-06)
(-5.32307e-05 2.1881e-05 1.19148e-05)
(-2.35655e-05 2.53119e-05 1.61592e-05)
(-6.56639e-06 2.94012e-05 2.72969e-05)
(1.57442e-05 2.12677e-05 3.61884e-05)
(2.45562e-05 8.68927e-06 3.95295e-05)
(1.81328e-05 -5.42826e-06 3.94648e-05)
(-4.00975e-07 -1.70514e-05 3.02422e-05)
(-1.75805e-05 -2.27626e-05 1.86542e-05)
(-4.86795e-05 -4.2992e-05 2.1315e-05)
(-7.82662e-05 -5.99605e-05 2.1548e-05)
(-8.76558e-05 -6.47913e-05 1.90581e-05)
(-7.9044e-05 -6.11659e-05 1.47384e-05)
(-6.33703e-05 -5.44445e-05 9.43045e-06)
(-4.3318e-05 -4.17009e-05 4.35756e-06)
(-2.21418e-05 -2.57225e-05 2.41577e-07)
(-1.24207e-05 -2.11746e-05 -2.99848e-06)
(3.43375e-07 -9.85531e-06 -6.04034e-06)
(5.90868e-06 -4.59199e-06 -8.36929e-06)
(1.1529e-05 1.79783e-06 -9.80113e-06)
(2.15927e-05 9.77406e-06 -1.14358e-05)
(1.66566e-05 9.79609e-06 -3.09551e-06)
(-1.7414e-05 1.86406e-05 1.81712e-05)
(-0.000101068 2.52683e-05 -3.32125e-05)
(-0.000101764 1.67686e-05 -1.84345e-05)
(-7.46296e-05 2.48733e-05 -4.84192e-07)
(-6.02429e-05 4.767e-05 1.0736e-05)
(-3.00766e-05 6.29802e-05 1.25062e-05)
(2.95175e-06 6.49817e-05 9.43353e-06)
(2.24938e-05 3.46473e-05 3.92854e-06)
(3.56285e-05 1.84438e-05 1.19088e-05)
(2.54318e-05 7.12847e-06 1.5013e-05)
(1.84579e-05 1.24366e-06 1.25872e-05)
(8.63701e-06 -5.41935e-06 6.7729e-06)
(1.12736e-06 -9.33912e-06 6.54201e-07)
(-2.23293e-06 -1.50256e-05 -7.09473e-06)
(3.96627e-07 -8.10722e-06 -9.6982e-06)
(6.47394e-06 -6.61133e-06 -2.09959e-05)
(1.16918e-05 -1.91601e-06 -2.65344e-05)
(1.28488e-05 2.71213e-06 -2.35805e-05)
(1.59602e-05 7.24546e-06 -2.5505e-05)
(1.93905e-05 1.21582e-05 -2.66118e-05)
(2.63677e-05 1.86785e-05 -3.00807e-05)
(2.14551e-05 1.58493e-05 -1.82951e-05)
(2.20303e-05 1.62541e-05 -1.17902e-05)
(2.22818e-05 1.62126e-05 -3.99725e-06)
(3.1647e-07 2.13244e-05 3.24738e-05)
(-4.68532e-05 2.81906e-05 -2.6216e-05)
(-7.2125e-05 1.87894e-05 -2.64866e-05)
(-7.30677e-05 2.17087e-05 -1.53161e-05)
(-7.69566e-05 4.29422e-05 -1.10055e-05)
(-5.66926e-05 6.78405e-05 -1.5095e-05)
(-1.92976e-05 7.69169e-05 -2.61232e-05)
(1.78477e-05 5.55959e-05 -3.32509e-05)
(2.88102e-05 2.16081e-05 -1.62184e-05)
(2.41209e-05 1.05974e-05 4.34687e-08)
(3.70545e-05 1.66853e-05 5.16994e-06)
(2.54673e-05 1.09419e-05 6.56819e-07)
(2.31683e-05 9.79654e-06 -5.64495e-06)
(2.58401e-05 1.16516e-05 -1.64671e-05)
(2.17682e-05 1.10833e-05 -2.21276e-05)
(3.02974e-05 1.6972e-05 -3.84412e-05)
(2.18829e-05 1.29943e-05 -3.10051e-05)
(3.11737e-05 1.89534e-05 -4.5111e-05)
(2.50635e-05 1.5061e-05 -3.52726e-05)
(2.35796e-05 1.35085e-05 -3.00036e-05)
(2.8162e-05 1.43119e-05 -3.09686e-05)
(3.5406e-05 1.51164e-05 -3.01536e-05)
(3.87258e-05 1.35351e-05 -2.09548e-05)
(4.06973e-05 1.19699e-05 -7.41706e-06)
(1.17187e-06 2.25763e-05 3.99271e-05)
(-2.16017e-05 3.38363e-05 -1.49698e-05)
(-4.96269e-05 2.50544e-05 -2.64582e-05)
(-5.62767e-05 1.96645e-05 -2.02955e-05)
(-6.82586e-05 3.1006e-05 -2.21674e-05)
(-6.46286e-05 4.95132e-05 -3.23935e-05)
(-3.7499e-05 5.50286e-05 -4.78499e-05)
(-2.92366e-06 3.33928e-05 -5.00522e-05)
(2.08786e-05 7.97836e-06 -2.90237e-05)
(3.81084e-05 3.50655e-06 -9.21958e-06)
(5.1472e-05 9.74475e-06 -1.62301e-06)
(5.51485e-05 1.43179e-05 -5.09012e-06)
(5.20361e-05 1.58213e-05 -1.41169e-05)
(4.70074e-05 1.56222e-05 -2.50662e-05)
(4.37392e-05 1.51303e-05 -3.60462e-05)
(4.34884e-05 1.50125e-05 -4.6768e-05)
(4.29126e-05 1.42221e-05 -5.42751e-05)
(4.43436e-05 1.3126e-05 -6.05625e-05)
(4.57358e-05 1.0533e-05 -6.35312e-05)
(4.78731e-05 6.64791e-06 -6.3111e-05)
(4.83895e-05 1.3041e-06 -5.48301e-05)
(4.92996e-05 -3.24544e-06 -4.29243e-05)
(4.96445e-05 -6.81183e-06 -2.69344e-05)
(4.98772e-05 -8.72404e-06 -8.85848e-06)
(-2.19533e-06 1.93437e-05 3.42237e-05)
(-1.74793e-05 3.47657e-05 -5.77999e-06)
(-3.72964e-05 3.11065e-05 -2.01602e-05)
(-5.27333e-05 2.45311e-05 -2.25498e-05)
(-6.18642e-05 2.55049e-05 -2.53778e-05)
(-6.17294e-05 3.00414e-05 -3.54372e-05)
(-4.36752e-05 2.40414e-05 -4.66648e-05)
(-1.50014e-05 4.04894e-06 -4.26675e-05)
(1.37234e-05 -1.18978e-05 -2.65019e-05)
(4.0457e-05 -1.35355e-05 -1.14523e-05)
(6.12286e-05 -6.45743e-06 -6.35348e-06)
(7.13286e-05 -2.49408e-07 -1.14387e-05)
(7.28405e-05 2.81012e-06 -2.26089e-05)
(6.99501e-05 2.9366e-06 -3.69226e-05)
(6.57088e-05 1.20056e-06 -5.10756e-05)
(6.19671e-05 -8.65853e-07 -6.2567e-05)
(5.92962e-05 -3.35721e-06 -7.12815e-05)
(5.74305e-05 -6.41211e-06 -7.58855e-05)
(5.61509e-05 -1.04426e-05 -7.63679e-05)
(5.48857e-05 -1.53368e-05 -7.11734e-05)
(5.57346e-05 -1.95413e-05 -6.14596e-05)
(5.58105e-05 -2.21246e-05 -4.73563e-05)
(5.53723e-05 -2.27093e-05 -2.89998e-05)
(5.473e-05 -2.22449e-05 -9.31459e-06)
(-3.74912e-06 1.42242e-05 2.414e-05)
(-1.9046e-05 2.92805e-05 -2.37269e-06)
(-3.27041e-05 3.01385e-05 -1.43473e-05)
(-4.54245e-05 2.4441e-05 -1.9503e-05)
(-5.31398e-05 1.90866e-05 -2.3446e-05)
(-5.19114e-05 1.33253e-05 -2.96931e-05)
(-3.77166e-05 2.34487e-06 -3.408e-05)
(-1.34331e-05 -1.23874e-05 -3.00007e-05)
(1.49853e-05 -2.20076e-05 -2.07664e-05)
(4.29341e-05 -2.22087e-05 -1.20041e-05)
(6.55232e-05 -1.64915e-05 -1.04161e-05)
(7.81254e-05 -1.21031e-05 -1.71542e-05)
(8.23688e-05 -1.10413e-05 -2.92869e-05)
(8.13679e-05 -1.2863e-05 -4.43194e-05)
(7.74727e-05 -1.60854e-05 -5.88579e-05)
(7.25705e-05 -1.88454e-05 -7.02752e-05)
(6.85685e-05 -2.12403e-05 -7.86021e-05)
(6.52369e-05 -2.37624e-05 -8.27794e-05)
(6.23325e-05 -2.60681e-05 -8.22609e-05)
(5.94239e-05 -2.8651e-05 -7.51725e-05)
(5.86833e-05 -2.85485e-05 -6.29066e-05)
(5.63873e-05 -2.71465e-05 -4.66176e-05)
(5.27319e-05 -2.38564e-05 -2.70706e-05)
(4.96789e-05 -2.12054e-05 -8.30237e-06)
(-2.19065e-06 9.46961e-06 1.62171e-05)
(-1.62725e-05 2.12267e-05 -2.30069e-06)
(-2.85222e-05 2.45548e-05 -1.22321e-05)
(-3.77103e-05 2.08186e-05 -1.73704e-05)
(-4.1912e-05 1.37353e-05 -2.04898e-05)
(-3.85913e-05 5.51169e-06 -2.34251e-05)
(-2.5741e-05 -4.5465e-06 -2.51462e-05)
(-4.98347e-06 -1.47978e-05 -2.35445e-05)
(1.88131e-05 -2.03794e-05 -1.89547e-05)
(4.11261e-05 -1.97252e-05 -1.43118e-05)
(5.73216e-05 -1.59477e-05 -1.44878e-05)
(6.54742e-05 -1.35458e-05 -1.98163e-05)
(7.1404e-05 -1.43399e-05 -3.0041e-05)