/*--------------------------------*- C++ -*----------------------------------*\
  =========                 |
  \\      /  F ield         | OpenFOAM: The Open Source CFD Toolbox
   \\    /   O peration     | Website:  https://openfoam.org
    \\  /    A nd           | Version:  6
     \\/     M anipulation  |
\*---------------------------------------------------------------------------*/
FoamFile
{
    version     2.0;
    format      ascii;
    class       volScalarField;
    location    "1.2";
    object      yPlus;
}
// * * * * * * * * * * * * * * * * * * * * * * * * * * * * * * * * * * * * * //

dimensions      [0 0 0 0 0 0 0];

internalField   uniform 0;

boundaryField
{
    inlet
    {
        type            calculated;
        value           uniform 0;
    }
    outlet
    {
        type            calculated;
        value           uniform 0;
    }
    roughCylinder
    {
        type            calculated;
        value           nonuniform List<scalar> 
5120
(
46.9503
54.5533
60.547
66.3319
71.2622
75.2381
78.4304
81.04
83.2349
85.1483
86.8678
88.4379
89.8947
91.2674
92.5834
93.8696
95.1525
96.4554
97.7966
99.1885
100.638
102.147
103.713
105.333
107.001
108.706
110.434
112.166
113.861
115.443
116.751
117.532
46.4301
53.7742
59.5856
65.2345
70.0845
74.0145
77.1782
79.7691
81.9559
83.8656
85.5782
87.1314
88.5669
89.9147
91.2027
92.459
93.7105
94.981
96.2892
97.6475
99.0626
100.536
102.067
103.652
105.283
106.951
108.643
110.339
111.998
113.546
114.827
115.592
45.8557
52.9777
58.6226
64.1393
68.9097
72.796
75.9367
78.5177
80.7049
82.6156
84.3216
85.8595
87.275
88.5986
89.8594
91.0864
92.3073
93.5462
94.822
96.1472
97.5284
98.9683
100.465
102.014
103.608
105.241
106.897
108.557
110.181
111.698
112.952
113.7
45.253
52.1759
57.6635
63.0519
67.7457
71.593
74.7174
77.2972
79.4911
81.4059
83.1066
84.6322
86.0277
87.3282
88.5628
89.7614
90.9524
92.1604
93.4045
94.6974
96.0458
97.452
98.9138
100.428
101.988
103.585
105.207
106.832
108.422
109.907
111.136
111.868
44.6359
51.376
56.7126
61.9753
66.5956
70.4092
73.5236
76.1087
78.3134
80.2344
81.9324
83.4491
84.8264
86.1045
87.3137
88.4849
89.647
90.8252
92.0386
93.3001
94.6167
95.9902
97.419
98.8995
100.426
101.988
103.576
105.167
106.724
108.179
109.382
110.099
44.0151
50.5847
55.774
60.9131
65.4631
69.2478
72.3578
74.9527
77.1703
79.0993
80.7972
82.3069
83.6685
84.9264
86.112
87.257
88.3916
89.541
90.7248
91.956
93.2414
94.5829
95.9798
97.4278
98.9209
100.45
102.004
103.562
105.088
106.513
107.692
108.395
43.3979
49.8067
54.8508
59.867
64.3489
68.1096
71.22
73.8279
76.0602
77.999
79.6994
81.2051
82.5561
83.7951
84.9579
86.078
87.186
88.3079
89.4633
90.6653
91.9209
93.2321
94.5981
96.0141
97.4754
98.9726
100.494
102.021
103.515
104.912
106.067
106.756
42.7902
49.0453
53.9443
58.8368
63.2522
66.9929
70.1082
72.7321
74.9807
76.9315
78.6375
80.1424
81.4863
82.7088
83.8518
84.949
86.0322
87.1278
88.2561
89.4301
90.6567
91.9384
93.2737
94.659
96.0892
97.5553
99.0458
100.541
102.006
103.376
104.509
105.184
42.1937
48.3007
53.0535
57.8202
62.1695
65.8936
69.018
71.6609
73.9284
75.8942
77.6091
79.1169
80.4572
81.6686
82.7933
83.8691
84.9287
85.9998
87.1022
88.2492
89.4482
90.7014
92.0077
93.3639
94.7637
96.1997
97.6602
99.1259
100.562
101.906
103.017
103.68
41.6103
47.573
52.1773
56.8141
61.0957
64.8061
67.9442
70.6104
72.8999
74.8839
76.6118
78.1263
79.4666
80.671
81.7811
82.8384
83.8772
84.9249
86.0027
87.1241
88.296
89.5211
90.799
92.1262
93.4966
94.9033
96.3344
97.7719
99.1805
100.499
101.59
102.24
41.0379
46.8592
51.3121
55.8137
60.0245
63.723
66.8797
69.5736
71.8901
73.897
75.642
77.1676
78.5119
79.7133
80.8134
81.8547
82.8739
83.9003
84.9549
86.0515
87.1978
88.3965
89.6465
90.9454
92.2878
93.6654
95.0678
96.4772
97.8593
99.154
100.225
100.864
40.4752
46.1578
50.4545
54.8133
58.9478
62.6352
65.8159
68.544
70.8941
72.9291
74.6963
76.2373
77.5898
78.7921
79.8863
80.916
81.9192
82.926
83.9586
85.0316
86.152
87.3235
88.5459
89.8163
91.13
92.4801
93.8536
95.2359
96.5921
97.8641
98.9163
99.5441
39.9186
45.4622
49.5995
53.8063
57.8564
61.5316
64.742
67.5123
69.9037
71.9737
73.7692
75.3309
76.6965
77.9041
78.996
80.0168
81.0067
81.996
83.0082
84.0579
85.1532
86.2979
87.4921
88.7341
90.0198
91.341
92.6878
94.0429
95.3737
96.6241
97.6587
98.2761
39.3533
44.764
48.7394
52.7845
56.7391
60.3987
63.6445
66.4672
68.9104
71.0244
72.8551
74.4433
75.8267
77.0441
78.138
79.1538
80.1327
81.1057
82.0982
83.1257
84.1957
85.3135
86.4804
87.6944
88.9512
90.2448
91.5637
92.893
94.2
95.4296
96.447
97.0547
38.7746
44.0584
47.8672
51.7387
55.5837
59.2211
62.5073
65.3941
67.9013
70.0703
71.9453
73.5675
74.9754
76.2078
77.3079
78.3214
79.2915
80.2506
81.2247
82.2297
83.2753
84.3666
85.5052
86.6902
87.9193
89.185
90.4781
91.7818
93.0644
94.2739
95.2755
95.8748
38.1753
43.3366
46.974
50.658
54.3744
57.978
61.3079
64.273
66.861
69.1002
71.031
72.6953
74.1335
75.3862
76.4975
77.5137
78.478
79.4242
80.3805
81.3645
82.3852
83.449
84.5599
85.7166
86.9167
88.1545
89.4204
90.6999
91.9599
93.1507
94.1373
94.7284
37.5445
42.5865
46.0482
49.5299
53.095
56.6479
60.0219
63.0803
65.7686
68.0956
70.0972
71.8162
73.2948
74.5756
75.703
76.7242
77.685
78.6211
79.5608
80.5224
81.5182
82.5554
83.637
84.7643
85.9357
87.1458
88.3863
89.6414
90.8779
92.0501
93.0228
93.6075
36.8659
41.7919
45.0747
48.3373
51.7221
55.1982
58.6099
61.7781
64.5948
67.0364
69.1292
70.9158
72.4436
73.7584
74.9082
75.9416
76.9031
77.83
78.7537
79.6951
80.6658
81.6734
82.7258
83.8233
84.9655
86.1467
87.36
88.5906
89.8063
90.9621
91.9211
92.4994
36.1177
40.9299
44.0317
47.0589
50.231
53.5969
57.0348
60.3288
63.3028
65.8894
68.0991
69.977
71.5715
72.9341
74.1139
75.1607
76.1244
77.0448
77.9532
78.8713
79.8145
80.7944
81.8155
82.8816
83.9931
85.1467
86.3342
87.5414
88.7339
89.8724
90.8188
91.3943
35.2721
39.9726
42.8929
45.6667
48.5843
51.7903
55.2243
58.655
61.8327
64.6154
66.9836
68.9754
70.6517
72.0699
73.2875
74.3593
75.3321
76.2475
77.1412
78.0381
78.9557
79.9017
80.8901
81.923
83.0038
84.1255
85.2849
86.4676
87.6401
88.7641
89.7004
90.2715
34.2859
38.8805
41.6176
44.1219
46.7407
49.7241
53.1165
56.6943
60.1145
63.1488
65.7241
67.8775
69.6696
71.1698
72.4397
73.5367
74.5182
75.4298
76.3075
77.1789
78.062
78.9775
79.9304
80.929
81.975
83.0682
84.2009
85.3613
86.5088
87.6189
88.5432
89.1165
33.1058
37.6063
40.1625
42.3782
44.6415
47.3128
50.5768
54.2814
58.0228
61.4055
64.2791
66.6425
68.5805
70.1766
71.51
72.6505
73.6522
74.564
75.4274
76.2729
77.1291
78.0028
78.9167
79.8747
80.8872
81.943
83.045
84.1796
85.3087
86.4048
87.3231
87.895
31.6541
36.0798
38.4648
40.3828
42.2372
44.4922
47.5146
51.2918
55.3872
59.24
62.515
65.1951
67.3512
69.0956
70.5219
71.7075
72.7261
73.6338
74.4765
75.2922
76.0997
76.9358
77.8058
78.7248
79.6953
80.7206
81.7949
82.9078
84.0083
85.0953
86.0022
86.5857
29.8138
34.1971
36.4226
38.0284
39.3986
41.0855
43.698
47.4846
51.9794
56.4522
60.3445
63.456
65.9048
67.831
69.3701
70.6297
71.6845
72.6001
73.4268
74.2029
74.9791
75.7593
76.5799
77.444
78.3744
79.3538
80.3918
81.4761
82.5602
83.6342
84.544
85.1288
27.3919
31.7887
33.8832
35.1808
35.9983
36.9191
38.796
42.283
47.3306
52.6957
57.4319
61.2463
64.1555
66.3758
68.0903
69.4329
70.5162
71.4187
72.2098
72.9483
73.6492
74.3758
75.1349
75.9509
76.8294
77.7718
78.7815
79.8476
80.8944
81.9711
82.8667
83.4852
24.0304
28.5746
30.6086
31.6306
31.8234
31.6973
32.5331
35.918
41.094
47.5179
53.5961
58.3874
61.9585
64.5678
66.4987
67.9708
69.1153
70.0397
70.8084
71.4726
72.1283
72.7743
73.4638
74.2003
75.0215
75.9067
76.8709
77.9022
78.9398
80.0042
80.928
81.5496
18.9238
23.9403
26.1044
26.9991
26.5702
25.1241
23.3491
21.3159
30.8832
40.1339
48.0205
54.4455
59.0949
62.3474
64.6393
66.2661
67.4566
68.3338
69.0267
69.6355
70.1619
70.7174
71.3125
71.9779
72.7367
73.5692
74.5069
75.5368
76.5171
77.6138
78.5119
79.2201
10.6159
16.567
19.2868
20.5181
20.1502
16.0465
15.726
22.5863
14.6251
26.7633
40.3956
49.1782
55.3217
59.4486
62.1757
64.0382
65.3194
66.2439
66.8895
67.3355
67.7793
68.2054
68.6813
69.2236
69.8808
70.6433
71.5252
72.507
73.5003
74.5934
75.5976
76.3134
8.70987
7.05205
7.50975
6.22727
18.4974
12.4096
21.3573
18.4783
14.4351
15.7669
25.0216
40.996
50.2012
55.7159
59.1529
61.2842
62.6245
63.3792
63.834
64.1733
64.3535
64.6105
64.9223
65.3379
65.9221
66.6053
67.4762
68.526
69.41
70.6236
71.5633
72.497
8.7949
12.9475
14.4213
15.3714
14.1099
12.0212
19.3042
23.4544
23.3144
27.7284
29.7516
30.9488
43.6502
50.9273
55.0772
57.5481
58.9322
59.7688
60.0733
59.9934
60.0209
60.0634
60.1564
60.3805
60.7527
61.3823
62.194
63.1442
64.1205
65.3583
66.6488
67.5889
7.2188
14.3542
16.9443
19.1184
19.9767
18.935
17.0989
19.0318
14.256
26.7218
29.8826
25.6884
35.0393
44.4022
49.6902
52.4345
53.8516
54.0014
53.7395
53.3974
52.7369
52.5241
52.4353
52.1637
52.5331
53.2441
53.9914
55.4764
56.1364
57.9009
58.8188
60.3242
15.7003
21.7576
24.8302
27.1202
28.6558
29.3272
28.7407
27.6146
26.5096
26.4109
31.3412
21.9225
25.4411
37.6538
43.1756
45.9639
46.6992
47.3539
46.2061
44.4073
43.5887
43.4786
41.3191
42.3813
41.5736
41.327
43.8684
44.573
45.7904
47.1511
49.9532
52.0056
20.8025
26.5122
29.6115
32.0346
33.5428
34.0937
33.7285
32.3928
29.55
22.087
24.7555
25.3259
27.466
22.417
27.6661
31.4405
33.5095
27.661
24.6098
19.2882
15.8269
14.7442
33.5017
3.45808
35.6748
33.9332
15.0584
23.5581
22.4692
37.163
33.3525
32.0569
23.677
29.4944
32.7983
35.4656
37.2453
37.9513
37.3629
35.2346
31.5456
26.8407
21.5844
22.2906
19.1548
13.7932
22.516
20.7373
11.5943
21.6262
31.7189
30.273
36.0548
26.1373
40.601
19.1458
23.1054
42.1928
22.3694
32.6031
31.8281
46.1143
18.9775
27.333
24.9466
30.9133
34.3639
37.1813
39.1539
40.259
40.514
39.8116
37.7932
34.0422
29.0264
25.6198
26.3442
23.6512
30.5886
28.9731
25.6765
32.567
32.0112
34.5395
35.4285
37.7743
40.4875
36.669
33.9563
40.4372
36.4649
39.0432
37.6165
43.6014
35.2127
37.5935
26.0356
31.9598
35.525
38.6109
41.0399
42.7979
43.9486
44.5874
44.7883
44.534
43.7168
42.4174
41.5812
42.4837
43.4561
45.7529
47.7592
48.2496
51.2894
52.1001
52.3977
46.9623
46.6659
46.2037
47.8441
44.1483
41.9772
41.3478
40.4377
40.9107
39.5954
37.3364
26.9627
32.745
36.2801
39.4036
41.9765
43.9954
45.5419
46.7658
47.8517
48.952
50.1361
51.3972
52.7175
54.0729
55.288
56.4196
57.3684
59.0256
59.1838
58.7092
58.6183
56.0618
55.9416
55.0492
54.6613
53.5167
51.9375
50.5812
52.8008
49.3085
40.6882
47.7885
27.8786
33.4068
36.7522
39.6781
42.0959
44.0089
45.4935
46.7299
47.9986
49.5648
51.5161
53.7274
55.9862
58.0678
59.7133
60.7786
61.287
61.5612
61.0927
60.4495
59.9028
58.3207
58.259
57.2775
57.1974
56.1344
55.0083
54.6935
55.848
53.6974
49.7369
54.8501
28.2646
33.5394
36.6442
39.2824
41.4058
43.0282
44.2165
45.1251
46.0433
47.336
49.2346
51.6641
54.317
56.781
58.5861
59.5257
59.75
59.6244
58.9312
58.3465
58.2631
57.4724
57.6295
57.1177
56.8608
56.0624
55.2497
54.7993
56.0849
54.2468
52.3106
56.2477
26.5074
31.3488
34.0356
36.2947
38.0587
39.2879
40.086
40.6004
41.0588
41.761
43.0518
45.1263
47.7666
50.409
52.2635
53.1242
53.3533
53.4898
53.6569
54.0582
54.5766
54.551
54.9111
54.9298
54.8746
54.4564
54.1433
53.7306
55.0085
53.3578
53.1446
55.9583
18.1027
5.50662
7.93124
20.7534
28.8445
28.1462
27.5424
28.6408
28.1817
28.1367
27.6207
27.209
26.8503
26.1347
26.0944
25.6
25.6158
25.3766
25.2305
25.0408
25.0424
25.233
25.3789
25.6103
25.6223
26.0702
26.1702
26.8289
27.2313
27.6303
28.1243
28.2317
28.5761
27.6687
27.8852
29.2554
21.2816
8.61726
8.42798
15.8819
22.2565
8.1714
12.4339
26.4443
33.1618
32.854
33.4248
34.7383
34.4943
34.5129
34.1053
33.6703
33.2838
32.4509
32.172
31.6719
31.572
31.343
31.1729
30.9758
30.9777
31.1748
31.3444
31.5688
31.6845
32.1543
32.4707
33.2616
33.6853
34.0981
34.5005
34.5225
34.6681
33.5351
32.6036
33.5204
26.7008
12.7229
11.1042
19.2226
24.0386
8.72013
15.176
30.3287
36.1125
36.2024
37.2594
38.7067
38.5403
38.5064
38.079
37.6036
37.2016
36.3314
35.9386
35.4472
35.322
35.1346
34.993
34.8312
34.8335
34.9953
35.1365
35.3211
35.4567
35.9257
36.346
37.1825
37.6177
38.068
38.498
38.5583
38.6392
37.3583
35.9652
36.4595
30.3075
15.5999
11.9531
20.9915
24.9625
10.1421
20.0643
33.9523
38.8434
39.4076
40.8774
42.371
42.2393
42.1051
41.6274
41.1159
40.6855
39.8021
39.3047
38.806
38.6593
38.5074
38.3984
38.274
38.2768
38.4012
38.5104
38.6605
38.8141
39.2965
39.8143
40.6711
41.1305
41.6156
42.1017
42.2461
42.3127
40.9551
39.2019
39.1424
33.8522
19.964
13.0188
22.9528
25.2193
12.3013
24.4231
36.9094
41.1985
42.304
44.108
45.5956
45.4988
45.2614
44.7354
44.1945
43.7274
42.847
42.254
41.7285
41.5531
41.4221
41.3378
41.2412
41.2443
41.341
41.426
41.5559
41.736
42.249
42.8579
43.7166
44.2098
44.7224
45.2626
45.4919
45.5515
44.1532
42.1517
41.4083
36.8636
24.6731
12.9505
24.64
25.0938
13.9391
27.7454
39.1412
43.1295
44.7892
46.8663
48.3457
48.3081
47.9962
47.4407
46.8832
46.3844
45.5202
44.8497
44.2889
44.0791
43.9568
43.888
43.8093
43.8126
43.8916
43.9615
44.0833
44.2963
44.8474
45.5312
46.3761
46.8998
47.4255
48.0021
48.287
48.317
46.8757
44.6925
43.2506
39.151
28.1936
14.9053
25.5808
25.0215
16.2726
29.8693
40.7475
44.646
46.8214
49.1527
50.6316
50.6849
50.3372
49.7813
49.2271
48.7125
47.8788
47.1573
46.5653
46.3215
46.2008
46.1413
46.0739
46.0772
46.1453
46.2064
46.3271
46.5733
47.1572
47.8909
48.706
49.2461
49.7631
50.3478
50.6498
50.6168
49.129
46.7674
44.7064
40.7374
30.8074
16.0223
26.2328
25.5705
17.6191
31.3394
41.8478
45.7842
48.4188
50.9945
52.4745
52.6437
52.301
51.7799
51.2547
50.7478
49.9612
49.2211
48.6136
48.3441
48.2244
48.1722
48.113
48.1163
48.1768
48.2307
48.3509
48.6226
49.2233
49.9749
50.7427
51.2764
51.7586
52.3153
52.5967
52.4692
50.9437
48.3921
45.7959
41.8278
32.3142
17.6639
26.7075
26.3403
18.2173
32.6596
42.5505
46.5844
49.6255
52.4029
53.8826
54.1754
53.879
53.4314
52.9719
52.5091
51.7836
51.0656
50.467
50.1901
50.0776
50.0356
49.9842
49.9876
50.0407
50.0851
50.1983
50.4775
51.07
51.7994
52.5061
52.9952
53.41
53.8934
54.1237
53.8774
52.3367
49.6082
46.5489
42.5545
33.3477
18.5041
27.2451
27.1749
18.5976
34.0496
42.9915
47.0626
50.492
53.375
54.8591
55.2715
55.0735
54.7347
54.3775
53.9975
53.351
52.6998
52.1445
51.889
51.7985
51.7746
51.7341
51.7374
51.7802
51.8071
51.8988
52.1567
52.7073
53.3682
53.9984
54.3992
54.7177
55.0827
55.2242
54.8437
53.307
50.465
46.9888
43.0193
34.3041
19.2883
28.0369
28.6904
21.0317
35.2905
43.296
47.2206
51.0537
53.9033
55.4124
55.943
55.8923
55.695
55.4685
55.189
54.6725
54.1226
53.66
53.4618
53.4166
53.424
53.3998
53.4033
53.4302
53.4264
53.4734
53.674
54.1336
54.6904
55.1957
55.4873
55.6861
55.8936
55.9053
55.3827
53.8412
51.0028
47.1354
43.2546
35.4593
21.1151
29.464
31.4169
25.3367
36.5304
43.3547
47.1127
51.2828
53.9704
55.5348
56.1924
56.3417
56.3196
56.249
56.0975
55.7448
55.3426
55.025
54.9265
54.9553
55.0098
55.0092
55.0128
55.0167
54.9664
54.94
55.0411
55.3572
55.7637
56.1093
56.2655
56.3177
56.3384
56.161
55.4987
53.9033
51.2255
46.9874
43.2949
36.5046
25.4527
32.3321
35.3537
29.9219
37.5312
43.011
46.7953
51.1112
53.5845
55.2499
56.0536
56.4449
56.625
56.7345
56.7426
56.5837
56.3827
56.2575
56.3016
56.4321
56.5489
56.578
56.5817
56.5564
56.4444
56.3168
56.276
56.4
56.6048
56.7571
56.7517
56.6254
56.4432
56.0216
55.2182
53.5032
51.0607
46.6237
42.946
37.3335
30.0235
36.0004
39.0226
33.0042
37.8127
42.304
46.3224
50.5233
52.8279
54.6386
55.5967
56.2606
56.6572
56.977
57.1732
57.2419
57.2877
57.3913
57.6103
57.8609
58.0485
58.1102
58.1138
58.0562
57.8739
57.6266
57.4118
57.3067
57.2649
57.1892
56.9952
56.6588
56.26
55.5652
54.6073
52.745
50.4605
46.1557
42.1767
37.5841
32.9757
39.3028
41.1635
34.2572
37.5451
41.4961
45.78
49.5936
51.8906
53.8266
54.9693
55.9107
56.5377
57.0868
57.4956
57.8178
58.1367
58.4819
58.8856
59.2563
59.5116
59.6027
59.6062
59.5191
59.2691
58.9018
58.5025
58.1563
57.8407
57.5123
57.1035
56.5412
55.909
54.9423
53.7909
51.8165
49.5114
45.6372
41.3222
37.3195
34.1233
41.2736
42.2841
35.1127
37.6943
41.3054
45.4315
48.7591
51.1463
53.1196
54.4722
55.637
56.4789
57.2498
57.8753
58.4727
59.0413
59.6145
60.1762
60.6441
60.948
61.0579
61.0609
60.9543
60.6551
60.1905
59.6327
59.0591
58.4924
57.8908
57.2633
56.4827
55.6329
54.4503
53.0829
51.0836
48.6732
45.312
41.148
37.5102
34.9707
42.3328
43.415
37.2859
39.3989
42.536
45.9441
48.8023
51.1173
53.0152
54.4945
55.7653
56.7942
57.7369
58.5764
59.39
60.1582
60.8952
61.5551
62.0717
62.3902
62.5018
62.504
62.3942
62.0793
61.5652
60.9079
60.171
59.4031
58.5869
57.7442
56.7949
55.7577
54.4751
52.9824
51.068
48.7345
45.8589
42.4418
39.3035
37.2398
43.5464
45.1518
40.7788
42.4826
45.1075
47.77
50.1633
52.2082
53.9387
55.4028
56.682
57.8079
58.8498
59.8274
60.7619
61.6367
62.4355
63.1103
63.6105
63.9016
63.9955
63.9966
63.9026
63.6131
63.1143
62.4403
61.6413
60.7656
59.8292
58.8488
57.8028
56.6714
55.385
53.913
52.1735
50.1215
47.7228
45.0716
42.4655
40.8567
45.4807
47.2677
44.3697
45.8323
48.1223
50.3976
52.4529
54.2605
55.8276
57.2142
58.4533
59.593
60.6728
61.6929
62.6525
63.5263
64.2876
64.8978
65.3243
65.5547
65.6163
65.6162
65.5525
65.3218
64.895
64.2844
63.522
62.6468
61.6853
60.6629
59.5805
58.4377
57.1952
55.8051
54.235
52.4263
50.3752
48.1148
45.864
44.525
47.7004
49.1084
47.1782
48.6298
50.7971
52.9692
54.8961
56.609
58.107
59.4558
60.6825
61.8389
62.9258
63.9433
64.8701
65.6841
66.3585
66.87
67.2042
67.3668
67.3951
67.3942
67.3621
67.1979
66.8624
66.3494
65.6735
64.8578
63.9293
62.9097
61.8208
60.6622
59.4336
58.0828
56.5843
54.8716
52.9529
50.7961
48.6815
47.3788
49.617
50.2739
48.8179
50.3519
52.5852
54.8398
56.8269
58.5897
60.1328
61.522
62.7906
63.9853
65.0961
66.1167
67.021
67.789
68.3996
68.8413
69.1132
69.2326
69.2418
69.2404
69.2268
69.1052
68.8315
68.3882
67.776
67.0064
66.1002
65.0776
63.9647
62.7677
61.4969
60.1057
58.5623
56.8004
54.8229
52.5885
50.4271
49.0778
50.9326
50.72
49.2635
50.7973
53.1746
55.6279
57.8099
59.7408
61.4265
62.9286
64.286
65.5535
66.7224
67.7854
68.7164
69.4959
70.1065
70.5416
70.8063
70.9226
70.933
70.9317
70.9168
70.7984
70.5322
70.0956
69.4837
68.7027
67.7699
66.7048
65.5334
64.263
62.9022
61.3969
59.7077
57.7744
55.5936
53.152
50.822
49.4499
51.2318
50.8014
48.8768
50.1446
52.6064
55.2799
57.7165
59.8837
61.7799
63.4581
64.9578
66.3304
67.5922
68.7342
69.7375
70.5801
71.2456
71.7265
72.0281
72.1718
72.1981
72.1972
72.1671
72.0219
71.7194
71.2376
70.5712
69.7275
68.7227
67.5786
66.314
64.938
63.4341
61.7508
59.8482
57.6748
55.2336
52.5663
50.1504
49.0612
51.3636
51.0341
48.2925
48.9512
51.3063
54.1268
56.7992
59.2112
61.3377
63.2173
64.8846
66.3799
67.7491
68.9861
70.0792
71.0052
71.7466
72.2929
72.6464
72.8262
72.8713
72.871
72.8233
72.6431
72.2896
71.7434
71.002
70.0758
68.982
67.7439
66.373
64.8755
63.2054
61.3226
59.193
56.7788
54.1089
51.301
48.9907
48.4491
51.3465
51.3727
48.1259
48.0824
50.105
52.8906
55.6707
58.2376
60.5309
62.5677
64.3782
65.9958
67.46
68.7837
69.9552
70.9548
71.7621
72.364
72.7596
72.9658
73.0227
73.0232
72.9653
72.7602
72.3659
71.7651
70.9588
69.9596
68.7879
67.463
65.9964
64.3743
62.5569
60.5098
58.2014
55.613
52.8023
49.977
47.9119
47.9649
51.3097
50.7202
47.5735
47.3477
49.2239
51.986
54.8278
57.4874
59.8825
62.0171
63.9171
65.6124
67.1371
68.5148
69.7342
70.7776
71.6227
72.2544
72.6692
72.8825
72.9383
72.9393
72.8837
72.6726
72.2601
71.6308
70.788
69.7467
68.529
67.1528
65.6294
63.9356
62.038
59.9073
57.5196
54.8731
52.0565
49.3409
47.562
47.9403
51.2463
51.097
48.1102
47.7474
49.4121
52.0292
54.7994
57.4299
59.8192
61.96
63.8713
65.58
67.1175
68.5061
69.7351
70.7857
71.6352
72.2674
72.6774
72.8797
72.9226
72.9235
72.8811
72.681
72.2737
71.6445
70.7983
69.751
68.5252
67.1398
65.6055
63.9003
61.9928
59.8563
57.4716
54.8468
52.083
49.4808
47.8514
48.2964
51.3473
49.9754
47.564
47.5966
49.5397
52.2935
55.1386
57.8035
60.2054
62.3451
64.2471
65.9426
67.4673
68.8396
70.0502
71.0797
71.9068
72.5161
72.9033
73.0833
73.1073
73.107
73.0811
72.9008
72.5135
71.9048
71.079
70.0517
68.8444
67.4772
65.9603
64.2776
62.3949
60.2838
57.9247
55.3233
52.5755
49.9667
48.2548
48.4921
51.2248
51.4743
49.0225
48.9195
50.6736
53.2774
56.0077
58.5868
60.9219
63.0075
64.8629
66.5179
68.0115
69.3524
70.5313
71.5271
72.3205
72.898
73.2572
73.4139
73.422
73.4224
73.4137
73.257
72.8983
72.322
71.5305
70.5379
69.3639
68.03
66.5469
64.9082
63.0767
61.0259
58.7414
56.2364
53.6124
51.1564
49.59
49.8794
52.5444
51.624
49.4751
49.5866
51.4476
54.0765
56.7921
59.3445
61.6497
63.7058
65.5298
67.1519
68.6149
69.9218
71.0634
72.0192
72.7724
73.3121
73.6391
73.7711
73.7635
73.7636
73.7703
73.6391
73.3137
72.7764
72.0268
71.0756
69.9396
68.6396
67.1849
65.5739
63.7631
61.7237
59.4379
56.9081
54.2119
51.5891
49.6849
49.4574
51.5334
52.758
50.5138
50.4579
52.1771
54.7076
57.3599
59.8672
62.1419
64.1754
65.9809
67.5837
69.0267
70.3099
71.4236
72.3482
73.0688
73.5775
73.8777
73.9891
73.969
73.9696
73.9896
73.8792
73.5811
73.0753
72.3587
71.4392
70.3311
69.0542
67.6179
66.0228
64.2254
62.2001
59.9335
57.4324
54.7817
52.2348
50.4491
50.3042
52.1399
53.1259
50.9619
50.8274
52.4601
54.9407
57.5675
60.0605
62.3257
64.3513
66.1488
67.7412
69.1703
70.4355
71.5271
72.4264
73.1203
73.6029
73.8794
73.9713
73.9369
73.9346
73.9627
73.8652
73.583
73.0947
72.3951
71.4898
70.3917
69.1188
67.6803
66.0752
64.2621
62.2164
59.9277
57.4108
54.7698
52.3147
50.8156
51.2794
53.8951
46.9385
54.5441
60.5399
66.3269
71.2591
75.2365
78.4297
81.0395
83.2345
85.1478
86.8673
88.4374
89.8943
91.2673
92.5834
93.8699
95.1528
96.4556
97.7966
99.1883
100.638
102.146
103.712
105.332
106.999
108.703
110.433
112.165
113.859
115.44
116.749
117.528
46.4171
53.7638
59.5773
65.228
70.0794
74.0105
77.1749
79.7663
81.9534
83.8633
85.5759
87.1293
88.5651
89.9131
91.2015
92.4581
93.7098
94.9806
96.2889
97.6474
99.0626
100.536
102.067
103.652
105.283
106.951
108.644
110.34
112
113.549
114.83
115.593
45.8427
52.9673
58.6144
64.1333
68.9054
72.7929
75.9343
78.5157
80.7031
82.6139
84.3199
85.8579
87.2735
88.5973
89.8584
91.0856
92.3067
93.5458
94.8216
96.1469
97.5284
98.9678
100.465
102.013
103.608
105.241
106.898
108.558
110.184
111.7
112.956
113.702
45.2397
52.1653
57.6553
63.0461
67.7418
71.5903
74.7154
77.2956
79.4897
81.4045
83.1053
84.6309
86.0265
87.3271
88.5619
89.7607
90.9519
92.16
93.4042
94.6971
96.0453
97.4515
98.9138
100.428
101.988
103.585
105.207
106.833
108.425
109.91
111.139
111.869
44.6224
51.3652
56.7043
61.9696
66.592
70.4068
73.522
76.1075
78.3123
80.2333
81.9314
83.448
84.8254
86.1036
87.3129
88.4842
89.6464
90.8247
92.0382
93.2996
94.6162
95.9897
97.4186
98.8991
100.425
101.988
103.576
105.168
106.727
108.181
109.385
110.1
44.0014
50.5738
55.7657
60.9074
65.4595
69.2456
72.3564
74.9517
77.1695
79.0985
80.7964
82.3061
83.6677
84.9256
86.1113
87.2564
88.391
89.5404
90.7243
91.9555
93.2409
94.5824
95.9794
97.4273
98.9201
100.45
102.005
103.564
105.091
106.516
107.696
108.395
43.3842
49.7957
54.8424
59.8613
64.3456
68.1077
71.2189
73.8272
76.0597
77.9984
79.6988
81.2045
82.5555
83.7944
84.9573
86.0774
87.1854
88.3074
89.4629
90.6648
91.9203
93.2316
94.5972
96.0137
97.4745
98.9722
100.495
102.022
103.518
104.915
106.071
106.757
42.7766
49.0344
53.936
58.8312
63.249
66.9912
70.1073
72.7316
74.9803
76.9312
78.6371
80.142
81.4858
82.7084
83.8513
84.9484
86.0317
87.1273
88.2556
89.4295
90.656
91.9375
93.2728
94.6582
96.0883
97.5544
99.0462
100.543
102.01
103.379
104.513
105.185
42.1804
48.2899
53.0453
57.8148
62.1665
65.8922
69.0174
71.6609
73.9284
75.8942
77.609
79.1166
80.4568
81.6681
82.7928
83.8687
84.9283
85.9992
87.1016
88.2485
89.4474
90.7005
92.0068
93.3626
94.7629
96.1988
97.6602
99.1275
100.566
101.909
103.022
103.68
41.5974
47.5625
52.1693
56.8089
61.0929
64.8049
67.9438
70.6104
72.9
74.8841
76.6119
78.1264
79.4666
80.6708
81.7808
82.8379
83.8766
84.9243
86.002
87.1232
88.295
89.5202
90.7977
92.1245
93.4953
94.902
96.3344
97.7731
99.1845
100.502
101.594
102.24
41.0255
46.8491
51.3044
55.8088
60.022
63.7222
66.8797
69.5741
71.8908
73.8975
75.6424
77.1677
78.5118
79.7129
80.813
81.8544
82.8735
83.8997
84.9543
86.0507
87.1968
88.3951
89.6448
90.9437
92.2856
93.6637
95.0678
96.4785
97.8632
99.1572
100.23
100.864
40.4635
46.1482
50.4473
54.8086
58.9456
62.6346
65.8161
68.5445
70.8947
72.9296
74.6968
76.2377
77.5902
78.7923
79.8862
80.9155
81.9185
82.9253
83.9578
85.0305
86.1508
87.3221
88.5442
89.8142
91.1279
92.4776
93.8532
95.2371
96.5968
97.8672
98.9217
99.5433
39.9076
45.4533
49.5927
53.8021
57.8546
61.5314
64.7427
67.5134
69.905
71.975
73.7702
75.3315
76.6966
77.9039
78.9957
80.0166
81.0064
81.9955
83.0074
84.0569
85.1518
86.2959
87.4899
88.7316
90.0168
91.3377
92.6866
94.0437
95.3788
96.6272
97.6641
98.275
39.343
44.7556
48.733
52.7806
56.7377
60.3989
63.6456
66.4686
68.9117
71.0254
72.856
74.4441
75.8276
77.0447
78.1383
79.1535
80.132
81.105
82.0972
83.1243
84.194
85.3117
86.4779
87.6906
88.9474
90.2407
91.5628
92.8942
94.2059
95.4331
96.4532
97.0528
38.7654
44.0508
47.8614
51.7354
55.5826
59.2216
62.5087
65.3959
67.9033
70.0724
71.9471
73.5687
74.9758
76.2077
77.3076
78.3214
79.2914
80.25
81.2238
82.2285
83.2734
84.3636
85.5018
86.6869
87.9147
89.1797
90.4761
91.7826
93.0707
94.2778
95.2825
95.8721
38.1669
43.3297
46.9689
50.6553
54.374
57.9795
61.3103
64.2757
66.8634
69.1021
71.0325
72.6967
74.135
75.3877
76.4984
77.5135
78.4772
79.4234
80.3792
81.3627
82.3828
83.4468
84.5566
85.7119
86.9113
88.1479
89.4184
90.7007
91.9678
93.155
94.1447
94.7245
37.5373
42.5807
46.0439
49.5276
53.0948
56.6493
60.024
63.0829
65.7713
68.0985
70.0998
71.8182
73.2958
74.5756
75.7026
76.7244
77.6853
78.6204
79.5597
80.5207
81.5158
82.5507
83.6317
84.7592
85.9295
87.1376
88.3826
89.6414
90.8866
92.0552
93.0313
93.6028
36.8598
41.7872
45.0715
48.3364
51.7236
55.2018
58.6146
61.7831
64.5992
67.0398
69.1317
70.918
72.4459
73.761
74.9103
75.9418
76.9022
77.8291
78.7523
79.6931
80.6625
81.6713
82.7219
83.8162
84.9571
86.1359
87.3563
88.5914
89.8171
90.9668
91.9305
92.4932
36.1131
40.9265
44.0294
47.0582
50.2321
53.5996
57.0383
60.3325
63.3064
65.8932
68.1029
69.98
71.5732
72.9341
74.113
75.1611
76.1252
77.0443
77.9518
78.8684
79.8113
80.7866
81.807
82.8744
83.9838
85.1324
86.328
87.541
88.7455
89.8791
90.8302
91.3868
35.2693
39.9713
42.893
45.669
48.5891
51.7974
55.2326
58.6633
61.8403
64.6213
66.9879
68.9789
70.6552
72.074
73.2915
74.3604
75.3313
76.2468
77.1398
78.0368
78.951
79.9004
80.8858
81.913
82.9909
84.1076
85.2782
86.4684
87.6559
88.7705
89.7115
90.2612
34.2857
38.8812
41.6189
44.1242
46.7447
49.7301
53.124
56.7023
60.1209
63.1546
65.7296
67.8817
69.6722
71.1701
72.4384
73.5372
74.5194
75.4293
76.3055
77.1731
78.058
78.9646
79.9173
80.9192
81.9616
83.045
84.191
85.36
86.5269
87.6283
88.5585
89.1041
33.1101
37.6116
40.1692
42.3872
44.653
47.3261
50.5901
54.2934
58.036
61.4154
64.2858
66.6484
68.5862
70.1828
71.5167
72.6535
73.6526
74.564
75.4268
76.2749
77.1223
78.0031
78.9117
79.8603
80.8668
81.9117
83.0343
84.1801
85.333
86.4139
87.337
87.8779
31.6655
36.0916
38.4767
40.3955
42.2522
44.5116
47.5395
51.3172
55.3974
59.2507
62.5254
65.2017
67.355
69.0968
70.5203
71.7077
72.7266
73.6329
74.4734
75.2795
76.0945
76.9151
77.7862
78.7117
79.6757
80.6827
81.7779
82.906
84.0361
85.1088
86.0239
86.5659
29.8432
34.2253
36.4515
38.0602
39.4348
41.1234
43.7297
47.5119
52.0399
56.4759
60.3507
63.4643
65.9145
67.841
69.3818
70.6375
71.6903
72.6034
73.428
74.2137
74.9695
75.7614
76.5721
77.4226
78.3413
79.2926
80.3728
81.4761
82.6009
83.649
84.5586
85.1004
27.4529
31.8463
33.9403
35.2412
36.0696
37.0151
38.9314
42.3983
47.219
52.7053
57.4689
61.2645
64.163
66.3795
68.0873
69.4305
70.5106
71.4148
72.2062
72.9215
73.6403
74.344
75.107
75.9342
76.7996
77.7117
78.7502
79.8458
80.9409
81.9906
82.8991
83.4524
24.1831
28.7094
30.741
31.7746
31.9975
31.9269
32.8181
36.4634
42.3662
47.6829
53.5697
58.3939
61.9799
64.5877
66.5249
67.9931
69.1416
70.055
70.8128
71.5033
72.1173
72.7759
73.4483
74.1672
74.9653
75.7693
76.8336
77.9022
79.0138
80.0328
80.9338
81.4964
19.2259
24.2224
26.4051
27.3638
27.1012
25.991
25.0593
24.0651
21.5355
39.8396
48.2288
54.5249
59.1226
62.3622
64.629
66.2532
67.4241
68.3176
69.0278
69.5832
70.1413
70.6684
71.2719
71.9594
72.6894
73.4793
74.4436
75.5369
76.6042
77.6427
78.5624
79.1654
10.7912
16.8768
19.6547
21.0926
20.7512
16.9492
11.3151
16.9642
19.5453
23.6116
40.5483
49.3713
55.4257
59.5048
62.2517
64.1032
65.416
66.2981
66.8991
67.4158
67.7781
68.2034
68.6505
69.1721
69.7797
70.2843
71.4362
72.5113
73.6501
74.6611
75.5543
76.1957
9.48655
12.7455
5.92342
4.43422
9.41568
13.0859
13.7195
17.2088
25.2633
25.593
27.0016
41.5765
50.3646
55.7806
59.1086
61.2458
62.4984
63.3318
63.8681
64.0754
64.3027
64.5198
64.8535
65.3265
65.8572
66.4967
67.3183
68.5352
69.5968
70.6617
71.6312
72.4022
0.765456
7.63086
8.6057
8.5271
5.52641
6.16811
6.65776
0.618346
21.8702
27.4737
29.8933
32.0153
43.8354
51.0106
55.3014
57.7117
59.2633
59.9345
60.0894
60.2556
60.0817
60.0509
60.0908
60.3087
60.5651
60.218
61.9362
63.1983
64.4609
65.5576
66.4295
67.2553
9.4995
12.85
14.2876
15.6816
16.4939
16.719
16.0708
11.322
17.129
23.8286
30.8196
21.7313
35.3656
44.5276
49.43
52.4143
53.3333
53.9223
54.0309
53.2537
52.6822
52.3257
52.1331
52.2243
52.6965
53.4941
53.412
55.5794
56.5267
57.6544
59.0641
60.1889
13.7571
20.3716
23.5257
25.8107
27.2378
27.8173
27.5182
26.1276
23.2455
15.0992
25.2006
7.25645
24.9443
37.7458
43.9442
46.093
48.154
47.6911
46.156
45.8594
44.6843
43.3071
42.2312
42.2283
41.7631
36.9989
42.4146
44.3254
46.2964
48.6068
49.5217
50.0028
19.7493
25.6216
28.8799
31.5612
33.4733
34.5831
34.8266
33.7443
30.5751
25.7125
19.524
16.2181
26.9456
24.1118
28.4145
34.6656
30.9438
30.5777
28.546
22.6986
16.2016
15.1655
9.68584
3.04416
16.9523
17.1307
36.1771
34.9907
24.1423
25.7461
37.4793
32.4039
22.6341
28.6058
32.0095
34.8268
36.8568
37.9792
37.9713
36.5524
33.5341
29.3865
26.1454
23.8786
16.708
7.22987
12.368
9.55837
8.2964
17.4063
32.2894
16.9377
23.2543
21.4602
19.5854
34.2131
27.6828
27.9754
36.7497
44.9528
34.5349
27.3265
44.0868
38.5028
23.8176
29.8677
33.3707
36.3005
38.4337
39.6951
40.0288
39.3365
37.597
35.1612
32.9503
31.5108
28.3738
21.7991
25.7289
18.5524
30.9836
28.1481
34.3649
33.0408
39.3148
38.6271
37.4656
34.9906
38.1514
39.0323
35.2521
43.234
33.2838
36.0596
43.5532