/*--------------------------------*- C++ -*----------------------------------*\
  =========                 |
  \\      /  F ield         | OpenFOAM: The Open Source CFD Toolbox
   \\    /   O peration     | Website:  https://openfoam.org
    \\  /    A nd           | Version:  6
     \\/     M anipulation  |
\*---------------------------------------------------------------------------*/
FoamFile
{
    version     2.0;
    format      ascii;
    class       volVectorField;
    location    "26";
    object      wallShearStress;
}
// * * * * * * * * * * * * * * * * * * * * * * * * * * * * * * * * * * * * * //

dimensions      [0 2 -2 0 0 0 0];

internalField   uniform (0 0 0);

boundaryField
{
    inlet
    {
        type            calculated;
        value           uniform (0 0 0);
    }
    outlet
    {
        type            calculated;
        value           uniform (0 0 0);
    }
    roughCylinder
    {
        type            calculated;
        value           nonuniform List<vector> 
5120
(
(-0.000431382 -0.000621788 -0.000324486)
(-0.000388151 -0.000559239 -3.87654e-05)
(-0.000346839 -0.000542685 1.39418e-06)
(-0.000383543 -0.000603193 4.91026e-05)
(-0.000450351 -0.00068171 0.000104499)
(-0.000520837 -0.000742065 0.000156923)
(-0.000592121 -0.00078202 0.000203134)
(-0.000659872 -0.000803745 0.000241893)
(-0.000721583 -0.000811217 0.000272447)
(-0.000777195 -0.000812031 0.000295596)
(-0.000827711 -0.000813437 0.000313341)
(-0.000870255 -0.000816016 0.000324919)
(-0.000906115 -0.000822851 0.000330666)
(-0.000936765 -0.00083406 0.000331603)
(-0.000963233 -0.000849031 0.000328865)
(-0.000987154 -0.000866997 0.000323562)
(-0.00100997 -0.000887091 0.00031651)
(-0.00103312 -0.000908933 0.000308308)
(-0.00105727 -0.000932127 0.00029919)
(-0.0010828 -0.000956528 0.000289228)
(-0.00110985 -0.000982101 0.000278407)
(-0.0011384 -0.00100881 0.000266662)
(-0.0011683 -0.00103654 0.000253879)
(-0.00119936 -0.00106513 0.000239904)
(-0.00123132 -0.00109432 0.000224489)
(-0.00126382 -0.00112374 0.000207274)
(-0.00129634 -0.00115292 0.000187706)
(-0.00132822 -0.00118115 0.000165036)
(-0.00135842 -0.00120754 0.000138135)
(-0.00138544 -0.0012308 0.000105846)
(-0.00140655 -0.00124921 6.64551e-05)
(-0.00141811 -0.00125992 2.22225e-05)
(-0.000550478 -0.000720404 -0.000376266)
(-0.000421058 -0.000555875 -4.29341e-05)
(-0.00037041 -0.000531135 -4.42981e-06)
(-0.00040307 -0.000585876 3.99523e-05)
(-0.000471027 -0.000664425 9.3208e-05)
(-0.000543499 -0.000726551 0.00014435)
(-0.000616737 -0.000768717 0.00018972)
(-0.000686854 -0.000793136 0.000228064)
(-0.000751881 -0.000804421 0.00025894)
(-0.000811801 -0.000809501 0.000283369)
(-0.000866008 -0.000813156 0.000302492)
(-0.000911979 -0.000815483 0.000315258)
(-0.000949565 -0.000821003 0.000321603)
(-0.000981733 -0.00083119 0.000322837)
(-0.00100974 -0.00084551 0.000320337)
(-0.00103504 -0.000862965 0.000315161)
(-0.00105938 -0.000882861 0.000308274)
(-0.0010838 -0.000904385 0.000300188)
(-0.00110926 -0.000927302 0.000291231)
(-0.0011362 -0.000951491 0.000281506)
(-0.00116472 -0.000976858 0.000270989)
(-0.00119476 -0.00100331 0.0002596)
(-0.00122618 -0.00103077 0.000247225)
(-0.00125877 -0.00105903 0.000233702)
(-0.00129226 -0.00108786 0.000218784)
(-0.00132625 -0.00111688 0.000202106)
(-0.00136024 -0.00114564 0.000183117)
(-0.0013935 -0.00117347 0.000161078)
(-0.00142498 -0.00119946 0.000134872)
(-0.00145312 -0.00122234 0.000103369)
(-0.0014751 -0.00124047 6.48925e-05)
(-0.00148713 -0.001251 2.16892e-05)
(-0.000603528 -0.000709205 -0.000362624)
(-0.000455991 -0.000547845 -4.69772e-05)
(-0.000394943 -0.000515147 -1.13248e-05)
(-0.00042164 -0.000563044 2.99062e-05)
(-0.000490047 -0.000640859 8.09367e-05)
(-0.0005641 -0.000704228 0.000130647)
(-0.000639154 -0.000748554 0.000175144)
(-0.000712002 -0.000776353 0.000213349)
(-0.000780845 -0.000792042 0.000244953)
(-0.000844793 -0.000800996 0.000270597)
(-0.000902643 -0.000806898 0.000290761)
(-0.000952338 -0.000810271 0.000304663)
(-0.000992 -0.000814112 0.000311546)
(-0.0010258 -0.00082326 0.000313162)
(-0.00105532 -0.000836652 0.000310895)
(-0.00108218 -0.000853522 0.000305956)
(-0.00110774 -0.000872736 0.000299195)
(-0.00113364 -0.000893899 0.000291327)
(-0.00116057 -0.00091649 0.000282623)
(-0.0011889 -0.000940268 0.000273177)
(-0.00121878 -0.000965164 0.000262986)
(-0.00125023 -0.00099114 0.000251986)
(-0.00128309 -0.00101807 0.000240055)
(-0.00131714 -0.0010458 0.00022703)
(-0.00135208 -0.00107406 0.000212653)
(-0.00138752 -0.0011025 0.000196559)
(-0.00142289 -0.00113065 0.000178198)
(-0.00145747 -0.00115785 0.000156834)
(-0.00149015 -0.00118327 0.000131375)
(-0.00151933 -0.00120563 0.000100715)
(-0.00154212 -0.00122334 6.32217e-05)
(-0.00155458 -0.00123361 2.11205e-05)
(-0.000630203 -0.00066411 -0.000323614)
(-0.000473078 -0.000514109 -5.06208e-05)
(-0.000411328 -0.00048769 -1.82092e-05)
(-0.000435115 -0.000533298 1.96492e-05)
(-0.000503733 -0.000610358 6.79185e-05)
(-0.000579558 -0.000675367 0.000115964)
(-0.00065705 -0.000722704 0.000159585)
(-0.000732986 -0.000754441 0.000197709)
(-0.000805394 -0.000774411 0.000230017)
(-0.000873365 -0.000787256 0.000256892)
(-0.000934864 -0.000795415 0.000278075)
(-0.000987775 -0.00079997 0.000292801)
(-0.00103108 -0.000803449 0.00030062)
(-0.00106655 -0.000811011 0.000302672)
(-0.00109779 -0.000823383 0.000300749)
(-0.0011261 -0.00083931 0.000296056)
(-0.00115343 -0.000858081 0.000289625)
(-0.00118067 -0.000878604 0.000281991)
(-0.00120885 -0.000900565 0.000273546)
(-0.00123857 -0.000923816 0.000264438)
(-0.00126991 -0.000948212 0.000254651)
(-0.0013028 -0.000973627 0.000244101)
(-0.00133709 -0.000999947 0.000232666)
(-0.00137254 -0.001027 0.000220175)
(-0.00140884 -0.00105453 0.000206371)
(-0.00144558 -0.00108221 0.000190886)
(-0.00148222 -0.00110958 0.000173172)
(-0.00151798 -0.00113603 0.000152507)
(-0.00155174 -0.0011607 0.000127812)
(-0.00158185 -0.00118241 9.80136e-05)
(-0.00160536 -0.00119959 6.15227e-05)
(-0.00161821 -0.00120955 2.05432e-05)
(-0.00063778 -0.000597267 -0.000279706)
(-0.000489871 -0.000485062 -5.3204e-05)
(-0.000427047 -0.000458992 -2.46481e-05)
(-0.000444973 -0.000500164 9.36123e-06)
(-0.000512885 -0.000575648 5.45447e-05)
(-0.000590003 -0.000641702 0.000100606)
(-0.000669363 -0.000691427 0.000143052)
(-0.00074821 -0.000726904 0.000180929)
(-0.000824562 -0.000751445 0.000213948)
(-0.000896186 -0.000767776 0.000241876)
(-0.000961225 -0.000778142 0.000264084)
(-0.00101783 -0.000784215 0.0002797)
(-0.00106489 -0.000788207 0.000288488)
(-0.00110328 -0.000794305 0.000291306)
(-0.00113626 -0.000805342 0.00028985)
(-0.00116651 -0.000820378 0.000285592)
(-0.00119506 -0.000838007 0.000279423)
(-0.00122387 -0.000857866 0.00027216)
(-0.00125364 -0.000879278 0.000264119)
(-0.00128472 -0.000901855 0.000255407)
(-0.00131731 -0.000925478 0.000246042)
(-0.00135146 -0.000950099 0.000235968)
(-0.001387 -0.000975588 0.000225055)
(-0.00142369 -0.00100177 0.000213132)
(-0.00146124 -0.00102842 0.000199936)
(-0.00149919 -0.00105518 0.000185091)
(-0.00153695 -0.00108161 0.000168053)
(-0.00157376 -0.00110713 0.000148105)
(-0.00160848 -0.00113092 0.000124194)
(-0.00163941 -0.00115183 9.52725e-05)
(-0.00166355 -0.0011684 5.98022e-05)
(-0.00167672 -0.00117798 1.996e-05)
(-0.000580354 -0.000483496 -0.000212626)
(-0.000501018 -0.00044815 -5.46347e-05)
(-0.000438379 -0.000426534 -3.14799e-05)
(-0.000448408 -0.000461922 -1.07009e-06)
(-0.000514661 -0.00053513 4.07342e-05)
(-0.000593101 -0.000602405 8.44672e-05)
(-0.000675157 -0.000655422 0.000125606)
(-0.000757527 -0.000695124 0.000163178)
(-0.000837167 -0.000723367 0.000196578)
(-0.000912586 -0.000743081 0.000225445)
(-0.000981384 -0.000755761 0.0002487)
(-0.00104141 -0.000763029 0.00026519)
(-0.00109247 -0.000768054 0.000274956)
(-0.00113479 -0.000773721 0.000278803)
(-0.00117028 -0.000782938 0.000278064)
(-0.00120211 -0.000796422 0.000274272)
(-0.00123289 -0.000813357 0.000268695)
(-0.00126317 -0.000832227 0.000261858)
(-0.00129413 -0.000852613 0.000254214)
(-0.00132655 -0.000874334 0.000245973)
(-0.00136057 -0.000897176 0.000237137)
(-0.00139606 -0.000920951 0.000227618)
(-0.00143289 -0.000945536 0.000217295)
(-0.00147081 -0.000970741 0.000205986)
(-0.00150947 -0.000996333 0.000193424)
(-0.00154846 -0.001022 0.000179242)
(-0.0015872 -0.00104733 0.000162895)
(-0.00162492 -0.00107176 0.000143678)
(-0.00166045 -0.00109452 0.000120559)
(-0.00169207 -0.00111451 9.25215e-05)
(-0.00171673 -0.00113036 5.80779e-05)
(-0.00173015 -0.00113951 1.93771e-05)
(-0.00056711 -0.000422983 -0.000165088)
(-0.000509694 -0.000405183 -5.78043e-05)
(-0.000444365 -0.000391631 -3.80668e-05)
(-0.000447543 -0.000422624 -1.11592e-05)
(-0.000510999 -0.000492646 2.69414e-05)
(-0.000590101 -0.000560539 6.79565e-05)
(-0.000673625 -0.000615605 0.000107293)
(-0.000758371 -0.000658359 0.00014407)
(-0.000842139 -0.000690789 0.000177791)
(-0.000921315 -0.00071357 0.000207378)
(-0.000993704 -0.000728291 0.000231544)
(-0.00105803 -0.000737335 0.000249191)
(-0.00111288 -0.000743131 0.000259965)
(-0.00115941 -0.00074919 0.000264908)
(-0.00119861 -0.000757339 0.000265183)
(-0.00123339 -0.000769344 0.000262272)
(-0.00126547 -0.000784259 0.000257174)
(-0.00129751 -0.000801979 0.000250941)
(-0.00133032 -0.00082155 0.00024392)
(-0.00136415 -0.000842308 0.000236239)
(-0.00139929 -0.000864048 0.000227952)
(-0.00143587 -0.000886705 0.000219016)
(-0.00147374 -0.000910133 0.000209307)
(-0.00151266 -0.000934157 0.000198643)
(-0.00155232 -0.00095856 0.000186758)
(-0.00159223 -0.000983014 0.000173273)
(-0.00163181 -0.00100712 0.000157645)
(-0.00167028 -0.00103033 0.000139179)
(-0.00170648 -0.00105194 0.000116869)
(-0.00173867 -0.00107091 8.97323e-05)
(-0.00176377 -0.00108596 5.63336e-05)
(-0.00177735 -0.00109464 1.87891e-05)
(-0.00062329 -0.000410903 -0.000143062)
(-0.000511153 -0.000364095 -5.939e-05)
(-0.000441378 -0.000351475 -4.33255e-05)
(-0.000436927 -0.000378162 -2.06422e-05)
(-0.000497158 -0.000445091 1.30841e-05)
(-0.000576424 -0.000513206 5.0738e-05)
(-0.000662371 -0.000571239 8.79501e-05)
(-0.000751148 -0.000618345 0.000123846)
(-0.000837944 -0.000653812 0.000157352)
(-0.000921044 -0.000679548 0.000187456)
(-0.000997911 -0.000696777 0.000212592)
(-0.00106595 -0.000707061 0.000231271)
(-0.00112536 -0.000714026 0.000243362)
(-0.00117571 -0.000720187 0.000249437)
(-0.0012191 -0.00072816 0.000250917)
(-0.00125677 -0.000738639 0.000248927)
(-0.00129255 -0.00075267 0.000244956)
(-0.00132661 -0.000768895 0.000239509)
(-0.00136058 -0.000786822 0.000233086)
(-0.00139574 -0.00080627 0.000226046)
(-0.00143235 -0.000826909 0.000218447)
(-0.00147023 -0.000848432 0.000210201)
(-0.00150927 -0.000870681 0.000201191)
(-0.00154922 -0.000893472 0.000191231)
(-0.00158971 -0.00091655 0.000180052)
(-0.00163036 -0.000939646 0.000167283)
(-0.00167058 -0.000962386 0.000152386)
(-0.00170964 -0.000984275 0.000134681)
(-0.00174635 -0.00100461 0.000113184)
(-0.00177896 -0.00102243 8.69476e-05)
(-0.00180435 -0.00103659 5.45969e-05)
(-0.00181802 -0.00104482 1.82063e-05)
(-0.000699686 -0.000406548 -0.000122608)
(-0.000527137 -0.000335173 -6.23036e-05)
(-0.000442506 -0.000317644 -4.91636e-05)
(-0.000423703 -0.000335994 -2.96841e-05)
(-0.00047698 -0.000397193 -4.02647e-07)
(-0.000555823 -0.000465066 3.34841e-05)
(-0.000642442 -0.000524475 6.79442e-05)
(-0.000732186 -0.00057332 0.000102068)
(-0.000823357 -0.000612741 0.000135184)
(-0.000910789 -0.000641544 0.000165557)
(-0.000991504 -0.000660667 0.000191356)
(-0.00106479 -0.000673061 0.000211351)
(-0.00112845 -0.000680846 0.000224788)
(-0.00118366 -0.000687605 0.000232391)
(-0.00123066 -0.00069502 0.000235115)
(-0.00127279 -0.000705182 0.000234521)
(-0.0013106 -0.000717553 0.000231486)
(-0.0013471 -0.00073239 0.000227019)
(-0.00138365 -0.000749241 0.000221578)
(-0.00142061 -0.000767431 0.000215382)
(-0.00145835 -0.000786616 0.000208527)
(-0.0014972 -0.000806703 0.00020102)
(-0.00153706 -0.000827499 0.000192745)
(-0.00157773 -0.000848835 0.00018353)
(-0.00161892 -0.000870494 0.000173111)
(-0.00166016 -0.00089216 0.000161105)
(-0.00170087 -0.00091347 0.000146978)
(-0.0017403 -0.000933933 0.00013006)
(-0.00177737 -0.000952952 0.000109403)
(-0.00181033 -0.000969593 8.4099e-05)
(-0.00183591 -0.000982831 5.28269e-05)
(-0.00184944 -0.000990536 1.76142e-05)
(-0.000606994 -0.000308899 -7.66964e-05)
(-0.000495366 -0.000279923 -6.09379e-05)
(-0.000421537 -0.000272323 -5.22539e-05)
(-0.00039858 -0.000289664 -3.74067e-05)
(-0.000444595 -0.000345227 -1.31855e-05)
(-0.000520919 -0.000411176 1.61074e-05)
(-0.000608812 -0.000472447 4.71444e-05)
(-0.000703515 -0.000526066 7.93249e-05)
(-0.00079734 -0.000568008 0.000111264)
(-0.000888719 -0.0005995 0.000141469)
(-0.000975101 -0.000621588 0.000168038)
(-0.00105254 -0.000635189 0.000189054)
(-0.00112168 -0.000644323 0.00020412)
(-0.00118112 -0.000651145 0.000213283)
(-0.00123315 -0.000658656 0.000217734)
(-0.00127795 -0.000667425 0.0002184)
(-0.00132006 -0.000679272 0.000216862)
(-0.00135929 -0.000692861 0.000213565)
(-0.00139724 -0.000707984 0.000209066)
(-0.00143569 -0.000724689 0.000203814)
(-0.0014751 -0.000742647 0.000197915)
(-0.00151531 -0.000761453 0.00019131)
(-0.00155629 -0.000780924 0.000183906)
(-0.00159777 -0.00080084 0.000175531)
(-0.00163946 -0.000820974 0.00016592)
(-0.001681 -0.000841082 0.000154714)
(-0.0017219 -0.000860845 0.000141387)
(-0.00176151 -0.000879841 0.00012529)
(-0.00179869 -0.000897465 0.000105502)
(-0.00183173 -0.000912885 8.11579e-05)
(-0.00185732 -0.000925152 5.10016e-05)
(-0.00187063 -0.000932265 1.70049e-05)
(-0.000553695 -0.000244306 -4.86971e-05)
(-0.000474278 -0.000239362 -5.94303e-05)
(-0.000403385 -0.000233551 -5.53073e-05)
(-0.000368575 -0.000245383 -4.39857e-05)
(-0.000405105 -0.000294163 -2.47411e-05)
(-0.000479338 -0.000358503 -5.55327e-07)
(-0.000566892 -0.000420314 2.63495e-05)
(-0.000659678 -0.000473568 5.52885e-05)
(-0.000758117 -0.000519467 8.56535e-05)
(-0.000854774 -0.000554516 0.000115369)
(-0.000945096 -0.000578408 0.000142122)
(-0.00102915 -0.000594593 0.000164455)
(-0.00110321 -0.000604533 0.00018106)
(-0.00116866 -0.000612153 0.000192226)
(-0.00122461 -0.000618944 0.000198398)
(-0.00127511 -0.000627702 0.000201058)
(-0.00131927 -0.000637688 0.000200837)
(-0.00136099 -0.000649777 0.000198862)
(-0.00140202 -0.000663874 0.000195716)
(-0.00144248 -0.000679247 0.000191611)
(-0.00148284 -0.000695516 0.000186684)
(-0.00152373 -0.000712637 0.000181004)
(-0.00156512 -0.000730394 0.00017449)
(-0.00160695 -0.000748639 0.000166998)
(-0.00164893 -0.000767154 0.000158268)
(-0.00169063 -0.000785652 0.000147929)
(-0.00173154 -0.000803822 0.000135461)
(-0.001771 -0.000821246 0.000120229)
(-0.00180805 -0.000837428 0.000101363)
(-0.00184099 -0.000851594 7.80393e-05)
(-0.00186643 -0.00086286 4.90675e-05)
(-0.00187939 -0.000869325 1.63609e-05)
(-0.000464632 -0.000175457 -2.49821e-05)
(-0.000424509 -0.000191366 -5.46582e-05)
(-0.000368683 -0.000190939 -5.57769e-05)
(-0.00033045 -0.000201472 -4.86469e-05)
(-0.000352812 -0.000240541 -3.41976e-05)
(-0.000419588 -0.000299278 -1.58033e-05)
(-0.000505793 -0.000360837 5.89472e-06)
(-0.000605699 -0.000420191 3.10996e-05)
(-0.000705977 -0.000468177 5.87676e-05)
(-0.000806065 -0.000505704 8.71779e-05)
(-0.000903707 -0.000533526 0.000114177)
(-0.000992289 -0.000551002 0.000137304)
(-0.00107312 -0.000562635 0.000155718)
(-0.00114329 -0.000570152 0.000168775)
(-0.00120567 -0.000577252 0.000177262)
(-0.00125872 -0.000584234 0.000181642)
(-0.00130827 -0.000593763 0.000183482)
(-0.0013535 -0.000604642 0.000183178)
(-0.00139581 -0.000616723 0.000181304)
(-0.00143767 -0.000630335 0.000178419)
(-0.00147986 -0.000645235 0.000174715)
(-0.00152218 -0.000660947 0.000170167)
(-0.00156468 -0.00067727 0.000164719)
(-0.00160706 -0.000693934 0.000158214)
(-0.00164916 -0.00071076 0.000150415)
(-0.00169069 -0.000727544 0.000140975)
(-0.00173127 -0.000744025 0.00012939)
(-0.00177042 -0.000759868 0.000115055)
(-0.00180709 -0.00077456 9.71295e-05)
(-0.00183966 -0.000787416 7.48465e-05)
(-0.00186475 -0.000797638 4.70895e-05)
(-0.0018773 -0.000803451 1.57045e-05)
(-0.00044508 -0.000144352 -8.39717e-06)
(-0.000393122 -0.000156433 -5.3008e-05)
(-0.000332806 -0.000154628 -5.60789e-05)
(-0.000284609 -0.00015941 -5.07406e-05)
(-0.000295136 -0.000190001 -4.07219e-05)
(-0.00035688 -0.000244663 -2.87763e-05)
(-0.000441301 -0.00030549 -1.31217e-05)
(-0.000532801 -0.000360391 6.9787e-06)
(-0.000637943 -0.000412763 3.11704e-05)
(-0.000744702 -0.000455033 5.76693e-05)
(-0.000845715 -0.00048466 8.3887e-05)
(-0.000942645 -0.000505724 0.000107982)
(-0.00102899 -0.000518362 0.000127916)
(-0.0011068 -0.000527123 0.000143345)
(-0.00117324 -0.000533197 0.000153968)
(-0.00123377 -0.000540455 0.000160994)
(-0.00128547 -0.000547825 0.000164657)
(-0.00133323 -0.000556879 0.000166112)
(-0.00137943 -0.000567919 0.00016604)
(-0.00142379 -0.000580119 0.000164665)
(-0.00146677 -0.000593093 0.000162186)
(-0.00150943 -0.000606866 0.000158762)
(-0.00155184 -0.000621215 0.00015436)
(-0.0015942 -0.000636061 0.000148886)
(-0.00163618 -0.000651141 0.00014209)
(-0.00167742 -0.000666216 0.000133622)
(-0.00171751 -0.000681014 0.000122981)
(-0.00175595 -0.000695194 0.000109581)
(-0.00179199 -0.000708384 9.26494e-05)
(-0.00182403 -0.000719935 7.14684e-05)
(-0.00184862 -0.000729108 4.50005e-05)
(-0.0018606 -0.000734244 1.50136e-05)
(-0.000329159 -9.17954e-05 9.36371e-06)
(-0.000325071 -0.000111312 -4.91409e-05)
(-0.000284422 -0.000119563 -5.4873e-05)
(-0.000237421 -0.000122954 -5.13019e-05)
(-0.000224397 -0.000137756 -4.24969e-05)
(-0.000269694 -0.000180257 -3.63646e-05)
(-0.000348014 -0.000237082 -2.78726e-05)
(-0.000453057 -0.000302059 -1.49805e-05)
(-0.000557431 -0.000355369 4.00836e-06)
(-0.00066575 -0.000399748 2.73099e-05)
(-0.00077636 -0.000435211 5.24827e-05)
(-0.000877581 -0.00045794 7.66285e-05)
(-0.00097229 -0.000473235 9.81874e-05)
(-0.00105493 -0.000481955 0.000115607)
(-0.00112967 -0.000488896 0.000129021)
(-0.00119227 -0.000493928 0.000138177)
(-0.00125062 -0.000500924 0.000144462)
(-0.00130299 -0.000508836 0.000148135)
(-0.00135027 -0.000517532 0.000149705)
(-0.00139583 -0.000527679 0.00014986)
(-0.00144094 -0.000539188 0.000148906)
(-0.00148526 -0.000551496 0.00014687)
(-0.00152896 -0.000564403 0.000143751)
(-0.00157162 -0.000577568 0.000139416)
(-0.00161331 -0.000590895 0.000133675)
(-0.00165388 -0.000604187 0.000126199)
(-0.00169309 -0.000617254 0.000116512)
(-0.00173072 -0.000629836 0.000104069)
(-0.00176586 -0.000641512 8.81351e-05)
(-0.00179706 -0.000651738 6.80609e-05)
(-0.00182094 -0.000659854 4.28969e-05)
(-0.00183231 -0.000664354 1.43213e-05)
(-0.000191445 -4.36691e-05 1.64383e-05)
(-0.000229644 -6.83146e-05 -4.09e-05)
(-0.000214985 -8.24739e-05 -5.01032e-05)
(-0.000178967 -8.71576e-05 -4.76174e-05)
(-0.000158646 -9.42664e-05 -3.94456e-05)
(-0.000192603 -0.000126346 -3.90584e-05)
(-0.000267732 -0.000181158 -4.01691e-05)
(-0.000347335 -0.000231886 -3.28736e-05)
(-0.000458987 -0.000292069 -2.05259e-05)
(-0.000576123 -0.000343465 -2.11006e-06)
(-0.000687757 -0.000380641 2.0426e-05)
(-0.000799533 -0.000409071 4.43111e-05)
(-0.000899677 -0.000426068 6.67643e-05)
(-0.000991898 -0.000437264 8.64739e-05)
(-0.00107012 -0.000443122 0.000102147)
(-0.00114243 -0.000449135 0.000114414)
(-0.00120282 -0.000453817 0.000122952)
(-0.00125744 -0.000459597 0.000128759)
(-0.00130963 -0.000467315 0.000132575)
(-0.0013584 -0.000476069 0.000134621)
(-0.00140408 -0.000485451 0.000135153)
(-0.00144826 -0.00049561 0.000134439)
(-0.00149117 -0.000506331 0.000132513)
(-0.00153344 -0.000517619 0.000129358)
(-0.00157456 -0.000529164 0.000124741)
(-0.00161436 -0.000540756 0.000118335)
(-0.00165256 -0.000552168 0.000109667)
(-0.00168885 -0.000563102 9.82155e-05)
(-0.00172284 -0.000573303 8.33351e-05)
(-0.00175304 -0.000582255 6.44372e-05)
(-0.00177606 -0.000589345 4.0664e-05)
(-0.00178662 -0.000593203 1.35886e-05)
(-7.27457e-05 -1.22534e-05 1.32906e-05)
(-0.000129396 -3.4663e-05 -2.72844e-05)
(-0.000136765 -4.75038e-05 -4.0743e-05)
(-0.000122154 -5.61035e-05 -4.26158e-05)
(-6.82757e-05 -4.01627e-05 -2.38539e-05)
(-7.00423e-05 -4.67995e-05 -2.13863e-05)
(-0.000130164 -9.00975e-05 -3.11985e-05)
(-0.000251893 -0.000169625 -4.38679e-05)
(-0.000351608 -0.000225784 -4.09686e-05)
(-0.000466057 -0.000279361 -2.8467e-05)
(-0.000591149 -0.000326271 -1.00491e-05)
(-0.000705055 -0.000356922 1.20761e-05)
(-0.000815308 -0.000378769 3.49599e-05)
(-0.0009113 -0.000390528 5.60464e-05)
(-0.00100011 -0.000398766 7.43986e-05)
(-0.00107299 -0.000402438 8.88531e-05)
(-0.00114128 -0.000407222 0.000100293)
(-0.00120186 -0.000412247 0.000108721)
(-0.00125457 -0.000417412 0.000114468)
(-0.00130407 -0.000423896 0.0001183)
(-0.00135226 -0.000431825 0.000120639)
(-0.00139851 -0.000440589 0.000121567)
(-0.00144314 -0.00045 0.000121151)
(-0.00148545 -0.000459624 0.000119286)
(-0.00152591 -0.000469457 0.000115841)
(-0.00156448 -0.000479329 0.000110511)
(-0.00160118 -0.000489077 0.000102856)
(-0.00163616 -0.000498528 9.24081e-05)
(-0.0016687 -0.000507307 7.85677e-05)
(-0.0016976 -0.000515009 6.08323e-05)
(-0.00171953 -0.0005211 3.84463e-05)
(-0.00172929 -0.000524396 1.28653e-05)
(-1.83146e-05 -7.96861e-07 1.30159e-05)
(-4.0539e-05 -9.45309e-06 -9.16981e-06)
(-5.09851e-05 -1.47299e-05 -2.24882e-05)
(-4.09649e-05 -1.79586e-05 -2.29441e-05)
(-3.97188e-05 -2.53621e-05 -2.31295e-05)
(-5.8498e-05 -4.52942e-05 -2.86115e-05)
(-5.75969e-05 -4.44209e-05 -2.11597e-05)
(-9.0259e-05 -6.36405e-05 -2.55941e-05)
(-0.000229843 -0.000150093 -4.85932e-05)
(-0.000352072 -0.000213775 -4.89704e-05)
(-0.000471727 -0.000262369 -3.62766e-05)
(-0.000600361 -0.000303539 -1.77966e-05)
(-0.000714038 -0.000328355 4.00068e-06)
(-0.000821867 -0.000345306 2.6001e-05)
(-0.000911798 -0.000352929 4.5889e-05)
(-0.000997045 -0.000359316 6.31691e-05)
(-0.00106658 -0.000362128 7.68643e-05)
(-0.00112834 -0.000365012 8.7508e-05)
(-0.00118718 -0.000369626 9.57583e-05)
(-0.00124082 -0.000374992 0.000101771)
(-0.00128916 -0.000380754 0.000105797)
(-0.00133454 -0.000387275 0.000108204)
(-0.00137732 -0.000394374 0.000109091)
(-0.00141876 -0.000402171 0.000108534)
(-0.00145812 -0.000410318 0.000106318)
(-0.00149542 -0.00041863 0.000102145)
(-0.00153056 -0.000426889 9.55721e-05)
(-0.0015635 -0.000434828 8.6157e-05)
(-0.00159432 -0.000442274 7.34231e-05)
(-0.00162175 -0.000448828 5.69395e-05)
(-0.00164246 -0.000454003 3.60529e-05)
(-0.00165114 -0.00045674 1.20856e-05)
(2.3235e-06 3.69579e-06 1.85513e-05)
(-2.16381e-06 6.77526e-07 -9.46515e-07)
(-7.74792e-06 -1.45137e-06 -1.32361e-05)
(-1.4259e-05 -1.0291e-05 -2.16701e-05)
(-1.68938e-05 -1.67649e-05 -2.08627e-05)
(-2.86e-05 -3.10095e-05 -2.70126e-05)
(-4.28806e-05 -4.16056e-05 -2.86234e-05)
(-4.83675e-05 -3.95578e-05 -2.31059e-05)
(-7.22076e-05 -5.01011e-05 -2.44636e-05)
(-0.000218302 -0.000133595 -5.19337e-05)
(-0.000356835 -0.00019981 -5.601e-05)
(-0.000478347 -0.000243404 -4.24565e-05)
(-0.000605127 -0.000277863 -2.37845e-05)
(-0.000712942 -0.000296496 -2.53078e-06)
(-0.000816413 -0.000309688 1.83546e-05)
(-0.000898519 -0.000314118 3.69709e-05)
(-0.000977099 -0.000318422 5.30613e-05)
(-0.00104637 -0.000321655 6.6216e-05)
(-0.00110438 -0.000323845 7.63896e-05)
(-0.00115761 -0.000326975 8.42442e-05)
(-0.00120887 -0.000331576 9.02436e-05)
(-0.0012569 -0.000337 9.44858e-05)
(-0.00130212 -0.000343126 9.70797e-05)
(-0.00134343 -0.000349458 9.79418e-05)
(-0.00138173 -0.00035609 9.69991e-05)
(-0.00141717 -0.000362875 9.39638e-05)
(-0.00145013 -0.000369688 8.84401e-05)
(-0.00148129 -0.000376387 8.00619e-05)
(-0.00151013 -0.000382622 6.84e-05)
(-0.00153575 -0.000388095 5.31286e-05)
(-0.00155501 -0.000392416 3.37129e-05)
(-0.00156273 -0.000394714 1.13285e-05)
(7.05184e-06 8.35302e-06 2.54472e-05)
(1.55976e-05 7.15168e-06 -1.79515e-06)
(1.79132e-05 4.34619e-06 -1.14064e-05)
(1.83682e-05 -2.84171e-06 -1.86673e-05)
(1.1909e-05 -1.1452e-05 -2.21615e-05)
(2.00734e-06 -2.00801e-05 -2.38474e-05)
(-1.18883e-05 -2.76167e-05 -2.54654e-05)
(-3.18075e-05 -3.61074e-05 -2.94583e-05)
(-6.13175e-05 -4.84761e-05 -3.4459e-05)
(-0.000117719 -7.49078e-05 -4.46425e-05)
(-0.000203656 -0.000114921 -5.22731e-05)
(-0.000356133 -0.000182172 -5.80314e-05)
(-0.000477746 -0.00022062 -4.51882e-05)
(-0.000601554 -0.000249917 -2.73209e-05)
(-0.000700309 -0.000263225 -7.15508e-06)
(-0.000798789 -0.000273901 1.2305e-05)
(-0.000876081 -0.000277171 2.96881e-05)
(-0.000944021 -0.000278799 4.4483e-05)
(-0.00100954 -0.000281566 5.69188e-05)
(-0.00106807 -0.0002844 6.69456e-05)
(-0.00111859 -0.000287093 7.46523e-05)
(-0.00116449 -0.000290396 8.04039e-05)
(-0.00120623 -0.00029426 8.43103e-05)
(-0.00124589 -0.000298976 8.65379e-05)
(-0.00128242 -0.00030417 8.68859e-05)
(-0.00131604 -0.000309693 8.50625e-05)
(-0.00134687 -0.000315322 8.06609e-05)
(-0.00137518 -0.00032076 7.33365e-05)
(-0.00140169 -0.000325918 6.28308e-05)
(-0.0014254 -0.000330471 4.8897e-05)
(-0.00144308 -0.000334049 3.11114e-05)
(-0.00144942 -0.000335894 1.0484e-05)
(1.6328e-05 1.21852e-05 3.14583e-05)
(2.91653e-05 1.12704e-05 -4.01978e-06)
(3.29977e-05 8.0315e-06 -1.24522e-05)
(4.26127e-05 1.93476e-06 -2.07621e-05)
(2.76046e-05 -5.80399e-06 -1.52966e-05)
(2.13194e-05 -1.17026e-05 -1.41366e-05)
(1.09751e-05 -1.49647e-05 -1.23058e-05)
(-1.50326e-06 -1.62269e-05 -1.18243e-05)
(-1.75866e-05 -1.91292e-05 -1.64626e-05)
(-4.05516e-05 -2.80629e-05 -2.33336e-05)
(-6.96043e-05 -3.95872e-05 -2.65175e-05)
(-0.000204715 -0.000104383 -5.22173e-05)
(-0.00035412 -0.00016417 -5.76364e-05)
(-0.000467283 -0.000195622 -4.50722e-05)
(-0.000585543 -0.000220478 -2.87628e-05)
(-0.00067238 -0.000229279 -1.01319e-05)
(-0.000760644 -0.000236922 7.64243e-06)
(-0.000837994 -0.000241106 2.37713e-05)
(-0.000899826 -0.000242056 3.75349e-05)
(-0.000955571 -0.000243097 4.90408e-05)
(-0.00100933 -0.000245412 5.85841e-05)
(-0.00105864 -0.000248333 6.61714e-05)
(-0.00110388 -0.000251896 7.18691e-05)
(-0.0011434 -0.000255604 7.55748e-05)
(-0.00117849 -0.000259688 7.72442e-05)
(-0.00120954 -0.000264034 7.6576e-05)
(-0.00123743 -0.000268554 7.32209e-05)
(-0.0012636 -0.000273129 6.69451e-05)
(-0.00128764 -0.000277391 5.75296e-05)
(-0.00130906 -0.000281124 4.48548e-05)
(-0.00132495 -0.000284054 2.86268e-05)
(-0.0013303 -0.000285609 9.68392e-06)
(2.60762e-05 1.33559e-05 3.33953e-05)
(5.25414e-05 1.54564e-05 -6.2139e-06)
(6.7712e-05 1.24676e-05 -1.87741e-05)
(7.08652e-05 3.85771e-06 -2.33138e-05)
(5.59056e-05 -5.40641e-06 -1.98745e-05)
(3.51971e-05 -1.02426e-05 -1.31453e-05)
(2.607e-05 -1.47375e-05 -9.53035e-06)
(1.55334e-05 -1.59887e-05 -5.65773e-06)
(3.79998e-06 -2.37254e-05 -8.99414e-06)
(-2.51978e-05 -2.34802e-05 -2.02519e-05)
(-6.41083e-05 -3.68749e-05 -3.47796e-05)
(-6.94489e-05 -3.55596e-05 -2.56298e-05)
(-0.000202067 -9.29775e-05 -4.9377e-05)
(-0.000345878 -0.000145802 -5.53911e-05)
(-0.000444954 -0.000169971 -4.31723e-05)
(-0.000557831 -0.00019165 -2.88383e-05)
(-0.000638382 -0.000198966 -1.19754e-05)
(-0.000709336 -0.000202415 4.26912e-06)
(-0.000780562 -0.000206131 1.90949e-05)
(-0.000843199 -0.000208538 3.21442e-05)
(-0.000894413 -0.000209619 4.30385e-05)
(-0.000939331 -0.000210847 5.18906e-05)
(-0.000978605 -0.000212462 5.87038e-05)
(-0.00101503 -0.000214937 6.36571e-05)
(-0.00104734 -0.000217998 6.65559e-05)
(-0.00107599 -0.000221536 6.70783e-05)
(-0.00110121 -0.000225304 6.48357e-05)
(-0.00112358 -0.000228945 5.96016e-05)
(-0.00114469 -0.000232457 5.13918e-05)
(-0.00116377 -0.000235558 4.01622e-05)
(-0.00117776 -0.000237968 2.57284e-05)
(-0.00118143 -0.000239165 8.73977e-06)
(3.33367e-05 1.35893e-05 3.48304e-05)
(7.15756e-05 1.81439e-05 -5.05174e-06)
(9.44441e-05 1.61321e-05 -2.01809e-05)
(0.000106139 7.43194e-06 -2.90588e-05)
(0.000106457 -5.24823e-06 -3.24542e-05)
(9.31334e-05 -1.77603e-05 -2.94479e-05)
(5.37262e-05 -2.00516e-05 -1.66464e-05)
(2.98432e-05 -1.89046e-05 -7.97641e-06)
(3.20664e-05 -3.50069e-05 -4.77717e-06)
(2.86898e-06 -1.51818e-05 -1.00465e-06)
(-1.93278e-05 -1.63973e-05 -1.1041e-05)
(-4.56261e-05 -2.35621e-05 -2.21988e-05)
(-6.82361e-05 -3.13238e-05 -2.37705e-05)
(-0.000185526 -7.89381e-05 -4.42775e-05)
(-0.000324631 -0.000126121 -5.11703e-05)
(-0.000405424 -0.000142934 -3.99118e-05)
(-0.000503871 -0.00016005 -2.72185e-05)
(-0.000587682 -0.000169505 -1.26012e-05)
(-0.000649605 -0.000172113 2.1626e-06)
(-0.000704705 -0.000173421 1.56612e-05)
(-0.000759487 -0.000175621 2.76539e-05)
(-0.000808999 -0.000177816 3.79236e-05)
(-0.000852914 -0.000180204 4.63103e-05)
(-0.00088987 -0.00018257 5.2655e-05)
(-0.000920627 -0.000185175 5.68143e-05)
(-0.000945922 -0.000188011 5.841e-05)
(-0.000967394 -0.000191078 5.71373e-05)
(-0.000987542 -0.000194313 5.29325e-05)
(-0.00100583 -0.000197299 4.581e-05)
(-0.00102225 -0.000199874 3.58751e-05)
(-0.00103421 -0.000201864 2.30786e-05)
(-0.00103704 -0.000202907 7.88481e-06)
(3.93813e-05 1.36894e-05 3.74816e-05)
(8.07054e-05 1.91999e-05 -2.68989e-06)
(0.000108839 1.93428e-05 -1.91992e-05)
(0.000125592 1.24626e-05 -3.00446e-05)
(0.000129961 1.23118e-07 -3.61472e-05)
(0.000123693 -1.41425e-05 -3.7204e-05)
(0.000109185 -2.80679e-05 -3.34599e-05)
(7.38993e-05 -3.26755e-05 -2.11178e-05)
(4.41906e-05 -3.12677e-05 -9.08172e-06)
(3.50154e-05 -4.03701e-05 2.37247e-07)
(6.30451e-06 -2.83173e-05 3.42701e-06)
(-1.55093e-05 -1.13485e-05 -7.04324e-06)
(-6.23702e-05 -3.04052e-05 -2.97747e-05)
(-6.46119e-05 -2.8933e-05 -2.18237e-05)
(-0.000161377 -6.35032e-05 -3.72147e-05)
(-0.000298285 -0.000107324 -4.75165e-05)
(-0.000370641 -0.000121869 -3.7489e-05)
(-0.000439292 -0.000131074 -2.49293e-05)
(-0.000514835 -0.000140134 -1.19637e-05)
(-0.000579952 -0.000145487 1.33932e-06)
(-0.000628652 -0.000147324 1.37245e-05)
(-0.000669507 -0.000148341 2.45471e-05)
(-0.000704773 -0.000149456 3.3518e-05)
(-0.000734949 -0.000150834 4.05818e-05)
(-0.000761129 -0.000152889 4.56376e-05)
(-0.00078344 -0.000155469 4.82337e-05)
(-0.000801877 -0.000158245 4.79637e-05)
(-0.000817082 -0.000160801 4.47279e-05)
(-0.000831871 -0.000163339 3.88657e-05)
(-0.00084561 -0.000165556 3.05217e-05)
(-0.00085542 -0.000167232 1.97334e-05)
(-0.000856261 -0.000167926 6.77837e-06)
(4.33189e-05 1.35797e-05 4.09617e-05)
(8.22492e-05 1.93125e-05 2.27846e-07)
(0.000111923 2.14541e-05 -1.68596e-05)