/*--------------------------------*- C++ -*----------------------------------*\
  =========                 |
  \\      /  F ield         | OpenFOAM: The Open Source CFD Toolbox
   \\    /   O peration     | Website:  https://openfoam.org
    \\  /    A nd           | Version:  6
     \\/     M anipulation  |
\*---------------------------------------------------------------------------*/
FoamFile
{
    version     2.0;
    format      ascii;
    class       volScalarField;
    location    "140";
    object      epsilon;
}
// * * * * * * * * * * * * * * * * * * * * * * * * * * * * * * * * * * * * * //

dimensions      [0 2 -3 0 0 0 0];

internalField   nonuniform List<scalar> 
2160
(
0.00174998
0.00174993
0.00174996
0.00816531
0.0081649
0.00816491
0.00977358
0.00977314
0.00977317
0.0109719
0.0109715
0.0109716
0.0119488
0.0119484
0.0119485
0.0127746
0.0127742
0.0127742
0.0134972
0.0134968
0.0134969
0.0141525
0.0141522
0.0141522
0.0147646
0.0147644
0.0147644
0.0153431
0.015343
0.0153429
0.0158811
0.015881
0.0158809
0.0163573
0.0163573
0.0163572
0.0167455
0.0167456
0.0167455
0.0170236
0.0170236
0.0170236
0.0171753
0.0171754
0.0171753
0.0171752
0.0171753
0.0171752
0.0170233
0.0170233
0.0170233
0.0167451
0.0167451
0.016745
0.0163568
0.0163567
0.0163566
0.0158804
0.0158804
0.0158803
0.0153424
0.0153423
0.0153422
0.0147638
0.0147635
0.0147635
0.0141517
0.0141514
0.0141514
0.0134966
0.0134963
0.0134963
0.0127744
0.012774
0.012774
0.011949
0.0119486
0.0119486
0.0109723
0.0109719
0.0109719
0.00977398
0.00977352
0.00977354
0.00816543
0.00816501
0.008165
0.00175008
0.00175003
0.00175005
0.00023226
0.000232251
0.000232256
0.00704829
0.00704813
0.00704818
0.00872256
0.0087224
0.00872247
0.00991216
0.00991199
0.00991209
0.0108368
0.0108367
0.0108367
0.011592
0.0115919
0.011592
0.0122363
0.0122362
0.0122363
0.0128099
0.0128097
0.0128098
0.0133386
0.0133385
0.0133385
0.013834
0.0138339
0.0138339
0.0142922
0.0142921
0.0142921
0.0146969
0.0146969
0.0146969
0.0150266
0.0150266
0.0150266
0.0152624
0.0152624
0.0152623
0.0153907
0.0153907
0.0153907
0.0153906
0.0153906
0.0153906
0.0152621
0.0152621
0.0152621
0.0150262
0.0150262
0.0150262
0.0146965
0.0146964
0.0146964
0.0142916
0.0142916
0.0142916
0.0138334
0.0138333
0.0138333
0.0133379
0.0133378
0.0133379
0.0128091
0.012809
0.0128091
0.0122357
0.0122356
0.0122356
0.0115916
0.0115914
0.0115915
0.0108366
0.0108364
0.0108365
0.00991211
0.00991194
0.00991203
0.00872261
0.00872244
0.00872251
0.0070483
0.00704813
0.00704818
0.000232277
0.000232268
0.000232272
0.000293715
0.000293705
0.00029371
0.00498049
0.00498038
0.00498042
0.00614626
0.00614614
0.0061462
0.00702581
0.00702569
0.00702576
0.00772031
0.0077202
0.00772026
0.00829012
0.00829001
0.00829007
0.00877658
0.00877648
0.00877653
0.00920941
0.00920932
0.00920936
0.00960836
0.00960829
0.00960831
0.00998228
0.00998224
0.00998223
0.0103285
0.0103285
0.0103285
0.0106348
0.0106348
0.0106348
0.0108847
0.0108847
0.0108846
0.0110635
0.0110635
0.0110634
0.0111609
0.0111609
0.0111609
0.0111608
0.0111609
0.0111608
0.0110633
0.0110633
0.0110633
0.0108844
0.0108844
0.0108843
0.0106345
0.0106344
0.0106344
0.0103281
0.0103281
0.0103281
0.00998183
0.0099818
0.00998179
0.00960785
0.00960778
0.0096078
0.00920888
0.0092088
0.00920883
0.00877611
0.00877601
0.00877606
0.00828977
0.00828966
0.00828972
0.00772013
0.00772
0.00772007
0.00702576
0.00702563
0.0070257
0.00614627
0.00614615
0.0061462
0.00498049
0.00498037
0.0049804
0.000293735
0.000293724
0.000293729
0.000364577
0.000364564
0.00036457
0.00373816
0.00373807
0.0037381
0.00453578
0.00453568
0.00453572
0.00519262
0.00519252
0.00519256
0.00572476
0.00572466
0.00572471
0.00616478
0.00616469
0.00616473
0.00654088
0.00654079
0.00654083
0.0068751
0.00687503
0.00687505
0.00718275
0.00718269
0.0071827
0.0074709
0.00747086
0.00747086
0.00773774
0.00773772
0.0077377
0.00797395
0.00797393
0.00797391
0.00816672
0.00816672
0.0081667
0.00830478
0.00830479
0.00830477
0.00838006
0.00838008
0.00838005
0.00838001
0.00838002
0.00837999
0.00830464
0.00830464
0.00830462
0.00816649
0.00816649
0.00816646
0.00797366
0.00797365
0.00797363
0.00773743
0.00773741
0.00773739
0.00747055
0.00747052
0.00747052
0.00718236
0.0071823
0.00718231
0.0068747
0.00687463
0.00687465
0.00654052
0.00654044
0.00654048
0.00616453
0.00616444
0.00616449
0.00572463
0.00572453
0.00572457
0.00519258
0.00519247
0.00519252
0.00453578
0.00453568
0.00453572
0.00373816
0.00373806
0.00373809
0.000364602
0.000364588
0.000364593
0.000445572
0.000445555
0.000445562
0.00294202
0.00294194
0.00294197
0.00347209
0.00347201
0.00347204
0.0039636
0.00396352
0.00396355
0.00437765
0.00437756
0.0043776
0.00472474
0.00472466
0.00472469
0.00502235
0.00502228
0.0050223
0.00528655
0.00528649
0.0052865
0.00552924
0.00552919
0.00552919
0.00575621
0.00575618
0.00575617
0.00596626
0.00596624
0.00596622
0.00615217
0.00615216
0.00615214
0.00630392
0.00630392
0.00630391
0.00641267
0.00641267
0.00641265
0.00647199
0.006472
0.00647198
0.00647195
0.00647196
0.00647194
0.00641255
0.00641256
0.00641254
0.00630374
0.00630374
0.00630372
0.00615194
0.00615193
0.00615192
0.00596601
0.00596599
0.00596598
0.00575594
0.00575591
0.0057559
0.00552893
0.00552888
0.00552889
0.00528624
0.00528618
0.00528619
0.00502209
0.00502201
0.00502204
0.00472456
0.00472448
0.00472451
0.00437756
0.00437747
0.00437751
0.00396358
0.00396349
0.00396352
0.0034721
0.00347202
0.00347204
0.00294202
0.00294194
0.00294196
0.000445602
0.000445584
0.00044559
0.000537165
0.000537144
0.000537151
0.00240195
0.00240189
0.00240191
0.0027355
0.00273543
0.00273545
0.00309873
0.00309866
0.00309869
0.00342238
0.00342231
0.00342233
0.00369982
0.00369975
0.00369978
0.00393943
0.00393936
0.00393938
0.00415217
0.00415211
0.00415212
0.00434716
0.00434712
0.00434712
0.00452915
0.00452912
0.00452911
0.00469735
0.00469734
0.00469732
0.00484613
0.00484612
0.00484611
0.00496756
0.00496756
0.00496755
0.0050546
0.00505461
0.00505459
0.00510211
0.00510212
0.0051021
0.00510207
0.00510209
0.00510207
0.00505451
0.00505452
0.0050545
0.00496742
0.00496742
0.0049674
0.00484596
0.00484595
0.00484593
0.00469716
0.00469714
0.00469713
0.00452893
0.00452891
0.0045289
0.00434691
0.00434687
0.00434687
0.00415192
0.00415186
0.00415188
0.00393922
0.00393916
0.00393918
0.00369969
0.00369963
0.00369965
0.00342233
0.00342225
0.00342228
0.00309873
0.00309866
0.00309868
0.00273552
0.00273545
0.00273547
0.00240197
0.00240189
0.00240191
0.000537201
0.000537179
0.000537185
0.000639326
0.000639299
0.000639307
0.00201826
0.0020182
0.00201822
0.00220767
0.00220762
0.00220764
0.00246836
0.0024683
0.00246832
0.00271961
0.00271955
0.00271957
0.00294247
0.00294242
0.00294243
0.00313754
0.00313748
0.0031375
0.00331122
0.00331117
0.00331118
0.00347017
0.00347013
0.00347013
0.00361816
0.00361814
0.00361813
0.00375472
0.0037547
0.00375469
0.00387536
0.00387536
0.00387534
0.00397379
0.00397379
0.00397378
0.00404435
0.00404435
0.00404434
0.00408288
0.00408288
0.00408287
0.00408285
0.00408286
0.00408284
0.00404427
0.00404428
0.00404427
0.00397367
0.00397367
0.00397366
0.00387522
0.00387521
0.0038752
0.00375456
0.00375454
0.00375453
0.00361799
0.00361797
0.00361796
0.00346996
0.00346992
0.00346993
0.00331102
0.00331097
0.00331098
0.00313738
0.00313733
0.00313734
0.00294238
0.00294232
0.00294234
0.00271958
0.00271952
0.00271954
0.00246837
0.00246831
0.00246833
0.0022077
0.00220764
0.00220766
0.00201828
0.00201822
0.00201824
0.000639369
0.00063934
0.000639347
0.00075125
0.000751218
0.000751226
0.00173469
0.00173464
0.00173465
0.00181975
0.00181971
0.00181972
0.00199736
0.00199731
0.00199733
0.00218859
0.00218854
0.00218856
0.00236691
0.00236686
0.00236688
0.00252651
0.00252646
0.00252647
0.00266965
0.00266961
0.00266962
0.00280066
0.00280063
0.00280063
0.00292239
0.00292237
0.00292237
0.00303447
0.00303446
0.00303445
0.00313334
0.00313334
0.00313333
0.00321394
0.00321394
0.00321393
0.00327172
0.00327173
0.00327172
0.00330328
0.00330329
0.00330328
0.00330326
0.00330327
0.00330326
0.00327166
0.00327167
0.00327166
0.00321385
0.00321385
0.00321384
0.00313323
0.00313322
0.00313321
0.00303434
0.00303433
0.00303432
0.00292225
0.00292223
0.00292222
0.00280049
0.00280046
0.00280046
0.00266948
0.00266945
0.00266945
0.00252638
0.00252634
0.00252635
0.00236684
0.00236679
0.00236681
0.00218858
0.00218853
0.00218855
0.00199738
0.00199733
0.00199735
0.00181979
0.00181974
0.00181976
0.00173472
0.00173466
0.00173468
0.000751301
0.000751267
0.000751274
0.000871113
0.000871074
0.000871083
0.00151766
0.00151762
0.00151764
0.00152879
0.00152875
0.00152877
0.00163917
0.00163913
0.00163915
0.00177957
0.00177953
0.00177955
0.00192024
0.00192021
0.00192022
0.00205059
0.00205056
0.00205057
0.00216917
0.00216914
0.00216914
0.00227804
0.00227801
0.00227802
0.00237907
0.00237905
0.00237905
0.00247189
0.00247188
0.00247187
0.00255362
0.00255361
0.0025536
0.00262017
0.00262016
0.00262016
0.00266786
0.00266787
0.00266786
0.00269392
0.00269393
0.00269392
0.00269391
0.00269391
0.0026939
0.00266781
0.00266782
0.00266781
0.00262009
0.00262008
0.00262008
0.00255352
0.00255352
0.00255351
0.00247178
0.00247177
0.00247176
0.00237895
0.00237894
0.00237893
0.0022779
0.00227787
0.00227787
0.00216903
0.002169
0.00216901
0.00205049
0.00205046
0.00205047
0.00192019
0.00192016
0.00192017
0.00177957
0.00177953
0.00177955
0.0016392
0.00163916
0.00163917
0.00152883
0.00152879
0.00152881
0.00151771
0.00151766
0.00151767
0.000871174
0.000871133
0.00087114
0.000995935
0.00099589
0.0009959
0.00134641
0.00134637
0.00134638
0.00130644
0.0013064
0.00130642
0.00136318
0.00136316
0.00136317
0.0014602
0.00146018
0.00146019
0.00156821
0.00156819
0.0015682
0.00167363
0.00167361
0.00167362
0.00177186
0.00177184
0.00177184
0.00186279
0.00186277
0.00186277
0.00194723
0.00194722
0.00194721
0.00202466
0.00202466
0.00202465
0.0020927
0.00209269
0.00209269
0.00214802
0.00214802
0.00214801
0.00218765
0.00218765
0.00218764
0.0022093
0.0022093
0.00220929
0.00220928
0.00220928
0.00220928
0.00218761
0.00218761
0.0021876
0.00214795
0.00214795
0.00214794
0.00209262
0.00209262
0.00209261
0.00202458
0.00202457
0.00202456
0.00194713
0.00194712
0.00194712
0.00186267
0.00186265
0.00186265
0.00177175
0.00177172
0.00177173
0.00167355
0.00167353
0.00167354
0.00156818
0.00156815
0.00156816
0.00146021
0.00146018
0.0014602
0.00136322
0.00136319
0.00136321
0.00130648
0.00130645
0.00130647
0.00134645
0.00134641
0.00134643
0.000996006
0.000995958
0.000995966
0.00112169
0.00112164
0.00112165
0.00120776
0.00120773
0.00120774
0.00113315
0.00113313
0.00113314
0.00114823
0.00114821
0.00114822
0.00120843
0.00120842
0.00120843
0.00128766
0.00128765
0.00128766
0.00137121
0.00137119
0.0013712
0.00145207
0.00145206
0.00145206
0.00152813
0.00152811
0.00152812
0.00159904
0.00159903
0.00159903
0.00166402
0.00166402
0.00166401
0.00172099
0.00172099
0.00172098
0.00176723
0.00176723
0.00176722
0.00180032
0.00180032
0.00180031
0.00181839
0.00181839
0.00181838
0.00181838
0.00181838
0.00181837
0.00180029
0.00180028
0.00180028
0.00176717
0.00176717
0.00176717
0.00172093
0.00172092
0.00172092
0.00166395
0.00166394
0.00166394
0.00159896
0.00159895
0.00159895
0.00152803
0.00152801
0.00152801
0.00145198
0.00145196
0.00145197
0.00137114
0.00137112
0.00137113
0.00128764
0.00128762
0.00128763
0.00120844
0.00120842
0.00120844
0.00114826
0.00114825
0.00114826
0.0011332
0.00113318
0.00113319
0.00120782
0.00120778
0.0012078
0.00112177
0.00112172
0.00112173
0.00124378
0.00124372
0.00124373
0.0010933
0.00109328
0.00109329
0.00099504
0.000995025
0.000995038
0.000978953
0.000978945
0.000978956
0.00100851
0.00100851
0.00100852
0.00106233
0.00106232
0.00106233
0.00112625
0.00112624
0.00112625
0.00119186
0.00119185
0.00119186
0.00125527
0.00125526
0.00125526
0.00131496
0.00131496
0.00131496
0.00136973
0.00136973
0.00136972
0.00141766
0.00141766
0.00141765
0.00145648
0.00145648
0.00145647
0.00148422
0.00148422
0.00148421
0.00149936
0.00149935
0.00149935
0.00149935
0.00149935
0.00149934
0.00148419
0.00148419
0.00148418
0.00145643
0.00145643
0.00145643
0.00141761
0.0014176
0.0014176
0.00136967
0.00136967
0.00136966
0.00131489
0.00131489
0.00131489
0.00125518
0.00125518
0.00125518
0.00119178
0.00119177
0.00119178
0.00112619
0.00112619
0.00112619
0.0010623
0.0010623
0.00106231
0.00100852
0.00100852
0.00100853
0.00097899
0.00097898
0.000978993
0.000995093
0.000995076
0.000995089
0.00109337
0.00109334
0.00109335
0.00124387
0.00124381
0.00124382
0.00135778
0.00135772
0.00135773
0.000997588
0.000997567
0.000997581
0.000882064
0.000882056
0.000882068
0.000843849
0.000843849
0.000843859
0.00084873
0.000848733
0.000848742
0.000880341
0.000880345
0.000880351
0.000926472
0.000926475
0.00092648
0.000978329
0.000978331
0.000978333
0.00103069
0.00103069
0.00103069
0.00108089
0.00108088
0.00108088
0.00112717
0.00112716
0.00112716
0.00116764
0.00116764
0.00116763
0.00120034
0.00120033
0.00120033
0.00122365
0.00122365
0.00122364
0.00123636
0.00123636
0.00123635
0.00123636
0.00123635
0.00123634
0.00122363
0.00122362
0.00122362
0.0012003
0.00120029
0.00120029
0.00116759
0.00116759
0.00116759
0.00112712
0.00112712
0.00112711
0.00108083
0.00108083
0.00108082
0.00103061
0.00103061
0.00103061
0.000978261
0.000978263
0.000978265
0.000926423
0.000926426
0.000926431
0.00088032
0.000880324
0.000880331
0.000848739
0.000848743
0.000848752
0.000843885
0.000843884
0.000843895
0.000882117
0.000882107
0.000882119
0.000997654
0.00099763
0.000997644
0.00135788
0.00135782
0.00135783
0.00146043
0.00146037
0.00146038
0.000917025
0.000917009
0.000917022
0.000786977
0.000786975
0.000786986
0.000734063
0.000734068
0.000734077
0.000720004
0.000720012
0.00072002
0.00073272
0.00073273
0.000732736
0.000762766
0.000762775
0.000762778
0.000801989
0.000801996
0.000801997
0.000844423
0.000844427
0.000844427
0.00088639
0.000886392
0.000886391
0.000925504
0.000925504
0.000925501
0.000959753
0.000959751
0.000959747
0.000987356
0.000987351
0.000987348
0.00100698
0.00100698
0.00100697
0.00101766
0.00101765
0.00101765
0.00101765
0.00101765
0.00101764
0.00100696
0.00100696
0.00100696
0.000987324
0.000987319
0.000987316
0.000959714
0.000959712
0.000959709
0.000925464
0.000925464
0.000925461
0.00088634
0.000886343
0.000886342
0.000844363
0.000844368
0.000844368
0.000801931
0.000801938
0.00080194
0.000762724
0.000762733
0.000762737
0.000732702
0.000732711
0.000732718
0.000720012
0.000720021
0.000720029
0.000734096
0.000734101
0.000734111
0.000787028
0.000787025
0.000787036
0.000917095
0.000917075
0.000917089
0.00146054
0.00146047
0.00146049
0.00155035
0.00155028
0.0015503
0.000849236
0.000849223
0.000849235
0.000704688
0.000704691
0.000704701
0.00064272
0.00064273
0.000642738
0.000615093
0.000615105
0.000615112
0.000612391
0.000612404
0.000612409
0.000628156
0.000628168
0.000628171
0.000655699
0.000655709
0.000655711
0.000689005
0.000689013
0.000689013
0.000723644
0.000723649
0.000723648
0.000756582
0.000756584
0.000756583
0.000785566
0.000785566
0.000785563
0.000808884
0.000808881
0.000808878
0.000825405
0.000825399
0.000825396
0.000834365
0.000834359
0.000834356
0.00083436
0.000834354
0.000834351
0.000825389
0.000825383
0.000825381
0.000808857
0.000808854
0.000808851
0.000785534
0.000785533
0.00078553
0.000756549
0.000756551
0.000756549
0.000723603
0.000723608
0.000723607
0.000688956
0.000688964
0.000688964
0.000655651
0.000655662
0.000655663
0.000628119
0.000628132
0.000628135
0.000612374
0.000612387
0.000612393
0.0006151
0.000615113
0.00061512
0.000642751
0.000642761
0.000642769
0.000704738
0.00070474
0.000704749
0.000849307
0.000849291
0.000849304
0.00155046
0.00155039
0.00155041
0.00162824
0.00162818
0.0016282
0.000792681
0.00079267
0.000792683
0.000631835
0.000631841
0.00063185
0.000564549
0.000564562
0.000564569
0.000528113
0.000528128
0.000528134
0.000513585
0.000513601
0.000513605
0.000517118
0.000517133
0.000517135
0.000533966
0.000533979
0.00053398
0.000558746
0.000558756
0.000558756
0.000586678
0.000586685
0.000586685
0.000614159
0.000614162
0.000614161
0.000638607
0.000638608
0.000638606
0.000658273
0.000658271
0.000658269
0.000672147
0.000672143
0.000672141
0.000679644
0.000679638
0.000679636
0.00067964
0.000679634
0.000679632
0.000672135
0.00067213
0.000672128
0.000658251
0.000658248
0.000658247
0.00063858
0.000638581
0.000638579
0.000614131
0.000614135
0.000614134
0.000586643
0.000586651
0.00058665
0.000558706
0.000558716
0.000558716
0.000533927
0.00053394
0.000533941
0.000517086
0.000517101
0.000517104
0.000513569
0.000513585
0.00051359
0.000528119
0.000528134
0.000528141
0.000564577
0.00056459
0.000564598
0.000631883
0.000631888
0.000631897
0.000792751
0.000792738
0.00079275
0.00162836
0.00162829
0.00162831
0.00169648
0.00169642
0.00169644
0.000746484
0.000746476
0.000746488
0.000566461
0.000566469
0.000566478
0.000495668
0.000495683
0.00049569
0.00045429
0.000454307
0.000454313
0.000431486
0.000431504
0.000431507
0.000425128
0.000425144
0.000425146
0.000432462
0.000432477
0.000432477
0.000449267
0.000449279
0.000449279
0.000470912
0.000470921
0.000470921
0.00049342
0.000493426
0.000493425
0.000513864
0.000513866
0.000513865
0.000530359
0.000530358
0.000530356
0.000541948
0.000541945
0.000541943
0.000548179
0.000548176
0.000548174
0.000548176
0.000548172
0.00054817
0.000541938
0.000541935
0.000541933
0.00053034
0.00053034
0.000530338
0.00051384
0.000513843
0.000513841
0.000493398
0.000493404
0.000493403
0.000470884
0.000470893
0.000470893
0.000449236
0.000449248
0.000449247
0.00043243
0.000432444
0.000432445
0.000425101
0.000425117
0.000425119
0.000431472
0.00043149
0.000431494
0.000454295
0.000454313
0.000454318
0.000495694
0.000495709
0.000495716
0.000566506
0.000566514
0.000566522
0.000746552
0.000746541
0.000746553
0.0016966
0.00169653
0.00169655
0.00175813
0.00175808
0.00175809
0.000710302
0.000710297
0.000710308
0.000507708
0.000507718
0.000507726
0.000433456
0.000433471
0.000433478
0.000389865
0.000389882
0.000389887
0.000362062
0.000362079
0.000362082
0.000348386
0.000348402
0.000348404
0.000347697
0.000347711
0.000347712
0.000357183
0.000357195
0.000357195
0.00037285
0.00037286
0.00037286
0.000390675
0.000390682
0.000390681
0.000407457
0.000407461
0.00040746
0.000421127
0.000421128
0.000421127
0.000430705
0.000430705
0.000430703
0.000435828
0.000435827
0.000435825
0.000435825
0.000435824
0.000435822
0.000430697
0.000430696
0.000430695
0.000421112
0.000421113
0.000421112
0.000407438
0.000407441
0.000407441
0.000390657
0.000390664
0.000390664
0.000372827
0.000372837
0.000372837
0.000357158
0.00035717
0.000357171
0.000347671
0.000347685
0.000347686
0.000348363
0.000348379
0.000348381
0.000362049
0.000362067
0.00036207
0.000389869
0.000389887
0.000389892
0.000433479
0.000433495
0.000433501
0.000507751
0.00050776
0.000507768
0.000710365
0.000710357
0.000710368
0.00175824
0.00175818
0.0017582
0.00181588
0.00181583
0.00181585
0.000684146
0.000684142
0.000684153
0.000455498
0.000455508
0.000455515
0.000376424
0.000376439
0.000376445
0.000332085
0.000332102
0.000332106
0.000302036
0.000302053
0.000302055
0.000283707
0.000283722
0.000283724
0.000276828
0.000276841
0.000276841
0.000279891
0.000279903
0.000279903
0.000289893
0.000289903
0.000289903
0.000303176
0.000303183
0.000303183
0.000316468
0.000316472
0.000316472
0.000327526
0.000327528
0.000327527
0.000335287
0.000335288
0.000335286
0.000339419
0.00033942
0.000339418
0.000339417
0.000339418
0.000339416
0.00033528
0.000335281
0.00033528
0.000327514
0.000327516
0.000327515
0.000316452
0.000316456
0.000316456
0.000303162
0.00030317
0.00030317
0.000289875
0.000289885
0.000289885
0.000279873
0.000279884
0.000279884
0.000276807
0.00027682
0.00027682
0.000283688
0.000283703
0.000283704
0.000302025
0.000302042
0.000302045
0.000332089
0.000332106
0.00033211
0.000376445
0.000376461
0.000376467
0.000455537
0.000455547
0.000455555
0.000684201
0.000684195
0.000684206
0.00181598
0.00181593
0.00181594
0.00187121
0.00187117
0.00187119
0.000668134
0.000668131
0.000668141
0.000410212
0.000410223
0.000410229
0.000324059
0.000324074
0.000324079
0.000279261
0.000279277
0.00027928
0.000249007
0.000249021
0.000249023
0.000228573
0.000228585
0.000228586
0.000217611
0.000217622
0.000217622
0.000215481
0.00021549
0.00021549
0.000220265
0.000220274
0.000220274
0.000229074
0.000229081
0.000229081
0.000238895
0.0002389
0.000238899
0.000247425
0.000247427
0.000247427
0.000253487
0.000253489
0.000253488
0.000256716
0.000256717
0.000256716
0.000256714
0.000256716
0.000256715
0.000253482
0.000253484
0.000253483
0.000247415
0.000247418
0.000247418
0.000238882
0.000238887
0.000238887
0.000229065
0.000229072
0.000229072
0.000220252
0.000220261
0.000220261
0.000215467
0.000215476
0.000215476
0.000217594
0.000217605
0.000217605
0.000228556
0.000228568
0.000228569
0.000248996
0.000249011
0.000249013
0.000279264
0.00027928
0.000279283
0.000324078
0.000324094
0.000324099
0.000410248
0.000410259
0.000410266
0.000668179
0.000668174
0.000668184
0.0018713
0.00187125
0.00187127
0.00192398
0.00192395
0.00192396
0.000662156
0.000662154
0.000662164
0.000372455
0.000372465
0.000372471
0.000276674
0.000276688
0.000276692
0.000230861
0.000230875
0.000230877
0.000201679
0.00020169
0.000201691
0.000181353
0.000181362
0.000181362
0.000168512
0.000168519
0.000168519
0.00016274
0.000162746
0.000162746
0.000163025
0.000163031
0.000163031
0.000167493
0.000167499
0.000167499
0.000173781
0.000173786
0.000173786
0.000179766
0.00017977
0.00017977
0.000184187
0.000184189
0.000184189
0.000186573
0.000186576
0.000186575
0.000186572
0.000186575
0.000186574
0.000184184
0.000184186
0.000184186
0.00017976
0.000179763
0.000179763
0.000173772
0.000173777
0.000173777
0.000167487
0.000167493
0.000167493
0.000163016
0.000163022
0.000163022
0.000162728
0.000162734
0.000162734
0.000168496
0.000168503
0.000168503
0.000181337
0.000181346
0.000181347
0.000201668
0.00020168
0.000201681
0.000230862
0.000230875
0.000230878
0.00027669
0.000276705
0.000276709
0.000372487
0.000372498
0.000372504
0.000662191
0.000662187
0.000662197
0.00192405
0.00192401
0.00192403
0.0019723
0.00197227
0.00197229
0.000665326
0.000665325
0.000665334
0.000342926
0.000342936
0.000342941
0.000235392
0.000235404
0.000235408
0.000187724
0.000187734
0.000187737
0.000160256
0.000160263
0.000160265
0.000141697
0.000141702
0.000141702
0.000128961
0.000128964
0.000128964
0.000121254
0.000121256
0.000121256
0.000118106
0.000118108
0.000118108
0.000118651
0.000118654
0.000118654
0.000121463
0.000121467
0.000121467
0.000124904
0.000124907
0.000124907
0.000127736
0.000127739
0.000127739
0.000129341
0.000129345
0.000129345
0.000129341
0.000129344
0.000129344
0.000127733
0.000127736
0.000127736
0.0001249
0.000124903
0.000124903
0.000121458
0.000121462
0.000121462
0.000118647
0.000118651
0.000118651
0.000118099
0.000118102
0.000118102
0.000121243
0.000121245
0.000121245
0.000128946
0.000128948
0.000128948
0.00014168
0.000141685
0.000141686
0.000160244
0.000160251
0.000160253
0.000187721
0.000187732
0.000187734
0.000235405
0.000235418
0.000235422
0.000342954
0.000342964
0.00034297
0.000665352
0.000665349
0.000665357
0.00197235
0.00197232
0.00197233
0.00201233
0.00201231
0.00201232
0.000674871
0.00067487
0.000674878
0.000322378
0.000322386
0.000322391
0.000202518
0.000202527
0.000202531
0.000152537
0.000152543
0.000152546
0.000126958
0.000126959
0.000126961
0.00011099
0.00011099
0.000110991
9.96571e-05
9.96555e-05
9.96559e-05
9.14873e-05
9.14856e-05
9.14852e-05
8.62218e-05
8.62211e-05
8.62207e-05
8.37653e-05
8.37663e-05
8.37663e-05
8.36227e-05
8.36255e-05
8.36255e-05
8.4811e-05
8.48146e-05
8.48147e-05
8.6252e-05
8.6256e-05
8.6256e-05
8.71985e-05
8.72026e-05
8.72027e-05
8.71981e-05
8.72022e-05
8.72023e-05
8.62509e-05
8.62549e-05
8.62549e-05
8.48095e-05
8.48131e-05
8.48131e-05
8.36212e-05
8.3624e-05
8.3624e-05
8.37632e-05
8.37642e-05
8.37642e-05
8.62162e-05
8.62153e-05
8.62149e-05
9.1475e-05
9.14731e-05
9.14727e-05
9.96389e-05
9.96378e-05
9.96376e-05
0.000110971
0.00011097
0.000110972
0.000126941
0.000126944
0.000126946
0.00015253
0.000152537
0.000152539
0.000202527
0.000202537
0.00020254
0.000322402
0.00032241
0.000322415
0.000674889
0.000674886
0.000674894
0.00201237
0.00201234
0.00201236
0.00203759
0.00203756
0.00203758
0.000684505
0.000684504
0.000684511
0.000311545
0.000311552
0.000311556
0.000182428
0.000182435
0.000182438
0.000130634
0.000130636
0.000130639
0.000106502
0.000106501
0.000106503
9.26629e-05
9.26602e-05
9.26614e-05
8.27882e-05
8.27845e-05
8.27847e-05
7.48768e-05
7.48726e-05
7.48724e-05
6.87151e-05
6.8712e-05
6.87118e-05
6.4634e-05
6.46334e-05
6.46333e-05
6.27317e-05
6.27337e-05
6.27337e-05
6.25154e-05
6.25191e-05
6.25191e-05
6.30822e-05
6.30866e-05
6.30867e-05
6.36205e-05
6.36254e-05
6.36254e-05
6.36203e-05
6.36251e-05
6.36252e-05
6.30817e-05
6.30861e-05
6.30862e-05
6.25153e-05
6.2519e-05
6.2519e-05
6.2732e-05
6.2734e-05
6.27341e-05
6.4632e-05
6.46313e-05
6.46312e-05
6.87089e-05
6.87055e-05
6.87054e-05
7.48624e-05
7.4858e-05
7.48578e-05
8.27677e-05
8.27639e-05
8.27641e-05
9.26409e-05
9.26383e-05
9.26395e-05
0.000106484
0.000106482
0.000106485
0.000130624
0.000130627
0.00013063
0.000182434
0.000182442
0.000182445
0.000311565
0.000311572
0.000311577
0.000684519
0.000684515
0.000684522
0.00203761
0.00203759
0.0020376
)
;

boundaryField
{
    freeSurface
    {
        type            slip;
    }
    inlet
    {
        type            cyclic;
    }
    outlet
    {
        type            cyclic;
    }
    sidewalls
    {
        type            epsilonWallFunction;
        Cmu             0.09;
        kappa           0.41;
        E               9.8;
        value           nonuniform List<scalar> 
144
(
0.00174998
0.00023226
0.000293715
0.000364577
0.000445572
0.000537165
0.000639326
0.00075125
0.000871113
0.000995935
0.00112169
0.00124378
0.00135778
0.00146043
0.00155035
0.00162824
0.00169648
0.00175813
0.00181588
0.00187121
0.00192398
0.0019723
0.00201233
0.00203759
0.00174993
0.000232251
0.000293705
0.000364564
0.000445555
0.000537144
0.000639299
0.000751218
0.000871074
0.00099589
0.00112164
0.00124372
0.00135772
0.00146037
0.00155028
0.00162818
0.00169642
0.00175808
0.00181583
0.00187117
0.00192395
0.00197227
0.00201231
0.00203756
0.00174996
0.000232256
0.00029371
0.00036457
0.000445562
0.000537151
0.000639307
0.000751226
0.000871083
0.0009959
0.00112165
0.00124373
0.00135773
0.00146038
0.0015503
0.0016282
0.00169644
0.00175809
0.00181585
0.00187119
0.00192396
0.00197229
0.00201232
0.00203758
0.00175008
0.000232277
0.000293735
0.000364602
0.000445602
0.000537201
0.000639369
0.000751301
0.000871174
0.000996006
0.00112177
0.00124387
0.00135788
0.00146054
0.00155046
0.00162836
0.0016966
0.00175824
0.00181598
0.0018713
0.00192405
0.00197235
0.00201237
0.00203761
0.00175003
0.000232268
0.000293724
0.000364588
0.000445584
0.000537179
0.00063934
0.000751267
0.000871133
0.000995958
0.00112172
0.00124381
0.00135782
0.00146047
0.00155039
0.00162829
0.00169653
0.00175818
0.00181593
0.00187125
0.00192401
0.00197232
0.00201234
0.00203759
0.00175005
0.000232272
0.000293729
0.000364593
0.00044559
0.000537185
0.000639347
0.000751274
0.00087114
0.000995966
0.00112173
0.00124382
0.00135783
0.00146049
0.00155041
0.00162831
0.00169655
0.0017582
0.00181594
0.00187127
0.00192403
0.00197233
0.00201236
0.0020376
)
;
    }
    noSlipWalls
    {
        type            epsilonWallFunction;
        Cmu             0.09;
        kappa           0.41;
        E               9.8;
        value           nonuniform List<scalar> 
90
(
0.00174998
0.00816531
0.00977358
0.0109719
0.0119488
0.0127746
0.0134972
0.0141525
0.0147646
0.0153431
0.0158811
0.0163573
0.0167455
0.0170236
0.0171753
0.0171752
0.0170233
0.0167451
0.0163568
0.0158804
0.0153424
0.0147638
0.0141517
0.0134966
0.0127744
0.011949
0.0109723
0.00977398
0.00816543
0.00175008
0.00174993
0.0081649
0.00977314
0.0109715
0.0119484
0.0127742
0.0134968
0.0141522
0.0147644
0.015343
0.015881
0.0163573
0.0167456
0.0170236
0.0171754
0.0171753
0.0170233
0.0167451
0.0163567
0.0158804
0.0153423
0.0147635
0.0141514
0.0134963
0.012774
0.0119486
0.0109719
0.00977352
0.00816501
0.00175003
0.00174996
0.00816491
0.00977317
0.0109716
0.0119485
0.0127742
0.0134969
0.0141522
0.0147644
0.0153429
0.0158809
0.0163572
0.0167455
0.0170236
0.0171753
0.0171752
0.0170233
0.016745
0.0163566
0.0158803
0.0153422
0.0147635
0.0141514
0.0134963
0.012774
0.0119486
0.0109719
0.00977354
0.008165
0.00175005
)
;
    }
}


// ************************************************************************* //
