/*--------------------------------*- C++ -*----------------------------------*\
  =========                 |
  \\      /  F ield         | OpenFOAM: The Open Source CFD Toolbox
   \\    /   O peration     | Website:  https://openfoam.org
    \\  /    A nd           | Version:  6
     \\/     M anipulation  |
\*---------------------------------------------------------------------------*/
FoamFile
{
    version     2.0;
    format      ascii;
    class       volScalarField;
    location    "140";
    object      k;
}
// * * * * * * * * * * * * * * * * * * * * * * * * * * * * * * * * * * * * * //

dimensions      [0 2 -2 0 0 0 0];

internalField   nonuniform List<scalar> 
2160
(
0.000159313
0.000159309
0.000159311
0.000387031
0.000387012
0.000387012
0.000463264
0.000463243
0.000463244
0.000520067
0.000520045
0.000520047
0.000566371
0.00056635
0.000566353
0.000605508
0.000605489
0.000605491
0.000639755
0.000639738
0.00063974
0.000670811
0.000670796
0.000670796
0.00069982
0.000699808
0.000699807
0.000727236
0.000727229
0.000727227
0.000752729
0.000752725
0.000752722
0.000775299
0.000775297
0.000775294
0.000793698
0.000793699
0.000793696
0.000806873
0.000806876
0.000806873
0.000814063
0.000814067
0.000814064
0.000814059
0.000814063
0.000814059
0.00080686
0.000806863
0.00080686
0.000793676
0.000793677
0.000793674
0.000775273
0.000775272
0.000775268
0.000752699
0.000752696
0.000752692
0.000727203
0.000727196
0.000727194
0.00069978
0.000699768
0.000699767
0.000670772
0.000670758
0.000670758
0.000639729
0.000639712
0.000639713
0.0006055
0.00060548
0.000605483
0.00056638
0.000566359
0.000566361
0.000520086
0.000520064
0.000520066
0.000463282
0.00046326
0.000463261
0.000387036
0.000387017
0.000387015
0.000159322
0.000159317
0.000159319
0.000224425
0.000224419
0.000224422
0.000895206
0.000895179
0.000895179
0.00102903
0.001029
0.001029
0.00112331
0.00112328
0.00112328
0.00119707
0.00119705
0.00119705
0.00125763
0.00125761
0.00125761
0.00130948
0.00130945
0.00130946
0.00135568
0.00135566
0.00135566
0.00139824
0.00139823
0.00139823
0.00143801
0.001438
0.001438
0.00147463
0.00147463
0.00147462
0.00150681
0.0015068
0.0015068
0.00153288
0.00153288
0.00153287
0.00155145
0.00155146
0.00155145
0.00156156
0.00156156
0.00156156
0.00156155
0.00156156
0.00156155
0.00155143
0.00155144
0.00155143
0.00153284
0.00153285
0.00153284
0.00150677
0.00150677
0.00150676
0.00147459
0.00147458
0.00147458
0.00143796
0.00143795
0.00143795
0.00139819
0.00139817
0.00139817
0.00135563
0.00135561
0.00135561
0.00130943
0.00130941
0.00130941
0.00125761
0.00125759
0.00125759
0.00119708
0.00119705
0.00119706
0.00112333
0.0011233
0.0011233
0.00102905
0.00102902
0.00102902
0.000895211
0.000895183
0.000895182
0.000224436
0.00022443
0.000224432
0.000262445
0.000262439
0.000262441
0.000975417
0.000975382
0.000975381
0.00110399
0.00110396
0.00110396
0.00120024
0.0012002
0.00120021
0.00127746
0.00127742
0.00127743
0.00134167
0.00134164
0.00134164
0.00139705
0.00139702
0.00139702
0.00144664
0.00144661
0.00144661
0.00149244
0.00149243
0.00149242
0.00153532
0.0015353
0.0015353
0.00157484
0.00157484
0.00157483
0.00160958
0.00160957
0.00160957
0.00163772
0.00163772
0.00163772
0.00165778
0.00165779
0.00165778
0.0016687
0.00166871
0.0016687
0.00166869
0.0016687
0.00166869
0.00165776
0.00165777
0.00165776
0.00163769
0.00163769
0.00163768
0.00160954
0.00160953
0.00160953
0.00157479
0.00157479
0.00157478
0.00153527
0.00153525
0.00153525
0.00149238
0.00149236
0.00149236
0.00144658
0.00144655
0.00144655
0.00139701
0.00139698
0.00139698
0.00134166
0.00134163
0.00134163
0.00127747
0.00127744
0.00127744
0.00120027
0.00120024
0.00120024
0.00110402
0.00110398
0.00110398
0.000975425
0.000975389
0.000975386
0.000262457
0.00026245
0.000262453
0.000303119
0.000303112
0.000303115
0.00101921
0.00101916
0.00101916
0.00113513
0.00113509
0.00113509
0.00122792
0.00122787
0.00122787
0.00130457
0.00130453
0.00130453
0.00136931
0.00136927
0.00136927
0.00142564
0.00142561
0.00142561
0.00147636
0.00147634
0.00147633
0.00152338
0.00152335
0.00152335
0.00156746
0.00156745
0.00156745
0.00160815
0.00160814
0.00160814
0.00164391
0.00164391
0.00164391
0.00167289
0.00167289
0.00167289
0.00169355
0.00169356
0.00169355
0.0017048
0.00170481
0.0017048
0.00170479
0.0017048
0.0017048
0.00169353
0.00169354
0.00169353
0.00167286
0.00167286
0.00167285
0.00164388
0.00164387
0.00164387
0.0016081
0.0016081
0.00160809
0.00156741
0.0015674
0.00156739
0.00152331
0.00152329
0.00152329
0.0014763
0.00147627
0.00147627
0.00142561
0.00142557
0.00142557
0.0013693
0.00136926
0.00136927
0.0013046
0.00130456
0.00130456
0.00122796
0.00122791
0.00122792
0.00113517
0.00113513
0.00113513
0.00101922
0.00101917
0.00101917
0.000303133
0.000303124
0.000303127
0.000346496
0.000346487
0.00034649
0.00105215
0.00105211
0.0010521
0.00115281
0.00115276
0.00115276
0.00123915
0.0012391
0.0012391
0.00131312
0.00131308
0.00131308
0.00137688
0.00137684
0.00137684
0.00143306
0.00143302
0.00143302
0.00148402
0.00148398
0.00148398
0.00153146
0.00153143
0.00153143
0.00157606
0.00157604
0.00157604
0.00161727
0.00161726
0.00161726
0.0016535
0.0016535
0.00165349
0.00168286
0.00168286
0.00168285
0.00170379
0.0017038
0.00170379
0.00171519
0.0017152
0.0017152
0.00171519
0.00171519
0.00171519
0.00170377
0.00170378
0.00170377
0.00168282
0.00168282
0.00168282
0.00165346
0.00165346
0.00165345
0.00161722
0.00161722
0.00161721
0.00157601
0.00157599
0.00157598
0.00153139
0.00153136
0.00153136
0.00148395
0.00148392
0.00148392
0.00143303
0.00143299
0.00143299
0.00137689
0.00137685
0.00137685
0.00131316
0.00131312
0.00131312
0.0012392
0.00123915
0.00123915
0.00115286
0.00115281
0.0011528
0.00105217
0.00105212
0.00105212
0.000346511
0.000346502
0.000346505
0.000392487
0.000392476
0.000392479
0.00108045
0.00108039
0.00108039
0.00116566
0.0011656
0.0011656
0.00124339
0.00124334
0.00124334
0.00131299
0.00131294
0.00131294
0.00137464
0.0013746
0.0013746
0.00142989
0.00142985
0.00142985
0.00148054
0.0014805
0.0014805
0.00152799
0.00152796
0.00152796
0.00157276
0.00157274
0.00157273
0.00161419
0.00161418
0.00161417
0.00165062
0.00165062
0.00165061
0.00168013
0.00168014
0.00168013
0.00170118
0.00170119
0.00170119
0.00171266
0.00171267
0.00171266
0.00171265
0.00171266
0.00171266
0.00170116
0.00170117
0.00170117
0.0016801
0.0016801
0.0016801
0.00165058
0.00165058
0.00165057
0.00161414
0.00161413
0.00161412
0.0015727
0.00157269
0.00157268
0.00152792
0.00152789
0.00152789
0.00148048
0.00148044
0.00148044
0.00142986
0.00142982
0.00142982
0.00137466
0.00137461
0.00137461
0.00131305
0.00131299
0.001313
0.00124346
0.00124341
0.00124341
0.00116572
0.00116566
0.00116566
0.00108047
0.00108041
0.00108041
0.000392504
0.000392493
0.000392495
0.000440793
0.00044078
0.000440783
0.00110548
0.00110542
0.00110542
0.00117695
0.00117689
0.00117689
0.00124448
0.00124442
0.00124442
0.0013081
0.00130804
0.00130804
0.00136652
0.00136646
0.00136646
0.00142013
0.00142008
0.00142008
0.00147001
0.00146997
0.00146997
0.00151717
0.00151714
0.00151713
0.00156188
0.00156186
0.00156185
0.00160335
0.00160334
0.00160333
0.00163983
0.00163983
0.00163982
0.00166938
0.00166938
0.00166938
0.00169046
0.00169047
0.00169047
0.00170196
0.00170197
0.00170196
0.00170195
0.00170196
0.00170196
0.00169044
0.00169045
0.00169045
0.00166935
0.00166935
0.00166934
0.00163979
0.00163979
0.00163978
0.0016033
0.00160329
0.00160328
0.00156182
0.0015618
0.0015618
0.0015171
0.00151707
0.00151706
0.00146995
0.00146991
0.00146991
0.0014201
0.00142005
0.00142005
0.00136654
0.00136649
0.00136649
0.00130817
0.00130811
0.00130811
0.00124456
0.0012445
0.0012445
0.00117703
0.00117696
0.00117696
0.00110551
0.00110545
0.00110544
0.000440812
0.000440799
0.000440801
0.000490843
0.000490829
0.000490832
0.00112696
0.0011269
0.00112689
0.00118792
0.00118785
0.00118785
0.00124427
0.00124421
0.00124421
0.00130036
0.00130029
0.0013003
0.00135432
0.00135427
0.00135427
0.00140551
0.00140546
0.00140546
0.00145416
0.00145412
0.00145412
0.00150074
0.00150071
0.0015007
0.00154521
0.00154518
0.00154518
0.00158658
0.00158657
0.00158656
0.00162302
0.00162301
0.001623
0.00165252
0.00165253
0.00165252
0.00167358
0.00167359
0.00167359
0.00168507
0.00168508
0.00168508
0.00168506
0.00168508
0.00168507
0.00167356
0.00167357
0.00167357
0.00165249
0.00165249
0.00165249
0.00162298
0.00162298
0.00162297
0.00158653
0.00158652
0.00158651
0.00154515
0.00154513
0.00154512
0.00150067
0.00150063
0.00150063
0.0014541
0.00145406
0.00145405
0.00140549
0.00140544
0.00140544
0.00135436
0.0013543
0.0013543
0.00130044
0.00130037
0.00130038
0.00124437
0.00124431
0.00124431
0.00118801
0.00118794
0.00118793
0.00112699
0.00112693
0.00112692
0.000490864
0.000490849
0.000490852
0.000541755
0.000541738
0.000541742
0.00114388
0.00114382
0.00114381
0.00119871
0.00119864
0.00119864
0.00124373
0.00124366
0.00124366
0.00129085
0.00129079
0.00129079
0.00133904
0.00133898
0.00133898
0.00138687
0.00138682
0.00138682
0.00143373
0.00143368
0.00143368
0.00147941
0.00147938
0.00147937
0.00152345
0.00152343
0.00152342
0.00156462
0.00156461
0.0015646
0.00160093
0.00160092
0.00160091
0.00163033
0.00163034
0.00163033
0.00165132
0.00165133
0.00165132
0.00166277
0.00166279
0.00166278
0.00166277
0.00166278
0.00166277
0.0016513
0.00165131
0.0016513
0.0016303
0.0016303
0.00163029
0.00160089
0.00160089
0.00160088
0.00156458
0.00156457
0.00156455
0.0015234
0.00152338
0.00152337
0.00147934
0.0014793
0.0014793
0.00143367
0.00143362
0.00143362
0.00138685
0.0013868
0.0013868
0.00133908
0.00133902
0.00133902
0.00129095
0.00129088
0.00129088
0.00124385
0.00124377
0.00124378
0.00119881
0.00119874
0.00119874
0.00114392
0.00114386
0.00114385
0.000541779
0.000541762
0.000541764
0.000592344
0.000592326
0.000592329
0.00115505
0.00115498
0.00115498
0.00120877
0.00120869
0.00120869
0.00124322
0.00124314
0.00124315
0.00128026
0.00128019
0.0012802
0.00132125
0.00132118
0.00132119
0.00136463
0.00136457
0.00136458
0.001409
0.00140895
0.00140895
0.00145339
0.00145336
0.00145335
0.0014968
0.00149677
0.00149677
0.00153764
0.00153763
0.00153762
0.00157373
0.00157373
0.00157372
0.00160298
0.00160299
0.00160298
0.00162386
0.00162387
0.00162386
0.00163526
0.00163527
0.00163526
0.00163525
0.00163527
0.00163526
0.00162384
0.00162385
0.00162384
0.00160295
0.00160295
0.00160294
0.0015737
0.00157369
0.00157368
0.00153759
0.00153758
0.00153757
0.00149674
0.00149672
0.00149671
0.00145332
0.00145328
0.00145327
0.00140893
0.00140889
0.00140889
0.00136461
0.00136456
0.00136456
0.00132129
0.00132123
0.00132124
0.00128037
0.0012803
0.0012803
0.00124335
0.00124328
0.00124328
0.00120888
0.0012088
0.0012088
0.0011551
0.00115503
0.00115502
0.000592371
0.000592352
0.000592354
0.000641214
0.000641194
0.000641197
0.00115933
0.00115927
0.00115926
0.00121693
0.00121686
0.00121686
0.00124259
0.00124252
0.00124253
0.00126894
0.00126887
0.00126888
0.00130134
0.00130127
0.00130128
0.001339
0.00133894
0.00133895
0.00138002
0.00137997
0.00137997
0.00142262
0.00142258
0.00142258
0.00146512
0.00146509
0.00146508
0.00150549
0.00150547
0.00150546
0.00154129
0.00154128
0.00154127
0.00157032
0.00157032
0.00157031
0.00159105
0.00159106
0.00159105
0.00160237
0.00160238
0.00160237
0.00160236
0.00160237
0.00160237
0.00159103
0.00159104
0.00159103
0.00157029
0.00157029
0.00157028
0.00154125
0.00154125
0.00154123
0.00150544
0.00150543
0.00150542
0.00146506
0.00146504
0.00146503
0.00142254
0.0014225
0.0014225
0.00137995
0.0013799
0.0013799
0.00133898
0.00133893
0.00133893
0.00130139
0.00130133
0.00130134
0.00126906
0.00126899
0.001269
0.00124274
0.00124266
0.00124267
0.00121706
0.00121698
0.00121698
0.00115939
0.00115932
0.00115932
0.000641244
0.000641223
0.000641225
0.000686935
0.000686914
0.000686917
0.00115593
0.00115586
0.00115586
0.00122162
0.00122154
0.00122155
0.0012412
0.00124112
0.00124113
0.00125694
0.00125687
0.00125688
0.00127955
0.00127948
0.00127949
0.0013101
0.00131005
0.00131005
0.00134671
0.00134666
0.00134666
0.00138686
0.00138682
0.00138682
0.0014281
0.00142807
0.00142806
0.0014678
0.00146779
0.00146778
0.00150321
0.0015032
0.00150319
0.00153196
0.00153196
0.00153195
0.00155249
0.0015525
0.00155249
0.0015637
0.00156371
0.0015637
0.0015637
0.00156371
0.0015637
0.00155247
0.00155248
0.00155247
0.00153192
0.00153193
0.00153192
0.00150317
0.00150316
0.00150315
0.00146776
0.00146775
0.00146773
0.00142804
0.00142802
0.00142801
0.00138678
0.00138674
0.00138674
0.00134664
0.00134659
0.00134659
0.00131009
0.00131003
0.00131004
0.00127961
0.00127954
0.00127956
0.00125708
0.001257
0.00125701
0.00124136
0.00124128
0.00124129
0.00122176
0.00122168
0.00122168
0.001156
0.00115593
0.00115592
0.000686968
0.000686945
0.000686948
0.000728294
0.000728272
0.000728276
0.00114448
0.00114442
0.00114442
0.00122096
0.00122088
0.00122088
0.00123782
0.00123774
0.00123775
0.00124393
0.00124386
0.00124388
0.00125595
0.00125589
0.0012559
0.00127799
0.00127793
0.00127794
0.00130893
0.00130888
0.00130889
0.0013458
0.00134576
0.00134576
0.00138529
0.00138527
0.00138526
0.00142409
0.00142407
0.00142406
0.00145895
0.00145894
0.00145893
0.00148733
0.00148733
0.00148732
0.00150762
0.00150762
0.00150761
0.00151869
0.0015187
0.00151869
0.00151869
0.00151869
0.00151868
0.0015076
0.00150761
0.0015076
0.0014873
0.0014873
0.00148729
0.00145892
0.00145891
0.0014589
0.00142404
0.00142403
0.00142402
0.00138524
0.00138522
0.00138521
0.00134572
0.00134568
0.00134568
0.00130886
0.00130881
0.00130882
0.00127798
0.00127792
0.00127793
0.00125602
0.00125596
0.00125597
0.00124408
0.001244
0.00124402
0.001238
0.00123792
0.00123793
0.00122111
0.00122103
0.00122103
0.00114456
0.00114449
0.00114449
0.00072833
0.000728307
0.00072831
0.000764554
0.000764532
0.000764536
0.00112522
0.00112516
0.00112516
0.001213
0.00121292
0.00121293
0.00123074
0.00123066
0.00123067
0.00122909
0.00122902
0.00122904
0.00123037
0.0012303
0.00123032
0.00124264
0.00124258
0.0012426
0.00126652
0.00126647
0.00126648
0.00129906
0.00129902
0.00129902
0.00133617
0.00133615
0.00133614
0.0013737
0.00137369
0.00137367
0.00140784
0.00140783
0.00140782
0.00143574
0.00143574
0.00143573
0.0014557
0.0014557
0.00145569
0.0014666
0.0014666
0.00146659
0.00146659
0.0014666
0.00146659
0.00145568
0.00145569
0.00145568
0.00143571
0.00143571
0.0014357
0.0014078
0.0014078
0.00140778
0.00137366
0.00137365
0.00137363
0.00133612
0.0013361
0.00133609
0.00129898
0.00129894
0.00129894
0.00126645
0.0012664
0.00126641
0.00124263
0.00124257
0.00124259
0.00123044
0.00123038
0.00123039
0.00122925
0.00122917
0.00122919
0.00123093
0.00123085
0.00123086
0.00121316
0.00121308
0.00121308
0.00112531
0.00112524
0.00112524
0.000764591
0.000764568
0.000764572
0.000795622
0.0007956
0.000795605
0.00109898
0.00109891
0.00109891
0.00119601
0.00119593
0.00119594
0.0012178
0.00121772
0.00121774
0.00121105
0.00121098
0.001211
0.00120225
0.00120219
0.00120221
0.0012039
0.00120384
0.00120386
0.0012193
0.00121926
0.00121926
0.00124626
0.00124622
0.00124622
0.00128015
0.00128012
0.00128012
0.00131592
0.00131591
0.0013159
0.00134907
0.00134906
0.00134904
0.00137634
0.00137634
0.00137633
0.00139588
0.00139588
0.00139587
0.00140654
0.00140655
0.00140653
0.00140654
0.00140654
0.00140653
0.00139586
0.00139586
0.00139585
0.00137631
0.00137631
0.0013763
0.00134903
0.00134903
0.00134901
0.00131588
0.00131587
0.00131586
0.00128009
0.00128007
0.00128006
0.00124617
0.00124614
0.00124614
0.00121923
0.00121918
0.00121919
0.00120389
0.00120383
0.00120385
0.00120233
0.00120227
0.00120229
0.00121121
0.00121114
0.00121116
0.001218
0.00121792
0.00121793
0.00119618
0.0011961
0.00119611
0.00109907
0.001099
0.001099
0.000795661
0.000795638
0.000795641
0.000822053
0.000822033
0.000822038
0.00106715
0.00106709
0.00106709
0.00116876
0.00116868
0.00116869
0.00119663
0.00119655
0.00119657
0.00118785
0.00118779
0.00118781
0.00117057
0.00117051
0.00117053
0.00116139
0.00116134
0.00116136
0.00116707
0.00116702
0.00116703
0.00118703
0.001187
0.001187
0.00121663
0.0012166
0.0012166
0.00124998
0.00124997
0.00124995
0.00128175
0.00128174
0.00128173
0.00130817
0.00130817
0.00130816
0.00132716
0.00132716
0.00132715
0.00133752
0.00133753
0.00133751
0.00133752
0.00133752
0.00133751
0.00132714
0.00132715
0.00132713
0.00130814
0.00130814
0.00130813
0.00128171
0.00128171
0.00128169
0.00124994
0.00124993
0.00124992
0.00121657
0.00121655
0.00121655
0.00118695
0.00118691
0.00118692
0.001167
0.00116695
0.00116696
0.00116138
0.00116133
0.00116135
0.00117066
0.0011706
0.00117062
0.00118803
0.00118796
0.00118798
0.00119684
0.00119676
0.00119677
0.00116894
0.00116886
0.00116887
0.00106726
0.00106719
0.00106719
0.000822092
0.00082207
0.000822074
0.000844864
0.000844844
0.000844849
0.00103162
0.00103156
0.00103156
0.00113078
0.00113071
0.00113072
0.00116494
0.00116487
0.00116489
0.0011571
0.00115703
0.00115706
0.00113375
0.00113369
0.00113372
0.00111444
0.00111439
0.00111441
0.00110958
0.00110954
0.00110955
0.00112112
0.00112109
0.00112109
0.0011451
0.00114508
0.00114507
0.00117511
0.0011751
0.00117509
0.00120496
0.00120495
0.00120494
0.00123022
0.00123022
0.0012302
0.00124848
0.00124848
0.00124846
0.00125845
0.00125845
0.00125844
0.00125845
0.00125845
0.00125844
0.00124846
0.00124846
0.00124845
0.00123019
0.00123019
0.00123018
0.00120492
0.00120492
0.0012049
0.00117507
0.00117506
0.00117505
0.00114504
0.00114503
0.00114502
0.00112103
0.001121
0.00112101
0.00110951
0.00110947
0.00110948
0.00111443
0.00111438
0.0011144
0.00113384
0.00113378
0.00113381
0.00115728
0.00115721
0.00115724
0.00116515
0.00116508
0.0011651
0.00113097
0.00113089
0.0011309
0.00103172
0.00103166
0.00103166
0.000844901
0.000844881
0.000844885
0.000865208
0.000865191
0.000865196
0.000994502
0.000994445
0.000994451
0.00108253
0.00108246
0.00108248
0.00112093
0.00112087
0.00112089
0.00111616
0.0011161
0.00111613
0.00108968
0.00108963
0.00108966
0.00106197
0.00106192
0.00106194
0.00104656
0.00104652
0.00104653
0.00104844
0.00104841
0.00104841
0.00106529
0.00106527
0.00106526
0.00109073
0.00109072
0.00109071
0.00111786
0.00111785
0.00111784
0.0011415
0.0011415
0.00114149
0.00115878
0.00115878
0.00115877
0.00116825
0.00116825
0.00116824
0.00116825
0.00116825
0.00116824
0.00115877
0.00115877
0.00115876
0.00114148
0.00114148
0.00114146
0.00111783
0.00111782
0.00111781
0.0010907
0.00109069
0.00109068
0.00106523
0.00106521
0.00106521
0.00104835
0.00104832
0.00104833
0.00104648
0.00104644
0.00104646
0.00106196
0.00106192
0.00106194
0.00108978
0.00108973
0.00108975
0.00111635
0.00111629
0.00111631
0.00112115
0.00112108
0.0011211
0.00108272
0.00108265
0.00108266
0.000994608
0.000994548
0.000994553
0.000865244
0.000865225
0.00086523
0.00088405
0.000884034
0.00088404
0.000958004
0.000957951
0.000957959
0.00102544
0.00102538
0.00102539
0.00106372
0.00106366
0.00106368
0.00106269
0.00106264
0.00106266
0.00103604
0.001036
0.00103602
0.00100263
0.00100259
0.00100261
0.000977731
0.000977698
0.000977714
0.000969283
0.000969256
0.000969264
0.000977413
0.000977396
0.000977395
0.000996723
0.000996712
0.000996705
0.00102
0.00101999
0.00101998
0.00104135
0.00104134
0.00104133
0.00105728
0.00105728
0.00105727
0.00106609
0.00106609
0.00106607
0.00106609
0.00106609
0.00106607
0.00105727
0.00105727
0.00105726
0.00104132
0.00104132
0.00104131
0.00101997
0.00101997
0.00101996
0.00099669
0.000996679
0.000996672
0.000977357
0.00097734
0.000977339
0.000969193
0.000969166
0.000969175
0.000977653
0.00097762
0.000977638
0.00100263
0.00100259
0.00100261
0.00103614
0.00103609
0.00103612
0.00106288
0.00106282
0.00106285
0.00106394
0.00106388
0.0010639
0.00102563
0.00102556
0.00102558
0.000958106
0.000958051
0.000958056
0.000884082
0.000884065
0.00088407
0.000901917
0.000901903
0.000901909
0.000924258
0.00092421
0.000924218
0.000961874
0.000961817
0.000961832
0.000993757
0.000993701
0.000993725
0.000995291
0.000995241
0.000995269
0.000970898
0.000970855
0.000970885
0.000935238
0.000935202
0.000935228
0.00090319
0.000903161
0.000903179
0.000884692
0.000884668
0.000884678
0.000882741
0.000882725
0.000882726
0.000894023
0.000894013
0.000894008
0.000911888
0.000911881
0.000911873
0.000929954
0.000929952
0.000929941
0.000944038
0.000944036
0.000944025
0.000951962
0.000951961
0.000951949
0.000951961
0.00095196
0.000951947
0.00094403
0.000944029
0.000944017
0.000929935
0.000929932
0.000929921
0.000911862
0.000911856
0.000911847
0.000893991
0.000893981
0.000893975
0.00088268
0.000882664
0.000882665
0.000884593
0.00088457
0.00088458
0.000903106
0.000903077
0.000903097
0.000935233
0.000935197
0.000935224
0.000971
0.000970955
0.000970986
0.000995478
0.000995426
0.000995455
0.000993976
0.000993917
0.000993939
0.00096206
0.000961999
0.000962013
0.000924351
0.000924302
0.000924307
0.000901944
0.000901929
0.000901934
0.000918793
0.000918781
0.000918787
0.000895308
0.000895266
0.000895273
0.000895242
0.000895191
0.000895207
0.000913381
0.000913332
0.000913355
0.000914614
0.000914571
0.000914599
0.000893967
0.00089393
0.00089396
0.000859816
0.000859785
0.000859812
0.00082416
0.000824135
0.000824155
0.000797198
0.000797179
0.000797191
0.000784489
0.000784475
0.000784477
0.00078579
0.00078578
0.000785777
0.00079627
0.000796264
0.000796257
0.000809714
0.000809711
0.000809702
0.000821247
0.000821246
0.000821235
0.000828015
0.000828015
0.000828004
0.000828015
0.000828014
0.000828003
0.000821241
0.00082124
0.00082123
0.000809698
0.000809695
0.000809686
0.000796247
0.000796241
0.000796234
0.000785755
0.000785746
0.000785743
0.000784415
0.000784402
0.000784405
0.000797085
0.000797067
0.000797078
0.000824065
0.00082404
0.000824062
0.000859805
0.000859773
0.000859801
0.000894065
0.000894026
0.000894057
0.000914798
0.000914751
0.00091478
0.000913594
0.000913542
0.000913565
0.00089542
0.000895365
0.000895379
0.00089539
0.000895346
0.000895351
0.000918815
0.000918802
0.000918807
0.000934109
0.000934099
0.000934104
0.000873063
0.000873027
0.000873034
0.000830423
0.00083038
0.000830396
0.000827902
0.00082786
0.000827884
0.000825165
0.000825128
0.000825157
0.00080881
0.000808778
0.000808808
0.000779648
0.000779622
0.00077965
0.000744591
0.00074457
0.000744593
0.000712087
0.000712073
0.000712087
0.000689227
0.000689217
0.000689222
0.000679244
0.000679236
0.000679235
0.000680417
0.000680412
0.000680407
0.000687744
0.000687741
0.000687734
0.000695933
0.000695931
0.000695923
0.000701247
0.000701246
0.000701237
0.000701247
0.000701246
0.000701236
0.000695929
0.000695927
0.000695919
0.000687732
0.00068773
0.000687723
0.000680397
0.000680391
0.000680387
0.000679203
0.000679195
0.000679194
0.000689132
0.000689122
0.000689128
0.000711949
0.000711935
0.00071195
0.000744477
0.000744457
0.000744481
0.000779625
0.000779598
0.000779628
0.000808899
0.000808865
0.000808897
0.00082534
0.0008253
0.00082533
0.000828107
0.000828061
0.000828085
0.000830589
0.000830542
0.000830556
0.000873131
0.000873094
0.000873098
0.000934126
0.000934115
0.000934119
0.000946704
0.000946696
0.000946701
0.000858865
0.000858835
0.000858841
0.000774749
0.000774712
0.000774728
0.000747887
0.000747852
0.000747876
0.000738459
0.000738428
0.000738458
0.000726281
0.000726256
0.000726288
0.000704343
0.000704323
0.000704354
0.000673413
0.000673399
0.000673425
0.000638881
0.000638872
0.00063889
0.00060819
0.000608183
0.000608193
0.000587564
0.000587558
0.00058756
0.000578928
0.000578922
0.000578921
0.000579421
0.000579417
0.000579413
0.000583844
0.000583842
0.000583835
0.000587567
0.000587565
0.000587557
0.000587567
0.000587564
0.000587557
0.000583842
0.000583839
0.000583833
0.000579414
0.00057941
0.000579405
0.000578908
0.000578903
0.000578901
0.000587509
0.000587504
0.000587506
0.000608063
0.000608057
0.000608067
0.000638711
0.000638702
0.000638721
0.000673275
0.000673262
0.000673289
0.000704303
0.000704283
0.000704315
0.000726358
0.000726331
0.000726364
0.000738624
0.000738591
0.000738621
0.000748083
0.000748044
0.000748067
0.000774902
0.000774862
0.000774875
0.000858921
0.00085889
0.000858893
0.000946716
0.000946707
0.000946712
0.000954606
0.000954598
0.000954603
0.000852518
0.000852492
0.000852497
0.000739261
0.000739229
0.000739244
0.000692926
0.000692895
0.00069292
0.000677449
0.000677422
0.000677453
0.000668387
0.000668367
0.0006684
0.000652724
0.00065271
0.000652743
0.000626407
0.000626399
0.000626427
0.000592196
0.000592192
0.000592214
0.000557301
0.000557299
0.000557312
0.000529736
0.000529733
0.000529739
0.000514101
0.000514095
0.000514096
0.00050946
0.000509455
0.000509452
0.000511007
0.000511001
0.000510997
0.000513526
0.000513521
0.000513515
0.000513526
0.00051352
0.000513515
0.000511005
0.000511
0.000510995
0.000509455
0.000509449
0.000509447
0.000514079
0.000514073
0.000514074
0.000529668
0.000529665
0.00052967
0.000557146
0.000557144
0.000557158
0.000591999
0.000591996
0.000592018
0.00062625
0.000626242
0.000626272
0.000652671
0.000652657
0.00065269
0.000668453
0.000668431
0.000668465
0.000677604
0.000677576
0.000677606
0.000693112
0.000693078
0.000693101
0.000739403
0.000739368
0.00073938
0.000852565
0.000852537
0.00085254
0.000954615
0.000954606
0.000954611
)
;

boundaryField
{
    freeSurface
    {
        type            slip;
    }
    inlet
    {
        type            cyclic;
    }
    outlet
    {
        type            cyclic;
    }
    sidewalls
    {
        type            kqRWallFunction;
        value           nonuniform List<scalar> 
144
(
0.000159313
0.000224425
0.000262445
0.000303119
0.000346496
0.000392487
0.000440793
0.000490843
0.000541755
0.000592344
0.000641214
0.000686935
0.000728294
0.000764554
0.000795622
0.000822053
0.000844864
0.000865208
0.00088405
0.000901917
0.000918793
0.000934109
0.000946704
0.000954606
0.000159309
0.000224419
0.000262439
0.000303112
0.000346487
0.000392476
0.00044078
0.000490829
0.000541738
0.000592326
0.000641194
0.000686914
0.000728272
0.000764532
0.0007956
0.000822033
0.000844844
0.000865191
0.000884034
0.000901903
0.000918781
0.000934099
0.000946696
0.000954598
0.000159311
0.000224422
0.000262441
0.000303115
0.00034649
0.000392479
0.000440783
0.000490832
0.000541742
0.000592329
0.000641197
0.000686917
0.000728276
0.000764536
0.000795605
0.000822038
0.000844849
0.000865196
0.00088404
0.000901909
0.000918787
0.000934104
0.000946701
0.000954603
0.000159322
0.000224436
0.000262457
0.000303133
0.000346511
0.000392504
0.000440812
0.000490864
0.000541779
0.000592371
0.000641244
0.000686968
0.00072833
0.000764591
0.000795661
0.000822092
0.000844901
0.000865244
0.000884082
0.000901944
0.000918815
0.000934126
0.000946716
0.000954615
0.000159317
0.00022443
0.00026245
0.000303124
0.000346502
0.000392493
0.000440799
0.000490849
0.000541762
0.000592352
0.000641223
0.000686945
0.000728307
0.000764568
0.000795638
0.00082207
0.000844881
0.000865225
0.000884065
0.000901929
0.000918802
0.000934115
0.000946707
0.000954606
0.000159319
0.000224432
0.000262453
0.000303127
0.000346505
0.000392495
0.000440801
0.000490852
0.000541764
0.000592354
0.000641225
0.000686948
0.00072831
0.000764572
0.000795641
0.000822074
0.000844885
0.00086523
0.00088407
0.000901934
0.000918807
0.000934119
0.000946712
0.000954611
)
;
    }
    noSlipWalls
    {
        type            kqRWallFunction;
        value           nonuniform List<scalar> 
90
(
0.000159313
0.000387031
0.000463264
0.000520067
0.000566371
0.000605508
0.000639755
0.000670811
0.00069982
0.000727236
0.000752729
0.000775299
0.000793698
0.000806873
0.000814063
0.000814059
0.00080686
0.000793676
0.000775273
0.000752699
0.000727203
0.00069978
0.000670772
0.000639729
0.0006055
0.00056638
0.000520086
0.000463282
0.000387036
0.000159322
0.000159309
0.000387012
0.000463243
0.000520045
0.00056635
0.000605489
0.000639738
0.000670796
0.000699808
0.000727229
0.000752725
0.000775297
0.000793699
0.000806876
0.000814067
0.000814063
0.000806863
0.000793677
0.000775272
0.000752696
0.000727196
0.000699768
0.000670758
0.000639712
0.00060548
0.000566359
0.000520064
0.00046326
0.000387017
0.000159317
0.000159311
0.000387012
0.000463244
0.000520047
0.000566353
0.000605491
0.00063974
0.000670796
0.000699807
0.000727227
0.000752722
0.000775294
0.000793696
0.000806873
0.000814064
0.000814059
0.00080686
0.000793674
0.000775268
0.000752692
0.000727194
0.000699767
0.000670758
0.000639713
0.000605483
0.000566361
0.000520066
0.000463261
0.000387015
0.000159319
)
;
    }
}


// ************************************************************************* //
