/*--------------------------------*- C++ -*----------------------------------*\
  =========                 |
  \\      /  F ield         | OpenFOAM: The Open Source CFD Toolbox
   \\    /   O peration     | Website:  https://openfoam.org
    \\  /    A nd           | Version:  6
     \\/     M anipulation  |
\*---------------------------------------------------------------------------*/
FoamFile
{
    version     2.0;
    format      ascii;
    class       volVectorField;
    location    "3";
    object      wallShearStress;
}
// * * * * * * * * * * * * * * * * * * * * * * * * * * * * * * * * * * * * * //

dimensions      [0 2 -2 0 0 0 0];

internalField   uniform (0 0 0);

boundaryField
{
    inlet
    {
        type            calculated;
        value           uniform (0 0 0);
    }
    outlet
    {
        type            calculated;
        value           uniform (0 0 0);
    }
    roughCylinder
    {
        type            calculated;
        value           nonuniform List<vector> 
5120
(
(-0.000106859 -0.000125249 -6.43854e-05)
(-0.000181855 -0.000291783 -7.39045e-05)
(-0.000264644 -0.000451334 -4.67221e-06)
(-0.000315687 -0.000528264 5.04085e-05)
(-0.000374881 -0.000589108 9.90967e-05)
(-0.000423349 -0.000614647 0.000137814)
(-0.00046518 -0.000622072 0.000166927)
(-0.000494593 -0.000611623 0.000185293)
(-0.000518024 -0.000597026 0.000196879)
(-0.000535906 -0.000583886 0.000205243)
(-0.000550876 -0.000573529 0.000212379)
(-0.000562864 -0.000566862 0.00021732)
(-0.000573714 -0.00056427 0.000220164)
(-0.00057912 -0.000560866 0.000219559)
(-0.000579867 -0.000556356 0.000215908)
(-0.000580657 -0.000554042 0.000210875)
(-0.000584708 -0.000556413 0.000205516)
(-0.000582101 -0.000554163 0.000196819)
(-0.000575333 -0.000548941 0.00018638)
(-0.000583568 -0.000557485 0.000180062)
(-0.000593601 -0.00056791 0.000173312)
(-0.000594781 -0.000570842 0.000163537)
(-0.000589802 -0.000568526 0.000152134)
(-0.000574175 -0.000556082 0.000138376)
(-0.000605167 -0.000586631 0.00013484)
(-0.000571329 -0.000557212 0.000117037)
(-0.00057237 -0.000560232 0.000106013)
(-0.000560724 -0.000551206 9.17846e-05)
(-0.000550504 -0.000543445 7.63348e-05)
(-0.000536821 -0.000532405 5.83394e-05)
(-0.000529732 -0.000527639 3.78808e-05)
(-0.000517186 -0.000516675 1.31919e-05)
(-0.00014785 -0.000153576 -7.46505e-05)
(-0.000197765 -0.000285889 -8.00237e-05)
(-0.000285728 -0.000445901 -1.34541e-05)
(-0.000340007 -0.000527214 4.18949e-05)
(-0.00040147 -0.0005904 9.10982e-05)
(-0.000452028 -0.000618679 0.000130779)
(-0.000495615 -0.000627975 0.000160484)
(-0.000527101 -0.000620099 0.000179306)
(-0.000553257 -0.000609209 0.000192098)
(-0.00057345 -0.000598369 0.000202116)
(-0.000590881 -0.000589254 0.000210964)
(-0.000604149 -0.00058158 0.000216767)
(-0.000615011 -0.000577649 0.000219767)
(-0.000620991 -0.000573831 0.00021951)
(-0.000623921 -0.00057075 0.000216748)
(-0.000626941 -0.000570102 0.000212489)
(-0.000629474 -0.000570915 0.000206593)
(-0.000625135 -0.000567399 0.000197596)
(-0.000619827 -0.00056383 0.000187951)
(-0.000630176 -0.000573864 0.000182223)
(-0.000639946 -0.000583735 0.000175395)
(-0.000640251 -0.000585962 0.000165609)
(-0.000634955 -0.00058368 0.000154499)
(-0.000623217 -0.000575428 0.00014206)
(-0.000651781 -0.000602463 0.000137814)
(-0.000614508 -0.000571702 0.000119943)
(-0.000621537 -0.000580466 0.000110204)
(-0.000600862 -0.000563855 9.46579e-05)
(-0.000596566 -0.000562468 8.00633e-05)
(-0.000580408 -0.000550184 6.14096e-05)
(-0.000561528 -0.000534895 3.931e-05)
(-0.000554815 -0.000530348 1.39054e-05)
(-0.000122622 -0.000111173 -4.81941e-05)
(-0.000217635 -0.000280323 -8.73543e-05)
(-0.000306201 -0.000433714 -2.30439e-05)
(-0.000363584 -0.000518946 3.19803e-05)
(-0.000427529 -0.000584992 8.16149e-05)
(-0.000480618 -0.000616856 0.000122305)
(-0.00052616 -0.000628692 0.000152688)
(-0.000559567 -0.000623708 0.000172256)
(-0.000588197 -0.00061643 0.000186539)
(-0.000611379 -0.000608617 0.000198461)
(-0.000631966 -0.00060176 0.00020899)
(-0.000648438 -0.000594882 0.000216157)
(-0.000661176 -0.000590995 0.000219979)
(-0.000668385 -0.000587085 0.000220191)
(-0.000671519 -0.000583413 0.000217533)
(-0.000673406 -0.000581346 0.00021291)
(-0.000675965 -0.000582103 0.000207121)
(-0.000671708 -0.000578984 0.000198495)
(-0.000669139 -0.00057796 0.000189943)
(-0.000679554 -0.000587526 0.000184189)
(-0.000687826 -0.000595792 0.000177043)
(-0.000688956 -0.000598862 0.000167769)
(-0.000683958 -0.000597146 0.000157136)
(-0.000675577 -0.000592303 0.000145826)
(-0.000699349 -0.000614035 0.000140555)
(-0.000665718 -0.000588536 0.000124062)
(-0.000666441 -0.000591694 0.000113401)
(-0.000651409 -0.000581481 9.90554e-05)
(-0.000638115 -0.00057269 8.31797e-05)
(-0.000622075 -0.000561799 6.43357e-05)
(-0.000612634 -0.000556634 4.21803e-05)
(-0.000596217 -0.000544042 1.47582e-05)
(-0.000123935 -9.69349e-05 -3.44214e-05)
(-0.000231573 -0.000264453 -9.24075e-05)
(-0.000325547 -0.000417023 -3.29262e-05)
(-0.000386092 -0.00050611 2.11455e-05)
(-0.000452034 -0.000574581 7.10217e-05)
(-0.00050744 -0.00060987 0.000112497)
(-0.000555407 -0.000625194 0.000143636)
(-0.000592272 -0.000625222 0.000164703)
(-0.000625071 -0.00062323 0.00018128)
(-0.000651977 -0.000618861 0.000195379)
(-0.000675519 -0.00061374 0.000207297)
(-0.000694407 -0.000607311 0.000215526)
(-0.000707238 -0.00060114 0.000219502)
(-0.000714204 -0.000595764 0.000219691)
(-0.000718449 -0.000592193 0.000217425)
(-0.000722086 -0.000591191 0.000213409)
(-0.000723293 -0.000590738 0.000207396)
(-0.000719219 -0.000587993 0.000199192)
(-0.000719036 -0.000588896 0.000191552)
(-0.000730119 -0.000598529 0.000185996)
(-0.000738458 -0.000606627 0.000179038)
(-0.0007393 -0.000609527 0.000170034)
(-0.000734669 -0.000608407 0.000159929)
(-0.000729891 -0.000606887 0.000149768)
(-0.000748851 -0.000623902 0.00014368)
(-0.000713298 -0.000598672 0.000127533)
(-0.000718956 -0.00060633 0.000118029)
(-0.000694578 -0.000589468 0.000102551)
(-0.00068721 -0.000586964 8.75742e-05)
(-0.000666824 -0.000573885 6.79013e-05)
(-0.000643468 -0.000557797 4.39137e-05)
(-0.000635758 -0.000554025 1.56686e-05)
(-0.000152482 -0.000101605 -2.53279e-05)
(-0.000247911 -0.000249503 -9.80884e-05)
(-0.00034184 -0.000394353 -4.28451e-05)
(-0.000404912 -0.000486343 9.51475e-06)
(-0.000473072 -0.000557752 5.92601e-05)
(-0.000531715 -0.000597713 0.000101407)
(-0.000583189 -0.000617973 0.000133505)
(-0.000623771 -0.000623352 0.000156325)
(-0.000659695 -0.000625389 0.000175025)
(-0.000689633 -0.000623667 0.00019107)
(-0.000716764 -0.000620723 0.000204496)
(-0.000738787 -0.000615663 0.000213853)
(-0.000754727 -0.000609775 0.00021889)
(-0.00076358 -0.000604212 0.000219782)
(-0.000767904 -0.000599735 0.000217594)
(-0.000768997 -0.000596273 0.000212993)
(-0.000770457 -0.000595907 0.000207335)
(-0.000769129 -0.000595357 0.000200241)
(-0.000772064 -0.000598492 0.000193617)
(-0.000781916 -0.000606705 0.000187837)
(-0.000788597 -0.00061331 0.000180746)
(-0.000791224 -0.000617676 0.000172554)
(-0.000787485 -0.000617522 0.000163124)
(-0.000785041 -0.000618076 0.000153844)
(-0.000797164 -0.000629388 0.000146785)
(-0.000766967 -0.000610395 0.000132325)
(-0.000765021 -0.000612345 0.000121941)
(-0.000746118 -0.000601698 0.000107705)
(-0.000728327 -0.000591883 9.14331e-05)
(-0.000708542 -0.000581432 7.16473e-05)
(-0.000694995 -0.000576074 4.7476e-05)
(-0.000673318 -0.00056216 1.67007e-05)
(-0.000165231 -9.2369e-05 -9.99722e-06)
(-0.000257267 -0.000226476 -0.000100682)
(-0.000355218 -0.00036737 -5.23637e-05)
(-0.000420983 -0.000462131 -2.58015e-06)
(-0.000491261 -0.000536517 4.65578e-05)
(-0.000553065 -0.00058111 8.90955e-05)
(-0.000608041 -0.000606407 0.000122115)
(-0.000652841 -0.000617509 0.000146929)
(-0.000693661 -0.000624847 0.000168227)
(-0.000728771 -0.000627308 0.000186724)
(-0.000759705 -0.000626389 0.000201691)
(-0.000784138 -0.000621892 0.00021187)
(-0.000801084 -0.000615074 0.000217361)
(-0.000809384 -0.000606922 0.000218288)
(-0.00081349 -0.000601237 0.000216252)
(-0.000816944 -0.000599015 0.00021255)
(-0.000819233 -0.000598948 0.000207443)
(-0.000819822 -0.000599595 0.000201183)
(-0.000824238 -0.000603457 0.000195134)
(-0.000833615 -0.000610954 0.000189444)
(-0.000840909 -0.000617879 0.00018285)
(-0.00084373 -0.000622366 0.000175152)
(-0.000840281 -0.000622717 0.00016634)
(-0.000840549 -0.000625532 0.000158073)
(-0.000846519 -0.000632486 0.000150397)
(-0.000815654 -0.000614784 0.000136606)
(-0.000816975 -0.000620019 0.000127265)
(-0.000788763 -0.000604329 0.000112148)
(-0.000775998 -0.000600789 9.68077e-05)
(-0.000749222 -0.000587727 7.59956e-05)
(-0.000718899 -0.000571505 4.96945e-05)
(-0.000708635 -0.000568912 1.7891e-05)
(-0.0001905 -8.77519e-05 7.15849e-06)
(-0.000271253 -0.000207012 -0.000104741)
(-0.000364915 -0.000336629 -6.11245e-05)
(-0.000432159 -0.000432396 -1.49749e-05)
(-0.000504583 -0.000509944 3.28009e-05)
(-0.000570317 -0.000560085 7.55021e-05)
(-0.000629967 -0.000591585 0.000109641)
(-0.00068022 -0.000609193 0.00013675)
(-0.000725582 -0.000620906 0.000160485)
(-0.000763709 -0.000625299 0.000180758)
(-0.000797688 -0.000625685 0.000197019)
(-0.000824852 -0.000622041 0.00020813)
(-0.000844671 -0.00061612 0.000214531)
(-0.000856793 -0.000609062 0.000216752)
(-0.000862525 -0.000602829 0.000215472)
(-0.000864082 -0.00059848 0.000211638)
(-0.000867408 -0.000598608 0.000207183)
(-0.000872048 -0.000601555 0.000202231)
(-0.000878541 -0.000606392 0.000196906)
(-0.000886257 -0.00061242 0.000191145)
(-0.000891857 -0.000618036 0.000184644)
(-0.000896856 -0.000624047 0.000177936)
(-0.000894158 -0.00062525 0.000169913)
(-0.000895414 -0.000628967 0.000162401)
(-0.000893991 -0.000631416 0.000154119)
(-0.000868935 -0.000619978 0.000142181)
(-0.00086156 -0.000620451 0.000132152)
(-0.00083752 -0.000610782 0.000118304)
(-0.000812044 -0.000600484 0.000101615)
(-0.000784879 -0.00059021 8.06182e-05)
(-0.000763375 -0.000583832 5.39241e-05)
(-0.000733874 -0.000568264 1.90534e-05)
(-0.000176048 -6.52233e-05 2.24742e-05)
(-0.000276638 -0.000180736 -0.000104901)
(-0.000370048 -0.000302659 -6.89474e-05)
(-0.000438543 -0.00039857 -2.73347e-05)
(-0.000512922 -0.000479202 1.81679e-05)
(-0.000582579 -0.000534942 6.06709e-05)
(-0.000646875 -0.000572467 9.58468e-05)
(-0.000702012 -0.00059566 0.000125028)
(-0.000752195 -0.000611533 0.000151078)
(-0.000796312 -0.000619962 0.000173649)
(-0.000835122 -0.000622841 0.000191612)
(-0.000865446 -0.000620284 0.000203872)
(-0.000887032 -0.000614449 0.000210998)
(-0.000899014 -0.000606185 0.00021352)
(-0.000905009 -0.000598634 0.000212761)
(-0.000910358 -0.000595437 0.000210364)
(-0.000917192 -0.000596699 0.000207136)
(-0.000923943 -0.000600237 0.000203005)
(-0.000930321 -0.000604448 0.000197975)
(-0.00093717 -0.000609688 0.000192479)
(-0.000944218 -0.000616178 0.000186846)
(-0.00094923 -0.000622116 0.000180761)
(-0.000946095 -0.000623526 0.000173426)
(-0.000948952 -0.000628926 0.000166942)
(-0.000941359 -0.000628906 0.000158535)
(-0.000915275 -0.000619009 0.000147441)
(-0.000908509 -0.000622018 0.000138345)
(-0.000874446 -0.000608317 0.000123744)
(-0.000851482 -0.00060266 0.000107788)
(-0.000814748 -0.000588677 8.55249e-05)
(-0.000774405 -0.000571131 5.64535e-05)
(-0.000759452 -0.000568785 2.04875e-05)
(-0.000203728 -5.85872e-05 4.30065e-05)
(-0.000283619 -0.000155823 -0.000104116)
(-0.000370675 -0.000266552 -7.60147e-05)
(-0.000438779 -0.000360551 -3.92713e-05)
(-0.000514724 -0.000443944 2.86826e-06)
(-0.000588652 -0.000505637 4.4664e-05)
(-0.000658095 -0.000549436 8.08018e-05)
(-0.000719595 -0.000578969 0.000112123)
(-0.000776144 -0.000599672 0.000140561)
(-0.000824101 -0.000609999 0.000164815)
(-0.000865548 -0.000613588 0.000183944)
(-0.000898332 -0.000611702 0.000197269)
(-0.000922554 -0.000606744 0.000205486)
(-0.000938916 -0.000600516 0.000209511)
(-0.000949636 -0.000595024 0.000210386)
(-0.000956064 -0.000591058 0.000208785)
(-0.000964589 -0.000591855 0.000206476)
(-0.000974844 -0.000596229 0.000203521)
(-0.000982265 -0.000600391 0.000199123)
(-0.000987992 -0.00060476 0.000193978)
(-0.000993453 -0.00061027 0.000188737)
(-0.00100013 -0.000617425 0.000183751)
(-0.000997259 -0.000619771 0.0001774)
(-0.000999013 -0.000625232 0.000171611)
(-0.000984158 -0.00062284 0.000163093)
(-0.000962113 -0.00061761 0.00015371)
(-0.000945264 -0.000616114 0.000143979)
(-0.00091326 -0.000606873 0.0001305)
(-0.000876369 -0.00059467 0.000113209)
(-0.000837996 -0.00058294 9.07713e-05)
(-0.000805189 -0.000574383 6.1256e-05)
(-0.000765668 -0.000556511 2.17268e-05)
(-0.000255435 -5.36816e-05 7.41661e-05)
(-0.000294325 -0.000133234 -0.000102953)
(-0.000365994 -0.000228701 -8.1433e-05)
(-0.000432356 -0.000319127 -5.01754e-05)
(-0.000508867 -0.000404347 -1.26327e-05)
(-0.000586538 -0.000471538 2.76237e-05)
(-0.000661474 -0.000521712 6.44084e-05)
(-0.000728862 -0.000556723 9.74492e-05)
(-0.000789946 -0.000580435 0.000127592)
(-0.000843891 -0.000594035 0.000153691)
(-0.000891341 -0.000600564 0.000174619)
(-0.000928773 -0.000600729 0.000189559)
(-0.000956696 -0.000597268 0.000199261)
(-0.000974178 -0.000590934 0.000204237)
(-0.000985074 -0.000584668 0.000205856)
(-0.000996291 -0.000582436 0.000205982)
(-0.00101046 -0.000585135 0.000205463)
(-0.00102245 -0.000589018 0.000203344)
(-0.00102897 -0.000591954 0.000199375)
(-0.00103404 -0.000595809 0.000194893)
(-0.00104173 -0.000602677 0.000190939)
(-0.00104733 -0.000609393 0.000186675)
(-0.00104287 -0.000611615 0.000181091)
(-0.00104432 -0.0006176 0.000176272)
(-0.00102365 -0.000614077 0.000168031)
(-0.000999115 -0.000609111 0.000159413)
(-0.000980875 -0.000609087 0.000150578)
(-0.000938634 -0.000596427 0.000136579)
(-0.000901395 -0.000587341 0.000119967)
(-0.000851018 -0.000571335 9.61973e-05)
(-0.000796757 -0.000551293 6.40511e-05)
(-0.000774383 -0.000548317 2.34291e-05)
(-0.000256739 -3.47892e-05 9.46366e-05)
(-0.000301868 -0.00010988 -9.9247e-05)
(-0.000358295 -0.000191129 -8.51431e-05)
(-0.000419099 -0.000275388 -5.93643e-05)
(-0.000494892 -0.000361088 -2.77307e-05)
(-0.000576132 -0.000433618 9.90974e-06)
(-0.000656108 -0.000489718 4.67638e-05)
(-0.000729828 -0.000530191 8.11644e-05)
(-0.000798885 -0.000559007 0.000113191)
(-0.000858716 -0.000575318 0.000140928)
(-0.000909584 -0.000582686 0.000163098)
(-0.000949912 -0.000583598 0.000179329)
(-0.000980406 -0.000580894 0.00019039)
(-0.00100285 -0.0005768 0.000197283)
(-0.00102083 -0.000573749 0.000201244)
(-0.00103547 -0.000572193 0.000202885)
(-0.00105038 -0.000573785 0.00020319)
(-0.00106485 -0.00057773 0.00020219)
(-0.0010723 -0.00058064 0.0001992)
(-0.00107742 -0.00058441 0.000195678)
(-0.00108335 -0.000590233 0.000192413)
(-0.00108922 -0.000597249 0.000189272)
(-0.00108468 -0.000600155 0.00018486)
(-0.00108313 -0.000605181 0.000180726)
(-0.00105643 -0.000600799 0.000172927)
(-0.00103351 -0.000598441 0.000165904)
(-0.00100449 -0.00059457 0.000156709)
(-0.000961264 -0.000584669 0.000143777)
(-0.000908721 -0.00056959 0.000125961)
(-0.000853914 -0.000554788 0.00010198)
(-0.000805159 -0.000542954 6.94092e-05)
(-0.00075259 -0.000522092 2.46785e-05)
(-0.000286779 -1.79826e-05 0.00012757)
(-0.000301477 -8.57938e-05 -9.1859e-05)
(-0.000344781 -0.000153162 -8.56647e-05)
(-0.000398032 -0.000229934 -6.57889e-05)
(-0.000470763 -0.000313733 -4.14597e-05)
(-0.00055364 -0.000390115 -7.95717e-06)
(-0.000638904 -0.000452322 2.79804e-05)
(-0.000719868 -0.000498746 6.3132e-05)
(-0.000794015 -0.000530397 9.61568e-05)
(-0.000859631 -0.000549147 0.000125165)
(-0.000917473 -0.000559401 0.000149017)
(-0.000964206 -0.000562934 0.000167161)
(-0.00100114 -0.000562964 0.000180407)
(-0.00102724 -0.000559998 0.000189106)
(-0.00104619 -0.000556415 0.000194335)
(-0.00106479 -0.000555678 0.000197713)
(-0.00108583 -0.00055897 0.000200004)
(-0.00110141 -0.000562248 0.00020001)
(-0.00110796 -0.000564238 0.000197845)
(-0.00111277 -0.000567755 0.00019541)
(-0.00112149 -0.000574943 0.000193821)
(-0.00112549 -0.000581093 0.000191607)
(-0.00111867 -0.000583507 0.000188179)
(-0.00111498 -0.000588236 0.000185119)
(-0.00108336 -0.000583901 0.000178142)
(-0.00105546 -0.000580462 0.000171863)
(-0.00102245 -0.000577181 0.000163615)
(-0.000968012 -0.000564263 0.000150402)
(-0.000911146 -0.000550757 0.000133136)
(-0.00084196 -0.000531811 0.000107787)
(-0.000768535 -0.000508362 7.22344e-05)
(-0.00073515 -0.000504257 2.66256e-05)
(-0.000344297 2.14764e-06 0.000179368)
(-0.000318592 -6.73245e-05 -8.88601e-05)
(-0.000330977 -0.00011862 -8.38814e-05)
(-0.000371023 -0.000185068 -6.88727e-05)
(-0.000437901 -0.000264384 -5.27907e-05)
(-0.000521127 -0.00034362 -2.51126e-05)
(-0.000610227 -0.000410988 8.56777e-06)
(-0.000696666 -0.000462222 4.3428e-05)
(-0.00077968 -0.000499236 7.72795e-05)
(-0.000854068 -0.000522013 0.000107701)
(-0.000917717 -0.000533828 0.00013298)
(-0.00096902 -0.000538247 0.000152683)
(-0.00100884 -0.000538554 0.000167489)
(-0.00104003 -0.000537207 0.00017833)
(-0.00106751 -0.000536825 0.000186358)
(-0.00109189 -0.000537477 0.000191939)
(-0.0011129 -0.000539109 0.00019522)
(-0.00112989 -0.000541942 0.000196497)
(-0.00113781 -0.000544228 0.000195791)
(-0.00114392 -0.00054825 0.000194919)
(-0.00115038 -0.000554154 0.00019431)
(-0.0011534 -0.000560015 0.000193409)
(-0.00114633 -0.000563001 0.000191533)
(-0.00113754 -0.000566126 0.000189295)
(-0.00110025 -0.000561828 0.000183256)
(-0.00107061 -0.000559177 0.00017847)
(-0.00102571 -0.000552664 0.000170103)
(-0.000966139 -0.00054091 0.000157772)
(-0.000892535 -0.000522661 0.000139418)
(-0.000814811 -0.000504052 0.000113709)
(-0.00074465 -0.000488787 7.79336e-05)
(-0.000675867 -0.000464605 2.76949e-05)
(-0.000356904 2.56885e-05 0.000213069)
(-0.000335961 -4.81781e-05 -8.51703e-05)
(-0.000313951 -8.73418e-05 -7.89717e-05)
(-0.000336653 -0.000141252 -6.74896e-05)
(-0.000393479 -0.000212667 -5.9995e-05)
(-0.000473189 -0.000291672 -4.01141e-05)
(-0.000565161 -0.000363592 -1.07009e-05)
(-0.000659497 -0.000421472 2.25518e-05)
(-0.000749181 -0.000462638 5.61093e-05)
(-0.000829796 -0.000487999 8.7076e-05)
(-0.000901293 -0.000502446 0.000113784)
(-0.000960521 -0.00050904 0.00013547)
(-0.00100954 -0.000512211 0.000152806)
(-0.00104755 -0.000512709 0.000166127)
(-0.00107745 -0.000511893 0.000176017)
(-0.00110433 -0.000512038 0.000183356)
(-0.00113143 -0.000514909 0.000188906)
(-0.00114997 -0.000517348 0.000191724)
(-0.00115783 -0.000519233 0.000192467)
(-0.00116368 -0.000522973 0.000193121)
(-0.00117287 -0.000529956 0.000194573)
(-0.00117343 -0.000534905 0.000194981)
(-0.00116296 -0.000537029 0.000194372)
(-0.00115002 -0.000539375 0.0001934)
(-0.00110788 -0.000535728 0.000188626)
(-0.00106996 -0.00053098 0.000184445)
(-0.00101787 -0.000524716 0.000176977)
(-0.000945407 -0.000510787 0.000164522)
(-0.000862871 -0.000493218 0.000146477)
(-0.000768853 -0.000471187 0.000119385)
(-0.000670822 -0.000443368 8.01484e-05)
(-0.000622453 -0.00043646 2.97197e-05)
(-0.000345454 4.65157e-05 0.000230815)
(-0.000345151 -2.82724e-05 -7.90628e-05)
(-0.000300024 -6.14547e-05 -7.28778e-05)
(-0.000300461 -0.000102285 -6.2104e-05)
(-0.000342744 -0.000162954 -6.2214e-05)
(-0.000415559 -0.000238965 -5.17422e-05)
(-0.000507251 -0.000313523 -2.87069e-05)
(-0.000604798 -0.000375435 1.11161e-06)
(-0.000702788 -0.000422224 3.32386e-05)
(-0.000794631 -0.000453376 6.44805e-05)
(-0.000875496 -0.000471191 9.25011e-05)
(-0.000942719 -0.000479436 0.000116169)
(-0.000996102 -0.00048201 0.000135418)
(-0.00103902 -0.000482375 0.000150918)
(-0.00107748 -0.000483391 0.00016362)
(-0.00111222 -0.000485147 0.000173736)
(-0.00113943 -0.000486316 0.000180788)
(-0.00115902 -0.000488196 0.000185349)
(-0.00116891 -0.000490572 0.000188186)
(-0.00117694 -0.000495 0.000191033)
(-0.00118296 -0.000500338 0.000193803)
(-0.00118131 -0.000504646 0.000195815)
(-0.00116997 -0.000507139 0.000197132)
(-0.00115 -0.000507912 0.000197185)
(-0.00110102 -0.000504723 0.000193603)
(-0.00105769 -0.000500154 0.000190774)
(-0.000992133 -0.00049173 0.000183354)
(-0.000909801 -0.000477838 0.000171422)
(-0.00080928 -0.000456674 0.000152243)
(-0.000702023 -0.000432583 0.000124295)
(-0.000606055 -0.000411217 8.52951e-05)
(-0.000520322 -0.000380929 3.0051e-05)
(-0.000337861 6.36783e-05 0.000242945)
(-0.00034258 -1.00759e-05 -7.02668e-05)
(-0.000279496 -3.90532e-05 -6.34727e-05)
(-0.000257966 -6.79884e-05 -5.18247e-05)
(-0.000281086 -0.000114588 -5.73032e-05)
(-0.000341323 -0.000182637 -5.7139e-05)
(-0.000429469 -0.000257399 -4.33213e-05)
(-0.000532955 -0.000325323 -1.95712e-05)
(-0.000639103 -0.000378106 9.36956e-06)
(-0.000738479 -0.000413345 3.9503e-05)
(-0.000828086 -0.000434594 6.80548e-05)
(-0.00090422 -0.000445216 9.34517e-05)
(-0.000969076 -0.000450388 0.000115434)
(-0.00102215 -0.000452396 0.000133879)
(-0.00106546 -0.000452672 0.000149024)
(-0.00110156 -0.000452311 0.000161019)
(-0.00113461 -0.000453923 0.000170649)
(-0.00115696 -0.000455633 0.000177517)
(-0.00116794 -0.0004578 0.000182544)
(-0.00117517 -0.000461581 0.000187325)
(-0.00118324 -0.000467727 0.000192543)
(-0.00117876 -0.000471529 0.000196365)
(-0.00116229 -0.000473061 0.000199192)
(-0.001136 -0.000473409 0.000200729)
(-0.00108132 -0.000471375 0.000198752)
(-0.00102594 -0.000464774 0.00019629)
(-0.000949629 -0.00045595 0.000189447)
(-0.000852433 -0.000440096 0.000177169)
(-0.000738391 -0.00041734 0.000157532)
(-0.000615673 -0.000388588 0.000128048)
(-0.000491524 -0.000351045 8.48431e-05)
(-0.000427318 -0.000337237 3.14589e-05)
(-0.000336286 7.49776e-05 0.000246921)
(-0.000341774 4.93918e-06 -6.21233e-05)
(-0.000262496 -2.22019e-05 -5.36205e-05)
(-0.000218874 -4.19869e-05 -3.93577e-05)
(-0.000221433 -7.45331e-05 -4.70394e-05)
(-0.000263514 -0.000130761 -5.58785e-05)
(-0.000341461 -0.000201491 -5.308e-05)
(-0.000442264 -0.00027062 -3.7912e-05)
(-0.000553957 -0.000328447 -1.43694e-05)
(-0.000665312 -0.000370837 1.33528e-05)
(-0.000767364 -0.000397855 4.18851e-05)
(-0.000855402 -0.000412526 6.88813e-05)
(-0.000927573 -0.000418404 9.3008e-05)
(-0.000986131 -0.000419469 0.000113792)
(-0.00103712 -0.000419801 0.00013164)
(-0.00108284 -0.000420538 0.000146839)
(-0.00111756 -0.000420399 0.000158718)
(-0.00114127 -0.000421067 0.000167951)
(-0.00115452 -0.000423216 0.000175649)
(-0.00116421 -0.000427497 0.000183196)
(-0.001168 -0.000431954 0.000190139)
(-0.00115994 -0.000435182 0.000195928)
(-0.00114136 -0.000437289 0.000201071)
(-0.00110622 -0.000436746 0.000203908)
(-0.00104202 -0.000434422 0.000202985)
(-0.000977831 -0.000427905 0.00020151)
(-0.000886131 -0.000416997 0.000194308)
(-0.000774635 -0.000398711 0.000181486)
(-0.000644377 -0.000371268 0.000160278)
(-0.000506266 -0.000335184 0.000128594)
(-0.000387915 -0.000302004 8.70116e-05)
(-0.000291248 -0.000260817 2.96663e-05)
(-0.000326415 7.64216e-05 0.000229811)
(-0.000334711 1.62193e-05 -5.33495e-05)
(-0.000242033 -1.01946e-05 -4.21244e-05)
(-0.000173477 -2.24096e-05 -2.43058e-05)
(-0.00015273 -4.01649e-05 -2.99982e-05)
(-0.000172991 -7.98256e-05 -4.43105e-05)
(-0.000234197 -0.000140575 -5.32307e-05)
(-0.000333235 -0.00021127 -5.09897e-05)
(-0.000452093 -0.000275734 -3.62903e-05)
(-0.000572401 -0.00032417 -1.2757e-05)
(-0.000684253 -0.000356234 1.45548e-05)
(-0.000781516 -0.000374436 4.21436e-05)
(-0.000865362 -0.000383825 6.81477e-05)
(-0.000936241 -0.000387534 9.16156e-05)
(-0.000995669 -0.000387903 0.000112192)
(-0.00104326 -0.000386155 0.000129523)
(-0.00108325 -0.000385564 0.000144286)
(-0.00111121 -0.000386047 0.000156645)
(-0.00112678 -0.000387855 0.000167358)
(-0.00113472 -0.000390875 0.000177314)
(-0.00113942 -0.000395608 0.000187109)
(-0.00112803 -0.000398431 0.000195185)
(-0.00110206 -0.000399339 0.000201968)
(-0.00105785 -0.000398471 0.000206215)
(-0.00098669 -0.000396939 0.000206849)
(-0.000906228 -0.000387908 0.000204756)
(-0.000801209 -0.000374852 0.00019713)
(-0.000675559 -0.000352606 0.000183048)
(-0.0005301 -0.000318296 0.000159281)
(-0.000384556 -0.000275868 0.00012603)
(-0.00024424 -0.000220261 7.89499e-05)
(-0.000172782 -0.000194731 2.90158e-05)
(-0.000308809 6.93547e-05 0.00019476)
(-0.000321975 2.31176e-05 -4.43144e-05)
(-0.000229629 -3.26735e-06 -3.1554e-05)
(-0.000137245 -1.09958e-05 -1.07849e-05)
(-9.84741e-05 -1.85211e-05 -1.26431e-05)
(-9.48445e-05 -4.173e-05 -2.69717e-05)
(-0.00013161 -8.71787e-05 -4.53279e-05)
(-0.000211803 -0.000148704 -5.65647e-05)
(-0.000328287 -0.000214947 -5.31199e-05)
(-0.000458974 -0.000271635 -3.62058e-05)
(-0.000584274 -0.000311927 -1.14126e-05)
(-0.000695114 -0.000336811 1.58697e-05)
(-0.000788729 -0.000349644 4.26212e-05)
(-0.00086637 -0.000354308 6.74136e-05)
(-0.000932547 -0.000354765 8.99185e-05)
(-0.000990393 -0.000353932 0.000110218)
(-0.00103529 -0.000352161 0.000127957)
(-0.00106536 -0.000351358 0.000143375)
(-0.00108294 -0.00035245 0.000157396)
(-0.00109322 -0.000355519 0.000170738)
(-0.00109237 -0.0003583 0.000182623)
(-0.00107561 -0.000360073 0.000192814)
(-0.00104543 -0.000361257 0.000201948)
(-0.000991026 -0.000360183 0.000207444)
(-0.00090689 -0.000356641 0.000208225)
(-0.000816015 -0.000346825 0.000206217)
(-0.00069612 -0.000329409 0.000196867)
(-0.000554889 -0.000299872 0.000179561)
(-0.000402851 -0.000259405 0.000153645)
(-0.000246969 -0.000202545 0.000115552)
(-0.000126102 -0.000150896 7.4471e-05)
(-4.10027e-05 -8.74032e-05 2.07255e-05)
(-0.000286167 5.65168e-05 0.000149085)
(-0.000300677 2.47551e-05 -3.45018e-05)
(-0.000215524 -1.88496e-07 -2.04154e-05)
(-9.53676e-05 -4.94671e-06 7.54957e-07)
(-4.06184e-05 -5.23612e-06 2.65289e-06)
(-1.88451e-05 -1.05839e-05 -4.14634e-06)
(-1.96599e-05 -2.27459e-05 -1.61657e-05)
(-8.36102e-05 -8.01777e-05 -4.84265e-05)
(-0.000197587 -0.000150308 -6.19169e-05)
(-0.00033299 -0.000214511 -5.30403e-05)
(-0.000465785 -0.000262292 -3.21285e-05)
(-0.000584252 -0.00029311 -7.28957e-06)
(-0.000687685 -0.000311211 1.78697e-05)
(-0.00077702 -0.000320195 4.23631e-05)
(-0.000853768 -0.000322988 6.59358e-05)
(-0.000916864 -0.000321617 8.81425e-05)
(-0.000966224 -0.000319008 0.000108718)
(-0.0010018 -0.000317804 0.000127858)
(-0.00102266 -0.000318272 0.000145677)
(-0.00102987 -0.000319519 0.000161847)
(-0.00102846 -0.000322115 0.000176827)
(-0.00100794 -0.000323466 0.000189551)
(-0.000968157 -0.00032323 0.000200052)
(-0.00090142 -0.00032081 0.000206093)
(-0.000810683 -0.000316483 0.000207842)
(-0.0007011 -0.000301282 0.000202808)
(-0.000568862 -0.000277964 0.000190508)
(-0.000421871 -0.000242338 0.000170476)
(-0.000259809 -0.000188061 0.000137635)
(-0.000117556 -0.000124145 9.83357e-05)
(-7.58262e-06 -2.77594e-05 3.27581e-05)
(1.62459e-05 -4.27867e-06 2.27837e-05)
(-0.000260262 4.50297e-05 0.000103849)
(-0.000276091 2.42166e-05 -2.65384e-05)
(-0.000199923 2.33134e-06 -1.16044e-05)
(-7.00998e-05 -8.90822e-07 6.33904e-06)
(-2.0424e-05 8.16848e-07 9.7963e-06)
(1.70861e-05 1.63242e-06 2.88466e-06)
(2.5032e-05 -1.02414e-06 -6.3941e-06)
(2.01921e-06 -1.35882e-05 -2.06856e-05)
(-6.89498e-05 -6.88442e-05 -4.83639e-05)
(-0.000196395 -0.000144961 -5.27593e-05)
(-0.000333029 -0.000206093 -3.96565e-05)
(-0.000459155 -0.000247279 -2.21753e-05)
(-0.000570613 -0.000272117 -3.02871e-06)
(-0.000667722 -0.000284908 1.77897e-05)
(-0.000753293 -0.000290043 4.02754e-05)
(-0.000824814 -0.000289862 6.36984e-05)
(-0.000883029 -0.000288085 8.73636e-05)
(-0.000921926 -0.000285927 0.000110134)
(-0.000943743 -0.000285153 0.00013173)
(-0.00095287 -0.000286229 0.000151735)
(-0.000944991 -0.000286807 0.000168913)
(-0.000916892 -0.000286355 0.000183349)
(-0.00087034 -0.000285295 0.000195461)
(-0.000794556 -0.000281679 0.000202088)
(-0.000688273 -0.000271814 0.000201489)
(-0.000571276 -0.000253548 0.000194532)
(-0.000431765 -0.000223458 0.000178366)
(-0.000274566 -0.000174657 0.00014951)
(-0.000128935 -0.000114412 0.000114235)
(-9.20224e-06 -2.06939e-05 5.3286e-05)
(1.38049e-05 9.48795e-06 5.99513e-05)
(5.01129e-05 3.10645e-05 5.65083e-05)
(-0.000227567 3.54341e-05 6.54596e-05)
(-0.000249727 2.29492e-05 -2.05039e-05)
(-0.000183865 4.10559e-06 -5.71204e-06)
(-7.31823e-05 1.50277e-06 1.2801e-05)
(2.18331e-06 3.06479e-06 1.34645e-05)
(3.21535e-05 7.83516e-06 1.18377e-05)
(3.46778e-05 7.236e-06 1.22162e-05)
(2.25298e-05 3.16665e-06 8.55683e-06)
(-5.27581e-06 -1.24895e-05 -3.69598e-06)
(-8.221e-05 -7.83263e-05 -1.84102e-05)
(-0.00019108 -0.000143376 -2.27769e-05)
(-0.000310036 -0.000193914 -2.21643e-05)
(-0.000427836 -0.000227701 -1.68519e-05)
(-0.000537661 -0.000247831 -4.99881e-06)
(-0.000632443 -0.000256011 1.35579e-05)
(-0.000716192 -0.000258548 3.71589e-05)
(-0.000778339 -0.000256213 6.30538e-05)
(-0.000822809 -0.000254076 8.96954e-05)
(-0.000848412 -0.00025314 0.00011559)
(-0.000852878 -0.000252324 0.000138467)
(-0.000842539 -0.000252213 0.000158297)
(-0.000810859 -0.000250887 0.00017483)
(-0.00075419 -0.000247368 0.000187181)
(-0.00066366 -0.000239206 0.000191699)
(-0.000555459 -0.000226865 0.000190615)
(-0.000423799 -0.000199563 0.000176581)
(-0.000278849 -0.000159141 0.000151997)
(-0.000138431 -0.000104317 0.000118412)
(-1.21012e-05 -1.39724e-05 4.99408e-05)
(9.3468e-06 1.52406e-05 0.000115426)
(5.29509e-05 4.04592e-05 0.000202255)
(9.9565e-05 3.86036e-05 8.55103e-05)
(-0.000187897 2.47182e-05 3.4805e-05)
(-0.000216499 1.93321e-05 -1.54821e-05)
(-0.000158838 4.10975e-06 4.97585e-06)
(-4.59246e-05 1.65825e-06 2.30624e-05)
(1.1193e-05 1.10772e-05 2.93792e-05)
(2.8687e-05 1.87015e-05 2.99738e-05)
(3.60139e-05 1.14745e-05 2.9973e-05)
(4.26794e-05 2.65082e-06 3.97643e-05)
(3.34667e-05 -1.03707e-05 4.00562e-05)
(1.03385e-05 -2.37569e-05 2.62571e-05)
(-4.32677e-05 -8.86989e-05 2.46362e-05)
(-0.000145039 -0.000143803 -2.57801e-06)
(-0.000266243 -0.000182406 -2.29227e-05)
(-0.000383348 -0.000206572 -2.52691e-05)
(-0.000497736 -0.000222003 -1.36e-05)
(-0.000587364 -0.000224967 8.53663e-06)
(-0.000661797 -0.000225178 3.67193e-05)
(-0.000711113 -0.000223078 6.71081e-05)
(-0.000735512 -0.000220865 9.67125e-05)
(-0.000740817 -0.000220149 0.00012313)
(-0.000723994 -0.000218206 0.000144413)
(-0.000682996 -0.000213872 0.000160973)
(-0.000617795 -0.000207407 0.000172511)
(-0.000524943 -0.00019697 0.000176231)
(-0.000402323 -0.000174883 0.000167906)
(-0.000273421 -0.00014221 0.000148069)
(-0.000141648 -9.44916e-05 0.000116152)
(-1.61183e-05 -1.25656e-05 5.04469e-05)