/*--------------------------------*- C++ -*----------------------------------*\
  =========                 |
  \\      /  F ield         | OpenFOAM: The Open Source CFD Toolbox
   \\    /   O peration     | Website:  https://openfoam.org
    \\  /    A nd           | Version:  6
     \\/     M anipulation  |
\*---------------------------------------------------------------------------*/
FoamFile
{
    version     2.0;
    format      ascii;
    class       volScalarField;
    location    "20";
    object      k;
}
// * * * * * * * * * * * * * * * * * * * * * * * * * * * * * * * * * * * * * //

dimensions      [0 2 -2 0 0 0 0];

internalField   nonuniform List<scalar> 
3240
(
0.000110582
0.000110582
0.000110582
0.000272282
0.000272282
0.000272281
0.000336804
0.000336804
0.000336803
0.000385192
0.000385192
0.000385191
0.000424641
0.000424641
0.000424639
0.00045794
0.00045794
0.000457938
0.000487003
0.000487003
0.000487001
0.000513274
0.000513274
0.000513271
0.000537739
0.000537739
0.000537736
0.000560812
0.000560812
0.000560809
0.000582251
0.000582251
0.000582248
0.000601245
0.000601245
0.000601243
0.000616744
0.000616743
0.000616741
0.000627848
0.000627848
0.000627846
0.000633919
0.000633918
0.000633916
0.000633918
0.000633917
0.000633915
0.000627845
0.000627845
0.000627843
0.000616739
0.000616738
0.000616736
0.000601238
0.000601238
0.000601236
0.000582241
0.000582241
0.000582239
0.000560804
0.000560804
0.000560801
0.000537731
0.000537731
0.000537728
0.000513267
0.000513267
0.000513264
0.000486998
0.000486998
0.000486996
0.000457937
0.000457937
0.000457935
0.000424641
0.000424641
0.000424639
0.000385194
0.000385194
0.000385193
0.000336807
0.000336807
0.000336806
0.000272284
0.000272284
0.000272283
0.000110583
0.000110583
0.000110582
0.000162363
0.000162364
0.000162363
0.000880854
0.000880854
0.000880852
0.00103903
0.00103903
0.00103903
0.00114929
0.00114929
0.00114928
0.00123537
0.00123537
0.00123537
0.00130591
0.00130591
0.00130591
0.00136611
0.00136611
0.0013661
0.00141954
0.00141954
0.00141954
0.00146856
0.00146856
0.00146855
0.00151419
0.00151419
0.00151418
0.0015561
0.0015561
0.0015561
0.00159288
0.00159288
0.00159288
0.00162266
0.00162266
0.00162265
0.00164386
0.00164386
0.00164386
0.00165541
0.00165541
0.0016554
0.00165541
0.00165541
0.0016554
0.00164385
0.00164385
0.00164385
0.00162265
0.00162265
0.00162264
0.00159287
0.00159287
0.00159287
0.00155609
0.00155609
0.00155608
0.00151417
0.00151417
0.00151417
0.00146854
0.00146854
0.00146854
0.00141953
0.00141953
0.00141952
0.00136609
0.00136609
0.00136609
0.0013059
0.0013059
0.0013059
0.00123537
0.00123537
0.00123537
0.00114929
0.00114929
0.00114929
0.00103904
0.00103904
0.00103904
0.000880858
0.000880858
0.000880855
0.000162364
0.000162364
0.000162364
0.000190769
0.000190769
0.000190769
0.000980491
0.000980491
0.000980488
0.00113868
0.00113868
0.00113868
0.00125335
0.00125335
0.00125334
0.0013439
0.0013439
0.00134389
0.00141847
0.00141847
0.00141847
0.0014823
0.0014823
0.0014823
0.00153908
0.00153908
0.00153907
0.00159121
0.00159121
0.00159121
0.00163979
0.00163979
0.00163978
0.00168443
0.00168443
0.00168442
0.00172361
0.00172361
0.0017236
0.00175533
0.00175533
0.00175532
0.00177793
0.00177793
0.00177792
0.00179023
0.00179023
0.00179023
0.00179023
0.00179023
0.00179023
0.00177792
0.00177792
0.00177792
0.00175532
0.00175532
0.00175531
0.00172359
0.00172359
0.00172359
0.00168441
0.00168441
0.0016844
0.00163977
0.00163977
0.00163976
0.0015912
0.0015912
0.00159119
0.00153906
0.00153906
0.00153906
0.00148229
0.00148229
0.00148229
0.00141847
0.00141847
0.00141846
0.0013439
0.0013439
0.00134389
0.00125335
0.00125335
0.00125335
0.00113869
0.00113869
0.00113869
0.000980495
0.000980495
0.000980492
0.00019077
0.00019077
0.00019077
0.000219915
0.000219915
0.000219915
0.00102997
0.00102997
0.00102997
0.00118119
0.00118119
0.00118118
0.00129578
0.00129578
0.00129577
0.00138741
0.00138741
0.00138741
0.00146329
0.00146329
0.00146329
0.00152843
0.00152843
0.00152843
0.00158646
0.00158646
0.00158646
0.00163981
0.00163981
0.0016398
0.00168954
0.00168954
0.00168953
0.00173525
0.00173525
0.00173524
0.00177537
0.00177537
0.00177536
0.00180785
0.00180785
0.00180785
0.00183099
0.00183099
0.00183099
0.0018436
0.0018436
0.00184359
0.0018436
0.00184359
0.00184359
0.00183099
0.00183099
0.00183098
0.00180784
0.00180784
0.00180784
0.00177536
0.00177536
0.00177535
0.00173523
0.00173523
0.00173522
0.00168952
0.00168952
0.00168951
0.00163979
0.00163979
0.00163979
0.00158645
0.00158645
0.00158644
0.00152842
0.00152842
0.00152842
0.00146329
0.00146329
0.00146328
0.00138742
0.00138742
0.00138741
0.00129578
0.00129578
0.00129578
0.00118119
0.00118119
0.00118119
0.00102998
0.00102998
0.00102997
0.000219916
0.000219916
0.000219916
0.000249966
0.000249967
0.000249966
0.00106334
0.00106334
0.00106334
0.00120441
0.00120441
0.00120441
0.00131691
0.00131691
0.00131691
0.00140829
0.00140829
0.00140829
0.00148446
0.00148446
0.00148446
0.00155009
0.00155009
0.00155008
0.00160867
0.00160867
0.00160866
0.00166259
0.00166259
0.00166258
0.00171287
0.00171287
0.00171287
0.00175911
0.00175911
0.0017591
0.00179969
0.00179969
0.00179968
0.00183254
0.00183254
0.00183254
0.00185595
0.00185594
0.00185594
0.00186869
0.00186869
0.00186869
0.00186869
0.00186869
0.00186868
0.00185594
0.00185594
0.00185593
0.00183253
0.00183253
0.00183253
0.00179968
0.00179968
0.00179967
0.00175909
0.00175909
0.00175908
0.00171286
0.00171286
0.00171285
0.00166257
0.00166257
0.00166256
0.00160865
0.00160865
0.00160865
0.00155008
0.00155008
0.00155007
0.00148446
0.00148446
0.00148445
0.00140829
0.00140829
0.00140829
0.00131692
0.00131692
0.00131692
0.00120442
0.00120442
0.00120442
0.00106335
0.00106335
0.00106334
0.000249968
0.000249968
0.000249967
0.000281042
0.000281042
0.000281042
0.00108993
0.00108993
0.00108993
0.00121913
0.00121913
0.00121913
0.00132815
0.00132815
0.00132815
0.00141842
0.00141842
0.00141841
0.00149432
0.00149432
0.00149431
0.00156
0.00156
0.00156
0.0016188
0.0016188
0.00161879
0.00167299
0.00167299
0.00167298
0.00172356
0.00172356
0.00172356
0.00177008
0.00177008
0.00177007
0.0018109
0.0018109
0.0018109
0.00184395
0.00184395
0.00184395
0.00186749
0.00186749
0.00186748
0.00188031
0.00188031
0.0018803
0.00188031
0.00188031
0.0018803
0.00186749
0.00186748
0.00186748
0.00184394
0.00184394
0.00184394
0.00181089
0.00181089
0.00181088
0.00177006
0.00177006
0.00177005
0.00172355
0.00172355
0.00172354
0.00167297
0.00167297
0.00167297
0.00161878
0.00161878
0.00161878
0.00155999
0.00155999
0.00155999
0.00149431
0.00149431
0.00149431
0.00141842
0.00141842
0.00141841
0.00132816
0.00132816
0.00132815
0.00121914
0.00121914
0.00121913
0.00108994
0.00108994
0.00108994
0.000281044
0.000281044
0.000281043
0.000313218
0.000313218
0.000313217
0.00111318
0.00111318
0.00111317
0.00122964
0.00122964
0.00122964
0.00133402
0.00133402
0.00133402
0.00142247
0.00142247
0.00142247
0.00149766
0.00149766
0.00149766
0.00156313
0.00156313
0.00156312
0.00162192
0.00162192
0.00162192
0.00167622
0.00167621
0.00167621
0.00172693
0.00172693
0.00172693
0.00177359
0.00177359
0.00177359
0.00181455
0.00181455
0.00181454
0.0018477
0.0018477
0.00184769
0.00187131
0.0018713
0.0018713
0.00188416
0.00188416
0.00188416
0.00188416
0.00188416
0.00188416
0.0018713
0.0018713
0.0018713
0.00184769
0.00184769
0.00184768
0.00181454
0.00181454
0.00181453
0.00177358
0.00177358
0.00177357
0.00172692
0.00172692
0.00172691
0.0016762
0.0016762
0.00167619
0.00162191
0.00162191
0.0016219
0.00156312
0.00156312
0.00156311
0.00149766
0.00149766
0.00149766
0.00142248
0.00142248
0.00142247
0.00133403
0.00133403
0.00133402
0.00122965
0.00122965
0.00122965
0.00111318
0.00111318
0.00111318
0.000313219
0.00031322
0.000313219
0.000346523
0.000346523
0.000346522
0.00113444
0.00113444
0.00113444
0.00123803
0.00123803
0.00123803
0.00133672
0.00133672
0.00133672
0.00142269
0.00142269
0.00142268
0.00149677
0.00149677
0.00149676
0.00156176
0.00156176
0.00156175
0.00162039
0.00162039
0.00162038
0.00167466
0.00167466
0.00167466
0.00172543
0.00172543
0.00172542
0.00177216
0.00177216
0.00177215
0.00181317
0.00181317
0.00181317
0.00184637
0.00184636
0.00184636
0.00187001
0.00187
0.00187
0.00188288
0.00188287
0.00188287
0.00188287
0.00188287
0.00188287
0.00187
0.00187
0.00186999
0.00184636
0.00184635
0.00184635
0.00181316
0.00181316
0.00181315
0.00177214
0.00177214
0.00177213
0.00172541
0.00172541
0.00172541
0.00167465
0.00167465
0.00167464
0.00162037
0.00162037
0.00162037
0.00156175
0.00156175
0.00156174
0.00149676
0.00149676
0.00149676
0.00142269
0.00142269
0.00142268
0.00133673
0.00133673
0.00133673
0.00123804
0.00123804
0.00123804
0.00113445
0.00113445
0.00113444
0.000346525
0.000346525
0.000346524
0.000380934
0.000380935
0.000380934
0.0011542
0.0011542
0.0011542
0.00124542
0.00124542
0.00124542
0.00133748
0.00133748
0.00133748
0.00142026
0.00142026
0.00142026
0.00149281
0.00149281
0.00149281
0.00155709
0.00155709
0.00155708
0.0016154
0.0016154
0.0016154
0.00166956
0.00166956
0.00166956
0.0017203
0.0017203
0.0017203
0.00176704
0.00176704
0.00176703
0.00180807
0.00180807
0.00180806
0.00184127
0.00184127
0.00184126
0.00186491
0.00186491
0.0018649
0.00187778
0.00187778
0.00187777
0.00187778
0.00187777
0.00187777
0.00186491
0.0018649
0.0018649
0.00184126
0.00184126
0.00184125
0.00180806
0.00180805
0.00180805
0.00176702
0.00176702
0.00176702
0.00172029
0.00172029
0.00172028
0.00166955
0.00166955
0.00166954
0.00161539
0.00161539
0.00161538
0.00155708
0.00155708
0.00155707
0.00149281
0.00149281
0.0014928
0.00142026
0.00142026
0.00142026
0.00133749
0.00133749
0.00133748
0.00124543
0.00124543
0.00124543
0.00115421
0.00115421
0.0011542
0.000380937
0.000380937
0.000380936
0.000416371
0.000416372
0.000416371
0.00117249
0.00117249
0.00117249
0.00125242
0.00125242
0.00125242
0.00133705
0.00133705
0.00133705
0.00141592
0.00141592
0.00141592
0.00148649
0.00148649
0.00148648
0.00154978
0.00154978
0.00154978
0.00160763
0.00160763
0.00160762
0.00166158
0.00166158
0.00166158
0.00171224
0.00171224
0.00171223
0.00175893
0.00175893
0.00175893
0.00179994
0.00179994
0.00179993
0.00183312
0.00183312
0.00183311
0.00185674
0.00185674
0.00185674
0.0018696
0.0018696
0.00186959
0.0018696
0.00186959
0.00186959
0.00185674
0.00185673
0.00185673
0.00183311
0.00183311
0.00183311
0.00179993
0.00179993
0.00179992
0.00175892
0.00175892
0.00175891
0.00171222
0.00171222
0.00171221
0.00166157
0.00166156
0.00166156
0.00160762
0.00160762
0.00160761
0.00154977
0.00154977
0.00154977
0.00148649
0.00148649
0.00148648
0.00141592
0.00141592
0.00141592
0.00133706
0.00133706
0.00133705
0.00125243
0.00125243
0.00125243
0.0011725
0.0011725
0.00117249
0.000416374
0.000416374
0.000416373
0.000452684
0.000452684
0.000452683
0.00118911
0.00118911
0.0011891
0.00125936
0.00125936
0.00125935
0.00133593
0.00133593
0.00133592
0.00141014
0.00141014
0.00141014
0.00147822
0.00147822
0.00147822
0.00154023
0.00154023
0.00154023
0.00159744
0.00159744
0.00159743
0.00165109
0.00165109
0.00165108
0.00170159
0.00170159
0.00170159
0.00174822
0.00174821
0.00174821
0.00178917
0.00178917
0.00178916
0.00182231
0.0018223
0.0018223
0.00184589
0.00184589
0.00184588
0.00185873
0.00185872
0.00185872
0.00185872
0.00185872
0.00185872
0.00184589
0.00184588
0.00184588
0.0018223
0.00182229
0.00182229
0.00178916
0.00178915
0.00178915
0.0017482
0.0017482
0.00174819
0.00170158
0.00170158
0.00170157
0.00165107
0.00165107
0.00165106
0.00159743
0.00159743
0.00159742
0.00154022
0.00154022
0.00154022
0.00147822
0.00147822
0.00147821
0.00141014
0.00141014
0.00141014
0.00133593
0.00133593
0.00133593
0.00125937
0.00125937
0.00125936
0.00118911
0.00118911
0.00118911
0.000452687
0.000452687
0.000452686
0.000489649
0.00048965
0.000489648
0.0012037
0.0012037
0.00120369
0.00126634
0.00126634
0.00126634
0.00133444
0.00133444
0.00133444
0.00140326
0.00140326
0.00140325
0.00146829
0.00146829
0.00146828
0.00152867
0.00152867
0.00152866
0.00158504
0.00158504
0.00158503
0.00163827
0.00163827
0.00163826
0.00168857
0.00168857
0.00168856
0.00173507
0.00173507
0.00173507
0.00177595
0.00177595
0.00177594
0.00180902
0.00180901
0.00180901
0.00183255
0.00183255
0.00183254
0.00184536
0.00184535
0.00184535
0.00184535
0.00184535
0.00184535
0.00183255
0.00183254
0.00183254
0.00180901
0.001809
0.001809
0.00177594
0.00177593
0.00177593
0.00173506
0.00173506
0.00173505
0.00168855
0.00168855
0.00168854
0.00163825
0.00163825
0.00163824
0.00158503
0.00158502
0.00158502
0.00152866
0.00152865
0.00152865
0.00146828
0.00146828
0.00146827
0.00140326
0.00140326
0.00140325
0.00133445
0.00133445
0.00133444
0.00126635
0.00126635
0.00126634
0.0012037
0.0012037
0.0012037
0.000489652
0.000489653
0.000489651
0.000526966
0.000526967
0.000526965
0.00121586
0.00121586
0.00121586
0.00127332
0.00127332
0.00127331
0.00133283
0.00133283
0.00133282
0.00139551
0.00139551
0.00139551
0.00145688
0.00145688
0.00145687
0.00151523
0.00151523
0.00151522
0.00157053
0.00157053
0.00157053
0.00162322
0.00162322
0.00162321
0.00167324
0.00167324
0.00167323
0.00171959
0.00171959
0.00171958
0.00176035
0.00176035
0.00176035
0.00179334
0.00179333
0.00179333
0.0018168
0.0018168
0.00181679
0.00182957
0.00182956
0.00182956
0.00182957
0.00182956
0.00182956
0.0018168
0.00181679
0.00181679
0.00179333
0.00179332
0.00179332
0.00176034
0.00176034
0.00176033
0.00171957
0.00171957
0.00171956
0.00167322
0.00167322
0.00167321
0.0016232
0.0016232
0.00162319
0.00157052
0.00157052
0.00157051
0.00151521
0.00151521
0.00151521
0.00145687
0.00145687
0.00145686
0.00139551
0.00139551
0.00139551
0.00133283
0.00133283
0.00133282
0.00127333
0.00127333
0.00127332
0.00121587
0.00121587
0.00121586
0.00052697
0.00052697
0.000526969
0.000564262
0.000564263
0.000564261
0.00122518
0.00122518
0.00122517
0.0012801
0.0012801
0.00128009
0.00133119
0.00133119
0.00133119
0.0013871
0.0013871
0.0013871
0.00144413
0.00144413
0.00144413
0.00149999
0.00149999
0.00149999
0.00155396
0.00155396
0.00155395
0.00160595
0.00160595
0.00160594
0.00165561
0.00165561
0.00165561
0.00170176
0.00170176
0.00170175
0.00174239
0.00174238
0.00174238
0.00177526
0.00177526
0.00177525
0.00179864
0.00179864
0.00179863
0.00181136
0.00181135
0.00181135
0.00181136
0.00181135
0.00181135
0.00179864
0.00179863
0.00179863
0.00177525
0.00177525
0.00177524
0.00174237
0.00174237
0.00174236
0.00170174
0.00170174
0.00170173
0.00165559
0.00165559
0.00165559
0.00160593
0.00160593
0.00160592
0.00155394
0.00155394
0.00155393
0.00149998
0.00149998
0.00149997
0.00144413
0.00144412
0.00144412
0.0013871
0.0013871
0.00138709
0.00133119
0.00133119
0.00133119
0.00128011
0.0012801
0.0012801
0.00122518
0.00122518
0.00122517
0.000564266
0.000564266
0.000564265
0.000601101
0.000601101
0.0006011
0.00123124
0.00123124
0.00123123
0.00128637
0.00128637
0.00128636
0.00132957
0.00132956
0.00132956
0.00137816
0.00137816
0.00137815
0.00143017
0.00143017
0.00143016
0.00148301
0.00148301
0.00148301
0.00153531
0.00153531
0.00153531
0.00158643
0.00158643
0.00158642
0.00163564
0.00163564
0.00163563
0.00168153
0.00168152
0.00168152
0.00172198
0.00172198
0.00172197
0.00175473
0.00175472
0.00175472
0.00177801
0.001778
0.001778
0.00179066
0.00179066
0.00179065
0.00179066
0.00179066
0.00179065
0.001778
0.001778
0.00177799
0.00175472
0.00175471
0.00175471
0.00172197
0.00172196
0.00172196
0.00168151
0.0016815
0.0016815
0.00163562
0.00163561
0.00163561
0.00158641
0.00158641
0.0015864
0.00153529
0.00153529
0.00153529
0.001483
0.001483
0.00148299
0.00143016
0.00143016
0.00143015
0.00137815
0.00137815
0.00137815
0.00132957
0.00132957
0.00132956
0.00128637
0.00128637
0.00128636
0.00123124
0.00123124
0.00123124
0.000601104
0.000601105
0.000601103
0.000637004
0.000637005
0.000637003
0.00123371
0.00123371
0.0012337
0.00129169
0.00129169
0.00129169
0.00132787
0.00132787
0.00132786
0.00136877
0.00136877
0.00136877
0.00141507
0.00141507
0.00141506
0.00146431
0.00146431
0.00146431
0.00151456
0.00151456
0.00151456
0.00156459
0.00156459
0.00156458
0.00161322
0.00161322
0.00161321
0.00165879
0.00165879
0.00165878
0.00169904
0.00169903
0.00169903
0.00173162
0.00173162
0.00173161
0.00175479
0.00175478
0.00175478
0.00176737
0.00176737
0.00176736
0.00176737
0.00176736
0.00176736
0.00175478
0.00175477
0.00175477
0.00173161
0.00173161
0.0017316
0.00169902
0.00169902
0.00169901
0.00165877
0.00165877
0.00165876
0.0016132
0.0016132
0.00161319
0.00156457
0.00156456
0.00156456
0.00151454
0.00151454
0.00151453
0.0014643
0.00146429
0.00146429
0.00141506
0.00141506
0.00141505
0.00136877
0.00136876
0.00136876
0.00132787
0.00132787
0.00132786
0.0012917
0.0012917
0.00129169
0.00123371
0.00123371
0.0012337
0.000637008
0.000637008
0.000637006
0.000671485
0.000671485
0.000671483
0.00123232
0.00123232
0.00123231
0.00129556
0.00129556
0.00129556
0.00132592
0.00132592
0.00132591
0.00135898
0.00135898
0.00135897
0.0013989
0.0013989
0.00139889
0.0014439
0.0014439
0.00144389
0.00149166
0.00149165
0.00149165
0.00154033
0.00154032
0.00154032
0.00158824
0.00158824
0.00158824
0.00163342
0.00163341
0.00163341
0.00167341
0.00167341
0.0016734
0.00170581
0.0017058
0.0017058
0.00172883
0.00172882
0.00172882
0.00174133
0.00174133
0.00174132
0.00174133
0.00174132
0.00174132
0.00172882
0.00172881
0.00172881
0.0017058
0.00170579
0.00170579
0.0016734
0.00167339
0.00167339
0.0016334
0.00163339
0.00163339
0.00158822
0.00158822
0.00158821
0.0015403
0.0015403
0.00154029
0.00149163
0.00149163
0.00149162
0.00144388
0.00144388
0.00144387
0.00139888
0.00139888
0.00139888
0.00135897
0.00135897
0.00135896
0.00132591
0.00132591
0.00132591
0.00129557
0.00129557
0.00129556
0.00123232
0.00123232
0.00123231
0.000671488
0.000671489
0.000671486
0.000704081
0.000704081
0.000704079
0.00122691
0.00122691
0.0012269
0.00129739
0.00129739
0.00129738
0.00132341
0.00132341
0.0013234
0.00134873
0.00134873
0.00134872
0.0013817
0.0013817
0.00138169
0.00142178
0.00142178
0.00142177
0.00146652
0.00146652
0.00146652
0.00151352
0.00151352
0.00151351
0.00156055
0.00156055
0.00156054
0.00160524
0.00160523
0.00160523
0.00164492
0.00164492
0.00164491
0.00167709
0.00167709
0.00167708
0.00169995
0.00169994
0.00169994
0.00171236
0.00171235
0.00171235
0.00171236
0.00171235
0.00171234
0.00169994
0.00169994
0.00169993
0.00167708
0.00167708
0.00167707
0.00164491
0.0016449
0.0016449
0.00160522
0.00160521
0.00160521
0.00156053
0.00156053
0.00156052
0.0015135
0.00151349
0.00151349
0.0014665
0.0014665
0.00146649
0.00142176
0.00142175
0.00142175
0.00138168
0.00138168
0.00138167
0.00134872
0.00134872
0.00134871
0.0013234
0.0013234
0.00132339
0.00129739
0.00129739
0.00129738
0.00122691
0.00122691
0.0012269
0.000704084
0.000704084
0.000704082
0.000734402
0.000734403
0.0007344
0.00121744
0.00121744
0.00121743
0.00129652
0.00129652
0.00129652
0.00131992
0.00131992
0.00131991
0.00133791
0.00133791
0.0013379
0.00136347
0.00136347
0.00136346
0.00139794
0.00139794
0.00139793
0.0014391
0.00143909
0.00143909
0.00148405
0.00148404
0.00148404
0.00152998
0.00152997
0.00152997
0.00157406
0.00157405
0.00157405
0.00161337
0.00161337
0.00161336
0.00164527
0.00164527
0.00164526
0.00166793
0.00166792
0.00166792
0.00168023
0.00168022
0.00168022
0.00168023
0.00168022
0.00168021
0.00166793
0.00166792
0.00166791
0.00164526
0.00164525
0.00164525
0.00161335
0.00161335
0.00161334
0.00157403
0.00157403
0.00157402
0.00152995
0.00152995
0.00152994
0.00148402
0.00148402
0.00148401
0.00143907
0.00143907
0.00143906
0.00139791
0.00139791
0.0013979
0.00136345
0.00136344
0.00136344
0.00133789
0.00133789
0.00133789
0.00131991
0.00131991
0.0013199
0.00129653
0.00129652
0.00129652
0.00121744
0.00121744
0.00121743
0.000734405
0.000734405
0.000734403
0.000762169
0.00076217
0.000762167
0.001204
0.001204
0.00120399
0.00129233
0.00129233
0.00129232
0.00131492
0.00131492
0.00131491
0.00132629
0.00132629
0.00132628
0.00134417
0.00134417
0.00134416
0.00137235
0.00137235
0.00137235
0.00140929
0.00140929
0.00140928
0.00145175
0.00145175
0.00145174
0.00149632
0.00149632
0.00149631
0.00153965
0.00153965
0.00153964
0.00157851
0.00157851
0.0015785
0.0016101
0.00161009
0.00161009
0.00163253
0.00163252
0.00163251
0.00164469
0.00164468
0.00164468
0.00164469
0.00164468
0.00164468
0.00163252
0.00163251
0.00163251
0.00161008
0.00161008
0.00161007
0.00157849
0.00157849
0.00157848
0.00153963
0.00153963
0.00153962
0.00149629
0.00149629
0.00149628
0.00145172
0.00145172
0.00145171
0.00140926
0.00140926
0.00140925
0.00137232
0.00137232
0.00137232
0.00134414
0.00134414
0.00134413
0.00132627
0.00132627
0.00132626
0.00131491
0.00131491
0.0013149
0.00129233
0.00129233
0.00129232
0.001204
0.001204
0.00120399
0.000762171
0.000762172
0.000762169
0.000787245
0.000787245
0.000787242
0.0011868
0.0011868
0.0011868
0.00128418
0.00128418
0.00128417
0.00130776
0.00130776
0.00130775
0.00131353
0.00131353
0.00131352
0.00132369
0.00132369
0.00132368
0.00134499
0.00134499
0.00134498
0.00137702
0.00137702
0.00137701
0.00141649
0.00141648
0.00141648
0.00145938
0.00145937
0.00145937
0.00150179
0.00150179
0.00150178
0.00154009
0.00154009
0.00154008
0.0015713
0.00157129
0.00157128
0.00159345
0.00159345
0.00159344
0.00160546
0.00160545
0.00160545
0.00160546
0.00160545
0.00160545
0.00159345
0.00159344
0.00159343
0.00157128
0.00157128
0.00157127
0.00154007
0.00154007
0.00154006
0.00150176
0.00150176
0.00150175
0.00145935
0.00145934
0.00145933
0.00141645
0.00141645
0.00141644
0.00137699
0.00137699
0.00137698
0.00134496
0.00134496
0.00134495
0.00132366
0.00132366
0.00132365
0.00131351
0.00131351
0.0013135
0.00130775
0.00130775
0.00130774
0.00128418
0.00128418
0.00128417
0.0011868
0.0011868
0.00118679
0.000787246
0.000787247
0.000787244
0.00080965
0.00080965
0.000809647
0.00116619
0.00116619
0.00116619
0.00127154
0.00127153
0.00127152
0.00129772
0.00129772
0.00129771
0.00129916
0.00129916
0.00129915
0.00130185
0.00130184
0.00130183
0.00131578
0.00131578
0.00131577
0.00134222
0.00134221
0.00134221
0.0013781
0.00137809
0.00137808
0.00141893
0.00141893
0.00141892
0.0014602
0.0014602
0.00146019
0.00149783
0.00149782
0.00149781
0.00152857
0.00152856
0.00152856
0.0015504
0.0015504
0.00155039
0.00156223
0.00156222
0.00156222
0.00156223
0.00156222
0.00156222
0.0015504
0.00155039
0.00155038
0.00152855
0.00152855
0.00152854
0.0014978
0.0014978
0.00149779
0.00146017
0.00146017
0.00146016
0.0014189
0.00141889
0.00141889
0.00137806
0.00137806
0.00137805
0.00134218
0.00134218
0.00134217
0.00131574
0.00131574
0.00131573
0.00130181
0.00130181
0.0013018
0.00129913
0.00129913
0.00129912
0.0012977
0.0012977
0.00129769
0.00127153
0.00127153
0.00127152
0.00116619
0.00116619
0.00116618
0.000809651
0.000809651
0.000809648
0.000829559
0.00082956
0.000829557
0.00114264
0.00114264
0.00114263
0.00125396
0.00125396
0.00125395
0.00128401
0.00128401
0.001284
0.00128258
0.00128258
0.00128257
0.00127834
0.00127833
0.00127832
0.00128461
0.00128461
0.0012846
0.00130478
0.00130478
0.00130477
0.00133643
0.00133643
0.00133642
0.00137476
0.00137476
0.00137475
0.00141461
0.00141461
0.0014146
0.0014514
0.00145139
0.00145139
0.00148159
0.00148158
0.00148157
0.00150304
0.00150304
0.00150303
0.00151466
0.00151465
0.00151465
0.00151466
0.00151465
0.00151464
0.00150303
0.00150303
0.00150302
0.00148157
0.00148157
0.00148156
0.00145137
0.00145137
0.00145136
0.00141458
0.00141458
0.00141457
0.00137472
0.00137472
0.00137471
0.00133639
0.00133639
0.00133638
0.00130474
0.00130473
0.00130472
0.00128457
0.00128457
0.00128456
0.0012783
0.0012783
0.00127829
0.00128255
0.00128255
0.00128254
0.00128399
0.00128399
0.00128398
0.00125395
0.00125395
0.00125394
0.00114263
0.00114263
0.00114263
0.000829559
0.00082956
0.000829557
0.000847275
0.000847276
0.000847272
0.0011167
0.0011167
0.00111669
0.00123117
0.00123117
0.00123116
0.00126586
0.00126586
0.00126585
0.00126308
0.00126308
0.00126307
0.00125275
0.00125275
0.00125274
0.00125131
0.00125131
0.0012513
0.00126462
0.00126462
0.00126461
0.00129136
0.00129136
0.00129135
0.00132665
0.00132664
0.00132663
0.00136474
0.00136474
0.00136473
0.00140049
0.00140049
0.00140048
0.00143001
0.00143
0.00142999
0.00145101
0.00145101
0.001451
0.00146238
0.00146237
0.00146236
0.00146237
0.00146237
0.00146236
0.001451
0.001451
0.00145099
0.00142999
0.00142999
0.00142998
0.00140047
0.00140046
0.00140045
0.00136471
0.00136471
0.0013647
0.00132661
0.00132661
0.0013266
0.00129132
0.00129132
0.00129131
0.00126457
0.00126457
0.00126456
0.00125126
0.00125126
0.00125125
0.00125271
0.00125271
0.0012527
0.00126305
0.00126305
0.00126304
0.00126584
0.00126584
0.00126583
0.00123116
0.00123116
0.00123115
0.00111669
0.00111669
0.00111668
0.000847274
0.000847274
0.000847271
0.000863183
0.000863183
0.00086318
0.00108903
0.00108903
0.00108902
0.00120308
0.00120308
0.00120307
0.00124252
0.00124252
0.00124251
0.00123985
0.00123985
0.00123984
0.00122456
0.00122455
0.00122454
0.00121565
0.00121564
0.00121563
0.00122164
0.00122164
0.00122163
0.00124278
0.00124277
0.00124276
0.0012744
0.0012744
0.00127439
0.00131033
0.00131032
0.00131031
0.00134478
0.00134478
0.00134477
0.00137347
0.00137347
0.00137346
0.00139394
0.00139393
0.00139392
0.00140501
0.001405
0.001405
0.00140501
0.001405
0.00140499
0.00139393
0.00139392
0.00139391
0.00137346
0.00137345
0.00137344
0.00134476
0.00134475
0.00134474
0.00131029
0.00131028
0.00131027
0.00127436
0.00127436
0.00127435
0.00124273
0.00124273
0.00124272
0.00122159
0.00122159
0.00122158
0.0012156
0.00121559
0.00121558
0.00122451
0.00122451
0.0012245
0.00123981
0.00123981
0.0012398
0.0012425
0.0012425
0.00124248
0.00120307
0.00120307
0.00120306
0.00108902
0.00108902
0.00108901
0.00086318
0.000863181
0.000863177
0.000877698
0.000877698
0.000877695
0.00106031
0.00106031
0.0010603
0.0011698
0.0011698
0.00116979
0.00121336
0.00121336
0.00121335
0.00121203
0.00121203
0.00121202
0.0011931
0.0011931
0.00119309
0.0011773
0.00117729
0.00117728
0.00117575
0.00117575
0.00117573
0.0011906
0.0011906
0.00119059
0.00121788
0.00121788
0.00121787
0.00125112
0.00125111
0.0012511
0.00128396
0.00128396
0.00128395
0.00131164
0.00131163
0.00131162
0.00133145
0.00133144
0.00133144
0.00134218
0.00134217
0.00134216
0.00134217
0.00134217
0.00134216
0.00133144
0.00133143
0.00133142
0.00131162
0.00131161
0.0013116
0.00128393
0.00128393
0.00128392
0.00125108
0.00125107
0.00125106
0.00121784
0.00121784
0.00121782
0.00119055
0.00119055
0.00119054
0.00117569
0.00117569
0.00117568
0.00117724
0.00117724
0.00117723
0.00119305
0.00119305
0.00119304
0.00121199
0.00121199
0.00121198
0.00121334
0.00121333
0.00121332
0.00116979
0.00116979
0.00116977
0.0010603
0.0010603
0.00106029
0.000877694
0.000877694
0.000877691
0.000891211
0.000891211
0.000891207
0.00103128
0.00103128
0.00103127
0.00113166
0.00113166
0.00113165
0.00117793
0.00117792
0.00117791
0.00117878
0.00117878
0.00117876
0.00115765
0.00115765
0.00115763
0.00113588
0.00113587
0.00113586
0.00112684
0.00112684
0.00112682
0.00113484
0.00113484
0.00113482
0.00115703
0.00115702
0.00115701
0.00118695
0.00118695
0.00118694
0.00121777
0.00121776
0.00121775
0.00124419
0.00124418
0.00124417
0.00126321
0.00126321
0.0012632
0.00127353
0.00127352
0.00127351
0.00127352
0.00127352
0.00127351
0.0012632
0.0012632
0.00126319
0.00124417
0.00124416
0.00124415
0.00121774
0.00121773
0.00121772
0.00118691
0.00118691
0.0011869
0.00115698
0.00115698
0.00115696
0.00113479
0.00113478
0.00113477
0.00112678
0.00112678
0.00112677
0.00113582
0.00113581
0.0011358
0.0011576
0.00115759
0.00115758
0.00117874
0.00117873
0.00117872
0.0011779
0.00117789
0.00117788
0.00113165
0.00113164
0.00113163
0.00103127
0.00103126
0.00103125
0.000891206
0.000891206
0.000891202
0.000904041
0.000904041
0.000904037
0.00100264
0.00100264
0.00100263
0.0010892
0.00108919
0.00108918
0.00113599
0.00113598
0.00113597
0.00113935
0.00113935
0.00113934
0.00111745
0.00111745
0.00111743
0.00109096
0.00109096
0.00109094
0.00107486
0.00107485
0.00107484
0.00107561
0.00107561
0.00107559
0.00109192
0.00109191
0.0010919
0.0011178
0.00111779
0.00111778
0.00114606
0.00114606
0.00114605
0.00117091
0.0011709
0.00117089
0.00118898
0.00118897
0.00118896
0.00119881
0.0011988
0.00119879
0.0011988
0.0011988
0.00119879
0.00118897
0.00118896
0.00118895
0.00117088
0.00117088
0.00117087
0.00114603
0.00114602
0.00114601
0.00111775
0.00111775
0.00111774
0.00109187
0.00109187
0.00109186
0.00107555
0.00107555
0.00107554
0.00107479
0.00107479
0.00107478
0.0010909
0.00109089
0.00109088
0.00111739
0.00111739
0.00111738
0.00113931
0.0011393
0.00113929
0.00113595
0.00113595
0.00113594
0.00108918
0.00108917
0.00108916
0.00100263
0.00100263
0.00100262
0.000904034
0.000904034
0.000904031
0.000916399
0.000916399
0.000916396
0.000975106
0.000975104
0.000975093
0.00104314
0.00104314
0.00104312
0.00108762
0.00108762
0.0010876
0.00109322
0.00109322
0.00109321
0.00107184
0.00107184
0.00107182
0.00104216
0.00104216
0.00104214
0.00101983
0.00101983
0.00101982
0.00101321
0.00101321
0.0010132
0.00102289
0.00102289
0.00102288
0.00104386
0.00104385
0.00104384
0.00106891
0.00106891
0.0010689
0.00109178
0.00109178
0.00109177
0.00110868
0.00110868
0.00110867
0.00111794
0.00111793
0.00111792
0.00111793
0.00111793
0.00111792
0.00110867
0.00110867
0.00110866
0.00109176
0.00109176
0.00109175
0.00106888
0.00106888
0.00106886
0.00104381
0.00104381
0.0010438
0.00102284
0.00102284
0.00102283
0.00101316
0.00101315
0.00101314
0.00101977
0.00101976
0.00101975
0.0010421
0.00104209
0.00104208
0.00107178
0.00107178
0.00107176
0.00109317
0.00109317
0.00109316
0.00108758
0.00108758
0.00108757
0.00104312
0.00104311
0.0010431
0.000975087
0.000975086
0.000975076
0.000916391
0.000916391
0.000916388
0.000928374
0.000928374
0.00092837
0.000949355
0.000949353
0.000949342
0.000994444
0.000994442
0.000994429
0.00103327
0.00103327
0.00103326
0.00104024
0.00104023
0.00104022
0.00102042
0.00102042
0.00102041
0.000989291
0.000989288
0.000989274
0.000962011
0.000962008
0.000961995
0.000948263
0.00094826
0.000948247
0.000950663
0.00095066
0.000950648
0.000965752
0.000965749
0.000965738
0.000986787
0.000986784
0.000986773
0.00100717
0.00100717
0.00100716
0.00102264
0.00102264
0.00102263
0.0010312
0.0010312
0.00103119
0.0010312
0.0010312
0.00103119
0.00102263
0.00102262
0.00102262
0.00100715
0.00100715