/*--------------------------------*- C++ -*----------------------------------*\
  =========                 |
  \\      /  F ield         | OpenFOAM: The Open Source CFD Toolbox
   \\    /   O peration     | Website:  https://openfoam.org
    \\  /    A nd           | Version:  6
     \\/     M anipulation  |
\*---------------------------------------------------------------------------*/
FoamFile
{
    version     2.0;
    format      ascii;
    class       volScalarField;
    location    "20";
    object      p;
}
// * * * * * * * * * * * * * * * * * * * * * * * * * * * * * * * * * * * * * //

dimensions      [0 2 -2 0 0 0 0];

internalField   nonuniform List<scalar> 
3240
(
-3.94426e-19
4.31281e-08
4.31963e-09
1.29342e-10
4.30821e-08
4.35226e-09
1.81138e-10
4.30643e-08
4.38215e-09
2.09717e-10
4.30473e-08
4.39827e-09
2.32542e-10
4.30159e-08
4.42175e-09
2.82018e-10
4.29492e-08
4.45325e-09
3.29233e-10
4.28707e-08
4.47901e-09
3.80431e-10
4.28167e-08
4.48051e-09
4.44728e-10
4.24543e-08
4.79257e-09
4.92685e-10
4.21541e-08
5.05507e-09
5.46672e-10
4.18815e-08
5.26805e-09
5.23786e-10
4.16606e-08
5.51884e-09
5.54229e-10
4.14337e-08
5.72492e-09
5.18802e-10
4.13143e-08
5.89343e-09
4.88425e-10
4.12504e-08
5.98916e-09
4.84639e-10
4.12518e-08
6.00034e-09
5.13197e-10
4.13407e-08
5.92804e-09
6.5154e-10
4.15595e-08
5.88583e-09
1.26058e-09
4.23488e-08
6.32979e-09
-5.01858e-10
4.09747e-08
4.39228e-09
2.12433e-10
4.19099e-08
4.92439e-09
2.84282e-10
4.22745e-08
4.81719e-09
2.32295e-10
4.25369e-08
4.65657e-09
1.88211e-10
4.27283e-08
4.5298e-09
1.46872e-10
4.28859e-08
4.43062e-09
1.15294e-10
4.29659e-08
4.39508e-09
1.07755e-10
4.29803e-08
4.38826e-09
1.06698e-10
4.29719e-08
4.398e-09
1.23697e-10
4.29519e-08
4.39955e-09
1.14865e-10
4.29432e-08
4.41606e-09
3.67354e-12
4.31279e-08
4.32069e-09
1.28917e-10
4.30824e-08
4.35257e-09
1.80535e-10
4.30647e-08
4.38242e-09
2.09165e-10
4.30476e-08
4.39856e-09
2.31937e-10
4.30162e-08
4.4221e-09
2.81174e-10
4.29497e-08
4.45361e-09
3.2821e-10
4.28712e-08
4.47945e-09
3.79191e-10
4.28169e-08
4.48158e-09
4.43277e-10
4.24554e-08
4.79289e-09
4.91078e-10
4.21554e-08
5.05533e-09
5.45057e-10
4.18828e-08
5.26838e-09
5.22239e-10
4.16619e-08
5.51912e-09
5.52765e-10
4.14349e-08
5.72514e-09
5.1742e-10
4.13155e-08
5.89362e-09
4.8713e-10
4.12515e-08
5.98932e-09
4.83345e-10
4.12529e-08
6.0005e-09
5.11807e-10
4.13419e-08
5.92822e-09
6.50129e-10
4.15608e-08
5.8861e-09
1.25462e-09
4.23461e-08
6.32574e-09
-4.98333e-10
4.09806e-08
4.39753e-09
2.10814e-10
4.19111e-08
4.92459e-09
2.82892e-10
4.22757e-08
4.81753e-09
2.31074e-10
4.25377e-08
4.65691e-09
1.87226e-10
4.27289e-08
4.53018e-09
1.46129e-10
4.28861e-08
4.43112e-09
1.14763e-10
4.29659e-08
4.39555e-09
1.07276e-10
4.29804e-08
4.38862e-09
1.06175e-10
4.29721e-08
4.3983e-09
1.23075e-10
4.29523e-08
4.39983e-09
1.14089e-10
4.29437e-08
4.41638e-09
1.30862e-11
4.31262e-08
4.32309e-09
1.28554e-10
4.30827e-08
4.35329e-09
1.7953e-10
4.3065e-08
4.38298e-09
2.08287e-10
4.30478e-08
4.39911e-09
2.31006e-10
4.30164e-08
4.42276e-09
2.79811e-10
4.29502e-08
4.45425e-09
3.26629e-10
4.28719e-08
4.48034e-09
3.77298e-10
4.28163e-08
4.48414e-09
4.41079e-10
4.24569e-08
4.79357e-09
4.88641e-10
4.21573e-08
5.05585e-09
5.42601e-10
4.18846e-08
5.26906e-09
5.19865e-10
4.16636e-08
5.51973e-09
5.50478e-10
4.14367e-08
5.72568e-09
5.15228e-10
4.13171e-08
5.89411e-09
4.85054e-10
4.12531e-08
5.9898e-09
4.81272e-10
4.12544e-08
6.00096e-09
5.09597e-10
4.13436e-08
5.92869e-09
6.47983e-10
4.15626e-08
5.88674e-09
1.24204e-09
4.23387e-08
6.31634e-09
-4.88878e-10
4.0993e-08
4.40955e-09
2.08336e-10
4.19128e-08
4.92495e-09
2.80876e-10
4.22773e-08
4.81827e-09
2.29262e-10
4.25389e-08
4.65757e-09
1.8575e-10
4.27297e-08
4.5309e-09
1.44995e-10
4.28862e-08
4.43213e-09
1.13983e-10
4.29656e-08
4.39649e-09
1.06563e-10
4.29803e-08
4.38934e-09
1.05426e-10
4.29722e-08
4.39892e-09
1.22153e-10
4.29525e-08
4.40042e-09
1.13515e-10
4.29437e-08
4.41685e-09
2.67754e-11
4.31226e-08
4.32686e-09
1.28791e-10
4.30826e-08
4.3545e-09
1.78439e-10
4.30651e-08
4.38382e-09
2.07387e-10
4.30478e-08
4.39988e-09
2.30109e-10
4.30163e-08
4.42367e-09
2.78334e-10
4.29506e-08
4.45513e-09
3.25032e-10
4.28722e-08
4.48171e-09
3.7542e-10
4.28138e-08
4.48858e-09
4.38918e-10
4.2458e-08
4.79464e-09
4.86237e-10
4.21589e-08
5.0566e-09
5.40166e-10
4.1886e-08
5.2701e-09
5.17487e-10
4.1665e-08
5.52069e-09
5.48119e-10
4.14381e-08
5.72662e-09
5.12915e-10
4.13184e-08
5.89504e-09
4.82823e-10
4.12543e-08
5.99072e-09
4.7905e-10
4.12556e-08
6.00186e-09
5.07259e-10
4.13449e-08
5.92956e-09
6.45867e-10
4.15642e-08
5.88783e-09
1.22365e-09
4.23257e-08
6.30161e-09
-4.72488e-10
4.10111e-08
4.42833e-09
2.05866e-10
4.19139e-08
4.92544e-09
2.79049e-10
4.22786e-08
4.81939e-09
2.27564e-10
4.25396e-08
4.65854e-09
1.84356e-10
4.273e-08
4.53194e-09
1.43904e-10
4.28857e-08
4.43367e-09
1.13322e-10
4.29647e-08
4.3979e-09
1.05931e-10
4.29798e-08
4.39042e-09
1.048e-10
4.29717e-08
4.39988e-09
1.21296e-10
4.29524e-08
4.40135e-09
1.13582e-10
4.29429e-08
4.41747e-09
4.20609e-11
4.31175e-08
4.33197e-09
1.29635e-10
4.3082e-08
4.35623e-09
1.77256e-10
4.30648e-08
4.38498e-09
2.06434e-10
4.30476e-08
4.4009e-09
2.29196e-10
4.30159e-08
4.42482e-09
2.76692e-10
4.29507e-08
4.45626e-09
3.23341e-10
4.2872e-08
4.4836e-09
3.73461e-10
4.28097e-08
4.49485e-09
4.36682e-10
4.24587e-08
4.79613e-09
4.8374e-10
4.21603e-08
5.05761e-09
5.37625e-10
4.18871e-08
5.27153e-09
5.14979e-10
4.16662e-08
5.52204e-09
5.45563e-10
4.14392e-08
5.72797e-09
5.10359e-10
4.13195e-08
5.89641e-09
4.80323e-10
4.12553e-08
5.99211e-09
4.76565e-10
4.12565e-08
6.00321e-09
5.04669e-10
4.13461e-08
5.93086e-09
6.43671e-10
4.15657e-08
5.88942e-09
1.1994e-09
4.23074e-08
6.28165e-09
-4.49379e-10
4.1035e-08
4.45382e-09
2.03267e-10
4.19147e-08
4.92607e-09
2.77307e-10
4.22795e-08
4.82094e-09
2.25889e-10
4.254e-08
4.65986e-09
1.82969e-10
4.273e-08
4.53332e-09
1.42806e-10
4.28846e-08
4.43576e-09
1.12736e-10
4.2963e-08
4.39978e-09
1.05357e-10
4.29787e-08
4.39188e-09
1.04275e-10
4.29707e-08
4.40119e-09
1.20503e-10
4.29517e-08
4.40263e-09
1.1387e-10
4.29415e-08
4.41834e-09
5.78644e-11
4.31114e-08
4.33814e-09
1.31092e-10
4.30808e-08
4.35855e-09
1.75975e-10
4.30643e-08
4.3865e-09
2.05371e-10
4.30472e-08
4.40219e-09
2.28185e-10
4.30153e-08
4.42625e-09
2.74793e-10
4.29507e-08
4.45768e-09
3.21428e-10
4.28714e-08
4.48609e-09
3.71268e-10
4.28041e-08
4.50296e-09
4.34194e-10
4.24591e-08
4.79813e-09
4.80957e-10
4.21616e-08
5.05892e-09
5.3478e-10
4.18881e-08
5.27339e-09
5.12148e-10
4.16672e-08
5.52381e-09
5.42624e-10
4.14403e-08
5.72979e-09
5.07381e-10
4.13204e-08
5.89828e-09
4.77386e-10
4.12562e-08
5.99402e-09
4.73648e-10
4.12573e-08
6.00507e-09
5.01647e-10
4.13471e-08
5.93263e-09
6.41217e-10
4.15671e-08
5.89155e-09
1.16982e-09
4.22844e-08
6.2572e-09
-4.2059e-10
4.10641e-08
4.48524e-09
2.00354e-10
4.19152e-08
4.92686e-09
2.75489e-10
4.22803e-08
4.82297e-09
2.24096e-10
4.25401e-08
4.66157e-09
1.81473e-10
4.27296e-08
4.5351e-09
1.41619e-10
4.2883e-08
4.43843e-09
1.12161e-10
4.29608e-08
4.4022e-09
1.048e-10
4.29771e-08
4.39376e-09
1.03805e-10
4.29692e-08
4.4029e-09
1.19742e-10
4.29507e-08
4.40428e-09
1.14224e-10
4.29398e-08
4.41948e-09
7.28513e-11
4.31048e-08
4.34487e-09
1.33143e-10
4.30792e-08
4.36144e-09
1.74643e-10
4.30635e-08
4.38839e-09
2.04199e-10
4.30466e-08
4.40377e-09
2.27058e-10
4.30145e-08
4.42796e-09
2.72636e-10
4.29506e-08
4.45942e-09
3.1927e-10
4.28705e-08
4.48921e-09
3.68813e-10
4.27971e-08
4.5127e-09
4.3142e-10
4.24593e-08
4.80066e-09
4.7785e-10
4.21629e-08
5.06056e-09
5.31591e-10
4.18889e-08
5.27571e-09
5.08949e-10
4.16681e-08
5.52606e-09
5.39248e-10
4.14412e-08
5.73211e-09
5.03925e-10
4.13213e-08
5.9007e-09
4.73955e-10
4.1257e-08
5.99649e-09
4.70242e-10
4.1258e-08
6.00749e-09
4.98135e-10
4.13481e-08
5.9349e-09
6.38455e-10
4.15686e-08
5.89427e-09
1.1352e-09
4.22572e-08
6.22862e-09
-3.8658e-10
4.10979e-08
4.52223e-09
1.97093e-10
4.19154e-08
4.92784e-09
2.73562e-10
4.22809e-08
4.82548e-09
2.22159e-10
4.254e-08
4.6637e-09
1.79846e-10
4.2729e-08
4.5373e-09
1.40336e-10
4.28809e-08
4.44168e-09
1.11577e-10
4.29579e-08
4.40514e-09
1.04262e-10
4.29751e-08
4.39606e-09
1.03386e-10
4.29672e-08
4.40503e-09
1.19026e-10
4.29491e-08
4.4063e-09
1.14617e-10
4.29378e-08
4.42083e-09
8.69931e-11
4.30978e-08
4.35199e-09
1.35776e-10
4.3077e-08
4.36492e-09
1.73338e-10
4.30624e-08
4.39068e-09
2.0294e-10
4.30458e-08
4.40565e-09
2.25815e-10
4.30135e-08
4.42996e-09
2.70242e-10
4.29503e-08
4.46147e-09
3.16873e-10
4.28692e-08
4.49298e-09
3.66101e-10
4.2789e-08
4.52389e-09
4.28368e-10
4.24592e-08
4.80377e-09
4.74427e-10
4.21641e-08
5.06254e-09
5.28065e-10
4.18897e-08
5.27851e-09
5.05387e-10
4.16688e-08
5.52881e-09
5.35428e-10
4.14421e-08
5.73499e-09
4.99982e-10
4.1322e-08
5.90371e-09
4.70016e-10
4.12576e-08
5.9996e-09
4.66334e-10
4.12585e-08
6.01051e-09
4.94126e-10
4.13489e-08
5.93775e-09
6.35368e-10
4.15701e-08
5.89761e-09
1.09619e-09
4.22262e-08
6.19653e-09
-3.48098e-10
4.11359e-08
4.5641e-09
1.93519e-10
4.19155e-08
4.92906e-09
2.71534e-10
4.22814e-08
4.82849e-09
2.20088e-10
4.25396e-08
4.66625e-09
1.78096e-10
4.2728e-08
4.53993e-09
1.38972e-10
4.28782e-08
4.44549e-09
1.10986e-10
4.29545e-08
4.4086e-09
1.03761e-10
4.29725e-08
4.3988e-09
1.03033e-10
4.29646e-08
4.40756e-09
1.18388e-10
4.29471e-08
4.40867e-09
1.15061e-10
4.29355e-08
4.42237e-09
1.00194e-10
4.30906e-08
4.35936e-09
1.38959e-10
4.30743e-08
4.36893e-09
1.72146e-10
4.30609e-08
4.39337e-09
2.01627e-10
4.30446e-08
4.40782e-09
2.2447e-10
4.30123e-08
4.43224e-09
2.67647e-10
4.29498e-08
4.46387e-09
3.14256e-10
4.28674e-08
4.49742e-09
3.63154e-10
4.27799e-08
4.53632e-09
4.25059e-10
4.24587e-08
4.80748e-09
4.70713e-10
4.21652e-08
5.0649e-09
5.24226e-10
4.18902e-08
5.28181e-09
5.01477e-10
4.16694e-08
5.53208e-09
5.31171e-10
4.14427e-08
5.73846e-09
4.9555e-10
4.13225e-08
5.90738e-09
4.65562e-10
4.1258e-08
6.00339e-09
4.61914e-10
4.12587e-08
6.01422e-09
4.89619e-10
4.13496e-08
5.94123e-09
6.31942e-10
4.15715e-08
5.90161e-09
1.05348e-09
4.2192e-08
6.16161e-09
-3.05917e-10
4.11772e-08
4.61009e-09
1.89701e-10
4.19152e-08
4.93055e-09
2.69417e-10
4.22817e-08
4.832e-09
2.1791e-10
4.25389e-08
4.66923e-09
1.76244e-10
4.27266e-08
4.543e-09
1.37553e-10
4.2875e-08
4.44983e-09
1.10404e-10
4.29504e-08
4.41256e-09
1.03327e-10
4.29693e-08
4.40197e-09
1.02766e-10
4.29615e-08
4.41048e-09
1.17869e-10
4.29446e-08
4.41134e-09
1.15551e-10
4.29329e-08
4.42412e-09
1.12387e-10
4.30833e-08
4.36682e-09
1.42638e-10
4.3071e-08
4.37343e-09
1.71154e-10
4.3059e-08
4.39645e-09
2.003e-10
4.30432e-08
4.4103e-09
2.23042e-10
4.30108e-08
4.4348e-09
2.64891e-10
4.29491e-08
4.4666e-09
3.11445e-10
4.28652e-08
4.50252e-09
3.59997e-10
4.277e-08
4.54977e-09
4.21519e-10
4.24578e-08
4.81182e-09
4.66734e-10
4.21661e-08
5.06764e-09
5.20097e-10
4.18905e-08
5.2856e-09
4.97234e-10
4.16697e-08
5.53591e-09
5.26479e-10
4.14431e-08
5.7426e-09
4.90627e-10
4.13227e-08
5.91176e-09
4.6059e-10
4.12581e-08
6.00792e-09
4.5698e-10
4.12587e-08
6.01864e-09
4.8462e-10
4.13501e-08
5.9454e-09
6.28148e-10
4.15727e-08
5.90629e-09
1.00771e-09
4.21552e-08
6.12449e-09
-2.60771e-10
4.12211e-08
4.65952e-09
1.85726e-10
4.19148e-08
4.9324e-09
2.67218e-10
4.22818e-08
4.83598e-09
2.15649e-10
4.25379e-08
4.67266e-09
1.74315e-10
4.27249e-08
4.54651e-09
1.36109e-10
4.28714e-08
4.45465e-09
1.09845e-10
4.29458e-08
4.41699e-09
1.02986e-10
4.29655e-08
4.40558e-09
1.02604e-10
4.29579e-08
4.41379e-09
1.17511e-10
4.29416e-08
4.4143e-09
1.16075e-10
4.29301e-08
4.42606e-09
1.23555e-10
4.3076e-08
4.37424e-09
1.46757e-10
4.30672e-08
4.37837e-09
1.70448e-10
4.30566e-08
4.39996e-09
1.99011e-10
4.30414e-08
4.4131e-09
2.21568e-10
4.30091e-08
4.43762e-09
2.62029e-10
4.29481e-08
4.46968e-09
3.08482e-10
4.28624e-08
4.50828e-09
3.56673e-10
4.27595e-08
4.56402e-09
4.17789e-10
4.24565e-08
4.8168e-09
4.62536e-10
4.21669e-08
5.07078e-09
5.15722e-10
4.18905e-08
5.2899e-09
4.92692e-10
4.16698e-08
5.54033e-09
5.21369e-10
4.14432e-08
5.74745e-09
4.85226e-10
4.13226e-08
5.9169e-09
4.55114e-10
4.12579e-08
6.01324e-09
4.51544e-10
4.12583e-08
6.02384e-09
4.79149e-10
4.13502e-08
5.95032e-09
6.23954e-10
4.15736e-08
5.91166e-09
9.59558e-10
4.21162e-08
6.0858e-09
-2.13367e-10
4.1267e-08
4.71168e-09
1.81724e-10
4.19142e-08
4.93469e-09
2.6496e-10
4.22816e-08
4.84041e-09
2.13353e-10
4.25366e-08
4.67653e-09
1.7235e-10
4.27228e-08
4.55045e-09
1.34683e-10
4.28672e-08
4.45992e-09
1.09341e-10
4.29406e-08
4.42186e-09
1.02771e-10
4.29612e-08
4.40959e-09
1.02571e-10
4.29536e-08
4.41747e-09
1.1736e-10
4.29381e-08
4.4175e-09
1.16647e-10
4.2927e-08
4.42817e-09
1.33725e-10
4.30689e-08
4.38152e-09
1.51259e-10
4.30628e-08
4.38368e-09
1.70111e-10
4.30537e-08
4.40387e-09
1.97823e-10
4.30393e-08
4.4162e-09
2.20099e-10
4.30071e-08
4.4407e-09
2.59137e-10
4.29467e-08
4.4731e-09
3.05435e-10
4.28591e-08
4.51465e-09
3.53252e-10
4.27485e-08
4.57884e-09
4.13939e-10
4.24546e-08
4.8224e-09
4.58186e-10
4.21673e-08
5.07434e-09
5.11166e-10
4.18903e-08
5.29468e-09
4.87894e-10
4.16694e-08
5.54539e-09
5.1587e-10
4.14429e-08
5.75306e-09
4.79382e-10
4.13221e-08
5.92283e-09
4.49172e-10
4.12574e-08
6.01935e-09
4.45644e-10
4.12575e-08
6.02982e-09
4.73248e-10
4.13501e-08
5.95603e-09
6.19326e-10
4.15741e-08
5.91771e-09
9.09668e-10
4.20754e-08
6.04617e-09
-1.64367e-10
4.13142e-08
4.7659e-09
1.77868e-10
4.19134e-08
4.93753e-09
2.62678e-10
4.2281e-08
4.84524e-09
2.11089e-10
4.25349e-08
4.68083e-09
1.70414e-10
4.27203e-08
4.5548e-09
1.33336e-10
4.28625e-08
4.46557e-09
1.08938e-10
4.29349e-08
4.42712e-09
1.02723e-10
4.29562e-08
4.41401e-09
1.02695e-10
4.29489e-08
4.4215e-09
1.17467e-10
4.29341e-08
4.42091e-09
1.17273e-10
4.29237e-08
4.43043e-09
1.42925e-10
4.3062e-08
4.38858e-09
1.56099e-10
4.30579e-08
4.3893e-09
1.70216e-10
4.30504e-08
4.40817e-09
1.96816e-10
4.30367e-08
4.41962e-09
2.18717e-10
4.30048e-08
4.44401e-09
2.56322e-10
4.2945e-08
4.47685e-09
3.02409e-10
4.28552e-08
4.5216e-09
3.49839e-10
4.27372e-08
4.59401e-09
4.10072e-10
4.24522e-08
4.82863e-09
4.53786e-10
4.21673e-08
5.07831e-09
5.06521e-10
4.18896e-08
5.29996e-09
4.82908e-10
4.16685e-08
5.55115e-09
5.10035e-10
4.14422e-08
5.75946e-09
4.73159e-10
4.13212e-08
5.92956e-09
4.42835e-10
4.12564e-08
6.02627e-09
4.39347e-10
4.12563e-08
6.03659e-09
4.66994e-10
4.13495e-08
5.96254e-09
6.14238e-10
4.1574e-08
5.92438e-09
8.58709e-10
4.20333e-08
6.00623e-09
-1.14394e-10
4.13618e-08
4.82153e-09
1.7439e-10
4.19126e-08
4.94103e-09
2.60447e-10
4.228e-08
4.85042e-09
2.08964e-10
4.25328e-08
4.68554e-09
1.68604e-10
4.27172e-08
4.55954e-09
1.32158e-10
4.28573e-08
4.47155e-09
1.08706e-10
4.29287e-08
4.43272e-09
1.02893e-10
4.29506e-08
4.41879e-09
1.03007e-10
4.29436e-08
4.42585e-09
1.17886e-10
4.29295e-08
4.42452e-09
1.17934e-10
4.29202e-08
4.43283e-09
1.5122e-10
4.30554e-08
4.39538e-09
1.61241e-10
4.30524e-08
4.39513e-09
1.70829e-10
4.30464e-08
4.41285e-09
1.96086e-10
4.30335e-08
4.42333e-09
2.17535e-10
4.3002e-08
4.44755e-09
2.53736e-10
4.29427e-08
4.48092e-09
2.99564e-10
4.28506e-08
4.52908e-09
3.46597e-10
4.27255e-08
4.60934e-09
4.06345e-10
4.2449e-08
4.83546e-09
4.49483e-10
4.21668e-08
5.08271e-09
5.01912e-10
4.18883e-08
5.30579e-09
4.77826e-10
4.1667e-08
5.55764e-09
5.03946e-10
4.14408e-08
5.76666e-09
4.66661e-10
4.13197e-08
5.93708e-09
4.36207e-10
4.12549e-08
6.03396e-09
4.32758e-10
4.12546e-08
6.04412e-09
4.60505e-10
4.13485e-08
5.96986e-09
6.08679e-10
4.15732e-08
5.9316e-09
8.07372e-10
4.19903e-08
5.96658e-09
-6.40418e-11
4.14092e-08
4.87793e-09
1.71582e-10
4.19117e-08
4.94536e-09
2.58389e-10
4.22783e-08
4.85592e-09
2.07129e-10
4.253e-08
4.69067e-09
1.67077e-10
4.27135e-08
4.56468e-09
1.31288e-10
4.28515e-08
4.47779e-09
1.08745e-10
4.29218e-08
4.43861e-09
1.03344e-10
4.29443e-08
4.42391e-09
1.03545e-10
4.29377e-08
4.43049e-09
1.18664e-10
4.29244e-08
4.4283e-09
1.18638e-10
4.29165e-08
4.43538e-09
1.58704e-10
4.3049e-08
4.40189e-09
1.66655e-10
4.30464e-08
4.40114e-09
1.7201e-10
4.30419e-08
4.41788e-09
1.95757e-10
4.30298e-08
4.42733e-09
2.16729e-10
4.29986e-08
4.45131e-09
2.5162e-10
4.29396e-08
4.48534e-09
2.97127e-10
4.2845e-08
4.53711e-09
3.43746e-10
4.27134e-08
4.6247e-09
4.02978e-10
4.24448e-08
4.8429e-09
4.45481e-10
4.21655e-08
5.08761e-09
4.97514e-10
4.18863e-08
5.31221e-09
4.72775e-10
4.16647e-08
5.56486e-09
4.97739e-10
4.14388e-08
5.77466e-09
4.60033e-10
4.13176e-08
5.94534e-09
4.29434e-10
4.12528e-08
6.04238e-09
4.26021e-10
4.12522e-08
6.05236e-09
4.53941e-10
4.13468e-08
5.97798e-09
6.02674e-10
4.15713e-08
5.93926e-09
7.56392e-10
4.19468e-08
5.92781e-09
-1.38625e-11
4.14554e-08
4.93451e-09
1.69812e-10
4.19105e-08
4.95073e-09
2.56687e-10
4.22758e-08
4.86169e-09
2.05778e-10
4.25265e-08
4.69623e-09
1.66089e-10
4.27089e-08
4.57021e-09
1.30946e-10
4.28449e-08
4.48428e-09
1.0922e-10
4.29143e-08
4.44475e-09
1.04165e-10
4.29373e-08
4.42932e-09
1.04356e-10
4.29313e-08
4.43539e-09
1.19847e-10
4.29187e-08
4.43222e-09
1.19446e-10
4.29125e-08
4.43807e-09
1.65503e-10
4.30427e-08
4.40811e-09
1.7233e-10
4.30399e-08
4.40725e-09
1.73817e-10
4.30367e-08
4.42323e-09
1.96002e-10
4.30254e-08
4.43164e-09
2.16599e-10
4.29944e-08
4.45536e-09
2.50316e-10
4.29353e-08
4.49018e-09
2.95397e-10
4.2838e-08
4.54576e-09
3.4157e-10
4.27006e-08
4.64005e-09
4.00246e-10
4.24393e-08
4.85099e-09
4.42049e-10
4.21631e-08
5.09303e-09
4.93564e-10
4.18831e-08
5.31922e-09
4.67931e-10
4.16615e-08
5.57283e-09
4.91599e-10
4.1436e-08
5.78343e-09
4.53472e-10
4.13147e-08
5.95429e-09
4.22706e-10
4.12499e-08
6.05145e-09
4.19327e-10
4.12491e-08
6.06125e-09
4.47513e-10
4.13445e-08
5.98684e-09
5.96292e-10
4.15682e-08
5.94721e-09
7.06556e-10
4.19031e-08
5.89055e-09
3.56572e-11
4.14995e-08
4.99057e-09
1.69517e-10
4.19091e-08
4.95734e-09
2.55587e-10
4.22719e-08
4.8678e-09
2.05153e-10
4.25218e-08
4.70231e-09
1.65994e-10
4.27029e-08
4.57622e-09
1.31461e-10
4.28371e-08
4.49107e-09
1.10444e-10
4.29058e-08
4.45111e-09
1.05495e-10
4.29295e-08
4.43501e-09
1.05502e-10
4.29244e-08
4.44051e-09
1.21488e-10
4.29125e-08
4.43627e-09
1.20442e-10
4.29082e-08
4.44092e-09
1.71752e-10
4.30364e-08
4.41406e-09
1.78273e-10
4.30327e-08
4.41345e-09
1.76315e-10
4.30309e-08
4.42886e-09
1.97109e-10
4.30199e-08
4.43629e-09
2.17662e-10
4.29886e-08
4.45972e-09
2.50227e-10
4.29292e-08
4.49558e-09
2.94707e-10
4.28292e-08
4.55515e-09
3.4039e-10
4.26867e-08
4.65551e-09
3.98477e-10
4.2432e-08
4.85993e-09
4.39494e-10
4.21592e-08
5.09908e-09
4.9039e-10
4.18787e-08
5.32678e-09
4.63532e-10
4.1657e-08
5.58153e-09
4.85776e-10
4.14321e-08
5.79291e-09
4.47228e-10
4.13109e-08
5.96385e-09
4.16271e-10
4.12462e-08
6.06107e-09
4.12923e-10
4.12452e-08
6.07066e-09
4.41488e-10
4.13413e-08
5.99638e-09
5.89657e-10
4.15636e-08
5.95528e-09
6.58714e-10
4.18595e-08
5.85538e-09
8.41374e-11
4.15407e-08
5.04542e-09
1.71169e-10
4.19072e-08
4.96545e-09
2.55397e-10
4.22662e-08
4.87444e-09
2.05939e-10
4.2515e-08
4.70915e-09
1.67033e-10
4.26952e-08
4.5829e-09
1.33216e-10
4.28277e-08
4.49824e-09
1.12931e-10
4.28958e-08
4.45767e-09
1.07588e-10
4.29206e-08
4.44099e-09
1.07071e-10
4.29167e-08
4.44585e-09
1.23651e-10
4.29055e-08
4.44049e-09
1.21714e-10
4.29034e-08
4.44394e-09
1.77612e-10
4.30301e-08
4.41978e-09
1.84512e-10
4.3025e-08
4.41974e-09
1.79604e-10
4.30241e-08
4.43481e-09
1.99578e-10
4.30128e-08
4.44133e-09
2.20424e-10
4.29808e-08
4.46448e-09
2.51556e-10
4.2921e-08
4.50184e-09
2.95639e-10
4.28178e-08
4.56554e-09
3.4088e-10
4.26705e-08
4.67147e-09
3.98455e-10
4.24218e-08
4.87008e-09
4.38159e-10
4.21531e-08
5.10606e-09
4.8838e-10
4.18725e-08
5.33491e-09
4.59908e-10
4.1651e-08
5.59098e-09
4.80591e-10
4.14269e-08
5.80305e-09
4.41618e-10
4.13059e-08
5.9739e-09
4.10441e-10
4.12414e-08
6.07109e-09
4.0712e-10
4.12402e-08
6.08048e-09
4.36195e-10
4.1337e-08
6.00651e-09
5.82962e-10
4.1557e-08
5.96328e-09
6.13797e-10
4.18164e-08
5.8229e-09
1.3128e-10
4.15778e-08
5.09846e-09
1.75253e-10
4.19042e-08
4.97554e-09
2.56846e-10
4.22575e-08
4.88202e-09
2.10032e-10
4.25039e-08
4.71717e-09
1.69712e-10
4.26848e-08
4.59069e-09
1.36391e-10
4.28162e-08
4.50606e-09
1.17126e-10
4.28839e-08
4.46451e-09
1.10919e-10
4.29102e-08
4.44729e-09
1.09201e-10
4.29083e-08
4.45144e-09
1.26409e-10
4.28976e-08
4.44492e-09
1.23372e-10
4.2898e-08
4.44717e-09
1.83275e-10
4.30234e-08
4.42535e-09
1.91104e-10
4.30164e-08
4.42615e-09
1.83902e-10
4.30161e-08
4.44115e-09
2.04135e-10
4.30034e-08
4.4467e-09
2.2507e-10
4.29705e-08
4.46997e-09
2.54816e-10
4.29095e-08
4.50947e-09
2.99981e-10
4.28015e-08
4.57741e-09
3.45151e-10
4.26496e-08
4.68838e-09
4.02588e-10
4.24057e-08
4.88197e-09
4.38982e-10
4.21433e-08
5.11454e-09
4.8784e-10
4.18641e-08
5.34383e-09
4.57528e-10
4.16431e-08
5.60115e-09
4.76452e-10
4.142e-08
5.8138e-09
4.37035e-10
4.12995e-08
5.98435e-09
4.05597e-10
4.12354e-08
6.08138e-09
4.02303e-10
4.1234e-08
6.09057e-09
4.32039e-10
4.13313e-08
6.01714e-09
5.76501e-10
4.1548e-08
5.97106e-09
5.72835e-10
4.17736e-08
5.79367e-09
1.7675e-10
4.16098e-08
5.14931e-09
1.82817e-10
4.18989e-08
4.9883e-09
2.62187e-10
4.22431e-08
4.8911e-09
2.17949e-10
4.24872e-08
4.72688e-09
1.76049e-10
4.26692e-08
4.60005e-09
1.41471e-10
4.28016e-08
4.51502e-09
1.23143e-10
4.28695e-08
4.47195e-09
1.16194e-10
4.28975e-08
4.45381e-09
1.12166e-10
4.28986e-08
4.4574e-09
1.29858e-10
4.28888e-08
4.44965e-09
1.25563e-10
4.28919e-08
4.45066e-09
1.88975e-10
4.30161e-08
4.43087e-09
1.98149e-10
4.30069e-08
4.43273e-09
1.89715e-10
4.30061e-08
4.44798e-09
2.11324e-10
4.29913e-08
4.45241e-09
2.31687e-10
4.2957e-08
4.47674e-09
2.62077e-10
4.28923e-08
4.51898e-09
3.08709e-10
4.27789e-08
4.59113e-09
3.54063e-10
4.26226e-08
4.70666e-09
4.11561e-10
4.23824e-08
4.89607e-09
4.4513e-10
4.21261e-08
5.12518e-09
4.88916e-10
4.18527e-08
5.35403e-09
4.5697e-10
4.16326e-08
5.61207e-09
4.73869e-10
4.1411e-08
5.82514e-09
4.33954e-10
4.12912e-08
5.99512e-09
4.02193e-10
4.12277e-08
6.09183e-09
3.98928e-10
4.12262e-08
6.10081e-09
4.29501e-10
4.13239e-08
6.02819e-09
5.70683e-10
4.1536e-08
5.9785e-09
5.36927e-10
4.17311e-08
5.76825e-09
2.20111e-10
4.16355e-08
5.19791e-09
1.97074e-10
4.18874e-08
5.00446e-09
2.7229e-10
4.22215e-08
4.90223e-09
2.28702e-10
4.24657e-08
4.73869e-09
1.86856e-10
4.26472e-08
4.61138e-09
1.50473e-10
4.27815e-08
4.52559e-09
1.31037e-10
4.28522e-08
4.48053e-09
1.23941e-10
4.28822e-08
4.46054e-09
1.16535e-10
4.28871e-08
4.46386e-09
1.34135e-10
4.28788e-08
4.45478e-09
1.28471e-10
4.28846e-08
4.4545e-09
1.94988e-10
4.30078e-08
4.43649e-09
2.0583e-10
4.2996e-08
4.4396e-09
1.97903e-10
4.29935e-08
4.45514e-09
2.21205e-10
4.29758e-08
4.45891e-09
2.41133e-10
4.29389e-08
4.48538e-09
2.74195e-10
4.28679e-08
4.53082e-09
3.20936e-10
4.27505e-08
4.60715e-09
3.66562e-10
4.259e-08
4.72682e-09
4.24184e-10
4.23529e-08
4.91287e-09
4.57693e-10
4.20997e-08
5.13859e-09
4.92699e-10
4.18366e-08
5.36628e-09
4.58691e-10
4.16189e-08
5.62388e-09
4.7339e-10
4.13992e-08
5.83712e-09
4.32918e-10
4.12807e-08
6.00617e-09
4.00731e-10
4.1218e-08
6.10239e-09
3.97501e-10
4.12164e-08
6.11118e-09
4.29104e-10
4.13142e-08
6.03964e-09
5.65982e-10
4.15203e-08
5.98559e-09
5.06974e-10
4.16886e-08
5.74727e-09
2.6198e-10
4.16525e-08
5.24461e-09
2.19112e-10
4.18682e-08
5.02464e-09
2.86032e-10
4.21935e-08
4.91598e-09
2.42804e-10
4.24382e-08
4.75307e-09
2.01165e-10
4.26194e-08
4.62516e-09
1.6423e-10
4.27546e-08
4.53824e-09
1.41641e-10
4.28306e-08
4.49078e-09
1.34198e-10
4.28637e-08
4.46794e-09
1.23239e-10
4.28728e-08
4.47068e-09
1.39445e-10
4.28672e-08
4.46042e-09
1.3232e-10
4.2876e-08
4.45878e-09
2.01631e-10
4.29982e-08
4.44238e-09
2.14413e-10
4.29835e-08
4.44683e-09
2.09105e-10
4.29775e-08
4.46253e-09
2.33652e-10
4.29564e-08
4.46692e-09
2.55535e-10
4.29135e-08
4.49646e-09
2.90438e-10
4.28368e-08
4.54546e-09
3.37103e-10
4.27154e-08
4.62599e-09
3.83068e-10
4.25509e-08
4.74952e-09
4.40908e-10
4.23159e-08
4.93296e-09
4.74703e-10
4.20655e-08
5.15536e-09
5.04559e-10
4.18095e-08
5.38142e-09
4.62847e-10
4.16013e-08
5.63721e-09
4.75412e-10
4.13841e-08
5.84995e-09
4.34491e-10
4.12671e-08
6.0176e-09
4.01799e-10
4.12056e-08
6.11307e-09
3.98614e-10
4.1204e-08
6.12168e-09
4.31388e-10
4.13015e-08
6.05156e-09
5.62764e-10
4.15003e-08
5.99251e-09
4.83476e-10
4.16457e-08
5.73173e-09
3.07463e-10
4.16545e-08
5.28989e-09
2.46906e-10
4.18426e-08
5.0494e-09
3.03923e-10
4.21581e-08
4.93307e-09
2.61024e-10
4.24034e-08
4.77066e-09
2.19389e-10
4.25847e-08
4.64197e-09
1.82031e-10
4.27211e-08
4.55346e-09
1.56989e-10
4.2802e-08
4.50325e-09
1.46822e-10
4.28416e-08
4.47671e-09
1.3297e-10
4.28553e-08
4.47774e-09
1.46065e-10
4.28537e-08
4.46669e-09
1.37379e-10
4.28655e-08
4.46366e-09
2.09248e-10
4.29868e-08
4.44878e-09
2.24167e-10
4.29689e-08
4.45458e-09
2.23329e-10
4.29578e-08
4.47048e-09
2.48654e-10
4.29323e-08
4.47716e-09
2.75527e-10
4.28796e-08
4.51053e-09
3.11106e-10
4.27978e-08
4.5635e-09
3.58092e-10
4.26719e-08
4.64834e-09
4.0455e-10
4.25034e-08
4.77558e-09
4.62729e-10
4.22698e-08
4.95712e-09
4.96732e-10
4.20222e-08
5.17626e-09
5.26354e-10
4.17689e-08
5.40019e-09
4.70963e-10
4.1577e-08
5.6532e-09
4.80205e-10
4.13648e-08
5.86409e-09
4.39073e-10
4.12498e-08
6.02975e-09
4.05782e-10
4.119e-08
6.12403e-09
4.02655e-10
4.11885e-08
6.1325e-09
4.36773e-10
4.12851e-08
6.06427e-09
5.61324e-10
4.14753e-08
5.99972e-09
4.681e-10
4.15999e-08
5.723e-09
3.5824e-10
4.16388e-08
5.33432e-09
2.8086e-10
4.18089e-08
5.07938e-09
3.27038e-10
4.21136e-08
4.95443e-09
2.84255e-10
4.23595e-08
4.79224e-09
2.42417e-10
4.25416e-08
4.66248e-09
2.0417e-10
4.26801e-08
4.57187e-09
1.77688e-10
4.27654e-08
4.51848e-09
1.61866e-10
4.28149e-08
4.48756e-09
1.45773e-10
4.28342e-08
4.48541e-09
1.54259e-10
4.28378e-08
4.47376e-09
1.43951e-10
4.28528e-08
4.46934e-09
2.18178e-10
4.2973e-08
4.45595e-09
2.35322e-10
4.29518e-08
4.46314e-09
2.40203e-10
4.29338e-08
4.47978e-09
2.66666e-10
4.29023e-08
4.49031e-09
2.99944e-10
4.28379e-08
4.52813e-09
3.36901e-10
4.27498e-08
4.58561e-09
3.84706e-10
4.26184e-08
4.67509e-09
4.32074e-10
4.24456e-08
4.8059e-09
4.90689e-10
4.22124e-08
4.9863e-09
5.24966e-10
4.19677e-08
5.20218e-09
5.54723e-10
4.17172e-08
5.42343e-09
4.90966e-10
4.15371e-08
5.67294e-09
4.90048e-10
4.13383e-08
5.88051e-09
4.46856e-10
4.12279e-08
6.04335e-09
4.1271e-10
4.11705e-08
6.13595e-09
4.09663e-10
4.11691e-08
6.14431e-09
4.45509e-10
4.12639e-08
6.07848e-09
5.64004e-10
4.14421e-08
6.00827e-09
4.68775e-10
4.15421e-08
5.72223e-09
4.10847e-10
4.16076e-08
5.3787e-09
3.21942e-10
4.1765e-08
5.11528e-09
3.56508e-10
4.2058e-08
4.98114e-09
3.13492e-10
4.23046e-08
4.81868e-09
2.71202e-10
4.24883e-08
4.68745e-09
2.31388e-10
4.26303e-08
4.59412e-09
2.02651e-10
4.27212e-08
4.53703e-09
1.79922e-10
4.27825e-08
4.50118e-09
1.61297e-10
4.28089e-08
4.49448e-09
1.64221e-10
4.28191e-08
4.48191e-09
1.52363e-10
4.28371e-08
4.47608e-09
2.28698e-10
4.29563e-08
4.46427e-09
2.48026e-10
4.29315e-08
4.47292e-09
2.59332e-10
4.2905e-08
4.49144e-09
2.90453e-10
4.2863e-08
4.50707e-09
3.2913e-10
4.27874e-08
4.54982e-09
3.68547e-10
4.26914e-08
4.61242e-09
4.17663e-10
4.25533e-08
4.70713e-09
4.66696e-10
4.23756e-08
4.84121e-09
5.2589e-10
4.2142e-08
5.02132e-09
5.60601e-10
4.18999e-08
5.23403e-09
5.90108e-10
4.16532e-08
5.45201e-09
5.25504e-10
4.14782e-08
5.69721e-09
5.14499e-10
4.12937e-08
5.90039e-09
4.59997e-10
4.1198e-08
6.05965e-09
4.24842e-10
4.11437e-08
6.15002e-09
4.21894e-10
4.11425e-08
6.15833e-09
4.59527e-10
4.12346e-08
6.09538e-09
5.80487e-10
4.139e-08
6.01947e-09
4.88151e-10
4.14689e-08
5.73019e-09
4.65916e-10
4.15598e-08
5.42403e-09
3.71087e-10
4.17084e-08
5.15765e-09
3.93493e-10
4.19895e-08
5.01415e-09
3.49674e-10
4.22372e-08
4.85074e-09
3.06586e-10
4.24234e-08
4.71754e-09
2.64496e-10
4.25702e-08
4.62079e-09
2.32226e-10
4.26686e-08
4.55948e-09
2.03407e-10
4.27412e-08
4.51827e-09
1.79125e-10
4.2779e-08
4.50592e-09
1.76039e-10
4.2797e-08
4.49154e-09
1.62929e-10
4.28178e-08
4.48423e-09
2.40906e-10
4.29362e-08
4.47417e-09
2.62367e-10
4.29075e-08
4.4845e-09
2.80554e-10
4.28706e-08
4.50633e-09
3.20147e-10
4.28134e-08
4.52805e-09
3.63602e-10
4.27273e-08
4.57595e-09
4.06868e-10
4.26215e-08
4.644e-09
4.58132e-10
4.24754e-08
4.74443e-09
5.09461e-10
4.22921e-08
4.88185e-09
5.69611e-10
4.20568e-08
5.06264e-09
6.04918e-10
4.18169e-08
5.27239e-09
6.33996e-10
4.15747e-08
5.48652e-09
5.69188e-10
4.14049e-08
5.72662e-09
5.56588e-10
4.12273e-08
5.92442e-09
4.89717e-10
4.11479e-08
6.07949e-09
4.53021e-10
4.10976e-08
6.16729e-09
4.50195e-10
4.10967e-08
6.1756e-09
4.90006e-10
4.11851e-08
6.11574e-09
6.13974e-10
4.13155e-08
6.0342e-09
5.20608e-10
4.1385e-08
5.74729e-09
5.25155e-10
4.14937e-08
5.47125e-09
4.29119e-10
4.1637e-08
5.20677e-09
4.39278e-10
4.19064e-08
5.05409e-09
3.9378e-10
4.21557e-08
4.88889e-09
3.49406e-10
4.23458e-08
4.75295e-09
3.04304e-10
4.2499e-08
4.65196e-09
2.66908e-10
4.26066e-08
4.58624e-09
2.32433e-10
4.26903e-08
4.53945e-09
1.98956e-10
4.2744e-08
4.52052e-09
1.89707e-10
4.27711e-08
4.50317e-09
1.75912e-10
4.27942e-08
4.49426e-09
2.54356e-10
4.29126e-08
4.48627e-09
2.78382e-10
4.2879e-08
4.49868e-09
3.03636e-10
4.28301e-08
4.52519e-09
3.53079e-10
4.2756e-08
4.5536e-09
4.03972e-10
4.26571e-08
4.60625e-09
4.52671e-10
4.25397e-08
4.68007e-09
5.07395e-10
4.23832e-08
4.78726e-09
5.61059e-10
4.21926e-08
4.92974e-09
6.22851e-10
4.19536e-08
5.11237e-09
6.59434e-10
4.17159e-08
5.31848e-09
6.87905e-10
4.14797e-08
5.52748e-09
6.21944e-10
4.13172e-08
5.76144e-09
6.09659e-10
4.11456e-08
5.95267e-09
5.40092e-10
4.10737e-08
6.10281e-09
5.00965e-10
4.10286e-08
6.18783e-09
4.98294e-10
4.10279e-08
6.19619e-09
5.41197e-10
4.11111e-08
6.13946e-09
6.58e-10
4.12254e-08
6.05279e-09
5.65651e-10
4.12898e-08
5.77354e-09
5.90325e-10
4.14074e-08
5.52179e-09
4.96918e-10
4.15476e-08
5.26382e-09
4.95376e-10
4.18057e-08
5.10275e-09
4.47275e-10
4.20577e-08
4.93431e-09
4.00753e-10
4.22537e-08
4.79431e-09
3.51649e-10
4.2416e-08
4.68745e-09
3.07263e-10
4.25348e-08
4.61717e-09
2.64697e-10
4.26318e-08
4.56505e-09
2.20275e-10
4.27037e-08
4.53885e-09
2.05126e-10
4.27409e-08
4.51743e-09
1.91485e-10
4.27656e-08
4.50676e-09
2.68331e-10
4.28853e-08
4.50151e-09
2.96352e-10
4.28445e-08
4.51664e-09
3.28404e-10
4.27832e-08
4.54859e-09
3.89679e-10
4.26904e-08
4.58352e-09
4.50754e-10
4.25767e-08
4.64035e-09
5.05161e-10
4.24447e-08
4.72272e-09
5.65607e-10
4.22735e-08
4.83873e-09
6.22733e-10
4.20716e-08
4.98891e-09
6.86781e-10
4.18279e-08
5.17399e-09
7.2519e-10
4.15926e-08
5.37572e-09
7.53089e-10
4.1364e-08
5.57799e-09