/*--------------------------------*- C++ -*----------------------------------*\
  =========                 |
  \\      /  F ield         | OpenFOAM: The Open Source CFD Toolbox
   \\    /   O peration     | Website:  https://openfoam.org
    \\  /    A nd           | Version:  6
     \\/     M anipulation  |
\*---------------------------------------------------------------------------*/
FoamFile
{
    version     2.0;
    format      ascii;
    class       surfaceScalarField;
    location    "20";
    object      phi;
}
// * * * * * * * * * * * * * * * * * * * * * * * * * * * * * * * * * * * * * //

dimensions      [0 3 -1 0 0 0 0];

internalField   nonuniform List<scalar> 
8442
(
2.406e-07
-1.11883e-13
-1.06274e-14
2.406e-07
-2.11711e-14
3.35632e-14
-1.97494e-14
1.29867e-13
3.31659e-07
-1.66125e-14
-4.76824e-13
3.31659e-07
-7.10185e-14
3.65415e-13
-1.28487e-15
4.75197e-14
4.48863e-07
-1.33238e-13
-4.66435e-13
4.48862e-07
2.12548e-14
3.87379e-13
3.18403e-14
7.02821e-14
5.71051e-07
-3.73082e-13
-5.34249e-13
5.7105e-07
2.69677e-13
4.06495e-13
4.30035e-14
1.08013e-13
7.07809e-07
-6.66679e-13
-6.64529e-13
7.07808e-07
6.17958e-13
5.03297e-13
1.10793e-14
1.38481e-13
8.64178e-07
-9.34572e-13
-9.10175e-13
8.64177e-07
9.68278e-13
7.43933e-13
-5.08556e-14
1.4576e-13
1.04516e-06
-1.12387e-12
-1.26045e-12
1.04516e-06
1.25735e-12
1.09719e-12
-1.4483e-13
1.57453e-13
1.25642e-06
-1.21054e-12
-1.6861e-12
1.25642e-06
1.50391e-12
1.46956e-12
-3.07385e-13
2.19188e-13
1.50436e-06
-1.15178e-12
-2.20832e-12
1.50436e-06
1.48626e-12
2.08924e-12
-3.436e-13
1.14176e-13
1.79577e-06
-9.52269e-13
-2.71893e-12
1.79577e-06
1.29385e-12
2.57782e-12
-3.42471e-13
1.32883e-13
2.13722e-06
-6.89808e-13
-3.10925e-12
2.13722e-06
1.01151e-12
2.91536e-12
-3.24482e-13
1.95782e-13
2.53435e-06
-4.80545e-13
-3.39523e-12
2.53435e-06
7.23547e-13
3.34484e-12
-2.4996e-13
5.45629e-14
2.99176e-06
-2.5983e-13
-3.57516e-12
2.99176e-06
4.22642e-13
3.82451e-12
-1.67925e-13
-2.51202e-13
3.51348e-06
-9.78945e-14
-3.78403e-12
3.51347e-06
1.84103e-13
4.27763e-12
-8.56882e-14
-4.99233e-13
4.10304e-06
1.55422e-15
-4.04791e-12
4.10304e-06
4.23504e-15
4.75842e-12
-7.66523e-15
-7.0812e-13
4.10304e-06
1.00558e-13
-4.04651e-12
4.10303e-06
-1.74021e-13
4.7532e-12
7.09861e-14
-7.06093e-13
3.51347e-06
2.61133e-13
-3.78435e-12
3.51346e-06
-4.10701e-13
4.27264e-12
1.49307e-13
-4.90512e-13
2.99174e-06
4.40238e-13
-3.53359e-12
2.99174e-06
-7.46535e-13
3.85442e-12
1.81589e-13
-1.96383e-13
2.53433e-06
7.97537e-13
-3.55629e-12
2.53433e-06
-9.03886e-13
3.21171e-12
3.86318e-13
-6.00975e-14
2.13719e-06
8.74412e-13
-2.93941e-12
2.13719e-06
-1.31513e-12
3.05091e-12
2.54354e-13
3.54832e-13
1.79576e-06
1.1125e-12
-2.75303e-12
1.79575e-06
-1.44365e-12
2.50964e-12
3.0705e-13
8.11296e-14
1.50434e-06
1.19214e-12
-2.22455e-12
1.50434e-06
-1.47056e-12
2.09455e-12
2.65759e-13
1.18559e-13
1.25641e-06
1.12699e-12
-1.70323e-12
1.25641e-06
-1.31958e-12
1.56271e-12
1.8104e-13
1.39408e-13
1.04515e-06
9.39241e-13
-1.25881e-12
1.04515e-06
-1.03428e-12
1.0976e-12
8.48489e-14
1.59842e-13
8.64174e-07
6.48842e-13
-8.85638e-13
8.64173e-07
-6.49333e-13
7.05323e-13
-5.74247e-15
1.76364e-13
7.07808e-07
3.24504e-13
-6.32825e-13
7.07807e-07
-2.63904e-13
4.62082e-13
-6.07055e-14
1.64616e-13
5.71052e-07
5.83456e-14
-5.09665e-13
5.71051e-07
6.68897e-15
3.83042e-13
-6.30941e-14
1.24578e-13
4.48865e-07
-7.4655e-14
-4.55984e-13
4.48864e-07
1.13397e-13
3.76437e-13
-3.745e-14
8.0196e-14
3.3166e-07
-4.29517e-14
-4.21039e-13
3.3166e-07
8.6435e-14
3.48926e-13
-4.44525e-14
7.43748e-14
2.40601e-07
-1.63262e-13
2.40601e-07
9.72655e-14
6.50278e-14
3.29496e-07
-8.76367e-14
-4.95075e-14
3.29496e-07
-6.53615e-14
9.48053e-14
-1.07006e-14
2.71203e-13
5.73478e-07
-1.07372e-15
-1.07866e-12
5.73478e-07
-1.33196e-13
8.24299e-13
1.44962e-14
1.46542e-13
7.577e-07
-2.04825e-13
-1.05244e-12
7.577e-07
2.49558e-14
8.36994e-13
6.11007e-14
2.05668e-13
9.4806e-07
-6.01037e-13
-1.18872e-12
9.48059e-07
4.27849e-13
8.42326e-13
8.13897e-14
2.99682e-13
1.16061e-06
-1.06611e-12
-1.49349e-12
1.1606e-06
9.78033e-13
1.04261e-12
3.10111e-14
3.93403e-13
1.40332e-06
-1.49135e-12
-2.04663e-12
1.40332e-06
1.53404e-12
1.56926e-12
-7.13615e-14
4.28507e-13
1.68381e-06
-1.78542e-12
-2.8513e-12
1.68381e-06
1.99393e-12
2.36281e-12
-2.26593e-13
4.72083e-13
2.01049e-06
-1.91245e-12
-3.83089e-12
2.01049e-06
2.31285e-12
3.25869e-12
-4.1971e-13
5.76063e-13
2.39285e-06
-1.81435e-12
-5.02915e-12
2.39285e-06
2.29388e-12
4.61996e-12
-4.92097e-13
3.97547e-13
2.84103e-06
-1.49275e-12
-6.21777e-12
2.84103e-06
1.99327e-12
5.74729e-12
-5.02428e-13
4.51591e-13
3.36505e-06
-1.08571e-12
-7.11257e-12
3.36505e-06
1.55553e-12
6.4978e-12
-4.73196e-13
6.1813e-13
3.97407e-06
-7.49996e-13
-7.77121e-12
3.97407e-06
1.10561e-12
7.39409e-12
-3.65205e-13
3.87515e-13
4.67622e-06
-4.10681e-13
-8.23581e-12
4.67621e-06
6.48258e-13
8.38526e-12
-2.44199e-13
-1.54268e-13
5.4793e-06
-1.55587e-13
-8.76908e-12
5.4793e-06
2.81456e-13
9.33832e-12
-1.24772e-13
-5.82593e-13
6.39097e-06
2.13475e-15
-9.41601e-12
6.39097e-06
6.84425e-15
1.03527e-11
-1.08798e-14
-9.3134e-13
6.39097e-06
1.59288e-13
-9.41247e-12
6.39096e-06
-2.63816e-13
1.03389e-11
1.04017e-13
-9.2719e-13
5.47929e-06
4.15127e-13
-8.77262e-12
5.47928e-06
-6.26779e-13
9.32636e-12
2.20151e-13
-5.64957e-13
4.6762e-06
7.16583e-13
-8.15475e-12
4.67619e-06
-1.1164e-12
8.44061e-12
2.89963e-13
-4.30606e-14
3.97404e-06
1.15674e-12
-8.05118e-12
3.97404e-06
-1.47203e-12
7.16461e-12
4.8454e-13
2.0279e-13
3.36502e-06
1.41847e-12
-6.81479e-12
3.36502e-06
-1.98808e-12
6.71813e-12
4.09272e-13
8.92592e-13
2.84101e-06
1.75976e-12
-6.26748e-12
2.841e-06
-2.22786e-12
5.61502e-12
4.48628e-13
3.49319e-13
2.39283e-06
1.88414e-12
-5.06662e-12
2.39283e-06
-2.28209e-12
4.65756e-12
3.82666e-13
3.93428e-13
2.01047e-06
1.79235e-12
-3.87718e-12
2.01047e-06
-2.06065e-12
3.44697e-12
2.53693e-13
4.2843e-13
1.6838e-06
1.50076e-12
-2.84863e-12
1.68379e-06
-1.61725e-12
2.37692e-12
1.03961e-13
4.68259e-13
1.40332e-06
1.0421e-12
-1.98738e-12
1.40332e-06
-1.02463e-12
1.49021e-12
-2.46919e-14
4.87917e-13
1.1606e-06
5.28552e-13
-1.41328e-12
1.1606e-06
-4.24761e-13
9.47564e-13
-1.03533e-13
4.52101e-13
9.48061e-07
9.43736e-14
-1.12804e-12
9.4806e-07
9.61355e-15
7.85056e-13
-1.00649e-13
3.37861e-13
7.57703e-07
-1.1997e-13
-1.03707e-12
7.57702e-07
1.83891e-13
8.12139e-13
-6.24805e-14
2.27476e-13
5.73479e-07
-7.72008e-14
-9.86216e-13
5.73479e-07
1.34045e-13
7.94675e-13
-5.87054e-14
1.97105e-13
3.29497e-07
-3.63467e-13
3.29497e-07
2.24827e-13
1.3581e-13
4.0393e-07
-1.22987e-13
-6.17668e-14
4.0393e-07
-8.48213e-14
1.64781e-13
-2.38573e-14
4.45151e-13
7.52305e-07
-2.84703e-14
-1.78848e-12
7.52305e-07
-1.70459e-13
1.34743e-12
5.40029e-15
2.95097e-13
9.89253e-07
-2.63202e-13
-1.7724e-12
9.89252e-07
2.39746e-14
1.34266e-12
7.24248e-14
3.9323e-13
1.23279e-06
-7.62259e-13
-1.96995e-12
1.23279e-06
5.31977e-13
1.31668e-12
1.06538e-13
5.63504e-13
1.50422e-06
-1.35147e-12
-2.48491e-12
1.50421e-06
1.22508e-12
1.63423e-12
5.22247e-14
7.4362e-13
1.81394e-06
-1.89137e-12
-3.40189e-12
1.81394e-06
1.91972e-12
2.49921e-12
-6.46143e-14
8.15916e-13
2.17164e-06
-2.26409e-12
-4.74635e-12
2.17164e-06
2.50675e-12
3.79419e-12
-2.65495e-13
9.22326e-13
2.58796e-06
-2.42475e-12
-6.38535e-12
2.58796e-06
2.91547e-12
5.30087e-12
-5.16041e-13
1.09082e-12
3.07483e-06
-2.29994e-12
-8.39016e-12
3.07482e-06
2.89968e-12
7.53648e-12
-6.16605e-13
8.33585e-13
3.64503e-06
-1.8905e-12
-1.03986e-11
3.64503e-06
2.51064e-12
9.43639e-12
-6.23012e-13
9.29277e-13
4.31133e-06
-1.37616e-12
-1.19083e-11
4.31133e-06
1.95808e-12
1.06571e-11
-5.8634e-13
1.25607e-12
5.08554e-06
-9.47932e-13
-1.30256e-11
5.08554e-06
1.39009e-12
1.20566e-11
-4.54807e-13
9.8759e-13
5.97842e-06
-5.19601e-13
-1.3884e-11
5.97842e-06
8.15474e-13
1.35997e-11
-3.0456e-13
2.75494e-13
7.00052e-06
-1.96655e-13
-1.48563e-11
7.00052e-06
3.53755e-13
1.50992e-11
-1.56076e-13
-2.65954e-13
8.1624e-06
2.78168e-15
-1.60122e-11
8.16239e-06
8.23375e-15
1.67056e-11
-1.38557e-14
-6.84214e-13
8.16239e-06
2.02481e-13
-1.60068e-11
8.16238e-06
-3.30992e-13
1.66799e-11
1.30619e-13
-6.78858e-13
7.0005e-06
5.34593e-13
-1.48722e-11
7.0005e-06
-7.79883e-13
1.50715e-11
2.8334e-13
-2.46496e-13
5.9784e-06
9.1168e-13
-1.37488e-11
5.97839e-06
-1.39943e-12
1.36918e-11
3.62918e-13
4.62678e-13
5.08551e-06
1.41352e-12
-1.33948e-11
5.0855e-06
-1.90057e-12
1.17585e-11
5.47685e-13
7.67038e-13
4.31129e-06
1.81888e-12
-1.15202e-11
4.31129e-06
-2.48321e-12
1.09136e-11
5.25747e-13
1.60165e-12
3.645e-06
2.24454e-12
-1.04605e-11
3.645e-06
-2.79305e-12
9.22237e-12
5.67859e-13
7.77062e-13
3.0748e-06
2.38981e-12
-8.44262e-12
3.0748e-06
-2.87449e-12
7.63768e-12
4.71441e-13
8.21896e-13
2.58794e-06
2.27273e-12
-6.46761e-12
2.58793e-06
-2.60052e-12
5.62167e-12
3.09027e-13
8.49669e-13
2.17163e-06
1.90268e-12
-4.74235e-12
2.17162e-06
-2.04069e-12
3.83317e-12
1.21637e-13
9.03359e-13
1.81393e-06
1.31871e-12
-3.29768e-12
1.81393e-06
-1.28813e-12
2.35836e-12
-3.97519e-14
9.22862e-13
1.50421e-06
6.63123e-13
-2.33881e-12
1.50421e-06
-5.23882e-13
1.46341e-12
-1.39166e-13
8.52546e-13
1.23279e-06
1.06361e-13
-1.85327e-12
1.23279e-06
3.02965e-14
1.2097e-12
-1.32042e-13
6.33908e-13
9.89256e-07
-1.68177e-13
-1.72224e-12
9.89255e-07
2.53935e-13
1.28928e-12
-8.30279e-14
4.37395e-13
7.52307e-07
-1.11369e-13
-1.6643e-12
7.52306e-07
1.81639e-13
1.3075e-12
-7.18575e-14
3.66679e-13
4.03931e-07
-6.05636e-13
4.03931e-07
3.88753e-13
2.12466e-13
4.91877e-07
-1.52096e-13
-5.519e-14
4.91877e-07
-1.08874e-13
2.48032e-13
-3.61713e-14
6.52465e-13
9.29929e-07
-5.13043e-14
-2.60424e-12
9.29928e-07
-2.10925e-13
1.92603e-12
-3.68317e-15
5.01022e-13
1.22152e-06
-3.1697e-13
-2.63198e-12
1.22152e-06
1.93517e-14
1.90033e-12
8.54141e-14
6.41435e-13
1.51983e-06
-9.17217e-13
-2.89414e-12
1.51983e-06
6.29523e-13
1.83531e-12
1.3408e-13
9.10477e-13
1.85159e-06
-1.63067e-12
-3.66341e-12
1.85159e-06
1.46293e-12
2.29374e-12
7.73593e-14
1.19938e-12
2.22979e-06
-2.28487e-12
-5.01029e-12
2.22979e-06
2.29416e-12
3.55824e-12
-5.25759e-14
1.3182e-12
2.66632e-06
-2.73685e-12
-6.98676e-12
2.66632e-06
3.00438e-12
5.42426e-12
-2.9467e-13
1.51652e-12
3.17411e-06
-2.9324e-12
-9.39772e-12
3.1741e-06
3.50416e-12
7.63005e-12
-6.02649e-13
1.77776e-12
3.76762e-06
-2.78221e-12
-1.23471e-11
3.76762e-06
3.48984e-12
1.088e-11
-7.28331e-13
1.43688e-12
4.46238e-06
-2.28759e-12
-1.5324e-11
4.46237e-06
3.01676e-12
1.36833e-11
-7.32622e-13
1.59057e-12
5.27392e-06
-1.66697e-12
-1.75737e-11
5.27392e-06
2.35271e-12
1.54369e-11
-6.90926e-13
2.14344e-12
6.21678e-06
-1.1473e-12
-1.92443e-11
6.21678e-06
1.66961e-12
1.73739e-11
-5.37596e-13
1.89918e-12
7.30436e-06
-6.29421e-13
-2.06177e-11
7.30436e-06
9.79512e-13
1.95037e-11
-3.60531e-13
1.10034e-12
8.54993e-06
-2.38463e-13
-2.21597e-11
8.54993e-06
4.24776e-13
2.15896e-11
-1.85064e-13
5.35382e-13
9.96694e-06
3.41876e-15
-2.39746e-11
9.96693e-06
9.86976e-15
2.38465e-11
-1.64823e-14
1.41802e-13
9.96693e-06
2.45908e-13
-2.3967e-11
9.96692e-06
-3.96994e-13
2.38062e-11
1.55133e-13
1.47773e-13
8.54991e-06
6.50341e-13
-2.21929e-11
8.54991e-06
-9.33914e-13
2.15418e-11
3.38192e-13
5.53331e-13
7.30433e-06
1.10805e-12
-2.04187e-11
7.30432e-06
-1.67738e-12
1.96402e-11
4.30246e-13
1.3779e-12
6.21674e-06
1.69179e-12
-1.96946e-11
6.21673e-06
-2.30239e-12
1.70164e-11
6.23842e-13
1.65661e-12
5.27387e-06
2.21149e-12
-1.71046e-11
5.27387e-06
-2.97432e-12
1.57069e-11
6.25409e-13
2.54346e-12
4.46234e-06
2.71938e-12
-1.53955e-11
4.46234e-06
-3.35099e-12
1.33711e-11
6.69429e-13
1.38801e-12
3.76759e-06
2.89009e-12
-1.24143e-11
3.76759e-06
-3.45259e-12
1.10677e-11
5.48476e-13
1.4154e-12
3.17408e-06
2.74705e-12
-9.52334e-12
3.17408e-06
-3.12472e-12
8.12094e-12
3.54563e-13
1.41522e-12
2.6663e-06
2.29814e-12
-6.98126e-12
2.6663e-06
-2.45058e-12
5.49758e-12
1.32123e-13
1.47507e-12
2.22979e-06
1.5897e-12
-4.85132e-12
2.22978e-06
-1.54124e-12
3.33532e-12
-5.96986e-14
1.49045e-12
1.85158e-06
7.93304e-13
-3.43522e-12
1.85158e-06
-6.16571e-13
2.02603e-12
-1.76765e-13
1.37513e-12
1.51984e-06
1.16345e-13
-2.70201e-12
1.51983e-06
5.37585e-14
1.66302e-12
-1.64181e-13
1.02338e-12
1.22153e-06
-2.19752e-13
-2.51539e-12
1.22153e-06
3.26542e-13
1.80314e-12
-1.02605e-13
7.18423e-13
9.29931e-07
-1.4909e-13
-2.45424e-12
9.2993e-07
2.32012e-13
1.87943e-12
-8.4235e-14
5.90195e-13
4.91878e-07
-8.94797e-13
4.91878e-07
5.9188e-13
2.97186e-13
5.95782e-07
-1.63935e-13
-5.0797e-14
5.95782e-07
-1.42964e-13
3.5576e-13
-4.43606e-14
8.91603e-13
1.118e-06
-6.06238e-14
-3.52486e-12
1.118e-06
-2.59957e-13
2.55481e-12
-7.93322e-15
7.70119e-13
1.46858e-06
-3.67604e-13
-3.62848e-12
1.46858e-06
1.09615e-14
2.50283e-12
1.03263e-13
9.60302e-13
1.82618e-06
-1.07599e-12
-3.97013e-12
1.82617e-06
7.27899e-13
2.39804e-12
1.6672e-13
1.35173e-12
2.22299e-06
-1.92101e-12
-5.04661e-12
2.22299e-06
1.70777e-12
3.02994e-12
1.07309e-13
1.77094e-12
2.6749e-06
-2.69598e-12
-6.89905e-12
2.6749e-06
2.68323e-12
4.76222e-12
-3.74961e-14
1.94731e-12
3.19618e-06
-3.23203e-12
-9.60946e-12
3.19617e-06
3.52023e-12
7.27984e-12
-3.19481e-13
2.26467e-12
3.80226e-06
-3.46487e-12
-1.29157e-11
3.80225e-06
4.11025e-12
1.02839e-11
-6.81297e-13
2.64652e-12
4.51035e-06
-3.28891e-12
-1.69594e-11
4.51035e-06
4.09645e-12
1.46937e-11
-8.31538e-13
2.22353e-12
5.33893e-06
-2.70657e-12
-2.10655e-11
5.33893e-06
3.54007e-12
1.85337e-11
-8.37203e-13
2.46142e-12
6.30653e-06
-1.97516e-12
-2.41954e-11
6.30653e-06
2.76184e-12
2.08902e-11
-7.92273e-13
3.31381e-12
7.4306e-06
-1.35947e-12
-2.65263e-11
7.4306e-06
1.95966e-12
2.34005e-11
-6.17702e-13
3.16642e-12
8.72737e-06
-7.46865e-13
-2.85536e-11
8.72736e-06
1.14977e-12
2.61533e-11
-4.14729e-13
2.38095e-12
1.0213e-05
-2.83657e-13
-3.08166e-11
1.0213e-05
4.98573e-13
2.88655e-11
-2.13074e-13
1.9027e-12
1.1904e-05
4.03868e-15
-3.34632e-11
1.1904e-05
1.19379e-14
3.18322e-11
-1.88123e-14
1.64943e-12
1.1904e-05
2.92415e-13
-3.34527e-11
1.1904e-05
-4.65138e-13
3.17751e-11
1.7902e-13
1.65555e-12
1.0213e-05
7.71163e-13
-3.087e-11
1.0213e-05
-1.09598e-12
2.87962e-11
3.89253e-13
1.91788e-12
8.72733e-06
1.31782e-12
-2.82844e-11
8.72732e-06
-1.96488e-12
2.63392e-11
4.96465e-13
2.75955e-12
7.43056e-06
1.99616e-12
-2.70575e-11
7.43055e-06
-2.71051e-12
2.29858e-11
7.0618e-13
2.9077e-12
6.30647e-06
2.623e-12
-2.36431e-11
6.30647e-06
-3.48556e-12
2.11622e-11
7.17811e-13
3.76329e-12
5.33889e-06
3.21455e-12
-2.11423e-11
5.33889e-06
-3.931e-12
1.81095e-11
7.61162e-13
2.20704e-12
4.51032e-06
3.41458e-12
-1.70446e-11
4.51031e-06
-4.04902e-12
1.49865e-11
6.18225e-13
2.18784e-12
3.80223e-06
3.24391e-12
-1.30927e-11
3.80222e-06
-3.6636e-12
1.09782e-11
3.92441e-13
2.13835e-12
3.19616e-06
2.71159e-12
-9.60239e-12
3.19615e-06
-2.87047e-12
7.396e-12
1.34935e-13
2.19448e-12
2.67489e-06
1.87275e-12
-6.67589e-12
2.67489e-06
-1.79999e-12
4.44027e-12
-8.58528e-14
2.19923e-12
2.22299e-06
9.29482e-13
-4.72117e-12
2.22298e-06
-7.11241e-13
2.64623e-12
-2.18192e-13
2.02774e-12
1.82618e-06
1.27528e-13
-3.685e-12
1.82618e-06
7.81887e-14
2.14597e-12
-1.98425e-13
1.51617e-12
1.46858e-06
-2.74763e-13
-3.4192e-12
1.46858e-06
4.02613e-13
2.34848e-12
-1.22209e-13
1.07854e-12
1.118e-06
-1.92208e-13
-3.35639e-12
1.118e-06
2.86472e-13
2.5058e-12
-9.54017e-14
8.72755e-13
5.95784e-07
-1.24002e-12
5.95784e-07
8.39633e-13
3.93519e-13
7.18426e-07
-1.60578e-13
-6.78144e-14
7.18426e-07
-1.88007e-13
5.0107e-13
-4.98519e-14
1.16175e-12
1.3229e-06
-5.76869e-14
-4.55426e-12
1.3229e-06
-3.18967e-13
3.23312e-12
-7.86502e-15
1.10729e-12
1.73814e-06
-4.16721e-13
-4.76399e-12
1.73814e-06
-1.68548e-15
3.1472e-12
1.26261e-13
1.35907e-12
2.16129e-06
-1.24276e-12
-5.21124e-12
2.16129e-06
8.29334e-13
3.00988e-12
2.05381e-13
1.8969e-12
2.62987e-06
-2.22983e-12
-6.65825e-12
2.62987e-06
1.9655e-12
3.85838e-12
1.43119e-13
2.46732e-12
3.16293e-06
-3.13496e-12
-9.10485e-12
3.16293e-06
3.09595e-12
6.13709e-12
-1.82012e-14
2.71422e-12
3.77741e-06
-3.76186e-12
-1.26653e-11
3.77741e-06
4.06697e-12
9.40158e-12
-3.40402e-13
3.17686e-12
4.49153e-06
-4.03515e-12
-1.70059e-11
4.49153e-06
4.7496e-12
1.33183e-11
-7.55018e-13
3.70759e-12
5.32553e-06
-3.83237e-12
-2.23099e-11
5.32553e-06
4.7359e-12
1.90451e-11
-9.30433e-13
3.20892e-12
6.30114e-06
-3.15769e-12
-2.77223e-11
6.30113e-06
4.09427e-12
2.40631e-11
-9.40214e-13
3.56553e-12
7.44019e-06
-2.3084e-12
-3.18906e-11
7.44019e-06
3.19624e-12
2.71013e-11
-8.93515e-13
4.79992e-12
8.76335e-06
-1.58966e-12
-3.50004e-11
8.76335e-06
2.26796e-12
3.02238e-11
-6.97661e-13
4.83093e-12
1.02899e-05
-8.74855e-13
-3.7836e-11
1.02899e-05
1.33083e-12
3.3636e-11
-4.68828e-13
4.17418e-12
1.20393e-05
-3.33332e-13
-4.09905e-11
1.20393e-05
5.77113e-13
3.70125e-11
-2.40966e-13
3.91393e-12
1.40312e-05
4.65973e-15
-4.46658e-11
1.40312e-05
1.45056e-14
4.07507e-11
-2.09046e-14
3.93807e-12
1.40312e-05
3.43326e-13
-4.46516e-11
1.40312e-05
-5.37024e-13
4.06745e-11
2.03233e-13
3.94378e-12
1.20392e-05
9.01788e-13
-4.10661e-11
1.20392e-05
-1.2688e-12
3.69214e-11
4.39832e-13
3.92554e-12
1.02899e-05
1.54536e-12
-3.74909e-11
1.02899e-05
-2.27029e-12
3.38765e-11
5.62753e-13
4.66374e-12
8.7633e-06
2.3289e-12
-3.56163e-11
8.76329e-06
-3.14056e-12
2.97512e-11
7.91925e-13
4.55863e-12
7.44013e-06
3.06519e-12
-3.12482e-11
7.44012e-06
-4.02869e-12
2.73681e-11
8.07698e-13
5.29852e-12
6.30109e-06
3.74479e-12
-2.78001e-11
6.30108e-06
-4.54564e-12
2.35141e-11
8.48971e-13
3.2563e-12
5.32549e-06
3.97643e-12
-2.24177e-11
5.32549e-06
-4.67878e-12
1.94601e-11
6.8369e-13
3.15415e-12
4.4915e-06
3.77545e-12
-1.72425e-11
4.49149e-06
-4.2311e-12
1.42471e-11
4.24434e-13
3.03179e-12
3.77739e-06
3.15321e-12
-1.26568e-11
3.77739e-06
-3.31124e-12
9.56872e-12
1.30704e-13
3.07224e-12
3.16292e-06
2.17485e-12
-8.80829e-12
3.16292e-06
-2.07077e-12
5.70117e-12
-1.18818e-13
3.05813e-12
2.62986e-06
1.07488e-12
-6.22094e-12
2.62986e-06
-8.09611e-13
3.34095e-12
-2.64954e-13
2.81774e-12
2.16129e-06
1.39672e-13
-4.81655e-12
2.16129e-06
1.05261e-13
2.66401e-12
-2.36162e-13
2.12122e-12
1.73815e-06
-3.3534e-13
-4.43969e-12
1.73815e-06
4.85399e-13
2.92371e-12
-1.42861e-13
1.52537e-12
1.32291e-06
-2.43324e-13
-4.37487e-12
1.32291e-06
3.47961e-13
3.18656e-12
-1.05571e-13
1.21861e-12
7.18428e-07
-1.65323e-12
7.18428e-07
1.14142e-12
5.04009e-13
8.62965e-07
-1.38888e-13
-1.31341e-13
8.62965e-07
-2.46468e-13
7.00932e-13
-5.22741e-14
1.46304e-12
1.54959e-06
-4.1028e-14
-5.69597e-12
1.54959e-06
-3.89979e-13
3.96095e-12
-2.71811e-15
1.51727e-12
2.03618e-06
-4.64491e-13
-6.03917e-12
2.03617e-06
-1.94273e-14
3.82969e-12
1.55569e-13
1.84639e-12
2.53255e-06
-1.42e-12
-6.62784e-12
2.53255e-06
9.35065e-13
3.67447e-12
2.51405e-13
2.5541e-12
3.08122e-06
-2.56202e-12
-8.51837e-12
3.08122e-06
2.23999e-12
4.79113e-12
1.8587e-13
3.2973e-12
3.7047e-06
-3.60882e-12
-1.16603e-11
3.7047e-06
3.53877e-12
7.7056e-12
5.90639e-15
3.62919e-12
4.42291e-06
-4.33466e-12
-1.62015e-11
4.42291e-06
4.65307e-12
1.18274e-11
-3.57518e-13
4.2622e-12
5.25718e-06
-4.65204e-12
-2.17314e-11
5.25717e-06
5.43158e-12
1.67869e-11
-8.24305e-13
4.97012e-12
6.23115e-06
-4.42101e-12
-2.84791e-11
6.23115e-06
5.41766e-12
2.40006e-11
-1.02596e-12
4.40719e-12
7.37017e-06
-3.64824e-12
-3.53917e-11
7.37016e-06
4.68785e-12
3.03462e-11
-1.04276e-12
4.92568e-12
8.69978e-06
-2.67235e-12
-4.07749e-11
8.69977e-06
3.6628e-12
3.4153e-11
-9.95768e-13
6.63458e-12
1.02442e-05
-1.84193e-12
-4.47953e-11
1.02442e-05
2.59944e-12
3.79297e-11
-7.78286e-13
6.93539e-12
1.20262e-05
-1.0158e-12
-4.86127e-11
1.20262e-05
1.52563e-12
4.20389e-11
-5.23308e-13
6.54073e-12
1.40686e-05
-3.88487e-13
-5.28509e-11
1.40686e-05
6.61688e-13
4.61157e-11
-2.6895e-13
6.65343e-12
1.6395e-05
5.28353e-15
-5.77778e-11
1.6395e-05
1.77002e-14
5.06884e-11
-2.27145e-14
7.11623e-12
1.6395e-05
3.99672e-13
-5.77588e-11
1.63949e-05
-6.13635e-13
5.05907e-11
2.28112e-13
7.12081e-12
1.40685e-05
1.04495e-12
-5.29505e-11
1.40685e-05
-1.45483e-12
4.60037e-11
4.90796e-13
6.6609e-12
1.20261e-05
1.7947e-12
-4.81862e-11
1.20261e-05
-2.59848e-12
4.23397e-11
6.29867e-13
7.15074e-12
1.02441e-05
2.69434e-12
-4.55018e-11
1.02441e-05
-3.60055e-12
3.73969e-11
8.80817e-13
6.64996e-12
8.6997e-06
3.54586e-12
-4.00328e-11
8.6997e-06
-4.61162e-12
3.44103e-11
8.96668e-13
7.18467e-12
7.37012e-06
4.31896e-12
-3.54657e-11
7.37011e-06
-5.20368e-12
2.96604e-11
9.34297e-13
4.55695e-12
6.2311e-06
4.58448e-12
-2.86149e-11
6.2311e-06
-5.35109e-12
2.45538e-11
7.45546e-13
4.32827e-12
5.25714e-06
4.34995e-12
-2.20364e-11
5.25714e-06
-4.83546e-12
1.79796e-11
4.5057e-13
4.10709e-12
4.42288e-06
3.62994e-12
-1.61917e-11
4.42288e-06
-3.77916e-12
1.20534e-11
1.18789e-13
4.11796e-12
3.70469e-06
2.50095e-12
-1.12815e-11
3.70468e-06
-2.35734e-12
7.14282e-12
-1.59728e-13
4.07534e-12
3.08122e-06
1.23209e-12
-7.95509e-12
3.08121e-06
-9.12887e-13
4.12388e-12
-3.18406e-13
3.75204e-12
2.53255e-06
1.53093e-13
-6.10811e-12
2.53255e-06
1.35815e-13
3.22138e-12
-2.78515e-13
2.84581e-12
2.03618e-06
-4.02786e-13
-5.58142e-12
2.03618e-06
5.76881e-13
3.5264e-12
-1.65194e-13
2.06591e-12
1.54959e-06
-3.04596e-13
-5.51423e-12
1.54959e-06
4.18491e-13
3.92275e-12
-1.14529e-13
1.63131e-12
8.62968e-07
-2.15127e-12
8.62968e-07
1.51016e-12
6.32677e-13
1.03296e-06
-9.45366e-14
-2.73251e-13
1.03296e-06
-3.21251e-13
9.77093e-13
-5.09825e-14
1.79556e-12
1.8027e-06
-8.35092e-15
-6.9547e-12
1.8027e-06
-4.75282e-13
4.74066e-12
8.62566e-15
2.00453e-12
2.36817e-06
-5.10529e-13
-7.45614e-12
2.36817e-06
-4.33885e-14
4.54968e-12
1.92649e-13
2.42962e-12
2.94677e-06
-1.60939e-12
-8.23208e-12
2.94677e-06
1.04565e-12
4.39915e-12
3.06354e-13
3.32977e-12
3.58542e-06
-2.92117e-12
-1.06498e-11
3.58542e-06
2.53386e-12
5.84477e-12
2.36802e-13
4.26826e-12
4.31033e-06
-4.12276e-12
-1.46029e-11
4.31033e-06
4.01629e-12
9.49747e-12
3.55249e-14
4.70031e-12
5.14477e-06
-4.95665e-12
-2.02724e-11
5.14477e-06
5.28458e-12
1.46053e-11
-3.70559e-13
5.52687e-12
6.11356e-06
-5.32204e-12
-2.71652e-11
6.11356e-06
6.16258e-12
2.07571e-11
-8.88878e-13
6.43947e-12
7.24418e-06
-5.06112e-12
-3.55592e-11
7.24417e-06
6.14813e-12
2.9642e-11
-1.11808e-12
5.82862e-12
8.56603e-06
-4.18391e-12
-4.41851e-11
8.56602e-06
5.32686e-12
3.74752e-11
-1.1451e-12
6.56121e-12
1.01088e-05
-3.07165e-12
-5.09788e-11
1.01088e-05
4.16663e-12
4.21464e-11
-1.0994e-12
8.84738e-12
1.19007e-05
-2.1197e-12
-5.60543e-11
1.19007e-05
2.95787e-12
4.66223e-11
-8.59766e-13
9.51899e-12
1.39684e-05
-1.1718e-12
-6.10463e-11
1.39684e-05
1.73646e-12
5.14653e-11
-5.782e-13
9.53984e-12
1.63386e-05
-4.50044e-13
-6.65812e-11
1.63386e-05
7.53295e-13
5.62705e-11
-2.96984e-13
1.02091e-11
1.90391e-05
5.90711e-15
-7.30091e-11
1.90391e-05
2.16771e-14
6.17377e-11
-2.41534e-14
1.13011e-11
1.90391e-05
4.62374e-13
-7.29842e-11
1.90391e-05
-6.95632e-13
6.16161e-11
2.5381e-13
1.13037e-11
1.63386e-05
1.20283e-12
-6.67063e-11
1.63386e-05
-1.65604e-12
5.61397e-11
5.42415e-13
1.0212e-11
1.39683e-05
2.0693e-12
-6.05331e-11
1.39683e-05
-2.95305e-12
5.18328e-11
6.98167e-13
1.02794e-11
1.19007e-05
3.09657e-12
-5.68593e-11
1.19007e-05
-4.09603e-12
4.60261e-11
9.72787e-13
9.21936e-12
1.01087e-05
4.07101e-12
-5.01258e-11
1.01087e-05
-5.24018e-12
4.23919e-11
9.85399e-13
9.45324e-12
8.56597e-06
4.94351e-12
-4.42497e-11
8.56596e-06
-5.91148e-12
3.66414e-11
1.01749e-12
6.1266e-12
7.24412e-06
5.24525e-12
-3.57292e-11
7.24412e-06
-6.07229e-12
3.03488e-11
8.0374e-13
5.72035e-12
6.11352e-06
4.97352e-12
-2.75476e-11
6.11352e-06
-5.48217e-12
2.22405e-11
4.70309e-13
5.37248e-12
5.14474e-06
4.14695e-12
-2.02618e-11
5.14474e-06
-4.27823e-12
1.48979e-11
9.81395e-14
5.33837e-12
4.31032e-06
2.85484e-12
-1.41334e-11
4.31031e-06
-2.66198e-12
8.7974e-12
-2.09969e-13
5.25668e-12
3.58542e-06
1.40322e-12
-9.94736e-12
3.58541e-06
-1.02165e-12
5.01355e-12
-3.80009e-13
4.83596e-12
2.94678e-06
1.68119e-13
-7.57313e-12
2.94678e-06
1.70752e-13
3.82648e-12
-3.26668e-13
3.6951e-12
2.36818e-06
-4.78298e-13
-6.85078e-12
2.36817e-06
6.78915e-13
4.15749e-12
-1.89819e-13
2.70558e-12
1.8027e-06
-3.78395e-13
-6.78105e-12
1.8027e-06
5.00323e-13
4.71805e-12
-1.22061e-13
2.11376e-12
1.03297e-06
-2.75581e-12
1.03297e-06
1.96298e-12
7.84255e-13
1.23241e-06
-2.26061e-14
-5.34823e-13
1.23241e-06
-4.15593e-13
1.35705e-12
-4.5193e-14
2.16057e-12
2.08701e-06
4.3132e-14
-8.33531e-12
2.08701e-06
-5.77431e-13
5.57607e-12
2.75679e-14
2.57306e-12
2.73972e-06
-5.54101e-13
-9.01644e-12
2.73972e-06
-7.49933e-14
5.30838e-12
2.39304e-13
3.11428e-12
3.41088e-06
-1.8121e-12
-1.00346e-11
3.41087e-06
1.16114e-12
5.19154e-12
3.72074e-13
4.22904e-12
4.15098e-06
-3.31009e-12
-1.30737e-11
4.15098e-06
2.84886e-12
7.0366e-12
2.97364e-13
5.38528e-12
4.99015e-06
-4.6808e-12
-1.7968e-11
4.99015e-06
4.53195e-12
1.15439e-11
7.14967e-14
5.93246e-12
5.95537e-06
-5.63259e-12
-2.49304e-11
5.95537e-06
5.96594e-12
1.77859e-11
-3.79014e-13
6.97261e-12
7.07541e-06
-6.05011e-12
-3.33791e-11
7.0754e-06
6.94712e-12
2.53003e-11
-9.48069e-13
8.11548e-12
8.38203e-06
-5.75753e-12
-4.36413e-11
8.38202e-06
6.93184e-12
3.60558e-11
-1.20628e-12
7.47774e-12
9.90926e-06
-4.76936e-12
-5.42125e-11
9.90926e-06
6.0159e-12
4.55461e-11
-1.24704e-12
8.48616e-12
1.16915e-05
-3.51027e-12
-6.26322e-11
1.16915e-05
4.71181e-12
5.11869e-11
-1.20434e-12
1.14626e-11
1.37613e-05
-2.42607e-12
-6.89202e-11
1.37613e-05
3.34632e-12
5.64094e-11
-9.41916e-13
1.26166e-11
1.61499e-05
-1.34483e-12
-7.53005e-11
1.61498e-05
1.96519e-12
6.20176e-11
-6.33247e-13
1.32329e-11
1.88883e-05
-5.189e-13
-8.23691e-11
1.88883e-05
8.52764e-13
6.75659e-11
-3.24857e-13
1.46797e-11
2.2009e-05
6.52474e-15
-9.05761e-11
2.20089e-05
2.66233e-14
7.39844e-11
-2.50947e-14
1.66224e-11
2.20089e-05
5.3231e-13
-9.05439e-11
2.20089e-05
-7.83462e-13
7.38366e-11
2.80382e-13
1.66217e-11
1.88882e-05
1.37741e-12
-8.25207e-11
1.88882e-05
-1.87405e-12
6.74198e-11
5.94685e-13
1.46775e-11
1.61498e-05
2.37234e-12
-7.46955e-11
1.61498e-05
-3.33687e-12
6.2459e-11
7.67773e-13
1.41104e-11
1.37613e-05
3.53928e-12
-6.98329e-11
1.37613e-05
-4.63134e-12
5.57464e-11
1.06767e-12
1.23003e-11
1.16914e-05
4.64563e-12
-6.16558e-11
1.16914e-05
-5.91882e-12
5.14198e-11
1.07414e-12
1.21299e-11
9.9092e-06
5.62342e-12
-5.42614e-11
9.90919e-06
-6.6737e-12
4.45551e-11
1.09843e-12
7.9775e-12
8.38197e-06
5.96376e-12
-4.38525e-11
8.38196e-06
-6.8468e-12
3.69309e-11
8.57871e-13
7.33487e-12
7.07536e-06
5.65086e-12
-3.3848e-11
7.07535e-06
-6.17491e-12
2.70982e-11
4.82814e-13
6.83116e-12
5.95534e-06
4.70826e-12
-2.49201e-11
5.95534e-06
-4.811e-12
1.81528e-11
6.74394e-14
6.73585e-12
4.99014e-06
3.23958e-12
-1.74004e-11
4.99013e-06
-2.98603e-12
1.0699e-11
-2.71173e-13
6.60438e-12
4.15098e-06
1.59012e-12
-1.22201e-11
4.15098e-06
-1.13599e-12
6.02971e-12
-4.51446e-13
6.07219e-12
3.41088e-06
1.85095e-13
-9.22405e-12
3.41088e-06
2.11161e-13
4.48838e-12
-3.82011e-13
4.67256e-12
2.73973e-06
-5.63061e-13
-8.25412e-12
2.73973e-06
7.93453e-13
4.82017e-12
-2.17443e-13
3.44754e-12
2.08702e-06
-4.67344e-13
-8.18276e-12
2.08702e-06
5.96094e-13
5.5776e-12
-1.28037e-13
2.66816e-12
1.23242e-06
-3.49568e-12
1.23242e-06
2.52231e-12
9.65512e-13
1.46578e-06
8.22609e-14
-9.70174e-13
1.46578e-06
-5.33026e-13
1.87535e-12
-3.40075e-14
2.56239e-12
2.40772e-06
1.1662e-13
-9.8441e-12
2.40772e-06
-6.99278e-13
6.47335e-12
5.58095e-14
3.22665e-12
3.15681e-06
-5.9417e-13
-1.07229e-11
3.15681e-06
-1.16012e-13
6.11027e-12
2.97744e-13
3.90448e-12
3.93219e-06
-2.02894e-12
-1.20472e-11
3.93219e-06
1.28114e-12
6.06256e-12
4.5077e-13
5.25512e-12
4.78696e-06
-3.73094e-12
-1.5812e-11
4.78695e-06
3.18604e-12
8.38891e-12
3.6926e-13
6.64989e-12
5.75518e-06
-5.28598e-12
-2.17928e-11
5.75518e-06
5.0881e-12
1.38833e-11
1.14805e-13
7.32532e-12
6.86795e-06
-6.36592e-12
-3.02308e-11
6.86795e-06
6.70022e-12
2.14296e-11
-3.82246e-13
8.59417e-12
8.15847e-06
-6.83973e-12
-4.04484e-11
8.15846e-06
7.78811e-12
3.05004e-11
-1.00101e-12
9.98945e-12
9.66338e-06
-6.51371e-12
-5.2821e-11
9.66337e-06
7.77173e-12
4.33426e-11
-1.2898e-12
9.34985e-12
1.14219e-05
-5.40827e-12
-6.55894e-11
1.14219e-05
6.75838e-12
5.467e-11
-1.34812e-12
1.07054e-11
1.34737e-05
-3.99162e-12
-7.58712e-11
1.34736e-05
5.30162e-12
6.13961e-11
-1.31027e-12
1.44947e-11
1.58565e-05
-2.7638e-12
-8.3542e-11
1.58565e-05
3.76737e-12
6.74128e-11
-1.02429e-12
1.62556e-11
1.86062e-05
-1.53677e-12
-9.15464e-11
1.86062e-05
2.21342e-12
7.38012e-11
-6.87966e-13
1.76859e-11
2.17591e-05
-5.95948e-13
-1.00412e-10
2.17591e-05
9.60809e-13
8.00949e-11
-3.52217e-13
2.01694e-11
2.53529e-05
7.12878e-15
-1.10705e-10
2.53529e-05
3.27635e-14
8.75202e-11
-2.53737e-14
2.3214e-11
2.53529e-05
6.10348e-13
-1.10664e-10
2.53528e-05
-8.77392e-13
8.73437e-11
3.07808e-13
2.32087e-11
2.17591e-05
1.57053e-12
-1.00591e-10
2.17591e-05
-2.11022e-12
7.99384e-11
6.47383e-13
2.01618e-11
1.86061e-05
2.70674e-12
-9.0845e-11
1.86061e-05
-3.75228e-12
7.43246e-11
8.38673e-13
1.87088e-11
1.58564e-05
4.02573e-12
-8.45728e-11
1.58564e-05
-5.20993e-12
6.66801e-11
1.16526e-12
1.59185e-11
1.34735e-05
5.27377e-12
-7.47582e-11
1.34735e-05
-6.65091e-12
6.16173e-11
1.16299e-12
1.523e-11
1.14218e-05
6.36233e-12
-6.56154e-11
1.14218e-05
-7.49363e-12
5.35141e-11
1.17674e-12
1.01128e-11
9.66331e-06
6.74356e-12
-5.30812e-11
9.6633e-06
-7.67746e-12
4.43993e-11
9.07364e-13
9.1671e-12
8.15842e-06
6.38528e-12
-4.10131e-11
8.15841e-06
-6.91583e-12
3.2633e-11
4.87072e-13
8.47843e-12
6.86792e-06
5.31685e-12
-3.02222e-11
6.86791e-06
-5.37877e-12
2.18781e-11
2.51635e-14
8.30598e-12
5.75517e-06
3.65771e-12
-2.1121e-11
5.75516e-06
-3.32995e-12
1.28895e-11
-3.45255e-13
8.11514e-12
4.78695e-06
1.79448e-12
-1.47971e-11
4.78695e-06
-1.25553e-12
7.19772e-12
-5.34727e-13
7.4595e-12
3.9322e-06
2.04411e-13
-1.10748e-11
3.9322e-06
2.58422e-13
5.21993e-12
-4.46252e-13
5.77941e-12
3.15682e-06
-6.58277e-13
-9.79965e-12
3.15682e-06
9.22667e-13
5.52145e-12
-2.48959e-13
4.29294e-12
2.40773e-06
-5.7432e-13
-9.72872e-12
2.40773e-06
7.08919e-13
6.50875e-12
-1.32513e-13
3.2963e-12
1.46578e-06
-4.41023e-12
1.46578e-06
3.21737e-12
1.1871e-12
1.73797e-06
2.25656e-13
-1.64661e-12
1.73797e-06
-6.77309e-13
2.57483e-12
-1.63968e-14
3.0074e-12
2.7706e-06
2.15586e-13
-1.1489e-11
2.7706e-06
-8.43946e-13
7.44079e-12
9.53624e-14
3.96907e-12
3.62606e-06
-6.29507e-13
-1.25795e-11
3.62606e-06
-1.68606e-13
6.96232e-12
3.70687e-13
4.80341e-12
4.51873e-06
-2.26046e-12
-1.42812e-11
4.51873e-06