/*--------------------------------*- C++ -*----------------------------------*\
  =========                 |
  \\      /  F ield         | OpenFOAM: The Open Source CFD Toolbox
   \\    /   O peration     | Website:  https://openfoam.org
    \\  /    A nd           | Version:  6
     \\/     M anipulation  |
\*---------------------------------------------------------------------------*/
FoamFile
{
    version     2.0;
    format      ascii;
    class       volVectorField;
    location    "20";
    object      U;
}
// * * * * * * * * * * * * * * * * * * * * * * * * * * * * * * * * * * * * * //

dimensions      [0 1 -1 0 0 0 0];

internalField   nonuniform List<vector> 
3240
(
(0.0540383 -4.24565e-10 1.93493e-11)
(0.0540384 6.79618e-12 5.44651e-12)
(0.0540383 -6.83583e-11 1.40318e-11)
(0.0642086 -8.05084e-11 -2.83724e-11)
(0.0642086 -2.1306e-10 2.18475e-11)
(0.0642085 -2.3656e-11 3.64939e-12)
(0.0749045 -1.13408e-10 -2.38725e-11)
(0.0749045 -1.97911e-10 1.9809e-11)
(0.0749043 2.36975e-11 4.30282e-12)
(0.0821415 -7.8347e-10 -2.37091e-11)
(0.0821415 3.83467e-10 1.73956e-11)
(0.0821413 1.68655e-10 5.44647e-12)
(0.0877602 -1.62973e-09 -2.55159e-11)
(0.0877602 1.3856e-09 1.79959e-11)
(0.08776 9.58236e-11 6.43265e-12)
(0.0923589 -2.59751e-09 -3.13069e-11)
(0.0923589 2.54734e-09 2.41834e-11)
(0.0923586 -2.87931e-11 6.1036e-12)
(0.0962837 -3.30156e-09 -3.79683e-11)
(0.0962837 3.57137e-09 3.16206e-11)
(0.0962834 -3.05268e-10 6.16408e-12)
(0.0997695 -3.76449e-09 -4.45296e-11)
(0.0997695 4.46182e-09 3.30369e-11)
(0.0997693 -7.35558e-10 1.17258e-11)
(0.102969 -3.80062e-09 -5.09128e-11)
(0.102969 4.83864e-09 4.73236e-11)
(0.102969 -1.0813e-09 3.42908e-12)
(0.10595 -3.37853e-09 -5.45645e-11)
(0.10595 4.44593e-09 5.10864e-11)
(0.10595 -1.0769e-09 3.225e-12)
(0.108691 -2.49681e-09 -5.39448e-11)
(0.108691 3.58387e-09 4.9854e-11)
(0.10869 -1.08866e-09 4.11403e-12)
(0.111097 -1.79148e-09 -5.07001e-11)
(0.111097 2.691e-09 4.9287e-11)
(0.111097 -9.14025e-10 1.45414e-12)
(0.113047 -1.14647e-09 -4.61103e-11)
(0.113047 1.75056e-09 4.8457e-11)
(0.113046 -6.34124e-10 -2.41355e-12)
(0.114436 -4.38217e-10 -4.2085e-11)
(0.114436 8.38744e-10 4.65492e-11)
(0.114435 -3.98314e-10 -4.61057e-12)
(0.115192 -1.54289e-10 -3.87784e-11)
(0.115192 2.7292e-10 4.45231e-11)
(0.115192 -1.20538e-10 -5.79082e-12)
(0.115192 1.63553e-10 -3.87386e-11)
(0.115192 -2.48993e-10 4.44399e-11)
(0.115192 7.23514e-11 -5.78499e-12)
(0.114435 4.3815e-10 -4.20502e-11)
(0.114435 -8.03298e-10 4.66189e-11)
(0.114435 3.46408e-10 -4.50607e-12)
(0.113046 1.11126e-09 -4.55823e-11)
(0.113046 -1.74878e-09 4.88105e-11)
(0.113046 5.28776e-10 -1.83277e-12)
(0.111096 1.87679e-09 -6.30002e-11)
(0.111096 -2.57525e-09 3.86352e-11)
(0.111096 8.7885e-10 -9.76105e-12)
(0.108689 2.55234e-09 -3.9221e-11)
(0.108689 -3.48871e-09 6.23822e-11)
(0.108689 1.01934e-09 1.72117e-11)
(0.105949 3.2014e-09 -5.48522e-11)
(0.105949 -4.36538e-09 4.96891e-11)
(0.105949 9.12033e-10 2.24067e-12)
(0.102968 3.6738e-09 -5.11441e-11)
(0.102968 -4.68566e-09 4.72165e-11)
(0.102968 9.38398e-10 3.56555e-12)
(0.0997685 3.75216e-09 -4.4807e-11)
(0.0997685 -4.51683e-09 3.99993e-11)
(0.0997682 7.24948e-10 4.67607e-12)
(0.0962829 3.33058e-09 -3.76893e-11)
(0.0962829 -3.79687e-09 3.16085e-11)
(0.0962826 4.29607e-10 5.95976e-12)
(0.0923584 2.59443e-09 -2.99957e-11)
(0.0923584 -2.72282e-09 2.17804e-11)
(0.0923582 1.01911e-10 7.91959e-12)
(0.0877601 1.5303e-09 -2.3838e-11)
(0.0877601 -1.4259e-09 1.5289e-11)
(0.0877599 -1.14681e-10 8.04866e-12)
(0.0821417 5.77929e-10 -2.24207e-11)
(0.0821417 -3.21038e-10 1.56244e-11)
(0.0821415 -2.51852e-10 6.52081e-12)
(0.0749048 -1.70869e-10 -2.36077e-11)
(0.0749049 3.13899e-10 1.8693e-11)
(0.0749047 -1.35089e-10 4.77579e-12)
(0.0642088 -2.49322e-10 -2.57523e-11)
(0.0642088 3.71138e-10 2.049e-11)
(0.0642087 -1.22611e-10 5.25037e-12)
(0.0540386 -5.97261e-11 -1.93835e-11)
(0.0540386 1.85023e-10 1.24571e-11)
(0.0540386 -1.30625e-10 6.7958e-12)
(0.0666015 -4.19952e-10 1.36146e-12)
(0.0666016 -2.73377e-11 8.21561e-12)
(0.0666015 -5.79832e-11 2.22391e-11)
(0.0999182 4.60781e-11 -7.46305e-11)
(0.0999182 -3.98081e-10 5.74339e-11)
(0.099918 1.6729e-11 8.59763e-12)
(0.113794 -1.09832e-10 -6.24662e-11)
(0.113794 -3.28145e-10 5.07591e-11)
(0.113794 7.20733e-11 1.1033e-11)
(0.12273 -1.12712e-09 -6.10829e-11)
(0.12273 5.38216e-10 4.45904e-11)
(0.12273 2.76978e-10 1.42237e-11)
(0.129507 -2.35669e-09 -6.59762e-11)
(0.129507 1.98113e-09 4.75715e-11)
(0.129507 1.74115e-10 1.6101e-11)
(0.134977 -3.73794e-09 -7.80433e-11)
(0.134977 3.63666e-09 6.12137e-11)
(0.134977 -9.3764e-12 1.49958e-11)
(0.139601 -4.73093e-09 -9.36846e-11)
(0.139601 5.09878e-09 7.92997e-11)
(0.139601 -4.20316e-10 1.38608e-11)
(0.143678 -5.36687e-09 -1.08537e-10)
(0.143678 6.26679e-09 9.42791e-11)
(0.143678 -9.50428e-10 1.43318e-11)
(0.147401 -5.39461e-09 -1.22816e-10)
(0.147401 6.71158e-09 1.14291e-10)
(0.1474 -1.37185e-09 8.25305e-12)
(0.150852 -4.77533e-09 -1.30812e-10)
(0.150852 6.1691e-09 1.22135e-10)
(0.150852 -1.40547e-09 8.29937e-12)
(0.154015 -3.52573e-09 -1.28985e-10)
(0.154015 4.96121e-09 1.19199e-10)
(0.154014 -1.43717e-09 9.86426e-12)
(0.156783 -2.52526e-09 -1.21505e-10)
(0.156783 3.70937e-09 1.17286e-10)
(0.156783 -1.20127e-09 4.38291e-12)
(0.15902 -1.61823e-09 -1.10719e-10)
(0.15902 2.40968e-09 1.14988e-10)
(0.15902 -8.29816e-10 -4.30556e-12)
(0.160611 -6.262e-10 -1.01411e-10)
(0.160611 1.15313e-09 1.10634e-10)
(0.160611 -5.21598e-10 -9.36141e-12)
(0.161477 -2.20212e-10 -9.36245e-11)
(0.161477 3.74584e-10 1.05812e-10)
(0.161477 -1.55409e-10 -1.2112e-11)
(0.161477 2.31941e-10 -9.36185e-11)
(0.161477 -3.37458e-10 1.05672e-10)
(0.161477 9.403e-11 -1.20772e-11)
(0.160611 6.3029e-10 -1.01481e-10)
(0.160611 -1.09516e-09 1.10379e-10)
(0.160611 4.60348e-10 -9.17067e-12)
(0.159019 1.60913e-09 -1.09538e-10)
(0.159019 -2.37233e-09 1.15776e-10)
(0.159019 7.28521e-10 -2.68186e-12)
(0.156782 2.55398e-09 -1.4342e-10)
(0.156782 -3.62653e-09 9.7575e-11)
(0.156782 1.08053e-09 -1.59009e-11)
(0.154013 3.53575e-09 -1.03689e-10)
(0.154013 -4.89042e-09 1.41391e-10)
(0.154013 1.28427e-09 3.50601e-11)
(0.150851 4.59727e-09 -1.32196e-10)
(0.150851 -6.00749e-09 1.19273e-10)
(0.150851 1.24957e-09 5.96877e-12)
(0.147399 5.2273e-09 -1.23647e-10)
(0.147399 -6.52562e-09 1.15198e-10)
(0.147399 1.2322e-09 8.47623e-12)
(0.143677 5.35341e-09 -1.09838e-10)
(0.143677 -6.33089e-09 9.89715e-11)
(0.143677 9.34069e-10 1.08557e-11)
(0.1396 4.77878e-09 -9.3675e-11)
(0.1396 -5.34465e-09 7.96079e-11)
(0.1396 5.24224e-10 1.40008e-11)
(0.134976 3.74292e-09 -7.5878e-11)
(0.134976 -3.85289e-09 5.85684e-11)
(0.134976 8.08069e-11 1.70718e-11)
(0.129507 2.22818e-09 -6.27694e-11)
(0.129507 -2.04345e-09 4.37536e-11)
(0.129507 -1.95251e-10 1.83945e-11)
(0.12273 8.53008e-10 -5.82214e-11)
(0.12273 -4.71771e-10 4.20056e-11)
(0.12273 -3.73033e-10 1.6016e-11)
(0.113794 -2.47854e-10 -6.1629e-11)
(0.113794 4.56056e-10 4.95675e-11)
(0.113794 -1.97125e-10 1.22405e-11)
(0.0999184 -3.92941e-10 -6.72344e-11)
(0.0999184 5.59781e-10 5.51741e-11)
(0.0999183 -1.69681e-10 1.2467e-11)
(0.0666018 -7.98835e-11 -3.03801e-11)
(0.0666018 2.2153e-10 1.88873e-11)
(0.0666018 -1.49114e-10 1.12995e-11)
(0.0734796 -4.90844e-10 1.33101e-11)
(0.0734796 -2.75028e-11 9.81857e-12)
(0.0734796 -8.03729e-11 3.81345e-11)
(0.117964 -3.84026e-11 -1.254e-10)
(0.117964 -4.5635e-10 9.5542e-11)
(0.117964 -2.65193e-11 2.00504e-11)
(0.133707 -1.41081e-10 -1.073e-10)
(0.133707 -3.90072e-10 8.29688e-11)
(0.133707 6.3539e-11 2.29703e-11)
(0.143625 -1.28307e-09 -1.0356e-10)
(0.143625 5.8785e-10 7.10124e-11)
(0.143625 3.14712e-10 2.81928e-11)
(0.151059 -2.68944e-09 -1.12241e-10)
(0.151059 2.23163e-09 7.55116e-11)
(0.151058 2.18321e-10 3.20606e-11)
(0.157019 -4.26714e-09 -1.32891e-10)
(0.157019 4.10599e-09 9.92142e-11)
(0.157019 3.53316e-11 3.02193e-11)
(0.162036 -5.39821e-09 -1.59507e-10)
(0.162036 5.73368e-09 1.2909e-10)
(0.162035 -3.92719e-10 2.94828e-11)
(0.166446 -6.12533e-09 -1.8485e-10)
(0.166446 7.10615e-09 1.51203e-10)
(0.166446 -1.04037e-09 3.39793e-11)
(0.170463 -6.15582e-09 -2.09276e-10)
(0.170463 7.65003e-09 1.89621e-10)
(0.170463 -1.56084e-09 1.91408e-11)
(0.174183 -5.44439e-09 -2.23328e-10)
(0.174183 6.99665e-09 2.04279e-10)
(0.174182 -1.56642e-09 1.83004e-11)
(0.177586 -4.02015e-09 -2.20275e-10)
(0.177586 5.61916e-09 1.98803e-10)
(0.177585 -1.60099e-09 2.1558e-11)
(0.180562 -2.87631e-09 -2.07575e-10)
(0.180562 4.2001e-09 1.94572e-10)
(0.180562 -1.34462e-09 1.32678e-11)
(0.182966 -1.84084e-09 -1.9019e-10)
(0.182966 2.72658e-09 1.89794e-10)
(0.182966 -9.30748e-10 2.4243e-13)
(0.184675 -7.12217e-10 -1.74998e-10)
(0.184675 1.30398e-09 1.81941e-10)
(0.184675 -5.86279e-10 -7.27445e-12)
(0.185605 -2.50269e-10 -1.62282e-10)
(0.185605 4.23601e-10 1.73723e-10)
(0.185604 -1.75208e-10 -1.14073e-11)
(0.185604 2.6414e-10 -1.62203e-10)
(0.185604 -3.82931e-10 1.73446e-10)
(0.185604 1.04915e-10 -1.13556e-11)
(0.184674 7.23567e-10 -1.75113e-10)
(0.184674 -1.23382e-09 1.81759e-10)
(0.184674 5.22483e-10 -6.99847e-12)
(0.182965 1.87923e-09 -1.88248e-10)
(0.182965 -2.63895e-09 1.91137e-10)
(0.182965 8.6374e-10 2.79413e-12)
(0.180561 2.82649e-09 -2.18777e-10)
(0.180561 -4.18421e-09 1.8531e-10)
(0.180561 1.11616e-09 4.8078e-12)
(0.177584 3.97351e-09 -2.06407e-10)
(0.177584 -5.59497e-09 2.09403e-10)
(0.177584 1.36516e-09 3.35561e-11)
(0.174181 5.31973e-09 -2.2473e-10)
(0.174181 -6.73412e-09 1.99427e-10)
(0.174181 1.46985e-09 1.47713e-11)
(0.170462 5.9749e-09 -2.10508e-10)
(0.170462 -7.3904e-09 1.9154e-10)
(0.170461 1.37888e-09 1.88871e-11)
(0.166445 6.10915e-09 -1.86963e-10)
(0.166445 -7.18394e-09 1.63854e-10)
(0.166444 1.02756e-09 2.30674e-11)
(0.162034 5.45279e-09 -1.59157e-10)
(0.162034 -6.07399e-09 1.30148e-10)
(0.162034 5.71511e-10 2.87574e-11)
(0.157018 4.27113e-09 -1.28627e-10)
(0.157018 -4.37742e-09 9.30259e-11)
(0.157018 7.22856e-11 3.48646e-11)
(0.151058 2.53287e-09 -1.0567e-10)
(0.151058 -2.2981e-09 6.72433e-11)
(0.151058 -2.4696e-10 3.72147e-11)
(0.143625 9.46729e-10 -9.77342e-11)
(0.143625 -4.94905e-10 6.51485e-11)
(0.143625 -4.427e-10 3.19677e-11)
(0.133708 -3.19553e-10 -1.04909e-10)
(0.133708 5.6868e-10 7.95794e-11)
(0.133708 -2.34735e-10 2.54427e-11)
(0.117964 -5.0215e-10 -1.17035e-10)
(0.117964 6.99901e-10 9.23459e-11)
(0.117964 -1.97863e-10 2.52312e-11)
(0.0734798 -1.02708e-10 -4.74338e-11)
(0.0734799 2.53957e-10 2.92933e-11)
(0.0734798 -1.58823e-10 1.76974e-11)
(0.0805275 -5.11008e-10 -6.94535e-12)
(0.0805275 -4.49265e-11 2.01837e-11)
(0.0805275 -9.05771e-11 5.65007e-11)
(0.131229 -9.93526e-11 -1.94639e-10)
(0.131229 -5.06094e-10 1.45512e-10)
(0.131229 -6.301e-11 3.49076e-11)
(0.148586 -1.57696e-10 -1.68202e-10)
(0.148586 -4.41451e-10 1.24344e-10)
(0.148586 5.87294e-11 3.90918e-11)
(0.159355 -1.38321e-09 -1.59941e-10)
(0.159355 6.11012e-10 1.04156e-10)
(0.159354 3.45614e-10 4.80143e-11)
(0.167343 -2.91815e-09 -1.7404e-10)
(0.167343 2.39339e-09 1.11593e-10)
(0.167342 2.59795e-10 5.46438e-11)
(0.173708 -4.63777e-09 -2.05383e-10)
(0.173708 4.42006e-09 1.48237e-10)
(0.173708 8.19399e-11 5.1694e-11)
(0.179045 -5.8704e-09 -2.4686e-10)
(0.179045 6.16315e-09 1.94347e-10)
(0.179044 -3.52586e-10 5.09269e-11)
(0.183723 -6.66604e-09 -2.8626e-10)
(0.183723 7.68017e-09 2.33931e-10)
(0.183723 -1.0793e-09 5.26659e-11)
(0.187977 -6.70144e-09 -3.2422e-10)
(0.187977 8.29447e-09 2.88421e-10)
(0.187976 -1.66706e-09 3.50046e-11)
(0.191909 -5.92689e-09 -3.4663e-10)
(0.19191 7.56667e-09 3.12065e-10)
(0.191909 -1.65507e-09 3.34303e-11)
(0.195505 -4.38158e-09 -3.42368e-10)
(0.195505 6.0756e-09 3.03586e-10)
(0.195504 -1.69572e-09 3.89208e-11)
(0.198647 -3.13447e-09 -3.22963e-10)
(0.198647 4.5413e-09 2.95323e-10)
(0.198647 -1.42946e-09 2.81097e-11)
(0.201184 -2.00508e-09 -2.97461e-10)
(0.201184 2.94686e-09 2.86495e-10)
(0.201183 -9.90783e-10 1.07684e-11)
(0.202986 -7.7747e-10 -2.74943e-10)
(0.202987 1.40917e-09 2.73796e-10)
(0.202986 -6.25543e-10 6.97994e-13)
(0.203967 -2.72719e-10 -2.5589e-10)
(0.203967 4.57538e-10 2.60917e-10)
(0.203967 -1.86804e-10 -4.89556e-12)
(0.203967 2.88108e-10 -2.55808e-10)
(0.203967 -4.1348e-10 2.6048e-10)
(0.203966 1.11568e-10 -4.82859e-12)
(0.202986 7.91968e-10 -2.75311e-10)
(0.202986 -1.33123e-09 2.73233e-10)
(0.202986 5.59381e-10 9.70003e-13)
(0.201183 2.06149e-09 -2.94487e-10)
(0.201183 -2.83795e-09 2.88535e-10)
(0.201183 9.33645e-10 1.48508e-11)
(0.198646 3.05731e-09 -3.38841e-10)
(0.198646 -4.54685e-09 2.81813e-10)
(0.198646 1.15491e-09 1.59656e-11)
(0.195503 4.31528e-09 -3.23331e-10)
(0.195503 -6.06644e-09 3.17855e-10)
(0.195503 1.42288e-09 5.63784e-11)
(0.191908 5.81561e-09 -3.48561e-10)
(0.191908 -7.25681e-09 3.04833e-10)
(0.191908 1.57744e-09 2.84898e-11)
(0.187975 6.50696e-09 -3.26004e-10)
(0.187975 -7.98732e-09 2.92925e-10)
(0.187975 1.4532e-09 3.45678e-11)
(0.183722 6.64733e-09 -2.89981e-10)
(0.183722 -7.7672e-09 2.4961e-10)
(0.183722 1.0686e-09 4.06601e-11)
(0.179044 5.92968e-09 -2.46618e-10)
(0.179044 -6.56887e-09 1.96675e-10)
(0.179043 5.8355e-10 4.964e-11)
(0.173708 4.64097e-09 -1.98867e-10)
(0.173708 -4.72905e-09 1.39207e-10)
(0.173707 5.01661e-11 5.86444e-11)
(0.167342 2.74269e-09 -1.63468e-10)
(0.167342 -2.46206e-09 9.90283e-11)
(0.167342 -2.94124e-10 6.27517e-11)
(0.159355 1.00513e-09 -1.49841e-10)
(0.159355 -4.9902e-10 9.49293e-11)
(0.159355 -4.96153e-10 5.40617e-11)
(0.148586 -3.76989e-10 -1.61884e-10)
(0.148586 6.57455e-10 1.18572e-10)
(0.148586 -2.63502e-10 4.36849e-11)
(0.13123 -5.94712e-10 -1.8257e-10)
(0.13123 8.13087e-10 1.41516e-10)
(0.13123 -2.15714e-10 4.21373e-11)
(0.0805277 -1.2918e-10 -7.61553e-11)
(0.0805278 2.83405e-10 4.95261e-11)
(0.0805277 -1.62344e-10 2.60942e-11)
(0.0877813 -4.89213e-10 3.71384e-12)
(0.0877813 -7.76884e-11 2.73879e-11)
(0.0877813 -9.16019e-11 8.29839e-11)
(0.141988 -1.0856e-10 -2.72193e-10)
(0.141988 -5.63811e-10 1.9953e-10)
(0.141988 -8.13073e-11 5.63848e-11)
(0.160768 -1.56708e-10 -2.39999e-10)
(0.160768 -4.90134e-10 1.69262e-10)
(0.160768 6.37641e-11 6.10106e-11)
(0.172321 -1.45155e-09 -2.26572e-10)
(0.172321 6.20484e-10 1.40169e-10)
(0.172321 3.77293e-10 7.42441e-11)
(0.180812 -3.09022e-09 -2.47537e-10)
(0.180812 2.50793e-09 1.51532e-10)
(0.180811 3.01713e-10 8.41334e-11)
(0.187539 -4.92207e-09 -2.91896e-10)
(0.187539 4.65217e-09 2.0416e-10)
(0.187538 1.27639e-10 7.97078e-11)
(0.193155 -6.23669e-09 -3.50565e-10)
(0.193155 6.48845e-09 2.68465e-10)
(0.193155 -3.13258e-10 7.97741e-11)
(0.198067 -7.08731e-09 -4.06318e-10)
(0.198067 8.10549e-09 3.24552e-10)
(0.198066 -1.08631e-09 8.22986e-11)
(0.202523 -7.12805e-09 -4.60068e-10)
(0.202523 8.76484e-09 4.01786e-10)
(0.202522 -1.71465e-09 5.71331e-11)
(0.206638 -6.3068e-09 -4.92426e-10)
(0.206638 7.98932e-09 4.36449e-10)
(0.206638 -1.69784e-09 5.4316e-11)
(0.210398 -4.67095e-09 -4.87101e-10)
(0.210398 6.41816e-09 4.24133e-10)
(0.210397 -1.74813e-09 6.31401e-11)
(0.213682 -3.3429e-09 -4.6004e-10)
(0.213682 4.79773e-09 4.1059e-10)
(0.213682 -1.47773e-09 5.01357e-11)
(0.216332 -2.13872e-09 -4.25823e-10)
(0.216332 3.11257e-09 3.96513e-10)
(0.216332 -1.02485e-09 2.90049e-11)
(0.218215 -8.32618e-10 -3.95294e-10)
(0.218215 1.48869e-09 3.77828e-10)
(0.218215 -6.48607e-10 1.68122e-11)
(0.219239 -2.91523e-10 -3.69279e-10)
(0.219239 4.8304e-10 3.59459e-10)
(0.219239 -1.92947e-10 9.99581e-12)
(0.219239 3.07907e-10 -3.69153e-10)
(0.219239 -4.34966e-10 3.58816e-10)
(0.219238 1.15671e-10 1.00688e-11)
(0.218214 8.48233e-10 -3.95939e-10)
(0.218214 -1.40435e-09 3.76994e-10)
(0.218214 5.81302e-10 1.70504e-11)
(0.216331 2.19991e-09 -4.21678e-10)
(0.216331 -2.99572e-09 3.99383e-10)
(0.216331 9.67878e-10 3.47348e-11)
(0.213681 3.25972e-09 -4.72891e-10)
(0.213681 -4.80531e-09 4.00262e-10)
(0.21368 1.18665e-09 4.22905e-11)
(0.210396 4.60054e-09 -4.71478e-10)
(0.210396 -6.41088e-09 4.33665e-10)
(0.210395 1.46026e-09 7.61909e-11)
(0.206637 6.19202e-09 -4.94442e-10)
(0.206637 -7.65941e-09 4.26289e-10)
(0.206637 1.62226e-09 4.804e-11)
(0.202521 6.92149e-09 -4.62334e-10)
(0.202521 -8.43101e-09 4.09255e-10)
(0.202521 1.48326e-09 5.627e-11)
(0.198065 7.06668e-09 -4.11724e-10)
(0.198065 -8.19719e-09 3.47943e-10)
(0.198065 1.0764e-09 6.4424e-11)
(0.193154 6.29969e-09 -3.5019e-10)
(0.193154 -6.92968e-09 2.72452e-10)
(0.193154 5.70906e-10 7.7279e-11)
(0.187538 4.92559e-09 -2.82361e-10)
(0.187538 -4.98207e-09 1.90321e-10)
(0.187537 1.63156e-11 9.047e-11)
(0.180811 2.90392e-09 -2.31678e-10)
(0.180811 -2.57826e-09 1.3257e-10)
(0.180811 -3.39668e-10 9.66975e-11)
(0.172321 1.04927e-09 -2.10773e-10)
(0.172321 -4.9818e-10 1.25906e-10)
(0.172321 -5.40225e-10 8.35317e-11)
(0.160768 -4.2134e-10 -2.27461e-10)
(0.160768 7.27072e-10 1.59407e-10)
(0.160768 -2.86896e-10 6.85188e-11)
(0.141988 -6.74728e-10 -2.58441e-10)
(0.141988 9.05839e-10 1.95136e-10)
(0.141988 -2.26203e-10 6.49025e-11)
(0.0877815 -1.6078e-10 -1.09498e-10)
(0.0877816 3.11917e-10 7.2568e-11)
(0.0877815 -1.60047e-10 3.61653e-11)
(0.0952628 -4.42429e-10 -6.57997e-12)
(0.0952629 -1.21046e-10 4.29022e-11)
(0.0952629 -8.95026e-11 1.06851e-10)
(0.151204 -8.24344e-11 -3.59624e-10)
(0.151204 -6.28015e-10 2.58183e-10)
(0.151204 -8.7334e-11 8.33203e-11)
(0.171244 -1.43842e-10 -3.22267e-10)
(0.171244 -5.37572e-10 2.17503e-10)
(0.171243 7.5513e-11 8.85052e-11)
(0.183542 -1.49836e-09 -3.03528e-10)
(0.183542 6.20043e-10 1.79238e-10)
(0.183542 4.09864e-10 1.06915e-10)
(0.192509 -3.22379e-09 -3.33228e-10)
(0.192509 2.59006e-09 1.96361e-10)
(0.192508 3.44311e-10 1.20353e-10)
(0.199572 -5.14752e-09 -3.92752e-10)
(0.199572 4.82815e-09 2.67711e-10)
(0.199572 1.73235e-10 1.14085e-10)
(0.205446 -6.53054e-09 -4.7117e-10)
(0.205446 6.7412e-09 3.53013e-10)
(0.205446 -2.72964e-10 1.14953e-10)
(0.210567 -7.42668e-09 -5.45619e-10)
(0.210567 8.42991e-09 4.29576e-10)
(0.210567 -1.07251e-09 1.16723e-10)
(0.215205 -7.47273e-09 -6.17318e-10)
(0.215206 9.11873e-09 5.30742e-10)
(0.215205 -1.72528e-09 8.50231e-11)
(0.219484 -6.61632e-09 -6.61124e-10)
(0.219484 8.31245e-09 5.77754e-10)
(0.219483 -1.71072e-09 8.11213e-11)
(0.223389 -4.9112e-09 -6.55023e-10)
(0.223389 6.68407e-09 5.61063e-10)
(0.223388 -1.77264e-09 9.41855e-11)
(0.226799 -3.51746e-09 -6.19331e-10)
(0.226799 4.99736e-09 5.40609e-10)
(0.226799 -1.50197e-09 7.96757e-11)
(0.22955 -2.25166e-09 -5.7585e-10)
(0.22955 3.24183e-09 5.19774e-10)
(0.229549 -1.04177e-09 5.5673e-11)
(0.231504 -8.80901e-10 -5.36709e-10)
(0.231504 1.55104e-09 4.93816e-10)
(0.231504 -6.60897e-10 4.20311e-11)
(0.232566 -3.07861e-10 -5.03196e-10)
(0.232567 5.02908e-10 4.6906e-10)
(0.232566 -1.9546e-10 3.43878e-11)
(0.232566 3.24888e-10 -5.03034e-10)
(0.232566 -4.50259e-10 4.68187e-10)
(0.232566 1.18179e-10 3.4461e-11)
(0.231503 8.96868e-10 -5.37682e-10)
(0.231503 -1.46052e-09 4.92619e-10)
(0.231503 5.93973e-10 4.22197e-11)
(0.229549 2.31368e-09 -5.70423e-10)
(0.229549 -3.12137e-09 5.2355e-10)
(0.229548 9.83397e-10 6.32825e-11)
(0.226798 3.4342e-09 -6.33883e-10)
(0.226798 -5.00161e-09 5.29003e-10)
(0.226797 1.20554e-09 7.14439e-11)
(0.223387 4.84129e-09 -6.37441e-10)
(0.223387 -6.67526e-09 5.70538e-10)
(0.223387 1.4786e-09 1.08572e-10)
(0.219482 6.49508e-09 -6.63302e-10)
(0.219482 -7.97319e-09 5.64404e-10)
(0.219482 1.6342e-09 7.33633e-11)
(0.215204 7.25665e-09 -6.20252e-10)
(0.215204 -8.76969e-09 5.419e-10)
(0.215203 1.48595e-09 8.36325e-11)
(0.210566 7.4045e-09 -5.53103e-10)
(0.210566 -8.52308e-09 4.60228e-10)
(0.210565 1.06283e-09 9.39674e-11)
(0.205445 6.5962e-09 -4.70775e-10)
(0.205445 -7.19957e-09 3.59016e-10)
(0.205444 5.42546e-10 1.1116e-10)
(0.199571 5.15194e-09 -3.79875e-10)
(0.199571 -5.16812e-09 2.48795e-10)
(0.199571 -2.49709e-11 1.2896e-10)
(0.192508 3.03195e-09 -3.11422e-10)
(0.192508 -2.66119e-09 1.70402e-10)
(0.192508 -3.84693e-10 1.37834e-10)
(0.183542 1.08342e-09 -2.81003e-10)
(0.183542 -4.92701e-10 1.59307e-10)
(0.183542 -5.78926e-10 1.19866e-10)
(0.171244 -4.57527e-10 -3.01719e-10)
(0.171244 7.85311e-10 2.02862e-10)
(0.171244 -3.07506e-10 9.94748e-11)
(0.151204 -7.4767e-10 -3.44398e-10)
(0.151204 9.86949e-10 2.53811e-10)
(0.151204 -2.3236e-10 9.28743e-11)
(0.0952631 -1.99584e-10 -1.48862e-10)
(0.0952632 3.42857e-10 1.01653e-10)
(0.0952632 -1.5288e-10 4.64224e-11)
(0.102982 -3.71243e-10 -9.47108e-12)
(0.102982 -1.74943e-10 6.03213e-11)
(0.102982 -8.47303e-11 1.36491e-10)
(0.159396 -2.79884e-11 -4.56615e-10)
(0.159397 -6.98479e-10 3.20966e-10)
(0.159396 -8.32426e-11 1.16672e-10)
(0.180539 -1.21036e-10 -4.15111e-10)
(0.180539 -5.84932e-10 2.68608e-10)
(0.180539 9.33448e-11 1.22567e-10)
(0.193556 -1.52891e-09 -3.91668e-10)
(0.193556 6.11864e-10 2.21546e-10)
(0.193556 4.44111e-10 1.4678e-10)
(0.202986 -3.32862e-09 -4.3242e-10)
(0.202986 2.64794e-09 2.46626e-10)
(0.202985 3.87983e-10 1.63996e-10)
(0.210373 -5.32891e-09 -5.09927e-10)
(0.210373 4.96244e-09 3.40083e-10)
(0.210372 2.18699e-10 1.55537e-10)
(0.21649 -6.76996e-09 -6.10997e-10)
(0.21649 6.93993e-09 4.49381e-10)
(0.21649 -2.32318e-10 1.57415e-10)
(0.221807 -7.7041e-09 -7.06792e-10)
(0.221808 8.67867e-09 5.48547e-10)
(0.221807 -1.04345e-09 1.59121e-10)
(0.226613 -7.75512e-09 -7.98872e-10)
(0.226613 9.3848e-09 6.77355e-10)
(0.226613 -1.70838e-09 1.19509e-10)
(0.23104 -6.87258e-09 -8.55761e-10)
(0.231041 8.5608e-09 7.38214e-10)
(0.23104 -1.70135e-09 1.14631e-10)
(0.235078 -5.11471e-09 -8.49169e-10)
(0.235078 6.89281e-09 7.16359e-10)
(0.235078 -1.77637e-09 1.3308e-10)
(0.238603 -3.66686e-09 -8.03738e-10)
(0.238603 5.15475e-09 6.87257e-10)
(0.238602 -1.50818e-09 1.17727e-10)
(0.241445 -2.34949e-09 -7.50374e-10)
(0.241445 3.34412e-09 6.58006e-10)
(0.241445 -1.04563e-09 9.18464e-11)
(0.243464 -9.24316e-10 -7.01947e-10)
(0.243464 1.6007e-09 6.2324e-10)
(0.243464 -6.64908e-10 7.75955e-11)
(0.244562 -3.22475e-10 -6.60355e-10)
(0.244562 5.18627e-10 5.91024e-10)
(0.244562 -1.95129e-10 6.96399e-11)
(0.244562 3.39856e-10 -6.60139e-10)
(0.244562 -4.60753e-10 5.8989e-10)
(0.244562 1.19552e-10 6.97038e-11)
(0.243464 9.40147e-10 -7.03272e-10)
(0.243464 -1.50384e-09 6.21719e-10)
(0.243463 5.99818e-10 7.77237e-11)
(0.241444 2.41045e-09 -7.43576e-10)
(0.241444 -3.22225e-09 6.62784e-10)
(0.241444 9.85956e-10 1.01477e-10)
(0.238601 3.58608e-09 -8.1943e-10)
(0.238601 -5.15331e-09 6.7503e-10)
(0.238601 1.2131e-09 1.09836e-10)
(0.235076 5.04751e-09 -8.30134e-10)
(0.235076 -6.88116e-09 7.24995e-10)
(0.235076 1.48169e-09 1.47915e-10)
(0.231039 6.74468e-09 -8.57896e-10)
(0.231039 -8.21869e-09 7.21265e-10)
(0.231038 1.62374e-09 1.05343e-10)
(0.226611 7.53197e-09 -8.02597e-10)
(0.226612 -9.02912e-09 6.92616e-10)
(0.226611 1.4688e-09 1.17449e-10)
(0.221806 7.68068e-09 -7.16626e-10)
(0.221806 -8.77056e-09 5.88176e-10)
(0.221805 1.03362e-09 1.30031e-10)
(0.216489 6.83722e-09 -6.10545e-10)
(0.216489 -7.40087e-09 4.57722e-10)
(0.216488 5.02519e-10 1.52046e-10)
(0.210372 5.33465e-09 -4.93215e-10)
(0.210372 -5.30365e-09 3.15232e-10)
(0.210372 -7.20275e-11 1.75199e-10)
(0.202985 3.13561e-09 -4.03799e-10)
(0.202986 -2.71901e-09 2.12552e-10)
(0.202985 -4.29891e-10 1.87154e-10)
(0.193556 1.11072e-09 -3.6133e-10)
(0.193556 -4.83609e-10 1.94938e-10)
(0.193556 -6.14368e-10 1.63965e-10)
(0.180539 -4.87426e-10 -3.84947e-10)
(0.180539 8.3551e-10 2.48222e-10)
(0.180539 -3.26675e-10 1.37467e-10)
(0.159397 -8.15802e-10 -4.40741e-10)
(0.159397 1.06018e-09 3.17086e-10)
(0.159397 -2.35588e-10 1.26738e-10)
(0.102982 -2.46246e-10 -1.95635e-10)
(0.102982 3.77215e-10 1.36047e-10)
(0.102982 -1.41039e-10 5.87134e-11)
(0.110938 -2.76168e-10 -1.97686e-11)
(0.110938 -2.39251e-10 8.47224e-11)
(0.110938 -7.76266e-11 1.69076e-10)
(0.166883 5.03174e-11 -5.63843e-10)
(0.166883 -7.74931e-10 3.88246e-10)
(0.166883 -7.03551e-11 1.567e-10)
(0.188971 -8.94468e-11 -5.18744e-10)
(0.188971 -6.33005e-10 3.22573e-10)
(0.188971 1.16972e-10 1.63746e-10)
(0.202686 -1.54626e-09 -4.91841e-10)
(0.202686 5.97129e-10 2.67549e-10)
(0.202685 4.80632e-10 1.94322e-10)
(0.212574 -3.41036e-09 -5.46465e-10)
(0.212574 2.68629e-09 3.03298e-10)
(0.212574 4.33028e-10 2.15506e-10)
(0.220279 -5.47462e-09 -6.45242e-10)
(0.220279 5.06328e-09 4.22686e-10)
(0.220279 2.64001e-10 2.04516e-10)
(0.226633 -6.96502e-09 -7.72361e-10)
(0.226633 7.09515e-09 5.5963e-10)
(0.226632 -1.9174e-10 2.07393e-10)
(0.232137 -7.93069e-09 -8.92536e-10)
(0.232137 8.86627e-09 6.84666e-10)
(0.232137 -1.00264e-09 2.08947e-10)
(0.237101 -7.98608e-09 -1.00768e-09)
(0.237101 9.57963e-09 8.44249e-10)
(0.2371 -1.6699e-09 1.60904e-10)
(0.241667 -7.08509e-09 -1.07942e-09)
(0.241667 8.74859e-09 9.20356e-10)
(0.241666 -1.67452e-09 1.55391e-10)
(0.245828 -5.28839e-09 -1.07271e-09)
(0.245828 7.05569e-09 8.925e-10)
(0.245828 -1.7637e-09 1.80533e-10)
(0.249458 -3.79599e-09 -1.01627e-09)
(0.249459 5.2784e-09 8.52748e-10)
(0.249458 -1.50002e-09 1.65098e-10)
(0.252386 -2.43539e-09 -9.52328e-10)
(0.252386 3.42498e-09 8.13147e-10)
(0.252385 -1.03892e-09 1.38526e-10)
(0.254465 -9.64009e-10 -8.93871e-10)
(0.254465 1.64029e-09 7.67716e-10)
(0.254464 -6.62112e-10 1.24764e-10)
(0.255595 -3.35793e-10 -8.43576e-10)
(0.255595 5.31062e-10 7.26745e-10)
(0.255595 -1.92409e-10 1.17188e-10)
(0.255595 3.53284e-10 -8.43292e-10)
(0.255595 -4.67237e-10 7.25321e-10)
(0.255595 1.20072e-10 1.17233e-10)
(0.254464 9.79324e-10 -8.95568e-10)
(0.254464 -1.5367e-09 7.65886e-10)
(0.254464 6.00232e-10 1.24826e-10)
(0.252385 2.49425e-09 -9.4406e-10)
(0.252385 -3.30298e-09 8.1903e-10)
(0.252384 9.78617e-10 1.50345e-10)
(0.249457 3.71898e-09 -1.03312e-09)
(0.249457 -5.27005e-09 8.3993e-10)
(0.249457 1.21105e-09 1.5765e-10)
(0.245826 5.22518e-09 -1.05209e-09)
(0.245826 -7.04064e-09 9.00081e-10)
(0.245825 1.47247e-09 1.95795e-10)
(0.241665 6.95134e-09 -1.0814e-09)
(0.241665 -8.40834e-09 8.99555e-10)
(0.241665 1.59666e-09 1.44379e-10)
(0.237099 7.75815e-09 -1.0124e-09)
(0.237099 -9.22419e-09 8.64169e-10)
(0.237099 1.43644e-09 1.57971e-10)
(0.232136 7.90627e-09 -9.0505e-10)
(0.232136 -8.9544e-09 7.34227e-10)
(0.232135 9.92415e-10 1.72935e-10)
(0.226631 7.03282e-09 -7.71873e-10)
(0.226632 -7.54643e-09 5.70656e-10)
(0.226631 4.53428e-10 2.00236e-10)
(0.220279 5.48205e-09 -6.24273e-10)
(0.220279 -5.39816e-09 3.91339e-10)
(0.220278 -1.23786e-10 2.29404e-10)
(0.212574 3.21999e-09 -5.10247e-10)
(0.212574 -2.7564e-09 2.60259e-10)
(0.212573 -4.75758e-10 2.44887e-10)
(0.202686 1.13307e-09 -4.52707e-10)
(0.202686 -4.71354e-10 2.33416e-10)
(0.202685 -6.47984e-10 2.16198e-10)
(0.188971 -5.12166e-10 -4.77723e-10)
(0.188972 8.79826e-10 2.95687e-10)
(0.188971 -3.45351e-10 1.82896e-10)
(0.166883 -8.80412e-10 -5.48128e-10)
(0.166883 1.12783e-09 3.85432e-10)
(0.166883 -2.36826e-10 1.66701e-10)
(0.110938 -3.01309e-10 -2.52267e-10)
(0.110938 4.16143e-10 1.78235e-10)
(0.110938 -1.24975e-10 7.31059e-11)
(0.119118 -1.58158e-10 -3.97594e-11)
(0.119118 -3.13642e-10 1.18244e-10)
(0.119118 -6.84758e-11 2.05155e-10)
(0.173876 1.48751e-10 -6.81709e-10)
(0.173877 -8.56858e-10 4.60297e-10)
(0.173876 -4.97308e-11 2.03819e-10)
(0.19675 -4.99464e-11 -6.33344e-10)
(0.19675 -6.82367e-10 3.79442e-10)
(0.19675 1.46273e-10 2.12541e-10)
(0.211139 -1.55244e-09 -6.0483e-10)
(0.211139 5.76475e-10 3.17766e-10)
(0.211139 5.19943e-10 2.49933e-10)
(0.221487 -3.47243e-09 -6.76657e-10)
(0.221487 2.7079e-09 3.67359e-10)
(0.221486 4.79706e-10 2.75271e-10)
(0.229511 -5.5896e-09 -8.00553e-10)
(0.229511 5.13556e-09 5.17054e-10)
(0.229511 3.09137e-10 2.61363e-10)
(0.236098 -7.12143e-09 -9.57604e-10)
(0.236098 7.21282e-09 6.859e-10)
(0.236098 -1.51445e-10 2.6509e-10)
(0.241785 -8.11269e-09 -1.10558e-09)
(0.241785 9.00142e-09 8.40324e-10)
(0.241784 -9.52653e-10 2.66536e-10)
(0.246899 -8.17161e-09 -1.24674e-09)
(0.246899 9.71343e-09 1.03416e-09)
(0.246899 -1.61415e-09 2.09481e-10)
(0.251597 -7.25915e-09 -1.33522e-09)
(0.251597 8.88447e-09 1.12683e-09)
(0.251597 -1.63358e-09 2.03897e-10)
(0.255874 -5.43613e-09 -1.32876e-09)
(0.255874 7.17959e-09 1.09195e-09)
(0.255874 -1.73762e-09 2.37184e-10)
(0.259605 -3.90762e-09 -1.25988e-09)
(0.259605 5.37353e-09 1.0393e-09)
(0.259604 -1.47998e-09 2.22533e-10)
(0.262611 -2.51121e-09 -1.18462e-09)
(0.262612 3.48784e-09 9.87042e-10)
(0.262611 -1.02327e-09 1.96773e-10)
(0.264747 -1.00064e-09 -1.11533e-09)
(0.264747 1.67143e-09 9.2867e-10)
(0.264747 -6.53456e-10 1.84952e-10)
(0.265908 -3.48067e-10 -1.05567e-09)
(0.265908 5.40751e-10 8.77454e-10)
(0.265908 -1.87584e-10 1.78606e-10)
(0.265908 3.65453e-10 -1.0553e-09)
(0.265908 -4.70178e-10 8.75695e-10)
(0.265908 1.19932e-10 1.78617e-10)
(0.264746 1.01511e-09 -1.11742e-09)
(0.264746 -1.56057e-09 9.2659e-10)
(0.264746 5.96116e-10 1.84941e-10)
(0.26261 2.5674e-09 -1.1748e-09)
(0.262611 -3.36648e-09 9.94148e-10)
(0.26261 9.63346e-10 2.10925e-10)
(0.259603 3.83502e-09 -1.27835e-09)
(0.259603 -5.35764e-09 1.02558e-09)
(0.259603 1.20079e-09 2.15242e-10)
(0.255872 5.37776e-09 -1.30597e-09)
(0.255872 -7.16103e-09 1.09874e-09)
(0.255872 1.45314e-09 2.53284e-10)
(0.251595 7.12089e-09 -1.33685e-09)
(0.251596 -8.5497e-09 1.10183e-09)
(0.251595 1.55683e-09 1.91011e-10)
(0.246898 7.94113e-09 -1.25265e-09)
(0.246898 -9.36391e-09 1.05917e-09)
(0.246897 1.39214e-09 2.05534e-10)
(0.241783 8.08744e-09 -1.1211e-09)
(0.241783 -9.08348e-09 9.00876e-10)
(0.241783 9.41855e-10 2.22915e-10)
(0.236097 7.18872e-09 -9.57104e-10)
(0.236097 -7.644e-09 6.99927e-10)
(0.236097 3.97199e-10 2.5596e-10)
(0.229511 5.59901e-09 -7.74928e-10)
(0.229511 -5.45743e-09 4.78749e-10)
(0.22951 -1.79431e-10 2.91818e-10)
(0.221486 3.28821e-09 -6.32116e-10)
(0.221486 -2.77607e-09 3.14592e-10)
(0.221486 -5.22683e-10 3.11312e-10)
(0.211139 1.15171e-09 -5.56012e-10)
(0.211139 -4.5602e-10 2.75316e-10)
(0.211139 -6.80897e-10 2.76868e-10)
(0.196751 -5.325e-10 -5.80556e-10)
(0.196751 9.19883e-10 3.45423e-10)
(0.196751 -3.64334e-10 2.36103e-10)
(0.173877 -9.42225e-10 -6.67206e-10)
(0.173877 1.19141e-09 4.59262e-10)
(0.173877 -2.36806e-10 2.12992e-10)
(0.119119 -3.65094e-10 -3.21314e-10)
(0.119119 4.60864e-10 2.30198e-10)
(0.119119 -1.05418e-10 9.02303e-11)
(0.127502 -1.88629e-11 -7.53409e-11)
(0.127502 -3.97512e-10 1.64343e-10)
(0.127502 -5.75558e-11 2.44443e-10)
(0.18053 2.63966e-10 -8.10735e-10)
(0.18053 -9.43551e-10 5.37559e-10)
(0.18053 -2.2286e-11 2.58363e-10)
(0.204026 -3.26732e-12 -7.5906e-10)
(0.204026 -7.33482e-10 4.39386e-10)
(0.204026 1.81248e-10 2.69347e-10)
(0.219061 -1.54882e-09 -7.31359e-10)
(0.219061 5.50214e-10 3.72798e-10)