/*--------------------------------*- C++ -*----------------------------------*\
  =========                 |
  \\      /  F ield         | OpenFOAM: The Open Source CFD Toolbox
   \\    /   O peration     | Website:  https://openfoam.org
    \\  /    A nd           | Version:  6
     \\/     M anipulation  |
\*---------------------------------------------------------------------------*/
FoamFile
{
    version     2.0;
    format      ascii;
    class       volVectorField;
    location    "46";
    object      wallShearStress;
}
// * * * * * * * * * * * * * * * * * * * * * * * * * * * * * * * * * * * * * //

dimensions      [0 2 -2 0 0 0 0];

internalField   uniform (0 0 0);

boundaryField
{
    inlet
    {
        type            calculated;
        value           uniform (0 0 0);
    }
    outlet
    {
        type            calculated;
        value           uniform (0 0 0);
    }
    roughCylinder
    {
        type            calculated;
        value           nonuniform List<vector> 
3840
(
(-0.000465422 -0.00067218 -0.000282993)
(-0.000332013 -0.000505201 -1.79277e-05)
(-0.000365034 -0.000578846 4.12802e-05)
(-0.000451915 -0.00068369 0.000110038)
(-0.000544184 -0.000754982 0.000175869)
(-0.000635095 -0.000794599 0.000231528)
(-0.00071761 -0.000807988 0.000274029)
(-0.000789603 -0.000809027 0.000303818)
(-0.000851182 -0.000812062 0.000323494)
(-0.000899855 -0.00082059 0.000332799)
(-0.000940062 -0.000836635 0.00033363)
(-0.000974167 -0.000858712 0.000328565)
(-0.00100571 -0.000885151 0.000319814)
(-0.00103767 -0.000914783 0.000308851)
(-0.00107171 -0.000946946 0.000296285)
(-0.00110841 -0.000981358 0.000282224)
(-0.00114788 -0.00101793 0.000266559)
(-0.00118979 -0.00105632 0.000248984)
(-0.0012336 -0.00109599 0.000228925)
(-0.00127841 -0.00113603 0.000205371)
(-0.00132286 -0.00117507 0.000176489)
(-0.0013647 -0.00121107 0.000139686)
(-0.00139961 -0.00124102 9.09999e-05)
(-0.00142061 -0.00125951 3.13683e-05)
(-0.00050842 -0.000669501 -0.000284858)
(-0.000356441 -0.000497776 -2.22193e-05)
(-0.000383956 -0.000561957 3.33906e-05)
(-0.000472787 -0.000667019 9.90336e-05)
(-0.000567465 -0.000740508 0.000163138)
(-0.000661311 -0.000783365 0.000217959)
(-0.000747803 -0.000801278 0.000260643)
(-0.000825086 -0.000807312 0.000292066)
(-0.000891944 -0.000812193 0.000313784)
(-0.000943206 -0.00081871 0.0003238)
(-0.0009852 -0.000833486 0.000324925)
(-0.00102128 -0.000854842 0.000320079)
(-0.00105476 -0.000880877 0.000311516)
(-0.0010885 -0.000910103 0.000300721)
(-0.00112434 -0.000941879 0.000288411)
(-0.00116307 -0.00097601 0.000274752)
(-0.00120458 -0.00101219 0.000259574)
(-0.00124858 -0.00105015 0.000242584)
(-0.00129446 -0.0010893 0.000223186)
(-0.00134134 -0.00112878 0.000200373)
(-0.00138776 -0.00116726 0.000172319)
(-0.00143139 -0.00120272 0.000136461)
(-0.00146779 -0.00123222 8.89168e-05)
(-0.00148967 -0.00125041 3.06439e-05)
(-0.000537274 -0.000638071 -0.000268843)
(-0.000377934 -0.000481139 -2.72871e-05)
(-0.000401516 -0.000539546 2.49614e-05)
(-0.000491648 -0.000643645 8.71138e-05)
(-0.000588707 -0.000719293 0.000149334)
(-0.000685533 -0.000765663 0.000203448)
(-0.000776585 -0.000788801 0.000246793)
(-0.00085919 -0.000799868 0.0002798)
(-0.000930595 -0.000806918 0.000302922)
(-0.00098525 -0.000811643 0.000313645)
(-0.00102948 -0.00082523 0.00031533)
(-0.00106757 -0.000845561 0.000310741)
(-0.00110284 -0.000870768 0.000302379)
(-0.00113852 -0.000899456 0.000291871)
(-0.00117634 -0.000930743 0.000279928)
(-0.00121687 -0.000964182 0.000266683)
(-0.00126033 -0.000999696 0.000252048)
(-0.0013063 -0.0010369 0.000235692)
(-0.00135421 -0.00107529 0.00021702)
(-0.00140305 -0.00111394 0.000195008)
(-0.00145134 -0.00115158 0.000167844)
(-0.00149667 -0.00118626 0.000133002)
(-0.00153446 -0.00121511 8.66843e-05)
(-0.00155716 -0.00123288 2.98683e-05)
(-0.000577349 -0.00061692 -0.000251819)
(-0.000398609 -0.00046064 -3.28642e-05)
(-0.000414574 -0.000511127 1.60551e-05)
(-0.000505809 -0.00061414 7.44414e-05)
(-0.00060517 -0.00069202 0.000134568)
(-0.000705648 -0.000742886 0.000188079)
(-0.000801304 -0.000771434 0.000232156)
(-0.000888786 -0.00078703 0.00026657)
(-0.000964274 -0.000795919 0.000290663)
(-0.00102425 -0.000801098 0.000302766)
(-0.00107052 -0.000812598 0.000304944)
(-0.00111072 -0.000831655 0.000300701)
(-0.00114816 -0.00085608 0.000292731)
(-0.00118567 -0.00088392 0.000282549)
(-0.00122521 -0.000914357 0.000270991)
(-0.00126778 -0.000947136 0.000258291)
(-0.00131315 -0.000981821 0.000244265)
(-0.00136107 -0.00101814 0.000228606)
(-0.00141081 -0.0010555 0.000210695)
(-0.00146145 -0.0010931 0.000189518)
(-0.00151144 -0.00112968 0.000163272)
(-0.0015583 -0.00116336 0.000129471)
(-0.00159734 -0.00119138 8.44082e-05)
(-0.00162076 -0.00120862 2.90788e-05)
(-0.000594697 -0.000569351 -0.000223016)
(-0.000415845 -0.000435353 -3.79608e-05)
(-0.000424207 -0.000479056 6.93909e-06)
(-0.000514726 -0.00057939 6.1197e-05)
(-0.000616361 -0.000659563 0.000118999)
(-0.000719967 -0.000714411 0.00017158)
(-0.000820232 -0.000748382 0.000216275)
(-0.000912724 -0.000768518 0.000252055)
(-0.000993184 -0.000779959 0.000277355)
(-0.0010576 -0.000785732 0.000290641)
(-0.00110765 -0.000795338 0.000293711)
(-0.00115021 -0.000813049 0.000290055)
(-0.00118954 -0.000836069 0.000282478)
(-0.0012291 -0.000862986 0.000272784)
(-0.00127071 -0.000892624 0.000261777)
(-0.00131489 -0.000924275 0.000249617)
(-0.00136201 -0.000957868 0.000236248)
(-0.00141162 -0.000992993 0.000221321)
(-0.0014631 -0.00102915 0.000204225)
(-0.00151538 -0.00106547 0.00018392)
(-0.00156689 -0.00110077 0.000158622)
(-0.00161512 -0.00113325 0.000125886)
(-0.00165528 -0.00116028 8.2101e-05)
(-0.00167934 -0.00117688 2.82804e-05)
(-0.000618418 -0.000528865 -0.000196008)
(-0.000427593 -0.000404383 -4.29426e-05)
(-0.000427469 -0.000442007 -2.10169e-06)
(-0.000517285 -0.000540036 4.76204e-05)
(-0.000620704 -0.000622005 0.000102601)
(-0.000728281 -0.000681602 0.000154125)
(-0.000833175 -0.000720727 0.000199201)
(-0.000930328 -0.000744786 0.000236101)
(-0.00101485 -0.000757953 0.000262413)
(-0.00108502 -0.000765686 0.000277185)
(-0.00113996 -0.000774268 0.000281476)
(-0.00118502 -0.000789523 0.000278535)
(-0.00122701 -0.0008114 0.000271678)
(-0.00126852 -0.000836994 0.000262549)
(-0.00131172 -0.000865269 0.000252101)
(-0.00135793 -0.0008959 0.000240662)
(-0.00140681 -0.000928269 0.000228039)
(-0.00145813 -0.000962093 0.000213921)
(-0.00151113 -0.000996777 0.000197669)
(-0.00156485 -0.00103159 0.000178264)
(-0.00161768 -0.00106539 0.000153933)
(-0.00166709 -0.00109645 0.000122274)
(-0.00170822 -0.0011223 7.97798e-05)
(-0.00173279 -0.00113818 2.74782e-05)
(-0.000618117 -0.000468963 -0.000166409)
(-0.000434473 -0.000372671 -4.68258e-05)
(-0.000426665 -0.000403531 -1.08569e-05)
(-0.000512939 -0.000497235 3.38003e-05)
(-0.000618267 -0.000581185 8.55689e-05)
(-0.000728525 -0.000644176 0.000135427)
(-0.000837842 -0.000687987 0.00018051)
(-0.000940021 -0.00071594 0.000218382)
(-0.00103062 -0.000732184 0.000246227)
(-0.00110498 -0.000740581 0.000262123)
(-0.00116554 -0.000749448 0.000267905)
(-0.00121526 -0.000763022 0.000266233)
(-0.00125939 -0.000782359 0.000260117)
(-0.00130322 -0.000806462 0.000251778)
(-0.00134872 -0.000833606 0.000242147)
(-0.00139634 -0.000862645 0.000231413)
(-0.00144673 -0.000893497 0.000219586)
(-0.00149943 -0.000925695 0.00020631)
(-0.00155385 -0.000958774 0.000190965)
(-0.00160884 -0.000991913 0.000172501)
(-0.00166281 -0.00102403 0.000149167)
(-0.00171325 -0.00105353 0.00011861)
(-0.0017552 -0.00107808 7.743e-05)
(-0.00178018 -0.00109314 2.66682e-05)
(-0.000538491 -0.000362237 -0.000121419)
(-0.000426372 -0.000330235 -4.90132e-05)
(-0.000416984 -0.000360952 -1.94059e-05)
(-0.000500297 -0.000451126 1.99319e-05)
(-0.000605925 -0.000535609 6.77061e-05)
(-0.000720145 -0.000603068 0.000115587)
(-0.000834251 -0.000651539 0.000160322)
(-0.00094168 -0.000683193 0.00019892)
(-0.00103627 -0.000700837 0.000227757)
(-0.00111746 -0.000711525 0.000245535)
(-0.00118311 -0.000720437 0.000252813)
(-0.00123745 -0.000732832 0.000252541)
(-0.00128617 -0.000750713 0.000247833)
(-0.00133249 -0.000772793 0.00024049)
(-0.00137947 -0.000797836 0.000231652)
(-0.00142922 -0.000825437 0.000221865)
(-0.00148127 -0.000854674 0.000210952)
(-0.00153547 -0.000885202 0.000198615)
(-0.00159102 -0.000916418 0.000184204)
(-0.00164702 -0.000947672 0.000166705)
(-0.0017019 -0.000977908 0.000144381)
(-0.00175312 -0.00100562 0.00011493)
(-0.00179572 -0.00102869 7.50732e-05)
(-0.00182097 -0.00104288 2.58582e-05)
(-0.000536826 -0.000321318 -9.44152e-05)
(-0.000428224 -0.000295191 -5.38973e-05)
(-0.000402536 -0.000319461 -2.73281e-05)
(-0.000478674 -0.000402421 6.34707e-06)
(-0.000585514 -0.000488154 4.95242e-05)
(-0.000701227 -0.00055791 9.44596e-05)
(-0.00081947 -0.000610351 0.000138177)
(-0.000932077 -0.000645458 0.00017711)
(-0.00103461 -0.00066697 0.00020765)
(-0.00112034 -0.000678183 0.00022691)
(-0.00119206 -0.00068761 0.000236118)
(-0.00125193 -0.000699521 0.000237652)
(-0.00130409 -0.000715592 0.00023432)
(-0.00135369 -0.000735888 0.000228285)
(-0.00140381 -0.00075948 0.000220702)
(-0.00145495 -0.000784995 0.000211885)
(-0.00150834 -0.0008123 0.000201965)
(-0.00156359 -0.000840832 0.000190615)
(-0.00162023 -0.000870138 0.000177227)
(-0.0016771 -0.000899409 0.000160751)
(-0.00173272 -0.000927694 0.000139481)
(-0.00178465 -0.000953584 0.000111178)
(-0.00182781 -0.000975152 7.26811e-05)
(-0.00185315 -0.000988421 2.50379e-05)
(-0.000463315 -0.000243511 -6.42497e-05)
(-0.000402965 -0.000248556 -5.50126e-05)
(-0.000377671 -0.000274609 -3.39866e-05)
(-0.000447598 -0.000351808 -6.78563e-06)
(-0.000551531 -0.000435528 3.08046e-05)
(-0.000670985 -0.000509321 7.222e-05)
(-0.000794167 -0.000566168 0.000114367)
(-0.000913235 -0.000605361 0.000153431)
(-0.0010195 -0.000627768 0.000184679)
(-0.00111364 -0.00064163 0.000206241)
(-0.0011914 -0.000651286 0.000217587)
(-0.00125609 -0.000662169 0.00022106)
(-0.00131339 -0.000677252 0.000219639)
(-0.00136628 -0.000695761 0.000215112)
(-0.00141799 -0.000717032 0.000208734)
(-0.00147166 -0.000740998 0.000201241)
(-0.00152673 -0.0007665 0.000192503)
(-0.00158328 -0.000793144 0.000182289)
(-0.00164058 -0.000820319 0.000169974)
(-0.00169795 -0.000847478 0.000154571)
(-0.00175395 -0.000873709 0.000134399)
(-0.00180622 -0.000897711 0.000107286)
(-0.00184964 -0.000917708 7.01999e-05)
(-0.00187489 -0.000929978 2.41883e-05)
(-0.000446242 -0.000205259 -4.85724e-05)
(-0.00038743 -0.000213247 -5.68997e-05)
(-0.000347412 -0.000231421 -3.98194e-05)
(-0.000405039 -0.00029883 -1.87426e-05)
(-0.000509521 -0.000383091 1.2444e-05)
(-0.000628333 -0.000457516 4.9075e-05)
(-0.000755133 -0.000517801 8.86562e-05)
(-0.000879103 -0.000560062 0.00012701)
(-0.00099606 -0.000587571 0.000159893)
(-0.00109534 -0.000601807 0.000183168)
(-0.00118006 -0.000611896 0.000197026)
(-0.00125153 -0.000622506 0.000203055)
(-0.00131256 -0.000635634 0.00020357)
(-0.00136897 -0.000652301 0.00020083)
(-0.00142445 -0.000672179 0.000196173)
(-0.00147916 -0.000693726 0.000189945)
(-0.00153515 -0.00071697 0.000182438)
(-0.00159224 -0.000741315 0.000173401)
(-0.00165015 -0.000766347 0.000162272)
(-0.00170777 -0.000791308 0.000148023)
(-0.00176384 -0.000815401 0.000129017)
(-0.00181616 -0.000837458 0.000103163)
(-0.0018596 -0.000855844 6.75726e-05)
(-0.00188461 -0.000867071 2.32902e-05)
(-0.000432087 -0.000171469 -3.33713e-05)
(-0.000355877 -0.000174385 -5.78202e-05)
(-0.000308641 -0.00018861 -4.37569e-05)
(-0.000354645 -0.000246973 -2.90102e-05)
(-0.000449749 -0.000324384 -5.15855e-06)
(-0.00057191 -0.000402332 2.56032e-05)
(-0.000703475 -0.000466917 6.16225e-05)
(-0.000835823 -0.000514467 9.90057e-05)
(-0.000955584 -0.000542301 0.00013199)
(-0.00106529 -0.000559762 0.000157782)
(-0.00115752 -0.00057023 0.000174398)
(-0.00123435 -0.000579554 0.000183036)
(-0.00130165 -0.000591695 0.000186189)
(-0.00136202 -0.000606491 0.000185558)
(-0.00141871 -0.000623602 0.000182479)
(-0.00147631 -0.000643465 0.000177948)
(-0.001534 -0.000664726 0.000171911)
(-0.0015922 -0.000687003 0.000164232)
(-0.00165021 -0.000709674 0.000154333)
(-0.00170769 -0.000732326 0.000141282)
(-0.00176347 -0.0007542 0.000123477)
(-0.00181547 -0.000774231 9.89129e-05)
(-0.00185861 -0.000790928 6.48633e-05)
(-0.00188319 -0.000801065 2.23658e-05)
(-0.000340537 -0.000114812 -2.07554e-05)
(-0.000309666 -0.000137526 -5.46592e-05)
(-0.000261877 -0.000146869 -4.56352e-05)
(-0.000288752 -0.000191376 -3.58747e-05)
(-0.000384827 -0.000268786 -2.08684e-05)
(-0.00050229 -0.000344545 2.59865e-06)
(-0.000636598 -0.000412325 3.36545e-05)
(-0.00077235 -0.000462511 6.85408e-05)
(-0.000906681 -0.000497718 0.000102536)
(-0.00102204 -0.000515708 0.000130024)
(-0.00112216 -0.000526593 0.000149591)
(-0.00120736 -0.000535767 0.000161545)
(-0.00127893 -0.000545699 0.00016734)
(-0.00134318 -0.000558355 0.000169084)
(-0.00140476 -0.000574104 0.000168285)
(-0.00146304 -0.000591189 0.000165349)
(-0.00152124 -0.000609888 0.000160795)
(-0.00157938 -0.000629591 0.000154485)
(-0.00163753 -0.000649964 0.000145943)
(-0.00169465 -0.000670286 0.000134171)
(-0.00174982 -0.000689911 0.000117633)
(-0.00180123 -0.000707909 9.44281e-05)
(-0.00184386 -0.000722921 6.2007e-05)
(-0.00186784 -0.000731963 2.13936e-05)
(-0.000267984 -7.73421e-05 -8.57196e-06)
(-0.00026052 -0.000103446 -5.19127e-05)
(-0.00021164 -0.000109763 -4.55686e-05)
(-0.000223425 -0.000142165 -3.98505e-05)
(-0.000296796 -0.000203593 -3.22972e-05)
(-0.000418249 -0.000283122 -1.82013e-05)
(-0.000555837 -0.000354854 6.02176e-06)
(-0.000702815 -0.000412812 3.7694e-05)
(-0.000837144 -0.000447651 7.05475e-05)
(-0.000965204 -0.000470254 0.000100226)
(-0.00107449 -0.000482188 0.000122907)
(-0.00116553 -0.000489948 0.000138044)
(-0.00124449 -0.000498828 0.000147165)
(-0.00131367 -0.000509562 0.000151677)
(-0.00137582 -0.000522026 0.000152864)
(-0.00143758 -0.000537344 0.000152048)
(-0.00149766 -0.000553973 0.000149278)
(-0.0015569 -0.000571562 0.000144569)
(-0.00161457 -0.000589452 0.000137411)
(-0.00167088 -0.00060738 0.000126951)
(-0.00172504 -0.000624727 0.000111698)
(-0.00177546 -0.000640652 8.98654e-05)
(-0.00181721 -0.000653932 5.90996e-05)
(-0.00184042 -0.000661886 2.04064e-05)
(-0.000192274 -4.69784e-05 1.92031e-06)
(-0.000198276 -7.04732e-05 -4.77781e-05)
(-0.000155693 -7.60018e-05 -4.29004e-05)
(-0.000132016 -8.23292e-05 -3.30012e-05)
(-0.000215072 -0.000146637 -3.86379e-05)
(-0.00032132 -0.000217744 -3.49457e-05)
(-0.000460565 -0.000293471 -1.94647e-05)
(-0.000606714 -0.000353135 6.61505e-06)
(-0.000761364 -0.00039979 3.83465e-05)
(-0.000894612 -0.000423733 6.89291e-05)
(-0.00101218 -0.000436726 9.44598e-05)
(-0.0011131 -0.000444915 0.000113317)
(-0.00119692 -0.000451639 0.000125666)
(-0.00127007 -0.000459974 0.000133065)
(-0.00133871 -0.000471255 0.000137108)
(-0.00140065 -0.000483479 0.00013822)
(-0.00146069 -0.000497312 0.000137186)
(-0.00151908 -0.00051212 0.000134027)
(-0.00157644 -0.000527693 0.000128394)
(-0.00163175 -0.0005433 0.00011933)
(-0.00168458 -0.000558421 0.00010543)
(-0.00173375 -0.000572336 8.50412e-05)
(-0.00177446 -0.00058395 5.6029e-05)
(-0.00179671 -0.000590842 1.93659e-05)
(-7.66965e-05 -1.52677e-05 8.15322e-06)
(-0.000116195 -3.75095e-05 -3.70864e-05)
(-9.78048e-05 -4.59112e-05 -3.76436e-05)
(-7.92956e-05 -4.97675e-05 -2.9106e-05)
(-7.44164e-05 -5.21043e-05 -2.13053e-05)
(-0.000212034 -0.000146821 -4.17006e-05)
(-0.000350521 -0.000225761 -3.92157e-05)
(-0.000513928 -0.000299337 -2.21524e-05)
(-0.000661296 -0.000344192 6.1617e-06)
(-0.00080967 -0.000375832 3.7144e-05)
(-0.000937633 -0.00039165 6.51103e-05)
(-0.00104434 -0.000399106 8.71317e-05)
(-0.00113621 -0.000405157 0.000103085)
(-0.00121538 -0.00041185 0.000113731)
(-0.00128329 -0.000419406 0.000120063)
(-0.00134955 -0.000429963 0.000123691)
(-0.00141182 -0.000441787 0.00012475)
(-0.00147155 -0.000454611 0.000123445)
(-0.00152777 -0.000467713 0.000119341)
(-0.00158154 -0.000480997 0.000111687)
(-0.00163262 -0.000493945 9.91399e-05)
(-0.00168008 -0.000505877 8.01884e-05)
(-0.00171934 -0.00051583 5.29363e-05)
(-0.00174045 -0.000521714 1.83204e-05)
(-8.14909e-06 5.07122e-07 1.02719e-05)
(-2.4511e-05 -6.99015e-06 -1.18698e-05)
(-3.23069e-05 -1.5337e-05 -2.08078e-05)
(-5.14789e-05 -3.56247e-05 -3.1601e-05)
(-4.99342e-05 -3.9327e-05 -2.32595e-05)
(-0.000100806 -7.39848e-05 -3.17971e-05)
(-0.0002367 -0.000154266 -4.87108e-05)
(-0.000383986 -0.000225945 -4.42733e-05)
(-0.000562088 -0.000292556 -2.29638e-05)
(-0.000712143 -0.000326768 6.33503e-06)
(-0.00084757 -0.000345624 3.55672e-05)
(-0.000964923 -0.000355191 6.05709e-05)
(-0.00106173 -0.000359933 7.96981e-05)
(-0.00114438 -0.000364423 9.33761e-05)
(-0.00122098 -0.000371432 0.000102972)
(-0.00128648 -0.00037876 0.000108767)
(-0.00134791 -0.000387713 0.000111762)
(-0.00140563 -0.000397672 0.000112142)
(-0.00146109 -0.000408619 0.000109717)
(-0.00151319 -0.000419762 0.00010356)
(-0.00156215 -0.000430677 9.24339e-05)
(-0.00160767 -0.00044077 7.50043e-05)
(-0.00164535 -0.000449203 4.96337e-05)
(-0.00166513 -0.000454142 1.72055e-05)
(6.72145e-06 6.34526e-06 1.52428e-05)
(4.88238e-06 6.2994e-07 -7.44983e-06)
(-4.02628e-06 -7.92772e-06 -2.04201e-05)
(-1.71602e-05 -2.31433e-05 -2.779e-05)
(-3.49982e-05 -3.75038e-05 -3.02078e-05)
(-4.4143e-05 -3.66882e-05 -2.3284e-05)
(-0.000132515 -9.00541e-05 -4.48351e-05)
(-0.000279829 -0.000165456 -5.73361e-05)
(-0.000430998 -0.000225689 -4.5428e-05)
(-0.000601507 -0.000275304 -2.119e-05)
(-0.00074713 -0.000300211 7.4191e-06)
(-0.00086882 -0.000310983 3.4034e-05)
(-0.00097382 -0.000316544 5.60084e-05)
(-0.00106324 -0.000320423 7.27945e-05)
(-0.00113648 -0.000323586 8.46567e-05)
(-0.00120737 -0.000329752 9.32043e-05)
(-0.00127152 -0.00033704 9.85198e-05)
(-0.00133114 -0.000345406 0.000100978)
(-0.0013847 -0.000354099 0.000100197)
(-0.00143445 -0.000363186 9.5521e-05)
(-0.00148087 -0.000372212 8.57928e-05)
(-0.00152394 -0.000380576 6.98518e-05)
(-0.00155957 -0.000387548 4.63441e-05)
(-0.00157788 -0.000391638 1.60971e-05)
(1.30816e-05 1.13472e-05 2.17085e-05)
(2.4063e-05 7.43165e-06 -7.61185e-06)
(2.20283e-05 -2.35547e-07 -1.47529e-05)
(1.27393e-05 -9.64585e-06 -1.63637e-05)
(-8.36541e-07 -2.49847e-05 -2.45085e-05)
(-2.91368e-05 -3.37143e-05 -2.93054e-05)
(-6.87881e-05 -5.25361e-05 -3.78144e-05)
(-8.16865e-05 -4.89203e-05 -2.58235e-05)
(-0.000322275 -0.000168378 -5.93575e-05)
(-0.000480288 -0.0002206 -4.31505e-05)
(-0.000631956 -0.000252849 -1.7609e-05)
(-0.00076448 -0.000269057 8.99056e-06)
(-0.00087244 -0.000275032 3.26497e-05)
(-0.00096392 -0.000277814 5.17904e-05)
(-0.00104887 -0.000281962 6.68192e-05)
(-0.00111714 -0.000285129 7.75114e-05)
(-0.00117905 -0.000289768 8.48049e-05)
(-0.00123489 -0.000295406 8.89709e-05)
(-0.00128713 -0.000302324 8.99641e-05)
(-0.00133447 -0.00030967 8.68477e-05)
(-0.00137794 -0.000317039 7.85843e-05)
(-0.00141835 -0.000323912 6.42391e-05)
(-0.00145186 -0.000329639 4.27575e-05)
(-0.00146847 -0.000332971 1.48877e-05)
(2.31455e-05 1.32803e-05 2.39511e-05)
(3.62947e-05 1.00422e-05 -8.72562e-06)
(3.72261e-05 2.63534e-06 -1.40653e-05)
(2.96058e-05 -6.54965e-06 -1.30942e-05)
(2.25897e-05 -1.56787e-05 -1.3079e-05)
(4.01062e-06 -2.56481e-05 -1.82638e-05)
(-2.01702e-05 -1.95246e-05 -1.69897e-05)
(-5.2235e-05 -3.28367e-05 -2.45862e-05)
(-0.000143886 -7.44457e-05 -3.99353e-05)
(-0.000353835 -0.000162844 -5.53832e-05)
(-0.000510566 -0.000205411 -3.76257e-05)
(-0.00064282 -0.000225445 -1.32921e-05)
(-0.00076015 -0.000235659 1.06199e-05)
(-0.000858266 -0.00023988 3.15231e-05)
(-0.000934646 -0.000240489 4.81661e-05)
(-0.00100968 -0.000243752 6.1428e-05)
(-0.00107497 -0.00024759 7.10381e-05)
(-0.0011336 -0.000252404 7.73911e-05)
(-0.00118305 -0.000257553 8.00644e-05)
(-0.00122711 -0.000263312 7.84406e-05)
(-0.00126722 -0.000269268 7.15827e-05)
(-0.00130442 -0.000274822 5.8759e-05)
(-0.00133527 -0.000279418 3.92421e-05)
(-0.00135013 -0.000282123 1.37043e-05)
(3.30513e-05 1.42566e-05 2.52295e-05)
(7.40418e-05 1.63283e-05 -1.39607e-05)
(8.38493e-05 6.12279e-06 -2.36712e-05)
(6.19912e-05 -7.44659e-06 -1.92997e-05)
(6.1659e-05 -2.37902e-05 -1.9216e-05)
(2.59263e-05 -2.28124e-05 -7.002e-06)
(1.21569e-06 -2.41509e-05 -9.51064e-06)
(-4.30385e-05 -3.02978e-05 -2.79584e-05)
(-0.000107391 -5.68707e-05 -4.29646e-05)
(-0.000205661 -9.51672e-05 -4.86233e-05)
(-0.000375337 -0.00015311 -4.87291e-05)
(-0.000522411 -0.000184961 -3.13817e-05)
(-0.000635344 -0.00019698 -9.06923e-06)
(-0.000732972 -0.000202271 1.21882e-05)
(-0.000825785 -0.00020688 3.08632e-05)
(-0.000894512 -0.00020782 4.57358e-05)
(-0.000954948 -0.000209634 5.70119e-05)
(-0.00100707 -0.000212173 6.48536e-05)
(-0.00105444 -0.000216214 6.92475e-05)
(-0.00109529 -0.000220853 6.91555e-05)
(-0.00113153 -0.000225696 6.37586e-05)
(-0.00116537 -0.000230247 5.26015e-05)
(-0.0011936 -0.000233994 3.52817e-05)
(-0.00120641 -0.00023616 1.23647e-05)
(3.90441e-05 1.44688e-05 2.69323e-05)
(9.2057e-05 1.91368e-05 -1.26207e-05)
(0.000111986 9.82311e-06 -2.71589e-05)
(0.000112063 -7.04242e-06 -3.19443e-05)
(8.4201e-05 -2.2217e-05 -2.41386e-05)
(3.3112e-05 -1.80612e-05 -7.62376e-06)
(3.14437e-05 -3.55907e-05 -3.04435e-06)
(-6.47683e-06 -1.94479e-05 -4.99767e-06)
(-4.02285e-05 -2.29824e-05 -2.01912e-05)
(-8.15769e-05 -3.83945e-05 -2.72845e-05)
(-0.000248894 -0.000101902 -4.9549e-05)
(-0.000378352 -0.000137507 -4.20333e-05)
(-0.000507802 -0.000160142 -2.48671e-05)
(-0.00061052 -0.000169708 -4.93906e-06)
(-0.000684562 -0.000170981 1.38791e-05)
(-0.00076223 -0.000174417 3.02946e-05)
(-0.00082722 -0.000177091 4.33932e-05)
(-0.000883532 -0.000180134 5.32486e-05)
(-0.000926996 -0.000183168 5.91786e-05)
(-0.000963495 -0.00018687 6.0471e-05)
(-0.000995627 -0.000190909 5.64202e-05)
(-0.00102552 -0.000194651 4.67845e-05)
(-0.00105051 -0.000197679 3.1518e-05)
(-0.00106143 -0.000199467 1.10932e-05)
(4.42868e-05 1.46521e-05 2.92924e-05)
(0.000102404 2.15723e-05 -1.0491e-05)
(0.000128855 1.50789e-05 -2.82594e-05)
(0.000133758 -1.3159e-06 -3.63364e-05)
(0.000121176 -2.07997e-05 -3.52983e-05)
(8.38645e-05 -3.27121e-05 -2.30279e-05)
(2.97915e-05 -2.18366e-05 -4.87626e-06)
(1.17859e-05 -1.85141e-05 2.09824e-06)
(-1.74338e-05 -2.2787e-05 -8.17922e-06)
(-4.73637e-05 -2.39115e-05 -2.09651e-05)
(-7.40791e-05 -3.11642e-05 -2.13695e-05)
(-0.000260234 -9.61766e-05 -4.57347e-05)
(-0.000368327 -0.00012063 -3.51265e-05)
(-0.000466126 -0.000133776 -1.82997e-05)
(-0.000566058 -0.000144216 -6.1456e-07)
(-0.000630308 -0.000146005 1.61447e-05)
(-0.000685391 -0.000147466 2.99776e-05)
(-0.000730441 -0.000148775 4.06061e-05)
(-0.000771032 -0.000151682 4.78933e-05)
(-0.000803537 -0.000155026 5.04961e-05)
(-0.000830874 -0.000158547 4.78109e-05)
(-0.000856801 -0.000161822 3.9911e-05)
(-0.00087875 -0.00016445 2.70482e-05)
(-0.000887317 -0.000165888 9.56585e-06)
(4.78763e-05 1.4799e-05 3.2429e-05)
(0.000101298 2.19466e-05 -7.4177e-06)
(0.000130126 1.9102e-05 -2.66204e-05)
(0.000142843 6.06645e-06 -3.7815e-05)
(0.000136991 -1.33497e-05 -4.01008e-05)
(0.000117049 -3.18069e-05 -3.41201e-05)
(7.28138e-05 -3.70913e-05 -1.77248e-05)
(2.507e-05 -2.27972e-05 -2.20862e-06)
(1.06336e-05 -2.81586e-05 3.9399e-06)
(-2.191e-05 -1.71296e-05 -9.77811e-06)
(-7.59435e-05 -3.59333e-05 -3.11351e-05)
(-7.52127e-05 -2.87403e-05 -1.97547e-05)
(-0.000237115 -8.22181e-05 -3.76743e-05)
(-0.000341822 -0.000102981 -2.77662e-05)
(-0.000402913 -0.000108332 -1.19648e-05)
(-0.000481564 -0.000116577 3.63015e-06)
(-0.000543955 -0.000121505 1.78281e-05)
(-0.000597556 -0.000125716 2.98283e-05)
(-0.000632275 -0.000128363 3.81457e-05)
(-0.000659283 -0.000131375 4.18129e-05)
(-0.000682022 -0.00013469 4.03015e-05)
(-0.000703411 -0.000137596 3.38579e-05)
(-0.000721656 -0.000139882 2.30778e-05)
(-0.000728482 -0.000141132 8.21229e-06)
(4.9851e-05 1.4493e-05 3.56665e-05)
(9.6222e-05 2.13104e-05 -4.31265e-06)
(0.000124774 2.09173e-05 -2.34127e-05)
(0.000137848 1.16191e-05 -3.51967e-05)
(0.000139771 -4.57562e-06 -4.06757e-05)
(0.000127452 -2.31799e-05 -3.82436e-05)
(0.000106659 -3.88629e-05 -2.98055e-05)
(6.04193e-05 -3.71402e-05 -1.26913e-05)
(4.59865e-05 -4.72788e-05 -1.35066e-06)
(5.4347e-06 -2.64828e-05 -1.25008e-07)
(-3.32429e-05 -2.22343e-05 -2.02753e-05)
(-8.07732e-05 -3.70645e-05 -3.25498e-05)
(-0.000122353 -4.52442e-05 -2.97396e-05)
(-0.000190174 -6.03394e-05 -2.67099e-05)
(-0.000298641 -8.49004e-05 -2.0844e-05)
(-0.000350145 -9.06587e-05 -6.37808e-06)
(-0.000394676 -9.47468e-05 6.85252e-06)
(-0.000423705 -9.64302e-05 1.78931e-05)
(-0.000456437 -0.00010033 2.66244e-05)
(-0.000479052 -0.000103494 3.09689e-05)
(-0.000496093 -0.000106764 3.05637e-05)
(-0.000513 -0.000109394 2.59353e-05)
(-0.000528041 -0.000111641 1.78417e-05)
(-0.00053243 -0.000112571 6.38739e-06)
(4.96608e-05 1.42373e-05 3.8924e-05)
(8.81377e-05 2.05754e-05 -1.91845e-06)
(0.000115403 2.17385e-05 -2.01734e-05)
(0.000128418 1.4809e-05 -3.14304e-05)
(0.000131715 2.21184e-06 -3.75849e-05)
(0.000128023 -1.42168e-05 -3.86239e-05)
(0.000113641 -3.01991e-05 -3.32807e-05)
(9.65865e-05 -4.27736e-05 -2.53716e-05)
(5.24742e-05 -3.60507e-05 -1.12604e-05)
(2.39458e-05 -2.96047e-05 -3.97716e-06)
(-1.25976e-06 -1.69603e-05 -7.15001e-06)
(-2.05102e-05 -1.27531e-05 -1.37283e-05)
(-6.23634e-05 -2.61195e-05 -2.44787e-05)
(-0.000121374 -4.41093e-05 -2.85761e-05)
(-8.83416e-05 -2.68317e-05 -1.13296e-05)
(-0.000195254 -5.534e-05 -1.12715e-05)
(-0.000251799 -6.72643e-05 -1.30817e-06)
(-0.000308931 -7.66072e-05 9.73507e-06)
(-0.000329702 -8.00368e-05 1.82109e-05)
(-0.000347507 -8.35998e-05 2.30715e-05)
(-0.000358313 -8.62342e-05 2.34875e-05)
(-0.00037241 -8.88266e-05 2.01385e-05)
(-0.00038348 -9.08359e-05 1.39442e-05)
(-0.000387164 -9.21469e-05 5.02562e-06)
(4.81109e-05 1.51789e-05 4.29382e-05)
(7.87493e-05 2.07735e-05 -8.56526e-07)
(0.000101907 2.21524e-05 -1.73818e-05)
(0.000113259 1.6624e-05 -2.67343e-05)
(0.000117917 6.43937e-06 -3.2532e-05)
(0.000117467 -6.9739e-06 -3.48525e-05)
(0.000113608 -2.25302e-05 -3.34085e-05)
(0.000101721 -3.52899e-05 -2.77558e-05)
(8.9951e-05 -4.51139e-05 -2.25788e-05)
(4.44319e-05 -3.27182e-05 -1.10745e-05)
(1.51386e-05 -2.01629e-05 -7.06927e-06)
(-4.84714e-06 -1.30211e-05 -1.2969e-05)
(-3.96253e-05 -2.28411e-05 -3.00834e-05)
(-3.76109e-05 -1.70858e-05 -1.60601e-05)
(-9.97208e-05 -3.87844e-05 -2.38793e-05)
(-6.41044e-05 -2.20562e-05 -7.79118e-06)
(-0.000107514 -3.29025e-05 -4.46182e-06)
(-7.94815e-05 -2.24954e-05 9.58749e-07)
(-0.000131263 -3.59422e-05 6.32125e-06)
(-0.000136336 -3.91423e-05 9.2603e-06)
(-0.000152766 -4.25367e-05 1.07745e-05)
(-0.000153978 -4.36277e-05 8.94863e-06)
(-0.000163647 -4.62542e-05 6.45986e-06)
(-0.000160105 -4.67039e-05 2.27782e-06)
(4.42681e-05 1.72166e-05 4.67127e-05)
(6.47669e-05 2.05716e-05 -7.82122e-07)
(8.2194e-05 2.12562e-05 -1.42175e-05)
(9.15104e-05 1.6661e-05 -2.07929e-05)
(9.68714e-05 8.65686e-06 -2.52304e-05)
(9.99769e-05 -2.38582e-06 -2.81448e-05)
(0.000101168 -1.59295e-05 -2.85326e-05)
(0.000102525 -2.97453e-05 -2.72726e-05)
(9.43659e-05 -3.83239e-05 -2.40332e-05)
(8.33583e-05 -4.51696e-05 -2.2752e-05)
(3.89802e-05 -3.08549e-05 -1.47355e-05)
(1.41143e-05 -2.33581e-05 -1.68288e-05)
(-8.10245e-06 -1.5974e-05 -2.3105e-05)
(-3.11113e-05 -1.90232e-05 -3.02192e-05)
(-4.30738e-05 -2.23805e-05 -2.20601e-05)
(-5.79151e-05 -2.59804e-05 -1.53503e-05)
(-9.30689e-05 -3.71897e-05 -1.18159e-05)
(-5.19189e-05 -1.97831e-05 -1.7445e-06)
(-0.000113928 -4.27417e-05 3.52434e-06)
(-9.5124e-05 -3.64002e-05 6.45919e-06)
(-0.000124537 -4.89883e-05 9.36999e-06)
(-5.88586e-05 -2.37026e-05 3.7801e-06)
(-6.00661e-05 -2.43343e-05 2.73476e-06)
(-0.000110581 -4.40845e-05 1.91944e-06)
(3.81163e-05 1.95862e-05 4.89467e-05)
(5.15439e-05 2.05639e-05 -1.31566e-06)
(6.05521e-05 1.89755e-05 -1.1247e-05)
(6.56147e-05 1.44329e-05 -1.46256e-05)
(7.04989e-05 8.22775e-06 -1.70901e-05)
(7.59664e-05 -6.6305e-07 -1.93976e-05)
(8.34556e-05 -1.23386e-05 -2.11095e-05)
(9.0758e-05 -2.41959e-05 -2.18687e-05)
(9.68002e-05 -3.45691e-05 -2.30586e-05)
(8.8519e-05 -3.93932e-05 -2.30543e-05)
(7.48208e-05 -4.30975e-05 -2.52584e-05)
(3.35545e-05 -2.82666e-05 -1.98556e-05)
(1.04853e-05 -1.7257e-05 -2.08323e-05)
(-5.09517e-06 -1.58985e-05 -3.28864e-05)
(-1.30773e-05 -1.07822e-05 -2.02048e-05)
(-1.86161e-05 -1.18303e-05 -1.42552e-05)
(-3.67842e-05 -2.28266e-05 -1.46792e-05)
(-5.56781e-05 -3.07388e-05 -9.54035e-06)
(-2.92269e-05 -1.72375e-05 -7.3133e-07)
(-6.37153e-05 -3.50869e-05 3.7794e-06)
(-3.02912e-05 -1.85121e-05 2.4644e-06)
(-5.71768e-05 -3.48681e-05 4.43855e-06)
(-5.82366e-05 -3.52955e-05 3.42378e-06)
(-7.15653e-05 -4.18249e-05 1.71445e-06)
(3.05932e-05 2.1544e-05 4.89394e-05)
(4.01896e-05 2.0713e-05 -2.30372e-06)
(4.33244e-05 1.66432e-05 -9.76244e-06)
(4.40709e-05 1.13235e-05 -1.06728e-05)
(4.63645e-05 5.72908e-06 -1.1096e-05)
(5.29081e-05 -1.84445e-06 -1.21325e-05)
(6.37259e-05 -1.18093e-05 -1.33924e-05)
(7.7553e-05 -2.19056e-05 -1.54737e-05)
(8.66405e-05 -2.98819e-05 -1.79869e-05)
(9.15144e-05 -3.68933e-05 -2.15984e-05)
(8.16554e-05 -3.91389e-05 -2.45662e-05)
(6.60704e-05 -4.03559e-05 -3.03708e-05)
(3.11182e-05 -2.66118e-05 -2.80261e-05)
(7.9354e-06 -1.16954e-05 -1.90709e-05)
(5.05648e-07 -9.19163e-06 -2.06743e-05)
(-7.86394e-06 -1.7012e-05 -3.84559e-05)
(-7.31534e-06 -1.04052e-05 -1.63704e-05)
(-1.31297e-05 -1.61515e-05 -1.33987e-05)
(-1.89816e-05 -2.2536e-05 -8.83434e-06)
(-9.68929e-06 -1.29785e-05 -1.66579e-06)
(-1.96782e-05 -2.93084e-05 -3.77555e-07)
(-1.38047e-05 -1.97221e-05 4.71023e-07)
(-9.88763e-06 -1.35275e-05 4.91997e-07)
(-9.96209e-06 -1.46423e-05 1.95749e-07)
(2.29901e-05 2.25987e-05 4.62629e-05)
(3.0456e-05 2.04463e-05 -3.86188e-06)
(3.15312e-05 1.47631e-05 -9.82543e-06)
(3.15634e-05 8.92481e-06 -9.85314e-06)
(3.27833e-05 2.62663e-06 -9.14958e-06)
(3.95105e-05 -5.54949e-06 -8.78841e-06)
(5.20046e-05 -1.50969e-05 -8.74049e-06)
(6.54527e-05 -2.29405e-05 -9.90105e-06)
(7.81511e-05 -2.92544e-05 -1.31683e-05)
(8.33875e-05 -3.36136e-05 -1.71068e-05)
(8.48507e-05 -3.78293e-05 -2.25799e-05)
(7.48864e-05 -3.84402e-05 -2.88826e-05)
(6.0208e-05 -3.78995e-05 -3.86023e-05)
(3.47595e-05 -2.84858e-05 -4.04626e-05)
(1.94305e-05 -2.51969e-05 -4.62789e-05)
(5.25689e-06 -1.13995e-05 -2.53362e-05)
(2.68563e-06 -1.05602e-05 -2.38974e-05)