/*--------------------------------*- C++ -*----------------------------------*\
  =========                 |
  \\      /  F ield         | OpenFOAM: The Open Source CFD Toolbox
   \\    /   O peration     | Website:  https://openfoam.org
    \\  /    A nd           | Version:  6
     \\/     M anipulation  |
\*---------------------------------------------------------------------------*/
FoamFile
{
    version     2.0;
    format      ascii;
    class       volScalarField;
    location    "6";
    object      yPlus;
}
// * * * * * * * * * * * * * * * * * * * * * * * * * * * * * * * * * * * * * //

dimensions      [0 0 0 0 0 0 0];

internalField   uniform 0;

boundaryField
{
    inlet
    {
        type            calculated;
        value           uniform 0;
    }
    outlet
    {
        type            calculated;
        value           uniform 0;
    }
    roughCylinder
    {
        type            calculated;
        value           nonuniform List<scalar> 
3840
(
73.7752
51.1437
54.3432
62.6664
69.0743
74.1748
78.2774
81.7246
84.8031
87.5872
90.218
92.7551
95.2717
97.8818
100.625
103.542
106.631
109.873
113.233
116.649
120.015
123.163
125.781
127.379
63.46
50.3101
52.9055
60.9932
67.3534
72.4315
76.5161
79.9859
83.0001
85.7634
88.3161
90.7522
93.193
95.6969
98.3503
101.163
104.14
107.269
110.511
113.809
117.059
120.1
122.629
124.172
79.5987
49.8406
51.5187
59.3656
65.6397
70.6782
74.7889
78.2228
81.2735
83.945
86.4295
88.8093
91.1445
93.5684
96.1111
98.82
101.692
104.708
107.835
111.016
114.152
117.086
119.528
121.016
73.272
49.7124
50.0543
57.6088
63.8687
68.9373
73.0404
76.5468
79.5169
82.1918
84.6197
86.8946
89.1698
91.4889
93.953
96.5649
99.3294
102.236
105.251
108.316
111.339
114.17
116.525
117.959
62.0905
48.8091
48.6415
55.9403
62.1381
67.1681
71.3545
74.8043
77.8553
80.456
82.8177
85.0665
87.2401
89.4971
91.8542
94.3683
97.0378
99.8402
102.745
105.701
108.616
111.347
113.62
115.002
76.7425
48.546
47.1443
54.0721
60.2834
65.4206
69.5826
73.1725
76.1263
78.7628
81.1104
83.2535
85.3919
87.5486
89.8453
92.2761
94.8448
97.5465
100.347
103.195
106.004
108.638
110.83
112.161
69.9674
48.0475
45.7023
52.3195
58.509
63.5708
67.9
71.3956
74.4936
77.0789
79.367
81.5303
83.5744
85.694
87.8885
90.2278
92.7141
95.3194
98.0198
100.765
103.475
106.016
108.132
109.414
59.0711
47.2431
44.1317
50.2488
56.459
61.7709
66.0267
69.7633
72.7467
75.3935
77.7322
79.7918
81.8369
83.8611
86.0183
88.2922
90.6846
93.1985
95.8012
98.4463
101.058
103.507
105.547
106.782
72.9581
46.7169
42.5889
48.2994
54.5728
59.7063
64.2801
67.8692
71.0877
73.7227
75.9906
78.1356
80.0986
82.121
84.1814
86.3684
88.6918
91.1183
93.6282
96.1786
98.6968
101.061
103.031
104.219
58.9949
45.6855
40.8317
45.8335
52.0746
57.761
62.1723
66.1722
69.2569
71.9806
74.3844
76.4149
78.4244
80.3567
82.4105
84.556
86.7917
89.1337
91.5523
94.0078
96.4322
98.7109
100.61
101.752
61.7274
44.7122
39.0558
43.4356
49.954
55.2246
60.2565
64.0228
67.4833
70.2624
72.5731
74.7728
76.7039
78.6799
80.6396
82.6981
84.8793
87.1418
89.4732
91.8388
94.1752
96.3733
98.2057
99.3022
69.5473
44.2838
36.9403
40.204
46.4418
52.9585
57.6506
62.161
65.4678
68.3745
70.9465
73.0062
75.0434
76.9251
78.9144
80.9619
83.0592
85.2435
87.4886
89.7626
92.0078
94.1226
95.8858
96.9373
58.4416
43.8187
34.7131
36.7391
43.8701
49.3834
55.4007
59.5064
63.4399
66.5132
68.9581
71.3181
73.277
75.2657
77.159
79.113
81.1731
83.2853
85.4478
87.6359
89.797
91.8351
93.5351
94.5425
59.8797
41.9132
32.2982
31.8671
37.7611
46.4323
51.6928
57.3
61.0582
64.3415
67.2497
69.4159
71.5702
73.4514
75.4259
77.4112
79.3896
81.4289
83.5088
85.6072
87.6783
89.6341
91.2659
92.2285
56.142
41.0825
28.3505
25.387
34.3114
40.1399
48.7476
53.5752
58.5327
62.186
64.9091
67.598
69.6652
71.7495
73.6175
75.4944
77.4563
79.4314
81.4319
83.4467
85.4362
87.3185
88.8896
89.8081
41.3512
37.2588
26.9072
14.3485
16.7803
35.4191
42.1484
50.7019
55.3877
59.4663
63.0359
65.4219
67.8296
69.7734
71.8012
73.7704
75.6501
77.5553
79.4752
81.3999
83.2976
85.0964
86.5982
87.4717
14.8606
22.9659
12.5758
9.27782
8.47282
14.8126
37.554
44.1042
51.8617
56.7517
60.0254
63.352
65.6426
67.947
69.8401
71.6683
73.5584
75.4076
77.2489
79.0899
80.907
82.6341
84.0774
84.9055
5.69578
9.68047
15.1838
16.549
3.75299
9.28687
13.3931
39.8836
46.7763
52.8654
57.8541
60.6547
63.5572
65.6468
67.8263
69.8464
71.647
73.4258
75.1858
76.9324
78.6516
80.2906
81.6603
82.4427
5.36636
8.42081
9.30547
9.7123
18.8985
19.388
6.85922
18.4174
41.0436
49.0315
53.4794
58.1363
60.8365
63.5777
65.5646
67.3666
69.2178
70.9495
72.6271
74.2865
75.9236
77.4915
78.8049
79.5378
7.65469
11.5541
8.96957
18.915
20.141
21.1897
11.077
13.8158
27.3349
41.8983
50.7462
54.3777
58.3045
60.6643
63.1555
65.3441
67.0844
68.7387
70.3311
71.8863
73.4134
74.8834
76.1147
76.7994
5.98121
16.1576
17.1148
8.54393
4.67787
23.7806
23.4139
21.8342
8.80434
35.3457
43.0375
51.0575
54.522
58.1642
60.3599
62.138
63.9991
65.6197
67.1187
68.5782
70.019
71.419
72.5973
73.225
11.9779
20.8405
25.5976
28.3915
22.5698
21.4975
14.503
24.7254
14.1362
3.93043
39.065
44.6602
51.1763
54.025
57.1577
59.7696
61.4706
62.9956
64.4036
65.7412
67.051
68.3349
69.4159
69.9924
11.8184
19.7555
25.5439
29.2099
31.7271
27.1087
24.5733
28.6254
6.06842
22.1568
14.9361
39.8659
44.8842
50.7641
53.3954
55.0866
57.061
58.5817
59.8723
61.0997
62.3164
63.5422
64.5818
65.0869
11.3837
17.2777
23.9699
29.1509
31.7797
33.0328
28.1579
19.6368
25.1807
24.6996
23.6319
22.085
39.9386
43.6705
48.4341
52.1712
53.8621
55.2444
56.4442
57.5183
58.5743
59.6421
60.5585
61.0122
9.46635
14.5096
21.0499
26.184
30.4658
32.6194
33.2857
26.6024
21.9628
27.9004
16.1008
10.2357
23.5401
39.011
42.549
43.841
46.2699
47.7593
48.7664
49.725
50.6598
51.7537
52.6796
53.0379
6.98065
14.0867
19.5106
24.288
28.0743
31.2047
32.5825
33.1911
23.2137
11.8705
21.4612
25.2605
19.3219
20.0998
32.9532
40.2971
41.9874
43.0997
44.1774
44.7918
45.6485
46.4207
47.1633
47.3911
7.46088
12.2267
16.1608
20.5423
24.8018
28.2369
31.0339
31.9659
33.0566
13.1089
26.1553
19.6428
25.4458
24.3589
9.34247
13.8222
21.0377
24.287
23.7046
25.4562
24.8378
26.0749
27.2938
28.8644
2.74228
12.4558
14.0821
17.0846
20.6069
24.3567
27.6086
30.534
30.9624
32.1846
24.2175
9.78034
18.5893
1.71076
25.4528
4.21615
7.98676
27.9781
11.4255
29.8272
11.941
24.9115
25.3
32.1613
6.3594
12.0625
12.2512
13.7155
16.3781
19.7036
23.5463
26.8876
30.0835
29.9414
24.9989
15.3346
24.6098
27.2952
20.2441
26.2136
19.8906
3.74896
21.7763
11.1236
23.8108
32.4226
31.3251
7.34156
2.88325
12.0628
12.0645
12.908
14.0824
16.1049
19.0997
23.0373
26.3254
29.5981
30.3996
17.1777
21.9745
24.2403
8.79354
27.6236
23.0033
15.1911
25.7007
31.1865
5.50026
25.313
30.7071
18.8913
4.23047
11.3202
11.7871
12.6272
13.5756
14.4909
16.0968
18.7679
22.8124
26.0781
28.5288
30.2973
11.1871
6.14896
17.1557
16.2384
8.55479
26.8549
22.0294
24.9683
19.8635
19.3152
33.6184
18.0761
3.57554
11.7076
12.0484
13.0812
14.0238
14.815
15.38
16.4351
18.7099
22.8599
26.6583
28.4274
29.9073
14.3123
28.9588
25.8606
17.5393
32.361
25.5733
16.5873
19.6867
28.205
30.3633
27.8069
3.53222
11.8913
12.323
13.4873
14.4202
15.1819
15.8892
16.2107
16.9088
19.0135
23.0179
27.3
29.0195
31.0729
24.5061
17.8564
13.8729
15.7957
16.1835
16.4211
16.6651
15.595
14.0053
12.7399
3.57895
11.6483
12.9596
14.3862
15.3429
16.044
16.508
16.899
16.9703
17.5382
19.9703
23.9016
27.9395
28.9892
30.3587
30.7172
31.0312
31.0372
31.0348
31.1503
31.2228
31.2296
31.4258
31.3152
3.71191
12.165
13.8307
15.356
16.3003
17.0355
17.579
17.7551
17.8691
17.7956
18.2484
21.0255
25.0423
28.8424
29.3436
29.1959
28.6364
28.3728
28.2825
28.2534
28.13
27.9445
27.5435
27.2757
4.28903
11.9435
15.0488
16.6111
17.5724
18.336
18.8319
19.0722
18.9785
18.9367
18.9997
19.5868
22.3033
25.4995
28.1833
29.2587
29.4521
29.2604
29.0834
29.0155
28.9995
28.9472
28.8765
28.6794
5.8008
13.9011
16.4936
17.8743
18.8712
19.7321
20.3348
20.5675
20.5585
20.2836
20.1111
20.3526
21.3052
23.9023
25.9685
27.1534
27.376
27.2939
27.2413
27.2636
27.2343
27.0831
26.741
26.4353
7.51878
15.1824
17.7626
19.1888
20.3032
21.2666
21.9397
22.293
22.3056
22.1488
21.8621
21.7015
22.0581
23.0508
25.016
26.5062
27.2296
27.4924
27.6468
27.8134
27.9232
27.8703
27.6656
27.3954
9.61868
16.727
19.0999
20.4974
21.727
22.8227
23.6286
24.0882
24.2531
24.1209
23.872
23.6552
23.6669
24.231
25.1131
26.2
26.9478
27.4077
27.7589
28.0615
28.2329
28.1672
27.8557
27.5276
11.2808
17.9648
20.2728
21.7796
23.1815
24.4105
25.3348
25.9429
26.2372
26.2853
26.1051
25.8437
25.707
25.8549
26.4884
27.302
28.0433
28.6184
29.0904
29.4901
29.7434
29.7333
29.4736
29.16
11.7611
14.0011
16.0029
17.8761
19.1765
20.0027
20.2018
19.9343
19.1806
18.1455
16.8936
15.6126
14.3685
13.2655
12.3399
11.7006
11.5484
11.0462
10.0728
9.82443
9.83986
10.1027
11.1691
11.6082
11.7594
12.4082
13.3425
14.4412
15.6702
16.9278
18.1202
19.0942
19.7455
19.9372
19.6204
18.7544
17.3369
15.5464
13.358
11.5852
19.1671
19.9639
20.4405
20.8023
20.8989
20.8828
20.7074
20.4915
20.2252
19.9826
19.7523
19.5665
19.4184
19.3174
19.2577
19.2374
19.2481
19.2707
19.3037
19.3283
19.3295
19.3019
19.2713
19.2495
19.2409
19.2646
19.3275
19.4322
19.5797
19.7675
19.9865
20.225
20.4634
20.6671
20.791
20.7931
20.6252
20.2632
19.7141
18.9295
21.2954
21.6663
21.9378
22.1145
22.2134
22.2641
22.2684
22.2499
22.2109
22.163
22.1138
22.0622
22.0185
21.981
21.9577
21.9425
21.9374
21.933
21.929
21.9272
21.9314
21.9378
21.9458
21.9522
21.9588
21.9751
21.9983
22.0355
22.0756
22.1246
22.1651
22.2092
22.2328
22.2445
22.215
22.1546
22.0212
21.8297
21.5224
21.1297
22.839
23.1819
23.5577
23.7949
24.0267
24.1715
24.3061
24.3902
24.4778
24.5424
24.6212
24.6985
24.7984
24.9113
25.0474
25.1939
25.3457
25.4833
25.5914
25.6531
25.6551
25.5932
25.4839
25.3452
25.1933
25.0473
24.9114
24.7985
24.6969
24.6168
24.5328
24.4628
24.3657
24.2728
24.1226
23.9654
23.7137
23.4611
23.0631
22.7042
24.371
24.7556
25.229
25.5131
25.8279
26.0275
26.2467
26.4081
26.5929
26.7596
26.9578
27.166
27.412
27.6824
27.9849
28.3009
28.6158
28.8987
29.1178
29.2383
29.2366
29.109
28.8832
28.5957
28.2785
27.962
27.6596
27.3894
27.1428
26.9331
26.7316
26.5604
26.3686
26.1986
25.9686
25.7563
25.4258
25.1264
24.6355
24.2375
25.7211
26.1405
26.6901
27.0157
27.3984
27.6521
27.9466
28.1825
28.4572
28.7205
29.0268
29.3524
29.724
30.1263
30.5618
31.0072
31.4401
31.8215
32.1103
32.2642
32.2597
32.0942
31.7949
31.4058
30.9682
30.5205
30.0843
29.682
29.3099
28.9833
28.6745
28.4073
28.1271
27.8836
27.5799
27.3144
26.918
26.5786
26.0132
25.5833
26.7725
27.2438
27.8782
28.261
28.7146
29.0309
29.3979
29.7093
30.0659
30.417
30.8153
31.2374
31.7063
32.205
32.7312
33.2588
33.7598
34.1924
34.5128
34.679
34.6729
34.4928
34.1597
33.7173
33.2098
32.6783
32.1502
31.6503
31.1807
30.7572
30.3568
30.0022
29.6409
29.3228
28.9476
28.6209
28.1543
27.7586
27.1098
26.6299
27.511
28.0683
28.7993
29.2607
29.7915
30.1791
30.6162
31.0006
31.429
31.8548
32.3253
32.8189
33.3532
33.9109
34.4855
35.0496
35.5738
36.0176
36.3396
36.5024
36.4958
36.3184
35.9832
35.5287
34.9966
34.4273
33.8495
33.2897
32.7538
32.2585
31.7857
31.3567
30.924
30.5337
30.0891
29.6921
29.1488
28.6756
27.931
27.3672
27.9631
28.6219
29.4706
30.0252
30.6453
31.1104
31.6169
32.0685
32.5582
33.0434
33.5659
34.1056
34.6758
35.2586
35.8451
36.409
36.922
37.3478
37.6509
37.8005
37.7943
37.6307
37.3148
36.8783
36.357
35.7872
35.1964
34.6106
34.0381
33.4962
32.9712
32.483
31.9891
31.532
31.0186
30.5447
29.9133
29.3482
28.4862
27.8236
28.1345
28.9319
29.8997
30.5712
31.2852
31.8391
32.4121
32.9276
33.4676
33.9982
34.5545
35.1189
35.7002
36.2823
36.8546
37.3934
37.8735
38.2645
38.5379
38.67
38.6645
38.5201
38.2352
37.8343
37.3461
36.8012
36.2242
35.6387
35.0544
34.4875
33.9286
33.3948
32.8509
32.3305
31.751
31.189
30.4648
29.7832
28.8039
28.0028
28.0964
29.0045
30.1161
30.904
31.7304
32.3768
33.0216
33.5952
34.1802
34.7448
35.3222
35.8956
36.4724
37.0373
37.5803
38.0811
38.5188
38.8691
39.11
39.2241
39.2195
39.0954
38.8447
38.4859
38.0411
37.5345
36.9869
36.4185
35.8387
35.2625
34.6825
34.1147
33.526
32.9476
32.2965
31.6425
30.8069
30.0108
28.8893
27.9811
27.9198
28.9085
30.1512
31.0563
31.9952
32.742
33.4658
34.0994
34.7275
35.3221
35.9147
36.4905
37.0561
37.5978
38.1074
38.568
38.9634
39.2747
39.4858
39.5843
39.5809
39.4746
39.256
38.9378
38.5366
38.0712
37.5576
37.0126
36.4443
35.8658
35.2705
34.6729
34.0412
33.403
32.6734
31.9199
30.9738
30.0615
28.8135
27.8238
27.7143
28.7416
30.0661
31.076
32.1204
32.9686
33.7769
34.4747
35.15
35.777
36.3875
36.9679
37.5249
38.0473
38.5285
38.9554
39.3157
39.5956
39.7834
39.8704
39.8679
39.7755
39.5823
39.2975
38.933
38.5023
38.018
37.4931
36.9336
36.3509
35.738
35.1081
34.4294
33.7277
32.9143
32.0609
31.0104
29.9981
28.6682
27.6536
27.6786
28.6272
29.9593
31.0321
32.1528
33.0963
33.9871
34.7587
35.4861
36.1553
36.7914
37.3863
37.9448
38.459
38.9238
39.3294
39.6667
39.9261
40.099
40.1797
40.178
40.0941
39.9177
39.6554
39.3154
38.9073
38.4406
37.9245
37.3642
36.7674
36.1294
35.4577
34.7275
33.9524
33.0583
32.1117
30.9876
29.9171
28.5797
27.657
27.8998
28.7035
29.9395
31.0218
32.1721
33.1856
34.1444
34.989
35.7731
36.4914
37.1629
37.7834
38.3563
38.8761
39.3389
39.7375
40.0655
40.3159
40.483
40.5628
40.5618
40.4806
40.3121
40.0605
39.7314
39.3318
38.8682
38.3476
37.7737
37.152
36.4794
35.7595
34.9737
34.1271
33.1667
32.1522
31.0019
29.9219
28.6901
27.8937
28.3815
28.987
30.0876
31.1188
32.2586
33.3037
34.3077
35.2091
36.0448
36.8109
37.5217
38.1743
38.7705
39.3061
39.7782
40.1815
40.5111
40.762
40.9303
41.0137
41.0131
40.9303
40.7626
40.5123
40.1833
39.7807
39.3092
38.774
38.1781
37.5257
36.8147
36.0483
35.2121
34.3105
33.3067
32.2623
31.1246
30.0958
28.9991
28.3947
28.9489
29.419
30.4006
31.3642
32.4675
33.5119
34.5332
35.4667
36.338
37.1406
37.8844
38.5656
39.1849
39.7388
40.2243
40.6372
40.9737
41.2301
41.4035
41.4929
41.4927
41.4061
41.2353
40.9816
40.6477
40.2373
39.7542
39.2025
38.5848
37.9052
37.1628
36.3613
35.4911
34.5589
33.5392
32.4965
31.3952
30.4329
29.4521
28.9774
29.4996
29.9209
30.8389
31.7505
32.816
33.8419
34.8584
35.7992
36.6854
37.5064
38.2685
38.9669
39.6011
40.1672
40.6623
41.0827
41.4254
41.6872
41.866
41.9615
41.9618
41.8713
41.6975
41.4405
41.1027
40.6867
40.1958
39.6336
39.0029
38.3076
37.5481
36.7296
35.8457
34.9073
33.893
32.8695
31.805
30.8942
29.9735
29.5473
30.0197
30.4402
31.3418
32.2243
33.2633
34.2668
35.2675
36.1991
37.0833
37.906
38.6715
39.3735
40.0109
40.5798
41.077
41.4994
41.8438
42.1078
42.2897
42.3896
42.3904
42.2978
42.1231
41.8661
41.5284
41.1126
40.6213
40.058
39.4256
38.7279
37.9664
37.1469
36.2656
35.3368
34.3382
33.3357
32.2962
31.4123
30.5062
30.0792
30.4624
30.8991
31.8044
32.6748
33.6983
34.6837
35.6681
36.5873
37.4625
38.2785
39.0382
39.735
40.3676
40.9319
41.425
41.844
42.186
42.4487
42.6309
42.7325
42.734
42.6413
42.4682
42.2143
41.8808
41.4699
40.9841
40.4266
39.8002
39.1087
38.3536
37.5414
36.6693
35.7528
34.7706
33.7867
32.7632
31.8917
30.9826
30.5391
30.74
31.1975
32.1062
32.9724
33.9848
34.9563
35.926
36.8337
37.6991
38.5064
39.2578
39.9471
40.5724
41.1299
41.617
42.0307
42.3685
42.6282
42.8085
42.9096
42.9117
42.8209
42.651
42.4016
42.0736
41.6692
41.1905
40.6408
40.0225
39.3394
38.5931
37.7903
36.9284
36.0237
35.0563
34.0867
33.074
32.2069
31.293
30.8283
30.7291
31.2048
32.1095
32.9737
33.9766
34.9388
35.898
36.7978
37.6565
38.4578
39.204
39.8883
40.5088
41.062
41.545
41.9549
42.2893
42.5461
42.7237
42.8224
42.8249
42.7372
42.5705
42.3245
42.0002
41.5998
41.1256
40.5803
39.9667
39.2884
38.5473
37.7499
36.8943
35.9968
35.0394
34.0781
33.0747
32.2081
31.2994
30.815
30.4216
30.9138
31.7965
32.6581
33.6478
34.6037
35.5551
36.4514
37.3071
38.1073
38.8527
39.5367
40.1571
40.7103
41.1929
41.6024
41.9359
42.1911
42.3665
42.4615
42.4649
42.3811
42.2171
41.9729
41.65
41.2505
40.7769
40.232
39.6188
38.941
38.2008
37.4048
36.552
35.6581
34.7084
33.7532
32.762
31.8978
31.0085
30.5077
30.0749
30.5749
31.4392
32.2961
33.2748
34.2249
35.1702
36.0638
36.9181
37.7182
38.4641
39.1492
39.771
40.3253
40.8092
41.2193
41.5528
41.8073
41.981
42.0728
42.0766
41.9961
41.8338
41.5902
41.2671
40.8669
40.392
39.8457
39.2311
38.5521
37.8112
37.0151
36.1638
35.2722
34.3283
33.3786
32.3976
31.5376
30.6648
30.1572
64.7934
50.3446
54.3423
62.657
69.065
74.1657
78.2712
81.7197
84.796
87.5816
90.2132
92.7504
95.267
97.8779
100.622
103.54
106.629
109.871
113.232
116.649
120.016
123.164
125.783
127.382
66.2944
50.1177
52.8723
60.9823
67.3464
72.4266
76.5091
79.9773
82.995
85.7573
88.3095
90.7462
93.1878
95.6917
98.3456
101.159
104.137
107.266
110.51
113.808
117.059
120.1
122.63
124.173
60.1218
49.7207
51.5279
59.3528
65.6283
70.6654
74.7799
78.2174
81.2646
83.9374
86.4234
88.803
91.1381
93.5629
96.106
98.8152
101.689
104.705
107.833
111.014
114.151
117.086
119.528
121.017
78.0561
49.3009
49.9966
57.592
63.8583
68.9322
73.0343
76.5359
79.5111
82.1855
84.6121
86.8875
89.1637
91.4828
93.9474
96.5597
99.3248
102.233
105.247
108.314
111.338
114.169
116.525
117.96
72.2134
49.1857
48.6561
55.9292
62.1292
67.1547
71.3422
74.7988
77.845
80.4463
82.8105
85.0595
87.2325
89.4905
91.848
94.3629
97.0332
99.8357
102.742
105.698
108.615
111.346
113.62
115.003
61.5007
48.2758
47.0816
54.0488
60.2655
65.4112
69.5771
73.1593
76.1192
78.7565
81.1016
83.2451
85.385
87.5414
89.8388
92.2699
94.8393
97.5421
100.343
103.192
106.003
108.636
110.83
112.161
75.7698
48.1779
45.7629
52.3155
58.5083
63.5633
67.8852
71.3891
74.4816
77.0658
79.3581
81.5222
83.5654
85.6863
87.8811
90.2216
92.7086
95.3145
98.0154
100.762
103.473
106.014
108.131
109.414
65.2802
47.407
44.0608
50.2189
56.4277
61.7464
66.0169
69.7471
72.7377
75.3875
77.7218
79.7815
81.8289
83.8526
86.0108
88.2848
90.6778
93.1932
95.7964
98.443
101.055
103.505
105.546
106.781
75.3763
47.7086
42.7137
48.2964
54.5812
59.7144
64.2684
67.8613
71.073
73.7045
75.9792
78.1258
80.0875
82.1119
84.1725
86.361
88.6856
91.1121
93.623
96.1744
98.6939
101.058
103.03
104.219
63.1177
45.8606
40.8514
45.8067
52.025
57.7068
62.147
66.1495
69.2441
71.974
74.3719
76.4019
78.4146
80.346
82.4014
84.5472
86.7832
89.1277
91.5467
94.0032
96.4289
98.7081
100.608
101.75
58.9681
45.26
39.0613
43.4087
49.9668
55.2561
60.2547
64.0155
67.466
70.2395
72.558
74.7606
76.6899
78.6692
80.6289
82.6888
84.8721
87.1338
89.4667
91.8333
94.1719
96.3697
98.2037
99.3014
64.0857
44.4987
37.1222
40.1864
46.3669
52.8635
57.6021
62.1253
65.4474
68.3629
70.9307
72.9897
75.0316
76.9111
78.9026
80.9514
83.0486
85.2364
87.4818
89.757
92.0036
94.119
95.8838
96.9357
61.1717
43.7158
34.7475
36.7062
43.8877
49.4349
55.4023
59.4992
63.4201
66.4886
68.9386
71.3025
73.2586
75.2535
77.1469
79.101
81.1648
83.2754
85.44
87.629
89.7928
91.8302
93.5327
94.5409
55.2815
41.6222
32.4444
31.8488
37.6256
46.2999
51.62
57.2474
61.0255
64.3175
67.2282
69.3944
71.5559
73.432
75.4093
77.3996
79.376
81.4206
83.5006
85.6006
87.6728
89.6296
91.2626
92.2261
55.6405
41.301
28.5783
25.487
34.3585
40.1376
48.7457
53.5632
58.5072
62.1611
64.8841
67.5778
69.6404
71.7364
73.6054
75.4776
77.4471
79.4189
81.4222
83.4383
85.4313
87.3122
88.8863
89.8065
41.1761
37.1946
26.8457
11.1938
16.0124
35.3289
41.9807
50.6062
55.3357
59.4251
63.0065
65.393
67.8128
69.7454
71.7761
73.7588
75.6322
77.5459
79.4655
81.3922
83.2911
85.0908
86.5944
87.4692
13.891
22.4828
13.4882
16.8873
8.47454
16.2889
37.7807
44.1234
51.8237
56.7176
59.9883
63.3254
65.6073
67.9341
69.8299
71.6438
73.5489
75.3917
77.2366
79.0793
80.9013
82.6255
84.0734
84.9039
4.96912
9.28115
8.19299
16.6157
17.6352
18.9452
10.7973
39.5721
46.6835
52.8055
57.8185
60.6144
63.5383
65.605
67.7887
69.8359
71.6228
73.4156
75.1742
76.9235
78.644
80.284
81.6562
82.4394
11.3892
3.82952
8.92888
8.89989
8.21008
6.11642
9.07933
19.316
40.9806
48.9752
53.4139
58.1001
60.7832
63.5668
65.5552
67.3316
69.2088
70.9284
72.6113
74.2727
75.9174
77.4799
78.8
79.5368
9.79368
4.13876
16.3877
18.9518
21.0034
20.9981
21.1832
22.2173
26.9776
41.7348
50.6979
54.3142
58.2848
60.5984
63.1064
65.333
67.0501
68.7284
70.3169
71.8763
73.4042
74.876
76.1101
76.7955
6.686
16.6535
17.9711
15.877
20.1503
25.4194
15.4181
22.0732
8.0541
35.5455
42.9303
51.0119
54.4331
58.1619
60.3366
62.0933
63.9931
65.5901
67.0978
68.5592
70.0133
71.4025
72.5913
73.2256
12.0717
20.9511
25.6678
27.5926
22.5357
21.9495
21.7598
25.9348
14.0526
26.3971
38.9472
44.5224
51.1608
53.9071
57.1164
59.747
61.419
62.9871
64.385
65.7305
67.0386
68.3272
69.4111
69.9876
11.6843
19.8277
25.7036
29.5027
31.8098
27.138
14.7926
18.1386
25.866
9.17955
13.4125
39.8164
44.6965
50.7929
53.3129
55.042
57.0642
58.5366
59.8432
61.0717
62.3153
63.5167
64.5738
65.0915
11.3062
17.2856
24.0329
29.3234
32.0421
33.3089
28.4133
16.3642
17.742
19.2516
15.5732
21.5714
39.9784
43.4088
48.4222
52.1124
53.773
55.2459
56.4142
57.5075
58.553
59.6355
60.5567
61.0092
9.30069
14.5717
21.1705
26.2318
30.4916
32.6995
33.4722
27.0733
29.8776
17.2887
25.3029
10.2426
22.9619
39.1997
42.4716
43.7909
46.3197
47.6613
48.737
49.6727
50.6784
51.7064
52.6542
53.032
6.9947
14.0304
19.5331
24.3859
28.1926
31.2909
32.7001
33.3758
24.4885
0.58082
20.4475
24.8666
11.6792
17.6711
32.182
40.2491
41.6938
43.2424
44.0023
44.8651
45.6017
46.4242
47.211
47.5269
7.30134
11.9517
16.1238
20.496
24.7619
28.241
31.0502
32.0257
33.1084
15.5425
30.8444
18.4758
25.4094
18.218
15.394
12.2005
22.4562
22.8693
24.7605
23.8708
24.9898
25.8959
27.4596
27.6467
3.68425
11.7636
13.9798
16.9947
20.5077
24.261
27.5736
30.5587
31.0941
32.3267
28.6109
25.7873
20.2899
5.70205
19.472
17.7203
27.1518
10.4581
29.0679
23.4329
11.8902
25.02
13.9992
14.2255
5.69314
11.7733
12.2751
13.6614
16.261
19.5585
23.4036
26.8213
30.1008
30.1617
26.3424
19.784
20.3903
26.7008
10.8833
10.5331
26.5802
20.8126
7.30898
29.8485
22.4088
32.5681
23.241
23.5097
3.52623
12.3969
12.0794
12.9327
14.0651
16.0021
18.9471
22.8901
26.2851
29.6372
30.4819
18.3451
6.7606
21.2354
8.69673
26.9562
29.2105
23.3753
24.4563
30.6342
26.5045
25.1833
25.3055
24.9553
4.01885
12.08
11.8547
12.697
13.645
14.5214
16.0251
18.6171
22.6751
26.0983
28.7292
30.6463
12.3431
16.4188
19.3925
28.5597
27.0845
9.52957
27.9548
19.6058
23.365
19.5282
8.82108
34.7522
3.55846
11.3471
12.103
13.1707
14.107
14.9014
15.457
16.4129
18.5893
22.7598
26.7032
28.5213
30.5291
14.5126
16.6713
29.6036
21.4702
23.3687
20.4932
12.239
26.3359
28.0559
27.399
27.0279
3.58314
11.7269
12.4237
13.6051
14.5297
15.2713
15.9688
16.2946
16.904
18.926
23.0095
27.5453
28.9698
31.0596
23.9921
18.7827
13.8394
13.9731
15.7127
16.8341
17.0783
15.3541
14.0159
12.3968
3.59284
11.4698
13.0946
14.5276
15.4721
16.1715
16.6246
16.9891
17.06
17.5387
19.8804
23.7801
28.235
29.1902
30.52
30.8429
31.0722
31.1372
31.1262
31.23
31.2289
31.3467
31.4273
31.4771
3.78734
11.7076
13.9847
15.519
16.4481
17.1702
17.7086
17.88
17.9592
17.8832
18.2846
21.1077
24.9195
28.7584
29.4391
29.2823
28.7676
28.3906
28.3128
28.2792
28.2052
27.9234
27.6343
27.3585
4.45319
12.2146
15.2588
16.7864
17.7299
18.4913
18.9819
19.2091
19.1073
19.0181
19.0348
19.4694
22.3402
25.583
28.2282
29.3449
29.5179
29.3124
29.1027
29.0367
29.0199
28.9603
28.909
28.7442
5.99566
14.0887
16.6819
18.0478
19.034
19.8896
20.4914
20.7214
20.6943
20.4102
20.2114
20.4708
21.2492
23.7887
26.0014
27.2136
27.4532
27.316
27.2399
27.2499
27.2363
27.0637
26.7493
26.4553
7.78568
15.4225
17.9727
19.3646
20.4647
21.4282
22.1009
22.4498
22.4565
22.2731
21.9542
21.7228
22.1028
23.0991
25.0064
26.5272
27.2534
27.502
27.6379
27.7863
27.8891
27.83
27.6378
27.3814
9.86105
16.9381
19.2868
20.6604
21.8834
22.9792
23.7872
24.2462
24.4028
24.2615
23.9895
23.7546
23.6951
24.1948
25.1065
26.1983
26.9502
27.3868
27.7247
28.0102
28.1773
28.1097
27.805
27.4826
11.4769
18.1997
20.4642
21.9354
23.3292
24.5609
25.4881
26.0959
26.3861
26.4203
26.2212
25.9255
25.7696
25.8989
26.4843
27.2874
28.0225
28.5856
29.047
29.4284
29.6716
29.66
29.4038
29.0974
65.2868
64.3287
69.185
76.5596
75.3804
66.8361
55.5274
58.5663
50.6321
22.9921
34.0674
38.5784
11.123
13.2709
18.5666
14.0222
14.7114
14.3065
13.844
13.7051
13.709
13.7939
14.6519
13.1398
17.8874
11.5075
21.9237
15.2067
23.7601
46.631
58.0769
64.8529
56.3744
58.0496
58.4904
63.501
58.5377
74.1247
69.1102
71.2697
50.3246
47.9056
47.3449
45.045
44.0157
41.4957
40.4114
37.8188
36.5253
35.1345
34.7584
33.3022
33.4301
32.6469
31.9547
31.721
31.2342
30.9596
30.7625
30.6411
30.641
30.7685
30.9266
31.3581
31.4508
32.3457
32.2976
33.4713
33.5811
34.7532
35.6389
37.2906
38.0737
40.4295
41.3007
43.5221
45.0156
47.1363
48.1233
50.8375
54.8415
53.2803
52.7767
51.2856
50.6923
49.3371
48.7093
47.5726
46.9746
45.9587
45.2978
44.4835
43.8431
43.2638
42.799
42.3149
41.9972
41.722
41.5346
41.4308
41.4311
41.5334
41.7318
41.9723
42.3646
42.7504
43.2864
43.878
44.4861
45.2565
45.9067
46.9295
47.5777
48.7401
49.3673
50.7064
51.2893
52.7789
53.2714
54.8547
63.282
61.7581
61.2087
59.7463
59.0733
57.7324
57.0006
55.817
55.0947
54.1186
53.4257
52.6121
52.011
51.3944
50.8928
50.4632
50.108
49.8399
49.6546
49.5516
49.5517
49.6556
49.8382
50.1165
50.4527
50.9064
51.3922
52.0166
52.619
53.4162
54.1111
55.104
55.8278
57.0053
57.7332
59.0716
59.7496
61.2107
61.7642
63.2854
69.6894
68.1121
67.4847
65.9982
65.2541
63.9151
63.1186
61.9576
61.1646
60.1924
59.4469
58.6536
58.0028
57.3899
56.8766
56.4278
56.0753
55.8007
55.6129
55.5108
55.5109
55.6131
55.8028
56.0733
56.4339
56.8754
57.3922
58.0075
58.6555
59.4443
60.1907
61.1665
61.9622
63.1247
63.9208
65.2598
66.0046
67.4905
68.1197
69.6948
74.7683
73.1575
72.4513
70.9586
70.1405
68.8133
67.9496
66.8043
65.9581
64.9948
64.2168
63.4238
62.7586
62.1363
61.6128
61.1632
60.8007
60.5242
60.3346
60.2323
60.2324
60.3352
60.5243
60.8032
61.163
61.6156
62.1383
62.761
63.4258
64.2172
64.996
65.9619
66.8089
67.9546
68.8173
70.1451
70.9633
72.4566
73.1646
74.7735
78.8273
77.1983
76.4191
74.9305
74.0519
72.7392
71.8287
70.6945
69.8156
68.8544
68.0577
67.2641
66.5873
65.9623
65.4324
64.9777
64.6133
64.3336
64.1425
64.04
64.0401
64.1428
64.3347
64.6137
64.9798
65.4336
65.9641
66.5893
67.2661
68.0595
68.8568
69.8187
70.6983
71.833
72.7433
74.0574
74.9353
76.4259
77.204
78.8344
82.262
80.6075
79.7807
78.2931
77.372
76.0656
75.1232
73.9914
73.0909
72.1272
71.3162
70.5181
69.8318
69.2014
68.6649
68.2062
67.8363
67.5533
67.3595
67.2549
67.255
67.3599
67.5538
67.8375
68.2072
68.6665
69.2032
69.8337
70.5202
71.3184
72.1297
73.094
73.9951
75.1271
76.07
77.3766
78.298
79.7867
80.613
82.2692
85.3024
83.6368
82.7663
81.2762
80.3243
79.0147
78.0508
76.9134
75.9969
75.0263
74.2027
73.3978
72.7014
72.0644
71.5202
71.0554
70.6799
70.3919
70.1939
70.0861
70.0862
70.1942
70.3926
70.6807
71.0566
71.5216
72.066
72.7033
73.3999
74.205
75.0289
76
76.9168
78.0546
79.019
80.3286
81.2815
82.7713
83.6434
85.3076
88.1331
86.4027
85.5342
84.0087
83.0485
81.7186
80.7414
79.5908
78.6593
77.6785
76.8411
76.0269
75.3191
74.6735
74.1205
73.6483
73.2658
72.9719
72.7688
72.6566
72.6568
72.7692
72.9725
73.2666
73.6493
74.1218
74.6751
75.321
76.0289
76.8434
77.681
78.6623
79.5939
80.7452
81.7224
83.0531
84.0132
85.5398
86.4081
88.1391
90.792
89.0172
88.1343
86.5852
85.6045
84.26
83.2616
82.0989
81.1487
80.1561
79.3031
78.4776
77.7573
77.1014
76.5385
76.0577
75.6676
75.3671
75.1582
75.041
75.0411
75.1585
75.3676
75.6683
76.0587
76.5398
77.1029
77.759
78.4795
79.3054
80.1586
81.1515
82.102
83.2651
84.2636
85.6088
86.5895
88.1396
89.0222
90.798
93.363
91.5358
90.6491
89.0647
88.0726
86.7029
85.6898
84.5075
83.5418
82.5331
81.6657
80.8266
80.0937
79.4267
78.8534
78.3636
77.9655
77.6582
77.4434
77.3208
77.321
77.4437
77.6587
77.9662
78.3646
78.8546
79.4281
80.0953
80.8285
81.6678
82.5355
83.5445
84.5104
85.6931
86.7064
88.0767
89.0688
90.654
91.5407
93.3683
95.9432
94.0432
93.1678
91.5375
90.5397
89.1406
88.1133
86.9104
85.9281
84.9032
84.0199
83.1673
82.4209
81.7427
81.1586
80.6597
80.2536
79.9394
79.7187
79.5909
79.591
79.719
79.9398
80.2542
80.6606
81.1597
81.744
82.4224
83.169
84.0218
84.9054
85.9306
86.9131
88.1164
89.1439
90.5434
91.5414
93.1723
94.0479
95.9479
98.5998
96.6413
95.7649
94.0961
93.0849
91.6596
90.6137
89.3906
88.3894
87.3476
86.4473
85.5801
84.8197
84.1292
83.534
83.0256
82.6111
82.2901
82.0635
81.9305
81.9306
82.0637
82.2904
82.6117
83.0263
83.5349
84.1304
84.8211
85.5818
86.4491
87.3495
88.3917
89.3931
90.6166
91.6625
93.0884
94.0996
95.7692
96.6453
98.6044
101.408
99.375
98.506
96.7889
95.7675
94.3096
93.2462
91.9988
90.9779
89.9162
88.9978
88.1148
87.3389
86.6351
86.0275
85.5089
85.086
84.7577
84.5249
84.3869
84.3871
84.5254
84.7577
85.0864
85.5097
86.0283
86.636
87.3402
88.1161
88.9996
89.9184
90.9797
92.0006
93.2485
94.3124
95.7708
96.7917
98.5098
99.3784
101.412
104.384
102.279
101.41
99.6462
98.6078
97.1181
96.0314
94.7593
93.7153
92.633
91.6939
90.793
90.0001
89.2816
88.6612
88.1314
87.6986
87.3628
87.1242
86.9809
86.9813
87.1242
87.3632
87.699
88.1319
88.6616
89.2825
90.0009
90.7943
91.6956
92.6347
93.717
94.7611
96.0336
97.1204
98.6105
99.6485
101.413
102.282
104.387
107.531
105.353
104.48
102.667
101.61
100.085
98.9734
97.6739
96.6046
95.499
94.5376
93.6169
92.8053
92.0711
91.4361
90.8945
90.4515
90.1075
89.8625
89.7143
89.7147
89.8629
90.1079
90.4519
90.8949
91.4365
92.0719
92.8061
93.6182
94.5389
95.5003
96.6059
97.6751
98.9752
100.087
101.612
102.669
104.483
105.355
107.534
110.835
108.579
107.701
105.838
104.758
103.197
102.058
100.729
99.633
98.5029
97.5168
96.5754
95.7439
94.9925
94.3421
93.7875
93.3339
92.9813
92.7301
92.5767
92.5771
92.7301
92.9817
93.3343
93.7879
94.3425
94.9929
95.7443
96.5762
97.518
98.5037
99.6338
100.731
102.059
103.199
104.76
105.839
107.703
108.581
110.837
114.258
111.924
111.039
109.125
108.02
106.423
105.254
103.895
102.769
101.613
100.602
99.6383
98.7856
98.0162
97.3497
96.7816
96.3169
95.9558
95.6975
95.5395
95.5395
95.6975
95.9558
96.3173
96.782
97.3501
98.0166
98.7859
99.6387
100.602
101.614
102.77
103.896
105.254
106.424
108.021
109.126
111.04
111.925
114.26
117.738
115.326
114.431
112.467
111.336
109.702
108.501
107.112
105.957
104.775
103.737
102.751
101.876
101.089
100.406
99.8235
99.3476
98.9771
98.7121
98.5494
98.5497
98.7121
98.9771
99.3476
99.8235
100.406
101.089
101.877
102.751
103.738
104.775
105.957
107.113
108.502
109.702
111.337
112.467