/*--------------------------------*- C++ -*----------------------------------*\
  =========                 |
  \\      /  F ield         | OpenFOAM: The Open Source CFD Toolbox
   \\    /   O peration     | Website:  https://openfoam.org
    \\  /    A nd           | Version:  6
     \\/     M anipulation  |
\*---------------------------------------------------------------------------*/
FoamFile
{
    version     2.0;
    format      ascii;
    class       volScalarField;
    location    "10";
    object      yPlus;
}
// * * * * * * * * * * * * * * * * * * * * * * * * * * * * * * * * * * * * * //

dimensions      [0 0 0 0 0 0 0];

internalField   uniform 0;

boundaryField
{
    inlet
    {
        type            calculated;
        value           uniform 0;
    }
    outlet
    {
        type            calculated;
        value           uniform 0;
    }
    roughCylinder
    {
        type            calculated;
        value           nonuniform List<scalar> 
5120
(
42.7296
50.4996
56.6736
62.6853
67.8269
71.9701
75.2766
77.941
80.1183
81.9452
83.541
84.9709
86.2734
87.4802
88.6211
89.7258
90.8241
91.9425
93.1035
94.3229
95.609
96.9635
98.3833
99.8609
101.387
102.947
104.526
106.101
107.63
109.049
110.206
110.894
42.055
49.5403
55.5178
61.3932
66.4637
70.5719
73.8593
76.5149
78.692
80.5256
82.1284
83.5606
84.8534
86.0451
87.1675
88.2509
89.3255
90.4194
91.5549
92.7472
94.0049
95.3299
96.7186
98.1637
99.6553
101.18
102.723
104.26
105.753
107.138
108.266
108.937
41.2829
48.5257
54.3222
60.0653
65.0679
69.1477
72.4252
75.0824
77.2707
79.1205
80.7358
82.1715
83.458
84.6383
85.7441
86.8075
87.8606
88.9309
90.0408
91.2068
92.4369
93.7326
95.0906
96.5034
97.9612
99.4512
100.958
102.458
103.915
105.266
106.364
107.018
40.5178
47.5232
53.1341
58.7372
63.6678
67.7193
70.9899
73.6545
75.862
77.735
79.3669
80.8094
82.0959
83.266
84.3575
85.4037
86.436
87.484
88.571
89.7118
90.915
92.1825
93.5106
94.892
96.3162
97.7715
99.2421
100.706
102.127
103.444
104.513
105.151
39.6684
46.4568
51.8855
57.35
62.215
66.2511
69.5313
72.2194
74.4583
76.3619
78.0155
79.4695
80.7602
81.9255
83.0068
84.0375
85.0526
86.0808
87.1447
88.2617
89.4398
90.68
91.9794
93.3301
94.7223
96.144
97.5798
99.0083
100.394
101.677
102.718
103.34
38.8532
45.417
50.6522
55.9671
60.7619
64.7843
68.0771
70.791
73.0637
75.0012
76.6798
78.1497
79.4495
80.6164
81.6905
82.7103
83.7093
84.7188
85.7639
86.8589
88.0125
89.2272
90.4986
91.8197
93.1803
94.5686
95.9694
97.3621
98.7135
99.9648
100.978
101.583
37.9347
44.2894
49.3292
54.4918
59.222
63.2466
66.5744
69.3363
71.6589
73.6389
75.3495
76.8417
78.1557
79.3312
80.4052
81.4169
82.4048
83.4001
84.4256
85.5
86.6317
87.8215
89.0664
90.3588
91.6889
93.0451
94.4125
95.7723
97.0895
98.3087
99.2934
99.8836
37.0665
43.1985
48.028
53.0233
57.6816
61.7095
65.0744
67.8823
70.2524
72.2775
74.0245
75.5444
76.8801
78.0686
79.149
80.1591
81.1385
82.1203
83.1323
84.189
85.2992
86.4661
87.6853
88.9499
90.2498
91.574
92.9074
94.2321
95.5159
96.7045
97.662
98.2371
36.0496
41.972
46.5832
51.4009
55.9866
60.0336
63.4657
66.3555
68.8036
70.891
72.6868
74.2445
75.6071
76.8172
77.9108
78.9267
79.904
80.8803
81.8775
82.9176
84.0097
85.1544
86.3493
87.5867
88.8576
90.1508
91.4526
92.7452
93.9959
95.153
96.0828
96.6437
35.0927
40.7874
45.1654
49.7852
54.2852
58.3511
61.8526
64.8178
67.3339
69.486
71.3365
72.9386
74.3409
75.5783
76.6906
77.7171
78.6988
79.6702
80.6616
81.6896
82.7637
83.8885
85.0596
86.2707
87.5121
88.7734
90.0408
91.298
92.5154
93.644
94.5454
95.0916
33.8906
39.3747
43.5066
47.9059
52.305
56.3984
60.0085
63.1122
65.7614
68.0155
69.9452
71.6105
73.0559
74.3314
75.4728
76.5186
77.5094
78.4864
79.4705
80.4874
81.5482
82.6534
83.802
84.9866
86.199
87.4291
88.6647
89.8902
91.0761
92.1719
93.0456
93.5783
32.737
38.0091
41.884
46.0401
50.3175
54.4343
58.1564
61.3843
64.1376
66.4943
68.5114
70.2456
71.7589
73.0824
74.2584
75.3291
76.3377
77.318
78.3056
79.318
80.3648
81.4534
82.5799
83.739
84.9221
86.1198
87.3202
88.5087
89.6588
90.7284
91.5729
92.0915
31.1907
36.2617
39.8446
43.7028
47.808
51.9338
55.8147
59.2834
62.2884
64.829
66.9847
68.8311
70.4125
71.7963
73.0233
74.132
75.1631
76.1629
77.1509
78.1573
79.1965
80.2687
81.3748
82.5085
83.6625
84.8288
85.9966
87.1535
88.276
89.3098
90.1249
90.6318
29.6913
34.5799
37.8843
41.4325
45.339
49.46
53.4969
57.1623
60.3259
63.0499
65.3617
67.3197
69.0177
70.4852
71.7704
72.9224
73.9898
75.0034
76.0073
77.0192
78.049
79.1084
80.1944
81.303
82.4274
83.5598
84.6905
85.8082
86.8897
87.9007
88.6836
89.1775
27.4598
32.1705
35.1184
38.2246
41.7895
45.824
50.0667
54.1743
57.8784
60.9619
63.5359
65.7108
67.5265
69.0905
70.4599
71.678
72.7854
73.8385
74.8529
75.8649
76.8944
77.941
79.0085
80.0924
81.1867
82.2865
83.3829
84.4682
85.5265
86.4964
87.2487
87.7319
25.2403
29.8747
32.5808
35.3244
38.5646
42.4937
46.9069
51.265
55.1311
58.5995
61.5011
63.8804
65.9123
67.6289
69.0986
70.3875
71.5592
72.6391
73.6864
74.7181
75.744
76.7825
77.8317
78.8899
79.9529
81.0157
82.0711
83.1133
84.1217
85.0722
85.7861
86.2578
21.2661
25.8749
28.1459
30.1556
32.6009
36.0845
40.6621
45.9991
51.3609
55.5639
59.0051
61.8485
64.1122
66.0026
67.6155
69.019
70.2561
71.4067
72.4779
73.5167
74.5519
75.5818
76.6141
77.6477
78.6781
79.7055
80.7231
81.7299
82.7223
83.6233
84.3049
84.7682
17.1846
22.2949
24.6658
26.5085
28.565
31.7803
36.677
41.8438
46.4143
51.7288
56.0088
59.3052
62.0259
64.215
66.0208
67.5457
68.8965
70.0914
71.2213
72.3013
73.3403
74.3673
75.383
76.3883
77.3837
78.3682
79.3373
80.2947
81.2221
82.1084
82.7378
83.1933
5.1114
11.5787
12.9266
11.2667
11.6405
13.5929
17.3564
28.3969
40.3096
46.3625
51.8596
56.2887
59.5309
62.1074
64.1788
65.9153
67.3754
68.6978
69.8723
70.968
72.0297
73.0534
74.0529
75.0325
75.9898
76.933
77.8581
78.7738
79.6964
80.519
81.1174
81.5647
5.21887
9.27739
9.59957
8.67214
12.9932
18.386
18.7559
12.3751
18.8221
37.9701
46.263
51.9547
56.3752
59.5714
62.0819
64.0599
65.7404
67.1347
68.4125
69.5863
70.6623
71.6899
72.6738
73.6192
74.5331
75.4225
76.2844
77.1394
77.9717
78.7862
79.3009
79.7515
11.4245
15.7032
16.7659
16.5092
12.5159
10.7926
8.66116
11.1245
11.3746
20.1585
37.5894
46.47
52.125
56.4445
59.4776
61.8827
63.7594
65.4054
66.7682
67.9702
69.0911
70.1231
71.0903
72.0057
72.8708
73.7071
74.5129
75.3153
76.1611
76.887
77.382
77.8195
18.7924
23.1849
24.9079
25.4011
24.6901
22.1884
19.4634
17.0975
20.4744
19.0785
19.3244
36.4907
46.2395
51.8352
56.1879
59.1896
61.5658
63.3322
64.8895
66.2432
67.3977
68.4439
69.3945
70.2635
71.067
71.827
72.5402
73.256
73.9702
74.6987
75.0316
75.5053
21.643
26.4913
29.0523
30.8265
31.6984
31.4321
29.6067
26.1735
21.3688
22.5074
16.396
16.357
36.1415
46.6808
51.8379
55.8041
58.5479
60.8946
62.6299
64.0373
65.2786
66.3438
67.2754
68.103
68.833
69.5168
70.1471
70.7933
71.5482
72.1424
72.5039
72.9399
22.3552
27.3522
30.182
32.4012
33.9798
34.8972
35.0838
34.3165
32.0528
27.2274
25.2814
21.4253
19.6073
34.4942
45.4431
51.054
55.2122
57.7238
59.873
61.6003
62.9144
64.0129
64.9223
65.6722
66.3005
66.8517
67.3236
67.8153
68.3795
68.9893
68.9714
69.5465
21.8813
27.005
30.0043
32.4729
34.3811
35.7277
36.5222
36.7594
36.308
34.5805
30.0585
28.735
16.9429
18.6607
35.3833
45.0125
49.5196
53.7098
56.2518
58.0847
59.5811
60.7312
61.6118
62.2876
62.777
63.2037
63.5403
63.9257
64.5532
64.9504
65.1735
65.5738
20.4662
25.7294
28.8372
31.466
33.5946
35.2301
36.4016
37.1518
37.507
37.3427
35.948
31.4911
27.0141
21.9837
18.5197
32.598
44.021
47.9394
51.6095
54.1967
55.8147
57.03
57.8649
58.3787
58.6493
58.7903
58.7327
58.8224
59.2413
59.6161
58.6877
59.6829
18.6014
23.9643
27.1131
29.8106
32.0524
33.8567
35.2606
36.3272
37.1342
37.721
37.9284
36.9372
32.8554
27.9898
11.0498
22.8392
29.1697
40.5117
44.7644
47.3629
49.4661
50.7851
51.638
51.8258
51.8355
51.6425
51.9561
51.2344
51.6959
51.8512
52.7835
52.0039
16.4409
21.807
24.9028
27.5702
29.8308
31.7251
33.3006
34.6221
35.7756
36.8359
37.7954
38.4153
37.9003
34.2725
26.603
28.2889
18.9597
25.3199
34.6748
41.0411
43.0326
44.6947
44.9132
45.0741
44.326
43.5426
39.5279
41.3467
40.9336
40.2225
36.8258
40.3326
14.2407
19.4691
22.404
24.9345
27.1145
29.0061
30.6713
32.1778
33.6057
35.0334
36.4819
37.839
38.7524
38.4081
34.3967
31.4298
18.7815
27.6562
29.6723
22.6695
25.5054
26.6035
31.0744
25.7639
23.3157
19.5899
33.8221
14.9737
31.725
32.719
30.2102
34.809
12.271
17.2363
19.93
22.2471
24.2736
26.0895
27.7661
29.3709
30.9721
32.6395
34.4156
36.2513
37.9428
39.0482
38.5768
34.0601
25.6427
21.4256
32.2332
26.3549
28.9754
24.3176
36.0824
16.6612
27.531
14.2446
36.7225
21.2652
40.1686
41.6781
37.5563
34.6953
10.7501
15.3747
17.8022
19.8785
21.7183
23.4144
25.0409
26.6595
28.3238
30.0861
31.998
34.0689
36.2037
38.1257
39.2882
38.7047
35.1694
27.5266
32.0293
25.7146
23.9797
21.9175
33.0561
22.3125
30.137
29.7383
35.5748
36.3984
36.8145
39.7674
34.1707
31.3253
9.62132
14.0028
16.1996
18.0673
19.7423
21.3204
22.8699
24.4396
26.0683
27.7958
29.6701
31.7368
33.9977
36.3185
38.3341
39.4544
39.0367
36.6872
30.886
28.4322
26.5668
23.6427
26.527
30.1356
32.7909
35.4704
36.6815
36.7235
38.0635
38.6344
34.486
41.6789
9.00186
13.1887
15.2186
16.9449
18.5121
20.007
21.4826
22.9712
24.4988
26.0974
27.8116
29.7005
31.819
34.1608
36.5484
38.5618
39.6235
39.5013
37.5039
35.8009
36.3116
36.2607
36.5927
39.5381
41.0842
41.9691
42.7056
41.2219
43.0422
42.9745
39.7711
45.1205
8.78984
12.8809
14.8302
16.4967
18.0228
19.4801
20.9029
22.3087
23.7144
25.1467
26.6471
28.2728
30.0934
32.1689
34.4821
36.8254
38.7381
39.7775
39.5957
39.1372
39.9167
40.2142
40.5647
41.9684
42.7621
42.9782
43.5391
41.9747
43.5419
43.2272
41.5099
45.0799
8.91856
12.991
14.9319
16.6058
18.145
19.6041
21.0007
22.3424
23.6417
24.9224
26.2198
27.5818
29.0703
30.7593
32.709
34.8905
37.0664
38.8211
39.7327
40.0416
40.8129
41.1993
41.3833
42.1763
42.6494
42.5738
42.9609
41.7185
42.8604
42.3978
41.8901
44.0839
9.29548
13.4021
15.3844
17.1138
18.7051
20.1965
21.5947
22.9015
24.1273
25.2941
26.4329
27.5812
28.7863
30.1095
31.6228
33.3782
35.3261
37.2359
38.7326
39.655
40.5204
40.9707
41.0713
41.4181
41.5712
41.2945
41.4834
40.5811
41.4248
41.0022
41.0842
42.4031
9.86687
14.0366
16.0858
17.8943
19.5578
21.0998
22.5195
23.8168
25.003
26.0999
27.1347
28.1362
29.1374
30.1814
31.3249
32.6311
34.1323
35.7633
37.3059
38.4981
39.459
39.9726
40.037
40.0884
40.0166
39.6261
39.7027
39.0991
39.7405
39.4564
39.8515
40.6336
10.5905
14.8429
16.9718
18.8692
20.6109
22.2092
23.6595
24.9633
26.1352
27.1987
28.1786
29.0963
29.9728
30.834
31.7171
32.6716
33.7451
34.9467
36.1944
37.3003
38.2035
38.7149
38.7781
38.6785
38.484
38.0805
38.1197
37.7945
38.2992
38.2091
38.7626
39.2508
11.4123
15.7747
17.9938
19.9841
21.8037
23.4576
24.9415
26.2612
27.436
28.492
29.4525
30.3338
31.1484
31.9091
32.6352
33.3582
34.1163
34.9374
35.8072
36.6327
37.3298
37.7418
37.7854
37.6198
37.3818
37.0285
37.0791
36.9829
37.4205
37.5195
38.1545
38.5091
12.2401
16.7932
19.1151
21.1991
23.0932
24.8
26.3182
27.6596
28.8487
29.914
30.8784
31.7545
32.5489
33.2663
33.9139
34.5075
35.0697
35.6244
36.1807
36.7048
37.1418
37.3873
37.3673
37.1602
36.9108
36.627
36.7048
36.781
37.2046
37.4646
38.1403
38.447
12.8176
13.1993
13.6661
14.0471
14.4263
14.7367
15.0128
15.2335
15.417
15.5544
15.6559
15.7191
15.7476
15.7432
15.7093
15.647
15.559
15.4504
15.3341
15.2478
15.295
15.4251
15.5634
15.6871
15.7875
15.8607
15.9049
15.9184
15.8969
15.8402
15.7436
15.6095
15.4272
15.2053
14.9259
14.6097
14.2231
13.832
13.3544
12.9609
17.4655
17.8659
18.3516
18.7504
19.1466
19.4768
19.7748
20.0198
20.2289
20.394
20.524
20.6171
20.6751
20.6985
20.6893
20.6476
20.5747
20.4744
20.3588
20.2697
20.3229
20.4609
20.5998
20.7159
20.8018
20.8547
20.8744
20.86
20.8088
20.7222
20.5968
20.4343
20.2259
19.9791
19.6772
19.3408
18.9368
18.5278
18.0317
17.6197
19.8461
20.2735
20.7886
21.2129
21.6367
21.9962
22.3276
22.6094
22.8585
23.0668
23.2421
23.3827
23.4893
23.5603
23.5961
23.596
23.5598
23.4898
23.3972
23.3219
23.3741
23.4992
23.6165
23.7036
23.7539
23.7666
23.7422
23.6809
23.5825
23.4495
23.2795
23.0745
22.8266
22.5435
22.2086
21.8431
21.4114
20.9768
20.451
20.0113
21.9738
22.4227
22.9606
23.4047
23.8521
24.2379
24.6003
24.917
25.2048
25.4559
25.6758
25.8632
26.018
26.1371
26.219
26.2619
26.2645
26.2285
26.165
26.1124
26.1586
26.2623
26.3525
26.4072
26.42
26.3911
26.3217
26.2136
26.0686
25.8902
25.6764
25.4299
25.1443
24.8271
24.462
24.0709
23.6161
23.162
22.6135
22.1519
23.8952
24.3507
24.897
25.3481
25.807
26.2076
26.5896
26.9304
27.246
27.53
27.7863
28.012
28.2066
28.3657
28.4864
28.5657
28.6018
28.5962
28.5601
28.5294
28.5692
28.6508
28.7156
28.7414
28.722
28.6575
28.5503
28.4034
28.22
28.0041
27.7554
27.4778
27.1653
26.8253
26.4416
26.0365
25.5708
25.1099
24.5532
24.0848
25.6154
26.0617
26.6031
27.0499
27.5094
27.9153
28.3081
28.6662
29.0045
29.3156
29.6026
29.8611
30.0893
30.2823
30.4362
30.5468
30.6115
30.6318
30.6186
30.6047
30.6397
30.7033
30.7463
30.747
30.6996
30.6043
30.4646
30.2845
30.0681
29.8203
29.5421
29.2384
28.9048
28.5493
28.1559
27.7462
27.2803
26.8243
26.2726
25.8134
27.1387
27.5648
28.0943
28.5315
28.9876
29.3967
29.7998
30.1747
30.5343
30.8706
31.1854
31.4735
31.7319
31.9549
32.1378
32.2754
32.3645
32.4062
32.4106
32.4081
32.4404
32.4909
32.5162
32.4959
32.4241
32.3019
32.1334
31.9235
31.6773
31.4002
31.0951
30.7666
30.4128
30.0415
29.6393
29.2276
28.7657
28.3198
27.78
27.3411
28.4827
28.8847
29.402
29.8307
30.2861
30.7025
31.1177
31.5103
31.8907
32.2508
32.5911
32.906
33.1912
33.4407
33.6486
33.8092
33.9185
33.9769
33.9943
33.9991
34.0298
34.0715
34.0834
34.0458
33.9536
33.8083
33.6145
33.3782
33.1052
32.8015
32.4709
32.1191
31.7449
31.3567
30.9429
30.5252
30.0653
29.6285
29.1008
28.686
29.6764
30.0556
30.5643
30.9894
31.4485
31.8745
32.3029
32.7126
33.1125
33.4942
33.8573
34.1955
34.504
34.7758
35.0046
35.1841
35.3094
35.3805
35.4066
35.4155
35.4455
35.4818
35.484
35.4332
35.3242
35.1597
34.9446
34.6856
34.3891
34.062
33.7088
33.3353
32.9419
32.5368
32.1104
31.6838
31.2209
30.7887
30.2697
29.8777
30.7489
31.1083
31.6121
32.0377
32.502
32.9381
33.3791
33.8043
34.2214
34.6218
35.0041
35.362
35.6897
35.9799
36.2255
36.4196
36.557
36.6371
36.6686
36.6795
36.7092
36.7426
36.7383
36.6775
36.5557
36.3757
36.1432
35.8654
35.5495
35.2025
34.8298
34.4377
34.0272
33.6066
33.1678
32.7314
32.2635
31.8318
31.3181
30.9463
31.7216
32.0624
32.5631
32.9899
33.4595
33.9048
34.3569
34.7956
35.2271
35.6431
36.0414
36.4152
36.758
37.0626
37.3212
37.5263
37.6727
37.759
37.7938
37.8054
37.8349
37.8668
37.8581
37.7899
37.6583
37.4663
37.2202
36.9275
36.5958
36.2325
35.8436
35.4358
35.0107
34.5767
34.1268
33.6815
33.2088
32.7761
32.2662
31.9134
32.6045
32.926
33.423
33.8505
34.3248
34.7781
35.2398
35.69
36.1337
36.5625
36.9736
37.3598
37.7146
38.0302
38.2984
38.5118
38.6647
38.7556
38.793
38.8054
38.8345
38.8646
38.8522
38.7783
38.6391
38.4381
38.1815
37.8771
37.5328
37.1566
36.7545
36.3336
35.8962
35.4507
34.9912
34.5379
34.0606
33.6274
33.1213
32.7884
33.4007
33.6998
34.1916
34.6191
35.0971
35.5578
36.028
36.4882
36.9422
37.3817
37.8031
38.1992
38.5632
38.887
39.1625
39.382
39.54
39.6352
39.6759
39.6902
39.7184
39.7452
39.7285
39.6494
39.5043
39.2961
39.0314
38.7179
38.3638
37.977
37.5641
37.1321
36.6841
36.2284
35.7604
35.2999
34.8187
34.3857
33.885
33.5747
34.1104
34.3825
34.8663
35.293
35.7744
36.2421
36.7202
37.1896
37.6528
38.1015
38.5315
38.9356
39.3067
39.6367
39.9175
40.1419
40.3044
40.4041
40.4496
40.4677
40.494
40.5154
40.4931
40.4087
40.2583
40.0443
39.7733
39.4527
39.0907
38.6952
38.2731
37.8315
37.374
36.9088
36.4327
35.965
35.4803
35.048
34.5547
34.2721
34.7341
34.9712
35.4441
35.8687
36.3534
36.8279
37.3143
37.7927
38.2647
38.7217
39.1594
39.5701
39.947
40.2819
40.567
40.7954
40.9621
41.0669
41.1188
41.1418
41.1659
41.1801
41.1507
41.0606
40.905
40.6861
40.4098
40.0834
39.7147
39.3117
38.8813
38.4308
37.9639
37.4894
37.0047
36.5298
36.0414
35.6109
35.1274
34.8808
35.277
35.4651
35.9211
36.3417
36.8291
37.311
37.8061
38.2939
38.775
39.2404
39.6853
40.1022
40.484
40.8231
41.1119
41.3439
41.5149
41.6252
41.684
41.7121
41.7337
41.7401
41.7031
41.6067
41.4459
41.2224
40.9413
40.6097
40.235
39.825
39.3867
38.927
38.4507
37.9661
37.4722
36.9892
36.4973
36.0688
35.6017
35.4053
35.7472
35.8637
36.2911
36.706
37.195
37.6849
38.1893
38.6876
39.1783
39.6525
40.1048
40.5278
40.9145
41.2575
41.5497
41.7851
41.9604
42.0763
42.1416
42.1745
42.1937
42.1926
42.1477
42.0449
41.8789
41.6508
41.3652
41.0285
40.6478
40.2308
39.7841
39.3149
38.8282
38.3326
37.8285
37.3364
36.8415
36.4168
35.9777
35.8549
36.1595
36.1723
36.5519
36.9543
37.4434
37.9411
38.4556
38.9652
39.4665
39.9503
40.4106
40.8402
41.2321
41.5792
41.8748
42.1137
42.293
42.4142
42.4854
42.522
42.5391
42.5312
42.479
42.3698
42.1985
41.9657
41.6754
41.3332
40.9463
40.5215
40.0658
39.5861
39.0879
38.5798
38.0641
37.5619
37.0628
36.6487
36.2573
36.2411
36.5265
36.3984
36.7039
37.081
37.5663
38.0708
38.5956
39.117
39.6301
40.1244
40.5936
41.0305
41.4281
41.7796
42.079
42.3215
42.5048
42.6306
42.7067
42.7462
42.7614
42.7478
42.6888
42.5736
42.3969
42.1591
41.8634
41.5154
41.1213
40.6881
40.2222
39.7309
39.2197
38.6978
38.1691
37.6549
37.1559
36.7649
36.4474
36.5752
36.8428
36.544
36.7485
37.0831
37.5562
38.0671
38.6016
39.1357
39.6608
40.1665
40.6455
41.0903
41.4942
41.8509
42.1544
42.4005
42.5875
42.7174
42.7972
42.8389
42.8524
42.8338
42.7691
42.6481
42.4661
42.2228
41.9214
41.5667
41.1648
40.7221
40.2453
39.7411
39.2161
38.6791
38.1369
37.6118
37.1212
36.7691
36.5513
36.8514
37.0866
36.6066
36.6927
36.9701
37.4206
37.9328
38.4756
39.0211
39.5578
40.0746
40.5634
41.0165
41.427
41.7888
42.0964
42.346
42.5363
42.6693
42.752
42.7951
42.8072
42.7846
42.7149
42.5887
42.4014
42.1527
41.8453
41.4835
41.0732
40.6207
40.1322
39.6149
39.0751
38.5231
37.9656
37.4349
36.9634
36.666
36.565
37.0461
37.2
36.5664
36.5418
36.7567
37.1773
37.6836
38.2325
38.7867
39.3332
39.8594
40.3566
40.8168
41.233
41.5993
41.9103
42.1626
42.355
42.4898
42.5741
42.6179
42.6288
42.6033
42.5297
42.3994
42.2077
41.954
41.6409
41.2727
40.8547
40.3929
39.8938
39.3643
38.8113
38.2447
37.6764
37.1471
36.7019
36.4643
36.4734
37.1081
37.127
36.4029
36.3041
36.4699
36.863
37.3596
37.9094
38.4675
39.0193
39.551
40.0531
40.5173
40.9366
41.3049
41.6172
41.87
42.0626
42.1974
42.2815
42.3251
42.3351
42.3078
42.2321
42.0994
41.9049
41.6481
41.3312
40.9584
40.5348
40.0664
39.5596
39.0211
38.4584
37.8806
37.3073
36.7854
36.3669
36.1796
36.266
36.9951
36.9118
36.1532
36.0217
36.1582
36.5304
37.0151
37.5598
38.1175
38.6692
39.2008
39.7025
40.1658
40.5837
40.95
41.2597
41.5097
41.6991
41.831
41.9125
41.9548
41.9643
41.9372
41.8621
41.7297
41.5354
41.2786
40.9616
40.5881
40.1635
39.6934
39.1843
38.643
38.0771
37.4957
36.9236
36.4112
36.0125
35.8558
35.9796
36.7498
36.6141
35.8761
35.7543
35.8867
36.2503
36.725
37.2612
37.8116
38.3561
38.8806
39.3752
39.8312
40.2417
40.6004
40.9026
41.1452
41.3273
41.4522
41.5281
41.5674
41.5775
41.5529
41.4815
41.3532
41.1632
40.9109
40.5984
40.2298
39.81
39.3448
38.8407
38.3042
37.7436
37.1691
36.6077
36.1099
35.7285
35.5897
35.7237
36.5016
36.4256
35.7208
35.619
35.7534
36.1095
36.5712
37.0922
37.6272
38.1568
38.6668
39.1472
39.5895
39.9864
40.3321
40.6217
40.8521
41.0225
41.1363
41.2029
41.2376
41.2492
41.2304
41.1667
41.047
40.866
40.6235
40.3215
39.964
39.556
39.1034
38.6123
38.0897
37.5439
36.9853
36.4398
35.9565
35.5835
35.4423
35.552
36.2853
36.4631
35.7818
35.6922
35.8239
36.1681
36.6112
37.1105
37.6227
38.131
38.6207
39.0814
39.5047
39.8834
40.2116
40.4845
40.6988
40.8538
40.953
41.0068
41.0348
41.049
41.0389
40.9862
40.8782
40.7098
40.4806
40.1931
39.8512
39.4603
39.0256
38.5541
38.0527
37.5303
36.998
36.4799
36.0232
35.6734
35.5494
35.6617
36.3888
36.6461
36.0251
35.9653
36.1019
36.4356
36.8583
37.3328
37.8202
38.3043
38.7702
39.208
39.609
39.9664
40.2743
40.5281
40.7243
40.8619
40.9442
40.9825
41.0018
41.0201
41.0218
40.9827
40.8888
40.7354
40.5226
40.253
39.9306
39.5606
39.1486
38.701
38.2253
37.7305
37.2285
36.7388
36.3053
35.9683
35.8413
35.9219
36.5842
37.0311
36.4494
36.4083
36.5453
36.8673
37.2698
37.7195
38.1827
38.6427
39.0854
39.5003
39.8794
40.2158
40.5038
40.7389
40.9175
41.0385
41.1041
41.1262
41.1348
41.1576
41.1712
41.1449
41.064
40.9245
40.7269
40.474
40.1696
39.8187
39.4271
39.001
38.5481
38.0773
37.6015
37.1357
36.7221
36.399
36.2782
36.3569
37.0139
37.5634
36.9961
36.9578
37.0846
37.3896
37.7704
38.1972
38.6383
39.0768
39.4985
39.8934
40.2532
40.5713
40.842
41.0609
41.2245
41.3312
41.3828
41.3904
41.3878
41.4147
41.4392
41.4242
41.3551
41.2283
41.0447
40.8072
40.5199
40.1875
39.8153
39.4098
38.9781
38.5293
38.0759
37.6312
37.231
36.909
36.7721
36.8091
37.3932
38.0909
37.518
37.4742
37.5891
37.8795
38.2429
38.6532
39.0779
39.5004
39.9067
40.2865
40.6318
40.9361
41.194
41.4008
41.5534
41.6496
41.6912
41.6882
41.677
41.708
41.7411
41.7348
41.6747
41.5581
41.3862
41.1618
40.8891
40.5729
40.2188
39.8332
39.4238
39
38.5753
38.1642
37.7991
37.5105
37.4074
37.4669
38.0785
38.157
37.6773
37.6993
37.8592
38.1781
38.5578
38.9747
39.3997
39.8186
40.2186
40.5907
40.9275
41.2229
41.4718
41.67
41.8141
41.9024
41.9361
41.9248
41.9046
41.9327
41.9672
41.9627
41.9051
41.7916
41.6232
41.403
41.1349
40.8237
40.4747
40.0943
39.6901
39.2714
38.8515
38.4453
38.0845
37.7988
37.6961
37.7585
38.3695
42.672
50.4403
56.6119
62.6218
67.7623
71.9049
75.2112
77.8757
80.0532
81.88
83.4755
84.9052
86.2075
87.4141
88.5548
89.6595
90.7577
91.8762
93.0373
94.257
95.5436
96.8987
98.3193
99.798
101.325
102.887
104.469
106.045
107.578
108.997
110.16
110.842
41.9936
49.4781
55.454
61.3283
66.3982
70.5059
73.7929
76.4479
78.6249
80.4584
82.0609
83.4929
84.7855
85.9771
87.0994
88.1829
89.2574
90.3514
91.4872
92.6798
93.938
95.2636
96.6532
98.0994
99.5925
101.119
102.664
104.204
105.701
107.085
108.22
108.883
41.2196
48.4606
54.2543
59.9954
64.997
69.0763
72.3541
75.0119
77.2009
79.0509
80.6659
82.1017
83.3882
84.5684
85.6741
86.7376
87.7908
88.8613
89.9714
91.1378
92.3684
93.6648
95.0237
96.4378
97.8971
99.3891
100.898
102.401
103.862
105.212
106.318
106.964
40.4517
47.4557
53.0647
58.6667
63.5971
67.6485
70.9187
73.5827
75.7896
77.6626
79.2945
80.7372
82.0238
83.194
84.2857
85.3321
86.3645
87.4126
88.5001
89.6413
90.845
92.1133
93.4424
94.8249
96.2509
97.7082
99.1815
100.648
102.073
103.39
104.467
105.095
39.5979
46.384
51.8095
57.2717
62.1356
66.1717
69.4527
72.1424
74.3827
76.287
77.9407
79.3949
80.6858
81.8514
82.9329
83.9638
84.9792
86.0079
87.0721
88.1895
89.3681
90.6092
91.9096
93.2618
94.6558
96.0794
97.518
98.9496
100.339
101.623
102.673
103.284
38.7799
45.3419
50.5748
55.8886
60.6838
64.7068
67.9998
70.713
72.9849
74.9222
76.6013
78.0718
79.3723
80.54
81.6147
82.6348
83.6342
84.644
85.6896
86.7852
87.9396
89.155
90.4276
91.7499
93.1124
94.5028
95.9068
97.303
98.6584
99.91
100.932
101.526
37.8553
44.2069
49.2424
54.4022
59.1312
63.1559
66.4853
69.25
71.5757
73.5575
75.2688
76.7614
78.0761
79.252
80.3266
81.3391
82.3275
83.3237
84.3495
85.4244
86.5568
87.7476
88.9936
90.2876
91.6198
92.9785
94.3491
95.712
97.0335
98.253
99.2489
99.8258
36.9807
43.1105
47.9372
52.9319
57.5917
61.6219
64.9883
67.796
70.165
72.1898
73.9381
75.4595
76.7965
77.9866
79.0687
80.0793
81.0595
82.0416
83.0545
84.112
85.223
86.3908
87.6112
88.8771
90.1792
91.5055
92.8431
94.1718
95.4598
96.6483
97.6174
98.1775
35.9598
41.8773
46.4825
51.296
55.8798
59.9273
63.362
66.2564
68.7098
70.8012
72.5983
74.1569
75.5209
76.7318
77.826
78.8438
79.8219
80.7997
81.7975
82.8382
83.9312
85.077
86.2731
87.5125
88.7856
90.0815
91.3869
92.6831
93.9389
95.0963
96.0401
96.584
34.9851
40.6771
45.0517
49.6712
54.1745
58.2456
61.7517
64.7185
67.2339
69.3862
71.2394
72.8447
74.249
75.4892
76.6049
77.6321
78.615
79.587
80.5795
81.6087
82.6837
83.8095
84.9821
86.1945
87.4384
88.7023
89.9746
91.2366
92.4591
93.5866
94.5033
95.0293
33.7869
39.2643
43.3884
47.7809
52.1765
56.2699
59.8837
62.9947
65.6531
67.9146
69.8466
71.5129
72.9613
74.2383
75.3796
76.4286
77.421
78.4005
79.3856
80.4032
81.4652
82.5718
83.7217
84.9085
86.1235
87.3568
88.5969
89.8268
91.0179
92.1144
93.0074
93.5167
32.5888
37.8576
41.7273
45.8827
50.1658
54.2933
58.0268
61.2618
64.0172
66.3753
68.3984
70.1399
71.6559
72.9836
74.1665
75.2378
76.2482
77.229
78.2182
79.2321
80.2799
81.3697
82.498
83.6586
84.8445
86.0452
87.2512
88.4464
89.6032
90.6705
91.5344
92.0261
31.0682
36.1323
39.7054
43.5537
47.6518
51.775
55.6586
59.1375
62.1575
64.712
66.8723
68.7191
70.3061
71.6938
72.9184
74.0322
75.0658
76.0699
77.0596
78.0669
79.1078
80.1817
81.2893
82.4255
83.5826
84.7525
85.9261
87.089
88.2154
89.2515
90.0935
90.5673
29.4604
34.3456
37.64
41.1836
45.0965
49.238
53.3049
56.9926
60.1687
62.8982
65.223
67.197
68.8999
70.3718
71.6703
72.8236
73.8938
74.9072
75.9128
76.9269
77.9579
79.0187
80.1067
81.2172
82.3449
83.4806
84.6185
85.7453
86.8353
87.8414
88.6513
89.107
27.3122
32.0197
34.9579
38.0504
41.6046
45.6278
49.8583
53.9778
57.7041
60.8172
63.402
65.576
67.4024
68.9768
70.339
71.5641
72.6756
73.7357
74.753
75.7662
76.798
77.8468
78.9162
80.0028
81.1008
82.2048
83.3089
84.4021
85.4632
86.4373
87.2272
87.6641
24.792
29.4335
32.1302
34.8614
38.0903
42.0548
46.5607
50.9796
54.8995
58.3863
61.3169
63.7313
65.7735
67.4918
68.9872
70.2795
71.4555
72.5337
73.5825
74.6173
75.6447
76.6845
77.7362
78.7966
79.8637
80.9302
81.9952
83.0499
84.0692
85.0116
85.7636
86.1806
21.0905
25.7249
27.961
29.9461
32.4264
35.8759
40.3434
45.7165
51.0825
55.3548
58.8282
61.673
63.9575
65.8755
67.472
68.8848
70.1274
71.29
72.3665
73.407
74.4448
75.4778
76.5126
77.549
78.5841
79.6157
80.6443
81.6629
82.6549
83.5636
84.2981
84.6943
15.6156
20.8367
23.5236
25.4087
27.2063
30.5925
35.9017
41.1529
45.9927
51.3793
55.73
59.105
61.8528
64.0369
65.8926
67.4247
68.7841
69.9744
71.1048
72.1885
73.23
74.2579
75.2765
76.2846
77.2851
78.274
79.256
80.2309
81.1729
82.0456
82.7326
83.1057
6.49872
11.1226
11.7332
11.6348
10.271
9.67117
14.8728
26.0184
39.1966
45.8667
51.5723
56.0328
59.3182
61.9582
63.9964
65.7504
67.2169
68.5602
69.7442
70.8425
71.9067
72.9355
73.9382
74.9204
75.884
76.8306
77.7726
78.7072
79.6228
80.4594
81.1308
81.4815
2.76179
7.34814
10.4526
11.8435
12.4473
12.757
17.2262
20.2775
23.0145
37.9026
45.7665
51.6289
56.1286
59.3254
61.936
63.9182
65.6175
67.0019
68.2784
69.4558
70.5366
71.5637
72.5513
73.5001
74.4208
75.3153
76.1954
77.0757
77.9281
78.72
79.3269
79.6481
11.2453
15.4328
16.1175
15.7184
15.7655
11.9708
8.1051
15.5393
21.333
15.1613
36.7605
45.8862
51.7578
56.2002
59.1833
61.6628
63.5504
65.235
66.6128
67.8197
68.9424
69.9838
70.9553
71.8726
72.7466
73.5835
74.4176
75.2511
76.0773
76.8287
77.4238
77.7203
19.6696
24.0599
25.8615
26.4315
25.66
23.995
21.9126
17.3724
11.1158
10.9793
14.8401
36.1398
45.8304
51.6109
56.1216
59.0166
61.4281
63.1748
64.7292
66.0846
67.2481
68.2902
69.2462
70.1193
70.9324
71.698
72.4366
73.195
73.9345
74.6261
75.1235
75.3743
21.6808
26.621
29.2871
31.2172
32.2979
32.3319
30.981
28.0733
22.2079
19.291
1.04149
9.58598
35.2479
45.5986
50.9403
55.4289
58.2473
60.6734
62.4263
63.8404
65.0833
66.1674
67.106
67.9326
68.6771
69.3534
70.0384
70.7345
71.4518
72.0883
72.5835
72.8099
22.4674
27.4781
30.3489
32.6347
34.3077
35.3511
35.695
35.1224
33.059
27.9973
23.601
14.2183
16.3004
36.1226
46.518
50.945
55.0572
57.5208
59.6653
61.3891
62.7244
63.8082
64.7251
65.4821
66.1259
66.6783
67.1794
67.7685
68.3411
68.9073
69.2282
69.3628
21.8807
27.035
30.0733
32.5972
34.5756
36.0061
36.8988
37.2561
36.9793
35.5356
31.3674
27.5241
2.78387
10.0368
30.8141
43.805
49.0672
53.4597
55.9792
57.7895
59.2837
60.4803
61.3741
62.0398
62.5599
62.9591
63.4311
63.8695
64.4957
64.9165
65.278
65.3858
20.478
25.7627
28.8974
31.5619
33.7348
35.421
36.6477
37.4577
37.8866
37.8676
36.859
33.178
27.362
11.4116
17.0183
33.2133
43.9338
47.5827
51.2394
53.8474
55.565
56.7142
57.5603
58.091
58.4009
58.5096
58.4086
58.8406
59.0073
59.5464
59.5547
59.3805
18.5738
23.9585
27.1286
29.8519
32.1246
33.9653
35.4073
36.5115
37.3569
37.9977
38.3428
37.8083
34.5108
24.1506
24.3829
14.3312
28.9304
41.0994
44.5234
46.8882
48.8339
50.3846
51.205
51.3828
51.5543
51.2218
51.8681
51.0984
52.4805
52.1086
52.55
52.1195
16.3791
21.7587
24.865
27.5446
29.8208
31.7348
33.3331
34.6752
35.8445
36.9179
37.9026
38.5997
38.237
34.6155
29.3002
18.6349
29.8572
25.5065
35.2552
39.976
42.9514
44.098
44.3535
44.5789
43.7942
43.2273
39.3988
41.4909
38.8743
39.9443
39.8169
36.7029
14.1488
19.3789
22.3128
24.8437
27.0277
28.9282
30.6066
32.1281
33.5679
35.0026
36.4589
37.8383
38.7868
38.4653
34.1406
24.1095
26.4603
17.0792
17.2901
26.335
23.8056
25.461
29.1801
24.2529
25.9626
19.6058
25.4943
10.7817
26.9411
41.3881
42.8234
38.392
12.182
17.1352
19.8161
22.1212
24.1391
25.9514
27.6295
29.2403
30.85
32.5243
34.3077
36.1529
37.8516
38.9434
38.2344
34.8053
24.2639
27.8275
25.5914
31.9546
25.4338
24.7253
34.7467
16.0917
32.6003
16.625
29.484
33.7945
31.9773
42.5942
43.8277
26.7522
10.6668
15.2742
17.6838
19.7415
21.5648
23.2478
24.8656
26.4803
28.1454
29.9112
31.8269
33.8993
36.0267
37.9144
38.9339
38.4402
33.5055
27.2595
28.78
29.4026
21.8098
24.2355
30.0244
22.4465
32.8121
32.4302
32.3317
32.4268
34.8873
38.5342
38.7607
29.8269
9.54808
13.9095
16.0873
17.9347
19.5902
21.1508
22.6856
24.2441
25.8658
27.5899
29.4614
31.5216
33.7653
36.046
37.9606
38.9511
37.9127
34.1534
30.1008
26.8777
25.4382
23.6762
25.0462
30.1532
31.3488
33.9103
37.5773
37.8879
37.7739
37.425
36.7355
41.3429
8.93561
13.1037
15.1167
16.8245
18.3734
19.8509
21.3106
22.7857
24.302
25.891
27.5954
29.4703
31.5635
33.8579
36.1592
38.0387
38.7833
38.1049
36.2178
35.5918
35.368
35.9953
37.2694
39.557
39.9581
40.3609
42.9844
42.476
42.9577
42.4077
42.4961
44.5985
8.72498
12.7991
14.7346
16.3855
17.8961
19.3389
20.7487
22.1432
23.5388
24.9608
26.4491
28.0579
29.8516
31.8817
34.1199
36.356
38.1058
38.9479
38.7042
38.7627
39.061
39.8961
40.6795
41.7
41.9689
41.8728
43.6263
42.8272
43.5521
42.8774
43.5517
44.559
8.84731
12.9042
14.8338
16.4954
18.0225
19.4708
20.8585
22.1932
23.4863
24.7599
26.0478
27.3958
28.8624
30.5152
32.4063
34.5035
36.5743
38.2479
39.1088
39.6261
40.2127
40.9411
41.3898
41.9465
42.059
41.9603
42.9636
42.247
42.7829
42.2336