/*--------------------------------*- C++ -*----------------------------------*\
  =========                 |
  \\      /  F ield         | OpenFOAM: The Open Source CFD Toolbox
   \\    /   O peration     | Website:  https://openfoam.org
    \\  /    A nd           | Version:  6
     \\/     M anipulation  |
\*---------------------------------------------------------------------------*/
FoamFile
{
    version     2.0;
    format      ascii;
    class       surfaceScalarField;
    location    "20";
    object      phi;
}
// * * * * * * * * * * * * * * * * * * * * * * * * * * * * * * * * * * * * * //

dimensions      [0 3 -1 0 0 0 0];

internalField   nonuniform List<scalar> 
4650
(
1.10562e-06
-2.85372e-13
1.03839e-12
1.10562e-06
3.12176e-13
-2.53105e-13
-7.25773e-14
-7.39483e-13
1.74358e-06
-2.59343e-13
2.02363e-12
1.74358e-06
-1.22822e-13
-3.77283e-13
4.39507e-13
-1.74947e-12
2.31661e-06
6.18233e-13
2.20857e-12
2.31661e-06
-1.12765e-12
-2.29545e-13
6.11264e-13
-2.02353e-12
2.91787e-06
2.63e-12
2.2494e-12
2.91788e-06
-2.63087e-12
-8.98653e-14
1.17421e-13
-2.17425e-12
3.58964e-06
5.18447e-12
2.68013e-12
3.58964e-06
-4.40294e-12
5.06999e-14
-6.66099e-13
-2.72971e-12
4.3577e-06
7.55338e-12
3.5751e-12
4.3577e-06
-6.07373e-12
-5.13609e-14
-1.37377e-12
-3.51418e-12
5.24693e-06
9.18981e-12
4.51898e-12
5.24694e-06
-7.23667e-12
-3.16294e-13
-1.86254e-12
-4.18742e-12
6.28491e-06
9.8579e-12
5.20434e-12
6.28491e-06
-7.58853e-12
-8.2394e-13
-2.2083e-12
-4.35084e-12
7.50265e-06
9.45275e-12
6.28103e-12
7.50265e-06
-7.10022e-12
-1.48457e-12
-2.31936e-12
-4.76855e-12
8.9335e-06
8.18118e-12
7.04493e-12
8.9335e-06
-6.07162e-12
-1.80615e-12
-2.13122e-12
-5.18396e-12
1.06105e-05
6.27103e-12
7.84074e-12
1.06105e-05
-4.5995e-12
-1.78636e-12
-1.73197e-12
-6.0156e-12
1.25632e-05
4.37059e-12
8.23548e-12
1.25632e-05
-3.20658e-12
-9.22302e-13
-1.23712e-12
-7.30049e-12
1.48158e-05
2.65715e-12
8.72293e-12
1.48158e-05
-1.85824e-12
2.40605e-13
-8.87701e-13
-8.94786e-12
1.73892e-05
1.22309e-12
9.32595e-12
1.73892e-05
-8.79997e-13
1.87275e-12
-4.04847e-13
-1.12257e-11
2.03014e-05
-6.2238e-14
1.03049e-11
2.03014e-05
-9.32321e-14
3.19422e-12
1.16109e-13
-1.35215e-11
2.03013e-05
-1.36281e-12
1.03175e-11
2.03013e-05
7.1408e-13
3.16977e-12
5.82376e-13
-1.34603e-11
1.73891e-05
-2.80069e-12
9.3243e-12
1.73891e-05
1.73454e-12
1.81325e-12
1.08899e-12
-1.12267e-11
1.48156e-05
-4.55549e-12
8.76636e-12
1.48156e-05
3.16487e-12
1.4072e-13
1.44341e-12
-8.93703e-12
1.2563e-05
-6.46552e-12
8.27375e-12
1.2563e-05
4.62248e-12
-1.01183e-12
1.87284e-12
-7.23893e-12
1.06104e-05
-8.27156e-12
7.82592e-12
1.06104e-05
6.11441e-12
-1.83138e-12
2.17128e-12
-5.97888e-12
8.93337e-06
-9.6379e-12
7.08389e-12
8.93337e-06
7.23091e-12
-1.87851e-12
2.40061e-12
-5.18486e-12
7.50253e-06
-1.00973e-11
6.31737e-12
7.50253e-06
7.76558e-12
-1.52533e-12
2.31506e-12
-4.78175e-12
6.28481e-06
-9.44238e-12
5.24736e-12
6.28481e-06
7.39244e-12
-8.12478e-13
2.03382e-12
-4.43543e-12
5.24685e-06
-7.78446e-12
4.52835e-12
5.24685e-06
6.24535e-12
-3.62302e-13
1.53037e-12
-4.17342e-12
4.35763e-06
-5.36815e-12
3.58345e-12
4.35763e-06
4.54007e-12
-5.42392e-14
8.28233e-13
-3.53811e-12
3.58958e-06
-2.7656e-12
2.66745e-12
3.58958e-06
2.75203e-12
3.7393e-14
1.89304e-14
-2.71006e-12
2.91782e-06
-7.09321e-13
2.19869e-12
2.91782e-06
1.20539e-12
-4.80353e-14
-4.89964e-13
-2.15139e-12
2.31656e-06
1.90143e-13
2.17654e-12
2.31656e-06
1.80881e-13
-2.08261e-13
-3.67264e-13
-1.96593e-12
1.74355e-06
2.00521e-13
2.03331e-12
1.74355e-06
-3.02589e-13
-3.2888e-13
1.03285e-13
-1.70188e-12
1.1056e-06
9.5848e-13
1.1056e-06
-2.43642e-13
-7.13622e-13
1.52343e-06
-2.95995e-13
2.1859e-12
1.52343e-06
3.06571e-13
-4.57836e-13
1.01533e-13
-1.79438e-12
2.43869e-06
-2.73209e-13
4.32261e-12
2.43869e-06
-2.3413e-13
-5.2662e-13
6.71186e-13
-3.95084e-12
3.20873e-06
8.68196e-13
4.59546e-12
3.20873e-06
-1.5132e-12
-2.24856e-14
8.15515e-13
-4.62416e-12
4.01614e-06
3.51153e-12
4.51635e-12
4.01614e-06
-3.43988e-12
4.25487e-13
1.05562e-13
-4.96325e-12
4.91608e-06
6.87265e-12
5.38729e-12
4.91609e-06
-5.71517e-12
8.33211e-13
-9.87044e-13
-6.2126e-12
5.94294e-06
1.00079e-11
7.3536e-12
5.94294e-06
-7.85519e-12
6.71085e-13
-1.99683e-12
-8.00059e-12
7.12964e-06
1.22401e-11
9.36821e-12
7.12964e-06
-9.33344e-12
1.70285e-13
-2.77162e-12
-9.50242e-12
8.5124e-06
1.31572e-11
1.07754e-11
8.5124e-06
-9.80327e-12
-8.06915e-13
-3.25909e-12
-9.89874e-12
1.01318e-05
1.26293e-11
1.30203e-11
1.01318e-05
-9.20935e-12
-2.10668e-12
-3.37316e-12
-1.08377e-11
1.20317e-05
1.09336e-11
1.44838e-11
1.20317e-05
-7.78854e-12
-2.79269e-12
-3.17163e-12
-1.1563e-11
1.42557e-05
8.3787e-12
1.60661e-11
1.42557e-05
-5.88364e-12
-2.50922e-12
-2.57964e-12
-1.34601e-11
1.68442e-05
5.80596e-12
1.66942e-11
1.68442e-05
-4.05997e-12
-4.52915e-13
-1.84517e-12
-1.6214e-11
1.98316e-05
3.52245e-12
1.73829e-11
1.98316e-05
-2.3924e-12
2.31776e-12
-1.25712e-12
-1.96571e-11
2.32491e-05
1.62278e-12
1.83569e-11
2.32491e-05
-1.10786e-12
5.95426e-12
-5.96055e-13
-2.43842e-11
2.71256e-05
-7.75368e-14
2.01555e-11
2.71256e-05
-1.45145e-13
9.13115e-12
1.72933e-13
-2.93405e-11
2.71255e-05
-1.80209e-12
2.01904e-11
2.71255e-05
8.45522e-13
9.07233e-12
8.7509e-13
-2.9204e-11
2.32489e-05
-3.70629e-12
1.83576e-11
2.32489e-05
2.20994e-12
5.79333e-12
1.53052e-12
-2.43558e-11
1.98314e-05
-6.05134e-12
1.74935e-11
1.98314e-05
3.9937e-12
2.07453e-12
2.13039e-12
-1.96366e-11
1.6844e-05
-8.62358e-12
1.67673e-11
1.6844e-05
5.89255e-12
-6.48938e-13
2.773e-12
-1.60646e-11
1.42556e-05
-1.10593e-11
1.6032e-11
1.42556e-05
7.83158e-12
-2.61644e-12
3.24804e-12
-1.33783e-11
1.20315e-05
-1.28651e-11
1.45713e-11
1.20315e-05
9.34821e-12
-2.95035e-12
3.51049e-12
-1.15737e-11
1.01317e-05
-1.34733e-11
1.312e-11
1.01317e-05
1.0019e-11
-2.22401e-12
3.43409e-12
-1.08719e-11
8.51228e-06
-1.25604e-11
1.08679e-11
8.51228e-06
9.5555e-12
-8.18886e-13
2.98494e-12
-1.00498e-11
7.12954e-06
-1.02985e-11
9.42237e-12
7.12954e-06
8.08193e-12
8.15395e-14
2.20663e-12
-9.52132e-12
5.94285e-06
-7.10016e-12
7.36429e-12
5.94285e-06
5.88724e-12
6.7678e-13
1.21401e-12
-8.06096e-12
4.91601e-06
-3.6658e-12
5.34421e-12
4.91601e-06
3.55823e-12
8.36812e-13
1.14847e-13
-6.19243e-12
4.01608e-06
-9.58624e-13
4.40082e-12
4.01608e-06
1.57358e-12
5.17851e-13
-6.06888e-13
-4.92021e-12
3.20867e-06
2.63018e-13
4.47542e-12
3.20867e-06
2.35307e-13
5.66189e-14
-4.93498e-13
-4.52645e-12
2.43866e-06
3.43074e-13
4.27108e-12
2.43866e-06
-3.67045e-13
-4.17662e-13
2.55e-14
-3.84757e-12
1.5234e-06
2.15952e-12
1.5234e-06
-5.07572e-13
-1.6492e-12
1.96859e-06
-4.2368e-13
3.62304e-12
1.96859e-06
3.57732e-13
-6.87172e-13
2.27294e-13
-3.16352e-12
3.14814e-06
-3.66003e-13
6.91004e-12
3.14814e-06
-2.98032e-13
-4.47138e-13
8.70472e-13
-6.66285e-12
4.12939e-06
1.07721e-12
7.16363e-12
4.12939e-06
-1.8503e-12
6.35132e-13
9.85978e-13
-7.8564e-12
5.16191e-06
4.3422e-12
6.87997e-12
5.16191e-06
-4.20425e-12
1.57062e-12
8.39673e-14
-8.48102e-12
6.31116e-06
8.50645e-12
8.23576e-12
6.31116e-06
-7.00798e-12
2.39168e-12
-1.28479e-12
-1.06113e-11
7.62027e-06
1.24534e-11
1.14395e-11
7.62027e-06
-9.66665e-12
2.23235e-12
-2.59135e-12
-1.36295e-11
9.13096e-06
1.537e-11
1.45744e-11
9.13096e-06
-1.15188e-11
1.54805e-12
-3.68205e-12
-1.60601e-11
1.08891e-05
1.66232e-11
1.66365e-11
1.08891e-05
-1.2137e-11
1.27282e-13
-4.36692e-12
-1.66441e-11
1.29459e-05
1.59464e-11
2.02349e-11
1.29459e-05
-1.14317e-11
-1.80172e-12
-4.45692e-12
-1.82957e-11
1.53569e-05
1.37703e-11
2.25064e-11
1.53569e-05
-9.67122e-12
-2.78495e-12
-4.13234e-12
-1.95022e-11
1.81775e-05
1.05528e-11
2.48183e-11
1.81775e-05
-7.31881e-12
-1.99038e-12
-3.34086e-12
-2.26574e-11
2.14596e-05
7.29527e-12
2.55272e-11
2.14596e-05
-5.04564e-12
1.68161e-12
-2.37407e-12
-2.7164e-11
2.5248e-05
4.41567e-12
2.61849e-11
2.5248e-05
-2.97822e-12
6.5539e-12
-1.59805e-12
-3.26591e-11
2.95844e-05
2.02952e-12
2.73256e-11
2.95844e-05
-1.37212e-12
1.27476e-11
-7.58785e-13
-4.02053e-11
3.45081e-05
-9.61849e-14
2.98074e-11
3.45081e-05
-1.77113e-13
1.83834e-11
2.105e-13
-4.82832e-11
3.4508e-05
-2.25328e-12
2.98717e-11
3.4508e-05
1.04962e-12
1.82844e-11
1.10119e-12
-4.80578e-11
2.95842e-05
-4.64473e-12
2.73314e-11
2.95842e-05
2.75498e-12
1.24618e-11
1.93249e-12
-4.01432e-11
2.52478e-05
-7.60263e-12
2.63818e-11
2.52478e-05
4.96597e-12
6.13158e-12
2.72787e-12
-3.26304e-11
2.14594e-05
-1.08587e-11
2.56415e-11
2.14594e-05
7.33153e-12
1.35484e-12
3.57972e-12
-2.69039e-11
1.81774e-05
-1.39313e-11
2.47533e-11
1.81774e-05
9.72994e-12
-2.17471e-12
4.22684e-12
-2.25142e-11
1.53567e-05
-1.6244e-11
2.2662e-11
1.53566e-05
1.16081e-11
-3.05446e-12
4.62741e-12
-1.95264e-11
1.29457e-05
-1.70241e-11
2.04221e-11
1.29457e-05
1.24061e-11
-2.01708e-12
4.59168e-12
-1.8363e-11
1.08889e-05
-1.57634e-11
1.67821e-11
1.08889e-05
1.17966e-11
8.17017e-14
3.94104e-12
-1.68652e-11
9.13083e-06
-1.28105e-11
1.46912e-11
9.13083e-06
9.94702e-12
1.41022e-12
2.85059e-12
-1.61316e-11
7.62017e-06
-8.79311e-12
1.14571e-11
7.62017e-06
7.22544e-12
2.24458e-12
1.56857e-12
-1.37354e-11
6.31106e-06
-4.53617e-12
8.15192e-12
6.31107e-06
4.3524e-12
2.41878e-12
1.92511e-13
-1.059e-11
5.16183e-06
-1.19235e-12
6.69042e-12
5.16183e-06
1.92898e-12
1.72052e-12
-7.26695e-13
-8.41365e-12
4.12933e-06
3.50344e-13
6.93766e-12
4.12933e-06
3.00808e-13
7.8735e-13
-6.45e-13
-7.71565e-12
3.14809e-06
4.95204e-13
6.76758e-12
3.14809e-06
-4.30998e-13
-2.62655e-13
-6.19692e-14
-6.49517e-12
1.96856e-06
3.67503e-12
1.96856e-06
-8.0704e-13
-2.86301e-12
2.53898e-06
-6.13651e-13
5.47168e-12
2.53898e-06
4.07733e-13
-9.58661e-13
4.13782e-13
-4.94853e-12
3.9766e-06
-4.8688e-13
9.75801e-12
3.9766e-06
-3.68463e-13
-8.78242e-14
1.10792e-12
-9.91485e-12
5.20306e-06
1.29986e-12
9.845e-12
5.20306e-06
-2.19637e-12
1.8344e-12
1.15803e-12
-1.1746e-11
6.50266e-06
5.23598e-12
9.27098e-12
6.50266e-06
-4.99866e-12
3.47583e-12
3.50632e-14
-1.27881e-11
7.94867e-06
1.02857e-11
1.1164e-11
7.94867e-06
-8.37919e-12
4.87854e-12
-1.64351e-12
-1.6017e-11
9.59336e-06
1.52003e-11
1.5738e-11
9.59336e-06
-1.16273e-11
4.78977e-12
-3.33187e-12
-2.04636e-11
1.14885e-05
1.89155e-11
1.99912e-11
1.14885e-05
-1.39295e-11
3.98761e-12
-4.77693e-12
-2.38843e-11
1.36912e-05
2.05184e-11
2.28455e-11
1.36912e-05
-1.47436e-11
2.13168e-12
-5.62729e-12
-2.47959e-11
1.62657e-05
1.96966e-11
2.79442e-11
1.62657e-05
-1.39181e-11
-4.15846e-13
-5.70707e-12
-2.73147e-11
1.92812e-05
1.69984e-11
3.11068e-11
1.92811e-05
-1.17838e-11
-1.57477e-12
-5.25503e-12
-2.92009e-11
2.28074e-05
1.30354e-11
3.40651e-11
2.28073e-05
-8.92231e-12
4.4904e-14
-4.24519e-12
-3.38479e-11
2.69094e-05
9.00082e-12
3.46555e-11
2.69094e-05
-6.14714e-12
5.87078e-12
-3.00791e-12
-4.04594e-11
3.16449e-05
5.43566e-12
3.50262e-11
3.16449e-05
-3.62722e-12
1.34393e-11
-2.00747e-12
-4.8341e-11
3.70675e-05
2.49388e-12
3.60855e-11
3.70675e-05
-1.66772e-12
2.28665e-11
-9.51168e-13
-5.91582e-11
4.32286e-05
-1.1608e-13
3.90818e-11
4.32286e-05
-2.16352e-13
3.16799e-11
2.55305e-13
-7.0902e-11
4.32285e-05
-2.76546e-12
3.91838e-11
4.32285e-05
1.27283e-12
3.15324e-11
1.36714e-12
-7.05695e-11
3.70673e-05
-5.71492e-12
3.61005e-11
3.70673e-05
3.35457e-12
2.24285e-11
2.41334e-12
-5.90575e-11
3.16446e-05
-9.37695e-12
3.53298e-11
3.16446e-05
6.04976e-12
1.27974e-11
3.43956e-12
-4.83036e-11
2.69092e-05
-1.34114e-11
3.48188e-11
2.69092e-05
8.93806e-12
5.38441e-12
4.53793e-12
-4.00631e-11
2.28072e-05
-1.71978e-11
3.3954e-11
2.28072e-05
1.18569e-11
-2.31106e-13
5.37186e-12
-3.36248e-11
1.92809e-05
-2.00625e-11
3.13543e-11
1.92809e-05
1.4135e-11
-1.98911e-12
5.91677e-12
-2.92424e-11
1.62655e-05
-2.10131e-11
2.82467e-11
1.62655e-05
1.50715e-11
-7.55328e-13
5.90902e-12
-2.74276e-11
1.3691e-05
-1.93737e-11
2.30317e-11
1.3691e-05
1.4268e-11
2.04056e-12
5.07401e-12
-2.50746e-11
1.14883e-05
-1.56147e-11
2.02332e-11
1.14883e-05
1.19661e-11
3.79277e-12
3.6325e-12
-2.40718e-11
9.59323e-06
-1.06357e-11
1.5782e-11
9.59323e-06
8.64486e-12
4.80696e-12
1.99159e-12
-2.06393e-11
7.94856e-06
-5.47243e-12
1.10288e-11
7.94856e-06
5.1783e-12
4.93549e-12
3.04461e-13
-1.59932e-11
6.50257e-06
-1.43949e-12
8.99955e-12
6.50257e-06
2.29255e-12
3.69278e-12
-8.41088e-13
-1.26967e-11
5.20299e-06
4.6221e-13
9.49893e-12
5.20299e-06
3.75973e-13
2.07187e-12
-8.30435e-13
-1.15572e-11
3.97655e-06
6.9991e-13
9.4996e-12
3.97655e-06
-4.88415e-13
1.86212e-13
-2.08204e-13
-9.67159e-12
2.53894e-06
5.61578e-12
2.53894e-06
-1.15303e-12
-4.45448e-12
3.26566e-06
-8.70064e-13
7.88138e-12
3.26566e-06
4.3894e-13
-1.28337e-12
6.94951e-13
-7.29735e-12
4.9703e-06
-6.37441e-13
1.28433e-11
4.9703e-06
-4.52422e-13
5.73486e-13
1.39883e-12
-1.37066e-11
6.48315e-06
1.54457e-12
1.25606e-11
6.48316e-06
-2.55525e-12
3.63314e-12
1.33006e-12
-1.62708e-11
8.10275e-06
6.22036e-12
1.15885e-11
8.10275e-06
-5.83545e-12
6.2438e-12
-5.41326e-14
-1.7885e-11
9.90702e-06
1.22637e-11
1.40936e-11
9.90702e-06
-9.86254e-12
8.41398e-12
-2.08122e-12
-2.24712e-11
1.19571e-05
1.83053e-11
2.01702e-11
1.19571e-05
-1.38082e-11
8.45851e-12
-4.20278e-12
-2.85389e-11
1.43161e-05
2.29509e-11
2.55891e-11
1.4316e-05
-1.66605e-11
7.57112e-12
-6.03442e-12
-3.30274e-11
1.70543e-05
2.49591e-11
2.94889e-11
1.70543e-05
-1.77222e-11
5.24356e-12
-7.05524e-12
-3.44769e-11
2.02516e-05
2.39996e-11
3.62495e-11
2.02516e-05
-1.6771e-11
2.07639e-12
-7.14039e-12
-3.80188e-11
2.39937e-05
2.07259e-11
4.04299e-11
2.39936e-05
-1.42138e-11
8.82634e-13
-6.56035e-12
-4.08452e-11
2.83675e-05
1.59134e-11
4.39506e-11
2.83675e-05
-1.07645e-11
3.69641e-12
-5.30979e-12
-4.72721e-11
3.34546e-05
1.09788e-11
4.4183e-11
3.34546e-05
-7.4113e-12
1.23138e-11
-3.75677e-12
-5.64015e-11
3.93276e-05
6.61226e-12
4.40564e-11
3.93276e-05
-4.36943e-12
2.32657e-11
-2.48659e-12
-6.71431e-11
4.60548e-05
3.02922e-12
4.47841e-11
4.60548e-05
-2.00639e-12
3.67087e-11
-1.17537e-12
-8.17902e-11
5.37022e-05
-1.36903e-13
4.81118e-11
5.37022e-05
-2.63487e-13
4.95256e-11
3.07355e-13
-9.78372e-11
5.37021e-05
-3.35181e-12
4.82608e-11
5.37021e-05
1.52517e-12
4.93194e-11
1.67592e-12
-9.73758e-11
4.60545e-05
-6.94662e-12
4.48127e-11
4.60545e-05
4.03811e-12
3.60863e-11
2.97393e-12
-8.16437e-11
3.93272e-05
-1.14318e-11
4.44884e-11
3.93272e-05
7.29209e-12
2.2359e-11
4.27657e-12
-6.70954e-11
3.34543e-05
-1.63694e-11
4.44042e-11
3.34543e-05
1.07829e-11
1.16347e-11
5.66529e-12
-5.58407e-11
2.83673e-05
-2.09677e-11
4.37748e-11
2.83673e-05
1.43009e-11
3.31389e-12
6.70412e-12
-4.69491e-11
2.39933e-05
-2.44412e-11
4.0798e-11
2.39933e-05
1.70326e-11
2.83443e-13
7.39514e-12
-4.09079e-11
2.02513e-05
-2.55591e-11
3.67005e-11
2.02513e-05
1.81163e-11
1.58137e-12
7.40273e-12
-3.81914e-11
1.70541e-05
-2.35422e-11
2.97607e-11
1.70541e-05
1.70687e-11
5.09114e-12
6.43432e-12
-3.4855e-11
1.43159e-05
-1.88345e-11
2.59007e-11
1.43159e-05
1.42128e-11
7.31357e-12
4.60181e-12
-3.32794e-11
1.1957e-05
-1.26838e-11
2.02106e-11
1.1957e-05
1.0181e-11
8.47974e-12
2.50324e-12
-2.87611e-11
9.90688e-06
-6.5024e-12
1.38952e-11
9.90688e-06
6.04742e-12
8.51032e-12
4.67039e-13
-2.2446e-11
8.10264e-06
-1.70804e-12
1.12294e-11
8.10264e-06
2.66711e-12
6.54028e-12
-9.448e-13
-1.77762e-11
6.48307e-06
6.04375e-13
1.208e-11
6.48307e-06
4.63536e-13
3.96828e-12
-1.05823e-12
-1.60301e-11
4.97024e-06
9.70239e-13
1.2443e-11
4.97024e-06
-5.26918e-13
9.51375e-13
-4.38593e-13
-1.33752e-11
3.26561e-06
8.12863e-12
3.26561e-06
-1.55499e-12
-6.56064e-12
4.18498e-06
-1.21178e-12
1.10355e-11
4.18498e-06
4.48837e-13
-1.68327e-12
1.08193e-12
-1.03706e-11
6.17646e-06
-8.29625e-13
1.61561e-11
6.17646e-06
-5.48867e-13
1.53604e-12
1.75176e-12
-1.80363e-11
8.02363e-06
1.81669e-12
1.52382e-11
8.02363e-06
-2.92136e-12
6.05134e-12
1.49049e-12
-2.13791e-11
1.00264e-05
7.31822e-12
1.37381e-11
1.00264e-05
-6.71668e-12
9.93421e-12
-2.04547e-13
-2.37362e-11
1.22645e-05
1.44821e-11
1.6944e-11
1.22645e-05
-1.14838e-11
1.30626e-11
-2.61353e-12
-2.9958e-11
1.48072e-05
2.17969e-11
2.47e-11
1.48072e-05
-1.62678e-11
1.32639e-11
-5.1737e-12
-3.78448e-11
1.77293e-05
2.75041e-11
3.14546e-11
1.77293e-05
-1.97996e-11
1.22403e-11
-7.39397e-12
-4.35172e-11
2.11169e-05
3.00185e-11
3.67678e-11
2.11169e-05
-2.11815e-11
9.33094e-12
-8.61491e-12
-4.57547e-11
2.5068e-05
2.89423e-11
4.54258e-11
2.5068e-05
-2.01025e-11
5.49334e-12
-8.73139e-12
-5.04982e-11
2.96889e-05
2.50386e-11
5.0801e-11
2.96889e-05
-1.70628e-11
4.373e-12
-8.03216e-12
-5.4542e-11
3.50873e-05
1.9256e-11
5.48387e-11
3.50873e-05
-1.29273e-11
8.75692e-12
-6.52253e-12
-6.30832e-11
4.13647e-05
1.32826e-11
5.4529e-11
4.13647e-05
-8.89425e-12
2.08508e-11
-4.61861e-12
-7.52481e-11
4.8612e-05
7.98976e-12
5.36637e-11
4.8612e-05
-5.23742e-12
3.59664e-11
-3.0477e-12
-8.9386e-11
5.69155e-05
3.65914e-12
5.37764e-11
5.69155e-05
-2.40218e-12
5.43061e-11
-1.44124e-12
-1.08491e-10
6.63588e-05
-1.59366e-13
5.72589e-11
6.63588e-05
-3.18212e-13
7.20251e-11
3.66752e-13
-1.29557e-10
6.63587e-05
-4.03726e-12
5.74653e-11
6.63587e-05
1.82111e-12
7.17484e-11
2.03773e-12
-1.28942e-10
5.69152e-05
-8.38496e-12
5.38243e-11
5.69151e-05
4.83864e-12
5.34629e-11
3.62653e-12
-1.0829e-10
4.86116e-05
-1.3821e-11
5.42501e-11
4.86116e-05
8.74991e-12
3.47439e-11
5.23668e-12
-8.93272e-11
4.13643e-05
-1.98032e-11
5.48155e-11
4.13643e-05
1.29494e-11
1.99423e-11
6.94937e-12
-7.44895e-11
3.5087e-05
-2.53266e-11
5.45763e-11
3.5087e-05
1.71646e-11
8.25366e-12
8.20646e-12
-6.26393e-11
2.96885e-05
-2.94665e-11
5.13225e-11
2.96885e-05
2.04146e-11
3.54028e-12
9.03493e-12
-5.46278e-11
2.50677e-05
-3.07361e-11
4.60647e-11
2.50677e-05
2.16512e-11
4.80589e-12
9.03566e-12
-5.07479e-11
2.11166e-05
-2.82235e-11
3.7152e-11
2.11166e-05
2.02901e-11
9.0985e-12
7.88595e-12
-4.62554e-11
1.7729e-05
-2.24353e-11
3.18616e-11
1.7729e-05
1.67481e-11
1.19154e-11
5.66313e-12
-4.38654e-11
1.4807e-05
-1.49814e-11
2.47235e-11
1.4807e-05
1.18621e-11
1.32899e-11
3.1193e-12
-3.81083e-11
1.22644e-05
-7.65147e-12
1.66695e-11
1.22644e-05
6.96392e-12
1.32122e-11
7.01532e-13
-2.99361e-11
1.00263e-05
-2.00658e-12
1.32918e-11
1.00263e-05
3.04954e-12
1.0324e-11
-1.02603e-12
-2.36253e-11
8.02353e-06
7.83677e-13
1.461e-11
8.02353e-06
5.65924e-13
6.49612e-12
-1.33754e-12
-2.10831e-11
6.17638e-06
1.31277e-12
1.5594e-11
6.17638e-06
-5.36214e-13
2.02866e-12
-7.69957e-13
-1.75981e-11
4.18493e-06
1.13813e-11
4.18493e-06
-2.02517e-12
-9.33654e-12
5.33885e-06
-1.65424e-12
1.51616e-11
5.33885e-06
4.38414e-13
-2.19606e-12
1.58172e-12
-1.43497e-11
7.65039e-06
-1.08131e-12
1.9692e-11
7.65038e-06
-6.52235e-13
2.76666e-12
2.1729e-12
-2.28762e-11
9.88754e-06
2.12659e-12
1.77806e-11
9.88754e-06
-3.28293e-12
9.05691e-12
1.61448e-12
-2.69459e-11
1.23476e-05
8.56257e-12
1.55952e-11
1.23476e-05
-7.63906e-12
1.45379e-11
-4.53733e-13
-3.02086e-11
1.51104e-05
1.69844e-11
1.96655e-11
1.51104e-05
-1.32684e-11
1.87902e-11
-3.25946e-12
-3.83939e-11
1.82522e-05
2.56993e-11
2.93631e-11
1.82522e-05
-1.90746e-11
1.9088e-11
-6.20079e-12
-4.82993e-11
2.186e-05
3.258e-11
3.79036e-11
2.186e-05
-2.34595e-11
1.77211e-11
-8.7478e-12
-5.53958e-11
2.60374e-05
3.57396e-11
4.51324e-11
2.60374e-05
-2.52664e-11
1.3984e-11
-1.02039e-11
-5.8669e-11
3.09041e-05
3.45933e-11
5.60074e-11
3.09041e-05
-2.40654e-11
9.29608e-12
-1.03955e-11
-6.47456e-11
3.6591e-05
3.00134e-11
6.28825e-11
3.6591e-05
-2.04725e-11
8.25644e-12
-9.60531e-12
-7.03101e-11
4.32313e-05
2.31573e-11
6.74532e-11
4.32313e-05
-1.55255e-11
1.45301e-11
-7.86265e-12
-8.13045e-11
5.09509e-05
1.60058e-11
6.64091e-11
5.09509e-05
-1.06751e-11
3.08124e-11
-5.60808e-12
-9.70433e-11
5.98633e-05
9.62773e-12
6.45397e-11
5.98633e-05
-6.27666e-12
5.09176e-11
-3.70519e-12
-1.15136e-10
7.00764e-05
4.41172e-12
6.37492e-11
7.00764e-05
-2.87484e-12
7.50693e-11
-1.75736e-12
-1.39361e-10
8.16956e-05
-1.84134e-13
6.72607e-11
8.16956e-05
-3.79344e-13
9.85823e-11
4.32833e-13
-1.66206e-10
8.16954e-05
-4.85125e-12
6.75363e-11
8.16954e-05
2.18257e-12
9.82218e-11
2.46032e-12
-1.65408e-10
7.0076e-05
-1.0091e-11
6.38229e-11
7.00759e-05
5.80367e-12
7.39671e-11
4.38509e-12
-1.39099e-10
5.98628e-05
-1.66386e-11
6.53096e-11
5.98627e-05
1.05045e-11
4.93226e-11
6.33277e-12
-1.15066e-10
5.09504e-05
-2.38069e-11
6.67781e-11
5.09504e-05
1.55546e-11
2.96306e-11
8.36753e-12
-9.6057e-11
4.3231e-05
-3.03503e-11
6.70791e-11
4.3231e-05
2.05907e-11
1.38937e-11
9.81179e-12
-8.07191e-11
3.65906e-05
-3.52059e-11
6.35939e-11
3.65905e-05
2.44355e-11
7.13212e-12
1.07485e-11
-7.04169e-11
3.09037e-05
-3.65864e-11
5.68803e-11
3.09037e-05
2.58235e-11
8.37334e-12
1.07023e-11
-6.50922e-11
2.60371e-05
-3.34216e-11
4.56375e-11
2.60371e-05
2.40492e-11
1.36511e-11
9.31414e-12
-5.92959e-11
2.18598e-05
-2.64425e-11
3.83906e-11
2.18598e-05
1.96436e-11
1.73257e-11
6.76914e-12
-5.58332e-11
1.8252e-05
-1.75753e-11
2.93758e-11
1.8252e-05
1.37164e-11
1.91256e-11
3.8581e-12
-4.86254e-11
1.51102e-05
-8.95712e-12
1.93036e-11
1.51102e-05
7.92696e-12
1.90106e-11
1.04561e-12
-3.83847e-11
1.23475e-05
-2.35164e-12
1.50733e-11
1.23475e-05
3.4306e-12
1.50331e-11
-1.05942e-12
-3.012e-11
9.88741e-06
1.00887e-12
1.69961e-11
9.88741e-06
6.81671e-13
9.62177e-12
-1.67585e-12
-2.65899e-11
7.65029e-06
1.73251e-12
1.89554e-11
7.65029e-06
-5.10906e-13
3.3801e-12
-1.21274e-12
-2.23051e-11
5.33879e-06
1.5576e-11
5.33879e-06
-2.58474e-12
-1.29628e-11
6.77525e-06
-2.22175e-12
2.04969e-11
6.77525e-06
4.19997e-13
-2.88733e-12
2.19478e-12
-1.93868e-11
9.45911e-06
-1.37462e-12
2.35373e-11
9.45911e-06
-7.43744e-13
4.18033e-12
2.61884e-12
-2.82427e-11
1.21517e-05
2.48381e-12
2.02708e-11
1.21517e-05
-3.61523e-12
1.25412e-11
1.66397e-12
-3.29525e-11
1.5155e-05
9.97211e-12
1.72658e-11
1.5155e-05
-8.59043e-12
1.99375e-11
-8.35833e-13
-3.72922e-11
1.85504e-05
1.98166e-11
2.22527e-11
1.85504e-05
-1.52407e-11
2.5422e-11
-4.04309e-12
-4.75999e-11
2.24204e-05
3.00344e-11
3.42946e-11
2.24204e-05
-2.2315e-11
2.5667e-11
-7.2214e-12
-5.97749e-11
2.68639e-05
3.81529e-11
4.54741e-11
2.68639e-05
-2.7803e-11
2.35134e-11
-9.9084e-12
-6.87023e-11
3.20035e-05
4.212e-11
5.52628e-11
3.20035e-05
-3.01925e-11
1.83878e-11
-1.16039e-11
-7.30854e-11
3.79842e-05
4.09962e-11
6.89936e-11
3.79841e-05
-2.88911e-11
1.23738e-11
-1.1945e-11
-8.06461e-11
4.49663e-05
3.57154e-11
7.79498e-11
4.49663e-05
-2.46606e-11
1.11976e-11
-1.11272e-11
-8.80859e-11
5.31142e-05
2.77136e-11
8.31109e-11
5.31142e-05
-1.87369e-11
1.95041e-11
-9.24795e-12
-1.01738e-10
6.25837e-05
1.92469e-11
8.11577e-11
6.25837e-05
-1.28776e-11
4.06322e-11
-6.69929e-12
-1.21553e-10
7.3516e-05
1.15935e-11
7.80815e-11
7.3516e-05
-7.55827e-12
6.65289e-11
-4.45487e-12
-1.442e-10
8.60457e-05
5.32034e-12
7.61342e-11
8.60457e-05
-3.45527e-12
9.73551e-11
-2.12616e-12
-1.7419e-10
0.000100305
-2.11804e-13
7.96522e-11
0.000100305
-4.43599e-13
1.27413e-10
5.02746e-13
-2.07537e-10
0.000100304
-5.82804e-12
8.00098e-11
0.000100304
2.64666e-12
1.26955e-10
2.9415e-12
-2.06528e-10
8.60452e-05
-1.21331e-11
7.62421e-11
8.60451e-05
7.00933e-12
9.59566e-11
5.24207e-12
-1.73866e-10
7.35154e-05
-1.99833e-11
7.90681e-11
7.35154e-05
1.26839e-11
6.45005e-11
7.53565e-12
-1.44121e-10
6.25832e-05
-2.84775e-11
8.16342e-11
6.25832e-05
1.87809e-11
3.91261e-11
9.8346e-12
-1.2031e-10
5.31138e-05
-3.61017e-11
8.25955e-11
5.31138e-05
2.47986e-11
1.87268e-11
1.13636e-11
-1.00991e-10
4.49658e-05
-4.17e-11
7.8887e-11
4.49658e-05
2.93288e-11
9.71389e-12
1.23426e-11
-8.82026e-11
3.79837e-05
-4.3106e-11
7.01526e-11
3.79837e-05
3.08523e-11
1.11649e-11
1.21778e-11
-8.11088e-11
3.20031e-05
-3.90604e-11
5.58297e-11
3.20031e-05
2.85144e-11
1.79303e-11
1.04759e-11
-7.37731e-11
2.68636e-05
-3.08404e-11
4.61737e-11
2.68636e-05
2.29897e-11
2.30444e-11
7.81524e-12
-6.93697e-11
2.24201e-05
-2.05155e-11
3.43629e-11
2.24201e-05
1.57721e-11
2.57341e-11
4.74148e-12
-6.02544e-11
1.85502e-05
-1.04407e-11
2.17932e-11
1.85502e-05
8.92874e-12
2.573e-11
1.52891e-12
-4.76127e-11
1.51548e-05
-2.75431e-12
1.66662e-11
1.51548e-05
3.7903e-12
2.05435e-11
-1.0135e-12
-3.72289e-11
1.21515e-05
1.25723e-12
1.93283e-11
1.21515e-05
7.9947e-13
1.32327e-11
-2.03887e-12
-3.25285e-11
9.459e-06
2.24426e-12
2.26275e-11
9.459e-06
-4.54792e-13
4.91643e-12
-1.77797e-12
-2.75071e-11
6.77517e-06
2.09152e-11
6.77517e-06
-3.27272e-12
-1.76025e-11
8.54948e-06
-2.89962e-12
2.73004e-11
8.54948e-06
4.18953e-13
-3.87378e-12
2.8715e-12
-2.55948e-11
1.16844e-05
-1.70195e-12
2.78339e-11
1.16844e-05
-7.85463e-13
5.61449e-12
3.03108e-12
-3.41263e-11
1.4911e-05
2.90911e-12
2.29071e-11
1.4911e-05
-3.87488e-12
1.62881e-11
1.56635e-12
-3.93925e-11
1.85574e-05
1.1581e-11
1.89161e-11
1.85574e-05
-9.54131e-12
2.58749e-11
-1.42054e-12
-4.48984e-11
2.27121e-05
2.30157e-11
2.47934e-11
2.27121e-05
-1.74082e-11
3.26168e-11
-4.99908e-12
-5.73247e-11
2.74648e-05
3.49017e-11
3.96393e-11
2.74648e-05
-2.60926e-11
3.25923e-11
-8.23671e-12
-7.20089e-11
3.29264e-05
4.42433e-11
5.49284e-11
3.29264e-05
-3.30739e-11
2.88839e-11
-1.066e-11
-8.34641e-11
3.92392e-05
4.90687e-11
6.84847e-11
3.92392e-05
-3.62918e-11
2.1271e-11
-1.23964e-11
-8.90616e-11
4.65767e-05
4.81454e-11
8.57441e-11
4.65767e-05
-3.49442e-11
1.29139e-11
-1.30084e-11
-9.77489e-11
5.51344e-05
4.21837e-11
9.784e-11
5.51344e-05
-2.99719e-11
1.08368e-11
-1.2291e-11
-1.07343e-10
6.51142e-05
3.29817e-11
1.04129e-10
6.51141e-05
-2.28448e-11
2.08528e-11
-1.0452e-11
-1.23868e-10
7.67086e-05
2.30401e-11
1.01443e-10
7.67086e-05
-1.56995e-11
4.71655e-11
-7.72849e-12
-1.48298e-10
9.0093e-05
1.39353e-11
9.6949e-11
9.0093e-05
-9.19579e-12
7.95309e-11
-5.22904e-12
-1.75968e-10
0.000105435
6.4132e-12
9.37786e-11
0.000105435
-4.19251e-12
1.17697e-10
-2.52568e-12
-2.12361e-10
0.000122898
-2.42155e-13
9.74133e-11
0.000122898
-5.04932e-13
1.54659e-10
5.69807e-13
-2.52671e-10
0.000122898
-6.99473e-12
9.78658e-11
0.000122898
3.27391e-12
1.54089e-10
3.44772e-12
-2.51422e-10
0.000105434
-1.45567e-11
9.39302e-11
0.000105434
8.57862e-12
1.15956e-10
6.11889e-12
-2.11968e-10
9.00923e-05
-2.38821e-11
9.81865e-11
9.00922e-05
1.5494e-11
7.70037e-11
8.66654e-12
-1.7588e-10
7.6708e-05
-3.38663e-11
1.0207e-10
7.67079e-05
2.29185e-11
4.52766e-11
1.11135e-11
-1.46784e-10
6.51136e-05
-4.26155e-11
1.0344e-10
6.51136e-05
3.01358e-11
1.9938e-11
1.25479e-11
-1.22949e-10
5.51337e-05
-4.89389e-11
9.90365e-11
5.51337e-05
3.54615e-11
8.92156e-12
1.34371e-11
-1.07451e-10
4.65761e-05
-5.02007e-11
8.72457e-11
4.65761e-05
3.70757e-11
1.13579e-11
1.30329e-11
-9.83431e-11
3.92387e-05
-4.54103e-11
6.92407e-11
3.92387e-05
3.39337e-11
2.06525e-11
1.13937e-11
-8.99156e-11
3.2926e-05
-3.59498e-11
5.57449e-11
3.2926e-05
2.68919e-11
2.83491e-11
9.01457e-12
-8.42851e-11
2.74645e-05
-2.38468e-11
3.96779e-11
2.74645e-05
1.80399e-11
3.27105e-11
5.80285e-12
-7.25851e-11
2.27119e-05
-1.21393e-11
2.42242e-11
2.27119e-05
9.94469e-12
3.30248e-11
2.21264e-12
-5.73605e-11
1.85572e-05
-3.24232e-12
1.82466e-11
1.85572e-05
4.09151e-12
2.65917e-11
-8.24079e-13
-4.48645e-11
1.49108e-05
1.51065e-12
2.1815e-11
1.49108e-05
8.89789e-13
1.71071e-11
-2.37943e-12
-3.88854e-11
1.16843e-05
2.82908e-12
2.67585e-11
1.16843e-05
-3.87332e-13
6.47414e-12
-2.42744e-12
-3.31891e-11
8.54939e-06
2.76172e-11
8.54939e-06
-4.17186e-12
-2.33911e-11
1.07265e-05
-3.60053e-12
3.57858e-11
1.07265e-05
4.75845e-13
-5.35361e-12
3.4776e-12
-3.29531e-11
1.44258e-05
-2.03585e-12
3.29389e-11
1.44258e-05
-7.08718e-13
6.79348e-12
3.30226e-12
-4.0615e-11
1.82828e-05
3.44324e-12
2.59885e-11
1.82828e-05
-3.99489e-12
1.99529e-11
1.20177e-12
-4.62311e-11
2.26889e-05
1.34103e-11
2.09451e-11
2.26889e-05
-1.04311e-11
3.1919e-11
-2.29942e-12
-5.30012e-11
2.7751e-05
2.65674e-11
2.74795e-11
2.7751e-05
-1.97075e-11
3.98377e-11
-6.18451e-12
-6.72273e-11
3.35699e-05
4.04232e-11
4.54067e-11
3.35699e-05
-3.03584e-11
3.91609e-11
-9.42337e-12
-8.43109e-11
4.02694e-05
5.15063e-11
6.62054e-11
4.02695e-05
-3.94162e-11
3.28755e-11
-1.15147e-11
-9.86665e-11
4.80125e-05
5.70886e-11
8.5918e-11
4.80125e-05
-4.40222e-11
2.10696e-11
-1.26336e-11
-1.06151e-10
5.70037e-05
5.59187e-11
1.08948e-10
5.70037e-05
-4.28122e-11
8.39159e-12
-1.28914e-11
-1.16213e-10
6.74794e-05
4.93887e-11
1.25367e-10
6.74794e-05
-3.69589e-11
3.73332e-12
-1.25211e-11
-1.27461e-10
7.96866e-05
3.90205e-11
1.33658e-10
7.96866e-05
-2.83019e-11
1.43484e-11
-1.10765e-11
-1.46627e-10
9.38628e-05
2.73303e-11
1.31251e-10
9.38628e-05
-1.94516e-11
4.5292e-11
-8.32722e-12
-1.76143e-10
0.000110225
1.65583e-11
1.25639e-10
0.000110225
-1.13673e-11
8.40118e-11
-5.7523e-12
-2.09025e-10
0.000128982
7.64921e-12
1.21566e-10
0.000128982
-5.16374e-12
1.29437e-10
-2.83672e-12
-2.52099e-10
0.000150336
-2.68417e-13
1.26247e-10
0.000150336
-5.53586e-13
1.72779e-10
6.18155e-13
-2.99772e-10
0.000150336
-8.29467e-12
1.26805e-10
0.000150336
4.16055e-12
1.72085e-10
3.82957e-12
-2.98257e-10
0.000128981
-1.72522e-11
1.21776e-10
0.000128981
1.07046e-11
1.27279e-10
6.71334e-12
-2.51606e-10
0.000110224
-2.82722e-11
1.27161e-10
0.000110224
1.92582e-11
8.09284e-11
9.3384e-12
-2.08938e-10
9.3862e-05
-4.00299e-11
1.32075e-10
9.3862e-05
2.84296e-11
4.29713e-11
1.17957e-11
-1.74355e-10
7.9686e-05
-4.98538e-11
1.32753e-10
7.9686e-05
3.7158e-11
1.33176e-11
1.27786e-11
-1.45529e-10
6.74786e-05
-5.67896e-11
1.2684e-10
6.74786e-05
4.34253e-11
1.30965e-12
1.33241e-11
-1.2752e-10
5.7003e-05
-5.83732e-11
1.10856e-10
5.7003e-05
4.49477e-11
6.42288e-12
1.33199e-11
-1.16953e-10
4.80119e-05
-5.28973e-11
8.69423e-11
4.80119e-05
4.04398e-11
2.02332e-11
1.23599e-11
-1.07206e-10
4.0269e-05
-4.16794e-11
6.7135e-11
4.0269e-05
3.12962e-11
3.22643e-11
1.03316e-11
-9.96365e-11
3.35695e-05
-2.75569e-11
4.53933e-11
3.35695e-05
2.04571e-11
3.9339e-11
7.09289e-12
-8.49737e-11
2.77507e-05
-1.40933e-11
2.68067e-11
2.77507e-05
1.09199e-11
4.03516e-11
3.19245e-12
-6.72958e-11
2.26886e-05
-3.87575e-12
2.0167e-11
2.26886e-05
4.2765e-12
3.2745e-11
-3.73483e-13
-5.29465e-11
1.82826e-05
1.73584e-12
2.47529e-11
1.82826e-05
8.94147e-13
2.08942e-11
-2.60557e-12
-4.56076e-11
1.44256e-05
3.40328e-12
3.17032e-11
1.44256e-05
-3.46224e-13
7.7849e-12
-3.04004e-12
-3.94372e-11
1.07263e-05
3.58571e-11
1.07263e-05
-5.44193e-12
-3.03438e-11
1.33838e-05
-4.23938e-12
4.61642e-11
1.33838e-05
6.21232e-13
-7.63504e-12
3.89428e-12
-4.13263e-11
1.7803e-05
-2.36415e-12
3.92456e-11
1.7803e-05
-4.18384e-13
7.28699e-12
3.31163e-12
-4.76681e-11
2.2412e-05
4.18985e-12
2.99082e-11
2.2412e-05
-3.87352e-12
2.30339e-11
3.50379e-13
-5.33695e-11
2.77156e-05
1.55063e-11
2.36762e-11
2.77156e-05