/*--------------------------------*- C++ -*----------------------------------*\
  =========                 |
  \\      /  F ield         | OpenFOAM: The Open Source CFD Toolbox
   \\    /   O peration     | Website:  https://openfoam.org
    \\  /    A nd           | Version:  6
     \\/     M anipulation  |
\*---------------------------------------------------------------------------*/
FoamFile
{
    version     2.0;
    format      ascii;
    class       volVectorField;
    location    "46";
    object      wallShearStress;
}
// * * * * * * * * * * * * * * * * * * * * * * * * * * * * * * * * * * * * * //

dimensions      [0 2 -2 0 0 0 0];

internalField   uniform (0 0 0);

boundaryField
{
    inlet
    {
        type            calculated;
        value           uniform (0 0 0);
    }
    outlet
    {
        type            calculated;
        value           uniform (0 0 0);
    }
    roughCylinder
    {
        type            calculated;
        value           nonuniform List<vector> 
5120
(
(-0.000432489 -0.000621802 -0.000325639)
(-0.000382976 -0.000553387 -3.84777e-05)
(-0.000345301 -0.000540027 1.65449e-06)
(-0.000383527 -0.000603062 4.92392e-05)
(-0.000450309 -0.00068165 0.00010449)
(-0.000520805 -0.000742006 0.000156881)
(-0.000592092 -0.000781985 0.000203102)
(-0.000659853 -0.000803731 0.000241872)
(-0.000721569 -0.000811214 0.000272433)
(-0.000777184 -0.000812035 0.000295588)
(-0.000827707 -0.000813444 0.000313338)
(-0.000870257 -0.000816029 0.00032492)
(-0.000906121 -0.000822864 0.000330674)
(-0.000936776 -0.000834073 0.000331611)
(-0.000963251 -0.000849045 0.000328875)
(-0.000987173 -0.000867013 0.00032357)
(-0.00100999 -0.000887106 0.000316516)
(-0.00103313 -0.00090895 0.000308317)
(-0.00105728 -0.000932142 0.000299197)
(-0.00108282 -0.00095654 0.000289234)
(-0.00110987 -0.000982118 0.000278414)
(-0.00113841 -0.00100883 0.000266668)
(-0.00116831 -0.00103656 0.000253884)
(-0.00119937 -0.00106515 0.000239909)
(-0.00123134 -0.00109434 0.000224494)
(-0.00126383 -0.00112376 0.000207278)
(-0.00129636 -0.00115293 0.000187709)
(-0.00132823 -0.00118116 0.000165039)
(-0.00135843 -0.00120756 0.000138138)
(-0.00138545 -0.00123081 0.000105849)
(-0.00140657 -0.00124921 6.6457e-05)
(-0.00141811 -0.00125993 2.22228e-05)
(-0.000545922 -0.000712778 -0.000374165)
(-0.000416161 -0.000551308 -4.26282e-05)
(-0.000369405 -0.000529512 -4.16405e-06)
(-0.000403121 -0.000585913 4.007e-05)
(-0.000471014 -0.000664434 9.31896e-05)
(-0.000543476 -0.000726544 0.000144303)
(-0.000616707 -0.000768707 0.000189682)
(-0.000686824 -0.000793132 0.000228034)
(-0.000751857 -0.000804424 0.000258919)
(-0.000811784 -0.000809508 0.000283356)
(-0.000866001 -0.000813165 0.000302485)
(-0.000911979 -0.000815496 0.000315256)
(-0.00094957 -0.000821015 0.000321607)
(-0.000981743 -0.000831202 0.000322842)
(-0.00100975 -0.000845524 0.000320341)
(-0.00103505 -0.000862982 0.000315168)
(-0.0010594 -0.000882877 0.000308284)
(-0.00108381 -0.0009044 0.000300196)
(-0.00110927 -0.000927315 0.000291239)
(-0.00113621 -0.000951503 0.000281513)
(-0.00116474 -0.000976872 0.000270995)
(-0.00119478 -0.00100333 0.000259605)
(-0.0012262 -0.00103078 0.00024723)
(-0.00125879 -0.00105904 0.000233707)
(-0.00129227 -0.00108787 0.000218788)
(-0.00132626 -0.00111689 0.00020211)
(-0.00136025 -0.00114565 0.000183121)
(-0.00139352 -0.00117348 0.000161081)
(-0.001425 -0.00119947 0.000134875)
(-0.00145313 -0.00122235 0.000103371)
(-0.00147511 -0.00124048 6.48946e-05)
(-0.00148714 -0.00125101 2.169e-05)
(-0.00059862 -0.000702568 -0.000360331)
(-0.000450193 -0.000541942 -4.66534e-05)
(-0.000392459 -0.000511939 -1.10915e-05)
(-0.000421363 -0.000562677 2.99969e-05)
(-0.000489978 -0.000640789 8.09183e-05)
(-0.000564024 -0.000704168 0.000130594)
(-0.000639096 -0.000748524 0.000175101)
(-0.000711965 -0.000776349 0.000213317)
(-0.000780816 -0.000792048 0.000244929)
(-0.000844774 -0.000801006 0.000270582)
(-0.000902635 -0.000806911 0.000290751)
(-0.000952337 -0.000810286 0.000304659)
(-0.000992011 -0.000814128 0.000311545)
(-0.00102581 -0.000823277 0.000313166)
(-0.00105533 -0.000836669 0.000310904)
(-0.0010822 -0.000853535 0.000305964)
(-0.00110776 -0.000872749 0.000299203)
(-0.00113366 -0.000893916 0.000291335)
(-0.00116059 -0.000916504 0.000282631)
(-0.00118891 -0.000940281 0.000273183)
(-0.0012188 -0.000965181 0.000262993)
(-0.00125025 -0.000991155 0.000251992)
(-0.00128311 -0.00101809 0.000240061)
(-0.00131716 -0.00104581 0.000227034)
(-0.0013521 -0.00107407 0.000212658)
(-0.00138754 -0.00110251 0.000196564)
(-0.00142291 -0.00113066 0.000178201)
(-0.00145748 -0.00115787 0.000156838)
(-0.00149016 -0.00118328 0.000131378)
(-0.00151934 -0.00120564 0.000100718)
(-0.00154212 -0.00122335 6.32234e-05)
(-0.00155459 -0.00123362 2.11213e-05)
(-0.000627522 -0.000661119 -0.00032292)
(-0.000471395 -0.000512834 -5.05044e-05)
(-0.000410894 -0.000487234 -1.80618e-05)
(-0.000435145 -0.000533336 1.97423e-05)
(-0.000503742 -0.000610358 6.78973e-05)
(-0.000579546 -0.000675366 0.000115909)
(-0.000657023 -0.000722703 0.000159539)
(-0.000732949 -0.000754435 0.00019767)
(-0.00080536 -0.00077441 0.000229986)
(-0.000873343 -0.000787264 0.000256871)
(-0.000934854 -0.000795427 0.000278064)
(-0.000987776 -0.000799984 0.000292793)
(-0.00103108 -0.000803468 0.000300618)
(-0.00106656 -0.000811026 0.000302677)
(-0.00109781 -0.000823398 0.000300756)
(-0.00112611 -0.000839324 0.000296062)
(-0.00115345 -0.000858097 0.000289633)
(-0.00118068 -0.000878618 0.000281999)
(-0.00120887 -0.000900578 0.000273554)
(-0.00123859 -0.000923831 0.000264445)
(-0.00126993 -0.000948226 0.000254658)
(-0.00130282 -0.000973642 0.000244106)
(-0.00133711 -0.000999961 0.000232671)
(-0.00137256 -0.00102702 0.00022018)
(-0.00140886 -0.00105455 0.000206375)
(-0.0014456 -0.00108222 0.00019089)
(-0.00148223 -0.00110959 0.000173176)
(-0.001518 -0.00113604 0.00015251)
(-0.00155175 -0.00116072 0.000127816)
(-0.00158186 -0.00118242 9.80161e-05)
(-0.00160537 -0.00119961 6.15247e-05)
(-0.00161822 -0.00120956 2.05441e-05)
(-0.000637876 -0.000596632 -0.000280298)
(-0.000487966 -0.000483792 -5.32688e-05)
(-0.00042624 -0.000458277 -2.44921e-05)
(-0.00044478 -0.000500002 9.40585e-06)
(-0.000512767 -0.000575553 5.4504e-05)
(-0.000589902 -0.000641623 0.00010055)
(-0.000669286 -0.00069138 0.000143001)
(-0.000748165 -0.000726891 0.00018089)
(-0.000824536 -0.000751449 0.000213919)
(-0.000896165 -0.000767785 0.000241853)
(-0.000961217 -0.000778156 0.000264071)
(-0.00101783 -0.00078423 0.000279694)
(-0.0010649 -0.000788222 0.000288487)
(-0.00110329 -0.000794319 0.000291308)
(-0.00113628 -0.000805357 0.000289856)
(-0.00116653 -0.00082039 0.000285598)
(-0.00119508 -0.000838023 0.00027943)
(-0.00122389 -0.000857879 0.000272168)
(-0.00125367 -0.000879294 0.000264126)
(-0.00128474 -0.000901869 0.000255413)
(-0.00131733 -0.000925493 0.000246048)
(-0.00135147 -0.000950113 0.000235974)
(-0.00138702 -0.000975604 0.000225061)
(-0.00142372 -0.00100179 0.000213137)
(-0.00146126 -0.00102843 0.00019994)
(-0.00149921 -0.00105519 0.000185096)
(-0.00153697 -0.00108163 0.000168057)
(-0.00157378 -0.00110714 0.000148109)
(-0.0016085 -0.00113093 0.000124197)
(-0.00163942 -0.00115184 9.52753e-05)
(-0.00166356 -0.00116841 5.98038e-05)
(-0.00167673 -0.00117799 1.99607e-05)
(-0.000568948 -0.000476266 -0.000205497)
(-0.000503065 -0.000446678 -5.54941e-05)
(-0.00043926 -0.000427697 -3.17714e-05)
(-0.000448676 -0.000462236 -1.13654e-06)
(-0.000514674 -0.00053512 4.06955e-05)
(-0.000593086 -0.000602408 8.4433e-05)
(-0.00067514 -0.000655434 0.000125575)
(-0.000757495 -0.000695126 0.000163146)
(-0.000837133 -0.000723366 0.00019655)
(-0.000912566 -0.000743088 0.000225423)
(-0.000981379 -0.000755774 0.000248686)
(-0.00104141 -0.000763046 0.000265182)
(-0.00109248 -0.000768073 0.000274955)
(-0.00113481 -0.000773742 0.000278806)
(-0.0011703 -0.000782955 0.000278071)
(-0.00120213 -0.000796435 0.00027428)
(-0.00123291 -0.000813369 0.000268702)
(-0.00126319 -0.000832244 0.000261865)
(-0.00129415 -0.000852627 0.000254223)
(-0.00132657 -0.000874346 0.00024598)
(-0.00136059 -0.00089719 0.000237144)
(-0.00139609 -0.000920962 0.000227625)
(-0.00143291 -0.000945544 0.0002173)
(-0.00147083 -0.000970754 0.000205991)
(-0.00150949 -0.000996344 0.000193429)
(-0.00154848 -0.00102201 0.000179246)
(-0.00158722 -0.00104734 0.000162899)
(-0.00162494 -0.00107177 0.000143682)
(-0.00166047 -0.00109454 0.000120563)
(-0.00169208 -0.00111452 9.25242e-05)
(-0.00171674 -0.00113036 5.80796e-05)
(-0.00173017 -0.00113952 1.93778e-05)
(-0.000640632 -0.000475232 -0.000188372)
(-0.000505934 -0.000404524 -5.74066e-05)
(-0.000441345 -0.000388716 -3.74848e-05)
(-0.000446838 -0.000421885 -1.10902e-05)
(-0.000510796 -0.000492475 2.68643e-05)
(-0.000589963 -0.000560438 6.78664e-05)
(-0.00067351 -0.000615538 0.000107224)
(-0.000758302 -0.000658331 0.000144023)
(-0.000842108 -0.000690792 0.000177759)
(-0.0009213 -0.000713578 0.000207355)
(-0.000993701 -0.000728308 0.00023153)
(-0.00105804 -0.000737352 0.000249184)
(-0.00111289 -0.000743147 0.000259962)
(-0.00115943 -0.000749208 0.000264911)
(-0.00119863 -0.000757356 0.00026519)
(-0.00123341 -0.000769357 0.00026228)
(-0.0012655 -0.000784275 0.000257183)
(-0.00129754 -0.000801993 0.000250949)
(-0.00133034 -0.000821563 0.000243929)
(-0.00136417 -0.000842317 0.000236247)
(-0.00139931 -0.000864061 0.000227958)
(-0.00143589 -0.000886719 0.000219023)
(-0.00147376 -0.000910145 0.000209313)
(-0.00151268 -0.000934171 0.000198648)
(-0.00155234 -0.000958574 0.000186762)
(-0.00159226 -0.000983029 0.000173277)
(-0.00163184 -0.00100713 0.000157649)
(-0.0016703 -0.00103034 0.000139183)
(-0.0017065 -0.00105196 0.000116873)
(-0.0017387 -0.00107092 8.97356e-05)
(-0.00176379 -0.00108596 5.63364e-05)
(-0.00177737 -0.00109465 1.87899e-05)
(-0.000587695 -0.000386727 -0.000137987)
(-0.000519023 -0.000372 -5.9356e-05)
(-0.000446054 -0.00035501 -4.3565e-05)
(-0.000437881 -0.000378986 -2.06686e-05)
(-0.000497164 -0.000445117 1.3009e-05)
(-0.000576375 -0.000513188 5.06686e-05)
(-0.000662361 -0.000571259 8.79041e-05)
(-0.000751139 -0.000618362 0.000123811)
(-0.000837925 -0.000653819 0.000157323)
(-0.000921034 -0.000679558 0.000187435)
(-0.000997914 -0.000696792 0.00021258)
(-0.00106596 -0.000707079 0.000231266)
(-0.00112538 -0.000714045 0.000243364)
(-0.00117573 -0.000720203 0.000249442)
(-0.00121913 -0.000728174 0.000250924)
(-0.0012568 -0.000738652 0.000248936)
(-0.00129258 -0.000752683 0.000244964)
(-0.00132664 -0.000768909 0.000239518)
(-0.0013606 -0.000786835 0.000233095)
(-0.00139577 -0.000806284 0.000226054)
(-0.00143237 -0.000826922 0.000218454)
(-0.00147025 -0.000848442 0.000210207)
(-0.00150929 -0.000870692 0.000201195)
(-0.00154924 -0.000893481 0.000191236)
(-0.00158974 -0.000916562 0.000180056)
(-0.00163039 -0.000939657 0.000167287)
(-0.00167061 -0.000962397 0.00015239)
(-0.00170967 -0.000984285 0.000134685)
(-0.00174637 -0.00100462 0.000113188)
(-0.00177898 -0.00102243 8.69511e-05)
(-0.00180437 -0.00103659 5.45994e-05)
(-0.00181804 -0.00104483 1.82072e-05)
(-0.000607554 -0.00035393 -0.000106224)
(-0.000507825 -0.00032251 -6.00685e-05)
(-0.000439257 -0.00031531 -4.85793e-05)
(-0.000423407 -0.000335729 -2.96705e-05)
(-0.000476932 -0.000397134 -4.67757e-07)
(-0.000555848 -0.000465093 3.34403e-05)
(-0.000642413 -0.00052447 6.79124e-05)
(-0.000732144 -0.000573303 0.000102041)
(-0.000823349 -0.000612747 0.000135166)
(-0.000910796 -0.000641556 0.000165543)
(-0.000991519 -0.000660686 0.000191348)
(-0.00106481 -0.000673082 0.000211351)
(-0.00112848 -0.000680863 0.000224791)
(-0.00118369 -0.000687625 0.000232398)
(-0.00123069 -0.000695033 0.000235124)
(-0.00127281 -0.000705193 0.00023453)
(-0.00131063 -0.000717566 0.000231496)
(-0.00134713 -0.000732403 0.000227028)
(-0.00138368 -0.000749253 0.000221587)
(-0.00142064 -0.000767443 0.00021539)
(-0.00145838 -0.000786628 0.000208535)
(-0.00149723 -0.000806714 0.000201026)
(-0.0015371 -0.000827518 0.000192752)
(-0.00157776 -0.000848849 0.000183536)
(-0.00161895 -0.000870505 0.000173114)
(-0.00166019 -0.000892174 0.000161109)
(-0.0017009 -0.000913482 0.000146983)
(-0.00174033 -0.000933943 0.000130064)
(-0.0017774 -0.000952957 0.000109407)
(-0.00181035 -0.0009696 8.41021e-05)
(-0.00183594 -0.000982843 5.28296e-05)
(-0.00184946 -0.000990548 1.76152e-05)
(-0.000659635 -0.00033389 -8.85481e-05)
(-0.000509028 -0.000290825 -6.08098e-05)
(-0.000426393 -0.000274971 -5.25103e-05)
(-0.000399421 -0.000290079 -3.75655e-05)
(-0.00044453 -0.000345146 -1.33057e-05)
(-0.00052067 -0.000410981 1.60365e-05)
(-0.000608711 -0.000472383 4.71128e-05)
(-0.00070352 -0.000526077 7.93116e-05)
(-0.000797351 -0.000568021 0.000111255)
(-0.000888733 -0.00059951 0.000141465)
(-0.000975119 -0.000621601 0.000168037)
(-0.00105257 -0.000635205 0.000189058)
(-0.0011217 -0.000644339 0.000204127)
(-0.00118115 -0.000651158 0.000213294)
(-0.00123319 -0.000658669 0.000217745)
(-0.00127799 -0.00066744 0.000218412)
(-0.00132009 -0.00067928 0.000216873)
(-0.00135932 -0.000692874 0.000213576)
(-0.00139728 -0.000707994 0.000209076)
(-0.00143572 -0.0007247 0.000203822)
(-0.00147513 -0.000742658 0.000197922)
(-0.00151533 -0.000761461 0.000191316)
(-0.00155628 -0.000780921 0.000183908)
(-0.0015978 -0.000800847 0.000175535)
(-0.00163949 -0.000820981 0.000165923)
(-0.00168103 -0.000841094 0.000154717)
(-0.00172194 -0.000860856 0.000141391)
(-0.00176155 -0.000879852 0.000125294)
(-0.00179872 -0.000897478 0.000105506)
(-0.00183176 -0.000912894 8.11617e-05)
(-0.00185734 -0.000925164 5.10045e-05)
(-0.00187065 -0.000932272 1.70061e-05)
(-0.000526159 -0.000233742 -4.45243e-05)
(-0.000481872 -0.000241255 -5.98089e-05)
(-0.00040906 -0.000236616 -5.63349e-05)
(-0.00037021 -0.000246268 -4.43511e-05)
(-0.000405402 -0.000294256 -2.48468e-05)
(-0.000479769 -0.00035877 -5.76579e-07)
(-0.000567107 -0.000420443 2.63528e-05)
(-0.000659712 -0.000473577 5.52896e-05)
(-0.000758133 -0.000519468 8.56563e-05)
(-0.000854798 -0.000554525 0.000115373)
(-0.000945132 -0.000578425 0.00014213)
(-0.00102919 -0.000594612 0.000164466)
(-0.00110325 -0.000604549 0.000181073)
(-0.0011687 -0.000612168 0.000192239)
(-0.00122464 -0.000618955 0.000198411)
(-0.00127514 -0.000627713 0.000201072)
(-0.00131931 -0.000637694 0.000200849)
(-0.00136103 -0.000649787 0.000198872)
(-0.00140205 -0.000663888 0.000195726)
(-0.00144251 -0.000679258 0.000191621)
(-0.00148287 -0.000695526 0.000186692)
(-0.00152377 -0.000712652 0.000181012)
(-0.0015652 -0.00073043 0.000174502)
(-0.00160699 -0.000748654 0.000167003)
(-0.00164897 -0.000767162 0.000158271)
(-0.00169067 -0.000785664 0.000147932)
(-0.00173158 -0.000803832 0.000135465)
(-0.00177103 -0.000821253 0.000120234)
(-0.00180809 -0.000837441 0.000101368)
(-0.00184102 -0.000851604 7.80431e-05)
(-0.00186646 -0.000862868 4.9071e-05)
(-0.00187942 -0.00086933 1.6362e-05)
(-0.000483833 -0.00018399 -2.19574e-05)
(-0.000427986 -0.000189977 -5.58861e-05)
(-0.000370149 -0.000191803 -5.6449e-05)
(-0.000331329 -0.000201908 -4.88844e-05)
(-0.000352851 -0.000240487 -3.42707e-05)
(-0.00041898 -0.000298834 -1.58074e-05)
(-0.000505449 -0.000360584 5.90122e-06)
(-0.000605648 -0.000420141 3.11107e-05)
(-0.000706002 -0.000468178 5.87827e-05)
(-0.000806104 -0.00050571 8.71925e-05)
(-0.000903743 -0.000533534 0.000114191)
(-0.000992325 -0.000551012 0.000137319)
(-0.00107316 -0.000562647 0.000155734)
(-0.00114333 -0.000570163 0.000168792)
(-0.00120571 -0.000577263 0.000177278)
(-0.00125876 -0.000584244 0.000181657)
(-0.00130832 -0.00059378 0.000183497)
(-0.00135354 -0.000604653 0.000183191)
(-0.00139585 -0.000616733 0.000181315)
(-0.0014377 -0.000630346 0.000178428)
(-0.0014799 -0.000645245 0.000174723)
(-0.0015222 -0.000660951 0.000170172)
(-0.00156462 -0.000677241 0.000164714)
(-0.00160709 -0.000693937 0.000158217)
(-0.00164919 -0.000710772 0.000150417)
(-0.00169073 -0.000727554 0.000140978)
(-0.00173131 -0.000744036 0.000129395)
(-0.00177046 -0.000759874 0.00011506)
(-0.00180713 -0.000774567 9.71347e-05)
(-0.0018397 -0.000787428 7.48507e-05)
(-0.00186479 -0.000797645 4.7093e-05)
(-0.00187734 -0.000803456 1.57057e-05)
(-0.000441894 -0.000143048 -7.98974e-06)
(-0.000390563 -0.000155251 -5.29752e-05)
(-0.000332037 -0.000154271 -5.59543e-05)
(-0.000284887 -0.000159507 -5.07872e-05)
(-0.000295262 -0.000190036 -4.07527e-05)
(-0.00035748 -0.000245016 -2.88255e-05)
(-0.000441747 -0.000305759 -1.31414e-05)
(-0.000532971 -0.000360477 6.9874e-06)
(-0.000638006 -0.000412774 3.11863e-05)
(-0.000744747 -0.000455037 5.7687e-05)
(-0.000845761 -0.000484668 8.39081e-05)
(-0.000942694 -0.000505734 0.000108006)
(-0.00102904 -0.000518368 0.000127938)
(-0.00110685 -0.000527134 0.000143364)
(-0.00117329 -0.000533209 0.000153988)
(-0.00123384 -0.000540472 0.000161014)
(-0.00128551 -0.000547832 0.000164671)
(-0.00133327 -0.000556887 0.000166124)
(-0.00137947 -0.000567928 0.000166051)
(-0.00142382 -0.000580129 0.000164675)
(-0.00146681 -0.000593104 0.000162195)
(-0.00150949 -0.000606882 0.000158771)
(-0.00155201 -0.000621282 0.000154378)
(-0.00159426 -0.000636073 0.00014889)
(-0.00163622 -0.000651146 0.000142091)
(-0.00167747 -0.000666227 0.000133625)
(-0.00171756 -0.000681021 0.000122986)
(-0.001756 -0.000695201 0.000109587)
(-0.00179204 -0.000708392 9.26552e-05)
(-0.00182407 -0.000719941 7.14727e-05)
(-0.00184866 -0.000729117 4.50046e-05)
(-0.00186064 -0.00073425 1.5015e-05)
(-0.000327251 -9.09715e-05 9.15296e-06)
(-0.000323513 -0.000111022 -4.89276e-05)
(-0.000283903 -0.000119259 -5.47173e-05)
(-0.000237664 -0.000123031 -5.13162e-05)
(-0.000224851 -0.000137988 -4.24965e-05)
(-0.000270218 -0.000180427 -3.63566e-05)
(-0.000347895 -0.000236885 -2.79072e-05)
(-0.000452948 -0.000301933 -1.49629e-05)
(-0.000557467 -0.000355352 4.03317e-06)
(-0.00066581 -0.000399749 2.7337e-05)
(-0.000776431 -0.000435222 5.25103e-05)
(-0.00087764 -0.000457951 7.6656e-05)
(-0.000972357 -0.00047325 9.8216e-05)
(-0.00105498 -0.000481963 0.00011563)
(-0.00112972 -0.000488904 0.000129041)
(-0.00119227 -0.000493916 0.000138189)
(-0.00125067 -0.000500936 0.00014448)
(-0.00130304 -0.000508843 0.00014815)
(-0.00135031 -0.000517539 0.000149717)
(-0.00139587 -0.000527691 0.000149871)
(-0.00144098 -0.000539193 0.000148915)
(-0.00148527 -0.000551493 0.000146874)
(-0.00152879 -0.000564338 0.000143736)
(-0.00157164 -0.000577573 0.000139418)
(-0.00161337 -0.000590904 0.000133676)
(-0.00165393 -0.000604197 0.000126201)
(-0.00169315 -0.000617259 0.000116518)
(-0.00173077 -0.000629847 0.000104075)
(-0.00176591 -0.00064152 8.81418e-05)
(-0.00179711 -0.00065175 6.80656e-05)
(-0.00182098 -0.000659862 4.29013e-05)
(-0.00183236 -0.000664357 1.4323e-05)
(-0.000190236 -4.32763e-05 1.6648e-05)
(-0.000228885 -6.79131e-05 -4.08913e-05)
(-0.000214566 -8.2203e-05 -5.00274e-05)
(-0.000178897 -8.70424e-05 -4.76962e-05)
(-0.000158575 -9.40643e-05 -3.99962e-05)
(-0.000189623 -0.000125224 -3.87475e-05)
(-0.000267411 -0.00018137 -3.93656e-05)
(-0.000347854 -0.000232096 -3.2726e-05)
(-0.000459155 -0.000292103 -2.04915e-05)
(-0.000576235 -0.000343483 -2.07555e-06)
(-0.000687825 -0.000380641 2.04601e-05)
(-0.00079959 -0.00040907 4.43435e-05)
(-0.000899701 -0.000426056 6.67908e-05)
(-0.000991944 -0.000437266 8.64988e-05)
(-0.00107018 -0.00044313 0.00010217)
(-0.0011426 -0.000449186 0.000114444)
(-0.00120287 -0.000453826 0.000122968)
(-0.00125748 -0.000459602 0.000128774)
(-0.00130968 -0.000467321 0.000132588)
(-0.00135844 -0.000476075 0.000134632)
(-0.00140412 -0.000485459 0.000135162)
(-0.00144835 -0.00049563 0.00013445)
(-0.00149151 -0.000506438 0.000132543)
(-0.00153351 -0.000517634 0.000129363)
(-0.00157461 -0.000529169 0.00012474)
(-0.00161443 -0.000540763 0.000118337)
(-0.00165263 -0.000552175 0.000109673)
(-0.00168892 -0.000563108 9.82223e-05)
(-0.00172289 -0.000573309 8.33422e-05)
(-0.00175309 -0.000582263 6.44426e-05)
(-0.00177611 -0.000589352 4.06685e-05)
(-0.00178667 -0.000593208 1.35903e-05)
(-7.11958e-05 -1.20052e-05 1.30734e-05)
(-0.0001291 -3.44822e-05 -2.71537e-05)
(-0.00013668 -4.74776e-05 -4.05978e-05)
(-0.000122433 -5.60722e-05 -4.29501e-05)
(-6.89739e-05 -4.07126e-05 -2.41215e-05)
(-8.05254e-05 -5.37897e-05 -2.42518e-05)
(-0.000131677 -9.09956e-05 -3.16413e-05)
(-0.000251755 -0.000169911 -4.40713e-05)
(-0.000351659 -0.000225937 -4.06366e-05)
(-0.000466125 -0.000279326 -2.83983e-05)
(-0.000591216 -0.000326268 -1.00035e-05)
(-0.000705136 -0.000356936 1.21156e-05)
(-0.000815431 -0.000378802 3.49952e-05)
(-0.000911383 -0.000390543 5.6075e-05)
(-0.00100017 -0.000398773 7.4421e-05)
(-0.00107285 -0.000402373 8.88559e-05)
(-0.00114133 -0.000407228 0.000100311)
(-0.00120191 -0.000412254 0.000108737)
(-0.00125463 -0.000417421 0.000114482)
(-0.00130411 -0.000423902 0.000118312)
(-0.00135231 -0.000431832 0.000120649)
(-0.00139851 -0.000440583 0.000121571)
(-0.00144279 -0.000449887 0.000121122)
(-0.00148547 -0.00045962 0.000119285)
(-0.00152598 -0.000469468 0.00011584)
(-0.00156455 -0.000479335 0.000110512)
(-0.00160126 -0.000489084 0.000102862)
(-0.00163624 -0.000498535 9.24154e-05)
(-0.00166877 -0.000507314 7.85758e-05)
(-0.00169766 -0.000515011 6.08384e-05)
(-0.00171959 -0.000521107 3.84508e-05)
(-0.00172934 -0.0005244 1.2867e-05)
(-1.46738e-05 -6.58257e-07 1.02226e-05)
(-4.11635e-05 -9.68944e-06 -9.18468e-06)
(-5.12599e-05 -1.47454e-05 -2.25822e-05)
(-3.81863e-05 -1.67016e-05 -2.12281e-05)
(-3.96484e-05 -2.53512e-05 -2.26027e-05)
(-5.91875e-05 -4.49207e-05 -2.8665e-05)
(-5.79226e-05 -4.43312e-05 -2.17111e-05)
(-7.96653e-05 -5.63022e-05 -2.25788e-05)
(-0.000229381 -0.000149853 -4.82917e-05)
(-0.000352172 -0.000213781 -4.89314e-05)
(-0.000471962 -0.000262443 -3.62298e-05)
(-0.000600444 -0.00030355 -1.77566e-05)
(-0.000714052 -0.00032834 4.03108e-06)
(-0.000821902 -0.000345302 2.60261e-05)
(-0.000911842 -0.000352929 4.59118e-05)
(-0.000997412 -0.000359426 6.32087e-05)
(-0.00106665 -0.00036214 7.68822e-05)
(-0.0011284 -0.000365015 8.75245e-05)
(-0.00118723 -0.000369628 9.57726e-05)
(-0.00124087 -0.000374995 0.000101783)
(-0.0012892 -0.000380761 0.000105807)
(-0.00133463 -0.000387293 0.000108216)
(-0.00137787 -0.00039452 0.000109133)
(-0.00141887 -0.000402196 0.000108539)
(-0.00145817 -0.000410318 0.000106314)
(-0.00149552 -0.000418633 0.000102145)
(-0.00153064 -0.000426895 9.55791e-05)
(-0.00156359 -0.000434832 8.61653e-05)
(-0.00159439 -0.000442277 7.3432e-05)
(-0.00162182 -0.000448832 5.6946e-05)
(-0.00164252 -0.000454006 3.60581e-05)
(-0.0016512 -0.000456743 1.20872e-05)
(2.2534e-06 3.23806e-06 1.69452e-05)
(-2.32068e-06 9.87355e-07 -1.02018e-06)
(-7.52444e-06 -1.43979e-06 -1.24676e-05)
(-1.45603e-05 -1.04601e-05 -2.16924e-05)
(-1.70842e-05 -1.66988e-05 -2.09433e-05)
(-2.86646e-05 -3.12163e-05 -2.70739e-05)
(-4.2913e-05 -4.17759e-05 -2.83199e-05)
(-4.8484e-05 -3.94214e-05 -2.3015e-05)
(-7.22304e-05 -5.00426e-05 -2.45382e-05)
(-0.000218537 -0.000133683 -5.20006e-05)
(-0.000356909 -0.000199941 -5.59941e-05)
(-0.000478329 -0.0002434 -4.234e-05)
(-0.000605169 -0.000277853 -2.37574e-05)
(-0.000713023 -0.00029651 -2.5085e-06)
(-0.000816512 -0.000309707 1.83745e-05)
(-0.000898153 -0.000313977 3.69708e-05)
(-0.000977127 -0.000318416 5.30773e-05)
(-0.00104642 -0.000321658 6.62321e-05)
(-0.00110444 -0.000323851 7.6405e-05)
(-0.00115767 -0.000326981 8.42572e-05)
(-0.00120892 -0.000331581 9.02545e-05)
(-0.00125691 -0.000336994 9.44908e-05)
(-0.00130159 -0.000342981 9.70383e-05)
(-0.00134341 -0.000349442 9.79357e-05)
(-0.00138182 -0.0003561 9.69945e-05)
(-0.00141727 -0.000362875 9.39622e-05)
(-0.00145023 -0.000369691 8.84488e-05)
(-0.00148138 -0.000376389 8.00711e-05)
(-0.00151021 -0.000382623 6.84096e-05)
(-0.00153583 -0.000388097 5.31356e-05)
(-0.00155508 -0.000392418 3.37187e-05)
(-0.0015628 -0.000394717 1.13302e-05)
(7.20136e-06 8.54381e-06 2.56724e-05)
(1.54623e-05 6.92364e-06 -1.79668e-06)
(1.87552e-05 4.59878e-06 -1.20684e-05)
(1.79058e-05 -2.93807e-06 -1.86387e-05)
(1.19878e-05 -1.17793e-05 -2.21525e-05)
(1.87617e-06 -2.00464e-05 -2.37353e-05)
(-1.19237e-05 -2.76086e-05 -2.5352e-05)
(-3.17572e-05 -3.5949e-05 -2.93198e-05)
(-6.13133e-05 -4.84298e-05 -3.44697e-05)
(-0.000117496 -7.45939e-05 -4.47254e-05)
(-0.00020247 -0.00011489 -5.21808e-05)
(-0.000356187 -0.000182306 -5.76416e-05)
(-0.000478025 -0.000220687 -4.52127e-05)
(-0.00060165 -0.000249926 -2.73088e-05)
(-0.000700332 -0.000263215 -7.13854e-06)
(-0.000799389 -0.000274081 1.23288e-05)
(-0.000876203 -0.000277191 2.97053e-05)
(-0.000944098 -0.000278805 4.44999e-05)
(-0.00100959 -0.000281567 5.6934e-05)
(-0.00106813 -0.000284404 6.69595e-05)
(-0.00111864 -0.000287097 7.46634e-05)
(-0.00116457 -0.000290409 8.04152e-05)
(-0.00120691 -0.000294422 8.43567e-05)
(-0.00124606 -0.000299006 8.65445e-05)
(-0.00128247 -0.000304169 8.68749e-05)
(-0.00131618 -0.000309694 8.50606e-05)
(-0.00134697 -0.000315322 8.06704e-05)
(-0.00137529 -0.000320762 7.33469e-05)
(-0.00140179 -0.000325921 6.28416e-05)
(-0.00142549 -0.000330472 4.8905e-05)
(-0.00144316 -0.000334051 3.11177e-05)
(-0.0014495 -0.000335898 1.04857e-05)
(1.63422e-05 1.21515e-05 3.14263e-05)
(2.86968e-05 1.1111e-05 -4.23717e-06)
(3.28517e-05 7.74225e-06 -1.27258e-05)
(3.20857e-05 1.15368e-06 -1.55323e-05)
(3.18632e-05 -6.55792e-06 -1.74133e-05)
(2.11151e-05 -1.14644e-05 -1.41178e-05)
(1.06817e-05 -1.46484e-05 -1.18684e-05)
(-1.65359e-06 -1.61233e-05 -1.17294e-05)
(-1.75908e-05 -1.90057e-05 -1.66875e-05)
(-4.06976e-05 -2.82522e-05 -2.3436e-05)
(-9.82156e-05 -5.59348e-05 -3.72439e-05)
(-0.000204893 -0.000104325 -5.22411e-05)
(-0.000353768 -0.000163988 -5.76425e-05)
(-0.000467373 -0.000195612 -4.50366e-05)
(-0.000585659 -0.000220498 -2.87495e-05)
(-0.000671844 -0.000229079 -1.01097e-05)
(-0.000760658 -0.000236907 7.65754e-06)
(-0.000838054 -0.000241105 2.37882e-05)
(-0.000899898 -0.000242061 3.75525e-05)
(-0.000955626 -0.0002431 4.90546e-05)
(-0.00100939 -0.000245418 5.85963e-05)
(-0.00105867 -0.000248334 6.61808e-05)
(-0.00110335 -0.000251776 7.18319e-05)
(-0.00114334 -0.000255582 7.55633e-05)
(-0.0011786 -0.000259698 7.72334e-05)
(-0.00120967 -0.000264025 7.65701e-05)
(-0.00123756 -0.000268555 7.32328e-05)
(-0.00126372 -0.000273129 6.69566e-05)
(-0.00128773 -0.000277389 5.75409e-05)
(-0.00130915 -0.000281122 4.48629e-05)
(-0.00132503 -0.000284053 2.86339e-05)
(-0.00133038 -0.00028561 9.68564e-06)
(2.60816e-05 1.32838e-05 3.33988e-05)
(5.23451e-05 1.54122e-05 -6.07245e-06)
(6.73755e-05 1.24717e-05 -1.84881e-05)
(6.93757e-05 3.8401e-06 -2.29434e-05)
(5.4834e-05 -5.32969e-06 -1.99031e-05)
(3.49107e-05 -1.02863e-05 -1.31639e-05)
(3.44034e-05 -1.91908e-05 -1.25415e-05)
(2.80507e-05 -2.8102e-05 -1.03247e-05)
(3.40586e-06 -2.39114e-05 -9.37918e-06)
(-2.5622e-05 -2.44433e-05 -2.0329e-05)
(-6.55249e-05 -3.69378e-05 -3.48691e-05)
(-6.95855e-05 -3.55129e-05 -2.58241e-05)
(-0.00020289 -9.32753e-05 -4.95335e-05)
(-0.000346119 -0.000145928 -5.53883e-05)
(-0.000444881 -0.000169871 -4.30898e-05)
(-0.000558507 -0.000191835 -2.88687e-05)
(-0.000638535 -0.000198994 -1.19666e-05)
(-0.000709422 -0.000202419 4.2864e-06)
(-0.00078066 -0.000206148 1.91144e-05)
(-0.000843271 -0.000208544 3.21597e-05)
(-0.00089447 -0.000209627 4.30515e-05)
(-0.000939391 -0.000210859 5.19036e-05)
(-0.000979015 -0.000212566 5.87259e-05)
(-0.00101524 -0.000214973 6.36609e-05)
(-0.0010474 -0.000217998 6.65367e-05)
(-0.00107618 -0.000221533 6.70733e-05)
(-0.00110134 -0.000225302 6.48493e-05)
(-0.00112372 -0.000228947 5.9615e-05)
(-0.00114481 -0.000232456 5.14048e-05)
(-0.00116388 -0.00023556 4.01712e-05)
(-0.00117785 -0.000237968 2.57364e-05)
(-0.00118153 -0.00023917 8.74164e-06)
(3.33221e-05 1.35889e-05 3.48233e-05)
(7.163e-05 1.81615e-05 -5.06261e-06)
(9.45698e-05 1.61687e-05 -2.02325e-05)
(0.00010622 7.45345e-06 -2.91041e-05)
(0.000106435 -5.1852e-06 -3.24609e-05)
(9.23366e-05 -1.75801e-05 -2.94342e-05)
(5.34436e-05 -1.99777e-05 -1.69961e-05)
(4.91361e-05 -3.12539e-05 -1.35176e-05)
(1.7439e-05 -1.89795e-05 -2.77977e-06)
(4.17794e-06 -2.18645e-05 -1.78712e-06)
(-1.8625e-05 -1.61741e-05 -1.07365e-05)
(-4.15033e-05 -2.15865e-05 -2.01133e-05)
(-6.83304e-05 -3.14068e-05 -2.38141e-05)
(-0.00018491 -7.91602e-05 -4.41983e-05)
(-0.000325822 -0.000126463 -5.10178e-05)
(-0.000405011 -0.000142731 -3.98738e-05)
(-0.000503832 -0.000160012 -2.72007e-05)
(-0.0005878 -0.000169517 -1.25839e-05)
(-0.00064944 -0.000172055 2.18272e-06)
(-0.000704746 -0.00017342 1.56772e-05)
(-0.000759545 -0.000175635 2.76682e-05)
(-0.000809003 -0.000177818 3.79378e-05)
(-0.000853129 -0.000180272 4.63186e-05)
(-0.000889846 -0.000182562 5.26414e-05)
(-0.000920737 -0.000185187 5.67927e-05)
(-0.000946066 -0.00018799 5.83975e-05)
(-0.00096755 -0.000191078 5.71556e-05)
(-0.000987673 -0.000194315 5.29464e-05)
(-0.00100594 -0.000197291 4.58232e-05)
(-0.00102235 -0.000199875 3.58841e-05)
(-0.0010343 -0.00020186 2.30872e-05)
(-0.00103713 -0.000202918 7.88677e-06)
(3.93533e-05 1.37082e-05 3.74926e-05)
(8.06628e-05 1.91974e-05 -2.71342e-06)
(0.0001087 1.93056e-05 -1.91933e-05)
(0.00012546 1.24365e-05 -3.0036e-05)
(0.00012989 1.31694e-07 -3.61598e-05)
(0.000123753 -1.41287e-05 -3.72927e-05)
(0.00010931 -2.8322e-05 -3.35397e-05)
(7.44474e-05 -3.30317e-05 -2.11305e-05)
(5.65752e-05 -4.00986e-05 -1.1674e-05)
(2.81353e-05 -3.29714e-05 -1.92052e-07)
(3.11169e-06 -1.52274e-05 1.29524e-06)
(-2.20833e-05 -1.71395e-05 -1.02347e-05)
(-6.61512e-05 -3.287e-05 -3.12232e-05)
(-8.85376e-05 -3.93697e-05 -2.97066e-05)
(-0.000155768 -6.18324e-05 -3.60776e-05)
(-0.000298548 -0.000107496 -4.72272e-05)
(-0.000371084 -0.000121948 -3.74925e-05)
(-0.000439271 -0.00013111 -2.48982e-05)
(-0.000515608 -0.000140194 -1.19424e-05)
(-0.000580075 -0.000145509 1.33858e-06)
(-0.000628684 -0.000147337 1.37417e-05)
(-0.000669815 -0.00014842 2.45701e-05)
(-0.000703342 -0.000149253 3.3447e-05)
(-0.000735017 -0.000150859 4.05757e-05)
(-0.000761202 -0.000152896 4.5609e-05)
(-0.000783702 -0.000155458 4.82243e-05)
(-0.000802031 -0.000158248 4.79852e-05)
(-0.000817252 -0.000160822 4.47441e-05)
(-0.000831995 -0.000163334 3.88793e-05)
(-0.000845729 -0.000165566 3.05315e-05)
(-0.000855542 -0.000167225 1.97438e-05)
(-0.000856375 -0.000167955 6.78098e-06)
(4.32998e-05 1.35639e-05 4.09479e-05)
(8.2283e-05 1.93252e-05 2.42765e-07)
(0.000111965 2.14549e-05 -1.68654e-05)