/*--------------------------------*- C++ -*----------------------------------*\
  =========                 |
  \\      /  F ield         | OpenFOAM: The Open Source CFD Toolbox
   \\    /   O peration     | Website:  https://openfoam.org
    \\  /    A nd           | Version:  6
     \\/     M anipulation  |
\*---------------------------------------------------------------------------*/
FoamFile
{
    version     2.0;
    format      ascii;
    class       volScalarField;
    location    "1.4";
    object      k;
}
// * * * * * * * * * * * * * * * * * * * * * * * * * * * * * * * * * * * * * //

dimensions      [0 2 -2 0 0 0 0];

internalField   nonuniform List<scalar> 
63432
(
0.000421835
0.000440972
0.000459719
0.000470106
0.000463906
0.00044749
0.000435576
0.000434654
0.000436814
0.000426824
0.00040549
0.000386818
0.000379398
0.000393852
0.000411844
0.000429332
0.000439962
0.000438159
0.00042792
0.000421032
0.000419475
0.000420849
0.000416905
0.000398696
0.00032702
0.000336451
0.0003482
0.000363403
0.000380756
0.000397604
0.000409933
0.000411806
0.000408085
0.000404023
0.000400942
0.000404717
0.0003979
0.000286617
0.000297005
0.000308258
0.000321123
0.000336416
0.000352611
0.000369977
0.000383724
0.000390405
0.000393026
0.000389709
0.000390556
0.00038953
0.000250406
0.00026228
0.00027477
0.000287292
0.000301117
0.000315792
0.000331866
0.000349238
0.000364005
0.000376163
0.000381083
0.000384164
0.000384276
0.00020478
0.000217049
0.000230289
0.000244263
0.000258204
0.000272293
0.000286663
0.000301318
0.000317803
0.000333946
0.000351552
0.000364042
0.000375097
0.000380671
0.000174786
0.000187143
0.000200874
0.00021585
0.000231307
0.000246799
0.000262519
0.000277235
0.00029351
0.0003087
0.00032669
0.000342619
0.000358031
0.000371912
0.000149156
0.000161248
0.000174818
0.000189883
0.000206334
0.000222896
0.000240662
0.000256927
0.000274349
0.000290126
0.000306953
0.000324171
0.000339355
0.000358041
0.000117583
0.000127656
0.000139278
0.000152592
0.000167121
0.000183765
0.000200829
0.000219711
0.000238234
0.000257339
0.000275771
0.000293189
0.000311506
0.000326347
0.000345564
0.000100045
0.000109949
0.0001211
0.000134106
0.000148173
0.000164326
0.000181518
0.000200439
0.000220325
0.000240981
0.000262075
0.000282267
0.000302879
0.000320143
0.000339092
8.60972e-05
9.5782e-05
0.000106666
0.00011925
0.000133095
0.000148684
0.000165676
0.000184375
0.000204385
0.000225876
0.000248253
0.000270879
0.000294214
0.000315089
0.000336477
7.58142e-05
8.52976e-05
9.60242e-05
0.000108358
0.000121992
0.00013739
0.000154094
0.000172707
0.000192539
0.000214041
0.000236823
0.000259984
0.000284996
0.000307489
0.000332094
6.18039e-05
6.9649e-05
7.90051e-05
8.96478e-05
0.000101935
0.000115553
0.000130953
0.000147787
0.000166354
0.000186456
0.000207751
0.000230784
0.000253556
0.000278805
0.000301029
0.000326435
6.07396e-05
6.83808e-05
7.76117e-05
8.8276e-05
0.000100621
0.000114501
0.000130116
0.000147405
0.000166293
0.000186879
0.000208476
0.000231725
0.000254507
0.00027946
0.000301606
0.000325671
6.62191e-05
7.34324e-05
8.24237e-05
9.30651e-05
0.000105516
0.000119673
0.000135669
0.000153393
0.000172805
0.000193821
0.000215928
0.000239419
0.000262626
0.000287386
0.000310031
0.000332935
8.23182e-05
8.83046e-05
9.64644e-05
0.000106565
0.000118714
0.000132705
0.000148667
0.00016638
0.000185807
0.000206787
0.000228841
0.000252198
0.000275378
0.000299872
0.000322646
0.000345364
0.000116324
0.00011929
0.000125031
0.000133202
0.000143728
0.000156368
0.000171056
0.000187631
0.000205871
0.000225738
0.000246616
0.000268849
0.000290936
0.000314344
0.000336127
0.000358329
0.000173644
0.00017145
0.00017261
0.000176742
0.000183525
0.000192765
0.000204192
0.000217758
0.000233106
0.000250304
0.00026868
0.000288559
0.000308532
0.000329819
0.000349728
0.000370362
0.000248763
0.000239923
0.000234719
0.000232782
0.00023367
0.000237266
0.000243309
0.000251867
0.000262658
0.000275754
0.000290592
0.000307273
0.000324657
0.000343375
0.000361345
0.000380054
0.000305687
0.00029197
0.0002819
0.000275123
0.000271188
0.000270032
0.000271498
0.000275747
0.000282654
0.000292285
0.000304229
0.000318372
0.00033383
0.000350695
0.000367465
0.000384889
0.00122315
0.00120849
0.00119488
0.0011837
0.00117011
0.00115554
0.00114271
0.0011333
0.00112514
0.00111269
0.00110129
0.0010894
0.00120757
0.00119277
0.00118098
0.00117152
0.00116218
0.00115016
0.00113705
0.00112626
0.00111741
0.00110932
0.00110193
0.00109075
0.00120974
0.00119036
0.00117556
0.00116496
0.00115636
0.001149
0.0011417
0.00113119
0.00112114
0.00111209
0.00110322
0.00109833
0.00109079
0.00118942
0.00117254
0.00115858
0.00114777
0.00114021
0.00113327
0.00112843
0.00112232
0.00111477
0.00110784
0.00109951
0.00109375
0.0010886
0.00116481
0.00115065
0.0011391
0.00112893
0.0011218
0.00111575
0.00111143
0.00110802
0.00110388
0.00109995
0.00109428
0.00108967
0.00108584
0.00114571
0.00113355
0.00112318
0.00111493
0.00110741
0.00110156
0.00109677
0.00109308
0.00109109
0.00108878
0.0010883
0.00108537
0.00108306
0.00108186
0.0011032
0.00109525
0.00108911
0.00108503
0.00108143
0.00107834
0.00107623
0.00107356
0.00107343
0.00107194
0.00107351
0.00107383
0.00107336
0.00107578
0.0010532
0.00105003
0.00104856
0.00104875
0.00105024
0.00105066
0.00105278
0.00105261
0.00105469
0.00105518
0.00105724
0.00106032
0.00106104
0.00106715
0.000997329
0.000996451
0.000998315
0.00100253
0.00100688
0.00101373
0.00101856
0.00102503
0.00102931
0.00103415
0.00103817
0.00104141
0.00104662
0.0010481
0.00105653
0.000928267
0.000934439
0.000941757
0.000952109
0.000961507
0.000972993
0.000983043
0.000993508
0.00100278
0.00101135
0.00101937
0.00102567
0.00103333
0.00103675
0.00104628
0.000856167
0.000869474
0.000883277
0.000899221
0.000914515
0.000930436
0.0009454
0.000960177
0.000973649
0.000986552
0.000998407
0.0010086
0.00101948
0.00102584
0.00103719
0.000786743
0.000806496
0.000826608
0.000848037
0.000868502
0.000889288
0.000908384
0.000927426
0.000944709
0.000961241
0.000976932
0.000990272
0.00100482
0.00101401
0.00102805
0.000707668
0.000729105
0.000753657
0.000778472
0.000804429
0.000829105
0.000853717
0.000876667
0.000898754
0.000919652
0.000938716
0.0009577
0.00097332
0.000990729
0.00100221
0.00101854
0.000671601
0.000693869
0.000719777
0.000746742
0.000774761
0.000802191
0.000829001
0.000854738
0.000878913
0.00090226
0.000923206
0.000944081
0.000961342
0.000980048
0.00099303
0.00101014
0.000671884
0.000689553
0.000712339
0.000737728
0.000764909
0.000792362
0.000819601
0.000846022
0.000871082
0.000895156
0.000916987
0.000938314
0.000956303
0.000975059
0.00098876
0.00100523
0.000720102
0.00072609
0.000739773
0.000758172
0.00078008
0.000803505
0.000827838
0.000852046
0.000875543
0.00089831
0.000919268
0.000939702
0.000957247
0.000975227
0.000989001
0.00100445
0.000817864
0.000806572
0.000805326
0.000811244
0.000822647
0.000837552
0.000854725
0.000873187
0.000891899
0.000910819
0.000928689
0.000946596
0.000962373
0.00097869
0.000991761
0.00100605
0.000935832
0.000909596
0.000894085
0.000886964
0.000886236
0.000890361
0.000897762
0.000907674
0.000918924
0.000931526
0.000944271
0.000957933
0.000970685
0.000984332
0.00099594
0.0010086
0.00104505
0.00100738
0.000981423
0.000964402
0.000953879
0.000948324
0.000946263
0.000947127
0.000950128
0.000955352
0.000962066
0.000970632
0.000979789
0.000990298
0.00100017
0.00101098
0.00111009
0.00106513
0.00103339
0.00101135
0.000996023
0.000985484
0.000978219
0.000973654
0.000971396
0.000971612
0.000974102
0.000978994
0.000985561
0.000993809
0.0010025
0.001012
0.00140956
0.00138714
0.00136245
0.00133805
0.00131039
0.00128441
0.00126275
0.00124721
0.00123398
0.00121473
0.00119827
0.00118123
0.00140028
0.00137495
0.00135151
0.00133026
0.00130921
0.00128599
0.00126295
0.0012442
0.00122928
0.00121528
0.00120348
0.00118608
0.00142213
0.00138937
0.00136137
0.00133822
0.00131753
0.00129903
0.00128175
0.00126143
0.00124277
0.0012266
0.00121055
0.00120128
0.00118814
0.00140929
0.00137783
0.00134926
0.00132455
0.00130432
0.00128545
0.00127064
0.00125542
0.00123934
0.00122535
0.00120953
0.00119824
0.00118725
0.0013933
0.00136334
0.00133642
0.00131108
0.00129025
0.00127129
0.00125588
0.00124293
0.00123025
0.00121936
0.0012065
0.00119641
0.00118644
0.00140136
0.00137164
0.00134395
0.00131934
0.00129569
0.00127508
0.00125647
0.00124053
0.00122806
0.00121621
0.00120858
0.00119829
0.00119052
0.00118376
0.00137183
0.00134384
0.00131832
0.00129631
0.0012755
0.00125645
0.0012399
0.00122381
0.0012127
0.00120058
0.00119426
0.00118703
0.0011804
0.0011778
0.00133556
0.00130952
0.0012863
0.00126634
0.00124937
0.00123225
0.00121925
0.00120463
0.00119512
0.00118463
0.00117784
0.00117339
0.00116718
0.00116841
0.00132106
0.00129196
0.00126772
0.00124797
0.00122963
0.00121655
0.00120232
0.00119257
0.00118174
0.00117402
0.00116704
0.00116072
0.00115854
0.00115269
0.00115619
0.00126632
0.00124092
0.00121869
0.00120282
0.00118741
0.00117717
0.00116712
0.00116011
0.00115381
0.00114904
0.00114586
0.0011423
0.00114252
0.00113865
0.00114341
0.00120414
0.00118249
0.0011639
0.00115118
0.00114014
0.00113278
0.00112676
0.00112335
0.00112075
0.00112003
0.00112038
0.00112065
0.00112412
0.00112332
0.00113042
0.00113792
0.00111957
0.00110504
0.0010959
0.00108868
0.0010853
0.00108271
0.00108327
0.0010844
0.00108731
0.00109184
0.00109539
0.00110309
0.00110542
0.00111588
0.00109931
0.00107456
0.0010586
0.00104701
0.00104121
0.00103747
0.00103751
0.00103884
0.0010425
0.00104789
0.00105374
0.00106256
0.00106907
0.00108066
0.00108612
0.00109973
0.00105224
0.00102559
0.00100901
0.000998505
0.000994006
0.00099303
0.000995319
0.00100013
0.00100649
0.00101543
0.00102418
0.00103617
0.00104564
0.0010598
0.00106807
0.0010836
0.00103466
0.0010009
0.00097961
0.000966983
0.000961566
0.000961112
0.000964616
0.000971246
0.000979801
0.000990907
0.00100214
0.00101609
0.00102791
0.00104351
0.00105399
0.00107005
0.00106453
0.00101619
0.000983905
0.000963242
0.000952309
0.000948204
0.000949739
0.000955462
0.00096411
0.000975646
0.000987879
0.00100266
0.00101579
0.00103204
0.00104413
0.00106022
0.00114997
0.0010802
0.00102995
0.000994845
0.000972315
0.000959511
0.000954438
0.000955547
0.000960918
0.000970282
0.000981196
0.000995099
0.00100814
0.00102408
0.00103701
0.00105296
0.00126207
0.0011732
0.00110531
0.00105489
0.00101889
0.000994793
0.000980029
0.000973131
0.00097189
0.000975931
0.000982879
0.00099362
0.00100494
0.00101925
0.00103205
0.00104729
0.0013866
0.00128036
0.00119667
0.00113193
0.00108274
0.00104654
0.00102069
0.00100367
0.000993619
0.000989979
0.000990997
0.000996809
0.00100513
0.0010168
0.00102879
0.00104284
0.00147543
0.00135685
0.00126254
0.00118837
0.00113057
0.00108621
0.00105271
0.00102839
0.00101177
0.00100214
0.000998393
0.00100013
0.00100588
0.00101532
0.00102654
0.00103959
0.00150748
0.00148161
0.00145082
0.00141726
0.00137853
0.00134359
0.00131499
0.00129473
0.00127746
0.00125309
0.0012337
0.00121349
0.0015054
0.00147535
0.00144528
0.00141582
0.0013852
0.0013527
0.00132161
0.00129658
0.00127718
0.0012583
0.00124326
0.0012212
0.00154285
0.00150368
0.00146878
0.00143795
0.00140866
0.00138111
0.00135515
0.00132646
0.00130049
0.00127881
0.00125696
0.00124416
0.00122605
0.00153983
0.00150099
0.00146395
0.00143018
0.00140069
0.00137233
0.00134882
0.00132552
0.00130181
0.00128174
0.0012596
0.00124395
0.00122739
0.00153362
0.00149524
0.001459
0.00142342
0.00139241
0.00136313
0.00133837
0.00131696
0.00129654
0.00127937
0.00125984
0.00124526
0.00122923
0.0015604
0.001522
0.00148466
0.00145003
0.00141531
0.00138374
0.00135397
0.00132774
0.00130606
0.0012856
0.00127142
0.00125408
0.0012415
0.00122878
0.0015434
0.00150481
0.00146805
0.00143495
0.00140236
0.00137151
0.00134333
0.0013159
0.00129508
0.00127329
0.00125962
0.00124498
0.0012328
0.0012243
0.00152055
0.00148169
0.00144542
0.00141266
0.00138303
0.001353
0.00132792
0.00130108
0.00128126
0.00126057
0.00124547
0.00123329
0.00122072
0.00121588
0.00153576
0.00149073
0.0014511
0.00141651
0.00138328
0.0013563
0.00132792
0.00130522
0.00128157
0.00126263
0.00124521
0.00122974
0.00121962
0.00120682
0.00120407
0.00149721
0.00145321
0.00141271
0.00137997
0.00134773
0.00132188
0.00129656
0.00127544
0.00125571
0.00123889
0.00122484
0.00121158
0.00120352
0.00119235
0.00119091
0.00145058
0.00140714
0.00136749
0.00133538
0.00130568
0.00128095
0.00125835
0.00123982
0.001223
0.00120964
0.00119859
0.00118878
0.00118368
0.0011752
0.00117627
0.00139857
0.00135468
0.00131614
0.00128503
0.00125707
0.00123471
0.00121418
0.00119862
0.00118485
0.00117451
0.00116733
0.00116042
0.00115951
0.00115394
0.0011586
0.00140464
0.00134709
0.00130167
0.00126284
0.00123244
0.00120582
0.00118514
0.00116728
0.00115371
0.00114363
0.00113561
0.00113268
0.00112858
0.00113183
0.00112963
0.00113791
0.00137104
0.00130676
0.0012566
0.0012156
0.00118369
0.0011578
0.00113759
0.00112212
0.00111023
0.00110324
0.00109781
0.00109814
0.00109728
0.00110366
0.00110487
0.00111588
0.00136092
0.00128548
0.00122709
0.00118121
0.001146
0.00111883
0.00109835
0.00108369
0.0010733
0.00106818
0.00106526
0.00106783
0.00106987
0.00107842
0.00108264
0.0010951
0.0013933
0.00130056
0.00122856
0.00117221
0.00112931
0.00109662
0.00107269
0.00105607
0.00104524
0.0010404
0.00103875
0.00104271
0.00104684
0.00105687
0.00106369
0.00107704
0.00147774
0.00136273
0.00127108
0.00119816
0.00114147
0.00109808
0.00106594
0.00104358
0.00102886
0.00102171
0.00101904
0.00102269
0.0010276
0.00103819
0.00104697
0.00106105
0.00158612
0.00145288
0.00134359
0.00125464
0.0011832
0.00112699
0.00108359
0.00105179
0.00102931
0.00101605
0.00100911
0.00100961
0.0010133
0.00102289
0.00103258
0.0010468
0.00172578
0.00157436
0.00144796
0.00134294
0.00125603
0.00118495
0.0011274
0.00108232
0.00104815
0.00102474
0.00101014
0.00100456
0.00100491
0.00101186
0.00102134
0.00103492
0.00183878
0.0016732
0.0015343
0.00141771
0.0013197
0.00123759
0.00116922
0.00111352
0.0010696
0.00103733
0.00101575
0.00100443
0.00100132
0.00100555
0.00101434
0.00102709
0.00155323
0.00152839
0.00149695
0.00145941
0.00141364
0.00137234
0.00133857
0.00131511
0.00129514
0.00126712
0.00124579
0.00122361
0.00155849
0.00152863
0.00149709
0.00146416
0.00142751
0.00138839
0.00135114
0.00132139
0.00129902
0.00127658
0.0012593
0.00123366
0.00160606
0.00156611
0.00152985
0.00149642
0.00146308
0.00142994
0.00139781
0.00136282
0.001331
0.00130537
0.00127914
0.00126397
0.00124161
0.00161335
0.00157319
0.00153341
0.0014957
0.00146121
0.00142688
0.00139719
0.00136783
0.00133801
0.00131323
0.00128598
0.00126731
0.00124581
0.00161778
0.00157722
0.00153733
0.0014966
0.00145958
0.00142344
0.00139191
0.00136412
0.00133751
0.00131548
0.00129031
0.00127242
0.00125087
0.00165773
0.00161728
0.00157654
0.00153751
0.00149672
0.00145834
0.00142075
0.00138686
0.00135807
0.00133061
0.00131134
0.00128799
0.0012718
0.00125344
0.00165466
0.00161214
0.00157031
0.00153167
0.00149223
0.0014538
0.00141727
0.00138116
0.00135262
0.00132277
0.00130314
0.00128201
0.00126556
0.00125138
0.00164721
0.00160215
0.0015589
0.00151887
0.00148139
0.00144271
0.00140885
0.00137247
0.00134432
0.00131492
0.00129283
0.00127359
0.00125584
0.00124501
0.0016876
0.00163386
0.00158543
0.00154192
0.00149927
0.00146303
0.00142469
0.00139236
0.0013585
0.00133036
0.00130384
0.0012805
0.00126288
0.00124414
0.001235
0.00166894
0.00161346
0.00156125
0.00151736
0.00147363
0.00143668
0.00140001
0.00136802
0.00133734
0.0013104
0.00128673
0.00126492
0.00124887
0.00123118
0.00122318
0.001643
0.00158462
0.00153027
0.00148435
0.00144103
0.00140328
0.00136774
0.00133706
0.0013083
0.001284
0.00126261
0.00124363
0.00123007
0.0012144
0.0012089
0.00161208
0.00154913
0.00149258
0.00144481
0.00140083
0.00136351
0.00132838
0.0012993
0.00127252
0.00125031
0.00123208
0.00121524
0.00120546
0.00119207
0.00119018
0.00166483
0.00158109
0.00151226
0.0014518
0.00140174
0.0013566
0.00131884
0.00128469
0.00125603
0.00123184
0.00121082
0.00119617
0.00118143
0.00117549
0.00116514
0.00116698
0.00165563
0.00155994
0.00148187
0.00141554
0.00136074
0.00131374
0.00127415
0.00124062
0.001212
0.0011897
0.00117019
0.00115811
0.00114611
0.00114319
0.00113619
0.0011411
0.00166346
0.00155272
0.00146295
0.00138882
0.00132804
0.0012775
0.00123553
0.0012011
0.00117243
0.00115075
0.0011328
0.00112233
0.0011129
0.0011122
0.00110835
0.0011152
0.00170529
0.00157603
0.00147114
0.0013848
0.00131437
0.00125626
0.00120882
0.00117055
0.00113985
0.0011172
0.00109964
0.00109009
0.00108256
0.00108348
0.00108255
0.00109078
0.0017911
0.001641
0.00151673
0.00141318
0.00132771
0.0012573
0.00119991
0.00115416
0.00111802
0.00109181
0.00107229
0.00106188
0.00105498
0.00105657
0.00105802
0.00106747
0.00189388
0.00172913
0.00158961
0.00147143
0.00137173
0.00128821
0.00121857
0.00116186
0.00111611
0.00108188
0.00105642
0.00104156
0.00103273
0.001033
0.00103563
0.00104556
0.00204588
0.00186438
0.00170894
0.00157545
0.00146035
0.00136111
0.00127546
0.00120268
0.00114178
0.00109365
0.0010571
0.00103326
0.00101914
0.00101555
0.00101769
0.00102695
0.00218132
0.00198488
0.00181643
0.0016709
0.001544
0.00143255
0.00133426
0.00124828
0.00117444
0.00111383
0.00106678
0.00103407
0.0010142
0.0010063
0.00100705
0.0010151
0.0015506
0.00153099
0.00150415
0.00146855
0.00142128
0.0013775
0.00134119
0.00131644
0.00129537
0.00126552
0.00124336
0.00122048
0.0015635
0.00153835
0.00151031
0.00147914
0.00144128
0.00139951
0.00135898
0.00132662
0.00130302
0.00127862
0.00126024
0.00123236
0.00161523
0.00158001
0.00154756
0.00151656
0.00148421
0.00144988
0.00141524
0.00137694
0.00134149
0.0013138
0.00128496
0.00126872
0.00124321
0.00163239
0.00159669
0.00155979
0.00152346
0.00148887
0.00145291
0.00142049
0.00138797
0.00135429
0.00132669
0.001296
0.00127588
0.00125054
0.00164734
0.00161071
0.00157294
0.0015326
0.00149445
0.00145577
0.00142094
0.00138964
0.00135906
0.0013341
0.00130481
0.00128509
0.0012591
0.00169438
0.00165833
0.00162041
0.00158282
0.00154151
0.00150125
0.00146013
0.00142205
0.00138905
0.00135684
0.00133441
0.00130662
0.0012883
0.00126521
0.00170595
0.00166613
0.0016255
0.00158716
0.0015463
0.00150524
0.00146456
0.0014233
0.00138987
0.00135428
0.00133061
0.00130447
0.00128533
0.00126631
0.00171524
0.00167074
0.00162676
0.00158526
0.00154522
0.00150282
0.00146435
0.00142195
0.0013883
0.00135243
0.00132531
0.0013003
0.00127892
0.00126284
0.00177563
0.00172059
0.00167011
0.00162381
0.00157751
0.00153713
0.00149362
0.00145579
0.00141515
0.00138068
0.00134722
0.00131794
0.00129398
0.00127073
0.00125576
0.00178016
0.00172047
0.00166325
0.00161415
0.00156455
0.00152148
0.00147799
0.00143914
0.00140081
0.00136654
0.00133532
0.00130683
0.00128385
0.00126093
0.00124674
0.00177969
0.00171329
0.00165064
0.00159664
0.00154502
0.00149903
0.00145483
0.00141574
0.00137817
0.00134555
0.00131577
0.00128934
0.00126826
0.00124653
0.00123463
0.00177649
0.00170078
0.00163207
0.00157298
0.00151793
0.00147011
0.00142436
0.00138519
0.00134827
0.00131658
0.001289
0.00126374
0.00124579
0.0012254
0.00121692
0.00187848
0.0017744
0.00168762
0.00161073
0.00154581
0.00148662
0.00143587
0.00138904
0.00134842
0.0013126
0.00128066
0.00125558
0.00123131
0.00121647
0.00119828
0.00119333
0.00190499
0.00178264
0.00168119
0.0015939
0.00152038
0.00145616
0.0014008
0.00135237
0.00130973
0.00127415
0.00124215
0.00121843
0.0011958
0.00118335
0.00116788
0.00116587
0.00194226
0.00180008
0.00168273
0.00158408
0.00150137
0.00143086
0.00137053
0.00131899
0.00127424
0.00123748
0.00120545
0.00118208
0.00116097
0.00115017
0.00113739
0.00113732
0.00200227
0.0018406
0.00170676
0.00159419
0.00149971
0.00141937
0.00135118
0.00129348
0.00124452
0.00120487
0.00117156
0.00114785
0.00112766
0.00111792
0.00110769
0.00110905
0.00209464
0.00191448
0.00176224
0.00163237
0.00152202
0.00142801
0.00134819
0.00128116
0.00122485
0.00117982
0.00114286
0.00111691
0.00109625
0.00108646
0.00107823
0.00108072
0.00219339
0.00200318
0.00183909
0.00169705
0.0015741
0.00146778
0.00137565
0.00129673
0.00122912
0.00117383
0.00112847
0.00109568
0.00107113
0.00105857
0.00105074
0.00105329
0.00235749
0.00215285
0.00197517
0.00181992
0.00168319
0.00156195
0.00145352
0.001357
0.00127146
0.00119846
0.00113772
0.00109167
0.00105824
0.00103904
0.00102909
0.00102993
0.00251483
0.00229478
0.00210415
0.00193719
0.00178894
0.00165547
0.00153383
0.00142275
0.00132205
0.00123343
0.00115844
0.00109955
0.00105682
0.00103041
0.00101722
0.00101563
0.00150328
0.00149165
0.00147324
0.00144491
0.00140217
0.00136066
0.00132512
0.00130132
0.00128094
0.00125128
0.00122948
0.00120717
0.00152251
0.00150549
0.00148488
0.00146028
0.00142651
0.00138695
0.00134688
0.00131459
0.00129172
0.0012672
0.00124897
0.00122034
0.00157196
0.00154616
0.00152182
0.00149753
0.00147093
0.00144024
0.00140757
0.00136983
0.00133365
0.00130616
0.00127674
0.00126084
0.00123357
0.00159691
0.00157075
0.00154174
0.00151165
0.00148186
0.00144903
0.00141809
0.00138611
0.00135153
0.00132349
0.0012914
0.00127156
0.00124384
0.00162061
0.00159344
0.00156322
0.0015287
0.00149457
0.00145821
0.00142426
0.00139307
0.00136139
0.00133593
0.00130456
0.00128473
0.00125576
0.00166736
0.00164179
0.00161264
0.00158219
0.00154608
0.00150931
0.00146968
0.00143166
0.00139813
0.0013641
0.00134092
0.00131072
0.00129204
0.0012656
0.00169238
0.00166181
0.00162866
0.00159657
0.0015601
0.00152193
0.00148216
0.00144011
0.00140549
0.00136717
0.00134194
0.00131277
0.0012928
0.00127024
0.0017178
0.00168095
0.00164284
0.00160609
0.00156929
0.00152874
0.00149071
0.00144672
0.00141127
0.00137196
0.00134236
0.00131351
0.00129037
0.00127028
0.00179035
0.00174228
0.00169722
0.00165495
0.0016114
0.00157271
0.00152953
0.0014912
0.00144817
0.00141109
0.00137367
0.00134104
0.00131257
0.00128667
0.00126697
0.00181943
0.00176407
0.00170959
0.00166216
0.00161313
0.00156978
0.00152483
0.001484
0.00144227
0.00140432
0.00136846
0.00133584
0.00130769
0.00128131
0.00126186
0.00184775
0.00178175
0.00171851
0.00166327
0.00160964
0.00156117
0.00151347
0.00147063
0.00142832
0.00139083
0.00135546
0.00132403
0.00129712
0.00127101
0.00125345
0.00187809
0.00179756
0.00172395
0.00166004
0.00159989
0.00154699
0.00149553
0.00145063
0.00140735
0.00136944
0.00133511
0.0013037
0.00127912
0.00125319
0.00123866
0.00203
0.00191339
0.0018157
0.00172887
0.001655
0.0015872
0.0015284
0.00147337
0.00142477
0.00138075
0.00134085
0.00130761
0.00127577
0.00125326
0.0012283
0.00121679
0.0021046
0.00196219
0.00184333
0.00174055
0.00165334
0.00157652
0.00150965
0.00145018
0.00139702
0.00135108
0.00130912
0.00127559
0.00124378
0.00122254
0.00119919
0.00119004
0.00218566
0.00201739
0.00187721
0.00175838
0.00165772
0.00157094
0.00149571
0.00143021
0.00137223
0.00132273
0.00127854
0.00124353
0.00121156
0.00119081
0.00116911
0.00116144
0.00227787
0.00208854
0.00192977
0.00179446
0.00167904
0.00157927
0.0014929
0.00141808
0.0013529
0.00129786
0.00124997
0.00121265
0.0011799
0.001159
0.00113883
0.00113211
0.00238991
0.00218383
0.00200697
0.00185355
0.0017207
0.00160521
0.00150494
0.00141836
0.00134337
0.00128054
0.00122665
0.00118495
0.00114983
0.00112738
0.00110799
0.00110169
0.0024943
0.00228198
0.00209611
0.0019327
0.0017889
0.00166214
0.00154985
0.00145082
0.00136298
0.00128749
0.00122218
0.00117039
0.00112826
0.00110039
0.00107943
0.00107183
0.00267481
0.00245007
0.00225311
0.00207921
0.00192412
0.00178432
0.0016566
0.00153952
0.00143185
0.00133527
0.00125008
0.00117988
0.00112385
0.00108493
0.00105861
0.00104697
0.00285492
0.00261424
0.00240473
0.00221998
0.00205432
0.00190303
0.00176234
0.0016303
0.00150617
0.00139163
0.00128885
0.00120167
0.00113199
0.00108183
0.00104914
0.00103275
0.00142287
0.0014195
0.0014107
0.00139266
0.00135925
0.00132439
0.00129299
0.0012723
0.00125431
0.00122676
0.00120643
0.0011858
0.00144507
0.00143731
0.00142584
0.00141069
0.00138532
0.00135256
0.00131687
0.00128747
0.00126726
0.00124446
0.00122757
0.00119964
0.00148655
0.00147231
0.00145822
0.00144304
0.00142538
0.00140233
0.00137594
0.00134285
0.00130917
0.0012842
0.00125632
0.00124209
0.00121456
0.00151516
0.00150131
0.00148322
0.0014626
0.00144129
0.00141567
0.00139031
0.00136279
0.00133065
0.00130478
0.00127354
0.00125565
0.00122719
0.00154362
0.00152937
0.00151042
0.00148574
0.00145988
0.0014303
0.00140139
0.0013742
0.00134468
0.00132141
0.0012903
0.00127212
0.00124192
0.00158243
0.00157124
0.00155509
0.00153607
0.00150983
0.00148131
0.00144804
0.00141451
0.00138445
0.00135195
0.00133072
0.00130049
0.00128328
0.0012552
0.00161661
0.00160016
0.0015795
0.00155857
0.00153157
0.00150146
0.00146775
0.0014296
0.00139793
0.00136044
0.00133647
0.00130664
0.00128783
0.00126337
0.00165414
0.00163096
0.00160456
0.00157815
0.00155008
0.00151685
0.00148456
0.00144388
0.0014109
0.0013718
0.00134274
0.00131242
0.00128963
0.00126712
0.00172811
0.00169465
0.00166212
0.00163044
0.00159595
0.00156482
0.00152767
0.00149427
0.00145382
0.0014185
0.00138078
0.00134794
0.00131732
0.00129093
0.00126804
0.0017788
0.00173651
0.00169285
0.00165433
0.00161265
0.00157531
0.00153474
0.00149741
0.00145724
0.00141997
0.00138308
0.00134948
0.00131852
0.00129085
0.00126754
0.0018352
0.00177912
0.00172396
0.00167522
0.00162666
0.00158222
0.00153697
0.00149577
0.00145359
0.00141549
0.00137806
0.00134468
0.00131424
0.00128592
0.00126393
0.00190156
0.00182605
0.00175635
0.00169547
0.00163731
0.00158577
0.00153446
0.00148906
0.00144406
0.001404
0.00136629
0.00133166
0.00130262
0.00127323
0.00125369
0.00209925
0.00198079
0.00188164
0.0017933
0.00171797
0.00164832
0.00158754
0.00152981
0.00147814
0.00143017
0.00138609
0.00134776
0.00131104
0.00128278
0.0012528
0.00123551
0.00223283
0.00208076
0.00195335
0.00184275
0.00174856
0.00166506
0.001592
0.00152627
0.00146685
0.00141426
0.00136562
0.00132489
0.00128612
0.00125756
0.00122762
0.0012117
0.00237358
0.00218885
0.00203371
0.00190111
0.00178795
0.00168956
0.00160357
0.00152779
0.00145992
0.00140056
0.00134674
0.00130203
0.00126076
0.00123092
0.00120104
0.00118559
0.00251802
0.0023097
0.00213258
0.00197951
0.00184699
0.0017308
0.00162881
0.00153907
0.00145969
0.00139099
0.00133007
0.00128019
0.00123564
0.00120373
0.00117366
0.00115815
0.00267358
0.00244789
0.00225071
0.00207664
0.00192322
0.00178758
0.00166789
0.0015627
0.0014699
0.00139002
0.00131978
0.0012625
0.00121274
0.00117691
0.00114553
0.00112901
0.00280506
0.00257333
0.00236733
0.0021836
0.0020197
0.00187319
0.00174148
0.00162314
0.00151582
0.00142057
0.00133529
0.00126374
0.00120264
0.00115742
0.0011211
0.00110074
0.00301222
0.00276796
0.0025524
0.0023607
0.00218838
0.00203145
0.00188609
0.0017502
0.00162197
0.00150279
0.00139317
0.00129752
0.0012163
0.00115403
0.0011073
0.00107902
0.00321691
0.00295579
0.00272824
0.00252705
0.00234577
0.0021788
0.00202147
0.00187093
0.00172569
0.00158698
0.00145703
0.00134051
0.00124096
0.00116254
0.00110504
0.00106851
0.00132773
0.00133055
0.00132974
0.00132178
0.00129961
0.00127393
0.00124906
0.00123308
0.00121869
0.00119474
0.00117665
0.00115848
0.00134898
0.00134886
0.00134551
0.00133975
0.00132453
0.00130136
0.00127297
0.00124872
0.00123258
0.00121303
0.00119838
0.00117235
0.00137969
0.00137552
0.00137077
0.00136432
0.00135603
0.00134236
0.00132492
0.0012996
0.0012712
0.00125063
0.00122608
0.00121459
0.00118816
0.00140699
0.00140438
0.00139704
0.00138628
0.00137457
0.00135818
0.00134108
0.00132108
0.0012943
0.0012729
0.00124455
0.00122995
0.00120233
0.00143501
0.00143321
0.001426
0.00141236
0.00139665
0.00137641
0.00135546
0.00133537
0.00131094
0.00129227
0.00126365
0.00124866
0.00121897
0.00146108
0.00146359
0.0014608
0.00145434
0.00143992
0.00142221
0.00139854
0.00137282
0.00134963
0.00132174
0.00130492
0.00127698
0.00126293
0.00123495
0.00149763
0.00149576
0.00148896
0.0014811
0.0014662
0.00144731
0.00142343
0.00139304
0.001368
0.00133472
0.00131471
0.00128661
0.00127081
0.0012462
0.00153995
0.00153239
0.00152028
0.00150717
0.00149117
0.00146903
0.00144665
0.00141355
0.00138702
0.00135176
0.00132625
0.00129699
0.00127659
0.00125344
0.00160509
0.00158931
0.00157287
0.00155565
0.00153431
0.00151495
0.00148821
0.00146431
0.00143102
0.0014017
0.00136745
0.00133769
0.00130753
0.00128289
0.00125857
0.00166899
0.00164475
0.00161718
0.00159274
0.00156361
0.00153736
0.00150617
0.00147729
0.00144346
0.00141131
0.00137724
0.00134603
0.00131494
0.00128832
0.00126285
0.0017467
0.00170733
0.00166705
0.00163124
0.00159385
0.00155929
0.00152207
0.00148776
0.00145063
0.00141639
0.00138077
0.00134883
0.00131753
0.00128944
0.00126461
0.00184534
0.00178331
0.00172547
0.00167493
0.00162552
0.00158162
0.00153633
0.00149583
0.00145404
0.00141625
0.00137896
0.00134448
0.00131357
0.00128318
0.00126008
0.00207995
0.0019701
0.00187882
0.00179741
0.0017282
0.00166359
0.00160711
0.00155247
0.00150297
0.00145574
0.00141172
0.00137186
0.00133342
0.00130185
0.00126914
0.00124729
0.00227796
0.00212838
0.00200258
0.00189269
0.00179882
0.00171501
0.00164141
0.00157449
0.00151346
0.00145832
0.00140669
0.00136187
0.00131887
0.00128501
0.00125035
0.00122848
0.00249301
0.00230501
0.00214497
0.00200636
0.00188678
0.00178171
0.00168914
0.00160674
0.00153234
0.00146613
0.00140541
0.00135329
0.00130473
0.0012671
0.00123031
0.00120733
0.00271458
0.00249973
0.00231301
0.0021482
0.00200266
0.00187282
0.00175718
0.00165406
0.0015619
0.00148086
0.00140821
0.00134685
0.0012915
0.00124901
0.00120955
0.00118482
0.00294639
0.00270984
0.00249785
0.0023063
0.00213381
0.00197843
0.00183918
0.00171502
0.00160413
0.00150698
0.00142036
0.0013473
0.00128271
0.00123285
0.00118893
0.00116086
0.00313672
0.00288803
0.00266286
0.00245881
0.00227427
0.00210723
0.00195536
0.00181706
0.00168976
0.00157417
0.0014682
0.00137568
0.00129402
0.00122924
0.00117535
0.00113944
0.0033856
0.00312017
0.0028847
0.00267426
0.0024842
0.00231002
0.00214726
0.00199304
0.00184477
0.00170323
0.00156883
0.00144634
0.00133742
0.00124809
0.00117674
0.00112717
0.00361661
0.00333259
0.00308571
0.0028677
0.00267109
0.00248922
0.00231637
0.00214863
0.00198359
0.0018217
0.0016649
0.00151817
0.00138628
0.00127543
0.00118776
0.00112524
0.00123628
0.00124206
0.00124604
0.00124538
0.00123316
0.00121652
0.00119882
0.00118805
0.00117771
0.00115808
0.00114252
0.00112714