/*--------------------------------*- C++ -*----------------------------------*\
  =========                 |
  \\      /  F ield         | OpenFOAM: The Open Source CFD Toolbox
   \\    /   O peration     | Website:  https://openfoam.org
    \\  /    A nd           | Version:  6
     \\/     M anipulation  |
\*---------------------------------------------------------------------------*/
FoamFile
{
    version     2.0;
    format      ascii;
    class       volScalarField;
    location    "1.4";
    object      omega;
}
// * * * * * * * * * * * * * * * * * * * * * * * * * * * * * * * * * * * * * //

dimensions      [0 0 -1 0 0 0 0];

internalField   nonuniform List<scalar> 
63432
(
843.917
843.917
843.917
843.917
843.917
843.917
843.917
843.917
843.917
843.917
843.917
843.917
843.917
843.917
843.917
843.917
843.917
843.917
843.917
843.917
843.917
843.917
843.917
843.917
843.917
843.917
843.917
843.917
843.917
843.917
843.917
843.917
843.917
843.917
843.917
843.917
843.917
843.917
843.917
843.917
843.917
843.917
843.917
843.917
843.917
843.917
843.917
843.917
843.917
843.917
843.917
843.917
843.917
843.917
843.917
843.917
843.917
843.917
843.917
843.917
843.917
843.917
843.917
843.917
843.917
843.917
843.917
843.917
843.917
843.917
843.917
843.917
843.917
843.917
843.917
843.917
843.917
843.917
843.917
843.917
843.917
843.917
843.917
843.917
843.917
843.917
843.917
843.917
843.917
843.917
843.917
843.917
843.917
843.917
843.917
843.917
843.917
843.917
843.917
843.917
843.917
843.917
843.917
843.917
843.917
843.917
843.917
843.917
843.917
843.917
843.917
843.917
843.917
843.917
843.917
843.917
843.917
843.917
843.917
843.917
843.917
843.917
843.917
843.917
843.917
843.917
843.917
843.917
843.917
843.917
843.917
843.917
843.917
843.917
843.917
843.917
843.917
843.917
843.917
843.917
843.917
843.917
843.917
843.917
843.917
843.917
843.917
843.917
843.917
843.917
843.917
843.917
843.917
843.917
843.917
843.917
843.917
843.917
843.917
843.917
843.917
843.917
843.917
843.917
843.917
843.917
843.917
843.917
843.917
843.917
843.917
843.917
843.917
843.917
843.917
843.917
843.917
843.917
843.917
843.917
843.917
843.917
843.917
843.917
843.917
843.917
843.917
843.917
843.917
843.917
843.917
843.917
843.917
843.917
843.917
843.917
843.917
843.917
843.917
843.917
843.917
843.917
843.917
843.917
843.917
843.917
843.917
843.917
843.917
843.917
843.917
843.917
843.917
843.917
843.917
843.917
843.917
843.917
843.917
843.917
843.917
843.917
843.917
843.917
843.917
843.917
843.917
843.917
843.917
843.917
843.917
843.917
843.917
843.917
843.917
843.917
843.917
843.917
843.917
843.917
843.917
843.917
843.917
843.917
843.917
843.917
843.917
843.917
843.917
843.917
843.917
843.917
843.917
843.917
843.917
843.917
843.917
843.917
843.917
843.917
843.917
843.917
843.917
843.917
843.917
843.917
843.917
843.917
843.917
843.917
843.917
843.917
843.917
843.917
843.917
843.917
843.917
843.917
843.917
843.917
843.917
843.917
843.917
843.917
843.917
843.917
843.917
843.917
843.917
843.917
843.917
843.917
843.917
265.107
264.621
264.619
264.954
265.358
265.642
265.733
265.683
265.552
265.407
265.3
265.183
264.13
263.944
264.006
264.26
264.591
264.888
265.08
265.159
265.165
265.095
265.012
264.986
264.035
263.668
263.581
263.687
263.938
264.256
264.541
264.756
264.888
264.985
265.045
265.021
264.995
263.231
262.945
262.907
263.071
263.371
263.739
264.066
264.31
264.474
264.586
264.708
264.791
264.828
262.031
261.848
261.888
262.127
262.5
262.943
263.376
263.72
263.975
264.142
264.282
264.412
264.495
260.692
260.463
260.448
260.627
260.972
261.437
261.957
262.49
262.959
263.356
263.649
263.878
264.058
264.147
258.408
258.441
258.677
259.078
259.605
260.215
260.844
261.477
262.049
262.573
263.009
263.375
263.689
263.831
255.512
255.889
256.459
257.172
257.969
258.813
259.623
260.4
261.092
261.721
262.278
262.756
263.218
263.461
251.343
251.95
252.782
253.777
254.885
256.031
257.183
258.258
259.244
260.112
260.871
261.543
262.111
262.68
263.016
246.457
247.715
249.145
250.675
252.26
253.825
255.338
256.735
257.988
259.086
260.029
260.843
261.52
262.173
262.586
240.785
242.893
245.075
247.261
249.405
251.45
253.361
255.104
256.658
258.015
259.185
260.186
261.009
261.769
262.263
234.603
237.736
240.801
243.739
246.51
249.073
251.411
253.501
255.354
256.966
258.355
259.555
260.541
261.445
262.047
224.182
228.58
232.809
236.799
240.505
243.903
246.969
249.71
252.127
254.24
256.074
257.646
259.011
260.135
261.167
261.871
218.047
223.619
228.834
233.642
238.013
241.943
245.436
248.512
251.196
253.519
255.523
257.227
258.697
259.904
260.997
261.757
213.903
220.396
226.369
231.78
236.627
240.93
244.714
248.015
250.873
253.328
255.428
257.203
258.715
259.949
261.044
261.814
211.82
218.95
225.447
231.264
236.407
240.921
244.85
248.25
251.169
253.657
255.766
257.537
259.029
260.243
261.302
262.055
210.488
218.219
225.237
231.47
236.916
241.618
245.641
249.06
251.95
254.376
256.409
258.098
259.514
260.663
261.66
262.377
208.146
216.602
224.359
231.26
237.243
242.323
246.563
250.058
252.921
255.256
257.168
258.734
260.035
261.094
262.008
262.682
204.832
213.778
222.212
229.866
236.571
242.254
246.93
250.681
253.641
255.959
257.789
259.249
260.443
261.419
262.256
262.898
202.297
211.356
220.075
228.145
235.334
241.498
246.588
250.642
253.783
256.178
258.009
259.434
260.581
261.518
262.317
262.959
133.136
132.096
131.432
131.145
131.053
130.97
130.814
130.606
130.365
130.077
129.781
129.487
132.309
131.425
130.846
130.556
130.461
130.41
130.312
130.165
129.984
129.779
129.563
129.339
132.856
131.742
130.94
130.417
130.135
130.03
130.001
129.947
129.854
129.734
129.599
129.456
129.293
132.212
131.173
130.418
129.93
129.67
129.57
129.558
129.543
129.492
129.416
129.331
129.245
129.159
131.447
130.467
129.757
129.297
129.062
128.987
129.006
129.043
129.055
129.032
128.99
128.946
128.913
131.651
130.496
129.594
128.942
128.524
128.318
128.271
128.326
128.423
128.513
128.579
128.61
128.622
128.624
130.331
129.282
128.486
127.929
127.588
127.439
127.435
127.528
127.68
127.839
127.999
128.133
128.242
128.314
128.636
127.719
127.065
126.648
126.438
126.394
126.483
126.643
126.858
127.083
127.316
127.542
127.755
127.927
127.513
126.466
125.733
125.273
125.042
125.017
125.135
125.37
125.654
125.969
126.286
126.594
126.897
127.191
127.45
124.513
123.735
123.262
123.067
123.085
123.294
123.63
124.057
124.519
124.985
125.436
125.856
126.25
126.625
126.95
120.749
120.365
120.268
120.424
120.77
121.272
121.875
122.539
123.217
123.878
124.504
125.078
125.602
126.089
126.495
116.204
116.357
116.758
117.367
118.121
118.984
119.9
120.84
121.764
122.646
123.475
124.234
124.925
125.555
126.082
110.496
111.048
111.865
112.867
114.014
115.243
116.52
117.797
119.046
120.244
121.365
122.411
123.359
124.221
125.001
125.656
104.29
105.656
107.208
108.87
110.6
112.343
114.064
115.731
117.314
118.804
120.173
121.433
122.562
123.575
124.482
125.237
98.2289
100.398
102.686
105.013
107.332
109.598
111.777
113.844
115.774
117.559
119.18
120.646
121.944
123.085
124.096
124.919
92.7804
95.5926
98.5146
101.443
104.32
107.092
109.725
112.191
114.465
116.54
118.399
120.054
121.503
122.755
123.852
124.735
88.1304
91.3007
94.6719
98.1083
101.507
104.785
107.879
110.748
113.36
115.706
117.778
119.594
121.165
122.509
123.675
124.613
84.1206
87.4259
91.0496
94.8638
98.7261
102.504
106.081
109.378
112.342
114.958
117.23
119.188
120.861
122.279
123.5
124.487
81.1459
84.3605
87.9867
91.9264
96.0438
100.186
104.186
107.905
111.241
114.154
116.644
118.751
120.528
122.019
123.291
124.329
79.6152
82.6736
86.1754
90.049
94.1845
98.4422
102.647
106.624
110.227
113.376
116.052
118.294
120.166
121.727
123.049
124.141
84.0919
82.9413
81.9688
81.2538
80.767
80.412
80.0979
79.7958
79.4922
79.1592
78.8273
78.5019
83.6054
82.5009
81.6038
80.9359
80.4803
80.1433
79.8462
79.5641
79.2811
78.9991
78.7276
78.4407
84.5652
83.2501
82.1649
81.3047
80.6575
80.2076
79.8938
79.6194
79.366
79.1151
78.8635
78.6386
78.4054
84.2096
82.9201
81.8484
80.9995
80.3694
79.9166
79.6087
79.3602
79.1292
78.911
78.6932
78.4948
78.3196
83.8163
82.543
81.4862
80.6419
80.0166
79.5706
79.2647
79.0383
78.8386
78.6498
78.4671
78.2939
78.1634
84.7843
83.3304
82.0817
81.0415
80.2081
79.5835
79.1413
78.8414
78.637
78.4733
78.3332
78.1933
78.0536
77.9593
84.1303
82.6977
81.4804
80.4721
79.6632
79.0513
78.6191
78.322
78.1389
78.0052
77.9175
77.8429
77.759
77.7184
83.2626
81.8554
80.6791
79.7196
78.965
78.3892
77.9937
77.7161
77.5553
77.4535
77.4007
77.3898
77.3687
77.4073
83.7304
82.0868
80.7252
79.6164
78.7252
78.0557
77.5528
77.2249
77.0078
76.8898
76.8388
76.8227
76.8648
76.8937
77.0046
82.0792
80.512
79.2321
78.2288
77.4439
76.8858
76.4978
76.2684
76.1527
76.116
76.1444
76.1949
76.2978
76.3836
76.5478
79.8425
78.423
77.2965
76.4492
75.8284
75.4209
75.1856
75.0942
75.1091
75.1951
75.3353
75.4908
75.6852
75.8557
76.0843
76.9179
75.7383
74.8508
74.2331
73.8331
73.634
73.588
73.6746
73.8525
74.0921
74.3811
74.673
74.9996
75.2865
75.6142
74.4393
73.2763
72.448
71.8886
71.5788
71.4634
71.5245
71.7186
72.0185
72.4001
72.821
73.2892
73.7412
74.2228
74.6471
75.098
69.6725
69.0059
68.6294
68.4858
68.5518
68.7848
69.1566
69.6404
70.198
70.8212
71.4588
72.1278
72.7601
73.4
73.9663
74.5339
64.3304
64.2381
64.3867
64.725
65.2272
65.8598
66.5968
67.4159
68.2825
69.1866
70.0807
70.974
71.806
72.6079
73.3178
73.9867
58.7836
59.2128
59.8676
60.6898
61.6519
62.7177
63.8642
65.0656
66.2881
67.5147
68.6994
69.8415
70.8898
71.8639
72.7231
73.4962
53.5265
54.2709
55.2887
56.5138
57.9012
59.4051
60.9848
62.6048
64.2178
65.7974
67.2938
68.6999
69.973
71.1273
72.1405
73.0281
49.0806
49.918
51.0854
52.5372
54.2195
56.0791
58.0503
60.0764
62.0861
64.0315
65.8532
67.5331
69.0379
70.3763
71.5455
72.5517
46.202
46.9624
48.0612
49.4866
51.209
53.1923
55.3723
57.6764
60.0093
62.2859
64.4231
66.376
68.1136
69.6365
70.9592
72.0836
44.9818
45.646
46.6282
47.9323
49.5512
51.472
53.6536
56.0311
58.5071
60.9705
63.314
65.4611
67.3726
69.0378
70.4799
71.6996
59.5347
58.5214
57.5347
56.6458
55.9245
55.3867
54.9683
54.6154
54.2836
53.9399
53.6076
53.2837
59.3446
58.3003
57.3615
56.5412
55.875
55.3442
54.9109
54.5461
54.2128
53.8984
53.612
53.299
60.4741
59.236
58.1517
57.2156
56.4177
55.7743
55.2722
54.8455
54.4845
54.1582
53.8448
53.5845
53.3103
60.403
59.1464
58.0341
57.0764
56.2831
55.6369
55.1421
54.7346
54.3808
54.0717
53.7734
53.5158
53.2795
60.3173
59.0368
57.9066
56.9259
56.1191
55.4679
54.9635
54.5649
54.2253
53.9291
53.6537
53.4071
53.202
61.6329
60.1827
58.8835
57.737
56.7417
55.9155
55.2529
54.7369
54.3394
54.0108
53.7374
53.4851
53.2532
53.0791
61.4564
59.9666
58.6467
57.4897
56.4871
55.6476
54.9753
54.4423
54.0445
53.72
53.4689
53.255
53.0486
52.9144
61.1634
59.6296
58.2866
57.1209
56.1256
55.2835
54.6161
54.0757
53.6745
53.3577
53.1138
52.9389
52.7636
52.6874
62.4881
60.6755
59.1049
57.751
56.5812
55.6075
54.7843
54.1376
53.6186
53.2245
52.9294
52.6936
52.5502
52.3982
52.3772
61.76
59.9134
58.3207
56.9755
55.8235
54.8824
54.1067
53.4989
53.0296
52.6704
52.4154
52.2108
52.1028
51.9822
52.0022
60.6
58.7593
57.1891
55.8806
54.7866
53.9033
53.2008
52.6622
52.2627
51.9715
51.7801
51.6374
51.5868
51.5212
51.5896
58.8801
57.1051
55.6167
54.3968
53.4011
52.6201
52.0174
51.5801
51.2774
51.0799
50.9853
50.932
50.9747
50.9932
51.1386
58.4408
56.4805
54.8639
53.5314
52.467
51.6236
50.9891
50.5297
50.2228
50.0534
49.9761
50.0102
50.0742
50.2393
50.3685
50.6197
55.0083
53.34
51.99
50.9068
50.0702
49.4455
49.0084
48.7411
48.608
48.6105
48.6923
48.8834
49.0952
49.3987
49.6557
50.0208
50.6692
49.4259
48.457
47.7206
47.1951
46.8561
46.6815
46.6596
46.7581
46.9794
47.2701
47.6533
48.0459
48.5049
48.906
49.3811
45.5926
44.8232
44.2966
43.9691
43.8221
43.8326
43.9861
44.2724
44.6645
45.1606
45.7112
46.3279
46.9353
47.5738
48.1399
48.7346
40.2808
39.8898
39.7483
39.8089
40.0453
40.4344
40.956
41.5995
42.334
43.1518
44.0029
44.8881
45.7394
46.5814
47.3335
48.0671
35.6154
35.4247
35.4963
35.7978
36.2999
36.9828
37.8188
38.7918
39.8628
41.0108
42.1799
43.3537
44.4699
45.5334
46.4877
47.3731
32.6476
32.4914
32.5768
32.8953
33.4342
34.1885
35.1417
36.28
37.5665
38.964
40.4072
41.8487
43.224
44.5083
45.6656
46.7027
31.4555
31.2778
31.3129
31.5624
32.0265
32.7127
33.622
34.7517
36.0805
37.5683
39.1493
40.7498
42.2973
43.7375
45.0435
46.1941
44.5162
43.7522
42.9305
42.0765
41.2903
40.6774
40.2158
39.8538
39.5255
39.197
38.8858
38.5844
44.5701
43.7273
42.92
42.1311
41.4075
40.7917
40.2917
39.8939
39.5505
39.2374
38.9638
38.6497
45.7025
44.6817
43.758
42.9194
42.1416
41.4485
40.864
40.3598
39.9453
39.5898
39.2567
38.9981
38.7077
45.8768
44.8079
43.823
42.9309
42.139
41.4403
40.8656
40.3775
39.9589
39.6072
39.2715
38.9995
38.7303
46.048
44.9246
43.8934
42.9505
42.1248
41.4089
40.8186
40.3333
39.9193
39.5704
39.2455
38.9726
38.7213
47.4791
46.1976
45.0201
43.9447
42.9628
42.0986
41.3568
40.7421
40.2455
39.8272
39.4857
39.1707
38.8992
38.6716
47.6765
46.3088
45.0691
43.9489
42.9341
42.0357
41.2695
40.6239
40.1125
39.6808
39.3403
39.0451
38.778
38.5796
47.8237
46.36
45.049
43.8765
42.8339
41.9056
41.1228
40.4526
39.9214
39.4805
39.1269
38.8511
38.5912
38.433
49.6226
47.8582
46.2979
44.9193
43.6901
42.6224
41.675
40.8814
40.2067
39.66
39.2209
38.8549
38.5936
38.3356
38.2158
49.592
47.7157
46.0608
44.6222
43.3476
42.2551
41.306
40.51
39.8494
39.3062
38.8808
38.5202
38.2751
38.027
37.936
49.2575
47.2873
45.5634
44.0774
42.7843
41.6821
40.7474
39.9707
39.3367
38.8222
38.4261
38.0946
37.8805
37.6608
37.6043
48.4882
46.4601
44.7062
43.208
41.9239
40.8458
39.9444
39.2112
38.6244
38.1578
37.817
37.5362
37.3817
37.2152
37.2155
49.4748
47.1168
45.1052
43.3814
41.9267
40.6974
39.6811
38.8498
38.1838
37.6743
37.2774
37.02
36.8155
36.7488
36.6624
36.7473
47.2182
44.9887
43.0997
41.4983
40.16
39.0512
38.1467
37.4318
36.8723
36.475
36.1839
36.0379
35.9419
35.9844
36.0002
36.1847
43.8748
41.9407
40.3156
38.9553
37.8328
36.9236
36.2024
35.6607
35.2659
35.0279
34.8927
34.8958
34.9454
35.12
35.2611
35.5491
39.3892
37.8872
36.6579
35.6564
34.8586
34.2423
33.7899
33.4963
33.3362
33.3184
33.3953
33.5938
33.8292
34.1647
34.4593
34.8635
34.1738
33.122
32.3226
31.7282
31.3109
31.051
30.931
30.9494
31.0837
31.3412
31.679
32.1149
32.5738
33.1004
33.5777
34.1205
29.362
28.6367
28.1452
27.8514
27.7277
27.7596
27.9291
28.2349
28.6559
29.1932
29.8067
30.4994
31.2063
31.946
32.6301
33.3286
26.2648
25.6896
25.3106
25.1113
25.0764
25.2017
25.4793
25.9117
26.4875
27.203
28.0245
28.9323
29.8683
30.8138
31.7057
32.5594
25.0251
24.4908
24.1217
23.9102
23.8502
23.9439
24.1943
24.6093
25.1925
25.9425
26.8388
27.848
28.9171
29.994
31.0305
31.9942
34.0121
33.5146
32.9351
32.2521
31.5443
30.9617
30.5203
30.1884
29.8922
29.6008
29.3281
29.066
34.2318
33.6406
33.0485
32.4135
31.7625
31.1691
30.6764
30.2944
29.9759
29.6913
29.4504
29.1574
35.243
34.5014
33.8138
33.1685
32.5279
31.9043
31.3395
30.8349
30.4218
30.079
29.7608
29.5305
29.2476
35.5893
34.7885
34.0242
33.3056
32.6329
31.9968
31.4404
30.9488
30.5232
30.1739
29.8387
29.5865
29.3117
35.9479
35.0769
34.2504
33.462
32.7385
32.0727
31.4952
31.0022
30.5745
30.2221
29.8868
29.6251
29.3569
37.3202
36.3118
35.3638
34.4748
33.6289
32.8508
32.1458
31.5336
31.0212
30.5788
30.2245
29.89
29.6206
29.3685
37.7994
36.6745
35.6356
34.677
33.7783
32.9489
32.2068
31.5522
31.015
30.547
30.1792
29.8512
29.572
29.3404
38.2844
37.0274
35.883
34.8397
33.8861
33.0053
32.2303
31.5378
30.9694
30.4802
30.0847
29.7612
29.4716
29.2655
40.2854
38.7271
37.3299
36.0766
34.9373
33.9226
32.993
32.1835
31.4675
30.8676
30.3663
29.9433
29.6208
29.317
29.134
40.8073
39.0781
37.5324
36.1678
34.9355
33.8517
32.8813
32.0376
31.3086
30.6893
30.1829
29.7467
29.4255
29.1149
28.9489
41.1445
39.2433
37.5581
36.0819
34.7715
33.625
32.6216
31.7574
31.0218
30.4013
29.899
29.4675
29.1574
28.8534
28.7093
41.173
39.1144
37.3105
35.7423
34.3696
33.1841
32.1598
31.292
30.5644
29.9562
29.4769
29.0655
28.7878
28.5097
28.4048
43.1979
40.698
38.5385
36.6613
35.0446
33.6463
32.4529
31.4387
30.5866
29.891
29.3118
28.8783
28.5077
28.2863
28.0587
28.0165
42.0159
39.4983
37.3349
35.4707
33.8758
32.5156
31.363
30.403
29.6026
28.97
28.4515
28.0889
27.7893
27.6467
27.4929
27.531
39.6568
37.3027
35.2902
33.5698
32.1068
30.873
29.8384
28.9933
28.3029
27.7797
27.3702
27.1157
26.9242
26.8857
26.8313
26.9585
35.865
33.874
32.1955
30.7788
29.5896
28.601
27.788
27.1439
26.641
26.2917
26.0495
25.9508
25.9096
26.0048
26.0802
26.3109
30.9242
29.4185
28.1906
27.1871
26.3729
25.724
25.2183
24.8536
24.6079
24.4942
24.4733
24.5756
24.7259
24.9865
25.2241
25.5803
26.1186
25.043
24.2002
23.5485
23.0562
22.7065
22.481
22.3801
22.3872
22.5128
22.7258
23.0447
23.4094
23.8558
24.282
24.7807
22.9581
22.1334
21.4887
21.0007
20.6495
20.4268
20.3231
20.3414
20.4762
20.736
21.1039
21.5829
22.1301
22.7447
23.3572
23.9952
21.6758
20.9439
20.3583
19.905
19.5719
19.3546
19.2509
19.2657
19.4049
19.6776
20.0835
20.6178
21.2545
21.963
22.6974
23.4282
26.1212
25.8428
25.4957
25.034
24.4925
24.0186
23.6492
23.3774
23.1352
22.896
22.6737
22.4613
26.4081
26.049
25.6771
25.2452
24.7483
24.2603
23.8384
23.5132
23.2471
23.0105
22.8147
22.5604
27.2155
26.7466
26.3006
25.8719
25.4219
24.9438
24.4785
24.0408
23.6781
23.3826
23.1064
22.9206
22.6656
27.6314
27.1116
26.5939
26.0908
25.5992
25.1016
24.64
24.2115
23.831
23.523
23.2202
23.0106
22.7544
28.0772
27.4911
26.913
26.3374
25.7878
25.2522
24.7648
24.3312
23.9431
23.6291
23.3175
23.0935
22.8352
29.2446
28.5562
27.8893
27.2463
26.6075
25.9966
25.4135
24.8843
24.4265
24.0166
23.6952
23.3781
23.1412
22.8918
29.8807
29.0701
28.3031
27.5812
26.8806
26.2095
25.5816
25.002
24.513
24.0698
23.7257
23.4058
23.1506
22.9145
30.5745
29.6202
28.7336
27.9109
27.1406
26.4045
25.7332
25.1063
24.5789
24.1064
23.725
23.3987
23.1213
22.8988
32.5171
31.2938
30.1785
29.1621
28.2209
27.367
26.5618
25.8395
25.1751
24.6049
24.1106
23.6915
23.3556
23.0529
22.8401
33.4306
32.0041
30.7092
29.5507
28.4865
27.5334
26.6589
25.8785
25.1808
24.5737
24.0604
23.6145
23.2684
22.9466
22.74
34.2821
32.6308
31.1489
29.8351
28.6509
27.5966
26.6523
25.8197
25.089
24.4573
23.9288
23.469
23.119
22.7868
22.5911
34.9611
33.0776
31.4107
29.9449
28.6437
27.5006
26.4915
25.6161
24.8608
24.2128
23.6816
23.218
22.8788
22.5499
22.3776
37.6407
35.2554
33.1778
31.355
29.7668
28.3742
27.1649
26.115
25.2115
24.4498
23.7968
23.28
22.8276
22.5173
22.2121
22.082
37.4212
34.8939
32.7055
30.8028
29.1557
27.7301
26.5002
25.4507
24.5516
23.8107
23.1797
22.6985
22.283
22.0226
21.7635
21.6925
36.0202
33.5255
31.3787
29.5281
27.935
26.5694
25.3991
24.413
23.5766
22.902
22.3385
21.9284
21.5855
21.4005
21.2133
21.2136
33.0626
30.8225
28.9189
27.2967
25.9143
24.7403
23.7436
22.9147
22.2232
21.6818
21.2453
20.9541
20.7261
20.6463
20.5613
20.648
28.7029
26.9123
25.4224
24.1762
23.1317
22.2603
21.5341
20.9473
20.4753
20.132
19.8794
19.754
19.6837
19.7407
19.7907
19.9844
24.2146
22.8953
21.8163
20.9318
20.2068
19.6208
19.1528
18.8007
18.5472
18.4049
18.346
18.3971
18.5033
18.7128
18.9227
19.2378
21.1742
20.17
19.3429
18.6645
18.112
17.6726
17.334
17.0961
16.9524
16.9134
16.968
17.1312
17.3718
17.7056
18.067
18.4953
19.9103
19.0365
18.3042
17.6941
17.1905
16.7835
16.4666
16.2397
16.1052
16.0719
16.1448
16.3322
16.6256
17.0159
17.4688
17.9661
20.0877
19.9539
19.7766
19.5114
19.1557
18.8233
18.5526
18.3554
18.177
17.996
17.828
17.6678
20.3582
20.1692
19.9679
19.7196
19.3964
19.0518
18.7369
18.4922
18.2934
18.1138
17.9673
17.7612
20.9378
20.6806
20.4286
20.1815
19.9118
19.5988
19.2711
18.9416
18.6607
18.434
18.2159
18.0806
17.8668
21.3253
21.0369
20.7324
20.4258
20.1165
19.7813
19.4528
19.1292
18.8294
18.5887
18.3402
18.1842
17.9639
21.7539
21.4185
21.0695
20.7034
20.3419
19.9682
19.6122
19.2811
18.9704
18.7232
18.4606
18.289
18.0613
22.6315
22.2349
21.8337
21.4333
21.0131
20.5964
20.176
19.7769
19.4204
19.084
18.8272
18.5554
18.369
18.1444
23.2756
22.7777
22.289
21.8189
21.3426
20.8688
20.4044
19.9534
19.5643
19.1914
18.9076
18.6272
18.4189
18.2014
24.0156
23.3919
22.7948
22.2287
21.6842
21.1442
20.6351
20.1338
19.7038
19.2982
18.973
18.679
18.4423
18.2295
25.6657
24.8376
24.0643
23.3434
22.6594
22.0273
21.4115
20.8452
20.2995
19.8212
19.3882
19.0199
18.7091
18.441
18.2272
26.7457
25.7246
24.7749
23.9098
23.0968
22.3558
21.6573
21.02
20.4288
19.9026
19.4413
19.0375
18.708
18.4129
18.1961
27.8798
26.6268
25.4793
24.4453
23.4953
22.6351
21.8459
21.1359
20.4936
19.9258
19.4353
19.0043
18.6598
18.3422
18.1266
28.982
27.4688
26.107
24.8921
23.795
22.8158
21.9329
21.1518
20.46
19.8538
19.3408
18.8876
18.5375
18.2056
18
31.8223
29.8371
28.0818
26.5182
25.1364
23.905
22.8188
21.857
21.0132
20.2837
19.6452
19.1207
18.6547
18.3107
17.9797
17.7977
32.3531
30.1479
28.2129
26.5075
25.0103
23.694
22.5396
21.5346
20.6559
19.9113
19.2617
18.7422
18.2835
17.9628
17.6525
17.5088
31.8226
29.5356
27.5475
25.8151
24.305
22.991
21.8452
20.8586
20.001
19.2845
18.6656
18.1836
17.7646
17.4915
17.2263
17.1345
29.8603
27.6812
25.8133
24.208
22.8254
21.6353
20.6062
19.7284
18.9719
18.3491
17.8187
17.4211
17.0829
16.887
16.6957
16.6715
26.5036
24.643
23.0738
21.7447
20.614
19.6526
18.8306
18.1397
17.5539
17.0858
16.699
16.4311
16.2162
16.128
16.0426
16.1051
22.7909
21.3415
20.1284
19.108
18.2452
17.5185
16.9051
16.4005
15.986
15.673
15.4351
15.3013
15.2219
15.2505
15.291
15.4498
20.1671
19.0318
18.0723
17.2588
16.5664
15.9803
15.4855
15.0788
14.7513
14.5116
14.3498
14.285
14.2933
14.4013
14.5521
14.7924
19.0362
18.0445
17.1951
16.4655
15.8372
15.2969
14.8346
14.4461
14.1296
13.8912
13.7348
13.6725
13.7044
13.8361
14.046
14.329
15.5403
15.4822
15.4025
15.2706
15.0665
14.863
14.6883
14.5623
14.4444
14.3175
14.1992
14.0859
15.7524
15.6625
15.5645
15.4419
15.2607
15.0503
14.8442
14.681
14.5491
14.4247
14.3233
14.1662
16.1385
16.01
15.8817
15.7533
15.6124
15.4356
15.2379
15.022
14.8296
14.6754
14.5186
14.4306
14.2622
16.4433
16.302
16.1422
15.9747
15.8039
15.607
15.4059
15.1946
14.9862
14.8204
14.6344
14.5315
14.3552
16.7887
16.6222
16.4375
16.2308
16.0219
15.793
15.5669
15.3478
15.1278
14.9576
14.756
14.6391
14.4531
17.3877
17.1896
16.9802
16.7644
16.5211
16.2723
16.0059
15.7417
15.5
15.2544
15.0749
14.8629
14.7324
14.5456
17.9273
17.661
17.3894
17.1243
16.8406
16.5481
16.2471
15.937
15.6664
15.3859
15.1795
14.9564
14.8045
14.6206
18.573
18.2179
17.8662
17.5265
17.1898
16.8419
16.5044
16.1486
15.8408
15.5289
15.2824
15.0425
14.8609
14.6758
19.82
19.3287
18.8607
18.4139
17.9774
17.5673
17.1515
16.7621
16.3639
16.0092
15.6694
15.38
15.1195
14.9051
14.7118
20.8295
20.1937
19.5858
19.0212
18.4743
17.9672
17.4728
17.0135
16.568
16.1623
15.7906
15.4625
15.1787
14.9337
14.7303
21.9674
21.1452
20.3711
19.659
18.987
18.3669
17.7812
17.2437
16.7404
16.2849
15.8762
15.5131
15.2073
14.933
14.7229
23.1781
22.134
21.1684
20.2875
19.4716
18.729
18.0413
17.4204
16.8539
16.3467
15.9025
15.505
15.1821
14.8815
14.6708
25.6664
24.2736
23.0093
21.8512
20.8033
19.8451
18.9816
18.1974
17.4942
16.8696
16.3111
15.8363
15.4082
15.074
14.7565
14.5538
26.599
24.9829
23.5297
22.216
21.035
19.9701
19.0143
18.1607
17.3966
16.7305
16.1355
15.6412
15.1963
14.8626
14.5438
14.3601
26.759
24.9879
23.4169
22.0196
20.7764
19.6705
18.684
17.8131
17.0362
16.3665
15.7712
15.2853
14.851
14.5391
14.2406
14.0892
25.8842
24.0668
22.4791
21.0913
19.876
18.8119
17.8745
17.0566
16.3332
15.7165
15.1721
14.737
14.3515
14.0894
13.8378
13.7346
23.89
22.19
20.7259
19.4637
18.3723
17.4289
16.6076
15.9007
15.2839
14.768
14.3202
13.9753
13.6766
13.4926
13.3172
13.2793
21.3927
19.9438
18.7034
17.6375
16.717
15.9229
15.2341
14.6451
14.1373
13.72
13.3685
13.1102
12.9019
12.7962
12.7093
12.7399
19.5154
18.3016
17.2563
16.3513
15.5631
14.876
14.2743
13.7526
13.2998
12.9221
12.6089
12.3788
12.2131
12.1426
12.1215
12.1987
18.6681
17.5769
16.6298
15.8026
15.0751
14.4322
13.8612
13.3553
12.9092
12.5256
12.2059
11.9616
11.7956
11.7215
11.7282
11.8218
12.1841
12.155
12.1193
12.0586
11.9519
11.8388
11.7365
11.6653
11.5947
11.5106
11.4314
11.355
12.3352
12.289
12.2394
12.1835
12.0922
11.9778
11.8564
11.7582
11.6802
11.6006
11.5348
11.4199
12.5912
12.5212
12.4535
12.3855
12.3156
12.2253
12.1205
11.9954
11.8764
11.7829
11.6789
11.6282
11.5015
12.8091
12.7361
12.6519
12.5611
12.4715
12.3651
12.2563
12.1355
12.0055
11.9048
11.7759
11.7166
11.5832
13.0597
12.9758
12.8805
12.7678
12.6546
12.5252
12.3961
12.2689
12.1291
12.0271
11.8841
11.8142
11.6714
13.4629
13.3577
13.2488
13.1382
13.0052
12.8682
12.7135
12.5549
12.4105
12.248
12.139
11.9867
11.9063
11.7606
13.866
13.7193
13.5705
13.4301
13.2729
13.108
12.9317
12.7375
12.5712
12.3791
12.2468
12.0834
11.9849
11.8397
14.3619
14.1599
13.9593
13.7686
13.5771
13.3724
13.1724
12.9429
12.7472
12.5291
12.3621
12.182
12.0563
11.9069
15.2616
14.9645
14.6881
14.4256
14.1662
13.9233
13.6668
13.4276
13.1644
12.9293
12.6871
12.4822
12.2817
12.1254
11.9641
16.0722
15.6837
15.3125
14.9691
14.6294
14.3139
13.9951
13.6978
13.3943
13.1132
12.841
12.5995
12.3749
12.1886
12.013
17.0247
16.5146
16.0288
15.5788
15.1444
14.7393
14.3445
13.9775
13.6206
13.2906
12.9807
12.7025
12.453
12.2356
12.0479
18.0841
17.4284
16.8084
16.2326
15.6843
15.1764
14.6916
14.2454
13.8247
13.44
13.0893
12.7712
12.4983
12.2487
12.0526
19.9911
19.1182
18.3115
17.5518
16.8471
16.1817
15.567
14.9908
14.4613
13.9758
13.5316
13.1397
12.7807
12.4851
12.2068
12.0069
20.9909
19.9465
18.9882
18.0983
17.2775
16.5138
15.8086
15.1582
14.5588
14.0189
13.5236
13.096
12.7033
12.391
12.0942
11.8972
21.5977
20.3846
19.2844
18.2824
17.3702
16.5376
15.7754
15.0831
14.4475
13.8811
13.3624
12.9205
12.5152
12.2025
11.9047
11.7215
21.6737
20.3201
19.105
18.0164
17.0419
16.171
15.3882
14.6903
14.0586
13.5038
12.9995
12.5768
12.1906
11.902
11.6262
11.4718
21.0416
19.6322
18.3817
17.2758
16.2981
15.4361
14.672
14.0013
13.4039
12.889
12.4288
12.0525
11.7144
11.4726
11.2434
11.1321
19.9111
18.5663
17.384
16.344
15.4264
14.6181
13.9025
13.2749
12.7187
12.2411
11.8203
11.4798
11.1839
10.9792
10.7985
10.7251
18.99
17.7517
16.666
15.7095
14.862
14.109
13.4358
12.8357
12.2971
11.8232
11.4033
11.0531
10.7576
10.547
10.3871
10.3243
18.5632
17.3945
16.3695
15.4637
14.6568
13.9327
13.2775
12.6823
12.1398
11.6495
11.2103
10.8315
10.5159
10.2798
10.1195
10.0489
9.72632
9.70233
9.68079
9.6507
9.59476
9.5324
9.47353
9.43655
9.39702
9.34165
9.28926
9.23829
9.83246
9.79815
9.76509
9.73605
9.69034
9.63048
9.56153
9.50474
9.46242
9.41374
9.37212
9.28898
10.016
9.9635
9.91671
9.87154
9.83148
9.78431
9.73167
9.6639
9.59344
9.54078
9.47492
9.44947
9.3558
10.1696
10.1166
10.0608
10.0022
9.94907
9.88918
9.8321
9.76893
9.69234
9.63677
9.55084
9.52169
9.42371
10.3477
10.289
10.2284
10.158
10.0911
10.0154
9.94259
9.8745
9.79062
9.73682
9.64002
9.60363
9.49791
10.6439
10.5627
10.4877
10.4194
10.3384
10.2586
10.1676
10.0734
9.99314
9.8908
9.83283
9.72908
9.68587
9.57673
10.9387
10.8295
10.727
10.6402
10.545
10.4489
10.3466
10.2272
10.1322
10.0069
9.93059
9.81714
9.76032
9.65089
11.3066
11.1607
11.0239
10.9032
10.7868
10.6637
10.5487
10.4048
10.2893
10.1444
10.0407
9.91284
9.83327
9.71893
11.9899
11.7641
11.5676
11.3908
11.2227
11.0731
10.9129
10.7715
10.6041
10.4588
10.296
10.162
10.0164
9.91072
9.78377
12.6103
12.3249
12.0643
11.834
11.6106
11.4108
11.206
11.0207
10.8234
10.6414
10.454
10.2893
10.1219
9.98985
9.84697
13.3504
12.9897
12.655
12.3538
12.0647
11.8006
11.5396
11.2992
11.0588
10.8351
10.6143
10.4161
10.2245
10.0636
9.90561
14.1864
13.7398
13.3222
12.939
12.5715
12.2321
11.9019
11.5965
11.3008
11.0271
10.7672
10.5297
10.3128
10.1192
9.9482
15.645
15.0497
14.5088
14.0014
13.5321
13.0826
12.6631
12.2604
11.8839
11.5284
11.1971
10.8937
10.612
10.3671
10.1392
9.95654
16.5828
15.8658
15.2119
14.6039
14.0419
13.5121
13.0159
12.5472
12.1053
11.6947
11.3086
10.9623
10.6381
10.3657
10.1081
9.91618
17.4273
16.5677
15.7815
15.058
14.3932
13.7788
13.209
12.6818
12.1882
11.7361
11.3116
10.9357
10.5829
10.2933
10.0181
9.82388
18.1173
17.1054
16.1768
15.327
14.5517
13.8466
13.2034
12.6213
12.087
11.608
11.1644
10.7787
10.4188
10.13
9.85511
9.67099
18.4721
17.3284
16.2851
15.3376
14.48
13.7075
13.0105
12.3876
11.8247
11.3287
10.8782
10.4944
10.1432
9.86852
9.61076
9.44642
18.491
17.2831
16.1943
15.2136
14.3298
13.5353
12.819
12.1778
11.5985
11.0862
10.6232
10.2272
9.8713
9.59228
9.3423
9.18354
18.5108
17.2871
16.1961
15.2194
14.3408
13.5484
12.8292
12.1766
11.5793
11.0382
10.543
10.1053
9.7136
9.3935
9.12296
8.94047
18.5673
17.3467
16.2654
15.3004
14.4324
13.6453
12.9249
12.2616
11.6462
11.0765
10.549
10.0703
9.64216
9.28012
8.98539
8.77518
7.90137
7.87421
7.85462
7.83487
7.80128
7.76195
7.72383
7.70419
7.68155
7.64305
7.60637
7.57116
7.97988
7.94477
7.91446
7.89302
7.86612
7.83158
7.78874
7.75325
7.73009
7.69968
7.67229
7.61066
8.12706
8.07619
8.0326
7.99269
7.96139
7.93133
7.902
7.86352
7.81912
7.78859
7.74602
7.73482
7.66463
8.24124
8.189
8.13937
8.0903
8.04901
8.00816
7.97376
7.93988
7.89289
7.86239
7.8038
7.79188
7.71961
8.37428
8.31687
8.2639
8.20747
8.15716
8.10472
8.05744
8.01954
7.96734
7.94082
7.87453
7.85789
7.7798
8.61993
8.53676
8.46558
8.40662
8.34335
8.28566
8.22366
8.16043
8.11377
8.04687
8.01835
7.94752
7.92742
7.84622
8.84746
8.74115
8.64744
8.57407
8.5006
8.43224
8.36474
8.28383
8.22744
8.14294
8.10073
8.02202
7.99247
7.9112
9.13358
8.99783
8.8771
8.7776
8.68886
8.60046
8.5262
8.42857
8.35842
8.26009
8.19715
8.10684
8.05918
7.97343
9.70436
9.49421
9.318
9.1666
9.0309
8.91837
8.80206
8.70928
8.59577
8.50419
8.39334
8.3076
8.20319
8.13442
8.037
10.1994
9.94254
9.7167
9.52525
9.3476
9.19848
9.04901
8.923
8.78786
8.66827
8.53871
8.42901
8.30665
8.21642
8.10346
10.791
10.4798
10.2001
9.95769
9.73202
9.53531
9.34436
9.1755
9.00679
8.85379
8.69682
8.55927
8.41526
8.3008
8.17187
11.4696
11.0971
10.7589
10.4593
10.1784
9.92678
9.68451
9.46494
9.25125
9.05609
8.8648
8.69223
8.52388
8.37986
8.23564
12.719
12.2176
11.7728
11.3664
11.0019
10.6602
10.3483
10.0504
9.77417
9.51014
9.26426
9.03236
8.81739
8.62006
8.44113
8.28081
13.6211
13.0254
12.4891
11.9978
11.5524
11.139
10.7584
10.401
10.0657
9.75016
9.45171
9.17606
8.91623
8.68633
8.47211
8.29427
14.5882
13.8805
13.2335
12.6379