/*--------------------------------*- C++ -*----------------------------------*\
  =========                 |
  \\      /  F ield         | OpenFOAM: The Open Source CFD Toolbox
   \\    /   O peration     | Website:  https://openfoam.org
    \\  /    A nd           | Version:  6
     \\/     M anipulation  |
\*---------------------------------------------------------------------------*/
FoamFile
{
    version     2.0;
    format      ascii;
    class       volVectorField;
    location    "1.4";
    object      U;
}
// * * * * * * * * * * * * * * * * * * * * * * * * * * * * * * * * * * * * * //

dimensions      [0 1 -1 0 0 0 0];

internalField   nonuniform List<vector> 
63432
(
(0.108425 0.0149556 -2.75593e-05)
(0.109657 0.0136325 -1.50836e-05)
(0.110682 0.0123965 -9.95018e-06)
(0.111381 0.0111595 -8.9807e-06)
(0.111593 0.00992525 -8.9947e-06)
(0.111474 0.00877837 -8.36395e-06)
(0.111392 0.00778442 -7.76996e-06)
(0.111545 0.00692951 -7.62274e-06)
(0.111713 0.00614027 -7.78891e-06)
(0.111492 0.0054112 -8.03921e-06)
(0.111048 0.00475321 -7.43281e-06)
(0.110627 0.00419543 -4.74829e-06)
(0.107199 0.0149469 9.43978e-06)
(0.108307 0.0135639 1.24618e-05)
(0.109385 0.0123133 1.1304e-05)
(0.110346 0.0111317 9.29684e-06)
(0.111008 0.00998215 7.92835e-06)
(0.111247 0.00887979 7.07941e-06)
(0.11121 0.00787441 6.52154e-06)
(0.111214 0.00700901 6.12367e-06)
(0.11136 0.00625615 5.81428e-06)
(0.111486 0.00557838 4.92737e-06)
(0.111415 0.00493409 4.13771e-06)
(0.110975 0.00431025 3.63519e-06)
(0.10394 0.0158188 2.79648e-05)
(0.10514 0.0142825 2.74718e-05)
(0.106276 0.0129078 2.44968e-05)
(0.107417 0.0116728 2.1244e-05)
(0.10852 0.0105355 1.84583e-05)
(0.109483 0.00946343 1.62023e-05)
(0.110179 0.00844955 1.40344e-05)
(0.110495 0.00750026 1.2049e-05)
(0.110595 0.00664882 1.05116e-05)
(0.110665 0.00590303 9.47014e-06)
(0.110755 0.00525702 8.37212e-06)
(0.110944 0.00467978 6.96874e-06)
(0.110839 0.00414409 5.26124e-06)
(0.1015 0.0147165 3.36067e-05)
(0.102911 0.0132653 2.89581e-05)
(0.104194 0.0119601 2.46876e-05)
(0.105405 0.0107826 2.1342e-05)
(0.106588 0.00970973 1.85714e-05)
(0.107691 0.00871788 1.60835e-05)
(0.108691 0.00780307 1.37506e-05)
(0.109449 0.00695512 1.14715e-05)
(0.109903 0.00617689 9.53459e-06)
(0.110164 0.00547699 7.93245e-06)
(0.110261 0.00485947 6.8221e-06)
(0.110426 0.00432911 5.58128e-06)
(0.110525 0.00385676 3.56521e-06)
(0.0989679 0.0133638 3.68279e-05)
(0.10069 0.012037 3.09987e-05)
(0.102218 0.0108409 2.63391e-05)
(0.103573 0.00975461 2.25883e-05)
(0.104832 0.00876518 1.95092e-05)
(0.106003 0.00785929 1.6763e-05)
(0.107109 0.00703592 1.44139e-05)
(0.108126 0.00629085 1.21305e-05)
(0.108942 0.00561272 1.01767e-05)
(0.109556 0.00499754 8.31316e-06)
(0.109904 0.00443658 6.93483e-06)
(0.110142 0.00395053 5.54781e-06)
(0.110314 0.0035349 2.88709e-06)
(0.0938639 0.0128977 4.81691e-05)
(0.0962136 0.0116044 4.05145e-05)
(0.0983116 0.0104506 3.41581e-05)
(0.100168 0.00941206 2.89753e-05)
(0.101781 0.00846525 2.4566e-05)
(0.103203 0.00759747 2.08891e-05)
(0.104477 0.00680263 1.76946e-05)
(0.105636 0.00608218 1.50989e-05)
(0.106741 0.00544043 1.27167e-05)
(0.107733 0.00486784 1.07651e-05)
(0.108634 0.00435927 8.89795e-06)
(0.109299 0.00388989 7.48123e-06)
(0.109796 0.00347316 5.88689e-06)
(0.110157 0.00312527 2.91897e-06)
(0.0905514 0.010465 5.01377e-05)
(0.0932944 0.00940503 4.22747e-05)
(0.0957714 0.00847164 3.57228e-05)
(0.0979886 0.00763882 3.02575e-05)
(0.0999337 0.00688147 2.55138e-05)
(0.10162 0.00618394 2.14507e-05)
(0.103097 0.00554158 1.79161e-05)
(0.104367 0.00495374 1.50321e-05)
(0.105546 0.00443171 1.25442e-05)
(0.106592 0.0039695 1.05522e-05)
(0.107607 0.0035719 8.72497e-06)
(0.108485 0.00321066 7.42578e-06)
(0.109205 0.00289136 6.00287e-06)
(0.109848 0.00261974 2.82034e-06)
(0.0872332 0.00754421 4.90169e-05)
(0.0903508 0.00677241 4.13166e-05)
(0.0931768 0.00610539 3.49015e-05)
(0.0957255 0.00551953 2.95202e-05)
(0.0980103 0.00499435 2.48768e-05)
(0.0999963 0.00450994 2.084e-05)
(0.101757 0.00406334 1.72777e-05)
(0.103238 0.00364745 1.43256e-05)
(0.104559 0.00327487 1.18366e-05)
(0.105693 0.00294207 9.86622e-06)
(0.106732 0.00266053 8.11018e-06)
(0.107706 0.00241066 6.84603e-06)
(0.108508 0.00219989 5.68479e-06)
(0.109365 0.00203089 1.89803e-06)
(0.0802408 0.00465931 5.26579e-05)
(0.0840645 0.00413804 4.40134e-05)
(0.0875319 0.0037154 3.69732e-05)
(0.0906805 0.00336679 3.11798e-05)
(0.0935075 0.00306901 2.62772e-05)
(0.096083 0.00281198 2.21173e-05)
(0.0983485 0.0025756 1.84924e-05)
(0.100384 0.00235836 1.52944e-05)
(0.102138 0.00215137 1.26077e-05)
(0.103672 0.00196212 1.03418e-05)
(0.10499 0.00178914 8.57494e-06)
(0.106115 0.00164279 6.95391e-06)
(0.10716 0.00151474 5.84827e-06)
(0.107981 0.00140965 4.93044e-06)
(0.108907 0.00136763 7.24076e-07)
(0.0770172 0.000352584 4.09825e-05)
(0.0812304 0.000292112 3.42028e-05)
(0.0850126 0.000280568 2.85862e-05)
(0.0884446 0.000302629 2.40735e-05)
(0.0915111 0.000336976 2.01923e-05)
(0.0943025 0.000379949 1.6911e-05)
(0.0967942 0.000419179 1.40947e-05)
(0.0990398 0.000453568 1.16217e-05)
(0.101034 0.000478624 9.55852e-06)
(0.102793 0.000497866 7.79489e-06)
(0.104336 0.000511188 6.48056e-06)
(0.105647 0.000525119 5.18464e-06)
(0.106828 0.000539769 4.3974e-06)
(0.107745 0.000547521 3.74905e-06)
(0.108684 0.000632145 -1.09107e-07)
(0.0744446 -0.00435018 2.31524e-05)
(0.0789661 -0.00389076 1.92538e-05)
(0.0830061 -0.00343806 1.59453e-05)
(0.0866504 -0.00300305 1.33023e-05)
(0.0899103 -0.00259894 1.10377e-05)
(0.0928541 -0.0022277 9.09453e-06)
(0.0954987 -0.0018927 7.46461e-06)
(0.0978874 -0.00159168 6.07937e-06)
(0.100031 -0.00132414 4.97652e-06)
(0.101957 -0.00108474 4.00903e-06)
(0.103675 -0.000871725 3.40479e-06)
(0.105173 -0.000680193 2.65395e-06)
(0.106527 -0.00050615 2.28507e-06)
(0.107615 -0.000363915 2.03788e-06)
(0.108641 -0.000165277 -1.00762e-06)
(0.0728648 -0.00925688 2.8484e-07)
(0.0775694 -0.00823856 -1.915e-07)
(0.0817645 -0.00728947 -5.80817e-07)
(0.0855319 -0.00641626 -8.18117e-07)
(0.0888984 -0.00562361 -1.034e-06)
(0.0919344 -0.00490799 -1.21112e-06)
(0.0946534 -0.00426686 -1.3261e-06)
(0.0971176 -0.00369209 -1.41286e-06)
(0.0993299 -0.00317823 -1.3322e-06)
(0.101331 -0.00271636 -1.33021e-06)
(0.10314 -0.00230098 -1.06776e-06)
(0.104736 -0.00192619 -1.02083e-06)
(0.106213 -0.00158732 -7.33434e-07)
(0.107423 -0.00129397 -2.72795e-07)
(0.108572 -0.000981863 -2.64519e-06)
(0.0673415 -0.0158043 -2.66337e-05)
(0.0726185 -0.0140896 -2.39963e-05)
(0.0773353 -0.0125018 -2.14649e-05)
(0.081537 -0.0110536 -1.92117e-05)
(0.0853094 -0.00974391 -1.71428e-05)
(0.0886802 -0.00856829 -1.53042e-05)
(0.0917212 -0.0075155 -1.36849e-05)
(0.0944513 -0.00657504 -1.21365e-05)
(0.0969177 -0.00573344 -1.07269e-05)
(0.0991443 -0.00497901 -9.2675e-06)
(0.101142 -0.00430005 -8.01509e-06)
(0.102966 -0.00368744 -6.63538e-06)
(0.104561 -0.00313335 -5.58037e-06)
(0.106062 -0.00263276 -4.47983e-06)
(0.10729 -0.00219051 -3.23494e-06)
(0.108486 -0.00175407 -5.1274e-06)
(0.0690067 -0.0208521 -4.69952e-05)
(0.0740355 -0.0185042 -4.40705e-05)
(0.0785375 -0.016373 -4.07242e-05)
(0.0825622 -0.0144566 -3.71614e-05)
(0.0861834 -0.0127434 -3.36196e-05)
(0.089438 -0.0112172 -3.01502e-05)
(0.0923763 -0.00985806 -2.69037e-05)
(0.0950311 -0.00864623 -2.37289e-05)
(0.0974256 -0.00756222 -2.07803e-05)
(0.0995965 -0.00658906 -1.78576e-05)
(0.101537 -0.00571198 -1.52692e-05)
(0.103307 -0.0049196 -1.26825e-05)
(0.104849 -0.00420316 -1.05641e-05)
(0.106292 -0.003555 -8.58108e-06)
(0.107479 -0.00298216 -6.60539e-06)
(0.108613 -0.00242683 -7.70175e-06)
(0.073054 -0.0249799 -5.42005e-05)
(0.077461 -0.0220707 -5.50376e-05)
(0.0814348 -0.0194705 -5.38305e-05)
(0.0850262 -0.0171611 -5.11766e-05)
(0.0882892 -0.0151149 -4.76372e-05)
(0.0912524 -0.013302 -4.35683e-05)
(0.093951 -0.0116929 -3.93326e-05)
(0.0964065 -0.0102602 -3.49557e-05)
(0.0986363 -0.0089794 -3.07272e-05)
(0.100664 -0.00782964 -2.65052e-05)
(0.102485 -0.00679408 -2.26675e-05)
(0.104144 -0.00585953 -1.89408e-05)
(0.105595 -0.00501706 -1.57775e-05)
(0.106941 -0.00425612 -1.28952e-05)
(0.108064 -0.0035839 -1.01696e-05)
(0.109095 -0.00294873 -1.00411e-05)
(0.0799251 -0.0275403 -4.93273e-05)
(0.0832365 -0.0242386 -5.64519e-05)
(0.0862862 -0.0213259 -5.98113e-05)
(0.0891079 -0.0187556 -6.01764e-05)
(0.0917354 -0.0164881 -5.8338e-05)
(0.0941737 -0.014486 -5.48979e-05)
(0.0964382 -0.0127138 -5.04939e-05)
(0.0985309 -0.0111395 -4.54586e-05)
(0.100459 -0.0097362 -4.02805e-05)
(0.102232 -0.00848084 -3.50249e-05)
(0.103842 -0.00735503 -3.00951e-05)
(0.10532 -0.00634378 -2.53707e-05)
(0.106627 -0.00543646 -2.12281e-05)
(0.107844 -0.00462178 -1.75166e-05)
(0.108875 -0.00389948 -1.40123e-05)
(0.109811 -0.00324157 -1.27129e-05)
(0.0895953 -0.0275522 -5.07426e-05)
(0.0914253 -0.0242064 -5.90165e-05)
(0.093181 -0.0212591 -6.50559e-05)
(0.0948931 -0.0186619 -6.77815e-05)
(0.096575 -0.0163719 -6.74355e-05)
(0.0982177 -0.0143511 -6.46988e-05)
(0.0998135 -0.0125663 -6.03466e-05)
(0.101349 -0.0109865 -5.49211e-05)
(0.10281 -0.00958413 -4.90655e-05)
(0.104196 -0.00833571 -4.30645e-05)
(0.105487 -0.00722197 -3.73162e-05)
(0.106701 -0.00622698 -3.18309e-05)
(0.107796 -0.00533828 -2.68841e-05)
(0.108835 -0.00454481 -2.24806e-05)
(0.109728 -0.00383956 -1.82563e-05)
(0.110559 -0.00321378 -1.61308e-05)
(0.100502 -0.0239186 -8.18349e-05)
(0.100905 -0.0210286 -7.92439e-05)
(0.10132 -0.0184717 -7.97626e-05)
(0.101809 -0.0162138 -7.99573e-05)
(0.102392 -0.0142204 -7.84501e-05)
(0.103071 -0.0124594 -7.4969e-05)
(0.10383 -0.0109017 -6.99898e-05)
(0.104657 -0.00952214 -6.40302e-05)
(0.105523 -0.00829829 -5.75962e-05)
(0.106417 -0.00721047 -5.10221e-05)
(0.107304 -0.00624218 -4.46441e-05)
(0.108189 -0.00537938 -3.85414e-05)
(0.10902 -0.00461119 -3.28932e-05)
(0.109838 -0.00392684 -2.7827e-05)
(0.110557 -0.00331988 -2.2923e-05)
(0.111254 -0.00278564 -1.99649e-05)
(0.110024 -0.0163142 -0.000136488)
(0.109442 -0.0143684 -0.000116394)
(0.108851 -0.0126415 -0.000105351)
(0.108346 -0.0111161 -9.84015e-05)
(0.107974 -0.00976963 -9.26951e-05)
(0.107765 -0.00857857 -8.68732e-05)
(0.10772 -0.00752161 -8.04568e-05)
(0.107839 -0.00658075 -7.35356e-05)
(0.108101 -0.00574177 -6.63697e-05)
(0.108491 -0.00499289 -5.91596e-05)
(0.10897 -0.00432448 -5.21218e-05)
(0.109522 -0.00372772 -4.53623e-05)
(0.110094 -0.00319641 -3.89878e-05)
(0.110697 -0.00272203 -3.31924e-05)
(0.111253 -0.00230277 -2.76151e-05)
(0.111815 -0.00193126 -2.36069e-05)
(0.115388 -0.00581224 -0.000180305)
(0.114357 -0.00510881 -0.000147515)
(0.113284 -0.00448445 -0.000127413)
(0.112278 -0.00393528 -0.000114342)
(0.111398 -0.00345404 -0.000104744)
(0.110687 -0.00303204 -9.65915e-05)
(0.110165 -0.00266048 -8.88361e-05)
(0.109844 -0.00233174 -8.11056e-05)
(0.10972 -0.00203925 -7.33472e-05)
(0.109778 -0.00177796 -6.56405e-05)
(0.109986 -0.00154432 -5.8093e-05)
(0.110317 -0.00133508 -5.08149e-05)
(0.110722 -0.00114829 -4.38693e-05)
(0.111185 -0.000980503 -3.74686e-05)
(0.111643 -0.000832068 -3.13541e-05)
(0.11212 -0.000698747 -2.63376e-05)
(0.184118 0.0245397 -4.89276e-05)
(0.185327 0.022443 -2.55966e-05)
(0.186467 0.0205267 -6.63409e-06)
(0.187408 0.018661 1.08763e-06)
(0.187969 0.0168084 5.57006e-07)
(0.188206 0.0150455 -8.32897e-07)
(0.188354 0.0134505 -1.48983e-06)
(0.188584 0.0120253 -1.71691e-06)
(0.188768 0.0107104 -3.88018e-06)
(0.188657 0.00951545 -8.66313e-06)
(0.188422 0.0084569 -1.09263e-05)
(0.188172 0.0075206 -9.33212e-06)
(0.182731 0.0248113 -5.2604e-06)
(0.184018 0.0226356 7.55033e-06)
(0.185263 0.0206553 1.37068e-05)
(0.186394 0.0187865 1.545e-05)
(0.187257 0.016969 1.45837e-05)
(0.187753 0.015219 1.29466e-05)
(0.187982 0.0135993 1.14782e-05)
(0.188168 0.0121594 1.06131e-05)
(0.188419 0.0108753 1.02578e-05)
(0.188584 0.00971054 8.07851e-06)
(0.188583 0.00863559 6.3166e-06)
(0.188351 0.00762912 4.79557e-06)
(0.179311 0.0270504 3.54431e-05)
(0.180757 0.0245983 3.8864e-05)
(0.182146 0.0223749 3.87349e-05)
(0.183504 0.0203525 3.72712e-05)
(0.184796 0.0184761 3.55338e-05)
(0.185925 0.0166939 3.34935e-05)
(0.18677 0.0149934 3.05255e-05)
(0.187274 0.013397 2.68932e-05)
(0.187555 0.0119485 2.36882e-05)
(0.187786 0.0106596 2.17414e-05)
(0.188004 0.00951863 1.94485e-05)
(0.188217 0.008489 1.72815e-05)
(0.188218 0.00754238 1.32367e-05)
(0.176742 0.0263765 6.14681e-05)
(0.178446 0.0239384 5.4291e-05)
(0.180021 0.0217207 4.76693e-05)
(0.181513 0.0196999 4.27992e-05)
(0.182939 0.0178392 3.92735e-05)
(0.184255 0.0161011 3.61187e-05)
(0.185398 0.0144705 3.2644e-05)
(0.186269 0.0129463 2.8453e-05)
(0.186842 0.0115445 2.40978e-05)
(0.187216 0.0102794 2.07235e-05)
(0.187468 0.00915584 1.77779e-05)
(0.187727 0.00816711 1.54499e-05)
(0.187903 0.0072846 1.05237e-05)
(0.173864 0.0252841 7.72584e-05)
(0.175942 0.0229081 6.42112e-05)
(0.177814 0.0207448 5.39248e-05)
(0.179508 0.0187689 4.6261e-05)
(0.181076 0.0169531 4.07587e-05)
(0.182521 0.0152721 3.63236e-05)
(0.183841 0.0137164 3.24968e-05)
(0.184992 0.0122827 2.84011e-05)
(0.185906 0.0109688 2.40745e-05)
(0.186582 0.00977533 2.01111e-05)
(0.187026 0.0086973 1.66499e-05)
(0.187358 0.0077476 1.38322e-05)
(0.187617 0.00692805 6.71993e-06)
(0.16778 0.0261103 0.000112332)
(0.170609 0.0236249 9.22168e-05)
(0.173159 0.0213708 7.55295e-05)
(0.175439 0.0193218 6.2326e-05)
(0.177453 0.0174482 5.18594e-05)
(0.179243 0.0157248 4.38928e-05)
(0.18084 0.0141335 3.7588e-05)
(0.182276 0.0126702 3.26716e-05)
(0.18358 0.0113378 2.82506e-05)
(0.184721 0.0101319 2.39877e-05)
(0.185691 0.00904735 2.00094e-05)
(0.186428 0.00806238 1.64117e-05)
(0.186972 0.00718141 1.33826e-05)
(0.187377 0.00643677 4.66457e-06)
(0.163647 0.0236002 0.000127381)
(0.167024 0.0213045 0.000104133)
(0.170091 0.0192377 8.51073e-05)
(0.172847 0.0173686 6.97885e-05)
(0.175281 0.0156641 5.72606e-05)
(0.177404 0.0140968 4.71557e-05)
(0.179252 0.0126501 3.89786e-05)
(0.18085 0.0113194 3.24983e-05)
(0.182272 0.0101134 2.72035e-05)
(0.183525 0.00903087 2.26215e-05)
(0.184659 0.0080735 1.8663e-05)
(0.185632 0.00721401 1.52024e-05)
(0.186413 0.00644544 1.25194e-05)
(0.187051 0.00579562 3.14904e-06)
(0.159311 0.0202819 0.000136814)
(0.16325 0.0182557 0.000111588)
(0.166837 0.016448 9.10895e-05)
(0.170075 0.014826 7.44635e-05)
(0.172965 0.0133584 6.08123e-05)
(0.175489 0.0120149 4.94115e-05)
(0.177682 0.0107788 3.99383e-05)
(0.179542 0.00963982 3.21031e-05)
(0.181145 0.00860645 2.58625e-05)
(0.182518 0.0076786 2.08072e-05)
(0.183731 0.00686553 1.64475e-05)
(0.184822 0.00614654 1.30985e-05)
(0.185739 0.00551611 1.07676e-05)
(0.186584 0.00500087 -2.50024e-08)
(0.150003 0.0179629 0.000170965)
(0.154959 0.0160711 0.000138788)
(0.159473 0.0144132 0.000112786)
(0.163574 0.0129521 9.1807e-05)
(0.167265 0.0116534 7.46838e-05)
(0.170584 0.0104925 6.07351e-05)
(0.173506 0.00943945 4.89487e-05)
(0.176067 0.00847893 3.89708e-05)
(0.178258 0.00759628 3.04998e-05)
(0.180125 0.00679431 2.3568e-05)
(0.181702 0.0060716 1.81619e-05)
(0.183033 0.00543728 1.33627e-05)
(0.184211 0.00488132 1.00996e-05)
(0.185182 0.00439643 8.05396e-06)
(0.186124 0.00404971 -4.34348e-06)
(0.145196 0.0122847 0.000160554)
(0.150836 0.0109179 0.000129889)
(0.155923 0.00974584 0.000104929)
(0.160518 0.00873499 8.49856e-05)
(0.164631 0.00785 6.86353e-05)
(0.168319 0.00707153 5.53277e-05)
(0.171587 0.00637568 4.41743e-05)
(0.174468 0.00574913 3.46332e-05)
(0.176973 0.00517897 2.64875e-05)
(0.179126 0.00466315 1.95005e-05)
(0.180962 0.00419867 1.41048e-05)
(0.182497 0.0037896 9.19604e-06)
(0.18382 0.00343485 5.90992e-06)
(0.184886 0.00311455 4.45283e-06)
(0.185867 0.00294522 -8.02726e-06)
(0.140999 0.00553885 0.000132639)
(0.147278 0.00484203 0.000106407)
(0.152898 0.00428495 8.50364e-05)
(0.157933 0.00383527 6.80018e-05)
(0.162417 0.00346186 5.41419e-05)
(0.166409 0.00314705 4.2805e-05)
(0.169944 0.00287444 3.33825e-05)
(0.173066 0.00263558 2.53754e-05)
(0.175801 0.00242224 1.85479e-05)
(0.178185 0.00223371 1.25129e-05)
(0.180248 0.00206783 7.83698e-06)
(0.182002 0.00192571 3.45722e-06)
(0.183516 0.0018108 3.71261e-07)
(0.184745 0.00169498 -3.94795e-07)
(0.18581 0.00170412 -1.13753e-05)
(0.137926 -0.00213973 8.3833e-05)
(0.144728 -0.00202063 6.51157e-05)
(0.150775 -0.00183792 5.01359e-05)
(0.15615 -0.00162147 3.8348e-05)
(0.160909 -0.00139625 2.88536e-05)
(0.165123 -0.00117381 2.11385e-05)
(0.168836 -0.000964666 1.47004e-05)
(0.17211 -0.000769154 9.23883e-06)
(0.174981 -0.000588986 4.70192e-06)
(0.177494 -0.000419968 5.60844e-07)
(0.179692 -0.000259478 -2.45439e-06)
(0.181582 -0.000105537 -5.38609e-06)
(0.183239 4.68355e-05 -7.2751e-06)
(0.18461 0.000173533 -6.88817e-06)
(0.185791 0.000377081 -1.61166e-05)
(0.128585 -0.0114784 2.18861e-05)
(0.136609 -0.0104322 1.16829e-05)
(0.143721 -0.00937435 4.0315e-06)
(0.150005 -0.0083532 -1.76565e-06)
(0.155557 -0.00739179 -5.9839e-06)
(0.160447 -0.00650659 -9.20051e-06)
(0.164755 -0.00569897 -1.17372e-05)
(0.168538 -0.0049688 -1.37507e-05)
(0.171859 -0.00430822 -1.54696e-05)
(0.174769 -0.00370908 -1.66276e-05)
(0.177306 -0.00316207 -1.77877e-05)
(0.179532 -0.00265803 -1.80148e-05)
(0.181448 -0.00219235 -1.84686e-05)
(0.183141 -0.00175806 -1.81356e-05)
(0.184555 -0.00137381 -1.58712e-05)
(0.185791 -0.000952469 -2.36437e-05)
(0.129639 -0.0208275 -9.59844e-05)
(0.137671 -0.01868 -8.75183e-05)
(0.14475 -0.0166418 -7.99824e-05)
(0.150979 -0.0147546 -7.32266e-05)
(0.156463 -0.0130337 -6.72208e-05)
(0.161284 -0.0114821 -6.18896e-05)
(0.165518 -0.0100897 -5.73049e-05)
(0.169233 -0.00884157 -5.31631e-05)
(0.172484 -0.00771983 -4.95888e-05)
(0.175331 -0.00670569 -4.59926e-05)
(0.177804 -0.0057841 -4.29e-05)
(0.179967 -0.00494063 -3.92211e-05)
(0.181821 -0.00416873 -3.61878e-05)
(0.183453 -0.00345775 -3.28652e-05)
(0.184816 -0.00282687 -2.78359e-05)
(0.186001 -0.00218971 -3.30936e-05)
(0.134116 -0.0288847 -0.000254186)
(0.141624 -0.0257788 -0.000218247)
(0.148213 -0.0228965 -0.000189232)
(0.154003 -0.0202645 -0.000165676)
(0.159098 -0.0178879 -0.000146307)
(0.163582 -0.0157582 -0.000130063)
(0.167525 -0.013855 -0.00011632)
(0.17099 -0.0121526 -0.000104252)
(0.174026 -0.0106243 -9.36829e-05)
(0.176684 -0.00924458 -8.37903e-05)
(0.178994 -0.00799366 -7.49637e-05)
(0.181009 -0.0068541 -6.61943e-05)
(0.182732 -0.00581828 -5.85102e-05)
(0.18424 -0.00487259 -5.12824e-05)
(0.185501 -0.00403403 -4.27494e-05)
(0.186571 -0.00322892 -4.38213e-05)
(0.142367 -0.0339397 -0.000455178)
(0.148744 -0.0303188 -0.000382204)
(0.154329 -0.0269574 -0.000325527)
(0.159241 -0.0238835 -0.000280824)
(0.163573 -0.0211002 -0.000244768)
(0.167399 -0.0185974 -0.000214825)
(0.170781 -0.0163533 -0.000189378)
(0.173766 -0.0143412 -0.000167085)
(0.176396 -0.0125332 -0.000147415)
(0.178708 -0.0109026 -0.000129463)
(0.180727 -0.00942871 -0.000113403)
(0.182495 -0.00809297 -9.83639e-05)
(0.184012 -0.00688596 -8.50622e-05)
(0.185343 -0.00579392 -7.30979e-05)
(0.186462 -0.00482351 -6.0633e-05)
(0.187404 -0.00393164 -5.66854e-05)
(0.153556 -0.0342443 -0.00071075)
(0.158535 -0.0307682 -0.000589473)
(0.162806 -0.0275022 -0.000495566)
(0.166509 -0.0244699 -0.000421737)
(0.169758 -0.0216874 -0.000362541)
(0.172628 -0.0191585 -0.000313875)
(0.175174 -0.0168724 -0.000272998)
(0.17744 -0.0148097 -0.000237796)
(0.179455 -0.0129487 -0.000207188)
(0.18125 -0.0112674 -0.000180009)
(0.182837 -0.0097482 -0.000156011)
(0.184249 -0.00837482 -0.000134235)
(0.185478 -0.00713743 -0.000115002)
(0.186571 -0.00602416 -9.79359e-05)
(0.1875 -0.00503252 -8.12953e-05)
(0.188299 -0.00414644 -7.25569e-05)
(0.165026 -0.0290697 -0.00100925)
(0.168892 -0.0262644 -0.000830812)
(0.172049 -0.0236205 -0.000690744)
(0.174644 -0.0211518 -0.000579544)
(0.176804 -0.0188647 -0.000490494)
(0.178642 -0.0167593 -0.000418474)
(0.180238 -0.0148318 -0.000359514)
(0.181653 -0.0130717 -0.000310331)
(0.182925 -0.0114661 -0.000268608)
(0.184086 -0.0100023 -0.000232422)
(0.185145 -0.00867065 -0.0002008)
(0.186122 -0.00746179 -0.000172518)
(0.187001 -0.00637039 -0.000147433)
(0.187812 -0.00538813 -0.00012515)
(0.188514 -0.00451211 -0.00010414)
(0.189144 -0.00373788 -9.04084e-05)
(0.173836 -0.0191609 -0.00127471)
(0.177106 -0.0173654 -0.00104567)
(0.179638 -0.0156836 -0.00086345)
(0.181562 -0.0141251 -0.000718188)
(0.183 -0.0126883 -0.000602229)
(0.184074 -0.0113637 -0.000509538)
(0.184896 -0.0101392 -0.000435138)
(0.185563 -0.00900419 -0.000374573)
(0.186147 -0.00795108 -0.000324208)
(0.186701 -0.00697464 -0.000281084)
(0.187246 -0.00607308 -0.000243381)
(0.187798 -0.00524486 -0.000209643)
(0.188338 -0.0044908 -0.000179358)
(0.188876 -0.00380724 -0.000152197)
(0.189366 -0.00319582 -0.000127023)
(0.189832 -0.00265381 -0.000107889)
(0.178182 -0.00667013 -0.00142327)
(0.181233 -0.00603071 -0.00116545)
(0.183547 -0.00543336 -0.000959905)
(0.185235 -0.00488483 -0.000796118)
(0.186405 -0.00438611 -0.000665876)
(0.187163 -0.00393422 -0.000562567)
(0.187626 -0.00352257 -0.000480498)
(0.187907 -0.00314389 -0.00041455)
(0.188105 -0.00279272 -0.000360261)
(0.188295 -0.00246549 -0.000314012)
(0.188519 -0.00216077 -0.000273351)
(0.1888 -0.00187789 -0.000236669)
(0.189124 -0.00161759 -0.000203238)
(0.189488 -0.00137881 -0.000172839)
(0.189848 -0.00116344 -0.000144756)
(0.190213 -0.000970201 -0.000121195)
(0.223003 0.0284245 -0.000121163)
(0.224017 0.026078 -9.89701e-05)
(0.225121 0.0239521 -7.48506e-05)
(0.226146 0.0219141 -5.63799e-05)
(0.226837 0.0198902 -4.46512e-05)
(0.227171 0.0179294 -3.51852e-05)
(0.227356 0.0161127 -2.84251e-05)
(0.227585 0.0144606 -2.43832e-05)
(0.227751 0.0129302 -2.38765e-05)
(0.227614 0.011536 -2.61781e-05)
(0.22733 0.0102984 -2.57155e-05)
(0.227028 0.00918435 -2.17396e-05)
(0.221204 0.0289605 -5.80737e-05)
(0.22238 0.0265215 -4.54135e-05)
(0.223621 0.0243044 -3.55935e-05)
(0.224833 0.0222235 -2.77929e-05)
(0.225819 0.0201991 -2.14643e-05)
(0.226435 0.0182296 -1.55474e-05)
(0.226744 0.0163757 -1.04165e-05)
(0.226965 0.0146962 -6.59925e-06)
(0.227227 0.0131791 -4.05697e-06)
(0.22739 0.0117952 -4.52571e-06)
(0.227374 0.0105247 -4.54758e-06)
(0.227128 0.00933673 -4.9495e-06)
(0.217652 0.0318417 6.58674e-06)
(0.218944 0.029086 5.89933e-06)
(0.220281 0.0265749 5.64731e-06)
(0.221662 0.0242855 6.15923e-06)
(0.223039 0.0221618 7.62183e-06)
(0.224291 0.0201395 9.66549e-06)
(0.22526 0.0181929 1.13333e-05)
(0.225871 0.0163433 1.23314e-05)
(0.226218 0.0146403 1.29191e-05)
(0.226494 0.0131053 1.38784e-05)
(0.226743 0.0117305 1.32887e-05)
(0.226965 0.0104857 1.19013e-05)
(0.226968 0.00933564 7.34706e-06)
(0.214763 0.0315738 5.33735e-05)
(0.216364 0.0287928 4.08285e-05)
(0.217922 0.0262508 3.17486e-05)
(0.219462 0.023927 2.64646e-05)
(0.220986 0.0217821 2.40256e-05)
(0.222434 0.0197699 2.31101e-05)
(0.223709 0.0178641 2.23703e-05)
(0.224697 0.0160622 2.08565e-05)
(0.22536 0.0143858 1.8685e-05)
(0.225797 0.0128569 1.7012e-05)
(0.226102 0.011485 1.53761e-05)
(0.2264 0.0102658 1.37314e-05)
(0.226601 0.00916633 7.16928e-06)
(0.211522 0.0308787 9.18276e-05)
(0.213536 0.0281142 7.02483e-05)
(0.215417 0.0255839 5.42337e-05)
(0.217187 0.0232657 4.34292e-05)
(0.218874 0.0211283 3.6985e-05)
(0.220468 0.0191392 3.31872e-05)
(0.221941 0.0172798 3.0769e-05)
(0.223229 0.0155442 2.80093e-05)
(0.224256 0.0139349 2.45674e-05)
(0.225018 0.012459 2.09631e-05)
(0.225529 0.0111171 1.76765e-05)
(0.22592 0.00992318 1.52326e-05)
(0.226221 0.0088767 4.98224e-06)
(0.20511 0.0325509 0.000166136)
(0.207844 0.0296052 0.000130165)
(0.210371 0.0269122 0.000101235)
(0.212692 0.0244498 7.90107e-05)
(0.214809 0.0221913 6.25767e-05)
(0.216744 0.0201077 5.13874e-05)
(0.218512 0.0181733 4.38412e-05)
(0.220127 0.0163774 3.89639e-05)
(0.221595 0.0147196 3.48129e-05)
(0.222879 0.0131991 3.0594e-05)
(0.223966 0.0118152 2.60873e-05)
(0.224798 0.010552 2.16275e-05)
(0.225422 0.00941435 1.83501e-05)
(0.22588 0.00843416 4.79542e-06)
(0.200415 0.030456 0.000208075)
(0.203755 0.027641 0.000164935)
(0.206852 0.0250825 0.000130173)
(0.209695 0.0227521 0.000102892)
(0.212268 0.0206184 8.17874e-05)
(0.214571 0.0186508 6.61277e-05)
(0.216615 0.0168255 5.45933e-05)
(0.218418 0.015133 4.64213e-05)
(0.220031 0.0135784 4.01672e-05)
(0.221461 0.0121635 3.47907e-05)
(0.222746 0.0108926 2.96414e-05)
(0.223845 0.00974342 2.46529e-05)
(0.224743 0.00870845 2.13102e-05)
(0.225454 0.00781906 5.66898e-06)
(0.195398 0.0274981 0.000242607)
(0.199374 0.02489 0.00019364)
(0.203062 0.0225372 0.000154286)
(0.206452 0.0204071 0.000123201)
(0.209536 0.0184673 9.88128e-05)
(0.212288 0.0166853 7.98872e-05)
(0.214715 0.0150372 6.51529e-05)
(0.216813 0.0135092 5.38049e-05)
(0.218636 0.0121061 4.50927e-05)
(0.220214 0.0108303 3.80969e-05)
(0.221611 0.00969274 3.18894e-05)
(0.222857 0.00867633 2.64023e-05)
(0.223928 0.00777363 2.32519e-05)
(0.224874 0.00701779 4.74187e-06)
(0.185202 0.0261429 0.000331533)
(0.190223 0.0235561 0.000265843)
(0.194871 0.0212532 0.000212797)
(0.199162 0.0191945 0.000170347)
(0.203094 0.0173443 0.000136733)
(0.20668 0.015673 0.000110425)
(0.209896 0.0141488 8.96803e-05)
(0.212747 0.0127489 7.31077e-05)
(0.21522 0.0114556 5.96989e-05)
(0.217347 0.0102686 4.89019e-05)
(0.219158 0.00918723 4.03432e-05)
(0.220705 0.00822208 3.28359e-05)
(0.222063 0.00736516 2.67155e-05)
(0.223218 0.00660709 2.37015e-05)
(0.224284 0.00602077 2.44458e-06)
(0.179281 0.0206683 0.000338084)
(0.18512 0.0185317 0.000270981)
(0.190471 0.0166565 0.00021672)
(0.195372 0.0150017 0.000173663)
(0.199833 0.0135289 0.000139611)
(0.203884 0.012211 0.000113069)
(0.207525 0.0110204 9.22115e-05)
(0.210768 0.00993741 7.5434e-05)
(0.213612 0.00894488 6.16268e-05)
(0.216077 0.00803781 4.99453e-05)
(0.218188 0.00721249 4.05543e-05)
(0.219971 0.00647354 3.21278e-05)
(0.221503 0.00582034 2.52698e-05)
(0.222775 0.00523133 2.24335e-05)
(0.223903 0.00482823 6.65803e-07)
(0.173766 0.0139137 0.000312809)
(0.180428 0.0123872 0.00024929)
(0.186479 0.0110826 0.000198293)
(0.19197 0.00995706 0.000158225)
(0.19693 0.00897299 0.000126929)
(0.201398 0.00810408 0.000102687)
(0.205398 0.00732747 8.38097e-05)
(0.208962 0.00662842 6.8732e-05)
(0.212106 0.00599377 5.63181e-05)
(0.214859 0.00541924 4.54816e-05)
(0.217249 0.00490088 3.65703e-05)
(0.219293 0.00443913 2.83775e-05)
(0.221049 0.00403685 2.14203e-05)
(0.222511 0.00366335 1.89165e-05)
(0.223746 0.00345272 -1.04617e-06)
(0.169199 0.00594352 0.000243755)
(0.176619 0.00520106 0.000190535)
(0.183301 0.00461712 0.000148791)
(0.189312 0.0041495 0.000116749)
(0.194699 0.0037634 9.23503e-05)
(0.199514 0.00343684 7.38874e-05)
(0.203797 0.00315136 5.97446e-05)
(0.207597 0.00289905 4.85784e-05)
(0.210948 0.00267304 3.95359e-05)
(0.213892 0.00247349 3.14346e-05)
(0.216468 0.0023006 2.4769e-05)
(0.218698 0.00215511 1.84522e-05)
(0.220637 0.00204114 1.28785e-05)
(0.222276 0.00193042 1.16166e-05)
(0.223659 0.00193749 -5.93083e-06)
(0.157361 -0.00303692 0.000157876)
(0.166289 -0.00296239 0.00011503)
(0.174293 -0.00276111 8.24973e-05)
(0.181449 -0.00249249 5.82789e-05)
(0.187836 -0.00219408 4.09638e-05)
(0.19352 -0.00189474 2.88507e-05)
(0.198567 -0.00160818 2.05227e-05)
(0.20303 -0.0013439 1.47439e-05)
(0.206967 -0.00110183 1.0414e-05)
(0.210429 -0.000879344 7.17803e-06)
(0.213459 -0.000670669 4.00957e-06)
(0.216114 -0.000468986 1.69144e-06)
(0.218414 -0.00027105 -8.47487e-07)
(0.220427 -7.07187e-05 -3.2175e-06)
(0.22214 0.000108318 -1.67483e-06)
(0.223606 0.000365212 -1.67975e-05)
(0.156579 -0.0133462 -9.82191e-05)
(0.165858 -0.0121334 -9.63988e-05)
(0.174121 -0.0109094 -9.23251e-05)
(0.181465 -0.00972796 -8.66363e-05)
(0.187984 -0.00862017 -7.97982e-05)
(0.193759 -0.00760417 -7.22627e-05)
(0.198863 -0.00668344 -6.46631e-05)
(0.203361 -0.00585376 -5.73035e-05)
(0.207312 -0.00510476 -5.08e-05)
(0.210775 -0.00442258 -4.4794e-05)
(0.213793 -0.00379494 -3.99953e-05)
(0.216425 -0.00320907 -3.52657e-05)
(0.218695 -0.00265992 -3.15672e-05)
(0.220674 -0.0021381 -2.85193e-05)
(0.222355 -0.00166816 -2.21908e-05)
(0.223785 -0.00115506 -3.28974e-05)
(0.159495 -0.0226023 -0.000490826)
(0.16858 -0.0203543 -0.000414673)
(0.176628 -0.018213 -0.000351575)
(0.183757 -0.016217 -0.000299456)
(0.190068 -0.0143868 -0.000256162)
(0.19565 -0.012729 -0.000219737)
(0.200577 -0.011237 -0.000188939)
(0.204914 -0.00989515 -0.000162484)
(0.208717 -0.00868348 -0.000139969)
(0.212044 -0.00757995 -0.000120191)
(0.214936 -0.00656707 -0.000103337)
(0.217448 -0.00562881 -8.80463e-05)
(0.219605 -0.00475986 -7.49642e-05)
(0.221473 -0.00394903 -6.38254e-05)
(0.223054 -0.00321966 -5.06357e-05)
(0.224373 -0.00249245 -5.34979e-05)
(0.166483 -0.028854 -0.0010189)
(0.174746 -0.025985 -0.000843563)
(0.182051 -0.0232824 -0.000702548)
(0.188512 -0.0207763 -0.000588866)
(0.194228 -0.0184797 -0.000496513)
(0.199282 -0.0163938 -0.000420541)
(0.203743 -0.0145079 -0.000357354)
(0.207671 -0.0128032 -0.000303977)
(0.211117 -0.0112571 -0.000258712)
(0.214131 -0.00984619 -0.000219587)
(0.21675 -0.00855219 -0.000186068)
(0.219025 -0.00735905 -0.000156531)
(0.220977 -0.00626144 -0.000131106)
(0.222665 -0.00524956 -0.000109481)
(0.224097 -0.0043378 -8.77156e-05)
(0.225283 -0.00347958 -8.05468e-05)
(0.176633 -0.0301909 -0.00165125)
(0.18371 -0.0273328 -0.0013683)
(0.189934 -0.024622 -0.00113778)
(0.19541 -0.0220864 -0.000949612)
(0.200231 -0.019742 -0.000795311)
(0.204473 -0.0175929 -0.0006679)
(0.208202 -0.0156318 -0.00056216)
(0.211477 -0.0138425 -0.000473746)
(0.214346 -0.0122061 -0.000399631)
(0.216856 -0.010703 -0.000336822)
(0.219043 -0.00931901 -0.000283631)
(0.220951 -0.0080421 -0.00023775)
(0.222597 -0.00686861 -0.000198424)
(0.224032 -0.00579256 -0.000164963)
(0.225255 -0.00481995 -0.000133479)
(0.226284 -0.0039345 -0.000115984)
(0.187009 -0.0259162 -0.00230011)
(0.193124 -0.0235674 -0.0019192)
(0.198431 -0.0213456 -0.00160123)
(0.203025 -0.0192678 -0.00133532)
(0.20699 -0.0173437 -0.00111373)
(0.210403 -0.0155715 -0.00092988)
(0.213338 -0.0139405 -0.000777935)
(0.215863 -0.0124343 -0.000652393)
(0.218042 -0.0110362 -0.000548548)
(0.219933 -0.00973194 -0.000461904)
(0.221581 -0.00851425 -0.000389159)
(0.223031 -0.00737867 -0.000327001)
(0.224299 -0.00632734 -0.000273604)
(0.225424 -0.00535964 -0.000227798)
(0.226395 -0.00448114 -0.00018593)
(0.227236 -0.00369143 -0.000157505)
(0.194566 -0.0170245 -0.00279805)
(0.200156 -0.0154972 -0.00234573)
(0.204983 -0.0140678 -0.00196446)
(0.209111 -0.0127538 -0.00164249)
(0.212594 -0.0115568 -0.00137176)