/*--------------------------------*- C++ -*----------------------------------*\
  =========                 |
  \\      /  F ield         | OpenFOAM: The Open Source CFD Toolbox
   \\    /   O peration     | Website:  https://openfoam.org
    \\  /    A nd           | Version:  6
     \\/     M anipulation  |
\*---------------------------------------------------------------------------*/
FoamFile
{
    version     2.0;
    format      ascii;
    class       volScalarField;
    location    "11";
    object      yPlus;
}
// * * * * * * * * * * * * * * * * * * * * * * * * * * * * * * * * * * * * * //

dimensions      [0 0 0 0 0 0 0];

internalField   uniform 0;

boundaryField
{
    inlet
    {
        type            calculated;
        value           uniform 0;
    }
    outlet
    {
        type            calculated;
        value           uniform 0;
    }
    roughCylinder
    {
        type            calculated;
        value           nonuniform List<scalar> 
5120
(
43.6471
51.4756
57.7145
63.8474
69.1383
73.4271
76.8617
79.6363
81.907
83.8095
85.4639
86.9453
88.2915
89.5359
90.7093
91.8424
92.9658
94.1074
95.2911
96.534
97.8451
99.227
100.677
102.186
103.747
105.346
106.966
108.586
110.167
111.638
112.855
113.573
42.9478
50.4896
56.5278
62.519
67.7347
71.987
75.4025
78.1687
80.4396
82.349
84.0119
85.4966
86.8337
88.0637
89.2191
90.3307
91.4302
92.5469
93.7047
94.9199
96.2021
97.5537
98.9714
100.448
101.973
103.536
105.118
106.7
108.243
109.678
110.865
111.565
42.1572
49.4533
55.306
61.1593
66.3031
70.5252
73.9299
76.6971
78.978
80.9026
82.5787
84.0683
85.4013
86.6206
87.7593
88.8509
89.9286
91.0214
92.153
93.3414
94.5953
95.9171
97.3033
98.747
100.238
101.764
103.309
104.853
106.359
107.758
108.915
109.596
41.362
48.4211
54.0853
59.7935
64.8612
69.0529
72.45
75.2243
77.5248
79.4745
81.1699
82.6681
84.0018
85.2112
86.3364
87.411
88.4679
89.538
90.6465
91.8092
93.0356
94.3283
95.6839
97.095
98.5519
100.042
101.551
103.056
104.525
105.889
107.016
107.678
40.4963
47.3354
52.8129
58.3759
63.3731
67.5472
70.9533
73.7503
76.0813
78.0609
79.7785
81.289
82.6286
83.8355
84.9507
86.0099
87.0494
88.0995
89.1844
90.3227
91.5233
92.7883
94.1143
95.4943
96.918
98.3739
99.8465
101.316
102.748
104.077
105.175
105.819
39.647
46.2632
51.5448
56.9529
61.8748
66.0322
69.4494
72.2719
74.6381
76.6551
78.402
79.931
81.2808
82.49
83.5989
84.6475
85.6713
86.7027
87.7685
88.8846
90.0604
91.2988
92.5962
93.9452
95.3364
96.758
98.1954
99.6273
101.025
102.319
103.388
104.015
38.7163
45.1196
50.2005
55.4485
60.2989
64.4554
67.9076
70.7789
73.1952
75.2541
77.0321
78.5835
79.9493
81.1691
82.2793
83.3208
84.3333
85.3504
86.3962
87.491
88.6441
89.8573
91.1274
92.4471
93.8074
95.1964
96.5988
97.9964
99.3584
100.619
101.661
102.269
37.8085
43.9921
48.861
53.9361
58.7085
62.8645
66.3519
69.2684
71.7337
73.8425
75.6632
77.2466
78.6358
79.8694
80.9878
82.028
83.0328
84.0368
85.0692
86.1462
87.2777
88.467
89.7107
91.0017
92.3301
93.6855
95.0544
96.4154
97.7435
98.9708
99.985
100.576
36.7852
42.7545
47.3986
52.2854
56.975
61.1449
64.6998
67.7017
70.2478
72.4191
74.2861
75.9062
77.3242
78.5822
79.7143
80.7627
81.766
82.7644
83.782
84.8416
85.954
87.121
88.3394
89.6029
90.9021
92.2266
93.5611
94.8887
96.1828
97.3773
98.3648
98.9378
35.7799
41.5255
45.9359
50.6202
55.2177
59.4015
63.0235
66.0995
68.7147
70.956
72.8868
74.5585
76.0185
77.3041
78.4586
79.5175
80.5261
81.5211
82.5329
83.581
84.6757
85.8213
87.0155
88.251
89.5188
90.8096
92.1115
93.4013
94.6622
95.8235
96.7843
97.3396
34.5785
40.1082
44.2648
48.7137
53.1942
57.3949
61.1242
64.345
67.1006
69.4471
71.4539
73.1861
74.6922
76.0212
77.2035
78.285
79.3045
80.3052
81.3102
82.3462
83.4262
84.5526
85.723
86.9318
88.1708
89.431
90.6968
91.9546
93.1817
94.3109
95.246
95.7824
33.3588
38.682
42.583
46.7865
51.1403
55.3606
59.2002
62.5438
65.4036
67.8573
69.9646
71.7776
73.3542
74.729
75.9529
77.0594
78.0975
79.1031
80.1117
81.1443
82.2112
83.3189
84.4669
85.6484
86.8555
88.0804
89.3141
90.5323
91.7267
92.8216
93.7294
94.2488
31.8283
36.9438
40.5443
44.4307
48.5854
52.7898
56.7762
60.3661
63.4922
66.142
68.3858
70.307
71.9575
73.4052
74.6773
75.8262
76.8893
77.9154
78.9259
79.9512
81.0083
82.1008
83.2266
84.3825
85.5612
86.7565
87.9529
89.1391
90.2992
91.3629
92.2453
92.7443
30.2216
35.1598
38.4839
42.0624
46.0197
50.2241
54.376
58.1671
61.4508
64.2825
66.7012
68.7528
70.5247
72.0455
73.3861
74.5788
75.6802
76.7215
77.7471
78.7798
79.8298
80.9061
82.0116
83.1404
84.286
85.4436
86.6068
87.7499
88.8784
89.9042
90.7588
91.241
28.0416
32.7952
35.7573
38.8721
42.4465
46.5036
50.8043
55.0236
58.8712
62.1048
64.7911
67.0591
68.9578
70.6065
72.029
73.2953
74.4391
75.5224
76.562
77.593
78.6386
79.7047
80.7895
81.893
83.0096
84.1375
85.2629
86.3731
87.464
88.46
89.2904
89.7484
25.5995
30.2829
33.0036
35.7604
39.0114
43.0043
47.5465
52.0499
56.0674
59.6534
62.6941
65.193
67.3221
69.0909
70.6266
71.9626
73.1765
74.2875
75.3575
76.4106
77.4568
78.5095
79.5759
80.6513
81.7321
82.8188
83.9044
84.9683
86.0303
86.9803
87.7792
88.2234
21.7512
26.4022
28.6768
30.6686
33.1256
36.5168
40.9965
46.425
51.9389
56.404
60.0188
63.0049
65.3745
67.3997
69.0844
70.5506
71.829
73.0169
74.1183
75.1763
76.2249
77.2727
78.3193
79.3691
80.4187
81.4736
82.5239
83.5485
84.5672
85.4889
86.2675
86.6782
17.0535
22.1418
24.615
26.5973
28.3902
31.5914
36.8223
42.0153
47.0451
52.4824
56.9798
60.4499
63.3388
65.5609
67.4453
69.0274
70.4368
71.6667
72.8196
73.9203
74.9789
76.0171
77.0465
78.065
79.0727
80.081
81.0772
82.0523
83.0445
83.9094
84.6448
85.0486
5.60202
10.7884
11.8698
11.3746
11.625
12.6485
15.5938
28.6865
39.6388
46.438
52.3497
57.0903
60.4616
63.3186
65.5158
67.3441
68.8504
70.2241
71.4387
72.5531
73.6237
74.6623
75.6719
76.6627
77.6358
78.6062
79.5735
80.4934
81.436
82.2689
82.9964
83.3487
9.44142
7.61089
11.294
13.3067
13.9082
13.229
9.67893
21.544
19.5383
37.9929
46.8129
52.8128
57.6595
60.787
63.378
65.4292
67.2022
68.637
69.9339
71.1221
72.214
73.2485
74.241
75.1936
76.1099
77.0261
77.9113
78.777
79.6937
80.4556
81.1175
81.4725
11.0241
15.5573
16.3467
15.8464
13.8523
16.484
17.8085
18.8171
20.4715
20.3762
36.1418
46.2836
52.1651
57.275
60.5992
63.1723
65.1052
66.831
68.2575
69.469
70.5894
71.6308
72.6021
73.5201
74.3975
75.2612
76.1309
76.9159
77.7726
78.4907
79.1597
79.4383
20.0861
24.4958
26.3982
27.1748
26.6887
24.4825
21.8611
18.2159
16.8564
23.8954
19.9412
37.0255
47.8955
52.9211
57.3396
60.4231
62.9541
64.7773
66.3355
67.6797
68.835
69.8818
70.8328
71.6995
72.4839
73.2826
74.0147
74.7145
75.5581
76.1801
76.7625
77.0418
22.6494
27.6343
30.351
32.3448
33.5078
33.6789
32.6462
30.1145
25.7116
25.6165
29.462
21.2493
34.6109
46.78
52.4702
56.8549
59.7227
62.2132
64.0873
65.427
66.6418
67.7079
68.6356
69.4467
70.1883
70.9017
71.6475
72.2622
72.9925
73.5471
74.1252
74.3093
23.5446
28.6368
31.5881
33.9658
35.7304
36.8631
37.3166
36.9189
35.1322
30.9538
28.0368
11.9456
9.4944
34.0988
46.522
52.2031
56.5609
59.2029
61.2775
62.9065
64.1683
65.2618
66.1574
66.8907
67.4444
68.0716
68.5534
68.918
69.7445
70.1457
70.6595
70.7792
22.9592
28.1912
31.3044
33.912
35.9706
37.473
38.4279
38.8329
38.5777
37.1094
33.0215
29.5584
20.7099
16.4256
34.3381
45.1907
50.4815
55.071
58.1403
59.3238
60.6941
61.839
62.7153
63.325
63.833
64.3193
64.9044
65.3638
65.7797
66.0876
66.4441
66.5033
21.3858
26.7568
29.9611
32.7001
34.9428
36.6874
37.9567
38.7846
39.1856
39.0475
37.749
33.7654
30.2462
20.6209
19.6081
35.6245
45.6817
49.9776
53.1514
55.2427
56.6252
57.9053
58.7114
59.1757
59.2142
59.527
59.4713
58.98
60.0745
60.0629
60.6137
60.2542
19.274
24.7509
27.9857
30.7772
33.1141
35.0104
36.4942
37.6196
38.4528
39.0229
39.1812
38.176
34.3217
30.7565
12.809
12.7565
29.16
43.4814
50.4097
48.4792
49.8012
51.2635
52.1321
52.1796
52.1481
52.5105
52.9485
54.2125
52.7712
52.9331
52.0678
52.119
16.9174
22.3825
25.5456
28.2876
30.6254
32.5958
34.2399
35.6115
36.7862
37.832
38.7393
39.2881
38.6939
35.3702
28.416
6.26327
24.9438
32.9719
42.3435
40.1658
41.7249
44.4891
45.3319
44.823
43.4936
42.74
40.5672
39.4549
40.9425
41.228
41.4628
38.721
14.588
19.8947
22.8787
25.4665
27.7085
29.6641
31.39
32.9456
34.4016
35.8317
37.2591
38.5938
39.5376
39.3017
36.4152
26.0844
29.7107
33.0451
36.6991
28.7927
14.7738
24.9853
26.799
24.2869
19.0197
24.9258
27.2696
29.7427
18.7651
23.1022
3.05138
36.1463
12.5599
17.5867
20.316
22.6757
24.7489
26.613
28.3358
29.9793
31.6058
33.2816
35.0482
36.8648
38.5533
39.7037
39.4117
36.0087
30.8021
32.867
40.6668
30.5108
3.80783
4.65353
20.603
33.8831
9.13757
30.4393
13.0521
38.4437
23.2838
32.2907
15.5326
20.9025
10.9975
15.6796
18.1383
20.2495
22.1248
23.8545
25.5108
27.153
28.8316
30.5968
32.497
34.54
36.6345
38.499
39.5775
38.9013
34.2045
24.7403
28.7945
33.3445
15.9971
15.9301
31.6414
26.1481
29.4332
36.5203
28.4077
36.4269
34.2797
42.8939
36.5003
38.2022
9.83141
14.2678
16.4935
18.3904
20.0912
21.6903
23.2558
24.8367
26.4712
28.1976
30.0603
32.0995
34.3092
36.5384
38.3823
39.1665
37.66
31.3651
15.3015
44.3638
23.678
23.2883
33.3797
32.2055
36.3984
34.9866
37.8745
31.1045
40.0695
34.6654
40.028
42.2964
9.16546
13.4025
15.457
17.205
18.7878
20.2926
21.774
23.2668
24.7972
26.3961
28.1046
29.9769
32.0589
34.3254
36.5648
38.2808
38.6422
36.8044
30.2587
38.9296
34.0094
35.1195
36.5384
40.5182
42.2336
41.6445
42.7582
38.9238
44.1025
38.6161
42.9145
45.4539
8.89567
13.0283
14.9946
16.673
18.2045
19.6627
21.0856
22.4935
23.9041
25.3426
26.8478
28.4735
30.2829
32.3234
34.5543
36.7305
38.2915
38.6639
37.3561
37.4756
38.6448
39.8185
40.8674
42.657
43.3949
43.1627
43.4704
41.9949
44.347
41.8688
43.4195
45.505
8.95944
13.0633
15.0111
16.6859
18.2208
19.674
21.0677
22.4121
23.7201
25.0138
26.3265
27.7038
29.2047
30.8974
32.8301
34.9537
36.9975
38.5203
39.1341
39.08
40.3469
41.1881
42.0181
42.9325
43.2735
43.0966
43.1191
42.6062
43.5613
42.5369
43.1108
44.7432
9.26973
13.3994
15.3792
17.0993
18.6779
20.158
21.5513
22.8618
24.0994
25.2844
26.4455
27.6192
28.852
30.204
31.7435
33.5146
35.4521
37.319
38.7512
39.5157
40.5721
41.2872
41.8715
42.2411
42.2512
42.0314
41.9917
41.7845
42.083
41.7526
42.0819
43.2845
9.7734
13.961
16.0006
17.7923
19.4373
20.9653
22.3798
23.682
24.8817
25.9989
27.0589
28.0905
29.1267
30.2114
31.4021
32.7606
34.3144
35.9922
37.569
38.7662
39.8222
40.5022
40.8986
40.9534
40.7648
40.5123
40.4919
40.4003
40.4461
40.4576
40.7626
41.7137
10.4288
14.6956
16.8095
18.6856
20.4066
21.9912
23.4381
24.7488
25.9357
27.0199
28.0252
28.9736
29.887
30.7927
31.7305
32.7511
33.9021
35.1909
36.5254
37.7202
38.7247
39.3723
39.6588
39.5815
39.3353
39.097
39.126
39.1383
39.1635
39.3752
39.6813
40.5139
11.1878
15.5604
17.7602
19.7268
21.5264
23.1692
24.6528
25.9817
27.1725
28.2491
29.2344
30.1458
30.9966
31.8014
32.5829
33.3745
34.2168
35.1393
36.1215
37.0771
37.9052
38.4578
38.6728
38.5687
38.3532
38.1677
38.2563
38.3859
38.4928
38.8489
39.1537
39.9335
11.9667
16.519
18.8183
20.8785
22.7548
24.4539
25.9749
27.3273
28.5331
29.619
30.6073
31.5125
32.3423
33.1025
33.804
34.4642
35.1094
35.7669
36.4449
37.1149
37.7062
38.1093
38.2536
38.1557
37.9978
37.8819
38.0302
38.2719
38.4899
38.9585
39.2717
40.0154
12.6398
12.9989
13.4565
13.834
14.2201
14.5423
14.8341
15.071
15.2715
15.4253
15.5424
15.62
15.6628
15.6692
15.6442
15.589
15.505
15.3964
15.2728
15.1618
15.1584
15.2671
15.39
15.4982
15.5818
15.6367
15.6613
15.6547
15.6117
15.534
15.4168
15.2632
15.0629
14.8263
14.5351
14.2134
13.8281
13.4516
12.9949
12.6374
17.2993
17.6761
18.1534
18.5494
18.953
19.2946
19.6081
19.8693
20.0952
20.2765
20.422
20.5291
20.6013
20.6361
20.636
20.6016
20.5331
20.4329
20.3097
20.1931
20.1887
20.3023
20.4246
20.5243
20.5924
20.6264
20.6262
20.5911
20.5188
20.4116
20.2661
20.085
19.8595
19.5987
19.2859
18.9449
18.5423
18.1475
17.6714
17.2963
19.6696
20.0738
20.5812
21.0034
21.4346
21.8047
22.1504
22.4473
22.7117
22.9349
23.1245
23.2775
23.3968
23.4786
23.5229
23.5293
23.4968
23.4265
23.3257
23.2229
23.2185
23.3181
23.4178
23.4875
23.5195
23.5126
23.4678
23.3856
23.2661
23.113
22.9234
22.7004
22.4363
22.1399
21.7949
21.4256
20.9954
20.5744
20.0681
19.6657
21.7893
22.2169
22.7489
23.1922
23.6473
24.0432
24.4189
24.7497
25.0518
25.3164
25.55
25.7487
25.9148
26.0441
26.1342
26.1831
26.1889
26.1519
26.0793
25.9992
25.9954
26.072
26.1432
26.1794
26.1728
26.1233
26.0327
25.903
25.7365
25.5376
25.3039
25.0395
24.7378
24.4076
24.0326
23.6375
23.1835
22.7414
22.2105
21.7846
23.7078
24.1453
24.688
25.1402
25.6074
26.0182
26.4129
26.7668
27.0961
27.3919
27.6606
27.8972
28.1022
28.2708
28.3996
28.4849
28.5241
28.5169
28.471
28.4137
28.4104
28.4641
28.5084
28.5146
28.4747
28.3886
28.2591
28.0899
27.8844
27.6476
27.3788
27.0831
26.7543
26.4009
26.007
25.5973
25.1312
24.6803
24.1388
23.7029
25.4312
25.8629
26.4031
26.8525
27.3211
27.7372
28.1419
28.5109
28.8611
29.183
29.4811
29.7499
29.9883
30.1908
30.3527
30.4694
30.5373
30.556
30.5327
30.4937
30.4909
30.5264
30.5478
30.528
30.4591
30.3416
30.179
29.9758
29.7369
29.4677
29.1695
28.8478
28.498
28.1296
27.7259
27.3109
26.8437
26.3958
25.8571
25.4271
26.9628
27.377
27.9069
28.3474
28.8123
29.2306
29.6435
30.0279
30.3978
30.7441
31.0692
31.3674
31.6358
31.8684
32.0596
32.2038
32.2965
32.3368
32.3318
32.3059
32.3033
32.3259
32.329
32.2874
32.1937
32.0487
31.8566
31.6233
31.3543
31.0557
30.7304
30.3843
30.0149
29.6311
29.2194
28.8024
28.3391
27.9004
27.3723
26.9601
28.3181
28.7099
29.2282
29.6601
30.1229
30.5463
30.9703
31.3712
31.7611
32.1308
32.4811
32.8061
33.1016
33.3609
33.5777
33.7453
33.8588
33.9166
33.9253
33.9079
33.9055
33.9195
33.9089
33.8498
33.7353
33.5668
33.3492
33.0892
32.7931
32.4676
32.1171
31.7475
31.3581
30.9579
30.5352
30.1132
29.6524
29.2227
28.7066
28.3174
29.5244
29.894
30.4036
30.8309
31.2958
31.7279
32.1643
32.5821
32.9912
33.3824
33.7555
34.104
34.423
34.7052
34.9434
35.1304
35.2605
35.3317
35.3499
35.3376
35.3353
35.3442
35.3241
35.2516
35.1205
34.9326
34.6935
34.4105
34.0909
33.7419
33.3686
32.9775
32.569
32.152
31.717
31.2865
30.8237
30.3991
29.8923
29.5259
30.6104
30.9602
31.4645
31.891
32.3609
32.8028
33.2514
33.6848
34.1109
34.521
34.9136
35.2821
35.6206
35.9215
36.177
36.3792
36.5221
36.6029
36.6272
36.6174
36.6151
36.6215
36.5952
36.5132
36.3693
36.1661
35.9098
35.6081
35.2689
34.9001
34.5072
34.0972
33.6717
33.2391
32.7919
32.3519
31.8844
31.4609
30.96
30.6144
31.5976
31.9287
32.4296
32.8573
33.3324
33.7836
34.2435
34.6905
35.1314
35.5573
35.9662
36.3508
36.705
37.0206
37.2893
37.503
37.655
37.7423
37.7703
37.7614
37.7589
37.7644
37.7345
37.646
37.493
37.2783
37.0087
36.6923
36.3375
35.9524
35.5433
35.1176
34.6773
34.2312
33.7729
33.3237
32.8514
32.4271
31.9305
31.6046
32.4976
32.8092
33.3063
33.7353
34.215
34.6748
35.1446
35.6036
36.0569
36.496
36.918
37.3155
37.6819
38.0087
38.2873
38.5093
38.6677
38.7596
38.7899
38.7813
38.7788
38.7838
38.7516
38.6586
38.4991
38.2761
37.9966
37.6691
37.302
36.9041
36.4819
36.043
35.5903
35.1324
34.6643
34.2068
33.73
33.3052
32.813
32.508
33.3137
33.6031
34.0956
34.5249
35.0091
35.4767
35.9557
36.4251
36.8893
37.3394
37.7722
38.1799
38.5557
38.8908
39.1766
39.4046
39.5679
39.6634
39.6961
39.6888
39.6862
39.6899
39.6553
39.5586
39.3942
39.1652
38.8785
38.5426
38.1662
37.7579
37.3251
36.8752
36.4117
35.9435
35.4664
35.0014
34.5206
34.096
33.6097
33.3285
34.0468
34.3089
34.7951
35.2243
35.7129
36.1881
36.6759
37.1552
37.6291
38.089
38.5306
38.9467
39.3297
39.6711
39.9622
40.1946
40.3617
40.4607
40.4969
40.4925
40.4899
40.4905
40.4523
40.3521
40.1839
39.9505
39.6585
39.3163
38.9326
38.5162
38.0743
37.6148
37.1416
36.6638
36.1781
35.7059
35.2214
34.7978
34.3192
34.0675
34.7002
34.926
35.4025
35.8308
36.3236
36.8069
37.3037
37.7928
38.2762
38.7451
39.1948
39.6178
40.0066
40.3528
40.6478
40.8836
41.0541
41.1568
41.1978
41.1979
41.1954
41.1913
41.1483
41.0441
40.8725
40.6356
40.3397
39.9927
39.6033
39.18
38.7302
38.2618
37.7793
37.2917
36.7974
36.3176
35.8295
35.4081
34.9409
34.7277
35.2798
35.4535
35.9132
36.3403
36.8374
37.3296
37.836
38.3357
38.829
39.3068
39.7642
40.1935
40.5875
40.9376
41.2358
41.4746
41.6482
41.7551
41.8015
41.8072
41.8048
41.7951
41.7463
41.6378
41.4629
41.2232
40.924
40.5731
40.1785
39.7489
39.2916
38.8144
38.3222
37.8245
37.3207
36.8327
36.3415
35.9231
35.4744
35.3156
35.8001
35.8963
36.3257
36.7481
37.249
37.7509
38.2683
38.7795
39.2834
39.7708
40.2361
40.6719
41.0707
41.4246
41.7257
41.9672
42.144
42.2553
42.3076
42.3188
42.3163
42.3012
42.2463
42.1332
41.955
41.7124
41.4104
41.0558
40.6564
40.2204
39.7552
39.2686
38.7661
38.2572
37.7433
37.2464
36.7531
36.3407
35.9237
35.844
36.2776
36.2605
36.6381
37.0478
37.5521
38.0644
38.5939
39.118
39.6338
40.1316
40.6056
41.0483
41.4524
41.8102
42.1144
42.3587
42.5388
42.6544
42.7123
42.7283
42.7258
42.7057
42.6451
42.5275
42.3459
42.1004
41.7953
41.4368
41.0322
40.5894
40.1158
39.6189
39.1048
38.5836
38.0583
37.5523
37.0567
36.6585
36.2946
36.3285
36.724
36.5554
36.8539
37.2373
37.7398
38.2636
38.8061
39.3445
39.8733
40.3828
40.8666
41.317
41.727
42.0892
42.3968
42.6442
42.8276
42.9474
43.0101
43.0301
43.0277
43.0035
42.9378
42.8158
42.6308
42.3822
42.0735
41.7105
41.3002
40.8499
40.3667
39.8586
39.3319
38.7973
38.2601
37.7445
37.2525
36.8822
36.5984
36.7832
37.1215
36.7811
36.9786
37.321
37.8138
38.3475
38.9026
39.4558
39.9983
40.5203
41.0145
41.4733
41.8899
42.2571
42.5686
42.8193
43.006
43.1295
43.1963
43.2195
43.217
43.1894
43.1194
42.9936
42.8052
42.5532
42.2406
41.8728
41.456
40.9974
40.5041
39.9839
39.4443
38.8959
38.3478
37.8248
37.3456
37.0204
36.8435
37.2068
37.4305
36.9255
37.0145
37.3054
37.7799
38.3185
38.8879
39.4556
40.0121
40.5464
41.0512
41.5186
41.9418
42.3142
42.6296
42.8834
43.0731
43.1996
43.2695
43.295
43.2923
43.2623
43.1892
43.0602
42.8687
42.6134
42.297
41.9241
41.5007
41.0338
40.5304
39.9986
39.4462
38.8852
38.326
37.8017
37.3459
37.0799
37.0224
37.5669
37.601
36.9714
36.9703
37.2125
37.666
38.205
38.7847
39.3638
39.9319
40.4766
40.9901
41.4647
41.8936
42.2701
42.5887
42.8449
43.0365
43.1649
43.2364
43.263
43.2602
43.2289
43.1539
43.0229
42.8294
42.5718
42.2522
41.8753
41.4465
40.9727
40.461
39.9196
39.3571
38.7865
38.2204
37.7004
37.2726
37.066
37.1135
37.8033
37.6127
36.9222
36.8699
37.0768
37.5112
38.0453
38.6289
39.2163
39.7915
40.3426
40.8613
41.3399
41.7714
42.1496
42.469
42.7255
42.9171
43.0451
43.1164
43.1429
43.14
43.1086
43.0336
42.9028
42.7092
42.4515
42.1311
41.7527
41.3215
40.8443
40.3281
39.7814
39.2132
38.6371
38.0693
37.5574
37.1534
36.9895
37.0999
37.8688
37.5285
36.8244
36.7571
36.9473
37.3695
37.8967
38.4785
39.0672
39.6428
40.194
40.712
41.1891
41.6187
41.9943
42.3108
42.5641
42.7525
42.8774
42.9457
42.9703
42.9673
42.9373
42.8652
42.7375
42.5472
42.2926
41.9753
41.5996
41.1709
40.6954
40.1805
39.6345
39.0666
38.4903
37.9253
37.4209
37.0294
36.881
37.0027
37.7788
37.4354
36.758
36.7047
36.8927
37.3074
37.8251
38.3982
38.9791
39.5472
40.0908
40.6011
41.0704
41.4921
41.8599
42.1687
42.4146
42.5958
42.714
42.7762
42.7966
42.7932
42.767
42.7008
42.5798
42.3966
42.1495
41.8401
41.4725
41.0519
40.5847
40.0781
39.5404
38.981
38.4133
37.8576
37.3632
36.9785
36.8309
36.9341
37.6782
37.5208
36.8458
36.7942
36.9754
37.3787
37.8818
38.4394
39.005
39.5588
40.0883
40.585
41.0409
41.4493
41.8045
42.1011
42.3355
42.5058
42.6136
42.6662
42.6798
42.6758
42.6558
42.5988
42.488
42.3156
42.0799
41.7827
41.4277
41.0202
40.5664
40.0732
39.5489
39.0027
38.4476
37.9029
37.4155
37.0302
36.8694
36.9402
37.6319
37.73
37.0872
37.0504
37.2296
37.6211
38.1063
38.6431
39.1868
39.7202
40.2301
40.708
41.1456
41.5366
41.8749
42.1559
42.3755
42.5318
42.6263
42.6666
42.6708
42.666
42.6541
42.6086
42.5105
42.3513
42.1296
41.8474
41.5083
41.1176
40.6811
40.2059
39.7001
39.173
38.6383
38.113
37.6416
37.2668
37.1072
37.1651
37.8292
37.9698
37.4103
37.4206
37.6185
38.0104
38.4843
39.0026
39.5242
40.0357
40.5241
40.9807
41.3978
41.769
42.0886
42.3519
42.5551
42.6962
42.7761
42.8024
42.7953
42.7896
42.788
42.756
42.672
42.5279
42.3223
42.0574
41.7369
41.366
40.9503
40.4968
40.0134
39.5095
38.999
38.4968
38.0437
37.6781
37.514
37.5454
38.1585
38.2528
37.7845
37.849
38.0763
38.4774
38.9475
39.4539
39.9604
40.4546
40.9248
41.3627
41.7612
42.1142
42.4164
42.6633
42.8513
42.9781
43.0446
43.0577
43.0392
43.0326
43.0414
43.0219
42.9506
42.8197
42.6285
42.379
42.0749
41.7211
41.323
40.887
40.4209
39.9335
39.4379
38.9481
38.5005
38.1295
37.9433
37.9329
38.4741
38.7942
38.3484
38.423
38.6449
39.0337
39.4851
39.9702
40.4561
40.9306
41.3817
41.8013
42.1823
42.5187
42.8053
43.0378
43.2124
43.3273
43.3825
43.3847
43.3564
43.3498
43.3691
43.3615
43.3024
43.1847
43.0081
42.7747
42.4883
42.1536
41.7759
41.3615
40.918
40.4543
39.9831
39.5184
39.0923
38.7338
38.5489
38.5182
39.0217
39.4732
38.9588
38.9862
39.1693
39.5265
39.9502
40.411
40.8776
41.3357
41.7725
42.1792
42.5484
42.8739
43.1505
43.3737
43.54
43.6473
43.6954
43.6907
43.656
43.6498
43.6763
43.6758
43.6235
43.513
43.3437
43.1182
42.8398
42.5131
42.143
41.7357
41.2982
40.8391
40.3707
39.9061
39.475
39.107
38.9077
38.861
39.3504
39.6008
39.1259
39.1823
39.3885
39.7603
40.1928
40.6573
41.1249
41.5818
42.0164
42.4198
42.7851
43.1063
43.3785
43.5973
43.7594
43.8625
43.9069
43.8984
43.8603
43.8547
43.8853
43.8891
43.8416
43.7367
43.5742
43.3566
43.0878
42.7723
42.4157
42.0245
41.6064
41.1711
40.7324
40.3058
39.9231
39.6091
39.4722
39.4862
40.045
43.6499
51.4792
57.7186
63.8517
69.1424
73.431
76.8652
79.6395
81.9099
83.8122
85.4667
86.9479
88.2939
89.5382
90.7116
91.8448
92.9683
94.1102
95.2941
96.5373
97.8489
99.2314
100.682
102.192
103.753
105.353
106.975
108.596
110.18
111.654
112.874
113.597
42.9543
50.4958
56.5338
62.5245
67.7398
71.9914
75.4063
78.172
80.4425
82.3515
84.0142
85.4988
86.836
88.0662
89.2214
90.3331
91.4328
92.5497
93.7078
94.9234
96.2061
97.5582
98.9763
100.454
101.98
103.543
105.127
106.711
108.256
109.695
110.885
111.59
42.16
49.4571
55.3105
61.1639
66.3077
70.5295
73.934
76.701
78.9818
80.9063
82.5823
84.0717
85.4044
86.6232
87.7617
88.8535
89.9313
91.0242
92.1563
93.345
94.5994
95.9216
97.3087
98.7527
100.245
101.772
103.319
104.864
106.373
107.776
108.936
109.622
41.3708
48.4294
54.0935
59.8011
64.8681
69.059
72.4551
75.2285
77.5281
79.4772
81.1723
82.6701
84.004
85.2137
86.339
87.4135
88.4707
89.5411
90.6498
91.8128
93.0398
94.3331
95.6894
97.1012
98.5589
100.05
101.56
103.068
104.539
105.907
107.038
107.706
40.4988
47.3392
52.8174
58.3808
63.3777
67.5516
70.9575
73.7548
76.0861
78.066
79.7836
81.294
82.6328
83.8388
84.9535
86.0128
87.0522
88.1025
89.1877
90.3265
91.5276
92.7931
94.1198
95.5004
96.925
98.382
99.8563
101.328
102.763
104.096
105.198
105.848
39.659
46.2747
51.5563
56.964
61.8851
66.0414
69.4573
72.2783
74.6429
76.6585
78.4044
79.9327
81.2826
82.4924
83.6018
84.6504
85.6743
86.7059
87.772
88.8883
90.0648
91.3039
92.6021
93.9522
95.3442
96.7661
98.2047
99.6395
101.039
102.338
103.413
104.046
38.7186
45.1238
50.2057
55.454
60.3041
64.4601
67.912
70.7837
73.2008
75.2606
77.0391
78.5906
79.9557
81.1739
82.2828
83.324
84.3364
85.3535
86.3997
87.4951
88.6487
89.8625
91.1333
92.454
93.8146
95.2044
96.6094
98.0089
99.3738
100.64
101.685
102.302
37.8249
44.0083
48.8773
53.9521
58.7235
62.878
66.3637
69.2782
71.7412
73.8476
75.6662
77.2481
78.6369
79.8715
80.9908
82.0312
83.0362
84.0405
85.0731
86.1503
87.2825
88.4725
89.7171
91.0089
92.3382
93.6944
95.0635
96.4283
97.7592
98.9913
100.012
100.612
36.788
42.7596
47.4052
52.2928
56.9823
61.1516
64.7059
67.7078
70.2547
72.4272
74.2954
75.9162
77.3336
78.5893
79.7195
80.7668
81.7694
82.7677
83.7856
84.8462
85.9591
87.1267
88.3459
89.61
90.9101
92.235
93.5728
94.9019
96.1988
97.3998
98.3921
98.9751
35.8028
41.5483
45.9591
50.6428
55.2387
59.4202
63.0395
66.1128
68.7252
70.9634
72.8909
74.5597
76.0187
77.3056
78.461
79.5205
80.5299
81.5251
82.5374
83.5855
84.6809
85.8277
87.0227
88.2593
89.5282
90.8192
92.1206
93.4158
94.679
95.8463
96.8139
97.3812
34.5828
40.1154
44.2744
48.7255
53.207
57.408
61.137
64.3572
67.1122
69.4588
71.467
73.2006
74.7059
76.0314
77.2117
78.2913
79.309
80.3092
81.3141
82.3515
83.4322
84.5592
85.7304
86.9398
88.1795
89.4397
90.7106
91.9695
93.1992
94.3365
95.2759
95.8264
33.3924
38.7152
42.6168
46.8194
51.17
55.385
59.2186
62.5574
65.4145
67.866
69.9684
71.7768
73.3524
74.7297
75.9537
77.0613
78.1011
79.1073
80.1172
81.1495
82.2173
83.3267
84.4756
85.6582
86.8663
88.0917
89.3227
90.5483
91.7451
92.8468
93.7637
94.2991
31.8353
36.9543
40.5583
44.4492
48.6083
52.8168
56.8066
60.3969
63.5184
66.1633
68.4084
70.3314
71.9796
73.4199
74.69
75.8361
76.8958
77.9208
78.9303
79.9575
81.0159
82.1086
83.2354
84.3919
85.5712
86.7659
87.9683
89.1564
90.318
91.3922
92.2788
92.7972
30.276
35.2134
38.5388
42.1164
46.0682
50.2602
54.3958
58.1735
61.4553
64.2894
66.6996
68.7441
70.5146
72.0433
73.3835
74.5776
75.6825
76.7254
77.7536
78.7864
79.837
80.9162
82.0228
83.1524
84.2991
85.4565
86.6158
87.7682
88.8993
89.9332
90.7998
91.3038
28.0526
32.8099
35.7771
38.8987
42.4819
46.5538
50.871
55.099
58.9338
62.1474
64.8365
67.1052
69.0001
70.6306
72.0487
73.3108
74.4492
75.5301
76.5674
77.6004
78.6486
79.7141
80.8001
81.9048
83.0215
84.1477
85.2783
86.394
87.4854
88.4936
89.3279
89.8147
25.702
30.3789
33.1009
35.8604
39.1106
43.0798
47.58
52.0484
56.0607
59.6595
62.6755
65.1639
67.2869
69.0768
70.616
71.9551
73.1737
74.2894
75.3645
76.4192
77.4659
78.5231
79.5912
80.6666
81.7493
82.8337
83.9157
84.9897
86.0531
87.0158
87.8289
88.3017
21.7746
26.4417
28.7256
30.7372
33.2003
36.6088
41.145
46.5679
52.0691
56.4844
60.1216
63.0976
65.4645
67.4466
69.1166
70.5743
71.8475
73.028
74.1251
75.1849
76.2385
77.2853
78.3324
79.3844
80.4331
81.4848
82.5368
83.5744
84.5921
85.5273
86.3101
86.7656
17.2268
22.2639
24.8009
26.6926
28.4745
31.9529
36.9826
42.3347
47.1296
52.526
56.912
60.3744
63.2394
65.511
67.4124
69.0048
70.4178
71.6624
72.8254
73.9322
74.9912
76.0358
77.0686
78.086
79.0979
80.0991
81.0938
82.0799
83.0686
83.9544
84.707
85.1505
5.37192
10.605
11.6664
12.6006
13.522
12.2995
16.9094
27.1501
39.6655
46.6249
52.6526
57.294
60.6512
63.412
65.5737
67.3843
68.8901
70.2417
71.4457
72.5621
73.6431
74.6808
75.6894
76.6834
77.6522
78.6176
79.5788
80.5259
81.4678
82.3172
83.0446
83.4683
4.38308
7.79068
6.4422
13.59
17.641
14.7425
10.6199
12.6382
21.1051
38.1265
46.5537
52.6421
57.4534
60.6579
63.2818
65.3601
67.1355
68.6118
69.9339
71.1389
72.2325
73.2757
74.2741
75.2245
76.1518
77.049
77.9371
78.8193
79.7168
80.5117
81.1963
81.6142
10.9421
15.3837
16.0801
14.335
14.1063
3.66655
19.0564
13.5685
16.4684
22.124
37.6794
46.9266
52.3836
57.3836
60.7061
63.2647
65.2023
66.8634
68.2554
69.4773
70.6199
71.6612
72.629
73.5501
74.4147
75.2702
76.1196
76.952
77.8186
78.5635
79.2171
79.6087
19.5162
23.9217
25.7672
26.4727
25.7193
23.7578
19.4101
15.6178
17.7417
23.6177
16.2102
36.5571
48.3973
52.7681
57.0634
60.1922
62.7498
64.6842
66.3136
67.7029
68.8674
69.9265
70.8848
71.7483
72.5613
73.3133
74.0545
74.8
75.5752
76.243
76.8596
77.2603
22.4276
27.3672
30.0233
31.9305
32.9768
33.0183
31.9183
29.1564
26.4813
22.7102
25.6921
22.8199
28.5696
45.864
52.6304
57.1549
59.9847
62.2737
64.013
65.4333
66.7017
67.7645
68.6863
69.499
70.2056
70.8968
71.5992
72.2706
73.0674
73.6901
74.2018
74.5755
23.2952
28.3782
31.3061
33.6563
35.3905
36.4857
36.8782
36.3632
34.2566
29.921
28.1586
22.5692
23.4771
32.456
45.5812
51.3732
55.9429
58.8759
61.1714
62.9363
64.2425
65.3526
66.2493
66.9732
67.6024
68.1164
68.6162
69.1457
69.7476
70.1959
70.7699
71.1652
22.8322
28.048
31.141
33.7266
35.763
37.2411
38.1613
38.5008
38.1129
36.3286
31.1413
28.4654
29.9487
21.8474
35.7536
46.7072
51.3399
55.1287
57.5262
59.3266
60.8611
61.9691
62.8282
63.4457
63.8598
64.2387
64.781
65.1572
65.9121
66.4365
66.5791
67.046
21.322
26.6805
29.8732
32.6021
34.8368
36.5746
37.8329
38.6344
38.9683
38.6759
37.0373
32.3407
32.7945
14.3907
27.5825
32.6403
43.7747
48.682
52.7033
55.3268
56.9047
58.1407
58.9126
59.334
59.5965
59.6045
59.5613
59.6826
60.0546
60.0434
60.7357
61.0582
19.2665
24.7317
27.9586
30.7433
33.0757
34.9692
36.4519
37.5766
38.4074
38.9723
39.1486
38.4184
35.7041
28.9412
11.8593
10.9915
32.5243
42.7532
45.9633
48.3989
50.5484
51.6799
52.4162
52.6511
52.3343
51.93
53.1483
52.1554
52.9769
53.993
52.8677
54.5833
16.9213
22.3822
25.5424
28.2804
30.613
32.5771
34.2143
35.5792
36.7499
37.7998
38.7356
39.3967
39.1463
36.8801
30.222
23.1479
19.3373
25.132
36.5525
41.7731
43.908
45.1015
45.7673
45.2395
44.2607
41.8463
39.3971
40.0365
41.003
41.1409
42.5751
39.3593
14.5817
19.8871
22.8692
25.4527
27.6875
29.6327
31.3452
32.8852
34.3262
35.7468
37.1766
38.5421
39.5793
39.6364
35.9341
29.2867
28.3741
21.9274
21.307
21.8401
25.8879
28.5736
27.704
26.9093
31.6164
19.7367
37.7231
11.0134
17.3218
26.1983
46.2351
38.2752
12.5388
17.5637
20.2906
22.6457
24.7116
26.5652
28.2735
29.8985
31.5034
33.158
34.908
36.7231
38.4352
39.6196
38.9412
33.381
34.9621
24.689
31.2283
23.6096
24.9256
9.27938
20.8056
31.5876
42.0008
8.44339
39.3749
17.4732
19.8582
33.7252
36.7273
42.2613
10.9771
15.6542
18.109
20.2155
22.0845
23.8056
25.4499
27.0748
28.7302
30.4668
32.3332
34.346
36.4247
38.2798
39.1883
37.8053
33.512
28.3981
27.8255
26.8505
30.0513
17.5182
26.4449
33.205
36.5428
26.1049
35.8515
32.7589
34.0022
41.169
33.2635
40.6517
9.81402
14.2452
16.4678
18.3617
20.0589
21.6529
23.2101
24.7778
26.3921
28.0895
29.9135
31.9082
34.0764
36.278
38.0925
38.7944
36.9072
34.7673
30.6837
27.2478
29.064
26.1036
27.2045
30.6549
32.7248
39.8331
36.4212
41.0219
39.0612
35.2007
40.4683
36.5967
9.15309
13.3855
15.4382
17.1851
18.7668
20.269
21.7451
23.2279
24.7419
26.3157
27.9892
29.8165
31.8467
34.0661
36.282
38.0537
38.6509
38.5891
37.8181
35.5844
34.9525
35.8509
36.7588
39.4807
39.992
44.6703
42.8308
44.6278
43.2299
39.2242
44.1924
42.9201
8.88633
13.0153
14.9811
16.6601
18.1919
19.649
21.0679
22.4678
23.8653
25.2841
26.7613
28.3484
30.1077
32.0919
34.2792
36.4699
38.2094
39.3574
39.74
38.8957
38.9576
39.9503
40.4945
42.1414
41.8954
44.9917
43.9893
44.5
43.756
41.5648
44.3482
44.4565
8.95245
13.0535
15.0018
16.6782
18.2141
19.6665
21.0568
22.3947
23.6925
24.9711
26.2623
27.6096
29.0696
30.711
32.5915
34.6956
36.819
38.6598
39.7999
39.8456
40.218
40.9917
41.3369
42.4081
42.0893
44.1213
43.5937
43.4418
43.0255