/*--------------------------------*- C++ -*----------------------------------*\
  =========                 |
  \\      /  F ield         | OpenFOAM: The Open Source CFD Toolbox
   \\    /   O peration     | Website:  https://openfoam.org
    \\  /    A nd           | Version:  6
     \\/     M anipulation  |
\*---------------------------------------------------------------------------*/
FoamFile
{
    version     2.0;
    format      ascii;
    class       volScalarField;
    location    "11";
    object      yPlus;
}
// * * * * * * * * * * * * * * * * * * * * * * * * * * * * * * * * * * * * * //

dimensions      [0 0 0 0 0 0 0];

internalField   uniform 0;

boundaryField
{
    inlet
    {
        type            calculated;
        value           uniform 0;
    }
    outlet
    {
        type            calculated;
        value           uniform 0;
    }
    roughCylinder
    {
        type            calculated;
        value           nonuniform List<scalar> 
5120
(
43.6529
51.4825
57.7223
63.8556
69.1465
73.4352
76.8698
79.6445
81.9153
83.8179
85.4723
86.9536
88.2996
89.5437
90.717
91.8499
92.973
94.1144
95.2979
96.5404
97.8511
99.2326
100.682
102.191
103.751
105.348
106.967
108.586
110.165
111.635
112.851
113.563
42.961
50.5025
56.5408
62.5318
67.7472
71.9989
75.4136
78.179
80.4491
82.3578
84.0203
85.5048
86.8418
88.0718
89.2269
90.3384
91.4378
92.5542
93.7117
94.9266
96.2084
97.5595
98.9763
100.452
101.977
103.538
105.12
106.7
108.242
109.675
110.861
111.554
42.1635
49.4608
55.3144
61.1679
66.3117
70.5334
73.9382
76.7055
78.9868
80.9118
82.5881
84.0776
85.4103
86.6292
87.7677
88.859
89.9365
91.0289
92.1603
93.3483
94.6017
95.9229
97.3087
98.7513
100.241
101.767
103.311
104.853
106.358
107.755
108.911
109.584
41.3777
48.4367
54.1013
59.8093
64.8767
69.0677
72.464
75.2372
77.5364
79.4849
81.1794
82.6771
84.0106
85.22
86.345
87.4194
88.4761
89.546
90.6541
91.8164
93.0424
94.3345
95.6894
97.0998
98.5557
100.044
101.552
103.057
104.524
105.886
107.013
107.666
40.5037
47.3441
52.8223
58.3856
63.3822
67.5557
70.9613
73.7587
76.0904
78.071
79.7893
81.2999
82.639
83.8453
84.9601
86.0189
87.058
88.1078
89.1923
90.3301
91.5302
92.7946
94.1199
95.499
96.9217
98.3766
99.8482
101.316
102.747
104.075
105.172
105.807
39.6655
46.2821
51.5644
56.9729
61.8946
66.0516
69.468
72.2892
74.6534
76.6681
78.4132
79.9411
81.2906
82.4997
83.6084
84.6571
85.6803
86.7115
87.7769
88.8923
90.0677
91.3055
92.6023
93.9503
95.3405
96.7607
98.1967
99.6281
101.023
102.317
103.386
104.001
38.7266
45.1311
50.2125
55.4602
60.3096
64.4646
67.9156
70.7866
73.2039
75.2648
77.0445
78.5965
79.9619
81.1809
82.2904
83.3308
84.343
85.3595
86.4048
87.4992
88.6516
89.8641
91.1334
92.4527
93.8115
95.1986
96.6006
97.9964
99.3567
100.617
101.658
102.255
37.8291
44.0142
48.8848
53.961
58.7337
62.8896
66.3766
69.2922
71.7551
73.8602
75.6774
77.2584
78.6468
79.8802
80.9984
82.0389
83.0432
84.0467
85.0785
86.1547
87.2857
88.4744
89.7174
91.0073
92.335
93.6886
95.0557
96.4167
97.7414
98.9687
99.9833
100.56
36.8019
42.7715
47.4157
52.3017
56.9894
61.1567
64.7089
67.7089
70.2553
72.4292
74.2995
75.9218
77.3397
78.5968
79.728
80.7745
81.7771
82.7748
83.7916
84.8507
85.9624
87.1283
88.3459
89.6084
90.9065
92.2288
93.5632
94.8887
96.1803
97.3756
98.3624
98.9218
35.8007
41.5494
45.9629
50.6496
55.2484
59.4327
63.0549
66.1309
68.7443
70.9812
72.9063
74.573
76.0313
77.3167
78.4707
79.5304
80.5384
81.5325
82.5436
83.5906
84.6845
85.8297
87.0231
88.2576
89.5242
90.8131
92.1128
93.4034
94.6596
95.8227
96.7839
97.3216
34.6068
40.1359
44.2919
48.7392
53.2169
57.414
61.1389
64.3551
67.1082
69.456
71.4672
73.2046
74.7119
76.0396
77.2211
78.2997
79.3178
80.3175
81.3212
82.3568
83.4359
84.561
85.7303
86.938
88.1762
89.4336
90.6994
91.9555
93.1787
94.3097
95.244
95.7633
33.3759
38.7038
42.61
46.8185
51.1751
55.3957
59.2349
62.5797
65.4407
67.8921
69.993
71.7967
73.3694
74.7443
75.9672
77.0753
78.1126
79.1168
80.1246
81.1554
82.2211
83.3286
84.4759
85.6564
86.8618
88.0839
89.3158
90.5352
91.723
92.8229
93.7315
94.2268
31.8768
36.9894
40.5882
44.4717
48.6232
52.8251
56.8083
60.3912
63.5078
66.1523
68.3982
70.329
71.9834
73.4288
74.7008
75.8447
76.9059
77.9305
78.9389
79.9638
81.0201
82.1106
83.2354
84.3898
85.5684
86.7605
87.9555
89.1412
90.2954
91.3621
92.2449
92.7211
30.2262
35.172
38.5049
42.0929
46.0556
50.2573
54.403
58.1936
61.4856
64.3253
66.7422
68.7794
70.5433
72.0658
73.4025
74.5992
75.6996
76.7386
77.7631
78.7929
79.841
80.9177
82.0224
83.1502
84.2931
85.4451
86.6089
87.7542
88.8721
89.9088
90.7646
91.2137
28.1241
32.8702
35.8276
38.936
42.5072
46.5701
50.8775
55.0924
58.9183
62.1269
64.8049
67.0873
68.9944
70.6363
72.0641
73.3205
74.4603
75.5412
76.5775
77.6081
78.6529
79.7163
80.8003
81.9023
83.0202
84.1457
85.2639
86.3778
87.4598
88.4608
89.2912
89.7197
25.5648
30.2624
33.0007
35.7774
39.0387
43.0125
47.5364
52.0367
56.0749
59.6967
62.7494
65.2273
67.3424
69.1231
70.6435
71.988
73.2014
74.3092
75.3769
76.4262
77.4701
78.5237
79.5892
80.6633
81.74
82.8148
83.9088
84.9738
86.0189
86.9886
87.7917
88.1867
21.9053
26.5382
28.7854
30.7671
33.2254
36.6795
41.1651
46.5586
52.0441
56.4475
60.0425
63.0545
65.4416
67.4369
69.1434
70.5916
71.8604
73.0413
74.1377
75.1943
76.2423
77.2866
78.3333
79.3822
80.4354
81.4903
82.5209
83.5585
84.5613
85.4953
86.2687
86.6412
16.7014
21.8849
24.5772
26.5827
28.375
31.5969
36.804
42.1657
47.0648
52.5585
57.0545
60.4812
63.3408
65.6187
67.46
69.0539
70.4641
71.6921
72.84
73.9385
74.9957
76.0359
77.0641
78.0805
79.0825
80.0669
81.0861
82.0587
83.0262
83.9199
84.6702
84.9984
6.23341
11.2423
12.1943
12.3922
12.8213
10.7836
14.5529
26.6648
39.2898
46.3228
52.3945
57.2126
60.6277
63.3742
65.6277
67.4252
68.9075
70.2592
71.4649
72.5746
73.6441
74.6784
75.6905
76.6819
77.6617
78.6353
79.5618
80.5158
81.4235
82.2885
82.9969
83.2983
7.51275
4.15209
2.65519
7.26385
10.0789
10.7222
8.77184
11.3662
23.009
39.1298
46.9516
52.8069
57.604
60.9121
63.3871
65.4468
67.2191
68.6567
69.9446
71.14
72.2367
73.2766
74.2661
75.2156
76.1256
76.9991
77.928
78.7862
79.6675
80.4676
81.1622
81.4009
10.9014
15.3979
16.2619
15.369
12.9282
13.8991
8.51662
8.01395
21.1877
12.7023
36.4579
46.682
52.5391
57.3555
60.8554
63.3537
65.2228
66.886
68.2904
69.4958
70.6146
71.6483
72.629
73.5499
74.4374
75.3026
76.1012
76.9565
77.7403
78.5321
79.1663
79.3654
19.9415
24.3982
26.2616
26.9718
26.464
24.8612
22.7844
19.4804
14.0332
19.2501
24.7101
36.5953
48.1636
53.4585
57.3437
60.4102
62.9267
64.7572
66.3039
67.6866
68.8677
69.9304
70.8719
71.7354
72.5177
73.2442
74.0448
74.7495
75.5252
76.2014
76.8228
76.9301
22.0485
27.0251
29.7092
31.6558
32.7425
32.8035
31.7071
29.3925
24.9724
27.3148
29.331
24.7711
33.6464
46.5262
53.2698
57.3337
59.9713
62.2806
64.0747
65.4618
66.6838
67.7294
68.6826
69.5003
70.2519
70.9456
71.5758
72.2972
72.9109
73.6109
74.1781
74.1981
22.5664
27.6228
30.4833
32.7345
34.3309
35.2468
35.4588
35.017
34.246
32.3495
29.943
16.8029
22.0447
37.8005
46.502
52.0185
56.3557
59.008
61.1019
62.8712
64.2233
65.3577
66.2265
66.9558
67.5297
68.0309
68.6142
69.0901
69.7154
70.2058
70.691
70.577
21.7496
26.9315
29.9154
32.3362
34.149
35.3552
36.0549
36.6661
38.1513
40.5907
40.4118
33.6556
26.6521
21.4793
39.1526
47.2209
51.1173
54.9848
57.609
59.3673
60.8209
61.8959
62.8205
63.4514
63.9535
64.3162
64.7183
65.2035
65.6158
66.117
66.7172
66.3358
20.1844
25.4926
28.5671
31.1341
33.1664
34.6833
35.7616
36.6324
37.9833
40.9263
44.3574
43.6314
35.6755
4.47771
18.6239
31.6795
44.0286
48.9531
52.4804
55.1248
56.8047
58.1307
58.8615
59.3064
59.4598
59.5348
59.6284
59.7481
60.1556
60.2455
60.3563
59.8201
18.4217
23.8066
26.9235
29.5806
31.7703
33.5317
34.9561
36.2018
37.5214
39.405
42.4086
44.7604
41.7087
31.9183
28.7689
29.8162
33.3436
41.6354
45.8264
48.4187
50.5668
51.6039
52.4522
52.6689
52.4628
51.9331
52.6304
52.0602
53.3833
52.2467
53.7804
52.1898
16.4494
21.8233
24.8973
27.5497
29.7993
31.6988
33.3356
34.8556
36.4683
38.3578
40.5098
42.507
42.1226
38.788
29.7979
30.2589
6.52801
25.693
35.7717
41.4036
43.2464
44.8938
45.7008
44.8612
44.3969
43.2854
40.8122
41.4105
41.1616
39.9939
39.9116
39.4803
14.39
19.6313
22.562
25.1022
27.3011
29.2262
30.9561
32.593
34.2734
36.1436
38.2249
40.1287
41.0957
40.3348
36.0473
30.3772
19.4312
30.3755
22.137
20.3516
28.5445
29.8915
27.7795
29.5869
21.839
14.1309
32.0878
16.4505
42.7172
9.25852
20.875
45.6521
12.5056
17.4973
20.2055
22.5508
24.612
26.4696
28.1999
29.8826
31.6067
33.4549
35.4502
37.461
39.0815
39.8686
39.199
34.5794
27.2335
27.3139
28.8951
23.6149
33.2997
16.7907
27.0968
36.8966
16.4524
32.5037
36.625
16.6773
45.0141
8.55048
30.1641
35.0529
11.0041
15.6661
18.1211
20.2353
22.1145
23.8484
25.5114
27.1668
28.8737
30.6902
32.6437
34.6937
36.6805
38.3169
39.2047
38.1468
34.9401
27.0383
24.0793
26.9362
37.2088
24.0646
29.8415
32.6275
30.1504
23.8589
39.8595
32.8806
40.6511
32.9084
40.3215
33.0876
9.85021
14.2754
16.5052
18.4111
20.1205
21.7265
23.2976
24.8835
26.5238
28.2562
30.1168
32.1282
34.2521
36.3432
38.1078
38.9729
38.6475
35.8608
31.8728
26.5931
35.1259
32.337
28.0796
30.4294
34.4392
38.3436
34.9938
39.4779
33.7481
42.6454
37.0791
44.8584
9.17771
13.4045
15.464
17.2205
18.8109
20.3213
21.8069
23.3021
24.8333
26.4288
28.1278
29.9781
32.0148
34.2138
36.418
38.2326
39.2877
39.0367
37.1972
36.2113
33.8961
34.7847
37.2142
39.6625
41.5217
43.1511
41.5798
43.4589
40.2592
45.7044
41.8718
47.2291
8.89566
13.017
14.9864
16.6705
18.2071
19.6691
21.0946
22.5041
23.9148
25.3519
26.8538
28.4718
30.2646
32.2792
34.4967
36.722
38.5747
39.5164
39.3775
39.5647
38.8486
38.8866
40.9713
42.1961
43.0104
43.5713
43.1454
43.8037
42.1244
45.4153
43.5987
46.8014
8.94991
13.0419
14.9905
16.6683
18.2059
19.6611
21.0563
22.4022
23.7118
25.0071
26.3218
27.7006
29.2016
30.8923
32.8267
34.9746
37.1321
38.8432
39.7583
40.5065
40.5144
40.4438
41.7446
42.3737
42.9094
42.9844
42.8708
43.2525
41.9622
44.1862
43.6527
45.1894
9.25552
13.3739
15.3531
17.0741
18.6537
20.1348
21.5293
22.8417
24.0819
25.2702
26.4356
27.615
28.8548
30.2154
31.7673
33.5598
35.5505
37.4887
39.0176
40.2054
40.6613
40.7338
41.4188
41.6521
41.9304
41.7263
41.6181
42.0035
40.9361
42.4198
42.5773
43.0379
9.75823
13.936
15.9743
17.7661
19.4115
20.9405
22.3565
23.6609
24.8634
25.9841
27.0486
28.0864
29.1312
30.2274
31.4336
32.8137
34.4024
36.1205
37.7358
39.097
39.8289
40.0495
40.3743
40.3853
40.4852
40.1934
40.0374
40.4858
39.6895
40.6692
41.0959
41.038
10.415
14.6738
16.7864
18.6624
20.3842
21.9703
23.4192
24.7323
25.9218
27.0091
28.0183
28.972
29.8928
30.8089
31.7608
32.8
33.976
35.2911
36.6418
37.8715
38.6608
38.9691
39.1394
39.0843
39.0888
38.8336
38.6996
39.1874
38.7244
39.3928
39.871
39.6576
11.1774
15.5435
17.7425
19.7096
21.5104
23.1553
24.6413
25.9726
27.166
28.2452
29.2335
30.1489
31.0053
31.8179
32.61
33.4152
34.2742
35.2113
36.1952
37.1298
37.7994
38.1065
38.2138
38.1626
38.1333
37.9737
37.9171
38.4251
38.2735
38.7933
39.2454
39.0724
11.96
16.5083
18.8075
20.8689
22.7472
24.4487
25.9723
27.3272
28.5353
29.6234
30.6142
31.5224
32.356
33.1217
33.83
34.499
35.1538
35.8172
36.4878
37.1198
37.5922
37.8231
37.8814
37.8388
37.8047
37.7462
37.7884
38.3078
38.4075
38.8818
39.3003
39.2441
12.6634
13.0226
13.4809
13.8587
14.245
14.5673
14.8593
15.0964
15.2972
15.4513
15.5689
15.6471
15.6904
15.6975
15.6732
15.6188
15.5357
15.428
15.3055
15.1966
15.1979
15.3089
15.4334
15.5429
15.6276
15.6834
15.7087
15.7023
15.6591
15.5807
15.4623
15.3067
15.1038
14.8636
14.5681
14.2411
13.8499
13.4662
13.0029
12.6377
17.3252
17.7019
18.1794
18.5755
18.9792
19.3209
19.6344
19.8958
20.1219
20.3036
20.4496
20.5573
20.6302
20.6658
20.6667
20.6333
20.5659
20.4669
20.3452
20.2313
20.233
20.3495
20.4735
20.5746
20.6438
20.6785
20.6786
20.6435
20.5705
20.4622
20.3149
20.1313
19.9025
19.6377
19.3199
18.9729
18.5637
18.161
17.6773
17.2935
19.697
20.1011
20.6087
21.0309
21.4622
21.8323
22.1781
22.4751
22.7398
22.9635
23.1537
23.3075
23.4277
23.5106
23.5562
23.5639
23.5329
23.464
23.3651
23.2654
23.2673
23.3701
23.4717
23.5428
23.5759
23.5697
23.5252
23.4427
23.3223
23.1678
22.9761
22.7502
22.4826
22.1817
21.8314
21.4557
21.0185
20.5892
20.0749
19.6633
21.8186
22.246
22.7781
23.2213
23.6764
24.0722
24.4481
24.7791
25.0815
25.3466
25.5811
25.7807
25.948
26.0786
26.1703
26.2208
26.2284
26.1933
26.1229
26.0463
26.0484
26.1284
26.2018
26.2396
26.2342
26.1854
26.0949
25.9648
25.7973
25.5969
25.3609
25.0934
24.7878
24.4528
24.0722
23.6705
23.2092
22.7585
22.2193
21.7838
23.7393
24.1765
24.7192
25.1711
25.6381
26.0488
26.4435
26.7976
27.1274
27.4238
27.6934
27.9311
28.1375
28.3078
28.4383
28.5255
28.5667
28.5617
28.5184
28.4648
28.4669
28.5243
28.571
28.5788
28.54
28.4547
28.3255
28.1558
27.9493
27.7108
27.4396
27.1407
26.8078
26.4495
26.0499
25.6332
25.1598
24.7002
24.1501
23.7045
25.4655
25.8965
26.4363
26.8852
27.3534
27.7693
28.174
28.5432
28.8937
29.2164
29.5154
29.7856
30.0255
30.2298
30.3937
30.5124
30.5827
30.6038
30.5835
30.5483
30.5504
30.5897
30.6135
30.5955
30.5278
30.4111
30.2485
30.0449
29.805
29.534
29.2334
28.9085
28.5546
28.1812
27.7717
27.3498
26.8751
26.4185
25.8711
25.4314
27
27.4131
27.9422
28.382
28.8463
29.2642
29.677
30.0615
30.4318
30.7789
31.1052
31.4048
31.6749
31.9095
32.1028
32.2492
32.3444
32.3873
32.3854
32.3633
32.3656
32.3918
32.3974
32.3576
32.2651
32.1208
31.9289
31.6951
31.425
31.1246
30.7968
30.4474
30.0739
29.6851
29.2676
28.8438
28.373
27.9256
27.3889
26.9671
28.3584
28.7485
29.2657
29.6964
30.1583
30.5812
31.0049
31.4061
31.7964
32.167
32.5186
32.8451
33.1425
33.4039
33.6228
33.7929
33.909
33.9695
33.9813
33.9678
33.9701
33.9878
33.9797
33.9225
33.8092
33.6412
33.4237
33.1631
32.8658
32.5385
32.1854
31.8125
31.4189
31.0138
30.5853
30.1567
29.6884
29.25
28.7254
28.3267
29.5677
29.9351
30.4431
30.8688
31.3327
31.7643
32.2003
32.6183
33.0279
33.42
33.7945
34.1447
34.4656
34.75
34.9906
35.18
35.3129
35.3867
35.4082
35.3999
35.4021
35.4146
35.3971
35.3263
35.1964
35.0089
34.7698
34.4864
34.1654
33.8145
33.4385
33.044
32.6313
32.2094
31.7686
31.3314
30.8614
30.4283
29.913
29.5373
30.6571
31.0038
31.506
31.9305
32.3992
32.8403
33.2888
33.7223
34.1491
34.5601
34.9542
35.3244
35.6649
35.9681
36.226
36.4308
36.5764
36.6599
36.6874
36.6815
36.6839
36.6939
36.6701
36.5898
36.4469
36.2442
35.9878
35.6855
35.3449
34.9739
34.5784
34.165
33.7353
33.2979
32.8448
32.3981
31.9235
31.4918
30.9825
30.6278
31.648
31.975
32.4731
32.8986
33.3721
33.8226
34.2822
34.7293
35.1709
35.598
36.0082
36.3947
36.751
37.0689
37.3401
37.5564
37.711
37.8011
37.8322
37.8271
37.8295
37.8386
37.8112
37.7241
37.572
37.3578
37.088
36.7709
36.4146
36.0274
35.6156
35.1864
34.742
34.291
33.8269
33.3712
32.8918
32.4593
31.9547
31.62
32.5522
32.8586
33.3521
33.7784
34.2564
34.7152
35.1847
35.6438
36.0979
36.538
36.9616
37.361
37.7294
38.0585
38.3396
38.5642
38.7253
38.8199
38.8533
38.8487
38.851
38.8597
38.8297
38.7381
38.5793
38.3567
38.0769
37.7485
37.3799
36.9798
36.5549
36.1126
35.6556
35.1929
34.7191
34.2552
33.7716
33.3388
32.8391
32.5257
33.3734
33.6559
34.1438
34.57
35.0523
35.5187
35.9973
36.4668
36.9316
37.383
37.8171
38.2268
38.6047
38.9422
39.2304
39.461
39.627
39.7251
39.7609
39.7575
39.7597
39.7671
39.7345
39.6391
39.4754
39.2466
38.9595
38.6226
38.2446
37.8343
37.3986
36.9451
36.4776
36.0046
35.5219
35.0506
34.5632
34.1311
33.6376
33.349
34.1129
34.3659
34.8465
35.2717
35.7579
36.2318
36.719
37.1982
37.6728
38.1338
38.577
38.995
39.3801
39.7238
40.0174
40.2523
40.4219
40.5235
40.5628
40.5624
40.5646
40.5687
40.5325
40.4334
40.2658
40.0324
39.7399
39.3966
39.0113
38.5926
38.148
37.685
37.2078
36.7251
36.2342
35.7558
35.2648
34.8343
34.3491
34.0914
34.7742
34.9884
35.4575
35.8808
36.3708
36.8522
37.3483
37.8373
38.3214
38.7912
39.2424
39.6672
40.0581
40.4066
40.704
40.9423
41.1152
41.2206
41.2646
41.2687
41.2709
41.2703
41.2292
41.126
40.9548
40.7179
40.4213
40.0731
39.682
39.2563
38.8037
38.3318
37.8453
37.353
36.8535
36.3678
35.8736
35.4458
34.9731
34.7559
35.3638
35.5225
35.9729
36.3935
36.8868
37.3768
37.8821
38.3816
38.8753
39.354
39.8128
40.2439
40.6399
40.9922
41.2927
41.5338
41.7099
41.8194
41.869
41.8786
41.8807
41.8745
41.8276
41.72
41.5454
41.3053
41.0054
40.6532
40.2569
39.8249
39.3647
38.884
38.3878
37.8855
37.3766
36.8829
36.3859
35.9615
35.5087
35.3484
35.8954
35.9728
36.3909
36.8053
37.3011
37.8001
38.3158
38.8266
39.3307
39.8188
40.2855
40.7228
41.1235
41.4795
41.7828
42.0265
42.2058
42.3198
42.3752
42.3903
42.3923
42.3805
42.3275
42.2153
42.0373
41.7943
41.4914
41.1354
40.7342
40.2958
39.8278
39.3377
38.8313
38.3176
37.7986
37.2959
36.7966
36.3788
35.9592
35.8812
36.3843
36.3451
36.7089
37.1088
37.6069
38.1153
38.6427
39.1659
39.6816
40.18
40.6551
41.0992
41.505
41.8647
42.171
42.4175
42.6
42.7183
42.7794
42.7993
42.8012
42.7846
42.7258
42.6089
42.4275
42.1816
41.8755
41.5155
41.1091
40.664
40.1873
39.6871
39.1689
38.6428
38.112
37.5998
37.0978
36.694
36.3282
36.3665
36.8421
36.649
36.9312
37.3027
37.7975
38.316
38.8558
39.3925
39.921
40.4308
40.9153
41.3669
41.7784
42.1424
42.452
42.7014
42.8872
43.0097
43.0757
43.0998
43.1017
43.0808
43.017
42.8959
42.711
42.4619
42.1523
41.7879
41.3758
40.923
40.4369
39.9252
39.3942
38.8543
38.3106
37.787
37.2866
36.9086
36.6212
36.8102
37.2559
36.8858
37.0629
37.3905
37.8735
38.4004
38.9518
39.5028
40.0445
40.5665
41.0612
41.5211
41.9388
42.3077
42.6209
42.8736
43.0626
43.1889
43.259
43.2863
43.2883
43.2642
43.1962
43.0713
42.883
42.6306
42.3172
41.9479
41.5293
41.0682
40.572
40.048
39.5035
38.9487
38.3922
37.8578
37.3654
37.0259
36.837
37.1966
37.5754
37.0382
37.1042
37.3778
37.8405
38.3711
38.9353
39.5
40.0552
40.589
41.094
41.5621
41.9864
42.3601
42.6772
42.9329
43.1248
43.2541
43.3274
43.3571
43.3592
43.3329
43.2618
43.1339
42.9426
42.687
42.3697
41.9954
41.5703
41.101
40.5944
40.0583
39.5
38.9306
38.3589
37.8177
37.3405
37.0471
36.9585
37.4715
37.7495
37.0872
37.0615
37.2842
37.7244
38.254
38.8276
39.4031
39.9693
40.5131
41.0266
41.5017
41.9313
42.309
42.6289
42.8869
43.0807
43.2117
43.2869
43.3181
43.3204
43.2929
43.2202
43.0904
42.8972
42.6394
42.3191
41.9408
41.5103
41.0341
40.5189
39.9727
39.403
38.8219
38.2393
37.696
37.2361
36.9853
36.9744
37.592
37.7356
37.0192
36.9473
37.1381
37.5612
38.0868
38.6645
39.2477
39.8206
40.3704
40.8886
41.3672
41.7992
42.1783
42.4989
42.7569
42.9505
43.0813
43.1564
43.1878
43.1905
43.1632
43.0908
42.9613
42.7683
42.5102
42.1892
41.8093
41.3763
40.8962
40.3761
39.8235
39.2465
38.6566
38.0693
37.5304
37.0889
36.8725
36.9133
37.5922
37.6191
36.8965
36.8151
36.9929
37.4058
37.9256
38.5019
39.0863
39.6595
40.2091
40.7264
41.2033
41.6331
42.0093
42.3267
42.5814
42.7718
42.8995
42.9719
43.002
43.0051
42.98
42.9107
42.7844
42.5947
42.3398
42.0218
41.6447
41.2139
40.7355
40.2164
39.6643
39.0875
38.4976
37.9145
37.3861
36.9629
36.7723
36.8396
37.5436
37.4718
36.7955
36.7397
36.9219
37.3306
37.8422
38.4098
38.986
39.5509
40.0922
40.601
41.0695
41.4908
41.8587
42.1681
42.415
42.5981
42.7191
42.7856
42.8125
42.8164
42.796
42.7331
42.6139
42.4317
42.1846
41.8748
41.506
41.0837
40.6137
40.1031
39.5594
38.9914
38.4108
37.8388
37.3236
36.9142
36.7363
36.8091
37.5154
37.5126
36.8508
36.8032
36.9831
37.3824
37.8807
38.4332
38.9938
39.544
40.0711
40.5659
41.0206
41.4285
41.7835
42.0807
42.3162
42.4884
42.5993
42.6572
42.6787
42.6841
42.6711
42.6184
42.5103
42.3396
42.1051
41.8086
41.4541
41.0468
40.5928
40.0987
39.5725
39.023
38.4625
37.9106
37.4134
37.0152
36.8369
36.8833
37.5419
37.7058
37.0821
37.0525
37.2322
37.6197
38.0989
38.6286
39.165
39.6929
40.1986
40.6732
41.1085
41.4979
41.8354
42.1162
42.3366
42.4948
42.5925
42.6386
42.6526
42.6598
42.657
42.6173
42.5229
42.3669
42.1481
41.8685
41.532
41.1437
40.7095
40.2361
39.7311
39.2034
38.6655
38.1337
37.6512
37.2571
37.067
37.0781
37.6733
38.1143
37.5015
37.4732
37.6431
38.0125
38.4679
38.9708
39.4816
39.9854
40.4682
40.9209
41.3354
41.7049
42.0239
42.2874
42.4919
42.6352
42.7191
42.7522
42.7573
42.767
42.7758
42.7498
42.6699
42.5291
42.3266
42.0646
41.7471
41.3792
40.9665
40.5158
40.0353
39.534
39.0259
38.5256
38.0743
37.7096
37.5464
37.5779
38.1925
38.4857
37.9708
37.9926
38.1778
38.5417
38.9783
39.4561
39.9412
40.4192
40.877
41.3055
41.6968
42.0446
42.3433
42.5882
42.7756
42.9035
42.9729
42.9924
42.9871
42.9988
43.0193
43.0067
42.9404
42.8143
42.6279
42.3834
42.0849
41.737
41.3453
40.9162
40.4572
39.9773
39.4892
39.0061
38.5641
38.1942
38.003
37.9712
38.4734
39.176
38.6363
38.6326
38.7861
39.1182
39.5226
39.9698
40.4286
40.883
41.3193
41.7278
42.1005
42.4309
42.7135
42.9435
43.1174
43.2329
43.2908
43.2992
43.2851
43.2997
43.3308
43.3288
43.2732
43.1584
42.9841
42.7528
42.468
42.1345
41.7575
41.3431
40.8985
40.4324
39.9571
39.4857
39.0515
38.6843
38.4895
38.4503
38.9443
39.6688
39.1279
39.127
39.2792
39.6063
40.0013
40.4377
40.8842
41.3255
41.7481
42.1424
42.501
42.8175
43.0866
43.3039
43.4656
43.5699
43.6171
43.6146
43.5905
43.6031
43.6384
43.641
43.59
43.4801
43.3113
43.0859
42.8073
42.48
42.1089
41.7
41.2601
40.798
40.3255
39.856
39.4217
39.0539
38.859
38.8263
39.3377
39.9055
39.4077
39.4374
39.605
39.9382
40.3318
40.7635
41.2034
41.6369
42.0511
42.437
42.7871
43.0954
43.3567
43.5667
43.722
43.8205
43.8625
43.8558
43.8291
43.8456
43.8876
43.8964
43.852
43.7494
43.5886
43.3719
43.1028
42.7853
42.4242
42.0249
41.5941
41.1389
40.67
40.198
39.7522
39.3575
39.1158
39.0057
39.4101
43.6456
51.4747
57.7139
63.847
69.1378
73.4266
76.8612
79.636
81.9069
83.8096
85.464
86.9453
88.2911
89.5352
90.7084
91.8413
92.9645
94.1061
95.2896
96.5324
97.8435
99.2254
100.675
102.185
103.746
105.345
106.965
108.586
110.166
111.638
112.852
113.568
42.9513
50.4922
56.5301
62.521
67.7365
71.9887
75.4039
78.1697
80.4401
82.3489
84.0114
85.496
86.8331
88.0631
89.2183
90.3297
91.429
92.5454
93.7031
94.9183
96.2004
97.552
98.97
100.447
101.972
103.535
105.118
106.7
108.243
109.678
110.862
111.559
42.1542
49.4513
55.3046
61.1581
66.3021
70.524
73.9288
76.6961
78.9774
80.9026
82.579
84.0684
85.4009
86.6197
87.7581
88.8495
89.9271
91.0198
92.1514
93.3397
94.5935
95.9152
97.3014
98.7455
100.237
101.763
103.309
104.853
106.358
107.758
108.912
109.59
41.3677
48.4255
54.0891
59.7968
64.8642
69.0556
72.4525
75.2264
77.5262
79.4749
81.1694
82.667
84.0009
85.2105
86.3356
87.4099
88.4666
89.5364
90.6447
91.8073
93.0337
94.3265
95.6821
97.0936
98.5505
100.041
101.55
103.057
104.525
105.89
107.013
107.673
40.4911
47.3318
52.8102
58.3739
63.3712
67.5454
70.9513
73.7485
76.0798
78.0603
79.7789
81.2898
82.6286
83.8346
84.9492
86.0082
87.0476
88.0977
89.1825
90.3207
91.5213
92.7862
94.1123
95.4924
96.9167
98.3729
99.846
101.317
102.748
104.078
105.173
105.813
39.6558
46.2704
51.551
56.9583
61.8794
66.0363
69.4532
72.2755
74.6411
76.6567
78.4017
79.9292
81.2791
82.4889
83.5982
84.6465
85.6698
86.7008
87.7665
88.8824
90.0583
91.2967
92.5943
93.9439
95.3351
96.7571
98.1949
99.629
101.025
102.321
103.386
104.009
38.7082
45.114
50.1963
55.4455
60.2966
64.4534
67.9056
70.7765
73.1927
75.2525
77.0323
78.5853
79.9507
81.1687
82.2776
83.3186
84.3311
85.3483
86.3939
87.4887
88.6417
89.8549
91.1252
92.4453
93.8056
95.1951
96.5984
97.9977
99.358
100.621
101.659
102.263
37.8217
44.0033
48.8709
53.9444
58.7152
62.8699
66.3565
69.2728
71.7381
73.8461
75.664
77.244
78.6322
79.8672
80.9869
82.027
83.0312
84.0346
85.0669
86.1437
87.2752
88.4647
89.7085
90.9997
92.3287
93.6846
95.0539
96.418
97.7439
98.9742
99.9837
100.569
36.774
42.7463
47.3924
52.2815
56.973
61.1441
64.6995
67.7009
70.2461
72.4169
74.2857
75.9095
77.3285
78.5838
79.7127
80.7601
81.7633
82.762
83.7792
84.8389
85.9513
87.1182
88.3369
89.6007
90.9003
92.2249
93.5606
94.8913
96.182
97.3815
98.364
98.9312
35.7993
41.5426
45.9513
50.6329
55.2274
59.4084
63.0282
66.1032
68.7187
70.9604
72.8891
74.5548
76.0111
77.2988
78.4568
79.5161
80.5241
81.5183
82.5302
83.578
84.6727
85.8188
87.013
88.2489
89.5175
90.8091
92.1111
93.4055
94.663
95.8289
96.7835
97.3314
34.5638
40.0972
44.2566
48.7092
53.1934
57.3972
61.1282
64.3491
67.1033
69.4474
71.4538
73.1914
74.7019
76.0273
77.2029
78.2822
79.3015
80.3023
81.3066
82.343
83.4231
84.5494
85.7201
86.9293
88.1686
89.4292
90.6968
91.9585
93.1808
94.3171
95.2452
95.7747
33.3876
38.7083
42.6074
46.8073
51.1559
55.3704
59.2052
62.5461
65.4051
67.8599
69.9675
71.7725
73.3405
74.7171
75.9491
77.0576
78.0946
79.0994
80.1086
81.1406
82.2076
83.3161
84.4642
85.6461
86.8542
88.08
89.3137
90.5386
91.7275
92.8303
93.7302
94.2386
31.8103
36.9297
40.5337
44.4255
48.5866
52.7975
56.7881
60.3785
63.503
66.1486
68.3874
70.3155
71.9759
73.4204
74.6793
75.8226
76.8859
77.9118
78.921
79.9473
81.0048
82.097
83.2233
84.3795
85.5586
86.7553
87.9529
89.1454
90.2988
91.372
92.2453
92.7354
30.2684
35.204
38.5268
42.101
46.0506
50.2436
54.3849
58.171
61.4515
64.2841
66.7083
68.7473
70.5012
72.0213
73.3766
74.5763
75.6759
76.7165
77.7435
78.7754
79.8254
80.903
82.0086
83.1379
84.2846
85.4424
86.6068
87.7605
88.8788
89.9175
90.7617
91.2276
28.0225
32.7798
35.7456
38.8664
42.4498
46.5205
50.8328
55.0499
58.8936
62.1183
64.7858
67.0667
68.9882
70.6364
72.0377
73.2904
74.4346
75.5176
76.555
77.5877
78.6344
79.7002
80.7856
81.8892
83.0065
84.1375
85.2615
86.3825
87.4652
88.4737
89.2904
89.7382
25.6873
30.3672
33.0866
35.8412
39.0861
43.0571
47.5645
52.0648
56.0761
59.6648
62.732
65.2011
67.2865
69.0475
70.6043
71.9573
73.1691
74.2798
75.3524
76.4051
77.4517
78.506
79.5725
80.6489
81.7313
82.8153
83.9064
84.9852
86.0278
86.9995
87.7863
88.2044
21.7499
26.4005
28.6857
30.6904
33.1472
36.5444
41.1142
46.498
51.9963
56.4295
59.9666
62.9878
65.418
67.4491
69.1067
70.5459
71.8239
73.0099
74.108
75.1685
76.2193
77.2675
78.3148
79.364
80.4142
81.4757
82.5186
83.5625
84.5702
85.5126
86.2666
86.6666
17.1063
22.3335
24.8489
26.7683
28.587
32.0046
36.6946
42.0519
47.0551
52.5195
57.1351
60.517
63.2875
65.4925
67.3977
69.0105
70.4188
71.6516
72.8098
73.913
74.9741
76.0136
77.0429
78.0632
79.0744
80.0745
81.0832
82.0795
83.0386
83.9341
84.6586
85.0186
4.55573
11.9137
13.7913
13.2146
11.0758
9.95548
17.3042
28.7976
39.9659
46.5692
52.1684
57.007
60.5322
63.382
65.5584
67.3465
68.8499
70.2149
71.4229
72.5409
73.6154
74.6564
75.6666
76.6558
77.6275
78.6097
79.5602
80.5165
81.4376
82.3122
82.9945
83.3383
8.06581
6.83878
11.6649
15.6692
16.1102
17.5753
19.7354
13.033
20.8651
38.5516
47.2895
52.9492
57.5258
60.6967
63.2866
65.3772
67.1514
68.5993
69.9094
71.1104
72.2114
73.2464
74.2379
75.1927
76.1183
77.0164
77.9234
78.8235
79.685
80.4876
81.1369
81.4182
10.9399
15.3287
16.3072
16.4352
16.6143
16.4571
22.1356
22.4756
20.6168
17.0323
36.6174
46.5499
52.4268
57.3036
60.6633
63.1984
65.1229
66.8192
68.2256
69.4495
70.5786
71.6249
72.5963
73.5114
74.3818
75.2635
76.1023
76.9499
77.7628
78.5649
79.1666
79.4387
19.4499
23.844
25.5737
26.0711
25.3571
23.7171
21.9573
17.0891
11.1131
14.3283
16.8165
34.0888
47.1495
52.8794
57.1652
60.2743
62.8146
64.6719
66.2682
67.6565
68.839
69.8869
70.8314
71.6998
72.5073
73.2689
74.0348
74.8134
75.5508
76.2335
76.7711
76.9331
22.0413
26.9951
29.6553
31.5711
32.6242
32.6455
31.3199
28.5409
22.5995
21.6328
29.7904
33.6236
34.189
46.492
52.5918
56.9622
59.7835
62.1783
63.9686
65.393
66.6379
67.7053
68.6326
69.4385
70.159
70.8936
71.5846
72.2774
72.9455
73.6574
74.1754
74.34
22.7954
27.8638
30.7579
33.0747
34.7818
35.8576
36.232
35.6983
33.6931
28.7889
27.7044
31.4956
19.83
33.8515
46.149
51.7551
56.1747
58.8783
61.0791
62.8557
64.198
65.2968
66.1619
66.8937
67.5026
68.05
68.5899
69.195
69.7503
70.2705
70.6012
70.5559
22.3049
27.4994
30.5535
33.1012
35.1083
36.5751
37.5188
37.953
37.7947
36.548
32.8894
27.3898
18.9619
31.3049
33.8205
45.6618
50.6903
54.8503
57.4369
59.2553
60.7606
61.8648
62.7293
63.3239
63.7758
64.2479
64.7215
65.1514
65.6562
66.1836
66.6418
66.6112
20.8758
26.2079
29.3643
32.0591
34.2676
35.9957
37.2751
38.1576
38.6945
38.8265
37.9752
34.7696
28.682
32.2287
33.4192
34.5002
44.524
48.8269
52.492
55.1876
56.8212
58.0718
58.7435
59.1957
59.3709
59.5025
59.601
59.8954
60.1176
60.4412
60.2625
59.7789
18.9679
24.3985
27.5909
30.3447
32.6519
34.5293
36.0134
37.1698
38.0846
38.8169
39.2537
38.6832
34.61
31.9877
25.7866
12.8662
30.0148
41.5444
45.746
48.1992
50.4695
51.4877
52.3
52.1994
52.0342
51.8093
51.9977
51.9675
53.2291
52.2258
52.9381
52.4724
16.7482
22.1774
25.3108
28.0256
30.3398
32.2912
33.925
35.3033
36.5125
37.6347
38.6727
39.3942
38.873
34.5222
29.3612
17.9463
31.5674
27.5508
35.659
41.652
43.5305
45.2598
45.5737
45.0568
43.7973
43.1011
41.9816
40.6452
40.2175
41.6164
39.9255
38.7879
14.4975
19.7801
22.7447
25.3132
27.536
29.4725
31.1813
32.7263
34.1853
35.6405
37.1213
38.5322
39.5052
39.0023
35.0745
26.9665
28.2304
28.4322
21.5436
21.6817
27.854
28.1009
28.3604
23.3607
18.4337
7.2379
13.3804
12.2634
37.7227
35.5883
7.34559
36.7188
12.5053
17.5181
20.2362
22.584
24.6439
26.4932
28.1999
29.8279
31.4428
33.1177
34.9004
36.757
38.4958
39.6199
39.1084
34.6788
25.6034
27.2534
28.9078
16.3403
31.1934
21.4217
30.2584
15.5099
21.4833
32.0155
33.4644
18.3863
40.3806
9.16922
21.5374
25.1906
10.9693
15.6426
18.0945
20.1986
22.0659
23.7865
25.4323
27.063
28.7301
30.4876
32.3897
34.456
36.604
38.5371
39.658
38.9056
34.2117
26.8662
28.3944
22.027
32.5191
21.2538
34.8136
26.0612
29.8786
28.0315
32.3502
30.3667
39.3867
35.0442
33.1818
31.5862
9.81848
14.2504
16.473
18.3668
20.0644
21.66
23.2213
24.7972
26.4262
28.1487
30.0144
32.0742
34.338
36.669
38.6709
39.6891
38.9547
35.5763
31.5455
27.5781
27.7543
26.1442
26.6768
32.2168
35.6307
39.4754
38.5236
40.4392
31.4004
40.9694
40.6908
38.6053
9.16283
13.3984
15.4521
17.1996
18.7825
20.2877
21.7695
23.2623
24.793
26.3936
28.1094
30.0027
32.1344
34.4998
36.9087
38.8904
39.8608
39.4094
38.3206
36.3588
34.6099
35.6749
35.9243
40.5439
41.4683
44.2737
43.209
44.8778
39.3231
44.1289
44.3675
42.5981
8.89957
13.0326
14.9995
16.679
18.2124
19.6729
21.0981
22.5085
23.9221
25.3653
26.8794
28.5232
30.3704
32.486
34.8506
37.2318
39.1468
40.0792
40.2548
39.654
39.1897
39.9003
40.5221
42.4382
42.4398
44.5132
43.6947
45.0636
42.1357
44.0568
44.7707
43.5318
8.96814
13.0735
15.0227
16.6996
18.2371
19.6931
21.0898
22.4372
23.7485
25.0468
26.3667
27.757
29.2826
31.0227
33.041
35.3005
37.5442
39.2919
40.3227
40.5363
40.5562
41.0798
41.6027
42.565
42.227