/*--------------------------------*- C++ -*----------------------------------*\
  =========                 |
  \\      /  F ield         | OpenFOAM: The Open Source CFD Toolbox
   \\    /   O peration     | Website:  https://openfoam.org
    \\  /    A nd           | Version:  6
     \\/     M anipulation  |
\*---------------------------------------------------------------------------*/
FoamFile
{
    version     2.0;
    format      ascii;
    class       volVectorField;
    location    "0.4";
    object      wallShearStress;
}
// * * * * * * * * * * * * * * * * * * * * * * * * * * * * * * * * * * * * * //

dimensions      [0 2 -2 0 0 0 0];

internalField   uniform (0 0 0);

boundaryField
{
    inlet
    {
        type            calculated;
        value           uniform (0 0 0);
    }
    outlet
    {
        type            calculated;
        value           uniform (0 0 0);
    }
    roughCylinder
    {
        type            calculated;
        value           nonuniform List<vector> 
5120
(
(-0.000659304 -0.000932226 -0.000505553)
(-0.000506354 -0.000713978 -2.88476e-05)
(-0.000430383 -0.000627504 2.68506e-05)
(-0.000481048 -0.000673608 8.10057e-05)
(-0.000557312 -0.000727794 0.000129263)
(-0.000625649 -0.000755832 0.000163676)
(-0.000686245 -0.000765468 0.000185778)
(-0.000740366 -0.000770109 0.000201124)
(-0.000789012 -0.000775011 0.000213815)
(-0.000830589 -0.000781579 0.000223783)
(-0.000867416 -0.000791699 0.000231131)
(-0.000899922 -0.000805165 0.000236309)
(-0.000928941 -0.000821413 0.000239594)
(-0.000955573 -0.000839799 0.000241289)
(-0.00098094 -0.000859742 0.000241588)
(-0.00100593 -0.000880823 0.00024056)
(-0.00103111 -0.000902813 0.000238194)
(-0.00105677 -0.000925615 0.000234466)
(-0.00108309 -0.000949227 0.000229382)
(-0.00111015 -0.000973659 0.000222959)
(-0.00113799 -0.000998878 0.000215221)
(-0.00116669 -0.00102486 0.000206178)
(-0.0011962 -0.00105153 0.000195799)
(-0.00122647 -0.00107875 0.000184004)
(-0.00125733 -0.00110633 0.000170655)
(-0.00128851 -0.001134 0.000155509)
(-0.00131956 -0.00116136 0.00013828)
(-0.00134971 -0.00118782 0.000118577)
(-0.00137782 -0.00121266 9.63065e-05)
(-0.00140215 -0.00123457 7.18619e-05)
(-0.00142183 -0.00125207 4.62465e-05)
(-0.00143514 -0.00126269 1.6857e-05)
(-0.000605558 -0.000789285 -0.000420937)
(-0.000540063 -0.000688261 -3.54901e-05)
(-0.000464513 -0.000625799 1.99961e-05)
(-0.000513346 -0.000668433 7.37267e-05)
(-0.000592904 -0.000723869 0.000122452)
(-0.000664574 -0.000753606 0.000156802)
(-0.000729298 -0.000766706 0.00017922)
(-0.000787412 -0.00077442 0.00019543)
(-0.0008391 -0.000780564 0.000208982)
(-0.000882054 -0.000785811 0.000219095)
(-0.000919758 -0.000794877 0.000226239)
(-0.000953199 -0.000807522 0.000231191)
(-0.000983169 -0.000823165 0.000234257)
(-0.0010108 -0.000841104 0.000235744)
(-0.00103721 -0.000860704 0.000235862)
(-0.00106331 -0.000881491 0.000234695)
(-0.00108965 -0.000903209 0.000232235)
(-0.00111651 -0.000925743 0.000228456)
(-0.00114408 -0.000949092 0.000223368)
(-0.00117245 -0.000973259 0.000216992)
(-0.00120166 -0.000998213 0.00020935)
(-0.00123177 -0.00102393 0.000200452)
(-0.00126276 -0.00105033 0.000190269)
(-0.00129455 -0.00107728 0.000178718)
(-0.00132698 -0.00110461 0.000165663)
(-0.00135975 -0.00113203 0.000150863)
(-0.00139241 -0.00115917 0.000134041)
(-0.00142413 -0.00118544 0.000114814)
(-0.00145375 -0.00121013 9.31189e-05)
(-0.00147943 -0.00123194 6.93689e-05)
(-0.0015002 -0.00124938 4.4652e-05)
(-0.00151427 -0.00125999 1.63238e-05)
(-0.00080863 -0.000940212 -0.00050945)
(-0.000578453 -0.000683748 -3.99588e-05)
(-0.000503586 -0.000620368 1.34308e-05)
(-0.000547253 -0.000658668 6.58925e-05)
(-0.000629124 -0.000714686 0.000114879)
(-0.000704839 -0.00074682 0.000149638)
(-0.000773976 -0.000763388 0.000172856)
(-0.00083598 -0.000773686 0.000190046)
(-0.000890242 -0.000780762 0.000204165)
(-0.000934824 -0.000785178 0.000214331)
(-0.000973144 -0.000793071 0.000221151)
(-0.00100725 -0.000804757 0.00022573)
(-0.00103796 -0.000819643 0.000228491)
(-0.00106641 -0.000836951 0.000229724)
(-0.00109372 -0.000855999 0.000229641)
(-0.0011208 -0.000876281 0.000228325)
(-0.0011482 -0.000897513 0.000225768)
(-0.00117618 -0.00091956 0.000221944)
(-0.0012049 -0.000942414 0.000216855)
(-0.00123447 -0.000966088 0.00021053)
(-0.00126494 -0.000990549 0.000202994)
(-0.00129637 -0.00101576 0.000194254)
(-0.00132873 -0.00104166 0.000184282)
(-0.00136193 -0.0010681 0.000172995)
(-0.00139582 -0.00109493 0.000160259)
(-0.00143009 -0.00112187 0.000145835)
(-0.00146425 -0.00114855 0.000129456)
(-0.00149746 -0.0011744 0.00011075)
(-0.0015285 -0.00119873 8.96798e-05)
(-0.00155543 -0.00122025 6.66819e-05)
(-0.00157723 -0.00123749 4.29294e-05)
(-0.00159203 -0.00124799 1.5744e-05)
(-0.000805771 -0.000845255 -0.000450224)
(-0.00062446 -0.000673309 -4.60337e-05)
(-0.0005369 -0.000605229 6.17791e-06)
(-0.000579576 -0.000643553 5.77039e-05)
(-0.000665202 -0.000701472 0.000106814)
(-0.000745142 -0.000736433 0.000142163)
(-0.000818659 -0.000756324 0.000166428)
(-0.000884252 -0.000768759 0.000184669)
(-0.000940891 -0.000776505 0.00019927)
(-0.000987289 -0.000780573 0.000209556)
(-0.0010261 -0.000787214 0.000216057)
(-0.00106071 -0.000797877 0.000220185)
(-0.00109199 -0.000811923 0.000222585)
(-0.00112112 -0.000828504 0.000223534)
(-0.00114922 -0.000846885 0.000223236)
(-0.00117718 -0.000866541 0.000221769)
(-0.00120555 -0.000887156 0.000219122)
(-0.00123456 -0.000908587 0.000215258)
(-0.00126437 -0.000930815 0.000210177)
(-0.00129506 -0.00095385 0.00020391)
(-0.0013267 -0.000977668 0.000196484)
(-0.00135934 -0.00100224 0.000187907)
(-0.00139296 -0.00102747 0.000178153)
(-0.00142748 -0.00105326 0.000167136)
(-0.00146273 -0.00107943 0.000154725)
(-0.00149839 -0.00110572 0.000140684)
(-0.00153397 -0.00113179 0.000124758)
(-0.00156857 -0.00115708 0.000106583)
(-0.00160095 -0.0011809 8.61529e-05)
(-0.00162908 -0.00120202 6.39247e-05)
(-0.00165186 -0.00121895 4.11591e-05)
(-0.00166734 -0.00122926 1.51466e-05)
(-0.000725363 -0.000689568 -0.000349237)
(-0.00066086 -0.000640231 -5.22829e-05)
(-0.000577654 -0.000594674 -1.33339e-06)
(-0.000612561 -0.000626047 4.91906e-05)
(-0.000700757 -0.000684423 9.83451e-05)
(-0.000785124 -0.000722315 0.00013444)
(-0.000862823 -0.000745138 0.000159857)
(-0.000931704 -0.000759245 0.000179149)
(-0.000990589 -0.000767447 0.000194183)
(-0.00103886 -0.000771436 0.000204659)
(-0.00107806 -0.000776683 0.000210872)
(-0.001113 -0.000786243 0.000214518)
(-0.00114471 -0.000799351 0.000216536)
(-0.00117437 -0.000815088 0.000217187)
(-0.00120313 -0.000832686 0.00021667)
(-0.00123185 -0.00085158 0.000215056)
(-0.00126108 -0.000871446 0.000212325)
(-0.00129104 -0.000892131 0.000208434)
(-0.00132184 -0.000913597 0.000203377)
(-0.00135356 -0.000935849 0.000197178)
(-0.00138626 -0.000958875 0.000189869)
(-0.00142 -0.000982637 0.000181462)
(-0.00145478 -0.00100706 0.00017193)
(-0.00149049 -0.00103202 0.000161188)
(-0.00152698 -0.00105737 0.000149108)
(-0.00156393 -0.00108287 0.000135456)
(-0.0016008 -0.00110816 0.000119987)
(-0.00163671 -0.00113271 0.000102351)
(-0.00167033 -0.00115589 8.25682e-05)
(-0.00169957 -0.00117646 6.1121e-05)
(-0.00172327 -0.00119298 3.9356e-05)
(-0.00173939 -0.00120305 1.45368e-05)
(-0.00100537 -0.0008528 -0.000417494)
(-0.000706782 -0.000621358 -5.84328e-05)
(-0.000610133 -0.000571431 -8.88978e-06)
(-0.000643942 -0.000604405 4.02239e-05)
(-0.000735572 -0.000664432 8.94743e-05)
(-0.00082439 -0.000704971 0.000126507)
(-0.000906155 -0.000730171 0.000153171)
(-0.000978149 -0.000745456 0.000173487)
(-0.00103926 -0.000753875 0.000188932)
(-0.0010893 -0.000757836 0.000199581)
(-0.00112899 -0.000761605 0.000205538)
(-0.0011641 -0.000769958 0.000208712)
(-0.00119609 -0.000781996 0.000210331)
(-0.00122615 -0.000796773 0.000210677)
(-0.00125542 -0.000813458 0.000209941)
(-0.0012848 -0.000831465 0.000208185)
(-0.00131478 -0.000850449 0.00020538)
(-0.00134558 -0.000870248 0.000201474)
(-0.00137726 -0.000890815 0.000196451)
(-0.00140991 -0.000912152 0.000190335)
(-0.00144358 -0.000934242 0.000183157)
(-0.00147831 -0.000957045 0.000174926)
(-0.00151412 -0.000980501 0.000165622)
(-0.00155092 -0.00100449 0.000155161)
(-0.00158853 -0.00102886 0.000143416)
(-0.00162663 -0.00105339 0.000130156)
(-0.00166469 -0.00107775 0.00011515)
(-0.00170178 -0.00110143 9.80572e-05)
(-0.00173657 -0.00112381 7.89303e-05)
(-0.00176684 -0.00114372 5.82733e-05)
(-0.00179139 -0.00115973 3.75223e-05)
(-0.00180812 -0.00116947 1.39154e-05)
(-0.0011175 -0.000844757 -0.000395406)
(-0.000769445 -0.000610577 -6.57254e-05)
(-0.000651858 -0.000553883 -1.69384e-05)
(-0.000675211 -0.000581027 3.08542e-05)
(-0.000769191 -0.000641685 8.02194e-05)
(-0.000862452 -0.000684595 0.000118342)
(-0.00094816 -0.000711664 0.000146314)
(-0.00102319 -0.000727714 0.000167634)
(-0.00108652 -0.000736116 0.000183503)
(-0.0011381 -0.000739816 0.000194233)
(-0.00117861 -0.000742329 0.000199998)
(-0.00121376 -0.000749341 0.000202752)
(-0.00124588 -0.000760193 0.000203961)
(-0.0012762 -0.000773893 0.000203998)
(-0.00130587 -0.000789551 0.000203043)
(-0.00133576 -0.000806555 0.00020115)
(-0.00136639 -0.000824537 0.000198281)
(-0.00139792 -0.000843333 0.000194373)
(-0.0014304 -0.000862882 0.000189403)
(-0.00146389 -0.000883178 0.000183384)
(-0.00149841 -0.000904205 0.000176347)
(-0.00153403 -0.000925921 0.000168303)
(-0.00157076 -0.000948278 0.000159235)
(-0.0016085 -0.00097115 0.000149059)
(-0.00164711 -0.000994406 0.000137653)
(-0.00168624 -0.00101783 0.00012479)
(-0.00172537 -0.0010411 0.00011025)
(-0.00176353 -0.00106377 9.37057e-05)
(-0.00179936 -0.00108523 7.5242e-05)
(-0.00183058 -0.00110436 5.53842e-05)
(-0.00185592 -0.00111976 3.56592e-05)
(-0.00187321 -0.00112912 1.32828e-05)
(-0.00115978 -0.0007768 -0.000344539)
(-0.000805632 -0.000574672 -7.04264e-05)
(-0.000687264 -0.000527951 -2.52632e-05)
(-0.000705498 -0.00055524 2.1053e-05)
(-0.000801371 -0.000616459 7.05955e-05)
(-0.000898815 -0.000661259 0.000109934)
(-0.000988332 -0.000689695 0.000139235)
(-0.00106635 -0.00070617 0.000161523)
(-0.00113187 -0.000714324 0.000177826)
(-0.00118493 -0.000717531 0.00018858)
(-0.00122648 -0.00071904 0.000194226)
(-0.00126157 -0.000724596 0.00019662)
(-0.00129369 -0.000734163 0.00019741)
(-0.00132413 -0.000746693 0.000197139)
(-0.00135405 -0.000761229 0.000195971)
(-0.00138434 -0.000777123 0.000193947)
(-0.00141548 -0.000794004 0.000191024)
(-0.00144764 -0.000811691 0.000187129)
(-0.00148082 -0.000830119 0.000182226)
(-0.00151503 -0.000849267 0.000176322)
(-0.0015503 -0.000869122 0.000169442)
(-0.00158669 -0.000889638 0.000161598)
(-0.0016242 -0.00091077 0.000152772)
(-0.00166277 -0.000932409 0.000142887)
(-0.00170222 -0.000954422 0.000131824)
(-0.00174225 -0.00097661 0.000119362)
(-0.00178231 -0.000998687 0.000105291)
(-0.00182142 -0.00102021 8.93009e-05)
(-0.00185819 -0.00104063 7.15057e-05)
(-0.00189025 -0.00105888 5.24558e-05)
(-0.00191629 -0.0010736 3.37677e-05)
(-0.0019341 -0.00108251 1.26396e-05)
(-0.00124925 -0.000738934 -0.000304607)
(-0.000861604 -0.000548221 -7.75394e-05)
(-0.000725405 -0.000502403 -3.38253e-05)
(-0.000734111 -0.000527284 1.11423e-05)
(-0.000831301 -0.000588657 6.07661e-05)
(-0.000932905 -0.00063502 0.00010134)
(-0.00102615 -0.000664371 0.000131936)
(-0.00110715 -0.000680942 0.000155143)
(-0.00117485 -0.000688639 0.000171866)
(-0.00122937 -0.00069119 0.000182618)
(-0.00127213 -0.00069192 0.000188207)
(-0.0013071 -0.000695865 0.000190283)
(-0.0013391 -0.000704085 0.000190661)
(-0.00136951 -0.000715362 0.000190087)
(-0.00139955 -0.00072869 0.000188712)
(-0.0014301 -0.000743394 0.000186569)
(-0.00146163 -0.000759084 0.000183604)
(-0.00149428 -0.000775577 0.000179736)
(-0.00152803 -0.00079279 0.000174918)
(-0.00156286 -0.000810701 0.000169148)
(-0.00159878 -0.000829285 0.000162443)
(-0.0016358 -0.000848501 0.000154812)
(-0.00167397 -0.0008683 0.000146239)
(-0.00171321 -0.0008886 0.000136651)
(-0.00175338 -0.000909261 0.000125937)
(-0.00179414 -0.000930102 0.000113877)
(-0.00183497 -0.000950867 0.00010028)
(-0.0018749 -0.000971139 8.48467e-05)
(-0.00191247 -0.000990414 6.77259e-05)
(-0.00194526 -0.0010077 4.9492e-05)
(-0.00197192 -0.00102165 3.18513e-05)
(-0.00199018 -0.00103005 1.19866e-05)
(-0.00125296 -0.000642778 -0.000252754)
(-0.000891289 -0.000508898 -8.10339e-05)
(-0.000761576 -0.000472588 -4.22303e-05)
(-0.000762083 -0.000497906 9.77852e-07)
(-0.000858998 -0.000558766 5.06762e-05)
(-0.000964228 -0.000605997 9.25067e-05)
(-0.00106109 -0.000635804 0.00012438)
(-0.00114509 -0.000652186 0.000148469)
(-0.00121498 -0.000659233 0.000165608)
(-0.001271 -0.000660982 0.000176367)
(-0.00131492 -0.000661022 0.000181883)
(-0.00134998 -0.000663368 0.000183695)
(-0.00138173 -0.000670176 0.000183702)
(-0.001412 -0.000680137 0.000182835)
(-0.00144201 -0.000692199 0.000181264)
(-0.00147266 -0.000705642 0.000179014)
(-0.00150444 -0.000720067 0.00017602)
(-0.00153744 -0.000735283 0.000172195)
(-0.00157164 -0.000751203 0.000167482)
(-0.00160697 -0.000767794 0.000161864)
(-0.0016434 -0.000785029 0.000155352)
(-0.00168094 -0.000802858 0.000147952)
(-0.00171961 -0.00082124 0.000139644)
(-0.00175937 -0.000840097 0.00013036)
(-0.00180009 -0.000859313 0.000119996)
(-0.00184143 -0.000878714 0.000108343)
(-0.00188288 -0.000898065 9.52217e-05)
(-0.00192345 -0.000916991 8.03489e-05)
(-0.00196169 -0.00093503 6.39089e-05)
(-0.00199509 -0.000951262 4.64966e-05)
(-0.00202228 -0.000964387 2.99117e-05)
(-0.00204093 -0.000972236 1.13244e-05)
(-0.00116368 -0.000518785 -0.000182657)
(-0.000931425 -0.000466349 -8.55827e-05)
(-0.000794776 -0.000439902 -5.138e-05)
(-0.000787025 -0.000465769 -9.43593e-06)
(-0.000883456 -0.000526186 4.0291e-05)
(-0.000992305 -0.00057419 8.33862e-05)
(-0.0010927 -0.000604136 0.000116523)
(-0.0011797 -0.000620071 0.00014147)
(-0.00125181 -0.00062629 0.000159022)
(-0.00130936 -0.00062712 0.000169825)
(-0.00135428 -0.000626362 0.000175215)
(-0.00138976 -0.000627316 0.000176822)
(-0.00142119 -0.000632683 0.000176523)
(-0.00145119 -0.000641287 0.000175376)
(-0.00148104 -0.000652038 0.000173623)
(-0.00151165 -0.000664173 0.000171279)
(-0.00154351 -0.000677277 0.000168273)
(-0.00157673 -0.000691153 0.000164508)
(-0.00161124 -0.00070572 0.000159916)
(-0.00164693 -0.000720931 0.000154471)
(-0.00168374 -0.000736746 0.000148174)
(-0.00172167 -0.000753117 0.000141021)
(-0.00176071 -0.000770008 0.000132991)
(-0.00180083 -0.000787351 0.000124021)
(-0.00184191 -0.000805036 0.000114012)
(-0.00188366 -0.000822913 0.000102768)
(-0.00192556 -0.000840764 9.01249e-05)
(-0.00196661 -0.00085826 7.58148e-05)
(-0.00200536 -0.00087499 6.00595e-05)
(-0.00203923 -0.000890106 4.34751e-05)
(-0.00206683 -0.000902347 2.79522e-05)
(-0.00208582 -0.000909594 1.06543e-05)
(-0.00102392 -0.000394207 -0.000110928)
(-0.000949476 -0.000406776 -9.07864e-05)
(-0.000826213 -0.00040524 -6.00986e-05)
(-0.000811503 -0.000432694 -1.98108e-05)
(-0.000905271 -0.000491736 2.97536e-05)
(-0.00101676 -0.000539834 7.39975e-05)
(-0.00112052 -0.000569591 0.000108351)
(-0.00121054 -0.000584851 0.00013413)
(-0.00128489 -0.00059008 0.000152097)
(-0.00134396 -0.00058985 0.000162978)
(-0.00138984 -0.000588173 0.000168213)
(-0.00142601 -0.00058808 0.000169665)
(-0.00145707 -0.000591883 0.000169112)
(-0.00148671 -0.000599122 0.000167706)
(-0.00151627 -0.000608536 0.000165789)
(-0.00154669 -0.000619342 0.000163368)
(-0.00157847 -0.000631091 0.000160365)
(-0.00161174 -0.000643591 0.000156677)
(-0.00164641 -0.000656755 0.000152227)
(-0.00168232 -0.000670533 0.000146976)
(-0.00171938 -0.000684877 0.000140913)
(-0.00175755 -0.000699745 0.000134025)
(-0.00179681 -0.000715088 0.00012629)
(-0.00183714 -0.000730855 0.000117643)
(-0.00187842 -0.000746953 0.000107995)
(-0.00192039 -0.000763249 9.71619e-05)
(-0.00196255 -0.000779543 8.4999e-05)
(-0.0020039 -0.000795547 7.12539e-05)
(-0.00204299 -0.000810904 5.61862e-05)
(-0.00207719 -0.000824857 4.04332e-05)
(-0.00210509 -0.000836172 2.59768e-05)
(-0.00212434 -0.000842778 9.97733e-06)
(-0.00132794 -0.000420754 -0.000103672)
(-0.000987119 -0.000368956 -9.51548e-05)
(-0.000854378 -0.00036649 -6.81042e-05)
(-0.000831891 -0.000396948 -3.01906e-05)
(-0.000922769 -0.000455207 1.89169e-05)
(-0.001037 -0.000503259 6.42335e-05)
(-0.00114408 -0.000532546 9.98069e-05)
(-0.0012371 -0.000546855 0.000126422)
(-0.00131373 -0.000550901 0.000144818)
(-0.00137434 -0.000549479 0.000155816)
(-0.00142115 -0.000546757 0.000160925)
(-0.00145787 -0.000545718 0.000162188)
(-0.00148893 -0.000548111 0.000161432)
(-0.00151814 -0.000553968 0.000159823)
(-0.0015473 -0.000562062 0.000157764)
(-0.00157739 -0.000571536 0.000155285)
(-0.00160894 -0.000581922 0.000152303)
(-0.00164208 -0.000593022 0.000148709)
(-0.00167673 -0.000604752 0.000144419)
(-0.00171271 -0.000617062 0.000139381)
(-0.00174988 -0.000629906 0.000133572)
(-0.00178814 -0.000643229 0.000126971)
(-0.00182748 -0.000656986 0.000119547)
(-0.00186784 -0.000671138 0.000111233)
(-0.00190914 -0.000685602 0.000101955)
(-0.00195114 -0.000700261 9.15348e-05)
(-0.00199336 -0.00071495 7.98523e-05)
(-0.00203482 -0.000729407 6.66738e-05)
(-0.00207406 -0.000743353 5.22967e-05)
(-0.00210842 -0.00075615 3.7378e-05)
(-0.0021365 -0.000766554 2.39892e-05)
(-0.00215595 -0.000772447 9.29409e-06)
(-0.00124992 -0.000323026 -5.74707e-05)
(-0.00102459 -0.000322627 -9.92381e-05)
(-0.000882657 -0.000327156 -7.65061e-05)
(-0.000851476 -0.000360418 -4.06308e-05)
(-0.000937101 -0.000417177 7.86504e-06)
(-0.00105272 -0.000464667 5.40906e-05)
(-0.00116291 -0.000493268 9.08628e-05)
(-0.00125897 -0.00050644 0.000118334)
(-0.00133791 -0.000509119 0.000137184)
(-0.00140005 -0.000506364 0.000148326)
(-0.00144777 -0.000502491 0.000153361)
(-0.00148498 -0.000500481 0.00015443)
(-0.00151622 -0.000501779 0.000153497)
(-0.00154506 -0.000506312 0.00015173)
(-0.00157371 -0.000513083 0.000149557)
(-0.00160333 -0.000521255 0.000147041)
(-0.00163448 -0.000530319 0.0001441)
(-0.00166733 -0.000540047 0.000140618)
(-0.00170178 -0.00055036 0.000136505)
(-0.00173766 -0.000561213 0.0001317)
(-0.00177478 -0.000572555 0.000126166)
(-0.00181299 -0.000584341 0.000119869)
(-0.00185226 -0.000596526 0.000112774)
(-0.00189251 -0.000609066 0.000104811)
(-0.00193367 -0.000621905 9.59077e-05)
(-0.0019755 -0.000634937 8.5905e-05)
(-0.0020176 -0.000648023 7.47036e-05)
(-0.00205897 -0.000660948 6.20903e-05)
(-0.00209817 -0.000673467 4.84035e-05)
(-0.00213243 -0.000685055 3.43172e-05)
(-0.00216045 -0.000694493 2.19926e-05)
(-0.0021801 -0.000699689 8.60617e-06)
(-0.00108899 -0.000223741 -8.2405e-06)
(-0.00102995 -0.000259163 -0.000102929)
(-0.000903836 -0.000284781 -8.39963e-05)
(-0.00086639 -0.000321338 -5.08541e-05)
(-0.000946693 -0.000377232 -3.37848e-06)
(-0.00106349 -0.000424304 4.35488e-05)
(-0.00117672 -0.000452154 8.14934e-05)
(-0.00127572 -0.000464014 0.000109841)
(-0.00135699 -0.000465154 0.000129178)
(-0.00142065 -0.000460918 0.000140508)
(-0.00146926 -0.00045578 0.000145519)
(-0.00150688 -0.000452737 0.000146436)
(-0.00153815 -0.000453053 0.000145322)
(-0.00156672 -0.000456473 0.000143408)
(-0.0015949 -0.000462082 0.000141161)
(-0.00162392 -0.000469035 0.000138635)
(-0.00165447 -0.000476825 0.000135746)
(-0.00168678 -0.000485217 0.000132388)
(-0.0017208 -0.000494127 0.000128464)
(-0.00175634 -0.000503517 0.000123904)
(-0.00179318 -0.000513354 0.00011866)
(-0.00183114 -0.000523588 0.000112685)
(-0.00187012 -0.000534181 0.000105934)
(-0.00191004 -0.000545098 9.8333e-05)
(-0.00195081 -0.000556287 8.98174e-05)
(-0.00199223 -0.000567671 8.02366e-05)
(-0.00203392 -0.000579133 6.95198e-05)
(-0.00207493 -0.000590503 5.7475e-05)
(-0.00211384 -0.000601583 4.4483e-05)
(-0.00214783 -0.00061194 3.12338e-05)
(-0.00217568 -0.000620378 1.99801e-05)
(-0.00219542 -0.000624886 7.91211e-06)
(-0.00138496 -0.00020043 1.93407e-05)
(-0.00106097 -0.000215939 -0.000105819)
(-0.0009238 -0.000239863 -9.08497e-05)
(-0.000879263 -0.000281133 -6.10497e-05)
(-0.000952285 -0.000336428 -1.49149e-05)
(-0.00106891 -0.000382696 3.24973e-05)
(-0.00118495 -0.000409658 7.16105e-05)
(-0.00128697 -0.000420077 0.000100901)
(-0.00137059 -0.000419511 0.000120792)
(-0.00143578 -0.000413618 0.000132357)
(-0.00148524 -0.000407085 0.000137393)
(-0.0015232 -0.000402914 0.000138207)
(-0.00155441 -0.000402245 0.000136938)
(-0.00158259 -0.000404682 0.000134895)
(-0.00161011 -0.000409253 0.000132573)
(-0.00163836 -0.000415089 0.000130036)
(-0.00166811 -0.000421674 0.000127207)
(-0.00169968 -0.000428776 0.000123981)
(-0.00173306 -0.000436314 0.00012026)
(-0.00176806 -0.000444261 0.000115963)
(-0.00180442 -0.000452594 0.000111026)
(-0.00184195 -0.000461275 0.000105392)
(-0.0018805 -0.000470271 9.90061e-05)
(-0.00191994 -0.000479541 9.17883e-05)
(-0.00196018 -0.000489058 8.36753e-05)
(-0.00200101 -0.000498773 7.4529e-05)
(-0.0020421 -0.000508582 6.43047e-05)
(-0.00208254 -0.000518367 5.28345e-05)
(-0.00212093 -0.00052798 4.0543e-05)
(-0.00215442 -0.000537092 2.8135e-05)
(-0.00218195 -0.00054452 1.79557e-05)
(-0.0022017 -0.000548329 7.2128e-06)
(-0.00127325 -0.000116022 5.0836e-05)
(-0.00108692 -0.000163939 -0.000108852)
(-0.000941002 -0.000194286 -9.77433e-05)
(-0.000887822 -0.000239635 -7.07818e-05)
(-0.000953056 -0.000294557 -2.6471e-05)
(-0.00106889 -0.000340217 2.10396e-05)
(-0.00118745 -0.000366286 6.12343e-05)
(-0.00129238 -0.000375162 9.15139e-05)
(-0.00137837 -0.000372737 0.000112024)
(-0.00144509 -0.000365013 0.00012388)
(-0.00149535 -0.000356929 0.000128984)
(-0.00153362 -0.000351526 0.00012974)
(-0.00156467 -0.000349821 0.000128356)
(-0.00159234 -0.000351293 0.000126204)
(-0.00161908 -0.000354875 0.000123812)
(-0.0016464 -0.00035967 0.000121266)
(-0.00167517 -0.000365128 0.000118504)
(-0.0017058 -0.000371008 0.000115421)
(-0.00173832 -0.000377235 0.000111915)
(-0.00177255 -0.000383783 0.000107894)
(-0.00180824 -0.000390645 0.000103281)
(-0.00184516 -0.0003978 9.80046e-05)
(-0.00188312 -0.000405217 9.20029e-05)
(-0.00192196 -0.000412873 8.51874e-05)
(-0.00196154 -0.000420743 7.74965e-05)
(-0.00200164 -0.000428795 6.87978e-05)
(-0.00204199 -0.000436963 5.90745e-05)
(-0.0020817 -0.000445161 4.81841e-05)
(-0.0021194 -0.000453294 3.65977e-05)
(-0.00215222 -0.000461136 2.50337e-05)
(-0.0021793 -0.000467548 1.5928e-05)
(-0.00219897 -0.000470658 6.51056e-06)
(-0.00108807 -4.45037e-05 8.11954e-05)
(-0.00107549 -0.00010029 -0.000111745)
(-0.000951398 -0.00014777 -0.000103467)
(-0.000892817 -0.000197053 -7.99207e-05)
(-0.000949016 -0.000251926 -3.79408e-05)
(-0.00106274 -0.000297066 9.19068e-06)
(-0.00118353 -0.000322369 5.03208e-05)
(-0.00129155 -0.000329774 8.16441e-05)
(-0.00138 -0.000325402 0.000102859)
(-0.00144825 -0.000315705 0.000115076)
(-0.00149929 -0.000305899 0.000120302)
(-0.00153776 -0.000299127 0.000121041)
(-0.00156859 -0.000296308 0.000119578)
(-0.00159565 -0.000296792 0.00011734)
(-0.00162148 -0.000299411 0.000114896)
(-0.00164773 -0.000303214 0.000112357)
(-0.00167537 -0.000307617 0.000109674)
(-0.00170487 -0.000312358 0.000106746)
(-0.0017363 -0.000317341 0.000103466)
(-0.00176955 -0.000322554 9.97316e-05)
(-0.00180435 -0.000328002 9.54521e-05)
(-0.00184045 -0.000333681 9.05467e-05)
(-0.00187764 -0.000339572 8.49435e-05)
(-0.00191572 -0.000345655 7.85476e-05)
(-0.00195451 -0.000351915 7.12952e-05)
(-0.00199377 -0.000358336 6.30581e-05)
(-0.00203321 -0.000364887 5.38437e-05)
(-0.00207203 -0.000371521 4.35373e-05)
(-0.00210891 -0.00037819 3.26584e-05)
(-0.00214091 -0.00038475 2.19394e-05)
(-0.00216741 -0.000390149 1.39033e-05)
(-0.00218696 -0.000392568 5.80781e-06)
(-0.00134624 2.4045e-05 0.000127643)
(-0.00109123 -5.25971e-05 -0.000113498)
(-0.000958185 -9.89657e-05 -0.000108432)
(-0.000893389 -0.000153324 -8.8631e-05)
(-0.000939983 -0.000209012 -4.94618e-05)
(-0.00105074 -0.000253869 -3.1557e-06)
(-0.00117325 -0.00027854 3.87787e-05)
(-0.00128429 -0.000284523 7.12208e-05)
(-0.00137522 -0.000278148 9.32614e-05)
(-0.00144505 -0.000266354 0.000105942)
(-0.00149686 -0.000254684 0.000111366)
(-0.00153547 -0.000246397 0.00011214)
(-0.00156595 -0.000242363 0.000110638)
(-0.00159229 -0.00024181 0.000108346)
(-0.00161712 -0.000243473 0.000105875)
(-0.00164218 -0.000246326 0.000103362)
(-0.00166853 -0.00024974 0.000100772)
(-0.00169672 -0.000253415 9.80106e-05)
(-0.00172689 -0.000257238 9.49636e-05)
(-0.00175894 -0.000261202 9.15208e-05)
(-0.00179264 -0.000265311 8.75825e-05)
(-0.00182773 -0.000269582 8.30563e-05)
(-0.00186398 -0.000274008 7.78622e-05)
(-0.00190116 -0.000278585 7.18978e-05)
(-0.00193905 -0.000283301 6.50976e-05)
(-0.00197737 -0.000288156 5.73338e-05)
(-0.00201582 -0.000293144 4.86362e-05)
(-0.00205363 -0.000298259 3.89165e-05)
(-0.00208953 -0.000303491 2.87451e-05)
(-0.00212063 -0.000308803 1.88665e-05)
(-0.00214645 -0.000313202 1.18905e-05)
(-0.0021658 -0.000314939 5.10731e-06)
(-0.00121171 8.54462e-05 0.000146664)
(-0.0010962 2.62879e-06 -0.000114134)
(-0.000962488 -5.0069e-05 -0.000113473)
(-0.000890785 -0.000109271 -9.6676e-05)
(-0.000926196 -0.000165946 -6.06761e-05)
(-0.00103225 -0.000210805 -1.58009e-05)
(-0.00115596 -0.000235148 2.66428e-05)
(-0.00127013 -0.000239922 6.0227e-05)
(-0.00136376 -0.000231608 8.32202e-05)
(-0.00143524 -0.000217643 9.64815e-05)
(-0.00148775 -0.000203972 0.000102188)
(-0.00152641 -0.000194036 0.000103064)
(-0.00155646 -0.000188684 0.000101573)
(-0.00158195 -0.00018704 9.92645e-05)
(-0.00160565 -0.000187739 9.67935e-05)
(-0.00162938 -0.000189679 9.43274e-05)
(-0.00165431 -0.000192166 9.18459e-05)
(-0.00168103 -0.000194857 8.92583e-05)
(-0.00170975 -0.000197613 8.64486e-05)
(-0.00174039 -0.000200415 8.32989e-05)
(-0.00177277 -0.000203277 7.97016e-05)
(-0.00180663 -0.000206226 7.55558e-05)
(-0.00184174 -0.000209269 7.07748e-05)
(-0.00187785 -0.000212418 6.52494e-05)
(-0.00191471 -0.000215667 5.89123e-05)
(-0.00195198 -0.000219027 5.16335e-05)
(-0.00198934 -0.000222517 4.3461e-05)
(-0.00202605 -0.000226174 3.4331e-05)
(-0.00206089 -0.000230028 2.48665e-05)
(-0.00209096 -0.000234139 1.58236e-05)
(-0.00211604 -0.000237573 9.89461e-06)
(-0.00213515 -0.000238637 4.41055e-06)
(-0.00102246 0.000123998 0.000162031)
(-0.0010632 6.30369e-05 -0.000115465)
(-0.000956993 -2.15376e-06 -0.000117194)
(-0.000882874 -6.50839e-05 -0.000103598)
(-0.000907277 -0.000123156 -7.12211e-05)
(-0.00100769 -0.000168461 -2.85161e-05)
(-0.00113191 -0.00019282 1.40109e-05)
(-0.00124899 -0.000196618 4.86807e-05)
(-0.00134546 -0.000186471 7.27374e-05)
(-0.00141874 -0.000170318 8.67122e-05)
(-0.001472 -0.000154556 9.28102e-05)
(-0.00151063 -0.000142855 9.3867e-05)
(-0.00154008 -0.000136086 9.2444e-05)
(-0.0015646 -0.000133299 9.01638e-05)
(-0.00158704 -0.000133027 8.77262e-05)
(-0.00160932 -0.000134085 8.53289e-05)
(-0.0016327 -0.000135713 8.29681e-05)
(-0.00165782 -0.000137509 8.05597e-05)
(-0.00168493 -0.000139299 7.7986e-05)
(-0.00171401 -0.000141047 7.51251e-05)
(-0.00174488 -0.000142768 7.18626e-05)
(-0.00177733 -0.000144501 6.80926e-05)
(-0.00181113 -0.000146264 6.37232e-05)
(-0.00184602 -0.00014808 5.8639e-05)
(-0.00188172 -0.000149955 5.27705e-05)
(-0.00191786 -0.000151909 4.59847e-05)
(-0.00195407 -0.000153983 3.83419e-05)
(-0.0019896 -0.000156257 2.98017e-05)
(-0.0020233 -0.000158801 2.1041e-05)
(-0.00205228 -0.000161777 1.28248e-05)
(-0.00207654 -0.000164292 7.92426e-06)
(-0.00209537 -0.000164695 3.72e-06)
(-0.0012211 0.000221495 0.00022265)
(-0.00105865 0.000110965 -0.000115642)
(-0.000948408 4.66166e-05 -0.000120215)
(-0.000871843 -2.12209e-05 -0.000109979)
(-0.000884026 -8.13333e-05 -8.12057e-05)
(-0.000976526 -0.000127303 -4.12353e-05)
(-0.00110031 -0.000152012 8.94409e-07)
(-0.00122032 -0.000155176 3.65518e-05)
(-0.00131995 -0.000143394 6.17878e-05)
(-0.0013952 -0.000125096 7.66287e-05)
(-0.00144925 -0.000107192 8.3246e-05)
(-0.0014878 -9.36451e-05 8.45812e-05)
(-0.00151656 -8.53914e-05 8.32992e-05)
(-0.00153993 -8.14195e-05 8.10975e-05)
(-0.00156094 -8.01802e-05 7.87286e-05)
(-0.00158162 -8.03966e-05 7.64213e-05)
(-0.00160328 -8.12341e-05 7.41902e-05)
(-0.00162664 -8.22272e-05 7.19594e-05)
(-0.00165198 -8.31595e-05 6.96143e-05)
(-0.0016793 -8.39682e-05 6.70299e-05)
(-0.00170847 -8.46678e-05 6.409e-05)
(-0.0017393 -8.52981e-05 6.06844e-05)
(-0.00177157 -8.58948e-05 5.67187e-05)
(-0.00180504 -8.64866e-05 5.20723e-05)
(-0.00183943 -8.70941e-05 4.66748e-05)
(-0.00187433 -8.77443e-05 4.03877e-05)
(-0.00190933 -8.84946e-05 3.32813e-05)
(-0.00194363 -8.94694e-05 2.53337e-05)
(-0.00197614 -9.07829e-05 1.72751e-05)
(-0.00200395 -9.26981e-05 9.87678e-06)
(-0.00202733 -9.43504e-05 5.9834e-06)
(-0.00204588 -9.41027e-05 3.0365e-06)
(-0.0010781 0.000254766 0.000229008)
(-0.00103809 0.000162265 -0.000113652)
(-0.000933643 9.42416e-05 -0.000122823)
(-0.000855005 2.18054e-05 -0.000115289)
(-0.000855879 -4.05346e-05 -9.0211e-05)
(-0.000939417 -8.77363e-05 -5.3619e-05)
(-0.00106167 -0.000113258 -1.25334e-05)
(-0.00118423 -0.00011621 2.38946e-05)
(-0.00128712 -0.000103065 5.03845e-05)
(-0.00136468 -8.27503e-05 6.62573e-05)
(-0.00141968 -6.27197e-05 7.35481e-05)
(-0.00145811 -4.72828e-05 7.52768e-05)
(-0.00148603 -3.75011e-05 7.42178e-05)
(-0.00150812 -3.23349e-05 7.21545e-05)
(-0.00152756 -3.01505e-05 6.98935e-05)
(-0.0015465 -2.95805e-05 6.76975e-05)
(-0.00156632 -2.97088e-05 6.56014e-05)
(-0.00158781 -3.00022e-05 6.35422e-05)
(-0.00161125 -3.01937e-05 6.14113e-05)
(-0.00163669 -3.01912e-05 5.90853e-05)
(-0.00166401 -3e-05 5.64484e-05)
(-0.00169305 -2.96598e-05 5.33893e-05)
(-0.00172363 -2.92179e-05 4.98128e-05)
(-0.00175551 -2.87122e-05 4.55949e-05)
(-0.00178844 -2.81702e-05 4.06628e-05)
(-0.00182198 -2.76294e-05 3.48745e-05)
(-0.00185567 -2.71603e-05 2.83059e-05)
(-0.0018887 -2.69274e-05 2.09493e-05)
(-0.00191995 -2.70948e-05 1.35874e-05)
(-0.00194656 -2.80316e-05 6.99397e-06)
(-0.00196902 -2.88824e-05 4.08083e-06)
(-0.00198726 -2.7992e-05 2.36259e-06)
(-0.000897474 0.000259701 0.000227644)
(-0.000983256 0.000211233 -0.000110966)
(-0.000910346 0.000138799 -0.000124122)
(-0.000834862 6.35949e-05 -0.000119629)
(-0.000824347 -1.33416e-06 -9.80745e-05)
(-0.000896337 -5.01319e-05 -6.52379e-05)
(-0.00101534 -7.69398e-05 -2.59857e-05)
(-0.0011401 -8.02055e-05 1.08272e-05)
(-0.00124645 -6.60962e-05 3.8569e-05)
(-0.00132661 -4.39841e-05 5.56203e-05)