/*--------------------------------*- C++ -*----------------------------------*\
  =========                 |
  \\      /  F ield         | OpenFOAM: The Open Source CFD Toolbox
   \\    /   O peration     | Website:  https://openfoam.org
    \\  /    A nd           | Version:  6
     \\/     M anipulation  |
\*---------------------------------------------------------------------------*/
FoamFile
{
    version     2.0;
    format      ascii;
    class       volScalarField;
    location    "39";
    object      yPlus;
}
// * * * * * * * * * * * * * * * * * * * * * * * * * * * * * * * * * * * * * //

dimensions      [0 0 0 0 0 0 0];

internalField   uniform 0;

boundaryField
{
    inlet
    {
        type            calculated;
        value           uniform 0;
    }
    outlet
    {
        type            calculated;
        value           uniform 0;
    }
    roughCylinder
    {
        type            calculated;
        value           nonuniform List<scalar> 
5120
(
76.1288
60.0176
52.3002
55.5637
61.5697
66.6492
70.8673
74.4035
77.4103
80.0365
82.4118
84.598
86.6396
88.5812
90.4442
92.2734
94.0977
95.9745
97.9182
99.9419
102.053
104.253
106.535
108.887
111.293
113.726
116.15
118.514
120.742
122.725
124.279
125.148
92.4956
61.1968
51.8628
54.0895
59.898
64.9374
69.1357
72.6547
75.6508
78.2849
80.6497
82.8053
84.8127
86.6979
88.5071
90.2689
92.0439
93.8442
95.7113
97.6642
99.7054
101.831
104.036
106.308
108.631
110.98
113.322
115.605
117.756
119.672
121.173
122.01
95.0285
61.1057
50.9402
52.6437
58.2507
63.2145
67.3681
70.886
73.9074
76.5427
78.9063
81.0515
83.0136
84.8592
86.61
88.3216
90.013
91.7564
93.5638
95.4443
97.407
99.4545
101.579
103.77
106.011
108.279
110.539
112.742
114.818
116.666
118.114
118.919
87.9194
59.7797
50.3128
51.1129
56.4836
61.4283
65.6035
69.1425
72.1669
74.8302
77.1965
79.3152
81.2573
83.0526
84.7603
86.404
88.0628
89.7346
91.4647
93.2781
95.177
97.1555
99.2079
101.324
103.486
105.673
107.852
109.976
111.978
113.761
115.156
115.931
85.6076
61.5643
49.93
49.7105
54.7839
59.6697
63.8069
67.3528
70.44
73.1189
75.4893
77.6195
79.5307
81.3038
82.9608
84.5747
86.147
87.7696
89.4541
91.2033
93.0272
94.931
96.9074
98.946
101.032
103.142
105.244
107.293
109.224
110.943
112.288
113.033
73.2234
60.0092
49.1302
48.092
52.8903
57.7669
61.9752
65.598
68.6904
71.4113
73.8097
75.9178
77.8346
79.5717
81.2072
82.7532
84.3179
85.8807
87.4885
89.1766
90.9475
92.7918
94.7048
96.6761
98.6892
100.723
102.75
104.726
106.587
108.244
109.541
110.257
86.3897
60.1956
48.5238
46.6362
51.0894
55.9392
60.1188
63.728
66.9242
69.6841
72.0895
74.2426
76.1421
77.8883
79.4841
81.0338
82.5102
84.0318
85.6138
87.2495
88.9492
90.7231
92.5642
94.4624
96.4052
98.3692
100.324
102.229
104.024
105.622
106.872
107.559
74.589
59.8682
48.1956
44.9997
48.9763
53.8017
58.1097
61.8977
65.102
67.915
70.3925
72.529
74.4635
76.1854
77.796
79.2766
80.7805
82.262
83.767
85.3469
87.007
88.7333
90.5215
92.362
94.2374
96.1306
98.0152
99.8521
101.582
103.123
104.326
104.986
78.0533
58.179
47.5742
43.5635
46.972
51.8109
56.1222
59.8326
63.2
66.1032
68.5888
70.82
72.753
74.52
76.0971
77.6308
79.0469
80.495
82.0009
83.5453
85.1379
86.7966
88.5154
90.2858
92.0963
93.9255
95.7439
97.5135
99.1815
100.667
101.826
102.458
71.7219
57.7339
46.6683
41.7401
44.459
49.1961
53.6965
57.7993
61.198
64.1665
66.8028
69.025
71.0357
72.7872
74.4237
75.8757
77.361
78.7978
80.2254
81.7186
83.2885
84.9148
86.594
88.3159
90.0655
91.8272
93.5781
95.2849
96.8915
98.3224
99.437
100.041
73.1593
57.3692
46.6761
40.213
42.0078
46.8129
51.4343
55.3185
58.9885
62.1594
64.8037
67.2008
69.2307
71.083
72.6847
74.2557
75.6454
77.0497
78.5123
79.9924
81.4967
83.0551
84.6636
86.3175
88.0061
89.7083
91.3975
93.0384
94.5859
95.965
97.0378
97.6123
77.4794
56.6953
45.5162
38.3342
38.7491
43.2333
48.0778
52.845
56.613
59.8692
62.8148
65.2151
67.3935
69.2367
70.9689
72.4312
73.9444
75.3775
76.7539
78.1818
79.6836
81.2292
82.8163
84.4315
86.0642
87.7016
89.3253
90.9073
92.3951
93.72
94.7495
95.2974
75.9988
57.3179
45.319
36.2928
35.4026
39.8794
45.2381
49.4397
53.754
57.4691
60.4222
63.148
65.3767
67.4157
69.1002
70.7837
72.1893
73.583
75.0404
76.4876
77.9235
79.3963
80.9045
82.4535
84.0286
85.6114
87.1768
88.6933
90.1232
91.3984
92.387
92.9048
65.1558
54.6408
44.9148
34.9327
30.4951
34.1574
39.5703
46.0532
50.581
54.4358
58.0291
60.7805
63.2949
65.3266
67.264
68.786
70.3937
71.8791
73.235
74.6222
76.083
77.5714
79.0872
80.6076
82.1326
83.652
85.1522
86.6132
87.9844
89.2058
90.1512
90.6432
47.0199
47.1192
41.4895
31.9839
25.7828
27.6411
35.3306
40.0444
46.2087
51.2184
54.8194
58.2417
60.8607
63.2716
65.1258
67.0401
68.5172
69.9425
71.4477
72.9039
74.295
75.6979
77.1149
78.5703
80.0399
81.5089
82.9543
84.3469
85.661
86.8334
87.7378
88.198
25.1666
35.9888
35.1671
28.9484
12.2547
12.5504
20.0557
34.6982
40.9326
46.4029
51.6015
55.0916
58.3188
60.7149
63.0551
64.7037
66.5091
68.1288
69.5017
70.8773
72.3326
73.7943
75.2655
76.7048
78.1311
79.536
80.9138
82.2551
83.5101
84.6272
85.4876
85.922
15.1975
19.081
19.5927
12.9143
8.10055
15.9832
6.87046
10.2947
31.9778
41.0136
46.386
51.5946
55.034
58.2259
60.3996
62.7618
64.3876
65.8994
67.5315
69.0577
70.4324
71.7818
73.1141
74.4864
75.8559
77.2149
78.5408
79.8058
81.0014
82.0692
82.8881
83.2862
11.1769
4.02429
12.4378
13.7705
4.50504
15.964
16.773
5.84735
5.44513
30.5501
41.1948
46.5433
51.5861
54.7316
57.9071
59.7808
61.9723
63.8629
65.2998
66.6985
68.1995
69.6787
71.1435
72.518
73.8552
75.1461
76.3973
77.6168
78.7509
79.7597
80.5316
80.9057
4.14045
8.22603
8.70386
14.3777
15.7061
17.1598
17.9709
18.3314
18.2256
22.1293
28.6764
40.8425
46.2756
51.4023
54.2021
57.4984
59.3927
61.0724
62.9702
64.6671
66.0621
67.3747
68.6211
69.9216
71.1919
72.4409
73.6433
74.7694
75.8381
76.7953
77.5229
77.8509
5.45992
10.7834
5.89933
15.5117
17.6465
11.3078
11.465
10.6462
9.89705
7.42901
22.3915
28.1409
40.6955
45.6902
50.9261
53.1822
56.1971
58.6338
60.1985
61.6673
63.3023
64.8738
66.4004
67.7307
68.9925
70.1648
71.2773
72.3689
73.372
74.2629
74.9387
75.2466
6.62164
16.0252
19.821
20.6674
17.0158
4.86809
22.1855
15.6067
23.1448
20.8853
20.273
10.7183
28.3235
40.4382
44.6631
50.3449
52.7109
54.7138
57.1873
59.2568
60.7272
62.0202
63.158
64.4032
65.5687
66.704
67.7731
68.7353
69.6603
70.4946
71.1198
71.3615
8.00997
18.373
23.1896
26.6935
28.6241
27.4265
17.2453
1.459
19.0716
25.3741
13.2397
13.3924
3.14061
27.0042
39.7841
42.5719
47.8457
51.5478
53.338
54.9563
56.9226
58.7469
60.4899
61.8162
63.0282
64.0711
65.0202
65.9746
66.8295
67.5863
68.1531
68.3857
7.84151
18.2677
24.0138
28.2031
30.7828
31.9036
31.805
24.8348
24.6563
21.4964
19.1243
24.3698
20.6348
22.9864
22.7975
39.0829
42.1413
44.9244
48.8961
51.8942
53.5392
54.8272
55.7786
56.9909
58.0421
59.0593
59.9785
60.7247
61.4733
62.1644
62.6685
62.7885
7.46648
17.1363
23.1873
27.9019
31.357
33.3865
33.5783
32.8386
27.3811
17.1889
12.269
20.8453
24.0161
10.7575
15.5171
12.3928
32.9569
40.343
42.5898
44.424
47.3562
49.9441
52.2926
53.7595
54.9882
55.8816
56.6177
57.4347
58.1178
58.7159
59.1518
59.3002
6.7017
15.5835
21.5607
26.2566
29.8318
32.4169
34.045
34.065
32.9565
28.2817
14.1208
12.4597
5.30954
17.752
13.7594
14.1998
6.01432
23.0066
33.7903
40.2738
42.2381
43.3098
44.007
45.205
46.1199
47.0351
47.7862
48.1587
48.6641
49.1677
49.5319
49.4121
5.98341
14.3595
20.0034
24.4858
27.9936
30.6554
32.4401
33.4493
33.2547
32.2075
29.7655
14.389
10.6076
27.2597
18.7928
23.8164
15.035
7.16383
14.2795
18.8829
28.4945
35.1061
38.7045
41.0025
42.5083
43.2519
43.5868
44.4463
44.8969
45.347
45.5043
45.6856
5.24259
13.2457
18.2661
22.2614
25.4546
28.0243
30.0071
31.2482
31.8177
31.6807
30.9471
31.9242
22.4775
12.8667
8.68773
25.503
3.75332
23.8499
17.5631
4.99909
25.9182
28.1264
13.306
13.0321
15.9178
15.547
18.1421
14.6891
14.3533
14.5697
16.8619
12.6769
4.64425
12.2671
16.0903
19.1807
21.8406
24.1776
26.1297
27.6247
28.5844
29.2273
30.0354
29.5041
31.4315
26.8061
20.6122
24.154
22.7696
13.4922
25.3818
19.017
5.52068
17.3852
16.6585
7.48406
28.1585
20.6239
28.6869
8.37002
22.2081
8.56095
31.0761
7.83686
4.31243
11.6533
13.6469
15.309
17.0508
18.8927
20.7384
22.4326
23.9661
25.4622
26.8561
29.1367
29.7826
31.4183
30.1039
17.2932
17.6257
16.5385
6.47056
14.2633
26.4031
7.59759
20.931
27.9655
18.6298
9.54075
4.90136
29.0407
11.8689
30.7714
21.4226
30.4404
3.98494
11.3432
12.093
12.5525
13.1381
14.0068
15.3137
17.0638
19.0665
21.2081
23.6139
25.5086
28.2267
29.9803
31.1319
32.8195
25.146
19.9509
25.838
29.0943
18.7212
19.2465
10.5407
17.4626
24.1654
31.0429
20.4996
8.02226
31.762
20.2164
31.9051
7.42616
3.68927
11.5055
11.5447
11.8046
11.9797
12.1994
13.0331
14.6379
16.6131
18.6909
20.7388
23.2909
25.3514
27.8117
30.2969
31.1671
32.4582
29.886
20.5897
25.5056
14.1241
18.2431
1.29184
28.1277
13.2054
27.1858
21.3263
7.1597
23.0257
10.7285
32.1329
29.7737
3.56069
11.3665
11.5203
11.7369
11.8542
12.1206
13.2955
15.1303
16.9755
18.6293
20.2649
21.7007
23.6647
25.5901
27.5533
30.2281
31.7236
32.3663
32.5707
29.3177
21.0371
21.6288
30.9941
19.8762
12.2448
29.2854
20.1877
23.4774
18.7466
10.8619
5.0912
12.3682
2.45885
9.16962
11.372
11.6669
11.5541
11.9877
13.7972
15.9796
17.9033
19.5095
20.8278
22.1511
23.2101
24.4823
26.1023
27.6488
29.8101
31.8209
32.4899
32.4385
32.2949
29.4307
27.9598
23.0362
20.0452
19.0716
18.046
17.8401
17.7254
18.5014
19.6841
19.9561
2.22491
8.45722
10.7703
11.5911
11.8308
13.1642
15.5243
17.6632
19.3927
20.8026
22.0198
22.9782
23.9192
24.6967
25.4046
26.5842
27.9439
29.563
31.4323
32.5512
32.4359
32.0088
31.3388
31.0227
30.8192
30.5528
30.0656
29.7086
29.4445
29.3911
29.4437
29.5321
2.87388
9.69858
11.3631
11.5611
12.8425
15.229
17.5259
19.4362
21.0155
22.3394
23.4361
24.3964
25.1057
25.6713
26.1643
26.4804
27.0911
28.1656
29.4328
30.7229
31.6594
31.9883
31.4454
30.4913
29.2915
28.1017
26.9474
26.1224
25.5046
25.3228
25.525
25.8176
3.72439
11.2823
11.6118
13.1031
15.4406
17.7363
19.715
21.3915
22.8164
24.0325
25.083
25.9324
26.6311
27.1128
27.3551
27.5346
27.6153
27.7873
28.3881
29.3076
30.0902
30.465
30.3946
29.9183
29.1555
28.2079
27.0717
26.1596
25.6267
25.5704
25.789
26.009
3.85731
11.5131
13.4897
15.7788
17.9798
19.9555
21.7039
23.2418
24.5952
25.785
26.8132
27.6889
28.3487
28.7941
29.0403
29.026
28.8812
28.7191
28.6076
28.7158
29.0827
29.4217
29.3461
28.7902
27.744
26.3673
24.8669
23.6637
23.0113
23.0146
23.4226
23.8694
4.281
12.3975
15.5936
18.0959
20.1796
21.9967
23.6208
25.0816
26.3976
27.5764
28.6212
29.4966
30.1903
30.6604
30.8744
30.8782
30.6594
30.2634
29.83
29.4623
29.1868
28.9875
28.709
28.1719
27.2996
26.1473
24.8461
23.7698
23.2566
23.4094
23.9067
24.3683
5.53461
14.6188
17.812
20.1419
22.0573
23.7751
25.3558
26.8096
28.1462
29.3639
30.4492
31.3796
32.1091
32.6145
32.8898
32.8996
32.6699
32.2406
31.6418
30.9541
30.2821
29.6569
29.0082
28.2194
27.1735
25.8738
24.4738
23.3285
22.813
23.0384
23.6613
24.2385
6.70858
16.1516
19.4197
21.7652
23.6959
25.4281
27.0227
28.5034
29.8832
31.1531
32.2955
33.2738
34.0615
34.629
34.9509
35.0292
34.8513
34.4167
33.7674
32.9533
32.0284
31.0529
30.0524
28.9921
27.8155
26.5202
25.2092
24.1772
23.776
24.0905
24.7606
25.3454
8.04177
9.38243
10.6967
11.2822
11.4656
11.7162
11.5697
11.6392
11.9694
11.6607
11.6929
11.8038
11.3259
11.23
10.4082
9.92654
9.50316
9.20477
9.00814
8.91249
8.91233
9.00763
9.20392
9.50191
9.92475
10.4065
11.2139
11.6629
11.6531
11.6529
11.9794
11.6647
11.9684
11.7283
11.8235
11.5878
11.2057
10.6949
9.38195
8.04188
17.426
18.2223
18.8733
19.2242
19.4986
19.6609
19.7633
19.7739
19.7675
19.7136
19.6306
19.526
19.3995
19.2597
19.1143
19.013
18.9203
18.855
18.8098
18.788
18.7879
18.8096
18.8546
18.9198
19.0122
19.1136
19.2582
19.4037
19.5185
19.6287
19.7082
19.7674
19.7748
19.7627
19.66
19.5077
19.2267
18.8731
18.2215
17.4254
20.6387
21.2506
21.7541
22.0302
22.2613
22.364
22.4359
22.4296
22.411
22.3535
22.2902
22.21
22.1308
22.0481
21.9739
21.912
21.859
21.8202
21.7929
21.779
21.7789
21.7927
21.8198
21.8585
21.9113
21.9732
22.0471
22.13
22.2085
22.2893
22.3512
22.4099
22.4282
22.4343
22.3619
22.2611
22.0301
21.7532
21.2498
20.6382
22.9076
23.4315
23.8843
24.1535
24.3851
24.5057
24.606
24.6429
24.669
24.6637
24.6578
24.6387
24.6209
24.5996
24.5797
24.5632
24.549
24.5392
24.5317
24.5274
24.5273
24.5315
24.5388
24.5484
24.5625
24.5789
24.5987
24.6198
24.6375
24.6566
24.6623
24.6676
24.6414
24.6046
24.5042
24.3838
24.1524
23.8832
23.4306
22.9071
24.805
25.2958
25.7396
26.0235
26.2782
26.4378
26.5829
26.6777
26.766
26.8269
26.8863
26.9333
26.9783
27.0176
27.0525
27.0845
27.1108
27.1323
27.1463
27.1525
27.1525
27.1461
27.1319
27.1103
27.0837
27.0517
27.0166
26.9773
26.9321
26.885
26.8256
26.7646
26.6763
26.5814
26.4363
26.2767
26.0221
25.7385
25.2947
24.8045
26.536
27.0042
27.4583
27.7616
28.0553
28.2646
28.4706
28.6285
28.7848
28.9143
29.0424
29.1567
29.2665
29.3669
29.4585
29.5399
29.6083
29.662
29.6981
29.7151
29.715
29.6979
29.6616
29.6077
29.5393
29.4576
29.366
29.2655
29.1555
29.0412
28.9131
28.7834
28.627
28.4691
28.2631
28.0538
27.7602
27.4571
27.003
26.5354
28.1531
28.6047
29.0872
29.417
29.7637
30.0235
30.2915
30.5104
30.7323
30.9269
31.1202
31.2979
31.469
31.6266
31.7709
31.8984
32.0055
32.089
32.1452
32.1717
32.1715
32.145
32.0886
32.0051
31.8978
31.7701
31.6257
31.468
31.2968
31.1191
30.9258
30.731
30.5091
30.2901
30.022
29.7623
29.4156
29.0859
28.6035
28.1522
29.6757
30.1196
30.6424
31.0019
31.3993
31.7058
32.0296
32.3037
32.5839
32.8367
33.0878
33.3217
33.5464
33.7544
33.9446
34.112
34.2525
34.3613
34.4342
34.4684
34.4683
34.434
34.3609
34.252
34.1114
33.9439
33.7535
33.5457
33.3208
33.0867
32.8355
32.5826
32.3024
32.0283
31.7045
31.3979
31.0006
30.6412
30.1185
29.6747
31.1083
31.5484
32.1135
32.4974
32.9399
33.2861
33.6577
33.979
34.3084
34.6105
34.9103
35.1915
35.4612
35.7108
35.9387
36.1386
36.3059
36.435
36.5211
36.5611
36.561
36.5209
36.4347
36.3055
36.1381
35.9381
35.7101
35.4605
35.1906
34.9093
34.6094
34.3072
33.9778
33.6565
33.2849
32.9387
32.4963
32.1123
31.5473
31.1074
32.4343
32.8717
33.4726
33.8771
34.3564
34.7356
35.1461
35.5063
35.8759
36.2184
36.5576
36.8769
37.1825
37.4649
37.7223
37.9475
38.1353
38.2796
38.3757
38.4199
38.4198
38.3755
38.2793
38.1349
37.947
37.7217
37.4643
37.1817
36.876
36.5567
36.2174
35.8748
35.5052
35.1449
34.7345
34.3552
33.876
33.4715
32.8707
32.4334
33.6266
34.0597
34.6912
35.1119
35.6208
36.0273
36.4689
36.8608
37.2625
37.6373
38.0074
38.3566
38.6895
38.9971
39.2763
39.52
39.7226
39.8778
39.9809
40.0282
40.0282
39.9807
39.8776
39.7222
39.5196
39.2758
38.9965
38.6889
38.3558
38.0066
37.6363
37.2615
36.8598
36.4678
36.0262
35.6197
35.1109
34.6901
34.0588
33.6257
34.6561
35.0815
35.7417
36.1754
36.71
37.1394
37.607
38.0251
38.4527
38.8534
39.2479
39.6199
39.9737
40.2996
40.5946
40.8512
41.0639
41.2263
41.3339
41.383
41.3829
41.3338
41.2262
41.0635
40.8508
40.5941
40.2991
39.9731
39.6194
39.2472
38.8526
38.4519
38.0241
37.6059
37.1383
36.709
36.1745
35.7408
35.0807
34.6554
35.4903
35.914
36.6011
37.0493
37.6076
38.0585
38.5495
38.9908
39.441
39.8633
40.2779
40.6683
41.038
41.3778
41.6842
41.9498
42.1692
42.3364
42.4467
42.4969
42.4969
42.4467
42.3362
42.1689
41.9495
41.6838
41.3774
41.0376
40.6677
40.2772
39.8626
39.4403
38.99
38.5487
38.0576
37.6067
37.0484
36.6003
35.9133
35.4896
36.1072
36.5384
37.2544
37.722
38.305
38.7792
39.2934
39.7575
40.2288
40.6711
41.1034
41.5095
41.8927
42.2435
42.5586
42.8309
43.0551
43.2254
43.3377
43.3885
43.3885
43.3375
43.2253
43.0549
42.8307
42.5583
42.2431
41.8922
41.5091
41.1028
40.6705
40.2282
39.7568
39.2927
38.7785
38.3042
37.7214
37.2536
36.5379
36.1067
36.497
36.9399
37.6949
38.1865
38.7996
39.2997
39.8397
40.3276
40.8208
41.2828
41.732
42.153
42.5482
42.9088
43.2313
43.509
43.737
43.9098
44.0234
44.0748
44.0748
44.0233
43.9096
43.7368
43.5089
43.231
42.9085
42.5479
42.1526
41.7316
41.2823
40.8202
40.3271
39.8392
39.2991
38.799
38.1859
37.6944
36.9395
36.4967
36.637
37.115
37.9133
38.4397
39.0874
39.6189
40.1879
40.7022
41.2185
41.7011
42.1679
42.6035
43.0105
43.3803
43.7098
43.9925
44.2238
44.3988
44.5137
44.5658
44.5658
44.5136
44.3987
44.2237
43.9923
43.7096
43.3801
43.0102
42.6032
42.1675
41.7007
41.2181
40.7018
40.1874
39.6185
39.0869
38.4392
37.913
37.1148
36.637
36.5213
37.052
37.9012
38.4738
39.161
39.7304
40.3314
40.8754
41.4168
41.9215
42.4066
42.8575
43.2765
43.6558
43.9921
44.2798
44.5146
44.6918
44.8082
44.861
44.861
44.8081
44.6917
44.5145
44.2797
43.992
43.6556
43.2763
42.8573
42.4064
41.9213
41.4165
40.8751
40.3311
39.7301
39.1607
38.4736
37.901
37.0518
36.5216
36.1494
36.73
37.6461
38.2723
39.0067
39.6186
40.2559
40.8325
41.4014
41.9301
42.4346
42.9018
43.3336
43.7228
44.0666
44.3597
44.5982
44.778
44.896
44.9498
44.9498
44.896
44.778
44.5982
44.3597
44.0666
43.7227
43.3335
42.9017
42.4345
41.93
41.4013
40.8324
40.2557
39.6185
39.0065
38.2723
37.6461
36.7303
36.1498
35.5193
36.1438
37.1232
37.8153
38.6015
39.2616
39.9384
40.551
41.1497
41.7042
42.2301
42.7148
43.1606
43.5608
43.913
44.2124
44.4553
44.6383
44.7583
44.8134
44.8134
44.7583
44.6383
44.4553
44.2124
43.913
43.5609
43.1606
42.7148
42.2301
41.7042
41.1497
40.551
39.9384
39.2616
38.6016
37.8155
37.1235
36.1445
35.5203
34.6537
35.2973
36.317
37.0744
37.9195
38.6323
39.3516
40.0029
40.6335
41.2161
41.765
42.2692
42.7307
43.1435
43.5055
43.8122
44.0608
44.2477
44.3705
44.4272
44.4272
44.3705
44.2478
44.0609
43.8124
43.5056
43.1437
42.7308
42.2694
41.7652
41.2163
40.6337
40.003
39.3519
38.6325
37.9198
37.0749
36.3177
35.2983
34.655
33.604
34.2132
35.2382
36.0408
36.9366
37.7072
38.4697
39.1614
39.8251
40.4375
41.0111
41.5366
42.0155
42.4426
42.816
43.1319
43.3872
43.5792
43.7054
43.7642
43.7642
43.7055
43.5793
43.3874
43.1321
42.8162
42.4429
42.0157
41.5368
41.0114
40.4378
39.8255
39.1619
38.4701
37.7078
36.9372
36.0418
35.2391
34.2146
33.605
32.4305
32.9364
33.9209
34.7313
35.656
36.4738
37.279
38.0092
38.7052
39.3471
39.9459
40.4935
40.9911
41.4341
41.8204
42.1467
42.4103
42.6083
42.7387
42.7999
42.7999
42.7387
42.6084
42.4104
42.147
41.8208
41.4345
40.9915
40.494
39.9464
39.3475
38.7057
38.0097
37.2796
36.4747
35.657
34.7322
33.9224
32.9374
32.4322
31.1789
31.5244
32.4191
33.1907
34.1118
34.9526
35.7901
36.5509
37.2743
37.942
38.5639
39.1326
39.6486
40.1077
40.5075
40.845
41.1175
41.3223
41.4574
41.5213
41.5213
41.4575
41.3224
41.1177
40.8453
40.5079
40.1081
39.6491
39.1331
38.5645
37.9426
37.2749
36.5517
35.7909
34.9537
34.1129
33.1923
32.4202
31.5261
31.1794
29.8605
30.0281
30.7933
31.4854
32.3646
33.1952
34.042
34.8239
35.5654
36.2518
36.8916
37.4774
38.0091
38.4825
38.8948
39.2429
39.5241
39.7356
39.8754
39.9421
39.9422
39.8756
39.7358
39.5244
39.2433
38.8953
38.4829
38.0096
37.478
36.8922
36.2526
35.5662
34.8249
34.0431
33.1965
32.3661
31.4869
30.7951
30.0295
29.8622
28.4658
28.4829
29.1118
29.7034
30.5148
31.3069
32.138
32.9201
33.6659
34.3596
35.0082
35.6041
36.1461
36.6295
37.0513
37.4077
37.6959
37.913
38.0569
38.126
38.126
38.057
37.9132
37.6962
37.4081
37.0518
36.6301
36.1467
35.6047
35.0089
34.3604
33.6668
32.9214
32.1395
31.3084
30.5167
29.7056
29.1141
28.4854
28.4679
27.007
26.9447
27.4574
27.9588
28.6941
29.4322
30.228
30.9911
31.7287
32.4184
33.0661
33.6636
34.2089
34.6964
35.1226
35.4835
35.7757
35.9961
36.1426
36.2132
36.2133
36.1428
35.9964
35.7761
35.484
35.1232
34.6972
34.2097
33.6645
33.0671
32.4195
31.73
30.9927
30.2299
29.4345
28.6967
27.9619
27.4607
26.9486
27.0108
25.5991
25.5405
25.9752
26.4248
27.0962
27.7862
28.5408
29.2748
29.9914
30.6662
31.3037
31.8942
32.4347
32.9193
33.3437
33.7036
33.9954
34.216
34.3627
34.4338
34.4339
34.3629
34.2164
33.9961
33.7044
33.3446
32.9203
32.4358
31.8955
31.3052
30.6679
29.9933
29.2771
28.5435
27.789
27.0996
26.4278
25.9792
25.5424
25.6028
24.5299
24.5205
24.9244
25.3585
25.9881
26.6422
27.3561
28.0546
28.7386
29.389
30.0063
30.5803
31.1071
31.5802
31.9951
32.3475
32.6334
32.8497
32.9936
33.0635
33.0636
32.9938
32.8501
32.6339
32.3482
31.9959
31.5811
31.1081
30.5816
30.0076
29.3904
28.7401
28.0562
27.3579
26.6441
25.9898
25.3603
24.9253
24.5216
24.5277
24.1282
24.1773
24.5694
24.9998
25.5934
26.2107
26.8762
27.5287
28.1727
28.7895
29.3766
29.924
30.427
30.8792
31.2763
31.6137
31.8876
32.0948
32.2327
32.2995
32.2996
32.2329
32.0951
31.8881
31.6143
31.277
30.8801
30.428
29.9251
29.3777
28.7907
28.1739
27.53
26.8777
26.2124
25.5951
25.0016
24.571
24.1791
24.1291
24.4746
24.5379
24.9195
25.3266
25.8795
26.4479
27.0581
27.6595
28.2584
28.8343
29.3839
29.8973
30.3695
30.7946
31.168
31.4853
31.7432
31.9381
32.0677
32.1303
32.1305
32.0679
31.9385
31.7436
31.486
31.1688
30.7955
30.3705
29.8984
29.3851
28.8356
28.2597
27.661
27.0594
26.4496
25.8809
25.3286
24.9202
24.54
24.4731
25.1894
25.243
25.6172
25.9941
26.5122
27.0353
27.6021
28.1622
28.7227
29.2619
29.7775
30.2593
30.7027
31.1022
31.4532
31.7517
31.9942
32.1774
32.2991
32.3576
32.3578
32.2994
32.1778
31.9946
31.7522
31.4539
31.1029
30.7036
30.26
29.7783
29.2629
28.7236
28.1632
27.6031
27.0364
26.5138
25.9958
25.6198
25.2454
25.1939
25.82
25.8469
26.2219
26.5719
27.0708
27.5648
28.1085
28.6438
29.1817
29.6989
30.1939
30.6565
31.0827
31.4667
31.8043
32.0913
32.3245
32.5008
32.6178
32.6737
32.6738
32.618
32.5012
32.3252
32.0922
31.8052
31.4679
31.0841
30.658
30.1955
29.7005
29.1835
28.6457
28.1105
27.5669
27.0732
26.5747
26.225
25.8506
25.8241
75.9653
59.7602
52.3313
55.5618
61.5675
66.6483
70.8666
74.4029
77.4103
80.0373
82.4125
84.5986
86.6403
88.5819
90.4448
92.274
94.0983
95.9751
97.9188
99.9427
102.054
104.254
106.536
108.887
111.293
113.727
116.151
118.515
120.743
122.726
124.28
125.149
94.0834
61.9028
52.1164
54.11
59.895
64.9365
69.1363
72.6562
75.6521
78.2853
80.6502
82.806
84.8132
86.6985
88.5078
90.2696
92.0446
93.8448
95.7119
97.6645
99.7059
101.832
104.036
106.308
108.632
110.981
113.323
115.606
117.757
119.673
121.174
122.011
91.4947
60.1283
51.0041
52.6626
58.2497
63.2153
67.3686
70.8858
73.9072
76.5439
78.9075
81.0524
83.0145
84.86
86.6106
88.3222
90.0137
91.7571
93.5644
95.4453
97.4075
99.455
101.579
103.77
106.012
108.28
110.539
112.742
114.818
116.667
118.115
118.921
82.2103
61.1775
50.5831
51.1456
56.4862
61.4302
65.6055
69.1452
72.1698
74.8312
77.1971
79.316
81.2579
83.0533
84.7611
86.4048
88.0634
89.7352
91.4653
93.2783
95.1779
97.156
99.2088
101.324
103.487
105.673
107.852
109.977
111.979
113.762
115.157
115.932
70.3672
57.7126
49.3235
49.6566
54.7822
59.6701
63.8076
67.3526
70.439
73.12
75.4909
77.6207
79.5318
81.3049
82.9616
84.5755
86.1477
87.7703
89.4547
91.2046
93.0277
94.9314
96.9074
98.9465
101.033
103.143
105.245
107.294
109.224
110.944
112.289
113.034
91.5539
61.0676
49.1889
48.1179
52.8948
57.7718
61.979
65.6019
68.6951
71.4133
73.8103
75.9187
77.8353
79.5723
81.2079
82.7539
84.3187
85.8814
87.4893
89.1766
90.9484
92.7927
94.7061
96.677
98.6897
100.724
102.751
104.726
106.588
108.245
109.541
110.258
83.699
59.338
48.3558
46.6263
51.0891
55.9356
60.1166
63.7261
66.9214
69.6841
72.0912
74.2439
76.1434
77.8896
79.485
81.0345
82.5109
84.0325
85.6143
87.251
88.9496
90.7236
92.5642
94.4633
96.4056
98.3696
100.324
102.23
104.025
105.623
106.873
107.56
93.6355
60.6614
47.9361
44.9639
48.9837
53.8157
58.1205
61.9056
65.1097
67.9185
70.3933
72.5297
74.464
76.1858
77.7967
79.2775
80.7813
82.2626
83.7678
85.3465
87.008
88.7342
90.5228
92.3624
94.2383
96.1314
98.0164
99.8525
101.583
103.123
104.327
104.986
74.6504
58.5194
47.3109
43.487
46.958
51.7921
56.1072
59.8225
63.1922
66.1009
68.5902
70.8215
72.7546
74.5215
76.0981
77.6315
79.0476
80.4957
82.0013
83.5473
85.1383
86.7971
88.5157
90.2867
92.0972
93.9259
95.7435
97.5143
99.1823
100.668
101.827
102.459
88.9566
60.0844
46.8402
41.6949
44.4658
49.2248
53.723
57.819
61.2126
64.1734
66.8042
69.0257
71.0361
72.7874
74.4243
75.8766
77.3618
78.7985
80.2266
81.7177
83.2895
84.9156
86.595
88.3164
90.066
91.828
93.5798
95.2853
96.8923
98.3228
99.4382
100.042
71.6692
58.2475
46.7383
40.1585
41.9776
46.7725
51.3974
55.2928
58.9712
62.1529
64.8045
67.2026
69.2327
71.085
72.686
74.2565
75.6462
77.0505
78.5123
79.9952
81.4972
83.0558
84.6644
86.3188
88.0068
89.7087
91.3966
93.0397
94.5867
95.9659
97.0382
97.6135
67.9017
54.969
45.3279
38.3754
38.778
43.282
48.1306
52.8814
56.6411
59.8831
62.8182
65.2162
67.394
69.2367
70.9695
72.4321
73.9453
75.3782
76.7556
78.1799
79.6846
81.2299
82.8164
84.4316
86.0651
87.7034
89.3283
90.9077
92.3959
93.7208
94.7507
95.2986
74.8935
57.1055
45.4415
36.4247
35.427
39.8448
45.1843
49.411
53.7269
57.456
60.4219
63.1501
65.3787
67.4182
69.1018
70.7846
72.19
73.5839
75.0399
76.4915
77.924
79.3972
80.9069
82.4553
84.0294
85.6115
87.1755
88.6946
90.124
91.3996
92.3874
92.906
65.1986
54.7676
45.1234
35.1498
30.5952
34.187
39.6481
46.0781
50.6167
54.4602
58.0357
60.7824
63.2964
65.3264
67.2642
68.7868
70.3947
71.8797
73.2375
74.619
76.084
77.5719
79.0847
80.6072
82.1336
83.6538
85.1562
86.6132
87.9852
89.2062
90.1525
90.6445
47.6278
47.4841
41.8366
32.3593
25.9909
27.92
35.2952
40.0792
46.2065
51.2017
54.8184
58.2446
60.8621
63.2748
65.1283
67.0415
68.5182
69.9437
71.4461
72.9098
74.2957
75.6992
77.122
78.5726
80.0406
81.5088
82.9514
84.3485
85.6616
86.8346
87.7382
88.1993
25.3468
36.317
35.5495
29.5148
13.4385
10.0289
20.15
34.582
40.856
46.4135
51.6095
55.093
58.3212
60.7143
63.0545
64.704
66.51
68.129
69.5057
70.8717
72.3336
73.7944
75.2551
76.7044
78.1322
79.5385
80.9202
82.2546
83.5107
84.6273
85.4889
85.9237
5.44882
19.656
20.1356
12.2948
8.13031
15.9118
7.44777
12.2032
32.5358
41.1709
46.3961
51.6011
55.0385
58.2311
60.4037
62.7644
64.389
65.9016
67.5283
69.0671
70.4334
71.7843
73.135
74.4881
75.8568
77.2145
78.5353
79.808
81.0019
82.0709
82.8881
83.288
11.9302
9.93031
8.18624
6.67711
4.94048
15.9851
16.7263
0.667899
21.8645
29.5278
41.1812
46.5542
51.5766
54.7265
57.9045
59.7796
61.9728
63.8619
65.3065
66.6883
68.2004
69.6776
71.1119
72.5198
73.8565
75.1493
76.408
77.6154
78.7515
79.7593
80.5335
80.9073
11.4702
10.3143
7.27204
14.3237
16.0211
17.0878
6.1505
5.89907
6.29266
10.2935
28.4688
40.7135
46.3184
51.4228
54.2109
57.5044
59.3955
61.0769
62.9635
64.6832
66.0639
67.3787
68.6735
69.9192
71.1932
72.4403
73.6329
74.7727
75.8385
76.7977
77.5223
77.8535
4.27301
11.6077
3.83237
16.2339
13.0461
19.3585
19.8611
19.7913
19.9036
10.4081
9.28276
29.3106
40.6369
45.6433
50.9179
53.1764
56.1966
58.6298
60.2113
61.6481
63.3025
64.8717
66.328
67.74
68.9937
70.169
71.2963
72.3657
73.3724
74.2618
74.9415
75.2481
6.6362
16.0101
20.0001
20.8811
16.8477
16.9721
18.2056
23.124
22.4403
21.1219
20.2572
22.9074
27.9481
40.5856
44.6831
50.3584
52.7108
54.7232
57.1727
59.2867
60.7306
62.0253
63.2574
64.3893
65.5708
66.7038
67.7525
68.7409
69.6603
70.4982
71.1179
71.3653
8.00564
18.3474
23.1277
26.6357
28.5935
26.9807
17.1675
18.0144
21.7037
8.5865
15.1289
10.1298
18.8799
26.3882
39.7631
42.5645
47.8627
51.5379
53.3572
54.9163
56.9217
58.746
60.3794
61.8427
63.0293
64.0765
65.0568
65.9676
66.8296
67.5837
68.1578
68.3875
7.81545
18.2733
24.0377
28.2275
30.798
31.9239
31.7503
24.4532
18.8076
4.58727
24.9238
6.14775
21.7276
8.66031
23.1059
39.0515
42.1498
44.9523
48.8929
51.9602
53.5452
54.8309
55.8872
56.9516
58.0456
59.0597
59.934
60.7357
61.4723
62.1713
62.6636
62.7945
7.48027
17.1505
23.198
27.9121
31.3675
33.3952
33.5941
32.7927
26.8949
17.2637
27.2578
26.1959
6.74883
21.3643
3.07403
13.716
32.3792
40.2207
42.5714
44.3126
47.354
49.9453
52.237
53.8254
54.9887
55.8934
56.6993
57.4169
58.1175
58.7064
59.1615
59.3044
6.70577
15.5933
21.572
26.2673
29.8409
32.4243
34.047
34.09
33.0013
28.2098
18.0663
23.7161
27.7653
23.7178
21.8821
22.2587
17.0967
24.2105
33.5743
40.4756
42.2504
43.3212
43.9718
45.0925
46.1247
47.0196
47.6636
48.195
48.6595
49.2027
49.5158
49.4198
5.99757
14.3771
20.0229
24.5053
28.0117
30.6709
32.4532
33.4491
33.2642
32.2336
29.301
14.0558
26.1456
18.0165
9.99986
22.5256
23.5007
24.6109
19.5231
18.2836
28.4879
35.066
38.9337
41.0873
42.5571
43.3442
43.8343
44.351
44.8431
45.2532
45.5357
45.7023
5.24004
13.2394
18.2711
22.2709
25.465
28.0345
30.0165
31.2599
31.8214
31.677
30.9501
31.9392
22.7361
19.8157
27.1692
25.5588
18.636
15.0624
24.4692
7.88876
25.97
28.1049
10.3396
15.1251
14.0239
15.4001
17.2053
14.8847
16.4264
14.8796
16.7257
12.7655
4.6311
12.29
16.0992
19.1975
21.8578
24.1931
26.1429
27.6341
28.5926
29.236
30.07
29.4944
31.3182
26.3503
16.7719
20.7833
17.4119
25.262
6.59279
25.3645
6.15932
17.9264
26.9912
27.6635
20.2053
8.21627
29.4689
21.5024
30.6705
22.2209
31.2206
7.73257
4.29371
12.5053
13.682
15.3223
17.0632
18.9043
20.7495
22.4428
23.9738
25.4636
26.8422
29.1388
29.8005
31.4644
30.2246
17.1098
14.4911
9.42431
16.2632
21.45
26.18
9.05644
20.948
20.0262
6.56458
28.05
20.1499
7.80299
21.9222
7.00192
21.6376
31.9426
3.98529
11.9194
12.1597
12.5728
13.1461
14.0113
15.3176
17.0671
19.069
21.2116
23.6167
25.5022
28.2068
29.9376
31.1969
32.7991
25.4773
26.3732
28.9524
19.8756
10.9033
23.7909
11.6373
16.7755
24.7239
3.40791
30.965
25.8139
9.39505
20.5732
32.1114
27.0778
3.63929
11.4014
11.9277
11.8318
11.9812
12.1987
13.0315
14.6361
16.6115
18.6889
20.738
23.2897
25.3583
27.8132
30.2451
31.1543
32.3193
30.3061
21.044
10.4149
24.3275
5.66396
10.7947
23.1487
5.06393
27.5871
15.709
5.38217
27.4897
17.0028
33.7559
19.9741
3.56446
11.3859
11.5683
11.7467
11.856
12.1194
13.2942
15.1285
16.9737
18.6274
20.2625
21.6995
23.6535
25.5832
27.554
30.2212
31.7459
32.2334
32.6527
29.5387
20.9453
21.5043
31.0054
16.9936
11.9249
29.2506
17.1705
23.3859
22.1083
14.9962
28.7975
34.3507
2.45735
9.16623
11.3638
11.6563
11.7577
11.9836
13.7923
15.9761
17.9008
19.5079
20.8267
22.1484
23.2137
24.4818
26.0968
27.6401
29.8015
31.8495
32.4416
32.5125
32.2603
29.538
27.7639
23.2448
20.3458
19.085
18.0262
17.9763
17.6353
18.152
18.5927
21.1311
2.22314
8.45224
10.7638
11.5449
11.8076
13.1574
15.5208
17.661
19.391
20.801
22.0181
22.9775
23.9141
24.6919
25.4033
26.5825
27.9416
29.5584
31.4348
32.5351
32.4218
31.9676
31.3076
31.0092
30.7582
30.5012
30.141
29.6885
29.4162
29.3824
29.392
29.4181
2.87098
9.70334
11.4883
11.8601
12.8434
15.2258
17.5235
19.4343
21.014
22.3383
23.4354
24.3951
25.1067
25.6725
26.1615
26.4777
27.0874
28.1667
29.4221
30.728
31.6491
31.995
31.415
30.5007
29.3265
28.1047
26.9686
26.1633
25.5065