/*--------------------------------*- C++ -*----------------------------------*\
  =========                 |
  \\      /  F ield         | OpenFOAM: The Open Source CFD Toolbox
   \\    /   O peration     | Website:  https://openfoam.org
    \\  /    A nd           | Version:  6
     \\/     M anipulation  |
\*---------------------------------------------------------------------------*/
FoamFile
{
    version     2.0;
    format      ascii;
    class       volVectorField;
    location    "35";
    object      wallShearStress;
}
// * * * * * * * * * * * * * * * * * * * * * * * * * * * * * * * * * * * * * //

dimensions      [0 2 -2 0 0 0 0];

internalField   uniform (0 0 0);

boundaryField
{
    inlet
    {
        type            calculated;
        value           uniform (0 0 0);
    }
    outlet
    {
        type            calculated;
        value           uniform (0 0 0);
    }
    roughCylinder
    {
        type            calculated;
        value           nonuniform List<vector> 
5120
(
(-0.000250337 -0.000356642 -0.000183769)
(-0.000306852 -0.000460901 -4.20246e-05)
(-0.000340352 -0.000554609 -6.81899e-07)
(-0.000386017 -0.000644548 5.4026e-05)
(-0.000442955 -0.000722614 0.000117208)
(-0.000507616 -0.000784361 0.000180704)
(-0.000576543 -0.000826956 0.000240005)
(-0.000645082 -0.000850827 0.000292344)
(-0.000709168 -0.000858444 0.000335627)
(-0.000766709 -0.000854843 0.000369127)
(-0.000817943 -0.000848283 0.000394332)
(-0.000863172 -0.00084441 0.000413128)
(-0.000899418 -0.000843288 0.00042426)
(-0.000929974 -0.000847641 0.000428848)
(-0.000956141 -0.000856686 0.000427926)
(-0.000979257 -0.000869719 0.000422555)
(-0.00100074 -0.000885955 0.000413785)
(-0.00102183 -0.000904746 0.000402513)
(-0.00104348 -0.000925615 0.000389408)
(-0.00106632 -0.000948263 0.000374896)
(-0.00109071 -0.000972517 0.000359175)
(-0.00111676 -0.000998239 0.000342276)
(-0.00114444 -0.00102531 0.00032409)
(-0.00117357 -0.00105355 0.000304441)
(-0.00120389 -0.00108272 0.000283027)
(-0.00123508 -0.0011125 0.000259556)
(-0.00126661 -0.00114235 0.000233361)
(-0.00129817 -0.00117183 0.000204024)
(-0.00132832 -0.00119955 0.000169875)
(-0.001357 -0.00122519 0.000129962)
(-0.00137944 -0.00124537 8.21815e-05)
(-0.00139278 -0.00125781 2.76007e-05)
(-0.000268816 -0.000344922 -0.000173572)
(-0.000328446 -0.000446439 -4.44971e-05)
(-0.000364532 -0.000538841 -6.44324e-06)
(-0.000412316 -0.000628499 4.48596e-05)
(-0.000470937 -0.000707587 0.000105412)
(-0.000537151 -0.000771133 0.000167119)
(-0.000607479 -0.000815914 0.000225273)
(-0.000677511 -0.000842218 0.000276987)
(-0.000743783 -0.000852894 0.000320275)
(-0.000804732 -0.000853562 0.000354829)
(-0.000860148 -0.000851074 0.000382029)
(-0.00090892 -0.000848782 0.000402673)
(-0.000948003 -0.000846381 0.000414894)
(-0.000980107 -0.000849636 0.000420063)
(-0.00100781 -0.000857973 0.000419459)
(-0.00103236 -0.000870644 0.000414314)
(-0.00105526 -0.000886756 0.000405719)
(-0.00107777 -0.000905556 0.000394619)
(-0.00110088 -0.000926514 0.000381713)
(-0.00112523 -0.000949277 0.000367441)
(-0.00115118 -0.000973636 0.000352019)
(-0.00117886 -0.000999447 0.000335475)
(-0.0012082 -0.00102658 0.000317704)
(-0.00123903 -0.00105485 0.000298521)
(-0.00127105 -0.001084 0.000277618)
(-0.00130394 -0.00111374 0.00025471)
(-0.00133711 -0.00114349 0.000229094)
(-0.00137029 -0.00117286 0.000200402)
(-0.00140188 -0.00120041 0.000166877)
(-0.00143206 -0.00122598 0.000127678)
(-0.00145556 -0.00124603 8.07621e-05)
(-0.0014696 -0.0012584 2.7089e-05)
(-0.000287243 -0.000328149 -0.000156187)
(-0.000349637 -0.000426664 -4.74877e-05)
(-0.000388104 -0.000516998 -1.28677e-05)
(-0.000437598 -0.000605694 3.48252e-05)
(-0.000497592 -0.000685259 9.2454e-05)
(-0.000565187 -0.000750349 0.000152127)
(-0.000636971 -0.000797451 0.000209054)
(-0.000708843 -0.00082682 0.000260296)
(-0.000777838 -0.000841478 0.000304025)
(-0.000842487 -0.000846739 0.000340003)
(-0.000901804 -0.000847883 0.000368993)
(-0.000953838 -0.000847099 0.000390921)
(-0.000996485 -0.000844726 0.000404441)
(-0.00103026 -0.000846444 0.000410134)
(-0.00105952 -0.000853891 0.00040984)
(-0.0010856 -0.000866027 0.000404964)
(-0.00111 -0.000881843 0.0003966)
(-0.00113402 -0.000900498 0.00038573)
(-0.00115864 -0.000921378 0.000373077)
(-0.00118455 -0.000944087 0.000359111)
(-0.00121211 -0.000968387 0.000344048)
(-0.00124143 -0.000994114 0.000327921)
(-0.00127246 -0.00102112 0.000310624)
(-0.00130498 -0.00104922 0.00029197)
(-0.0013387 -0.00107816 0.000271638)
(-0.00137327 -0.00110764 0.000249356)
(-0.00140806 -0.00113709 0.000224381)
(-0.00144283 -0.00116615 0.000196403)
(-0.0014758 -0.00119332 0.000163558)
(-0.00150746 -0.00121864 0.000125142)
(-0.00153199 -0.00123841 7.91896e-05)
(-0.00154672 -0.00125064 2.65229e-05)
(-0.000303485 -0.000307303 -0.000134257)
(-0.000368246 -0.000402329 -5.05445e-05)
(-0.000408669 -0.000489865 -1.95388e-05)
(-0.000459296 -0.000576963 2.43562e-05)
(-0.000520235 -0.00065652 7.8788e-05)
(-0.000589012 -0.000722974 0.000136155)
(-0.000662342 -0.000772602 0.000191692)
(-0.000736396 -0.000805555 0.000242469)
(-0.000808435 -0.000824728 0.000286781)
(-0.000876778 -0.000834632 0.000324242)
(-0.000939809 -0.000839151 0.000354889)
(-0.000995287 -0.000840067 0.000378027)
(-0.00104161 -0.000838607 0.000392842)
(-0.00107796 -0.00083876 0.000399217)
(-0.00110891 -0.000845233 0.000399363)
(-0.00113667 -0.000856665 0.000394808)
(-0.00116267 -0.000872049 0.000386745)
(-0.00118825 -0.000890427 0.000376171)
(-0.00121446 -0.000911119 0.000363844)
(-0.00124196 -0.000933658 0.000350239)
(-0.00127113 -0.000957765 0.000335589)
(-0.00130209 -0.00098327 0.000319931)
(-0.00133475 -0.00101 0.000303157)
(-0.00136892 -0.00103778 0.00028508)
(-0.00140426 -0.00106635 0.000265365)
(-0.00144043 -0.0010954 0.000243751)
(-0.00147673 -0.00112438 0.000219451)
(-0.00151298 -0.00115295 0.000192226)
(-0.00154721 -0.00117959 0.000160084)
(-0.00158032 -0.00120453 0.000122481)
(-0.0016058 -0.0012239 7.75443e-05)
(-0.00162118 -0.00123592 2.59295e-05)
(-0.000316824 -0.00028306 -0.000110074)
(-0.000383531 -0.000374041 -5.33387e-05)
(-0.000425403 -0.00045813 -2.61155e-05)
(-0.000476576 -0.000543004 1.38053e-05)
(-0.000538026 -0.000622043 6.47503e-05)
(-0.000607798 -0.000689651 0.000119488)
(-0.000682765 -0.000741931 0.000173401)
(-0.000759276 -0.000778757 0.00022363)
(-0.000834537 -0.000802539 0.00026848)
(-0.000906473 -0.000816824 0.000307279)
(-0.000973059 -0.00082446 0.000339442)
(-0.00103206 -0.000827154 0.000363834)
(-0.00108192 -0.000826804 0.000379752)
(-0.00112215 -0.00082655 0.000387279)
(-0.00115505 -0.000831483 0.000387997)
(-0.00118461 -0.000841996 0.000383866)
(-0.00121232 -0.000856766 0.000376192)
(-0.00123956 -0.000874717 0.000365999)
(-0.00126735 -0.000895054 0.000354062)
(-0.00129644 -0.000917269 0.000340886)
(-0.0013272 -0.000941035 0.000326711)
(-0.00135974 -0.000966156 0.000311579)
(-0.00139399 -0.000992454 0.000295382)
(-0.00142972 -0.00101974 0.000277928)
(-0.00146659 -0.00104776 0.000258872)
(-0.00150423 -0.0010762 0.000237965)
(-0.0015419 -0.00110453 0.000214372)
(-0.00157951 -0.00113245 0.000187937)
(-0.00161485 -0.00115838 0.000156505)
(-0.00164932 -0.00118277 0.000119729)
(-0.00167566 -0.00120162 7.585e-05)
(-0.00169162 -0.00121335 2.53164e-05)
(-0.000326787 -0.000256397 -8.52361e-05)
(-0.00039495 -0.000342802 -5.56924e-05)
(-0.000437716 -0.000422871 -3.23807e-05)
(-0.000488825 -0.000504939 3.39066e-06)
(-0.000550323 -0.000582962 5.05431e-05)
(-0.000620877 -0.000651487 0.000102296)
(-0.000697518 -0.000706423 0.000154296)
(-0.000776615 -0.000747163 0.00020379)
(-0.000855169 -0.000775385 0.000249032)
(-0.000930693 -0.000793676 0.000288976)
(-0.00100087 -0.00080419 0.000322503)
(-0.00106351 -0.000808681 0.000348176)
(-0.00111711 -0.000809488 0.000365208)
(-0.00116145 -0.000809672 0.00037399)
(-0.00119743 -0.000812999 0.000375596)
(-0.00122899 -0.000822367 0.000372083)
(-0.00125856 -0.000836243 0.000364906)
(-0.00128753 -0.000853522 0.000355192)
(-0.00131699 -0.000873343 0.000343748)
(-0.00134768 -0.000895069 0.000331076)
(-0.00138001 -0.000918337 0.000317445)
(-0.00141409 -0.00094291 0.000302899)
(-0.00144983 -0.000968602 0.000287329)
(-0.00148701 -0.000995213 0.000270548)
(-0.00152526 -0.00102249 0.00025219)
(-0.00156424 -0.00105015 0.00023203)
(-0.00160312 -0.00107764 0.000209171)
(-0.0016419 -0.00110472 0.000183551)
(-0.00167814 -0.00112979 0.000152833)
(-0.00171392 -0.00115349 0.000116895)
(-0.001741 -0.0011717 7.41135e-05)
(-0.00175749 -0.00118307 2.46857e-05)
(-0.000332708 -0.000228086 -6.08633e-05)
(-0.000401794 -0.000309447 -5.74925e-05)
(-0.000444857 -0.000384966 -3.81503e-05)
(-0.000495247 -0.000463637 -6.69574e-06)
(-0.000556227 -0.000540083 3.6321e-05)
(-0.000627209 -0.000609157 8.46663e-05)
(-0.00070542 -0.000666602 0.000134383)
(-0.000787148 -0.000711161 0.00018287)
(-0.000869063 -0.0007436 0.000228273)
(-0.000948263 -0.000765582 0.000269129)
(-0.00102218 -0.000778804 0.000303869)
(-0.00108866 -0.000785132 0.000330845)
(-0.00114624 -0.000787155 0.000349134)
(-0.00119471 -0.000788067 0.000359134)
(-0.00123506 -0.000790946 0.000362063)
(-0.00126911 -0.000798349 0.000359351)
(-0.00130072 -0.000811095 0.000352844)
(-0.0013316 -0.000827533 0.000343744)
(-0.00136276 -0.000846594 0.000332878)
(-0.00139506 -0.000867639 0.0003208)
(-0.00142892 -0.000890234 0.000307789)
(-0.00146447 -0.000914101 0.000293897)
(-0.00150162 -0.000939031 0.000279016)
(-0.00154015 -0.00096482 0.000262959)
(-0.00157965 -0.000991222 0.000245343)
(-0.00161981 -0.00101795 0.000225969)
(-0.00165971 -0.00104446 0.000203871)
(-0.0016995 -0.00107056 0.000179101)
(-0.00173641 -0.00109459 0.000149087)
(-0.00177341 -0.00111746 0.000113986)
(-0.00180113 -0.00113494 7.23426e-05)
(-0.00181806 -0.00114588 2.40404e-05)
(-0.000334067 -0.000198797 -3.78137e-05)
(-0.000403441 -0.000274676 -5.86664e-05)
(-0.00044618 -0.000345167 -4.32789e-05)
(-0.000495161 -0.000419865 -1.62771e-05)
(-0.00055499 -0.000494148 2.22761e-05)
(-0.000625968 -0.000563319 6.67673e-05)
(-0.000705513 -0.000622979 0.000113755)
(-0.000789745 -0.00067107 0.000160851)
(-0.000874968 -0.000707389 0.000206057)
(-0.000957934 -0.000732811 0.000247539)
(-0.00103583 -0.000748659 0.000283344)
(-0.00110641 -0.000756864 0.000311619)
(-0.00116825 -0.000760196 0.000331329)
(-0.00122099 -0.000761847 0.000342698)
(-0.00126557 -0.000764827 0.000346941)
(-0.00130378 -0.000771196 0.000345528)
(-0.00133788 -0.000782121 0.000339911)
(-0.00137078 -0.000797087 0.000331549)
(-0.00140378 -0.000815243 0.000321427)
(-0.00143776 -0.000835447 0.000310054)
(-0.00147314 -0.000857206 0.00029775)
(-0.00151008 -0.000880206 0.000284586)
(-0.00154853 -0.00090422 0.000270456)
(-0.00158823 -0.000929028 0.000255174)
(-0.00162879 -0.000954385 0.000238341)
(-0.00166991 -0.000980018 0.000219792)
(-0.0017106 -0.00100544 0.000198483)
(-0.00175113 -0.00103049 0.000174595)
(-0.00178846 -0.00105348 0.000145272)
(-0.00182659 -0.00107536 0.000111001)
(-0.00185479 -0.00109201 7.05391e-05)
(-0.00187211 -0.00110253 2.33809e-05)
(-0.00033019 -0.000169009 -1.67091e-05)
(-0.000399268 -0.0002391 -5.91272e-05)
(-0.000441066 -0.000304156 -4.76345e-05)
(-0.00048791 -0.000374313 -2.51534e-05)
(-0.000545796 -0.000445726 8.62976e-06)
(-0.00061608 -0.000514322 4.87897e-05)
(-0.000696515 -0.000575679 9.25138e-05)
(-0.000783079 -0.000626969 0.000137712)
(-0.000871667 -0.000666965 0.000182295)
(-0.000958558 -0.000695679 0.000224069)
(-0.00104068 -0.000714108 0.00026075)
(-0.0011157 -0.000724251 0.000290304)
(-0.00118207 -0.000728937 0.000311546)
(-0.00123939 -0.000731414 0.000324516)
(-0.00128832 -0.000734559 0.000330244)
(-0.00133057 -0.000740459 0.000330208)
(-0.00136836 -0.000750143 0.000325849)
(-0.0014043 -0.000763836 0.000318657)
(-0.00143917 -0.000780517 0.000309415)
(-0.0014748 -0.000799535 0.000298851)
(-0.00151166 -0.000820257 0.000287359)
(-0.00154992 -0.00084226 0.00027501)
(-0.00158952 -0.000865275 0.000261704)
(-0.00163025 -0.000889065 0.000247261)
(-0.00167168 -0.000913372 0.000231263)
(-0.00171354 -0.000937933 0.000213583)
(-0.00175467 -0.000962207 0.000193076)
(-0.00179555 -0.000986059 0.000170081)
(-0.00183277 -0.00100783 0.000141397)
(-0.00187206 -0.00102866 0.000107947)
(-0.00190055 -0.00104442 6.87109e-05)
(-0.00191805 -0.00105442 2.27081e-05)
(-0.000321006 -0.000139676 1.85862e-06)
(-0.000388923 -0.000203283 -5.90335e-05)
(-0.000429107 -0.000262829 -5.11058e-05)
(-0.000473121 -0.000327862 -3.31168e-05)
(-0.000528218 -0.000395676 -4.32109e-06)
(-0.000597053 -0.000462958 3.10497e-05)
(-0.000677847 -0.000525421 7.09159e-05)
(-0.000766373 -0.00057942 0.000113597)
(-0.000858078 -0.000622695 0.000156981)
(-0.00094895 -0.000654542 0.000198624)
(-0.00103559 -0.000675574 0.000235949)
(-0.00111536 -0.000687674 0.000266707)
(-0.00118665 -0.00069378 0.000289566)
(-0.0012488 -0.000697069 0.00030432)
(-0.00130235 -0.000700428 0.000311793)
(-0.00134876 -0.000705922 0.000313331)
(-0.00139029 -0.000714778 0.000310441)
(-0.00142919 -0.000727326 0.000304547)
(-0.0014666 -0.000742634 0.000296455)
(-0.00150422 -0.000760407 0.000286944)
(-0.00154261 -0.000779926 0.000276417)
(-0.00158204 -0.000800754 0.000264987)
(-0.00162252 -0.000822573 0.000252572)
(-0.00166387 -0.000845141 0.000239014)
(-0.00170568 -0.000868182 0.000223877)
(-0.00174773 -0.000891447 0.000207084)
(-0.00178885 -0.000914379 0.000187397)
(-0.00182968 -0.000936824 0.000165336)
(-0.00186645 -0.000957242 0.000137292)
(-0.00190673 -0.000976935 0.000104682)
(-0.00193531 -0.000991713 6.67684e-05)
(-0.0019529 -0.0010011 2.19932e-05)
(-0.000304054 -0.000110515 1.74725e-05)
(-0.000372727 -0.000168302 -5.81169e-05)
(-0.00040997 -0.000221858 -5.36918e-05)
(-0.000450293 -0.00028122 -3.99455e-05)
(-0.000501592 -0.000344613 -1.62359e-05)
(-0.000567853 -0.000409557 1.39059e-05)
(-0.00064806 -0.000472208 4.92259e-05)
(-0.000738088 -0.000528391 8.86394e-05)
(-0.00083298 -0.00057484 0.000130176)
(-0.000928033 -0.00060985 0.000171189)
(-0.00101945 -0.000633549 0.000208856)
(-0.00110446 -0.000647757 0.00024074)
(-0.00118101 -0.000655268 0.000265241)
(-0.00124838 -0.000659364 0.000281941)
(-0.00130682 -0.000662902 0.000291388)
(-0.00135773 -0.000668039 0.000294794)
(-0.00140307 -0.000676043 0.000293583)
(-0.0014451 -0.000687434 0.000289172)
(-0.00148502 -0.000701406 0.000282404)
(-0.00152453 -0.000717813 0.000274098)
(-0.00156437 -0.000735988 0.000264681)
(-0.00160487 -0.000755459 0.000254292)
(-0.00164607 -0.000775906 0.00024287)
(-0.00168784 -0.000797054 0.000230278)
(-0.00172981 -0.000818654 0.00021607)
(-0.00177182 -0.000840439 0.000200227)
(-0.00181255 -0.000861838 0.000181401)
(-0.00185309 -0.000882803 0.00016035)
(-0.00188888 -0.000901724 0.000132932)
(-0.00193015 -0.000920228 0.00010119)
(-0.00195862 -0.000933956 6.47045e-05)
(-0.00197619 -0.00094267 2.12334e-05)
(-0.000280266 -8.25311e-05 3.00828e-05)
(-0.00035001 -0.000135037 -5.63506e-05)
(-0.000383961 -0.000182207 -5.52513e-05)
(-0.00041956 -0.000235443 -4.54068e-05)
(-0.000465938 -0.000293571 -2.67035e-05)
(-0.000528507 -0.000355162 -2.10489e-06)
(-0.00060727 -0.000417125 2.79935e-05)
(-0.000698096 -0.000474808 6.3279e-05)
(-0.000795512 -0.000523888 0.000102114)
(-0.000894599 -0.000561933 0.000141837)
(-0.000991119 -0.000588484 0.000179448)
(-0.00108155 -0.000604843 0.000212234)
(-0.00116386 -0.000613876 0.000238397)
(-0.00123686 -0.000618757 0.000257171)
(-0.00130068 -0.000622454 0.000268842)
(-0.00135632 -0.000627133 0.000274369)
(-0.00140584 -0.000634297 0.000275133)
(-0.00145113 -0.000644425 0.000272438)
(-0.0014937 -0.000657009 0.000267216)
(-0.00153526 -0.000671984 0.000260312)
(-0.00157652 -0.000688676 0.000252156)
(-0.00161796 -0.000706643 0.000242935)
(-0.00165969 -0.000725555 0.00023261)
(-0.00170163 -0.000745142 0.000221074)
(-0.00174341 -0.000765132 0.000207855)
(-0.00178497 -0.000785277 0.000193022)
(-0.00182502 -0.000805055 0.000175117)
(-0.00186472 -0.000824368 0.000155132)
(-0.00189918 -0.000841788 0.000128329)
(-0.00194121 -0.000858935 9.74541e-05)
(-0.00196936 -0.00087155 6.25148e-05)
(-0.0019868 -0.000879557 2.04282e-05)
(-0.000249539 -5.67038e-05 3.95001e-05)
(-0.000319629 -0.000103633 -5.35827e-05)
(-0.000350613 -0.000144544 -5.5581e-05)
(-0.000381083 -0.000191444 -4.92269e-05)
(-0.000421506 -0.000243542 -3.52915e-05)
(-0.000478762 -0.000300451 -1.63873e-05)
(-0.000554252 -0.000360202 7.82493e-06)
(-0.000644774 -0.000418442 3.80084e-05)
(-0.000744752 -0.000470129 7.31993e-05)
(-0.000848019 -0.000511371 0.000110857)
(-0.000949601 -0.000540843 0.000147842)
(-0.0010461 -0.000559737 0.000181303)
(-0.00113455 -0.000570398 0.000209045)
(-0.00121361 -0.000576072 0.000229984)
(-0.00128299 -0.000579762 0.000244044)
(-0.00134386 -0.000583948 0.000251998)
(-0.00139772 -0.000590093 0.000254998)
(-0.00144661 -0.000598895 0.000254316)
(-0.00149194 -0.000609964 0.000250879)
(-0.00153542 -0.00062331 0.00024555)
(-0.00157803 -0.000638363 0.00023882)
(-0.0016203 -0.000654696 0.00023091)
(-0.00166237 -0.000671959 0.000221801)
(-0.00170421 -0.000689862 0.000211413)
(-0.00174554 -0.000708172 0.000199267)
(-0.0017864 -0.000726623 0.000185518)
(-0.00182522 -0.000744664 0.000168573)
(-0.00186382 -0.000762341 0.000149742)
(-0.00189613 -0.000778132 0.000123491)
(-0.00193919 -0.000793947 9.34899e-05)
(-0.00196681 -0.000805421 6.02169e-05)
(-0.00198397 -0.000812668 1.95842e-05)
(-0.000213352 -3.41381e-05 4.56366e-05)
(-0.000282147 -7.49e-05 -4.9853e-05)
(-0.000310328 -0.000109735 -5.46543e-05)
(-0.00033516 -0.000150014 -5.12244e-05)
(-0.000368368 -0.000195193 -4.15242e-05)
(-0.000418833 -0.000246174 -2.81432e-05)
(-0.000490085 -0.000302703 -1.03089e-05)
(-0.000579194 -0.000360553 1.37493e-05)
(-0.000680027 -0.000413801 4.40813e-05)
(-0.000786834 -0.000458045 7.86465e-05)
(-0.000894075 -0.000491007 0.000114344)
(-0.000996533 -0.000512548 0.00014797)
(-0.00109151 -0.000525099 0.000177108)
(-0.0011771 -0.000531722 0.00020025)
(-0.0012529 -0.000535591 0.000216952)
(-0.00131919 -0.000539113 0.000227561)
(-0.00137783 -0.00054416 0.000233118)
(-0.00143041 -0.000551436 0.000234721)
(-0.00147868 -0.00056088 0.000233342)
(-0.00152435 -0.000572547 0.000229849)
(-0.00156835 -0.000585867 0.000224743)
(-0.00161128 -0.000600441 0.000218292)
(-0.00165344 -0.000615943 0.000210513)
(-0.00169488 -0.000632089 0.000201368)
(-0.00173529 -0.000648601 0.000190347)
(-0.00177488 -0.000665244 0.000177727)
(-0.00181221 -0.000681583 0.000161809)
(-0.00184898 -0.000697513 0.000144183)
(-0.0018789 -0.000711864 0.000118443)
(-0.00192257 -0.000726097 8.92697e-05)
(-0.00194941 -0.000736384 5.77993e-05)
(-0.0019662 -0.000742884 1.86991e-05)
(-0.000171761 -1.56743e-05 4.82517e-05)
(-0.000237349 -4.96048e-05 -4.48742e-05)
(-0.000263487 -7.86889e-05 -5.22019e-05)
(-0.000283753 -0.000112744 -5.11862e-05)
(-0.000310148 -0.000151053 -4.5045e-05)
(-0.000352438 -0.000195064 -3.68091e-05)
(-0.0004154 -0.000245501 -2.5536e-05)
(-0.000500239 -0.00030091 -8.4164e-06)
(-0.000602106 -0.000355691 1.58653e-05)
(-0.0007123 -0.000403029 4.61278e-05)
(-0.000823947 -0.000439166 7.949e-05)
(-0.000933015 -0.000464049 0.000112738)
(-0.00103495 -0.000478925 0.00014296)
(-0.00112744 -0.000486732 0.000168216)
(-0.00120935 -0.000490595 0.000187552)
(-0.00128167 -0.000493531 0.000201089)
(-0.00134528 -0.000497339 0.000209469)
(-0.00140203 -0.000503051 0.000213696)
(-0.00145338 -0.000510734 0.000214649)
(-0.00150103 -0.000520495 0.000213189)
(-0.00154623 -0.00053193 0.000209888)
(-0.0015897 -0.000544665 0.00020506)
(-0.00163173 -0.000558354 0.00019874)
(-0.00167244 -0.000572688 0.000190934)
(-0.00171169 -0.000587449 0.000181119)
(-0.00174983 -0.000602358 0.000169711)
(-0.00178493 -0.000616924 0.000154842)
(-0.00181964 -0.000631259 0.000138521)
(-0.00184579 -0.000644024 0.000113153)
(-0.00189085 -0.000656838 8.48049e-05)
(-0.00191674 -0.000665966 5.52803e-05)
(-0.00193295 -0.000671694 1.77797e-05)
(-0.000127264 -8.1024e-07 4.83229e-05)
(-0.000187242 -2.75833e-05 -3.89379e-05)
(-0.000211288 -5.07951e-05 -4.85338e-05)
(-0.000226017 -7.79919e-05 -4.95201e-05)
(-0.000241915 -0.000107804 -4.59954e-05)
(-0.000271226 -0.00014281 -4.0852e-05)
(-0.000330059 -0.000188261 -3.52393e-05)
(-0.000411422 -0.000240617 -2.65923e-05)
(-0.000509802 -0.000294556 -1.00762e-05)
(-0.000621626 -0.000344597 1.44344e-05)
(-0.00073939 -0.000385421 4.43247e-05)
(-0.000854422 -0.000413947 7.61843e-05)
(-0.000963213 -0.00043163 0.000106889)
(-0.00106277 -0.000441055 0.000133977)
(-0.00115218 -0.000445626 0.000156082)
(-0.00123057 -0.000447991 0.000172651)
(-0.0012995 -0.000450585 0.000184114)
(-0.0013603 -0.000454555 0.000191193)
(-0.00141482 -0.00046037 0.000194748)
(-0.00146482 -0.000468247 0.000195615)
(-0.00151135 -0.000477785 0.000194347)
(-0.00155516 -0.000488617 0.000191298)
(-0.00159676 -0.000500448 0.000186555)
(-0.0016364 -0.000512976 0.000180181)
(-0.00167385 -0.000525941 0.000171608)
(-0.00170978 -0.000539051 0.000161433)
(-0.00174247 -0.00055203 0.000147694)
(-0.00177416 -0.000564721 0.000132733)
(-0.00179673 -0.000576377 0.000107678)
(-0.00184226 -0.000587347 8.00396e-05)
(-0.00186696 -0.000595318 5.26329e-05)
(-0.00188248 -0.000600324 1.68203e-05)
(-8.14354e-05 7.47042e-06 4.42995e-05)
(-0.000132971 -1.16631e-05 -3.08358e-05)
(-0.000155319 -2.93344e-05 -4.09541e-05)
(-0.000171126 -5.14235e-05 -4.04049e-05)
(-0.000191994 -7.33125e-05 -3.48998e-05)
(-0.000226719 -9.89348e-05 -4.07809e-05)
(-0.000251236 -0.000132124 -4.89085e-05)
(-0.000312377 -0.000179358 -4.27205e-05)
(-0.00040912 -0.000233811 -3.21013e-05)
(-0.000521368 -0.000285659 -1.47898e-05)
(-0.000640179 -0.000329279 1.01426e-05)
(-0.00076153 -0.000362472 3.95657e-05)
(-0.000877534 -0.000383887 6.98999e-05)
(-0.00098467 -0.000395737 9.8331e-05)
(-0.00108022 -0.000400907 0.000122784)
(-0.00116513 -0.000403104 0.00014243)
(-0.00123953 -0.000404615 0.000157118)
(-0.00130504 -0.000407055 0.000167351)
(-0.00136293 -0.000411021 0.000173767)
(-0.00141486 -0.000416843 0.000177135)
(-0.0014623 -0.000424357 0.000178057)
(-0.00150629 -0.000433282 0.000176954)
(-0.0015472 -0.000443292 0.000173917)
(-0.00158538 -0.000454058 0.000169067)
(-0.00162085 -0.000465378 0.000161816)
(-0.0016545 -0.000476894 0.000152957)
(-0.00168387 -0.000488274 0.000140364)
(-0.00171233 -0.000499596 0.000126886)
(-0.00172896 -0.000509885 0.000101899)
(-0.00177678 -0.000519432 7.49848e-05)
(-0.00180008 -0.000526283 4.98748e-05)
(-0.0018147 -0.000530593 1.58287e-05)
(-4.32774e-05 1.42512e-05 4.29214e-05)
(-8.38007e-05 1.26704e-06 -2.43457e-05)
(-0.000110326 -1.20607e-05 -3.95092e-05)
(-0.00011584 -2.84051e-05 -5.46964e-05)
(-0.000109672 -5.39025e-05 -6.23249e-05)
(-9.58933e-05 -8.3598e-05 -3.32053e-05)
(-0.000156714 -0.000100156 -1.21393e-05)
(-0.000234792 -0.000126202 -3.67695e-05)
(-0.000298155 -0.000167145 -4.64552e-05)
(-0.000406039 -0.000221638 -3.82766e-05)
(-0.000530715 -0.000271303 -2.04274e-05)
(-0.000655512 -0.000309109 4.5109e-06)
(-0.000777479 -0.000335019 3.3149e-05)
(-0.000890987 -0.000349844 6.19343e-05)
(-0.000994705 -0.000357161 8.84345e-05)
(-0.0010859 -0.000359626 0.00011091)
(-0.00116584 -0.000360397 0.00012883)
(-0.00123533 -0.000361272 0.000142249)
(-0.00129635 -0.000363421 0.000151688)
(-0.00135065 -0.000367393 0.000157818)
(-0.0013993 -0.000373046 0.00016116)
(-0.00144318 -0.000380096 0.00016214)
(-0.00148301 -0.000388323 0.000160913)
(-0.00151932 -0.000397419 0.000157671)
(-0.001552 -0.000407118 0.000151744)
(-0.00158245 -0.000417029 0.000144198)
(-0.00160839 -0.000427087 0.000132848)
(-0.00163242 -0.000437062 0.000120914)
(-0.0016443 -0.000446824 9.59474e-05)
(-0.00169237 -0.000454239 6.95462e-05)
(-0.00171423 -0.00046005 4.69604e-05)
(-0.00172771 -0.000463725 1.47942e-05)
(-1.43929e-05 1.24365e-05 2.62588e-05)
(-2.56467e-05 4.84798e-06 -2.35546e-05)
(-3.07264e-05 -9.9668e-06 -3.20897e-05)
(-4.75915e-05 -2.06415e-05 -3.0024e-05)
(-4.74411e-05 -2.73377e-05 -4.00516e-05)
(-3.12135e-05 -3.33752e-05 -2.4497e-05)
(-5.38316e-05 -4.02243e-05 -2.5344e-05)
(-0.000100618 -9.63424e-05 -3.03216e-05)
(-0.000200713 -0.000117145 -1.90743e-05)
(-0.00029225 -0.000156255 -5.14862e-05)
(-0.00040647 -0.00020876 -4.40422e-05)
(-0.000536609 -0.00025359 -2.5685e-05)
(-0.000664082 -0.000284591 -1.20588e-06)
(-0.000785388 -0.000304198 2.6431e-05)
(-0.000894242 -0.000313665 5.38025e-05)
(-0.00099179 -0.000317352 7.86114e-05)
(-0.00107707 -0.000317984 9.95202e-05)
(-0.00115153 -0.000318033 0.000116218)
(-0.00121596 -0.000318734 0.000128805)
(-0.00127182 -0.000320858 0.000137756)
(-0.00132084 -0.000324622 0.000143582)
(-0.00136437 -0.000329922 0.000146771)
(-0.00140285 -0.00033652 0.000147463)
(-0.00143684 -0.000344073 0.000145898)
(-0.0014666 -0.00035241 0.000141357)
(-0.00149389 -0.000360992 0.000135193)
(-0.00151549 -0.000369784 0.000125115)
(-0.00153502 -0.000378784 0.000114882)
(-0.00153818 -0.000387454 8.955e-05)
(-0.00159016 -0.000393614 6.37489e-05)
(-0.00161015 -0.000398374 4.39042e-05)
(-0.00162247 -0.000401542 1.37288e-05)
(1.28192e-05 4.99241e-06 1.17697e-05)
(-1.01316e-06 -1.9642e-06 -9.90337e-06)
(-1.22565e-06 -6.04994e-06 -7.35914e-06)
(-8.99347e-06 -3.60388e-06 -1.96352e-06)
(-2.47711e-05 2.47012e-06 -5.85872e-06)
(-3.96717e-05 6.41142e-06 -3.07785e-05)
(-5.16941e-05 -2.45454e-05 -4.70461e-05)
(-5.32294e-05 -4.4591e-05 -3.31406e-05)
(-6.66482e-05 -4.99536e-05 -2.20968e-05)
(-0.000177876 -9.79073e-05 -4.55546e-05)
(-0.000288594 -0.000145998 -5.74431e-05)
(-0.000407108 -0.000193438 -4.92973e-05)
(-0.000540878 -0.000232875 -3.09649e-05)
(-0.000666163 -0.000257065 -6.57807e-06)
(-0.000782962 -0.000271138 2.05064e-05)
(-0.000885794 -0.00027687 4.66772e-05)
(-0.000976035 -0.000278199 7.00479e-05)
(-0.00105354 -0.000277608 8.96206e-05)
(-0.00112042 -0.000277168 0.000105222)
(-0.00117836 -0.000277984 0.000117108)
(-0.00122822 -0.0002803 0.000125563)
(-0.00127102 -0.000284038 0.000131026)
(-0.00130757 -0.000289147 0.000133684)
(-0.00133882 -0.000295353 0.000133848)
(-0.00136474 -0.000302412 0.000130642)
(-0.00138794 -0.000309698 0.00012582)
(-0.00140507 -0.000317481 0.000117122)
(-0.00141851 -0.000325503 0.000108639)
(-0.00141608 -0.000334251 8.29784e-05)
(-0.00146786 -0.000338125 5.74524e-05)
(-0.00148645 -0.000342032 4.06424e-05)
(-0.00149697 -0.000344711 1.26134e-05)
(2.03243e-05 4.86121e-06 1.81084e-05)
(2.19421e-05 -7.94052e-07 1.0245e-05)
(8.46443e-06 1.32018e-05 1.42409e-06)
(6.44532e-06 3.19943e-06 -1.56016e-05)
(-5.3922e-06 -2.13184e-06 -4.27989e-06)
(-1.80101e-05 4.37007e-07 -1.42351e-05)
(-1.49167e-05 -8.66542e-06 -1.29757e-05)
(-2.52739e-05 1.44392e-06 -2.09244e-05)
(-2.11699e-05 -1.97161e-05 -2.90256e-05)
(-7.34308e-05 -5.34488e-05 -3.40361e-05)
(-0.000160534 -8.42764e-05 -4.57355e-05)
(-0.000295498 -0.00013319 -5.93437e-05)
(-0.000408072 -0.000175758 -5.60423e-05)
(-0.000538592 -0.000209116 -3.50289e-05)
(-0.000657895 -0.000227276 -9.91018e-06)
(-0.000766055 -0.000236725 1.62723e-05)
(-0.000860446 -0.00023985 4.10814e-05)
(-0.000942594 -0.000240131 6.31222e-05)
(-0.00101235 -0.000239446 8.15198e-05)
(-0.00107079 -0.0002392 9.61132e-05)
(-0.00112002 -0.000240226 0.000107047)
(-0.00116169 -0.000242697 0.000114784)
(-0.00119611 -0.000246624 0.000119448)
(-0.00122408 -0.000251689 0.000121353)
(-0.0012461 -0.00025777 0.000119488)
(-0.00126537 -0.000264021 0.000116035)
(-0.00127744 -0.000270868 0.000108789)
(-0.00128529 -0.000278357 0.000102248)
(-0.00127106 -0.00028593 7.57305e-05)
(-0.00132897 -0.000289154 5.07366e-05)
(-0.00134535 -0.000292111 3.71891e-05)
(-0.00135452 -0.000294596 1.14711e-05)
(3.12836e-05 1.09506e-05 3.32053e-05)
(4.0167e-05 8.22394e-06 -7.18202e-06)
(3.68334e-05 8.6104e-07 -1.24615e-05)
(3.88384e-05 -4.88152e-06 -1.5252e-05)
(3.15297e-05 -1.24367e-05 -1.45404e-05)
(1.95133e-05 -1.62538e-05 -1.31712e-05)
(9.64966e-06 -1.3231e-05 -1.15667e-05)
(-8.18078e-06 -9.80803e-06 -1.48695e-05)
(-1.4148e-05 -1.21e-05 -3.35307e-05)
(-2.97501e-05 -2.88041e-05 -3.72209e-05)
(-7.0397e-05 -4.38003e-05 -4.50941e-05)
(-0.000134411 -8.83802e-05 -5.05272e-05)
(-0.000280041 -0.000127752 -5.15864e-05)
(-0.000406287 -0.000156903 -5.42056e-05)
(-0.000530693 -0.000184089 -3.53706e-05)
(-0.000640063 -0.000197739 -1.08844e-05)
(-0.000737393 -0.000203809 1.40726e-05)
(-0.000820057 -0.000205147 3.75109e-05)
(-0.000890491 -0.000204783 5.80404e-05)
(-0.000950298 -0.000204518 7.51357e-05)
(-0.000999566 -0.000205034 8.84586e-05)
(-0.00103959 -0.000206605 9.83583e-05)
(-0.00107104 -0.000209562 0.000104942)
(-0.00109534 -0.000213771 0.000108566)
(-0.00111255 -0.000218972 0.000107905)
(-0.00112717 -0.000224203 0.000105716)
(-0.00113397 -0.000230185 0.000100021)
(-0.00113398 -0.000236856 9.5388e-05)
(-0.00111445 -0.00024468 6.83064e-05)
(-0.00117099 -0.000245881 4.34222e-05)
(-0.0011862 -0.000248235 3.34527e-05)
(-0.00119277 -0.000250476 1.02678e-05)
(4.34237e-05 1.40056e-05 4.26978e-05)
(5.97586e-05 1.11846e-05 -8.05496e-06)
(6.5927e-05 7.54877e-06 -1.61276e-05)
(6.78946e-05 2.06005e-07 -2.08362e-05)
(6.58336e-05 -8.45619e-06 -2.2935e-05)
(5.9732e-05 -1.65971e-05 -2.31225e-05)
(4.98462e-05 -2.23402e-05 -2.18992e-05)
(3.52657e-05 -2.4992e-05 -2.09323e-05)
(2.05159e-05 -2.22043e-05 -1.96826e-05)
(2.39951e-06 -1.37164e-05 -1.83696e-05)
(-2.0879e-05 -1.7185e-05 -2.37994e-05)
(-5.94313e-05 -4.86342e-05 -3.68671e-05)
(-0.000138526 -6.90279e-05 -3.82903e-05)
(-0.00027303 -0.000104797 -6.1035e-05)
(-0.000391116 -0.000137092 -5.16292e-05)
(-0.000503745 -0.000157345 -3.20662e-05)
(-0.000602367 -0.000167262 -9.52719e-06)
(-0.000688679 -0.000172013 1.39682e-05)
(-0.000760711 -0.000173396 3.57717e-05)
(-0.000818617 -0.000173407 5.46153e-05)
(-0.000865554 -0.00017372 6.97896e-05)
(-0.000903343 -0.000174814 8.15836e-05)
(-0.000931835 -0.000177258 8.99827e-05)
(-0.000951868 -0.000180827 9.52108e-05)
(-0.000964282 -0.000185359 9.56431e-05)
(-0.000974687 -0.000189736 9.46682e-05)
(-0.00097642 -0.000194819 9.06568e-05)
(-0.00097038 -0.000201034 8.81398e-05)
(-0.000935664 -0.000206109 5.98649e-05)
(-0.00100132 -0.000208568 3.57376e-05)
(-0.00101478 -0.000210459 2.94899e-05)
(-0.00101959 -0.000212871 9.04693e-06)
(5.27238e-05 1.41239e-05 4.65883e-05)
(7.41842e-05 1.15071e-05 -7.14417e-06)
(8.43041e-05 8.15413e-06 -1.63067e-05)
(9.0065e-05 9.76717e-07 -2.22727e-05)