/*--------------------------------*- C++ -*----------------------------------*\
  =========                 |
  \\      /  F ield         | OpenFOAM: The Open Source CFD Toolbox
   \\    /   O peration     | Website:  https://openfoam.org
    \\  /    A nd           | Version:  6
     \\/     M anipulation  |
\*---------------------------------------------------------------------------*/
FoamFile
{
    version     2.0;
    format      ascii;
    class       volScalarField;
    location    "0.8";
    object      omega;
}
// * * * * * * * * * * * * * * * * * * * * * * * * * * * * * * * * * * * * * //

dimensions      [0 0 -1 0 0 0 0];

internalField   nonuniform List<scalar> 
63432
(
843.917
843.917
843.917
843.917
843.917
843.917
843.917
843.917
843.917
843.917
843.917
843.917
843.917
843.917
843.917
843.917
843.917
843.917
843.917
843.917
843.917
843.917
843.917
843.917
843.917
843.917
843.917
843.917
843.917
843.917
843.917
843.917
843.917
843.917
843.917
843.917
843.917
843.917
843.917
843.917
843.917
843.917
843.917
843.917
843.917
843.917
843.917
843.917
843.917
843.917
843.917
843.917
843.917
843.917
843.917
843.917
843.917
843.917
843.917
843.917
843.917
843.917
843.917
843.917
843.917
843.917
843.917
843.917
843.917
843.917
843.917
843.917
843.917
843.917
843.917
843.917
843.917
843.917
843.917
843.917
843.917
843.917
843.917
843.917
843.917
843.917
843.917
843.917
843.917
843.917
843.917
843.917
843.917
843.917
843.917
843.917
843.917
843.917
843.917
843.917
843.917
843.917
843.917
843.917
843.917
843.917
843.917
843.917
843.917
843.917
843.917
843.917
843.917
843.917
843.917
843.917
843.917
843.917
843.917
843.917
843.917
843.917
843.917
843.917
843.917
843.917
843.917
843.917
843.917
843.917
843.917
843.917
843.917
843.917
843.917
843.917
843.917
843.917
843.917
843.917
843.917
843.917
843.917
843.917
843.917
843.917
843.917
843.917
843.917
843.917
843.917
843.917
843.917
843.917
843.917
843.917
843.917
843.917
843.917
843.917
843.917
843.917
843.917
843.917
843.917
843.917
843.917
843.917
843.917
843.917
843.917
843.917
843.917
843.917
843.917
843.917
843.917
843.917
843.917
843.917
843.917
843.917
843.917
843.917
843.917
843.917
843.917
843.917
843.917
843.917
843.917
843.917
843.917
843.917
843.917
843.917
843.917
843.917
843.917
843.917
843.917
843.917
843.917
843.917
843.917
843.917
843.917
843.917
843.917
843.917
843.917
843.917
843.917
843.917
843.917
843.917
843.917
843.917
843.917
843.917
843.917
843.917
843.917
843.917
843.917
843.917
843.917
843.917
843.917
843.917
843.917
843.917
843.917
843.917
843.917
843.917
843.917
843.917
843.917
843.917
843.917
843.917
843.917
843.917
843.917
843.917
843.917
843.917
843.917
843.917
843.917
843.917
843.917
843.917
843.917
843.917
843.917
843.917
843.917
843.917
843.917
843.917
843.917
843.917
843.917
843.917
843.917
843.917
843.917
843.917
843.917
843.917
843.917
843.917
843.917
843.917
843.917
843.917
843.917
843.917
843.917
843.917
843.917
843.917
843.917
843.917
843.917
843.917
843.917
843.917
843.917
843.917
843.917
265.739
265.813
265.806
265.723
265.733
265.89
266.044
266.147
266.093
265.885
265.752
265.829
265.041
265.211
265.326
265.357
265.348
265.386
265.494
265.643
265.809
265.833
265.621
265.653
264.192
264.524
264.802
265.042
265.212
265.294
265.322
265.362
265.42
265.58
265.818
265.793
265.782
263.557
263.877
264.181
264.493
264.792
265.02
265.158
265.227
265.261
265.318
265.506
265.618
265.711
262.874
263.204
263.511
263.817
264.165
264.509
264.796
265.003
265.104
265.137
265.23
265.306
265.471
261.575
262.088
262.518
262.889
263.218
263.548
263.904
264.248
264.579
264.841
264.973
265.079
265.1
265.23
260.404
261.084
261.679
262.202
262.647
263.026
263.377
263.692
264.03
264.412
264.694
264.927
265.022
265.095
259.085
259.934
260.692
261.378
261.988
262.508
262.95
263.305
263.615
263.971
264.292
264.612
264.881
265
256.5
257.667
258.726
259.678
260.523
261.281
261.938
262.505
262.978
263.359
263.692
263.982
264.252
264.55
264.77
254.737
256.165
257.459
258.631
259.66
260.57
261.351
262.027
262.598
263.076
263.468
263.787
264.048
264.288
264.49
253.034
254.711
256.22
257.581
258.772
259.827
260.733
261.515
262.176
262.727
263.192
263.556
263.869
264.131
264.324
251.48
253.413
255.12
256.634
257.952
259.1
260.099
260.969
261.717
262.347
262.879
263.303
263.667
263.98
264.172
247.568
250.057
252.25
254.166
255.835
257.275
258.51
259.569
260.487
261.271
261.949
262.547
263.048
263.455
263.82
264.044
245.94
248.736
251.177
253.302
255.134
256.703
258.041
259.18
260.143
260.962
261.662
262.27
262.776
263.194
263.589
263.883
244.508
247.57
250.226
252.528
254.505
256.194
257.63
258.855
259.882
260.754
261.489
262.108
262.616
263.046
263.43
263.709
243.356
246.633
249.46
251.898
253.985
255.765
257.276
258.563
259.648
260.565
261.338
261.984
262.522
262.973
263.365
263.647
242.497
245.937
248.893
251.429
253.596
255.438
257
258.327
259.448
260.394
261.192
261.859
262.422
262.887
263.295
263.599
241.844
245.409
248.46
251.07
253.294
255.183
256.784
258.139
259.286
260.253
261.067
261.749
262.325
262.801
263.216
263.536
241.254
244.923
248.055
250.728
253.006
254.939
256.577
257.963
259.136
260.124
260.956
261.653
262.241
262.727
263.148
263.481
240.659
244.421
247.629
250.367
252.7
254.681
256.359
257.78
258.982
259.995
260.848
261.562
262.165
262.663
263.092
263.438
132.186
131.936
131.696
131.409
131.133
130.877
130.681
130.536
130.392
130.171
129.864
129.662
131.532
131.306
131.126
130.94
130.732
130.528
130.332
130.2
130.085
129.979
129.778
129.586
131.165
130.963
130.793
130.649
130.543
130.43
130.301
130.155
130
129.909
129.847
129.754
129.625
130.545
130.363
130.222
130.132
130.07
130.037
129.995
129.933
129.834
129.732
129.673
129.618
129.568
129.884
129.728
129.616
129.542
129.523
129.538
129.571
129.592
129.586
129.537
129.484
129.437
129.422
129.256
129.134
129.042
128.978
128.947
128.947
128.988
129.062
129.15
129.229
129.279
129.28
129.266
129.263
128.252
128.225
128.235
128.266
128.314
128.375
128.445
128.535
128.657
128.793
128.928
129.017
129.073
129.114
127.095
127.164
127.283
127.429
127.595
127.764
127.922
128.056
128.209
128.352
128.528
128.69
128.814
128.925
125.618
125.784
125.99
126.236
126.505
126.787
127.072
127.345
127.586
127.797
127.986
128.158
128.336
128.496
128.66
123.945
124.294
124.686
125.097
125.516
125.927
126.323
126.693
127.036
127.336
127.603
127.826
128.024
128.197
128.367
122.143
122.696
123.28
123.862
124.445
124.991
125.51
125.981
126.411
126.794
127.132
127.429
127.687
127.911
128.112
120.278
121.059
121.842
122.595
123.32
123.998
124.627
125.209
125.73
126.201
126.613
126.977
127.298
127.58
127.831
117.238
118.324
119.374
120.385
121.329
122.212
123.017
123.757
124.425
125.034
125.583
126.079
126.513
126.899
127.232
127.528
114.809
116.24
117.597
118.866
120.036
121.104
122.069
122.933
123.707
124.396
125.018
125.57
126.061
126.494
126.88
127.217
112.273
114.072
115.753
117.297
118.709
119.978
121.12
122.129
123.028
123.817
124.52
125.134
125.677
126.152
126.572
126.935
109.744
111.925
113.933
115.756
117.405
118.876
120.187
121.343
122.364
123.259
124.046
124.734
125.335
125.864
126.327
126.724
107.344
109.905
112.233
114.327
116.201
117.863
119.33
120.618
121.748
122.737
123.6
124.355
125.011
125.587
126.092
126.528
105.18
108.094
110.717
113.06
115.139
116.973
118.582
119.989
121.215
122.285
123.214
124.024
124.727
125.34
125.878
126.341
103.349
106.561
109.435
111.989
114.245
116.227
117.959
119.467
120.778
121.917
122.904
123.761
124.502
125.147
125.711
126.195
102.061
105.469
108.514
111.214
113.595
115.683
117.505
119.089
120.462
121.653
122.683
123.576
124.347
125.015
125.599
126.1
81.6996
81.254
80.8781
80.4879
80.0897
79.6981
79.3926
79.159
78.9788
78.7669
78.4538
78.1984
81.2738
80.8254
80.4739
80.1619
79.8509
79.5309
79.2175
78.9842
78.7762
78.6103
78.4256
78.1915
81.3912
80.8724
80.4492
80.0937
79.8196
79.5749
79.3494
79.0994
78.8574
78.6718
78.4945
78.3677
78.1992
80.9521
80.4533
80.0428
79.7131
79.4483
79.2449
79.0736
78.9157
78.7331
78.567
78.3997
78.2738
78.1626
80.4492
79.9888
79.6087
79.2979
79.0547
78.871
78.7355
78.6269
78.5172
78.4147
78.286
78.1735
78.0806
80.3603
79.8624
79.455
79.117
78.8473
78.6328
78.4696
78.3591
78.2858
78.2217
78.1864
78.1106
78.0551
77.9887
79.5945
79.1619
78.822
78.5509
78.3322
78.171
78.0413
77.9547
77.9184
77.8864
77.9052
77.8821
77.8727
77.8691
78.7085
78.3339
78.0647
77.8733
77.739
77.6529
77.5983
77.5448
77.5545
77.544
77.5895
77.6333
77.6484
77.7001
78.0714
77.6776
77.3924
77.2053
77.0991
77.0546
77.0552
77.0945
77.1284
77.1823
77.2276
77.2779
77.3537
77.4028
77.4915
76.7543
76.4816
76.3232
76.2527
76.2538
76.3068
76.3962
76.5108
76.6348
76.758
76.8739
76.9734
77.0698
77.1463
77.2524
75.2758
75.1468
75.1365
75.1922
75.3253
75.484
75.6739
75.8686
76.0615
76.2554
76.4291
76.5979
76.7475
76.8732
77.0141
73.6743
73.7151
73.8602
74.0597
74.3099
74.5854
74.8696
75.1594
75.4303
75.6979
75.9322
76.1586
76.3654
76.5387
76.7363
71.7547
71.9231
72.175
72.5022
72.8611
73.2503
73.6377
74.0287
74.4027
74.7597
75.1016
75.4166
75.6998
75.9691
76.1878
76.4264
69.5394
69.9794
70.4834
71.0261
71.5787
72.1318
72.6661
73.1738
73.6538
74.0974
74.5149
74.8975
75.245
75.565
75.8438
76.1166
67.1157
67.8626
68.6475
69.433
70.2083
70.9475
71.6539
72.3021
72.9069
73.4547
73.9594
74.4117
74.8239
75.1947
75.5195
75.8248
64.5657
65.6533
66.7395
67.7905
68.7995
69.7419
70.6232
71.4251
72.159
72.8201
73.4177
73.9515
74.4289
74.8587
75.2337
75.5784
62.0187
63.4646
64.8638
66.1905
67.4354
68.5843
69.6374
70.5899
71.4478
72.2173
72.9027
73.5155
74.0551
74.5405
74.9644
75.348
59.6349
61.4284
63.1313
64.7232
66.1942
67.538
68.754
69.8455
70.8185
71.6854
72.4507
73.1317
73.7274
74.2586
74.7239
75.1375
57.6077
59.6986
61.6635
63.4839
65.1511
66.6628
68.0206
69.2316
70.3041
71.254
72.088
72.8256
73.4689
74.0374
74.5362
74.9728
56.2628
58.5383
60.6704
62.64
64.4379
66.063
67.5178
68.8113
69.9534
70.9612
71.8436
72.6209
73.2977
73.8927
74.4148
74.8683
56.1604
55.6672
55.2674
54.8703
54.4561
54.0525
53.7374
53.5001
53.3262
53.147
52.8576
52.6163
55.9286
55.4166
55.0216
54.683
54.3627
54.023
53.6896
53.4359
53.2169
53.0465
52.8882
52.66
56.3414
55.7063
55.1974
54.7787
54.4561
54.1752
53.9305
53.6573
53.3952
53.188
52.9772
52.8539
52.6799
56.1015
55.4748
54.9622
54.5424
54.2084
53.9428
53.7302
53.5403
53.3329
53.1578
52.9524
52.8052
52.6691
55.7797
55.1918
54.7031
54.2952
53.9622
53.6969
53.4907
53.3338
53.1757
53.0585
52.9076
52.7733
52.6413
56.026
55.3699
54.8306
54.3761
54.0043
53.6961
53.4439
53.2452
53.1003
52.963
52.8867
52.7761
52.7069
52.6087
55.4836
54.8746
54.3821
53.9795
53.6412
53.3746
53.1513
52.9725
52.8578
52.7351
52.6907
52.608
52.5657
52.5298
54.8512
54.2817
53.8335
53.4863
53.2068
52.9912
52.8293
52.6713
52.5995
52.5053
52.4743
52.4471
52.4065
52.4078
54.7445
54.0973
53.5871
53.1925
52.9005
52.6893
52.534
52.4461
52.3588
52.3201
52.2792
52.2538
52.2597
52.2471
52.2724
53.7803
53.2134
52.7846
52.4709
52.2501
52.1104
52.0235
51.9905
51.9789
51.9927
52.0113
52.0294
52.0531
52.066
52.1101
52.6743
52.2041
51.8852
51.6603
51.5376
51.4747
51.4635
51.4897
51.5293
51.597
51.6582
51.7332
51.8009
51.8559
51.9346
51.4445
51.0985
50.8942
50.7811
50.7484
50.7756
50.8374
50.9339
51.0313
51.1538
51.2572
51.3743
51.4886
51.5767
51.7081
50.3815
50.0669
49.8803
49.8134
49.8214
49.8986
50.0124
50.1594
50.3247
50.4903
50.6694
50.8398
50.9963
51.1607
51.2826
51.4471
48.6188
48.5079
48.5114
48.6087
48.7637
48.968
49.1969
49.4388
49.6889
49.9316
50.1732
50.4044
50.6183
50.8246
50.9996
51.1912
46.6411
46.7643
46.9851
47.2696
47.6007
47.9512
48.3198
48.6773
49.0304
49.363
49.6823
49.9747
50.2498
50.504
50.7245
50.9456
44.4951
44.8854
45.3463
45.8433
46.3663
46.8853
47.4018
47.8908
48.356
48.7878
49.1903
49.5562
49.8907
50.1992
50.4665
50.7244
42.2837
42.9637
43.6817
44.4092
45.1328
45.8314
46.4992
47.1231
47.7008
48.2319
48.7148
49.1548
49.5468
49.9068
50.2202
50.5134
40.1609
41.129
42.1036
43.0602
43.9827
44.8562
45.6721
46.4243
47.1095
47.7326
48.2909
48.7964
49.2422
49.6458
49.9999
50.3209
38.3345
39.5513
40.7506
41.9079
43.0058
44.0322
44.9788
45.8427
46.6217
47.3238
47.9477
48.5076
48.9996
49.439
49.8264
50.169
37.1482
38.516
39.8557
41.1409
42.3529
43.4799
44.5137
45.4525
46.2953
47.051
47.72
48.3169
48.8406
49.3047
49.7147
50.0725
40.7912
40.3556
40.0076
39.6661
39.3054
38.957
38.6856
38.4889
38.3418
38.2066
37.9521
37.7559
40.7059
40.2395
39.8863
39.584
39.3086
39.0092
38.7119
38.4862
38.2945
38.1526
38.0221
37.8215
41.2266
40.6255
40.1471
39.7615
39.4647
39.2097
38.9918
38.7468
38.5076
38.3196
38.1207
38.0203
37.8601
41.1542
40.5464
40.0521
39.6457
39.3279
39.0705
38.8721
38.6946
38.499
38.3469
38.147
38.0106
37.8722
41.0028
40.4205
39.9394
39.5342
39.2028
38.9338
38.7212
38.5678
38.4041
38.2956
38.154
38.0287
37.8853
41.4222
40.7639
40.2205
39.7611
39.3821
39.0654
38.8024
38.5841
38.4275
38.2691
38.1831
38.067
38.0025
37.895
41.0879
40.4577
39.9439
39.5216
39.1636
38.874
38.6311
38.4236
38.2877
38.1314
38.0627
37.9566
37.9057
37.8529
40.6853
40.0797
39.5892
39.2025
38.8823
38.623
38.4276
38.2289
38.1233
37.9947
37.9302
37.8681
37.8083
37.7774
40.8912
40.1827
39.6133
39.1549
38.799
38.5274
38.306
38.1647
38.0213
37.938
37.8555
37.7939
37.759
37.7213
37.7052
40.2405
39.5804
39.0564
38.6508
38.3372
38.1142
37.9433
37.8392
37.7568
37.7123
37.6779
37.6528
37.6326
37.614
37.6126
39.4743
38.873
38.4236
38.077
37.8308
37.6609
37.5444
37.4821
37.4366
37.4316
37.4271
37.4451
37.4592
37.4736
37.5044
38.5983
38.0831
37.714
37.4488
37.2692
37.1635
37.1006
37.0868
37.0804
37.114
37.136
37.1806
37.2311
37.265
37.3397
38.1277
37.5916
37.1934
36.925
36.7476
36.6507
36.6085
36.6073
36.6445
36.6879
36.7585
36.8313
36.9003
36.9871
37.0423
37.1428
36.8181
36.4319
36.1725
36.0255
35.9541
35.9503
35.9915
36.0623
36.16
36.2651
36.3821
36.5025
36.6175
36.735
36.8317
36.9518
35.315
35.1031
35.0053
34.9956
35.055
35.1587
35.3037
35.4632
35.6383
35.8138
35.9941
36.163
36.3287
36.4867
36.6229
36.7669
33.638
33.6275
33.7123
33.8623
34.0685
34.3013
34.5612
34.824
35.0884
35.3432
35.5918
35.8212
36.0363
36.2401
36.4159
36.5916
31.8584
32.0714
32.3558
32.686
33.0504
33.4272
33.8096
34.1826
34.5404
34.8784
35.1938
35.4865
35.7505
35.9978
36.2127
36.4191
30.1059
30.5454
31.0336
31.5487
32.0751
32.5969
33.1034
33.585
34.0345
34.4521
34.8322
35.1819
35.493
35.7781
36.0286
36.2595
28.5717
29.2088
29.8787
30.559
31.2319
31.8833
32.5015
33.0795
33.6106
34.0973
34.535
34.9327
35.2847
35.6013
35.8816
36.1314
27.58
28.3366
29.1197
29.905
30.6729
31.4087
32.1009
32.7428
33.3287
33.8617
34.3385
34.7683
35.1482
35.4862
35.7866
36.0494
30.5752
30.2486
29.9868
29.727
29.4507
29.1819
28.9732
28.8309
28.7159
28.6231
28.4069
28.2627
30.5853
30.2215
29.9507
29.7142
29.5042
29.2707
29.0323
28.8557
28.7023
28.6015
28.4961
28.3304
31.0768
30.5972
30.2129
29.9087
29.6724
29.4716
29.3001
29.1043
28.9092
28.7558
28.5902
28.5166
28.3799
31.1173
30.6185
30.2119
29.876
29.617
29.4031
29.2436
29.1007
28.9342
28.817
28.6443
28.5335
28.4059
31.0983
30.6062
30.2014
29.8572
29.5767
29.3459
29.1605
29.0351
28.8901
28.8009
28.6823
28.5814
28.4441
31.5625
31.0023
30.5342
30.1373
29.8069
29.5303
29.3002
29.1011
28.9646
28.8164
28.7376
28.6324
28.5812
28.4785
31.4069
30.854
30.3992
30.0233
29.7034
29.4404
29.2209
29.0232
28.8988
28.7445
28.6746
28.5676
28.52
28.4633
31.1995
30.6554
30.2059
29.8483
29.5492
29.2985
29.1132
28.9148
28.806
28.6734
28.6016
28.5285
28.4692
28.4231
31.5625
30.9117
30.3832
29.9478
29.6009
29.3323
29.1005
28.9504
28.7928
28.696
28.6003
28.5283
28.4742
28.4317
28.3949
31.1776
30.5473
30.0345
29.6281
29.3003
29.0597
28.8622
28.734
28.6233
28.5535
28.4951
28.4527
28.4103
28.381
28.3534
30.7002
30.0959
29.6241
29.2512
28.964
28.7565
28.5958
28.4952
28.4107
28.3691
28.3312
28.32
28.303
28.2978
28.2984
30.1285
29.5748
29.152
28.8318
28.5903
28.425
28.3017
28.2334
28.173
28.1581
28.1361
28.1386
28.1496
28.1538
28.1886
30.0475
29.4435
28.9683
28.6147
28.3538
28.1707
28.05
27.9682
27.9347
27.909
27.9151
27.9295
27.9452
27.9811
27.9961
28.05
29.1325
28.6325
28.2529
27.9851
27.797
27.6792
27.615
27.5852
27.591
27.6112
27.6489
27.6973
27.7472
27.8043
27.8492
27.9165
28.0508
27.6746
27.4102
27.2388
27.1431
27.1008
27.1084
27.1434
27.2038
27.275
27.3615
27.4459
27.5348
27.6234
27.7006
27.7861
26.8056
26.5748
26.4433
26.3863
26.3969
26.4485
26.5403
26.652
26.7799
26.9111
27.0508
27.1825
27.3102
27.4357
27.5443
27.6562
25.443
25.3765
25.3925
25.4692
25.598
25.7587
25.9448
26.142
26.3434
26.5413
26.7339
26.9169
27.0846
27.2455
27.3853
27.5231
24.0666
24.1677
24.3363
24.5541
24.8081
25.083
25.3683
25.6532
25.9293
26.1933
26.439
26.6694
26.8766
27.0691
27.2384
27.3969
22.8379
23.0854
23.3921
23.7388
24.1093
24.4892
24.8662
25.2311
25.5754
25.8977
26.1921
26.463
26.7051
26.9242
27.1189
27.2936
22.0393
22.3759
22.7695
23.199
23.6458
24.0945
24.5324
24.9504
25.3403
25.7014
26.0287
26.3267
26.5923
26.8294
27.0411
27.2267
23.4271
23.2122
23.0367
22.855
22.662
22.4681
22.3185
22.2249
22.1396
22.0794
21.8986
21.8002
23.485
23.2331
23.0484
22.8802
22.7326
22.5647
22.3844
22.258
22.1395
22.0778
21.9931
21.8606
23.8791
23.5435
23.2681
23.0541
22.8833
22.7396
22.6158
22.4687
22.3216
22.2022
22.0745
22.0232
21.9123
23.9759
23.615
23.3169
23.0679
22.8774
22.7159
22.5989
22.4948
22.3613
22.2768
22.1375
22.0538
21.9432
24.0376
23.6685
23.3638
23.1005
22.8866
22.7077
22.5601
22.4683
22.3504
22.2826
22.1884
22.115
21.9926
24.4621
24.0407
23.6806
23.373
23.1128
22.8942
22.7129
22.5484
22.4424
22.3182
22.253
22.1648
22.129
22.0377
24.4372
24.0059
23.6456
23.3449
23.0867
22.8715
22.6935
22.5233
22.4234
22.2887
22.2282
22.1321
22.0919
22.0391
24.3758
23.9389
23.5704
23.2738
23.0244
22.8077
22.6525
22.4759
22.3793
22.2588
22.1926
22.1217
22.0708
22.0215
24.7872
24.254
23.8154
23.4467
23.1454
22.912
22.6994
22.5636
22.415
22.3217
22.2285
22.1598
22.1003
22.0614
22.0182
24.6105
24.0747
23.6295
23.2701
22.9706
22.748
22.5556
22.4288
22.3142
22.2382
22.1724
22.127
22.0767
22.0471
22.0088
24.3618
23.8255
23.3919
23.0448
22.7637
22.557
22.3873
22.2764
22.1798
22.1236
22.0716
22.0486
22.0166
22.0035
21.9887
24.0353
23.5178
23.1052
22.7848
22.5304
22.3478
22.2018
22.1118
22.0286
21.9904
21.9486
21.9303
21.9192
21.9096
21.9204
24.1957
23.6125
23.1379
22.766
22.4801
22.2628
22.1091
21.9892
21.9207
21.861
21.8325
21.8156
21.8029
21.809
21.8027
21.8265
23.6063
23.0855
22.669
22.3525
22.1125
21.938
21.8196
21.7354
21.6897
21.6618
21.6533
21.6587
21.67
21.6899
21.7041
21.7371
22.876
22.4351
22.0942
21.8407
21.6615
21.5372
21.4646
21.425
21.4156
21.422
21.4489
21.4799
21.5192
21.5623
21.6015
21.6483
22.0024
21.6581
21.4072
21.2303
21.1229
21.0626
21.0477
21.0617
21.1008
21.1503
21.2167
21.2833
21.3519
21.4236
21.4869
21.5547
21.0171
20.7833
20.6327
20.5476
20.5222
20.5392
20.5925
20.6694
20.7633
20.8642
20.9712
21.0777
21.1781
21.278
21.3654
21.4543
20.0027
19.879
19.831
19.8439
19.9077
20.0085
20.1366
20.281
20.4331
20.5868
20.7362
20.8809
21.0135
21.1393
21.2504
21.3566
19.0818
19.0517
19.0963
19.2003
19.3496
19.5301
19.7296
19.9376
20.1445
20.3459
20.5352
20.7133
20.8749
21.0228
21.1549
21.2747
18.4746
18.5018
18.6062
18.7701
18.9768
19.2107
19.4584
19.7088
19.9528
20.1858
20.4021
20.6024
20.7834
20.9462
21.0924
21.2212
18.2928
18.1637
18.0551
17.9326
17.8043
17.6674
17.563
17.5046
17.4436
17.4043
17.2528
17.189
18.3644
18.203
18.0866
17.9731
17.8734
17.7573
17.6231
17.537
17.4454
17.4134
17.3451
17.2399
18.6522
18.4369
18.2529
18.1132
17.9964
17.8986
17.8141
17.7047
17.5989
17.506
17.4117
17.3762
17.2881
18.7629
18.5224
18.3188
18.1465
18.0145
17.8986
17.8169
17.7449
17.6414
17.5811
17.4723
17.4107
17.3185
18.8587
18.6028
18.3888
18.1997
18.0461
17.9151
17.8027
17.7397
17.6478
17.5981
17.5244
17.4742
17.3693
19.2083
18.9159
18.6585
18.4359
18.2431
18.0793
17.9447
17.8152
17.7378
17.6397
17.5885
17.5167
17.4946
17.4163
19.2599
18.9484
18.6822
18.457
18.2605
18.0941
17.9587
17.8193
17.7441
17.6341
17.5857
17.5046
17.4721
17.4259
19.2898
18.9633
18.681
18.4502
18.2553
18.0788
17.9576
17.8097
17.7304
17.6277
17.5715
17.5083
17.4671
17.4212
19.6861
19.2793
18.9391
18.6477
18.4022
18.2133
18.0313
17.9178
17.7879
17.7055
17.6218
17.5616
17.5044
17.4711
17.429
19.6533
19.2289
18.8683
18.5723
18.3173
18.1269
17.9539
17.8395
17.7328
17.6601
17.5951
17.5527
17.5026
17.4763
17.4368
19.5686
19.1262
18.7559
18.4561
18.2031
18.0148
17.8537
17.7458
17.6506
17.5913
17.5353
17.5092
17.4722
17.4568
17.4361
19.4254
18.9772
18.6055
18.3112
18.0686
17.89
17.7413
17.646
17.557
17.5093
17.4608
17.4343
17.4125
17.3974
17.3959
19.7243
19.2045
18.7692
18.4138
18.1333
17.9095
17.7468
17.6126
17.5286
17.455
17.41
17.3783
17.3525
17.3427
17.3269
17.3334
19.3915
18.899
18.4902
18.1643
17.9077
17.7087
17.5649
17.4534
17.3803
17.3272
17.2935
17.2752
17.2651
17.2642
17.2616
17.2743
18.9442
18.4935
18.1268
17.8366
17.6152
17.4466
17.3285
17.2452
17.1944
17.1621
17.1523
17.151
17.1602
17.1751
17.1913
17.2145
18.3807
17.9843
17.6709
17.4259
17.2476
17.1184
17.0359
16.9868
16.9684
16.9648
16.9827
17.0072
17.0375
17.0737
17.1079
17.1473
17.7292
17.3951
17.1395
16.9491
16.8204
16.7397
16.7018
16.6951
16.7146
16.7485
16.7961
16.8504
16.905
16.9634
17.0157
17.0719
17.0595
16.7798
16.5781
16.4436
16.3688
16.3421
16.3548
16.3961
16.4578
16.5318
16.612
16.6959
16.776
16.8552
16.9261
16.9963
16.4468
16.207
16.0515
15.9686
15.947
15.9737
16.0369
16.125
16.2282
16.3393
16.4511
16.5615
16.665
16.7623
16.8502
16.9316
16.0296
15.8152
15.6914
15.6448
15.661
15.725
15.8235
15.9438
16.0754
16.2113
16.3445
16.4727
16.5918
16.7011
16.8005
16.8892
14.5326
14.4574
14.3918
14.308
14.2227
14.1235
14.0498
14.0129
13.9706
13.943
13.8142
13.774
14.6001
14.4984
14.4269
14.3506
14.2828
14.2017
14.1001
14.0419
13.9694
13.9567
13.9007
13.8165
14.8043
14.6693
14.5477
14.4586
14.3794
14.3125
14.2563
14.1723
14.0974
14.023
13.9543
13.929
13.8588
14.9065
14.7498
14.6129
14.4958
14.4055
14.3228
14.2662
14.2166
14.1374
14.0923
14.008
13.962
13.8865
15.0067
14.8332
14.6855
14.5517
14.4431
14.3488
14.2636
14.2215
14.1505
14.114
14.0555
14.022
13.9339
15.283
15.0842
14.9041
14.7462
14.6059
14.4846
14.3864
14.2856
14.2298
14.1542
14.115
14.0559
14.0443
13.9782
15.3677
15.1476
14.9551
14.7902
14.6432
14.516
14.4157
14.3032
14.2475
14.1602
14.1227
14.0559
14.0305
13.9909
15.4429
15.2041
14.9928
14.8168
14.6679
14.527
14.4349
14.3142
14.251
14.1662
14.1199
14.0658
14.0327
13.9929
15.7997
15.4956
15.2372
15.0125
14.8169
14.6684
14.5169
14.4248
14.3155
14.2454
14.1729
14.122
14.0702
14.0418
14.0038
15.8528
15.5241
15.2391
15.0022
14.7909
14.6336
14.4837
14.3842
14.2894
14.2234
14.1628
14.1248
14.0783
14.0556
14.019
15.8731
15.5178
15.2108
14.9599
14.7403
14.5753
14.4293
14.3291
14.2406
14.1832
14.1279
14.1019
14.0649
14.0494
14.0276
15.8551
15.4791
15.1559
14.8952
14.6735
14.5072
14.3646
14.2706
14.1835
14.133
14.0837
14.0551
14.029
14.0121
14.0051
16.2281
15.7805
15.3961
15.0704
14.8075
14.5899
14.4287
14.2917
14.2016
14.1237
14.0717
14.0336
14.003
13.9854
13.9663
13.9636
16.0879
15.6412
15.2593
14.9421
14.6859
14.4785
14.3235
14.1991
14.1116
14.0455
13.9985
13.9674
13.9462
13.9342
13.9231
13.9245
15.8617
15.4264
15.0591
14.7559
14.5143
14.3218
14.1775
14.0681
13.9922
13.9366
13.9041
13.8833
13.8744
13.8723
13.8746
13.8839
15.552
15.1356
14.7907
14.5071
14.2851
14.112
13.9854
13.8941
13.837
13.7985
13.7836
13.7801
13.7856
13.7986
13.8139
13.8354
15.1924
14.7957
14.4714
14.2095
14.0087
13.8588
13.7553
13.6882
13.6539
13.64
13.6452
13.6627
13.6857
13.7155
13.7442
13.7784
14.8458
14.4523
14.1363
13.8902
13.7093
13.5843
13.5078
13.4695
13.4619
13.4756
13.5042
13.5433
13.5855
13.6316
13.6746
13.7198
14.533
14.1294
13.8147
13.5812
13.4207
13.322
13.2744
13.266
13.2863
13.3265
13.3783
13.4375
13.4978
13.5581
13.6145
13.6688
14.299
13.8908
13.581
13.3603
13.218
13.1406
13.1152
13.1285
13.169
13.2272
13.2951
13.3678
13.4402
13.5099
13.5753
13.6353
11.7171
11.6712
11.6298
11.5695
11.5098
11.434
11.3799
11.3547
11.326
11.3044
11.1934
11.1682
11.7747
11.7073
11.6617
11.6082
11.5601
11.5006
11.4209
11.3799
11.3213
11.3195
11.2727
11.2042
11.9241
11.8349
11.7505
11.6914
11.6358
11.5876
11.55
11.4822
11.4285
11.3667
11.3161
11.2975
11.2405
12.0109
11.9042
11.8078
11.7257
11.6622
11.6011
11.5612
11.525
11.4645
11.4283
11.3622
11.3267
11.2649
12.102
11.9801
11.8745
11.7768
11.6978
11.6287
11.5631
11.5341
11.4791
11.4513
11.4036
11.3808
11.3072
12.3225
12.1814
12.0513
11.936
11.8315
11.7393
11.6663
11.5866
11.5456
11.4872
11.4574
11.4075
11.4029
11.3474
12.4148
12.2539
12.1108
11.9872
11.8754
11.7758
11.7008
11.6095
11.5668
11.4978
11.469
11.4142
11.3947
11.3607
12.5065
12.3267
12.1649
12.0282
11.913
11.7992
11.7286
11.6302
11.5796
11.5101
11.4722
11.4263
11.3997
11.3659
12.824
12.5896
12.3881
12.2119
12.0541
11.9363
11.8104
11.7354
11.6442
11.5851
11.5231
11.4803
11.4348
11.4103
11.3767
12.9222
12.6614
12.4318
12.2402
12.0642
11.9342
11.8055
11.7194
11.6365
11.5778
11.5225
11.4886
11.4465
11.4267
11.3941
13.0037
12.7137
12.457
12.246
12.0562
11.9126
11.7823
11.6906
11.6095
11.5559
11.5029
11.4775
11.4427
11.4275
11.4064
13.0654
12.7477
12.4669
12.2368
12.0363
11.8835
11.7498
11.6589
11.5761
11.5253
11.4771
11.4487
11.4215
11.4043
11.3949
13.4789
13.0917
12.7531
12.4572
12.2137
12.0061
11.8495
11.7144
11.6218
11.5434
11.4886
11.4477
11.4158
11.3946
11.3748
11.3675
13.4774
13.0742
12.7214
12.4186
12.1685
11.9596
11.7996
11.6688
11.573
11.4996
11.4453
11.407
11.3797
11.3618
11.3464
11.3415
13.4208
13.0062
12.647
12.341
12.0895
11.8831
11.7224
11.5961
11.5036
11.4332
11.3858
11.3524
11.3321
11.3196
11.313
11.314
13.3174
12.8932
12.5309
12.2236
11.9727
11.7694
11.612
11.4908
11.4058
11.3428
11.3044
11.2813
11.2697
11.2669
11.2693
11.2789
13.211
12.7704
12.3967
12.0827
11.8282
11.6259
11.4726
11.3593
11.2834
11.2333
11.2063
11.1963
11.1961
11.2054
11.2172
11.2361
13.1594
12.6781
12.2725
11.9378
11.6714
11.4665
11.3173
11.2142
11.1501
11.1154
11.1028
11.107
11.1202
11.1413
11.1637
11.1909
13.1244
12.5907
12.1469
11.7889
11.5118
11.3069
11.165
11.0746
11.0249
11.006
11.0086
11.0265
11.0526
11.0843
11.1169
11.1509
13.0574
12.4942
12.0319
11.6655
11.3881
11.189
11.0566
10.9776
10.94
10.9327
10.9462
10.9735
11.0084
11.047
11.0864
11.1248
9.55515
9.52394
9.49517
9.4494
9.40445
9.34315
9.30154
9.28223
9.26319
9.2447
9.14824
9.132
9.60295
9.55386
9.52215
9.48237
9.44626
9.39973
9.33517
9.3041
9.25602
9.25972
9.21996
9.16318
9.71942
9.65415
9.59048
9.54783
9.50669
9.4695
9.44354
9.38663
9.34666
9.29396
9.25568
9.24171
9.19427
9.7916
9.71266
9.6393
9.57774
9.53059
9.48299
9.45405
9.42544
9.37896
9.34787
9.29498
9.26695
9.21562
9.87061
9.77859
9.69781
9.6223
9.5619
9.50895
9.45721
9.43604
9.39297
9.37078
9.33082
9.31471
9.25301
10.0532
9.94459
9.84438
9.75519
9.6735
9.60033
9.54386
9.47933
9.44774
9.40188
9.37944
9.33629
9.33573
9.28902
10.1425
10.0166
9.90385
9.80652
9.71811
9.63695
9.57887
9.50355
9.46913
9.4138
9.39172
9.34601
9.33153
9.30214
10.2373
10.0933
9.96328
9.85225
9.76
9.66545
9.60932
9.5282
9.48658
9.42921
9.39824
9.35905
9.33737
9.30891
10.5255
10.3333
10.1673
10.023
9.89118
9.79453
9.68823
9.62544
9.54889
9.49871
9.44558
9.40952
9.36976
9.34848
9.31878
10.6463
10.4279
10.2343
10.0736
9.92298
9.81287
9.70143
9.62595
9.55334
9.50127
9.45121
9.42068
9.38286
9.36518
9.33614
10.7632
10.5155
10.2933
10.1107
9.94374
9.81674
9.70022
9.61604
9.54168
9.49189
9.44192
9.41706
9.38462
9.3699
9.34971
10.8754
10.5973
10.3475
10.1407
9.95756
9.81615
9.69107
9.60344
9.52483
9.47472
9.4279
9.40012
9.37316
9.35589
9.34509
11.3166
10.9707
10.6653
10.3929
10.1654
9.96728
9.81494
9.68292
9.58897
9.51076
9.45473
9.41216
9.3801
9.35715
9.33743
9.3277
11.4151
11.0429
10.7128
10.4225
10.1784
9.96996
9.80662
9.6718
9.57021
9.49174
9.43287
9.38985
9.35875
9.33714
9.3195
9.31069
11.49
11.0899
10.7375
10.4305
10.1724
9.95598
9.78323
9.64458
9.53961
9.45841
9.40035
9.35782
9.32961
9.30999
9.29742
9.29257
11.5565
11.1241
10.7475
10.4217
10.1485
9.92165
9.74037
9.59606
9.48916
9.40736
9.3511
9.31274
9.28846
9.27424
9.26705
9.26806
11.6697
11.1912
10.7759
10.419
10.1205
9.87534
9.68128
9.5302
9.42014
9.34056
9.28759
9.25545
9.23713
9.23044
9.22937
9.2367
11.8779
11.3244
10.8444
10.4354
10.0968
9.8239
9.61235
9.45363
9.3411
9.26519
9.21779
9.19289
9.18225
9.18334
9.18948
9.2026
12.084
11.4468
10.8977
10.4357
10.0591
9.76211
9.53751
9.37477
9.26349
9.19287
9.15264
9.13527
9.13262
9.14068
9.15395
9.17191
12.1584
11.4734
10.8878
10.4003
10.0077
9.70274
9.47602
9.31524
9.20829
9.14314
9.10896
9.09722
9.10025
9.1129
9.13101
9.15203
7.85446
7.8307
7.80846
7.77266
7.73631
7.68479
7.65132
7.63511
7.62258
7.60586
7.52217
7.51074
7.8945
7.85531
7.83098
7.7998
7.77156
7.73314
7.67963
7.65414
7.6144
7.62024
7.58616
7.53829
7.99126
7.93844
7.88659
7.85286
7.82069
7.79045
7.77163
7.72293
7.69161
7.64607
7.6161
7.60554
7.56527
8.05201
7.98846
7.92842
7.87881
7.84182
7.80284
7.78124
7.75701
7.72081
7.69319
7.6498
7.62728
7.58403
8.12021
8.0456
7.97954
7.91765
7.86889
7.82629
7.78467
7.76786
7.73388
7.71545
7.68113
7.6692
7.61702
8.27769
8.18742
8.105
8.03176
7.9645
7.90389
7.85803
7.80457
7.77898
7.74218
7.72543
7.68747
7.68896
7.64935
8.36168
8.25606
8.16178
8.08076
8.0078
7.93903
7.89187
7.82873
7.7995
7.75404
7.73712
7.69831
7.68784
7.66221
8.45531
8.33238
8.22209
8.12749
8.05039
7.96944
7.92267
7.85465
7.81924
7.77106
7.7456
7.71174
7.69397
7.66975
8.72514
8.55711
8.41226
8.28783
8.17325
8.09042
7.99856
7.94411
7.87875
7.83551
7.78944
7.75879
7.72401
7.70544
7.67906
8.85923
8.66522
8.49338
8.352
8.21865
8.12182
8.02359
7.95604
7.89162
7.8451
7.79971
7.77201
7.73786
7.72186
7.69565
8.9994
8.7761
8.57527
8.4107
8.25971
8.14433
8.03858
7.96055
7.89168
7.84521
7.79826
7.7738
7.7434
7.72918
7.70971
9.14657
8.89161
8.66153
8.47
8.29928
8.16597
8.04797
7.96286
7.88762
7.83827
7.79262
7.76523
7.73879
7.72171
7.70974
9.61571
9.29237
9.00642
8.74909
8.53202
8.34075
8.19095
8.06127
7.96602
7.88759
7.83067
7.78668
7.75455
7.73044
7.71097
7.69961
9.79121
9.43422
9.11641
8.8331
8.592
8.38303
8.216
8.07736
7.97068
7.88767
7.82503
7.77826
7.74431