/*--------------------------------*- C++ -*----------------------------------*\
  =========                 |
  \\      /  F ield         | OpenFOAM: The Open Source CFD Toolbox
   \\    /   O peration     | Website:  https://openfoam.org
    \\  /    A nd           | Version:  6
     \\/     M anipulation  |
\*---------------------------------------------------------------------------*/
FoamFile
{
    version     2.0;
    format      ascii;
    class       volScalarField;
    location    "0.8";
    object      p;
}
// * * * * * * * * * * * * * * * * * * * * * * * * * * * * * * * * * * * * * //

dimensions      [0 2 -2 0 0 0 0];

internalField   nonuniform List<scalar> 
63432
(
0.000558905
0.000800658
0.00101441
0.00120122
0.00135903
0.00148761
0.00159305
0.00168659
0.0017723
0.00183881
0.00187879
0.00187068
0.000691363
0.000910533
0.00109874
0.00126057
0.00140123
0.00152326
0.00162577
0.00170699
0.00176957
0.00181566
0.00186506
0.00187577
0.000715885
0.000944911
0.00114094
0.00130845
0.00145101
0.00157241
0.00167569
0.00176187
0.0018302
0.00188371
0.00191771
0.00195587
0.00195554
0.0010622
0.00125979
0.00142725
0.00156889
0.00168774
0.0017864
0.00186779
0.00193402
0.00198465
0.00202382
0.00204416
0.0020665
0.00205784
0.00143311
0.00159767
0.00173458
0.00184748
0.00193975
0.00201397
0.00207213
0.00211741
0.00214899
0.00217101
0.00217712
0.00218424
0.00216424
0.00169003
0.00184815
0.00197698
0.00208077
0.00216298
0.00222646
0.00227395
0.00230726
0.00232931
0.00233955
0.00234234
0.00233147
0.00232201
0.00228524
0.00218999
0.00230595
0.0023958
0.00246342
0.00251221
0.00254448
0.00256317
0.00256946
0.00256639
0.00255308
0.00253405
0.00250487
0.0024767
0.00243
0.00273003
0.00280127
0.00284942
0.00287822
0.00289098
0.00288962
0.00287728
0.00285478
0.00282452
0.00278616
0.0027437
0.00269459
0.00264464
0.00258845
0.00325891
0.00330668
0.00333071
0.00333497
0.00332261
0.00329709
0.00325994
0.00321421
0.00316085
0.00310168
0.00303728
0.00296984
0.00289874
0.0028262
0.00275282
0.00391863
0.0039138
0.00388855
0.0038469
0.00379151
0.00372578
0.00365115
0.0035702
0.00348414
0.00339463
0.00330251
0.00320899
0.00311444
0.00301933
0.00292236
0.00460225
0.00454331
0.00446728
0.00437809
0.00427821
0.0041707
0.00405713
0.00393974
0.00381984
0.00369894
0.00357781
0.00345751
0.00333878
0.00322101
0.00310451
0.00529887
0.00518519
0.00505771
0.00492015
0.00477484
0.00462469
0.00447123
0.00431657
0.0041619
0.00400887
0.00385832
0.00371065
0.00356768
0.00342607
0.00329378
0.0061496
0.00599518
0.0058271
0.00564849
0.0054627
0.005272
0.00507919
0.00488563
0.00469346
0.00450414
0.00431871
0.00413834
0.00396286
0.0037955
0.00363026
0.00348096
0.00688561
0.00667512
0.00645423
0.00622594
0.00599325
0.00575841
0.00552388
0.00529124
0.00506242
0.0048389
0.00462153
0.00441167
0.0042091
0.00401715
0.00382919
0.00365748
0.00758398
0.00732039
0.00704963
0.0067744
0.00649739
0.00622081
0.00594679
0.00567705
0.00541341
0.00515722
0.00490949
0.00467151
0.00444309
0.00422655
0.00401715
0.00382236
0.00822402
0.00791167
0.00759531
0.00727719
0.00695973
0.00664497
0.00633489
0.00603112
0.00573548
0.00544927
0.00517357
0.0049096
0.00465724
0.0044184
0.00418941
0.00397645
0.00878389
0.00842844
0.00807193
0.00771622
0.00736338
0.00701525
0.00667365
0.00634014
0.00601643
0.0057039
0.00540359
0.00511673
0.00484322
0.00458497
0.00433833
0.00411031
0.00924087
0.00884943
0.00845965
0.00807303
0.00769123
0.00731589
0.00694858
0.00659084
0.00624423
0.00591017
0.00558972
0.00528408
0.00499326
0.00471903
0.004458
0.00421687
0.00956823
0.00915015
0.00873607
0.00832706
0.00792444
0.0075296
0.00714389
0.00676881
0.00640579
0.00605628
0.00572137
0.00540222
0.00509897
0.00481312
0.00454189
0.0042907
0.0097423
0.00930972
0.00888254
0.00846156
0.00804785
0.00764263
0.00724716
0.00686284
0.00649109
0.00613334
0.00579071
0.00546433
0.00515446
0.00486238
0.00458578
0.00432905
0.000558263
0.000800088
0.00101384
0.00120069
0.00135868
0.00148741
0.00159292
0.00168648
0.00177215
0.00183863
0.00187874
0.00187061
0.00069032
0.000909617
0.0010979
0.00125981
0.00140055
0.00152271
0.00162535
0.0017066
0.00176924
0.00181535
0.00186475
0.00187553
0.000715076
0.000944246
0.00114036
0.00130796
0.00145056
0.00157199
0.00167531
0.00176154
0.00182995
0.00188347
0.00191753
0.00195569
0.0019554
0.00106167
0.00125937
0.00142693
0.00156859
0.00168748
0.00178618
0.00186757
0.00193381
0.00198447
0.00202362
0.00204407
0.0020664
0.00205776
0.00143272
0.00159737
0.00173433
0.00184728
0.00193957
0.0020138
0.00207199
0.00211729
0.00214888
0.00217089
0.00217703
0.00218417
0.00216415
0.00168971
0.00184791
0.0019768
0.00208063
0.00216288
0.00222637
0.0022739
0.00230721
0.00232927
0.00233953
0.00234229
0.00233145
0.00232195
0.00228518
0.00218981
0.00230584
0.00239573
0.0024634
0.0025122
0.00254449
0.0025632
0.00256952
0.00256641
0.00255308
0.00253406
0.00250491
0.00247671
0.00242999
0.00272996
0.00280125
0.00284945
0.00287828
0.00289106
0.00288972
0.00287738
0.0028549
0.00282458
0.00278626
0.00274377
0.00269462
0.00264471
0.00258849
0.00325883
0.00330667
0.00333076
0.00333506
0.00332273
0.00329724
0.00326009
0.00321437
0.003161
0.00310182
0.00303743
0.00296996
0.00289885
0.0028263
0.00275286
0.00391861
0.00391384
0.00388864
0.00384703
0.00379168
0.00372597
0.00365134
0.00357039
0.00348433
0.00339482
0.00330268
0.00320916
0.00311459
0.00301946
0.00292248
0.00460224
0.00454338
0.0044674
0.00437825
0.0042784
0.0041709
0.00405735
0.00393996
0.00382005
0.00369915
0.00357802
0.00345772
0.00333896
0.00322118
0.00310466
0.00529884
0.00518524
0.00505783
0.00492032
0.00477505
0.00462492
0.00447146
0.0043168
0.00416214
0.00400911
0.00385856
0.00371087
0.00356788
0.00342628
0.00329397
0.00614934
0.00599506
0.00582709
0.00564856
0.00546284
0.0052722
0.00507942
0.00488588
0.00469373
0.0045044
0.00431896
0.00413857
0.0039631
0.00379572
0.0036305
0.00348116
0.00688517
0.00667485
0.00645411
0.00622592
0.00599333
0.00575856
0.00552408
0.00529147
0.00506268
0.00483917
0.0046218
0.00441193
0.00420938
0.00401739
0.0038294
0.00365768
0.00758329
0.00731993
0.00704935
0.00677426
0.00649737
0.00622088
0.00594692
0.00567724
0.00541364
0.00515747
0.00490975
0.00467178
0.00444336
0.00422681
0.0040174
0.00382261
0.00822303
0.00791096
0.00759482
0.00727689
0.00695958
0.00664493
0.00633494
0.00603124
0.00573565
0.00544948
0.0051738
0.00490985
0.0046575
0.00441866
0.00418967
0.00397671
0.00878252
0.00842743
0.0080712
0.00771572
0.00736307
0.00701509
0.00667359
0.00634018
0.00601654
0.00570405
0.00540379
0.00511695
0.00484346
0.00458522
0.00433859
0.00411056
0.00923909
0.00884808
0.00845866
0.00807231
0.00769075
0.00731558
0.00694841
0.00659079
0.00624427
0.00591027
0.00558988
0.00528427
0.00499348
0.00471926
0.00445824
0.00421712
0.00956607
0.0091485
0.00873482
0.00832615
0.00792379
0.00752917
0.00714363
0.00676868
0.00640577
0.00605634
0.00572149
0.00540238
0.00509917
0.00481334
0.00454213
0.00429094
0.00973987
0.00930785
0.00888112
0.0084605
0.00804708
0.00764211
0.00724682
0.00686266
0.00649102
0.00613336
0.00579081
0.00546448
0.00515464
0.00486259
0.004586
0.00432928
0.00055887
0.000800647
0.0010144
0.00120123
0.00135917
0.00148784
0.00159328
0.00168678
0.00177245
0.0018389
0.00187901
0.00187066
0.000689045
0.000908514
0.00109691
0.00125895
0.00139977
0.00152203
0.00162477
0.00170609
0.00176874
0.00181488
0.00186435
0.00187517
0.000713895
0.000943291
0.00113958
0.0013073
0.00145001
0.00157153
0.00167491
0.00176119
0.00182966
0.00188323
0.00191734
0.00195553
0.00195527
0.00106075
0.00125865
0.00142634
0.00156812
0.0016871
0.00178588
0.00186732
0.00193359
0.0019843
0.00202348
0.00204398
0.00206633
0.00205773
0.00143178
0.0015966
0.00173368
0.00184674
0.00193914
0.00201345
0.00207172
0.00211705
0.00214869
0.00217073
0.00217688
0.00218406
0.00216407
0.00168855
0.00184696
0.00197601
0.00207998
0.00216232
0.00222592
0.00227354
0.00230693
0.00232902
0.00233932
0.00234212
0.00233131
0.00232185
0.00228509
0.00218869
0.00230491
0.00239496
0.00246275
0.00251166
0.00254406
0.00256284
0.00256923
0.00256615
0.00255289
0.00253392
0.00250478
0.00247661
0.00242991
0.00272885
0.00280033
0.00284869
0.00287765
0.00289054
0.00288929
0.00287701
0.0028546
0.00282434
0.00278609
0.00274363
0.0026945
0.00264463
0.00258844
0.00325752
0.00330559
0.00332985
0.00333431
0.00332212
0.00329673
0.00325969
0.00321401
0.0031607
0.00310158
0.00303723
0.00296982
0.00289874
0.00282623
0.00275281
0.00391731
0.00391277
0.00388776
0.00384629
0.00379108
0.00372546
0.00365093
0.00357005
0.00348405
0.00339459
0.00330249
0.00320901
0.00311445
0.00301939
0.00292241
0.00460091
0.00454228
0.0044665
0.00437751
0.0042778
0.00417041
0.00405695
0.00393961
0.00381978
0.00369893
0.00357783
0.00345758
0.00333883
0.0032211
0.00310456
0.00529741
0.00518408
0.00505688
0.00491954
0.00477443
0.00462441
0.00447106
0.00431646
0.00416188
0.00400889
0.00385838
0.00371073
0.00356776
0.00342622
0.00329391
0.00614736
0.00599346
0.00582581
0.00564752
0.00546201
0.00527154
0.00507889
0.00488547
0.00469339
0.00450414
0.00431875
0.0041384
0.00396298
0.00379561
0.00363043
0.0034811
0.00688287
0.00667301
0.00645264
0.00622476
0.00599241
0.00575783
0.0055235
0.00529103
0.00506232
0.0048389
0.00462159
0.00441177
0.00420926
0.00401727
0.00382934
0.00365764
0.00758057
0.00731777
0.00704765
0.00677292
0.00649632
0.00622006
0.00594629
0.00567674
0.00541325
0.00515718
0.00490952
0.00467161
0.00444323
0.00422669
0.00401734
0.00382256
0.00821977
0.00790841
0.00759282
0.00727533
0.00695837
0.006644
0.00633422
0.00603068
0.00573523
0.00544916
0.00517355
0.00490967
0.00465737
0.00441855
0.0041896
0.00397665
0.00877862
0.0084244
0.00806884
0.00771389
0.00736166
0.007014
0.00667276
0.00633954
0.00601606
0.00570369
0.00540352
0.00511674
0.00484332
0.00458511
0.00433851
0.00411051
0.00923447
0.00884451
0.0084559
0.00807018
0.00768911
0.00731433
0.00694746
0.00659007
0.00624372
0.00590987
0.00558958
0.00528405
0.00499332
0.00471914
0.00445816
0.00421706
0.00956077
0.00914442
0.00873168
0.00832373
0.00792195
0.00752776
0.00714256
0.00676788
0.00640517
0.00605589
0.00572117
0.00540214
0.00509899
0.00481321
0.00454204
0.00429088
0.00973406
0.00930339
0.00887768
0.00845787
0.00804507
0.00764057
0.00724566
0.00686178
0.00649037
0.00613288
0.00579045
0.00546422
0.00515446
0.00486246
0.00458591
0.00432922
0.00055938
0.000801168
0.00101496
0.00120185
0.00135985
0.0014885
0.00159387
0.00168728
0.00177294
0.00183936
0.00187953
0.00187086
0.000686998
0.000906745
0.00109532
0.00125755
0.00139853
0.00152098
0.00162393
0.00170535
0.00176805
0.00181419
0.00186376
0.00187466
0.000711941
0.000941703
0.00113826
0.00130617
0.00144902
0.00157067
0.00167418
0.00176057
0.00182915
0.00188279
0.00191697
0.00195521
0.00195501
0.00105919
0.00125741
0.00142534
0.00156731
0.0016864
0.00178531
0.00186681
0.00193316
0.00198395
0.00202318
0.00204377
0.00206616
0.00205764
0.00143023
0.00159536
0.00173266
0.0018459
0.00193843
0.00201286
0.00207124
0.00211662
0.00214834
0.00217044
0.00217663
0.00218385
0.00216394
0.00168678
0.00184547
0.00197478
0.00207896
0.00216148
0.00222521
0.00227296
0.00230647
0.00232861
0.00233899
0.00234184
0.00233107
0.00232166
0.00228496
0.00218703
0.00230353
0.0023938
0.00246178
0.00251084
0.00254338
0.00256229
0.00256879
0.00256576
0.00255259
0.00253366
0.00250458
0.00247646
0.0024298
0.00272726
0.00279898
0.00284757
0.00287671
0.00288975
0.00288865
0.00287646
0.00285418
0.00282398
0.00278582
0.00274342
0.00269432
0.0026445
0.0025884
0.00325567
0.00330402
0.00332852
0.00333321
0.0033212
0.00329596
0.00325908
0.00321349
0.00316029
0.00310124
0.00303697
0.00296962
0.00289859
0.00282612
0.00275279
0.00391547
0.00391121
0.00388646
0.00384519
0.00379019
0.00372472
0.00365034
0.00356955
0.00348366
0.00339428
0.00330224
0.00320882
0.0031143
0.00301929
0.0029224
0.004599
0.00454069
0.00446518
0.00437642
0.00427692
0.00416968
0.00405637
0.00393914
0.00381941
0.00369864
0.0035776
0.00345741
0.0033387
0.00322102
0.00310452
0.00529535
0.00518238
0.00505549
0.00491841
0.00477353
0.00462368
0.00447049
0.004316
0.00416154
0.00400861
0.00385816
0.00371059
0.00356764
0.00342617
0.00329393
0.00614455
0.00599113
0.00582391
0.00564598
0.00546078
0.00527057
0.00507812
0.00488489
0.00469294
0.00450381
0.00431849
0.00413821
0.00396285
0.00379551
0.0036304
0.00348115
0.00687953
0.00667028
0.00645045
0.006223
0.00599103
0.00575676
0.00552267
0.0052904
0.00506185
0.00483855
0.00462134
0.0044116
0.00420915
0.00401718
0.00382931
0.00365767
0.00757652
0.00731451
0.00704506
0.00677088
0.00649474
0.00621884
0.00594537
0.00567605
0.00541274
0.00515681
0.00490926
0.00467144
0.00444313
0.00422662
0.00401732
0.0038226
0.0082148
0.00790448
0.00758974
0.00727294
0.00695652
0.0066426
0.00633316
0.0060299
0.00573465
0.00544875
0.00517328
0.00490948
0.00465726
0.00441849
0.00418959
0.00397668
0.00877254
0.00841966
0.00806517
0.00771107
0.00735951
0.00701238
0.00667156
0.00633866
0.00601542
0.00570324
0.00540322
0.00511655
0.00484321
0.00458505
0.00433851
0.00411056
0.00922713
0.00883887
0.00845157
0.00806689
0.00768663
0.00731248
0.00694609
0.00658907
0.00624301
0.00590937
0.00558925
0.00528384
0.0049932
0.00471909
0.00445816
0.00421711
0.00955223
0.00913791
0.00872673
0.00831999
0.00791914
0.00752567
0.00714103
0.00676677
0.00640438
0.00605535
0.00572081
0.00540192
0.00509886
0.00481316
0.00454203
0.00429092
0.00972463
0.00929623
0.00887226
0.00845378
0.00804201
0.00763831
0.007244
0.00686058
0.00648952
0.00613229
0.00579007
0.00546398
0.00515432
0.0048624
0.0045859
0.00432924
0.000560895
0.000802564
0.00101635
0.00120325
0.00136121
0.00148975
0.00159497
0.00168821
0.00177385
0.00184021
0.00188043
0.00187126
0.000684889
0.000904906
0.00109365
0.00125608
0.00139722
0.00151987
0.00162301
0.00170454
0.00176728
0.0018134
0.00186307
0.00187406
0.000709885
0.000940017
0.00113686
0.00130494
0.00144795
0.00156972
0.00167338
0.00175989
0.00182858
0.0018823
0.00191654
0.00195485
0.00195469
0.00105765
0.00125618
0.00142436
0.0015665
0.00168571
0.00178473
0.0018663
0.00193271
0.00198362
0.00202288
0.00204357
0.00206598
0.00205756
0.00142864
0.00159407
0.00173159
0.00184502
0.00193768
0.00201224
0.00207074
0.00211615
0.00214795
0.00217012
0.00217636
0.0021836
0.00216384
0.00168491
0.00184388
0.00197344
0.00207784
0.00216055
0.00222443
0.00227231
0.00230594
0.00232812
0.00233859
0.00234151
0.0023308
0.00232143
0.00228487
0.00218527
0.00230202
0.00239251
0.00246069
0.00250991
0.0025426
0.00256163
0.00256827
0.00256528
0.00255221
0.00253335
0.00250433
0.00247626
0.00242971
0.00272556
0.00279749
0.00284629
0.00287561
0.00288881
0.00288787
0.00287577
0.00285362
0.00282352
0.00278548
0.00274314
0.00269409
0.00264432
0.00258838
0.00325377
0.00330234
0.00332703
0.00333192
0.0033201
0.00329501
0.00325831
0.00321281
0.00315975
0.00310079
0.00303662
0.00296935
0.00289839
0.00282597
0.00275281
0.00391359
0.00390952
0.00388499
0.00384392
0.00378911
0.00372379
0.00364958
0.0035689
0.00348313
0.00339386
0.00330189
0.00320854
0.00311408
0.00301913
0.00292241
0.00459705
0.00453897
0.0044637
0.00437513
0.00427586
0.00416877
0.00405563
0.0039385
0.00381889
0.00369822
0.00357726
0.00345715
0.00333849
0.00322087
0.00310448
0.00529323
0.00518053
0.00505392
0.00491706
0.00477242
0.00462275
0.00446974
0.00431537
0.00416104
0.0040082
0.00385782
0.00371033
0.00356744
0.00342603
0.00329396
0.00614177
0.0059887
0.00582182
0.00564422
0.00545931
0.00526936
0.00507712
0.0048841
0.00469229
0.00450329
0.00431809
0.00413788
0.00396261
0.00379531
0.00363027
0.00348119
0.00687613
0.00666736
0.006448
0.00622095
0.00598935
0.00575539
0.00552157
0.00528953
0.00506116
0.004838
0.00462092
0.00441129
0.00420892
0.00401698
0.00382918
0.00365771
0.00757222
0.00731089
0.00704207
0.00676844
0.00649276
0.00621727
0.00594412
0.00567507
0.00541197
0.00515623
0.00490882
0.0046711
0.00444289
0.00422643
0.0040172
0.00382261
0.00820926
0.00789993
0.00758605
0.00726998
0.00695418
0.00664075
0.00633173
0.00602879
0.0057338
0.00544811
0.00517279
0.00490913
0.00465701
0.00441831
0.00418947
0.00397666
0.0087654
0.00841394
0.00806062
0.00770749
0.00735672
0.00701023
0.0066699
0.0063374
0.00601447
0.00570253
0.00540269
0.00511617
0.00484294
0.00458487
0.00433839
0.00411054
0.00921815
0.0088318
0.00844605
0.00806262
0.00768335
0.00730998
0.0069442
0.00658765
0.00624196
0.00590859
0.00558869
0.00528344
0.00499293
0.0047189
0.00445804
0.00421708
0.00954139
0.00912953
0.00872028
0.00831505
0.00791539
0.00752285
0.00713892
0.0067652
0.00640323
0.00605451
0.00572021
0.0054015
0.00509858
0.00481297
0.00454192
0.00429087
0.00971246
0.00928688
0.00886511
0.00844834
0.00803791
0.00763523
0.00724172
0.0068589
0.0064883
0.00613141
0.00578944
0.00546354
0.00515402
0.0048622
0.00458577
0.00432918
0.000563542
0.000804933
0.00101863
0.00120549
0.00136331
0.00149167
0.00159665
0.00168964
0.00177522
0.0018415
0.00188173
0.00187187
0.000682858
0.000903105
0.001092
0.00125459
0.00139589
0.00151871
0.00162206
0.00170368
0.00176648
0.00181254
0.0018623
0.00187336
0.00070791
0.000938358
0.00113547
0.0013037
0.00144684
0.00156873
0.00167254
0.00175917
0.00182796
0.00188176
0.00191605
0.00195443
0.00195433
0.00105641
0.00125516
0.00142353
0.00156581
0.00168512
0.00178423
0.00186585
0.00193231
0.00198332
0.00202263
0.00204339
0.00206581
0.00205751
0.00142731
0.00159296
0.00173067
0.00184425
0.00193701
0.00201166
0.00207027
0.00211571
0.00214757
0.00216981
0.00217611
0.00218334
0.00216377
0.00168341
0.0018425
0.00197226
0.00207682
0.00215969
0.0022237
0.00227168
0.00230542
0.00232764
0.00233816
0.00234116
0.00233052
0.00232116
0.00228482
0.00218386
0.00230073
0.00239137
0.00245969
0.00250903
0.00254185
0.00256098
0.00256774
0.00256478
0.0025518
0.00253301
0.00250405
0.00247603
0.00242965
0.00272421
0.00279622
0.00284515
0.0028746
0.0028879
0.0028871
0.00287507
0.00285303
0.00282302
0.0027851
0.00274283
0.00269384
0.00264411
0.00258842
0.0032524
0.00330099
0.00332575
0.00333074
0.00331905
0.00329406
0.00325752
0.00321209
0.00315914
0.0031003
0.00303622
0.00296903
0.00289817
0.00282579
0.00275291
0.00391224
0.00390818
0.00388372
0.00384273
0.00378805
0.00372284
0.00364878
0.00356819
0.00348254
0.00339338
0.0033015
0.00320823
0.00311383
0.00301892
0.00292249
0.00459566
0.00453759
0.00446242
0.00437394
0.00427481
0.00416783
0.00405484
0.00393782
0.0038183
0.00369775
0.00357687
0.00345682
0.00333825
0.00322067
0.00310449
0.00529169
0.00517903
0.00505256
0.00491581
0.00477134
0.0046218
0.00446894
0.00431468
0.00416048
0.00400773
0.00385742
0.00371002
0.00356719
0.00342584
0.00329402
0.00613989
0.00598685
0.00582009
0.00564267
0.00545792
0.00526818
0.00507608
0.00488326
0.00469158
0.0045027
0.0043176
0.00413747
0.0039623
0.00379506
0.00363007
0.00348128
0.00687364
0.00666501
0.00644587
0.00621908
0.00598773
0.00575402
0.00552041
0.00528859
0.00506037
0.00483736
0.00462041
0.00441088
0.0042086
0.0040167
0.00382898
0.00365777
0.00756877
0.00730778
0.00703935
0.00676612
0.0064908
0.00621564
0.00594278
0.00567398
0.00541108
0.00515552
0.00490826
0.00467065
0.00444254
0.00422616
0.00401699
0.00382262
0.0082044
0.00789574
0.00758251
0.00726704
0.00695176
0.0066388
0.00633016
0.00602754
0.00573279
0.00544733
0.00517218
0.00490864
0.00465664
0.00441804
0.00418925
0.0039766
0.00875865
0.00840833
0.00805603
0.00770379
0.00735375
0.00700788
0.00666806
0.00633595
0.00601334
0.00570167
0.00540202
0.00511566
0.00484256
0.00458459
0.00433818
0.00411048
0.00920908
0.00882449
0.00844023
0.00805803
0.00767976
0.00730719
0.00694206
0.00658601
0.0062407
0.00590764
0.00558797
0.0052829
0.00499253
0.00471861
0.00445783
0.00421699
0.00952992
0.00912049
0.00871322
0.00830959
0.0079112
0.00751965
0.00713651
0.00676338
0.00640187
0.00605349
0.00571945
0.00540094
0.00509816
0.00481267
0.0045417
0.00429075
0.00969925
0.00927658
0.00885715
0.00844224
0.00803327
0.00763174
0.0072391
0.00685694
0.00648685
0.00613033
0.00578864
0.00546296
0.0051536
0.0048619
0.00458555
0.00432902
0.000567446
0.000808377
0.00102186
0.00120863
0.00136621
0.0014943
0.00159896
0.00169163
0.00177708
0.00184327
0.00188347
0.0018727
0.00068113
0.000901518
0.00109051
0.00125319
0.00139463
0.00151758
0.0016211
0.00170278
0.00176566
0.00181164
0.00186143
0.00187256
0.000706172
0.000936828
0.00113414
0.00130246
0.00144571
0.00156769
0.00167164
0.00175841
0.00182727
0.00188115
0.00191547
0.00195394
0.0019539
0.00105566
0.0012545
0.00142297
0.00156531
0.00168467
0.00178384
0.0018655
0.00193197
0.00198308
0.00202243
0.00204325
0.00206567
0.00205745
0.0014265
0.00159223
0.00173002
0.00184369
0.00193648
0.00201118
0.00206987
0.00211533
0.00214723
0.00216952
0.00217589
0.00218307
0.00216372
0.0016826
0.00184161
0.00197142
0.00207604
0.002159
0.00222309
0.00227113
0.00230495
0.00232718
0.00233774
0.00234081
0.00233025
0.00232087
0.00228482
0.00218316
0.00229994
0.00239057
0.00245894
0.00250833
0.00254121
0.00256039
0.00256724
0.00256429
0.00255138
0.00253266
0.00250377
0.00247577
0.00242965
0.00272357
0.00279545
0.00284435
0.00287382
0.00288714
0.00288643
0.00287442
0.00285245
0.00282251
0.0027847
0.00274249
0.00269358
0.00264387
0.00258852
0.00325206
0.00330036
0.00332496
0.00332989
0.00331822
0.00329322
0.00325678
0.0032114
0.00315853
0.00309978
0.00303579
0.00296868
0.00289794
0.00282558
0.0027531
0.00391194
0.00390756
0.00388293
0.00384187
0.00378719
0.00372198
0.00364802
0.00356749
0.00348192
0.00339286
0.00330107
0.00320788
0.00311356
0.00301869
0.00292265
0.00459536
0.00453695
0.00446164
0.00437307
0.00427396
0.004167
0.0040541
0.00393715
0.00381769
0.00369724
0.00357646
0.00345646
0.00333797
0.00322043
0.00310458
0.00529129
0.00517831
0.00505171
0.00491491
0.00477046
0.00462097
0.0044682
0.00431401
0.00415991
0.00400723
0.00385698
0.00370965
0.00356692
0.0034256
0.00329415
0.0061397
0.0059862
0.00581917
0.00564166
0.00545689
0.00526722
0.00507517
0.00488247
0.00469089
0.00450209
0.00431709
0.00413703
0.00396195
0.00379477
0.00362982
0.00348145
0.00687292
0.0066639
0.0064446
0.00621779
0.00598648
0.00575289
0.00551937
0.0052877
0.0050596
0.00483669
0.00461986
0.00441043
0.00420823
0.00401638
0.00382871
0.0036579
0.00756713
0.00730593
0.0070375
0.00676437
0.00648922
0.00621423
0.00594156
0.00567295
0.00541019
0.00515478
0.00490765
0.00467015
0.00444212
0.00422583
0.00401672
0.00382266
0.00820132
0.00789277
0.00757979
0.00726465
0.0069497
0.00663704
0.0063287
0.00602633
0.00573178
0.00544651
0.00517151
0.00490809
0.0046562
0.0044177
0.00418896
0.00397654
0.00875349
0.00840379
0.00805214
0.00770054
0.00735107
0.00700569
0.0066663
0.00633454
0.00601219
0.00570075
0.00540129
0.00511507
0.00484209
0.00458423
0.00433789
0.0041104
0.00920126
0.00881798
0.0084349
0.00805374
0.00767636
0.00730451
0.00693997
0.00658437
0.00623942
0.00590664
0.00558719
0.00528229
0.00499205
0.00471824
0.00445754
0.00421687
0.0095192
0.00911186
0.00870639
0.00830425
0.00790708
0.00751649
0.0071341
0.00676154
0.00640047
0.00605242
0.00571862
0.0054003
0.00509768
0.0048123
0.00454141
0.00429057
0.00968642
0.00926642
0.00884923
0.00843615
0.00802863
0.00762823
0.00723647
0.00685496
0.00648536
0.00612921
0.00578779
0.00546232
0.0051531
0.00486151
0.00458526
0.00432881
0.000572455
0.000812779
0.00102595
0.00121257
0.00136983
0.00149761
0.00160191
0.00169421
0.00177945
0.00184552
0.00188566
0.00187372
0.000679842
0.000900258
0.00108926
0.00125197
0.00139349
0.00151653
0.00162016
0.00170188
0.00176483
0.00181074
0.0018605
0.00187163
0.000704671
0.000935412
0.00113285
0.0013012
0.00144452
0.00156658
0.00167064
0.00175757
0.00182646
0.00188043
0.00191476
0.00195333
0.00195335
0.00105544
0.00125421
0.00142268
0.001565
0.00168437
0.00178355
0.00186524
0.00193171
0.00198287
0.00202228
0.00204314
0.00206554
0.00205737
0.00142629
0.00159191
0.00172968
0.00184334
0.0019361
0.0020108
0.00206954
0.00211499
0.00214693
0.00216926
0.0021757
0.00218279
0.00216369
0.00168262
0.00184131
0.001971
0.00207556
0.00215851
0.00222262
0.00227066
0.00230453
0.00232676
0.00233733
0.00234045
0.00232999
0.00232054
0.00228487
0.00218335
0.00229977
0.00239022
0.0024585
0.00250785
0.00254072
0.00255989
0.0025668
0.00256384
0.00255097
0.00253229
0.00250347
0.00247547
0.00242969
0.00272388
0.00279536
0.00284402
0.00287337
0.00288661
0.0028859
0.00287386
0.00285191
0.002822
0.00278429
0.00274213
0.00269331
0.00264361
0.00258868
0.0032531
0.00330073
0.0033249
0.00332953
0.00331772
0.00329261
0.00325618
0.00321078
0.00315794
0.00309925
0.00303535
0.00296829
0.00289768
0.00282534
0.00275338
0.00391311
0.00390801
0.00388289
0.00384151
0.00378666
0.00372133
0.00364737
0.00356684
0.00348132
0.00339233
0.00330063
0.0032075
0.00311328
0.00301841
0.0029229
0.00459664
0.00453745
0.00446165
0.00437273
0.00427344
0.00416637
0.00405346
0.00393653
0.00381711
0.00369671
0.00357602
0.00345608
0.00333768
0.00322015
0.00310476
0.00529259
0.0051788
0.00505171
0.00491457
0.00476996
0.00462036
0.0044676
0.00431342
0.00415936
0.00400675
0.00385654
0.00370926
0.00356663
0.00342533
0.00329437
0.00614198
0.00598736
0.00581954
0.00564156
0.00545648
0.00526667
0.00507453
0.00488185
0.0046903
0.00450153
0.00431659
0.00413659
0.00396157
0.00379447
0.00362953
0.00348171
0.00687483
0.00666472
0.0064447
0.00621747
0.0059859
0.00575221
0.00551864
0.005287
0.00505894
0.00483607
0.00461932
0.00440997
0.00420784
0.00401603
0.00382839
0.00365813
0.00756826
0.0073061
0.00703709
0.00676365
0.00648835
0.00621333
0.00594068
0.00567213
0.00540943
0.0051541
0.00490706
0.00466964
0.00444168
0.00422547
0.00401639
0.00382277
0.00820105
0.00789185
0.00757854
0.00726331
0.00694839
0.00663581
0.00632758
0.00602535
0.0057309
0.00544575
0.00517086
0.00490752
0.00465572
0.00441732
0.00418861
0.00397651
0.00875107
0.00840122
0.00804966
0.0076983
0.00734912
0.00700402
0.00666488
0.00633336
0.0060112
0.00569992
0.00540059
0.00511448
0.0048416
0.00458384
0.00433755
0.00411033
0.00919588
0.00881318
0.0084308
0.00805034
0.00767359
0.0073023
0.0069382
0.00658297
0.0062383
0.00590573
0.00558644
0.00528168
0.00499155
0.00471784
0.0044572
0.00421674
0.00951042
0.00910454
0.00870047
0.00829958
0.00790346
0.00751371
0.00713198
0.00675992
0.00639922
0.00605145
0.00571785
0.00539969
0.00509718
0.00481189
0.00454108
0.00429037
0.00967519
0.00925729
0.00884202
0.00843058
0.00802442
0.00762507
0.00723412
0.00685321
0.00648405
0.00612821
0.00578701
0.00546171
0.00515261
0.00486111
0.00458493
0.00432855
0.000578213
0.000817857
0.00103067
0.0012171
0.00137404
0.00150151
0.00160544
0.00169737
0.0017823
0.00184823
0.00188828
0.00187489
0.000679092
0.000899413
0.00108835
0.00125102
0.00139255
0.00151562
0.00161929
0.001701
0.00176403
0.00180988
0.00185953
0.00187059
0.000703337
0.000934046
0.00113152
0.00129986
0.00144319
0.00156533
0.00166949
0.00175659
0.0018255
0.00187954
0.0019139
0.00195256
0.00195264
0.00105567
0.00125422
0.0014226
0.00156484
0.00168416
0.00178333
0.00186502
0.00193148
0.00198266
0.00202215
0.00204303
0.00206542
0.00205722
0.00142665
0.00159199
0.00172961
0.00184318
0.00193586
0.00201051
0.00206926
0.00211469
0.00214665
0.00216899
0.00217551
0.00218252
0.00216363
0.00168345
0.0018416
0.00197098
0.00207536
0.0021582
0.00222227
0.00227026
0.00230413
0.00232634
0.00233692
0.00234006
0.00232973
0.00232018
0.00228493
0.00218448
0.00230028
0.00239034
0.00245837
0.00250758
0.00254039
0.00255948
0.0025664
0.00256341
0.00255056
0.0025319
0.00250316
0.00247512
0.00242976
0.00272526
0.00279604
0.00284424
0.0028733
0.00288633
0.00288553
0.0028734
0.00285142
0.00282151
0.00278387
0.00274174
0.00269301
0.0026433
0.00258888
0.00325574
0.00330229
0.00332569
0.00332977
0.00331763
0.00329226
0.00325574
0.00321025
0.00315739
0.00309873
0.00303489
0.00296787
0.00289738
0.00282505
0.00275374
0.00391608
0.00390979
0.00388381
0.00384182
0.00378659
0.00372096
0.00364688
0.00356629
0.00348075
0.00339178
0.00330015
0.00320708
0.00311298
0.00301809
0.00292326
0.00459994
0.00453943
0.00446272
0.00437314
0.00427342
0.00416606
0.00405301
0.00393602
0.00381656
0.00369618
0.00357557
0.00345566
0.00333736
0.00321982
0.00310503
0.00529614
0.00518094
0.00505289
0.00491505
0.00477001
0.00462011
0.00446721
0.00431297
0.00415888
0.00400628
0.0038561
0.00370885
0.00356632
0.00342503
0.0032947
0.00614759
0.00599101
0.00582174
0.00564277
0.00545699
0.00526676
0.00507431
0.00488149
0.00468988
0.00450107
0.00431614
0.00413617
0.0039612
0.00379417
0.00362921
0.0034821
0.00688037
0.00666826
0.00644679
0.00621858
0.00598635
0.00575225
0.0055184
0.00528662
0.0050585
0.00483559
0.00461886
0.00440954
0.00420746
0.00401568
0.00382803
0.00365847
0.00757327
0.00730917
0.00703881
0.00676448
0.00648861
0.00621322
0.00594035
0.0056717
0.00540893
0.00515357
0.00490657
0.00466917
0.00444124
0.00422511
0.00401603
0.00382298
0.00820483
0.00789392
0.0075795
0.00726358
0.00694825
0.00663544
0.00632708
0.00602481
0.00573032
0.00544517
0.00517033
0.00490702
0.00465525
0.00441694
0.00418823
0.00397654
0.00875266
0.0084016
0.00804936
0.00769767
0.00734836
0.00700323
0.00666411
0.00633264
0.00601052
0.00569929
0.00540003
0.00511396
0.00484114
0.00458345
0.00433718
0.00411031
0.00919425
0.0088111
0.00842869
0.00804842
0.00767195
0.00730093
0.00693707
0.00658204
0.00623751
0.00590505
0.00558586
0.00528116
0.0049911
0.00471745
0.00445685
0.00421665
0.00950501
0.00909957
0.00869623
0.00829616
0.0079008
0.00751169
0.00713046
0.00675877
0.00639833
0.00605073
0.00571726
0.00539918
0.00509674
0.00481151
0.00454074
0.00429018
0.0096671
0.00925025
0.00883628
0.00842611
0.00802106
0.00762262
0.00723236
0.00685194
0.0064831
0.00612749
0.00578643
0.00546122
0.00515219
0.00486074
0.0045846
0.00432829
0.000584249
0.000823233
0.00103569
0.00122193
0.00137861
0.00150583
0.00160948
0.00170105
0.00178559
0.00185134
0.00189129
0.00187614
0.000678966
0.000899062
0.00108786
0.00125043
0.0013919
0.00151492
0.00161855
0.00170022
0.0017633
0.00180912
0.00185859
0.00186944
0.000702119
0.000932677
0.00113011
0.00129839
0.0014417
0.0015639
0.00166814
0.00175542
0.00182434
0.00187844
0.00191285
0.0019516
0.00195172
0.00105624
0.00125446
0.00142266
0.00156475
0.00168399
0.00178313
0.00186481
0.00193127
0.00198244
0.002022
0.0020429
0.00206527