/*--------------------------------*- C++ -*----------------------------------*\
  =========                 |
  \\      /  F ield         | OpenFOAM: The Open Source CFD Toolbox
   \\    /   O peration     | Website:  https://openfoam.org
    \\  /    A nd           | Version:  6
     \\/     M anipulation  |
\*---------------------------------------------------------------------------*/
FoamFile
{
    version     2.0;
    format      ascii;
    class       volVectorField;
    location    "1.8";
    object      U;
}
// * * * * * * * * * * * * * * * * * * * * * * * * * * * * * * * * * * * * * //

dimensions      [0 1 -1 0 0 0 0];

internalField   nonuniform List<vector> 
63552
(
(0.129853 -0.0938074 0.000313479)
(0.133389 -0.105165 -0.000204899)
(0.134811 -0.116609 1.51809e-05)
(0.136954 -0.129813 -0.000372664)
(0.137951 -0.144218 8.7462e-05)
(0.140898 -0.160723 -0.0001483)
(0.14411 -0.178545 -0.000315451)
(0.148652 -0.197373 -0.000334673)
(0.153221 -0.21859 -9.78076e-05)
(0.160608 -0.240692 -0.000114936)
(0.167508 -0.268757 -0.000491426)
(0.178226 -0.302786 -0.00172436)
(0.197871 -0.33747 -0.00404185)
(0.235021 -0.341533 -0.0074862)
(0.202238 -0.260352 -0.00795719)
(0.120003 -0.0944649 0.00114296)
(0.12477 -0.106478 8.01511e-05)
(0.126227 -0.118195 -0.00012335)
(0.127622 -0.131364 1.82979e-05)
(0.127631 -0.145697 -5.36829e-05)
(0.130324 -0.162221 -4.47951e-05)
(0.133329 -0.180116 -0.000377108)
(0.136669 -0.198574 -0.000327599)
(0.140055 -0.219436 -3.75555e-05)
(0.145713 -0.241266 0.000371502)
(0.150922 -0.26877 -0.000522763)
(0.159284 -0.301951 -0.0018816)
(0.177088 -0.334987 -0.00505596)
(0.212235 -0.33876 -0.00758503)
(0.185656 -0.259325 -0.00762817)
(0.115035 -0.105956 0.000500783)
(0.115992 -0.117753 0.000229861)
(0.116415 -0.130742 0.000151924)
(0.116061 -0.145048 0.000211611)
(0.119067 -0.161948 -0.000127576)
(0.121483 -0.179687 -5.76769e-05)
(0.123716 -0.197588 -0.000288291)
(0.126054 -0.218077 -0.000280862)
(0.130266 -0.239782 -0.000121041)
(0.133824 -0.266414 -0.00090556)
(0.13984 -0.298536 -0.00122916)
(0.15557 -0.330107 -0.00443929)
(0.188738 -0.334774 -0.00758106)
(0.168729 -0.257321 -0.00798947)
(0.104992 -0.105164 0.000613701)
(0.104896 -0.116684 0.000225035)
(0.105061 -0.129694 0.000413388)
(0.103822 -0.143659 0.000688365)
(0.107706 -0.160947 -0.000417877)
(0.109576 -0.178418 -0.000213168)
(0.11087 -0.195884 -0.000615191)
(0.111994 -0.215796 -7.34662e-05)
(0.114781 -0.237069 -0.000444084)
(0.116719 -0.262647 -0.000672729)
(0.120283 -0.294268 -0.000731905)
(0.134326 -0.324426 -0.00338906)
(0.165549 -0.329268 -0.00815819)
(0.15101 -0.252854 -0.00889724)
(0.0934858 -0.114919 0.00091884)
(0.091581 -0.126984 0.00125394)
(0.0911914 -0.141078 0.000853546)
(0.0961842 -0.158764 -3.85599e-05)
(0.0969864 -0.175625 -0.000373265)
(0.0976107 -0.192742 -0.00067641)
(0.0974744 -0.212027 -0.000297039)
(0.0990919 -0.232603 -0.000779454)
(0.0993411 -0.257442 -3.50044e-05)
(0.100827 -0.288095 -0.00175289)
(0.113122 -0.316783 -0.00349389)
(0.142251 -0.321415 -0.0087421)
(0.133069 -0.246723 -0.00968693)
(0.0796334 -0.111216 0.00079572)
(0.0789319 -0.123675 0.000504415)
(0.0801049 -0.13815 -0.000502045)
(0.0836692 -0.155028 0.000456628)
(0.0845452 -0.171829 -0.000518723)
(0.084224 -0.18836 -0.000484761)
(0.083212 -0.207031 -0.000931816)
(0.0835548 -0.226677 -0.000928475)
(0.0819648 -0.250728 -0.000192956)
(0.0815026 -0.279716 -0.00206168)
(0.0920507 -0.307317 -0.00430392)
(0.119698 -0.312089 -0.00816051)
(0.115019 -0.238978 -0.0093404)
(0.0732267 -0.109701 -0.000181852)
(0.0712322 -0.121455 -0.00024341)
(0.0709568 -0.135302 -0.000195446)
(0.0710204 -0.15014 -0.000335786)
(0.0716039 -0.166562 -0.000244292)
(0.070448 -0.182647 -0.000232777)
(0.0688978 -0.2005 -0.000780109)
(0.0680554 -0.219285 -0.00101063)
(0.0649255 -0.242283 -0.000957392)
(0.0626033 -0.269668 -0.00226584)
(0.0714502 -0.295169 -0.00492848)
(0.0975343 -0.301065 -0.0078895)
(0.097572 -0.229778 -0.00898517)
(0.0600265 -0.116964 1.61916e-05)
(0.057856 -0.129644 0.000484762)
(0.0597093 -0.144908 0.000183695)
(0.0581969 -0.159972 0.00069948)
(0.0566809 -0.175491 -4.11828e-05)
(0.0545874 -0.192612 -0.00047631)
(0.0529572 -0.210527 -0.000932878)
(0.0483983 -0.232 -0.00125729)
(0.0442951 -0.258014 -0.0021606)
(0.0516141 -0.282178 -0.00487342)
(0.0759893 -0.287554 -0.00891163)
(0.0808138 -0.218892 -0.00947449)
(0.0516521 -0.11259 -0.000345657)
(0.0490705 -0.124681 -0.000531639)
(0.0458789 -0.137198 0.00048973)
(0.0439087 -0.151587 0.000732958)
(0.042896 -0.166825 0.000237389)
(0.0403518 -0.183079 -0.000219026)
(0.0380125 -0.200162 -0.00101924)
(0.0323329 -0.220201 -0.00125331)
(0.0265429 -0.24472 -0.00237045)
(0.0324569 -0.266858 -0.00548659)
(0.0553928 -0.272483 -0.00873119)
(0.0646179 -0.206666 -0.00922287)
(0.0428435 -0.106856 -0.000374989)
(0.038869 -0.11794 -0.000418884)
(0.036376 -0.130256 -0.000716488)
(0.0323765 -0.142938 -0.000679199)
(0.0296511 -0.15681 -0.000206989)
(0.0263698 -0.172157 -0.000311957)
(0.0237795 -0.188351 -0.00088964)
(0.0169588 -0.207106 -0.00127394)
(0.00972903 -0.229536 -0.00302303)
(0.0143773 -0.249957 -0.0054521)
(0.0357863 -0.255429 -0.00895255)
(0.049507 -0.193182 -0.00854866)
(0.0346206 -0.100245 -0.000362849)
(0.030057 -0.110506 -0.000502485)
(0.0257636 -0.121377 -0.000555784)
(0.0218599 -0.133409 -0.000834791)
(0.0178232 -0.145969 -0.00103484)
(0.0134398 -0.15999 -0.000774276)
(0.00974347 -0.175063 -0.000551776)
(0.00234802 -0.192363 -0.00165423)
(-0.00582436 -0.212649 -0.00297128)
(-0.00279543 -0.231732 -0.00529771)
(0.0174039 -0.236602 -0.00944697)
(0.0355548 -0.178383 -0.00827297)
(0.0215765 -0.10198 -0.000589172)
(0.0169028 -0.111963 -0.000744574)
(0.0114889 -0.122581 -0.000762292)
(0.00707384 -0.134141 -0.00102023)
(0.00132591 -0.146611 -0.00112956)
(-0.00341003 -0.160321 -0.001214)
(-0.0111843 -0.17631 -0.00156107)
(-0.0206393 -0.194708 -0.00248624)
(-0.0187268 -0.211808 -0.00569892)
(0.000439075 -0.216172 -0.00939756)
(0.0227945 -0.161775 -0.00931691)
(0.013766 -0.0925047 -0.000606516)
(0.00836894 -0.101396 -0.000773999)
(0.00255881 -0.110971 -0.000965793)
(-0.00316233 -0.121098 -0.00104404)
(-0.00936083 -0.132319 -0.00135824)
(-0.0151816 -0.144514 -0.00135818)
(-0.0241776 -0.158841 -0.00131067)
(-0.0343764 -0.175348 -0.00281278)
(-0.0332126 -0.190411 -0.00590984)
(-0.0149828 -0.194525 -0.00920265)
(0.0110153 -0.145297 -0.00995243)
(0.00669641 -0.0821448 -0.00065635)
(0.00070332 -0.0899325 -0.000809317)
(-0.00573732 -0.0982937 -0.000961717)
(-0.011936 -0.107206 -0.00120436)
(-0.0192961 -0.116882 -0.00120584)
(-0.0261892 -0.127517 -0.00145322)
(-0.0358811 -0.14018 -0.00184456)
(-0.0464173 -0.15467 -0.00325294)
(-0.0461638 -0.167692 -0.00625774)
(-0.0288038 -0.171435 -0.00951869)
(0.000620828 -0.127398 -0.00811799)
(0.000395768 -0.0709655 -0.000689485)
(-0.00604568 -0.077627 -0.000855843)
(-0.0130881 -0.0847493 -0.00101153)
(-0.0199066 -0.0923388 -0.00119184)
(-0.0276968 -0.100631 -0.00146371)
(-0.0352861 -0.109651 -0.00179685)
(-0.0460584 -0.120415 -0.00210681)
(-0.0571438 -0.132845 -0.00331433)
(-0.057304 -0.143865 -0.00643105)
(-0.0407579 -0.147171 -0.00952996)
(-0.00798821 -0.10884 -0.0101037)
(-0.00492978 -0.0590884 -0.000721095)
(-0.0118332 -0.0645724 -0.000890906)
(-0.0192428 -0.0704519 -0.00105845)
(-0.0266077 -0.0766895 -0.00125835)
(-0.0350007 -0.0834788 -0.00140476)
(-0.0432599 -0.0909096 -0.00169273)
(-0.0547445 -0.0997928 -0.00221362)
(-0.0665457 -0.11008 -0.00338955)
(-0.0671518 -0.119192 -0.00624722)
(-0.0510077 -0.121811 -0.00960632)
(-0.0155106 -0.0896927 -0.00999757)
(-0.00934206 -0.0466028 -0.00074737)
(-0.0165571 -0.0508964 -0.000921175)
(-0.0243555 -0.0554848 -0.00109147)
(-0.0320634 -0.0603673 -0.00129456)
(-0.0408608 -0.0656853 -0.00148571)
(-0.0496436 -0.0714751 -0.00181168)
(-0.0617675 -0.0784159 -0.00230874)
(-0.0741271 -0.0864728 -0.00362928)
(-0.075164 -0.0935931 -0.00662609)
(-0.05911 -0.0955531 -0.0103156)
(-0.0214423 -0.0701886 -0.0103861)
(-0.0126759 -0.0336403 -0.000769327)
(-0.0201603 -0.0367186 -0.000946608)
(-0.0282078 -0.040014 -0.00112099)
(-0.0362416 -0.0435089 -0.00132818)
(-0.0453411 -0.047314 -0.00151307)
(-0.054485 -0.0514656 -0.00184428)
(-0.0670931 -0.0564496 -0.00238432)
(-0.0798512 -0.0622258 -0.00376788)
(-0.0811873 -0.0673043 -0.00687056)
(-0.0652756 -0.0687275 -0.0104172)
(-0.0259384 -0.0503608 -0.0105546)
(-0.0225999 -0.0221788 -0.000967007)
(-0.0308252 -0.0241605 -0.00114584)
(-0.0390457 -0.0262625 -0.00135726)
(-0.0483512 -0.0285555 -0.00154709)
(-0.0577476 -0.0310436 -0.00189222)
(-0.0706776 -0.0340468 -0.00244764)
(-0.0836984 -0.0375309 -0.00387814)
(-0.0852295 -0.0405662 -0.007079)
(-0.0693688 -0.0414212 -0.0107383)
(-0.0288996 -0.0302684 -0.0107197)
(-0.0238226 -0.00743215 -0.000981923)
(-0.0321351 -0.00809429 -0.00116464)
(-0.0404558 -0.00879563 -0.00138114)
(-0.0498607 -0.00956106 -0.00157519)
(-0.0593793 -0.0103898 -0.00193316)
(-0.0724849 -0.0113958 -0.00250336)
(-0.0856322 -0.0125628 -0.00396404)
(-0.0872559 -0.0135694 -0.00723776)
(-0.0714015 -0.0138524 -0.0109696)
(-0.0303445 -0.0100871 -0.0108977)
(0.183489 -0.115372 -0.0012343)
(0.181552 -0.126477 -0.000611523)
(0.180301 -0.139184 -0.000447922)
(0.17914 -0.15317 -0.000217415)
(0.178827 -0.169358 -0.000450655)
(0.179636 -0.186821 -0.000487988)
(0.180691 -0.205702 -0.000607121)
(0.183729 -0.225233 -0.000930905)
(0.186323 -0.246156 -0.00137161)
(0.193118 -0.2669 -0.00186063)
(0.200519 -0.291707 -0.00180906)
(0.211123 -0.318263 -0.003569)
(0.225605 -0.348917 -0.00840076)
(0.255389 -0.361821 -0.0162626)
(0.218123 -0.293168 -0.0167644)
(0.177723 -0.117445 -0.00157937)
(0.174124 -0.128065 -0.000935562)
(0.17166 -0.140521 -0.000595342)
(0.16978 -0.154467 -0.000582144)
(0.168949 -0.17066 -0.000743281)
(0.168761 -0.187681 -0.000795238)
(0.168377 -0.205753 -0.000841852)
(0.170312 -0.224883 -0.00116552)
(0.171901 -0.245459 -0.0016611)
(0.177305 -0.265983 -0.00230028)
(0.18288 -0.290012 -0.00212146)
(0.191158 -0.316257 -0.00390221)
(0.203718 -0.345815 -0.00865969)
(0.231379 -0.358615 -0.0169507)
(0.200189 -0.291666 -0.0178111)
(0.166765 -0.128198 -0.00125102)
(0.16315 -0.14041 -0.00091007)
(0.160768 -0.154363 -0.000934263)
(0.158925 -0.170158 -0.00123209)
(0.157416 -0.186551 -0.00104386)
(0.155879 -0.204136 -0.00115274)
(0.156529 -0.222673 -0.0013857)
(0.156758 -0.242628 -0.00181654)
(0.160721 -0.262782 -0.00240194)
(0.164482 -0.286123 -0.00229678)
(0.1705 -0.311889 -0.00432543)
(0.18106 -0.340293 -0.0090712)
(0.206672 -0.353588 -0.0173336)
(0.181739 -0.288935 -0.018729)
(0.159311 -0.127843 -0.00140353)
(0.155105 -0.139972 -0.00115067)
(0.151574 -0.15351 -0.00134839)
(0.149239 -0.169157 -0.00167964)
(0.146019 -0.184603 -0.00131122)
(0.14323 -0.201496 -0.00136368)
(0.142645 -0.219394 -0.00154386)
(0.141775 -0.238743 -0.00209496)
(0.144249 -0.25834 -0.00254805)
(0.146217 -0.280863 -0.0026288)
(0.1504 -0.306154 -0.00478344)
(0.159084 -0.333347 -0.00971645)
(0.182238 -0.346844 -0.0176535)
(0.162599 -0.283903 -0.0194055)
(0.146928 -0.138545 -0.00150929)
(0.143276 -0.152173 -0.00167775)
(0.139586 -0.167071 -0.00171213)
(0.134227 -0.181388 -0.00177703)
(0.130478 -0.197726 -0.00158685)
(0.128592 -0.214818 -0.0017872)
(0.126713 -0.233557 -0.00225967)
(0.127568 -0.252393 -0.00268242)
(0.128047 -0.274103 -0.00302568)
(0.130131 -0.298532 -0.00491601)
(0.137136 -0.324513 -0.0101415)
(0.157991 -0.338284 -0.0179586)
(0.143353 -0.276944 -0.0199701)
(0.139972 -0.136761 -0.00105693)
(0.134916 -0.149652 -0.00117846)
(0.129157 -0.163408 -0.00122249)
(0.123074 -0.177387 -0.00207221)
(0.117749 -0.192651 -0.00188426)
(0.114757 -0.208956 -0.00215229)
(0.111676 -0.226817 -0.00237868)
(0.111112 -0.244888 -0.00286362)
(0.11026 -0.265799 -0.00326991)
(0.110219 -0.289239 -0.00514392)
(0.115692 -0.314022 -0.0104785)
(0.134122 -0.327723 -0.018327)
(0.124227 -0.268122 -0.0207103)
(0.129551 -0.132261 -0.000609651)
(0.123893 -0.144722 -0.000858653)
(0.117328 -0.157912 -0.00145579)
(0.111806 -0.172061 -0.00195801)
(0.105266 -0.186488 -0.00236457)
(0.101225 -0.201982 -0.00259403)
(0.0966871 -0.218731 -0.00273043)
(0.0948826 -0.235926 -0.00307352)
(0.0925868 -0.255867 -0.003338)
(0.0906471 -0.278275 -0.00537982)
(0.0945465 -0.301604 -0.0106927)
(0.111002 -0.315412 -0.018848)
(0.105539 -0.257793 -0.0216052)
(0.114884 -0.139742 -0.00103218)
(0.108277 -0.152631 -0.00172669)
(0.100271 -0.165177 -0.00232048)
(0.0933664 -0.179134 -0.00294154)
(0.0881347 -0.193661 -0.00303276)
(0.0823466 -0.209376 -0.00319105)
(0.0791217 -0.225474 -0.00335206)
(0.0753822 -0.244336 -0.00351257)
(0.0716996 -0.265573 -0.00566932)
(0.074244 -0.287455 -0.0110567)
(0.0885699 -0.300965 -0.0190201)
(0.087482 -0.245795 -0.0222549)
(0.104724 -0.132991 -0.000859195)
(0.0970692 -0.144979 -0.00122628)
(0.0902829 -0.157894 -0.00220711)
(0.0825647 -0.171021 -0.00298166)
(0.0755569 -0.184206 -0.00337359)
(0.0684275 -0.198717 -0.00361728)
(0.0639642 -0.213719 -0.00364699)
(0.0587667 -0.231307 -0.0037421)
(0.0535563 -0.25124 -0.00588988)
(0.0546456 -0.271607 -0.0113226)
(0.067139 -0.28474 -0.0193749)
(0.0702038 -0.232223 -0.0230407)
(0.0953124 -0.125531 -0.000973596)
(0.0872053 -0.136807 -0.00140938)
(0.0789406 -0.148343 -0.00178087)
(0.0708472 -0.160829 -0.00235455)
(0.0635067 -0.173401 -0.00323578)
(0.0553801 -0.186822 -0.00381835)
(0.0494531 -0.200487 -0.00400388)
(0.0429953 -0.216776 -0.00398205)
(0.0362267 -0.235331 -0.0060186)
(0.0360415 -0.254099 -0.0116023)
(0.0468222 -0.266635 -0.0196938)
(0.0539321 -0.217409 -0.0240765)
(0.0862224 -0.11696 -0.00104586)
(0.077326 -0.12732 -0.00142284)
(0.0687951 -0.138211 -0.00194903)
(0.0595004 -0.149472 -0.00239731)
(0.0515003 -0.161092 -0.00298898)
(0.0427333 -0.173478 -0.00376122)
(0.0360101 -0.186087 -0.00432855)
(0.0281387 -0.20089 -0.00420452)
(0.0198703 -0.217893 -0.00622598)
(0.0186959 -0.235034 -0.0119348)
(0.0278504 -0.246794 -0.0199351)
(0.0387946 -0.201037 -0.0247664)
(0.0682588 -0.116928 -0.00150728)
(0.0588283 -0.126713 -0.00193475)
(0.0492595 -0.137112 -0.0025118)
(0.0402115 -0.147553 -0.00309156)
(0.0309609 -0.158895 -0.00372231)
(0.023457 -0.17037 -0.00436463)
(0.0142933 -0.183664 -0.00451106)
(0.00487632 -0.199094 -0.006541)
(0.00260583 -0.214518 -0.0121926)
(0.0103414 -0.225368 -0.0201337)
(0.0249151 -0.183676 -0.0252638)
(0.0597685 -0.10559 -0.00159465)
(0.0498523 -0.114358 -0.00204841)
(0.0393765 -0.123582 -0.00251513)
(0.030045 -0.133028 -0.0031798)
(0.0198108 -0.143078 -0.00375553)
(0.0117169 -0.153349 -0.00443269)
(0.00188149 -0.165256 -0.0048053)
(-0.00873919 -0.178952 -0.0067638)
(-0.0120947 -0.19267 -0.0124248)
(-0.00555173 -0.202561 -0.0204535)
(0.012169 -0.164471 -0.0251877)
(0.0521875 -0.0933899 -0.00166458)
(0.0416474 -0.101075 -0.00212569)
(0.0307864 -0.109163 -0.00264088)
(0.0205633 -0.117399 -0.00320885)
(0.0100366 -0.126271 -0.00386291)
(0.00146255 -0.135299 -0.00452674)
(-0.0093146 -0.145679 -0.00489169)
(-0.0210058 -0.157606 -0.00690632)
(-0.0252132 -0.169559 -0.0126126)
(-0.0197764 -0.17835 -0.0207047)
(0.000907527 -0.145116 -0.0266287)
(0.0454073 -0.0804286 -0.00173057)
(0.0344726 -0.0869828 -0.00219291)
(0.0230097 -0.0939043 -0.00270182)
(0.0124506 -0.100939 -0.0033239)
(0.00123498 -0.108485 -0.00388597)
(-0.00803712 -0.116195 -0.00448122)
(-0.0192307 -0.125095 -0.00495591)
(-0.0316755 -0.135265 -0.00710525)
(-0.036728 -0.145382 -0.012809)
(-0.0320669 -0.152951 -0.0209043)
(-0.00883298 -0.124113 -0.0263241)
(0.0396924 -0.0667738 -0.0017867)
(0.0283126 -0.0721848 -0.00225525)
(0.0165083 -0.0778769 -0.00276726)
(0.00540371 -0.083687 -0.00337678)
(-0.00617519 -0.0899159 -0.00397942)
(-0.0158112 -0.0962709 -0.00460678)
(-0.0276857 -0.103615 -0.00503756)
(-0.0406521 -0.111997 -0.00728507)
(-0.0463812 -0.120302 -0.0131114)
(-0.0424256 -0.126625 -0.0212673)
(-0.0170721 -0.10268 -0.0266855)
(0.0349779 -0.0525583 -0.00183316)
(0.0233031 -0.0567876 -0.0023066)
(0.0111299 -0.061247 -0.00282432)
(-0.000278173 -0.0657815 -0.0034404)
(-0.012234 -0.0706578 -0.00402479)
(-0.0223045 -0.0756286 -0.00464049)
(-0.0345909 -0.0813794 -0.00509946)
(-0.0480114 -0.0879383 -0.0073649)
(-0.054201 -0.0943998 -0.0132904)
(-0.0508762 -0.0993883 -0.0213115)
(-0.0237033 -0.0804394 -0.0267751)
(0.0314058 -0.0378775 -0.00186958)
(0.0194746 -0.0409121 -0.00234635)
(0.00706976 -0.0441104 -0.0028659)
(-0.00462843 -0.0473689 -0.00348831)
(-0.0168435 -0.0508659 -0.00407589)
(-0.0271805 -0.0544264 -0.00469768)
(-0.0398547 -0.0585635 -0.00515559)
(-0.0536045 -0.0632782 -0.00743246)
(-0.060169 -0.0678958 -0.0134174)
(-0.0572198 -0.0715171 -0.0215035)
(-0.0286538 -0.0577758 -0.0269447)
(0.016885 -0.0246925 -0.00237474)
(0.00431264 -0.0266187 -0.00289775)
(-0.00755803 -0.0285755 -0.00352392)
(-0.0199481 -0.0306856 -0.00410947)
(-0.0304793 -0.0328238 -0.00473925)
(-0.0434098 -0.035317 -0.00520241)
(-0.0573799 -0.0381676 -0.00748394)
(-0.0641867 -0.0409348 -0.0135154)
(-0.0614747 -0.0431354 -0.02164)
(-0.0319454 -0.0347803 -0.027094)
(0.0155842 -0.00827253 -0.0023918)
(0.00293053 -0.00891598 -0.00291708)
(-0.0090311 -0.00956957 -0.00354828)
(-0.0215084 -0.010275 -0.00413369)
(-0.0321332 -0.0109864 -0.00477152)
(-0.0452069 -0.0118215 -0.00523797)
(-0.0592851 -0.0127779 -0.0075212)
(-0.0662145 -0.013699 -0.0135921)
(-0.0635949 -0.0144413 -0.0217705)
(-0.0335556 -0.0116143 -0.0271863)
(0.220249 -0.118808 1.6124e-05)
(0.217701 -0.129938 6.21176e-05)
(0.215156 -0.142276 2.27604e-05)
(0.212738 -0.155913 -4.52959e-05)
(0.210863 -0.171294 -0.000209031)
(0.209579 -0.187954 -0.000611856)
(0.208302 -0.206055 -0.00117599)
(0.208861 -0.224726 -0.00192724)
(0.209955 -0.245171 -0.0028087)
(0.215021 -0.265076 -0.00406972)
(0.221542 -0.288334 -0.00456341)
(0.231518 -0.311788 -0.00726018)
(0.241491 -0.339661 -0.014177)
(0.264587 -0.357994 -0.026243)
(0.231973 -0.314061 -0.0334112)
(0.213543 -0.11972 -0.000152716)
(0.210101 -0.130672 -4.50013e-05)
(0.206717 -0.142869 -8.62533e-05)
(0.203662 -0.156377 -0.000166093)
(0.201021 -0.171572 -0.000377603)
(0.198562 -0.187881 -0.000830437)
(0.196067 -0.205539 -0.00143394)
(0.19543 -0.223822 -0.00226681)
(0.195316 -0.243801 -0.00319769)
(0.199004 -0.263464 -0.00439184)
(0.203999 -0.286235 -0.00501591)
(0.211753 -0.309616 -0.00774298)
(0.219901 -0.336682 -0.0147295)
(0.240688 -0.354596 -0.027143)
(0.21341 -0.312065 -0.0348505)
(0.202154 -0.129787 -0.000169124)
(0.198118 -0.141811 -0.000148966)
(0.194479 -0.155131 -0.000268217)
(0.190891 -0.17004 -0.000514845)
(0.187156 -0.185921 -0.00104996)
(0.183474 -0.203144 -0.00169686)
(0.181597 -0.221024 -0.00255184)
(0.180211 -0.240546 -0.00351683)
(0.18243 -0.259867 -0.00471434)
(0.185828 -0.282164 -0.00539611)
(0.191473 -0.305294 -0.00811828)
(0.197827 -0.331443 -0.0151676)
(0.216161 -0.349325 -0.0277094)
(0.194197 -0.308689 -0.036295)
(0.19418 -0.12849 -0.000281539)
(0.189631 -0.140298 -0.00024315)
(0.18524 -0.153361 -0.000415095)
(0.18075 -0.167872 -0.000742917)
(0.175692 -0.183241 -0.00130649)
(0.170824 -0.199927 -0.00199285)
(0.167775 -0.217313 -0.00283649)
(0.165185 -0.236244 -0.003812)
(0.165964 -0.255112 -0.00510107)
(0.167792 -0.276783 -0.00576743)
(0.171381 -0.299429 -0.00854432)
(0.176087 -0.324551 -0.0156767)
(0.191931 -0.342527 -0.0282992)
(0.17436 -0.303061 -0.0377026)
(0.180919 -0.137908 -0.000433815)
(0.175817 -0.150621 -0.000630115)
(0.170166 -0.164608 -0.00108514)
(0.164009 -0.179479 -0.00156096)
(0.158078 -0.195588 -0.00224591)
(0.153867 -0.212399 -0.00310334)
(0.150052 -0.230643 -0.00412488)
(0.149421 -0.248959 -0.00545681)
(0.149767 -0.269851 -0.00608153)
(0.151333 -0.291901 -0.00899992)
(0.154464 -0.315881 -0.0162416)
(0.167932 -0.333921 -0.0288709)
(0.154452 -0.295537 -0.0390106)
(0.172104 -0.134636 -0.000585193)
(0.166008 -0.146877 -0.000869661)
(0.159294 -0.160321 -0.00135341)
(0.152463 -0.174665 -0.00181068)
(0.145467 -0.190127 -0.00247099)
(0.140142 -0.206262 -0.00333142)
(0.135088 -0.223743 -0.00444316)
(0.133093 -0.241377 -0.00576604)
(0.131996 -0.261376 -0.00644567)
(0.131658 -0.282747 -0.0094454)
(0.133276 -0.305531 -0.0168269)
(0.144335 -0.323464 -0.0293161)
(0.134673 -0.286079 -0.0401588)
(0.162511 -0.13036 -0.000708351)
(0.155762 -0.142121 -0.00100295)
(0.148492 -0.155024 -0.00145386)
(0.141006 -0.168785 -0.00204357)
(0.133051 -0.183573 -0.00268741)
(0.126627 -0.198943 -0.00357983)
(0.120317 -0.215588 -0.00472268)
(0.117032 -0.232398 -0.00604426)
(0.114499 -0.251453 -0.00680019)
(0.112361 -0.271978 -0.00980996)
(0.112585 -0.293452 -0.0173077)
(0.121382 -0.311046 -0.0298644)
(0.115276 -0.27476 -0.0411513)
(0.146274 -0.136487 -0.00113016)
(0.138195 -0.148761 -0.00163856)
(0.129649 -0.16182 -0.00225517)
(0.121003 -0.175843 -0.00293504)
(0.11347 -0.190378 -0.00388247)
(0.10596 -0.206094 -0.00502072)
(0.101412 -0.221994 -0.00634382)
(0.0975088 -0.240036 -0.00713663)
(0.0936528 -0.259541 -0.0101548)
(0.0925741 -0.27966 -0.0177465)
(0.0992325 -0.296767 -0.0303514)
(0.0965443 -0.261764 -0.0421134)
(0.136415 -0.129857 -0.00124985)
(0.127546 -0.141418 -0.00180464)
(0.118733 -0.15379 -0.00244469)
(0.109297 -0.166994 -0.00325056)
(0.100672 -0.180634 -0.00420321)
(0.0920634 -0.195342 -0.00531692)
(0.0863455 -0.210254 -0.00664224)
(0.0811226 -0.227156 -0.00740905)
(0.0756953 -0.245507 -0.0105115)
(0.0733695 -0.264227 -0.0182186)
(0.0780485 -0.280667 -0.0307575)
(0.0786432 -0.24712 -0.0428785)
(0.127279 -0.122306 -0.00137271)
(0.117731 -0.133107 -0.00192511)
(0.107814 -0.144607 -0.00262868)
(0.0976566 -0.15694 -0.00348831)
(0.0883082 -0.169661 -0.00448851)
(0.0788155 -0.18332 -0.00561769)
(0.0719692 -0.197167 -0.00691571)
(0.0655067 -0.212822 -0.00769257)
(0.0586107 -0.229954 -0.0108602)
(0.0551266 -0.247206 -0.0185959)
(0.0580028 -0.262762 -0.0311785)
(0.0617382 -0.230978 -0.043609)
(0.118338 -0.113852 -0.00148093)
(0.108075 -0.123823 -0.00204729)
(0.0976626 -0.13445 -0.00275393)
(0.0866526 -0.145799 -0.00363129)
(0.0764947 -0.157516 -0.00470221)
(0.0661809 -0.170078 -0.0058973)
(0.0584537 -0.182801 -0.00719538)
(0.0507765 -0.197163 -0.00798385)
(0.0425282 -0.212956 -0.0111318)
(0.0380388 -0.228645 -0.0189714)
(0.0392653 -0.243202 -0.0315721)
(0.0459565 -0.213374 -0.0443207)
(0.0992101 -0.113597 -0.0021824)
(0.0879935 -0.123263 -0.00289178)
(0.0763984 -0.133595 -0.00377562)
(0.0654594 -0.144243 -0.004858)
(0.0544232 -0.155657 -0.00610876)
(0.0458634 -0.167204 -0.00747313)
(0.0370936 -0.180224 -0.00823835)
(0.0276883 -0.194536 -0.0113965)
(0.0222156 -0.208675 -0.0193488)
(0.0219632 -0.222101 -0.0318806)
(0.0314752 -0.194552 -0.0450234)
(0.0909154 -0.10252 -0.00229751)
(0.0791652 -0.111166 -0.0030207)
(0.0668556 -0.120407 -0.00391834)
(0.055328 -0.129945 -0.0050117)
(0.0435495 -0.140144 -0.00628468)
(0.0342952 -0.150462 -0.00767519)
(0.024662 -0.162072 -0.00848539)
(0.0141464 -0.17482 -0.0116648)
(0.00776856 -0.187399 -0.0196774)
(0.00622609 -0.199541 -0.0322033)
(0.0182779 -0.17447 -0.0455106)
(0.0834978 -0.0906213 -0.00240674)
(0.071158 -0.0982171 -0.003139)
(0.058335 -0.106315 -0.00404314)
(0.0461425 -0.114675 -0.00515288)
(0.0338135 -0.123623 -0.00642482)
(0.0239578 -0.132676 -0.00785548)
(0.0134884 -0.142823 -0.00872123)
(0.00198073 -0.153986 -0.0118954)
(-0.00515532 -0.164931 -0.0199592)
(-0.00781768 -0.175669 -0.0324492)
(0.00656233 -0.153354 -0.0458538)
(0.0768984 -0.0780072 -0.00250044)
(0.0641187 -0.0844947 -0.0032423)
(0.0507762 -0.0914266 -0.00415639)
(0.038104 -0.0985657 -0.00527431)
(0.0252136 -0.106203 -0.00656629)
(0.0147703 -0.11394 -0.00800521)
(0.00366069 -0.122613 -0.0089036)
(-0.00861135 -0.132136 -0.0121089)
(-0.0164777 -0.141428 -0.0201862)
(-0.0200283 -0.150668 -0.0326911)
(-0.00359288 -0.131335 -0.0464227)
(0.0713002 -0.064742 -0.00258039)
(0.0581054 -0.0701024 -0.00333033)
(0.044367 -0.0758116 -0.00425085)
(0.0312354 -0.081706 -0.00538053)
(0.0179036 -0.0880059 -0.00667226)
(0.00702345 -0.0943771 -0.0081148)
(-0.00468133 -0.101537 -0.00904388)
(-0.0175539 -0.109382 -0.0122865)
(-0.0260092 -0.116997 -0.0204101)
(-0.0303397 -0.124694 -0.032913)
(-0.0121808 -0.108539 -0.0466643)
(0.0667135 -0.0509444 -0.00264487)
(0.0532036 -0.0551387 -0.00340226)
(0.0391185 -0.0596133 -0.00433007)
(0.0256403 -0.0642182 -0.00546625)
(0.0119542 -0.0691503 -0.00676398)
(0.000683323 -0.0741397 -0.00821281)
(-0.0114822 -0.0797392 -0.00915152)
(-0.0248223 -0.0858809 -0.012427)
(-0.033738 -0.0918027 -0.0206158)
(-0.0386996 -0.097892 -0.0331318)
(-0.0190756 -0.0850686 -0.0469529)
(0.063222 -0.0367087 -0.00269423)
(0.0494612 -0.0397204 -0.00345644)
(0.03513 -0.0429299 -0.00438741)
(0.0213838 -0.0462387 -0.00553201)
(0.00742276 -0.049779 -0.00683223)
(-0.00412311 -0.0533496 -0.00828489)
(-0.0166573 -0.0573762 -0.00923086)
(-0.0303433 -0.0617922 -0.0125213)
(-0.0396155 -0.0660231 -0.0207584)
(-0.0450151 -0.0704309 -0.033266)
(-0.0242545 -0.0610979 -0.0471211)
(0.0469282 -0.0239724 -0.00349247)
(0.0324308 -0.0259064 -0.00442684)
(0.0185078 -0.0278943 -0.00557642)
(0.00437034 -0.0300287 -0.00687707)
(-0.00736045 -0.032176 -0.00833621)
(-0.0201484 -0.034599 -0.00928466)
(-0.0340598 -0.0372671 -0.0125806)
(-0.0435701 -0.039802 -0.0208554)
(-0.0492439 -0.0424829 -0.0333903)
(-0.0276892 -0.036778 -0.0472354)
(0.0456531 -0.00803196 -0.00351109)
(0.0310734 -0.00867799 -0.00444687)
(0.0170612 -0.00934205 -0.00560052)
(0.00283505 -0.010056 -0.00690123)
(-0.00898652 -0.0107706 -0.008366)
(-0.0219105 -0.011581 -0.00931417)
(-0.0359311 -0.0124751 -0.0126086)
(-0.0455657 -0.0133186 -0.0209077)
(-0.0513599 -0.0142234 -0.0334707)
(-0.0293774 -0.0122839 -0.0472772)
(0.243447 -0.115976 -0.000144833)
(0.241116 -0.126591 -3.79245e-05)
(0.238574 -0.138276 -2.12101e-06)
(0.236004 -0.151147 -6.97418e-05)
(0.23354 -0.16554 -0.000320677)
(0.231358 -0.181302 -0.000811944)
(0.229145 -0.198715 -0.00161909)
(0.228358 -0.216983 -0.00276028)
(0.228309 -0.23714 -0.00426624)
(0.232073 -0.257026 -0.00632834)
(0.238073 -0.280046 -0.00758531)
(0.247961 -0.302349 -0.011012)
(0.2551 -0.327803 -0.0195305)
(0.272817 -0.346945 -0.0353432)
(0.249921 -0.328296 -0.0510135)
(0.236396 -0.116446 -0.000267866)
(0.233374 -0.126924 -0.000181111)
(0.230156 -0.138483 -0.000182318)
(0.226912 -0.151208 -0.000283508)
(0.223627 -0.165425 -0.000610158)
(0.220423 -0.180963 -0.00111741)
(0.217131 -0.19807 -0.00196756)
(0.215197 -0.216041 -0.00317772)
(0.213951 -0.235797 -0.00474652)
(0.216366 -0.255458 -0.00681242)
(0.220896 -0.278021 -0.00817792)
(0.228611 -0.30024 -0.0116888)
(0.23398 -0.325044 -0.0202884)
(0.249362 -0.343562 -0.0364537)
(0.230719 -0.325848 -0.0530812)
(0.225368 -0.125748 -0.000330363)
(0.221528 -0.137124 -0.000338333)
(0.217612 -0.14964 -0.000520743)
(0.213442 -0.163613 -0.000890667)
(0.209185 -0.178858 -0.00143527)
(0.204807 -0.195626 -0.00229774)
(0.201709 -0.213276 -0.00354878)
(0.199207 -0.232623 -0.00516935)
(0.200168 -0.251966 -0.00727766)
(0.203146 -0.274078 -0.0086898)
(0.208812 -0.296115 -0.0122192)
(0.212532 -0.320108 -0.0209462)
(0.225351 -0.338355 -0.0372927)
(0.210769 -0.32191 -0.0549923)
(0.217358 -0.124207 -0.00048481)
(0.21287 -0.135334 -0.000528001)
(0.208217 -0.147599 -0.000756831)
(0.203141 -0.161239 -0.00116029)
(0.197859 -0.176116 -0.00176761)
(0.192428 -0.192446 -0.00265562)
(0.18819 -0.209663 -0.0039363)
(0.18448 -0.228464 -0.00557614)
(0.184039 -0.247373 -0.00775619)
(0.185505 -0.268874 -0.00918072)
(0.189121 -0.290498 -0.0127879)
(0.191306 -0.313545 -0.0216174)
(0.201691 -0.331746 -0.0381279)
(0.190257 -0.315754 -0.0568175)
(0.204056 -0.13274 -0.00069814)
(0.198618 -0.144675 -0.000947036)
(0.192637 -0.157907 -0.00142281)
(0.18641 -0.172353 -0.00207399)
(0.17996 -0.188175 -0.00300386)
(0.174603 -0.204871 -0.00431277)
(0.169665 -0.223041 -0.00599564)
(0.167875 -0.241409 -0.00822045)
(0.16786 -0.262164 -0.00962002)
(0.169524 -0.28326 -0.0133903)
(0.170247 -0.305259 -0.0223465)
(0.178257 -0.323388 -0.0389458)
(0.169655 -0.307655 -0.0584618)
(0.195165 -0.12939 -0.000812066)
(0.188937 -0.140923 -0.00112716)
(0.182124 -0.153699 -0.00168988)
(0.175015 -0.167618 -0.00236208)
(0.167574 -0.182855 -0.00334611)
(0.161123 -0.198931 -0.00466566)
(0.154998 -0.216391 -0.00642576)
(0.151887 -0.234097 -0.00865274)
(0.150444 -0.253977 -0.0100957)
(0.150243 -0.27443 -0.01397)
(0.149572 -0.295308 -0.0230895)
(0.155264 -0.313246 -0.0396775)
(0.149233 -0.297633 -0.0599313)
(0.186225 -0.125202 -0.000914893)
(0.179279 -0.136286 -0.00128657)
(0.171713 -0.148548 -0.00188506)
(0.163746 -0.161875 -0.00267524)
(0.155337 -0.176454 -0.0036846)
(0.147811 -0.191818 -0.00503055)
(0.14053 -0.208497 -0.00681993)
(0.136161 -0.225421 -0.00905981)
(0.133329 -0.244367 -0.0105635)
(0.13136 -0.26402 -0.0144852)
(0.129402 -0.283684 -0.0237562)
(0.132873 -0.301231 -0.040428)
(0.129223 -0.285728 -0.0612855)
(0.169842 -0.130776 -0.00144419)
(0.161472 -0.142447 -0.00206963)
(0.152664 -0.155133 -0.00291586)
(0.143374 -0.168955 -0.00398957)
(0.134805 -0.183529 -0.00540087)
(0.126408 -0.199324 -0.00720995)
(0.120844 -0.215372 -0.00946444)
(0.116697 -0.233303 -0.0109993)
(0.113041 -0.251997 -0.0149718)
(0.109878 -0.270397 -0.0243778)
(0.111281 -0.287425 -0.041163)
(0.109892 -0.272095 -0.0625792)
(0.160538 -0.124376 -0.00158818)
(0.151431 -0.135394 -0.00226623)
(0.14188 -0.147366 -0.00313282)
(0.131746 -0.160378 -0.00428876)
(0.12219 -0.174091 -0.00574664)
(0.112754 -0.188915 -0.00758861)
(0.106056 -0.204008 -0.00986181)
(0.100656 -0.220818 -0.0113826)
(0.095455 -0.238419 -0.0154498)
(0.0911603 -0.255508 -0.0250015)
(0.0906248 -0.271836 -0.0418279)
(0.0914067 -0.256782 -0.0637305)
(0.151629 -0.117102 -0.00174066)
(0.141797 -0.127412 -0.00242462)
(0.13145 -0.138582 -0.00333432)
(0.120514 -0.150728 -0.00455412)
(0.110085 -0.163499 -0.00607003)
(0.0996977 -0.177279 -0.00795732)
(0.0919409 -0.191333 -0.0102299)
(0.0853535 -0.206927 -0.0117614)
(0.0787275 -0.22335 -0.0159142)
(0.0733815 -0.239073 -0.0255459)
(0.0710796 -0.254524 -0.0424741)
(0.0739336 -0.239906 -0.0648086)
(0.143094 -0.108974 -0.00188498)
(0.132599 -0.118498 -0.0025983)
(0.121543 -0.128828 -0.00352159)
(0.109852 -0.140028 -0.00475785)
(0.0986067 -0.151799 -0.00634294)
(0.0873441 -0.164472 -0.00829474)
(0.0786323 -0.177401 -0.0105781)
(0.0709131 -0.19173 -0.0121256)
(0.0629915 -0.206863 -0.0163016)
(0.0567034 -0.221155 -0.0260562)
(0.0528027 -0.235604 -0.0430775)
(0.0576389 -0.221584 -0.0658026)