/*--------------------------------*- C++ -*----------------------------------*\
  =========                 |
  \\      /  F ield         | OpenFOAM: The Open Source CFD Toolbox
   \\    /   O peration     | Website:  https://openfoam.org
    \\  /    A nd           | Version:  6
     \\/     M anipulation  |
\*---------------------------------------------------------------------------*/
FoamFile
{
    version     2.0;
    format      ascii;
    class       surfaceScalarField;
    location    "1.8";
    object      phi;
}
// * * * * * * * * * * * * * * * * * * * * * * * * * * * * * * * * * * * * * //

dimensions      [0 3 -1 0 0 0 0];

internalField   nonuniform List<scalar> 
185055
(
1.07472e-06
5.96819e-09
-3.2772e-07
-5.60473e-09
1.11759e-06
1.37036e-08
-4.39872e-08
-1.25874e-08
1.11132e-06
1.56654e-08
5.12782e-09
-1.45143e-08
1.1061e-06
1.62111e-08
4.21309e-09
-1.52092e-08
1.10371e-06
1.69594e-08
1.44796e-09
-1.60123e-08
1.1019e-06
1.84594e-08
8.25491e-10
-1.74787e-08
1.09989e-06
2.04357e-08
1.00538e-09
-1.94328e-08
1.09778e-06
2.20208e-08
1.20918e-09
-2.11156e-08
1.09588e-06
2.2505e-08
1.24229e-09
-2.18551e-08
1.09444e-06
2.17876e-08
1.15502e-09
-2.14973e-08
1.09355e-06
2.03054e-08
9.67234e-10
-2.038e-08
1.09323e-06
1.86955e-08
6.76908e-10
-1.90575e-08
1.09341e-06
1.7459e-08
3.57089e-10
-1.7997e-08
1.09392e-06
1.68544e-08
1.09853e-10
-1.74741e-08
1.09457e-06
1.68809e-08
-3.2881e-12
-1.75254e-08
1.09524e-06
1.74568e-08
-2.21866e-11
-1.81073e-08
1.09591e-06
1.84101e-08
-1.03024e-11
-1.90689e-08
1.0966e-06
1.96635e-08
-9.37099e-12
-2.03467e-08
1.09738e-06
2.10961e-08
-5.27333e-11
-2.18189e-08
1.09825e-06
2.26777e-08
-8.73846e-11
-2.34648e-08
1.09926e-06
2.43489e-08
-1.45407e-10
-2.52112e-08
1.10039e-06
2.60716e-08
-1.55418e-10
-2.70408e-08
1.10164e-06
2.78207e-08
-1.74851e-10
-2.88998e-08
1.10303e-06
2.95575e-08
-1.678e-10
-3.07822e-08
1.10456e-06
3.12676e-08
-1.52742e-10
-3.26371e-08
1.10627e-06
3.2922e-08
-1.60112e-10
-3.4472e-08
1.10815e-06
3.45134e-08
-1.536e-10
-3.62397e-08
1.11026e-06
3.60188e-08
-1.80177e-10
-3.79557e-08
1.11259e-06
3.74246e-08
-1.95753e-10
-3.95605e-08
1.11521e-06
3.87344e-08
-2.54817e-10
-4.10999e-08
1.11807e-06
3.98779e-08
-2.90485e-10
-4.24452e-08
1.12125e-06
4.09914e-08
-3.86557e-10
-4.37839e-08
1.12469e-06
4.17022e-08
-4.97945e-10
-4.46476e-08
1.12835e-06
4.27679e-08
-5.69741e-10
-4.58564e-08
4.27353e-08
-1.38156e-09
1.13282e-06
-4.58218e-08
1.06353e-06
6.9279e-09
-3.17387e-07
1.10561e-06
1.5123e-08
-4.35032e-08
1.09954e-06
1.70254e-08
4.71397e-09
1.09431e-06
1.73103e-08
4.1317e-09
1.09197e-06
1.77226e-08
1.57471e-09
1.09063e-06
1.88938e-08
9.00832e-10
1.08967e-06
2.05929e-08
8.06574e-10
1.08896e-06
2.19609e-08
7.71017e-10
1.08847e-06
2.22744e-08
7.22308e-10
1.08817e-06
2.1416e-08
6.69014e-10
1.08808e-06
1.98182e-08
5.75321e-10
1.08826e-06
1.81175e-08
4.0048e-10
1.08871e-06
1.68245e-08
1.78249e-10
1.0894e-06
1.61878e-08
-1.76925e-11
1.09018e-06
1.62158e-08
-1.1999e-10
1.091e-06
1.67903e-08
-1.55103e-10
1.09178e-06
1.77544e-08
-1.19856e-10
1.0926e-06
1.89826e-08
-1.39323e-10
1.09341e-06
2.03797e-08
-9.8188e-11
1.0944e-06
2.18863e-08
-1.97313e-10
1.09547e-06
2.34619e-08
-1.83379e-10
1.09676e-06
2.5066e-08
-2.83303e-10
1.09823e-06
2.66847e-08
-3.2651e-10
1.09988e-06
2.82801e-08
-3.74905e-10
1.10173e-06
2.98469e-08
-4.31892e-10
1.10378e-06
3.13534e-08
-4.84544e-10
1.10602e-06
3.27949e-08
-5.22058e-10
1.10848e-06
3.41425e-08
-5.82957e-10
1.11113e-06
3.5393e-08
-6.19681e-10
1.11406e-06
3.65282e-08
-7.22578e-10
1.11713e-06
3.75296e-08
-7.17157e-10
1.12064e-06
3.84269e-08
-9.4318e-10
1.12406e-06
3.91506e-08
-8.71453e-10
1.12805e-06
3.98286e-08
-1.05202e-09
4.04747e-08
-2.74446e-09
1.13306e-06
1.05115e-06
8.06849e-09
-3.11259e-07
1.09235e-06
1.676e-08
-4.28345e-08
1.08654e-06
1.85183e-08
4.31637e-09
1.08162e-06
1.86641e-08
3.56661e-09
1.07904e-06
1.91511e-08
1.15335e-09
1.07653e-06
2.05193e-08
8.89787e-10
1.07347e-06
2.22799e-08
1.36685e-09
1.07025e-06
2.33955e-08
1.78657e-09
1.06746e-06
2.31723e-08
1.88768e-09
1.06553e-06
2.16676e-08
1.68516e-09
1.06457e-06
1.95014e-08
1.27462e-09
1.06451e-06
1.74113e-08
7.69976e-10
1.06511e-06
1.59147e-08
3.09656e-10
1.06611e-06
1.51986e-08
-9.51638e-12
1.06727e-06
1.52116e-08
-1.58812e-10
1.06849e-06
1.57746e-08
-2.09824e-10
1.06973e-06
1.67239e-08
-2.07937e-10
1.07105e-06
1.79145e-08
-2.51036e-10
1.07242e-06
1.92715e-08
-2.61621e-10
1.07394e-06
2.07283e-08
-3.56284e-10
1.07548e-06
2.22467e-08
-3.32337e-10
1.07715e-06
2.37832e-08
-3.84747e-10
1.07887e-06
2.53104e-08
-3.41389e-10
1.08068e-06
2.67947e-08
-3.26818e-10
1.08261e-06
2.82217e-08
-3.02281e-10
1.08469e-06
2.95715e-08
-3.04524e-10
1.08694e-06
3.0835e-08
-2.8923e-10
1.08943e-06
3.19999e-08
-3.46321e-10
1.09211e-06
3.30587e-08
-3.43197e-10
1.09507e-06
3.40037e-08
-4.40867e-10
1.09821e-06
3.4823e-08
-4.30383e-10
1.10173e-06
3.55246e-08
-6.13327e-10
1.10532e-06
3.61028e-08
-5.42947e-10
1.1094e-06
3.6512e-08
-7.71694e-10
3.71146e-08
-1.57491e-09
1.11434e-06
1.03707e-06
8.89465e-09
-3.10153e-07
1.07691e-06
1.85525e-08
-4.1624e-08
1.07058e-06
2.00498e-08
4.79065e-09
1.06551e-06
1.98722e-08
3.87032e-09
1.06303e-06
2.0141e-08
1.4828e-09
1.06115e-06
2.13783e-08
1.02481e-09
1.05921e-06
2.29855e-08
1.23395e-09
1.05739e-06
2.38266e-08
1.38511e-09
1.05605e-06
2.32067e-08
1.30533e-09
1.05537e-06
2.12661e-08
1.07989e-09
1.0554e-06
1.87265e-08
7.5435e-10
1.05606e-06
1.63908e-08
3.53069e-10
1.05722e-06
1.47838e-08
-2.55765e-11
1.05864e-06
1.40588e-08
-2.82657e-10
1.06011e-06
1.41125e-08
-3.68808e-10
1.0615e-06
1.47287e-08
-3.48218e-10
1.0628e-06
1.57132e-08
-2.88174e-10
1.06406e-06
1.69158e-08
-2.60216e-10
1.06534e-06
1.82493e-08
-2.52859e-10
1.06671e-06
1.96563e-08
-2.97701e-10
1.06816e-06
2.10932e-08
-3.04142e-10
1.06977e-06
2.25331e-08
-3.54316e-10
1.0715e-06
2.39432e-08
-3.6566e-10
1.07336e-06
2.53056e-08
-3.7076e-10
1.07538e-06
2.66007e-08
-4.00857e-10
1.07755e-06
2.78139e-08
-4.05384e-10
1.07986e-06
2.8936e-08
-4.17535e-10
1.08238e-06
2.99546e-08
-4.69158e-10
1.08505e-06
3.08621e-08
-4.72756e-10
1.08795e-06
3.1652e-08
-5.55867e-10
1.09105e-06
3.22994e-08
-5.70631e-10
1.09444e-06
3.28389e-08
-7.11277e-10
1.09817e-06
3.31393e-08
-7.64287e-10
1.10213e-06
3.34205e-08
-8.63693e-10
3.31983e-08
-1.552e-09
1.1076e-06
1.0226e-06
1.07481e-08
-2.96709e-07
1.06161e-06
2.08434e-08
-4.12945e-08
1.05578e-06
2.19429e-08
3.92888e-09
1.05095e-06
2.12487e-08
3.45742e-09
1.04883e-06
2.09854e-08
1.27731e-09
1.04768e-06
2.17151e-08
8.07043e-10
1.04702e-06
2.28162e-08
8.34215e-10
1.04681e-06
2.31704e-08
8.68617e-10
1.04707e-06
2.21391e-08
8.0662e-10
1.04776e-06
1.99143e-08
6.58148e-10
1.04882e-06
1.72353e-08
4.36591e-10
1.05017e-06
1.4885e-08
1.56521e-10
1.05173e-06
1.33454e-08
-1.21899e-10
1.05339e-06
1.27333e-08
-3.33899e-10
1.05502e-06
1.29046e-08
-4.23894e-10
1.05653e-06
1.36285e-08
-4.1544e-10
1.05792e-06
1.46766e-08
-3.54704e-10
1.05921e-06
1.59018e-08
-2.75209e-10
1.0605e-06
1.71994e-08
-2.32884e-10
1.06184e-06
1.85209e-08
-2.13147e-10
1.06332e-06
1.98363e-08
-2.13787e-10
1.065e-06
2.11219e-08
-2.77945e-10
1.06687e-06
2.23738e-08
-2.94833e-10
1.06899e-06
2.35726e-08
-3.83301e-10
1.07127e-06
2.47161e-08
-4.01394e-10
1.07377e-06
2.57836e-08
-4.69856e-10
1.0764e-06
2.67727e-08
-4.66282e-10
1.07922e-06
2.76624e-08
-5.28223e-10
1.08214e-06
2.84489e-08
-5.02995e-10
1.08525e-06
2.91215e-08
-5.81472e-10
1.08841e-06
2.9667e-08
-5.2799e-10
1.09182e-06
3.0114e-08
-6.87027e-10
1.09516e-06
3.03807e-08
-5.76085e-10
1.09859e-06
3.065e-08
-6.67104e-10
3.06463e-08
-2.3879e-09
1.10353e-06
1.00523e-06
1.2534e-08
-2.9339e-07
1.0428e-06
2.32968e-08
-4.00242e-08
1.03661e-06
2.38702e-08
4.26597e-09
1.0315e-06
2.27296e-08
3.62747e-09
1.02874e-06
2.21719e-08
1.57362e-09
1.0265e-06
2.26597e-08
1.2922e-09
1.02435e-06
2.3381e-08
1.58441e-09
1.02261e-06
2.31673e-08
1.74124e-09
1.02164e-06
2.14981e-08
1.61222e-09
1.02153e-06
1.8735e-08
1.28989e-09
1.0222e-06
1.5728e-08
8.3419e-10
1.02351e-06
1.32711e-08
3.09347e-10
1.02523e-06
1.17834e-08
-1.56374e-10
1.02713e-06
1.12935e-08
-4.58083e-10
1.02899e-06
1.15902e-08
-5.53456e-10
1.03075e-06
1.24011e-08
-5.26535e-10
1.03237e-06
1.34925e-08
-4.34198e-10
1.03394e-06
1.47114e-08
-3.83086e-10
1.03549e-06
1.59654e-08
-3.17028e-10
1.03715e-06
1.7207e-08
-3.42783e-10
1.03887e-06
1.84166e-08
-3.06752e-10
1.04077e-06
1.95774e-08
-3.5017e-10
1.0428e-06
2.06955e-08
-3.58787e-10
1.045e-06
2.17535e-08
-3.71923e-10
1.04734e-06
2.27589e-08
-3.90457e-10
1.04986e-06
2.36871e-08
-4.24786e-10
1.0525e-06
2.45409e-08
-4.02732e-10
1.05533e-06
2.52962e-08
-4.66667e-10
1.05826e-06
2.59516e-08
-4.32094e-10
1.06142e-06
2.64939e-08
-5.29114e-10
1.06465e-06
2.69116e-08
-4.76973e-10
1.0682e-06
2.72202e-08
-6.60079e-10
1.07184e-06
2.73565e-08
-6.06388e-10
1.07584e-06
2.74299e-08
-7.84651e-10
2.72718e-08
-2.19651e-09
1.08141e-06
9.86682e-07
1.51059e-08
-2.83584e-07
1.02305e-06
2.62123e-08
-3.92869e-08
1.01725e-06
2.59983e-08
3.67883e-09
1.01262e-06
2.42175e-08
3.13655e-09
1.01036e-06
2.32234e-08
1.20796e-09
1.00861e-06
2.33601e-08
1.04753e-09
1.00696e-06
2.35786e-08
1.45462e-09
1.00578e-06
2.26741e-08
1.67478e-09
1.00548e-06
2.02835e-08
1.51911e-09
1.00614e-06
1.69685e-08
1.10269e-09
1.00762e-06
1.36908e-08
5.59655e-10
1.00965e-06
1.12297e-08
6.88327e-12
1.01195e-06
9.90919e-09
-4.2686e-10
1.01427e-06
9.64283e-09
-6.61195e-10
1.0164e-06
1.01413e-08
-6.84492e-10
1.01832e-06
1.10851e-08
-6.06402e-10
1.02005e-06
1.22457e-08
-4.79357e-10
1.02172e-06
1.34656e-08
-4.22841e-10
1.02334e-06
1.46803e-08
-3.37796e-10
1.02508e-06
1.58436e-08
-3.76962e-10
1.02686e-06
1.69488e-08
-3.13571e-10
1.02881e-06
1.79931e-08
-3.63119e-10
1.03088e-06
1.8979e-08
-3.51722e-10
1.03307e-06
1.99077e-08
-3.50487e-10
1.03542e-06
2.07794e-08
-3.6902e-10
1.03791e-06
2.15813e-08
-3.80216e-10
1.04051e-06
2.23103e-08
-3.70193e-10
1.04326e-06
2.29479e-08
-4.03977e-10
1.0461e-06
2.34945e-08
-3.82526e-10
1.04912e-06
2.39357e-08
-4.57461e-10
1.05213e-06
2.4274e-08
-3.75625e-10
1.05539e-06
2.45124e-08
-5.5682e-10
1.0585e-06
2.4649e-08
-4.04066e-10
1.06176e-06
2.46951e-08
-5.15521e-10
2.4762e-08
-2.58297e-09
1.06685e-06
9.65663e-07
1.85834e-08
-2.7422e-07
1.00045e-06
2.96227e-08
-3.81936e-08
9.94391e-07
2.84154e-08
3.63769e-09
9.89211e-07
2.60133e-08
3.38403e-09
9.85927e-07
2.47361e-08
1.77173e-09
9.82731e-07
2.46647e-08
1.89128e-09
9.7943e-07
2.43656e-08
2.51352e-09
9.76759e-07
2.25982e-08
2.74728e-09
9.75378e-07
1.92578e-08
2.40695e-09
9.75452e-07
1.52087e-08
1.68581e-09
9.76755e-07
1.15705e-08
8.17265e-10
9.78879e-07
9.09545e-09
9.7107e-12
9.81388e-07
7.96898e-09
-5.68904e-10
9.83929e-07
7.95398e-09
-8.52306e-10
9.86283e-07
8.66001e-09
-8.71985e-10
9.88407e-07
9.72875e-09
-7.67997e-10
9.90346e-07
1.09333e-08
-6.2663e-10
9.92208e-07
1.21375e-08
-5.34153e-10
9.94051e-07
1.32943e-08
-4.56639e-10
9.95959e-07
1.43762e-08
-4.40531e-10
9.97913e-07
1.53833e-08
-3.88527e-10
9.99983e-07
1.63215e-08
-3.985e-10
1.00212e-06
1.71958e-08
-3.57665e-10
1.00439e-06
1.80093e-08
-3.6711e-10
1.00674e-06
1.87629e-08
-3.35807e-10
1.00924e-06
1.94461e-08
-3.60338e-10
1.01182e-06
2.00569e-08
-3.32971e-10
1.01457e-06
2.05776e-08
-3.7643e-10
1.0174e-06
2.10123e-08
-3.43036e-10
1.02042e-06
2.13452e-08
-4.36919e-10
1.02349e-06
2.15791e-08
-3.768e-10
1.02685e-06
2.17121e-08
-5.54966e-10
1.03027e-06
2.17276e-08
-4.98666e-10
1.03397e-06
2.16476e-08
-6.53346e-10
2.14542e-08
-2.25149e-09
1.03953e-06
8.26514e-07
2.23736e-08
-2.33726e-07
8.55732e-07
3.28492e-08
-3.24444e-08
8.50753e-07
3.04749e-08
2.91909e-09
8.46793e-07
2.73777e-08
2.59586e-09
8.44531e-07
2.57586e-08
1.24002e-09
8.42347e-07
2.53984e-08
1.44966e-09
8.40125e-07
2.44935e-08
2.09478e-09
8.38609e-07
2.18399e-08
2.27439e-09
8.38384e-07
1.76315e-08
1.85119e-09
8.39478e-07
1.30176e-08
1.09685e-09
8.41545e-07
9.21823e-09
2.85325e-10
8.44131e-07
6.90363e-09
-3.93764e-10
8.46818e-07
6.09224e-09
-8.10634e-10
8.49314e-07
6.39613e-09
-9.38595e-10
8.51489e-07
7.33633e-09
-8.50596e-10
8.53375e-07
8.5354e-09
-6.93287e-10
8.55075e-07
9.77907e-09
-5.4531e-10
8.56707e-07
1.0966e-08
-4.61091e-10
8.58345e-07
1.20662e-08
-4.09537e-10
8.6004e-07
1.30749e-08
-3.93237e-10
8.61788e-07
1.39962e-08
-3.61679e-10
8.63628e-07
1.48405e-08
-3.58559e-10
8.65521e-07
1.56216e-08
-3.19366e-10
8.67527e-07
1.63348e-08
-3.30933e-10
8.69577e-07
1.69918e-08
-2.78775e-10
8.71762e-07
1.75796e-08
-3.18499e-10
8.73996e-07
1.80959e-08
-2.73701e-10
8.76351e-07
1.85298e-08
-3.06415e-10
8.78765e-07
1.88832e-08
-2.85228e-10
8.81306e-07
1.91444e-08
-3.4045e-10
8.83842e-07
1.93223e-08
-2.79342e-10
8.86567e-07
1.94128e-08
-4.255e-10
8.89162e-07
1.94322e-08
-2.99588e-10
8.91839e-07
1.93668e-08
-3.96474e-10
1.93517e-08
-2.2988e-09
8.96241e-07
7.75568e-07
2.76869e-08
-2.13754e-07
8.02257e-07
3.65643e-08
-3.04041e-08
7.97344e-07
3.28668e-08
2.52074e-09
7.92855e-07
2.9104e-08
2.76272e-09
7.89509e-07
2.72281e-08
1.87704e-09
7.85966e-07
2.65682e-08
2.37322e-09
7.82484e-07
2.48928e-08
3.08234e-09
7.80077e-07
2.11444e-08
3.10265e-09
7.79388e-07
1.59378e-08
2.38238e-09
7.8036e-07
1.07498e-08
1.29586e-09
7.82485e-07
6.86508e-09
2.28643e-10
7.85159e-07
4.804e-09
-5.7495e-10
7.87894e-07
4.36612e-09
-1.0087e-09
7.90397e-07
4.99536e-09
-1.10234e-09
7.92573e-07
6.13719e-09
-9.76446e-10
7.94486e-07
7.41516e-09
-7.93191e-10
7.9624e-07
8.65267e-09
-6.27043e-10
7.9795e-07
9.78705e-09
-5.31293e-10
7.99651e-07
1.08203e-08
-4.55236e-10
8.01399e-07
1.17563e-08
-4.2959e-10
8.03147e-07
1.26065e-08
-3.57928e-10
8.0496e-07
1.33773e-08
-3.49594e-10
8.06788e-07
1.4077e-08
-2.83934e-10
8.08691e-07
1.47047e-08
-2.72146e-10
8.10659e-07
1.52685e-08
-2.4472e-10
8.1273e-07
1.57612e-08
-2.52785e-10
8.1487e-07
1.61835e-08
-2.28317e-10
8.17149e-07
1.65288e-08
-2.77862e-10
8.19477e-07
1.68001e-08
-2.44415e-10
8.21958e-07
1.6986e-08
-3.22695e-10
8.24456e-07
1.7097e-08
-2.72621e-10
8.27167e-07
1.71219e-08
-4.19918e-10
8.29894e-07
1.70669e-08
-3.62416e-10
8.32821e-07
1.69208e-08
-4.80832e-10
1.67106e-08
-1.97111e-09
8.37434e-07
7.24422e-07
3.34918e-08
-2.01625e-07
7.48827e-07
4.00213e-08
-2.78617e-08
7.4441e-07
3.48088e-08
2.47463e-09
7.40651e-07
3.03252e-08
2.53767e-09
7.37944e-07
2.81564e-08
1.77897e-09
7.35036e-07
2.70724e-08
2.40381e-09
7.32348e-07
2.44608e-08
3.12032e-09
7.31024e-07
1.95454e-08
2.92297e-09
7.31596e-07
1.34327e-08
1.9324e-09
7.33748e-07
7.893e-09
7.04879e-10
7.36782e-07
4.18183e-09
-3.50407e-10
7.4003e-07
2.58853e-09
-1.03268e-09
7.43025e-07
2.65924e-09
-1.28758e-09
7.45554e-07
3.67618e-09
-1.21064e-09
7.47627e-07
5.03393e-09
-9.69633e-10
7.49396e-07
6.38284e-09
-7.36741e-10
7.51021e-07
7.59936e-09
-5.71422e-10
7.52633e-07
8.67009e-09
-4.95019e-10
7.54271e-07
9.62689e-09
-4.44888e-10
7.55963e-07
1.04876e-08
-4.23443e-10
7.57671e-07
1.12633e-08
-3.64815e-10
7.59426e-07
1.19621e-08
-3.39184e-10
7.61197e-07
1.25834e-08
-2.77534e-10
7.63027e-07
1.31301e-08
-2.55152e-10
7.64901e-07
1.36123e-08
-2.18208e-10
7.66881e-07
1.40194e-08
-2.37851e-10
7.68892e-07
1.43638e-08
-1.91006e-10
7.71042e-07
1.4635e-08
-2.56246e-10
7.73208e-07
1.48415e-08
-2.08106e-10
7.75508e-07
1.49713e-08
-2.85464e-10
7.77788e-07
1.5042e-08
-2.24056e-10
7.80231e-07
1.50367e-08
-3.58415e-10
7.82551e-07
1.4998e-08
-2.51167e-10
7.84941e-07
1.48657e-08
-3.3427e-10
1.48675e-08
-2.20094e-09
7.88985e-07
6.7538e-07
4.18124e-08
-1.80179e-07
6.9737e-07
4.40032e-08
-2.5972e-08
6.93099e-07
3.71636e-08
1.91665e-09
6.88625e-07
3.19678e-08
2.83178e-09
6.84633e-07
2.94809e-08
2.66723e-09
6.80368e-07
2.77753e-08
3.56163e-09
6.76738e-07
2.39437e-08
4.14762e-09
6.75034e-07
1.76945e-08
3.5552e-09
6.7565e-07
1.07042e-08
2.11176e-09
6.78033e-07
4.97713e-09
5.33521e-10
6.81269e-07
1.62707e-09
-6.81695e-10
6.84584e-07
6.25629e-10
-1.35252e-09
6.87522e-07
1.23546e-09
-1.5143e-09
6.89949e-07
2.59601e-09
-1.34675e-09
6.91945e-07
4.09138e-09
-1.05304e-09
6.93692e-07
5.43494e-09
-7.99057e-10
6.95342e-07
6.57677e-09
-6.27131e-10
6.96997e-07
7.55784e-09
-5.43182e-10
6.98664e-07
8.43676e-09
-4.7635e-10
7.00351e-07
9.23308e-09
-4.32384e-10
7.02003e-07
9.95315e-09
-3.42287e-10
7.03677e-07
1.05919e-08
-3.04131e-10
7.05329e-07
1.11435e-08
-2.1213e-10
7.07051e-07
1.1611e-08
-2.02993e-10
7.08821e-07
1.20071e-08
-1.64054e-10
7.10698e-07
1.23282e-08
-1.85842e-10
7.12644e-07
1.25908e-08
-1.73582e-10
7.14714e-07
1.27902e-08
-2.24817e-10
7.16828e-07
1.29325e-08
-2.04928e-10
7.19071e-07
1.3008e-08
-2.79402e-10
7.21315e-07
1.30301e-08
-2.32599e-10
7.23739e-07
1.2979e-08
-3.65865e-10
7.26165e-07
1.28831e-08
-3.11129e-10
7.28759e-07
1.26891e-08
-4.17451e-10
1.25045e-08
-1.84748e-09
7.32969e-07
6.24873e-07
5.08116e-08
-1.69571e-07
6.44766e-07
4.73157e-08
-2.32059e-08
6.4101e-07
3.88019e-08
2.11745e-09
6.37129e-07
3.28302e-08
3.01856e-09
6.33713e-07
2.98663e-08
3.03123e-09
6.30314e-07
2.72437e-08
3.92994e-09
6.28063e-07
2.20011e-08
4.19416e-09
6.28188e-07
1.45154e-08
3.05414e-09
6.30662e-07
7.00135e-09
1.22863e-09
6.34514e-07
1.53035e-09
-4.04818e-10
6.38669e-07
-1.0898e-09
-1.43845e-09
6.42398e-07
-1.27927e-09
-1.82424e-09
6.45392e-07
-4.31919e-11
-1.71488e-09
6.47677e-07
1.67199e-09
-1.36192e-09
6.49462e-07
3.28985e-09
-9.83331e-10
6.51e-07
4.61149e-09
-7.14068e-10
6.52471e-07
5.6637e-09
-5.58389e-10
6.5398e-07
6.54033e-09
-4.91504e-10
6.55535e-07
7.32167e-09
-4.3934e-10
6.57128e-07
8.03585e-09
-3.96021e-10
6.5872e-07
8.68167e-09
-3.20636e-10
6.60335e-07
9.25179e-09
-2.74791e-10
6.61953e-07
9.72915e-09
-2.03827e-10
6.63625e-07
1.01245e-08
-1.85319e-10
6.65347e-07
1.04462e-08
-1.61514e-10
6.67158e-07
1.06963e-08
-1.7871e-10
6.69014e-07
1.08973e-08
-1.62053e-10
6.70984e-07
1.10413e-08
-2.21832e-10
6.72964e-07
1.1137e-08
-1.8388e-10
6.75058e-07
1.11744e-08
-2.61015e-10
6.77125e-07
1.11689e-08
-2.05299e-10
6.79332e-07
1.10964e-08
-3.24652e-10
6.81427e-07
1.10144e-08
-2.26807e-10
6.83592e-07
1.08362e-08
-3.11777e-10
1.08391e-08
-2.04436e-09
6.87302e-07
5.76082e-07
6.2995e-08
-1.4864e-07
5.93702e-07
5.08555e-08
-2.11598e-08
5.90083e-07
4.07101e-08
1.70998e-09
5.85314e-07
3.38966e-08
3.70328e-09
5.80646e-07
3.02128e-08
4.32108e-09
5.76375e-07
2.62638e-08
5.25139e-09
5.74026e-07
1.93735e-08
4.97648e-09
5.74643e-07
1.07669e-08
3.13159e-09
5.77759e-07
3.07766e-09
8.07574e-10
5.82071e-07
-1.76808e-09
-1.01342e-09
5.86369e-07
-3.41585e-09
-1.97246e-09
5.89971e-07
-2.72231e-09
-2.15839e-09
5.9272e-07
-9.25192e-10
-1.8671e-09
5.94782e-07
1.01595e-09
-1.4061e-09
5.96432e-07
2.63005e-09
-9.89808e-10
5.97925e-07
3.84348e-09
-7.25136e-10
5.99406e-07
4.76626e-09
-5.83956e-10
6.0093e-07
5.53494e-09
-5.18803e-10
6.02469e-07
6.23201e-09
-4.48682e-10
6.04001e-07
6.88046e-09
-3.77237e-10
6.05494e-07
7.46196e-09
-2.72611e-10
6.06999e-07
7.96277e-09
-2.15862e-10
6.08496e-07
8.36292e-09
-1.31701e-10
6.10085e-07
8.67734e-09
-1.4124e-10
6.11727e-07
8.92062e-09
-1.16449e-10
6.13482e-07
9.09922e-09
-1.58058e-10
6.153e-07
9.24032e-09
-1.61163e-10
6.17218e-07
9.33573e-09
-2.12387e-10
6.19162e-07
9.39071e-09
-1.97207e-10
6.21208e-07
9.39397e-09
-2.66043e-10
6.23236e-07
9.35779e-09
-2.16485e-10
6.25415e-07
9.25184e-09
-3.35171e-10
6.27588e-07
9.11889e-09
-2.77366e-10
6.2991e-07
8.8909e-09
-3.7599e-10
8.6924e-09
-1.68357e-09
6.3374e-07
5.25156e-07
7.65619e-08
-1.35936e-07
5.40854e-07
5.33859e-08
-1.8229e-08
5.37735e-07
4.17411e-08
2.08826e-09
5.33242e-07
3.37976e-08
4.59255e-09
5.29233e-07
2.88664e-08
5.35458e-09
5.26579e-07
2.30965e-08
5.82166e-09
5.26772e-07
1.45868e-08
4.59394e-09
5.30219e-07
5.41125e-09
1.90844e-09
5.3567e-07
-1.70121e-09
-6.72386e-10
5.4143e-07
-5.28434e-09
-2.24308e-09
5.46345e-07
-5.59334e-09
-2.73799e-09
5.50013e-07
-3.90617e-09
-2.48355e-09
5.52562e-07
-1.57487e-09
-1.89929e-09
5.54353e-07
5.43622e-10
-1.31943e-09
5.55748e-07
2.1316e-09
-8.96755e-10
5.57004e-07
3.23579e-09
-6.48265e-10
5.58252e-07
4.02168e-09
-5.03496e-10
5.59552e-07
4.65579e-09
-4.20466e-10
5.60904e-07
5.22299e-09
-3.43134e-10
5.62305e-07
5.76074e-09
-2.80963e-10
5.63739e-07
6.24044e-09
-2.1278e-10
5.65226e-07
6.65628e-09
-1.80435e-10
5.66748e-07
6.9778e-09
-1.36863e-10
5.68348e-07
7.22791e-09
-1.50275e-10
5.69998e-07
7.41242e-09
-1.41433e-10
5.71721e-07
7.54531e-09
-1.70065e-10
5.73483e-07
7.651e-09
-1.71786e-10
5.75318e-07
7.71499e-09
-2.15002e-10
5.77144e-07
7.74795e-09
-1.82616e-10
5.79067e-07
7.72984e-09
-2.59122e-10
5.80935e-07
7.67924e-09
-1.89823e-10
5.82938e-07
7.55366e-09
-3.04639e-10
5.84837e-07
7.42731e-09
-2.07581e-10
5.86824e-07
7.20013e-09
-2.95488e-10
7.12603e-09
-1.8461e-09
5.90236e-07
4.73987e-07
9.2831e-08
-1.18131e-07
4.87716e-07
5.52535e-08
-1.55967e-08
4.8468e-07
4.23659e-08
2.4119e-09
4.79333e-07
3.29575e-08
6.18683e-09
4.74745e-07
2.62766e-08
7.17761e-09
4.72506e-07
1.83809e-08
6.95512e-09
4.7397e-07
8.56447e-09
4.55781e-09
4.78823e-07
-4.71094e-10
1.02922e-09
4.85192e-07
-6.30464e-09
-1.76533e-09
4.91198e-07
-8.17183e-09
-3.11882e-09
4.95838e-07
-6.99594e-09
-3.23667e-09
4.98997e-07
-4.40892e-09
-2.65627e-09
5.0107e-07
-1.76358e-09
-1.88419e-09
5.02552e-07
2.99078e-10
-1.23841e-09
5.03817e-07
1.69615e-09
-8.28607e-10
5.05061e-07
2.61956e-09
-6.2846e-10
5.0634e-07
3.26381e-09
-5.20442e-10
5.0764e-07
3.796e-09
-4.40895e-10
5.08936e-07
4.26342e-09
-3.36108e-10
5.10229e-07
4.70764e-09
-2.39509e-10
5.1154e-07
5.07804e-09
-1.49102e-10
5.12917e-07
5.39367e-09
-1.14566e-10
5.14356e-07
5.62117e-09
-8.25668e-11
5.15915e-07
5.79614e-09
-1.27108e-10
5.17527e-07
5.92125e-09
-1.20586e-10
5.19236e-07
6.01491e-09
-1.78848e-10
5.20972e-07
6.09363e-09
-1.78123e-10
5.2277e-07
6.13355e-09
-2.16821e-10
5.24559e-07
6.15552e-09
-1.96597e-10
5.26425e-07
6.12046e-09
-2.56255e-10
5.28247e-07
6.05477e-09
-1.97667e-10
5.30201e-07
5.89996e-09
-3.00361e-10
5.32137e-07
5.7285e-09
-2.37684e-10
5.34223e-07
5.44632e-09
-3.31427e-10
5.08991e-09
-1.45432e-09
5.37713e-07
4.21177e-07
1.11996e-07
-9.77741e-08
4.32945e-07
5.61136e-08
-1.26288e-08
4.30194e-07
4.2062e-08
3.05502e-09
4.24756e-07
3.01448e-08
8.25126e-09
4.21576e-07
2.05936e-08
8.86221e-09
4.22609e-07
1.02859e-08
7.06202e-09
4.28099e-07
3.4061e-11
3.04096e-09
4.36248e-07
-7.51855e-09
-1.10119e-09
4.44471e-07
-1.0921e-08
-3.60747e-09
4.51029e-07
-1.042e-08
-4.30931e-09
4.55436e-07
-7.65152e-09
-3.7513e-09
4.58114e-07
-4.39912e-09
-2.6881e-09
4.59795e-07
-1.70672e-09
-1.7376e-09
4.61045e-07
1.86649e-10
-1.13831e-09
4.6213e-07
1.41379e-09
-8.02307e-10
4.63119e-07
2.21071e-09
-5.79655e-10
4.64044e-07
2.72029e-09
-3.8135e-10
4.64978e-07
3.0905e-09
-2.29269e-10
4.6601e-07
3.35595e-09
-1.24249e-10
4.67194e-07
3.61179e-09
-8.76679e-11
4.68546e-07
3.81096e-09
-8.55599e-11
4.70037e-07
4.01442e-09
-1.11325e-10
4.71613e-07
4.16592e-09
-1.21114e-10
4.73262e-07
4.30675e-09
-1.59979e-10
4.7492e-07
4.40945e-09
-1.45436e-10
4.76611e-07
4.50864e-09
-1.8467e-10
4.78293e-07
4.57831e-09
-1.66852e-10
4.80008e-07
4.61374e-09
-1.95186e-10
4.81685e-07
4.64482e-09
-1.66774e-10
4.83448e-07
4.59234e-09
-2.34591e-10
4.85118e-07
4.53238e-09
-1.47501e-10
4.8694e-07
4.34898e-09
-2.71421e-10
4.88619e-07
4.21276e-09
-1.63371e-10
4.90496e-07
3.81603e-09
-2.46532e-10
3.68907e-09
-1.84662e-09
4.93744e-07
3.63442e-07
1.29009e-07
-8.63961e-08
3.73521e-07
5.47704e-08
-8.73555e-09
3.70225e-07
3.93277e-08
6.02942e-09
3.64548e-07
2.35872e-08
1.22354e-08
3.6274e-07
1.10154e-08
1.13862e-08
3.65713e-07
-2.27791e-10
7.54036e-09
3.72333e-07
-8.57759e-09
1.99175e-09
3.80261e-07
-1.27193e-08
-2.72764e-09
3.8727e-07
-1.28487e-08
-5.08121e-09
3.9237e-07
-1.02152e-08
-5.30418e-09
3.95568e-07
-6.62942e-09
-4.22063e-09
3.97413e-07
-3.48292e-09
-2.76144e-09
3.98608e-07
-1.28294e-09
-1.61842e-09
3.9968e-07
1.26339e-10
-1.0116e-09
4.00843e-07
1.03895e-09
-7.88163e-10
4.02064e-07
1.67899e-09
-6.89763e-10
4.0323e-07
2.10258e-09
-5.4765e-10
4.04285e-07
2.37941e-09
-3.44534e-10
4.05267e-07
2.51061e-09
-1.36522e-10
4.0627e-07
2.59749e-09
1.18979e-11
4.07393e-07
2.62518e-09
6.25289e-11
4.08676e-07
2.6978e-09
3.35153e-11
4.10111e-07
2.74413e-09
-1.31027e-11
4.11673e-07
2.84764e-09
-1.02835e-10
4.13291e-07
2.91719e-09
-1.25426e-10
4.14967e-07
3.02239e-09
-1.89762e-10
4.16621e-07
3.0826e-09
-1.58487e-10
4.18329e-07
3.12247e-09
-2.17205e-10
4.1998e-07
3.16003e-09
-1.65555e-10
4.21697e-07
3.09398e-09
-2.18642e-10
4.23329e-07
3.05564e-09
-1.56049e-10
4.25135e-07
2.81425e-09
-2.71191e-10
4.26698e-07
2.75789e-09
-1.0808e-10
4.2877e-07
2.03638e-09
-2.9163e-10
2.71608e-09
-1.92319e-09
4.31666e-07
2.98225e-07
1.46009e-07
-4.411e-08
3.068e-07
5.25869e-08
-6.39066e-09
3.04282e-07
3.58197e-08
6.02531e-09
2.97175e-07
1.53215e-08
1.5373e-08
2.94184e-07
6.76204e-11
1.39388e-08
2.9695e-07
-1.05144e-08
7.52038e-09
3.03796e-07
-1.52551e-08
-1.68197e-10
3.11022e-07
-1.47119e-08
-5.23381e-09
3.1636e-07
-1.11765e-08
-7.00977e-09
3.19451e-07
-7.04166e-09
-6.26421e-09
3.20798e-07
-3.8143e-09
-4.16303e-09
3.21343e-07
-1.85685e-09
-2.17082e-09
3.22013e-07
-8.21467e-10
-1.13089e-09
3.23261e-07
-2.01882e-10
-9.19912e-10
3.24997e-07
3.25123e-10
-1.02249e-09
3.26822e-07
8.72388e-10
-1.01835e-09
3.28322e-07
1.36403e-09
-7.61446e-10
3.29335e-07
1.71497e-09
-3.48456e-10
3.29961e-07
1.85315e-09
3.16482e-11
3.30467e-07
1.84165e-09
2.49481e-10
3.31112e-07
1.73019e-09
2.50358e-10
3.31997e-07
1.64961e-09
1.62613e-10
3.33144e-07
1.58043e-09
1.73658e-11
3.34504e-07
1.61165e-09
-1.24514e-10
3.35959e-07
1.6316e-09
-1.68842e-10
3.37509e-07
1.71413e-09
-2.42473e-10
3.39057e-07
1.75102e-09
-2.15835e-10
3.40673e-07
1.78582e-09
-2.79691e-10
3.4222e-07
1.81039e-09
-1.97367e-10
3.43833e-07
1.74799e-09
-2.66923e-10
3.45377e-07
1.71992e-09
-2.08753e-10
3.46965e-07
1.48687e-09
-2.60619e-10
3.48493e-07
1.40802e-09
-1.77416e-10
3.50071e-07
6.83295e-10
-2.25142e-10
8.9473e-10
-7.63342e-11
3.51969e-07
2.20356e-07
1.45122e-07
1.45132e-08
2.36661e-07
5.62586e-08
-1.99768e-08
2.41272e-07
3.45282e-08
-3.32033e-09
2.40695e-07
8.02617e-09
7.87225e-09
2.4652e-07
-1.10491e-08
5.29178e-09
2.56031e-07
-2.0318e-08
2.92665e-10
2.64748e-07
-1.99841e-08
-3.98788e-09
2.70227e-07
-1.40164e-08
-6.17462e-09
2.7266e-07
-7.15642e-09
-6.45321e-09
2.73398e-07
-2.25565e-09
-5.52381e-09
2.73511e-07
-1.68054e-11
-3.91028e-09
2.73716e-07
3.21332e-10
-2.38315e-09
2.74316e-07
2.84308e-11
-1.45043e-09
2.75167e-07
-1.31109e-12
-1.05065e-09
2.76008e-07
3.49897e-10
-8.66564e-10
2.76748e-07
7.81164e-10
-6.4791e-10
2.77473e-07
1.04442e-09
-4.05388e-10
2.78312e-07
1.08126e-09
-2.06129e-10
2.79306e-07
9.64462e-10
-1.04697e-10
2.80427e-07
8.11139e-10
-9.04474e-11
2.81636e-07
6.88584e-10
-1.67575e-10
2.82872e-07
6.31212e-10
-2.17952e-10
2.84148e-07
6.21309e-10
-3.17089e-10
2.85467e-07
6.50769e-10
-3.57771e-10
2.86793e-07
6.84282e-10
-3.788e-10
2.88184e-07
7.24553e-10
-4.01684e-10
2.89572e-07
7.50052e-10
-3.86713e-10
2.91029e-07
7.6002e-10
-4.30613e-10
2.92424e-07
7.59951e-10
-3.44739e-10
2.93888e-07
7.35703e-10
-4.51672e-10
2.95334e-07
6.58522e-10
-3.84606e-10
2.96775e-07
5.2263e-10
-4.76642e-10
2.98574e-07
1.15378e-10
-5.06884e-10
3.00864e-07
-6.0435e-10
-1.00185e-09
-3.05889e-09
3.70046e-10
3.04447e-07
1.62051e-07
-1.6929e-08
2.17146e-07
1.16373e-09
2.74384e-07
-2.27095e-08
3.1242e-07
-3.001e-08
3.32608e-07
-3.12369e-08
3.39509e-07
-2.72193e-08
3.42097e-07
-2.25719e-08
3.45218e-07
-1.71372e-08
3.4906e-07
-1.09986e-08
3.52713e-07
-5.90807e-09
3.5464e-07
-1.94408e-09
3.54559e-07
4.02353e-10
3.53866e-07
7.20964e-10
3.54048e-07
-1.83374e-10
3.55546e-07
-1.14748e-09
3.57923e-07
-1.59591e-09
3.60492e-07
-1.52474e-09
3.62749e-07
-1.17622e-09
3.64549e-07
-8.3466e-10
3.65974e-07
-6.14155e-10
3.67243e-07
-5.80899e-10
3.68475e-07
-6.00104e-10
3.69777e-07
-6.81563e-10
3.71169e-07
-7.4044e-10
3.72604e-07
-7.50778e-10
3.74115e-07
-7.86261e-10
3.7564e-07
-7.7543e-10
3.77211e-07
-8.10974e-10
3.78704e-07
-7.32718e-10
3.80273e-07
-8.33881e-10
3.817e-07
-7.68341e-10
3.83088e-07
-8.65576e-10
3.83914e-07
-7.09914e-10
3.8406e-07
-7.50781e-10
-2.57768e-09
3.83579e-07
2.19567e-06
6.82836e-09
-4.12677e-07
-6.39147e-09
2.22285e-06
1.95761e-08
-7.27947e-08
-1.79531e-08
2.22294e-06
2.52894e-08
3.05959e-09
-2.33046e-08
2.21848e-06
2.7697e-08
6.73728e-09
-2.57659e-08
2.21526e-06
2.96038e-08
2.7619e-09
-2.76945e-08
2.213e-06
3.25744e-08
1.04713e-09
-3.05397e-08
2.21087e-06
3.66591e-08
9.50264e-10
-3.44691e-08
2.20863e-06
4.05252e-08
1.2875e-09
-3.8362e-08
2.2065e-06
4.26313e-08
1.54322e-09
-4.08103e-08
2.20479e-06
4.23068e-08
1.66778e-09
-4.11024e-08
2.20364e-06
3.99977e-08
1.62971e-09
-3.95128e-08
2.20312e-06
3.68164e-08
1.34806e-09
-3.69691e-08
2.20318e-06
3.38726e-08
8.92581e-10
-3.44713e-08
2.20369e-06
3.18945e-08
4.54071e-10
-3.27406e-08
2.20443e-06
3.10948e-08
2.03543e-10
-3.20446e-08
2.20525e-06
3.14045e-08
1.33831e-10
-3.23865e-08
2.20609e-06
3.25446e-08
1.46548e-10
-3.35392e-08
2.20694e-06
3.43189e-08
1.62284e-10
-3.53372e-08
2.20785e-06
3.65015e-08
1.03033e-10
-3.75653e-08
2.20885e-06
3.89927e-08
5.17976e-11
-4.01321e-08
2.20998e-06
4.16857e-08
-3.54851e-11
-4.29257e-08
2.21124e-06
4.45083e-08
-4.6356e-11
-4.58839e-08
2.21265e-06
4.74018e-08
-4.63958e-11
-4.89354e-08
2.21422e-06
5.03096e-08
-6.74253e-12
-5.20368e-08
2.21593e-06
5.31868e-08
7.67482e-11
-5.51295e-08
2.21783e-06
5.59949e-08
1.29076e-10
-5.81875e-08
2.21993e-06
5.87028e-08
2.13055e-10
-6.11655e-08
2.22226e-06
6.12868e-08
2.54666e-10
-6.40498e-08
2.22482e-06
6.37076e-08
3.20426e-10
-6.67851e-08
2.22765e-06
6.59811e-08
3.24208e-10
-6.93932e-08
2.23074e-06
6.79961e-08
3.66396e-10
-7.17436e-08
2.23411e-06
6.99319e-08
3.27654e-10
-7.40137e-08
2.23776e-06
7.13257e-08
2.41431e-10
-7.57172e-08
2.24153e-06
7.30208e-08
2.87553e-10
-7.76503e-08
7.36036e-08
-1.18977e-09
2.24608e-06
-7.83452e-08
2.18362e-06
7.95451e-09
-4.03466e-07
2.21061e-06
2.17691e-08
-7.26901e-08
2.21054e-06
2.77157e-08
2.35736e-09
2.20583e-06
2.98811e-08
6.65366e-09
2.20249e-06
3.13067e-08
3.21898e-09
2.20052e-06
3.37321e-08
1.7141e-09
2.19926e-06
3.73279e-08
1.39755e-09
2.19837e-06
4.08052e-08
1.37643e-09
2.19775e-06
4.26025e-08
1.37435e-09
2.19736e-06
4.20076e-08
1.35685e-09
2.19721e-06
3.94497e-08
1.2701e-09
2.19736e-06
3.60471e-08
1.02681e-09
2.19782e-06
3.29376e-08
6.52046e-10
2.19857e-06
3.08509e-08
2.7109e-10
2.1995e-06
3.00147e-08
3.42449e-11
2.20051e-06
3.0312e-08
-7.07286e-11
2.20149e-06
3.14681e-08
-2.61499e-11
2.2025e-06
3.32206e-08
-4.98817e-11
2.2035e-06
3.53567e-08
4.41277e-11
2.20463e-06
3.77428e-08
-7.48177e-11
2.20587e-06
4.02833e-08