/*--------------------------------*- C++ -*----------------------------------*\
| =========                 |                                                 |
| \\      /  F ield         | OpenFOAM: The Open Source CFD Toolbox           |
|  \\    /   O peration     | Version:  3.0.1                                 |
|   \\  /    A nd           | Web:      www.OpenFOAM.org                      |
|    \\/     M anipulation  |                                                 |
\*---------------------------------------------------------------------------*/
FoamFile
{
    version     2.0;
    format      ascii;
    class       volScalarField;
    location    "0";
    object      nut;
}
// * * * * * * * * * * * * * * * * * * * * * * * * * * * * * * * * * * * * * //

dimensions      [0 2 -1 0 0 0 0];

internalField   uniform 0;

boundaryField
{
    inlet		// will be overwritten when mapping is performed
    {
        type            fixedValue;
        value           uniform 99999;
    }

    outlet
    {
        type            zeroGradient;
    }

    top
    {
        type            slip;
    }

   
    roughCylinder
    {
        type            nutkWallFunction;
        value           uniform 0;
    }

    bottom
    {
        type            nutkWallFunction;
        value           uniform 0;
    }

    sideWall
    {
        type            nutkWallFunction;
        value           uniform 0;
    }
}


// ************************************************************************* //
