/*--------------------------------*- C++ -*----------------------------------*\
  =========                 |
  \\      /  F ield         | OpenFOAM: The Open Source CFD Toolbox
   \\    /   O peration     | Website:  https://openfoam.org
    \\  /    A nd           | Version:  6
     \\/     M anipulation  |
\*---------------------------------------------------------------------------*/
FoamFile
{
    version     2.0;
    format      ascii;
    class       volVectorField;
    location    "41";
    object      wallShearStress;
}
// * * * * * * * * * * * * * * * * * * * * * * * * * * * * * * * * * * * * * //

dimensions      [0 2 -2 0 0 0 0];

internalField   uniform (0 0 0);

boundaryField
{
    inlet
    {
        type            calculated;
        value           uniform (0 0 0);
    }
    outlet
    {
        type            calculated;
        value           uniform (0 0 0);
    }
    roughCylinder
    {
        type            calculated;
        value           nonuniform List<vector> 
5120
(
(-0.000442483 -0.000638357 -0.00033094)
(-0.00039411 -0.000565686 -3.9762e-05)
(-0.000348499 -0.000545373 1.13505e-06)
(-0.000383817 -0.000603596 4.90852e-05)
(-0.000450357 -0.000681727 0.000104513)
(-0.000520825 -0.000742088 0.000156948)
(-0.000592107 -0.000782044 0.000203162)
(-0.000659869 -0.000803768 0.000241922)
(-0.000721586 -0.00081124 0.000272471)
(-0.000777197 -0.000812047 0.000295615)
(-0.000827717 -0.000813453 0.000313358)
(-0.000870265 -0.000816031 0.000324936)
(-0.000906127 -0.000822868 0.000330682)
(-0.000936778 -0.000834073 0.000331616)
(-0.000963247 -0.000849044 0.000328878)
(-0.000987169 -0.000867011 0.000323574)
(-0.00100998 -0.000887098 0.000316517)
(-0.00103313 -0.000908942 0.000308316)
(-0.00105728 -0.000932137 0.000299197)
(-0.00108281 -0.000956536 0.000289234)
(-0.00110986 -0.00098211 0.000278414)
(-0.0011384 -0.00100881 0.000266667)
(-0.0011683 -0.00103655 0.000253883)
(-0.00119936 -0.00106514 0.000239908)
(-0.00123133 -0.00109433 0.000224493)
(-0.00126382 -0.00112375 0.000207277)
(-0.00129635 -0.00115292 0.000187708)
(-0.00132822 -0.00118116 0.000165038)
(-0.00135842 -0.00120755 0.000138137)
(-0.00138544 -0.0012308 0.000105849)
(-0.00140656 -0.0012492 6.64565e-05)
(-0.00141811 -0.00125993 2.22226e-05)
(-0.000549909 -0.000719065 -0.000374847)
(-0.000415091 -0.000547628 -4.29157e-05)
(-0.000366708 -0.000526066 -4.45376e-06)
(-0.000402779 -0.000585474 4.00185e-05)
(-0.000471016 -0.000664476 9.32542e-05)
(-0.000543462 -0.000726581 0.000144371)
(-0.000616708 -0.00076874 0.000189743)
(-0.000686835 -0.000793156 0.000228089)
(-0.000751872 -0.000804439 0.000258963)
(-0.000811801 -0.000809519 0.00028339)
(-0.000866014 -0.000813171 0.000302513)
(-0.000911988 -0.000815492 0.000315272)
(-0.000949571 -0.000821014 0.000321618)
(-0.000981745 -0.000831197 0.00032285)
(-0.00100975 -0.00084552 0.000320345)
(-0.00103505 -0.000862974 0.000315171)
(-0.0010594 -0.000882871 0.000308284)
(-0.00108381 -0.000904392 0.000300195)
(-0.00110927 -0.000927311 0.000291238)
(-0.00113621 -0.000951501 0.000281513)
(-0.00116473 -0.000976864 0.000270995)
(-0.00119477 -0.00100332 0.000259605)
(-0.00122619 -0.00103078 0.00024723)
(-0.00125878 -0.00105903 0.000233707)
(-0.00129226 -0.00108786 0.000218788)
(-0.00132625 -0.00111689 0.000202109)
(-0.00136025 -0.00114565 0.00018312)
(-0.0013935 -0.00117347 0.00016108)
(-0.00142499 -0.00119946 0.000134874)
(-0.00145312 -0.00122234 0.000103371)
(-0.00147511 -0.00124047 6.48937e-05)
(-0.00148713 -0.001251 2.16896e-05)
(-0.000608454 -0.000714662 -0.00036693)
(-0.000454228 -0.000547084 -4.72512e-05)
(-0.000393539 -0.000513764 -1.09857e-05)
(-0.000421426 -0.000562953 3.01654e-05)
(-0.000489958 -0.000640864 8.10001e-05)
(-0.000564024 -0.000704227 0.000130653)
(-0.000639106 -0.000748561 0.00017515)
(-0.000711975 -0.00077637 0.000213361)
(-0.000780833 -0.000792059 0.000244971)
(-0.00084479 -0.000801011 0.000270615)
(-0.000902646 -0.00080691 0.000290779)
(-0.000952348 -0.000810282 0.00030468)
(-0.000992014 -0.000814121 0.000311559)
(-0.00102581 -0.00082327 0.000313177)
(-0.00105533 -0.000836661 0.000310908)
(-0.00108219 -0.000853531 0.000305965)
(-0.00110776 -0.000872747 0.000299205)
(-0.00113366 -0.000893907 0.000291335)
(-0.00116058 -0.000916499 0.000282631)
(-0.0011889 -0.000940274 0.000273184)
(-0.00121879 -0.000965173 0.000262992)
(-0.00125024 -0.000991149 0.000251991)
(-0.00128309 -0.00101808 0.00024006)
(-0.00131715 -0.00104581 0.000227034)
(-0.00135209 -0.00107406 0.000212657)
(-0.00138752 -0.0011025 0.000196563)
(-0.00142289 -0.00113065 0.0001782)
(-0.00145747 -0.00115786 0.000156837)
(-0.00149015 -0.00118327 0.000131377)
(-0.00151933 -0.00120563 0.000100717)
(-0.00154212 -0.00122334 6.32229e-05)
(-0.00155459 -0.00123362 2.11208e-05)
(-0.000601144 -0.00063123 -0.000311861)
(-0.000466323 -0.000510199 -4.94687e-05)
(-0.0004103 -0.000486375 -1.79294e-05)
(-0.000434996 -0.00053324 1.97788e-05)
(-0.000503718 -0.000610432 6.79796e-05)
(-0.000579543 -0.000675406 0.000115981)
(-0.000657036 -0.00072273 0.000159601)
(-0.000732975 -0.000754453 0.000197724)
(-0.000805385 -0.000774421 0.00023003)
(-0.000873365 -0.000787269 0.000256907)
(-0.00093487 -0.000795426 0.000278094)
(-0.000987786 -0.000799978 0.000292816)
(-0.00103109 -0.00080346 0.000300631)
(-0.00106656 -0.000811018 0.000302688)
(-0.00109781 -0.000823391 0.000300762)
(-0.00112611 -0.000839317 0.000296066)
(-0.00115345 -0.000858091 0.000289635)
(-0.00118068 -0.000878613 0.000282)
(-0.00120887 -0.000900575 0.000273555)
(-0.00123858 -0.000923822 0.000264445)
(-0.00126992 -0.000948221 0.000254658)
(-0.00130281 -0.000973635 0.000244107)
(-0.0013371 -0.000999961 0.000232672)
(-0.00137254 -0.00102701 0.000220179)
(-0.00140885 -0.00105454 0.000206375)
(-0.00144559 -0.00108221 0.000190889)
(-0.00148222 -0.00110958 0.000173175)
(-0.00151799 -0.00113603 0.00015251)
(-0.00155174 -0.00116071 0.000127815)
(-0.00158185 -0.00118241 9.80153e-05)
(-0.00160536 -0.0011996 6.15237e-05)
(-0.00161821 -0.00120956 2.05435e-05)
(-0.000722508 -0.000677642 -0.00031725)
(-0.000497123 -0.000491968 -5.38713e-05)
(-0.000425241 -0.000457483 -2.46697e-05)
(-0.000444541 -0.000499793 9.48521e-06)
(-0.000512824 -0.000575594 5.46199e-05)
(-0.000589968 -0.000641674 0.000100638)
(-0.000669344 -0.00069141 0.000143069)
(-0.000748202 -0.000726902 0.000180946)
(-0.000824562 -0.000751446 0.000213966)
(-0.000896188 -0.000767783 0.000241891)
(-0.00096123 -0.00077815 0.000264099)
(-0.00101784 -0.000784223 0.000279715)
(-0.0010649 -0.000788214 0.000288504)
(-0.00110329 -0.00079431 0.000291319)
(-0.00113628 -0.000805349 0.000289861)
(-0.00116653 -0.000820385 0.000285602)
(-0.00119507 -0.000838015 0.000279431)
(-0.00122388 -0.000857877 0.000272169)
(-0.00125366 -0.000879289 0.000264127)
(-0.00128473 -0.000901864 0.000255414)
(-0.00131732 -0.000925484 0.000246049)
(-0.00135146 -0.000950104 0.000235973)
(-0.001387 -0.000975588 0.00022506)
(-0.00142371 -0.00100178 0.000213138)
(-0.00146125 -0.00102842 0.000199939)
(-0.0014992 -0.00105518 0.000185094)
(-0.00153696 -0.00108162 0.000168056)
(-0.00157377 -0.00110713 0.000148108)
(-0.00160849 -0.00113092 0.000124196)
(-0.00163942 -0.00115183 9.52744e-05)
(-0.00166355 -0.0011684 5.98032e-05)
(-0.00167672 -0.00117798 1.99602e-05)
(-0.00072284 -0.000607485 -0.000260757)
(-0.000528942 -0.000468472 -5.85121e-05)
(-0.000441393 -0.000430109 -3.17612e-05)
(-0.000448698 -0.000462384 -1.00357e-06)
(-0.000514729 -0.00053516 4.08076e-05)
(-0.000593127 -0.000602398 8.45093e-05)
(-0.000675169 -0.000655413 0.000125633)
(-0.000757528 -0.000695113 0.000163195)
(-0.000837165 -0.000723362 0.000196591)
(-0.000912587 -0.00074308 0.000225459)
(-0.000981392 -0.000755761 0.000248714)
(-0.00104142 -0.000763032 0.000265201)
(-0.00109248 -0.000768063 0.000274968)
(-0.00113481 -0.000773731 0.000278816)
(-0.0011703 -0.000782946 0.000278076)
(-0.00120213 -0.000796433 0.000274283)
(-0.0012329 -0.000813366 0.000268705)
(-0.00126318 -0.000832236 0.000261867)
(-0.00129415 -0.000852618 0.000254223)
(-0.00132656 -0.000874338 0.000245981)
(-0.00136058 -0.000897181 0.000237144)
(-0.00139608 -0.00092096 0.000227626)
(-0.00143291 -0.000945547 0.000217303)
(-0.00147081 -0.000970744 0.000205991)
(-0.00150948 -0.000996336 0.000193428)
(-0.00154847 -0.00102201 0.000179245)
(-0.00158721 -0.00104734 0.000162898)
(-0.00162493 -0.00107177 0.000143681)
(-0.00166046 -0.00109453 0.000120561)
(-0.00169207 -0.00111451 9.25232e-05)
(-0.00171674 -0.00113036 5.80788e-05)
(-0.00173016 -0.00113952 1.93773e-05)
(-0.000654169 -0.000486355 -0.000190169)
(-0.000517926 -0.000412337 -5.88819e-05)
(-0.000443993 -0.000391158 -3.79579e-05)
(-0.000447027 -0.000422084 -1.11262e-05)
(-0.000510892 -0.000492535 2.69801e-05)
(-0.000590064 -0.000560478 6.79743e-05)
(-0.000673595 -0.000615565 0.000107301)
(-0.000758355 -0.000658335 0.00014408)
(-0.00084213 -0.000690777 0.000177798)
(-0.000921315 -0.000713567 0.000207385)
(-0.000993711 -0.000728295 0.000231554)
(-0.00105804 -0.00073734 0.000249202)
(-0.0011129 -0.000743137 0.000259974)
(-0.00115943 -0.000749198 0.00026492)
(-0.00119863 -0.000757344 0.000265195)
(-0.00123341 -0.000769351 0.000262281)
(-0.00126549 -0.000784269 0.000257185)
(-0.00129753 -0.000801988 0.000250951)
(-0.00133033 -0.000821559 0.000243929)
(-0.00136416 -0.000842313 0.000236249)
(-0.0013993 -0.000864054 0.000227959)
(-0.00143588 -0.000886712 0.000219023)
(-0.00147374 -0.000910133 0.000209311)
(-0.00151267 -0.000934167 0.000198649)
(-0.00155232 -0.000958564 0.000186762)
(-0.00159224 -0.00098302 0.000173275)
(-0.00163183 -0.00100712 0.000157647)
(-0.00167029 -0.00103034 0.000139182)
(-0.00170649 -0.00105195 0.000116872)
(-0.00173869 -0.00107091 8.97346e-05)
(-0.00176378 -0.00108596 5.63351e-05)
(-0.00177736 -0.00109464 1.87896e-05)
(-0.000737666 -0.000482169 -0.000174616)
(-0.000533902 -0.000384854 -6.07498e-05)
(-0.000445781 -0.000354353 -4.3617e-05)
(-0.000437536 -0.000378585 -2.07161e-05)
(-0.000497142 -0.000445099 1.30456e-05)
(-0.000576354 -0.000513163 5.07048e-05)
(-0.000662331 -0.000571211 8.79317e-05)
(-0.000751125 -0.000618327 0.000123835)
(-0.000837933 -0.000653803 0.000157349)
(-0.000921044 -0.000679547 0.000187457)
(-0.000997917 -0.000696781 0.000212595)
(-0.00106596 -0.000707069 0.000231279)
(-0.00112537 -0.000714035 0.000243373)
(-0.00117573 -0.000720194 0.000249448)
(-0.00121913 -0.000728168 0.000250928)
(-0.00125679 -0.000738649 0.000248938)
(-0.00129257 -0.000752679 0.000244968)
(-0.00132663 -0.000768901 0.00023952)
(-0.00136059 -0.000786832 0.000233096)
(-0.00139576 -0.000806279 0.000226055)
(-0.00143236 -0.000826919 0.000218455)
(-0.00147024 -0.00084844 0.000210209)
(-0.00150928 -0.000870691 0.000201198)
(-0.00154922 -0.000893474 0.000191236)
(-0.00158972 -0.000916553 0.000180055)
(-0.00163037 -0.000939652 0.000167286)
(-0.0016706 -0.000962392 0.00015239)
(-0.00170965 -0.000984276 0.000134684)
(-0.00174636 -0.00100461 0.000113186)
(-0.00177897 -0.00102243 8.69496e-05)
(-0.00180436 -0.00103659 5.45982e-05)
(-0.00181803 -0.00104483 1.82067e-05)
(-0.000605047 -0.000351542 -0.00010891)
(-0.000518673 -0.000331609 -6.00977e-05)
(-0.000439986 -0.000315546 -4.8786e-05)
(-0.000423012 -0.000335397 -2.96487e-05)
(-0.000476939 -0.000397116 -4.25474e-07)
(-0.000555877 -0.000465091 3.34478e-05)
(-0.000642462 -0.000524484 6.7916e-05)
(-0.000732177 -0.00057331 0.000102051)
(-0.000823351 -0.000612732 0.000135174)
(-0.00091079 -0.000641542 0.000165551)
(-0.000991514 -0.000660674 0.000191358)
(-0.00106481 -0.000673069 0.000211358)
(-0.00112847 -0.000680854 0.000224796)
(-0.00118368 -0.000687618 0.000232402)
(-0.00123068 -0.000695027 0.000235127)
(-0.00127281 -0.000705188 0.000234532)
(-0.00131062 -0.000717563 0.000231498)
(-0.00134712 -0.0007324 0.00022703)
(-0.00138367 -0.000749251 0.00022159)
(-0.00142063 -0.000767436 0.000215392)
(-0.00145836 -0.000786622 0.000208536)
(-0.00149721 -0.00080671 0.000201028)
(-0.00153707 -0.000827507 0.000192752)
(-0.00157774 -0.000848843 0.000183536)
(-0.00161893 -0.000870496 0.000173114)
(-0.00166017 -0.000892164 0.000161107)
(-0.00170088 -0.000913475 0.00014698)
(-0.00174032 -0.00093394 0.000130063)
(-0.00177739 -0.000952954 0.000109406)
(-0.00181034 -0.000969595 8.41009e-05)
(-0.00183593 -0.000982838 5.28285e-05)
(-0.00184945 -0.000990543 1.76146e-05)
(-0.000672475 -0.000343821 -8.60486e-05)
(-0.000516812 -0.000291811 -6.24141e-05)
(-0.000426605 -0.000275584 -5.27973e-05)
(-0.000398979 -0.000289866 -3.73983e-05)
(-0.000444511 -0.000345048 -1.32018e-05)
(-0.000520716 -0.000410954 1.60654e-05)
(-0.000608697 -0.000472333 4.71179e-05)
(-0.000703485 -0.000526028 7.93141e-05)
(-0.000797343 -0.000568001 0.000111258)
(-0.000888731 -0.000599502 0.000141468)
(-0.000975113 -0.000621594 0.00016804)
(-0.00105257 -0.000635202 0.000189062)
(-0.0011217 -0.000644333 0.000204131)
(-0.00118115 -0.000651151 0.000213296)
(-0.00123318 -0.000658665 0.000217746)
(-0.00127799 -0.000667437 0.000218415)
(-0.00132009 -0.000679278 0.000216875)
(-0.00135931 -0.000692871 0.000213578)
(-0.00139726 -0.000707988 0.000209078)
(-0.0014357 -0.000724696 0.000203825)
(-0.00147511 -0.000742653 0.000197924)
(-0.00151532 -0.000761458 0.000191318)
(-0.00155628 -0.000780922 0.000183911)
(-0.00159778 -0.000800844 0.000175536)
(-0.00163947 -0.000820976 0.000165923)
(-0.00168102 -0.000841085 0.000154716)
(-0.00172192 -0.000860846 0.000141389)
(-0.00176153 -0.000879841 0.000125292)
(-0.00179871 -0.000897467 0.000105504)
(-0.00183175 -0.000912886 8.11599e-05)
(-0.00185733 -0.000925159 5.1003e-05)
(-0.00187064 -0.000932267 1.70055e-05)
(-0.000529681 -0.000235658 -4.47936e-05)
(-0.000483119 -0.000241617 -6.01409e-05)
(-0.000408568 -0.000236636 -5.62758e-05)
(-0.000369879 -0.000246178 -4.41929e-05)
(-0.000405319 -0.000294221 -2.47695e-05)
(-0.000479639 -0.000358676 -5.55471e-07)
(-0.000567069 -0.000420417 2.63624e-05)
(-0.000659724 -0.000473588 5.52984e-05)
(-0.000758121 -0.000519462 8.56606e-05)
(-0.00085478 -0.000554517 0.000115375)
(-0.000945115 -0.000578413 0.00014213)
(-0.00102918 -0.000594604 0.000164464)
(-0.00110323 -0.000604545 0.000181072)
(-0.0011687 -0.000612166 0.00019224)
(-0.00122464 -0.000618952 0.000198413)
(-0.00127513 -0.00062771 0.000201073)
(-0.0013193 -0.000637696 0.000200851)
(-0.00136101 -0.000649782 0.000198876)
(-0.00140204 -0.000663885 0.000195729)
(-0.0014425 -0.000679251 0.000191624)
(-0.00148285 -0.000695523 0.000186695)
(-0.00152375 -0.000712642 0.000181014)
(-0.00156516 -0.000730415 0.000174502)
(-0.00160696 -0.000748643 0.000167003)
(-0.00164894 -0.000767157 0.00015827)
(-0.00169065 -0.000785659 0.00014793)
(-0.00173156 -0.000803827 0.000135463)
(-0.00177101 -0.000821247 0.000120232)
(-0.00180807 -0.000837436 0.000101366)
(-0.00184101 -0.0008516 7.80419e-05)
(-0.00186644 -0.000862862 4.90694e-05)
(-0.00187941 -0.000869325 1.63614e-05)
(-0.000482566 -0.000183741 -2.20903e-05)
(-0.00042734 -0.000189766 -5.61643e-05)
(-0.000369467 -0.000191767 -5.62497e-05)
(-0.000330997 -0.000201877 -4.86866e-05)
(-0.000352775 -0.000240503 -3.41756e-05)
(-0.000419208 -0.000299024 -1.57811e-05)
(-0.000505508 -0.000360647 5.91218e-06)
(-0.000605597 -0.000420128 3.11149e-05)
(-0.000705967 -0.000468169 5.87829e-05)
(-0.000806077 -0.000505707 8.71876e-05)
(-0.000903725 -0.000533535 0.000114187)
(-0.000992314 -0.000551012 0.000137317)
(-0.00107315 -0.000562646 0.000155733)
(-0.00114332 -0.000570159 0.000168791)
(-0.0012057 -0.000577259 0.000177278)
(-0.00125875 -0.00058424 0.000181659)
(-0.0013083 -0.000593774 0.000183499)
(-0.00135353 -0.00060465 0.000183194)
(-0.00139583 -0.000616729 0.000181318)
(-0.00143768 -0.000630341 0.000178432)
(-0.00147988 -0.000645241 0.000174726)
(-0.00152218 -0.000660948 0.000170175)
(-0.00156462 -0.000677242 0.000164719)
(-0.00160707 -0.000693936 0.000158219)
(-0.00164917 -0.000710763 0.000150417)
(-0.00169071 -0.00072755 0.000140976)
(-0.00173129 -0.000744026 0.000129392)
(-0.00177044 -0.000759869 0.000115058)
(-0.00180711 -0.000774562 9.71326e-05)
(-0.00183968 -0.000787422 7.48491e-05)
(-0.00186477 -0.000797639 4.70914e-05)
(-0.00187733 -0.000803453 1.5705e-05)
(-0.000442279 -0.000143323 -8.43291e-06)
(-0.000390653 -0.00015548 -5.30243e-05)
(-0.000332192 -0.000154505 -5.58607e-05)
(-0.000285058 -0.000159684 -5.07249e-05)
(-0.000295151 -0.000190015 -4.07171e-05)
(-0.000356785 -0.00024461 -2.8777e-05)
(-0.000441412 -0.000305582 -1.31182e-05)
(-0.000532875 -0.000360451 6.9863e-06)
(-0.000637942 -0.000412764 3.1178e-05)
(-0.000744705 -0.000455032 5.76759e-05)
(-0.000845737 -0.00048467 8.38971e-05)
(-0.000942677 -0.000505736 0.000107997)
(-0.00102903 -0.000518369 0.000127934)
(-0.00110684 -0.000527133 0.000143364)
(-0.00117328 -0.000533207 0.000153988)
(-0.00123384 -0.000540476 0.000161016)
(-0.0012855 -0.000547834 0.000164676)
(-0.00133326 -0.000556885 0.000166129)
(-0.00137946 -0.000567925 0.000166055)
(-0.0014238 -0.000580125 0.000164679)
(-0.00146679 -0.000593096 0.000162199)
(-0.00150946 -0.000606876 0.000158774)
(-0.00155195 -0.000621258 0.000154378)
(-0.00159421 -0.00063606 0.00014889)
(-0.00163619 -0.000651143 0.000142091)
(-0.00167744 -0.000666218 0.000133622)
(-0.00171754 -0.000681017 0.000122983)
(-0.00175598 -0.000695196 0.000109584)
(-0.00179202 -0.000708386 9.26524e-05)
(-0.00182405 -0.000719941 7.14712e-05)
(-0.00184864 -0.00072911 4.50028e-05)
(-0.00186063 -0.000734245 1.50142e-05)
(-0.000327955 -9.14141e-05 9.27224e-06)
(-0.00032417 -0.000111033 -4.88237e-05)
(-0.000284529 -0.000119451 -5.47894e-05)
(-0.000238279 -0.000123284 -5.14571e-05)
(-0.000224991 -0.00013807 -4.25786e-05)
(-0.000271055 -0.000181034 -3.65138e-05)
(-0.000348156 -0.000237102 -2.79544e-05)
(-0.000452895 -0.000301936 -1.49989e-05)
(-0.000557401 -0.000355348 4.00506e-06)
(-0.000665771 -0.000399753 2.7313e-05)
(-0.000776386 -0.000435216 5.24905e-05)
(-0.000877616 -0.000457948 7.66417e-05)
(-0.000972332 -0.000473245 9.82069e-05)
(-0.00105497 -0.00048196 0.000115627)
(-0.00112971 -0.000488902 0.000129042)
(-0.00119225 -0.00049391 0.000138192)
(-0.00125065 -0.000500929 0.000144483)
(-0.00130302 -0.000508842 0.000148154)
(-0.00135029 -0.000517534 0.000149722)
(-0.00139584 -0.000527686 0.000149875)
(-0.00144096 -0.00053919 0.000148919)
(-0.00148524 -0.000551492 0.000146878)
(-0.00152883 -0.000564358 0.000143747)
(-0.00157162 -0.000577572 0.00013942)
(-0.00161333 -0.000590895 0.000133675)
(-0.0016539 -0.000604193 0.000126197)
(-0.00169312 -0.000617255 0.000116514)
(-0.00173075 -0.000629837 0.000104073)
(-0.00176589 -0.000641515 8.81383e-05)
(-0.00179709 -0.000651745 6.80638e-05)
(-0.00182097 -0.000659855 4.28994e-05)
(-0.00183234 -0.000664351 1.43221e-05)
(-0.000189769 -4.31169e-05 1.62624e-05)
(-0.00022889 -6.79916e-05 -4.05948e-05)
(-0.000214909 -8.21581e-05 -5.0074e-05)
(-0.000179419 -8.71818e-05 -4.78483e-05)
(-0.000159183 -9.4351e-05 -4.01637e-05)
(-0.000188687 -0.000124486 -3.86496e-05)
(-0.000266844 -0.000180964 -3.9463e-05)
(-0.000347655 -0.000232014 -3.27964e-05)
(-0.000459043 -0.00029207 -2.05357e-05)
(-0.000576149 -0.000343464 -2.11475e-06)
(-0.000687805 -0.000380649 2.04339e-05)
(-0.00079959 -0.00040908 4.43275e-05)
(-0.000899736 -0.000426078 6.67865e-05)
(-0.000991959 -0.000437272 8.64993e-05)
(-0.00107018 -0.000443132 0.000102173)
(-0.0011426 -0.00044919 0.000114451)
(-0.00120287 -0.000453826 0.000122976)
(-0.00125747 -0.000459599 0.00012878)
(-0.00130966 -0.000467322 0.000132594)
(-0.00135842 -0.000476073 0.000134638)
(-0.0014041 -0.000485456 0.000135168)
(-0.0014483 -0.000495622 0.000134453)
(-0.00149133 -0.000506388 0.000132535)
(-0.00153345 -0.000517625 0.000129363)
(-0.00157458 -0.000529161 0.000124739)
(-0.00161439 -0.000540759 0.000118332)
(-0.0016526 -0.00055217 0.000109669)
(-0.00168889 -0.000563104 9.82197e-05)
(-0.00172287 -0.000573304 8.33386e-05)
(-0.00175308 -0.000582259 6.44405e-05)
(-0.0017761 -0.000589348 4.06663e-05)
(-0.00178666 -0.000593206 1.35892e-05)
(-7.12071e-05 -1.20045e-05 1.30983e-05)
(-0.000128839 -3.44742e-05 -2.72553e-05)
(-0.000136479 -4.74845e-05 -4.03684e-05)
(-0.000122348 -5.58577e-05 -4.28256e-05)
(-6.83242e-05 -4.02289e-05 -2.40043e-05)
(-7.67239e-05 -5.12272e-05 -2.32353e-05)
(-0.000131494 -9.08998e-05 -3.17048e-05)
(-0.000251611 -0.000169876 -4.41068e-05)
(-0.000351569 -0.000225911 -4.069e-05)
(-0.00046612 -0.000279349 -2.84485e-05)
(-0.000591211 -0.000326283 -1.00362e-05)
(-0.000705125 -0.000356935 1.20987e-05)
(-0.000815372 -0.000378776 3.49872e-05)
(-0.000911356 -0.000390533 5.60754e-05)
(-0.00100016 -0.000398768 7.44276e-05)
(-0.00107282 -0.000402364 8.88627e-05)
(-0.0011413 -0.000407221 0.000100317)
(-0.00120189 -0.000412249 0.000108745)
(-0.0012546 -0.000417415 0.000114488)
(-0.00130408 -0.000423898 0.000118318)
(-0.00135228 -0.000431828 0.000120654)
(-0.0013985 -0.000440584 0.000121578)
(-0.00144298 -0.00044995 0.000121146)
(-0.00148543 -0.00045962 0.000119286)
(-0.00152593 -0.000469462 0.000115837)
(-0.00156451 -0.000479332 0.000110506)
(-0.00160123 -0.000489083 0.000102857)
(-0.00163621 -0.00049853 9.24128e-05)
(-0.00166875 -0.00050731 7.85721e-05)
(-0.00169764 -0.00051501 6.08359e-05)
(-0.00171957 -0.000521102 3.84484e-05)
(-0.00172933 -0.0005244 1.28659e-05)
(-1.75187e-05 -7.79275e-07 1.2366e-05)
(-3.99627e-05 -9.47725e-06 -9.0506e-06)
(-5.04342e-05 -1.46624e-05 -2.19287e-05)
(-4.22866e-05 -1.83714e-05 -2.35223e-05)
(-3.96596e-05 -2.53615e-05 -2.28183e-05)
(-5.89585e-05 -4.49154e-05 -2.86856e-05)
(-5.79144e-05 -4.43799e-05 -2.16963e-05)
(-7.93402e-05 -5.60831e-05 -2.2495e-05)
(-0.000229271 -0.000149801 -4.83243e-05)
(-0.000352119 -0.000213772 -4.89678e-05)
(-0.000471817 -0.000262392 -3.62483e-05)
(-0.000600449 -0.000303555 -1.77633e-05)
(-0.000714121 -0.000328366 4.03593e-06)
(-0.000821948 -0.000345317 2.6036e-05)
(-0.000911861 -0.000352936 4.59238e-05)
(-0.000997419 -0.000359432 6.32219e-05)
(-0.00106666 -0.000362144 7.68945e-05)
(-0.00112838 -0.000365015 8.75335e-05)
(-0.0011872 -0.000369624 9.57803e-05)
(-0.00124084 -0.000374995 0.00010179)
(-0.00128917 -0.000380757 0.000105814)
(-0.00133457 -0.000387281 0.00010822)
(-0.00137747 -0.000394417 0.000109111)
(-0.00141881 -0.00040219 0.000108539)
(-0.00145813 -0.000410316 0.000106312)
(-0.00149546 -0.000418628 0.000102138)
(-0.00153061 -0.00042689 9.55722e-05)
(-0.00156356 -0.000434827 8.61618e-05)
(-0.00159437 -0.000442277 7.34279e-05)
(-0.0016218 -0.000448827 5.69435e-05)
(-0.00164251 -0.000454007 3.60554e-05)
(-0.00165119 -0.000456739 1.20863e-05)
(1.97128e-06 3.50849e-06 1.65485e-05)
(-2.25226e-06 5.0008e-07 -1.20039e-06)
(-7.23447e-06 -1.5053e-06 -1.19948e-05)
(-1.47111e-05 -1.0556e-05 -2.22814e-05)
(-1.69694e-05 -1.67211e-05 -2.0977e-05)
(-2.85285e-05 -3.11957e-05 -2.69871e-05)
(-4.29095e-05 -4.17685e-05 -2.83008e-05)
(-4.84808e-05 -3.94191e-05 -2.30299e-05)
(-7.2229e-05 -5.00484e-05 -2.45515e-05)
(-0.00021833 -0.000133623 -5.19179e-05)
(-0.000356908 -0.000199832 -5.59685e-05)
(-0.000478445 -0.000243428 -4.24173e-05)
(-0.000605217 -0.000277878 -2.37438e-05)
(-0.000713013 -0.000296501 -2.49089e-06)
(-0.000816491 -0.000309696 1.83916e-05)
(-0.000898129 -0.000313968 3.69861e-05)
(-0.000977082 -0.000318404 5.30894e-05)
(-0.0010464 -0.000321655 6.62427e-05)
(-0.00110441 -0.000323846 7.6413e-05)
(-0.00115763 -0.000326977 8.42645e-05)
(-0.00120889 -0.000331578 9.02617e-05)
(-0.00125689 -0.000336998 9.44987e-05)
(-0.00130201 -0.000343099 9.70813e-05)
(-0.00134335 -0.000349441 9.7936e-05)
(-0.00138175 -0.000356093 9.69898e-05)
(-0.00141722 -0.000362875 9.3955e-05)
(-0.00145019 -0.000369686 8.844e-05)
(-0.00148135 -0.000376386 8.00675e-05)
(-0.00151019 -0.000382621 6.84052e-05)
(-0.00153581 -0.000388094 5.31331e-05)
(-0.00155506 -0.000392415 3.37157e-05)
(-0.00156279 -0.000394714 1.13291e-05)
(7.12363e-06 8.30953e-06 2.5548e-05)
(1.54846e-05 7.17113e-06 -1.44646e-06)
(1.88872e-05 5.00633e-06 -1.24475e-05)
(1.81998e-05 -3.1486e-06 -1.91101e-05)
(1.1814e-05 -1.17016e-05 -2.15248e-05)
(1.75123e-06 -1.9621e-05 -2.34713e-05)
(-1.19127e-05 -2.76905e-05 -2.55316e-05)
(-3.17387e-05 -3.60142e-05 -2.92801e-05)
(-6.13295e-05 -4.8466e-05 -3.44604e-05)
(-0.000117755 -7.4949e-05 -4.46287e-05)
(-0.000203817 -0.000115011 -5.2274e-05)
(-0.000356239 -0.000182211 -5.79987e-05)
(-0.000477847 -0.000220646 -4.515e-05)
(-0.000601652 -0.000249936 -2.72812e-05)
(-0.000700358 -0.000263223 -7.11564e-06)
(-0.000799395 -0.000274084 1.23492e-05)
(-0.000876209 -0.000277197 2.97223e-05)
(-0.000944061 -0.0002788 4.45114e-05)
(-0.00100957 -0.000281566 5.69433e-05)
(-0.00106809 -0.000284401 6.69675e-05)
(-0.0011186 -0.000287095 7.46717e-05)
(-0.0011645 -0.000290401 8.04197e-05)
(-0.00120626 -0.000294277 8.43236e-05)
(-0.001246 -0.000299008 8.65452e-05)
(-0.00128243 -0.00030417 8.68711e-05)
(-0.00131609 -0.00030969 8.505e-05)
(-0.00134694 -0.000315319 8.06604e-05)
(-0.00137526 -0.00032076 7.33432e-05)
(-0.00140176 -0.000325918 6.28369e-05)
(-0.00142547 -0.00033047 4.8902e-05)
(-0.00144314 -0.000334049 3.11146e-05)
(-0.00144949 -0.000335895 1.04847e-05)
(1.65149e-05 1.22118e-05 3.13949e-05)
(2.85253e-05 1.10261e-05 -4.22491e-06)
(3.29299e-05 7.81483e-06 -1.26339e-05)
(3.77988e-05 1.42708e-06 -1.80901e-05)
(2.76511e-05 -5.50883e-06 -1.51671e-05)
(3.02904e-05 -1.66779e-05 -2.0588e-05)
(1.14602e-05 -1.59183e-05 -1.25491e-05)
(-1.59072e-06 -1.61042e-05 -1.16332e-05)
(-1.75586e-05 -1.90325e-05 -1.66389e-05)
(-4.05295e-05 -2.8088e-05 -2.3334e-05)
(-6.96184e-05 -3.96012e-05 -2.65101e-05)
(-0.000204862 -0.000104457 -5.22202e-05)
(-0.000354225 -0.000164205 -5.76079e-05)
(-0.000467371 -0.00019564 -4.50368e-05)
(-0.000585648 -0.0002205 -2.87281e-05)
(-0.000671828 -0.000229079 -1.00863e-05)
(-0.000760609 -0.000236897 7.67582e-06)
(-0.000838027 -0.000241104 2.38004e-05)
(-0.000899855 -0.000242056 3.75606e-05)
(-0.000955586 -0.000243096 4.90634e-05)
(-0.00100934 -0.000245413 5.86049e-05)
(-0.00105864 -0.000248336 6.61885e-05)
(-0.00110396 -0.00025192 7.18864e-05)
(-0.00114323 -0.000255579 7.5562e-05)
(-0.00117851 -0.00025969 7.72251e-05)
(-0.00120962 -0.000264031 7.65604e-05)
(-0.00123752 -0.00026855 7.32204e-05)
(-0.00126368 -0.000273126 6.69532e-05)
(-0.00128771 -0.000277389 5.75362e-05)
(-0.00130913 -0.000281121 4.48602e-05)
(-0.00132502 -0.000284052 2.86303e-05)
(-0.00133037 -0.000285607 9.68451e-06)
(2.60945e-05 1.33607e-05 3.35084e-05)
(5.23897e-05 1.54706e-05 -6.15203e-06)
(6.77402e-05 1.25222e-05 -1.86502e-05)
(6.98845e-05 3.90614e-06 -2.32972e-05)
(5.51111e-05 -5.54559e-06 -2.01809e-05)
(4.18922e-05 -1.25694e-05 -1.55597e-05)
(2.87336e-05 -1.58504e-05 -1.02478e-05)
(2.78895e-05 -2.77719e-05 -1.02637e-05)
(3.44406e-06 -2.37379e-05 -8.97251e-06)
(-2.53286e-05 -2.34609e-05 -2.02145e-05)
(-6.41173e-05 -3.68342e-05 -3.48221e-05)
(-6.94666e-05 -3.55732e-05 -2.56262e-05)
(-0.000202222 -9.30486e-05 -4.93758e-05)
(-0.000345989 -0.000145836 -5.53653e-05)
(-0.000445027 -0.00016998 -4.31396e-05)
(-0.000558481 -0.00019185 -2.88378e-05)
(-0.000638501 -0.000198991 -1.19457e-05)
(-0.000709379 -0.000202418 4.29811e-06)
(-0.000780589 -0.00020613 1.91208e-05)
(-0.000843221 -0.000208538 3.2168e-05)
(-0.000894425 -0.000209621 4.30606e-05)
(-0.000939318 -0.000210849 5.19082e-05)
(-0.000978274 -0.000212414 5.86983e-05)
(-0.00101516 -0.000214977 6.3662e-05)
(-0.00104737 -0.000218001 6.65308e-05)
(-0.00107606 -0.000221529 6.70576e-05)
(-0.0011013 -0.000225295 6.48348e-05)
(-0.00112368 -0.000228942 5.96117e-05)
(-0.00114478 -0.000232455 5.13998e-05)
(-0.00116385 -0.000235558 4.01682e-05)
(-0.00117784 -0.000237967 2.57322e-05)
(-0.00118152 -0.000239164 8.74044e-06)
(3.33387e-05 1.35789e-05 3.48362e-05)
(7.17331e-05 1.81734e-05 -5.05427e-06)
(9.46998e-05 1.61749e-05 -2.0217e-05)
(0.000106323 7.43738e-06 -2.9066e-05)
(0.000106695 -5.25294e-06 -3.23066e-05)
(9.15616e-05 -1.73873e-05 -2.90124e-05)
(5.30766e-05 -1.97752e-05 -1.6945e-05)
(4.84046e-05 -3.09657e-05 -1.31325e-05)
(3.28073e-05 -3.56484e-05 -4.71693e-06)
(2.95779e-06 -1.52551e-05 -1.14716e-06)
(-1.95076e-05 -1.64523e-05 -1.08575e-05)
(-4.56976e-05 -2.35669e-05 -2.22096e-05)
(-6.82483e-05 -3.133e-05 -2.37724e-05)
(-0.000185648 -7.89903e-05 -4.42786e-05)
(-0.000324698 -0.000126144 -5.11417e-05)
(-0.000404971 -0.000142752 -3.98274e-05)
(-0.000503899 -0.000160042 -2.71865e-05)
(-0.000587719 -0.000169505 -1.25747e-05)
(-0.00064964 -0.000172114 2.18776e-06)
(-0.000704725 -0.000173422 1.56851e-05)
(-0.000759495 -0.000175625 2.76775e-05)
(-0.000809022 -0.000177831 3.79483e-05)
(-0.000853661 -0.000180384 4.63675e-05)
(-0.000889729 -0.000182563 5.26388e-05)
(-0.000920617 -0.000185174 5.67792e-05)
(-0.000946018 -0.000188003 5.83852e-05)
(-0.000967518 -0.000191068 5.71379e-05)
(-0.000987635 -0.000194306 5.29445e-05)
(-0.00100592 -0.000197295 4.58191e-05)
(-0.00102234 -0.000199873 3.58817e-05)
(-0.0010343 -0.000201864 2.30828e-05)
(-0.00103713 -0.000202907 7.88547e-06)
(3.9367e-05 1.36958e-05 3.75074e-05)
(8.05429e-05 1.91811e-05 -2.66477e-06)
(0.000108618 1.93292e-05 -1.9159e-05)
(0.000125397 1.24691e-05 -3.00081e-05)
(0.000129828 1.76703e-07 -3.61302e-05)
(0.000123707 -1.4139e-05 -3.72869e-05)
(0.000109287 -2.81911e-05 -3.33751e-05)
(7.46068e-05 -3.26779e-05 -2.11254e-05)
(3.31419e-05 -2.32974e-05 -7.03822e-06)
(2.24856e-05 -2.6452e-05 -2.37311e-07)
(7.17166e-06 -2.9701e-05 3.4156e-06)
(-1.54044e-05 -1.14503e-05 -6.88376e-06)
(-6.25792e-05 -3.04931e-05 -2.97427e-05)
(-6.46731e-05 -2.89575e-05 -2.18217e-05)
(-0.000161559 -6.35769e-05 -3.72469e-05)
(-0.000298684 -0.000107483 -4.75597e-05)
(-0.000370675 -0.000121883 -3.74549e-05)
(-0.00043933 -0.000131076 -2.49038e-05)
(-0.000514858 -0.000140133 -1.19402e-05)
(-0.000579965 -0.000145488 1.36362e-06)
(-0.000628659 -0.00014733 1.3749e-05)
(-0.000669441 -0.000148341 2.45627e-05)
(-0.00070288 -0.00014914 3.34501e-05)
(-0.00073487 -0.000150853 4.05755e-05)
(-0.000761192 -0.0001529 4.55999e-05)
(-0.000783547 -0.000155457 4.8204e-05)
(-0.000802004 -0.000158233 4.79648e-05)
(-0.000817201 -0.000160798 4.4743e-05)
(-0.00083197 -0.000163338 3.88763e-05)
(-0.000845707 -0.000165558 3.05293e-05)
(-0.000855515 -0.000167236 1.97381e-05)
(-0.000856365 -0.000167932 6.77924e-06)
(4.33032e-05 1.3583e-05 4.09731e-05)
(8.22579e-05 1.93325e-05 2.39486e-07)
(0.000111963 2.1485e-05 -1.68628e-05)