/*--------------------------------*- C++ -*----------------------------------*\
  =========                 |
  \\      /  F ield         | OpenFOAM: The Open Source CFD Toolbox
   \\    /   O peration     | Website:  https://openfoam.org
    \\  /    A nd           | Version:  6
     \\/     M anipulation  |
\*---------------------------------------------------------------------------*/
FoamFile
{
    version     2.0;
    format      ascii;
    class       volScalarField;
    location    "22";
    object      p;
}
// * * * * * * * * * * * * * * * * * * * * * * * * * * * * * * * * * * * * * //

dimensions      [0 2 -2 0 0 0 0];

internalField   nonuniform List<scalar> 
380496
(
0.0142318
0.0147058
0.0143058
0.0142051
0.0140936
0.013979
0.0138704
0.0137615
0.013653
0.0135455
0.0134391
0.0133339
0.0132302
0.013128
0.013027
0.0129271
0.0128281
0.0127297
0.0126313
0.0125326
0.0124331
0.012332
0.012229
0.0121231
0.012014
0.0119006
0.0117826
0.0116589
0.0115296
0.011393
0.0112509
0.0110991
0.0109475
0.0107774
0.0106368
0.0142074
0.014674
0.0142862
0.0141897
0.0140814
0.0139685
0.01386
0.0137502
0.0136399
0.0135298
0.0134202
0.0133113
0.0132033
0.0130962
0.0129898
0.0128841
0.0127787
0.0126734
0.0125677
0.0124611
0.0123533
0.0122436
0.0121317
0.0120166
0.0118982
0.0117754
0.0116481
0.0115151
0.0113767
0.0112308
0.0110802
0.010917
0.0107564
0.010562
0.0104111
0.0141796
0.0146414
0.0142648
0.0141731
0.0140678
0.0139561
0.0138472
0.0137357
0.0136227
0.0135093
0.0133956
0.0132821
0.0131688
0.0130559
0.0129432
0.0128305
0.0127177
0.0126042
0.0124899
0.0123741
0.0122565
0.0121365
0.0120138
0.0118875
0.0117574
0.0116227
0.0114834
0.0113382
0.0111879
0.01103
0.0108687
0.0106947
0.0105276
0.010325
0.0101774
0.0141439
0.0146058
0.014243
0.0141578
0.0140566
0.0139469
0.0138379
0.0137252
0.0136102
0.0134939
0.0133768
0.0132594
0.0131417
0.0130239
0.0129059
0.0127874
0.0126683
0.0125482
0.0124268
0.0123036
0.0121782
0.0120501
0.011919
0.0117842
0.0116456
0.0115023
0.0113545
0.0112009
0.0110425
0.0108767
0.0107079
0.0105258
0.0103519
0.0101387
0.00998545
0.0141113
0.014568
0.0142216
0.0141434
0.0140463
0.0139382
0.0138289
0.0137146
0.013597
0.0134775
0.0133567
0.0132349
0.0131125
0.0129896
0.0128659
0.0127414
0.0126158
0.0124888
0.0123601
0.0122291
0.0120957
0.0119593
0.0118196
0.0116761
0.0115285
0.0113763
0.0112195
0.0110572
0.0108904
0.0107164
0.0105402
0.010351
0.010172
0.00995331
0.00979964
0.0140656
0.0145275
0.0141999
0.0141304
0.0140383
0.0139321
0.0138226
0.0137068
0.0135868
0.0134643
0.01334
0.0132144
0.0130877
0.0129601
0.0128315
0.0127017
0.0125704
0.0124373
0.0123022
0.0121647
0.0120244
0.0118809
0.0117341
0.0115833
0.0114285
0.0112691
0.0111054
0.0109363
0.0107631
0.010583
0.0104013
0.0102066
0.0100233
0.0097992
0.00964307
0.0140172
0.014485
0.014179
0.0141192
0.0140324
0.0139279
0.0138179
0.0137003
0.0135777
0.013452
0.013324
0.0131944
0.0130635
0.0129313
0.0127977
0.0126626
0.0125258
0.0123869
0.0122457
0.0121018
0.0119549
0.0118047
0.011651
0.0114933
0.0113317
0.0111655
0.0109952
0.0108198
0.0106406
0.0104549
0.0102683
0.010069
0.00988242
0.00965477
0.0094983
0.0139588
0.0144416
0.01416
0.0141111
0.0140297
0.0139266
0.0138158
0.0136961
0.0135708
0.013442
0.0133106
0.0131773
0.0130424
0.012906
0.012768
0.0126282
0.0124864
0.0123423
0.0121956
0.0120462
0.0118936
0.0117376
0.011578
0.0114145
0.0112471
0.0110754
0.0108997
0.0107192
0.0105353
0.0103452
0.0101549
0.00995203
0.00976306
0.00953237
0.00937564
0.013889
0.0143984
0.0141426
0.0141059
0.0140303
0.0139281
0.0138161
0.0136943
0.0135662
0.0134343
0.0132997
0.0131629
0.0130244
0.0128842
0.0127422
0.0125982
0.012452
0.0123034
0.0121521
0.0119977
0.0118402
0.0116792
0.0115147
0.0113462
0.011174
0.0109976
0.0108174
0.0106327
0.0104449
0.0102514
0.0100581
0.00985249
0.00966191
0.00942895
0.00927269
0.013819
0.0143633
0.0141311
0.0141056
0.0140343
0.013932
0.0138184
0.0136942
0.0135635
0.0134288
0.0132913
0.0131516
0.01301
0.0128666
0.0127212
0.0125738
0.012424
0.0122717
0.0121165
0.0119583
0.0117968
0.0116318
0.0114633
0.0112909
0.0111149
0.0109348
0.0107512
0.0105634
0.0103728
0.0101766
0.00998126
0.00977369
0.00958217
0.00934735
0.00919193
0.0137271
0.0143281
0.0141202
0.0141078
0.0140411
0.0139383
0.0138227
0.013696
0.0135625
0.013425
0.0132847
0.0131422
0.0129978
0.0128515
0.0127031
0.0125526
0.0123996
0.012244
0.0120855
0.0119239
0.0117589
0.0115905
0.0114185
0.0112428
0.0110635
0.0108804
0.0106939
0.0105034
0.0103105
0.0101123
0.00991535
0.00970624
0.00951425
0.00927789
0.00912393
0.0136337
0.0143043
0.0141158
0.0141153
0.0140513
0.0139464
0.0138284
0.0136988
0.0135626
0.0134224
0.0132795
0.0131346
0.0129876
0.0128388
0.0126878
0.0125347
0.012379
0.0122206
0.0120592
0.0118946
0.0117268
0.0115555
0.0113806
0.0112022
0.0110202
0.0108347
0.0106458
0.0104533
0.0102586
0.0100588
0.00986072
0.00965047
0.00945837
0.00922064
0.00906854
0.0135095
0.0142848
0.014113
0.0141261
0.0140644
0.0139569
0.0138358
0.0137033
0.0135641
0.0134213
0.013276
0.0131287
0.0129795
0.0128284
0.0126751
0.0125197
0.0123616
0.0122008
0.0120369
0.0118699
0.0116996
0.0115259
0.0113486
0.0111679
0.0109837
0.0107961
0.0106054
0.0104112
0.0102151
0.0100141
0.00981529
0.00960428
0.00941241
0.00917369
0.00902401
0.0133797
0.0142815
0.0141166
0.0141417
0.0140796
0.0139681
0.0138437
0.0137079
0.013566
0.0134209
0.0132733
0.013124
0.0129728
0.0128198
0.0126646
0.0125072
0.0123471
0.0121843
0.0120184
0.0118494
0.011677
0.0115013
0.0113221
0.0111395
0.0109536
0.0107643
0.0105722
0.0103767
0.0101795
0.00997773
0.00977836
0.00956686
0.00937525
0.0091357
0.00898827
0.0132174
0.0142904
0.0141237
0.0141622
0.0140983
0.0139817
0.0138533
0.013714
0.0135693
0.0134217
0.0132721
0.0131209
0.0129679
0.0128132
0.0126564
0.0124973
0.0123356
0.0121711
0.0120036
0.0118329
0.0116589
0.0114815
0.0113007
0.0111166
0.0109293
0.0107388
0.0105455
0.010349
0.0101511
0.00994878
0.00974914
0.00953762
0.00934648
0.00910718
0.00896221
0.0130366
0.0143193
0.0141353
0.0141849
0.0141164
0.013994
0.0138618
0.0137193
0.013572
0.0134224
0.0132712
0.0131184
0.0129641
0.012808
0.0126499
0.0124894
0.0123264
0.0121606
0.0119918
0.0118197
0.0116444
0.0114658
0.0112838
0.0110985
0.0109101
0.0107186
0.0105244
0.0103273
0.0101288
0.0099262
0.00972634
0.00951496
0.00932359
0.00908461
0.00893918
0.0128332
0.0143682
0.0141535
0.0142146
0.0141389
0.0140092
0.0138723
0.0137263
0.0135764
0.0134248
0.0132719
0.0131178
0.0129622
0.012805
0.0126458
0.0124843
0.0123203
0.0121534
0.0119835
0.0118104
0.0116341
0.0114544
0.0112715
0.0110854
0.0108962
0.0107039
0.0105092
0.0103116
0.0101128
0.00991011
0.0097103
0.0094997
0.00930864
0.0090728
0.00892751
0.0125934
0.0144399
0.0141709
0.0142405
0.0141564
0.0140207
0.0138802
0.0137314
0.0135797
0.0134266
0.0132726
0.0131174
0.012961
0.0128029
0.012643
0.0124807
0.0123159
0.0121482
0.0119776
0.0118038
0.0116268
0.0114464
0.0112628
0.011076
0.0108863
0.0106935
0.0104984
0.0103005
0.0101015
0.00989883
0.00969891
0.00948903
0.00929628
0.00906239
0.00890678
0.0123493
0.0145279
0.0141991
0.0142771
0.014181
0.0140375
0.0138923
0.0137402
0.0135862
0.0134315
0.0132762
0.01312
0.0129627
0.0128039
0.0126433
0.0124803
0.0123149
0.0121466
0.0119755
0.0118011
0.0116236
0.0114427
0.0112588
0.0110715
0.0108815
0.0106883
0.0104931
0.0102949
0.010096
0.00989346
0.00969393
0.00948544
0.00929394
0.00906725
0.00891342
0.0120833
0.014631
0.0142223
0.0143059
0.0141988
0.0140497
0.0139013
0.013747
0.0135914
0.0134357
0.0132795
0.0131226
0.0129647
0.0128054
0.0126443
0.0124809
0.0123151
0.0121465
0.011975
0.0118002
0.0116225
0.0114413
0.0112571
0.0110695
0.0108794
0.010686
0.0104907
0.0102924
0.0100935
0.00989113
0.00969158
0.00948411
0.00928952
0.0090662
0.00888038
0.0118325
0.014739
0.0142684
0.0143499
0.0142279
0.0140704
0.0139165
0.0137585
0.0136005
0.013443
0.0132855
0.0131277
0.0129691
0.0128092
0.0126476
0.0124839
0.0123179
0.012149
0.0119773
0.0118024
0.0116245
0.0114432
0.011259
0.0110714
0.0108812
0.0106878
0.0104926
0.0102943
0.0100957
0.00989338
0.0096945
0.00948788
0.00929847
0.00908237
0.00894367
0.014235
0.0146986
0.0143059
0.0142054
0.0140937
0.013979
0.0138704
0.0137615
0.013653
0.0135455
0.0134391
0.0133339
0.0132302
0.0131279
0.013027
0.0129271
0.0128281
0.0127297
0.0126313
0.0125326
0.0124331
0.012332
0.012229
0.0121232
0.012014
0.0119006
0.0117826
0.011659
0.0115296
0.011393
0.0112509
0.0110991
0.0109475
0.0107775
0.0106369
0.0142103
0.014667
0.0142863
0.0141901
0.0140815
0.0139686
0.01386
0.0137502
0.0136399
0.0135298
0.0134202
0.0133113
0.0132033
0.0130962
0.0129898
0.0128841
0.0127787
0.0126734
0.0125677
0.0124611
0.0123533
0.0122437
0.0121317
0.0120167
0.0118982
0.0117755
0.0116481
0.0115151
0.0113768
0.0112309
0.0110803
0.0109171
0.0107566
0.0105622
0.0104112
0.0141824
0.0146345
0.0142648
0.0141734
0.0140679
0.0139562
0.0138472
0.0137356
0.0136227
0.0135093
0.0133956
0.0132821
0.0131688
0.0130559
0.0129432
0.0128305
0.0127177
0.0126042
0.0124899
0.0123741
0.0122565
0.0121365
0.0120138
0.0118875
0.0117575
0.0116228
0.0114834
0.0113382
0.0111879
0.0110301
0.0108687
0.0106948
0.0105277
0.0103251
0.0101775
0.0141467
0.0145991
0.0142431
0.0141582
0.0140567
0.0139469
0.0138379
0.0137252
0.0136102
0.0134939
0.0133768
0.0132594
0.0131417
0.0130239
0.0129059
0.0127875
0.0126684
0.0125483
0.0124268
0.0123036
0.0121782
0.0120501
0.0119191
0.0117843
0.0116457
0.0115024
0.0113545
0.011201
0.0110426
0.0108768
0.0107081
0.0105259
0.010352
0.0101388
0.00998555
0.0141139
0.0145614
0.0142216
0.0141437
0.0140464
0.0139382
0.0138289
0.0137146
0.013597
0.0134775
0.0133566
0.0132349
0.0131125
0.0129896
0.0128659
0.0127414
0.0126158
0.0124888
0.0123601
0.0122292
0.0120958
0.0119593
0.0118197
0.0116761
0.0115286
0.0113763
0.0112196
0.0110572
0.0108904
0.0107164
0.0105403
0.0103511
0.0101721
0.00995343
0.00979973
0.0140681
0.014521
0.0142
0.0141307
0.0140384
0.0139321
0.0138226
0.0137068
0.0135868
0.0134643
0.01334
0.0132144
0.0130877
0.0129601
0.0128315
0.0127017
0.0125704
0.0124373
0.0123023
0.0121647
0.0120244
0.011881
0.0117341
0.0115833
0.0114286
0.0112692
0.0111054
0.0109364
0.0107632
0.0105831
0.0104014
0.0102067
0.0100234
0.00979934
0.00964317
0.0140196
0.0144787
0.014179
0.0141195
0.0140325
0.013928
0.0138179
0.0137002
0.0135777
0.013452
0.013324
0.0131944
0.0130635
0.0129313
0.0127977
0.0126626
0.0125258
0.0123869
0.0122457
0.0121018
0.0119549
0.0118047
0.011651
0.0114934
0.0113317
0.0111656
0.0109953
0.0108199
0.0106407
0.010455
0.0102684
0.0100691
0.00988254
0.00965491
0.00949839
0.013961
0.0144356
0.01416
0.0141114
0.0140298
0.0139267
0.0138158
0.0136961
0.0135708
0.013442
0.0133106
0.0131773
0.0130424
0.012906
0.012768
0.0126282
0.0124864
0.0123423
0.0121957
0.0120462
0.0118936
0.0117376
0.011578
0.0114146
0.0112472
0.0110754
0.0108997
0.0107192
0.0105354
0.0103453
0.010155
0.00995215
0.00976319
0.00953252
0.00937574
0.0138911
0.0143925
0.0141427
0.0141062
0.0140304
0.0139282
0.0138161
0.0136943
0.0135662
0.0134343
0.0132997
0.0131629
0.0130244
0.0128842
0.0127422
0.0125982
0.012452
0.0123034
0.0121521
0.0119978
0.0118403
0.0116793
0.0115147
0.0113463
0.011174
0.0109976
0.0108175
0.0106328
0.010445
0.0102515
0.0100582
0.00985261
0.00966204
0.00942909
0.00927278
0.0138209
0.0143576
0.0141311
0.0141058
0.0140344
0.013932
0.0138184
0.0136942
0.0135635
0.0134288
0.0132913
0.0131516
0.01301
0.0128666
0.0127213
0.0125738
0.0124241
0.0122717
0.0121165
0.0119583
0.0117968
0.0116319
0.0114633
0.011291
0.0111149
0.0109349
0.0107513
0.0105635
0.0103729
0.0101767
0.00998137
0.00977382
0.0095823
0.0093475
0.00919202
0.013729
0.0143226
0.0141203
0.0141081
0.0140412
0.0139383
0.0138227
0.013696
0.0135625
0.013425
0.0132847
0.0131422
0.0129978
0.0128515
0.0127031
0.0125526
0.0123997
0.0122441
0.0120855
0.0119239
0.0117589
0.0115905
0.0114185
0.0112429
0.0110636
0.0108805
0.010694
0.0105035
0.0103106
0.0101124
0.00991546
0.00970636
0.00951437
0.00927805
0.00912401
0.0136352
0.0142991
0.0141159
0.0141155
0.0140513
0.0139464
0.0138283
0.0136988
0.0135625
0.0134224
0.0132795
0.0131345
0.0129876
0.0128388
0.0126879
0.0125347
0.012379
0.0122206
0.0120592
0.0118947
0.0117268
0.0115555
0.0113807
0.0112022
0.0110203
0.0108347
0.0106459
0.0104534
0.0102587
0.0100589
0.00986083
0.0096506
0.00945849
0.0092208
0.00906861
0.0135111
0.0142798
0.014113
0.0141264
0.0140644
0.0139568
0.0138358
0.0137032
0.0135641
0.0134213
0.013276
0.0131287
0.0129795
0.0128284
0.0126751
0.0125197
0.0123616
0.0122008
0.0120369
0.01187
0.0116996
0.0115259
0.0113486
0.0111679
0.0109838
0.0107962
0.0106055
0.0104113
0.0102152
0.0100142
0.00981541
0.00960441
0.00941254
0.00917385
0.00902408
0.0133809
0.0142768
0.0141166
0.0141419
0.0140796
0.013968
0.0138436
0.0137079
0.013566
0.0134208
0.0132733
0.0131239
0.0129728
0.0128197
0.0126646
0.0125072
0.0123471
0.0121843
0.0120184
0.0118494
0.0116771
0.0115013
0.0113221
0.0111396
0.0109536
0.0107644
0.0105723
0.0103768
0.0101796
0.00997785
0.00977848
0.009567
0.00937539
0.00913586
0.00898834
0.0132185
0.014286
0.0141237
0.0141624
0.0140983
0.0139816
0.0138533
0.013714
0.0135692
0.0134217
0.0132721
0.0131208
0.0129679
0.0128132
0.0126564
0.0124973
0.0123356
0.0121711
0.0120036
0.0118329
0.0116589
0.0114815
0.0113008
0.0111167
0.0109294
0.0107389
0.0105456
0.0103492
0.0101512
0.00994891
0.00974927
0.00953776
0.00934663
0.00910736
0.00896229
0.0130375
0.0143152
0.0141352
0.0141849
0.0141164
0.0139939
0.0138617
0.0137192
0.013572
0.0134224
0.0132711
0.0131184
0.012964
0.012808
0.0126499
0.0124895
0.0123265
0.0121607
0.0119918
0.0118198
0.0116445
0.0114658
0.0112838
0.0110986
0.0109102
0.0107187
0.0105245
0.0103274
0.0101289
0.00992635
0.00972649
0.00951512
0.00932375
0.00908481
0.00893926
0.0128338
0.0143645
0.0141533
0.0142146
0.0141388
0.0140091
0.0138722
0.0137262
0.0135764
0.0134248
0.0132719
0.0131178
0.0129623
0.012805
0.0126459
0.0124844
0.0123203
0.0121534
0.0119836
0.0118105
0.0116342
0.0114546
0.0112717
0.0110855
0.0108963
0.0107041
0.0105093
0.0103117
0.010113
0.00991029
0.00971048
0.00949989
0.00930884
0.00907304
0.00892765
0.0125941
0.0144366
0.0141707
0.0142405
0.0141563
0.0140206
0.0138801
0.0137315
0.0135797
0.0134267
0.0132727
0.0131175
0.0129611
0.012803
0.0126431
0.0124808
0.012316
0.0121483
0.0119777
0.0118039
0.0116269
0.0114465
0.011263
0.0110761
0.0108864
0.0106936
0.0104986
0.0103006
0.0101017
0.00989902
0.00969911
0.00948924
0.00929649
0.00906263
0.00890691
0.0123483
0.0145253
0.0141988
0.0142771
0.0141811
0.0140376
0.0138924
0.0137404
0.0135863
0.0134317
0.0132764
0.0131202
0.0129629
0.0128041
0.0126434
0.0124804
0.0123151
0.0121468
0.0119757
0.0118012
0.0116238
0.0114429
0.0112589
0.0110716
0.0108816
0.0106885
0.0104932
0.0102951
0.0100962
0.00989363
0.00969411
0.00948562
0.00929415
0.00906746
0.00891362
0.0120806
0.0146301
0.0142225
0.0143063
0.0141991
0.01405
0.0139015
0.0137472
0.0135916
0.0134358
0.0132796
0.0131227
0.0129648
0.0128054
0.0126443
0.0124809
0.0123152
0.0121465
0.011975
0.0118003
0.0116225
0.0114413
0.0112572
0.0110696
0.0108794
0.010686
0.0104907
0.0102924
0.0100936
0.00989118
0.00969164
0.00948415
0.00928959
0.00906621
0.00888044
0.0118468
0.0147423
0.014268
0.0143488
0.0142266
0.0140692
0.0139155
0.0137577
0.0135997
0.0134423
0.0132849
0.0131271
0.0129686
0.0128087
0.0126472
0.0124835
0.0123175
0.0121486
0.011977
0.011802
0.0116242
0.0114429
0.0112587
0.011071
0.0108809
0.0106875
0.0104922
0.010294
0.0100953
0.009893
0.00969409
0.00948747
0.00929805
0.00908193
0.00894303
0.0142434
0.0146932
0.0143058
0.0142055
0.0140938
0.0139791
0.0138704
0.0137615
0.013653
0.0135455
0.0134391
0.0133339
0.0132302
0.0131279
0.013027
0.0129271
0.0128281
0.0127297
0.0126313
0.0125326
0.0124331
0.012332
0.012229
0.0121232
0.012014
0.0119006
0.0117826
0.011659
0.0115296
0.011393
0.0112509
0.0110992
0.0109476
0.0107776
0.010637
0.0142185
0.0146618
0.0142862
0.0141901
0.0140816
0.0139686
0.0138601
0.0137502
0.0136399
0.0135298
0.0134202
0.0133113
0.0132033
0.0130962
0.0129899
0.0128841
0.0127788
0.0126734
0.0125677
0.0124611
0.0123534
0.0122437
0.0121317
0.0120167
0.0118983
0.0117755
0.0116482
0.0115152
0.0113769
0.011231
0.0110803
0.0109172
0.0107566
0.0105622
0.0104113
0.0141905
0.0146293
0.0142647
0.0141735
0.014068
0.0139562
0.0138472
0.0137357
0.0136227
0.0135093
0.0133956
0.013282
0.0131688
0.0130559
0.0129432
0.0128305
0.0127177
0.0126042
0.0124899
0.0123741
0.0122565
0.0121365
0.0120138
0.0118875
0.0117575
0.0116228
0.0114834
0.0113382
0.0111879
0.0110301
0.0108688
0.0106948
0.0105277
0.0103251
0.0101776
0.0141547
0.0145939
0.014243
0.0141582
0.0140568
0.0139469
0.013838
0.0137252
0.0136102
0.0134939
0.0133768
0.0132594
0.0131417
0.0130239
0.0129059
0.0127875
0.0126684
0.0125483
0.0124268
0.0123036
0.0121782
0.0120502
0.0119191
0.0117843
0.0116457
0.0115024
0.0113546
0.011201
0.0110427
0.0108769
0.0107081
0.010526
0.0103521
0.0101389
0.00998565
0.0141217
0.0145564
0.0142215
0.0141438
0.0140465
0.0139383
0.0138289
0.0137146
0.013597
0.0134775
0.0133566
0.0132349
0.0131125
0.0129896
0.0128659
0.0127414
0.0126158
0.0124888
0.0123601
0.0122292
0.0120958
0.0119594
0.0118197
0.0116761
0.0115286
0.0113763
0.0112196
0.0110573
0.0108904
0.0107165
0.0105403
0.0103512
0.0101722
0.00995346
0.00979982
0.0140758
0.0145161
0.0141999
0.0141308
0.0140384
0.0139322
0.0138226
0.0137068
0.0135868
0.0134643
0.01334
0.0132144
0.0130877
0.0129601
0.0128315
0.0127017
0.0125704
0.0124374
0.0123023
0.0121647
0.0120245
0.011881
0.0117341
0.0115834
0.0114286
0.0112692
0.0111055
0.0109364
0.0107632
0.0105831
0.0104015
0.0102068
0.0100235
0.00979939
0.00964327
0.0140271
0.0144739
0.0141789
0.0141196
0.0140325
0.013928
0.0138179
0.0137002
0.0135777
0.013452
0.013324
0.0131944
0.0130635
0.0129313
0.0127977
0.0126626
0.0125258
0.0123869
0.0122457
0.0121018
0.0119549
0.0118048
0.011651
0.0114934
0.0113318
0.0111656
0.0109953
0.0108199
0.0106407
0.010455
0.0102684
0.0100692
0.0098826
0.00965495
0.00949849
0.0139683
0.0144309
0.01416
0.0141114
0.0140299
0.0139267
0.0138158
0.0136961
0.0135708
0.013442
0.0133106
0.0131773
0.0130424
0.012906
0.012768
0.0126282
0.0124864
0.0123423
0.0121957
0.0120462
0.0118936
0.0117376
0.0115781
0.0114146
0.0112472
0.0110755
0.0108998
0.0107193
0.0105354
0.0103454
0.010155
0.00995221
0.00976326
0.00953258
0.00937585
0.0138982
0.014388
0.0141426
0.0141063
0.0140304
0.0139282
0.0138161
0.0136943
0.0135662
0.0134343
0.0132996
0.0131629
0.0130244
0.0128842
0.0127422
0.0125982
0.012452
0.0123034
0.0121521
0.0119978
0.0118403
0.0116793
0.0115147
0.0113463
0.0111741
0.0109977
0.0108175
0.0106328
0.0104451
0.0102515
0.0100582
0.00985266
0.0096621
0.00942915
0.00927289
0.0138278
0.0143532
0.0141311
0.0141059
0.0140344
0.0139321
0.0138184
0.0136942
0.0135635
0.0134288
0.0132913
0.0131516
0.01301
0.0128666
0.0127212
0.0125738
0.0124241
0.0122717
0.0121166
0.0119583
0.0117968
0.0116319
0.0114633
0.011291
0.011115
0.0109349
0.0107513
0.0105635
0.0103729
0.0101768
0.00998142
0.00977387
0.00958237
0.00934756
0.00919213
0.0137358
0.0143184
0.0141202
0.0141081
0.0140412
0.0139383
0.0138227
0.013696
0.0135625
0.013425
0.0132847
0.0131422
0.0129978
0.0128515
0.0127031
0.0125526
0.0123997
0.0122441
0.0120855
0.0119239
0.0117589
0.0115905
0.0114185
0.0112429
0.0110636
0.0108805
0.010694
0.0105036
0.0103106
0.0101124
0.00991551
0.00970642
0.00951444
0.0092781
0.00912412
0.0136417
0.014295
0.0141158
0.0141155
0.0140513
0.0139464
0.0138283
0.0136988
0.0135625
0.0134224
0.0132795
0.0131345
0.0129876
0.0128388
0.0126878
0.0125347
0.012379
0.0122206
0.0120592
0.0118947
0.0117268
0.0115555
0.0113807
0.0112023
0.0110203
0.0108348
0.010646
0.0104534
0.0102587
0.0100589
0.00986089
0.00965065
0.00945856
0.00922086
0.00906873
0.0135174
0.0142759
0.014113
0.0141264
0.0140644
0.0139568
0.0138358
0.0137032
0.013564
0.0134213
0.013276
0.0131286
0.0129794
0.0128283
0.0126751
0.0125196
0.0123616
0.0122008
0.0120369
0.01187
0.0116996
0.0115259
0.0113487
0.011168
0.0109838
0.0107962
0.0106055
0.0104114
0.0102152
0.0100143
0.00981546
0.00960446
0.00941261
0.00917392
0.0090242
0.0133869
0.0142731
0.0141165
0.0141419
0.0140796
0.013968
0.0138436
0.0137078
0.0135659
0.0134208
0.0132733
0.0131239
0.0129727
0.0128197
0.0126646
0.0125071
0.0123471
0.0121843
0.0120184
0.0118494
0.0116771
0.0115013
0.0113221
0.0111396
0.0109536
0.0107644
0.0105723
0.0103769
0.0101797
0.0099779
0.00977854
0.00956706
0.00937546
0.00913594
0.00898846
0.0132244
0.0142825
0.0141236
0.0141624
0.0140983
0.0139815
0.0138532
0.0137139
0.0135691
0.0134216
0.013272
0.0131208
0.0129679
0.0128132
0.0126564
0.0124973
0.0123356
0.0121711
0.0120036
0.0118329
0.0116589
0.0114816
0.0113008
0.0111167
0.0109294
0.0107389
0.0105456
0.0103492
0.0101513
0.00994898
0.00974935
0.00953784
0.00934671
0.00910745
0.00896243
0.013043
0.0143119
0.0141351
0.0141849
0.0141163
0.0139938
0.0138616
0.0137191
0.0135719
0.0134223
0.0132711
0.0131183
0.012964
0.012808
0.0126499
0.0124895
0.0123265
0.0121607
0.0119918
0.0118198
0.0116445
0.0114659
0.0112839
0.0110986
0.0109102
0.0107187
0.0105246
0.0103275
0.010129
0.00992644
0.00972659
0.00951522
0.00932386
0.00908492
0.00893942
0.0128389
0.0143616
0.0141532
0.0142145
0.0141387
0.014009
0.0138721
0.0137261
0.0135763
0.0134248
0.0132719
0.0131178
0.0129623
0.0128051
0.0126459
0.0124844
0.0123204
0.0121535
0.0119836
0.0118106
0.0116343
0.0114546
0.0112717
0.0110856
0.0108964
0.0107042
0.0105095
0.0103119
0.0101131
0.00991041
0.00971061
0.00950002
0.00930898
0.00907318
0.00892785
0.0125988
0.0144339
0.0141705
0.0142404
0.0141562
0.0140205
0.0138801
0.0137314
0.0135797
0.0134267
0.0132727
0.0131176
0.0129612
0.0128031
0.0126432
0.0124809
0.0123161
0.0121484
0.0119778
0.011804
0.011627
0.0114466
0.0112631
0.0110763
0.0108866
0.0106938
0.0104987
0.0103008
0.0101018
0.00989916
0.00969925
0.00948937
0.00929664
0.00906277
0.00890709
0.0123519
0.0145234
0.0141986
0.014277
0.0141811
0.0140377
0.0138926
0.0137406
0.0135865
0.0134318
0.0132765
0.0131203
0.012963
0.0128042
0.0126435
0.0124806
0.0123152
0.0121469
0.0119758
0.0118014
0.0116239
0.011443
0.011259
0.0110717
0.0108817
0.0106886
0.0104933
0.0102952
0.0100963
0.00989374
0.00969423
0.00948573
0.00929428
0.00906759
0.00891383
0.0120826
0.0146302
0.0142228
0.0143068
0.0141995
0.0140503
0.0139017
0.0137474
0.0135917
0.0134359
0.0132797
0.0131228
0.0129649
0.0128055
0.0126444
0.012481
0.0123152
0.0121465
0.011975
0.0118003
0.0116225
0.0114413
0.0112572
0.0110696
0.0108794
0.010686
0.0104907
0.0102924
0.0100936
0.00989117
0.00969163
0.00948414
0.0092896
0.00906615
0.00888032
0.0118551
0.0147444
0.014268
0.0143483
0.014226
0.0140686
0.013915
0.0137572
0.0135994
0.013442
0.0132846
0.0131268
0.0129683
0.0128085
0.012647
0.0124833
0.0123173
0.0121484
0.0119768
0.0118019
0.011624
0.0114427
0.0112585
0.0110708
0.0108807
0.0106873
0.0104921
0.0102938
0.0100951
0.00989282
0.0096939
0.00948729
0.00929785
0.00908176
0.00894275
0.0142485
0.014688
0.0143055
0.0142054
0.0140938
0.0139791
0.0138704
0.0137615
0.013653
0.0135455
0.0134391
0.0133339
0.0132302
0.0131279
0.013027
0.0129271
0.0128281
0.0127297
0.0126313
0.0125326
0.0124331
0.012332
0.012229
0.0121231
0.012014
0.0119006
0.0117826
0.011659
0.0115296
0.011393
0.0112509
0.0110991
0.0109475
0.0107775
0.0106371
0.0142235
0.0146566
0.0142858
0.01419
0.0140816
0.0139686
0.0138601
0.0137502
0.0136399
0.0135298
0.0134202
0.0133113
0.0132033
0.0130962
0.0129899
0.0128841
0.0127788
0.0126734
0.0125677
0.0124612
0.0123534
0.0122437
0.0121317
0.0120167
0.0118983
0.0117755
0.0116482
0.0115152
0.0113769
0.011231
0.0110804
0.0109172
0.0107567
0.0105623
0.0104114
0.0141954
0.0146242
0.0142644
0.0141734
0.014068
0.0139562
0.0138472
0.0137357
0.0136227
0.0135093
0.0133956
0.013282
0.0131688
0.0130559
0.0129432
0.0128305
0.0127177
0.0126042
0.0124899
0.0123741
0.0122565
0.0121365
0.0120138
0.0118875
0.0117575
0.0116228
0.0114834
0.0113382
0.0111879
0.0110301
0.0108687
0.0106948
0.0105277
0.0103251
0.0101776
0.0141596
0.0145889
0.0142427
0.0141582
0.0140568
0.013947
0.013838
0.0137253
0.0136102
0.0134939
0.0133768
0.0132594
0.0131417
0.0130239
0.0129059
0.0127875
0.0126684
0.0125483
0.0124268
0.0123036
0.0121782
0.0120502
0.0119191
0.0117843
0.0116457
0.0115024
0.0113546
0.011201
0.0110427
0.0108769
0.0107081
0.010526
0.0103521
0.0101389
0.00998574
0.0141264
0.0145515
0.0142212
0.0141437
0.0140465
0.0139383
0.0138289
0.0137146
0.013597
0.0134775
0.0133566
0.0132349
0.0131125
0.0129895
0.0128659
0.0127414
0.0126158
0.0124888
0.0123601
0.0122292
0.0120958
0.0119593
0.0118197
0.0116761
0.0115286
0.0113763
0.0112196
0.0110573
0.0108904
0.0107165
0.0105403
0.0103512
0.0101722
0.00995349
0.0097999
0.0140805
0.0145113
0.0141996
0.0141307
0.0140384
0.0139322
0.0138226
0.0137068
0.0135868
0.0134643
0.01334
0.0132144
0.0130877
0.0129601
0.0128315
0.0127017
0.0125704
0.0124374
0.0123023
0.0121647
0.0120245
0.011881
0.0117341
0.0115834
0.0114286
0.0112692
0.0111055
0.0109364
0.0107632
0.0105831
0.0104015
0.0102068
0.0100235
0.00979944
0.00964338
0.0140317
0.0144692
0.0141787
0.0141195
0.0140325
0.013928
0.0138179
0.0137002
0.0135777
0.0134519
0.013324
0.0131944
0.0130635
0.0129313
0.0127977
0.0126626
0.0125258
0.0123869
0.0122457
0.0121018
0.0119549
0.0118048
0.011651
0.0114934
0.0113318
0.0111656
0.0109953
0.0108199
0.0106407
0.010455
0.0102684
0.0100692
0.00988261
0.00965499
0.0094986
0.0139728
0.0144263
0.0141597
0.0141114
0.0140299
0.0139267
0.0138158
0.0136961
0.0135708
0.013442
0.0133106
0.0131773
0.0130424
0.012906
0.012768
0.0126282
0.0124864
0.0123423
0.0121957
0.0120462
0.0118936
0.0117376
0.0115781
0.0114146
0.0112472
0.0110755
0.0108998
0.0107193
0.0105354
0.0103454
0.010155
0.00995224
0.00976327
0.00953262
0.00937598
0.0139027
0.0143835
0.0141424
0.0141062
0.0140304
0.0139282
0.0138161
0.0136943
0.0135662
0.0134343
0.0132996
0.0131629
0.0130244
0.0128842
0.0127422
0.0125982
0.012452
0.0123034
0.0121521
0.0119978
0.0118403
0.0116793
0.0115147
0.0113463
0.0111741
0.0109977
0.0108175
0.0106328
0.0104451
0.0102515
0.0100582
0.00985269
0.00966211
0.00942919
0.00927302
0.0138321
0.0143488
0.0141308
0.0141058
0.0140344
0.0139321
0.0138184
0.0136942
0.0135635
0.0134288
0.0132912
0.0131515
0.01301
0.0128666
0.0127212
0.0125738
0.012424
0.0122717
0.0121165
0.0119583
0.0117968
0.0116319
0.0114633
0.011291
0.011115
0.010935
0.0107513
0.0105635
0.0103729
0.0101768
0.00998144
0.0097739
0.00958238
0.00934761
0.00919227
0.01374
0.0143141
0.01412
0.0141081
0.0140412
0.0139383
0.0138227
0.0136959
0.0135624
0.013425
0.0132846
0.0131422
0.0129977
0.0128514
0.0127031
0.0125526
0.0123996
0.012244
0.0120855
0.0119239
0.0117589
0.0115905
0.0114185
0.0112429
0.0110636
0.0108805
0.010694
0.0105036
0.0103106
0.0101125
0.00991552
0.00970645
0.00951445
0.00927815
0.00912427
0.0136458
0.0142909
0.0141156
0.0141155
0.0140513
0.0139464
0.0138283
0.0136988
0.0135625
0.0134224
0.0132795
0.0131345
0.0129876
0.0128387
0.0126878
0.0125347
0.012379
0.0122206
0.0120592
0.0118947
0.0117268
0.0115555
0.0113807
0.0112023
0.0110203
0.0108348
0.010646
0.0104534
0.0102587
0.010059
0.00986089
0.00965068
0.00945857
0.00922091
0.00906888
0.0135214
0.014272
0.0141128
0.0141263
0.0140644
0.0139568
0.0138358
0.0137031
0.013564
0.0134213
0.0132759
0.0131286
0.0129794
0.0128283
0.0126751
0.0125196
0.0123615
0.0122008
0.0120369
0.0118699
0.0116996
0.0115259
0.0113487
0.011168
0.0109838
0.0107962
0.0106055
0.0104114
0.0102152
0.0100143
0.00981547
0.0096045
0.00941262
0.00917397
0.00902437
0.0133907
0.0142693
0.0141163
0.0141418
0.0140796
0.0139679
0.0138435
0.0137078
0.0135659
0.0134207
0.0132732
0.0131239
0.0129727
0.0128197
0.0126645
0.0125071
0.0123471
0.0121843
0.0120184
0.0118494
0.011677
0.0115013
0.0113221
0.0111396
0.0109536
0.0107644
0.0105723
0.0103769
0.0101797
0.00997792
0.00977855
0.0095671
0.00937547
0.009136
0.00898865
0.013228
0.014279
0.0141235
0.0141623
0.0140983
0.0139815
0.0138531
0.0137138
0.0135691
0.0134215
0.013272
0.0131207
0.0129678
0.0128131
0.0126564
0.0124973
0.0123356
0.0121711
0.0120036
0.0118329
0.0116589
0.0114816
0.0113008
0.0111167
0.0109294
0.0107389
0.0105456
0.0103492
0.0101513
0.00994901
0.00974937
0.00953789
0.00934674
0.00910753
0.00896264
0.0130464
0.0143087
0.014135
0.0141847
0.0141162
0.0139937
0.0138615
0.013719
0.0135718
0.0134222
0.013271
0.0131182
0.012964
0.0128079
0.0126498
0.0124894
0.0123265
0.0121606
0.0119918
0.0118198
0.0116445
0.0114659
0.0112839
0.0110987
0.0109102
0.0107188
0.0105246
0.0103276
0.0101291
0.00992648
0.00972663
0.00951528
0.0093239
0.00908502
0.00893964
0.0128421
0.0143586
0.014153
0.0142144
0.0141386
0.0140089
0.013872
0.013726
0.0135762
0.0134247
0.0132719
0.0131178
0.0129623
0.0128051
0.0126459
0.0124844
0.0123204
0.0121535
0.0119837
0.0118106
0.0116343
0.0114547
0.0112718
0.0110856
0.0108964
0.0107042
0.0105095
0.0103119
0.0101131
0.00991048
0.00971068
0.0095001
0.00930904
0.0090733
0.00892809
0.0126018
0.0144313
0.0141703
0.0142402
0.0141561
0.0140204
0.01388
0.0137314
0.0135797
0.0134267
0.0132727
0.0131176
0.0129612
0.0128032
0.0126432
0.0124809
0.0123161
0.0121485
0.0119779
0.0118041
0.0116271
0.0114467
0.0112632
0.0110763
0.0108866
0.0106938
0.0104988
0.0103008
0.0101019
0.00989923
0.00969932
0.00948946
0.00929671
0.00906287
0.00890729
0.0123543
0.0145219
0.0141987
0.014277
0.0141811
0.0140377
0.0138926
0.0137406
0.0135866
0.0134319
0.0132766
0.0131204
0.0129631
0.0128043
0.0126436
0.0124806
0.0123152
0.012147
0.0119758
0.0118014
0.0116239
0.011443
0.0112591
0.0110718
0.0108818
0.0106886
0.0104934
0.0102952
0.0100963
0.00989379
0.00969428
0.00948578
0.00929433
0.00906765
0.00891397
0.0120846
0.0146308
0.0142231
0.014307
0.0141997
0.0140504
0.0139018
0.0137474
0.0135917
0.0134359
0.0132797
0.0131227
0.0129648
0.0128055
0.0126443
0.0124809
0.0123151
0.0121465
0.011975
0.0118003
0.0116225
0.0114413
0.0112571
0.0110695
0.0108793
0.010686
0.0104907
0.0102924
0.0100935
0.00989111
0.00969157
0.00948407
0.00928953
0.00906605
0.00887981
0.0118537
0.0147456
0.0142686
0.0143483
0.014226
0.0140685
0.0139149
0.0137572
0.0135993
0.0134419
0.0132846
0.0131268
0.0129683
0.0128084
0.012647
0.0124833
0.0123173
0.0121484
0.0119768
0.0118019
0.011624
0.0114427
0.0112585
0.0110709
0.0108807