/*--------------------------------*- C++ -*----------------------------------*\
  =========                 |
  \\      /  F ield         | OpenFOAM: The Open Source CFD Toolbox
   \\    /   O peration     | Website:  https://openfoam.org
    \\  /    A nd           | Version:  6
     \\/     M anipulation  |
\*---------------------------------------------------------------------------*/
FoamFile
{
    version     2.0;
    format      ascii;
    class       volScalarField;
    location    "1.8";
    object      nut;
}
// * * * * * * * * * * * * * * * * * * * * * * * * * * * * * * * * * * * * * //

dimensions      [0 2 -1 0 0 0 0];

internalField   nonuniform List<scalar> 
63400
(
6.52226e-07
6.1329e-07
5.8647e-07
5.57793e-07
5.38711e-07
5.18275e-07
5.0215e-07
4.8947e-07
5.76839e-07
5.54728e-07
5.34135e-07
5.16228e-07
4.97743e-07
4.87158e-07
4.69306e-07
4.68197e-07
4.94275e-07
4.83455e-07
4.70674e-07
4.6259e-07
4.49715e-07
4.46024e-07
4.31389e-07
4.35057e-07
4.37286e-07
4.29476e-07
4.19232e-07
4.1426e-07
4.04851e-07
4.04237e-07
3.93085e-07
3.9936e-07
3.85812e-07
3.81057e-07
3.73943e-07
3.71162e-07
3.64269e-07
3.65242e-07
3.56426e-07
3.64024e-07
3.35526e-07
3.32913e-07
3.28118e-07
3.27253e-07
3.22626e-07
3.25046e-07
3.18494e-07
3.26912e-07
2.97717e-07
2.96443e-07
2.92803e-07
2.9208e-07
2.88085e-07
2.90022e-07
2.84501e-07
2.91865e-07
2.58789e-07
2.60235e-07
2.59383e-07
2.60385e-07
2.58216e-07
2.60269e-07
2.56063e-07
2.62123e-07
2.23219e-07
2.25253e-07
2.25857e-07
2.28281e-07
2.28044e-07
2.31227e-07
2.28765e-07
2.35237e-07
1.92622e-07
1.94404e-07
1.95211e-07
1.98089e-07
1.98652e-07
2.02608e-07
2.01188e-07
2.08329e-07
1.67034e-07
1.67829e-07
1.67908e-07
1.70203e-07
1.70628e-07
1.74543e-07
1.73535e-07
1.80756e-07
1.45532e-07
1.45284e-07
1.44587e-07
1.45896e-07
1.45828e-07
1.48921e-07
1.47924e-07
1.54277e-07
1.26986e-07
1.26516e-07
1.25492e-07
1.2601e-07
1.25477e-07
1.27447e-07
1.26353e-07
1.31183e-07
1.11908e-07
1.12001e-07
1.11273e-07
1.11523e-07
1.10793e-07
1.1185e-07
1.10726e-07
1.13886e-07
9.60795e-08
9.69122e-08
9.69256e-08
9.76789e-08
9.74473e-08
9.85945e-08
9.78229e-08
1.0044e-07
7.96223e-08
8.04785e-08
8.07353e-08
8.1679e-08
8.17756e-08
8.31279e-08
8.27316e-08
8.53739e-08
6.41108e-08
6.48008e-08
6.50524e-08
6.58895e-08
6.60565e-08
6.73368e-08
6.70825e-08
6.95671e-08
4.89985e-08
4.94365e-08
4.95936e-08
5.01916e-08
5.03563e-08
5.13575e-08
5.12001e-08
5.32349e-08
3.37862e-08
3.41579e-08
3.43317e-08
3.47856e-08
3.49365e-08
3.56862e-08
3.56041e-08
3.72344e-08
1.81474e-08
1.834e-08
1.8341e-08
1.85713e-08
1.86505e-08
1.8895e-08
1.85887e-08
1.89452e-08
8.86445e-08
8.99357e-08
9.0923e-08
9.32247e-08
9.40949e-08
9.61868e-08
9.56014e-08
9.8895e-08
4.23097e-06
4.21344e-06
4.21182e-06
4.19439e-06
4.18839e-06
4.17408e-06
4.1606e-06
4.15785e-06
4.15993e-06
4.15352e-06
4.14624e-06
4.14106e-06
4.12808e-06
4.12771e-06
4.10654e-06
4.11825e-06
4.08698e-06
4.08972e-06
4.0809e-06
4.08393e-06
4.06939e-06
4.07597e-06
4.05389e-06
4.07047e-06
4.01261e-06
4.01919e-06
4.01193e-06
4.01885e-06
4.00712e-06
4.01746e-06
3.99819e-06
4.01905e-06
3.94982e-06
3.95443e-06
3.94601e-06
3.95234e-06
3.94105e-06
3.95282e-06
3.93482e-06
3.95951e-06
3.87418e-06
3.88199e-06
3.87433e-06
3.88213e-06
3.87072e-06
3.88408e-06
3.86635e-06
3.89331e-06
3.78276e-06
3.79499e-06
3.79202e-06
3.80266e-06
3.79363e-06
3.8079e-06
3.79163e-06
3.81867e-06
3.68872e-06
3.70359e-06
3.70594e-06
3.72004e-06
3.71628e-06
3.73118e-06
3.71847e-06
3.74502e-06
3.58587e-06
3.5999e-06
3.60421e-06
3.62163e-06
3.62306e-06
3.64201e-06
3.6335e-06
3.66483e-06
3.4888e-06
3.50036e-06
3.50222e-06
3.5213e-06
3.52372e-06
3.54752e-06
3.54099e-06
3.57848e-06
3.381e-06
3.38886e-06
3.38568e-06
3.40335e-06
3.4031e-06
3.43115e-06
3.42487e-06
3.47157e-06
3.28455e-06
3.28538e-06
3.2752e-06
3.28631e-06
3.27986e-06
3.30511e-06
3.29341e-06
3.34142e-06
3.16633e-06
3.16834e-06
3.15799e-06
3.16558e-06
3.15672e-06
3.17619e-06
3.16035e-06
3.20165e-06
3.02645e-06
3.03599e-06
3.03142e-06
3.03958e-06
3.03204e-06
3.04582e-06
3.03177e-06
3.06305e-06
2.88454e-06
2.90062e-06
2.90213e-06
2.91524e-06
2.9121e-06
2.92794e-06
2.91812e-06
2.9496e-06
2.69577e-06
2.71383e-06
2.71857e-06
2.73612e-06
2.73655e-06
2.75814e-06
2.75171e-06
2.79092e-06
2.49062e-06
2.50745e-06
2.51236e-06
2.53048e-06
2.53175e-06
2.55661e-06
2.55028e-06
2.59587e-06
2.21203e-06
2.22612e-06
2.23033e-06
2.24636e-06
2.24875e-06
2.2733e-06
2.26732e-06
2.31415e-06
1.86728e-06
1.88176e-06
1.88745e-06
1.90293e-06
1.90568e-06
1.92889e-06
1.92236e-06
1.97035e-06
1.34888e-06
1.36079e-06
1.36042e-06
1.37252e-06
1.3767e-06
1.39042e-06
1.37397e-06
1.38581e-06
9.98324e-06
1.01748e-05
1.03574e-05
1.0603e-05
1.08066e-05
1.10715e-05
1.12358e-05
1.15572e-05
9.23451e-06
9.21906e-06
9.24797e-06
9.23187e-06
9.24516e-06
9.23268e-06
9.22338e-06
9.23546e-06
9.0839e-06
9.09346e-06
9.09983e-06
9.11355e-06
9.10365e-06
9.1277e-06
9.09332e-06
9.14046e-06
8.93618e-06
8.96732e-06
8.96326e-06
8.99449e-06
8.97413e-06
9.01248e-06
8.97217e-06
9.02647e-06
8.78195e-06
8.82117e-06
8.81924e-06
8.85929e-06
8.84365e-06
8.88957e-06
8.85421e-06
8.91465e-06
8.66968e-06
8.70139e-06
8.6933e-06
8.72835e-06
8.71052e-06
8.75712e-06
8.72289e-06
8.78936e-06
8.53437e-06
8.57416e-06
8.56636e-06
8.60347e-06
8.58202e-06
8.62906e-06
8.59236e-06
8.65968e-06
8.35041e-06
8.39794e-06
8.40074e-06
8.4461e-06
8.43164e-06
8.48187e-06
8.44969e-06
8.51602e-06
8.18703e-06
8.2318e-06
8.24182e-06
8.29013e-06
8.28691e-06
8.33765e-06
8.31321e-06
8.37995e-06
8.00697e-06
8.0452e-06
8.05512e-06
8.10518e-06
8.1105e-06
8.16731e-06
8.14999e-06
8.22607e-06
7.86474e-06
7.89544e-06
7.89454e-06
7.94363e-06
7.94618e-06
8.00887e-06
7.99297e-06
8.07695e-06
7.68322e-06
7.70984e-06
7.69699e-06
7.74369e-06
7.73629e-06
7.80787e-06
7.79071e-06
7.89339e-06
7.55434e-06
7.57065e-06
7.54298e-06
7.57431e-06
7.54695e-06
7.60966e-06
7.5741e-06
7.67487e-06
7.36154e-06
7.38577e-06
7.36498e-06
7.39323e-06
7.36454e-06
7.41752e-06
7.37173e-06
7.45657e-06
7.07181e-06
7.11154e-06
7.10881e-06
7.14234e-06
7.12605e-06
7.16986e-06
7.13509e-06
7.2035e-06
6.85286e-06
6.8998e-06
6.90559e-06
6.94466e-06
6.93632e-06
6.98008e-06
6.95499e-06
7.02333e-06
6.51998e-06
6.57193e-06
6.58389e-06
6.63301e-06
6.63081e-06
6.68558e-06
6.66621e-06
6.75013e-06
6.22727e-06
6.27469e-06
6.28532e-06
6.33428e-06
6.33105e-06
6.39266e-06
6.37026e-06
6.46556e-06
5.73903e-06
5.78192e-06
5.79312e-06
5.83565e-06
5.8354e-06
5.89551e-06
5.87288e-06
5.96915e-06
5.32504e-06
5.36473e-06
5.37668e-06
5.41519e-06
5.414e-06
5.46341e-06
5.43537e-06
5.51868e-06
4.75802e-06
4.80387e-06
4.79742e-06
4.82476e-06
4.82892e-06
4.87309e-06
4.84313e-06
4.84749e-06
1.18408e-05
1.20607e-05
1.22645e-05
1.25366e-05
1.27677e-05
1.30685e-05
1.32602e-05
1.36126e-05
1.5405e-05
1.54125e-05
1.55032e-05
1.55121e-05
1.557e-05
1.55819e-05
1.5597e-05
1.56478e-05
1.51845e-05
1.52312e-05
1.52696e-05
1.53267e-05
1.53371e-05
1.54113e-05
1.53781e-05
1.5482e-05
1.49699e-05
1.50532e-05
1.50654e-05
1.51481e-05
1.51317e-05
1.52246e-05
1.51766e-05
1.52853e-05
1.47262e-05
1.4821e-05
1.48345e-05
1.49323e-05
1.49218e-05
1.50258e-05
1.49856e-05
1.50985e-05
1.45739e-05
1.46521e-05
1.46502e-05
1.47335e-05
1.47144e-05
1.48144e-05
1.47737e-05
1.4892e-05
1.43792e-05
1.4474e-05
1.44723e-05
1.45578e-05
1.45292e-05
1.46247e-05
1.45763e-05
1.46896e-05
1.40813e-05
1.41845e-05
1.41996e-05
1.43016e-05
1.42874e-05
1.43898e-05
1.43519e-05
1.4463e-05
1.3847e-05
1.39331e-05
1.39542e-05
1.40557e-05
1.40593e-05
1.41634e-05
1.4137e-05
1.42518e-05
1.35803e-05
1.36491e-05
1.36643e-05
1.37606e-05
1.37751e-05
1.38873e-05
1.38697e-05
1.39984e-05
1.34013e-05
1.34564e-05
1.34484e-05
1.35354e-05
1.35408e-05
1.36553e-05
1.36391e-05
1.37747e-05
1.31276e-05
1.3182e-05
1.31529e-05
1.32369e-05
1.32205e-05
1.33454e-05
1.33259e-05
1.34878e-05
1.29637e-05
1.30132e-05
1.29623e-05
1.30233e-05
1.29656e-05
1.30721e-05
1.30164e-05
1.3165e-05
1.26764e-05
1.2744e-05
1.27124e-05
1.27749e-05
1.27182e-05
1.28164e-05
1.27432e-05
1.28688e-05
1.21724e-05
1.22602e-05
1.22646e-05
1.23389e-05
1.23138e-05
1.24015e-05
1.23503e-05
1.24591e-05
1.18657e-05
1.19573e-05
1.19734e-05
1.20503e-05
1.2039e-05
1.21194e-05
1.20833e-05
1.21881e-05
1.13439e-05
1.14453e-05
1.1471e-05
1.15656e-05
1.15655e-05
1.16613e-05
1.16347e-05
1.17606e-05
1.0974e-05
1.1065e-05
1.1086e-05
1.11786e-05
1.11733e-05
1.12802e-05
1.12488e-05
1.1388e-05
1.02635e-05
1.03454e-05
1.03688e-05
1.04443e-05
1.04431e-05
1.05433e-05
1.05116e-05
1.06444e-05
1.00123e-05
1.00805e-05
1.00973e-05
1.01618e-05
1.01597e-05
1.02337e-05
1.01943e-05
1.02861e-05
9.6817e-06
9.79145e-06
9.77348e-06
9.81557e-06
9.80834e-06
9.89812e-06
9.87806e-06
9.88103e-06
1.33794e-05
1.36283e-05
1.3852e-05
1.41467e-05
1.44039e-05
1.47408e-05
1.49653e-05
1.53454e-05
2.26074e-05
2.26508e-05
2.28194e-05
2.2875e-05
2.29925e-05
2.30529e-05
2.31067e-05
2.32239e-05
2.2327e-05
2.24251e-05
2.25045e-05
2.26234e-05
2.26659e-05
2.28114e-05
2.27942e-05
2.29741e-05
2.205e-05
2.2202e-05
2.22386e-05
2.23897e-05
2.23864e-05
2.25508e-05
2.25081e-05
2.26858e-05
2.17095e-05
2.18739e-05
2.19087e-05
2.2082e-05
2.20859e-05
2.22641e-05
2.22334e-05
2.24117e-05
2.15202e-05
2.16597e-05
2.16687e-05
2.18142e-05
2.18001e-05
2.19656e-05
2.19309e-05
2.21107e-05
2.12611e-05
2.14296e-05
2.14422e-05
2.15908e-05
2.15616e-05
2.1714e-05
2.16648e-05
2.18292e-05
2.08392e-05
2.10103e-05
2.10426e-05
2.12167e-05
2.1212e-05
2.13752e-05
2.13453e-05
2.15073e-05
2.05359e-05
2.0667e-05
2.06989e-05
2.08658e-05
2.08842e-05
2.10531e-05
2.10378e-05
2.12086e-05
2.0181e-05
2.02799e-05
2.0296e-05
2.04439e-05
2.04715e-05
2.06505e-05
2.06444e-05
2.08321e-05
1.99736e-05
2.00538e-05
2.00346e-05
2.01575e-05
2.01677e-05
2.03398e-05
2.03341e-05
2.05268e-05
1.95979e-05
1.96854e-05
1.96357e-05
1.97548e-05
1.97295e-05
1.99052e-05
1.98924e-05
2.01134e-05
1.93831e-05
1.94884e-05
1.94172e-05
1.95126e-05
1.94234e-05
1.9566e-05
1.95007e-05
1.96859e-05
1.89916e-05
1.91265e-05
1.909e-05
1.91975e-05
1.91108e-05
1.92536e-05
1.91658e-05
1.93261e-05
1.8242e-05
1.8391e-05
1.84089e-05
1.85345e-05
1.85032e-05
1.86401e-05
1.85825e-05
1.87335e-05
1.78513e-05
1.79934e-05
1.80278e-05
1.81476e-05
1.8139e-05
1.82563e-05
1.82172e-05
1.83543e-05
1.71403e-05
1.72967e-05
1.73437e-05
1.7487e-05
1.7499e-05
1.76315e-05
1.76068e-05
1.77644e-05
1.67434e-05
1.68809e-05
1.69178e-05
1.70544e-05
1.7055e-05
1.71983e-05
1.7173e-05
1.73393e-05
1.59374e-05
1.60543e-05
1.60947e-05
1.61939e-05
1.61968e-05
1.63188e-05
1.62953e-05
1.64334e-05
1.61984e-05
1.62917e-05
1.63097e-05
1.63906e-05
1.63937e-05
1.64766e-05
1.64494e-05
1.65184e-05
1.61442e-05
1.63627e-05
1.63467e-05
1.64138e-05
1.63823e-05
1.65363e-05
1.65597e-05
1.65975e-05
1.47416e-05
1.50203e-05
1.52642e-05
1.55782e-05
1.58587e-05
1.62298e-05
1.64919e-05
1.69002e-05
3.08541e-05
3.09409e-05
3.11868e-05
3.1307e-05
3.14866e-05
3.16169e-05
3.17157e-05
3.19236e-05
3.05259e-05
3.06839e-05
3.08037e-05
3.09952e-05
3.10743e-05
3.1305e-05
3.13143e-05
3.15842e-05
3.01944e-05
3.04223e-05
3.04873e-05
3.07159e-05
3.07322e-05
3.09773e-05
3.09503e-05
3.12077e-05
2.97576e-05
2.99956e-05
3.00525e-05
3.03102e-05
3.0335e-05
3.0596e-05
3.05857e-05
3.08408e-05
2.95279e-05
2.97377e-05
2.97606e-05
2.99762e-05
2.99722e-05
3.02087e-05
3.01889e-05
3.04381e-05
2.9197e-05
2.94499e-05
2.94858e-05
2.97077e-05
2.96861e-05
2.98992e-05
2.98571e-05
3.00781e-05
2.86568e-05
2.8897e-05
2.89487e-05
2.9202e-05
2.92168e-05
2.94437e-05
2.94313e-05
2.96515e-05
2.82886e-05
2.8461e-05
2.84981e-05
2.87342e-05
2.87738e-05
2.90131e-05
2.90185e-05
2.92543e-05
2.78511e-05
2.79755e-05
2.79835e-05
2.818e-05
2.82188e-05
2.84696e-05
2.84835e-05
2.87363e-05
2.76182e-05
2.77218e-05
2.76883e-05
2.78383e-05
2.78492e-05
2.80785e-05
2.80888e-05
2.83455e-05
2.71384e-05
2.72628e-05
2.71927e-05
2.73358e-05
2.72996e-05
2.7517e-05
2.75109e-05
2.77909e-05
2.68369e-05
2.7023e-05
2.69463e-05
2.70774e-05
2.69639e-05
2.71271e-05
2.70595e-05
2.72719e-05
2.63389e-05
2.6566e-05
2.65385e-05
2.66989e-05
2.6587e-05
2.67633e-05
2.66723e-05
2.6864e-05
2.53562e-05
2.55733e-05
2.56103e-05
2.57922e-05
2.57565e-05
2.59403e-05
2.5882e-05
2.60785e-05
2.48954e-05
2.50851e-05
2.51445e-05
2.53058e-05
2.5305e-05
2.54537e-05
2.54155e-05
2.55811e-05
2.40416e-05
2.42464e-05
2.43221e-05
2.45058e-05
2.45404e-05
2.4698e-05
2.46797e-05
2.4855e-05
2.36945e-05
2.38701e-05
2.39294e-05
2.40977e-05
2.41149e-05
2.42726e-05
2.4265e-05
2.44375e-05
2.30326e-05
2.31697e-05
2.32323e-05
2.3335e-05
2.33486e-05
2.34605e-05
2.34596e-05
2.35673e-05
2.4017e-05
2.41448e-05
2.41673e-05
2.42609e-05
2.42736e-05
2.43591e-05
2.4362e-05
2.44029e-05
2.37025e-05
2.40908e-05
2.4114e-05
2.42491e-05
2.41814e-05
2.44387e-05
2.45252e-05
2.46828e-05
1.59881e-05
1.6297e-05
1.65634e-05
1.68954e-05
1.7196e-05
1.75978e-05
1.79003e-05
1.83403e-05
4.02506e-05
4.03833e-05
4.06906e-05
4.08863e-05
4.11185e-05
4.1332e-05
4.14736e-05
4.17873e-05
3.98833e-05
4.01046e-05
4.02557e-05
4.05232e-05
4.06345e-05
4.09547e-05
4.09947e-05
4.13594e-05
3.95055e-05
3.98073e-05
3.99002e-05
4.0208e-05
4.02461e-05
4.05737e-05
4.05678e-05
4.09078e-05
3.8979e-05
3.92863e-05
3.9361e-05
3.9703e-05
3.97513e-05
4.00961e-05
4.01109e-05
4.04488e-05
3.86964e-05
3.89802e-05
3.90183e-05
3.93066e-05
3.93153e-05
3.96227e-05
3.96211e-05
3.9943e-05
3.82853e-05
3.86233e-05
3.869e-05
3.89924e-05
3.89865e-05
3.92622e-05
3.92305e-05
3.95107e-05
3.76475e-05
3.79479e-05
3.80169e-05
3.83492e-05
3.83914e-05
3.86824e-05
3.86895e-05
3.89732e-05
3.72194e-05
3.74254e-05
3.7457e-05
3.77571e-05
3.78197e-05
3.81309e-05
3.816e-05
3.84671e-05
3.67096e-05
3.68557e-05
3.68437e-05
3.70793e-05
3.71201e-05
3.7439e-05
3.74759e-05
3.7797e-05
3.64456e-05
3.65743e-05
3.6526e-05
3.66921e-05
3.66917e-05
3.69716e-05
3.69949e-05
3.73175e-05
3.58688e-05
3.60361e-05
3.59531e-05
3.61068e-05
3.60522e-05
3.62988e-05
3.629e-05
3.66231e-05
3.54336e-05
3.57228e-05
3.56678e-05
3.58353e-05
3.57118e-05
3.58793e-05
3.58095e-05
3.60399e-05
3.48381e-05
3.51775e-05
3.51813e-05
3.54015e-05
3.52775e-05
3.54699e-05
3.53801e-05
3.55982e-05
3.36865e-05
3.39721e-05
3.40321e-05
3.42706e-05
3.42311e-05
3.44515e-05
3.43911e-05
3.46303e-05
3.31871e-05
3.3414e-05
3.35018e-05
3.36976e-05
3.37063e-05
3.38757e-05
3.38369e-05
3.40215e-05
3.22866e-05
3.25225e-05
3.26327e-05
3.28392e-05
3.29027e-05
3.307e-05
3.30573e-05
3.32287e-05
3.20824e-05
3.22816e-05
3.23723e-05
3.25516e-05
3.25964e-05
3.27404e-05
3.2755e-05
3.29059e-05
3.18182e-05
3.1967e-05
3.20616e-05
3.21538e-05
3.21855e-05
3.22616e-05
3.2291e-05
3.23393e-05
3.33444e-05
3.35501e-05
3.35979e-05
3.37338e-05
3.37576e-05
3.38731e-05
3.39101e-05
3.39578e-05
3.16627e-05
3.22939e-05
3.24115e-05
3.27004e-05
3.25856e-05
3.30099e-05
3.31577e-05
3.35632e-05
1.71411e-05
1.74784e-05
1.77705e-05
1.81221e-05
1.84402e-05
1.88679e-05
1.92102e-05
1.96859e-05
5.09634e-05
5.11409e-05
5.14853e-05
5.17578e-05
5.20265e-05
5.23255e-05
5.24999e-05
5.29227e-05
5.05576e-05
5.08418e-05
5.1011e-05
5.13513e-05
5.14846e-05
5.18893e-05
5.19573e-05
5.24116e-05
5.01393e-05
5.05057e-05
5.0622e-05
5.10056e-05
5.10642e-05
5.14696e-05
5.14859e-05
5.19031e-05
4.95318e-05
4.98993e-05
4.99846e-05
5.04039e-05
5.04743e-05
5.08987e-05
5.09371e-05
5.13569e-05
4.91755e-05
4.95324e-05
4.95856e-05
4.9946e-05
4.99688e-05
5.03433e-05
5.03586e-05
5.07497e-05
4.86785e-05
4.90913e-05
4.91914e-05
4.95791e-05
4.95975e-05
4.99375e-05
4.99174e-05
5.02547e-05
4.79728e-05
4.8318e-05
4.83973e-05
4.88019e-05
4.88766e-05
4.92325e-05
4.92556e-05
4.96029e-05
4.749e-05
4.77224e-05
4.77359e-05
4.80864e-05
4.81684e-05
4.8549e-05
4.85991e-05
4.89784e-05
4.69195e-05
4.70892e-05
4.70471e-05
4.73087e-05
4.73379e-05
4.77117e-05
4.7768e-05
4.81545e-05
4.66114e-05
4.67741e-05
4.67149e-05
4.68908e-05
4.68632e-05
4.71787e-05
4.72061e-05
4.7585e-05
4.59531e-05
4.61741e-05
4.60956e-05
4.62522e-05
4.61689e-05
4.64293e-05
4.64042e-05
4.67727e-05
4.5347e-05
4.57499e-05
4.57527e-05
4.59599e-05
4.58465e-05
4.60066e-05
4.59301e-05
4.61657e-05
4.46798e-05
4.51369e-05
4.51995e-05
4.54855e-05
4.53724e-05
4.5564e-05
4.54721e-05
4.57059e-05
4.3472e-05
4.38175e-05
4.39032e-05
4.41939e-05
4.41531e-05
4.43928e-05
4.4323e-05
4.45902e-05
4.29884e-05
4.32356e-05
4.33514e-05
4.35702e-05
4.35876e-05
4.37613e-05
4.37172e-05
4.39019e-05
4.21678e-05
4.24126e-05
4.25619e-05
4.27707e-05
4.2865e-05
4.30237e-05
4.30161e-05
4.31543e-05
4.21773e-05
4.23899e-05
4.25264e-05
4.27009e-05
4.27848e-05
4.28931e-05
4.29301e-05
4.30301e-05
4.23915e-05
4.25744e-05
4.27225e-05
4.28232e-05
4.28839e-05
4.29313e-05
4.29956e-05
4.2984e-05
4.37606e-05
4.41269e-05
4.42413e-05
4.45017e-05
4.45402e-05
4.47599e-05
4.48256e-05
4.49599e-05
3.92534e-05
4.0196e-05
4.04663e-05
4.10368e-05
4.08699e-05
4.15354e-05
4.1722e-05
4.25223e-05
1.82031e-05
1.85643e-05
1.88841e-05
1.92586e-05
1.95939e-05
2.00425e-05
2.04209e-05
2.09326e-05
6.31862e-05
6.34044e-05
6.37641e-05
6.41054e-05
6.43944e-05
6.47722e-05
6.49645e-05
6.54895e-05
6.27326e-05
6.30764e-05
6.32528e-05
6.36591e-05
6.38034e-05
6.42814e-05
6.43697e-05
6.49014e-05
6.22753e-05
6.26938e-05
6.28265e-05
6.32797e-05
6.33564e-05
6.38318e-05
6.3869e-05
6.43524e-05
6.15932e-05
6.20115e-05
6.20998e-05
6.25861e-05
6.26751e-05
6.31729e-05
6.32298e-05
6.37249e-05
6.11396e-05
6.15647e-05
6.16321e-05
6.2062e-05
6.21007e-05
6.25382e-05
6.25671e-05
6.30194e-05
6.05581e-05
6.10264e-05
6.11544e-05
6.16276e-05
6.16796e-05
6.20874e-05
6.20814e-05
6.24713e-05
5.98142e-05
6.01881e-05
6.02668e-05
6.07314e-05
6.0839e-05
6.12632e-05
6.12983e-05
6.17052e-05
5.92819e-05
5.95388e-05
5.95247e-05
5.99069e-05
5.99986e-05
6.04429e-05
6.0508e-05
6.09544e-05
5.86622e-05
5.88656e-05
5.8791e-05
5.90652e-05
5.90697e-05
5.94774e-05
5.95432e-05
5.99858e-05
5.82949e-05
5.85082e-05
5.84486e-05
5.86349e-05
5.85697e-05
5.88983e-05
5.89182e-05
5.93314e-05
5.75807e-05
5.78676e-05
5.78198e-05
5.79837e-05
5.78674e-05
5.81232e-05
5.80716e-05
5.84449e-05
5.68042e-05
5.7308e-05
5.74038e-05
5.76575e-05
5.75784e-05
5.7728e-05
5.76418e-05
5.78646e-05
5.61137e-05
5.66663e-05
5.68122e-05
5.71659e-05
5.7095e-05
5.7277e-05
5.71776e-05
5.74092e-05
5.49918e-05
5.53756e-05
5.54884e-05
5.58218e-05
5.57877e-05
5.60263e-05
5.59379e-05
5.6206e-05
5.45935e-05
5.48398e-05
5.49808e-05
5.52096e-05
5.52362e-05
5.53936e-05
5.53398e-05
5.54976e-05
5.39604e-05
5.41968e-05
5.43915e-05
5.45903e-05
5.47169e-05
5.48516e-05
5.48521e-05
5.49301e-05
5.41518e-05
5.43881e-05
5.45943e-05
5.47735e-05
5.49115e-05
5.49868e-05
5.50489e-05
5.50861e-05
5.45625e-05
5.48494e-05
5.50888e-05
5.52724e-05
5.53815e-05
5.54623e-05
5.55688e-05
5.55526e-05
5.46287e-05
5.52656e-05
5.54989e-05
5.60192e-05
5.60877e-05
5.65284e-05
5.66179e-05
5.69604e-05
4.57805e-05
4.70728e-05
4.75355e-05
4.85417e-05
4.8338e-05
4.93106e-05
4.94925e-05
5.08157e-05
1.91711e-05
1.95492e-05
1.98954e-05
2.02958e-05
2.06498e-05
2.1115e-05
2.15247e-05
2.20681e-05
7.71038e-05
7.73558e-05
7.77205e-05
7.8116e-05
7.84162e-05
7.88615e-05
7.9057e-05
7.96715e-05
7.65867e-05
7.69833e-05
7.71622e-05
7.76273e-05
7.77757e-05
7.83155e-05
7.84146e-05
7.90103e-05
7.60863e-05
7.65447e-05
7.66866e-05
7.72028e-05
7.72958e-05
7.78339e-05
7.78911e-05
7.84298e-05
7.53324e-05
7.57943e-05
7.58805e-05
7.64234e-05
7.65259e-05
7.70924e-05
7.71634e-05
7.77256e-05
7.47634e-05
7.52469e-05
7.53268e-05
7.58222e-05
7.58792e-05
7.6378e-05
7.6419e-05
7.69245e-05
7.41087e-05
7.46092e-05
7.47507e-05
7.53012e-05
7.5394e-05
7.58749e-05
7.58902e-05
7.63297e-05
7.33491e-05
7.37404e-05
7.38062e-05
7.43135e-05
7.44479e-05
7.49449e-05
7.49927e-05
7.54546e-05
7.27749e-05
7.30609e-05
7.30181e-05
7.3412e-05
7.34982e-05
7.39965e-05
7.40707e-05
7.4575e-05
7.21197e-05
7.2372e-05
7.22746e-05
7.25507e-05
7.25228e-05
7.29403e-05
7.30009e-05
7.34838e-05
7.1687e-05
7.19687e-05
7.19264e-05
7.21291e-05
7.20293e-05
7.23456e-05
7.23478e-05
7.27649e-05
7.09575e-05
7.1314e-05
7.13259e-05
7.15125e-05
7.1375e-05
7.1607e-05
7.15288e-05
7.18689e-05
7.00712e-05
7.06325e-05
7.08409e-05
7.11474e-05
7.11284e-05
7.12723e-05
7.11822e-05
7.13712e-05
6.94316e-05
7.00232e-05
7.02602e-05
7.06743e-05
7.0677e-05
7.08531e-05
7.07461e-05
7.09538e-05
6.85317e-05
6.89175e-05
6.90551e-05
6.94161e-05
6.94034e-05
6.96241e-05
6.95125e-05
6.97474e-05
6.82717e-05
6.84968e-05
6.86604e-05
6.88902e-05
6.89327e-05
6.90572e-05
6.89926e-05
6.9096e-05
6.78336e-05
6.80641e-05
6.83158e-05
6.85144e-05
6.86825e-05
6.87935e-05
6.88108e-05
6.88204e-05
6.79662e-05
6.8275e-05
6.85863e-05
6.8825e-05
6.90411e-05
6.9131e-05
6.92293e-05
6.92372e-05
6.78448e-05
6.83534e-05
6.8735e-05
6.91352e-05
6.93258e-05
6.95628e-05
6.97251e-05
6.98303e-05
6.52184e-05
6.62444e-05
6.66445e-05
6.75921e-05
6.77258e-05
6.85327e-05
6.86494e-05
6.93515e-05
5.0753e-05
5.23807e-05
5.30277e-05
5.4617e-05
5.44309e-05
5.57594e-05
5.58722e-05
5.77834e-05
2.00459e-05
2.04326e-05
2.08009e-05
2.12274e-05
2.16028e-05
2.20806e-05
2.25171e-05
2.30844e-05
9.2866e-05
9.31399e-05
9.35143e-05
9.39461e-05
9.4258e-05
9.47595e-05
9.49492e-05
9.5639e-05
9.22691e-05
9.27067e-05
9.28904e-05
9.34074e-05
9.35586e-05
9.41536e-05
9.42553e-05
9.4905e-05
9.17184e-05
9.22066e-05
9.2351e-05
9.29229e-05
9.30319e-05
9.36272e-05
9.37047e-05
9.42927e-05
9.08954e-05
9.13948e-05
9.14761e-05
9.20666e-05
9.21766e-05
9.2808e-05
9.28917e-05
9.35151e-05
9.02066e-05
9.07332e-05
9.08207e-05
9.13751e-05
9.14517e-05
9.20119e-05
9.20674e-05
9.26217e-05
8.95005e-05
9.0011e-05
9.01459e-05
9.07534e-05
9.08871e-05
9.14439e-05
9.1492e-05
9.19825e-05
8.87398e-05
8.91438e-05
8.91869e-05
8.9715e-05
8.98615e-05
9.043e-05
9.04969e-05
9.10126e-05
8.81372e-05
8.84607e-05
8.8398e-05
8.87881e-05
8.88504e-05
8.93854e-05
8.94635e-05
9.00136e-05
8.74692e-05
8.77838e-05
8.76856e-05
8.79571e-05
8.78965e-05
8.83007e-05
8.8341e-05
8.88407e-05
8.69886e-05
8.73465e-05
8.73437e-05
8.75686e-05
8.74533e-05
8.77347e-05
8.7714e-05
8.81015e-05
8.63078e-05
8.6717e-05
8.681e-05
8.70348e-05
8.69084e-05
8.71006e-05
8.70092e-05
8.72804e-05
8.54347e-05
8.59825e-05
8.62945e-05
8.66503e-05
8.67133e-05
8.68601e-05
8.67845e-05
8.6922e-05
8.49348e-05
8.5484e-05
8.5793e-05
8.62456e-05
8.6341e-05
8.65239e-05
8.64213e-05
8.6586e-05
8.43381e-05
8.46836e-05
8.48389e-05
8.52084e-05
8.52339e-05
8.54311e-05
8.53015e-05
8.54736e-05
8.41911e-05
8.43905e-05
8.4579e-05
8.48137e-05
8.48882e-05
8.49809e-05
8.49114e-05
8.49467e-05
8.37587e-05
8.40251e-05
8.43569e-05
8.46017e-05
8.48339e-05
8.49573e-05
8.50058e-05
8.49776e-05
8.32937e-05
8.37769e-05
8.42412e-05
8.46506e-05
8.49814e-05
8.51923e-05
8.53474e-05
8.54285e-05
8.15343e-05
8.24186e-05
8.30004e-05
8.37916e-05
8.41121e-05
8.46752e-05
8.49151e-05
8.53299e-05
7.48162e-05
7.63468e-05
7.6944e-05
7.84829e-05
7.87386e-05
8.00669e-05
8.02268e-05
8.14493e-05
5.39624e-05
5.58608e-05
5.66093e-05
5.88703e-05
5.88022e-05
6.05314e-05
6.05003e-05
6.29647e-05
2.08366e-05
2.12245e-05
2.16085e-05
2.20582e-05
2.24579e-05
2.29442e-05
2.34033e-05
2.39849e-05
0.00011058
0.000110858
0.000111256
0.000111705
0.000112037
0.000112584
0.000112766
0.000113518
0.000109895
0.000110356
0.000110549
0.000111109
0.000111266
0.000111913
0.000112013
0.00011271
0.000109288
0.000109796
0.000109937
0.000110554
0.000110678
0.000111326
0.000111424
0.000112059
0.000108406
0.000108934
0.000109008
0.000109637
0.000109747
0.000110436
0.000110534
0.000111213
0.000107614
0.000108161
0.000108247
0.000108848
0.000108941
0.000109559
0.000109634
0.000110235
0.000106886
0.000107388
0.000107497
0.000108129
0.000108292
0.000108917
0.000109008
0.000109553
0.00010614
0.000106554
0.000106571
0.000107095
0.000107231
0.000107854
0.000107947
0.000108516
0.000105533
0.000105899
0.000105833
0.000106211
0.000106233
0.000106776
0.000106852
0.000107429
0.000104893
0.000105271
0.000105201
0.000105467
0.00010538
0.00010575
0.000105759
0.000106243
0.000104418
0.000104837
0.000104895
0.000105142
0.000105041
0.000105272
0.000105231
0.000105556
0.000103876
0.000104295
0.000104472
0.000104736
0.000104666
0.00010481
0.00010473
0.000104909
0.000103171
0.000103626
0.000104002
0.000104385
0.000104541
0.000104696
0.000104662
0.000104741
0.000102878
0.00010331
0.000103647
0.000104103
0.000104288
0.00010449
0.000104414
0.000104528
0.000102551
0.000102832
0.000102998
0.000103363
0.00010344
0.000103624
0.000103493
0.000103593
0.000102329
0.000102537
0.000102767
0.000103039
0.000103172
0.000103269
0.000103211
0.000103198
0.000101435
0.000101836
0.000102292
0.000102679
0.000103014
0.000103241
0.000103342
0.000103363
9.9516e-05
0.000100332
0.000101014
0.000101756
0.000102253
0.00010275
0.00010299
0.000103319
9.48131e-05
9.62511e-05
9.70967e-05
9.84657e-05
9.89779e-05
0.000100058
0.000100403
0.000101351
8.28058e-05
8.49569e-05
8.57644e-05
8.80169e-05
8.84606e-05
9.04552e-05
9.06887e-05
9.25822e-05
5.54967e-05
5.75999e-05
5.82915e-05
6.11897e-05
6.13608e-05
6.35574e-05
6.33336e-05
6.62061e-05
2.15587e-05
2.19439e-05
2.23365e-05
2.28033e-05
2.32308e-05
2.37229e-05
2.42006e-05
2.47854e-05
0.000130323
0.000130581
0.000131014
0.000131462
0.000131822
0.000132402
0.000132581
0.00013338
0.000129556
0.000130015
0.000130219
0.000130811
0.000130973
0.000131667
0.000131764
0.000132503
0.000128895
0.000129409
0.00012954
0.000130186
0.000130321
0.000131012
0.000131128
0.000131806
0.000127981
0.000128519
0.00012858
0.000129234
0.000129339
0.000130068
0.000130179
0.000130906
0.000127124
0.000127664
0.000127732
0.000128357
0.000128459
0.000129121
0.000129219
0.000129861
0.000126413
0.000126889
0.000126959
0.000127574
0.000127743
0.000128411
0.000128548
0.000129144
0.000125709
0.000126127
0.000126119
0.000126615
0.000126715
0.000127355
0.000127472
0.000128083
0.000125141
0.000125543
0.000125491
0.000125851
0.000125827
0.000126338
0.000126401
0.000126975
0.000124594
0.000125014
0.000124998
0.000125259
0.000125163
0.000125475
0.000125452
0.000125877
0.000124214
0.00012465
0.000124781
0.000125037
0.000124986
0.000125155
0.000125108
0.000125337
0.000123907
0.000124274
0.000124521
0.000124798
0.000124826
0.000124923
0.000124885
0.000124965
0.000123493
0.0001238
0.000124182
0.000124553
0.000124796
0.000124958
0.000124989
0.000125022
0.000123389
0.000123673
0.000123992
0.00012442
0.000124668
0.000124896
0.000124867
0.000124944
0.000123115
0.000123356
0.000123541
0.000123917
0.000124054
0.000124258
0.00012415
0.000124204
0.000122384
0.000122695
0.000123015
0.000123406
0.000123637
0.000123824
0.000123803
0.000123818
0.000120256
0.000120952
0.000121609
0.000122291
0.000122785
0.00012327
0.000123456
0.000123679
0.000115781
0.00011713
0.000118118
0.000119393
0.000120123
0.000121112
0.00012147
0.000122276
0.000106845
0.000109024
0.000110209
0.000112331
0.000113105
0.000114887
0.000115366
0.000117073
8.87297e-05
9.16254e-05
9.26613e-05
9.56855e-05
9.63688e-05
9.91389e-05
9.94859e-05
0.000102176
5.56769e-05
5.80037e-05
5.84723e-05
6.18071e-05
6.2283e-05
6.50398e-05
6.46656e-05
6.77392e-05
2.22284e-05
2.26135e-05
2.30095e-05
2.3484e-05
2.39411e-05
2.44408e-05
2.49357e-05
2.5512e-05
0.00015215
0.000152367
0.000152835
0.00015326
0.000153651
0.000154247
0.000154428
0.000155254
0.000151328
0.000151761
0.000151972
0.000152572
0.000152738
0.000153463
0.000153559
0.000154324
0.000150633
0.000151132
0.000151248
0.000151898
0.000152034
0.000152749
0.000152879
0.000153585
0.000149733
0.000150256
0.000150298
0.000150953
0.000151046
0.000151785
0.000151906
0.000152658
0.000148879
0.000149381
0.000149414
0.000150027
0.000150124
0.000150799
0.000150918
0.000151583
0.000148236
0.000148666
0.000148693
0.000149246
0.000149392
0.000150054
0.000150227
0.000150852
0.000147628
0.00014803
0.000148004
0.000148444
0.00014849
0.000149089
0.000149215
0.000149836
0.000147159
0.00014757
0.000147546
0.000147882
0.00014782
0.000148252
0.00014829
0.000148811
0.000146787
0.000147205
0.000147256
0.000147508
0.000147429
0.000147662
0.000147617
0.000147932
0.000146604
0.000146993
0.000147194
0.000147436
0.000147462
0.000147567
0.000147537
0.000147646
0.00014659
0.000146849
0.000147139
0.000147388
0.000147532
0.000147593
0.000147623
0.000147619
0.000146467
0.000146626
0.000146973
0.000147295
0.000147598
0.000147769
0.000147873
0.000147891
0.000146358
0.000146549
0.000146833
0.000147236
0.000147517
0.000147783
0.000147806
0.000147889
0.00014568
0.00014598
0.000146228
0.000146687
0.000146902
0.000147196
0.000147134
0.000147223
0.000143728
0.000144297
0.000144793
0.000145451
0.00014584
0.000146265
0.000146319
0.000146508
0.000139336
0.000140525
0.000141493
0.000142681
0.000143412
0.000144366
0.000144682
0.000145325
0.00013111
0.000133198
0.000134602
0.000136629
0.000137674
0.000139385
0.000139898
0.000141424
0.000116869
0.00011996
0.000121575
0.000124599
0.000125711
0.000128356
0.000128987
0.000131645
9.23588e-05
9.61121e-05
9.74298e-05
0.00010123
0.000102173
0.000105762
0.000106255
0.000109827
5.49342e-05
5.76142e-05
5.78317e-05
6.12968e-05
6.19946e-05
6.5357e-05
6.50068e-05
6.81386e-05
2.28574e-05
2.32494e-05
2.36496e-05
2.41224e-05
2.46056e-05
2.5117e-05
2.56336e-05
2.61952e-05
0.000176101
0.000176258
0.000176751
0.000177127
0.000177544
0.00017813
0.000178317
0.000179137
0.000175275
0.000175658
0.000175867
0.000176442
0.000176606
0.000177332
0.000177427
0.000178191
0.000174589
0.00017505
0.000175146
0.000175764
0.00017589
0.000176594
0.000176729
0.000177433
0.000173778
0.000174253
0.000174266
0.000174884
0.000174962
0.000175669
0.000175792
0.000176529
0.000173019
0.00017345
0.000173435
0.000173986
0.000174064
0.000174702
0.000174834
0.000175485
0.000172513
0.000172872
0.000172856
0.000173306
0.000173403
0.000173992
0.000174178
0.000174785
0.000172078
0.000172431
0.000172394
0.000172752
0.00017274
0.000173231
0.000173341
0.00017391
0.000171787
0.000172162
0.000172168
0.000172463
0.000172387
0.000172699
0.000172703
0.000173105
0.000171662
0.000172019
0.000172131
0.00017236
0.00017233
0.000172469
0.000172424
0.000172586
0.000171733
0.000172015
0.000172268
0.000172469
0.00017259
0.000172634
0.000172653
0.000172634
0.000171952
0.000172087
0.000172398
0.000172589
0.000172838
0.000172884
0.000172999
0.00017295
0.000171899
0.000171986
0.0001723
0.000172584
0.000172915
0.000173114
0.000173275
0.000173336
0.000171344
0.00017158
0.000171873
0.000172333
0.000172634
0.000172987
0.000173048
0.000173218
0.000169538
0.000170063
0.000170461
0.00017116
0.000171499
0.000172015
0.000172018
0.000172282