/*--------------------------------*- C++ -*----------------------------------*\
  =========                 |
  \\      /  F ield         | OpenFOAM: The Open Source CFD Toolbox
   \\    /   O peration     | Website:  https://openfoam.org
    \\  /    A nd           | Version:  6
     \\/     M anipulation  |
\*---------------------------------------------------------------------------*/
FoamFile
{
    version     2.0;
    format      ascii;
    class       volScalarField;
    location    "1.2";
    object      k;
}
// * * * * * * * * * * * * * * * * * * * * * * * * * * * * * * * * * * * * * //

dimensions      [0 2 -2 0 0 0 0];

internalField   nonuniform List<scalar> 
63568
(
0.000284908
0.000343119
0.000343315
0.000328874
0.000317442
0.000309632
0.000303372
0.00030108
0.00029975
0.000299715
0.000301127
0.000301729
0.000301172
0.000300561
0.000300645
0.000301498
0.000302868
0.000304432
0.000306062
0.000307578
0.000309203
0.000310737
0.000312593
0.000314544
0.000316888
0.000319555
0.000322625
0.000326235
0.000330215
0.000334853
0.000340209
0.000346062
0.00035346
0.000360305
0.000370399
0.000266516
0.000315877
0.000316833
0.000307409
0.000301773
0.000298756
0.00029625
0.000295297
0.000294755
0.000294935
0.000295918
0.000296507
0.000296385
0.000296079
0.000296102
0.000296659
0.000297773
0.000299325
0.000301297
0.000303424
0.000305927
0.000308267
0.000311205
0.000313624
0.000317353
0.000319709
0.000324883
0.000327199
0.00033407
0.000336592
0.000345613
0.000347927
0.000361431
0.000359683
0.000381034
0.000248535
0.000289739
0.000287952
0.000274806
0.000262547
0.000253086
0.000246569
0.00024401
0.000243405
0.000244023
0.000245361
0.000246468
0.00024717
0.000247902
0.000249015
0.000250506
0.000252162
0.000253728
0.000255174
0.000256429
0.000257833
0.00025919
0.000261054
0.000262873
0.000265507
0.000267734
0.000271456
0.000273916
0.000278896
0.000281603
0.000288075
0.000290931
0.000300026
0.000300997
0.000316586
0.000230876
0.000262107
0.000259843
0.000251155
0.000243999
0.000239152
0.000235565
0.000235088
0.000235353
0.000236488
0.000238429
0.000239874
0.000240514
0.000240891
0.000241502
0.000242501
0.000243843
0.00024538
0.000247074
0.000248769
0.000250627
0.000252425
0.000254482
0.000256572
0.000258966
0.000261455
0.000264468
0.000267335
0.000271156
0.00027451
0.000279238
0.000283389
0.000289473
0.000294105
0.000302665
0.00021307
0.000238968
0.000238058
0.000233108
0.000230279
0.000229072
0.000228605
0.000229415
0.000230669
0.000232212
0.000233961
0.000235373
0.000236213
0.000236665
0.000237058
0.000237677
0.000238704
0.000240177
0.000242101
0.000244278
0.000246735
0.000249206
0.000251824
0.000254557
0.000257285
0.00026042
0.000263567
0.00026702
0.000271033
0.000274516
0.000279956
0.000282918
0.000291091
0.000290841
0.000304131
0.000195099
0.00021394
0.000210605
0.000203545
0.00019743
0.000193252
0.000190503
0.000190368
0.000190983
0.000192233
0.000193969
0.0001954
0.000196308
0.000196985
0.000197741
0.000198702
0.000199875
0.000201197
0.000202667
0.000204167
0.000205842
0.000207448
0.000209369
0.000211136
0.000213483
0.00021536
0.000218411
0.000220344
0.000224105
0.000226279
0.000230818
0.00023304
0.000239427
0.000240117
0.000251364
0.000177665
0.000192131
0.000189979
0.000185457
0.000181684
0.000179436
0.000178476
0.000179623
0.000181311
0.000183253
0.000185292
0.00018684
0.00018778
0.000188431
0.000189131
0.000190038
0.000191175
0.000192485
0.000193968
0.000195501
0.000197223
0.000198867
0.000200837
0.000202552
0.00020494
0.000206584
0.000209694
0.000211182
0.000214977
0.00021654
0.00022097
0.000222284
0.000228329
0.000227244
0.000237183
0.000160328
0.000170217
0.000166521
0.000160473
0.000154732
0.000150704
0.000148506
0.000148776
0.00014988
0.000151415
0.000153103
0.000154463
0.000155422
0.000156208
0.000157026
0.000157943
0.000158949
0.000159994
0.000161087
0.000162166
0.000163352
0.000164502
0.00016586
0.000167183
0.000168789
0.000170288
0.000172268
0.000173864
0.000176279
0.000177914
0.000180974
0.000182388
0.000186725
0.000187015
0.000194586
0.000144231
0.000151007
0.000148362
0.000144489
0.000140906
0.00013883
0.000138268
0.000139809
0.000141743
0.000143738
0.000145634
0.00014701
0.00014786
0.000148487
0.000149161
0.000149982
0.000150945
0.000151994
0.000153124
0.000154263
0.000155504
0.000156705
0.000158071
0.000159396
0.000160919
0.000162385
0.000164158
0.000165715
0.000167803
0.000169338
0.00017204
0.000173035
0.000177111
0.000176119
0.000183283
0.000129845
0.000134052
0.000130309
0.000125058
0.000120076
0.000116862
0.000115644
0.000116512
0.000117975
0.000119556
0.000121007
0.0001221
0.000122897
0.000123605
0.000124361
0.000125178
0.000126008
0.000126802
0.000127577
0.000128317
0.000129139
0.000129947
0.000130937
0.000131887
0.000133097
0.000134124
0.000135666
0.000136641
0.000138538
0.000139497
0.000141733
0.000142594
0.000145599
0.000145541
0.000150943
0.000115749
0.000117917
0.000114966
0.000111287
0.000107979
0.000106437
0.000106595
0.000108597
0.00011066
0.000112521
0.000114094
0.000115153
0.000115806
0.000116337
0.000116938
0.000117647
0.000118427
0.000119222
0.000120033
0.000120826
0.000121688
0.000122521
0.000123495
0.000124419
0.000125533
0.000126517
0.000127851
0.000128828
0.000130378
0.000131378
0.000133207
0.000133946
0.000136639
0.000135908
0.00014105
0.000102835
0.000103546
9.9832e-05
9.50869e-05
9.09226e-05
8.8753e-05
8.85997e-05
9.00544e-05
9.17062e-05
9.31558e-05
9.42877e-05
9.50709e-05
9.56545e-05
9.6227e-05
9.68764e-05
9.75695e-05
9.82292e-05
9.88047e-05
9.93233e-05
9.98057e-05
0.000100356
0.000100916
0.000101624
0.000102312
0.000103175
0.000103924
0.000105004
0.000105684
0.000107031
0.000107626
0.000109261
0.000109692
0.000111877
0.00011163
0.000115457
8.98548e-05
8.92633e-05
8.61395e-05
8.2665e-05
8.00997e-05
7.96312e-05
8.08374e-05
8.33021e-05
8.53598e-05
8.69344e-05
8.80932e-05
8.88154e-05
8.92732e-05
8.96853e-05
9.01633e-05
9.07088e-05
9.12821e-05
9.18474e-05
9.24132e-05
9.29685e-05
9.35796e-05
9.41773e-05
9.48793e-05
9.55445e-05
9.63327e-05
9.70364e-05
9.79648e-05
9.8639e-05
9.97178e-05
0.000100399
0.000101632
0.000102176
0.000103932
0.000103496
0.000107015
7.80496e-05
7.66707e-05
7.30224e-05
6.89093e-05
6.60332e-05
6.5376e-05
6.64198e-05
6.83972e-05
7.00118e-05
7.11634e-05
7.19383e-05
7.243e-05
7.28126e-05
7.32347e-05
7.3737e-05
7.42622e-05
7.47354e-05
7.51259e-05
7.54702e-05
7.58022e-05
7.61979e-05
7.66128e-05
7.71352e-05
7.76413e-05
7.82554e-05
7.88006e-05
7.95443e-05
8.00226e-05
8.09603e-05
8.13438e-05
8.24958e-05
8.27359e-05
8.42505e-05
8.40157e-05
8.66526e-05
6.62184e-05
6.41708e-05
6.09052e-05
5.78539e-05
5.65652e-05
5.75861e-05
5.98929e-05
6.26068e-05
6.44105e-05
6.55385e-05
6.62568e-05
6.66977e-05
6.70167e-05
6.73137e-05
6.7622e-05
6.79498e-05
6.83034e-05
6.86845e-05
6.9099e-05
6.95287e-05
7.00003e-05
7.04567e-05
7.09755e-05
7.14571e-05
7.20102e-05
7.25136e-05
7.31454e-05
7.3613e-05
7.436e-05
7.48083e-05
7.56594e-05
7.6028e-05
7.71851e-05
7.69345e-05
7.93334e-05
5.51227e-05
5.27599e-05
4.92563e-05
4.6114e-05
4.49991e-05
4.60644e-05
4.81358e-05
5.03166e-05
5.1592e-05
5.23263e-05
5.27577e-05
5.30151e-05
5.32523e-05
5.35503e-05
5.38929e-05
5.42214e-05
5.45017e-05
5.47445e-05
5.49895e-05
5.52575e-05
5.55789e-05
5.59114e-05
5.63046e-05
5.6674e-05
5.71012e-05
5.74949e-05
5.79822e-05
5.83318e-05
5.89511e-05
5.92136e-05
5.99981e-05
6.01257e-05
6.11658e-05
6.09551e-05
6.27341e-05
4.45642e-05
4.20236e-05
3.87162e-05
3.65627e-05
3.70211e-05
3.95565e-05
4.25333e-05
4.49465e-05
4.61663e-05
4.6732e-05
4.70512e-05
4.73293e-05
4.76027e-05
4.77869e-05
4.7859e-05
4.79119e-05
4.80581e-05
4.83349e-05
4.87078e-05
4.91085e-05
4.95105e-05
4.98714e-05
5.02461e-05
5.05823e-05
5.09531e-05
5.13121e-05
5.17094e-05
5.20566e-05
5.25296e-05
5.28451e-05
5.34138e-05
5.36241e-05
5.44489e-05
5.42016e-05
5.59371e-05
3.39269e-05
3.13198e-05
2.82647e-05
2.67178e-05
2.74078e-05
2.93637e-05
3.12538e-05
3.26619e-05
3.31787e-05
3.34652e-05
3.36146e-05
3.37061e-05
3.38794e-05
3.41327e-05
3.4366e-05
3.45159e-05
3.4607e-05
3.47058e-05
3.48602e-05
3.507e-05
3.53214e-05
3.55736e-05
3.58472e-05
3.60931e-05
3.63738e-05
3.66304e-05
3.69326e-05
3.7173e-05
3.75551e-05
3.77174e-05
3.82456e-05
3.82307e-05
3.90418e-05
3.86011e-05
4.02866e-05
2.3334e-05
2.18802e-05
1.88981e-05
1.67202e-05
1.65277e-05
1.75762e-05
1.87625e-05
1.9368e-05
1.95391e-05
1.96593e-05
1.95968e-05
1.95699e-05
1.98037e-05
2.02358e-05
2.0622e-05
2.07722e-05
2.07063e-05
2.05773e-05
2.05156e-05
2.05499e-05
2.06669e-05
2.0801e-05
2.09745e-05
2.11165e-05
2.12946e-05
2.1457e-05
2.16369e-05
2.17974e-05
2.20192e-05
2.21521e-05
2.24325e-05
2.24779e-05
2.28867e-05
2.27863e-05
2.3442e-05
1.17118e-05
1.31202e-05
1.15182e-05
1.07275e-05
1.1923e-05
1.36289e-05
1.47113e-05
1.50273e-05
1.50553e-05
1.505e-05
1.50032e-05
1.50876e-05
1.52395e-05
1.53172e-05
1.5321e-05
1.53289e-05
1.53902e-05
1.54989e-05
1.5628e-05
1.57518e-05
1.58755e-05
1.59821e-05
1.61122e-05
1.62181e-05
1.63548e-05
1.64818e-05
1.66156e-05
1.67486e-05
1.69026e-05
1.70387e-05
1.71953e-05
1.73072e-05
1.75403e-05
1.7578e-05
1.80345e-05
2.15559e-05
2.22614e-05
3.00227e-05
3.59156e-05
3.76756e-05
3.80099e-05
3.84419e-05
3.95696e-05
3.90902e-05
4.08563e-05
4.03817e-05
3.85678e-05
3.80074e-05
3.88412e-05
4.01371e-05
4.11767e-05
4.17653e-05
4.20414e-05
4.21983e-05
4.23464e-05
4.25143e-05
4.2715e-05
4.28921e-05
4.31706e-05
4.32887e-05
4.36436e-05
4.38413e-05
4.39989e-05
4.43875e-05
4.45941e-05
4.49896e-05
4.46036e-05
4.52977e-05
4.44715e-05
4.57523e-05
0.00106104
0.00102502
0.00102588
0.00103513
0.00103664
0.00103472
0.00103057
0.00102776
0.00102602
0.00102473
0.00102434
0.00102488
0.00102566
0.00102595
0.0010257
0.00102532
0.0010252
0.00102536
0.00102584
0.0010263
0.00102695
0.00102742
0.00102798
0.00102852
0.00102909
0.00102977
0.00103044
0.00103142
0.00103224
0.00103336
0.00103465
0.00103571
0.00103769
0.00103856
0.00104139
0.00104436
0.00101422
0.00101413
0.00102199
0.00102402
0.00102391
0.00102267
0.00102172
0.00102094
0.00102019
0.00101995
0.00102038
0.00102104
0.00102139
0.00102128
0.00102096
0.00102072
0.00102065
0.00102097
0.00102135
0.00102228
0.00102283
0.00102427
0.00102442
0.00102673
0.00102589
0.00102927
0.00102786
0.00103169
0.00103033
0.00103457
0.00103299
0.0010383
0.00103572
0.00104315
0.00102722
0.00100121
0.00100309
0.00101176
0.00101147
0.00100633
0.000999547
0.000994816
0.000992338
0.000991334
0.000991472
0.000992269
0.000993091
0.000993538
0.000993773
0.000994145
0.000994872
0.000995787
0.000996832
0.000997572
0.000998401
0.00099878
0.000999636
0.000999871
0.00100138
0.00100125
0.0010038
0.00100328
0.00100659
0.00100601
0.00100974
0.00100918
0.00101374
0.00101221
0.00101881
0.00101025
0.000984794
0.000985797
0.00099353
0.000993741
0.000991071
0.00098669
0.00098437
0.000983384
0.000983009
0.000983591
0.000984977
0.000986392
0.000987162
0.000987337
0.000987342
0.000987539
0.000987962
0.000988707
0.000989457
0.000990463
0.00099131
0.000992323
0.000993235
0.000994384
0.000995154
0.000996775
0.000997394
0.000999316
0.00100025
0.00100202
0.0010035
0.00100547
0.00100682
0.00100944
0.000988701
0.000970155
0.000970302
0.000976977
0.000978404
0.000978042
0.000977075
0.000976794
0.000977039
0.000977508
0.000978377
0.000979626
0.000980888
0.000981731
0.000982035
0.000981979
0.000981885
0.00098195
0.000982462
0.000983253
0.000984492
0.000985853
0.000987206
0.00098885
0.000990047
0.00099163
0.000993113
0.000994273
0.000996479
0.00099711
0.00100012
0.00100016
0.00100451
0.00100298
0.00100997
0.000966544
0.000950247
0.000951212
0.000957201
0.000955779
0.000951835
0.000946916
0.000944614
0.0009439
0.000943993
0.000945026
0.000946677
0.000948224
0.000949164
0.000949609
0.000949918
0.000950391
0.000951057
0.000952038
0.00095302
0.000954348
0.000955369
0.000956915
0.000957743
0.000959814
0.000960111
0.000962988
0.00096302
0.000966183
0.000966433
0.000969875
0.000969855
0.000974415
0.000973075
0.000980084
0.000941303
0.000929713
0.00093049
0.000936152
0.000935273
0.000932142
0.00092855
0.000927578
0.000928262
0.000929594
0.000931489
0.000933622
0.000935396
0.000936436
0.000936932
0.000937277
0.000937784
0.000938484
0.000939502
0.000940522
0.000941933
0.000942995
0.000944742
0.000945499
0.000947968
0.000947914
0.000951398
0.00095085
0.000954625
0.000954287
0.000958249
0.00095763
0.000962654
0.000960662
0.00096831
0.00091314
0.000906215
0.000906891
0.000910426
0.000905971
0.00089885
0.000892006
0.000889339
0.000889307
0.000890572
0.000892646
0.000894915
0.000896762
0.000897972
0.000898801
0.000899594
0.000900553
0.000901622
0.000902851
0.000903967
0.000905293
0.000906352
0.000907755
0.000908838
0.000910525
0.000911491
0.000913742
0.000914528
0.00091733
0.000917802
0.000921389
0.000921322
0.000925921
0.000924627
0.000931637
0.000883889
0.000880283
0.000880697
0.000884002
0.000880238
0.00087463
0.000869727
0.000869323
0.000871194
0.000873768
0.000876686
0.000879453
0.000881507
0.000882696
0.000883404
0.000884076
0.000884957
0.000886012
0.000887286
0.000888508
0.000889964
0.000891196
0.000892718
0.000894005
0.00089567
0.000896912
0.000898914
0.00090006
0.000902513
0.000903159
0.000906766
0.000906221
0.000911517
0.000909055
0.000917407
0.000853254
0.000855157
0.000854695
0.000854692
0.000846686
0.000837021
0.000829828
0.000828396
0.000830048
0.000832803
0.000835778
0.000838374
0.000840268
0.000841562
0.000842661
0.000843878
0.000845267
0.000846651
0.000848011
0.00084913
0.000850382
0.000851369
0.000852782
0.000853835
0.000855723
0.00085654
0.000859275
0.00085967
0.000862985
0.000863291
0.000866958
0.000866965
0.000871725
0.000870036
0.000877572
0.00082086
0.000824527
0.000823539
0.000822928
0.000815205
0.000807354
0.000802655
0.000804405
0.000808337
0.000812398
0.000816156
0.000819199
0.000821224
0.000822408
0.000823303
0.000824324
0.000825582
0.00082693
0.000828346
0.000829604
0.000831024
0.000832198
0.000833736
0.000834963
0.000836796
0.000837875
0.000840242
0.000841137
0.000843779
0.00084464
0.000847829
0.00084784
0.000852839
0.000850286
0.000859182
0.000784989
0.000794881
0.000791879
0.000786572
0.000774074
0.00076266
0.000756979
0.000758489
0.000762643
0.000766926
0.000770505
0.000773126
0.000774868
0.000776148
0.00077749
0.000779117
0.000780882
0.000782472
0.000783825
0.000784836
0.000785941
0.000786859
0.000788234
0.000789387
0.000791229
0.000792277
0.000794916
0.000795452
0.000798839
0.000798974
0.000803013
0.000802598
0.000807729
0.00080571
0.000813441
0.000746223
0.000756921
0.000752235
0.000745452
0.000733652
0.000725877
0.000724769
0.000730908
0.000737689
0.000743125
0.000747245
0.000750127
0.000751917
0.000753065
0.000754126
0.000755383
0.000756813
0.000758234
0.000759631
0.000760865
0.000762257
0.000763464
0.000765038
0.000766372
0.000768194
0.000769438
0.000771758
0.000772743
0.000775364
0.000776362
0.0007793
0.000779753
0.000784183
0.00078216
0.000790513
0.000703318
0.000719421
0.000711065
0.000698482
0.000682577
0.000673386
0.000673195
0.000679991
0.00068701
0.000692269
0.000695843
0.000698122
0.000699567
0.000700781
0.000702278
0.000704111
0.000705963
0.000707497
0.00070871
0.000709634
0.000710713
0.000711717
0.000713189
0.000714503
0.000716342
0.000717622
0.000720112
0.000720839
0.000724122
0.000724325
0.000728326
0.000727931
0.00073294
0.000730972
0.000738552
0.000655512
0.000671916
0.000659393
0.000644409
0.00063127
0.000629238
0.00063651
0.000648859
0.000658222
0.000664057
0.000667665
0.000669969
0.00067154
0.000672745
0.00067383
0.000674918
0.000676063
0.000677275
0.000678619
0.000679983
0.000681561
0.00068299
0.000684721
0.000686205
0.000688024
0.000689442
0.000691648
0.000692731
0.000695346
0.00069633
0.00069922
0.000699857
0.000703852
0.000702269
0.000710128
0.000601719
0.000620477
0.00060242
0.000582122
0.000568143
0.000568451
0.000578233
0.000591472
0.000600184
0.000605107
0.000607899
0.000609502
0.000610627
0.000611847
0.000613389
0.000615055
0.000616542
0.00061774
0.000618811
0.000619868
0.000621196
0.000622515
0.000624205
0.000625705
0.000627527
0.000629034
0.000631252
0.000632275
0.000635273
0.00063567
0.000639503
0.000639142
0.000643995
0.000642087
0.000649418
0.000540838
0.000559208
0.000532926
0.000510931
0.000505084
0.000517352
0.000536459
0.000553759
0.00056333
0.000567658
0.000569703
0.000571389
0.000573275
0.000574748
0.00057529
0.000575232
0.000575399
0.000576329
0.000578029
0.000580066
0.000582226
0.000584076
0.000585989
0.000587583
0.00058933
0.000590954
0.000592868
0.000594257
0.000596634
0.000597736
0.000600651
0.000601043
0.00060528
0.000603326
0.000611397
0.000469435
0.000481506
0.000449013
0.000427975
0.000426883
0.000440806
0.000457013
0.00047038
0.000475946
0.000478715
0.0004801
0.000480766
0.000481839
0.000483659
0.000485605
0.000486954
0.000487623
0.000488085
0.000488873
0.000490119
0.000491794
0.000493487
0.000495385
0.000497001
0.000498869
0.000500484
0.000502526
0.000503856
0.000506583
0.000507183
0.00051106
0.000510162
0.000516003
0.000512305
0.000522838
0.000374393
0.00039263
0.000352953
0.00032058
0.000311517
0.000321612
0.000336541
0.000345066
0.000347876
0.000349679
0.000349034
0.000348021
0.000349727
0.000354332
0.000359341
0.000362016
0.000361813
0.000360236
0.000359065
0.000358953
0.000359949
0.000361199
0.000363003
0.0003644
0.000366181
0.000367793
0.0003696
0.000371055
0.000373381
0.000374484
0.000377484
0.000377455
0.000381743
0.000380216
0.000386851
0.000237899
0.000278303
0.000245066
0.000225367
0.000239033
0.000264067
0.000281211
0.000286706
0.000287394
0.000287298
0.0002864
0.000287472
0.000289796
0.000291072
0.000291135
0.000291004
0.000291479
0.000292623
0.000294129
0.000295608
0.000297116
0.000298345
0.000299903
0.000301098
0.000302668
0.000304142
0.00030567
0.00030713
0.000308928
0.000310426
0.000312255
0.000313254
0.000316026
0.000315671
0.000321201
0.000104457
0.00010628
0.000117777
0.000123631
0.000124107
0.000123845
0.000124188
0.000126221
0.000124761
0.000128163
0.000127496
0.000124053
0.000122866
0.00012431
0.000126498
0.000128119
0.000128939
0.00012926
0.000129407
0.000129544
0.000129703
0.000129916
0.000130051
0.000130408
0.000130399
0.000130861
0.00013105
0.000131083
0.000131583
0.000131718
0.000132378
0.0001314
0.000132582
0.000130918
0.000133068
0.00113018
0.00110905
0.00109765
0.00110238
0.00110613
0.00110733
0.00110426
0.00110172
0.00109965
0.00109754
0.00109659
0.00109678
0.00109728
0.00109743
0.00109713
0.00109663
0.00109632
0.00109623
0.00109655
0.00109681
0.00109736
0.00109767
0.00109808
0.00109844
0.00109875
0.00109919
0.00109944
0.00110013
0.00110046
0.00110103
0.00110194
0.00110211
0.00110377
0.00110354
0.00110597
0.00111681
0.00109738
0.00108548
0.00108862
0.00109231
0.00109454
0.00109438
0.00109382
0.00109291
0.0010916
0.00109084
0.00109091
0.00109132
0.00109156
0.00109142
0.00109099
0.00109058
0.0010902
0.00109027
0.00109023
0.00109101
0.00109103
0.00109265
0.00109185
0.00109492
0.0010925
0.00109691
0.0010938
0.00109835
0.0010954
0.00110018
0.00109691
0.00110252
0.00109879
0.00110513
0.00110188
0.00108353
0.00107397
0.00107941
0.0010826
0.00108103
0.00107541
0.00107046
0.00106711
0.00106501
0.00106439
0.00106475
0.00106526
0.00106545
0.00106537
0.00106537
0.00106579
0.00106644
0.00106741
0.00106797
0.00106877
0.0010688
0.00106958
0.00106906
0.00107074
0.0010693
0.00107232
0.0010702
0.00107392
0.00107179
0.00107568
0.0010735
0.00107828
0.00107498
0.00108133
0.00108579
0.00106737
0.00105685
0.00106116
0.00106409
0.00106454
0.0010609
0.00105847
0.00105678
0.00105532
0.00105516
0.00105613
0.00105728
0.00105791
0.00105795
0.00105774
0.00105766
0.00105775
0.00105822
0.00105862
0.00105939
0.00105992
0.00106067
0.00106119
0.00106214
0.00106221
0.00106376
0.0010635
0.00106514
0.00106539
0.00106647
0.00106725
0.00106863
0.00106895
0.00107088
0.00106833
0.00105227
0.00104141
0.00104421
0.00104755
0.00104947
0.00104934
0.00104904
0.00104873
0.00104835
0.00104851
0.00104932
0.00105035
0.00105112
0.00105139
0.00105118
0.00105078
0.00105037
0.0010504
0.00105064
0.00105143
0.00105244
0.00105333
0.00105478
0.0010555
0.00105668
0.00105789
0.00105818
0.00106036
0.00105979
0.00106287
0.00106143
0.00106597
0.00106315
0.0010693
0.00104827
0.00103294
0.0010237
0.00102753
0.0010294
0.00102863
0.00102432
0.00102167
0.00101997
0.00101878
0.00101892
0.00102007
0.0010213
0.001022
0.0010222
0.00102218
0.0010223
0.00102254
0.00102316
0.00102366
0.0010247
0.00102519
0.00102656
0.00102657
0.00102875
0.00102774
0.00103087
0.00102953
0.00103265
0.0010316
0.00103498
0.00103332
0.001038
0.00103493
0.00104139
0.00102652
0.00101287
0.00100379
0.0010071
0.00100896
0.00100825
0.00100463
0.00100268
0.00100197
0.00100189
0.0010029
0.00100461
0.00100618
0.00100709
0.00100739
0.00100742
0.00100754
0.00100778
0.0010084
0.0010089
0.00101001
0.00101046
0.0010121
0.00101187
0.0010147
0.00101305
0.00101715
0.00101495
0.001019
0.00101719
0.00102134
0.00101906
0.00102424
0.00102109
0.0010275
0.00100219
0.000990639
0.000983084
0.000986266
0.00098589
0.000981675
0.000974541
0.000970447
0.000968589
0.000968211
0.000969319
0.000971092
0.000972613
0.000973512
0.000973989
0.000974398
0.000974995
0.000975679
0.000976584
0.000977256
0.000978247
0.000978774
0.000979797
0.000980184
0.000981558
0.000981521
0.000983587
0.000983132
0.000985857
0.000984797
0.000988454
0.000986679
0.000991302
0.000988318
0.000994665
0.000976588
0.000966396
0.000958871
0.000961399
0.00096068
0.000956828
0.000950515
0.000947921
0.000947594
0.000948418
0.000950449
0.000952874
0.000954767
0.000955793
0.000956235
0.000956533
0.000957005
0.0009576
0.000958469
0.000959186
0.000960253
0.000960943
0.000962038
0.000962709
0.000963958
0.000964401
0.000966038
0.000966197
0.000968491
0.000967617
0.000971603
0.000969055
0.000974784
0.000970851
0.000978021
0.000950541
0.000943393
0.000937331
0.000938884
0.000935321
0.000927644
0.000918805
0.000914762
0.00091398
0.000915021
0.000917161
0.00091937
0.000920938
0.00092182
0.000922442
0.000923202
0.000924238
0.000925307
0.000926411
0.000927128
0.000928033
0.000928419
0.000929396
0.000929614
0.00093122
0.000930776
0.000933516
0.000932409
0.000935676
0.000934516
0.000938078
0.00093638
0.000941319
0.000937758
0.000944623
0.000921977
0.000915892
0.000909677
0.000910019
0.000905107
0.000897415
0.00088928
0.000887526
0.000888709
0.000891027
0.000894126
0.00089699
0.00089888
0.000899821
0.000900355
0.000900961
0.000901826
0.000902771
0.000903825
0.000904593
0.000905601
0.00090616
0.000907231
0.000907706
0.000909166
0.000909227
0.000911356
0.000911147
0.000913471
0.000913118
0.000916279
0.000914478
0.000919975
0.000915612
0.000923697
0.000891624
0.000889727
0.000884601
0.000882712
0.000874114
0.000862617
0.00085318
0.000850877
0.000852349
0.000855192
0.000858274
0.000860689
0.000862097
0.000862834
0.000863561
0.000864683
0.000866149
0.000867542
0.000868731
0.000869385
0.000870108
0.000870374
0.000871205
0.000871515
0.00087293
0.000872777
0.00087533
0.000874325
0.000877761
0.000876212
0.000880368
0.000878077
0.000883448
0.000879584
0.000886588
0.000857564
0.000856942
0.000850727
0.000846055
0.000835209
0.000824358
0.000817192
0.000818841
0.000822958
0.000827161
0.00083106
0.000833934
0.000835568
0.000836392
0.000837055
0.000837923
0.000839013
0.000840074
0.000841103
0.000841816
0.000842724
0.000843259
0.000844284
0.000844863
0.000846213
0.000846477
0.000848501
0.000848383
0.000850626
0.000850527
0.00085319
0.000852133
0.000856762
0.000853157
0.000860422
0.000820972
0.000825285
0.000819115
0.000810732
0.000795997
0.000782997
0.000776583
0.000779143
0.000784027
0.00078855
0.00079211
0.000794352
0.000795405
0.000795941
0.000796737
0.000798081
0.00079971
0.000801123
0.000802186
0.000802725
0.000803348
0.00080365
0.000804509
0.000805008
0.000806312
0.000806503
0.000808789
0.000808045
0.000811336
0.000809875
0.000813962
0.000811765
0.000816943
0.000813207
0.000820031
0.000779363
0.000785739
0.000776153
0.000762361
0.000745253
0.000735076
0.000733976
0.000742054
0.000749842
0.000755398
0.000759232
0.000761551
0.00076286
0.000763749
0.000764571
0.000765402
0.000766218
0.000766968
0.000767785
0.000768508
0.000769517
0.000770254
0.000771415
0.000772191
0.000773469
0.000773994
0.000775843
0.000775825
0.000778091
0.000777971
0.000780504
0.000779839
0.000783789
0.000780778
0.00078754
0.000732838
0.000744211
0.000732934
0.00071447
0.000695215
0.00068658
0.000688603
0.000698706
0.000706792
0.000711976
0.000715175
0.000716737
0.000717304
0.000717757
0.00071866
0.000719962
0.00072128
0.000722299
0.00072308
0.000723635
0.000724426
0.000725044
0.000726123
0.000726889
0.000728101
0.000728688
0.000730537
0.00073025
0.000733158
0.000731965
0.000735857
0.000733788
0.000738733
0.000735137
0.000741787
0.000680132
0.000694649
0.000674984
0.000647893
0.000628579
0.000627129
0.000637774
0.000652889
0.000662745
0.000667747
0.000670073
0.000671431
0.000672967
0.000674537
0.000675377
0.000675277
0.000674842
0.000674806
0.000675547
0.000676762
0.000678349
0.000679611
0.000681028
0.000682015
0.000683157
0.000684041
0.000685462
0.000685851
0.000687909
0.000687797
0.000690567
0.00068955
0.000693755
0.000690421
0.000697477
0.000620559
0.000634087
0.000608643
0.000579713
0.000563871
0.000565968
0.000575969
0.000588573
0.000594568
0.000597891
0.00059972
0.000600044
0.0006001
0.000600992
0.000602628
0.000604135
0.000604921
0.000605102
0.000605261
0.000605697
0.000606664
0.00060764
0.000608967
0.000609905
0.000611151
0.000611958
0.000613483
0.000613737
0.000616126
0.000615437
0.000619198
0.000616809
0.000622441
0.000617818
0.000626123
0.000537482
0.000563823
0.000538253
0.000499792
0.000473905
0.000470344
0.000481534
0.000490817
0.000495084
0.000497918
0.000497515
0.000495155
0.000494279
0.000496614
0.000501312
0.000505559
0.00050721
0.000506397
0.000504814
0.000503638
0.0005037
0.000503988
0.000505231
0.000505923
0.000507037
0.000507951
0.000509234
0.000509608
0.000511619
0.000511485
0.000514498
0.000512889
0.000517289
0.000513894
0.000520296
0.000432171
0.000497156
0.00044833
0.000393683
0.00038002
0.00039752
0.000417099
0.000424926
0.000426372
0.000426318
0.000424476
0.000424867
0.000427806
0.000430088
0.000430538
0.000429931
0.000429387
0.000429422
0.000430055
0.000430847
0.000431929
0.000432575
0.000433779
0.000434404
0.000435426
0.000436392
0.000437465
0.0004381
0.000439607
0.0004402
0.000442059
0.000441605
0.000444823
0.000442311
0.000448358
0.000152159
0.000154194
0.000166933
0.000172462
0.000172419
0.000171737
0.000171844
0.000174348
0.000172478
0.000176477
0.000176056
0.000172034
0.000170371
0.000171878
0.000174417
0.00017637
0.000177387
0.000177789
0.000177957
0.0001781
0.000178262
0.000178495
0.000178618
0.000179034
0.000178986
0.000179485
0.000179729
0.000179706
0.000180262
0.000180343
0.000181237
0.000180003
0.000181439
0.00017939
0.000181866
0.00113675
0.00113357
0.00112079
0.00112007
0.00112289
0.00112619
0.00112461
0.00112272
0.00112081
0.00111812
0.00111652
0.00111646
0.00111682
0.00111672
0.00111615
0.00111543
0.00111501
0.00111481
0.0011151
0.00111526
0.00111577
0.00111601
0.00111632
0.00111659
0.00111674
0.00111704
0.001117
0.00111748
0.00111755
0.00111761
0.00111839
0.00111779
0.00111931
0.00111814
0.00112038
0.00112394
0.00112176
0.0011087
0.00110619
0.0011084
0.00111191
0.00111299
0.00111313
0.00111244
0.00111077
0.00110952
0.00110929
0.00110952
0.00110958
0.00110928
0.00110871
0.0011082
0.00110765
0.00110762
0.00110727
0.001108
0.00110751
0.00110944
0.00110766
0.0011116
0.00110777
0.00111301
0.0011088
0.00111363
0.00110977
0.00111465
0.0011105
0.00111572
0.00111169
0.00111679
0.00110949
0.00110766
0.00109706
0.00109786
0.00110114
0.00110214
0.00109815
0.00109359
0.00108988
0.00108694
0.00108558
0.00108557
0.00108584
0.0010857
0.00108525
0.00108488
0.00108506
0.00108554
0.00108651
0.001087
0.00108788
0.00108768
0.00108858
0.0010874
0.00108948
0.0010869
0.00109044
0.00108718
0.0010911
0.00108809
0.00109186
0.00108877
0.00109342
0.00108929
0.00109492
0.00109374
0.00109194
0.00108035
0.00107981
0.00108216
0.00108473
0.00108227
0.00108016
0.00107829
0.00107597
0.00107503
0.00107568
0.00107662
0.00107693
0.00107665
0.00107618
0.00107598
0.00107594
0.00107634
0.00107656
0.00107721
0.00107757
0.00107817
0.0010784
0.00107937
0.00107885
0.00108049
0.00107964
0.00108101
0.00108098
0.00108149
0.00108179
0.00108286
0.00108242
0.00108397
0.00107727
0.00107661
0.00106482
0.00106247
0.00106463
0.00106784
0.0010688
0.0010689
0.00106846
0.00106745
0.00106696
0.00106737
0.00106818
0.00106878
0.00106892
0.00106858
0.00106805
0.00106738
0.00106713
0.001067
0.00106743
0.00106823
0.00106873
0.0010701
0.00107054
0.00107136
0.00107256
0.00107211
0.00107439
0.00107297
0.00107605
0.00107368
0.00107807
0.00107469
0.00107999
0.00105782
0.00105749
0.00104761
0.00104746
0.0010493
0.00105079
0.0010476
0.00104514
0.00104305
0.00104086
0.00104018
0.00104095
0.00104189
0.00104223
0.00104205
0.00104176
0.00104171
0.00104177
0.00104228
0.00104251
0.00104344
0.00104356
0.00104497
0.00104429
0.00104685
0.00104479
0.00104823
0.00104608
0.00104905
0.00104731
0.00105059
0.00104798
0.0010525
0.00104873
0.00105448
0.0010371
0.00103744
0.00102773
0.00102693
0.00102843
0.00102944
0.00102644
0.00102415
0.00102263
0.00102137
0.00102152
0.00102287
0.00102424
0.00102489
0.00102491
0.0010247
0.00102465
0.00102467
0.00102515
0.00102534
0.00102634
0.00102633
0.00102812
0.00102701
0.00103045
0.0010275
0.00103218
0.00102901
0.00103308
0.00103052
0.00103467
0.00103156
0.00103635
0.00103309
0.00103825
0.00101384
0.00101531
0.00100776
0.00100822
0.00100867
0.00100673
0.00100012
0.000995398
0.000992416
0.000990669
0.00099089
0.000992305
0.000993547
0.000994054
0.000994139
0.000994265
0.000994724
0.000995282
0.000996117
0.000996577
0.000997441
0.000997669
0.000998548
0.000998469
0.000999834
0.000999062
0.00100119
0.000999893
0.00100271
0.00100066
0.00100437
0.00100172
0.00100611
0.00100252
0.00100815
0.000989293
0.000991372
0.000983894
0.000983534
0.000983036
0.000980681
0.000974035
0.000970152
0.000968311
0.000967583
0.00096873
0.000970902
0.000972623
0.000973354
0.000973483
0.000973545
0.000973881
0.000974318
0.000975064
0.000975527
0.000976417
0.000976814
0.000977701
0.000978008
0.000979112
0.000979037
0.000980556
0.000980056
0.000982469
0.000980458