/*--------------------------------*- C++ -*----------------------------------*\
  =========                 |
  \\      /  F ield         | OpenFOAM: The Open Source CFD Toolbox
   \\    /   O peration     | Website:  https://openfoam.org
    \\  /    A nd           | Version:  6
     \\/     M anipulation  |
\*---------------------------------------------------------------------------*/
FoamFile
{
    version     2.0;
    format      ascii;
    class       surfaceScalarField;
    location    "1.2";
    object      phi;
}
// * * * * * * * * * * * * * * * * * * * * * * * * * * * * * * * * * * * * * //

dimensions      [0 3 -1 0 0 0 0];

internalField   nonuniform List<scalar> 
185055
(
1.07502e-06
6.20533e-09
-3.28078e-07
-5.77828e-09
1.11714e-06
1.42969e-08
-4.34013e-08
-1.30229e-08
1.10902e-06
1.83894e-08
6.54856e-09
-1.68109e-08
1.10153e-06
2.28132e-08
5.70691e-09
-2.10369e-08
1.09707e-06
2.62943e-08
2.72007e-09
-2.45533e-08
1.09378e-06
2.67897e-08
1.94641e-09
-2.54429e-08
1.09163e-06
2.42841e-08
1.41828e-09
-2.35492e-08
1.0907e-06
2.03688e-08
7.77843e-10
-2.02233e-08
1.09044e-06
1.6726e-08
4.9984e-10
-1.6964e-08
1.09079e-06
1.42165e-08
6.47092e-11
-1.46279e-08
1.09141e-06
1.29087e-08
-1.80298e-10
-1.3353e-08
1.09172e-06
1.25121e-08
1.13006e-10
-1.29311e-08
1.09166e-06
1.27019e-08
4.54523e-10
-1.30968e-08
1.09161e-06
1.32636e-08
4.38049e-10
-1.36534e-08
1.09185e-06
1.40947e-08
1.60318e-10
-1.44952e-08
1.09241e-06
1.51463e-08
-1.32569e-10
-1.5571e-08
1.09317e-06
1.63704e-08
-2.99045e-10
-1.68312e-08
1.09401e-06
1.77216e-08
-3.35923e-10
-1.82312e-08
1.09486e-06
1.91464e-08
-2.78961e-10
-1.97149e-08
1.09571e-06
2.06232e-08
-2.07487e-10
-2.12648e-08
1.09657e-06
2.21093e-08
-1.31744e-10
-2.28382e-08
1.09749e-06
2.36208e-08
-7.84882e-11
-2.44568e-08
1.09851e-06
2.51076e-08
-6.27362e-11
-2.60642e-08
1.09965e-06
2.66043e-08
-4.50384e-11
-2.77018e-08
1.10096e-06
2.80573e-08
-6.44037e-11
-2.93019e-08
1.10245e-06
2.94806e-08
-7.58202e-11
-3.08947e-08
1.10415e-06
3.08484e-08
-1.23945e-10
-3.24274e-08
1.10606e-06
3.2142e-08
-1.30201e-10
-3.39181e-08
1.1082e-06
3.33473e-08
-1.85347e-10
-3.53015e-08
1.1106e-06
3.44655e-08
-2.36023e-10
-3.6637e-08
1.11326e-06
3.54168e-08
-2.98544e-10
-3.77755e-08
1.11623e-06
3.63533e-08
-3.90232e-10
-3.89316e-08
1.11949e-06
3.68259e-08
-5.01608e-10
-3.95844e-08
1.12292e-06
3.77414e-08
-5.32894e-10
-4.06412e-08
3.71351e-08
-1.11735e-09
1.1271e-06
-4.01999e-08
1.06373e-06
7.30179e-09
-3.17729e-07
1.10508e-06
1.58004e-08
-4.28539e-08
1.09795e-06
1.95493e-08
5.97577e-09
1.09228e-06
2.34393e-08
5.04432e-09
1.09007e-06
2.65058e-08
1.9908e-09
1.08889e-06
2.67566e-08
1.21581e-09
1.08813e-06
2.41063e-08
9.33893e-10
1.08785e-06
2.00842e-08
5.73425e-10
1.08787e-06
1.63522e-08
3.51641e-10
1.08825e-06
1.37876e-08
4.84895e-11
1.08882e-06
1.24696e-08
-1.28353e-10
1.0892e-06
1.2103e-08
2.79063e-11
1.0893e-06
1.2344e-08
2.49986e-10
1.08935e-06
1.29458e-08
2.76918e-10
1.08954e-06
1.37775e-08
1.2698e-10
1.08998e-06
1.47774e-08
-7.21333e-11
1.09067e-06
1.59069e-08
-2.30038e-10
1.09159e-06
1.71355e-08
-3.31376e-10
1.09267e-06
1.84394e-08
-3.71452e-10
1.09388e-06
1.97987e-08
-3.92993e-10
1.09518e-06
2.11974e-08
-3.80183e-10
1.09656e-06
2.26133e-08
-3.80472e-10
1.09799e-06
2.4029e-08
-3.46575e-10
1.09958e-06
2.54228e-08
-4.04768e-10
1.10117e-06
2.67793e-08
-3.17715e-10
1.10304e-06
2.80791e-08
-4.70455e-10
1.10497e-06
2.9317e-08
-3.95956e-10
1.10716e-06
3.04629e-08
-5.08865e-10
1.10951e-06
3.15254e-08
-5.26136e-10
1.11213e-06
3.24759e-08
-6.31137e-10
1.11488e-06
3.33095e-08
-6.44952e-10
1.11807e-06
3.40499e-08
-8.83952e-10
1.12103e-06
3.4653e-08
-7.92355e-10
1.12448e-06
3.52178e-08
-9.25089e-10
3.58899e-08
-3.12417e-09
1.12885e-06
1.0515e-06
8.5003e-09
-3.11659e-07
1.09185e-06
1.78748e-08
-4.24321e-08
1.08324e-06
2.234e-08
5.82179e-09
1.07409e-06
2.67829e-08
5.81071e-09
1.06733e-06
2.96356e-08
3.6312e-09
1.06224e-06
2.88702e-08
2.97058e-09
1.05923e-06
2.49408e-08
2.17259e-09
1.05822e-06
1.99382e-08
1.15979e-09
1.05837e-06
1.57025e-08
5.00282e-10
1.05917e-06
1.2997e-08
-1.07868e-11
1.06018e-06
1.1699e-08
-2.3937e-10
1.061e-06
1.13647e-08
-8.2788e-11
1.06164e-06
1.1596e-08
1.15015e-10
1.06234e-06
1.21601e-08
8.31402e-11
1.06327e-06
1.29639e-08
-1.21014e-10
1.0644e-06
1.39697e-08
-3.20033e-10
1.06557e-06
1.5134e-08
-3.97624e-10
1.06668e-06
1.63942e-08
-3.63038e-10
1.06768e-06
1.76964e-08
-2.59723e-10
1.06865e-06
1.89977e-08
-1.73379e-10
1.06966e-06
2.02925e-08
-1.06283e-10
1.07081e-06
2.15614e-08
-8.9752e-11
1.07211e-06
2.28195e-08
-9.139e-11
1.07363e-06
2.40414e-08
-1.4182e-10
1.0753e-06
2.52314e-08
-1.19261e-10
1.07725e-06
2.63646e-08
-2.41062e-10
1.07932e-06
2.74341e-08
-1.83564e-10
1.08166e-06
2.84176e-08
-2.98807e-10
1.08415e-06
2.93115e-08
-2.74896e-10
1.0869e-06
3.00978e-08
-3.6954e-10
1.08982e-06
3.07693e-08
-3.83701e-10
1.09307e-06
3.13291e-08
-5.29285e-10
1.0964e-06
3.17817e-08
-4.50452e-10
1.10023e-06
3.2048e-08
-6.64321e-10
3.25879e-08
-1.22058e-09
1.10475e-06
1.03719e-06
9.51416e-09
-3.10454e-07
1.07604e-06
1.99875e-08
-4.09618e-08
1.06776e-06
2.43528e-08
6.25918e-09
1.06049e-06
2.86046e-08
5.44953e-09
1.05629e-06
3.10557e-08
2.78065e-09
1.05353e-06
2.9643e-08
1.99229e-09
1.05221e-06
2.49881e-08
1.26803e-09
1.05227e-06
1.93954e-08
4.88014e-10
1.05296e-06
1.48388e-08
1.68696e-10
1.05418e-06
1.20477e-08
-2.69419e-10
1.05557e-06
1.08058e-08
-4.98889e-10
1.05657e-06
1.05784e-08
-2.07435e-10
1.05711e-06
1.09063e-08
1.43565e-10
1.05756e-06
1.1533e-08
1.75e-10
1.0582e-06
1.23589e-08
-3.17905e-11
1.05909e-06
1.33443e-08
-2.61663e-10
1.06016e-06
1.44513e-08
-3.92402e-10
1.06135e-06
1.56331e-08
-4.30298e-10
1.0626e-06
1.68498e-08
-3.99792e-10
1.0639e-06
1.80691e-08
-3.68325e-10
1.06524e-06
1.92795e-08
-3.26036e-10
1.06663e-06
2.0465e-08
-3.00924e-10
1.06813e-06
2.1626e-08
-3.01124e-10
1.06973e-06
2.27477e-08
-3.03005e-10
1.07144e-06
2.38217e-08
-3.07384e-10
1.07334e-06
2.48373e-08
-3.7169e-10
1.07536e-06
2.57743e-08
-3.5719e-10
1.07758e-06
2.66304e-08
-4.33838e-10
1.07997e-06
2.73775e-08
-4.5772e-10
1.08255e-06
2.80266e-08
-5.0319e-10
1.08539e-06
2.85261e-08
-6.06201e-10
1.08846e-06
2.89393e-08
-6.72415e-10
1.09192e-06
2.90699e-08
-7.54982e-10
1.09553e-06
2.92505e-08
-8.10067e-10
2.86976e-08
-1.22694e-09
1.10065e-06
1.02275e-06
1.16061e-08
-2.97094e-07
1.06105e-06
2.25078e-08
-4.08191e-08
1.05436e-06
2.61355e-08
4.90445e-09
1.04932e-06
2.9371e-08
4.27835e-09
1.04764e-06
3.0847e-08
1.88229e-09
1.04722e-06
2.8716e-08
1.35056e-09
1.04754e-06
2.36618e-08
1.00582e-09
1.04849e-06
1.79608e-08
4.78858e-10
1.04974e-06
1.34842e-08
1.06131e-10
1.05115e-06
1.08669e-08
-2.25074e-10
1.05253e-06
9.81637e-09
-3.86978e-10
1.05358e-06
9.7695e-09
-2.50328e-10
1.05425e-06
1.02552e-08
-1.63221e-11
1.0547e-06
1.09859e-08
9.6178e-11
1.05517e-06
1.18286e-08
5.84491e-11
1.05585e-06
1.27354e-08
-6.16552e-11
1.0568e-06
1.36904e-08
-1.957e-10
1.05806e-06
1.469e-08
-3.17055e-10
1.05957e-06
1.57298e-08
-3.84793e-10
1.06125e-06
1.68089e-08
-4.23817e-10
1.06304e-06
1.79053e-08
-4.116e-10
1.06487e-06
1.9011e-08
-3.75933e-10
1.06677e-06
2.00875e-08
-3.64105e-10
1.0687e-06
2.11311e-08
-3.1444e-10
1.07073e-06
2.2113e-08
-3.20918e-10
1.07288e-06
2.30235e-08
-3.35541e-10
1.07511e-06
2.38582e-08
-3.15369e-10
1.07754e-06
2.45963e-08
-3.96433e-10
1.08003e-06
2.52393e-08
-3.48716e-10
1.08274e-06
2.57798e-08
-4.6853e-10
1.08549e-06
2.62053e-08
-4.20893e-10
1.08848e-06
2.65499e-08
-6.09189e-10
1.09127e-06
2.67347e-08
-4.48574e-10
1.09412e-06
2.696e-08
-5.63594e-10
2.69572e-08
-2.66407e-09
1.09853e-06
1.0052e-06
1.37162e-08
-2.93686e-07
1.04136e-06
2.55936e-08
-3.92485e-08
1.03249e-06
2.89906e-08
6.0149e-09
1.02443e-06
3.17284e-08
5.70125e-09
1.01956e-06
3.2258e-08
3.46596e-09
1.01659e-06
2.89772e-08
2.70765e-09
1.01552e-06
2.29634e-08
1.77103e-09
1.01603e-06
1.67477e-08
6.98924e-10
1.01724e-06
1.21743e-08
1.01803e-10
1.0189e-06
9.68215e-09
-4.78247e-10
1.02064e-06
8.80484e-09
-7.23199e-10
1.02195e-06
8.89122e-09
-4.38882e-10
1.02285e-06
9.45254e-09
-9.25486e-11
1.02364e-06
1.02135e-08
-1.76526e-11
1.02456e-06
1.10479e-08
-1.43866e-10
1.02568e-06
1.19067e-08
-2.91902e-10
1.02696e-06
1.27801e-08
-3.68603e-10
1.02836e-06
1.36786e-08
-3.86869e-10
1.02983e-06
1.46149e-08
-3.58985e-10
1.03139e-06
1.55912e-08
-3.34748e-10
1.03299e-06
1.65893e-08
-2.91377e-10
1.03469e-06
1.75879e-08
-2.7239e-10
1.03647e-06
1.85578e-08
-2.46258e-10
1.03839e-06
1.94825e-08
-2.72708e-10
1.04038e-06
2.03463e-08
-2.23141e-10
1.04259e-06
2.11348e-08
-3.25838e-10
1.04487e-06
2.1848e-08
-2.70751e-10
1.04734e-06
2.24643e-08
-3.38076e-10
1.04996e-06
2.299e-08
-3.64195e-10
1.05274e-06
2.34065e-08
-4.13323e-10
1.05567e-06
2.37095e-08
-4.29198e-10
1.05892e-06
2.39066e-08
-6.06085e-10
1.06228e-06
2.39306e-08
-5.57768e-10
1.06608e-06
2.38976e-08
-7.34928e-10
2.35908e-08
-1.92189e-09
1.07136e-06
9.86838e-07
1.66426e-08
-2.84094e-07
1.02238e-06
2.90744e-08
-3.90206e-08
1.01485e-06
3.178e-08
4.73392e-09
1.00839e-06
3.3537e-08
4.65372e-09
1.00514e-06
3.27104e-08
2.79592e-09
1.00383e-06
2.80749e-08
2.21641e-09
1.00431e-06
2.11292e-08
1.35312e-09
1.00613e-06
1.45928e-08
3.40394e-10
1.00833e-06
1.01746e-08
-2.06942e-10
1.01062e-06
8.04152e-09
-6.46913e-10
1.01266e-06
7.51798e-09
-7.57147e-10
1.01411e-06
7.8634e-09
-4.22134e-10
1.01506e-06
8.57653e-09
-6.67812e-11
1.01586e-06
9.40174e-09
1.15492e-11
1.01679e-06
1.02362e-08
-1.18746e-10
1.01793e-06
1.10469e-08
-2.83414e-10
1.01926e-06
1.18366e-08
-3.83137e-10
1.02073e-06
1.26285e-08
-4.19989e-10
1.02229e-06
1.34507e-08
-4.02142e-10
1.02395e-06
1.43104e-08
-3.80615e-10
1.02567e-06
1.52023e-08
-3.3213e-10
1.02748e-06
1.6091e-08
-3.10199e-10
1.02934e-06
1.69648e-08
-2.6431e-10
1.03133e-06
1.77834e-08
-2.95584e-10
1.03334e-06
1.85501e-08
-2.07043e-10
1.03556e-06
1.92398e-08
-3.30961e-10
1.03779e-06
1.98521e-08
-2.32722e-10
1.04019e-06
2.03792e-08
-3.10616e-10
1.04268e-06
2.08163e-08
-3.17017e-10
1.04528e-06
2.11612e-08
-3.52754e-10
1.0479e-06
2.14151e-08
-3.28075e-10
1.05071e-06
2.15868e-08
-4.91098e-10
1.0533e-06
2.16805e-08
-3.38731e-10
1.05589e-06
2.17012e-08
-3.93629e-10
2.18072e-08
-2.82604e-09
1.0605e-06
9.65488e-07
2.06841e-08
-2.7461e-07
9.98347e-07
3.35596e-08
-3.73442e-08
9.88455e-07
3.58118e-08
5.86003e-09
9.78826e-07
3.6741e-08
6.42497e-09
9.72522e-07
3.43569e-08
4.65782e-09
9.69047e-07
2.79576e-08
3.59201e-09
9.68437e-07
1.96974e-08
2.04208e-09
9.69903e-07
1.26325e-08
4.94156e-10
9.72125e-07
8.30843e-09
-3.55411e-10
9.74586e-07
6.52053e-09
-9.39925e-10
9.7683e-07
6.31687e-09
-1.04329e-09
9.78512e-07
6.85519e-09
-6.73635e-10
9.79765e-07
7.64716e-09
-3.2336e-10
9.80928e-07
8.4835e-09
-2.44729e-10
9.82195e-07
9.29387e-09
-3.25367e-10
9.83582e-07
1.00592e-08
-3.98668e-10
9.85033e-07
1.07894e-08
-4.03858e-10
9.86519e-07
1.15132e-08
-3.70827e-10
9.88024e-07
1.22595e-08
-3.14321e-10
9.8958e-07
1.30339e-08
-2.79434e-10
9.91191e-07
1.38274e-08
-2.36078e-10
9.92896e-07
1.46087e-08
-2.22502e-10
9.94709e-07
1.53654e-08
-2.13899e-10
9.96649e-07
1.60692e-08
-2.25419e-10
9.98697e-07
1.67184e-08
-2.16165e-10
1.00091e-06
1.72992e-08
-2.76773e-10
1.00321e-06
1.78056e-08
-2.48356e-10
1.00567e-06
1.8233e-08
-3.13455e-10
1.0082e-06
1.85737e-08
-2.90611e-10
1.01094e-06
1.88265e-08
-3.99959e-10
1.01373e-06
1.89798e-08
-3.54008e-10
1.0168e-06
1.90428e-08
-5.28081e-10
1.02001e-06
1.89756e-08
-5.08344e-10
1.02352e-06
1.88252e-08
-6.3736e-10
1.84799e-08
-1.98749e-09
1.02884e-06
8.26541e-07
2.50551e-08
-2.34333e-07
8.54663e-07
3.76943e-08
-3.22574e-08
8.47318e-07
3.90088e-08
4.14882e-09
8.40714e-07
3.86611e-08
4.68374e-09
8.37249e-07
3.4474e-08
3.34727e-09
8.36286e-07
2.6409e-08
2.51233e-09
8.37621e-07
1.71887e-08
1.17377e-09
8.40344e-07
1.00047e-08
-9.60015e-11
8.43215e-07
6.09756e-09
-6.59897e-10
8.45891e-07
4.8558e-09
-1.01072e-09
8.48073e-07
5.08707e-09
-9.52412e-10
8.49536e-07
5.88817e-09
-4.96651e-10
8.50514e-07
6.80015e-09
-1.30615e-10
8.51413e-07
7.66873e-09
-8.45196e-11
8.52462e-07
8.46603e-09
-2.2099e-10
8.53684e-07
9.19269e-09
-3.55359e-10
8.5502e-07
9.86499e-09
-4.11516e-10
8.56427e-07
1.05156e-08
-4.09489e-10
8.57875e-07
1.11778e-08
-3.66146e-10
8.59374e-07
1.18632e-08
-3.28693e-10
8.60914e-07
1.25637e-08
-2.76211e-10
8.62515e-07
1.32559e-08
-2.48068e-10
8.64185e-07
1.39205e-08
-2.24921e-10
8.65927e-07
1.45419e-08
-2.15218e-10
8.67743e-07
1.5106e-08
-2.03257e-10
8.69662e-07
1.56102e-08
-2.30355e-10
8.71638e-07
1.60455e-08
-2.16087e-10
8.73718e-07
1.64012e-08
-2.47672e-10
8.75829e-07
1.66887e-08
-2.25956e-10
8.78095e-07
1.68886e-08
-3.27999e-10
8.80275e-07
1.70168e-08
-2.16873e-10
8.82663e-07
1.70709e-08
-4.16987e-10
8.84807e-07
1.70724e-08
-2.39997e-10
8.86949e-07
1.70042e-08
-3.21276e-10
1.70595e-08
-2.51655e-09
8.90886e-07
7.75196e-07
3.12306e-08
-2.14244e-07
7.99522e-07
4.28797e-08
-2.95117e-08
7.90086e-07
4.33504e-08
5.09485e-09
7.80755e-07
4.15872e-08
6.40432e-09
7.74936e-07
3.52584e-08
5.03487e-09
7.72586e-07
2.52429e-08
3.51601e-09
7.73313e-07
1.4956e-08
1.50535e-09
7.75802e-07
7.69328e-09
-1.77515e-10
7.78604e-07
4.25624e-09
-9.60645e-10
7.81198e-07
3.54726e-09
-1.28572e-09
7.83297e-07
4.12381e-09
-1.13558e-09
7.84826e-07
5.06112e-09
-7.01586e-10
7.86047e-07
5.9784e-09
-3.99441e-10
7.87259e-07
6.80317e-09
-3.46649e-10
7.88562e-07
7.55751e-09
-3.93727e-10
7.899e-07
8.25833e-09
-4.03684e-10
7.91201e-07
8.91451e-09
-3.50449e-10
7.92453e-07
9.54125e-09
-2.77625e-10
7.93681e-07
1.01565e-08
-2.07571e-10
7.94953e-07
1.07675e-08
-1.75643e-10
7.96293e-07
1.13726e-08
-1.4883e-10
7.97745e-07
1.19581e-08
-1.54793e-10
7.99306e-07
1.25188e-08
-1.58482e-10
8.00989e-07
1.30383e-08
-1.79822e-10
8.02748e-07
1.35146e-08
-1.671e-10
8.04659e-07
1.39349e-08
-2.35735e-10
8.06588e-07
1.42955e-08
-1.79678e-10
8.08658e-07
1.45859e-08
-2.54271e-10
8.10769e-07
1.48083e-08
-2.30877e-10
8.1299e-07
1.49526e-08
-2.84762e-10
8.15266e-07
1.50208e-08
-2.79849e-10
8.17727e-07
1.50116e-08
-4.01465e-10
8.20246e-07
1.49065e-08
-3.53566e-10
8.23022e-07
1.4722e-08
-4.94083e-10
1.43906e-08
-1.76823e-09
8.2746e-07
7.24184e-07
3.80538e-08
-2.02406e-07
7.46747e-07
4.7765e-08
-2.74485e-08
7.38785e-07
4.68225e-08
4.48986e-09
7.31676e-07
4.30435e-08
5.65268e-09
7.28452e-07
3.42334e-08
4.2498e-09
7.28662e-07
2.23888e-08
2.64392e-09
7.31525e-07
1.14785e-08
6.14183e-10
7.35452e-07
4.62704e-09
-8.61159e-10
7.3898e-07
2.02756e-09
-1.29878e-09
7.41892e-07
2.05649e-09
-1.42085e-09
7.44036e-07
3.08388e-09
-1.10487e-09
7.45391e-07
4.22126e-09
-5.14833e-10
7.4635e-07
5.18599e-09
-1.66154e-10
7.47335e-07
5.99387e-09
-1.75764e-10
7.48497e-07
6.71735e-09
-3.223e-10
7.49786e-07
7.38706e-09
-4.17499e-10
7.51112e-07
8.00622e-09
-4.18249e-10
7.5244e-07
8.58167e-09
-3.6817e-10
7.53767e-07
9.12781e-09
-2.9775e-10
7.55129e-07
9.65575e-09
-2.5109e-10
7.56536e-07
1.01709e-08
-2.04665e-10
7.58017e-07
1.06678e-08
-1.90947e-10
7.59568e-07
1.11454e-08
-1.77518e-10
7.61198e-07
1.15896e-08
-1.81436e-10
7.62882e-07
1.19968e-08
-1.66239e-10
7.6467e-07
1.23563e-08
-2.09318e-10
7.66481e-07
1.26578e-08
-1.73059e-10
7.68379e-07
1.28997e-08
-2.12208e-10
7.70318e-07
1.30778e-08
-2.08385e-10
7.72337e-07
1.3185e-08
-2.51583e-10
7.74319e-07
1.32406e-08
-2.01184e-10
7.76466e-07
1.32234e-08
-3.58839e-10
7.78349e-07
1.31949e-08
-1.71077e-10
7.80292e-07
1.3078e-08
-2.98953e-10
1.31797e-08
-2.37079e-09
7.83873e-07
6.74609e-07
4.78396e-08
-1.80873e-07
6.9318e-07
5.3823e-08
-2.46281e-08
6.83055e-07
5.13206e-08
5.6267e-09
6.73419e-07
4.50548e-08
7.62406e-09
6.68424e-07
3.33692e-08
5.85969e-09
6.67892e-07
1.96235e-08
3.29743e-09
6.70519e-07
8.26539e-09
5.86026e-10
6.74293e-07
2.03203e-09
-1.17887e-09
6.77681e-07
3.44476e-10
-1.70512e-09
6.80351e-07
1.04544e-09
-1.65862e-09
6.82283e-07
2.36633e-09
-1.21472e-09
6.8366e-07
3.53109e-09
-6.87495e-10
6.84863e-07
4.41164e-09
-4.28528e-10
6.86155e-07
5.12957e-09
-4.27433e-10
6.87538e-07
5.80661e-09
-4.72201e-10
6.88882e-07
6.47561e-09
-4.32763e-10
6.90096e-07
7.11041e-09
-3.17888e-10
6.91195e-07
7.68201e-09
-1.99348e-10
6.92254e-07
8.18405e-09
-1.15101e-10
6.93373e-07
8.63017e-09
-9.31523e-11
6.94591e-07
9.04242e-09
-9.04475e-11
6.95947e-07
9.43363e-09
-1.21255e-10
6.97419e-07
9.81469e-09
-1.41416e-10
6.99002e-07
1.0173e-08
-1.66507e-10
7.00655e-07
1.05088e-08
-1.65241e-10
7.02427e-07
1.08021e-08
-2.1715e-10
7.04201e-07
1.10486e-08
-1.64823e-10
7.06099e-07
1.12388e-08
-2.37535e-10
7.07999e-07
1.1372e-08
-1.93902e-10
7.10013e-07
1.14382e-08
-2.67426e-10
7.12033e-07
1.14507e-08
-2.29855e-10
7.14219e-07
1.13902e-08
-3.52753e-10
7.16448e-07
1.1274e-08
-3.08263e-10
7.18882e-07
1.10654e-08
-4.21199e-10
1.07847e-08
-1.6594e-09
7.22936e-07
6.24035e-07
5.86443e-08
-1.70539e-07
6.40749e-07
5.90634e-08
-2.19542e-08
6.32272e-07
5.41505e-08
5.64647e-09
6.25589e-07
4.45754e-08
7.16311e-09
6.24254e-07
2.98967e-08
4.80744e-09
6.27128e-07
1.48349e-08
1.91423e-09
6.32262e-07
3.84896e-09
-7.17747e-10
6.37438e-07
-1.12445e-09
-2.01951e-09
6.41339e-07
-1.54692e-09
-2.00936e-09
6.44149e-07
-4.64728e-11
-1.71758e-09
6.46014e-07
1.6159e-09
-1.11479e-09
6.47149e-07
2.86275e-09
-4.66582e-10
6.48032e-07
3.72431e-09
-1.96369e-10
6.49021e-07
4.39856e-09
-2.57816e-10
6.50176e-07
5.03066e-09
-3.7871e-10
6.51408e-07
5.65501e-09
-4.11287e-10
6.52638e-07
6.23999e-09
-3.59987e-10
6.53853e-07
6.75139e-09
-2.84589e-10
6.55072e-07
7.18082e-09
-2.15744e-10
6.5634e-07
7.54681e-09
-1.83902e-10
6.57662e-07
7.87874e-09
-1.58893e-10
6.59063e-07
8.19649e-09
-1.64112e-10
6.60529e-07
8.51203e-09
-1.62479e-10
6.62057e-07
8.81369e-09
-1.69389e-10
6.63631e-07
9.09764e-09
-1.62762e-10
6.65283e-07
9.34553e-09
-1.95435e-10
6.66944e-07
9.54701e-09
-1.59467e-10
6.68681e-07
9.70229e-09
-1.99828e-10
6.70443e-07
9.7998e-09
-1.90372e-10
6.72265e-07
9.84039e-09
-2.23484e-10
6.74068e-07
9.84187e-09
-1.94425e-10
6.75997e-07
9.77477e-09
-3.13697e-10
6.77702e-07
9.72296e-09
-1.53775e-10
6.79475e-07
9.57682e-09
-2.84774e-10
9.705e-09
-2.19469e-09
6.8275e-07
5.7445e-07
7.33479e-08
-1.49529e-07
5.86948e-07
6.51088e-08
-1.85434e-08
5.76488e-07
5.72519e-08
7.35931e-09
5.6807e-07
4.36389e-08
9.35424e-09
5.66058e-07
2.58784e-08
6.02996e-09
5.68952e-07
9.95476e-09
1.98668e-09
5.74092e-07
-1.07741e-10
-1.18352e-09
5.79012e-07
-3.52288e-09
-2.52119e-09
5.82539e-07
-2.68521e-09
-2.38895e-09
5.84923e-07
-5.71844e-10
-1.85911e-09
5.8649e-07
1.18401e-09
-1.13485e-09
5.87609e-07
2.30177e-09
-5.58218e-10
5.88708e-07
3.01651e-09
-3.91213e-10
5.89974e-07
3.60187e-09
-4.68736e-10
5.91309e-07
4.20558e-09
-5.1054e-10
5.92545e-07
4.83357e-09
-4.14265e-10
5.93612e-07
5.41743e-09
-2.44686e-10
5.94571e-07
5.89773e-09
-1.04611e-10
5.95527e-07
6.26022e-09
-3.54551e-11
5.96581e-07
6.53668e-09
-4.41242e-11
5.97758e-07
6.77425e-09
-7.28267e-11
5.99072e-07
7.0063e-09
-1.23995e-10
6.00486e-07
7.24837e-09
-1.50386e-10
6.01985e-07
7.48828e-09
-1.72747e-10
6.03538e-07
7.71878e-09
-1.74119e-10
6.05173e-07
7.91789e-09
-2.07441e-10
6.06801e-07
8.07785e-09
-1.59591e-10
6.08536e-07
8.19421e-09
-2.26391e-10
6.10251e-07
8.25964e-09
-1.74729e-10
6.12072e-07
8.2687e-09
-2.4996e-10
6.1388e-07
8.23991e-09
-2.06092e-10
6.15831e-07
8.14032e-09
-3.15811e-10
6.17813e-07
8.01099e-09
-2.70276e-10
6.19971e-07
7.79488e-09
-3.76565e-10
7.5356e-09
-1.49695e-09
6.23638e-07
5.2299e-07
9.00618e-08
-1.36917e-07
5.33475e-07
6.9498e-08
-1.48737e-08
5.25437e-07
5.73377e-08
7.95127e-09
5.21399e-07
3.88271e-08
8.85023e-09
5.24518e-07
1.85675e-08
4.19227e-09
5.31605e-07
3.09375e-09
-2.26589e-10
5.3927e-07
-4.8898e-09
-2.88307e-09
5.45239e-07
-6.12509e-09
-3.36616e-09
5.48948e-07
-3.82692e-09
-2.56743e-09
5.51259e-07
-1.11572e-09
-1.76763e-09
5.52689e-07
7.16304e-10
-9.62305e-10
5.53594e-07
1.7879e-09
-3.90702e-10
5.54364e-07
2.48896e-09
-2.4259e-10
5.55211e-07
3.05715e-09
-3.01815e-10
5.56162e-07
3.58766e-09
-3.33672e-10
5.57196e-07
4.09475e-09
-2.94766e-10
5.58297e-07
4.5502e-09
-2.33696e-10
5.5946e-07
4.92474e-09
-1.89723e-10
5.60675e-07
5.20782e-09
-1.62783e-10
5.61947e-07
5.42598e-09
-1.61486e-10
5.63259e-07
5.61714e-09
-1.55077e-10
5.64623e-07
5.81057e-09
-1.68426e-10
5.66022e-07
6.01555e-09
-1.66312e-10
5.67459e-07
6.22202e-09
-1.70045e-10
5.68928e-07
6.41545e-09
-1.6621e-10
5.70449e-07
6.58206e-09
-1.84951e-10
5.71972e-07
6.70823e-09
-1.52913e-10
5.73561e-07
6.7981e-09
-1.93232e-10
5.75158e-07
6.8359e-09
-1.73133e-10
5.76811e-07
6.8268e-09
-2.11042e-10
5.78452e-07
6.78629e-09
-1.87497e-10
5.80194e-07
6.67741e-09
-2.79704e-10
5.81765e-07
6.59343e-09
-1.53188e-10
5.83426e-07
6.41352e-09
-2.7953e-10
6.49428e-09
-1.96544e-09
5.86433e-07
4.70534e-07
1.10539e-07
-1.18885e-07
4.76868e-07
7.31028e-08
-9.93919e-09
4.678e-07
5.567e-08
1.07358e-08
4.63722e-07
3.19332e-08
1.09721e-08
4.67627e-07
1.01717e-08
4.49079e-09
4.75287e-07
-3.59307e-09
-9.73307e-10
4.82816e-07
-8.68978e-09
-3.72907e-09
4.88115e-07
-7.57819e-09
-3.84648e-09
4.91101e-07
-4.05105e-09
-2.76109e-09
4.92862e-07
-1.09944e-09
-1.77711e-09
4.9395e-07
4.86049e-10
-8.57781e-10
4.94792e-07
1.28551e-09
-3.40021e-10
4.95762e-07
1.86209e-09
-3.42713e-10
4.969e-07
2.41646e-09
-4.98033e-10
4.98033e-07
2.94819e-09
-4.93684e-10
4.99037e-07
3.41307e-09
-3.21647e-10
4.99933e-07
3.7798e-09
-1.26103e-10
5.00827e-07
4.04856e-09
-1.72611e-11
5.01805e-07
4.2328e-09
-3.6847e-12
5.02912e-07
4.37447e-09
-5.53664e-11
5.04126e-07
4.5069e-09
-1.03961e-10
5.05436e-07
4.65662e-09
-1.55682e-10
5.06801e-07
4.81945e-09
-1.6904e-10
5.08213e-07
4.99137e-09
-1.80783e-10
5.09664e-07
5.1424e-09
-1.77888e-10
5.1116e-07
5.2756e-09
-1.89926e-10
5.12655e-07
5.37021e-09
-1.56869e-10
5.14232e-07
5.43002e-09
-2.08904e-10
5.15777e-07
5.44599e-09
-1.54997e-10
5.17427e-07
5.41702e-09
-2.39997e-10
5.19037e-07
5.35283e-09
-1.76891e-10
5.20785e-07
5.2222e-09
-2.92494e-10
5.22544e-07
5.06781e-09
-2.34027e-10
5.24435e-07
4.85084e-09
-3.27818e-10
4.39787e-09
-1.15537e-09
5.27687e-07
4.1624e-07
1.3491e-07
-9.80434e-08
4.20616e-07
7.35149e-08
-4.78808e-09
4.16116e-07
4.89201e-08
1.12499e-08
4.18827e-07
1.99736e-08
9.2482e-09
4.29319e-07
-1.31722e-09
9.97321e-10
4.41195e-07
-1.13022e-08
-4.16679e-09
4.50432e-07
-1.23391e-08
-5.58757e-09
4.55978e-07
-8.6212e-09
-4.50337e-09
4.58684e-07
-4.03681e-09
-2.72009e-09
4.60156e-07
-1.11022e-09
-1.46086e-09
4.61186e-07
1.3181e-10
-6.75738e-10
4.61983e-07
8.55707e-10
-3.67101e-10
4.62555e-07
1.60105e-09
-3.11798e-10
4.62957e-07
2.23915e-09
-2.24632e-10
4.63406e-07
2.60006e-09
-1.00996e-10
4.64141e-07
2.73223e-09
-5.39487e-11
4.65231e-07
2.78705e-09
-9.66153e-11
4.66565e-07
2.87499e-09
-1.60566e-10
4.67983e-07
3.00278e-09
-1.88356e-10
4.69387e-07
3.16224e-09
-1.9199e-10
4.7074e-07
3.32376e-09
-1.69545e-10
4.72071e-07
3.49382e-09
-1.68426e-10
4.73394e-07
3.65015e-09
-1.53144e-10
4.74728e-07
3.80955e-09
-1.52863e-10
4.76097e-07
3.92427e-09
-1.50262e-10
4.77487e-07
4.03666e-09
-1.51393e-10
4.78892e-07
4.10388e-09
-1.38389e-10
4.80344e-07
4.1375e-09
-1.59872e-10
4.81792e-07
4.13775e-09
-1.40098e-10
4.83305e-07
4.10281e-09
-1.98227e-10
4.84776e-07
4.01847e-09
-1.36638e-10
4.8639e-07
3.88089e-09
-2.72285e-10
4.87817e-07
3.78184e-09
-1.41436e-10
4.89458e-07
3.46404e-09
-2.54355e-10
3.30811e-09
-1.92003e-09
4.92468e-07
3.55639e-07
1.57991e-07
-8.46615e-08
3.57239e-07
6.79888e-08
3.92631e-09
3.54769e-07
3.53435e-08
1.60464e-08
3.59418e-07
4.24167e-09
1.10827e-08
3.7007e-07
-1.19788e-08
1.01158e-11
3.80286e-07
-1.55472e-08
-5.971e-09
3.87389e-07
-1.24683e-08
-6.97422e-09
3.91226e-07
-7.40518e-09
-5.05308e-09
3.92954e-07
-2.97995e-09
-2.78439e-09
3.93949e-07
-7.40112e-10
-1.36519e-09
3.94599e-07
-1.32265e-10
-3.85661e-10
3.95332e-07
3.10874e-10
-1.88727e-10
3.96345e-07
1.11308e-09
-5.25337e-10
3.97384e-07
1.88566e-09
-6.85047e-10
3.982e-07
2.22859e-09
-4.44141e-10
3.98838e-07
2.16173e-09
-6.75187e-11
3.99513e-07
1.9548e-09
1.57294e-10
4.00378e-07
1.84066e-09
1.68453e-10
4.01451e-07
1.86463e-09
6.5288e-11
4.02666e-07
1.99811e-09
-5.03041e-11
4.03943e-07
2.16048e-09
-1.14186e-10
4.05254e-07
2.32862e-09
-1.45368e-10
4.06573e-07
2.47313e-09
-1.42232e-10
4.07912e-07
2.60258e-09
-1.31977e-10
4.09282e-07
2.68403e-09
-1.29416e-10
4.10671e-07
2.77406e-09
-1.26811e-10
4.12072e-07
2.80632e-09
-1.03619e-10
4.1353e-07
2.83048e-09
-1.50988e-10
4.14938e-07
2.81267e-09
-8.28527e-11
4.16469e-07
2.76754e-09
-1.9547e-10
4.17887e-07
2.68784e-09
-8.7397e-11
4.19553e-07
2.50693e-09
-2.91651e-10
4.20874e-07
2.54408e-09
-8.39243e-11
4.22773e-07
1.85004e-09
-2.84677e-10
2.93874e-09
-2.35226e-09
4.25495e-07
2.88631e-07
1.80257e-07
-3.97816e-08
2.85983e-07
6.06557e-08
9.98182e-09
2.81479e-07
2.40431e-08
1.58039e-08
2.82748e-07
-6.84531e-09
9.818e-09
2.91367e-07
-1.79089e-08
-2.68882e-09
3.00109e-07
-1.6049e-08
-8.24008e-09
3.0546e-07
-9.8112e-09
-8.00859e-09
3.07772e-07
-4.43783e-09
-5.27886e-09
3.0869e-07
-1.36494e-09
-2.53283e-09
3.08998e-07
-3.26803e-10
-7.21874e-10
3.09437e-07
-5.8358e-10
1.2395e-11
3.11049e-07
-8.03023e-10
-4.98232e-10
3.1351e-07
-1.70675e-10
-1.17716e-09
3.15533e-07
9.64892e-10
-1.10224e-09
3.16322e-07
1.83378e-09
-3.94052e-10
3.16123e-07
2.06736e-09
2.93792e-10
3.15722e-07
1.8087e-09
5.47179e-10
3.1572e-07
1.42879e-09
4.13907e-10
3.16264e-07
1.17993e-09
1.39951e-10
3.17216e-07
1.12375e-09
-7.75994e-11
3.18369e-07
1.18745e-09
-1.79905e-10
3.19617e-07
1.2976e-09
-2.17099e-10
3.2089e-07
1.40107e-09
-2.00711e-10
3.22186e-07
1.48502e-09
-1.78154e-10
3.23529e-07
1.53633e-09
-1.95028e-10
3.24872e-07
1.58768e-09
-1.56614e-10
3.26245e-07
1.59604e-09
-1.62837e-10
3.27647e-07
1.61651e-09
-1.88773e-10
3.29025e-07
1.58546e-09
-1.49986e-10
3.30466e-07
1.53539e-09
-2.09619e-10
3.31866e-07
1.44749e-09
-1.59635e-10
3.33418e-07
1.27576e-09
-3.19983e-10
3.34871e-07
1.267e-09
-1.76341e-10
3.36448e-07
5.92275e-10
-3.1882e-10
1.06231e-09
1.17809e-10
3.38206e-07
2.05436e-07
1.78786e-07
3.00175e-08
2.1777e-07
6.23502e-08
-1.40285e-08
2.33646e-07
1.70604e-08
-8.89318e-09
2.49182e-07
-1.68797e-08
-5.50251e-09
2.63284e-07
-2.4868e-08
-7.14198e-09
2.71113e-07
-1.74913e-08
-6.38755e-09
2.7409e-07
-7.37951e-09
-5.40776e-09
2.75025e-07
-1.14097e-09
-4.23233e-09
2.75485e-07
9.00989e-10
-2.72601e-09
2.75936e-07
5.9668e-10
-1.37435e-09
2.76468e-07
-6.9802e-10
-4.17591e-10
2.76918e-07
-1.22035e-09
-3.27132e-11
2.77207e-07
-2.592e-10
-2.0065e-10
2.77483e-07
1.11336e-09
-4.23741e-10
2.77948e-07
1.73576e-09
-3.67095e-10
2.78757e-07
1.49583e-09
-2.37843e-10
2.79837e-07
9.12579e-10
-1.83862e-10
2.81006e-07
4.61523e-10
-2.02218e-10
2.82149e-07
2.91124e-10
-2.53773e-10
2.83252e-07
3.12572e-10
-2.91931e-10
2.84339e-07
4.03226e-10
-3.02846e-10
2.85457e-07
4.84652e-10
-3.04362e-10
2.86599e-07
5.42467e-10
-2.83471e-10
2.87771e-07
5.80896e-10
-2.68621e-10
2.88995e-07
6.01865e-10
-2.89058e-10
2.90213e-07
6.17811e-10
-2.47996e-10
2.91469e-07
6.21665e-10
-2.8232e-10
2.92733e-07
6.28813e-10
-2.76322e-10
2.94015e-07
6.04326e-10
-2.99976e-10
2.95287e-07
5.50204e-10
-2.86876e-10
2.96613e-07
4.39936e-10
-3.19035e-10
2.98027e-07
2.89723e-10
-4.28072e-10
2.99693e-07
-5.02156e-11
-3.48239e-10
3.01888e-07
-6.86034e-10
-9.1724e-10
-2.99085e-09
7.16814e-10
3.05225e-07
1.79694e-07
-9.08496e-10
2.50466e-07
-8.42176e-09
3.14156e-07
-4.66298e-08
3.44444e-07
-4.71672e-08
3.54023e-07
-3.44468e-08
3.57448e-07
-2.0917e-08
3.60756e-07
-1.06873e-08
3.63153e-07
-3.53841e-09
3.65116e-07
-1.06119e-09
3.66256e-07
-5.43802e-10
3.64465e-07
1.09337e-09
3.62174e-07
1.06988e-09
3.62254e-07
-3.39113e-10
3.64708e-07
-1.34068e-09
3.67973e-07
-1.52863e-09
3.70664e-07
-1.19577e-09
3.72366e-07
-7.88716e-10
3.73371e-07
-5.44238e-10
3.74124e-07
-4.61288e-10
3.74883e-07
-4.46566e-10
3.75732e-07
-4.45695e-10
3.76645e-07
-4.28049e-10
3.77627e-07
-4.3994e-10
3.7861e-07
-4.02503e-10
3.7965e-07
-4.37821e-10
3.80726e-07
-4.58328e-10
3.81748e-07
-3.99785e-10
3.82833e-07
-4.56798e-10
3.83958e-07
-5.20024e-10
3.85016e-07
-5.08199e-10
3.8574e-07
-2.84261e-10
3.8641e-07
-3.80012e-10
3.86674e-07
-3.1403e-10
3.86683e-07
-6.94757e-10
-2.80585e-09
3.86498e-07
2.19591e-06
7.10854e-09
-4.13347e-07
-6.59937e-09
2.22286e-06
2.0091e-08
-7.21741e-08
-1.82713e-08
2.22167e-06
2.87634e-08
5.1197e-09
-2.6139e-08
2.21495e-06
3.80994e-08
9.11816e-09
-3.47914e-08
2.20922e-06
4.67487e-08
4.82118e-09
-4.31265e-08
2.2049e-06
5.06277e-08
3.0615e-09
-4.74181e-08
2.20196e-06
4.82759e-08
2.16679e-09
-4.60901e-08
2.20056e-06
4.17951e-08
1.1781e-09
-4.07926e-08
2.20018e-06
3.45527e-08
7.83745e-10
-3.44573e-08
2.20048e-06
2.88586e-08
1.73592e-10
-2.92671e-08
2.20121e-06
2.53882e-08
-3.16442e-10
-2.59831e-08
2.20187e-06
2.38094e-08
7.02113e-11
-2.4425e-08
2.20215e-06
2.3512e-08
7.74012e-10
-2.41058e-08
2.2022e-06
2.40179e-08
9.65069e-10
-2.46017e-08
2.20239e-06
2.50708e-08
5.68907e-10
-2.56646e-08
2.20288e-06
2.65564e-08
-6.05753e-12
-2.71788e-08
2.20365e-06
2.83929e-08
-4.00384e-10
-2.906e-08
2.20458e-06
3.05018e-08
-5.33546e-10
-3.12299e-08
2.20555e-06
3.27875e-08
-4.5245e-10
-3.35905e-08
2.20655e-06
3.51928e-08
-3.01946e-10
-3.609e-08
2.20756e-06
3.76415e-08
-1.28982e-10
-3.86566e-08
2.20862e-06
4.01366e-08
2.5262e-11
-4.13007e-08
2.20978e-06
4.26109e-08
1.15887e-10
-4.39521e-08
2.21108e-06
4.50979e-08
2.02506e-10
-4.66463e-08
2.21256e-06
4.7535e-08
2.35795e-10
-4.93106e-08
2.21423e-06
4.993e-08
2.75792e-10
-5.19556e-08
2.21614e-06
5.22449e-08
2.59128e-10
-5.45334e-08
2.21828e-06
5.44599e-08
3.01731e-10
-5.70328e-08
2.22066e-06
5.65324e-08
2.95241e-10
-5.93971e-08
2.22333e-06
5.8479e-08
2.72497e-10
-6.16542e-08
2.22625e-06
6.0172e-08
2.68658e-10
-6.36639e-08
2.22947e-06
6.18127e-08
2.01016e-10
-6.56193e-08
2.23301e-06
6.2846e-08
9.9108e-11
-6.69908e-08
2.23669e-06
6.42965e-08
1.59778e-10
-6.8663e-08
6.41482e-08
-9.2235e-10
2.24116e-06
-6.88197e-08
2.18377e-06
8.40658e-09
-4.04129e-07
2.21038e-06
2.2449e-08
-7.1826e-08
2.20946e-06
3.0914e-08
4.74849e-09
2.20407e-06
3.94894e-08
9.04409e-09
2.20054e-06
4.74628e-08
4.8079e-09
2.19857e-06
5.09473e-08
2.85858e-09
2.19745e-06
4.83671e-08
1.96719e-09
2.19701e-06
4.16884e-08
1.11538e-09
2.19706e-06
3.42368e-08
6.17293e-10
2.19751e-06
2.83688e-08
9.71121e-11
2.19822e-06
2.4806e-08
-2.653e-10
2.1989e-06
2.32245e-08
-6.19921e-11
2.19929e-06
2.29866e-08
3.81766e-10
2.19948e-06
2.35599e-08
5.50542e-10
2.19969e-06
2.46316e-08
3.52672e-10
2.20012e-06
2.60502e-08
3.28438e-12
2.20083e-06
2.7734e-08
-2.76104e-10
2.20179e-06
2.96253e-08
-4.23346e-10
2.20297e-06
3.16783e-08
-4.36466e-10