/*--------------------------------*- C++ -*----------------------------------*\
  =========                 |
  \\      /  F ield         | OpenFOAM: The Open Source CFD Toolbox
   \\    /   O peration     | Website:  https://openfoam.org
    \\  /    A nd           | Version:  6
     \\/     M anipulation  |
\*---------------------------------------------------------------------------*/
FoamFile
{
    version     2.0;
    format      ascii;
    class       volVectorField;
    location    "1.2";
    object      U;
}
// * * * * * * * * * * * * * * * * * * * * * * * * * * * * * * * * * * * * * //

dimensions      [0 1 -1 0 0 0 0];

internalField   nonuniform List<vector> 
63568
(
(0.101683 0.000209998 -0.000421215)
(0.110275 0.000505971 -4.63435e-05)
(0.109826 0.00069487 8.5998e-06)
(0.108856 0.000909262 3.16592e-06)
(0.108317 0.00109171 4.84338e-07)
(0.107967 0.00115103 7.39282e-07)
(0.107669 0.00107835 8.9714e-07)
(0.107539 0.000937359 6.42548e-07)
(0.107486 0.00080036 5.33575e-07)
(0.107487 0.000708691 2.47712e-07)
(0.107553 0.000669369 -5.32046e-09)
(0.10761 0.000672694 1.28226e-07)
(0.107614 0.000706652 3.65246e-07)
(0.107598 0.000763597 3.72881e-07)
(0.107604 0.000840937 1.98376e-07)
(0.107645 0.000938421 1.11856e-08)
(0.107714 0.00105469 -9.0996e-08)
(0.107795 0.00118763 -1.02278e-07)
(0.10788 0.00133357 -3.04805e-08)
(0.107962 0.00149143 5.6303e-08)
(0.108048 0.00165833 1.64594e-07)
(0.108132 0.00183704 2.67475e-07)
(0.108228 0.00202395 3.31886e-07)
(0.108333 0.00222405 4.28187e-07)
(0.108453 0.00243244 4.81733e-07)
(0.10859 0.00265222 5.58893e-07)
(0.108746 0.00287995 6.00732e-07)
(0.108925 0.00311577 7.31639e-07)
(0.109122 0.00335555 7.71013e-07)
(0.109346 0.00360255 8.58861e-07)
(0.109599 0.00384206 9.51386e-07)
(0.109865 0.00409824 1.02746e-06)
(0.110193 0.00429577 1.00419e-06)
(0.110486 0.00458017 1.29269e-06)
(0.110915 0.00461311 9.71832e-08)
(0.100669 0.00023401 -0.000411377)
(0.109062 0.000548414 -4.59758e-05)
(0.108665 0.000714199 8.39039e-06)
(0.107831 0.000902362 3.14836e-06)
(0.107512 0.00107181 2.00644e-07)
(0.107388 0.00113269 2.03718e-07)
(0.107281 0.00106626 4.15711e-07)
(0.107237 0.000926414 3.62935e-07)
(0.107224 0.000785245 3.2373e-07)
(0.107241 0.000687456 1.4317e-07)
(0.107298 0.000643811 -3.78441e-08)
(0.107353 0.00064592 1.56551e-08)
(0.107374 0.000680401 1.62179e-07)
(0.107374 0.000737369 1.97602e-07)
(0.107382 0.000812025 1.20736e-07)
(0.107411 0.000902424 8.07882e-09)
(0.107468 0.00100725 -9.18902e-08)
(0.107548 0.00112558 -1.76155e-07)
(0.107649 0.0012563 -2.2746e-07)
(0.10776 0.00139913 -2.7667e-07)
(0.107889 0.00155271 -2.87563e-07)
(0.108014 0.00171733 -2.9939e-07)
(0.108163 0.0018908 -2.55966e-07)
(0.108295 0.00207381 -3.25759e-07)
(0.108475 0.00226405 -1.45557e-07)
(0.10861 0.00246102 -3.60635e-07)
(0.108843 0.00266403 -1.66438e-07)
(0.108991 0.00286995 -2.4865e-07)
(0.109273 0.00307938 -2.89343e-07)
(0.109454 0.00328919 -2.27621e-07)
(0.10979 0.00349619 -3.61301e-07)
(0.109989 0.00370681 -2.45745e-07)
(0.110438 0.00389701 -7.27669e-07)
(0.110521 0.00411937 1.67937e-07)
(0.111249 0.00426269 -6.30367e-06)
(0.0995314 0.000287127 -0.000404613)
(0.107786 0.000616154 -4.599e-05)
(0.107338 0.00077521 7.73782e-06)
(0.106263 0.000946189 3.51968e-06)
(0.105502 0.0010937 1.52835e-06)
(0.104921 0.00113252 1.84769e-06)
(0.1045 0.00104864 1.6984e-06)
(0.104324 0.000899547 1.04081e-06)
(0.104297 0.000755407 5.48703e-07)
(0.104352 0.000658833 1.17086e-07)
(0.104454 0.000618084 -1.06509e-07)
(0.104551 0.000623311 1.1489e-08)
(0.104616 0.000660829 1.70789e-07)
(0.104675 0.000719785 1.2274e-07)
(0.104755 0.000794231 -7.96354e-08)
(0.104859 0.000881884 -2.75945e-07)
(0.104977 0.000981921 -3.48366e-07)
(0.10509 0.00109376 -2.97483e-07)
(0.105195 0.00121734 -1.56929e-07)
(0.105288 0.00135222 -3.0642e-08)
(0.105387 0.00149881 8.07355e-08)
(0.105487 0.00165533 1.29574e-07)
(0.105612 0.00182189 1.52707e-07)
(0.105743 0.00199578 1.11589e-07)
(0.105913 0.00217692 1.99766e-07)
(0.106071 0.00236303 2.93363e-08)
(0.106297 0.00255389 2.1204e-07)
(0.106479 0.00274681 7.03975e-08)
(0.106759 0.00294233 1.6522e-07)
(0.106969 0.00313702 1.39686e-07)
(0.107303 0.00333205 7.69117e-08)
(0.107536 0.00352421 1.74292e-07)
(0.107966 0.00372514 -1.34248e-08)
(0.108138 0.00390652 5.48325e-07)
(0.108844 0.00419242 -1.53656e-06)
(0.0982321 0.000313582 -0.000401279)
(0.106266 0.000704127 -4.47211e-05)
(0.105745 0.000935617 8.20514e-06)
(0.104802 0.00118054 3.51375e-06)
(0.104279 0.00134485 9.88418e-07)
(0.103964 0.00132858 1.04619e-06)
(0.103735 0.00115394 8.92699e-07)
(0.103701 0.000924291 4.36205e-07)
(0.103745 0.000732203 2.67006e-07)
(0.103837 0.000616164 -9.57958e-08)
(0.103984 0.000570335 -3.40288e-07)
(0.104112 0.000572317 -1.256e-07)
(0.10418 0.000602841 1.53197e-07)
(0.10422 0.000653136 1.63128e-07)
(0.10427 0.00072257 -9.98953e-09)
(0.104345 0.000812153 -1.91768e-07)
(0.104444 0.000920153 -2.94508e-07)
(0.104557 0.00104162 -3.32946e-07)
(0.104679 0.00117125 -3.12982e-07)
(0.104802 0.00130483 -3.00812e-07)
(0.104935 0.00144191 -2.64122e-07)
(0.105066 0.00158213 -2.36422e-07)
(0.10521 0.00172809 -2.39106e-07)
(0.10536 0.00187929 -2.21905e-07)
(0.105525 0.00203663 -2.03696e-07)
(0.105698 0.0021988 -2.90241e-07)
(0.105899 0.00236418 -2.08383e-07)
(0.106096 0.00253161 -3.0835e-07)
(0.106337 0.00269837 -3.13313e-07)
(0.106566 0.00286396 -2.93332e-07)
(0.106848 0.00302299 -5.0228e-07)
(0.107118 0.00317919 -3.79228e-07)
(0.107473 0.00331454 -5.74564e-07)
(0.107756 0.0034484 -2.41105e-07)
(0.108277 0.003529 -7.76231e-07)
(0.0969192 0.00037062 -0.000387522)
(0.104731 0.000767038 -4.4229e-05)
(0.104329 0.000920211 7.4688e-06)
(0.103571 0.00107615 3.17624e-06)
(0.103302 0.00119289 7.1604e-07)
(0.103232 0.00118081 7.64235e-07)
(0.10322 0.00103732 7.89918e-07)
(0.103293 0.000837817 4.92374e-07)
(0.103408 0.000664778 2.49191e-07)
(0.103539 0.000559653 -3.42711e-08)
(0.103684 0.000523179 -2.26712e-07)
(0.103811 0.000537625 -1.64876e-07)
(0.103894 0.000583478 4.4801e-09)
(0.103943 0.00064689 1.05887e-07)
(0.103983 0.000720596 1.15634e-07)
(0.104036 0.000801753 6.29463e-08)
(0.104115 0.00089008 -2.67706e-08)
(0.104224 0.000986783 -1.45774e-07)
(0.104363 0.00109342 -2.32948e-07)
(0.10452 0.00121099 -3.05229e-07)
(0.104694 0.00133888 -3.06874e-07)
(0.104872 0.00147598 -2.64323e-07)
(0.105055 0.0016198 -2.50922e-07)
(0.105247 0.00176917 -1.49424e-07)
(0.105436 0.00192185 -1.38963e-07)
(0.105646 0.00207706 -1.31699e-07)
(0.105861 0.00223319 -4.08578e-08)
(0.106085 0.00238949 -1.48422e-07)
(0.106341 0.00254371 -1.19326e-08)
(0.106572 0.00269623 -1.46423e-07)
(0.106881 0.00284254 -1.21168e-07)
(0.107099 0.00298822 -1.84537e-07)
(0.107503 0.00311509 -3.39332e-07)
(0.107576 0.00326039 7.32333e-08)
(0.108227 0.00334375 -6.34865e-06)
(0.0953078 0.000451592 -0.000381606)
(0.102886 0.000895963 -4.29219e-05)
(0.102301 0.00108205 7.83265e-06)
(0.101291 0.00125677 3.98011e-06)
(0.100683 0.00134619 1.81262e-06)
(0.100319 0.00126839 1.772e-06)
(0.100098 0.00105404 1.31091e-06)
(0.100103 0.000807215 5.37905e-07)
(0.100198 0.000614878 1.2031e-07)
(0.100341 0.000508305 -3.79151e-07)
(0.100525 0.000475353 -6.0722e-07)
(0.100683 0.000490784 -3.49178e-07)
(0.100785 0.00053384 -5.71194e-08)
(0.10086 0.000592478 -1.82279e-08)
(0.100941 0.000661826 -1.40338e-07)
(0.101042 0.000740579 -2.70511e-07)
(0.101162 0.000828101 -3.41849e-07)
(0.101294 0.000923651 -3.75533e-07)
(0.101437 0.00102632 -3.65643e-07)
(0.101584 0.00113597 -3.64739e-07)
(0.101743 0.00125157 -3.24951e-07)
(0.101901 0.00137352 -3.13109e-07)
(0.102078 0.00149976 -2.80531e-07)
(0.10225 0.00163065 -3.2465e-07)
(0.102456 0.00176412 -2.24651e-07)
(0.102643 0.0018991 -4.18626e-07)
(0.102892 0.00203537 -2.76003e-07)
(0.103093 0.00216978 -3.95588e-07)
(0.103379 0.00230283 -4.51323e-07)
(0.103606 0.00243183 -4.65501e-07)
(0.103933 0.00255559 -5.54571e-07)
(0.104169 0.00267449 -7.02788e-07)
(0.104605 0.00278107 -7.92022e-07)
(0.104762 0.00288838 -4.60065e-07)
(0.105508 0.0029762 -3.81426e-06)
(0.0936103 0.000527275 -0.000369718)
(0.100965 0.000987008 -4.20362e-05)
(0.100483 0.00112513 7.16232e-06)
(0.0996274 0.00124438 3.71676e-06)
(0.0991811 0.00128797 1.78666e-06)
(0.0989767 0.00118282 1.72997e-06)
(0.0989217 0.000957725 1.18879e-06)
(0.0990679 0.000712047 3.71684e-07)
(0.0992785 0.000528812 -6.46941e-08)
(0.0995027 0.000434441 -4.796e-07)
(0.0997293 0.000414108 -6.15976e-07)
(0.0999062 0.000441394 -3.35245e-07)
(0.100016 0.000494377 -4.65292e-08)
(0.100093 0.000559462 -6.2831e-09)
(0.100174 0.00062938 -1.29578e-07)
(0.100276 0.000700946 -2.69636e-07)
(0.100399 0.000774532 -3.53686e-07)
(0.100537 0.000853121 -3.94405e-07)
(0.100689 0.000940213 -3.85783e-07)
(0.100846 0.0010374 -3.84915e-07)
(0.101016 0.00114424 -3.40574e-07)
(0.101184 0.0012581 -3.33093e-07)
(0.101373 0.0013772 -2.7672e-07)
(0.10155 0.00149863 -3.41231e-07)
(0.101766 0.0016219 -1.75666e-07)
(0.101945 0.00174502 -4.23923e-07)
(0.102204 0.00186777 -1.96875e-07)
(0.102385 0.00198839 -3.50901e-07)
(0.102676 0.00210662 -3.81992e-07)
(0.102874 0.00222041 -3.77323e-07)
(0.103193 0.00232932 -4.41075e-07)
(0.103376 0.00243279 -6.18905e-07)
(0.103783 0.00252716 -6.66426e-07)
(0.103802 0.00261652 -3.35643e-07)
(0.104483 0.00270054 -7.7164e-06)
(0.0916801 0.000661501 -0.000357478)
(0.0986931 0.00116211 -4.03121e-05)
(0.0980262 0.00131159 7.6425e-06)
(0.0968836 0.00142123 4.93388e-06)
(0.0961021 0.00140622 3.18848e-06)
(0.0956289 0.00121363 2.73829e-06)
(0.095415 0.000912075 1.58085e-06)
(0.0955033 0.0006273 2.94031e-07)
(0.0957023 0.00043966 -3.8142e-07)
(0.0959406 0.000358355 -8.97782e-07)
(0.0961872 0.000352328 -9.72152e-07)
(0.0963835 0.000387156 -6.09523e-07)
(0.0965196 0.000440142 -3.10677e-07)
(0.0966311 0.000500823 -2.81701e-07)
(0.096749 0.000566255 -3.81334e-07)
(0.0968808 0.00063602 -4.57032e-07)
(0.0970222 0.000709997 -4.65602e-07)
(0.0971668 0.000788197 -4.43142e-07)
(0.0973153 0.000871231 -3.9101e-07)
(0.0974636 0.000959446 -3.68609e-07)
(0.097622 0.00105344 -3.22623e-07)
(0.0977809 0.00115187 -3.22735e-07)
(0.0979581 0.00125496 -3.25221e-07)
(0.098138 0.00135995 -3.54712e-07)
(0.0983405 0.00146715 -3.47189e-07)
(0.0985413 0.00157421 -4.75994e-07)
(0.0987776 0.00168041 -4.0922e-07)
(0.0989932 0.00178496 -5.54568e-07)
(0.0992633 0.00188606 -5.1195e-07)
(0.0994898 0.00198367 -7.34913e-07)
(0.0998084 0.00207604 -6.58054e-07)
(0.100025 0.00216379 -9.19984e-07)
(0.100449 0.0022442 -1.01791e-06)
(0.10058 0.00231909 -8.29613e-07)
(0.101311 0.00239047 -4.49655e-06)
(0.0896021 0.000797522 -0.000346435)
(0.0963568 0.00129565 -3.88152e-05)
(0.0957886 0.00140686 7.18785e-06)
(0.0948383 0.0014704 4.68474e-06)
(0.0942786 0.0013982 3.03125e-06)
(0.0940465 0.00115303 2.46764e-06)
(0.0940605 0.000816793 1.16744e-06)
(0.0943422 0.000521946 -1.13675e-07)
(0.0946724 0.000343617 -6.41604e-07)
(0.0949881 0.000278966 -1.0286e-06)
(0.0952745 0.000288356 -9.7938e-07)
(0.0954799 0.000334426 -5.04385e-07)
(0.095605 0.000394732 -1.68642e-07)
(0.0957005 0.000459128 -1.78412e-07)
(0.0958073 0.000523331 -3.46531e-07)
(0.0959362 0.000585751 -4.86947e-07)
(0.0960819 0.000647707 -5.39376e-07)
(0.0962365 0.000712806 -5.38675e-07)
(0.0963984 0.000784628 -4.9254e-07)
(0.0965621 0.000864371 -4.67983e-07)
(0.0967356 0.000951106 -4.1324e-07)
(0.0969084 0.00104235 -4.02868e-07)
(0.0970956 0.00113629 -3.92862e-07)
(0.0972837 0.00123128 -3.97781e-07)
(0.0974876 0.00132628 -3.95597e-07)
(0.0976917 0.00142089 -4.75937e-07)
(0.0979195 0.00151394 -4.47467e-07)
(0.0981353 0.00160449 -5.34758e-07)
(0.0983886 0.00169212 -5.07749e-07)
(0.0986066 0.00177513 -7.64108e-07)
(0.0989052 0.00185279 -5.28426e-07)
(0.0990801 0.0019245 -1.00713e-06)
(0.0994811 0.00198819 -7.8945e-07)
(0.0994729 0.00204435 -7.68519e-07)
(0.10016 0.00209668 -8.39508e-06)
(0.0875368 0.000994158 -0.000330215)
(0.0938542 0.00148756 -3.6803e-05)
(0.0930771 0.00158121 7.89546e-06)
(0.0917797 0.00160027 6.32851e-06)
(0.0908715 0.00144157 4.59427e-06)
(0.0904034 0.0011046 3.24881e-06)
(0.0903187 0.000710068 1.19743e-06)
(0.0905679 0.0004032 -5.06853e-07)
(0.0908993 0.000243271 -1.21234e-06)
(0.0912233 0.000204707 -1.50595e-06)
(0.0915067 0.000233317 -1.28776e-06)
(0.0917151 0.000287645 -7.84021e-07)
(0.0918652 0.000347182 -4.93458e-07)
(0.0920013 0.000406449 -5.01354e-07)
(0.0921489 0.000466227 -5.95098e-07)
(0.0923059 0.000527504 -6.17262e-07)
(0.0924619 0.000590307 -5.48773e-07)
(0.0926103 0.000654778 -4.52784e-07)
(0.092755 0.000721759 -3.55914e-07)
(0.0928978 0.000792147 -3.24763e-07)
(0.0930523 0.000866472 -2.95877e-07)
(0.093211 0.0009443 -3.35904e-07)
(0.093392 0.00102507 -3.65504e-07)
(0.0935755 0.00110758 -4.304e-07)
(0.0937858 0.00119081 -4.19711e-07)
(0.0939864 0.00127369 -6.07969e-07)
(0.0942326 0.00135539 -4.61564e-07)
(0.0944376 0.00143409 -6.95169e-07)
(0.0947172 0.00151052 -6.37688e-07)
(0.094929 0.00158213 -7.87339e-07)
(0.095243 0.00164972 -8.29867e-07)
(0.0954453 0.00171253 -1.06557e-06)
(0.095856 0.00176998 -1.01336e-06)
(0.0959517 0.0018221 -1.16989e-06)
(0.0966854 0.00187456 -5.11371e-06)
(0.0851172 0.00121381 -0.00032066)
(0.0911298 0.00166045 -3.45384e-05)
(0.0904299 0.00171572 7.98862e-06)
(0.089325 0.00167598 6.41047e-06)
(0.0886776 0.00143554 4.43324e-06)
(0.088524 0.00102772 2.72866e-06)
(0.0887269 0.000595881 4.49114e-07)
(0.0892156 0.000289358 -1.12814e-06)
(0.0896824 0.000151446 -1.49044e-06)
(0.0900748 0.00013695 -1.62425e-06)
(0.0903918 0.000181527 -1.25179e-06)
(0.0905981 0.000242965 -5.84967e-07)
(0.0907228 0.00030413 -2.71106e-07)
(0.0908319 0.000362341 -3.72885e-07)
(0.0909624 0.0004188 -5.77926e-07)
(0.0911144 0.00047423 -6.80287e-07)
(0.0912757 0.000529545 -6.57301e-07)
(0.0914371 0.000586523 -5.80045e-07)
(0.0915988 0.000646858 -4.83448e-07)
(0.0917598 0.000710995 -4.41342e-07)
(0.0919303 0.000778457 -3.95078e-07)
(0.0921017 0.00084799 -4.17499e-07)
(0.0922905 0.000919188 -4.28525e-07)
(0.0924787 0.000990851 -4.71241e-07)
(0.092687 0.00106292 -4.66312e-07)
(0.0928881 0.00113436 -6.06675e-07)
(0.0931219 0.00120429 -5.19673e-07)
(0.0933281 0.00127204 -6.64312e-07)
(0.0935846 0.00133651 -6.83225e-07)
(0.0937966 0.00139688 -8.08011e-07)
(0.0940832 0.00145283 -7.42188e-07)
(0.0942606 0.00150276 -1.17247e-06)
(0.0946462 0.00154778 -7.63815e-07)
(0.0946258 0.00158356 -1.13209e-06)
(0.0953216 0.00162305 -8.77783e-06)
(0.0826815 0.00150791 -0.000299191)
(0.0880949 0.00186382 -3.18257e-05)
(0.0871673 0.00186834 9.17337e-06)
(0.0856739 0.00174134 8.56846e-06)
(0.084706 0.00138574 5.96068e-06)
(0.0843903 0.000890594 3.01855e-06)
(0.0845682 0.000430772 -3.99602e-08)
(0.0850495 0.000147303 -1.85516e-06)
(0.0855225 5.20109e-05 -2.21119e-06)
(0.0859079 7.31409e-05 -2.04642e-06)
(0.0861993 0.000136913 -1.45964e-06)
(0.086398 0.00020362 -8.34609e-07)
(0.0865488 0.000261741 -6.12904e-07)
(0.0867027 0.000314115 -7.13187e-07)
(0.0868756 0.000366224 -8.19258e-07)
(0.0870526 0.00042019 -7.64284e-07)
(0.0872159 0.00047508 -5.79114e-07)
(0.0873599 0.000529561 -3.86193e-07)
(0.0874942 0.000583449 -2.52002e-07)
(0.0876278 0.000637609 -2.39384e-07)
(0.087777 0.000693317 -2.59377e-07)
(0.0879359 0.000751149 -3.5758e-07)
(0.0881196 0.000811525 -4.24902e-07)
(0.0883079 0.000873326 -5.05456e-07)
(0.0885201 0.00093612 -5.27159e-07)
(0.0887256 0.000998409 -6.91034e-07)
(0.0889684 0.00105919 -5.5134e-07)
(0.0891739 0.00111752 -8.15072e-07)
(0.0894493 0.00117304 -6.90779e-07)
(0.089652 0.001224 -9.4825e-07)
(0.0899653 0.00127222 -8.65807e-07)
(0.0901468 0.00131461 -1.20157e-06)
(0.0905563 0.00135573 -1.09792e-06)
(0.0906264 0.00138832 -1.35119e-06)
(0.0913545 0.00143246 -5.37565e-06)
(0.0796844 0.00187749 -0.000288111)
(0.084649 0.00209163 -2.83489e-05)
(0.0838079 0.00204075 9.82782e-06)
(0.0825714 0.00181308 8.66993e-06)
(0.0820221 0.00133945 5.09453e-06)
(0.0821985 0.000765779 1.57525e-06)
(0.082778 0.000286331 -1.46237e-06)
(0.0835457 2.83077e-05 -2.72747e-06)
(0.0841419 -2.76297e-05 -2.44942e-06)
(0.0845744 2.31302e-05 -2.07277e-06)
(0.0848831 9.95948e-05 -1.33244e-06)
(0.0850671 0.000166369 -5.82731e-07)
(0.0851831 0.000219157 -3.78688e-07)
(0.0853001 0.000265986 -5.57109e-07)
(0.0854432 0.000314281 -7.29979e-07)
(0.0856035 0.00036586 -7.45752e-07)
(0.0857672 0.000418649 -6.48071e-07)
(0.0859272 0.000470223 -5.33491e-07)
(0.086087 0.00051958 -4.40642e-07)
(0.086248 0.000567259 -4.25893e-07)
(0.0864202 0.000614685 -4.15754e-07)
(0.0865958 0.000662951 -4.74663e-07)
(0.0867886 0.000713109 -5.05355e-07)
(0.0869811 0.000764435 -5.55697e-07)
(0.0871908 0.000816991 -5.74839e-07)
(0.0873947 0.000869082 -7.0025e-07)
(0.0876256 0.0009199 -6.13173e-07)
(0.0878311 0.00096866 -7.8799e-07)
(0.0880834 0.0010142 -7.87344e-07)
(0.0882918 0.00105584 -9.08357e-07)
(0.0885698 0.00109389 -8.95776e-07)
(0.0887483 0.00112587 -1.25601e-06)
(0.0891182 0.00115538 -8.33378e-07)
(0.0891039 0.00117425 -1.38355e-06)
(0.0897854 0.00120237 -8.87676e-06)
(0.0766205 0.00230591 -0.000262735)
(0.080768 0.00225859 -2.40817e-05)
(0.0796851 0.00209708 1.20563e-05)
(0.0780849 0.0017219 1.12244e-05)
(0.0773488 0.0011255 6.01594e-06)
(0.0775096 0.000511653 9.68809e-07)
(0.0781402 6.99372e-05 -2.57262e-06)
(0.0789128 -0.000115526 -3.66251e-06)
(0.0794884 -0.000106612 -3.08549e-06)
(0.0798806 -1.92796e-05 -2.32698e-06)
(0.0801431 6.93506e-05 -1.39719e-06)
(0.0803108 0.000136903 -7.29911e-07)
(0.0804502 0.000187277 -6.66234e-07)
(0.0806117 0.000230433 -8.88741e-07)
(0.0807963 0.000273534 -9.69029e-07)
(0.0809772 0.000318598 -7.89565e-07)
(0.0811347 0.000364063 -4.88567e-07)
(0.0812695 0.000407695 -2.54171e-07)
(0.0813971 0.000448434 -1.58456e-07)
(0.081531 0.000487171 -2.1881e-07)
(0.0816853 0.000525905 -3.07695e-07)
(0.0818528 0.000566232 -4.52152e-07)
(0.0820444 0.000609098 -5.29007e-07)
(0.0822395 0.00065357 -6.05136e-07)
(0.0824542 0.000699182 -6.38447e-07)
(0.0826638 0.000744154 -7.62686e-07)
(0.082902 0.000787444 -6.35914e-07)
(0.0831086 0.000828641 -9.12597e-07)
(0.0833776 0.000866529 -7.49326e-07)
(0.0835752 0.000900315 -1.0554e-06)
(0.0838823 0.000931941 -9.28907e-07)
(0.0840539 0.000957067 -1.28474e-06)
(0.0844538 0.00098361 -1.14357e-06)
(0.0845123 0.00100069 -1.52012e-06)
(0.0852252 0.00103612 -5.3141e-06)
(0.0728482 0.00290059 -0.000244997)
(0.0762597 0.00253818 -1.8959e-05)
(0.0753549 0.00227688 1.29429e-05)
(0.074187 0.0017311 1.04574e-05)
(0.074162 0.000993003 3.35273e-06)
(0.0750493 0.000327193 -2.00156e-06)
(0.0761839 -8.8507e-05 -4.66283e-06)
(0.0772308 -0.000215292 -4.54873e-06)
(0.0778873 -0.000155512 -3.13608e-06)
(0.0782902 -4.2861e-05 -2.14472e-06)
(0.0785478 4.74574e-05 -1.18577e-06)
(0.0786988 0.000104149 -5.62404e-07)
(0.0788063 0.000141712 -5.03078e-07)
(0.0789185 0.000177098 -6.21063e-07)
(0.0790473 0.00021969 -6.3297e-07)
(0.079189 0.000268763 -5.67054e-07)
(0.079341 0.000317669 -5.13525e-07)
(0.0795019 0.000360592 -5.01666e-07)
(0.0796718 0.000395784 -5.01973e-07)
(0.0798476 0.000425683 -5.36425e-07)
(0.0800337 0.000454183 -5.40089e-07)
(0.080221 0.00048425 -5.97354e-07)
(0.0804215 0.00051726 -6.10546e-07)
(0.080619 0.000552506 -6.49816e-07)
(0.0808301 0.000589165 -6.80452e-07)
(0.0810367 0.000625471 -7.72563e-07)
(0.0812633 0.00066036 -6.99883e-07)
(0.0814689 0.000693323 -8.96734e-07)
(0.0817168 0.000722973 -8.53725e-07)
(0.0819203 0.000748795 -1.01649e-06)
(0.082194 0.000771575 -1.00523e-06)
(0.08237 0.000788012 -1.30662e-06)
(0.0827298 0.000802403 -9.37656e-07)
(0.0827258 0.000806903 -1.58054e-06)
(0.0833979 0.000817772 -8.5996e-06)
(0.06866 0.00349626 -0.000217776)
(0.0709784 0.00256599 -1.1544e-05)
(0.0699042 0.00209237 1.67311e-05)
(0.0685659 0.0013423 1.26041e-05)
(0.0686397 0.000540342 2.69716e-06)
(0.0696959 -4.82369e-05 -3.74444e-06)
(0.0709144 -0.000325488 -6.09162e-06)
(0.0719257 -0.000329523 -5.21956e-06)
(0.0724883 -0.000195474 -3.38768e-06)
(0.0728128 -5.90228e-05 -2.17938e-06)
(0.073012 2.92911e-05 -1.04877e-06)
(0.0731361 8.54896e-05 -5.13661e-07)
(0.0732618 0.000129952 -7.24404e-07)
(0.0734231 0.000168019 -1.02024e-06)
(0.0735988 0.000199427 -9.48078e-07)
(0.0737585 0.000226452 -5.99282e-07)
(0.0738959 0.000252606 -2.71117e-07)
(0.0740238 0.000279587 -1.4495e-07)
(0.0741602 0.000306482 -1.98974e-07)
(0.0743132 0.000332992 -3.6075e-07)
(0.0744874 0.000359674 -4.82213e-07)
(0.0746723 0.000387735 -6.1338e-07)
(0.0748746 0.000417611 -6.45229e-07)
(0.0750761 0.000448852 -6.94688e-07)
(0.0752922 0.000480214 -7.24223e-07)
(0.0755048 0.000510923 -7.91332e-07)
(0.0757357 0.00053946 -7.17655e-07)
(0.0759458 0.000566179 -9.65854e-07)
(0.0762038 0.000589186 -7.84946e-07)
(0.0764002 0.000608517 -1.15582e-06)
(0.0766982 0.0006258 -9.33458e-07)
(0.076861 0.000635261 -1.37795e-06)
(0.077253 0.000648115 -1.15593e-06)
(0.0772982 0.000648647 -1.58517e-06)
(0.0779924 0.000670217 -4.35334e-06)
(0.0637801 0.00438338 -0.0001839)
(0.0648505 0.00284348 -4.43943e-06)
(0.0642838 0.00218311 1.61491e-05)
(0.0638074 0.00120239 8.45797e-06)
(0.0650413 0.000301849 -3.35009e-06)
(0.0670165 -0.000258263 -8.35178e-06)
(0.0687131 -0.000446033 -8.29002e-06)
(0.0698664 -0.000369702 -5.69372e-06)
(0.0704273 -0.000195119 -3.03149e-06)
(0.0707039 -5.4456e-05 -1.64564e-06)
(0.0708828 1.72575e-05 -9.19738e-07)
(0.0710215 4.92453e-05 -7.06387e-07)
(0.071129 7.3285e-05 -5.83471e-07)
(0.0711992 0.000105227 -2.41312e-07)
(0.0712534 0.000146356 2.26258e-08)
(0.0713368 0.000188954 -9.04065e-08)
(0.0714783 0.000224167 -4.55909e-07)
(0.0716708 0.000248872 -7.70576e-07)
(0.0718884 0.000265 -8.72008e-07)
(0.0721073 0.000278242 -8.39335e-07)
(0.0723208 0.000292613 -7.2697e-07)
(0.0725237 0.000310852 -7.01408e-07)
(0.0727303 0.000331873 -6.57548e-07)
(0.0729305 0.00035589 -6.85623e-07)
(0.0731411 0.000379022 -7.30052e-07)
(0.0733508 0.000402608 -7.64004e-07)
(0.07357 0.000424179 -7.66665e-07)
(0.0737813 0.000443402 -9.05767e-07)
(0.0740189 0.000459948 -8.64878e-07)
(0.0742238 0.000473157 -1.10881e-06)
(0.0744908 0.000481793 -9.23858e-07)
(0.0746605 0.000485621 -1.48314e-06)
(0.0750254 0.000483345 -9.36085e-07)
(0.0750126 0.000479181 -1.75247e-06)
(0.0757204 0.000417705 -8.63115e-06)
(0.0574403 0.00514779 -0.000155568)
(0.0570827 0.00253611 8.75094e-06)
(0.0568484 0.00152892 2.05835e-05)
(0.0567361 0.00037204 8.54982e-06)
(0.0582418 -0.000404238 -5.48478e-06)
(0.0601344 -0.000690798 -9.8752e-06)
(0.0615331 -0.000628823 -8.66105e-06)
(0.0624141 -0.000407567 -5.28126e-06)
(0.0627669 -0.000178477 -2.66614e-06)
(0.0629697 -4.80574e-05 -1.48781e-06)
(0.0630881 -7.97038e-07 -4.54586e-07)
(0.0631781 4.11051e-05 -4.7587e-07)
(0.0633224 0.000100619 -1.15413e-06)
(0.0635025 0.000147263 -1.24815e-06)
(0.0636555 0.000157632 -6.13358e-07)
(0.0637641 0.000141817 6.84108e-08)
(0.0638598 0.000125452 2.95569e-07)
(0.0639794 0.000125343 1.00954e-07)
(0.0641364 0.000140641 -2.22416e-07)
(0.0643222 0.0001647 -4.73063e-07)
(0.0645249 0.000189639 -5.65217e-07)
(0.0647307 0.000213811 -6.04701e-07)
(0.0649444 0.00023567 -5.7606e-07)
(0.0651523 0.000257222 -5.77016e-07)
(0.0653734 0.000275144 -6.08046e-07)
(0.0655896 0.00029447 -6.26822e-07)
(0.0658191 0.000309796 -5.96604e-07)
(0.0660363 0.000323424 -8.30793e-07)
(0.0662877 0.000334497 -5.60736e-07)
(0.0664835 0.000342729 -1.09611e-06)
(0.066784 0.000346265 -6.10372e-07)
(0.0669223 0.000341826 -1.54561e-06)
(0.0673531 0.000349824 -5.50922e-07)
(0.067259 0.00030289 -1.77076e-06)
(0.0681573 0.000359485 -1.07897e-05)
(0.0495994 0.00615133 -9.74389e-05)
(0.0473723 0.0025486 1.42764e-05)
(0.0473048 0.00122448 1.8102e-05)
(0.0464572 1.82012e-06 6.50726e-06)
(0.0476029 -0.00055796 -7.16286e-06)
(0.0493159 -0.000624219 -1.01158e-05)
(0.0505352 -0.000469432 -7.86422e-06)
(0.0511056 -0.00027052 -4.4245e-06)
(0.0513061 -0.000109217 -1.95309e-06)
(0.0514135 -3.08045e-05 -3.82897e-07)
(0.051413 -1.48406e-05 1.35242e-07)
(0.0515566 -6.79544e-06 -1.34065e-06)
(0.0519452 2.27985e-05 -2.74023e-06)
(0.0523757 6.6237e-05 -2.28291e-06)
(0.0526222 0.000102598 -5.36623e-07)
(0.0526421 0.000120018 9.30225e-07)
(0.0525575 0.000120654 1.29526e-06)
(0.0525075 0.000115155 8.16229e-07)
(0.0525553 0.000111773 1.158e-07)
(0.0526872 0.000115352 -3.92947e-07)
(0.0528716 0.000124176 -6.24861e-07)
(0.0530704 0.000136915 -7.45738e-07)
(0.053287 0.000150453 -7.39947e-07)
(0.0534932 0.000163938 -7.63167e-07)
(0.0537191 0.000175102 -8.74341e-07)
(0.0539384 0.000187483 -7.93317e-07)
(0.0541678 0.000195546 -9.0901e-07)
(0.054393 0.000204669 -1.04141e-06)
(0.0546375 0.000209315 -9.18683e-07)
(0.0548468 0.0002119 -1.23072e-06)
(0.0551249 0.000212163 -1.05909e-06)
(0.0552974 0.00019948 -1.78735e-06)
(0.0556733 0.000221242 -1.24327e-06)
(0.0557129 0.000142283 -1.97173e-06)
(0.0563473 0.000352354 4.78596e-07)
(0.0368211 0.00652649 -2.80334e-05)
(0.0353727 0.00184587 -5.68181e-05)
(0.0393127 0.00056138 -2.87239e-05)
(0.0416022 -0.000574303 -1.04902e-05)
(0.0445633 -0.000930589 -4.21524e-06)
(0.0465056 -0.000749978 -1.39244e-06)
(0.0473077 -0.000397606 -2.1284e-06)
(0.0475427 -0.00013124 -3.16747e-06)
(0.0476295 -1.05034e-05 -2.99644e-06)
(0.047703 8.40525e-06 -1.91277e-06)
(0.0477873 -4.01309e-05 -5.70019e-07)
(0.0478865 -7.73504e-05 8.61677e-08)
(0.0479441 -4.14406e-05 -1.7921e-07)
(0.0479879 4.36944e-05 -7.09741e-07)
(0.0480397 0.000113153 -9.65995e-07)
(0.0481475 0.000131129 -1.06419e-06)
(0.0483185 0.00010659 -1.03072e-06)
(0.0485203 7.10703e-05 -9.32456e-07)
(0.0487235 4.82335e-05 -8.84148e-07)
(0.0489158 4.30904e-05 -8.96468e-07)
(0.0491057 4.93349e-05 -9.34088e-07)
(0.0492917 5.91332e-05 -1.01193e-06)
(0.0494926 6.84569e-05 -1.02841e-06)
(0.049686 7.61478e-05 -1.08442e-06)
(0.0498996 8.20062e-05 -1.21346e-06)
(0.0501074 8.76823e-05 -1.13184e-06)
(0.0503234 9.10963e-05 -1.34648e-06)
(0.0505391 9.58057e-05 -1.36616e-06)
(0.0507648 9.62697e-05 -1.5129e-06)
(0.0509767 9.43796e-05 -1.49692e-06)
(0.051214 8.6688e-05 -1.73174e-06)
(0.0514208 7.23173e-05 -2.14206e-06)
(0.0517315 4.96035e-05 -1.84733e-06)
(0.051947 -2.94164e-05 -4.0742e-06)
(0.0525915 -0.000193387 3.00159e-06)
(0.0286701 0.00608461 -5.26007e-05)
(0.0368521 0.00292493 -2.80214e-05)
(0.0524469 0.000837469 -0.000104456)
(0.0605627 -0.00067605 -0.000107337)
(0.0633351 -0.00104933 -7.83329e-05)
(0.0640532 -0.000705345 -4.64777e-05)
(0.0645823 -0.000245866 -2.2841e-05)
(0.0652393 1.77909e-05 -6.8659e-06)
(0.0654499 8.10988e-05 -2.09982e-06)
(0.0659415 3.90489e-05 -1.58945e-06)
(0.0658722 -3.40982e-05 2.82546e-06)
(0.0653047 -5.05619e-05 3.06668e-06)
(0.0650423 1.2779e-05 -6.10883e-07)
(0.0653247 8.02107e-05 -3.52034e-06)
(0.0659206 8.87824e-05 -4.50533e-06)
(0.0664996 5.08682e-05 -4.05133e-06)
(0.0668924 9.99427e-06 -3.12655e-06)
(0.0671146 -8.7319e-06 -2.37495e-06)
(0.067256 -7.13008e-06 -1.96084e-06)
(0.0673855 1.96421e-06 -1.77702e-06)
(0.0675292 1.01324e-05 -1.73193e-06)
(0.0676905 1.47608e-05 -1.69819e-06)
(0.0678579 1.7239e-05 -1.83009e-06)
(0.0680429 1.90605e-05 -1.7461e-06)
(0.0682133 2.02357e-05 -1.98717e-06)
(0.0684148 2.12181e-05 -2.17416e-06)
(0.0686028 2.24128e-05 -1.94008e-06)
(0.0687801 2.32899e-05 -2.32793e-06)
(0.0689961 2.23516e-05 -2.76107e-06)
(0.0691805 1.81663e-05 -2.8215e-06)
(0.069384 7.94522e-06 -1.64061e-06)
(0.0694303 -4.91971e-06 -2.33641e-06)
(0.0696463 -4.33994e-05 -2.15197e-06)
(0.0694759 -9.4705e-05 -4.75109e-06)
(0.0697637 -0.000379923 -1.86952e-05)
(0.183377 0.000204971 -0.00049843)
(0.187155 0.000605247 -8.99041e-05)
(0.18771 0.000923069 1.05993e-05)
(0.18712 0.00129241 1.39442e-05)
(0.186554 0.00165511 7.12528e-06)
(0.186147 0.00185587 4.62243e-06)
(0.185825 0.00182787 3.29911e-06)
(0.185649 0.00163689 1.83576e-06)
(0.185586 0.00140413 1.25029e-06)
(0.185584 0.00122038 1.58e-07)
(0.185636 0.00111765 -5.61115e-07)
(0.185707 0.00108865 3.43603e-07)
(0.185747 0.00111378 1.56835e-06)
(0.185754 0.00117755 1.65376e-06)
(0.185757 0.00127315 7.07641e-07)
(0.185785 0.00139951 -4.24588e-07)
(0.18584 0.00155553 -1.13427e-06)
(0.185914 0.00173872 -1.33802e-06)
(0.185996 0.00194386 -1.14853e-06)
(0.186079 0.00216792 -8.62484e-07)
(0.186164 0.00240629 -5.43397e-07)
(0.186249 0.00266093 -2.89707e-07)
(0.186342 0.00292817 -1.86622e-07)
(0.186446 0.003213 -8.16612e-08)
(0.186562 0.00351151 -1.29516e-07)
(0.186694 0.00382598 -1.5643e-07)
(0.186844 0.00415375 -3.60357e-07)
(0.187015 0.00449394 -3.88886e-07)
(0.187205 0.00484205 -6.22867e-07)
(0.187416 0.00520061 -9.08927e-07)
(0.187656 0.00555414 -1.22534e-06)
(0.187905 0.00592621 -1.79233e-06)
(0.188206 0.00624226 -2.47526e-06)
(0.188486 0.00663572 -2.73811e-06)
(0.188863 0.00682127 -6.7912e-06)
(0.182366 0.000229808 -0.000484202)
(0.186115 0.000662663 -8.86774e-05)
(0.18665 0.0009609 9.54367e-06)
(0.18612 0.0012932 1.27552e-05)
(0.185716 0.00163164 5.94139e-06)
(0.185515 0.00183145 3.40127e-06)
(0.185386 0.00181448 2.4694e-06)
(0.185324 0.00163005 1.50651e-06)
(0.185312 0.00139401 9.26634e-07)
(0.185332 0.00120082 1.22242e-07)
(0.185386 0.00108908 -3.90041e-07)
(0.185453 0.00105547 9.98292e-08)
(0.1855 0.00108012 8.77112e-07)
(0.18552 0.00114471 1.03354e-06)
(0.185531 0.00123875 5.20596e-07)
(0.185555 0.00135766 -2.24779e-07)
(0.185603 0.00149914 -8.26812e-07)
(0.185674 0.00166169 -1.19797e-06)
(0.185767 0.00184366 -1.32507e-06)
(0.185872 0.00204433 -1.37703e-06)
(0.185994 0.00226186 -1.31312e-06)
(0.186118 0.0024962 -1.31084e-06)
(0.18626 0.0027446 -1.17289e-06)
(0.186392 0.00300748 -1.4457e-06)
(0.186562 0.00328184 -1.0831e-06)
(0.186704 0.00356735 -1.75997e-06)
(0.186907 0.00386169 -1.51023e-06)
(0.187078 0.00416328 -2.00499e-06)
(0.18731 0.00446921 -2.17749e-06)
(0.187521 0.00477945 -2.75958e-06)
(0.187795 0.00508568 -2.87698e-06)
(0.188029 0.00539864 -4.33519e-06)
(0.188374 0.00568768 -3.95526e-06)
(0.188548 0.00600987 -4.76736e-06)
(0.189094 0.00625515 -1.93929e-05)
(0.181178 0.000283415 -0.000476175)
(0.184937 0.000753444 -8.77963e-05)
(0.185429 0.00105663 9.02002e-06)
(0.18469 0.0013758 1.367e-05)
(0.183884 0.00169212 8.6624e-06)
(0.183223 0.00186575 6.69192e-06)
(0.182736 0.0018228 5.02131e-06)
(0.182492 0.00161852 2.84183e-06)
(0.182437 0.00137045 1.32965e-06)
(0.182486 0.00117272 4.71427e-09)
(0.182591 0.00106145 -6.79333e-07)
(0.182705 0.00103068 -2.08935e-07)
(0.182796 0.00105909 4.98709e-07)
(0.182868 0.00112669 4.8241e-07)
(0.182948 0.00122119 -2.056e-07)
(0.18305 0.00133716 -9.80218e-07)
(0.183168 0.0014726 -1.37864e-06)