/*--------------------------------*- C++ -*----------------------------------*\
  =========                 |
  \\      /  F ield         | OpenFOAM: The Open Source CFD Toolbox
   \\    /   O peration     | Website:  https://openfoam.org
    \\  /    A nd           | Version:  6
     \\/     M anipulation  |
\*---------------------------------------------------------------------------*/
FoamFile
{
    version     2.0;
    format      ascii;
    class       volVectorField;
    location    "7";
    object      wallShearStress;
}
// * * * * * * * * * * * * * * * * * * * * * * * * * * * * * * * * * * * * * //

dimensions      [0 2 -2 0 0 0 0];

internalField   uniform (0 0 0);

boundaryField
{
    inlet
    {
        type            calculated;
        value           uniform (0 0 0);
    }
    outlet
    {
        type            calculated;
        value           uniform (0 0 0);
    }
    roughCylinder
    {
        type            calculated;
        value           nonuniform List<vector> 
5120
(
(-0.000535734 -0.000765873 -0.000401844)
(-0.000401315 -0.000580213 -3.912e-05)
(-0.000357279 -0.000555532 3.0481e-06)
(-0.000396796 -0.000619858 5.18798e-05)
(-0.000465461 -0.000699265 0.00010841)
(-0.000537645 -0.000759654 0.000161601)
(-0.000610198 -0.000799009 0.000208178)
(-0.000678652 -0.000819605 0.000246871)
(-0.00074074 -0.000825931 0.000277054)
(-0.000796821 -0.000826629 0.000300038)
(-0.000847579 -0.000827899 0.000317681)
(-0.000889647 -0.000830277 0.000328901)
(-0.000925386 -0.000837279 0.000334355)
(-0.000955699 -0.000848566 0.000335033)
(-0.000981936 -0.000863699 0.000332144)
(-0.00100548 -0.000881653 0.000326714)
(-0.00102812 -0.000901834 0.000319657)
(-0.00105093 -0.000923554 0.000311454)
(-0.00107474 -0.000946559 0.00030237)
(-0.00109994 -0.000970751 0.00029248)
(-0.00112662 -0.000996065 0.000281746)
(-0.0011547 -0.00102242 0.000270073)
(-0.00118402 -0.0010497 0.000257332)
(-0.00121442 -0.00107776 0.000243349)
(-0.00124561 -0.00110633 0.000227856)
(-0.00127728 -0.00113507 0.000210475)
(-0.00130896 -0.00116354 0.000190644)
(-0.00134002 -0.00119108 0.000167617)
(-0.00136946 -0.00121684 0.000140271)
(-0.00139585 -0.00123955 0.000107459)
(-0.00141648 -0.00125754 6.74725e-05)
(-0.00142775 -0.00126801 2.25725e-05)
(-0.000583667 -0.000758752 -0.000398138)
(-0.00043523 -0.000575861 -4.28963e-05)
(-0.000383075 -0.000545905 -3.1627e-06)
(-0.000418203 -0.000603641 4.2672e-05)
(-0.00048806 -0.000683057 9.72108e-05)
(-0.000562148 -0.000745035 0.000149197)
(-0.000636604 -0.000786375 0.000194966)
(-0.00070755 -0.000809691 0.000233295)
(-0.000773277 -0.000820168 0.000263985)
(-0.000833683 -0.000824948 0.000288314)
(-0.000887981 -0.000828177 0.000307317)
(-0.00093343 -0.000829965 0.000319669)
(-0.000970618 -0.000835677 0.000325662)
(-0.00100258 -0.000846092 0.00032666)
(-0.00103014 -0.000860467 0.00032393)
(-0.00105519 -0.000878072 0.000318671)
(-0.00107905 -0.000897835 0.000311692)
(-0.0011032 -0.000919321 0.000303626)
(-0.0011284 -0.000942151 0.000294736)
(-0.00115495 -0.000966106 0.00028508)
(-0.00118298 -0.000991138 0.000274631)
(-0.00121245 -0.00101719 0.000263306)
(-0.0012432 -0.00104415 0.000250964)
(-0.00127501 -0.00107183 0.000237422)
(-0.00130763 -0.0011 0.000222406)
(-0.00134069 -0.00112832 0.000205535)
(-0.00137374 -0.00115635 0.000186251)
(-0.0014061 -0.00118346 0.000163815)
(-0.00143676 -0.0012088 0.000137126)
(-0.00146421 -0.00123114 0.000105064)
(-0.00148567 -0.00124883 6.59589e-05)
(-0.0014974 -0.00125912 2.20554e-05)
(-0.000621925 -0.000723422 -0.000376031)
(-0.000457746 -0.000554572 -4.60884e-05)
(-0.000404624 -0.000524902 -9.62022e-06)
(-0.000437648 -0.00058046 3.28578e-05)
(-0.000508481 -0.000659685 8.50499e-05)
(-0.000584374 -0.000723032 0.000135636)
(-0.000660987 -0.0007668 0.000180641)
(-0.000734974 -0.000793738 0.000218958)
(-0.000804584 -0.000808616 0.000250473)
(-0.000869133 -0.000817186 0.000276081)
(-0.000927131 -0.000822606 0.000296126)
(-0.000976216 -0.000825117 0.000309616)
(-0.00101522 -0.000829066 0.000316097)
(-0.00104849 -0.000838259 0.000317331)
(-0.00107769 -0.000851899 0.000314888)
(-0.001104 -0.000868723 0.000309758)
(-0.00112936 -0.000888087 0.000302986)
(-0.00115482 -0.000909124 0.000295099)
(-0.00118124 -0.000931465 0.000286409)
(-0.00120911 -0.000954992 0.000277031)
(-0.00123852 -0.000979601 0.000266931)
(-0.00126936 -0.00100517 0.000256002)
(-0.00130147 -0.0010316 0.000244105)
(-0.00133465 -0.00105873 0.000231048)
(-0.00136861 -0.0010863 0.000216553)
(-0.001403 -0.00111399 0.000200234)
(-0.00143732 -0.00114138 0.000181536)
(-0.00147089 -0.00116786 0.000159736)
(-0.00150268 -0.00119261 0.000133753)
(-0.00153112 -0.00121441 0.000102496)
(-0.00155335 -0.00123169 6.43378e-05)
(-0.0015655 -0.00124171 2.1503e-05)
(-0.000562522 -0.000590468 -0.000291146)
(-0.000481795 -0.000525329 -4.97062e-05)
(-0.000425657 -0.000502562 -1.69245e-05)
(-0.000453487 -0.000552098 2.25591e-05)
(-0.000524657 -0.000630338 7.22185e-05)
(-0.000602368 -0.000695256 0.000121241)
(-0.000681337 -0.000741819 0.000165426)
(-0.000758405 -0.00077259 0.00020374)
(-0.000831891 -0.000791962 0.000236135)
(-0.000900453 -0.000804213 0.000262998)
(-0.000961822 -0.000811513 0.000283959)
(-0.00101446 -0.000815435 0.000298414)
(-0.00105644 -0.00081819 0.000305603)
(-0.00109156 -0.000826267 0.000307346)
(-0.00112213 -0.000838664 0.000305118)
(-0.00115015 -0.000854862 0.00030031)
(-0.00117677 -0.000873453 0.000293729)
(-0.0012036 -0.000893926 0.000286092)
(-0.00123148 -0.000915832 0.000277719)
(-0.0012607 -0.000938841 0.000268681)
(-0.00129137 -0.000962841 0.000258959)
(-0.0013235 -0.000987793 0.000248467)
(-0.0013569 -0.00101356 0.000237053)
(-0.00139132 -0.00103995 0.000224513)
(-0.00142652 -0.00106676 0.000210564)
(-0.0014621 -0.00109368 0.00019482)
(-0.00149757 -0.00112027 0.00017673)
(-0.00153224 -0.00114597 0.000155582)
(-0.00156503 -0.00116997 0.000130318)
(-0.00159434 -0.00119111 9.98819e-05)
(-0.00161725 -0.00120787 6.26901e-05)
(-0.00162976 -0.00121758 2.09426e-05)
(-0.000675473 -0.000633491 -0.000294465)
(-0.000506761 -0.000498761 -5.40213e-05)
(-0.000441586 -0.000473013 -2.36913e-05)
(-0.000464597 -0.00051857 1.21328e-05)
(-0.000535446 -0.000595478 5.88908e-05)
(-0.00061468 -0.000661612 0.00010604)
(-0.000695987 -0.000710994 0.000149199)
(-0.000776499 -0.000745971 0.000187486)
(-0.000853813 -0.000769683 0.000220651)
(-0.000926016 -0.000785244 0.000248602)
(-0.000991355 -0.000794945 0.000270694)
(-0.00104711 -0.000799869 0.000285847)
(-0.00109343 -0.000803268 0.000294182)
(-0.00113042 -0.000809244 0.000296439)
(-0.00116302 -0.00082073 0.000294716)
(-0.00119237 -0.000835677 0.00029018)
(-0.00122067 -0.000853578 0.00028398)
(-0.00124893 -0.000873355 0.000276678)
(-0.00127795 -0.000894451 0.000268619)
(-0.0013084 -0.000916735 0.000259968)
(-0.00134037 -0.000940054 0.000250701)
(-0.00137371 -0.000964239 0.000240701)
(-0.00140829 -0.000989173 0.000229811)
(-0.00144387 -0.00101471 0.000217828)
(-0.00148016 -0.0010406 0.000204457)
(-0.00151678 -0.00106656 0.00018931)
(-0.00155325 -0.00109219 0.000171845)
(-0.00158886 -0.00111694 0.000151363)
(-0.00162253 -0.00114006 0.000126834)
(-0.00165261 -0.00116041 9.72323e-05)
(-0.00167611 -0.00117656 6.10226e-05)
(-0.00168891 -0.00118589 2.03767e-05)
(-0.00061254 -0.000512715 -0.000220336)
(-0.000524304 -0.000463457 -5.70275e-05)
(-0.000455184 -0.000441846 -3.07819e-05)
(-0.000470629 -0.000481348 1.73524e-06)
(-0.000540329 -0.000556225 4.52602e-05)
(-0.00062111 -0.000623685 9.0233e-05)
(-0.000705048 -0.000676146 0.000132204)
(-0.000788685 -0.000714841 0.000170229)
(-0.00086964 -0.000742437 0.000203964)
(-0.000945847 -0.000761364 0.00023296)
(-0.00101426 -0.000772677 0.000255926)
(-0.00107414 -0.000779237 0.000272101)
(-0.00112389 -0.000783201 0.000281277)
(-0.00116512 -0.000788636 0.000284626)
(-0.00119928 -0.00079787 0.00028339)
(-0.00123078 -0.000811921 0.000279445)
(-0.00126049 -0.000828642 0.000273628)
(-0.00129013 -0.000847458 0.000266741)
(-0.00132076 -0.000867866 0.000259176)
(-0.00135255 -0.000889364 0.000251012)
(-0.00138565 -0.00091177 0.00024224)
(-0.00142012 -0.000935024 0.000232779)
(-0.00145577 -0.000958993 0.00022246)
(-0.00149235 -0.00098349 0.000211063)
(-0.00152959 -0.00100831 0.000198294)
(-0.00156712 -0.00103317 0.000183765)
(-0.00160444 -0.0010577 0.000166936)
(-0.00164085 -0.00108137 0.000147129)
(-0.00167525 -0.00110346 0.000123339)
(-0.00170596 -0.00112289 9.45753e-05)
(-0.00172995 -0.00113832 5.93529e-05)
(-0.00174299 -0.00114724 1.98111e-05)
(-0.000679031 -0.00050256 -0.000199632)
(-0.000531236 -0.000423733 -5.87713e-05)
(-0.000462846 -0.000405806 -3.68789e-05)
(-0.000470893 -0.00044101 -8.54301e-06)
(-0.000538373 -0.00051338 3.13352e-05)
(-0.000620066 -0.000581571 7.37291e-05)
(-0.000705924 -0.000636435 0.00011411)
(-0.000793013 -0.000679019 0.000151696)
(-0.000877947 -0.000710502 0.000185844)
(-0.000957509 -0.000732016 0.000215545)
(-0.00103056 -0.000746007 0.000239697)
(-0.00109377 -0.000753508 0.000256772)
(-0.00114797 -0.000758636 0.000267071)
(-0.00119273 -0.000763784 0.00027133)
(-0.00123103 -0.000772095 0.000271218)
(-0.00126407 -0.000783886 0.000267829)
(-0.00129582 -0.000799384 0.000262654)
(-0.00132717 -0.00081721 0.000256353)
(-0.00135888 -0.000836422 0.000249269)
(-0.0013918 -0.000856854 0.000241643)
(-0.00142613 -0.000878296 0.000233469)
(-0.00146168 -0.000900512 0.000224617)
(-0.00149828 -0.000923361 0.000214918)
(-0.00153575 -0.000946702 0.000204153)
(-0.00157378 -0.000970321 0.000192019)
(-0.00161203 -0.00099394 0.000178129)
(-0.00165003 -0.00101723 0.000161955)
(-0.00168706 -0.00103968 0.000142834)
(-0.00172206 -0.00106063 0.000119796)
(-0.00175329 -0.00107905 9.18845e-05)
(-0.00177767 -0.00109369 5.76651e-05)
(-0.00179086 -0.00110214 1.92412e-05)
(-0.000646357 -0.000423895 -0.000151461)
(-0.000543416 -0.000388158 -5.9984e-05)
(-0.000466465 -0.00036889 -4.3244e-05)
(-0.000465102 -0.00039873 -1.85963e-05)
(-0.000528501 -0.000467255 1.73216e-05)
(-0.000610721 -0.000535964 5.67013e-05)
(-0.000699173 -0.000593788 9.52294e-05)
(-0.000789151 -0.000639596 0.000131962)
(-0.000877355 -0.000674134 0.000166103)
(-0.000961695 -0.000699051 0.000196586)
(-0.00103772 -0.00071432 0.000221432)
(-0.00110589 -0.000723799 0.000239826)
(-0.00116367 -0.00072936 0.000251179)
(-0.00121319 -0.000735116 0.000256724)
(-0.00125463 -0.00074245 0.000257552)
(-0.00129168 -0.000753237 0.000255316)
(-0.00132554 -0.000766992 0.000250955)
(-0.00135837 -0.000783136 0.000245314)
(-0.00139197 -0.000801266 0.000238965)
(-0.00142636 -0.000820583 0.00023203)
(-0.00146172 -0.000840779 0.000224505)
(-0.00149819 -0.000861767 0.000216317)
(-0.00153565 -0.000883397 0.000207293)
(-0.00157382 -0.000905458 0.000197195)
(-0.00161247 -0.000927771 0.000185722)
(-0.00165128 -0.000950075 0.00017249)
(-0.00168976 -0.000972026 0.000156977)
(-0.00172727 -0.000993181 0.000138547)
(-0.00176268 -0.00101288 0.000116259)
(-0.00179427 -0.00103017 8.91977e-05)
(-0.00181892 -0.00104394 5.59838e-05)
(-0.00183217 -0.00105195 1.86762e-05)
(-0.000713901 -0.000414767 -0.000125164)
(-0.000551646 -0.000348968 -6.32481e-05)
(-0.000462088 -0.000329589 -4.83053e-05)
(-0.000450871 -0.000353837 -2.76649e-05)
(-0.000510248 -0.000418799 3.61308e-06)
(-0.000592142 -0.00048733 3.93458e-05)
(-0.000681227 -0.000546459 7.53012e-05)
(-0.000774227 -0.000595515 0.000110742)
(-0.000867025 -0.000633945 0.000144696)
(-0.000954338 -0.000660763 0.000175318)
(-0.00103629 -0.000679194 0.000201305)
(-0.00110804 -0.000689568 0.000220696)
(-0.00117125 -0.000696579 0.000233614)
(-0.00122428 -0.000702072 0.000240359)
(-0.00127056 -0.000709498 0.000242627)
(-0.00131043 -0.000718998 0.000241436)
(-0.00134745 -0.000731571 0.000238191)
(-0.00138299 -0.000746457 0.000233571)
(-0.00141793 -0.000762934 0.000228021)
(-0.00145353 -0.000780791 0.000221871)
(-0.00149015 -0.000799747 0.000215152)
(-0.00152759 -0.000819445 0.000207735)
(-0.00156571 -0.000839716 0.000199447)
(-0.00160443 -0.000860411 0.000190068)
(-0.00164347 -0.000881306 0.000179287)
(-0.00168254 -0.000902171 0.000166729)
(-0.00172126 -0.000922697 0.000151893)
(-0.00175898 -0.000942454 0.000134165)
(-0.00179465 -0.00096085 0.000112646)
(-0.00182653 -0.000976992 8.64591e-05)
(-0.00185133 -0.000989855 5.42763e-05)
(-0.00186443 -0.000997349 1.81035e-05)
(-0.00059462 -0.000302143 -7.77209e-05)
(-0.000535565 -0.0003019 -6.20166e-05)
(-0.000455576 -0.000291905 -5.3188e-05)
(-0.000431564 -0.000309734 -3.61758e-05)
(-0.000482068 -0.000368011 -9.60203e-06)
(-0.000562367 -0.000435365 2.19088e-05)
(-0.000653896 -0.000497144 5.48769e-05)
(-0.000749483 -0.000548956 8.84172e-05)
(-0.000844513 -0.000589419 0.000121365)
(-0.000938071 -0.000620259 0.000152341)
(-0.00102285 -0.000639603 0.000178686)
(-0.00110085 -0.000652347 0.000199531)
(-0.00116789 -0.000659632 0.000213756)
(-0.00122679 -0.000666042 0.00022233)
(-0.00127627 -0.000672503 0.000225922)
(-0.00132061 -0.000681554 0.000226262)
(-0.00136042 -0.000692778 0.000224221)
(-0.00139796 -0.000706079 0.000220674)
(-0.00143547 -0.000721513 0.000216286)
(-0.00147292 -0.000738182 0.000211163)
(-0.00151053 -0.000755687 0.000205334)
(-0.0015487 -0.000773939 0.000198765)
(-0.00158738 -0.000792763 0.000191293)
(-0.00162637 -0.000811939 0.000182677)
(-0.00166556 -0.000831313 0.000172627)
(-0.00170469 -0.00085065 0.000160777)
(-0.0017434 -0.000869659 0.00014664)
(-0.00178113 -0.000887963 0.00012964)
(-0.00181681 -0.000904987 0.000108912)
(-0.00184872 -0.000919929 8.36271e-05)
(-0.00187349 -0.000931839 5.25118e-05)
(-0.00188636 -0.000938746 1.75131e-05)
(-0.000645095 -0.000285739 -5.23756e-05)
(-0.000521645 -0.000257672 -6.36625e-05)
(-0.00043695 -0.000251095 -5.68378e-05)
(-0.000402816 -0.000264398 -4.32661e-05)
(-0.00044484 -0.000316622 -2.16841e-05)
(-0.000522696 -0.00038215 4.92478e-06)
(-0.000612301 -0.000443258 3.3892e-05)
(-0.000709777 -0.000497333 6.47322e-05)
(-0.000810919 -0.000542483 9.65033e-05)
(-0.000906473 -0.000574479 0.00012672)
(-0.000999071 -0.000597812 0.000153973)
(-0.00108088 -0.000611279 0.000175725)
(-0.00115489 -0.000620384 0.000191851)
(-0.00121751 -0.000626275 0.000201995)
(-0.00127307 -0.00063308 0.00020763)
(-0.00132054 -0.000640783 0.000209484)
(-0.00136389 -0.000650889 0.000208979)
(-0.00140471 -0.000663116 0.000206887)
(-0.00144343 -0.000676695 0.000203604)
(-0.00148186 -0.000691641 0.000199536)
(-0.00152064 -0.000707707 0.000194767)
(-0.00155956 -0.000724475 0.000189177)
(-0.00159858 -0.000741724 0.000182599)
(-0.00163772 -0.000759339 0.000174827)
(-0.00167682 -0.000777096 0.000165563)
(-0.00171569 -0.000794801 0.000154459)
(-0.00175412 -0.000812217 0.000141063)
(-0.00179154 -0.000828961 0.000124828)
(-0.00182701 -0.000844574 0.00010494)
(-0.00185877 -0.000858285 8.0615e-05)
(-0.00188337 -0.000869208 5.06368e-05)
(-0.0018959 -0.000875482 1.68871e-05)
(-0.000582401 -0.000219384 -2.90329e-05)
(-0.000479508 -0.000211914 -6.01882e-05)
(-0.000406783 -0.000208686 -5.81229e-05)
(-0.000366928 -0.00022016 -4.86752e-05)
(-0.000395922 -0.000263684 -3.20594e-05)
(-0.000468135 -0.000324994 -1.10418e-05)
(-0.000560257 -0.000388462 1.32187e-05)
(-0.000660257 -0.00044516 4.05472e-05)
(-0.000760993 -0.000490697 6.97799e-05)
(-0.000865144 -0.000528097 9.95194e-05)
(-0.000960004 -0.000552013 0.000126513)
(-0.00105005 -0.000568623 0.000149695)
(-0.00112809 -0.000577746 0.00016723)
(-0.00119832 -0.000584869 0.000179702)
(-0.00125732 -0.000590413 0.000187144)
(-0.00131032 -0.000597702 0.000191134)
(-0.00135714 -0.000606428 0.000192385)
(-0.00139994 -0.000616783 0.000191767)
(-0.00144182 -0.000629268 0.000190064)
(-0.00148248 -0.00064294 0.00018738)
(-0.00152215 -0.000657352 0.000183767)
(-0.00156152 -0.000672458 0.000179231)
(-0.00160078 -0.000688099 0.000173635)
(-0.00163975 -0.00070402 0.00016675)
(-0.00167849 -0.0007201 0.000158307)
(-0.00171693 -0.000736153 0.000147983)
(-0.00175481 -0.000751917 0.000135346)
(-0.00179176 -0.000767111 0.000119896)
(-0.00182675 -0.00078126 0.000100865)
(-0.00185811 -0.000793681 7.75214e-05)
(-0.00188235 -0.000803582 4.87126e-05)
(-0.00189447 -0.000809216 1.62467e-05)
(-0.000523144 -0.000167828 -1.06568e-05)
(-0.000440375 -0.000172487 -5.67504e-05)
(-0.000370756 -0.000169512 -5.82504e-05)
(-0.000323932 -0.0001777 -5.20351e-05)
(-0.000339585 -0.000212509 -4.00068e-05)
(-0.0004064 -0.000269687 -2.51745e-05)
(-0.000491495 -0.000328993 -6.57517e-06)
(-0.000590544 -0.000386179 1.60446e-05)
(-0.00070066 -0.000438572 4.23917e-05)
(-0.000804374 -0.000476017 6.99529e-05)
(-0.000909736 -0.000505494 9.71699e-05)
(-0.00100336 -0.000522707 0.000120872)
(-0.00109057 -0.000534402 0.000140486)
(-0.00116463 -0.000540678 0.000154809)
(-0.00123148 -0.000546787 0.0001649)
(-0.0012881 -0.000552501 0.000170982)
(-0.00133906 -0.000559917 0.000174342)
(-0.00138622 -0.000569221 0.00017576)
(-0.0014292 -0.000579539 0.000175562)
(-0.00147056 -0.000591166 0.000174254)
(-0.00151135 -0.000603959 0.000171991)
(-0.00155133 -0.000617445 0.000168668)
(-0.00159053 -0.000631362 0.000164136)
(-0.00162922 -0.000645611 0.000158221)
(-0.00166736 -0.000659979 0.000150654)
(-0.00170497 -0.000674299 0.00014114)
(-0.00174203 -0.000688398 0.000129297)
(-0.0017781 -0.000701961 0.000114663)
(-0.0018124 -0.000714635 9.65386e-05)
(-0.0018432 -0.000725782 7.42375e-05)
(-0.00186693 -0.000734657 4.66742e-05)
(-0.0018785 -0.000739626 1.55706e-05)
(-0.000415866 -0.000113595 7.44963e-06)
(-0.000381282 -0.000129237 -5.31862e-05)
(-0.000326121 -0.000133655 -5.75051e-05)
(-0.00027531 -0.000138656 -5.30952e-05)
(-0.000272389 -0.000161269 -4.4037e-05)
(-0.000324442 -0.000208055 -3.51625e-05)
(-0.000413199 -0.000269826 -2.37844e-05)
(-0.000515243 -0.000329965 -7.26026e-06)
(-0.000618481 -0.000379374 1.44381e-05)
(-0.000734994 -0.000425129 3.97892e-05)
(-0.000840617 -0.000454666 6.55427e-05)
(-0.000945232 -0.000476622 9.01725e-05)
(-0.00103624 -0.000488282 0.000111022)
(-0.00112034 -0.000496563 0.000128015)
(-0.00119069 -0.000501111 0.000140337)
(-0.00125415 -0.000506426 0.000149169)
(-0.00130948 -0.000512383 0.000154914)
(-0.00135847 -0.000519418 0.000158295)
(-0.00140545 -0.000528586 0.000160194)
(-0.00144967 -0.000538908 0.000160709)
(-0.00149129 -0.000549901 0.000159912)
(-0.00153141 -0.000561574 0.000157871)
(-0.0015705 -0.00057379 0.000154494)
(-0.00160851 -0.000586279 0.000149579)
(-0.00164577 -0.000598929 0.000142913)
(-0.00168241 -0.000611579 0.000134234)
(-0.00171835 -0.000624014 0.000123187)
(-0.00175348 -0.000636027 0.000109381)
(-0.00178681 -0.000647224 9.21639e-05)
(-0.00181677 -0.000657075 7.09129e-05)
(-0.00183979 -0.000664913 4.46132e-05)
(-0.00185076 -0.000669255 1.489e-05)
(-0.000274687 -6.22436e-05 1.7778e-05)
(-0.000292887 -8.5125e-05 -4.68509e-05)
(-0.000264394 -9.80116e-05 -5.44376e-05)
(-0.000221086 -0.00010335 -5.18666e-05)
(-0.000201534 -0.000114448 -4.3385e-05)
(-0.000245908 -0.000154269 -4.11252e-05)
(-0.000316444 -0.000204657 -3.6471e-05)
(-0.000411431 -0.000261817 -2.69299e-05)
(-0.000531701 -0.000323169 -1.1875e-05)
(-0.000640883 -0.000366096 9.08733e-06)
(-0.000761524 -0.000404466 3.33197e-05)
(-0.000868346 -0.000427107 5.7439e-05)
(-0.000971508 -0.000443043 7.99954e-05)
(-0.00105879 -0.000450385 9.8812e-05)
(-0.00113923 -0.000456185 0.00011419)
(-0.00120675 -0.000459852 0.000125627)
(-0.00126673 -0.000464333 0.000134031)
(-0.00132151 -0.000470434 0.000140074)
(-0.00136935 -0.000477131 0.000143923)
(-0.00141375 -0.000485082 0.00014616)
(-0.00145639 -0.000494325 0.000147025)
(-0.00149697 -0.000504332 0.000146443)
(-0.00153556 -0.000514779 0.000144295)
(-0.00157284 -0.000525597 0.000140466)
(-0.00160892 -0.000536559 0.000134745)
(-0.0016441 -0.000547508 0.000126919)
(-0.00167863 -0.000558316 0.000116703)
(-0.00171227 -0.00056873 0.000103748)
(-0.00174441 -0.000578492 8.74928e-05)
(-0.00177339 -0.000587099 6.73639e-05)
(-0.00179557 -0.000593937 4.24181e-05)
(-0.00180577 -0.000597656 1.41672e-05)
(-0.000138811 -2.43137e-05 1.76774e-05)
(-0.000189923 -4.83254e-05 -3.61868e-05)
(-0.000186669 -6.30197e-05 -4.75939e-05)
(-0.000160228 -7.07285e-05 -4.68885e-05)
(-0.00012579 -6.94342e-05 -3.6043e-05)
(-0.000131529 -8.21559e-05 -3.27846e-05)
(-0.000215161 -0.000140486 -4.14193e-05)
(-0.000315937 -0.000202553 -4.23712e-05)
(-0.000412652 -0.000252385 -3.40278e-05)
(-0.000545397 -0.000311261 -1.94848e-05)
(-0.000660171 -0.000347944 1.09933e-06)
(-0.000781792 -0.000378478 2.44078e-05)
(-0.000886905 -0.00039461 4.72948e-05)
(-0.000987528 -0.000405863 6.84735e-05)
(-0.00107079 -0.00041021 8.61389e-05)
(-0.0011465 -0.00041395 0.000100679)
(-0.00121179 -0.000417176 0.000111976)
(-0.00126774 -0.000420669 0.000120403)
(-0.00132056 -0.000426291 0.000126846)
(-0.00136877 -0.000433066 0.000131363)
(-0.00141217 -0.000440468 0.000134012)
(-0.00145245 -0.000448604 0.000134929)
(-0.00149056 -0.000457388 0.000134096)
(-0.00152657 -0.0004665 0.000131362)
(-0.00156118 -0.000475831 0.000126596)
(-0.00159485 -0.000485239 0.000119637)
(-0.00162769 -0.000494504 0.000110237)
(-0.0016599 -0.000503489 9.81388e-05)
(-0.00169059 -0.000511868 8.28311e-05)
(-0.00171829 -0.000519251 6.38155e-05)
(-0.00173941 -0.000525112 4.02264e-05)
(-0.00174882 -0.000528277 1.34492e-05)
(-3.37277e-05 -3.63803e-06 1.00089e-05)
(-8.88322e-05 -2.05619e-05 -1.99253e-05)
(-0.000101583 -3.05762e-05 -3.46087e-05)
(-9.13939e-05 -3.78053e-05 -3.75737e-05)
(-5.597e-05 -3.13738e-05 -2.42533e-05)
(-8.37097e-05 -5.62449e-05 -3.13644e-05)
(-9.64909e-05 -6.61253e-05 -2.82022e-05)
(-0.000170217 -0.000112236 -3.88746e-05)
(-0.000310555 -0.000192776 -5.08708e-05)
(-0.000413864 -0.0002393 -4.27143e-05)
(-0.000554033 -0.000293051 -2.82976e-05)
(-0.000673363 -0.000324135 -7.80943e-06)
(-0.000795285 -0.000348313 1.49193e-05)
(-0.000896401 -0.000358927 3.7046e-05)
(-0.000992395 -0.000366301 5.73818e-05)
(-0.00107194 -0.000368867 7.45718e-05)
(-0.00114201 -0.000370887 8.87729e-05)
(-0.0012056 -0.000374003 0.000100318)
(-0.00125867 -0.000377059 0.000109069)
(-0.00130596 -0.000381246 0.000115576)
(-0.00135012 -0.000386906 0.000120154)
(-0.00139069 -0.00039348 0.000122746)
(-0.00142776 -0.000400589 0.000123273)
(-0.00146252 -0.000408177 0.000121709)
(-0.00149534 -0.000415983 0.000117929)
(-0.00152682 -0.000423845 0.000111838)
(-0.00155763 -0.000431659 0.000103284)
(-0.00158769 -0.000439191 9.20624e-05)
(-0.00161668 -0.000446276 7.77725e-05)
(-0.00164299 -0.000452541 5.9966e-05)
(-0.00166294 -0.00045751 3.78518e-05)
(-0.00167134 -0.000460131 1.26725e-05)
(-4.5694e-06 1.50863e-06 1.30716e-05)
(-1.55614e-05 -2.69014e-06 -3.48735e-06)
(-2.22818e-05 -5.11269e-06 -1.34153e-05)
(-2.74864e-05 -1.19261e-05 -2.03703e-05)
(-3.05981e-05 -2.08894e-05 -2.26287e-05)
(-4.54087e-05 -3.73647e-05 -2.75438e-05)
(-4.56599e-05 -3.65259e-05 -2.15403e-05)
(-7.06254e-05 -5.08824e-05 -2.59827e-05)
(-0.000131526 -8.49158e-05 -3.62319e-05)
(-0.000305269 -0.000179333 -5.90173e-05)
(-0.000419013 -0.000224664 -5.11425e-05)
(-0.000562241 -0.000271716 -3.65804e-05)
(-0.000679913 -0.000296021 -1.58262e-05)
(-0.000799354 -0.000314648 6.53701e-06)
(-0.000895641 -0.000321339 2.82343e-05)
(-0.000984759 -0.00032549 4.80375e-05)
(-0.00106076 -0.000327159 6.50839e-05)
(-0.0011237 -0.000327673 7.90953e-05)
(-0.0011827 -0.00033012 9.07078e-05)
(-0.00123511 -0.000333616 9.98404e-05)
(-0.0012799 -0.000337632 0.000106444)
(-0.00131953 -0.000342459 0.000110688)
(-0.00135565 -0.000348105 0.000112641)
(-0.00138846 -0.00035419 0.000112217)
(-0.00141917 -0.000360609 0.000109407)
(-0.00144862 -0.00036719 0.000104188)
(-0.00147715 -0.000373703 9.64477e-05)
(-0.00150539 -0.000380056 8.61021e-05)
(-0.00153246 -0.000385963 7.27976e-05)
(-0.00155703 -0.000391167 5.61708e-05)
(-0.00157559 -0.000395298 3.55134e-05)
(-0.00158306 -0.000397483 1.19116e-05)
(5.81254e-06 6.30022e-06 2.32213e-05)
(7.21248e-06 3.83099e-06 -1.3941e-06)
(4.70819e-06 7.24833e-07 -1.1719e-05)
(5.14666e-07 -7.51786e-06 -1.93592e-05)
(-6.49617e-06 -1.66659e-05 -2.31888e-05)
(-1.51068e-05 -2.5872e-05 -2.50166e-05)
(-2.73979e-05 -3.45526e-05 -2.67896e-05)
(-4.96885e-05 -4.51776e-05 -3.17117e-05)
(-5.66784e-05 -4.09881e-05 -2.52186e-05)
(-0.000106286 -6.4424e-05 -3.30084e-05)
(-0.000301037 -0.000161722 -6.47662e-05)
(-0.000421815 -0.000205906 -5.76166e-05)
(-0.000567019 -0.000247471 -4.2549e-05)
(-0.000679666 -0.000265591 -2.16046e-05)
(-0.000792421 -0.000279022 4.47063e-07)
(-0.000883451 -0.000283247 2.18192e-05)
(-0.000963493 -0.000284803 4.11985e-05)
(-0.00103643 -0.000286372 5.81903e-05)
(-0.00109436 -0.000286631 7.21348e-05)
(-0.00114366 -0.00028759 8.3274e-05)
(-0.00118854 -0.000290142 9.18966e-05)
(-0.0012282 -0.00029376 9.79183e-05)
(-0.00126256 -0.000298013 0.000101268)
(-0.00129352 -0.000302895 0.000102026)
(-0.00132174 -0.000308093 0.000100187)
(-0.00134822 -0.000313412 9.58109e-05)
(-0.00137411 -0.000318769 8.89161e-05)
(-0.00139946 -0.000323905 7.94636e-05)
(-0.00142432 -0.000328764 6.72434e-05)
(-0.00144713 -0.000333066 5.19358e-05)
(-0.00146419 -0.00033647 3.2904e-05)
(-0.00147041 -0.000338219 1.10607e-05)
(9.2301e-06 1.02408e-05 2.99773e-05)
(2.10154e-05 9.4482e-06 -2.41299e-06)
(2.46693e-05 5.67843e-06 -1.2029e-05)
(2.3374e-05 -1.5736e-06 -1.53185e-05)
(1.87035e-05 -8.52533e-06 -1.54124e-05)
(1.15238e-05 -1.37545e-05 -1.44388e-05)
(2.64252e-06 -1.71764e-05 -1.37148e-05)
(-9.59788e-06 -2.00495e-05 -1.52031e-05)
(-2.74567e-05 -2.49144e-05 -2.05274e-05)
(-5.30299e-05 -3.48368e-05 -2.62801e-05)
(-9.98935e-05 -5.40893e-05 -3.35231e-05)
(-0.000301777 -0.000146377 -6.86747e-05)
(-0.000420418 -0.000184859 -6.01067e-05)
(-0.000562769 -0.000220101 -4.52807e-05)
(-0.000669342 -0.000233757 -2.4459e-05)
(-0.000771863 -0.000242704 -2.74204e-06)
(-0.000858066 -0.000245881 1.82454e-05)
(-0.000926411 -0.000245375 3.70662e-05)
(-0.000991014 -0.000246202 5.35441e-05)
(-0.00104729 -0.0002476 6.72903e-05)
(-0.00109257 -0.000249116 7.79559e-05)
(-0.00113025 -0.000251371 8.56093e-05)
(-0.00116309 -0.000254587 9.03735e-05)
(-0.0011913 -0.000258344 9.22225e-05)
(-0.00121678 -0.000262531 9.13005e-05)
(-0.00124079 -0.000266957 8.77608e-05)
(-0.00126385 -0.000271354 8.16515e-05)
(-0.00128715 -0.000275669 7.30929e-05)
(-0.00130968 -0.00027964 6.19001e-05)
(-0.00133034 -0.000283125 4.78478e-05)
(-0.00134571 -0.00028589 3.0386e-05)
(-0.00135094 -0.000287338 1.02444e-05)
(1.84038e-05 1.27236e-05 3.474e-05)
(3.28687e-05 1.20314e-05 -3.55343e-06)
(3.91308e-05 8.5858e-06 -1.3031e-05)
(4.75003e-05 2.02351e-06 -1.95182e-05)
(4.99626e-05 -7.41171e-06 -2.20546e-05)
(5.00623e-05 -1.87858e-05 -2.38898e-05)
(2.52863e-05 -1.79749e-05 -1.40195e-05)
(1.84802e-05 -2.76234e-05 -1.64481e-05)
(-6.37849e-06 -2.57209e-05 -1.91886e-05)
(-3.89389e-05 -3.09445e-05 -3.17094e-05)
(-8.3259e-05 -4.82366e-05 -4.34136e-05)
(-9.8765e-05 -4.79091e-05 -3.36884e-05)
(-0.000303526 -0.000131632 -6.92099e-05)
(-0.000417085 -0.000163999 -5.99913e-05)
(-0.000549023 -0.000191845 -4.47651e-05)
(-0.000648706 -0.000202445 -2.42504e-05)
(-0.000736363 -0.000207354 -2.9007e-06)
(-0.000818046 -0.000210598 1.75238e-05)
(-0.000878917 -0.000210183 3.56789e-05)
(-0.000928014 -0.000209456 5.0938e-05)
(-0.000971896 -0.000210165 6.33089e-05)
(-0.00100923 -0.000211923 7.25648e-05)
(-0.00103935 -0.000214262 7.85554e-05)
(-0.00106508 -0.000217305 8.14617e-05)
(-0.00108733 -0.000220688 8.13991e-05)
(-0.00110751 -0.000224207 7.86181e-05)
(-0.00112735 -0.000227804 7.33326e-05)
(-0.00114694 -0.00023119 6.56829e-05)
(-0.00116679 -0.00023441 5.56677e-05)
(-0.00118535 -0.000237274 4.30838e-05)
(-0.00119894 -0.000239524 2.74423e-05)
(-0.00120269 -0.000240637 9.28161e-06)
(2.78074e-05 1.43922e-05 3.82906e-05)
(6.06944e-05 1.81018e-05 -5.28154e-06)
(8.32842e-05 1.56808e-05 -2.19038e-05)
(9.42086e-05 6.38753e-06 -3.03766e-05)
(9.11099e-05 -5.6158e-06 -3.22904e-05)
(6.98152e-05 -1.46218e-05 -2.65379e-05)
(3.70332e-05 -1.48078e-05 -1.5025e-05)
(4.00418e-05 -2.73047e-05 -1.75314e-05)
(1.34247e-05 -1.75829e-05 -7.79968e-06)
(-3.35524e-06 -1.85165e-05 -1.20148e-05)
(-2.55505e-05 -1.72309e-05 -1.94552e-05)
(-5.35052e-05 -2.62996e-05 -2.68645e-05)
(-9.59303e-05 -4.03502e-05 -3.24114e-05)
(-0.000296238 -0.000115119 -6.68025e-05)
(-0.000403171 -0.000142016 -5.62506e-05)
(-0.000518775 -0.000162569 -4.0635e-05)
(-0.000613512 -0.000172177 -2.09161e-05)
(-0.00068318 -0.000174016 -2.99615e-07)
(-0.000751674 -0.000176315 1.89577e-05)
(-0.000810614 -0.000178047 3.60373e-05)
(-0.00085465 -0.000178845 5.00079e-05)
(-0.000888386 -0.000179903 6.05344e-05)
(-0.000916319 -0.000181855 6.7695e-05)
(-0.000938391 -0.000184273 7.14691e-05)
(-0.000957356 -0.000187103 7.21652e-05)
(-0.000974889 -0.000190176 7.01348e-05)
(-0.000991562 -0.000193189 6.55815e-05)
(-0.00100921 -0.000196168 5.88515e-05)
(-0.00102649 -0.000198831 4.9912e-05)
(-0.00104256 -0.00020116 3.8666e-05)
(-0.00105425 -0.000202991 2.47112e-05)
(-0.00105714 -0.000203939 8.39423e-06)
(3.55282e-05 1.53897e-05 4.19391e-05)
(7.33839e-05 1.98974e-05 -3.87376e-06)
(0.000102315 1.9046e-05 -2.20609e-05)
(0.000119609 1.10407e-05 -3.35629e-05)
(0.000125954 -1.80443e-06 -4.02427e-05)
(0.000122173 -1.58145e-05 -4.21946e-05)
(0.000103531 -2.73526e-05 -3.77345e-05)
(5.53229e-05 -2.41902e-05 -2.11146e-05)
(3.07102e-05 -2.17951e-05 -1.2227e-05)
(2.63334e-05 -3.57616e-05 -1.35007e-05)
(-3.54394e-06 -1.30578e-05 -7.8044e-06)
(-4.32625e-05 -2.18263e-05 -3.01445e-05)
(-8.83694e-05 -3.72492e-05 -4.3781e-05)
(-9.77439e-05 -3.67431e-05 -3.17715e-05)
(-0.000282516 -9.82736e-05 -6.04414e-05)
(-0.000383636 -0.000121303 -5.02447e-05)
(-0.000475177 -0.000134795 -3.36721e-05)
(-0.00056456 -0.000144599 -1.4989e-05)
(-0.00062381 -0.000146598 4.34781e-06)
(-0.000668373 -0.000146591 2.16854e-05)
(-0.000708366 -0.000147519 3.63299e-05)
(-0.000741404 -0.000149135 4.77609e-05)
(-0.000765335 -0.000150854 5.55924e-05)
(-0.00078438 -0.000153133 6.00527e-05)
(-0.000799446 -0.000155565 6.13412e-05)
(-0.000812232 -0.000158007 5.98983e-05)
(-0.000825203 -0.000160519 5.61308e-05)
(-0.00083817 -0.000162769 5.0333e-05)
(-0.000852362 -0.000164957 4.27157e-05)
(-0.000866097 -0.000166948 3.315e-05)
(-0.000875799 -0.000168462 2.12743e-05)
(-0.000876949 -0.000169118 7.25572e-06)
(4.13349e-05 1.57104e-05 4.47122e-05)
(7.7225e-05 1.92107e-05 -2.99714e-06)
(0.00010941 1.96211e-05 -2.11808e-05)