/*--------------------------------*- C++ -*----------------------------------*\
  =========                 |
  \\      /  F ield         | OpenFOAM: The Open Source CFD Toolbox
   \\    /   O peration     | Website:  https://openfoam.org
    \\  /    A nd           | Version:  6
     \\/     M anipulation  |
\*---------------------------------------------------------------------------*/
FoamFile
{
    version     2.0;
    format      ascii;
    class       volScalarField;
    location    "7";
    object      yPlus;
}
// * * * * * * * * * * * * * * * * * * * * * * * * * * * * * * * * * * * * * //

dimensions      [0 0 0 0 0 0 0];

internalField   uniform 0;

boundaryField
{
    inlet
    {
        type            calculated;
        value           uniform 0;
    }
    outlet
    {
        type            calculated;
        value           uniform 0;
    }
    roughCylinder
    {
        type            calculated;
        value           nonuniform List<scalar> 
5120
(
96.0968
61.9845
53.0431
56.2737
62.2948
67.3787
71.5948
75.1198
78.1142
80.7449
83.1236
85.3052
87.3568
89.2928
91.1636
92.9857
94.8223
96.6932
98.63
100.651
102.759
104.95
107.218
109.552
111.934
114.341
116.736
119.069
121.268
123.225
124.759
125.615
96.6678
62.3781
52.5691
54.878
60.6905
65.7152
69.8915
73.3938
76.3873
79.0157
81.3752
83.54
85.538
87.4334
89.2333
91.0049
92.7638
94.5685
96.4411
98.3893
100.42
102.532
104.72
106.972
109.27
111.592
113.903
116.155
118.276
120.166
121.646
122.471
95.015
61.1733
51.4818
53.3972
59.0303
63.9942
68.1483
71.6603
74.664
77.2996
79.6683
81.7932
83.766
85.5966
87.3565
89.0514
90.759
92.4946
94.2876
96.1618
98.1204
100.157
102.265
104.435
106.651
108.889
111.116
113.287
115.332
117.154
118.581
119.375
78.4752
60.3216
50.8549
51.951
57.3619
62.29
66.4357
69.9464
72.9715
75.6266
77.9692
80.1006
82.0188
83.8251
85.513
87.1713
88.8035
90.4753
92.2141
94.0218
95.9048
97.8663
99.8981
101.989
104.123
106.279
108.425
110.517
112.488
114.243
115.618
116.381
91.3632
60.2485
49.9703
50.4634
55.6443
60.5227
64.6607
68.2138
71.2746
73.9388
76.3219
78.4122
80.3328
82.0771
83.7461
85.3287
86.9215
88.5361
90.1961
91.9336
93.7522
95.6434
97.6009
99.6163
101.673
103.749
105.816
107.83
109.73
111.422
112.746
113.479
77.4707
59.8241
49.3976
48.9793
53.8881
58.7539
62.9281
66.4963
69.5855
72.3024
74.6465
76.774
78.6493
80.3979
81.9964
83.5643
85.0896
86.6439
88.2656
89.9482
91.6972
93.519
95.4067
97.3473
99.328
101.328
103.319
105.259
107.089
108.719
109.993
110.697
84.2999
58.8099
48.6688
47.4819
52.0776
56.9062
61.0732
64.7116
67.873
70.5851
73.0208
75.1069
77.0191
78.7139
80.327
81.8235
83.3241
84.8399
86.3837
87.9991
89.6926
91.4522
93.2712
95.1428
97.051
98.9764
100.893
102.761
104.523
106.094
107.322
107.997
78.0497
59.4194
48.2052
46.0105
50.1632
54.9839
59.2578
62.9357
66.114
68.9421
71.3171
73.484
75.3522
77.093
78.6407
80.1526
81.6004
83.0583
84.5844
86.1611
87.7916
89.4876
91.2436
93.0457
94.8836
96.7384
98.5832
100.382
102.079
103.591
104.772
105.42
87.8326
60.2493
47.6118
44.3517
48.1529
52.9597
57.2082
60.9866
64.3221
67.1116
69.659
71.7831
73.7371
75.421
77.028
78.4786
79.9205
81.3678
82.8165
84.3273
85.9123
87.5546
89.2474
90.9868
92.7566
94.5404
96.3156
98.0455
99.679
101.136
102.274
102.893
72.3775
59.3071
47.6832
42.9399
45.915
50.6797
55.1736
59.0579
62.3625
65.3924
67.8473
70.1203
72.0246
73.8116
75.3481
76.8493
78.2584
79.6488
81.1083
82.6029
84.1324
85.7164
87.3523
89.0258
90.729
92.4462
94.1527
95.8181
97.3886
98.7902
99.8833
100.474
83.8708
59.5878
47.2301
41.2747
43.5406
48.2984
52.7061
56.7231
60.3931
63.3194
66.0794
68.2986
70.3681
72.0869
73.7412
75.1864
76.6059
78.0229
79.4015
80.8271
82.321
83.8606
85.4379
87.0535
88.6924
90.3402
91.9797
93.5767
95.087
96.4364
97.4872
98.0495
80.6463
57.8338
46.3786
39.6146
40.6578
45.2154
50.175
54.4883
57.9902
61.4051
64.0225
66.5158
68.5187
70.4286
72.0018
73.5419
74.9546
76.3058
77.73
79.1688
80.6153
82.1003
83.6269
85.1791
86.7541
88.3389
89.911
91.4473
92.8963
94.1914
95.1989
95.7343
80.3935
58.26
46.0179
37.8851
37.5755
42.131
46.8105
51.283
55.6723
58.8483
62.0273
64.4353
66.7387
68.5565
70.3363
71.8287
73.2693
74.701
76.0355
77.3946
78.8157
80.2674
81.7391
83.2387
84.7518
86.2673
87.7739
89.2414
90.6323
91.8766
92.8427
93.349
73.3881
57.2978
45.883
36.212
33.5056
37.0799
43.1235
48.4399
52.2834
56.5443
59.4692
62.4006
64.6056
66.7671
68.4434
70.0936
71.5673
72.9132
74.3418
75.7586
77.1424
78.5416
79.9691
81.4066
82.8573
84.3132
85.7539
87.1636
88.4939
89.6839
90.6071
91.0873
58.3891
52.2237
44.2526
34.4202
28.8309
32.4773
37.4553
43.0344
49.2917
52.9011
57.0147
59.8063
62.5797
64.5944
66.6265
68.2405
69.7628
71.2734
72.5965
73.9093
75.2784
76.6587
78.0341
79.4237
80.8138
82.1978
83.5728
84.9102
86.1824
87.3236
88.2059
88.655
38.8114
43.2832
39.7649
31.6816
21.9601
20.1017
30.2222
38.7474
43.219
49.8798
53.4072
57.2868
59.8822
62.5504
64.435
66.3093
67.926
69.3074
70.7944
72.2358
73.5818
74.9084
76.2466
77.5729
78.9007
80.228
81.536
82.8197
84.0308
85.1163
85.9546
86.3779
14.6157
29.792
30.4902
24.7815
12.4994
17.6611
16.3756
24.7087
38.8791
43.1881
49.9556
53.5764
57.4062
59.7974
62.3234
64.1721
65.8689
67.5578
68.9112
70.1967
71.5373
72.8652
74.1515
75.4345
76.7004
77.9485
79.188
80.3908
81.542
82.5787
83.3758
83.7648
6.05157
11.857
11.2793
6.98955
6.20784
15.9165
3.18805
13.1873
19.156
38.5461
43.472
50.0926
53.494
57.2794
59.5649
61.8831
63.7752
65.241
66.8649
68.4018
69.7422
71.0084
72.2655
73.4797
74.681
75.8754
77.0447
78.1994
79.2876
80.2647
81.0153
81.3791
12.6652
10.4918
7.2231
14.4063
15.6884
16.7499
17.4962
18.2674
7.03642
15.2516
37.8414
43.3455
50.1681
53.3295
56.9205
59.204
61.235
63.2773
64.718
65.9896
67.328
68.6266
69.8279
71.0033
72.1368
73.2365
74.3299
75.3856
76.4084
77.3359
78.043
78.3646
4.54386
9.77151
9.02597
10.4689
10.4837
9.51046
8.8634
7.28776
7.31317
9.40896
14.1736
37.6265
42.9727
49.8622
52.9663
56.2371
58.678
60.2958
62.1924
63.9472
65.3305
66.5463
67.7284
68.8226
69.8862
70.937
71.9538
72.9728
73.9294
74.79
75.4461
75.7447
3.00183
11.5168
11.8065
14.6544
17.2301
21.6917
14.321
22.4597
21.2903
20.9016
20.648
13.9216
37.8669
42.8532
49.3354
52.5284
55.2061
57.9654
59.579
60.8356
62.2042
63.5083
64.6237
65.6844
66.6663
67.5906
68.5165
69.3991
70.2785
71.0875
71.6952
71.9356
7.05645
16.8877
21.56
24.3774
24.5822
19.985
11.3745
19.5867
9.19925
16.0186
12.5168
11.7411
13.3489
37.2162
42.2639
48.0142
51.738
53.6304
56.1097
58.3385
59.8552
61.0271
62.1413
63.0946
63.998
64.8875
65.7273
66.6032
67.4136
68.1437
68.6938
68.9189
6.77548
16.9231
22.2839
26.1498
28.8261
30.3911
28.8811
17.0784
12.8161
26.5748
8.60402
22.5784
21.2619
13.7836
36.3605
41.9635
46.2492
50.7149
52.622
53.8233
55.2779
56.6629
57.6847
58.6172
59.4084
60.1001
60.8162
61.4716
62.1827
62.859
63.352
63.4813
6.54795
15.7209
21.7034
26.275
29.4627
31.1625
31.6464
32.1035
24.6624
13.4623
24.992
10.4978
22.9039
21.6416
13.2677
33.7158
40.7235
43.0278
47.1271
50.5024
52.3611
53.4872
54.5517
55.3153
56.0183
56.7244
57.3506
58.0903
58.7361
59.3149
59.7409
59.8829
5.49817
13.5996
19.2198
23.6009
27.0904
29.8515
31.6688
31.5187
31.5749
26.3518
23.2779
20.7908
13.545
22.8218
21.6808
4.28376
28.2826
39.3435
41.4738
42.4955
44.2176
45.9311
46.8386
47.6295
48.1252
48.4352
48.838
49.1214
49.6075
50.1523
50.5038
50.4389
5.52669
13.026
17.7502
21.6499
24.8384
27.3787
29.2905
30.9902
31.2044
31.1722
26.6601
17.3169
6.84036
25.19
2.07283
15.6406
13.9652
16.3342
31.0588
37.6771
40.5147
41.5346
42.633
43.0527
43.5032
44.0068
44.3602
45.0144
45.591
45.878
46.2211
46.2143
4.78153
11.906
15.4262
18.7232
21.7118
24.3762
26.6548
28.219
29.678
30.2347
30.4195
26.7369
30.716
28.0368
6.48712
4.49446
15.4968
14.2551
25.4267
10.4896
15.3511
20.1573
20.9891
21.7141
21.3885
19.8097
19.146
19.5268
17.9423
20.286
18.6269
19.3935
4.98298
12.0055
13.6488
15.7868
18.186
20.5637
22.7928
24.988
26.7207
28.3188
29.2007
29.6237
26.4246
17.539
25.5223
15.7063
19.1855
17.4117
24.8613
16.46
17.9642
19.5527
20.5075
19.7016
4.44346
21.7073
21.6028
30.3839
10.8005
31.4474
23.3941
31.8615
4.48681
11.4695
12.163
13.2114
14.7781
16.6867
18.807
20.9145
23.1313
25.0848
26.9432
28.1241
28.7968
22.8145
9.37319
13.0493
12.0987
14.7558
19.4292
8.81557
5.9764
27.4926
8.7888
21.3069
10.2807
30.3598
30.3567
20.5426
31.4135
22.6352
9.20811
22.612
4.54244
12.2759
12.0367
12.2879
12.9862
14.0477
15.4451
17.2857
19.3302
21.5838
23.7064
25.8065
27.1774
28.5149
21.7848
13.5903
3.86515
9.36108
26.5431
26.4016
27.8245
20.7387
28.2723
30.4502
30.1311
24.7699
17.9504
32.4835
26.7116
18.3249
27.9131
8.5469
4.30631
11.8282
11.799
11.9184
12.3606
13.0448
13.9044
14.9344
16.3803
18.1663
20.3515
22.609
25.029
26.526
28.41
21.9494
26.4725
10.5825
12.7659
16.9636
24.5874
29.8815
15.8012
27.6206
22.7875
19.436
24.36
24.1175
22.9685
30.248
18.9343
19.2016
4.04758
11.5625
11.8579
11.8924
12.3696
13.0384
13.7055
14.3947
15.1117
16.1152
17.5146
19.5339
21.8624
24.6444
26.2844
28.6949
25.0546
13.6304
27.9052
12.1621
1.83247
14.4174
4.13139
17.8132
32.827
28.5523
17.0349
27.7574
34.3657
15.6397
2.74304
10.1477
3.91598
11.9803
11.8021
11.8879
12.4615
13.2155
13.9616
14.6123
15.1888
15.6598
16.2783
17.3079
19.1649
21.4991
24.5959
26.3793
28.8223
30.1617
25.9066
21.2501
18.0278
15.6919
16.7888
17.3837
20.3475
20.6343
21.1697
21.8505
23.236
21.9159
23.1607
22.8277
4.00075
11.6875
11.7743
12.0867
12.8624
13.6889
14.4119
15.0444
15.5849
16.0572
16.3971
16.7816
17.519
19.2342
21.4854
24.7319
26.6539
27.8708
29.5941
30.2699
30.5595
30.7785
30.7802
30.7991
30.8471
30.8047
30.9878
31.1374
31.298
31.5197
31.5529
31.6671
3.91461
12.11
11.686
12.4347
13.3837
14.2928
15.0819
15.7272
16.2401
16.6251
16.9606
17.2292
17.5409
18.1058
19.6977
21.7569
24.901
27.4184
28.1944
28.5877
28.4984
28.2762
28.1599
28.1246
28.1723
28.3305
28.5204
28.7066
28.8192
28.9622
29.1331
29.1965
3.92962
12.0253
12.1396
13.059
14.1261
15.0992
15.9022
16.5592
17.0889
17.4995
17.7748
17.9948
18.2059
18.5323
19.0229
20.4886
22.1991
24.4322
26.7024
28.0185
28.6586
28.8366
28.7232
28.5789
28.5378
28.5329
28.6306
28.8524
29.0998
29.2833
29.445
29.4777
4.01073
11.4555
12.479
13.712
14.9608
16.0269
16.8921
17.5822
18.1175
18.5188
18.8265
19.0379
19.2076
19.3928
19.7772
20.2569
21.6135
23.2391
24.6535
25.8422
26.4685
26.6592
26.6705
26.6615
26.7271
26.899
27.1594
27.4619
27.7238
27.9712
28.1936
28.3003
4.26811
12.1801
13.1431
14.6153
15.9807
17.0937
17.9881
18.7128
19.291
19.7342
20.0505
20.284
20.4593
20.6286
20.817
21.2602
21.7114
22.6886
24.0495
25.2368
26.0734
26.5362
26.7383
26.8699
27.0491
27.2881
27.6004
27.9628
28.3286
28.6401
28.8808
28.9928
4.29821
11.7425
13.772
15.5565
17.0376
18.2186
19.1757
19.9517
20.5685
21.0503
21.424
21.6974
21.9034
22.0761
22.2848
22.5052
23.0127
23.5677
24.2385
25.0323
25.7131
26.19
26.5257
26.8173
27.1411
27.5271
27.9669
28.4285
28.8564
29.2289
29.5289
29.6854
4.47409
12.2412
14.5841
16.6117
18.1764
19.4065
20.4124
21.2412
21.9169
22.4589
22.8844
23.2195
23.4804
23.6963
23.8932
24.1592
24.4114
24.8671
25.4561
26.0798
26.6738
27.1744
27.5823
27.9613
28.3733
28.8352
29.3439
29.8727
30.3791
30.8194
31.1556
31.3406
4.58669
5.30058
5.82144
6.64938
7.54103
8.55874
9.53617
10.3114
10.7944
10.8895
10.6726
10.1779
9.54093
8.83088
8.17005
7.57305
7.09033
6.72045
6.4791
6.36196
6.36676
6.49617
6.75273
7.14016
7.64398
8.26388
8.9478
9.67855
10.3238
10.81
10.9976
10.8482
10.2998
9.46044
8.45278
7.41355
6.53957
5.70352
5.21266
4.49328
12.1901
13.2001
13.5792
14.2385
14.6822
15.1258
15.4295
15.6097
15.6766
15.6254
15.5196
15.3605
15.1987
15.0234
14.8755
14.7388
14.6386
14.5603
14.5138
14.487
14.4835
14.5068
14.5527
14.632
14.7355
14.8772
15.0304
15.2126
15.3795
15.5419
15.6484
15.6899
15.6127
15.4052
15.0918
14.6138
14.1732
13.4729
13.1047
12.0324
15.4154
16.0681
16.465
16.9467
17.2442
17.5173
17.6792
17.7682
17.8037
17.779
17.7376
17.6633
17.5934
17.508
17.436
17.3624
17.3049
17.2505
17.2072
17.1727
17.1712
17.2036
17.246
17.3007
17.3598
17.4366
17.5114
17.6002
17.6721
17.7473
17.7889
17.8071
17.7686
17.6605
17.4939
17.1899
16.8888
16.3676
15.9643
15.2946
17.5853
18.032
18.4381
18.7925
19.0587
19.2784
19.4372
19.5417
19.6204
19.6563
19.69
19.7007
19.7214
19.7343
19.7618
19.7906
19.8296
19.8642
19.8927
19.9063
19.9082
19.8954
19.8659
19.8304
19.7913
19.7639
19.7377
19.7266
19.707
19.6958
19.6614
19.6192
19.5367
19.4168
19.2513
19.0079
18.7305
18.3466
17.9232
17.4567
19.1733
19.5411
19.9615
20.2652
20.5559
20.7717
20.9672
21.1067
21.2404
21.3419
21.4532
21.5545
21.6776
21.8084
21.9655
22.136
22.3206
22.4972
22.6461
22.7364
22.7373
22.6464
22.4949
22.3163
22.1309
21.9613
21.8056
21.6767
21.5549
21.4537
21.3412
21.2351
21.096
20.9442
20.7383
20.5034
20.1954
19.8684
19.4258
19.0362
20.4476
20.7898
21.2335
21.5268
21.8506
22.0785
22.3152
22.4934
22.6854
22.8516
23.0409
23.2319
23.4563
23.7016
23.9826
24.2848
24.6004
24.8987
25.1443
25.2896
25.2881
25.1384
24.888
24.5863
24.2694
23.9679
23.6887
23.4457
23.2231
23.0327
22.8426
22.6726
22.4753
22.2873
22.0382
21.793
21.4493
21.134
20.6666
20.3029
21.5093
21.8435
22.3152
22.6138
22.9704
23.2198
23.4985
23.7201
23.9701
24.2007
24.4654
24.7409
25.0584
25.4052
25.7922
26.2022
26.6196
27.0065
27.3169
27.4949
27.4909
27.3051
26.9872
26.5953
26.1757
25.7661
25.3808
25.0364
24.7209
24.4465
24.1811
23.9477
23.6921
23.4625
23.1711
22.9047
22.5281
22.2077
21.7127
21.3579
22.3904
22.7284
23.2314
23.5462
23.9375
24.2167
24.5383
24.8072
25.1128
25.4065
25.7406
26.0926
26.491
26.9226
27.3942
27.8853
28.3744
28.8186
29.1669
29.3605
29.3547
29.1498
28.7919
28.341
27.8486
27.3573
26.887
26.4575
26.061
25.7102
25.3753
25.0794
24.7684
24.492
24.1582
23.8626
23.4523
23.1165
22.5917
22.2338
23.1139
23.4694
24.0079
24.3491
24.7772
25.0916
25.4559
25.7722
26.13
26.482
26.8773
27.2949
27.7591
28.2565
28.7894
29.3346
29.8666
30.3406
30.7039
30.9006
30.8935
30.6832
30.3082
29.8262
29.2896
28.7429
28.2107
27.7149
27.2521
26.8356
26.4395
26.0854
25.7228
25.3992
25.024
24.6937
24.2475
23.8865
23.3284
22.9546
23.7057
24.0883
24.6681
25.0421
25.5091
25.8611
26.267
26.6282
27.0333
27.4362
27.8828
28.3527
28.8663
29.4093
29.9798
30.5534
31.1022
31.5817
31.942
32.1323
32.1246
31.919
31.5458
31.0567
30.5021
29.9258
29.3548
28.8128
28.3001
27.8308
27.3834
26.9785
26.5692
26.2012
25.786
25.4195
24.9356
24.5433
23.9459
23.5478
24.1881
24.6016
25.2299
25.6403
26.1483
26.5381
26.9835
27.3856
27.8317
28.2767
28.7633
29.2712
29.8172
30.3859
30.9723
31.5515
32.0951
32.5612
32.9047
33.0822
33.0741
32.8807
32.5234
32.0467
31.4963
30.9132
30.3251
29.7564
29.2106
28.7029
28.2154
27.7684
27.3187
26.9106
26.4574
26.0547
25.5315
25.1052
24.4618
24.0362
24.5739
25.0258
25.7049
26.1563
26.7059
27.1343
27.6157
28.0545
28.5342
29.0124
29.5273
30.0594
30.6218
31.1985
31.7824
32.3486
32.8702
33.3094
33.6273
33.7882
33.7801
33.6033
33.2713
32.821
32.2916
31.7203
31.1338
30.5561
29.9932
29.4609
28.9449
28.4653
27.9824
27.5387
27.0506
26.6113
26.0488
25.5837
24.8931
24.4318
24.8818
25.374
26.1067
26.6019
27.1945
27.6616
28.1765
28.6475
29.1543
29.6568
30.1896
30.7335
31.2988
31.8691
32.4362
32.9766
33.4654
33.8698
34.1576
34.3005
34.2928
34.1346
33.8328
33.4171
32.9199
32.3739
31.8033
31.231
30.6646
30.1203
29.5864
29.0828
28.5733
28.0989
27.5783
27.1025
26.4989
25.9933
25.252
24.7547
25.1349
25.6637
26.451
26.9916
27.629
28.1356
28.6823
29.182
29.7109
30.2309
30.7733
31.3199
31.8781
32.4322
32.9736
33.4805
33.9311
34.298
34.5551
34.6804
34.6734
34.5336
34.2634
33.8855
33.4263
32.9132
32.3679
31.8114
31.2515
30.7046
30.161
29.6406
29.1094
28.6077
28.0561
27.5429
26.8966
26.349
25.5565
25.0261
25.3668
25.9147
26.758
27.3413
28.0267
28.5734
29.153
29.6794
30.2283
30.7615
31.3093
31.8528
32.3988
32.932
33.4438
33.9153
34.3275
34.6583
34.8867
34.9963
34.9901
34.8675
34.6269
34.2859
33.8655
33.388
32.8719
32.3361
31.7884
31.2444
30.6956
30.1624
29.6118
29.0845
28.5006
27.9488
27.2575
26.67
25.8255
25.2781
25.5871
26.1646
27.0402
27.6718
28.4002
28.9921
29.606
30.1611
30.73
31.2764
31.8289
32.3688
32.9022
33.4146
33.8983
34.3369
34.7146
35.0134
35.2173
35.3138
35.3084
35.2006
34.9861
34.678
34.2927
33.8486
33.3607
32.8457
32.3108
31.7702
31.2174
30.6709
30.1012
29.5453
28.9286
28.3327
27.6024
26.9668
26.096
25.5159
25.8969
26.3942
27.3371
27.9824
28.7683
29.3975
30.0545
30.6389
31.2326
31.7949
32.3553
32.8949
33.4194
33.9154
34.3763
34.7881
35.1378
35.4111
35.5957
35.6822
35.6777
35.5816
35.388
35.1066
34.7502
34.3335
33.8688
33.3704
32.8444
32.3044
31.7439
31.1817
30.588
30.0029
29.3446
28.7121
27.9274
27.2773
26.3451
25.8407
26.2092
26.6879
27.6149
28.3034
29.1172
29.7998
30.493
31.1172
31.7368
32.3222
32.8948
33.4406
33.9622
34.4491
34.8948
35.2878
35.6174
35.8724
36.043
36.1225
36.1189
36.0314
35.8531
35.5913
35.2559
34.8586
34.4097
33.9206
33.3978
32.8517
32.2793
31.6942
31.0752
30.4503
29.7576
29.071
28.2621
27.5652
26.6581
26.1594
26.5613
27.0281
27.8973
28.6203
29.4535
30.1861
30.918
31.5839
32.2348
32.8481
33.4391
33.9972
34.5233
35.0086
35.4471
35.8294
36.1468
36.3902
36.5521
36.6273
36.6244
36.5426
36.3743
36.1253
35.8031
35.417
34.9758
34.4888
33.9617
33.4035
32.8127
32.2003
31.5501
30.8844
30.1522
29.4188
28.586
27.8645
26.9981
26.5392
27.0036
27.3811
28.2035
28.9292
29.7803
30.552
31.323
32.0298
32.7151
33.3589
33.9734
34.5488
35.0854
35.5757
36.014
36.3926
36.7043
36.9418
37.0992
37.1723
37.17
37.0916
36.9289
36.6868
36.3711
35.9894
35.5489
35.0574
34.5202
33.9448
33.331
32.6882
32.0039
31.2977
30.5265
29.7542
28.9037
28.1782
27.36
26.9838
27.4614
27.7588
28.529
29.2467
30.1063
30.908
31.7126
32.4567
33.1754
33.8499
34.4892
35.0846
35.6352
36.1345
36.5774
36.9572
37.268
37.5038
37.6595
37.7323
37.7305
37.6536
37.4936
37.2541
36.9402
36.5579
36.1134
35.6133
35.0626
34.4676
33.8292
33.1558
32.4384
31.6951
30.8901
30.0877
29.2279
28.51
27.7414
27.4436
27.9028
28.1516
28.8848
29.5915
30.4548
31.2768
32.1077
32.8822
33.6295
34.3311
34.9933
35.6077
36.1728
36.6823
37.1318
37.5154
37.8279
38.0641
38.2201
38.2934
38.2921
38.2157
38.0564
37.8174
37.5026
37.1172
36.6667
36.1568
35.592
34.9785
34.3174
33.6171
32.8711
32.0974
31.266
30.4428
29.5785
28.8697
28.1371
27.8838
28.3295
28.5653
29.287
29.9884
30.8554
31.6905
32.5397
33.3361
34.1051
34.8274
35.5076
36.1371
36.7139
37.2322
37.6876
38.075
38.3896
38.6271
38.7838
38.8579
38.8571
38.781
38.6218
38.3822
38.0661
37.6776
37.2217
36.7035
36.1273
35.4989
34.8201
34.0993
33.3315
32.5358
31.6856
30.8486
29.9798
29.275
28.5527
28.3097
28.7681
29.0202
29.7536
30.4588
31.3334
32.1779
33.0395
33.8501
34.6333
35.369
36.0609
36.7001
37.2843
37.8079
38.2669
38.6563
38.972
39.2101
39.3673
39.442
39.4416
39.3657
39.2069
38.9675
38.6509
38.2611
37.8021
37.2789
36.6956
36.0577
35.3672
34.6329
33.8508
33.0405
32.1774
31.3306
30.4533
29.7445
29.0088
28.7519
29.2535
29.5355
30.2963
31.0147
31.9015
32.755
33.6255
34.4455
35.2373
35.9805
36.6784
37.3221
37.9093
38.4344
38.8937
39.2829
39.5979
39.8353
39.9922
40.0671
40.0671
39.9918
39.834
39.5958
39.2804
38.8913
38.4324
37.9079
37.3219
36.6795
35.9831
35.2411
34.4503
33.6303
32.7579
31.9018
31.012
30.2901
29.5273
29.2412
29.7986
30.1162
30.9127
31.651
32.5549
33.419
34.2979
35.125
35.9225
36.67
37.3704
38.0151
38.602
39.1259
39.5834
39.9702
40.2831
40.5188
40.6745
40.749
40.7492
40.6749
40.5188
40.2829
39.9701
39.5835
39.1268
38.6038
38.0182
37.3747
36.6757
35.9294
35.1326
34.3054
33.4244
32.5574
31.6502
30.9082
30.1092
29.7878
30.3862
30.7426
31.5803
32.3443
33.2697
34.1476
35.0363
35.8711
36.6741
37.4249
38.1268
38.7715
39.3569
39.8785
40.333
40.7168
41.0268
41.2601
41.4144
41.4882
41.4887
41.4154
41.2612
41.028
40.7183
40.3351
39.8815
39.361
38.7767
38.1334
37.4329
36.683
35.8807
35.0458
34.1549
33.2742
32.3457
31.5782
30.7384
30.3795
30.9887
31.3876
32.2651
33.0594
34.0086
34.9034
35.8039
36.6479
37.4577
38.2129
38.9172
39.5623
40.1468
40.6665
41.1185
41.4996
41.8071
42.0382
42.191
42.2641
42.2648
42.1925
42.04
41.8093
41.5024
41.122
40.671
40.1524
39.569
38.9252
38.2223
37.468
36.6587
35.8143
34.9115
34.0138
33.0612
32.2638
31.3827
30.9829
31.5629
32.0044
32.9232
33.7496
34.7245
35.6381
36.5522
37.4071
38.2251
38.9861
39.6939
40.3409
40.9259
41.4449
41.8956
42.275
42.5807
42.8103
42.9619
43.0343
43.0351
42.9636
42.8124
42.5833
42.2782
41.8995
41.4497
40.9317
40.3478
39.702
38.9952
38.2349
37.4172
36.5615
35.645
34.7279
33.7496
32.9197
31.9979
31.5535
32.0656
32.5463
33.5035
34.3601
35.3602
36.2927
37.2208
38.0873
38.9143
39.6821
40.3948
41.045
41.6318
42.1516
42.6023
42.9813
43.2863
43.5152
43.6661
43.7382
43.739
43.668
43.5175
43.2892
42.9849
42.6067
42.1568
41.638
41.0522
40.4031
39.6914
38.9241
38.0972
37.2297
36.2988
35.3627
34.3589
33.4979
32.5376
32.0519
32.444
32.9579
33.9463
34.8291
35.8501
36.799
37.7394
38.6163
39.4514
40.2258
40.9434
41.5971
42.1865
42.7079
43.1596
43.539
43.8441
44.0729
44.2236
44.2955
44.2962
44.2255
44.0752
43.847
43.5425
43.1638
42.7129
42.1924
41.6039
40.951
40.2342
39.4604
38.6251
37.7474
36.8042
35.8524
34.8278
33.9426
32.9513
32.4373
32.6634
33.1952
34.2031
35.1002
36.1338
37.092
38.0401
38.9232
39.7637
40.5422
41.2631
41.9195
42.5109
43.0339
43.4866
43.8667
44.1723
44.4014
44.5523
44.6241
44.6249
44.5543
44.404
44.1755
43.8706
43.4912
43.0393
42.5173
41.9268
41.2712
40.551
39.7729
38.9324
38.0485
37.098
36.1364
35.0992
34.198
33.1878
32.6523
95.0516
61.449
52.956
56.2514
62.2812
67.3639
71.5794
75.1044
78.0985
80.729
83.1082
85.2901
87.3415
89.2777
91.1486
92.9709
94.8075
96.6789
98.6156
100.637
102.745
104.937
107.206
109.54
111.923
114.33
116.725
119.059
121.258
123.216
124.75
125.607
94.2191
61.36
52.4469
54.863
60.6666
65.6941
69.8728
73.3764
76.3715
79.0006
81.3599
83.5245
85.5228
87.4181
89.2183
90.9899
92.7489
94.5535
96.4267
98.375
100.406
102.519
104.707
106.959
109.258
111.581
113.892
116.145
118.267
120.157
121.637
122.462
94.665
60.9588
51.393
53.3752
59.0161
63.9794
68.1326
71.6444
74.647
77.2818
79.6512
81.7769
83.7495
85.5804
87.3403
89.0355
90.7435
92.4797
94.2725
96.1474
98.106
100.143
102.252
104.423
106.639
108.877
111.105
113.277
115.323
117.146
118.573
119.366
94.5653
61.7019
51.1274
51.9491
57.3343
62.2655
66.4137
69.9256
72.9532
75.6106
77.9531
80.0836
82.0023
83.8087
85.4971
87.1555
88.7875
90.4592
92.1989
94.0066
95.8904
97.8522
99.8848
101.976
104.111
106.268
108.415
110.506
112.478
114.235
115.609
116.372
76.2297
59.1018
49.9545
50.4683
55.6299
60.5074
64.6445
68.1982
71.2572
73.9187
76.3017
78.3942
80.315
82.0596
83.7284
85.3114
86.9052
88.5204
90.1802
91.9185
93.7372
95.6289
97.5871
99.6033
101.66
103.737
105.805
107.82
109.72
111.413
112.737
113.47
91.4812
61.1122
49.6827
48.9966
53.8586
58.7253
62.9017
66.4697
69.5619
72.2841
74.6306
76.7561
78.6312
80.3799
81.9797
83.5479
85.0724
86.6267
88.2495
89.932
91.6822
93.5045
95.3926
97.3339
99.3157
101.316
103.308
105.249
107.078
108.709
109.984
110.688
86.1651
59.1143
48.7734
47.4943
52.0601
56.8886
61.055
64.6967
67.8571
70.5633
72.9954
75.0851
76.9993
78.6951
80.3074
81.8042
83.3068
84.8234
86.3667
87.9833
89.6768
91.4371
93.2567
95.1295
97.0379
98.9649
100.882
102.751
104.513
106.084
107.312
107.988
87.3753
59.6493
48.3216
46.0248
50.1288
54.9474
59.2244
62.8999
66.0802
68.9178
71.3016
73.4662
75.3321
77.0727
78.6227
80.1355
81.5819
83.0397
84.5673
86.1439
87.7759
89.4724
91.229
93.0319
94.8709
96.7255
98.5718
100.372
102.068
103.581
104.763
105.41
74.914
59.4295
47.8162
44.4062
48.1329
52.9396
57.1877
60.9727
64.3105
67.0912
69.6268
71.7546
73.7141
75.4007
77.0064
78.4566
79.9014
81.3502
82.7986
84.3106
85.8955
87.5387
89.2324
90.9726
92.743
94.5284
96.3038
98.0347
99.6684
101.126
102.264
102.883
77.3727
58.126
47.3642
42.9345
45.8807
50.6317
55.1302
59.0102
62.3134
65.3563
67.8313
70.1036
72.0027
73.7876
75.3274
76.8309
78.2387
79.6287
81.0894
82.5845
84.1158
85.7004
87.3371
89.0112
90.7158
92.4329
94.1409
95.8069
97.378
98.7797
99.8733
100.465
84.687
58.8659
46.6128
41.1083
43.4947
48.2738
52.6797
56.7061
60.3852
63.3017
66.039
68.2611
70.34
72.0646
73.7178
75.1618
76.584
78.0031
79.3827
80.8091
82.3029
83.8437
85.422
87.0388
88.6779
90.3281
91.9669
93.5654
95.076
96.4259
97.4764
98.0392
77.9852
57.3206
46.2213
39.5451
40.5935
45.1373
50.1163
54.4294
57.9239
61.355
64.0043
66.4988
68.4942
70.3998
71.9763
73.5204
74.9335
76.2844
77.7084
79.1487
80.5974
82.0832
83.6107
85.1636
86.7404
88.3246
89.8995
91.4355
92.8852
94.1804
95.1884
95.7238
78.7451
57.595
45.6881
37.714
37.5222
42.1118
46.763
51.245
55.6597
58.827
61.9757
64.3884
66.7039
68.5311
70.3112
71.8022
73.2433
74.6774
76.0157
77.3752
78.7959
80.2491
81.722
83.2231
84.7362
86.2546
87.7606
89.2295
90.6206
91.8655
92.8313
93.3377
72.0171
56.4014
45.2733
35.8662
33.2895
36.9109
43.0561
48.3861
52.1992
56.4765
59.4454
62.3762
64.5762
66.7314
68.4106
70.0653
71.5441
72.891
74.3167
75.736
77.1231
78.5231
79.9519
81.3898
82.843
84.2975
85.7417
87.1512
88.4821
89.6723
90.596
91.0758
57.4755
51.5281
43.6739
33.9896
28.7519
32.486
37.3484
42.919
49.2612
52.8842
56.9533
59.7565
62.5372
64.5647
66.5995
68.2145
69.732
71.244
72.5751
73.8882
75.2563
76.6386
78.0153
79.4071
80.7968
82.1849
83.5583
84.8975
86.1696
87.3114
88.193
88.6426
37.6057
42.5796
39.2334
31.2996
21.3943
19.6169
30.1289
38.684
43.0807
49.7358
53.3502
57.2316
59.8396
62.5034
64.3915
66.267
67.8984
69.2844
70.765
72.2095
73.5606
74.8883
76.228
77.5543
78.8854
80.21
81.5234
82.807
84.0183
85.1036
85.9428
86.3657
13.5793
29.2367
29.9533
24.0709
10.629
16.8632
11.3188
24.6973
38.8598
43.2147
49.9014
53.5438
57.36
59.7633
62.2918
64.1525
65.8333
67.5203
68.8862
70.1735
71.512
72.8425
74.1305
75.4165
76.6814
77.9358
79.1717
80.3769
81.5282
82.5656
83.361
83.7502
10.2032
10.7449
11.5639
7.8238
6.05584
15.9768
4.9025
19.2431
18.7049
38.456
43.3747
49.9637
53.4147
57.209
59.5095
61.8129
63.7385
65.2155
66.8316
68.3704
69.7184
70.986
72.245
73.4587
74.6645
75.8533
77.0319
78.186
79.2739
80.2505
81.003
81.3651
6.63463
8.67671
12.6834
13.913
15.4933
16.5948
17.3821
17.6645
18.9862
12.9212
37.5504
43.3107
50.1187
53.2886
56.8687
59.1965
61.1936
63.2301
64.6849
65.9628
67.2982
68.6003
69.8035
70.9836
72.115
73.2255
74.3106
75.3698
76.3925
77.3211
78.0248
78.3474
5.78961
9.05512
10.2968
15.069
16.3821
17.8215
18.7929
19.5544
19.0215
19.4793
12.9033
37.3789
42.8195
49.7608
52.9132
56.1386
58.6291
60.2629
62.1571
63.9096
65.3031
66.5209
67.7059
68.7977
69.8677
70.9069
71.9417
72.9589
73.9143
74.7733
75.4333
75.7281
3.03514
11.7653
11.9026
2.37981
18.4062
19.7996
3.32082
14.5093
21.8972
20.8379
20.5158
13.2984
37.7779
42.7052
49.2058
52.4714
55.1393
57.9065
59.5279
60.8026
62.1674
63.4764
64.5936
65.6621
66.64
67.585
68.4916
69.3807
70.2592
71.0706
71.6712
71.9148
7.04822
16.9065
21.6422
25.1693
25.1871
20.4612
12.7479
24.4683
9.58604
17.1106
11.5238
11.4807
11.8295
37.3011
42.2154
47.9964
51.7068
53.5818
56.0768
58.2888
59.8229
60.998
62.117
63.0636
63.9774
64.8405
65.7186
66.5887
67.3972
68.123
68.6815
68.8976
6.71836
16.8633
22.248
26.0561
28.826
30.4204
28.9709
18.6888
13.8957
13.9665
19.8029
23.9016
21.098
11.8765
36.2829
41.7458
46.0635
50.6337
52.5382
53.7897
55.2291
56.6207
57.6431
58.5901
59.3729
60.1085
60.78
61.4498
62.1567
62.8392
63.3175
63.455
6.52477
15.6669
21.6583
26.2585
29.4597
31.1972
31.6978
31.9769
25.0498
7.78156
23.5445
19.9293
23.9831
21.4237
11.0865
32.7592
40.713
42.9473
47.0704
50.4079
52.3232
53.4553
54.5296
55.2776
55.9972
56.6412
57.3516
58.076
58.7165
59.2873
59.7307
59.854
5.47539
13.5467
19.1557
23.5265
27.0162
29.7843
31.63
31.6145
31.5714
27.01
24.4202
30.8771
19.8985
23.3153
22.1287
18.1406
28.4569
39.1955
41.5073
42.5007
44.1315
45.8554
46.758
47.5747
48.0716
48.4789
48.7761
49.0825
49.5819
50.1165
50.4498
50.3968
5.52126
12.976
17.7142
21.6115
24.7954
27.3362
29.2562
30.9252
31.2487
31.1861
27.0462
24.6458
30.4906
26.2437
23.5869
23.1931
3.2339
16.5704
29.6348
37.4543
40.5103
41.538
42.6598
43.0461
43.4056
43.827
44.3313
45.107
45.512
45.9394
46.2161
46.1817
4.71302
11.6348
15.2878
18.6076
21.5933
24.2602
26.5484
28.1646
29.6198
30.2616
30.3692
26.4962
25.6221
24.5009
21.5284
17.9644
22.8059
23.303
14.4288
10.1391
14.9592
20.0455
20.747
21.6114
22.3429
20.1182
20.6113
17.7475
17.8234
18.4838
18.4482
19.181
4.79017
11.6045
13.4779
15.6631
18.044
20.4086
22.6453
24.8461
26.6375
28.2649
29.2802
29.6385
25.6557
24.3344
26.5724
26.9705
23.9995
24.1059
4.6633
16.8435
4.03294
4.20051
10.3998
6.1134
28.1474
19.9666
29.1449
10.3085
23.033
10.6725
23.5835
31.8592
4.52403
12.8409
12.2157
13.1193
14.6256
16.4977
18.6026
20.7312
22.9676
24.9823
26.8638
28.1743
28.8001
23.7486
23.6193
17.409
18.2387
20.8518
25.7662
26.2195
26.3865
19.9796
26.7367
5.63286
27.5645
21.0531
6.46017
29.8705
12.4257
29.9087
12.7008
22.7775
4.26278
11.0848
11.8507
12.2568
12.9343
13.9528
15.3091
17.1097
19.1539
21.4196
23.6084
25.7478
27.2744
28.3839
21.9066
12.4586
10.6815
9.49861
21.7248
21.533
21.0433
14.011
28.0873
15.5093
30.3433
24.1927
25.6114
17.9903
6.71223
30.9929
6.74922
11.1467
4.21424
11.5178
11.6442
11.8589
12.3435
13.0308
13.8671
14.8599
16.2522
18.0168
20.192
22.4929
24.9333
26.6084
28.3729
22.4041
12.4672
6.90542
13.5591
21.2528
8.79886
25.5184
15.846
27.3564
25.8691
12.7818
27.139
23.2394
33.4639
14.6634
28.141
32.5595
4.05306
11.5948
11.5741
11.8104
12.3891
13.0901
13.7658
14.4367
15.1126
16.0441
17.3977
19.3947
21.759
24.5376
26.3122
28.6737
25.3032
14.5563
29.5741
28.2392
22.427
31.2731
26.0245
11.9173
33.0277
28.0579
34.0466
6.17061
28.8842
16.6383
25.5416
2.93838
3.90722
11.9684
12.1029
11.8914
12.5064
13.2793
14.0316
14.6862
15.2567
15.7073
16.2583
17.2177
19.0293
21.3988
24.4975
26.3812
28.9306
30.1613
26.6428
21.8807
17.5556
16.6146
16.3973
18.1861
20.4603
20.6827
22.5304
22.4865
21.7858
22.0393
21.5801
23.573
3.92245
11.2246
11.5754
12.155
12.9741
13.8087
14.535
15.1575
15.6791
16.1287
16.454
16.7943
17.4661
19.1161
21.3893
24.6503
26.6489
27.8987
29.5732
30.1783
30.4753
30.6862
30.7165
30.7689
30.7705
30.7851
30.9291
31.1861
31.304
31.4254
31.5474
31.5897
3.90698
11.4781
11.7147
12.4948
13.4836
14.4184
15.2164
15.8639
16.3704
16.737
17.0387
17.2809
17.5557
18.0713
19.5998
21.6656
24.8012
27.4054
28.1904
28.6069
28.5569
28.3163
28.2073
28.1251
28.2143
28.3465
28.4862