/*--------------------------------*- C++ -*----------------------------------*\
| =========                 |                                                 |
| \\      /  F ield         | OpenFOAM: The Open Source CFD Toolbox           |
|  \\    /   O peration     | Version:  3.0.1                                 |
|   \\  /    A nd           | Web:      www.OpenFOAM.org                      |
|    \\/     M anipulation  |                                                 |
\*---------------------------------------------------------------------------*/
FoamFile
{
    version     2.0;
    format      ascii;
    class       volVectorField;
    location    "0";
    object      U;
}
// * * * * * * * * * * * * * * * * * * * * * * * * * * * * * * * * * * * * * //

dimensions      [0 1 -1 0 0 0 0];

internalField   uniform (0.507 0 0);		

boundaryField
{
    inlet		// will be over-written when mapping the fields
    {
        type            fixedValue;
        value           uniform (9999 99999 99999);
    }

    outlet
    {
        type            zeroGradient;
    }

    roughCylinder
    {
        type            fixedValue;
        value           uniform (0 0 0);
    }

    bottom
    {
        type            fixedValue;
        value           uniform (0 0 0);
    }

    top
    {
        type            slip;
    }
    
    sideWall
    {
        type            fixedValue;
        value           uniform (0 0 0);
    }
}


// ************************************************************************* //
