/*--------------------------------*- C++ -*----------------------------------*\
  =========                 |
  \\      /  F ield         | OpenFOAM: The Open Source CFD Toolbox
   \\    /   O peration     | Website:  https://openfoam.org
    \\  /    A nd           | Version:  6
     \\/     M anipulation  |
\*---------------------------------------------------------------------------*/
FoamFile
{
    version     2.0;
    format      ascii;
    class       volVectorField;
    location    "40";
    object      U;
}
// * * * * * * * * * * * * * * * * * * * * * * * * * * * * * * * * * * * * * //

dimensions      [0 1 -1 0 0 0 0];

internalField   nonuniform List<vector> 
720
(
(0.106651 1.43144e-08 -7.71521e-11)
(0.106652 -1.31247e-08 -7.53641e-11)
(0.106651 -1.20187e-09 1.52559e-10)
(0.102623 9.61515e-09 -7.49826e-11)
(0.102624 -6.52468e-09 -1.49815e-10)
(0.102623 -3.10585e-09 2.24953e-10)
(0.0981961 3.85434e-09 -3.19364e-11)
(0.0981975 1.61913e-09 -2.47287e-10)
(0.0981969 -5.49034e-09 2.79428e-10)
(0.093297 -5.36473e-09 3.04029e-11)
(0.0932985 1.5581e-08 -3.66238e-10)
(0.0932981 -1.02311e-08 3.36136e-10)
(0.0877986 -1.50604e-08 7.56564e-11)
(0.0877999 2.8512e-08 -3.72015e-10)
(0.0877997 -1.34655e-08 2.96468e-10)
(0.0815357 -2.1874e-08 7.38037e-11)
(0.0815366 3.88003e-08 -2.40976e-10)
(0.0815368 -1.6945e-08 1.67084e-10)
(0.0742284 -2.00101e-08 5.01476e-11)
(0.0742289 3.30169e-08 -7.55668e-11)
(0.0742296 -1.30236e-08 2.54274e-11)
(0.0653336 -1.20249e-08 4.01006e-11)
(0.0653338 1.85476e-08 2.29652e-11)
(0.0653347 -6.53705e-09 -6.31007e-11)
(0.0540615 -3.442e-09 3.92352e-11)
(0.0540615 4.83459e-09 6.78188e-12)
(0.0540623 -1.39676e-09 -4.61137e-11)
(0.0654567 1.90387e-10 1.62015e-10)
(0.0654567 1.68762e-11 -1.17748e-10)
(0.0654573 -2.0389e-10 -4.42464e-11)
(0.184805 2.3389e-08 -5.03747e-10)
(0.184806 -2.06405e-08 -3.29527e-10)
(0.184805 -2.76923e-09 8.33374e-10)
(0.180724 1.5738e-08 -3.58964e-10)
(0.180725 -1.02462e-08 -5.75155e-10)
(0.180724 -5.51835e-09 9.34389e-10)
(0.175925 6.07471e-09 -1.07196e-10)
(0.175926 2.92912e-09 -9.19625e-10)
(0.175926 -9.03316e-09 1.02708e-09)
(0.170358 -9.87991e-09 1.66516e-10)
(0.17036 2.59008e-08 -1.31173e-09)
(0.170359 -1.60475e-08 1.14563e-09)
(0.163884 -2.69149e-08 3.53414e-10)
(0.163885 4.78126e-08 -1.38051e-09)
(0.163885 -2.09235e-08 1.02731e-09)
(0.156281 -3.93047e-08 3.05194e-10)
(0.156282 6.765e-08 -8.72408e-10)
(0.156282 -2.83802e-08 5.6711e-10)
(0.147139 -3.68222e-08 1.10222e-10)
(0.14714 5.91501e-08 -8.6768e-11)
(0.147141 -2.23603e-08 -2.35121e-11)
(0.135596 -2.31556e-08 -6.71515e-11)
(0.135597 3.44631e-08 4.2679e-10)
(0.135598 -1.13363e-08 -3.60044e-10)
(0.11968 -7.48428e-09 -7.35045e-11)
(0.11968 9.96824e-09 3.63229e-10)
(0.119681 -2.49405e-09 -2.90613e-10)
(0.0851418 1.09716e-10 2.20567e-10)
(0.0851418 1.74057e-10 -1.38155e-10)
(0.0851424 -2.79873e-10 -8.24698e-11)
(0.223154 2.71695e-08 -8.21833e-10)
(0.223156 -2.35457e-08 -5.85077e-10)
(0.223155 -3.64837e-09 1.40699e-09)
(0.218715 1.81514e-08 -5.69092e-10)
(0.218717 -1.16002e-08 -1.05548e-09)
(0.218716 -6.58255e-09 1.6249e-09)
(0.213517 6.75666e-09 -9.42635e-11)
(0.213519 3.57886e-09 -1.74116e-09)
(0.213518 -1.03702e-08 1.83556e-09)
(0.207502 -1.20741e-08 4.29097e-10)
(0.207504 2.98917e-08 -2.50141e-09)
(0.207503 -1.78494e-08 2.0726e-09)
(0.200511 -3.20267e-08 7.74611e-10)
(0.200512 5.49833e-08 -2.70983e-09)
(0.200512 -2.29878e-08 1.93554e-09)
(0.192296 -4.63741e-08 6.24058e-10)
(0.192297 7.85183e-08 -1.70215e-09)
(0.192297 -3.21861e-08 1.0781e-09)
(0.182394 -4.35377e-08 1.63923e-10)
(0.182394 6.89406e-08 -3.73099e-11)
(0.182395 -2.54423e-08 -1.26802e-10)
(0.169799 -2.77036e-08 -2.71569e-10)
(0.1698 4.05441e-08 1.03589e-09)
(0.169801 -1.28756e-08 -7.65339e-10)
(0.1516 -9.50756e-09 -2.86224e-10)
(0.1516 1.23663e-08 9.01971e-10)
(0.151601 -2.87218e-09 -6.17784e-10)
(0.0958164 -3.777e-11 2.76549e-10)
(0.0958164 3.74989e-10 -1.26665e-10)
(0.0958171 -3.33343e-10 -1.501e-10)
(0.24856 2.92256e-08 -1.24102e-09)
(0.248561 -2.50959e-08 -8.97963e-10)
(0.24856 -4.15673e-09 2.13902e-09)
(0.243815 1.93667e-08 -8.26722e-10)
(0.243817 -1.22795e-08 -1.64756e-09)
(0.243816 -7.12148e-09 2.47464e-09)
(0.238263 6.9441e-09 -4.68104e-11)
(0.238265 4.00446e-09 -2.77003e-09)
(0.238264 -1.09863e-08 2.81683e-09)
(0.231835 -1.35185e-08 8.02914e-10)
(0.231837 3.19591e-08 -3.98933e-09)
(0.231836 -1.84753e-08 3.18655e-09)
(0.224354 -3.49616e-08 1.33586e-09)
(0.224356 5.84659e-08 -4.37997e-09)
(0.224356 -2.35386e-08 3.04458e-09)
(0.215542 -5.00293e-08 1.02783e-09)
(0.215543 8.36225e-08 -2.72614e-09)
(0.215543 -3.3639e-08 1.69849e-09)
(0.204873 -4.68818e-08 2.04779e-10)
(0.204874 7.3421e-08 7.87349e-11)
(0.204875 -2.65825e-08 -2.83878e-10)
(0.191158 -2.99986e-08 -5.80014e-10)
(0.191158 4.34224e-08 1.84326e-09)
(0.19116 -1.34622e-08 -1.26507e-09)
(0.170553 -1.07812e-08 -6.09163e-10)
(0.170553 1.38232e-08 1.60672e-09)
(0.170554 -3.05775e-09 -1.001e-09)
(0.106599 -3.06442e-10 3.15757e-10)
(0.106599 7.1005e-10 -4.62285e-11)
(0.1066 -4.00098e-10 -2.70098e-10)
(0.267809 3.0432e-08 -1.76431e-09)
(0.267811 -2.6089e-08 -1.24151e-09)
(0.26781 -4.37172e-09 3.00581e-09)
(0.262797 1.99859e-08 -1.13578e-09)
(0.262798 -1.26912e-08 -2.31823e-09)
(0.262797 -7.33094e-09 3.45448e-09)
(0.256934 6.88062e-09 2.9641e-11)
(0.256935 4.31072e-09 -3.97152e-09)
(0.256934 -1.12311e-08 3.94179e-09)
(0.250143 -1.46121e-08 1.27764e-09)
(0.250145 3.31564e-08 -5.74323e-09)
(0.250144 -1.85808e-08 4.46565e-09)
(0.242228 -3.68658e-08 2.02344e-09)
(0.24223 6.02901e-08 -6.36915e-09)
(0.24223 -2.34607e-08 4.34642e-09)
(0.232879 -5.20353e-08 1.5131e-09)
(0.23288 8.59986e-08 -3.94949e-09)
(0.23288 -3.40115e-08 2.43677e-09)
(0.2215 -4.86264e-08 2.5309e-10)
(0.221501 7.54303e-08 2.20544e-10)
(0.221502 -2.68496e-08 -4.74205e-10)
(0.206692 -3.12667e-08 -9.61086e-10)
(0.206692 4.48889e-08 2.79927e-09)
(0.206693 -1.36626e-08 -1.84098e-09)
(0.183861 -1.17495e-08 -1.01573e-09)
(0.183862 1.49068e-08 2.44596e-09)
(0.183863 -3.17492e-09 -1.43541e-09)
(0.117702 -7.15967e-10 3.1514e-10)
(0.117702 1.19747e-09 1.03264e-10)
(0.117703 -4.78743e-10 -4.19508e-10)
(0.28361 3.11168e-08 -2.39906e-09)
(0.283611 -2.68373e-08 -1.57937e-09)
(0.28361 -4.30963e-09 3.97838e-09)
(0.278357 2.02303e-08 -1.50029e-09)
(0.278358 -1.29916e-08 -3.02418e-09)
(0.278357 -7.27645e-09 4.52505e-09)
(0.272214 6.65106e-09 1.32948e-10)
(0.272216 4.54088e-09 -5.30409e-09)
(0.272215 -1.12329e-08 5.171e-09)
(0.265095 -1.55157e-08 1.85619e-09)
(0.265097 3.38833e-08 -7.72615e-09)
(0.265096 -1.84052e-08 5.86998e-09)
(0.256781 -3.81766e-08 2.83147e-09)
(0.256782 6.12048e-08 -8.6426e-09)
(0.256782 -2.30658e-08 5.81215e-09)
(0.246926 -5.30406e-08 2.07138e-09)
(0.246927 8.67429e-08 -5.35826e-09)
(0.246928 -3.37518e-08 3.28746e-09)
(0.23486 -4.94124e-08 3.10437e-10)
(0.234861 7.59785e-08 3.68831e-10)
(0.234862 -2.66133e-08 -6.80086e-10)
(0.218959 -3.19523e-08 -1.40283e-09)
(0.21896 4.55587e-08 3.86375e-09)
(0.218961 -1.3648e-08 -2.46487e-09)
(0.194215 -1.25737e-08 -1.4914e-09)
(0.194215 1.58062e-08 3.38683e-09)
(0.194216 -3.25173e-09 -1.90264e-09)
(0.129187 -1.27761e-09 2.76344e-10)
(0.129188 1.84116e-09 3.18903e-10)
(0.129188 -5.61939e-10 -5.97121e-10)
(0.297255 3.14232e-08 -3.13821e-09)
(0.297256 -2.75035e-08 -1.86154e-09)
(0.297255 -3.95069e-09 4.99962e-09)
(0.291781 2.01931e-08 -1.91208e-09)
(0.291782 -1.32602e-08 -3.71429e-09)
(0.291781 -6.97138e-09 5.62714e-09)
(0.285379 6.28879e-09 2.52717e-10)
(0.28538 4.71628e-09 -6.72026e-09)
(0.285379 -1.10467e-08 6.46733e-09)
(0.277951 -1.63066e-08 2.53491e-09)
(0.277952 3.43336e-08 -9.89339e-09)
(0.277952 -1.80651e-08 7.35848e-09)
(0.269255 -3.90972e-08 3.75193e-09)
(0.269257 6.15571e-08 -1.11597e-08)
(0.269256 -2.24981e-08 7.40921e-09)
(0.258907 -5.33382e-08 2.69401e-09)
(0.258908 8.63397e-08 -6.9319e-09)
(0.258908 -3.30516e-08 4.23872e-09)
(0.24615 -4.95334e-08 3.71947e-10)
(0.246151 7.55166e-08 5.05844e-10)
(0.246152 -2.60311e-08 -8.78903e-10)
(0.229166 -3.22692e-08 -1.89749e-09)
(0.229166 4.56962e-08 5.00242e-09)
(0.229168 -1.34693e-08 -3.11018e-09)
(0.202924 -1.33322e-08 -2.02178e-09)
(0.202924 1.6602e-08 4.40038e-09)
(0.202926 -3.29051e-09 -2.38817e-09)
(0.141018 -1.98565e-09 1.93556e-10)
(0.141018 2.62188e-09 6.08508e-10)
(0.141019 -6.36135e-10 -8.0502e-10)
(0.309449 3.16328e-08 -4.04414e-09)
(0.30945 -2.80462e-08 -2.01176e-09)
(0.309449 -3.61839e-09 6.0558e-09)
(0.303766 2.0179e-08 -2.41866e-09)
(0.303767 -1.35322e-08 -4.32299e-09)
(0.303766 -6.68587e-09 6.74264e-09)
(0.297117 5.80493e-09 3.75214e-10)
(0.297118 4.85111e-09 -8.16237e-09)
(0.297117 -1.0698e-08 7.78676e-09)
(0.28939 -1.703e-08 3.29764e-09)
(0.289391 3.46262e-08 -1.21839e-08)
(0.28939 -1.76342e-08 8.88623e-09)
(0.280317 -3.9731e-08 4.77274e-09)
(0.280318 6.15408e-08 -1.3865e-08)
(0.280318 -2.18482e-08 9.09412e-09)
(0.26947 -5.30824e-08 3.37094e-09)
(0.269471 8.50296e-08 -8.64441e-09)
(0.269471 -3.19973e-08 5.27457e-09)
(0.256012 -4.91522e-08 4.29719e-10)
(0.256013 7.42799e-08 6.14061e-10)
(0.256014 -2.51759e-08 -1.04522e-09)
(0.237992 -3.2342e-08 -2.43617e-09)
(0.237993 4.54262e-08 6.18097e-09)
(0.237994 -1.31269e-08 -3.75154e-09)
(0.210732 -1.40673e-08 -2.58905e-09)
(0.210732 1.73292e-08 5.45411e-09)
(0.210733 -3.28391e-09 -2.8773e-09)
(0.153077 -2.81208e-09 5.22536e-11)
(0.153077 3.49322e-09 9.82845e-10)
(0.153078 -6.82839e-10 -1.03955e-09)
(0.320613 3.1416e-08 -5.13855e-09)
(0.320614 -2.81802e-08 -1.91384e-09)
(0.320613 -3.26799e-09 7.05233e-09)
(0.314728 1.9983e-08 -3.03342e-09)
(0.314728 -1.36239e-08 -4.74298e-09)
(0.314727 -6.39814e-09 7.77772e-09)
(0.307836 5.1966e-09 5.33603e-10)
(0.307837 4.95991e-09 -9.5774e-09)
(0.307836 -1.0198e-08 9.04337e-09)
(0.299812 -1.77177e-08 4.12296e-09)
(0.299812 3.4855e-08 -1.4519e-08)
(0.299812 -1.7175e-08 1.03959e-08)
(0.290356 -4.01176e-08 5.86232e-09)
(0.290357 6.1284e-08 -1.66739e-08)
(0.290356 -2.12045e-08 1.08138e-08)
(0.278997 -5.23671e-08 4.0819e-09)
(0.278998 8.29346e-08 -1.04568e-08)
(0.278998 -3.06169e-08 6.37627e-09)
(0.264832 -4.83758e-08 4.71103e-10)
(0.264833 7.2407e-08 6.79288e-10)
(0.264834 -2.40791e-08 -1.15218e-09)
(0.245884 -3.22514e-08 -3.00639e-09)
(0.245885 4.48054e-08 7.36198e-09)
(0.245886 -1.25967e-08 -4.36398e-09)
(0.2181 -1.47993e-08 -3.17195e-09)
(0.2181 1.7997e-08 6.50805e-09)
(0.218102 -3.22098e-09 -3.35133e-09)
(0.165181 -3.70659e-09 -1.6642e-10)
(0.165181 4.38531e-09 1.44648e-09)
(0.165182 -6.82258e-10 -1.28656e-09)
(0.331015 3.05804e-08 -6.48545e-09)
(0.331016 -2.77462e-08 -1.39757e-09)
(0.331014 -2.86655e-09 7.88298e-09)
(0.32493 1.9437e-08 -3.81209e-09)
(0.32493 -1.33811e-08 -4.81807e-09)
(0.324929 -6.09457e-09 8.6318e-09)
(0.317795 4.65584e-09 6.39332e-10)
(0.317796 5.06409e-09 -1.0847e-08)
(0.317795 -9.76066e-09 1.02073e-08)
(0.309467 -1.84e-08 5.06134e-09)
(0.309467 3.51184e-08 -1.68565e-08)
(0.309466 -1.67548e-08 1.1795e-08)
(0.299615 -4.02283e-08 6.97542e-09)
(0.299616 6.08873e-08 -1.94593e-08)
(0.299615 -2.06962e-08 1.24866e-08)
(0.28773 -5.12599e-08 4.79395e-09)
(0.287731 8.01034e-08 -1.2309e-08)
(0.287731 -2.88916e-08 7.51683e-09)
(0.272875 -4.72865e-08 4.82139e-10)
(0.272875 6.99895e-08 6.96582e-10)
(0.272876 -2.27502e-08 -1.18085e-09)
(0.253171 -3.20519e-08 -3.59124e-09)
(0.253171 4.38526e-08 8.50137e-09)
(0.253173 -1.18433e-08 -4.92034e-09)
(0.225333 -1.55303e-08 -3.74893e-09)
(0.225333 1.85979e-08 7.5141e-09)
(0.225335 -3.09191e-09 -3.78371e-09)
(0.177114 -4.60385e-09 -4.81018e-10)
(0.177114 5.21851e-09 1.98931e-09)
(0.177115 -6.1981e-10 -1.51749e-09)
(0.340833 2.90696e-08 -8.18711e-09)
(0.340833 -2.67069e-08 -2.37104e-10)
(0.340831 -2.39465e-09 8.42408e-09)
(0.334545 1.85222e-08 -4.85137e-09)
(0.334545 -1.27859e-08 -4.34448e-09)
(0.334544 -5.77395e-09 9.19774e-09)
(0.327161 4.18988e-09 6.51119e-10)
(0.327162 5.17261e-09 -1.1803e-08)
(0.327161 -9.40175e-09 1.11517e-08)
(0.318517 -1.86573e-08 6.01291e-09)
(0.318517 3.50547e-08 -1.90634e-08)
(0.318516 -1.64322e-08 1.30502e-08)
(0.308253 -4.01109e-08 8.0573e-09)
(0.308254 6.04495e-08 -2.20778e-08)
(0.308253 -2.03743e-08 1.4024e-08)
(0.295835 -4.98194e-08 5.4516e-09)
(0.295836 7.65232e-08 -1.41099e-08)
(0.295836 -2.675e-08 8.66046e-09)
(0.28034 -4.59525e-08 4.45636e-10)
(0.280341 6.70981e-08 6.72744e-10)
(0.280342 -2.11916e-08 -1.12078e-09)
(0.260111 -3.17778e-08 -4.17272e-09)
(0.260112 4.26275e-08 9.5591e-09)
(0.260113 -1.0892e-08 -5.39856e-09)
(0.232635 -1.6246e-08 -4.30425e-09)
(0.232635 1.91146e-08 8.41883e-09)
(0.232636 -2.8937e-09 -4.13678e-09)
(0.188657 -5.43701e-09 -9.04654e-10)
(0.188657 5.92611e-09 2.57775e-09)
(0.188658 -4.95249e-10 -1.68578e-09)
(0.350185 2.67883e-08 -1.03434e-08)
(0.350185 -2.49712e-08 1.76974e-09)
(0.350184 -1.84897e-09 8.57334e-09)
(0.343688 1.72077e-08 -6.29965e-09)
(0.343688 -1.17931e-08 -3.10753e-09)
(0.343687 -5.45115e-09 9.40916e-09)
(0.336045 3.83568e-09 3.96258e-10)
(0.336045 5.28305e-09 -1.2186e-08)
(0.336044 -9.15627e-09 1.17895e-08)
(0.327069 -1.80713e-08 6.93858e-09)
(0.327069 3.43243e-08 -2.09805e-08)
(0.327068 -1.62852e-08 1.40411e-08)
(0.316379 -3.98384e-08 9.28547e-09)
(0.31638 6.0107e-08 -2.45528e-08)
(0.316379 -2.03018e-08 1.52724e-08)
(0.303439 -4.81101e-08 5.98128e-09)
(0.30344 7.21151e-08 -1.57197e-08)
(0.30344 -2.40488e-08 9.74127e-09)
(0.287401 -4.44299e-08 3.38306e-10)
(0.287402 6.38054e-08 6.23479e-10)
(0.287403 -1.94199e-08 -9.64311e-10)
(0.266916 -3.14494e-08 -4.73245e-09)
(0.266917 4.12011e-08 1.04968e-08)
(0.266918 -9.79343e-09 -5.77866e-09)
(0.240135 -1.6924e-08 -4.83112e-09)
(0.240135 1.95298e-08 9.1729e-09)
(0.240136 -2.63119e-09 -4.368e-09)
(0.199623 -6.15332e-09 -1.44004e-09)
(0.199623 6.47925e-09 3.14728e-09)
(0.199624 -3.32002e-10 -1.72425e-09)
(0.359153 2.47279e-08 -1.32345e-08)
(0.359153 -2.34223e-08 4.99471e-09)
(0.359151 -1.33617e-09 8.23944e-09)
(0.352436 1.60773e-08 -8.35061e-09)
(0.352436 -1.09123e-08 -8.42049e-10)
(0.352434 -5.19941e-09 9.19497e-09)
(0.344519 3.63705e-09 -1.9588e-10)
(0.344519 5.39501e-09 -1.19009e-08)
(0.344517 -9.06687e-09 1.20964e-08)
(0.335194 -1.64892e-08 7.56852e-09)
(0.335194 3.28689e-08 -2.23252e-08)
(0.335193 -1.64088e-08 1.47551e-08)
(0.324074 -3.78563e-08 1.03021e-08)
(0.324074 5.79998e-08 -2.64196e-08)
(0.324073 -2.01735e-08 1.61239e-08)
(0.310651 -4.62505e-08 6.33994e-09)
(0.310651 6.67366e-08 -1.68573e-08)
(0.310651 -2.05268e-08 1.05211e-08)
(0.294213 -4.27598e-08 1.23123e-10)
(0.294214 6.02145e-08 5.82251e-10)
(0.294214 -1.74971e-08 -7.07858e-10)
(0.273754 -3.10782e-08 -5.25869e-09)
(0.273755 3.96707e-08 1.12884e-08)
(0.273756 -8.63353e-09 -6.04632e-09)
(0.247898 -1.75399e-08 -5.33229e-09)
(0.247899 1.9855e-08 9.72881e-09)
(0.2479 -2.33994e-09 -4.42718e-09)
(0.209887 -6.72557e-09 -2.07711e-09)
(0.209887 6.90484e-09 3.60288e-09)
(0.209889 -1.83685e-10 -1.54795e-09)
(0.367786 2.2817e-08 -1.6978e-08)
(0.367785 -2.18227e-08 9.63415e-09)
(0.367783 -1.02306e-09 7.34352e-09)
(0.360833 1.51187e-08 -1.1134e-08)
(0.360833 -1.00449e-08 2.64068e-09)
(0.360831 -5.10547e-09 8.49587e-09)
(0.352625 3.65743e-09 -1.38681e-09)
(0.352625 5.42413e-09 -1.06301e-08)
(0.352624 -9.11291e-09 1.20163e-08)
(0.34294 -1.48723e-08 7.95967e-09)
(0.342939 3.14703e-08 -2.30855e-08)
(0.342938 -1.66227e-08 1.5124e-08)
(0.331401 -3.40153e-08 1.10116e-08)
(0.331401 5.40351e-08 -2.7433e-08)
(0.3314 -2.00459e-08 1.64287e-08)
(0.317572 -4.43447e-08 6.58018e-09)
(0.317572 6.22654e-08 -1.76973e-08)
(0.317572 -1.79578e-08 1.11216e-08)
(0.300917 -4.09704e-08 -2.56504e-10)
(0.300918 5.64846e-08 6.85855e-10)
(0.300918 -1.55541e-08 -4.31798e-10)
(0.280751 -3.0669e-08 -5.75303e-09)
(0.280752 3.81869e-08 1.19386e-08)
(0.280753 -7.55792e-09 -6.20441e-09)
(0.255933 -1.8067e-08 -5.82176e-09)
(0.255934 2.01442e-08 1.00533e-08)
(0.255935 -2.1005e-09 -4.26718e-09)
(0.219398 -7.15653e-09 -2.79076e-09)
(0.219398 7.28672e-09 3.83348e-09)
(0.2194 -1.3082e-10 -1.07083e-09)
(0.376106 2.09943e-08 -2.16463e-08)
(0.376106 -1.9946e-08 1.58503e-08)
(0.376104 -1.07448e-09 5.79551e-09)
(0.368901 1.43358e-08 -1.4708e-08)
(0.3689 -9.10346e-09 7.44908e-09)
(0.368899 -5.26051e-09 7.26152e-09)
(0.360387 3.94819e-09 -3.2493e-09)
(0.360386 5.32731e-09 -8.27061e-09)
(0.360385 -9.30257e-09 1.15187e-08)
(0.350338 -1.30435e-08 7.73624e-09)
(0.350338 2.9758e-08 -2.28651e-08)
(0.350337 -1.67338e-08 1.51263e-08)
(0.338422 -3.04851e-08 1.17467e-08)
(0.338422 5.03858e-08 -2.79896e-08)
(0.338421 -1.99216e-08 1.62515e-08)
(0.324303 -4.22305e-08 6.92206e-09)
(0.324303 5.88031e-08 -1.80054e-08)
(0.324303 -1.66049e-08 1.10902e-08)
(0.307637 -3.90673e-08 -8.48962e-10)
(0.307638 5.27473e-08 1.21767e-09)
(0.307638 -1.37168e-08 -3.71553e-10)
(0.287987 -3.02188e-08 -6.23235e-09)
(0.287987 3.69405e-08 1.24942e-08)
(0.287988 -6.76036e-09 -6.28304e-09)
(0.264188 -1.84978e-08 -6.31041e-09)
(0.264189 2.05141e-08 1.01297e-08)
(0.26419 -2.03665e-09 -3.86037e-09)
(0.228171 -7.48024e-09 -3.54039e-09)
(0.228171 7.75123e-09 3.74014e-09)
(0.228172 -2.6508e-10 -2.34409e-10)
(0.384116 1.92238e-08 -2.71468e-08)
(0.384116 -1.75642e-08 2.36122e-08)
(0.384114 -1.68253e-09 3.5332e-09)
(0.376639 1.37549e-08 -1.89807e-08)
(0.376638 -8.02327e-09 1.35411e-08)
(0.376637 -5.75544e-09 5.4418e-09)
(0.367808 4.59981e-09 -5.7969e-09)
(0.367807 5.0391e-09 -4.82525e-09)
(0.367806 -9.66082e-09 1.06201e-08)
(0.357415 -1.08165e-08 6.83276e-09)
(0.357415 2.74664e-08 -2.1653e-08)
(0.357413 -1.66626e-08 1.48167e-08)
(0.345197 -2.69311e-08 1.19105e-08)
(0.345196 4.63239e-08 -2.74288e-08)
(0.345195 -1.94072e-08 1.55288e-08)
(0.330939 -3.76158e-08 6.55607e-09)
(0.330939 5.33633e-08 -1.68265e-08)
(0.330938 -1.57746e-08 1.02801e-08)
(0.314471 -3.70624e-08 -1.58097e-09)
(0.314471 4.90354e-08 2.34296e-09)
(0.314471 -1.20066e-08 -7.65123e-10)
(0.295486 -2.97249e-08 -6.72119e-09)
(0.295486 3.61391e-08 1.30134e-08)
(0.295487 -6.45089e-09 -6.3156e-09)
(0.272563 -1.88444e-08 -6.81313e-09)
(0.272563 2.11478e-08 9.96815e-09)
(0.272564 -2.31905e-09 -3.20207e-09)
(0.236261 -7.75746e-09 -4.27638e-09)
(0.236261 8.43685e-09 3.28484e-09)
(0.236263 -6.63481e-10 9.49912e-10)
(0.391794 1.75098e-08 -3.30819e-08)
(0.391793 -1.44902e-08 3.25039e-08)
(0.391792 -3.03846e-09 5.74491e-10)
(0.384026 1.34325e-08 -2.36341e-08)
(0.384026 -6.80836e-09 2.05693e-08)
(0.384024 -6.64267e-09 3.0659e-09)
(0.374881 5.73365e-09 -8.84601e-09)
(0.374881 4.41201e-09 -4.71544e-10)
(0.374879 -1.01615e-08 9.31387e-09)
(0.364191 -8.02048e-09 5.30732e-09)
(0.364191 2.43393e-08 -1.94936e-08)
(0.364189 -1.63234e-08 1.41814e-08)
(0.351782 -2.31141e-08 1.12628e-08)
(0.351782 4.15005e-08 -2.55303e-08)
(0.351781 -1.83926e-08 1.42802e-08)
(0.337561 -3.35605e-08 5.97189e-09)
(0.337561 4.91746e-08 -1.45488e-08)
(0.33756 -1.56352e-08 8.59016e-09)
(0.321475 -3.52173e-08 -2.36496e-09)
(0.321475 4.5342e-08 4.06773e-09)
(0.321475 -1.01548e-08 -1.70519e-09)
(0.303215 -2.92711e-08 -7.26213e-09)
(0.303216 3.60566e-08 1.35057e-08)
(0.303216 -6.81999e-09 -6.26996e-09)
(0.280913 -1.9179e-08 -7.33034e-09)
(0.280913 2.22815e-08 9.6236e-09)
(0.280915 -3.1116e-09 -2.34689e-09)
(0.243735 -8.06787e-09 -4.96342e-09)
(0.243736 9.4605e-09 2.55725e-09)
(0.243737 -1.3624e-09 2.35725e-09)
(0.399095 1.59393e-08 -3.87136e-08)
(0.399094 -1.08168e-08 4.1642e-08)
(0.399093 -5.13648e-09 -2.93464e-09)
(0.391027 1.34661e-08 -2.80892e-08)
(0.391026 -5.63037e-09 2.77641e-08)
(0.391025 -7.84806e-09 3.23681e-10)
(0.381591 7.5131e-09 -1.20442e-08)
(0.38159 3.15902e-09 4.3253e-09)
(0.381589 -1.06811e-08 7.71223e-09)
(0.370685 -4.45736e-09 3.30966e-09)
(0.370684 2.00387e-08 -1.65215e-08)
(0.370683 -1.55761e-08 1.32052e-08)
(0.35823 -1.87945e-08 9.80464e-09)
(0.35823 3.56778e-08 -2.23061e-08)
(0.358228 -1.68793e-08 1.25168e-08)
(0.344223 -2.96817e-08 4.72532e-09)
(0.344223 4.50669e-08 -1.06763e-08)
(0.344222 -1.53998e-08 5.96888e-09)
(0.328655 -3.31347e-08 -3.35763e-09)
(0.328655 4.39394e-08 6.7001e-09)
(0.328655 -1.08317e-08 -3.34329e-09)
(0.311078 -2.89119e-08 -7.90201e-09)
(0.311079 3.70039e-08 1.41385e-08)
(0.311079 -8.12438e-09 -6.26621e-09)
(0.289069 -1.9544e-08 -7.88078e-09)
(0.28907 2.41598e-08 9.28276e-09)
(0.289071 -4.61537e-09 -1.46207e-09)
(0.250645 -8.46988e-09 -5.60425e-09)
(0.250645 1.08724e-08 1.87008e-09)
(0.250647 -2.35253e-09 3.67831e-09)
(0.405951 1.47297e-08 -4.30006e-08)
(0.405951 -7.01089e-09 4.94287e-08)
(0.40595 -7.7273e-09 -6.43057e-09)
(0.397585 1.40015e-08 -3.15008e-08)
(0.397584 -4.9403e-09 3.38874e-08)
(0.397584 -9.06674e-09 -2.39096e-09)
(0.38791 1.01502e-08 -1.48307e-08)
(0.38791 7.88026e-10 8.77285e-09)
(0.387909 -1.09396e-08 6.04687e-09)
(0.376904 9.83518e-11 1.10901e-09)
(0.376904 1.41063e-08 -1.29997e-08)
(0.376903 -1.41872e-08 1.18813e-08)
(0.364566 -1.37282e-08 7.66075e-09)
(0.364566 2.85362e-08 -1.79037e-08)
(0.364565 -1.47915e-08 1.02611e-08)
(0.350933 -2.56603e-08 2.78793e-09)
(0.350933 4.04206e-08 -5.71185e-09)
(0.350932 -1.47682e-08 2.94636e-09)
(0.335948 -3.12967e-08 -4.66646e-09)
(0.335948 4.36756e-08 1.00823e-08)
(0.335947 -1.24042e-08 -5.41556e-09)
(0.318915 -2.87056e-08 -8.66641e-09)
(0.318915 3.87591e-08 1.52084e-08)
(0.318916 -1.00847e-08 -6.57361e-09)
(0.29685 -1.99979e-08 -8.47345e-09)
(0.29685 2.66191e-08 9.28456e-09)
(0.296852 -6.6087e-09 -8.75763e-10)
(0.257005 -8.98257e-09 -6.25625e-09)
(0.257006 1.25087e-08 1.74317e-09)
(0.257008 -3.45097e-09 4.4521e-09)
(0.41227 1.42851e-08 -4.51485e-08)
(0.41227 -4.11822e-09 5.21936e-08)
(0.41227 -1.0173e-08 -7.03594e-09)
(0.403629 1.52213e-08 -3.2867e-08)
(0.403629 -5.58327e-09 3.72142e-08)
(0.403629 -9.63812e-09 -4.35239e-09)
(0.393799 1.38997e-08 -1.64886e-08)
(0.393799 -3.40514e-09 1.18186e-08)
(0.393799 -1.0488e-08 4.65697e-09)
(0.382834 5.8596e-09 -9.01768e-10)
(0.382833 5.98367e-09 -9.35419e-09)
(0.382832 -1.18112e-08 1.02438e-08)
(0.370773 -7.67482e-09 5.09412e-09)
(0.370773 1.96459e-08 -1.27182e-08)
(0.370771 -1.19394e-08 7.64472e-09)
(0.357628 -2.1183e-08 3.94113e-10)
(0.357627 3.47267e-08 -3.83766e-10)
(0.357626 -1.35455e-08 1.61523e-11)
(0.343206 -2.94041e-08 -6.1771e-09)
(0.343206 4.27101e-08 1.34981e-08)
(0.343206 -1.33323e-08 -7.31949e-09)
(0.326502 -2.8529e-08 -9.51128e-09)
(0.326502 4.0472e-08 1.65491e-08)
(0.326502 -1.19746e-08 -7.07052e-09)
(0.304067 -2.04431e-08 -9.09891e-09)
(0.304067 2.89504e-08 9.82275e-09)
(0.304069 -8.48143e-09 -7.9013e-10)
(0.262792 -9.50342e-09 -6.99403e-09)
(0.262792 1.39498e-08 2.54395e-09)
(0.262794 -4.34215e-09 4.38622e-09)
(0.417929 1.35171e-08 -4.23694e-08)
(0.417929 -2.86537e-09 5.09612e-08)
(0.41793 -1.06437e-08 -8.58981e-09)
(0.409063 1.73735e-08 -3.12852e-08)
(0.409063 -8.35594e-09 3.54577e-08)
(0.409064 -9.01304e-09 -4.1795e-09)
(0.399184 1.90462e-08 -1.64767e-08)
(0.399184 -1.01797e-08 1.2237e-08)
(0.399184 -8.85406e-09 4.22271e-09)
(0.388404 1.29108e-08 -2.25976e-09)
(0.388403 -4.83653e-09 -6.13513e-09)
(0.388403 -8.02572e-09 8.38212e-09)
(0.376751 -5.25105e-10 2.55013e-09)
(0.376751 8.67599e-09 -7.4843e-09)
(0.376749 -8.10135e-09 4.95757e-09)
(0.364142 -1.60495e-08 -1.96342e-09)
(0.364142 2.76015e-08 4.35767e-09)
(0.36414 -1.15493e-08 -2.36437e-09)
(0.350183 -2.71297e-08 -7.5071e-09)
(0.350183 4.03591e-08 1.59815e-08)
(0.350182 -1.32612e-08 -8.47115e-09)
(0.333552 -2.81231e-08 -1.00977e-08)
(0.333553 4.11763e-08 1.74433e-08)
(0.333553 -1.30886e-08 -7.37764e-09)
(0.310523 -2.06389e-08 -9.53945e-09)
(0.310524 3.04128e-08 1.06198e-08)
(0.310526 -9.73439e-09 -1.14461e-09)
(0.267929 -9.84066e-09 -7.67915e-09)
(0.26793 1.47596e-08 4.064e-09)
(0.267932 -4.78452e-09 3.55069e-09)
(0.422763 1.40864e-08 -3.54934e-08)
(0.422763 -3.97133e-09 4.26969e-08)
(0.422764 -1.00958e-08 -7.21427e-09)
(0.413741 2.0587e-08 -2.62583e-08)
(0.413741 -1.34854e-08 2.97219e-08)
(0.413742 -7.09049e-09 -3.47306e-09)
(0.403922 2.46046e-08 -1.38346e-08)
(0.403922 -1.98251e-08 1.04221e-08)
(0.403922 -4.75496e-09 3.38732e-09)
(0.393443 2.10099e-08 -2.62571e-09)
(0.393443 -1.83319e-08 -3.7072e-09)
(0.393443 -2.60786e-09 6.32079e-09)
(0.382271 7.52678e-09 5.32723e-10)
(0.382271 -4.23401e-09 -3.06799e-09)
(0.382269 -3.22392e-09 2.56232e-09)
(0.370168 -1.03431e-08 -3.59094e-09)
(0.370167 1.90416e-08 7.32622e-09)
(0.370166 -8.69515e-09 -3.70306e-09)
(0.356504 -2.44548e-08 -7.89401e-09)
(0.356504 3.64299e-08 1.62578e-08)
(0.356503 -1.20193e-08 -8.35899e-09)
(0.339712 -2.72745e-08 -9.75457e-09)
(0.339712 4.03501e-08 1.67078e-08)
(0.339713 -1.31201e-08 -6.98232e-09)
(0.315993 -2.03876e-08 -9.20754e-09)
(0.315994 3.06243e-08 1.07183e-08)
(0.315996 -1.01872e-08 -1.56869e-09)
(0.272284 -9.85973e-09 -7.7506e-09)
(0.272285 1.47432e-08 5.36274e-09)
(0.272287 -4.72352e-09 2.32633e-09)
(0.426519 1.5829e-08 -2.3773e-08)
(0.42652 -7.95316e-09 2.79978e-08)
(0.426521 -7.84831e-09 -4.22764e-09)
(0.417416 2.44646e-08 -1.76177e-08)
(0.417417 -2.06278e-08 1.94264e-08)
(0.417418 -3.823e-09 -1.81354e-09)
(0.407733 3.0848e-08 -9.28084e-09)
(0.407733 -3.08224e-08 6.51406e-09)
(0.407734 8.27517e-12 2.74374e-09)
(0.397602 2.9363e-08 -2.0546e-09)
(0.397601 -3.31636e-08 -1.98021e-09)
(0.397601 3.89736e-09 4.02451e-09)
(0.38689 1.5689e-08 -5.82684e-10)
(0.38689 -1.75785e-08 -2.17075e-10)
(0.386888 1.97915e-09 8.28107e-10)
(0.375181 -4.7821e-09 -3.69e-09)
(0.375181 1.00194e-08 7.32046e-09)
(0.375179 -5.24075e-09 -3.60043e-09)
(0.361627 -2.16526e-08 -6.50954e-09)
(0.361627 3.16703e-08 1.29525e-08)
(0.361626 -1.00841e-08 -6.4387e-09)
(0.344531 -2.60657e-08 -7.6051e-09)
(0.344531 3.83905e-08 1.28692e-08)
(0.344532 -1.23845e-08 -5.28792e-09)
(0.320182 -1.97452e-08 -7.20532e-09)
(0.320183 2.98895e-08 8.6957e-09)
(0.320185 -1.00896e-08 -1.536e-09)
(0.275637 -9.60774e-09 -6.31364e-09)
(0.275637 1.41578e-08 5.12317e-09)
(0.275639 -4.37146e-09 1.13922e-09)
(0.428774 1.79093e-08 -8.39199e-09)
(0.428774 -1.28381e-08 9.75913e-09)
(0.428776 -5.0412e-09 -1.36476e-09)
(0.419646 2.79683e-08 -6.22505e-09)
(0.419647 -2.73656e-08 6.74429e-09)
(0.419648 -5.91552e-10 -5.19498e-10)
(0.410092 3.6028e-08 -3.26153e-09)
(0.410092 -3.98138e-08 2.17172e-09)
(0.410093 3.82438e-09 1.08078e-09)
(0.400224 3.58068e-08 -7.79046e-10)
(0.400224 -4.51109e-08 -5.77994e-10)
(0.400223 9.42624e-09 1.35302e-09)
(0.389825 2.16534e-08 -4.50289e-10)
(0.389825 -2.71591e-08 3.91752e-10)
(0.389823 5.61321e-09 7.24766e-11)
(0.378335 -8.86423e-10 -1.65602e-09)
(0.378335 3.47059e-09 3.24028e-09)
(0.378333 -2.60212e-09 -1.57071e-09)
(0.36477 -1.9742e-08 -2.6231e-09)
(0.36477 2.79512e-08 5.11526e-09)
(0.364769 -8.30376e-09 -2.49061e-09)
(0.347406 -2.50674e-08 -2.96728e-09)
(0.347407 3.64026e-08 4.97996e-09)
(0.347408 -1.14132e-08 -2.02288e-09)
(0.322652 -1.91138e-08 -2.82145e-09)
(0.322653 2.8882e-08 3.47274e-09)
(0.322655 -9.71354e-09 -6.70069e-10)
(0.277626 -9.10835e-09 -2.54246e-09)
(0.277627 1.33673e-08 2.22108e-09)
(0.277629 -4.0683e-09 2.99479e-10)
)
;

boundaryField
{
    freeSurface
    {
        type            slip;
    }
    inlet
    {
        type            cyclic;
    }
    outlet
    {
        type            cyclic;
    }
    sidewalls
    {
        type            fixedValue;
        value           uniform (0 0 0);
    }
    noSlipWalls
    {
        type            fixedValue;
        value           uniform (0 0 0);
    }
    procBoundary2to1
    {
        type            processor;
        value           nonuniform List<vector> 
72
(
(0.110312 1.52904e-08 -4.37423e-11)
(0.110313 -1.50226e-08 -8.43023e-12)
(0.110312 -2.85282e-10 5.21205e-11)
(0.18815 2.46681e-08 -5.53712e-10)
(0.18815 -2.34598e-08 -4.93483e-11)
(0.18815 -1.23686e-09 6.02906e-10)
(0.22682 2.86346e-08 -8.94793e-10)
(0.226821 -2.68231e-08 -8.00256e-11)
(0.22682 -1.84502e-09 9.74517e-10)
(0.252486 3.07984e-08 -1.36506e-09)
(0.252487 -2.86635e-08 -1.12939e-10)
(0.252486 -2.17162e-09 1.47749e-09)
(0.271965 3.20669e-08 -1.95333e-09)
(0.271966 -2.98766e-08 -1.33543e-10)
(0.271965 -2.22901e-09 2.08611e-09)
(0.287971 3.30574e-08 -2.68654e-09)
(0.287972 -3.0797e-08 -1.1963e-10)
(0.287971 -2.30094e-09 2.80511e-09)
(0.301805 3.38268e-08 -3.57881e-09)
(0.301806 -3.15236e-08 -3.03395e-11)
(0.301805 -2.34496e-09 3.60773e-09)
(0.314176 3.42974e-08 -4.66389e-09)
(0.314177 -3.20119e-08 2.01729e-10)
(0.314175 -2.32809e-09 4.46034e-09)
(0.325509 3.41822e-08 -5.98041e-09)
(0.32551 -3.20051e-08 6.71783e-10)
(0.325509 -2.22006e-09 5.30641e-09)
(0.336077 3.33579e-08 -7.58871e-09)
(0.336078 -3.14046e-08 1.52965e-09)
(0.336077 -1.99635e-09 6.05642e-09)
(0.346061 3.17619e-08 -9.57342e-09)
(0.346061 -3.01628e-08 2.97731e-09)
(0.34606 -1.64148e-09 6.59294e-09)
(0.355584 2.92838e-08 -1.19684e-08)
(0.355584 -2.81726e-08 5.17782e-09)
(0.355582 -1.15352e-09 6.78664e-09)
(0.364729 2.70199e-08 -1.50952e-08)
(0.364729 -2.6497e-08 8.55669e-09)
(0.364727 -5.63579e-10 6.53392e-09)
(0.373551 2.48912e-08 -1.90773e-08)
(0.373551 -2.48747e-08 1.33342e-08)
(0.373549 -5.50983e-11 5.7378e-09)
(0.382078 2.28114e-08 -2.4029e-08)
(0.382078 -2.30533e-08 1.97477e-08)
(0.382076 2.06213e-10 4.27524e-09)
(0.390316 2.07026e-08 -2.99315e-08)
(0.390315 -2.07578e-08 2.78707e-08)
(0.390313 2.33065e-11 2.0537e-09)
(0.398245 1.85057e-08 -3.64669e-08)
(0.398245 -1.76909e-08 3.74763e-08)
(0.398243 -8.41857e-10 -1.01875e-09)
(0.405824 1.62119e-08 -4.2921e-08)
(0.405823 -1.36772e-08 4.77138e-08)
(0.405822 -2.55624e-09 -4.80641e-09)
(0.41298 1.38913e-08 -4.81144e-08)
(0.41298 -8.89592e-09 5.69623e-08)
(0.412979 -5.00991e-09 -8.86618e-09)
(0.419613 1.16743e-08 -5.04548e-08)
(0.419613 -3.90697e-09 6.08629e-08)
(0.419613 -7.7724e-09 -1.04266e-08)
(0.425583 9.5591e-09 -4.85903e-08)
(0.425583 3.19586e-10 5.98789e-08)
(0.425584 -9.87315e-09 -1.13076e-08)
(0.430701 8.26605e-09 -4.11428e-08)
(0.430701 2.34608e-09 5.13798e-08)
(0.430702 -1.05961e-08 -1.02565e-08)
(0.434686 8.71157e-09 -2.78711e-08)
(0.434686 5.16064e-10 3.42142e-08)
(0.434688 -9.2013e-09 -6.3497e-09)
(0.437079 1.00933e-08 -9.90589e-09)
(0.437079 -3.28918e-09 1.20195e-08)
(0.437081 -6.7734e-09 -2.11119e-09)
)
;
    }
}


// ************************************************************************* //
