/*--------------------------------*- C++ -*----------------------------------*\
  =========                 |
  \\      /  F ield         | OpenFOAM: The Open Source CFD Toolbox
   \\    /   O peration     | Website:  https://openfoam.org
    \\  /    A nd           | Version:  6
     \\/     M anipulation  |
\*---------------------------------------------------------------------------*/
FoamFile
{
    version     2.0;
    format      ascii;
    class       volScalarField;
    location    "16";
    object      yPlus;
}
// * * * * * * * * * * * * * * * * * * * * * * * * * * * * * * * * * * * * * //

dimensions      [0 0 0 0 0 0 0];

internalField   uniform 0;

boundaryField
{
    inlet
    {
        type            calculated;
        value           uniform 0;
    }
    outlet
    {
        type            calculated;
        value           uniform 0;
    }
    roughCylinder
    {
        type            calculated;
        value           nonuniform List<scalar> 
3840
(
45.8954
54.2968
62.2064
69.2207
74.5477
78.5167
81.5455
83.9537
86.0176
87.8352
89.4854
91.0313
92.5442
94.0931
95.7313
97.4904
99.3772
101.381
103.48
105.641
107.819
109.935
111.802
113.026
45.0712
53.2004
60.9021
67.8203
73.114
77.0681
80.0955
82.5144
84.583
86.3886
88.0155
89.5333
91.0145
92.5286
94.1311
95.8514
97.6969
99.6568
101.708
103.821
105.948
108.013
109.834
111.025
44.1995
52.0889
59.5873
66.4017
71.6632
75.611
78.6495
81.0887
83.1658
84.965
86.5744
88.0664
89.5176
90.9997
92.566
94.2482
96.0531
97.9698
99.9752
102.039
104.116
106.13
107.904
109.063
43.296
50.9438
58.2434
64.9568
70.1959
74.1509
77.2145
79.6839
81.7754
83.576
85.1679
86.6375
88.0616
89.512
91.0456
92.6916
94.457
96.3309
98.2914
100.306
102.333
104.297
106.025
107.152
42.3604
49.783
56.8778
63.4858
68.7098
72.685
75.7857
78.2919
80.4034
82.2108
83.7952
85.2465
86.6462
88.0699
89.5709
91.1819
92.9097
94.7431
96.6592
98.6278
100.605
102.52
104.204
105.298
41.4507
48.5942
55.4741
61.9786
67.1998
71.2101
74.3581
76.9104
79.05
80.8722
82.4538
83.8917
85.2718
86.6686
88.1419
89.7209
91.4124
93.206
95.0791
97.0011
98.9311
100.797
102.436
103.499
40.4422
47.3564
54.0182
60.4215
65.6538
69.7166
72.9271
75.532
77.7056
79.5452
81.1393
82.5707
83.9348
85.3126
86.7581
88.3059
89.9634
91.719
93.5513
95.429
97.3114
99.1308
100.727
101.758
39.5485
46.1137
52.5205
58.8095
64.0636
68.1962
71.4775
74.1461
76.3647
78.2386
79.8456
81.2797
82.6361
83.9944
85.4187
86.9398
88.5646
90.2836
92.0745
93.9075
95.744
97.5153
99.068
100.068
38.4145
44.745
50.9086
57.0951
62.3915
66.6197
70.0015
72.7483
75.0234
76.9288
78.5648
80.0131
81.3672
82.7178
84.1211
85.6154
87.21
88.8939
90.6464
92.4376
94.227
95.9535
97.4643
98.4329
37.5238
43.4158
49.2503
55.2879
60.6313
64.9831
68.474
71.3146
73.6576
75.6253
77.2958
78.7623
80.1263
81.4696
82.8603
84.3345
85.9004
87.5502
89.2623
91.0085
92.7531
94.431
95.8986
96.8348
36.1703
41.837
47.3898
53.296
58.7071
63.2133
66.8726
69.8392
72.2799
74.301
76.0188
77.5211
78.8984
80.2485
81.6276
83.0807
84.6201
86.2368
87.9122
89.6178
91.3147
92.9483
94.3741
95.2788
35.1406
40.3399
45.4573
51.1342
56.6025
61.3222
65.1644
68.2867
70.8311
72.954
74.7399
76.2807
77.6872
79.0408
80.4183
81.8592
83.3745
84.9597
86.5944
88.2534
89.9059
91.4896
92.872
93.7417
33.7832
38.5845
43.2335
48.6654
54.1967
59.1402
63.2826
66.6233
69.3474
71.566
73.424
75.0288
76.4668
77.8464
79.2228
80.6489
82.1419
83.6959
85.2964
86.9165
88.5192
90.06
91.3996
92.2375
32.4286
36.8407
40.8971
45.8736
51.3996
56.7199
61.1828
64.8186
67.7158
70.0996
72.0793
73.7533
75.2497
76.6462
78.0346
79.4588
80.9331
82.4589
84.0167
85.5867
87.1448
88.6325
89.9278
90.7256
30.4202
34.4973
37.9866
42.5511
48.0737
53.6266
58.6803
62.7313
65.9873
68.5604
70.6591
72.4385
73.9883
75.4375
76.8392
78.2562
79.7129
81.2087
82.7353
84.2675
85.7739
87.2175
88.4667
89.2316
28.3972
32.2337
34.9772
38.5766
43.7279
50.1162
55.7093
60.3876
63.973
66.8378
69.1529
71.0532
72.7088
74.1953
75.6273
77.0558
78.5002
79.9714
81.451
82.9278
84.3839
85.7696
86.9723
87.6897
24.8369
28.5025
30.6051
33.7171
39.0514
44.7745
51.7358
57.294
61.6881
64.9668
67.5124
69.5948
71.3359
72.9108
74.3757
75.8063
77.2384
78.6801
80.1307
81.569
82.9724
84.3106
85.4615
86.142
21.3128
25.3443
26.6563
27.1798
28.8358
38.9863
46.5632
53.6961
58.8136
62.7002
65.6585
67.9652
69.8968
71.5465
73.07
74.532
75.9588
77.3793
78.7761
80.1504
81.4897
82.7611
83.8617
84.485
10.8227
17.4048
18.2321
17.7973
17.6516
25.4051
39.2499
48.01
55.1956
60.0599
63.5557
66.2141
68.2955
70.0895
71.6729
73.148
74.569
75.9606
77.3274
78.6592
79.9475
81.1646
82.2016
82.7784
5.68363
16.3732
20.5332
21.0892
19.9256
6.37089
20.8984
40.6058
50.0543
56.5743
60.9306
64.0638
66.5128
68.4572
70.1531
71.6949
73.1187
74.4904
75.7939
77.047
78.2427
79.3764
80.3589
80.8575
14.5016
17.3536
19.0418
20.2786
14.6593
19.0401
22.5108
27.0332
42.879
51.851
57.779
61.7001
64.4483
66.6523
68.4525
70.0192
71.4461
72.7928
74.058
75.2594
76.4062
77.4739
78.3692
78.8102
22.7525
25.9032
26.8772
26.3654
24.1635
19.2451
28.034
31.0831
30.5807
45.8973
53.2754
58.3662
61.9328
64.452
66.4802
68.1944
69.6357
70.9586
72.1442
73.2372
74.2409
75.1882
76.0205
76.329
25.6285
29.5855
31.9904
33.3335
33.1495
30.4418
26.2595
31.2255
27.4206
31.205
47.4049
54.6408
58.8659
61.93
64.1628
65.902
67.3588
68.6719
69.7979
70.821
71.7681
72.6303
73.3447
73.5778
26.6965
30.8109
33.561
35.5558
36.5848
36.3851
33.9631
27.9559
30.1234
32.5651
36.6863
48.4177
54.697
58.4781
61.1897
63.3093
64.7979
66.0709
67.0779
67.9234
68.6382
69.2904
69.8846
69.854
26.5745
30.8374
33.7664
36.0479
37.5503
38.2165
37.9598
36.0583
32.6937
37.2887
34.0967
41.4269
49.3383
54.3955
57.603
59.6292
61.1513
62.4598
63.3629
64.0938
64.723
65.253
65.7811
65.5703
24.562
29.1553
32.3467
34.953
36.8529
38.0339
38.4956
37.8857
33.9848
36.7414
37.2539
33.2875
41.0778
48.0079
52.1278
55.431
56.9689
58.1892
58.8354
59.2174
59.4534
59.5394
59.5413
58.7627
21.6006
26.5802
29.9881
32.8485
35.0848
36.7168
37.8517
38.5088
37.8851
33.0754
35.1106
25.7909
28.2511
40.6354
46.3184
48.1802
49.9015
51.1408
51.7549
51.7051
52.1233
51.9522
53.1037
50.8802
18.4849
23.6762
27.1147
30.0542
32.4824
34.4602
36.1044
37.5274
38.4906
37.403
31.1465
33.6307
25.9252
24.6609
32.4929
41.2776
42.9802
43.5974
42.9033
42.5043
42.0331
41.9446
37.1496
34.9238
15.8062
20.9167
24.1673
26.9882
29.4352
31.611
33.6405
35.6484
37.5459
38.6703
37.6922
30.8931
28.2078
27.5331
21.9215
18.025
23.9846
21.93
24.06
16.5715
45.8552
45.853
33.2475
36.4253
13.4143
18.3433
21.3368
23.9642
26.3382
28.5892
30.8426
33.2082
35.7011
37.972
39.2313
36.4116
29.478
33.6563
25.6983
17.0827
25.1605
14.9893
31.3607
14.3321
45.0207
36.4491
37.6545
25.6496
11.7095
16.3382
19.0284
21.4161
23.6527
25.8702
28.1737
30.6514
33.3646
36.2037
38.6239
39.1419
36.9639
29.958
29.6346
24.2617
35.7627
30.6338
34.2087
31.7368
39.391
31.3211
32.6878
35.1158
10.7429
15.0405
17.4697
19.6506
21.7459
23.865
26.0799
28.4613
31.0898
34.0047
36.9872
39.1209
39.6464
36.4307
32.7327
28.6649
39.5456
33.514
33.7088
37.4904
37.1617
39.5297
37.8594
42.6386
10.3188
14.4751
16.7387
18.7916
20.7835
22.7841
24.8338
26.9882
29.3381
31.9921
34.964
37.8619
39.8274
39.7137
38.6237
38.1725
33.3287
38.8344
41.2702
42.8906
42.6463
43.5198
42.4618
44.0393
10.4401
14.5152
16.719
18.7324
20.6742
22.5754
24.4525
26.3522
28.3606
30.5992
33.1913
36.0982
38.8428
40.4308
40.9473
41.1915
37.7711
40.9243
42.9154
43.4512
43.2143
43.6327
42.9072
43.3898
10.8847
14.9806
17.2163
19.262
21.2033
23.0442
24.7866
26.4702
28.1714
29.9958
32.0823
34.555
37.3111
39.7773
41.3393
42.029
40.6596
41.4182
42.8099
42.6723
42.3016
42.7892
42.0496
42.1278
11.531
15.7353
18.0457
20.1644
22.1438
23.9659
25.6257
27.1597
28.6334
30.1287
31.7588
33.6727
35.9638
38.4497
40.5159
41.66
41.3277
41.1655
41.8184
41.1685
40.6395
41.1954
40.4392
40.4782
12.4147
16.7068
19.0996
21.3029
23.335
25.1638
26.7846
28.2345
29.5689
30.8441
32.137
33.5673
35.2696
37.276
39.2355
40.5701
40.7724
40.3228
40.3834
39.3983
38.7668
39.3325
38.7081
38.938
13.4661
17.8195
20.302
22.5929
24.6818
26.5305
28.1412
29.5554
30.8212
31.974
33.0562
34.1446
35.3503
36.7656
38.2638
39.4451
39.8236
39.3434
38.9874
37.8515
37.1785
37.6981
37.341
37.8216
14.5736
19.0164
21.5962
23.9758
26.1234
28.0014
29.6224
31.0337
32.2791
33.3794
34.3524
35.2373
36.1018
37.0308
38.0051
38.8224
39.1162
38.6279
38
36.8286
36.1536
36.6158
36.5731
37.276
15.6959
20.2553
22.9421
25.4127
27.6212
29.5355
31.1809
32.6111
33.8665
34.9582
35.889
36.6733
37.3402
37.941
38.4908
38.9097
38.9721
38.4132
37.599
36.4383
35.7787
36.1948
36.4447
37.3142
16.5501
17.0057
17.4775
17.83
18.1512
18.3879
18.5897
18.7306
18.837
18.8991
18.9323
18.9304
18.901
18.8421
18.7574
18.6482
18.518
18.3707
18.2174
18.0904
18.1008
18.2342
18.3887
18.5358
18.6652
18.7737
18.8572
18.9147
18.943
18.9436
18.9093
18.8458
18.7375
18.5941
18.3896
18.1491
17.824
17.4662
16.9896
16.5271
21.213
21.6582
22.1394
22.5098
22.858
23.1304
23.3708
23.5569
23.7099
23.8215
23.904
23.9528
23.9721
23.9597
23.9162
23.8418
23.7387
23.6097
23.4646
23.3369
23.348
23.4822
23.6281
23.7564
23.8583
23.9316
23.9734
23.9843
23.9637
23.9134
23.8296
23.7166
23.5614
23.3726
23.1293
22.8533
22.5011
22.1257
21.6398
21.1883
23.979
24.4463
24.9642
25.3701
25.764
26.0869
26.3827
26.6291
26.846
27.0234
27.172
27.2884
27.3746
27.4275
27.4459
27.428
27.3746
27.2881
27.1781
27.078
27.087
27.1933
27.3041
27.3898
27.4418
27.4583
27.4385
27.3842
27.2969
27.1794
27.0297
26.8507
26.6318
26.3831
26.0846
25.7583
25.3606
24.9499
24.4274
23.9541
26.5029
26.9785
27.5175
27.9441
28.368
28.7251
29.0604
29.3509
29.6176
29.8497
30.0546
30.2282
30.3713
30.4795
30.5509
30.5826
30.5743
30.5282
30.455
30.3871
30.3933
30.4671
30.5411
30.5863
30.5933
30.5601
30.4873
30.3777
30.2338
30.0593
29.8534
29.6202
29.3521
29.0599
28.7221
28.362
27.9346
27.5037
26.9602
26.4791
28.7373
29.198
29.7364
30.1634
30.597
30.9707
31.3315
31.6551
31.9589
32.2329
32.4819
32.7012
32.8893
33.0419
33.1557
33.2272
33.255
33.2414
33.1968
33.1511
33.1557
33.2064
33.2516
33.2643
33.2349
33.1618
33.0465
32.8927
32.7036
32.4836
32.2338
31.9587
31.654
31.3292
30.9665
30.5907
30.154
29.7231
29.1806
28.7148
30.6616
31.0946
31.6233
32.0451
32.4857
32.8756
33.2586
33.6111
33.9471
34.2573
34.5442
34.8022
35.0289
35.2189
35.3682
35.4724
35.5292
35.5404
35.5161
35.4837
35.4875
35.524
35.5487
35.5362
35.4775
35.3715
35.2206
35.0292
34.8015
34.5426
34.2551
33.9441
33.6073
33.2537
32.8693
32.4776
32.0347
31.6096
31.0772
30.6398
32.3154
32.7214
33.2441
33.6672
34.1175
34.5245
34.9287
35.3075
35.672
36.0137
36.3328
36.6237
36.8826
37.1037
37.2817
37.4119
37.4913
37.5207
37.5097
37.4849
37.4882
37.5166
37.5275
37.4965
37.415
37.2827
37.1029
36.8803
36.6203
36.3285
36.0086
35.6662
35.301
34.9213
34.5159
34.1073
33.6551
33.2292
32.7033
32.2934
33.756
34.1393
34.6612
35.088
35.548
35.9706
36.3933
36.7942
37.1826
37.5498
37.8952
38.2125
38.4969
38.7424
38.9428
39.0928
39.1889
39.2314
39.2294
39.2088
39.2119
39.2357
39.2372
39.1928
39.0945
38.9422
38.7398
38.4927
38.2069
37.8886
37.5425
37.1746
36.7854
36.3837
35.96
35.5361
35.0743
34.6451
34.1206
33.7338
35.0185
35.3791
35.8993
36.3289
36.7968
37.2321
37.6696
38.0883
38.4956
38.883
39.2487
39.5863
39.8905
40.1544
40.3718
40.5367
40.6456
40.6984
40.7042
40.6878
40.6906
40.7098
40.7034
40.6486
40.5373
40.3699
40.1504
39.8847
39.5791
39.2404
38.8739
38.4858
38.0779
37.6584
37.2199
36.7835
36.314
35.8824
35.3599
34.9966
36.108
36.4428
36.9584
37.3891
37.8629
38.3086
38.7583
39.1914
39.6138
40.0171
40.3987
40.7519
41.071
41.349
41.5794
41.7563
41.8761
41.9389
41.9537
41.9441
41.9465
41.9586
41.9431
41.8782
41.756
41.5766
41.344
41.0641
40.7436
40.3892
40.0067
39.6027
39.1797
38.7459
38.2954
37.8489
37.3737
36.9413
36.4239
36.0869
37.019
37.3224
37.8293
38.2596
38.7382
39.1933
39.6538
40.0997
40.5352
40.9517
41.3462
41.7119
42.0428
42.3319
42.5729
42.76
42.8901
42.964
42.9903
42.9897
42.9916
42.9942
42.9672
42.8914
42.7589
42.5694
42.3262
42.0352
41.7028
41.3359
40.9405
40.5233
40.0873
39.641
39.1798
38.724
38.2446
37.813
37.3049
37
37.7503
38.0089
38.5
38.9276
39.41
39.8746
40.3462
40.8047
41.2525
41.6814
42.0874
42.464
42.8049
43.1035
43.3537
43.5505
43.6909
43.7766
43.8155
43.8245
43.826
43.8185
43.7789
43.6915
43.5488
43.3497
43.0973
42.7968
42.4544
42.0767
41.6697
41.2404
40.7922
40.3335
39.8617
39.3968
38.9141
38.4856
37.994
37.7351
38.3035
38.4895
38.9538
39.3745
39.8594
40.3334
40.8167
41.2885
41.7493
42.1906
42.608
42.9949
43.3454
43.6529
43.9118
44.1176
44.2683
44.3655
44.4163
44.4339
44.4348
44.4183
44.367
44.2682
44.1155
43.9073
43.6463
43.337
42.9852
42.5972
42.1791
41.7375
41.2767
40.8052
40.3221
39.8484
39.3638
38.9435
38.4795
38.2943
38.6969
38.7578
39.1668
39.5737
40.0565
40.5399
41.0349
41.521
41.9957
42.4503
42.8797
43.2774
43.6374
43.9538
44.2214
44.4361
44.5965
44.7042
44.7652
44.7896
44.7903
44.7666
44.705
44.5958
44.4336
44.2167
43.9472
43.6292
43.2679
42.8694
42.4396
41.9851
41.5108
41.0255
40.5314
40.049
39.5674
39.1617
38.7541
38.6947
38.9398
38.8101
39.1178
39.4896
39.9653
40.4548
40.9614
41.4617
41.9511
42.4198
42.8623
43.2716
43.642
43.9678
44.2442
44.4677
44.6371
44.7539
44.8233
44.8531
44.8536
44.8243
44.7542
44.636
44.4649
44.2394
43.9612
43.6339
43.2626
42.8528
42.4105
41.9422
41.4538
40.9549
40.4499
39.9621
39.488
39.1184
38.8133
38.9461
39.0127
38.6449
38.8037
39.1059
39.5553
40.0466
40.5606
41.0736
41.5765
42.0592
42.5146
42.9358
43.3169
43.6524
43.9378
44.1697
44.3473
44.472
44.548
44.5819
44.5823
44.5486
44.4719
44.3458
44.1665
43.9327
43.6458
43.3091
42.9273
42.506
42.0511
41.5696
41.0681
40.5569
40.0448
39.555
39.107
38.8074
38.6522
39.0267
38.8282
38.2272
38.2189
38.4255
38.8267
39.3048
39.8221
40.3427
40.8558
41.3493
41.8157
42.2472
42.6378
42.9819
43.275
43.5141
43.6983
43.8288
43.9096
43.9463
43.9465
43.9098
43.828
43.696
43.5099
43.2688
42.974
42.6288
42.2377
41.8062
41.3406
40.8482
40.3366
39.8173
39.3006
38.823
38.4223
38.2165
38.2239
38.8236
38.2686
37.506
37.3676
37.4839
37.8298
38.2818
38.7916
39.3134
39.8297
40.3281
40.7997
41.2367
41.6324
41.9812
42.2785
42.5214
42.7086
42.8416
42.9243
42.9623
42.9624
42.9241
42.8402
42.7052
42.5157
42.2708
41.9715
41.6214
41.225
40.788
40.3166
39.8185
39.3019
38.7779
38.2644
37.8071
37.4523
37.3213
37.433
38.151
37.3478
36.5152
36.315
36.3768
36.6826
37.1085
37.6045
38.1208
38.6327
39.1282
39.5972
40.0321
40.4257
40.7723
41.0672
41.3074
41.4916
41.6214
41.7012
41.7373
41.7371
41.6996
41.6173
41.4842
41.2962
41.0522
40.7537
40.4039
40.0076
39.5701
39.0985
38.5998
38.0832
37.559
37.0534
36.616
36.2971
36.2189
36.4005
37.2078
36.2102
35.4263
35.2494
35.312
35.6086
36.0215
36.505
37.0105
37.5119
37.9972
38.4562
38.8809
39.2644
39.6008
39.8853
40.1148
40.2882
40.4074
40.478
40.5086
40.5084
40.4764
40.4026
40.2791
40.1006
39.8661
39.5767
39.2359
38.8485
38.4199
37.9568
37.4664
36.9577
36.4431
35.9495
35.5259
35.2177
35.1425
35.3083
36.0816
35.4449
34.7301
34.5986
34.6812
34.9801
35.3829
35.8497
36.3352
36.8171
37.2825
37.7217
38.1264
38.4901
38.8065
39.0713
39.2807
39.4336
39.5321
39.5833
39.601
39.6006
39.5803
39.5235
39.418
39.2575
39.0403
38.7685
38.4454
38.0759
37.6658
37.222
36.7521
36.266
35.7755
35.3056
34.9032
34.6103
34.5417
34.6974
35.4485
35.5391
34.8358
34.7087
34.781
35.0593
35.433
35.8648
36.3133
36.7624
37.1972
37.6075
37.9847
38.3219
38.6131
38.8533
39.039
39.1681
39.2421
39.2687
39.2684
39.2706
39.2713
39.2403
39.1598
39.0238
38.8319
38.5863
38.2911
37.9515
37.5736
37.1647
36.7339
36.2919
35.8546
35.4395
35.0909
34.8482
34.8293
35.0243
35.8257
36.2851
35.6877
35.6118
35.6776
35.923
36.2429
36.6155
37.0078
37.4038
37.7886
38.1522
38.4859
38.7829
39.0372
39.2437
39.3986
39.4995
39.5465
39.5461
39.5219
39.5238
39.5454
39.538
39.4815
39.3711
39.207
38.9922
38.7306
38.4273
38.0883
37.7204
37.3321
36.9336
36.5396
36.1661
35.8461
35.6054
35.5514
35.6575
36.3052
37.2085
36.5451
36.4229
36.4478
36.6552
36.9395
37.2809
37.6443
38.0132
38.3725
38.7118
39.0228
39.2987
39.5337
39.7231
39.8628
39.9504
39.9861
39.976
39.9456
39.9546
39.9906
39.9981
39.9578
39.8657
39.7226
39.5316
39.2967
39.0231
38.7171
38.3852
38.0363
37.6805
37.3329
37.0089
36.7432
36.5507
36.5359
36.6459
37.2724
45.8772
54.2789
62.1889
69.2039
74.5317
78.5013
81.5307
83.9393
86.0038
87.8222
89.4734
91.0203
92.5343
94.0845
95.7241
97.4848
99.3735
101.38
103.481
105.645
107.827
109.951
111.817
113.057
45.0644
53.1917
60.8898
67.8055
73.0981
77.052
80.0797
82.4992
84.5685
86.3749
88.0028
89.5215
91.0039
92.5194
94.1233
95.8455
97.6929
99.6553
101.709
103.825
105.956
108.029
109.849
111.057
44.1914
52.0776
59.5708
66.382
71.6434
75.5922
78.6318
81.0717
83.1496
84.9499
86.5604
88.0539
89.5064
90.9899
92.5579
94.2419
96.0489
97.9679
99.9761
102.043
104.124
106.147
107.92
109.097
43.2937
50.9355
58.2296
64.9391
70.1767
74.1317
77.1957
79.6659
81.7582
83.5602
85.1534
86.624
88.0495
89.5016
91.0368
92.6849
94.4525
96.329
98.2919
100.311
102.342
104.315
106.041
107.187
42.3481
49.7643
56.8551
63.4613
68.6853
72.6615
75.7634
78.271
80.3838
82.1928
83.7788
85.2322
86.6336
88.0589
89.5618
91.1748
92.9048
94.7407
96.6597
98.6323
100.614
102.539
104.22
105.335
41.4231
48.5653
55.4449
61.9502
67.1727
71.1848
74.3347
76.8883
79.0294
80.8534
82.4369
83.876
85.2578
86.6567
88.132
89.7134
91.4073
93.2033
95.0791
97.0056
98.9399
100.816
102.452
103.538
40.4187
47.3274
53.9871
60.391
65.6246
69.688
72.8993
75.5061
77.6816
79.5232
81.1198
82.554
83.9203
85.3
86.7479
88.2979
89.9579
91.7163
93.5508
95.4334
97.3202
99.1505
100.743
101.799
39.4956
46.0625
52.4703
58.7625
64.0213
68.1596
71.4458
74.1171
76.3388
78.2162
79.8255
81.2613
82.6198
83.9807
85.4073
86.9312
88.5587
90.2802
92.0741
93.912
95.7531
97.5362
99.0839
100.112
38.3895
44.7126
50.8723
57.0593
62.358
66.5868
69.9684
72.7177
74.9945
76.901
78.541
79.9931
81.3502
82.7033
84.1093
85.6062
87.2037
88.8906
90.6455
92.4415
94.236
95.975
97.481
98.4795
37.4532
43.344
49.1761
55.2155
60.5652
64.9268
68.4276
71.2734
73.6224
75.5983
77.2712
78.7397
80.1068
81.4535
82.8471
84.3246
85.8935
87.5459
89.261
91.0124
92.7625
94.4541
95.9135
96.8853
36.137
41.7938
47.34
53.2465
58.6637
63.1731
66.8331
69.8044
72.2467
74.2648
75.9883
77.4965
78.8778
80.2311
81.6137
83.07
84.6131
86.233
87.9102
89.6208
91.3232
92.9726
94.3911
95.3319
35.047
40.2428
45.3542
51.0295
56.5017
61.2353
65.0937
68.2243
70.7795
72.9205
74.7102
76.2526
77.6629
79.0212
80.4022
81.8475
83.3664
84.9539
86.5912
88.2551
89.9157
91.516
92.8856
93.8013
33.721
38.5075
43.1418
48.5742
54.1246
59.0805
63.2303
66.5832
69.3102
71.5176
73.3824
74.9967
76.4413
77.8249
79.2061
80.6363
82.134
83.6918
85.2931
86.9191
88.5277
90.0872
91.4165
92.2996
32.2924
36.7047
40.7552
45.7207
51.2348
56.5788
61.0701
64.7197
67.637
70.0571
72.0446
73.7194
75.2191
76.6218
78.0148
79.4448
80.9236
82.4511
84.0113
85.5859
87.1555
88.6635
89.9381
90.7978
30.2859
34.3374
37.7908
42.3616
47.9478
53.5227
58.5994
62.6812
65.9445
68.4918
70.5989
72.3934
73.9545
75.4102
76.8191
78.2411
79.7044
81.2044
82.7301
84.2704
85.7812
87.2491
88.4824
89.3069
28.1341
31.9929
34.7377
38.2726
43.3585
49.8353
55.4984
60.2173
63.8463
66.786
69.1145
71.0136
72.6715
74.1644
75.6018
77.0388
78.4893
79.9608
81.442
82.922
84.3965
85.8073
86.979
87.7796
24.4602
28.1151
30.1922
33.4516
38.8281
44.5401
51.602
57.2178
61.6362
64.8556
67.4183
69.5285
71.2867
72.8739
74.3512
75.7881
77.2296
78.6755
80.1226
81.5714
82.9793
84.3487
85.4746
86.2374
20.2169
24.5907
25.8935
25.7683
28.2638
38.4901
45.9853
53.3646
58.5846
62.649
65.625
67.9184
69.8528
71.5079
73.036
74.5111
75.9478
77.3656
78.7618
80.1378
81.5045
82.8088
83.8607
84.5995
12.6379
13.7523
16.6103
16.9568
11.8493
21.1099
38.9195
47.729
55.1301
59.8464
63.3871
66.112
68.2182
70.035
71.6423
73.1257
74.5614
75.955
77.315
78.6583
79.9555
81.2155
82.213
82.904
10.1277
8.94746
7.02888
12.6781
12.7558
13.2806
19.113
40.3303
49.5065
56.5423
60.9364
64.0075
66.4613
68.4092
70.1062
71.6685
73.1106
74.4743
75.7704
77.026
78.2583
79.437
80.3343
81.012
16.1872
18.7613
18.657
17.9525
19.0348
14.5271
10.0302
24.9899
42.9222
51.3896
57.4274
61.5192
64.314
66.5625
68.4127
69.9919
71.4444
72.7847
74.0411
75.249
76.4218
77.5518
78.3881
78.9834
23.6894
27.0423
28.2716
27.6233
25.1998
18.4185
23.4921
31.1987
28.0489
45.5237
53.4009
58.3101
61.8731
64.3886
66.4113
68.1582
69.6381
70.9405
72.0977
73.203
74.2524
75.2686
75.9347
76.5548
25.7327
29.8123
32.4096
33.9239
33.992
32.1152
25.2767
26.4351
8.41955
32.313
46.7572
54.203
58.5778
61.7616
64.1052
65.8704
67.3801
68.6603
69.7907
70.7912
71.8074
72.7665
73.3804
73.8408
26.884
31.0006
33.7218
35.6975
36.7657
36.6859
34.557
29.5591
22.6005
14.7477
37.6526
48.3874
54.6616
58.3654
61.0819
63.2466
64.8318
66.0485
66.9497
67.8559
68.6328
69.4079
69.6663
70.2174
26.2553
30.5453
33.4899
35.8061
37.3845
38.1843
38.0881
36.1685
30.1476
23.1806
19.6757
39.2052
48.3825
54.0311
57.4805
59.6043
61.2523
62.4464
63.4625
64.0358
64.8099
65.5149
65.7758
66.0651
24.0418
28.6807
31.8962
34.5461
36.5317
37.8803
38.6924
38.9645
37.484
30.0114
24.457
27.819
41.5835
47.5672
52.0152
55.2646
57.1068
58.146
58.3472
59.0237
59.3535
59.6903
59.0572
59.4085
21.1022
26.1087
29.5245
32.41
34.706
36.4546
37.8004
38.8683
39.2692
35.9299
33.8238
29.4676
26.3655
39.5935
45.5094
48.2614
50.2642
51.1646
52.6328
51.7384
51.909
52.1798
51.865
52.5037
18.1565
23.327
26.7443
29.6803
32.1373
34.1937
35.9899
37.6873
39.1442
39.2003
33.993
24.1244
34.7739
26.3481
33.9339
40.6437
42.7312
43.257
40.8044
41.6346
41.3726
40.788
38.4578
35.7947
15.5713
20.6544
23.879
26.6871
29.145
31.3674
33.4923
35.6672
37.8638
39.4977
38.6801
31.8822
29.7789
35.8382
14.9463
18.2231
25.3442
23.2676
27.5429
18.6787
14.9115
12.686
4.06109
22.3422
13.2602
18.1601
21.1268
23.736
26.1084
28.3812
30.6857
33.1397
35.782
38.3093
39.7182
38.2668
31.5301
29.9311
10.7803
20.4039
32.2027
32.2911
28.7475
23.0497
9.63353
14.6958
25.6363
30.5558
11.6172
16.2201
18.8853
21.2539
23.4821
25.7049
28.0289
30.5457
33.3257
36.2772
38.8262
39.9226
37.5141
31.6686
27.0304
28.1962
31.3979
24.6975
31.8302
34.6027
32.6541
32.4554
32.3818
33.1077
10.6928
14.9769
17.3882
19.5538
21.6392
23.7538
25.9697
28.3595
31.0072
33.9622
37.0114
39.3934
39.8434
39.143
34.6999
30.8996
29.2338
32.0799
33.6746
36.7063
38.1636
38.4423
37.1925
41.5515
10.3096
14.4577
16.7102
18.7528
20.736
22.7285
24.7702
26.9178
29.2635
31.9211
34.9149
37.9272
39.9754
41.0928
39.9784
38.6813
38.7412
39.9219
40.8923
41.8016
42.0626
42.3373
40.5629
44.6267
10.4495
14.5248
16.7249
18.7335
20.6698
22.5635
24.4311
26.3196
28.3164
30.5458
33.1395
36.0983
38.9466
41.1948
41.6284
41.4601
41.7422
42.0996
42.7913
42.5533
42.3146
42.6734
41.006
44.7022
10.8998
15.0047
17.2411
19.2854
21.2236
23.0592
24.7938
26.4675
28.1571
29.9702
32.0513
34.5468
37.3792
40.1817
41.6916
42.1599
42.4702
42.5496
42.9436
42.0706
41.5993
41.9921
40.5083
43.5438
11.5409
15.7676
18.0793
20.1973
22.1748
23.9932
25.6477
27.1749
28.6402
30.1261
31.7491
33.6702
36.0026
38.6549
40.6884
41.685
42.1274
42.0925
42.0476
40.845
40.1742
40.4931
39.2698
41.6629
12.459
16.7448
19.1366
21.339
23.3692
25.1952
26.8125
28.2582
29.5873
30.856
32.1422
33.5719
35.2895
37.3676
39.3083
40.5413
41.1114
41.025
40.6319
39.2924
38.4639
38.6751
37.8953
39.7363
13.4981
17.8546
20.338
22.6283
24.7153
26.5618
28.1702
29.5819
30.8447
31.9933
33.0701
34.1543
35.3609
36.8003
38.2851
39.4051
39.9624
39.8285
39.2167
37.8829
36.9852
37.1065
36.8398
38.2619
14.6081
19.0509
21.6303
24.0085
26.1542
28.0305
29.6501
31.0602
32.3039
33.4017
34.3703
35.2501
36.1097
37.0414
38.0046
38.7899
39.1688
38.9398
38.1982
36.9292
36.0401
36.1194
36.3029
37.4608
15.7233
20.2845
22.9716
25.4412
27.6482
29.5612
31.2061
32.636
33.8907
34.9807
35.9084
36.6879
37.3483
37.944
38.484
38.8873
38.9901
38.6072
37.7667
36.5646
35.7268
35.805
36.328
37.3407
45.9079
44.2292
43.3533
41.8061
40.7695
39.2215
38.2159
36.7071
35.6989
34.4263
33.4167
32.2581
31.3569
30.3047
29.4227
28.7183
27.86
27.4038
26.9954
26.5684
26.5687
26.9923
27.4057
27.8926
28.6322
29.3434
30.2706
31.3535
32.2469
33.4274
34.3952
35.7644
36.7545
38.2186
39.2582
40.8246
41.7978
43.4562
44.2345
45.9052
54.5156
53.0111
52.179
50.8168
49.8405
48.5112
47.5333
46.2961
45.3645
44.2703
43.352
42.4021
41.6245
40.7103
40.002
39.3331
38.7633
38.3272
38.1026
37.8237
37.8238
38.1028
38.3277
38.7697
39.3515
40.0553
40.708
41.6228
42.3959
43.3648
44.2625
45.4448
46.3623
47.5656
48.5373
49.8817
50.8384
52.2553
53.018
54.5187
62.5377
61.1105
60.2927
58.9699
58.031
56.7866
55.8176
54.6822
53.7413
52.7189
51.8224
50.9254
50.134
49.3458
48.6724
48.0507
47.5386
47.1204
46.8457
46.6598
46.6601
46.8465
47.1213
47.5415
48.0622
48.6854
49.3486
50.1356
50.9261
51.8297
52.7186
53.7641
54.7088
55.8377
56.7996
58.048
58.9859
60.3221
61.1219
62.5471
69.5405
68.1006
67.2082
65.8555
64.8669
63.6113
62.5987
61.4577
60.4728
59.45
58.5327
57.6386
56.8285
56.0709
55.3983
54.8027
54.3043
53.9075
53.63
53.4769
53.4771
53.6307
53.9086
54.3064
54.8064
55.4015
56.073
56.831
57.6417
58.5378
59.4544
60.4807
61.4672
62.6095
63.6209
64.8769
65.8671
67.2229
68.1131
69.5528
74.821
73.3288
72.3454
70.9442
69.8857
68.5974
67.5296
66.3644
65.3393
64.3012
63.3608
62.4587
61.6388
60.8847
60.2156
59.6323
59.1469
58.7668
58.5026
58.3624
58.3625
58.5031
58.7679
59.1486
59.6348
60.2181
60.8872
61.6417
62.4622
63.3652
64.3061
65.3451
66.3713
67.5375
68.6057
69.895
70.9547
72.3572
73.3411
74.8346
78.7497
77.2149
76.1611
74.7287
73.6147
72.3072
71.1986
70.021
68.9698
67.9243
66.9713
66.0667
65.2449
64.4954
63.8331
63.2606
62.7874
62.4203
62.1674
62.035
62.0352
62.168
62.4213
62.7889
63.2626
63.8353
64.4978
65.2479
66.0702
66.9755
67.9289
68.9752
70.0273
71.2059
72.3152
73.6237
74.7386
76.1723
77.227
78.7636
81.7459
80.1834
79.0751
77.6285
76.4729
75.1573
74.0206
72.8376
71.7708
70.7222
69.7634
68.859
68.0382
67.2934
66.6373
66.0731
65.6089
65.2509
65.0056
64.8781
64.8783
65.0061
65.2518
65.6103
66.0748
66.6393
67.2957
68.0411
68.8624
69.7673
70.7267
71.776
72.8437
74.0276
75.1651
76.4815
77.6382
79.0858
80.1952
81.7594
84.1227
82.541
81.3875
79.9352
78.7497
77.4311
76.2762
75.0896
74.0132
72.9622
71.9994
71.0947
70.274
69.5314
68.8784
68.3184
67.8589
67.5055
67.264
67.139
67.1391
67.2646
67.5064
67.8602
68.3201
68.8804
69.5338
70.2768
71.098
72.0033
72.9666
74.0183
75.0956
76.283
77.4387
78.7581
79.9446
81.3979
82.5527
84.1355
86.162
84.5627
83.3737
81.9112
80.7024
79.3749
78.2047
77.0098
75.9228
74.865
73.895
72.9851
72.1597
71.4137
70.7581
70.1965
69.7359
69.3818
69.14
69.0145
69.0147
69.1405
69.3827
69.7371
70.1981
70.7601
71.416
72.1624
72.9883
73.8988
74.8693
75.9278
77.0155
78.2112
79.3822
80.7106
81.9202
83.3837
84.5739
86.1744
87.9722
86.3456
85.1339
83.6537
82.4271
81.086
79.9011
78.6948
77.5955
76.5277
75.5474
74.6287
73.7949
73.0414
72.379
71.8114
71.3457
70.9876
70.7425
70.6147
70.6148
70.7429
70.9884
71.3469
71.8129
72.3809
73.0437
73.7975
74.6319
75.551
76.5319
77.6003
78.7003
79.9073
81.093
82.4349
83.6622
85.1435
86.3562
87.9839
89.6247
87.9687
86.7376
85.2371
83.9925
82.6352
81.4338
80.2129
79.0987
78.0175
77.0237
76.0927
75.2468
74.4821
73.8092
73.232
72.7578
72.3925
72.1419
72.0105
72.0106
72.1424
72.3933
72.7589
73.2335
73.811
74.4843
75.2493
76.0957
77.0272
78.0215
79.1032
80.2181
81.4395
82.6416
83.9998
85.2451
86.7467
87.9786
89.6357
91.1794
89.4915
88.2443
86.7201
85.458
84.0812
82.8623
81.6241
80.493
79.3956
78.3859
77.4396
76.5787
75.7998
75.1134
74.5238
74.0384
73.6636
73.4057
73.2693
73.2695
73.4061
73.6644
74.0394
74.5251
75.1151
75.8019
76.5811
77.4423
78.3892
79.3993
80.4973
81.6288
82.8677
84.0872
85.4647
86.7275
88.2525
89.5006
91.1895
92.7035
90.9821
89.7198
88.1697
86.8896
85.4911
84.2534
82.9956
81.8459
80.7299
79.7022
78.7381
77.86
77.0645
76.362
75.7574
75.2584
74.8721
74.6052
74.4632
74.4634
74.6057
74.8728
75.2594
75.7586
76.3636
77.0663
77.8622
78.7407
79.7051
80.7333
81.8497
82.9999
84.2583
85.4966
86.8957
88.1764
89.7273
90.9903
92.7128
94.2646
92.5076
91.2299
89.6517
88.3525
86.9301
85.672
84.3924
83.2221
82.0855
81.0376
80.0537
79.1561
78.3415
77.6207
76.9987
76.484
76.0841
75.8067
75.658
75.6581
75.807
76.0846
76.4848
76.9998
77.622
78.3431
79.158
80.0559
81.0402
82.0885
83.2254
84.3961
85.6763
86.9349
88.3578
89.6575
91.2364
92.5148
94.2726
95.9164
94.1209
92.8269
91.2178
89.898
88.4491
87.1687
85.8649
84.6721
83.5126
82.4423
81.4363
80.517
79.681
78.9394
78.2976
77.7646
77.349
77.0595
76.9032
76.9033
77.0597
77.3494
77.7652
78.2985
78.9405
79.6823
80.5185
81.4381
82.4444
83.515
84.6748
85.868
87.1722
88.453
89.9023
91.2227
92.8323
94.1268
95.9231
97.689
95.8526
94.5403
92.8981
91.5553
90.0777
88.7727
87.4425
86.2248
85.0402
83.9454
82.915
81.9715
81.1118
80.347
79.6828
79.1289
78.695
78.3912
78.2261
78.2262
78.3914
78.6953
79.1293
79.6833
80.3477
81.1127
81.9726
82.9163
83.9469
85.0419
86.2268
87.4448
88.7754
90.0807
91.5586
92.9018
94.5445
95.8573
97.6942
99.5899
97.7107
96.3781
94.7006
93.3329
91.8244
90.4927
89.134
87.8894
86.6775
85.5561
84.4992
83.5294
82.6437
81.8531
81.1639
80.5862
80.1311
79.8107
79.6354
79.6354
79.8108
80.1313
80.5864
81.1641
81.8534
82.6441
83.53
84.4998
85.5569
86.6784
87.8905
89.1353
90.4943
91.8262
93.3349
94.7029
96.3807
97.7137
99.5932
101.609
99.6855
98.3311
96.6172
95.2227
93.6822
92.3221
90.9334
89.6602
88.4196
87.2699
86.1848
85.187
84.2731
83.4546
82.7376
82.1332
81.6538
81.3137
81.1263
81.1263
81.3136
81.6537
82.133
82.7374
83.4544
84.2729
85.1868
86.1846
87.2698
88.4195
89.6603
90.9335
92.3226
93.6826
95.2236
96.6176
98.3321
99.6865
101.61
103.724
101.757
100.38
98.6282
97.207
95.6332
94.2441
92.8243
91.5217
90.2515
89.0727
87.9581
86.9312
85.9878
85.1395
84.3924
83.7583
83.2509
82.8876
82.6856
82.6855
82.8872
83.2504
83.7577
84.3917
85.1386
85.9869
86.9303
87.9573
89.0714
90.2502
91.5209
92.823
94.2428
95.6318
97.2056
98.6273
100.379
101.755
103.723
105.905
103.893
102.494
100.707
99.2579
97.6513
96.2328
94.7825
93.4504
92.1503
90.942
89.798
88.7413
87.7677
86.8883
86.1093
85.4425
84.9031
84.5118
84.2921
84.2919
84.5114
84.9022
85.4413
86.1076
86.8866
87.7656
88.7392
89.7959
90.9394
92.1478
93.4474
94.7795
96.2297