/*--------------------------------*- C++ -*----------------------------------*\
  =========                 |
  \\      /  F ield         | OpenFOAM: The Open Source CFD Toolbox
   \\    /   O peration     | Website:  https://openfoam.org
    \\  /    A nd           | Version:  6
     \\/     M anipulation  |
\*---------------------------------------------------------------------------*/
FoamFile
{
    version     2.0;
    format      ascii;
    class       volScalarField;
    location    "1.6";
    object      p;
}
// * * * * * * * * * * * * * * * * * * * * * * * * * * * * * * * * * * * * * //

dimensions      [0 2 -2 0 0 0 0];

internalField   nonuniform List<scalar> 
63264
(
0.0124773
0.0128512
0.0125938
0.0125249
0.0124742
0.0124193
0.0123676
0.0123145
0.0122601
0.0122053
0.0121505
0.0120961
0.0120417
0.0119868
0.0119306
0.011873
0.0118136
0.011753
0.0116903
0.0116264
0.0115601
0.0114919
0.0114208
0.0113467
0.0112687
0.0111865
0.0110992
0.0110063
0.010907
0.0108008
0.0106863
0.0105645
0.0104277
0.0102932
0.0101015
0.0125014
0.0128849
0.0126195
0.012545
0.012491
0.012434
0.0123816
0.0123291
0.0122761
0.0122237
0.0121721
0.0121216
0.0120717
0.0120221
0.0119718
0.0119208
0.0118685
0.0118156
0.0117613
0.0117064
0.0116499
0.0115922
0.0115324
0.0114703
0.0114053
0.0113367
0.011264
0.0111865
0.0111034
0.0110148
0.0109186
0.0108186
0.0107044
0.0106015
0.0104504
0.0125242
0.0129156
0.0126439
0.012565
0.0125085
0.0124499
0.012397
0.012345
0.0122933
0.0122428
0.0121936
0.012146
0.0120995
0.0120539
0.0120084
0.011963
0.0119172
0.0118714
0.0118254
0.0117792
0.0117324
0.011685
0.0116363
0.0115861
0.0115334
0.0114782
0.0114192
0.0113562
0.011288
0.0112146
0.0111334
0.0110479
0.0109486
0.0108554
0.0107312
0.0125441
0.0129446
0.0126667
0.0125837
0.0125247
0.0124644
0.0124111
0.0123597
0.0123096
0.0122614
0.0122152
0.012171
0.0121286
0.0120875
0.0120472
0.0120076
0.0119683
0.0119297
0.0118914
0.0118538
0.0118164
0.0117791
0.0117414
0.011703
0.0116631
0.0116215
0.0115773
0.0115299
0.0114783
0.0114227
0.0113601
0.0112941
0.011214
0.0111401
0.0110255
0.0125622
0.0129728
0.0126889
0.0126026
0.0125417
0.0124804
0.0124269
0.012376
0.012327
0.0122805
0.0122365
0.012195
0.0121559
0.0121187
0.0120829
0.0120486
0.0120152
0.0119835
0.0119525
0.0119233
0.0118947
0.0118674
0.0118403
0.0118134
0.011786
0.0117577
0.0117277
0.0116954
0.0116598
0.011621
0.0115759
0.0115285
0.011466
0.0114136
0.0113074
0.0125786
0.0129973
0.0127093
0.0126201
0.0125574
0.0124949
0.0124411
0.0123907
0.0123429
0.0122983
0.0122567
0.0122184
0.0121828
0.0121498
0.0121187
0.0120898
0.0120624
0.0120372
0.0120136
0.0119923
0.0119728
0.011955
0.0119385
0.0119232
0.0119082
0.0118935
0.0118779
0.0118615
0.0118427
0.0118222
0.0117968
0.0117707
0.0117333
0.0117051
0.0116426
0.0125943
0.0130201
0.0127289
0.0126374
0.0125733
0.0125103
0.0124564
0.0124065
0.0123598
0.0123166
0.0122771
0.0122413
0.0122088
0.0121793
0.0121525
0.0121284
0.0121065
0.0120875
0.0120709
0.0120573
0.0120462
0.0120378
0.0120316
0.0120274
0.0120246
0.0120229
0.0120215
0.0120202
0.0120179
0.0120146
0.0120079
0.0120005
0.0119851
0.0119738
0.0119441
0.012608
0.0130412
0.0127468
0.0126529
0.0125875
0.0125236
0.0124696
0.0124204
0.0123749
0.0123336
0.0122964
0.0122633
0.0122339
0.012208
0.0121853
0.0121659
0.0121494
0.0121362
0.0121263
0.0121199
0.012117
0.0121175
0.0121212
0.0121278
0.0121367
0.0121479
0.0121607
0.0121747
0.0121889
0.0122035
0.0122164
0.0122292
0.0122361
0.0122466
0.0122384
0.01262
0.0130613
0.0127636
0.012668
0.0126018
0.0125376
0.0124838
0.0124351
0.0123905
0.0123505
0.0123151
0.0122842
0.0122576
0.0122349
0.0122159
0.0122008
0.0121892
0.0121817
0.0121779
0.0121785
0.0121832
0.0121922
0.0122052
0.012222
0.0122423
0.0122659
0.0122921
0.0123208
0.012351
0.0123828
0.0124143
0.0124471
0.0124745
0.0125081
0.0125163
0.012631
0.0130794
0.0127792
0.0126819
0.0126145
0.0125497
0.012496
0.0124478
0.0124042
0.0123656
0.0123321
0.0123035
0.0122796
0.0122602
0.0122448
0.0122339
0.012227
0.0122247
0.0122269
0.012234
0.0122459
0.012263
0.0122848
0.0123115
0.0123426
0.0123782
0.0124175
0.0124606
0.0125067
0.0125558
0.0126065
0.0126601
0.0127119
0.0127703
0.0128153
0.012641
0.0130948
0.0127934
0.0126948
0.0126268
0.012562
0.0125085
0.0124608
0.012418
0.0123806
0.0123486
0.0123221
0.0123006
0.0122838
0.0122717
0.0122644
0.0122619
0.0122644
0.012272
0.0122852
0.0123039
0.0123285
0.0123587
0.0123947
0.012436
0.0124828
0.0125345
0.0125912
0.0126522
0.0127176
0.0127862
0.0128588
0.0129325
0.0130111
0.0130866
0.0126504
0.013109
0.0128062
0.0127062
0.0126374
0.0125723
0.012519
0.0124718
0.01243
0.0123939
0.0123635
0.0123389
0.0123198
0.0123057
0.0122965
0.0122926
0.012294
0.0123009
0.0123135
0.0123321
0.0123571
0.0123886
0.0124265
0.012471
0.0125219
0.0125792
0.0126426
0.0127121
0.0127874
0.0128683
0.0129543
0.0130456
0.0131406
0.0132408
0.0133429
0.0126579
0.0131219
0.0128176
0.0127167
0.0126474
0.0125823
0.0125293
0.0124827
0.0124416
0.0124065
0.0123775
0.0123545
0.0123373
0.0123254
0.0123189
0.0123181
0.0123229
0.0123338
0.0123509
0.0123746
0.0124052
0.0124429
0.0124879
0.0125402
0.0125998
0.0126667
0.0127408
0.0128221
0.0129104
0.0130058
0.0131077
0.0132164
0.0133305
0.0134516
0.0135757
0.0126644
0.0131336
0.0128276
0.0127257
0.0126559
0.0125907
0.0125379
0.0124917
0.0124514
0.0124173
0.0123896
0.0123681
0.0123526
0.0123429
0.0123388
0.0123407
0.0123487
0.0123631
0.0123841
0.0124123
0.0124478
0.0124911
0.0125423
0.0126016
0.0126689
0.0127445
0.0128282
0.0129203
0.0130206
0.0131292
0.0132456
0.0133705
0.0135019
0.0136428
0.0137844
0.01267
0.0131436
0.0128366
0.0127339
0.0126636
0.0125984
0.0125459
0.0125001
0.0124603
0.0124269
0.0124001
0.0123798
0.0123659
0.0123579
0.0123559
0.0123602
0.0123709
0.0123884
0.0124129
0.012445
0.012485
0.0125332
0.0125899
0.0126552
0.0127294
0.0128126
0.0129049
0.0130065
0.0131174
0.0132378
0.0133675
0.013507
0.0136552
0.0138146
0.0139797
0.0126747
0.0131512
0.0128437
0.0127404
0.0126698
0.0126047
0.0125523
0.0125069
0.0124675
0.0124348
0.0124089
0.0123898
0.0123772
0.0123708
0.0123705
0.0123767
0.0123897
0.0124098
0.0124373
0.0124726
0.0125163
0.0125686
0.0126299
0.0127005
0.0127805
0.0128702
0.0129698
0.0130795
0.0131995
0.01333
0.0134709
0.0136229
0.0137853
0.0139593
0.0141429
0.0126788
0.0131576
0.0128497
0.012746
0.0126751
0.0126099
0.0125577
0.0125126
0.0124736
0.0124415
0.0124162
0.012398
0.0123865
0.0123813
0.0123823
0.01239
0.0124049
0.0124271
0.0124569
0.0124949
0.0125415
0.0125972
0.0126623
0.0127371
0.0128219
0.0129169
0.0130225
0.0131388
0.0132662
0.013405
0.0135553
0.0137176
0.0138918
0.0140787
0.0142773
0.0126817
0.0131625
0.0128541
0.01275
0.0126789
0.0126138
0.0125618
0.0125168
0.0124782
0.0124465
0.0124218
0.0124042
0.0123936
0.0123892
0.0123912
0.0124002
0.0124164
0.0124401
0.0124717
0.0125117
0.0125606
0.0126188
0.0126868
0.0127648
0.0128532
0.0129522
0.0130623
0.0131837
0.0133168
0.0134619
0.0136193
0.0137895
0.0139726
0.0141693
0.014379
0.0126836
0.0131661
0.0128572
0.0127528
0.0126816
0.0126164
0.0125645
0.0125198
0.0124814
0.01245
0.0124257
0.0124085
0.0123982
0.0123945
0.0123973
0.012407
0.0124242
0.0124489
0.0124817
0.012523
0.0125734
0.0126334
0.0127032
0.0127834
0.0128741
0.0129759
0.013089
0.0132139
0.0133508
0.0135002
0.0136625
0.0138381
0.0140273
0.0142308
0.0144481
0.0126846
0.0131682
0.0128588
0.0127543
0.012683
0.0126179
0.012566
0.0125213
0.012483
0.0124518
0.0124277
0.0124107
0.0124006
0.0123972
0.0124004
0.0124106
0.0124281
0.0124534
0.0124867
0.0125287
0.0125799
0.0126407
0.0127115
0.0127927
0.0128847
0.0129878
0.0131024
0.013229
0.0133679
0.0135195
0.0136842
0.0138626
0.0140548
0.0142617
0.0144828
0.0124764
0.0128495
0.0125938
0.0125249
0.0124742
0.0124192
0.0123675
0.0123145
0.0122601
0.0122053
0.0121505
0.0120961
0.0120417
0.0119868
0.0119306
0.011873
0.0118136
0.011753
0.0116903
0.0116264
0.0115601
0.0114919
0.0114208
0.0113467
0.0112687
0.0111865
0.0110992
0.0110063
0.0109071
0.0108009
0.0106865
0.0105646
0.0104279
0.0102934
0.0101018
0.0125005
0.0128832
0.0126195
0.012545
0.012491
0.012434
0.0123816
0.0123291
0.0122761
0.0122237
0.0121721
0.0121216
0.0120717
0.0120221
0.0119718
0.0119208
0.0118685
0.0118156
0.0117613
0.0117064
0.0116499
0.0115922
0.0115325
0.0114704
0.0114053
0.0113368
0.011264
0.0111866
0.0111035
0.0110149
0.0109187
0.0108188
0.0107046
0.0106017
0.0104507
0.0125233
0.012914
0.0126439
0.012565
0.0125085
0.0124499
0.012397
0.012345
0.0122933
0.0122427
0.0121936
0.0121459
0.0120995
0.0120539
0.0120084
0.011963
0.0119172
0.0118714
0.0118254
0.0117792
0.0117324
0.011685
0.0116363
0.0115861
0.0115334
0.0114782
0.0114192
0.0113563
0.0112881
0.0112147
0.0111335
0.0110481
0.0109487
0.0108556
0.0107314
0.0125433
0.0129429
0.0126667
0.0125837
0.0125246
0.0124644
0.012411
0.0123597
0.0123096
0.0122614
0.0122152
0.012171
0.0121285
0.0120875
0.0120472
0.0120076
0.0119683
0.0119297
0.0118914
0.0118538
0.0118164
0.0117791
0.0117414
0.011703
0.0116631
0.0116215
0.0115773
0.01153
0.0114784
0.0114228
0.0113602
0.0112942
0.0112141
0.0111402
0.0110256
0.0125616
0.0129711
0.0126889
0.0126026
0.0125417
0.0124803
0.0124268
0.0123759
0.0123269
0.0122804
0.0122364
0.012195
0.0121558
0.0121187
0.0120829
0.0120486
0.0120152
0.0119834
0.0119525
0.0119233
0.0118947
0.0118674
0.0118403
0.0118134
0.011786
0.0117577
0.0117277
0.0116954
0.0116598
0.011621
0.0115759
0.0115286
0.0114661
0.0114137
0.0113075
0.012578
0.0129956
0.0127093
0.0126201
0.0125573
0.0124949
0.012441
0.0123906
0.0123429
0.0122982
0.0122567
0.0122183
0.0121828
0.0121497
0.0121187
0.0120898
0.0120624
0.0120372
0.0120136
0.0119923
0.0119727
0.011955
0.0119385
0.0119232
0.0119082
0.0118934
0.0118779
0.0118615
0.0118427
0.0118222
0.0117969
0.0117707
0.0117334
0.0117051
0.0116427
0.0125937
0.0130184
0.0127289
0.0126373
0.0125733
0.0125102
0.0124564
0.0124065
0.0123597
0.0123166
0.0122771
0.0122413
0.0122088
0.0121793
0.0121524
0.0121283
0.0121065
0.0120874
0.0120709
0.0120572
0.0120462
0.0120378
0.0120316
0.0120274
0.0120245
0.0120228
0.0120215
0.0120202
0.0120179
0.0120146
0.0120079
0.0120005
0.0119851
0.0119739
0.0119442
0.0126074
0.0130395
0.0127468
0.0126529
0.0125874
0.0125235
0.0124695
0.0124203
0.0123748
0.0123335
0.0122963
0.0122632
0.0122338
0.012208
0.0121852
0.0121658
0.0121493
0.0121362
0.0121263
0.0121199
0.012117
0.0121175
0.0121211
0.0121277
0.0121367
0.0121479
0.0121606
0.0121746
0.0121889
0.0122035
0.0122163
0.0122292
0.012236
0.0122466
0.0122384
0.0126196
0.0130596
0.0127636
0.0126679
0.0126016
0.0125375
0.0124837
0.012435
0.0123904
0.0123504
0.012315
0.0122842
0.0122575
0.0122349
0.0122159
0.0122008
0.0121892
0.0121816
0.0121779
0.0121785
0.0121832
0.0121922
0.0122051
0.012222
0.0122423
0.0122658
0.0122921
0.0123207
0.012351
0.0123828
0.0124142
0.012447
0.0124744
0.012508
0.0125162
0.0126308
0.0130778
0.0127793
0.0126817
0.0126143
0.0125497
0.0124959
0.0124477
0.0124041
0.0123655
0.012332
0.0123035
0.0122795
0.0122601
0.0122447
0.0122338
0.0122269
0.0122246
0.0122268
0.0122339
0.0122458
0.0122629
0.0122847
0.0123114
0.0123425
0.012378
0.0124174
0.0124605
0.0125066
0.0125557
0.0126064
0.01266
0.0127118
0.0127702
0.0128152
0.0126407
0.0130933
0.0127934
0.0126946
0.0126266
0.0125619
0.0125084
0.0124607
0.0124179
0.0123805
0.0123485
0.012322
0.0123005
0.0122837
0.0122716
0.0122643
0.0122618
0.0122643
0.0122719
0.0122851
0.0123038
0.0123284
0.0123586
0.0123945
0.0124359
0.0124827
0.0125344
0.0125911
0.0126521
0.0127175
0.0127861
0.0128586
0.0129323
0.013011
0.0130865
0.01265
0.0131075
0.0128063
0.012706
0.0126372
0.0125722
0.0125189
0.0124717
0.0124299
0.0123938
0.0123634
0.0123389
0.0123197
0.0123056
0.0122964
0.0122925
0.0122939
0.0123008
0.0123134
0.0123321
0.012357
0.0123885
0.0124264
0.0124709
0.0125218
0.012579
0.0126424
0.012712
0.0127872
0.0128682
0.0129541
0.0130454
0.0131404
0.0132407
0.0133427
0.0126576
0.0131204
0.0128177
0.0127165
0.0126472
0.0125822
0.0125291
0.0124825
0.0124415
0.0124064
0.0123774
0.0123544
0.0123372
0.0123253
0.0123188
0.012318
0.0123229
0.0123337
0.0123508
0.0123745
0.0124051
0.0124428
0.0124878
0.0125401
0.0125996
0.0126665
0.0127406
0.0128219
0.0129103
0.0130056
0.0131075
0.0132162
0.0133303
0.0134514
0.0135755
0.0126643
0.0131321
0.0128276
0.0127254
0.0126557
0.0125905
0.0125378
0.0124916
0.0124512
0.0124172
0.0123895
0.012368
0.0123525
0.0123428
0.0123387
0.0123406
0.0123486
0.012363
0.012384
0.0124122
0.0124477
0.012491
0.0125422
0.0126014
0.0126687
0.0127443
0.0128281
0.0129201
0.0130204
0.013129
0.0132454
0.0133702
0.0135017
0.0136425
0.0137842
0.01267
0.0131422
0.0128367
0.0127336
0.0126633
0.0125982
0.0125458
0.0125
0.0124601
0.0124268
0.0124
0.0123797
0.0123658
0.0123578
0.0123558
0.0123601
0.0123708
0.0123883
0.0124128
0.0124449
0.0124849
0.012533
0.0125897
0.0126551
0.0127292
0.0128124
0.0129047
0.0130063
0.0131171
0.0132375
0.0133672
0.0135067
0.013655
0.0138143
0.0139794
0.0126747
0.0131499
0.0128438
0.0127401
0.0126696
0.0126045
0.0125522
0.0125068
0.0124674
0.0124347
0.0124088
0.0123897
0.0123771
0.0123707
0.0123703
0.0123766
0.0123896
0.0124097
0.0124371
0.0124725
0.0125161
0.0125685
0.0126298
0.0127003
0.0127803
0.01287
0.0129696
0.0130793
0.0131992
0.0133297
0.0134707
0.0136226
0.013785
0.0139591
0.0141427
0.0126787
0.0131563
0.0128498
0.0127456
0.0126748
0.0126097
0.0125576
0.0125125
0.0124735
0.0124414
0.0124161
0.0123979
0.0123864
0.0123811
0.0123821
0.0123899
0.0124047
0.0124269
0.0124568
0.0124947
0.0125414
0.0125971
0.0126622
0.012737
0.0128217
0.0129167
0.0130223
0.0131386
0.013266
0.0134047
0.0135551
0.0137174
0.0138916
0.0140784
0.014277
0.0126817
0.0131612
0.0128542
0.0127496
0.0126786
0.0126136
0.0125616
0.0125167
0.0124781
0.0124464
0.0124217
0.0124041
0.0123934
0.0123891
0.0123911
0.0124
0.0124162
0.01244
0.0124716
0.0125116
0.0125604
0.0126187
0.0126866
0.0127646
0.012853
0.012952
0.0130621
0.0131835
0.0133165
0.0134616
0.0136191
0.0137893
0.0139724
0.014169
0.0143787
0.0126836
0.0131648
0.0128573
0.0127524
0.0126813
0.0126163
0.0125644
0.0125196
0.0124813
0.0124499
0.0124255
0.0124084
0.0123981
0.0123944
0.0123971
0.0124069
0.012424
0.0124488
0.0124816
0.0125229
0.0125733
0.0126332
0.012703
0.0127832
0.0128739
0.0129757
0.0130888
0.0132136
0.0133505
0.0135
0.0136622
0.0138379
0.014027
0.0142304
0.0144477
0.0126847
0.013167
0.0128589
0.0127538
0.0126827
0.0126177
0.0125659
0.0125212
0.0124829
0.0124517
0.0124275
0.0124106
0.0124005
0.0123971
0.0124002
0.0124104
0.012428
0.0124532
0.0124866
0.0125286
0.0125797
0.0126405
0.0127113
0.0127925
0.0128845
0.0129876
0.0131022
0.0132288
0.0133676
0.0135192
0.013684
0.0138623
0.0140545
0.0142614
0.0144825
0.0124794
0.0128466
0.0125937
0.0125251
0.0124743
0.0124193
0.0123675
0.0123145
0.0122601
0.0122053
0.0121505
0.0120961
0.0120417
0.0119868
0.0119306
0.0118731
0.0118136
0.011753
0.0116903
0.0116264
0.0115601
0.0114919
0.0114208
0.0113467
0.0112687
0.0111865
0.0110992
0.0110063
0.0109071
0.0108009
0.0106865
0.0105646
0.0104279
0.0102933
0.0101016
0.0125037
0.0128802
0.0126193
0.0125451
0.0124911
0.0124341
0.0123816
0.0123291
0.0122761
0.0122237
0.0121721
0.0121216
0.0120717
0.0120221
0.0119718
0.0119208
0.0118685
0.0118156
0.0117613
0.0117064
0.0116499
0.0115922
0.0115324
0.0114704
0.0114053
0.0113368
0.011264
0.0111866
0.0111035
0.0110149
0.0109187
0.0108188
0.0107046
0.0106017
0.0104508
0.0125265
0.0129109
0.0126437
0.0125651
0.0125086
0.0124499
0.012397
0.012345
0.0122933
0.0122428
0.0121936
0.0121459
0.0120995
0.0120539
0.0120084
0.011963
0.0119172
0.0118714
0.0118254
0.0117792
0.0117324
0.011685
0.0116363
0.0115861
0.0115334
0.0114782
0.0114192
0.0113563
0.011288
0.0112147
0.0111335
0.0110481
0.0109487
0.0108556
0.0107314
0.0125465
0.0129397
0.0126665
0.0125839
0.0125247
0.0124644
0.012411
0.0123597
0.0123096
0.0122614
0.0122151
0.012171
0.0121285
0.0120875
0.0120472
0.0120076
0.0119683
0.0119297
0.0118914
0.0118538
0.0118164
0.0117791
0.0117414
0.011703
0.0116631
0.0116215
0.0115773
0.01153
0.0114784
0.0114228
0.0113602
0.0112942
0.0112141
0.0111402
0.0110256
0.0125648
0.0129678
0.0126887
0.0126027
0.0125418
0.0124804
0.0124268
0.0123759
0.0123269
0.0122804
0.0122364
0.012195
0.0121558
0.0121187
0.0120829
0.0120486
0.0120152
0.0119834
0.0119525
0.0119233
0.0118947
0.0118674
0.0118403
0.0118134
0.011786
0.0117577
0.0117277
0.0116954
0.0116598
0.011621
0.0115759
0.0115285
0.011466
0.0114137
0.0113075
0.0125813
0.0129922
0.0127091
0.0126202
0.0125574
0.0124949
0.0124411
0.0123907
0.0123429
0.0122982
0.0122567
0.0122183
0.0121828
0.0121497
0.0121187
0.0120898
0.0120624
0.0120372
0.0120136
0.0119923
0.0119727
0.011955
0.0119385
0.0119232
0.0119082
0.0118934
0.0118779
0.0118614
0.0118427
0.0118222
0.0117969
0.0117707
0.0117333
0.0117051
0.0116427
0.012597
0.013015
0.0127287
0.0126375
0.0125734
0.0125103
0.0124564
0.0124065
0.0123597
0.0123166
0.0122771
0.0122413
0.0122087
0.0121793
0.0121524
0.0121283
0.0121065
0.0120874
0.0120709
0.0120572
0.0120462
0.0120378
0.0120316
0.0120273
0.0120245
0.0120228
0.0120215
0.0120202
0.0120179
0.0120146
0.0120079
0.0120005
0.0119851
0.0119739
0.0119442
0.0126107
0.013036
0.0127466
0.012653
0.0125875
0.0125236
0.0124696
0.0124203
0.0123748
0.0123335
0.0122963
0.0122632
0.0122338
0.012208
0.0121852
0.0121658
0.0121493
0.0121362
0.0121263
0.0121199
0.012117
0.0121175
0.0121211
0.0121277
0.0121367
0.0121479
0.0121606
0.0121746
0.0121889
0.0122035
0.0122163
0.0122292
0.012236
0.0122466
0.0122384
0.012623
0.013056
0.0127634
0.0126681
0.0126018
0.0125376
0.0124837
0.012435
0.0123904
0.0123504
0.012315
0.0122842
0.0122575
0.0122349
0.0122159
0.0122008
0.0121892
0.0121816
0.0121779
0.0121785
0.0121832
0.0121922
0.0122051
0.012222
0.0122423
0.0122658
0.0122921
0.0123207
0.012351
0.0123828
0.0124142
0.012447
0.0124744
0.012508
0.0125162
0.0126341
0.0130741
0.012779
0.0126819
0.0126145
0.0125497
0.012496
0.0124478
0.0124041
0.0123655
0.012332
0.0123035
0.0122795
0.0122601
0.0122447
0.0122338
0.0122269
0.0122246
0.0122268
0.0122339
0.0122458
0.0122629
0.0122847
0.0123114
0.0123425
0.012378
0.0124174
0.0124605
0.0125066
0.0125557
0.0126064
0.01266
0.0127118
0.0127702
0.0128153
0.0126441
0.0130895
0.0127931
0.0126948
0.0126268
0.012562
0.0125084
0.0124608
0.0124179
0.0123805
0.0123485
0.012322
0.0123005
0.0122837
0.0122716
0.0122643
0.0122618
0.0122643
0.0122719
0.0122851
0.0123038
0.0123284
0.0123586
0.0123945
0.0124359
0.0124827
0.0125344
0.0125911
0.0126521
0.0127175
0.0127861
0.0128586
0.0129323
0.013011
0.0130865
0.0126534
0.0131037
0.012806
0.0127062
0.0126374
0.0125723
0.0125189
0.0124718
0.0124299
0.0123938
0.0123634
0.0123389
0.0123197
0.0123056
0.0122964
0.0122925
0.0122939
0.0123008
0.0123134
0.0123321
0.012357
0.0123885
0.0124264
0.0124709
0.0125218
0.012579
0.0126424
0.012712
0.0127872
0.0128682
0.0129541
0.0130454
0.0131405
0.0132407
0.0133427
0.012661
0.0131166
0.0128174
0.0127167
0.0126474
0.0125823
0.0125292
0.0124826
0.0124415
0.0124064
0.0123774
0.0123544
0.0123372
0.0123253
0.0123188
0.012318
0.0123229
0.0123337
0.0123508
0.0123745
0.0124051
0.0124428
0.0124878
0.0125401
0.0125996
0.0126665
0.0127406
0.0128219
0.0129103
0.0130056
0.0131075
0.0132162
0.0133303
0.0134515
0.0135756
0.0126677
0.0131282
0.0128273
0.0127256
0.0126559
0.0125906
0.0125378
0.0124916
0.0124513
0.0124172
0.0123894
0.012368
0.0123525
0.0123428
0.0123387
0.0123406
0.0123486
0.012363
0.012384
0.0124122
0.0124477
0.012491
0.0125422
0.0126014
0.0126687
0.0127443
0.0128281
0.0129201
0.0130204
0.013129
0.0132454
0.0133703
0.0135017
0.0136426
0.0137842
0.0126733
0.0131382
0.0128364
0.0127338
0.0126636
0.0125983
0.0125458
0.0125
0.0124602
0.0124268
0.0124
0.0123797
0.0123658
0.0123578
0.0123558
0.0123601
0.0123708
0.0123883
0.0124128
0.0124449
0.0124849
0.0125331
0.0125897
0.0126551
0.0127292
0.0128124
0.0129047
0.0130063
0.0131172
0.0132375
0.0133672
0.0135067
0.013655
0.0138144
0.0139794
0.0126781
0.0131459
0.0128435
0.0127403
0.0126698
0.0126046
0.0125523
0.0125068
0.0124674
0.0124347
0.0124088
0.0123897
0.0123771
0.0123707
0.0123704
0.0123766
0.0123896
0.0124097
0.0124372
0.0124725
0.0125161
0.0125685
0.0126298
0.0127003
0.0127803
0.01287
0.0129696
0.0130793
0.0131993
0.0133297
0.0134707
0.0136226
0.013785
0.0139591
0.0141427
0.0126821
0.0131523
0.0128495
0.0127458
0.012675
0.0126098
0.0125576
0.0125125
0.0124735
0.0124414
0.0124161
0.0123979
0.0123864
0.0123811
0.0123821
0.0123899
0.0124048
0.0124269
0.0124568
0.0124948
0.0125414
0.0125971
0.0126622
0.012737
0.0128217
0.0129167
0.0130223
0.0131386
0.013266
0.0134048
0.0135551
0.0137174
0.0138916
0.0140784
0.014277
0.0126851
0.0131572
0.0128539
0.0127498
0.0126789
0.0126137
0.0125617
0.0125167
0.0124781
0.0124464
0.0124217
0.0124041
0.0123934
0.0123891
0.0123911
0.0124
0.0124163
0.01244
0.0124716
0.0125116
0.0125604
0.0126187
0.0126866
0.0127646
0.012853
0.012952
0.0130621
0.0131835
0.0133165
0.0134617
0.0136191
0.0137893
0.0139724
0.014169
0.0143787
0.012687
0.0131607
0.012857
0.0127526
0.0126815
0.0126164
0.0125644
0.0125197
0.0124813
0.0124499
0.0124255
0.0124084
0.0123981
0.0123944
0.0123971
0.0124069
0.012424
0.0124488
0.0124816
0.0125229
0.0125733
0.0126332
0.012703
0.0127832
0.012874
0.0129757
0.0130888
0.0132136
0.0133505
0.0135
0.0136623
0.0138379
0.014027
0.0142305
0.0144478
0.012688
0.0131629
0.0128586
0.0127541
0.0126829
0.0126178
0.0125659
0.0125212
0.0124829
0.0124517
0.0124275
0.0124106
0.0124005
0.0123971
0.0124002
0.0124104
0.012428
0.0124532
0.0124866
0.0125286
0.0125797
0.0126405
0.0127113
0.0127925
0.0128845
0.0129876
0.0131022
0.0132288
0.0133676
0.0135192
0.013684
0.0138623
0.0140546
0.0142614
0.0144825
0.0124831
0.0128428
0.0125934
0.0125251
0.0124744
0.0124193
0.0123676
0.0123145
0.0122601
0.0122052
0.0121505
0.0120961
0.0120417
0.0119868
0.0119306
0.011873
0.0118136
0.011753
0.0116903
0.0116264
0.0115602
0.0114919
0.0114209
0.0113467
0.0112687
0.0111865
0.0110992
0.0110063
0.0109071
0.0108009
0.0106865
0.0105646
0.0104279
0.0102933
0.0101014
0.0125074
0.0128762
0.012619
0.0125452
0.0124912
0.0124341
0.0123817
0.0123291
0.0122762
0.0122237
0.0121721
0.0121216
0.0120717
0.0120221
0.0119718
0.0119208
0.0118685
0.0118156
0.0117613
0.0117064
0.0116499
0.0115922
0.0115325
0.0114704
0.0114053
0.0113368
0.011264
0.0111866
0.0111035
0.011015
0.0109188
0.0108188
0.0107047
0.0106018
0.0104509
0.0125303
0.0129069
0.0126434
0.0125652
0.0125087
0.01245
0.0123971
0.012345
0.0122933
0.0122428
0.0121936
0.0121459
0.0120995
0.0120539
0.0120084
0.011963
0.0119172
0.0118714
0.0118254
0.0117792
0.0117324
0.011685
0.0116363
0.0115861
0.0115334
0.0114782
0.0114192
0.0113563
0.0112881
0.0112147
0.0111335
0.0110481
0.0109487
0.0108557
0.0107315
0.0125504
0.0129356
0.0126662
0.0125839
0.0125248
0.0124645
0.012411
0.0123597
0.0123096
0.0122613
0.0122151
0.0121709
0.0121285
0.0120875
0.0120472
0.0120076
0.0119683
0.0119297
0.0118914
0.0118538
0.0118164
0.0117791
0.0117414
0.0117029
0.0116631
0.0116215
0.0115773
0.01153
0.0114784
0.0114228
0.0113602
0.0112942
0.0112141
0.0111402
0.0110256
0.0125689
0.0129636
0.0126884
0.0126028
0.0125419
0.0124805
0.0124268
0.0123759
0.0123269
0.0122804
0.0122364
0.012195
0.0121558
0.0121186
0.0120829
0.0120486
0.0120152
0.0119834
0.0119525
0.0119232
0.0118947
0.0118673
0.0118403
0.0118134
0.011786
0.0117577
0.0117276
0.0116954
0.0116598
0.011621
0.0115759
0.0115285
0.011466
0.0114136
0.0113074
0.0125854
0.012988
0.0127088
0.0126203
0.0125575
0.012495
0.0124411
0.0123907
0.0123429
0.0122982
0.0122567
0.0122183
0.0121827
0.0121497
0.0121187
0.0120898
0.0120624
0.0120372
0.0120136
0.0119923
0.0119727
0.0119549
0.0119385
0.0119231
0.0119082
0.0118934
0.0118779
0.0118614
0.0118427
0.0118221
0.0117969
0.0117707
0.0117334
0.0117052
0.0116428
0.0126011
0.0130106
0.0127284
0.0126375
0.0125735
0.0125104
0.0124564
0.0124065
0.0123597
0.0123166
0.0122771
0.0122412
0.0122087
0.0121793
0.0121524
0.0121283
0.0121065
0.0120874
0.0120709
0.0120572
0.0120462
0.0120378
0.0120316
0.0120273
0.0120245
0.0120228
0.0120215
0.0120202
0.0120178
0.0120146
0.0120079
0.0120005
0.011985
0.0119739
0.0119443
0.0126149
0.0130316
0.0127463
0.0126531
0.0125876
0.0125236
0.0124696
0.0124203
0.0123748
0.0123335
0.0122963
0.0122632
0.0122338
0.012208
0.0121852
0.0121658
0.0121493
0.0121362
0.0121263
0.0121199
0.012117
0.0121175
0.0121211
0.0121277
0.0121367
0.0121479
0.0121606
0.0121746
0.0121889
0.0122035
0.0122163
0.0122292
0.012236
0.0122466
0.0122384
0.0126273
0.0130515
0.0127631
0.0126681
0.0126019
0.0125376
0.0124837
0.012435
0.0123904
0.0123504
0.012315
0.0122841
0.0122575
0.0122349
0.0122158
0.0122008
0.0121892
0.0121816
0.0121779
0.0121785
0.0121832
0.0121921
0.0122051
0.012222
0.0122422
0.0122658
0.012292
0.0123207
0.0123509
0.0123827
0.0124142
0.012447
0.0124744
0.012508
0.0125162
0.0126385
0.0130696
0.0127787
0.0126819
0.0126146
0.0125498
0.012496
0.0124478
0.0124041
0.0123655
0.012332
0.0123034
0.0122795
0.0122601
0.0122447
0.0122338
0.0122269
0.0122246
0.0122268
0.0122339
0.0122458
0.0122629
0.0122847
0.0123114
0.0123425
0.012378
0.0124174
0.0124605
0.0125066
0.0125557
0.0126064
0.01266
0.0127118
0.0127702
0.0128153
0.0126485
0.013085
0.0127928
0.0126948
0.0126269
0.012562
0.0125085
0.0124608
0.0124179
0.0123805
0.0123485
0.0123219
0.0123004
0.0122837
0.0122716
0.0122643
0.0122618
0.0122643
0.0122719
0.0122851
0.0123038
0.0123284
0.0123586
0.0123945
0.0124359
0.0124826
0.0125344
0.0125911
0.0126521
0.0127174
0.012786
0.0128586
0.0129323
0.0130109
0.0130866
0.0126579
0.0130991
0.0128057
0.0127063
0.0126375
0.0125723
0.0125189
0.0124718
0.0124299
0.0123938
0.0123634
0.0123388
0.0123197
0.0123055
0.0122964
0.0122925
0.0122939
0.0123008
0.0123134
0.012332
0.012357
0.0123884
0.0124264
0.0124709
0.0125217
0.012579
0.0126424
0.0127119
0.0127872
0.0128681
0.0129541
0.0130454
0.0131404
0.0132407
0.0133428
0.0126655
0.013112
0.0128171
0.0127167
0.0126475
0.0125823
0.0125292
0.0124826
0.0124415
0.0124064
0.0123774
0.0123544
0.0123371
0.0123253
0.0123188
0.012318
0.0123229
0.0123337
0.0123508
0.0123745
0.012405
0.0124428
0.0124877
0.01254
0.0125996
0.0126665
0.0127406
0.0128219
0.0129102
0.0130056
0.0131075
0.0132161
0.0133303
0.0134514
0.0135756
0.0126722
0.0131235
0.012827
0.0127256
0.012656
0.0125907
0.0125378
0.0124916
0.0124512
0.0124172
0.0123894
0.0123679
0.0123525
0.0123428
0.0123387
0.0123406
0.0123486
0.012363
0.012384
0.0124122
0.0124477
0.012491
0.0125421
0.0126014
0.0126687
0.0127442
0.012828
0.0129201
0.0130204
0.0131289
0.0132454
0.0133702
0.0135016
0.0136425
0.0137841
0.0126779
0.0131335
0.012836
0.0127338
0.0126636
0.0125984
0.0125458
0.0125
0.0124601
0.0124268
0.0124
0.0123797
0.0123657
0.0123578
0.0123558
0.0123601
0.0123708
0.0123883
0.0124128
0.0124449
0.0124848
0.012533
0.0125897
0.012655
0.0127292
0.0128124
0.0129047
0.0130062
0.0131171
0.0132375
0.0133672
0.0135067
0.0136549
0.0138143
0.0139794
0.0126827
0.0131412
0.0128432
0.0127404
0.0126699
0.0126047
0.0125523
0.0125068
0.0124674
0.0124347
0.0124088
0.0123896
0.0123771
0.0123706
0.0123703
0.0123766
0.0123896
0.0124097
0.0124371
0.0124725
0.0125161
0.0125684
0.0126297
0.0127003
0.0127803
0.01287
0.0129696
0.0130793
0.0131992
0.0133297
0.0134707
0.0136226
0.013785
0.013959
0.0141426
0.0126867
0.0131476
0.0128492
0.0127458
0.0126751
0.0126099
0.0125577
0.0125125
0.0124735
0.0124414
0.0124161
0.0123979
0.0123864
0.0123811
0.0123821
0.0123899
0.0124047
0.0124269
0.0124567
0.0124947
0.0125413
0.012597
0.0126621
0.0127369
0.0128217
0.0129167
0.0130222
0.0131385
0.0132659
0.0134047
0.013555
0.0137173
0.0138915
0.0140784
0.014277
0.0126897
0.0131524
0.0128536
0.0127499
0.0126789
0.0126137
0.0125617
0.0125167
0.0124781
0.0124464
0.0124216
0.0124041
0.0123934
0.012389
0.0123911
0.0124
0.0124162
0.01244
0.0124716
0.0125116
0.0125604
0.0126186
0.0126866
0.0127646
0.0128529
0.012952
0.013062
0.0131834
0.0133165
0.0134616
0.013619
0.0137892
0.0139723
0.0141689
0.0143787
0.0126916
0.0131559
0.0128566
0.0127527
0.0126816
0.0126164
0.0125645
0.0125197
0.0124812
0.0124498
0.0124255
0.0124083
0.0123981
0.0123943
0.0123971
0.0124069
0.012424
0.0124488
0.0124816
0.0125229
0.0125732
0.0126332
0.012703
0.0127831
0.0128739
0.0129757
0.0130887
0.0132136
0.0133505
0.0134999
0.0136622
0.0138378
0.014027
0.0142304
0.0144477
0.0126927
0.0131581
0.0128582
0.0127541
0.012683
0.0126178
0.0125659
0.0125212
0.0124829
0.0124516
0.0124275
0.0124105
0.0124005
0.012397
0.0124002
0.0124104
0.012428
0.0124532
0.0124866
0.0125286
0.0125797
0.0126405
0.0127113
0.0127925
0.0128844
0.0129875
0.0131022
0.0132287
0.0133676
0.0135192
0.0136839
0.0138623
0.0140545
0.0142613
0.0144824
0.0124876
0.0128381
0.0125932
0.0125251
0.0124744
0.0124194
0.0123676
0.0123145
0.0122601
0.0122052
0.0121505
0.0120961
0.0120417
0.0119868
0.0119306
0.011873
0.0118136
0.011753
0.0116903
0.0116264
0.0115602
0.0114919
0.0114209
0.0113467
0.0112687
0.0111865
0.0110992
0.0110063
0.0109071
0.0108009
0.0106865
0.0105646
0.0104279
0.0102932
0.010101
0.0125121
0.0128714
0.0126188
0.0125452
0.0124912
0.0124341
0.0123817
0.0123291
0.0122762
0.0122237
0.0121721
0.0121215
0.0120717
0.012022
0.0119717
0.0119208
0.0118685
0.0118156
0.0117613
0.0117064
0.01165
0.0115922
0.0115324
0.0114704
0.0114053
0.0113368
0.011264
0.0111866
0.0111035
0.011015
0.0109188
0.0108188
0.0107047
0.0106017
0.0104509
0.0125351
0.012902
0.0126432
0.0125652
0.0125087
0.01245
0.0123971
0.0123451
0.0122934
0.0122428
0.0121936
0.0121459
0.0120995
0.0120539
0.0120084
0.011963
0.0119172
0.0118714
0.0118254
0.0117792
0.0117324
0.011685
0.0116363
0.0115861
0.0115334
0.0114782
0.0114192
0.0113563
0.0112881
0.0112147
0.0111335
0.0110481
0.0109487
0.0108557
0.0107316
0.0125553
0.0129306
0.0126659
0.0125839
0.0125248
0.0124645
0.0124111
0.0123597
0.0123096
0.0122613
0.0122151
0.0121709
0.0121285
0.0120874
0.0120472
0.0120076
0.0119683
0.0119297
0.0118914
0.0118538
0.0118164
0.0117791
0.0117414
0.0117029
0.0116631
0.0116215
0.0115773
0.01153
0.0114784
0.0114228
0.0113602
0.0112942
0.0112141
0.0111402
0.0110256
0.0125739
0.0129584
0.0126881
0.0126028
0.0125419
0.0124805
0.0124268
0.0123759
0.0123269
0.0122803
0.0122363
0.0121949
0.0121558
0.0121186
0.0120828
0.0120486
0.0120152
0.0119834
0.0119525
0.0119232
0.0118947
0.0118673
0.0118403
0.0118134
0.011786