/*--------------------------------*- C++ -*----------------------------------*\
  =========                 |
  \\      /  F ield         | OpenFOAM: The Open Source CFD Toolbox
   \\    /   O peration     | Website:  https://openfoam.org
    \\  /    A nd           | Version:  6
     \\/     M anipulation  |
\*---------------------------------------------------------------------------*/
FoamFile
{
    version     2.0;
    format      ascii;
    class       volScalarField;
    location    "1.8";
    object      omega;
}
// * * * * * * * * * * * * * * * * * * * * * * * * * * * * * * * * * * * * * //

dimensions      [0 0 -1 0 0 0 0];

internalField   nonuniform List<scalar> 
380496
(
843.917
843.917
843.917
843.917
843.917
843.917
843.917
843.917
843.917
843.917
843.917
843.917
843.917
843.917
843.917
843.917
843.917
843.917
843.917
843.917
843.917
843.917
843.917
843.917
843.917
843.917
843.917
843.917
843.917
843.917
843.917
843.917
843.917
843.917
843.917
843.917
843.917
843.917
843.917
843.917
843.917
843.917
843.917
843.917
843.917
843.917
843.917
843.917
843.917
843.917
843.917
843.917
843.917
843.917
843.917
843.917
843.917
843.917
843.917
843.917
843.917
843.917
843.917
843.917
843.917
843.917
843.917
843.917
843.917
843.917
843.917
843.917
843.917
843.917
843.917
843.917
843.917
843.917
843.917
843.917
843.917
843.917
843.917
843.917
843.917
843.917
843.917
843.917
843.917
843.917
843.917
843.917
843.917
843.917
843.917
843.917
843.917
843.917
843.917
843.917
843.917
843.917
843.917
843.917
843.917
843.917
843.917
843.917
843.917
843.917
843.917
843.917
843.917
843.917
843.917
843.917
843.917
843.917
843.917
843.917
843.917
843.917
843.917
843.917
843.917
843.917
843.917
843.917
843.917
843.917
843.917
843.917
843.917
843.917
843.917
843.917
843.917
843.917
843.917
843.917
843.917
843.917
843.917
843.917
843.917
843.917
843.917
843.917
843.917
843.917
843.917
843.917
843.917
843.917
843.917
843.917
843.917
843.917
843.917
843.917
843.917
843.917
843.917
843.917
843.917
843.917
843.917
843.917
843.917
843.917
843.917
843.917
843.917
843.917
843.917
843.917
843.917
843.917
843.917
843.917
843.917
843.917
843.917
843.917
843.917
843.917
843.917
843.917
843.917
843.917
843.917
843.917
843.917
843.917
843.917
843.917
843.917
843.917
843.917
843.917
843.917
843.917
843.917
843.917
843.917
843.917
843.917
843.917
843.917
843.917
843.917
843.917
843.917
843.917
843.917
843.917
843.917
843.917
843.917
843.917
843.917
843.917
843.917
843.917
843.917
843.917
843.917
843.917
843.917
843.917
843.917
843.917
843.917
843.917
843.917
843.917
843.917
843.917
843.917
843.917
843.917
843.917
843.917
843.917
843.917
843.917
843.917
843.917
843.917
843.917
843.917
843.917
843.917
843.917
843.917
843.917
843.917
843.917
843.917
843.917
843.917
843.917
843.917
843.917
843.917
843.917
843.917
843.917
843.917
843.917
843.917
843.917
843.917
843.917
843.917
843.917
843.917
843.917
843.917
843.917
843.917
843.917
843.917
843.917
843.917
843.917
843.917
843.917
843.917
843.917
843.917
843.917
843.917
843.917
843.917
843.917
843.917
843.917
843.917
843.917
843.917
843.917
843.917
843.917
843.917
843.917
843.917
843.917
843.917
843.917
843.917
843.917
843.917
843.917
843.917
843.917
843.917
843.917
843.917
843.917
843.917
843.917
843.917
843.917
843.917
843.917
843.917
843.917
843.917
843.917
843.917
843.917
843.917
843.917
843.917
843.917
843.917
843.917
843.917
843.917
843.917
843.917
843.917
843.917
843.917
843.917
843.917
843.917
843.917
843.917
843.917
843.917
843.917
843.917
843.917
843.917
843.917
843.917
843.917
843.917
843.917
843.917
843.917
843.917
843.917
843.917
843.917
843.917
843.917
843.917
843.917
843.917
843.917
843.917
843.917
843.917
843.917
843.917
843.917
843.917
843.917
843.917
843.917
843.917
843.917
843.917
843.917
843.917
843.917
843.917
843.917
843.917
843.917
843.917
843.917
843.917
843.917
843.917
843.917
843.917
843.917
843.917
843.917
843.917
843.917
843.917
843.917
843.917
843.917
843.917
843.917
843.917
843.917
843.917
843.917
843.917
843.917
843.917
843.917
843.917
843.917
843.917
843.917
843.917
843.917
843.917
843.917
843.917
843.917
843.917
843.917
843.917
843.917
843.917
843.917
843.917
843.917
843.917
843.917
843.917
843.917
843.917
843.917
843.917
843.917
843.917
843.917
843.917
843.917
843.917
843.917
843.917
843.917
843.917
843.917
843.917
843.917
843.917
843.917
843.917
843.917
843.917
843.917
843.917
843.917
843.917
843.917
843.917
843.917
843.917
843.917
843.917
843.917
843.917
843.917
843.917
843.917
843.917
843.917
843.917
843.917
843.917
843.917
843.917
843.917
843.917
843.917
843.917
843.917
843.917
843.917
843.917
843.917
843.917
843.917
843.917
843.917
843.917
843.917
843.917
843.917
843.917
843.917
843.917
843.917
843.917
843.917
843.917
843.917
843.917
843.917
843.917
843.917
843.917
843.917
843.917
843.917
843.917
843.917
843.917
843.917
843.917
843.917
843.917
843.917
843.917
843.917
843.917
843.917
843.917
843.917
843.917
843.917
843.917
843.917
843.917
843.917
843.917
843.917
843.917
843.917
843.917
843.917
843.917
843.917
843.917
843.917
843.917
843.917
843.917
843.917
843.917
843.917
843.917
843.917
843.917
843.917
843.917
843.917
843.917
843.917
843.917
843.917
843.917
843.917
843.917
843.917
843.917
843.917
843.917
843.917
843.917
843.917
843.917
843.917
843.917
843.917
843.917
843.917
843.917
843.917
843.917
843.917
843.917
843.917
843.917
843.917
843.917
843.917
843.917
843.917
843.917
843.917
843.917
843.917
843.917
843.917
843.917
843.917
843.917
843.917
843.917
843.917
843.917
843.917
843.917
843.917
843.917
843.917
843.917
843.917
843.917
843.917
843.917
843.917
843.917
843.917
843.917
843.917
843.917
843.917
843.917
843.917
843.917
843.917
843.917
843.917
843.917
843.917
843.917
843.917
843.917
843.917
843.917
843.917
843.917
843.917
843.917
843.917
843.917
843.917
843.917
843.917
843.917
843.917
843.917
843.917
843.917
843.917
843.917
843.917
843.917
843.917
843.917
843.917
843.917
843.917
843.917
843.917
843.917
843.917
843.917
843.917
843.917
843.917
843.917
843.917
843.917
843.917
843.917
843.917
843.917
843.917
843.917
843.917
843.917
843.917
843.917
843.917
843.917
843.917
843.917
843.917
843.917
843.917
843.917
843.917
843.917
843.917
843.917
843.917
843.917
843.917
843.917
843.917
843.917
843.917
843.917
843.917
843.917
423.923
423.923
424.372
424.591
424.746
424.802
424.797
424.828
424.844
424.882
424.918
424.915
424.89
424.878
424.891
424.921
424.954
424.981
425.001
425.016
425.027
425.038
425.049
425.063
425.077
425.089
425.108
425.118
425.14
425.145
425.176
425.173
425.21
425.185
425.228
275.642
262.139
263.662
264.562
264.573
264.438
264.358
264.301
264.224
264.134
264.051
263.982
263.933
263.91
263.916
263.945
263.981
264.016
264.043
264.067
264.089
264.113
264.145
264.177
264.22
264.262
264.31
264.362
264.414
264.475
264.532
264.607
264.663
264.762
264.785
275.383
261.953
263.382
264.246
264.237
264.083
263.975
263.905
263.847
263.8
263.766
263.741
263.724
263.722
263.738
263.771
263.813
263.854
263.889
263.923
263.941
263.983
263.993
264.047
264.069
264.129
264.165
264.236
264.282
264.36
264.414
264.504
264.547
264.689
264.62
274.943
261.621
263.006
263.821
263.797
263.658
263.573
263.494
263.382
263.247
263.12
263.023
262.967
262.956
262.983
263.034
263.092
263.149
263.2
263.25
263.295
263.358
263.403
263.483
263.534
263.616
263.675
263.761
263.822
263.92
263.986
264.098
264.158
264.319
264.283
274.26
261.097
262.528
263.319
263.269
263.094
262.984
262.9
262.802
262.703
262.628
262.583
262.571
262.593
262.646
262.719
262.796
262.868
262.929
262.981
263.03
263.082
263.129
263.194
263.252
263.322
263.394
263.471
263.549
263.638
263.719
263.821
263.891
264.034
264.022
273.792
260.723
262
262.74
262.679
262.51
262.4
262.332
262.281
262.249
262.241
262.256
262.292
262.347
262.417
262.499
262.582
262.661
262.731
262.79
262.848
262.896
262.95
263.009
263.068
263.147
263.22
263.317
263.399
263.512
263.596
263.725
263.791
263.981
263.926
272.919
260.033
261.312
262
261.907
261.709
261.577
261.472
261.363
261.269
261.212
261.195
261.216
261.273
261.36
261.462
261.566
261.662
261.745
261.821
261.886
261.964
262.023
262.114
262.187
262.285
262.374
262.488
262.582
262.711
262.804
262.954
263.022
263.235
263.154
272.064
259.329
260.496
261.124
261.025
260.849
260.743
260.659
260.565
260.487
260.454
260.473
260.537
260.635
260.756
260.881
260.999
261.102
261.191
261.273
261.342
261.431
261.491
261.594
261.667
261.774
261.862
261.982
262.077
262.206
262.305
262.456
262.527
262.761
262.662
271.028
258.472
259.541
260.1
259.963
259.75
259.597
259.443
259.268
259.116
259.03
259.022
259.085
259.198
259.341
259.489
259.626
259.747
259.851
259.946
260.036
260.131
260.219
260.326
260.421
260.54
260.641
260.771
260.878
261.019
261.124
261.289
261.362
261.602
261.499
269.809
257.441
258.405
258.9
258.767
258.587
258.475
258.352
258.203
258.09
258.061
258.122
258.248
258.413
258.59
258.757
258.901
259.023
259.126
259.222
259.316
259.413
259.51
259.618
259.721
259.841
259.944
260.081
260.185
260.331
260.438
260.604
260.681
260.936
260.824
268.656
256.443
257.233
257.653
257.481
257.254
257.065
256.844
256.604
256.426
256.367
256.43
256.577
256.768
256.969
257.154
257.312
257.446
257.563
257.674
257.78
257.895
258
258.127
258.233
258.365
258.477
258.617
258.731
258.887
258.999
259.179
259.258
259.522
259.401
267.085
255.078
255.772
256.136
255.983
255.797
255.647
255.447
255.234
255.121
255.158
255.319
255.547
255.794
256.025
256.218
256.373
256.501
256.611
256.721
256.831
256.95
257.064
257.191
257.306
257.436
257.553
257.694
257.807
257.969
258.077
258.263
258.339
258.62
258.49
265.66
253.782
254.209
254.494
254.301
254.049
253.784
253.456
253.153
253.004
253.056
253.256
253.527
253.806
254.054
254.259
254.422
254.559
254.683
254.807
254.933
255.064
255.187
255.325
255.438
255.58
255.694
255.845
255.965
256.133
256.254
256.447
256.533
256.814
256.684
263.593
251.926
252.221
252.472
252.314
252.096
251.855
251.557
251.338
251.345
251.573
251.919
252.287
252.614
252.875
253.071
253.22
253.344
253.46
253.583
253.709
253.843
253.971
254.109
254.231
254.369
254.496
254.643
254.771
254.94
255.062
255.257
255.347
255.636
255.506
261.641
250.072
250.029
250.216
250.009
249.682
249.286
248.866
248.622
248.686
249.002
249.43
249.848
250.194
250.457
250.653
250.805
250.939
251.07
251.207
251.347
251.489
251.622
251.762
251.882
252.031
252.154
252.319
252.453
252.635
252.769
252.976
253.072
253.366
253.236
258.936
247.532
247.26
247.451
247.272
246.939
246.557
246.251
246.261
246.64
247.224
247.823
248.319
248.678
248.921
249.09
249.223
249.346
249.468
249.599
249.732
249.87
250.004
250.147
250.28
250.432
250.575
250.74
250.889
251.07
251.21
251.419
251.518
251.821
251.688
255.898
244.584
243.973
244.147
243.868
243.348
242.817
242.516
242.684
243.272
244.023
244.702
245.206
245.542
245.763
245.923
246.061
246.2
246.343
246.489
246.63
246.767
246.9
247.041
247.179
247.345
247.494
247.683
247.842
248.043
248.196
248.419
248.527
248.834
248.702
252.259
240.95
239.918
240.115
239.762
239.166
238.771
238.896
239.604
240.624
241.629
242.409
242.909
243.191
243.361
243.5
243.639
243.776
243.903
244.024
244.143
244.272
244.417
244.578
244.747
244.934
245.111
245.308
245.482
245.686
245.846
246.076
246.181
246.513
246.338
246.357
235.506
234.451
234.649
233.963
233.109
232.733
233.02
233.894
235.007
236.024
236.767
237.215
237.455
237.608
237.763
237.95
238.151
238.338
238.494
238.619
238.735
238.862
239.013
239.187
239.39
239.593
239.819
240.017
240.26
240.437
240.694
240.825
241.177
241.003
238.128
228.028
226.378
226.357
225.044
223.654
223.214
223.951
225.245
226.454
227.332
227.843
228.059
228.148
228.274
228.513
228.843
229.181
229.445
229.606
229.677
229.732
229.81
229.934
230.117
230.336
230.568
230.815
231.056
231.322
231.534
231.822
231.993
232.335
232.356
218.934
213.656
212.71
212.952
211.7
211.87
213.622
215.824
217.674
218.825
219.424
219.713
219.825
219.908
220.028
220.212
220.427
220.637
220.831
221.016
221.192
221.385
221.583
221.794
222.026
222.264
222.508
222.756
223.014
223.271
223.497
223.769
223.945
224.086
224.211
9.79168
9.72733
10.1588
10.4465
10.6034
10.6345
10.5832
10.638
10.6501
10.7154
10.7877
10.7799
10.7237
10.693
10.7145
10.7696
10.8304
10.8788
10.9116
10.9332
10.9483
10.9657
10.9794
10.9992
11.0206
11.0346
11.0656
11.0747
11.1151
11.1081
11.1671
11.145
11.2176
11.1587
11.2468
133.593
127.213
127.084
127.656
127.865
127.867
127.826
127.775
127.7
127.609
127.522
127.452
127.402
127.375
127.374
127.394
127.423
127.451
127.473
127.489
127.503
127.517
127.535
127.557
127.583
127.612
127.644
127.678
127.716
127.755
127.799
127.846
127.895
127.956
128.006
133.314
126.949
126.781
127.33
127.525
127.512
127.453
127.394
127.334
127.279
127.233
127.199
127.175
127.166
127.173
127.196
127.228
127.259
127.289
127.309
127.327
127.344
127.361
127.382
127.411
127.438
127.478
127.513
127.563
127.603
127.662
127.707
127.771
127.842
127.867
132.94
126.594
126.404
126.926
127.114
127.119
127.082
127.021
126.92
126.794
126.671
126.574
126.513
126.49
126.501
126.534
126.576
126.616
126.653
126.684
126.716
126.75
126.787
126.828
126.872
126.914
126.962
127.004
127.056
127.102
127.163
127.214
127.281
127.355
127.395
132.438
126.12
125.953
126.474
126.651
126.631
126.571
126.502
126.409
126.308
126.224
126.168
126.142
126.146
126.179
126.232
126.292
126.347
126.393
126.428
126.459
126.488
126.518
126.553
126.592
126.634
126.681
126.728
126.78
126.834
126.89
126.951
127.002
127.088
127.099
132.016
125.735
125.508
125.986
126.141
126.11
126.045
125.984
125.927
125.881
125.853
125.847
125.861
125.892
125.94
125.999
126.061
126.121
126.171
126.211
126.246
126.274
126.304
126.337
126.376
126.419
126.473
126.528
126.594
126.655
126.73
126.796
126.87
126.963
127.002
131.39
125.154
124.939
125.403
125.549
125.51
125.435
125.35
125.249
125.149
125.076
125.036
125.029
125.054
125.107
125.178
125.253
125.322
125.381
125.429
125.47
125.51
125.549
125.592
125.642
125.693
125.754
125.814
125.884
125.949
126.025
126.096
126.165
126.261
126.277
130.748
124.563
124.304
124.72
124.844
124.807
124.743
124.666
124.569
124.474
124.412
124.395
124.419
124.477
124.559
124.65
124.738
124.813
124.876
124.927
124.972
125.016
125.059
125.108
125.161
125.215
125.278
125.34
125.41
125.476
125.553
125.627
125.699
125.805
125.83
129.999
123.879
123.596
123.982
124.092
124.042
123.955
123.833
123.673
123.513
123.4
123.35
123.362
123.423
123.514
123.617
123.716
123.801
123.872
123.931
123.986
124.038
124.091
124.148
124.208
124.269
124.336
124.401
124.474
124.542
124.618
124.694
124.76
124.866
124.868
129.153
123.098
122.773
123.103
123.188
123.141
123.067
122.954
122.8
122.657
122.577
122.574
122.635
122.74
122.864
122.987
123.095
123.181
123.251
123.309
123.364
123.417
123.474
123.533
123.596
123.66
123.728
123.796
123.87
123.939
124.018
124.096
124.166
124.28
124.295
128.333
122.352
121.967
122.257
122.33
122.267
122.153
121.974
121.748
121.547
121.433
121.421
121.49
121.607
121.743
121.874
121.987
122.079
122.155
122.222
122.287
122.351
122.416
122.482
122.549
122.615
122.685
122.753
122.827
122.899
122.978
123.058
123.124
123.24
123.234
127.303
121.392
120.961
121.198
121.253
121.191
121.08
120.892
120.662
120.487
120.431
120.491
120.626
120.795
120.963
121.108
121.223
121.311
121.382
121.445
121.509
121.575
121.643
121.712
121.782
121.85
121.922
121.991
122.067
122.139
122.22
122.301
122.371
122.492
122.5
126.308
120.482
119.941
120.127
120.169
120.082
119.904
119.624
119.317
119.102
119.044
119.125
119.289
119.478
119.656
119.803
119.917
120.007
120.085
120.159
120.235
120.311
120.386
120.459
120.529
120.597
120.666
120.735
120.811
120.885
120.967
121.052
121.12
121.243
121.231
124.997
119.249
118.636
118.774
118.8
118.695
118.488
118.181
117.892
117.761
117.827
118.026
118.276
118.516
118.715
118.866
118.974
119.055
119.125
119.194
119.267
119.342
119.418
119.492
119.564
119.634
119.707
119.779
119.857
119.934
120.018
120.105
120.176
120.306
120.306
123.691
118.03
117.255
117.345
117.355
117.193
116.878
116.47
116.141
116.035
116.161
116.422
116.713
116.968
117.165
117.307
117.409
117.492
117.571
117.652
117.736
117.819
117.897
117.97
118.039
118.107
118.179
118.252
118.333
118.415
118.503
118.595
118.666
118.797
118.78
121.998
116.427
115.519
115.569
115.542
115.302
114.906
114.491
114.279
114.383
114.719
115.13
115.501
115.782
115.976
116.106
116.2
116.276
116.348
116.42
116.494
116.569
116.643
116.716
116.79
116.865
116.944
117.025
117.113
117.199
117.29
117.385
117.459
117.597
117.589
120.068
114.587
113.501
113.537
113.461
113.085
112.547
112.084
111.947
112.191
112.658
113.149
113.542
113.811
113.982
114.094
114.18
114.262
114.346
114.432
114.514
114.589
114.66
114.729
114.8
114.877
114.96
115.048
115.143
115.236
115.334
115.436
115.511
115.653
115.627
117.767
112.394
111.062
111.047
110.833
110.248
109.608
109.282
109.465
110.031
110.721
111.321
111.734
111.975
112.114
112.217
112.313
112.401
112.478
112.541
112.599
112.658
112.726
112.804
112.893
112.987
113.087
113.187
113.29
113.389
113.492
113.597
113.676
113.829
113.8
114.068
108.969
107.716
107.801
107.375
106.475
105.669
105.345
105.594
106.223
106.944
107.541
107.927
108.13
108.235
108.327
108.445
108.582
108.711
108.812
108.879
108.925
108.97
109.026
109.104
109.197
109.307
109.417
109.535
109.649
109.766
109.879
109.979
110.131
110.115
108.585
104.393
102.988
103.089
102.29
100.806
99.6293
99.4587
100.065
100.914
101.667
102.176
102.411
102.463
102.48
102.576
102.776
103.024
103.239
103.37
103.412
103.41
103.408
103.431
103.497
103.592
103.708
103.826
103.957
104.083
104.208
104.339
104.448
104.61
104.645
94.3279
96.1621
95.0166
94.5743
92.8121
91.3876
91.668
92.954
94.3758
95.4209
96.0339
96.3524
96.4871
96.5455
96.5978
96.6883
96.8161
96.9544
97.0768
97.1775
97.2544
97.3312
97.4089
97.4988
97.6001
97.7158
97.8326
97.9532
98.081
98.2023
98.3279
98.4352
98.5693
98.563
98.7366
11.8276
11.7281
12.2082
12.4665
12.5868
12.5995
12.5329
12.5782
12.5845
12.6453
12.7213
12.7205
12.6662
12.6318
12.6484
12.7007
12.761
12.8104
12.8446
12.8672
12.8823
12.8994
12.9124
12.9306
12.9523
12.9637
12.9956
13.0012
13.0445
13.0323
13.0937
13.0675
13.1419
13.0823
13.1717
79.3745
76.7491
76.2064
76.3721
76.5513
76.6304
76.6524
76.6429
76.6019
76.5359
76.4634
76.3992
76.35
76.3193
76.3092
76.317
76.3356
76.3561
76.3725
76.3836
76.3896
76.3958
76.4012
76.411
76.4214
76.4356
76.4511
76.4662
76.4859
76.5012
76.5254
76.5419
76.5713
76.5892
76.629
79.1316
76.526
75.9758
76.1304
76.2986
76.3615
76.3637
76.34
76.302
76.2562
76.2114
76.1734
76.1446
76.1271
76.1242
76.1347
76.1559
76.1773
76.1998
76.2107
76.2254
76.2255
76.2399
76.2384
76.2589
76.2628
76.2901
76.2984
76.3333
76.3433
76.3845
76.3956
76.4393
76.4609
76.4976
78.8445
76.2495
75.6902
75.8292
75.997
76.0816
76.1138
76.1035
76.0464
75.9535
75.8514
75.7632
75.7013
75.669
75.6643
75.6789
75.7043
75.7292
75.7535
75.7699
75.7906
75.8039
75.8296
75.8438
75.8746
75.8886
75.9207
75.9324
75.9679
75.9768
76.019
76.0286
76.0755
76.093
76.1391
78.4953
75.9022
75.3562
75.5018
75.6646
75.7298
75.7382
75.7123
75.6525
75.5709
75.4915
75.4304
75.3932
75.3811
75.3939
75.4251
75.466
75.5053
75.5386
75.5618
75.5806
75.5936
75.6096
75.6237
75.6444
75.664
75.6885
75.712
75.7405
75.7645
75.7964
75.8233
75.8517
75.8884
75.904
78.1512
75.5891
75.0291
75.1477
75.2847
75.3274
75.3187
75.2894
75.2485
75.2039
75.1669
75.1446
75.1385
75.1483
75.1734
75.2103
75.2533
75.2953
75.3307
75.3579
75.3768
75.3902
75.403
75.4138
75.4343
75.4503
75.4835
75.5053
75.5496
75.5725
75.6252
75.6483
75.703
75.7345
75.7863
77.7121
75.1623
74.6142
74.7368
74.8819
74.9347
74.9311
74.8921
74.8223
74.7383
74.6635
74.6112
74.5851
74.5854
74.6105
74.6528
74.7036
74.7509
74.7929
74.822
74.8488
74.8646
74.8879
74.9026
74.9317
74.9518
74.9892
75.0123
75.0594
75.081
75.1357
75.1562
75.2107
75.2368
75.2799
77.2401
74.717
74.1571
74.2472
74.3652
74.4049
74.3979
74.3564
74.2814
74.1922
74.1182
74.0766
74.0704
74.0952
74.1437
74.2042
74.2672
74.3208
74.3668
74.3972
74.4277
74.4448
74.4737
74.4895
74.5242
74.5453
74.5859
74.6105
74.6586
74.683
74.738
74.762
74.8207
74.8521
74.9085
76.6977
74.2068
73.652
73.7395
73.864
73.9116
73.9003
73.8324
73.7114
73.5705
73.452
73.3801
73.3588
73.3806
73.4328
73.4994
73.5679
73.6275
73.6774
73.7152
73.7493
73.7761
73.8079
73.8331
73.8699
73.8962
73.9384
73.9642
74.0125
74.0362
74.0905
74.113
74.1665
74.1953
74.2365
76.1002
73.6388
73.0711
73.1193
73.2102
73.2392
73.2192
73.1431
73.0138
72.8727
72.7688
72.7253
72.7396
72.7966
72.8779
72.9648
73.0443
73.1083
73.158
73.195
73.2275
73.2554
73.2873
73.3154
73.3539
73.382
73.4279
73.454
73.5061
73.5311
73.5876
73.6131
73.671
73.7051
73.7593
75.4981
73.0823
72.5072
72.5492
72.6497
72.6863
72.6515
72.5335
72.3499
72.1609
72.0261
71.9705
71.9865
72.0509
72.1386
72.2285
72.3088
72.3737
72.4271
72.4695
72.5112
72.5458
72.5872
72.6186
72.6615
72.6902
72.7344
72.7605
72.8104
72.8336
72.8904
72.914
72.9696
73.0009
73.0436
74.7865
72.403
71.8111
71.8139
71.8827
71.8967
71.8391
71.6923
71.4849
71.2957
71.1901
71.1824
71.2498
71.358
71.4772
71.5856
71.6734
71.7384
71.7883
71.8274
71.8661
71.9014
71.9425
71.9776
72.021
72.0531
72.0993
72.126
72.1802
72.2021
72.264
72.2867
72.3488
72.3831
72.4377
74.05
71.7293
71.1093
71.0996
71.179
71.193
71.0997
70.8887
70.6192
70.3932
70.2805
70.2867
70.3748
70.4989
70.6241
70.7306
70.814
70.8771
70.9301
70.9768
71.0259
71.0701
71.1195
71.1561
71.2022
71.2297
71.2747
71.2983
71.3493
71.3722
71.4311
71.4566
71.5142
71.5488
71.5914
73.1438
70.8706
70.2219
70.1745
70.2185
70.1865
70.0329
69.7644
69.4738
69.2827
69.2474
69.3416
69.503
69.6761
69.8283
69.9459
70.0307
70.0907
70.1384
70.1803
70.2246
70.2669
70.3131
70.3521
70.3962
70.4293
70.4736
70.503
70.5555
70.5822
70.6435
70.6724
70.7324
70.774
70.8236
72.1812
69.9852
69.2863
69.229
69.2797
69.2205
68.9948
68.6474
68.317
68.1377
68.147
68.2915
68.4889
68.6767
68.8262
68.933
69.0079
69.0643
69.1161
69.1672
69.2221
69.2718
69.3227
69.3595
69.4034
69.4295
69.4742
69.4993
69.5532
69.58
69.643
69.6728
69.7335
69.7728
69.8149
70.9844
68.8703
68.1224
68.0298
68.0206
67.8528
67.5028
67.0851
66.7879
66.7323
66.8948
67.1649
67.4387
67.6604
67.8183
67.9244
67.9976
68.0524
68.1001
68.1439
68.1886
68.2301
68.2734
68.3103
68.3533
68.3879
68.435
68.4707
68.5277
68.561
68.6276
68.6609
68.7246
68.7702
68.8176
69.576
67.5616
66.7637
66.6869
66.6603
66.3985
65.9312
65.4571
65.1967
65.2379
65.5056
65.8504
66.1551
66.3734
66.5118
66.5969
66.6571
66.71
66.7647
66.8188
66.8717
66.9162
66.9586
66.9909
67.0329
67.0627
67.1143
67.1489
67.2115
67.2467
67.3171
67.3529
67.418
67.463
67.5045
67.8655
66.0049
65.134
65.0118
64.8321
64.3222
63.6541
63.1594
63.0546
63.3153
63.7636
64.2131
64.5522
64.7624
64.8844
64.9674
65.0395
65.1041
65.1576
65.197
65.228
65.2554
65.2878
65.3244
65.3731
65.4181
65.4801
65.5275
65.5969
65.6381
65.7163
65.7514
65.8271
65.8725
65.9274
65.2897
63.5854
62.8401
62.8417
62.5355
61.7591
60.8931
60.3447
60.2673
60.5732
61.0556
61.5175
61.8443
62.0213
62.1026
62.1589
62.233
62.3283
62.4243
62.4995
62.5449
62.5657
62.5796
62.5944
62.6279
62.6642
62.7282
62.776
62.8551
62.8992
62.9888
63.0238
63.1145
63.1534
63.2218
61.3911
60.303
59.6711
59.8285
59.3483
58.1118
56.8532
56.2959
56.4735
57.0224
57.618
58.0702
58.3025
58.3526
58.3322
58.3533
58.4656
58.6414
58.8152
58.9312
58.9741
58.9657
58.9427
58.9289
58.9445
58.9771
59.0394
59.0901
59.1719
59.2208
59.3111
59.3535
59.4448
59.491
59.5745
52.8803
56.1625
55.6538
54.956
53.1969
51.3415
50.8404
51.4581
52.4201
53.222
53.7259
53.9916
54.1127
54.1694
54.2091
54.2626
54.3389
54.425
54.5027
54.5593
54.5963
54.6242
54.651
54.6866
54.7315
54.7852
54.8487
54.9039
54.982
55.026
55.1195
55.1417
55.2557
55.2132
55.3713
13.3908
13.3364
13.8779
14.1365
14.2484
14.2612
14.1854
14.2135
14.2099
14.2596
14.3358
14.3455
14.2981
14.2611
14.2706
14.3171
14.3758
14.4267
14.4639
14.4893
14.5062
14.5242
14.538
14.5548
14.5785
14.5878
14.6222
14.6243
14.6728
14.6563
14.7211
14.6927
14.7688
14.7128
14.8017
52.7832
51.7587
51.3167
51.2725
51.3515
51.4295
51.482
51.5064
51.4994
51.4626
51.4088
51.3534
51.3067
51.2736
51.2571
51.2554
51.2649
51.2784
51.2906
51.2994
51.3025
51.3057
51.3052
51.3089
51.3115
51.3165
51.324
51.328
51.339
51.3407
51.3557
51.3543
51.3748
51.368
51.4003
52.5867
51.5754
51.1381
51.0919
51.1647
51.2278
51.2596
51.266
51.2527
51.224
51.1873
51.1506
51.1193
51.0969
51.0866
51.0875
51.0998
51.1126
51.1315
51.1359
51.1514
51.1425
51.1565
51.1441
51.1591
51.1503
51.1701
51.1637
51.1885
51.1832
51.2121
51.2058
51.2374
51.2319
51.2676
52.3675
51.3617
50.9205
50.865
50.9406
51.0275
51.0941
51.1248
51.1097
51.0532
50.9751
50.8983
50.8381
50.8004
50.7853
50.7868
50.7998
50.8134
50.8299
50.8371
50.8529
50.8537
50.8741
50.8738
50.8966
50.8961
50.9195
50.9146
50.9408
50.9312
50.9611
50.9501
50.9834
50.9727
51.0123
52.1144
51.1059
50.6727
50.6258
50.7003
50.7734
50.8181
50.8295
50.8048
50.7498
50.6829
50.6225
50.5792
50.5564
50.5546
50.5691
50.5945
50.6213
50.6461
50.6627
50.6766
50.6817
50.6915
50.6948
50.7049
50.7129
50.7252
50.7342
50.7511
50.7578
50.7777
50.7838
50.8035
50.8093
50.8291
51.8437
50.853
50.4226
50.3625
50.4155
50.4616
50.4822
50.4815
50.4627
50.4306
50.3946
50.3644
50.3458
50.3405
50.3494
50.3698
50.3979
50.4277
50.4531
50.4733
50.485
50.4907
50.4963
50.4945
50.5057
50.5052
50.5267
50.5289
50.5606
50.562
50.6006
50.6005
50.6417
50.6425
50.6881
51.5234
50.5353
50.1129
50.0631
50.1331
50.2017
50.2393
50.2407
50.2064
50.1464
50.0799
50.0236
49.9865
49.971
49.977
49.9985
50.0306
50.062
50.0932
50.1116
50.1324
50.1361
50.1521
50.1519
50.1695
50.172
50.1969
50.1984
50.2331
50.2307
50.2724
50.2663
50.3102
50.3017
50.3472
51.1693
50.1942
49.7719
49.7026
49.7478
49.7971
49.8231
49.8153
49.77
49.6986
49.6251
49.5702
49.5435
49.5448
49.5691
49.6065
49.6505
49.6884
49.7245
49.743
49.7681
49.7703
49.7927
49.7915
49.8148
49.8179
49.8459
49.8497
49.8845
49.8863
49.9281
49.9251
49.9735
49.9685
50.0246
50.7653
49.8046
49.3932
49.3352
49.4008
49.4728
49.5094
49.4904
49.4134
49.3009
49.1891
49.1063
49.064
49.0597
49.0843
49.1244
49.1706
49.2123
49.2493
49.2753
49.3
49.3133
49.3349
49.3429
49.3673
49.3738
49.4029
49.4067
49.4418
49.4405
49.4826
49.4763
49.5215
49.5117
49.5606
50.3243
49.3787
48.9663
48.884
48.9175
48.9628
48.9791
48.9414
48.8465
48.7222
48.6106
48.5417
48.523
48.5456
48.5949
48.6543
48.7128
48.7609
48.7993
48.8256
48.8478
48.8622
48.8821
48.8923
48.9183
48.925
48.959
48.9622
49.0007
49.0022
49.0453
49.0429
49.0915
49.0871
49.1432
49.8705
48.9486
48.5447
48.475
48.5349
48.6048
48.6251
48.5647
48.4302
48.2661
48.1266
48.045
48.0254
48.0525
48.1058
48.1662
48.2237
48.2703
48.3102
48.3389
48.3695
48.3878
48.4178
48.43
48.4599
48.4682
48.4993
48.5017
48.5389
48.5355
48.5796
48.5727
48.621
48.6107
48.6629
49.3481
48.4462
48.0395
47.946
47.9749
48.0145
48.0005
47.9
47.7291
47.5466
47.4142
47.3604
47.378
47.4412
47.5234
47.6032
47.671
47.7213
47.7602
47.7871
47.814
47.8328
47.8601
47.8759
47.9051
47.9159
47.9501
47.9515
47.9947
47.9894
48.0393
48.0319
48.0855
48.0791
48.1382
48.7864
47.9214
47.5176
47.4375
47.4966
47.5556
47.5289
47.386
47.1654
46.949
46.8066
46.7619
46.7962
46.8733
46.9609
47.0386
47.1008
47.1467
47.1859
47.2172
47.2528
47.2788
47.3155
47.3317
47.3658
47.3718
47.4044
47.4034
47.4411
47.4364
47.4819
47.4752
47.5257
47.5166
47.5711
48.1153
47.2864
46.8789
46.7792
46.8046
46.8121
46.7138
46.4968
46.2293
46.0119
45.9108
45.9276
46.0212
46.1428
46.2583
46.3507
46.419
46.4661
46.5029
46.5312
46.5615
46.586
46.617
46.6362
46.6653
46.6776
46.708
46.7124
46.7519
46.751
46.7983
46.7969
46.8476
46.847
46.9034
47.3754
46.5991
46.1898
46.1112
46.1665
46.1718
46.0282
45.7501
45.4441
45.2287
45.1607
45.2204
45.3479
45.4857
45.6009
45.6837
45.7407
45.7811
45.8182
45.8523
45.8917
45.9227
45.9604
45.9771
46.0092
46.0132
46.0445
46.0435
46.0826
46.0799
46.1283
46.1244
46.1775
46.1713
46.2272
46.4695
45.7628
45.3536
45.2647
45.269
45.1676
44.8864
44.5021
44.1713
44.0143
44.049
44.2083
44.4055
44.5802
44.7099
44.7974
44.8571
44.8995
44.9357
44.9655
44.996
45.02
45.0479
45.0646
45.0915
45.1037
45.1342
45.1431
45.1848
45.1883
45.2403
45.2409
45.2958
45.2968
45.3548
45.3884
44.7588
44.3627
44.3225
44.3427
44.1848
43.8094
43.3653
43.0458
42.9558
43.0755
43.3044
43.538
43.7177
43.8333
43.9011
43.9451
43.9807
44.0188
44.0554
44.0935
44.1216
44.1513
44.1641
44.1924
44.1974
44.2322
44.2375
44.2825
44.2859
44.3405
44.3401
44.3981
44.3942
44.4545
44.0553
43.558
43.184
43.1443
43.045
42.6519
42.0387
41.4794
41.199
41.2391
41.495
41.8175
42.0923
42.2759
42.3836
42.4516
42.507
42.5564
42.5989
42.6285
42.6492
42.6622
42.677
42.6903
42.717
42.7339
42.7742
42.7911
42.8421
42.8506
42.914
42.9117
42.9813
42.9745
43.051
42.2835
41.8202
41.555
41.6465
41.4869
40.8925
40.0947
39.4684
39.2085
39.2957
39.5927
39.9376
40.2107
40.3685
40.4357
40.4677
40.5081
40.5699
40.6411
40.702
40.7402
40.7553
40.7586
40.7559
40.7674
40.774
40.8104
40.8249
40.8787
40.8875
40.9539
40.953
41.0261
41.019
41.0952
39.6404
39.4755
39.3538
39.6709
39.4913
38.5868
37.4671
36.7695
36.6774
36.9862
37.4267
37.8063
38.0263
38.0862
38.0589
38.0388
38.0858
38.1974
38.3313
38.4344
38.4849
38.4868
38.4647
38.44
38.434
38.4346
38.4662
38.4812
38.5342
38.5431
38.6092
38.609
38.6805
38.6771
38.7566
35.4671
38.5212
38.2742
37.5362
35.9864
34.1971
33.321
33.4819
34.0836
34.67
35.0681
35.2827
35.383
35.4335
35.469
35.5079
35.5581
35.6118
35.6602
35.6902
35.7058
35.7111
35.7138
35.723
35.7409
35.7618
35.7986
35.819
35.8734
35.8775
35.9494
35.9399
36.0191
35.9908
36.0882
14.6979
14.7439
15.3501
15.6188
15.7332
15.7567
15.6784
15.6849
15.6688
15.7025
15.7748
15.7966
15.7607
15.7236
15.7249
15.7629
15.8176
15.869
15.9097
15.9388
15.9588
15.9782
15.9941
16.0092
16.0361
16.0428
16.0811
16.0788
16.134
16.1135
16.1819
16.1527
16.2288
16.18
16.2649
37.6289
37.23
36.9726
36.8743
36.8754
36.918
36.9692
37.0088
37.0259
37.0152
36.9816
36.9375
36.8954
36.8626
36.8426
36.8343
36.8361
36.8429
36.8505
36.8577
36.8599
36.8629
36.8609
36.8621
36.8622
36.8619
36.8665
36.8643
36.8723