/*--------------------------------*- C++ -*----------------------------------*\
  =========                 |
  \\      /  F ield         | OpenFOAM: The Open Source CFD Toolbox
   \\    /   O peration     | Website:  https://openfoam.org
    \\  /    A nd           | Version:  6
     \\/     M anipulation  |
\*---------------------------------------------------------------------------*/
FoamFile
{
    version     2.0;
    format      ascii;
    class       volScalarField;
    location    "12";
    object      yPlus;
}
// * * * * * * * * * * * * * * * * * * * * * * * * * * * * * * * * * * * * * //

dimensions      [0 0 0 0 0 0 0];

internalField   uniform 0;

boundaryField
{
    inlet
    {
        type            calculated;
        value           uniform 0;
    }
    outlet
    {
        type            calculated;
        value           uniform 0;
    }
    roughCylinder
    {
        type            calculated;
        value           nonuniform List<scalar> 
3840
(
72.3073
50.7074
53.758
62.0751
68.4934
73.6016
77.7125
81.1724
84.2323
87.0138
89.6445
92.1669
94.6796
97.2824
100.027
102.938
106.028
109.276
112.65
116.084
119.469
122.636
125.268
126.875
73.3772
50.0076
52.3137
60.3936
66.7534
71.8485
75.9457
79.394
82.424
85.1806
87.7194
90.1615
92.5951
95.0953
97.7359
100.552
103.535
106.673
109.93
113.247
116.518
119.578
122.122
123.674
62.6431
49.4001
50.9037
58.7258
65.0213
70.0686
74.1778
77.6423
80.6776
83.3472
85.8417
88.2056
90.5392
92.9566
95.5077
98.2116
101.086
104.111
107.256
110.457
113.615
116.57
119.027
120.524
77.2047
48.6971
49.3887
56.9698
63.2218
68.3043
72.437
75.9113
78.9052
81.5865
83.9974
86.2861
88.5571
90.8774
93.3252
95.9445
98.7198
101.642
104.673
107.761
110.807
113.659
116.03
117.473
71.3478
48.5465
47.9833
55.2322
61.465
66.5129
70.6787
74.1832
77.2247
79.8234
82.2101
84.4427
86.6172
88.8672
91.2427
93.7533
96.426
99.2403
102.168
105.148
108.088
110.84
113.129
114.521
59.3658
47.5995
46.4273
53.3792
59.5715
64.7083
68.9346
72.4811
75.4635
78.1238
80.4519
82.6189
84.7573
86.9226
89.1971
91.64
94.226
96.9481
99.7696
102.644
105.48
108.136
110.345
111.685
76.3748
47.1519
44.9312
51.5
57.7465
62.8603
67.1363
70.7148
73.8167
76.3934
78.7294
80.8771
82.9262
85.0365
87.2631
89.601
92.091
94.7116
97.4401
100.215
102.952
105.516
107.649
108.94
60.3524
46.3978
43.3368
49.4821
55.6595
60.9333
65.3153
68.9994
72.0115
74.7082
77.0197
79.1171
81.1677
83.2129
85.3385
87.6294
90.048
92.5908
95.2188
97.8962
100.537
103.011
105.068
106.311
69.0801
45.9454
41.696
47.2899
53.6564
58.9284
63.3962
67.1027
70.3498
72.9637
75.3055
77.4354
79.4104
81.419
83.5308
85.7202
88.0476
90.4927
93.0392
95.6243
98.1745
100.564
102.551
103.748
69.467
45.0888
39.8948
44.9499
51.1533
56.7206
61.3689
65.3096
68.4178
71.2309
73.5963
75.6794
77.6989
79.6703
81.6783
83.8465
86.1219
88.5052
90.9561
93.4506
95.9102
98.2148
100.131
101.281
60.396
44.9154
38.0868
42.111
48.7656
54.3618
59.1924
63.1329
66.6673
69.4051
71.8229
74.0054
75.957
77.9074
79.9464
82.0139
84.1993
86.485
88.865
91.2741
93.6475
95.8732
97.7229
98.8271
62.7381
43.9364
36.0199
39.1166
45.3218
51.5553
56.7149
61.156
64.4745
67.5316
70.0515
72.1863
74.2368
76.1842
78.105
80.1824
82.3399
84.5839
86.8707
89.1931
91.4795
93.6231
95.4035
96.4623
58.1884
42.01
33.4089
34.7641
42.1156
48.4013
54.0295
58.4278
62.5229
65.5243
68.1231
70.4576
72.4487
74.3907
76.4062
78.3791
80.4426
82.584
84.8124
87.0552
89.2595
91.3274
93.0451
94.0586
52.9922
40.2649
30.4458
30.3944
36.2617
44.2673
50.5273
56.0625
59.8211
63.3638
66.1994
68.4767
70.647
72.6355
74.5034
76.5292
78.5989
80.7267
82.8609
85.0199
87.1406
89.127
90.7752
91.7442
50.4158
39.3188
27.2139
20.6702
30.8819
38.8818
46.7468
52.1903
57.4809
61.0036
63.9619
66.6089
68.7236
70.7224
72.7827
74.6929
76.6563
78.6668
80.7586
82.8433
84.8838
86.7978
88.3865
89.3089
32.4495
33.3729
23.2202
10.7164
10.1969
30.5216
40.5804
48.9714
53.711
58.2968
61.7558
64.3087
66.7336
68.8551
70.7083
72.7345
74.7549
76.796
78.7874
80.7895
82.7466
84.5781
86.0941
86.9723
15.357
12.6473
7.51297
16.0772
4.86836
18.292
32.4365
42.0454
50.6205
55.2334
58.9121
62.1734
64.5385
66.684
68.8913
70.7773
72.6634
74.5523
76.5234
78.4556
80.3331
82.0933
83.5532
84.3815
4.72194
11.7733
14.2583
16.4269
17.6027
6.83714
21.1251
36.8536
44.1255
51.4346
56.2011
59.275
62.1874
64.587
66.4676
68.569
70.5949
72.5906
74.4453
76.2922
78.0838
79.7569
81.1368
81.9205
10.0693
11.6819
15.8966
11.0808
19.1273
19.2976
20.6631
10.8702
39.3953
46.6925
52.1265
56.6387
59.4837
61.9194
64.4487
66.3596
68.1907
69.96
71.8286
73.6097
75.3188
76.9196
78.2472
78.9738
10.2666
12.3636
16.7566
10.2669
20.5929
21.3828
11.9332
11.7373
20.7251
40.5035
48.2428
52.5277
56.4416
59.402
61.3564
63.6619
65.7848
67.8025
69.5218
71.2092
72.8254
74.3295
75.5626
76.2441
11.2363
20.4991
22.9219
18.2124
2.69882
23.9235
7.22963
21.8106
23.2513
28.668
41.5836
48.9294
52.7428
55.755
58.9786
60.983
62.784
64.4183
66.2127
67.8401
69.3674
70.7965
71.984
72.5939
11.6882
21.9003
26.7183
29.3472
25.1162
22.3985
23.1571
25.5583
15.1371
14.1764
33.0412
41.6697
48.2369
52.4545
54.5244
57.3315
59.7322
61.9249
63.5033
65.0194
66.4406
67.7559
68.8231
69.3892
11.6569
22.1866
28.0048
31.186
32.1275
26.1287
19.3602
0.971332
10.9164
17.2668
15.6277
35.8922
42.0373
46.5748
51.5655
53.756
55.587
56.9962
58.7865
60.2606
61.584
62.8242
63.8626
64.3283
11.4985
20.3457
26.814
31.4621
33.4468
33.1318
24.7359
26.9118
22.4465
25.1048
22.655
8.91254
34.2263
41.6631
43.6909
48.0018
51.1588
54.0008
55.4211
56.7436
57.9421
59.0355
59.9061
60.3367
11.2109
18.4909
24.9903
29.7377
32.8641
33.6505
32.8966
22.7841
30.4277
26.4153
7.27491
15.6836
5.43748
27.9686
40.0814
42.4571
44.3785
45.2299
47.2814
48.6598
49.7359
50.7921
51.6907
51.9608
8.47809
16.6661
23.0072
27.7295
30.9482
32.8298
32.4229
31.9486
21.8195
7.56641
16.1069
7.28119
16.2778
14.1469
15.4261
30.0655
36.846
41.7774
42.9843
43.9615
45.0249
45.7996
46.4198
46.593
7.41299
15.183
20.7735
25.0111
28.2368
30.2669
31.3692
30.4842
31.4699
21.1341
30.0193
17.1887
9.39383
19.4971
3.57321
9.08367
10.058
13.2771
19.7309
23.1043
22.6796
23.6491
24.6869
26.0891
4.72953
13.2219
17.6604
21.1889
24.1531
26.5164
27.8737
29.3662
29.2708
31.7696
21.9449
16.9276
22.9228
12.6653
25.7987
26.2178
7.62303
20.2468
7.29851
29.083
10.7595
23.9775
24.4486
31.8624
5.03914
12.112
14.4156
16.4569
18.7952
21.1814
23.5505
25.4664
28.3992
29.2703
32.2157
22.0718
29.713
3.40354
20.5626
20.2904
26.8147
6.21665
22.717
5.83466
22.2439
30.7775
31.1537
11.8216
3.78961
11.7203
12.3578
12.8478
14.0019
16.2107
18.8648
22.0766
24.7163
28.4511
29.8847
32.6056
23.2005
20.0743
26.4843
12.9839
7.28815
17.2881
10.4937
18.8194
25.7725
30.1974
32.2086
31.26
3.36454
11.3112
11.6841
11.872
12.4885
14.3285
16.8982
19.38
22.5894
25.1552
28.9184
30.6267
32.6993
25.4555
25.8808
19.9144
23.8811
31.8292
4.37222
18.8339
13.8077
31.3765
28.5458
10.3149
2.99561
11.3995
11.5612
11.6791
12.5731
14.8889
17.2263
19.4062
21.1889
23.8067
26.0049
29.5185
31.2856
32.417
29.5959
17.8793
30.6233
29.3415
11.58
29.9411
18.5881
31.9731
8.03668
32.5504
2.18763
9.87505
11.4292
11.6126
13.0345
15.779
18.2185
20.0719
21.8178
23.0602
25.0155
26.8912
30.0356
31.8545
32.0827
32.2284
28.2658
22.8277
16.6477
13.4621
11.4133
13.0435
12.1308
13.2819
2.63817
10.5218
11.6994
11.7718
14.6292
17.4643
19.6413
21.3851
22.6705
23.9358
24.7066
26.0844
27.7212
30.2602
32.2016
31.8652
31.1642
30.7996
30.5157
30.4523
30.0548
29.6199
29.6988
29.8406
3.27975
11.3253
11.8994
13.8835
16.7826
19.2636
21.256
22.8239
24.1424
24.9982
25.762
26.1107
27.0009
28.4346
30.2069
31.7529
31.431
30.3578
28.7009
27.022
25.7489
25.066
24.8716
25.0414
3.55003
11.5709
13.5042
16.3422
18.9857
21.2039
23.0131
24.5106
25.673
26.6037
27.0494
27.3304
27.3312
27.7687
28.9278
29.9118
30.2114
29.8668
28.877
27.7532
26.6216
25.9993
26.0486
26.284
4.23904
12.5538
16.052
18.7519
21.0589
23.0634
24.7822
26.2325
27.4443
28.2759
28.8
28.8433
28.6833
28.4152
28.424
29.0047
29.204
28.6845
27.3013
25.4206
23.752
22.9649
23.0377
23.4664
6.12539
15.2414
18.4015
20.8129
22.9598
24.8795
26.5633
28.0311
29.2369
30.1563
30.6378
30.7515
30.4212
29.8638
29.3373
28.936
28.6414
28.0886
26.9424
25.4391
24.0619
23.4712
23.7758
24.3311
8.35432
17.2843
20.3341
22.6232
24.702
26.5988
28.3086
29.8242
31.113
32.0609
32.6459
32.7664
32.4794
31.8068
30.8939
30.0153
29.1565
28.1634
26.7676
25.0109
23.4564
22.8538
23.2463
23.9309
10.7024
19.0506
21.9382
24.2125
26.3213
28.2607
30.0353
31.6325
32.9855
34.0323
34.675
34.9071
34.6646
33.9845
32.9637
31.7085
30.3829
29.0013
27.4416
25.7641
24.3931
23.9443
24.4674
25.2161
11.5174
13.6836
15.5048
16.8572
17.7341
18.0686
17.9858
17.5282
16.8706
16.0582
15.2263
14.3823
13.6108
12.907
12.3146
11.8474
11.616
11.484
11.1234
10.9258
10.9329
11.151
11.5376
11.6355
11.881
12.364
12.9696
13.687
14.4712
15.3289
16.1724
16.9958
17.6602
18.1189
18.196
17.8466
16.9511
15.5693
13.722
11.8145
20.2557
21.0475
21.5854
21.8586
22.0168
22.007
21.9651
21.8398
21.7238
21.5769
21.4545
21.3239
21.2142
21.108
21.02
20.9426
20.8808
20.8333
20.8025
20.7867
20.7884
20.8074
20.8417
20.8926
20.9573
21.0379
21.1288
21.2382
21.3507
21.4847
21.6098
21.7608
21.8788
22.008
22.0504
22.0622
21.9012
21.6252
21.08
20.2832
23.0115
23.4871
23.8777
24.0838
24.261
24.3301
24.3931
24.3933
24.3911
24.3548
24.3223
24.2781
24.2397
24.2004
24.1674
24.1391
24.1164
24.1
24.0888
24.0829
24.0847
24.0941
24.1087
24.1283
24.1542
24.1857
24.2216
24.264
24.3048
24.3518
24.3861
24.4247
24.4272
24.4287
24.3644
24.297
24.1162
23.9106
23.5129
23.0354
25.2707
25.7067
26.124
26.3756
26.6135
26.7543
26.8899
26.9754
27.0585
27.1136
27.1672
27.2085
27.2496
27.2857
27.3199
27.3511
27.3777
27.3993
27.4137
27.4206
27.4224
27.4189
27.4078
27.3894
27.366
27.338
27.307
27.2739
27.2355
27.197
27.1455
27.0926
27.0106
26.9268
26.791
26.6511
26.4102
26.1584
25.7348
25.297
27.3972
27.8196
28.2667
28.5534
28.8521
29.063
29.2796
29.448
29.6194
29.764
29.9078
30.0374
30.1632
30.2791
30.3864
30.4818
30.5625
30.6258
30.6686
30.6889
30.6906
30.6732
30.6334
30.573
30.4952
30.4028
30.2985
30.1857
30.0626
29.9358
29.7945
29.6522
29.4825
29.3159
29.1
28.8899
28.5901
28.3029
27.8517
27.4269
29.38
29.7988
30.2945
30.627
30.9965
31.2754
31.5721
31.8201
32.0752
32.3036
32.5317
32.7434
32.948
33.1376
33.3121
33.4662
33.5959
33.6967
33.7644
33.7962
33.7975
33.7683
33.703
33.6047
33.4775
33.3261
33.1544
32.9677
32.7658
32.5569
32.3314
32.1054
31.8523
31.6061
31.3105
31.0325
30.6627
30.3298
29.8319
29.4109
31.2252
31.6486
32.2031
32.5747
33.0083
33.3455
33.7104
34.0258
34.3512
34.6499
34.9474
35.2268
35.4957
35.7449
35.9733
36.1738
36.3418
36.4714
36.5578
36.5975
36.5986
36.561
36.4766
36.349
36.1831
35.9848
35.759
35.5124
35.2462
34.9695
34.6746
34.3782
34.0551
33.7415
33.3779
33.0416
32.608
32.2362
31.6799
31.2547
32.8976
33.3253
33.9285
34.3318
34.8154
35.1995
35.6172
35.9859
36.3652
36.7184
37.0686
37.3991
37.7156
38.0087
38.2757
38.5094
38.7042
38.8535
38.9523
38.9972
38.9983
38.955
38.8576
38.7098
38.5169
38.2852
38.0204
37.7297
37.4157
37.0878
36.7399
36.3892
36.0119
35.645
35.2287
34.8455
34.362
33.9584
33.3537
32.9242
34.3312
34.7514
35.4003
35.825
36.3497
36.7694
37.2281
37.6376
38.0579
38.4514
38.8402
39.2073
39.5573
39.8803
40.1732
40.4283
40.6399
40.8015
40.9079
40.9559
40.9567
40.9101
40.8047
40.6445
40.4344
40.181
39.89
39.5693
39.2217
38.8569
38.4704
38.0791
37.6607
37.253
36.7955
36.3766
35.852
35.4268
34.7763
34.354
35.438
35.8671
36.5508
37.0015
37.5592
38.012
38.5041
38.9478
39.4004
39.8258
40.2435
40.6375
41.0109
41.3543
41.6641
41.9326
42.1542
42.3228
42.4335
42.4829
42.4836
42.4353
42.3256
42.1582
41.9378
41.6708
41.3628
41.0214
40.6501
40.2583
39.8426
39.4192
38.9683
38.5262
38.0351
37.5828
37.025
36.5738
35.8882
35.4568
36.1786
36.6123
37.3476
37.824
38.4213
38.9066
39.4335
39.9091
40.3919
40.8451
41.2877
41.7036
42.0954
42.454
42.7756
43.0533
43.2813
43.4541
43.5674
43.6179
43.6186
43.5691
43.4568
43.2849
43.0579
42.7817
42.4616
42.1048
41.7148
41.3009
40.8601
40.4087
39.9272
39.453
38.9268
38.442
37.8443
37.3669
36.6294
36.193
36.492
36.9716
37.7589
38.2813
38.9218
39.4487
40.0129
40.5238
41.0378
41.519
41.9855
42.4219
42.8302
43.2019
43.5336
43.8185
44.0515
44.2277
44.3429
44.3945
44.3952
44.3446
44.2302
44.0549
43.8229
43.5392
43.2091
42.8388
42.4321
41.9975
41.5325
41.0527
40.5401
40.0301
39.4664
38.9396
38.2984
37.7745
36.9846
36.5011
36.3618
36.9033
37.767
38.3485
39.0449
39.6219
40.2302
40.7812
41.3294
41.8409
42.3324
42.7896
43.2146
43.5993
43.9406
44.2325
44.4704
44.6499
44.7672
44.8201
44.8208
44.7689
44.6523
44.4737
44.2368
43.946
43.6061
43.2227
42.7992
42.3434
41.8532
41.343
40.7957
40.2455
39.6374
39.0601
38.3627
37.7792
36.9115
36.3655
35.7572
36.3694
37.3263
37.9873
38.7513
39.3887
40.0484
40.6453
41.2321
41.7771
42.2961
42.7761
43.2192
43.6182
43.9701
44.2698
44.5134
44.6968
44.8168
44.8714
44.872
44.8184
44.6993
44.5167
44.2741
43.9755
43.6247
43.227
42.7852
42.3064
41.7885
41.2446
40.6585
40.0621
39.4023
38.7642
37.9984
37.3342
36.3729
35.7553
34.6969
35.3627
36.3839
37.1417
37.982
38.6916
39.4083
40.0576
40.6876
41.2704
41.8205
42.3267
42.7906
43.2063
43.5711
43.8807
44.1315
44.3202
44.4438
44.5007
44.5014
44.4455
44.3226
44.1349
43.885
43.5763
43.2126
42.7981
42.3353
41.8303
41.2811
40.6992
40.0698
39.4207
38.7036
37.9926
37.1493
36.3875
35.3613
34.6901
33.3027
33.9129
34.9514
35.7699
36.6829
37.4712
38.2481
38.9539
39.6301
40.2546
40.8394
41.3753
41.8638
42.2997
42.6806
43.003
43.2635
43.4593
43.588
43.6479
43.6485
43.5896
43.4617
43.2667
43.007
42.6856
42.3056
41.8709
41.3834
40.8485
40.2647
39.6409
38.9651
38.2592
37.4812
36.6904
35.7736
34.9506
33.9068
33.2907
31.6924
32.1409
33.1061
33.9178
34.8602
35.7057
36.5411
37.2985
38.0195
38.6847
39.305
39.8723
40.3876
40.8463
41.2461
41.5838
41.8565
42.0615
42.1965
42.2602
42.2607
42.1979
42.0636
41.8593
41.5875
41.2507
40.8518
40.394
39.8798
39.3134
38.694
38.0293
37.3082
36.5502
35.7124
34.8635
33.9167
33.0999
32.1283
31.6738
29.9667
30.1867
30.9943
31.7214
32.6279
33.4796
34.3426
35.1372
35.8907
36.5878
37.2375
37.8322
38.372
38.8526
39.2714
39.6249
39.9104
40.1252
40.2671
40.3349
40.3353
40.2683
40.1268
39.9126
39.6278
39.275
38.8571
38.3774
37.8385
37.2445
36.5954
35.8983
35.1441
34.347
33.4805
32.6245
31.7123
30.979
30.1636
29.9349
28.1274
28.1596
28.7889
29.3906
30.2123
31.0186
31.8655
32.6646
33.4274
34.1376
34.8018
35.4125
35.9681
36.4637
36.8963
37.2619
37.5576
37.7805
37.9282
37.9997
37.9999
37.9289
37.7812
37.5586
37.2633
36.8982
36.4662
35.9711
35.4161
34.8058
34.1414
33.4301
32.6647
31.8619
31.0104
30.1988
29.3708
28.7618
28.1241
28.0828
26.245
26.222
26.7102
27.2167
27.9442
28.6868
29.4875
30.2612
31.0108
31.7142
32.3759
32.9871
33.5453
34.0448
34.4817
34.8518
35.1515
35.378
35.5287
35.6023
35.6023
35.5286
35.3776
35.151
34.8512
34.4811
34.0443
33.5451
32.987
32.3755
31.7132
31.0082
30.2549
29.4767
28.6707
27.9221
27.1883
26.6744
26.18
26.1935
24.7548
24.7906
25.2009
25.6756
26.3322
27.0244
27.7703
28.502
29.2149
29.8919
30.5324
31.1273
31.6721
32.161
32.5894
32.953
33.248
33.4712
33.6201
33.6935
33.6932
33.6193
33.4697
33.2458
32.9505
32.5866
32.1579
31.6689
31.1239
30.5287
29.8874
29.2085
28.4921
27.7559
27.0053
26.3075
25.646
25.1642
24.7509
24.7042
24.2852
24.3907
24.772
25.2365
25.8397
26.4823
27.1637
27.8363
28.497
29.1307
29.7325
30.2933
30.8081
31.2705
31.6763
32.021
32.301
32.513
32.6547
32.7248
32.7243
32.6531
32.5103
32.2972
32.0163
31.671
31.2647
30.8018
30.2869
29.7256
29.1233
28.4887
27.826
27.1497
26.4638
25.8166
25.2088
24.7395
24.3546
24.2436
24.8522
24.9787
25.3508
25.7909
26.3483
26.9347
27.552
28.1653
28.7721
29.3564
29.9125
30.4315
30.9081
31.3368
31.7132
32.033
32.2928
32.4896
32.6212
32.6863
32.6855
32.6192
32.4861
32.288
32.0271
31.7064
31.3295
30.9005
30.4236
29.9044
29.3483
28.7637
28.1561
27.5408
26.9204
26.3289
25.768
25.3206
24.947
24.8082
25.6584
25.7814
26.1522
26.5689
27.0982
27.6462
28.2264
28.8033
29.3755
29.9263
30.451
30.9405
31.3904
31.7951
32.1503
32.4522
32.6975
32.8834
33.0075
33.0686
33.0678
33.0051
32.8794
32.6921
32.4456
32.1427
31.7868
31.3816
30.9316
30.442
29.9175
29.3666
28.7942
28.2166
27.6346
27.0829
26.5491
26.1265
25.7501
25.6178
65.4946
50.2191
53.7554
62.0648
68.4846
73.5931
77.7056
81.1678
84.2267
87.0087
89.6393
92.1621
94.6757
97.2777
100.023
102.935
106.024
109.273
112.648
116.082
119.469
122.636
125.269
126.876
63.4519
49.3039
52.3027
60.3908
66.7483
71.8432
75.9406
79.3863
82.4186
85.1753
87.7149
90.1573
92.5897
95.0917
97.7319
100.548
103.532
106.671
109.928
113.245
116.517
119.578
122.123
123.675
65.1189
49.1775
50.883
58.7112
65.0086
70.0573
74.1675
77.6369
80.671
83.3411
85.8352
88.1994
90.5353
92.9513
95.5034
98.2078
101.083
104.108
107.254
110.455
113.614
116.569
119.027
120.525
58.7352
48.6481
49.4053
56.9662
63.2151
68.2982
72.4324
75.9018
78.8986
81.5806
83.9929
86.2825
88.5508
90.8735
93.321
95.9406
98.7161
101.638
104.67
107.759
110.807
113.659
116.031
117.475
76.1067
48.4827
47.9731
55.2135
61.4488
66.4982
70.6635
74.1768
77.217
79.8161
82.2023
84.4343
86.6133
88.8615
91.238
93.7494
96.4228
99.2372
102.166
105.146
108.087
110.84
113.13
114.522
69.8994
48.173
46.4572
53.3695
59.56
64.7005
68.9316
72.4696
75.4554
78.117
80.4472
82.6165
84.7501
86.9182
89.1925
91.6354
94.2219
96.945
99.767
102.642
105.48
108.136
110.345
111.686
59.5809
46.5932
44.9034
51.4783
57.7303
62.8426
67.1142
70.7073
73.8079
76.3853
78.7205
80.8658
82.9219
85.0305
87.2581
89.5969
92.0878
94.708
97.4375
100.213
102.951
105.516
107.649
108.942
65.6259
47.1776
43.4063
49.4592
55.6349
60.9213
65.3157
68.9857
72.0016
74.6997
77.0138
79.1167
81.16
83.2077
85.3333
87.6245
90.0431
92.5872
95.2161
97.894
100.536
103.011
105.069
106.313
57.668
45.1291
41.5977
47.272
53.651
58.9114
63.3647
67.0937
70.3401
72.955
75.2965
77.4202
79.4049
81.4128
83.5258
85.7156
88.0446
90.4891
93.0361
95.6222
98.1733
100.563
102.552
103.749
58.8052
45.3407
40.0141
44.9125
51.104
56.6981
61.3756
65.2943
68.4056
71.2202
73.5875
75.6813
77.6914
79.6642
81.6718
83.8412
86.1162
88.5015
90.9534
93.4485
95.9089
98.2144
100.131
101.282
66.7595
44.8494
38.0446
42.0985
48.7771
54.3515
59.1467
63.1203
66.6562
69.3956
71.8151
73.9855
75.9489
77.9006
79.9416
82.0089
84.1963
86.4814
88.8619
91.2715
93.6467
95.8724
97.7237
98.8291
63.0636
43.553
35.8359
39.0551
45.246
51.5125
56.7353
61.1415
64.4597
67.5185
70.0375
72.1903
74.2304
76.1772
78.0971
80.1765
82.3334
84.5798
86.8679
89.1909
91.4783
93.6227
95.4043
96.4639
58.6726
42.2312
33.3546
34.7079
42.115
48.4054
53.9444
58.402
62.508
65.5125
68.1182
70.4331
72.4368
74.3827
76.4016
78.3738
80.4399
82.5804
84.8091
87.0522
89.2587
91.327
93.0459
94.061
53.8733
40.8515
30.7023
30.3577
36.1985
44.1651
50.6105
56.0624
59.8051
63.3478
66.1759
68.4814
70.642
72.628
74.4938
76.5223
78.5914
80.722
82.8582
85.0183
87.1388
89.127
90.7765
91.7462
51.041
39.8648
27.5721
20.6914
30.7732
38.972
46.5228
52.1191
57.4548
60.9871
63.9653
66.5796
68.7072
70.7122
72.7777
74.6873
76.6537
78.6634
80.755
82.8403
84.8836
86.7974
88.3877
89.3122
32.4342
33.4523
23.6329
11.4905
10.3224
30.5746
40.8256
49.0096
53.6966
58.2771
61.7088
64.3153
66.7289
68.8471
70.6974
72.7271
74.7469
76.7906
78.7849
80.7881
82.7451
84.578
86.0958
86.9748
5.9603
13.0042
15.9059
15.943
6.72536
7.39929
32.5393
41.9838
50.5763
55.2069
58.9455
62.1293
64.5177
66.6709
68.885
70.77
72.6598
74.5494
76.5194
78.4523
80.3337
82.0935
83.5549
84.3866
9.89973
7.46907
7.42365
16.6452
17.7322
18.4061
6.74987
36.3391
44.0687
51.4097
56.0913
59.3052
62.1823
64.5783
66.4558
68.5628
70.5881
72.5841
74.4433
76.2913
78.0823
79.7568
81.1394
81.9238
2.53005
9.06076
9.38658
9.84489
10.1315
8.87057
8.82621
15.7796
39.4729
46.6483
52.2322
56.5278
59.4531
61.9025
64.4402
66.348
68.1827
69.958
71.8242
73.6065
75.321
76.9208
78.2499
78.982
6.53488
11.6916
17.3847
19.2565
3.3686
21.2382
20.8908
21.2593
19.7826
40.3878
48.0465
52.6754
56.4497
59.392
61.3437
63.6588
65.7866
67.7949
69.5209
71.2088
72.8241
74.3295
75.5667
76.2483
11.4983
20.6765
23.6757
19.0633
10.3755
23.4711
7.13661
21.9936
14.3278
29.2663
41.6141
48.5836
52.6598
55.7316
58.9661
60.9667
62.7565
64.4182
66.208
67.8379
69.3725
70.7995
71.9886
72.6078
11.5955
21.9081
26.7104
29.3531
24.9627
6.743
26.2933
24.4782
14.6447
2.98679
33.5411
42.1724
48.3437
52.4451
54.5145
57.3267
59.7732
61.9155
63.5045
65.0192
66.44
67.7567
68.8299
69.3949
11.5296
22.1995
28.0547
31.283
32.2866
26.9516
24.2941
4.66904
25.148
22.7297
8.2331
35.0796
41.705
46.5408
51.5311
53.7512
55.4953
57.0018
58.7826
60.2625
61.5954
62.8305
63.8709
64.3532
11.3946
20.3162
26.7936
31.4539
33.4776
33.2544
25.1138
23.7854
17.9076
20.8058
22.9578
12.0751
34.833
41.5856
43.7466
47.9558
51.2609
53.9842
55.4233
56.7447
57.9436
59.0397
59.9219
60.3501
11.6103
18.4918
24.9794
29.7382
32.8776
33.6708
32.8731
22.4298
14.3234
18.3874
24.1196
22.7718
26.0987
28.6178
39.7995
42.5833
44.4288
45.2687
47.3023
48.6674
49.7671
50.805
51.6959
51.9901
8.36986
16.6285
22.9726
27.6982
30.9306
32.8311
32.4868
32.044
20.9944
23.3331
8.77784
9.80637
23.1957
25.4909
17.7034
29.2977
35.7567
41.6469
42.8666
44.0571
45.0247
45.8293
46.502
46.7681
7.46149
15.1567
20.7318
24.9713
28.2058
30.2508
31.3427
30.4833
31.4872
20.7984
10.6808
11.2397
10.1981
6.82988
25.6306
16.6564
20.4649
15.9228
21.3196
21.6178
22.9051
23.6037
24.9748
24.8044
4.69175
13.1676
17.5933
21.1222
24.0994
26.4776
27.8665
29.3683
29.3119
31.7431
21.4641
12.3014
10.86
25.1229
15.9246
20.6471
26.95
27.6857
28.5204
22.7019
10.5649
24.3802
12.0535
11.9608
4.98785
12.0785
14.3656
16.3985
18.7446
21.1495
23.5262
25.4571
28.377
29.2795
32.2347
22.175
28.9576
26.6869
21.2367
10.4993
26.8482
18.5186
10.196
30.39
22.1231
30.9919
23.1616
23.4077
3.81549
11.7002
12.327
12.8068
13.9714
16.1973
18.8678
22.0819
24.7311
28.4391
29.8603
32.5766
23.4127
11.525
24.2391
19.2743
10.6485
25.1762
29.4009
18.8065
25.2055
30.4166
26.7621
27.024
3.34242
11.2838
11.6739
11.8655
12.4966
14.3488
16.9134
19.3941
22.5914
25.1582
28.9041
30.6063
32.7219
26.2583
3.50726
11.1705
11.5368
22.7216
10.3887
13.007
32.4414
31.2985
23.5576
23.7152
2.97603
11.3728
11.5611
11.6739
12.5949
14.9153
17.2493
19.4252
21.2128
23.8185
26.002
29.4986
31.2897
32.4996
30.4442
17.1723
18.2153
26.6936
19.1841
27.1133
9.89021
31.9219
33.435
33.6825
2.24267
9.99414
11.634
11.5724
13.0721
15.8125
18.2408
20.0899
21.8313
23.0783
25.0289
26.8943
30.0396
31.8428
32.1579
32.4332
27.2428
22.3881
16.4653
13.1026
12.4931
12.8054
13.0506
13.4357
2.66065
10.568
11.5502
11.8115
14.6752
17.4933
19.6612
21.4022
22.6904
23.9544
24.7254
26.0982
27.7362
30.2824
32.1941
31.8695
31.3403
30.876
30.6
30.4024
30.0953
29.773
29.718
29.9109
3.33601
11.2747
11.7302
13.9385
16.818
19.2846
21.2695
22.8357
24.1545
25.0146
25.7813
26.1323
27.0188
28.456
30.2417
31.7677
31.4184
30.4084
28.7649
27.148
25.8888
25.081
25.0119
25.1549
3.5156
11.454
13.5395
16.3847
19.0097
21.2151
23.0191
24.5169
25.6829
26.6164
27.0655
27.3492
27.3551
27.7896
28.9573
29.9289
30.2387
29.9204
28.9657
27.7846
26.6931
26.0806
26.107
26.3736
4.25837
12.5989
16.0844
18.7713
21.0671
23.0639
24.7797
26.2313
27.4461
28.2825
28.8112
28.8594
28.7016
28.4405
28.4521
29.0304
29.2315
28.7426
27.3609
25.4999
23.8406
23.01
23.1204
23.5438
6.14829
15.2589
18.4194
20.8216
22.958
24.8709
26.5527
28.0228
29.2327
30.1565
30.6425
30.7613
30.4369
29.8818
29.3625
28.9617
28.6795
28.1439
27.0148
25.492
24.1155
23.5206
23.8215
24.3904
8.37935
17.2901
20.3329
22.6154
24.6882
26.581
28.2904
29.8087
31.1014
32.0539
32.6438
32.7703
32.4881
31.8217
30.9126
30.0391
29.1866
28.2138
26.8273
25.0764
23.5217
22.9005
23.3043
23.9874
10.7122
19.0405
21.9271
24.1972
26.2999
28.2359
30.0107
31.6109
32.9678
34.0191
34.6664
34.904
34.6675
33.9922
32.9772
31.7265
30.4094
29.0422
27.4965
25.8177
24.4412
23.9872
24.5077
25.2617
63.9712
64.4083
67.6338
75.2423
74.2547
68.1507
68.495
69.6187
56.9482
38.3468
61.1626
22.8959
24.9563
13.068
15.8807
14.8336
14.2027
14.0318
13.5755
13.4379
13.4339
13.619
13.8141
14.824
13.7998
16.1673
17.166
11.2552
15.8724
50.4487
28.6458
45.0808
55.8629
58.2287
58.1455
62.88
58.2767
72.4418
68.7606
69.2394
49.5084
47.7785
46.4606
44.6667
43.2059
41.0476
39.9533
38.0466
36.6024
35.3895
35.46
33.1594
32.9601
32.173
31.8042
31.2754
30.9383
30.6208
30.433
30.3107
30.3112
30.4273
30.6492
30.8734
31.3613
31.7718
32.065
33.2252
33.2868
34.4974
34.7353
36.1968
37.9259
39.9969
40.9744
42.8701
44.6685
46.3157
47.8632
49.8332
54.305
52.7541
52.2846
50.8163
50.269
48.9336
48.341
47.1745
46.5524
45.5083
44.85
44.1436
43.5529
42.9332
42.4437
42.0168
41.6725
41.411
41.2233
41.1206
41.1206
41.2255
41.4046
41.6857
42.0048
42.4485
42.9545
43.5205
44.111
44.9095
45.6048
46.5912
47.1713
48.3359
48.9305
50.2651
50.8191
52.2934
52.7541
54.3198
62.7267
61.2239
60.7035
59.261
58.6121
57.2927
56.5867
55.4294
54.7208
53.7465
53.0521
52.2706
51.6685
51.0583
50.5716
50.1339
49.7917
49.5232
49.3407
49.2383
49.2385
49.3403
49.526
49.7883
50.1388
50.5715
51.0562
51.6733
52.2693
53.058
53.7457
54.7165
55.4271
56.5861
57.2944
58.6141
59.2695
60.7092
61.2335
62.7307
69.1346
67.5862
66.9866
65.5237
64.8025
63.4834
62.7055
61.5611
60.7803
59.8182
59.0811
58.3039
57.6672
57.0569
56.5487
56.1101
55.7578
55.488
55.3016
55.2004
55.2005
55.3023
55.4873
55.76
56.1097
56.5495
57.0603
57.6654
58.3039
59.0866
59.8241
60.7834
61.5629
62.708
63.4865
64.8055
65.5283
66.991
67.5925
69.1392
74.225
72.6371
71.9602
70.4878
69.6922
68.3848
67.539
66.4116
65.5779
64.6267
63.8582
63.0779
62.4207
61.8073
61.2907
60.8447
60.4879
60.2136
60.0262
59.9246
59.9246
60.0263
60.2146
60.4878
60.8461
61.2918
61.8075
62.4227
63.0797
63.8608
64.629
65.5798
66.4133
67.5414
68.3876
69.6958
70.4926
71.9651
72.6436
74.2302
78.2917
76.6876
75.9324
74.4683
73.6068
72.3158
71.4196
70.3035
69.4369
68.4888
67.7024
66.9198
66.2522
65.6345
65.1109
64.6625
64.3013
64.0251
63.8358
63.734
63.7341
63.8362
64.0253
64.3023
64.6631
65.1118
65.6361
66.2533
66.9212
67.7047
68.4911
69.4392
70.3057
71.4226
72.3189
73.6107
74.4721
75.937
76.6926
78.2967
81.7131
80.1
79.2868
77.8284
76.9228
75.6379
74.711
73.5956
72.7088
71.7579
70.958
70.1706
69.4929
68.8709
68.3408
67.8874
67.5219
67.2419
67.0501
66.9464
66.9465
67.0503
67.2425
67.5224
67.8882
68.3419
68.8719
69.4944
70.1722
70.9599
71.7599
72.711
73.598
74.7139
75.6408
76.9265
77.832
79.2916
80.1042
81.7192
84.7579
83.1145
82.2717
80.8003
79.8707
78.5785
77.6321
76.5105
75.6076
74.6506
73.8379
73.044
72.3564
71.7275
71.19
70.7308
70.3595
70.0748
69.8787
69.7718
69.7719
69.879
70.0752
70.3602
70.7315
71.1909
71.7288
72.3578
73.0456
73.8397
74.6527
75.6099
76.513
77.6349
78.5815
79.8741
80.8041
82.2756
83.1191
84.7626
87.5763
85.8769
85.0267
83.5286
82.5835
81.277
80.313
79.1813
78.262
77.2958
76.4693
75.6662
74.9675
74.3301
73.7838
73.3171
72.9391
72.6485
72.4475
72.3362
72.3363
72.4478
72.649
72.9397
73.3179
73.7848
74.3313
74.9689
75.6677
76.4711
77.2978
78.2643
79.1837
80.3159
81.2797
82.587
83.5319
85.0309
85.8811
87.5812
90.2241
88.4859
87.6184
86.0974
85.1327
83.8099
82.827
81.6813
80.7451
79.766
78.9249
78.11
77.3992
76.7514
76.1953
75.7202
75.3345
75.0374
74.8306
74.7143
74.7144
74.8309
75.0378
75.3351
75.7209
76.1963
76.7527
77.4006
78.1116
78.9267
79.768
80.7474
81.6837
82.8297
83.8127
85.136
86.1008
87.6223
88.4901
90.2285
92.7948
90.9926
90.1299
88.567
87.5954
86.2445
85.2486
84.0825
83.1312
82.136
81.2802
80.4521
79.7283
79.0696
78.503
78.019
77.6254
77.3214
77.1087
76.9871
76.9872
77.109
77.3218
77.626
78.0198
78.504
79.0708
79.7297
80.4536
81.282
82.1379
83.1333
84.0849
85.2512
86.2473
87.5986
88.5703
90.1336
90.9966
92.7991
95.3649
93.4952
92.6389
91.0338
90.0531
88.6752
87.6632
86.4777
85.5087
84.4979
83.6258
82.7843
82.0469
81.3768
80.7995
80.3063
79.9046
79.5938
79.3752
79.2483
79.2483
79.3754
79.5942
79.9052
80.3071
80.8004
81.3779
82.0483
82.7858
83.6276
84.4998
85.5108
86.48
87.6657
88.678
90.0561
91.0371
92.6425
93.4989
95.3693
98.0158
96.0848
95.2286
93.5838
92.5901
91.1852
90.1548
88.9487
87.9609
86.9328
86.0438
85.1874
84.4358
83.7534
83.1648
82.6621
82.252
81.9342
81.7097
81.5776
81.5777
81.71
81.9346
82.2526
82.6628
83.1658
83.7545
84.4371
85.1889
86.0454
86.9346
87.9629
88.9509
90.1573
91.1879
92.5929
93.5871
95.2318
96.0888
98.0192
100.813
98.8159
97.9597
96.2709
95.2635
93.828
92.7777
91.5481
90.5402
89.4922
88.585
87.7121
86.9451
86.2492
85.6483
85.1352
84.7163
84.3912
84.1607
84.0235
84.0236
84.161
84.3916
84.7169
85.1359
85.6492
86.2501
86.946
87.7134
88.5864
89.494
90.542
91.5504
92.7805
93.8303
95.2663
96.2738
97.9631
98.8189
100.816
103.788
101.713
100.86
99.1209
98.0988
96.6288
95.557
94.3008
93.27
92.2008
91.2724
90.3815
89.5973
88.8863
88.2725
87.7482
87.3195
86.9867
86.7498
86.6079
86.6079
86.7503
86.9871
87.3203
87.7486
88.2734
88.8876
89.5982
90.3827
91.2741
92.2021
93.2718
94.3025
95.5593
96.6311
98.1015
99.1237
100.864
101.717
103.791
106.937
104.786
103.93
102.139
101.098
99.5919
98.4947
97.2102
96.1537
95.0606
94.1098
93.199
92.3956
91.6688
91.0399
90.5032
90.0648
89.7233
89.4804
89.3328
89.3332
89.4804
89.7237
90.0652
90.504
91.0407
91.6696
92.3964
93.1998
94.111
95.0623
96.1554
97.212
98.4965
99.5936
101.1
102.142
103.932
104.788
106.939
110.247
108.016
107.154
105.312
104.247
102.704
101.578
100.264
99.1799
98.0613
97.0856
96.1532
95.3298
94.5853
93.941
93.3912
92.9417
92.5916
92.3417
92.1893
92.1897
92.3421
92.592
92.9417
93.3916
93.9414
94.5861
95.3306
96.1544
97.0868
98.0625
99.1811
100.265
101.58
102.706
104.25
105.314
107.156
108.018
110.249
113.68
111.371
110.5
108.605
107.515
105.933
104.777
103.432
102.318
101.173
100.171
99.2156
98.3705
97.6075
96.947
96.3833
95.9223
95.5632
95.3067
95.1495
95.1495
95.307
95.5636
95.9226
96.3836
96.9474
97.6083
98.3713
99.2164
100.172
101.174
102.318
103.433
104.778
105.935
107.516
108.607
110.501
111.372
113.683
117.176
114.786
113.905
111.958
110.84
109.221
108.032
106.655
105.511
104.339
103.31
102.331
101.464
100.682
100.004
99.4264
98.9537
98.5856
98.3219
98.1598
98.1598
98.3223
98.586
98.9541
99.4268
100.004
100.682
101.464
102.332
103.31
104.339
105.511
106.656
108.033
109.221
110.841