/*--------------------------------*- C++ -*----------------------------------*\
  =========                 |
  \\      /  F ield         | OpenFOAM: The Open Source CFD Toolbox
   \\    /   O peration     | Website:  https://openfoam.org
    \\  /    A nd           | Version:  6
     \\/     M anipulation  |
\*---------------------------------------------------------------------------*/
FoamFile
{
    version     2.0;
    format      ascii;
    class       volVectorField;
    location    "19";
    object      wallShearStress;
}
// * * * * * * * * * * * * * * * * * * * * * * * * * * * * * * * * * * * * * //

dimensions      [0 2 -2 0 0 0 0];

internalField   uniform (0 0 0);

boundaryField
{
    inlet
    {
        type            calculated;
        value           uniform (0 0 0);
    }
    outlet
    {
        type            calculated;
        value           uniform (0 0 0);
    }
    roughCylinder
    {
        type            calculated;
        value           nonuniform List<vector> 
3840
(
(-8.56181e-05 -0.000111402 -5.05646e-05)
(-0.000169363 -0.000293124 -3.97832e-05)
(-0.000255043 -0.000447125 3.0592e-05)
(-0.00031163 -0.000510234 8.62459e-05)
(-0.000375439 -0.000554364 0.000134949)
(-0.000420248 -0.000557011 0.000167249)
(-0.0004595 -0.000551487 0.000189694)
(-0.000485784 -0.000537778 0.000202831)
(-0.00050932 -0.000531121 0.000213407)
(-0.000524262 -0.000525208 0.000218474)
(-0.00053641 -0.000523984 0.000219357)
(-0.000545416 -0.000525129 0.000216023)
(-0.00055123 -0.000527114 0.000208614)
(-0.000558028 -0.000532754 0.000198928)
(-0.000544073 -0.000520612 0.000180175)
(-0.000553629 -0.000531267 0.000167512)
(-0.000544327 -0.000525046 0.000148196)
(-0.000548047 -0.000530858 0.000131616)
(-0.000546279 -0.000532179 0.000113221)
(-0.000560371 -0.000546762 9.67808e-05)
(-0.000554409 -0.000543429 7.61514e-05)
(-0.000550763 -0.000541916 5.54688e-05)
(-0.000545961 -0.000539069 3.403e-05)
(-0.000545128 -0.000539149 1.15831e-05)
(-0.000114094 -0.000131757 -5.80216e-05)
(-0.000183373 -0.000287057 -4.57221e-05)
(-0.000271611 -0.000439414 2.21736e-05)
(-0.000331431 -0.000507895 7.80652e-05)
(-0.000397806 -0.00055542 0.000127103)
(-0.000444161 -0.000560573 0.000159923)
(-0.000487268 -0.000559858 0.000183744)
(-0.00051582 -0.00054839 0.000198313)
(-0.000545437 -0.000546089 0.000211859)
(-0.000562944 -0.000539582 0.000218108)
(-0.000576437 -0.000538068 0.000219616)
(-0.000585148 -0.000537961 0.000216218)
(-0.000591007 -0.000539477 0.000208906)
(-0.000599795 -0.000546536 0.000199884)
(-0.000584009 -0.000533512 0.000181032)
(-0.000595611 -0.000545504 0.000168858)
(-0.000586127 -0.000539666 0.000149694)
(-0.000588514 -0.000544199 0.000132766)
(-0.000589097 -0.000547901 0.00011485)
(-0.00060084 -0.000559854 9.77507e-05)
(-0.000594896 -0.000556945 7.70688e-05)
(-0.000591964 -0.00055639 5.62874e-05)
(-0.000588281 -0.00055492 3.46472e-05)
(-0.000588074 -0.000555688 1.18148e-05)
(-0.000101664 -0.000102579 -4.22598e-05)
(-0.000191322 -0.000268494 -5.02338e-05)
(-0.000287446 -0.000426028 1.28899e-05)
(-0.000350026 -0.000499132 6.84602e-05)
(-0.000418867 -0.000550163 0.000117672)
(-0.000469305 -0.0005614 0.000152009)
(-0.000514907 -0.000563958 0.000176994)
(-0.000549272 -0.000558691 0.000194405)
(-0.000579945 -0.00055593 0.000208706)
(-0.000599182 -0.000548181 0.000215725)
(-0.000613271 -0.000545338 0.000217645)
(-0.000623913 -0.000545798 0.000215051)
(-0.000631408 -0.000548127 0.000208451)
(-0.000640442 -0.000554873 0.000199552)
(-0.000623712 -0.000541893 0.000181037)
(-0.000637548 -0.000555168 0.000169447)
(-0.000628927 -0.000550673 0.000150785)
(-0.000632055 -0.000555908 0.000134076)
(-0.000636851 -0.000563376 0.000116914)
(-0.000645971 -0.000572735 9.91142e-05)
(-0.000640454 -0.000570646 7.83564e-05)
(-0.000637676 -0.00057053 5.73257e-05)
(-0.00063403 -0.000569401 3.5336e-05)
(-0.000633034 -0.000569548 1.20429e-05)
(-0.000109687 -9.57968e-05 -3.52234e-05)
(-0.000200709 -0.000251363 -5.51534e-05)
(-0.000300972 -0.000407721 2.98293e-06)
(-0.000366263 -0.000485415 5.77868e-05)
(-0.000438304 -0.000541056 0.000107209)
(-0.000491107 -0.00055648 0.000142522)
(-0.000542224 -0.000565905 0.000169825)
(-0.000578221 -0.000562517 0.000188662)
(-0.000614536 -0.000563926 0.000205204)
(-0.00063797 -0.000557856 0.000213938)
(-0.000654678 -0.000554464 0.000216872)
(-0.000665554 -0.000553769 0.000214508)
(-0.000673439 -0.000555515 0.000208168)
(-0.000683934 -0.000562894 0.000199797)
(-0.000666505 -0.000550178 0.00018168)
(-0.000681457 -0.000563659 0.000170328)
(-0.000672868 -0.000559773 0.00015195)
(-0.00067414 -0.00056355 0.000134959)
(-0.00068248 -0.000573803 0.000118422)
(-0.000688791 -0.000580777 0.000100064)
(-0.00068329 -0.000579197 7.92713e-05)
(-0.000681309 -0.000580113 5.8152e-05)
(-0.000678887 -0.000580366 3.5959e-05)
(-0.000678425 -0.000581132 1.22742e-05)
(-0.000145344 -0.000108672 -3.32769e-05)
(-0.000206619 -0.000229631 -5.90783e-05)
(-0.000310171 -0.000383136 -7.15107e-06)
(-0.000378801 -0.000466108 4.61876e-05)
(-0.00045329 -0.000525583 9.53323e-05)
(-0.000511878 -0.000549197 0.000132406)
(-0.000565501 -0.000562217 0.000161147)
(-0.000608592 -0.000566034 0.00018316)
(-0.000646273 -0.000567529 0.000200577)
(-0.000670875 -0.000561087 0.000210009)
(-0.000689538 -0.000556671 0.000213776)
(-0.0007029 -0.000555899 0.000212457)
(-0.00071358 -0.000558886 0.000207196)
(-0.000723553 -0.000565121 0.00019887)
(-0.000706689 -0.000553626 0.000181584)
(-0.000722491 -0.000567086 0.000170519)
(-0.000715098 -0.00056477 0.000152774)
(-0.000717345 -0.000569559 0.000136163)
(-0.000730698 -0.000583469 0.000120411)
(-0.000734336 -0.0005885 0.000101503)
(-0.000729224 -0.000587775 8.06265e-05)
(-0.000727406 -0.000589195 5.92518e-05)
(-0.000724883 -0.000589688 3.6682e-05)
(-0.000723543 -0.000589904 1.25144e-05)
(-0.000123922 -7.82055e-05 -1.7526e-05)
(-0.000204027 -0.000200007 -6.03432e-05)
(-0.000316311 -0.000355195 -1.71409e-05)
(-0.000386953 -0.00044168 3.38048e-05)
(-0.000465439 -0.0005069 8.26219e-05)
(-0.000526955 -0.00053541 0.000120596)
(-0.000587853 -0.000556653 0.000151972)
(-0.000632101 -0.000561779 0.000175335)
(-0.000675158 -0.000567101 0.000194906)
(-0.000704571 -0.000563494 0.000206207)
(-0.000727604 -0.000560589 0.000211623)
(-0.000742854 -0.000558628 0.000211146)
(-0.000754186 -0.000560282 0.000206327)
(-0.000765039 -0.000566445 0.000198529)
(-0.000749161 -0.000556362 0.000182146)
(-0.000764519 -0.000568849 0.000171092)
(-0.000757477 -0.000567413 0.000153785)
(-0.000757974 -0.000571131 0.000137064)
(-0.000774631 -0.000587007 0.000121826)
(-0.000775691 -0.000590746 0.000102555)
(-0.000770314 -0.000590673 8.16275e-05)
(-0.000769245 -0.000593326 6.01566e-05)
(-0.000767822 -0.000595222 3.73519e-05)
(-0.000766906 -0.000596109 1.27605e-05)
(-0.000144888 -7.59588e-05 -8.61022e-06)
(-0.000209943 -0.000180031 -6.3644e-05)
(-0.000316045 -0.000321427 -2.66211e-05)
(-0.000390104 -0.000412792 2.0832e-05)
(-0.000470995 -0.000482163 6.8574e-05)
(-0.000540093 -0.000520136 0.000108177)
(-0.000602997 -0.000544092 0.000140748)
(-0.00065575 -0.000556816 0.000167289)
(-0.000701224 -0.000563223 0.000188202)
(-0.000731591 -0.000559481 0.000200391)
(-0.000756127 -0.00055635 0.000206727)
(-0.00077529 -0.000555299 0.000207796)
(-0.000791134 -0.000558217 0.000204636)
(-0.000801096 -0.000562527 0.000197062)
(-0.000787317 -0.000554327 0.00018191)
(-0.000802113 -0.000565928 0.000171021)
(-0.000796604 -0.000566391 0.000154502)
(-0.000798773 -0.000571885 0.000138392)
(-0.000819631 -0.00059041 0.000123774)
(-0.000818021 -0.000593137 0.000104099)
(-0.000812452 -0.000593933 8.30404e-05)
(-0.000811192 -0.000597191 6.12985e-05)
(-0.000809063 -0.000599161 3.80834e-05)
(-0.000807049 -0.00059962 1.30024e-05)
(-0.000156593 -6.66776e-05 2.68968e-06)
(-0.000192002 -0.000142587 -5.94789e-05)
(-0.000311841 -0.000285989 -3.51164e-05)
(-0.000386618 -0.000378944 7.57748e-06)
(-0.000471965 -0.000454735 5.3756e-05)
(-0.000543759 -0.000497151 9.37836e-05)
(-0.000616077 -0.000530199 0.000128893)
(-0.000670274 -0.000543909 0.000156664)
(-0.000720972 -0.000553717 0.000179606)
(-0.000757377 -0.000553835 0.000194195)
(-0.000787105 -0.000553274 0.00020262)
(-0.00080884 -0.000552465 0.000205003)
(-0.000825775 -0.00055458 0.000202698)
(-0.000837007 -0.000558563 0.000196015)
(-0.000825898 -0.000552387 0.000182253)
(-0.000839089 -0.000562584 0.000171411)
(-0.000833917 -0.0005641 0.000155448)
(-0.000834139 -0.00056888 0.000139336)
(-0.000856202 -0.000587722 0.000124925)
(-0.000852222 -0.000589721 0.000105017)
(-0.000845711 -0.000590783 8.38731e-05)
(-0.000844846 -0.000594919 6.20524e-05)
(-0.00084333 -0.000597819 3.86322e-05)
(-0.000841567 -0.000598829 1.32027e-05)
(-0.000137357 -4.62722e-05 1.19108e-05)
(-0.00019537 -0.000123476 -6.10408e-05)
(-0.000299385 -0.000246104 -4.19791e-05)
(-0.000376464 -0.000341283 -5.48433e-06)
(-0.000463142 -0.000420648 3.78746e-05)
(-0.000544467 -0.000473644 7.88198e-05)
(-0.000618065 -0.000508157 0.000114613)
(-0.000682209 -0.000529385 0.000145248)
(-0.000737199 -0.000541421 0.000169935)
(-0.000775001 -0.000541877 0.000185842)
(-0.000806139 -0.000541428 0.000195583)
(-0.000831533 -0.000541925 0.000199767)
(-0.000853024 -0.00054585 0.000199362)
(-0.0008639 -0.000548851 0.000193427)
(-0.000856 -0.000544986 0.000181307)
(-0.000867817 -0.000554171 0.000170779)
(-0.000864149 -0.000557347 0.000155697)
(-0.00086631 -0.000563866 0.000140305)
(-0.00089039 -0.000583277 0.000126207)
(-0.000884283 -0.000584829 0.0001061)
(-0.000877347 -0.000586584 8.49006e-05)
(-0.000876253 -0.000591085 6.29071e-05)
(-0.000873579 -0.000593658 3.91646e-05)
(-0.000870648 -0.000594235 1.3375e-05)
(-0.000137751 -3.5051e-05 2.09216e-05)
(-0.000161348 -8.47568e-05 -4.99153e-05)
(-0.000282751 -0.000206596 -4.72257e-05)
(-0.000357634 -0.000299052 -1.76273e-05)
(-0.000448382 -0.000384587 2.17661e-05)
(-0.000530858 -0.000440757 6.18283e-05)
(-0.0006162 -0.000485279 9.95623e-05)
(-0.000682814 -0.000507452 0.000131288)
(-0.000743139 -0.000522129 0.000157791)
(-0.000788513 -0.00052711 0.000176486)
(-0.000826262 -0.000530167 0.000188963)
(-0.000854798 -0.00053161 0.000195009)
(-0.000876555 -0.0005347 0.000195656)
(-0.000888661 -0.000537966 0.000190999)
(-0.000883961 -0.00053632 0.00018054)
(-0.000893825 -0.000544385 0.000170312)
(-0.000890442 -0.000548375 0.000155905)
(-0.000890301 -0.000553831 0.000140572)
(-0.000913203 -0.000571577 0.000126457)
(-0.000905104 -0.000572838 0.000106361)
(-0.00089683 -0.000574767 8.51938e-05)
(-0.000895812 -0.000579721 6.32458e-05)
(-0.00089331 -0.000582865 3.94392e-05)
(-0.000890612 -0.000583981 1.34808e-05)
(-0.000134554 -2.37562e-05 2.89137e-05)
(-0.000171259 -7.27251e-05 -5.12875e-05)
(-0.000257208 -0.000164695 -4.93918e-05)
(-0.000331396 -0.000254495 -2.8142e-05)
(-0.00042005 -0.000340893 5.68676e-06)
(-0.000513676 -0.000408626 4.45883e-05)
(-0.000599212 -0.000453863 8.20335e-05)
(-0.000677298 -0.00048356 0.000116104)
(-0.000744521 -0.000501112 0.000144676)
(-0.00079227 -0.000506428 0.000165003)
(-0.000831471 -0.000509625 0.000179154)
(-0.000863529 -0.000512435 0.000187362)
(-0.000889898 -0.000517561 0.000190289)
(-0.000902015 -0.000520589 0.000186879)
(-0.000900316 -0.000520992 0.000178186)
(-0.000908682 -0.000528467 0.000168572)
(-0.000906537 -0.000533804 0.000155156)
(-0.000908351 -0.000540734 0.000140673)
(-0.000930993 -0.000557367 0.000126743)
(-0.000921056 -0.000558522 0.0001067)
(-0.000911933 -0.000561101 8.56143e-05)
(-0.000910257 -0.000565969 6.36339e-05)
(-0.000905926 -0.000568445 3.96617e-05)
(-0.000901813 -0.000569068 1.35437e-05)
(-0.000146025 -1.46011e-05 4.04967e-05)
(-0.000135049 -4.50538e-05 -3.84528e-05)
(-0.000229223 -0.000125919 -4.87065e-05)
(-0.000295258 -0.000206753 -3.56058e-05)
(-0.000386243 -0.000297026 -9.24491e-06)
(-0.000477096 -0.000365394 2.61816e-05)
(-0.000576365 -0.000422156 6.38254e-05)
(-0.000658069 -0.000453657 9.85192e-05)
(-0.000731344 -0.000473238 0.000128861)
(-0.000788587 -0.000482566 0.000152241)
(-0.000835996 -0.000489348 0.000169539)
(-0.000871657 -0.000493438 0.000180118)
(-0.000897556 -0.000497725 0.000184478)
(-0.000911085 -0.000501502 0.000182804)
(-0.000912075 -0.000503774 0.0001759)
(-0.000918651 -0.00051072 0.000166959)
(-0.00091613 -0.000516493 0.000154296)
(-0.000914465 -0.000521716 0.00013987)
(-0.00093341 -0.000535204 0.000125811)
(-0.000921412 -0.00053619 0.000106002)
(-0.000910467 -0.000538991 8.51212e-05)
(-0.000908055 -0.000543602 6.33383e-05)
(-0.00090331 -0.000546379 3.95221e-05)
(-0.000899435 -0.000547589 1.3507e-05)
(-0.00014678 -3.73121e-06 4.98072e-05)
(-0.000134359 -3.39839e-05 -3.5712e-05)
(-0.000193355 -8.81796e-05 -4.34053e-05)
(-0.000253817 -0.000160151 -3.93705e-05)
(-0.000335396 -0.000244602 -2.16471e-05)
(-0.000437902 -0.000324724 8.63976e-06)
(-0.000534591 -0.000381258 4.39033e-05)
(-0.000628706 -0.000421348 7.95111e-05)
(-0.000711728 -0.00044554 0.000112013)
(-0.000773126 -0.00045489 0.000137588)
(-0.000822254 -0.000460607 0.000156866)
(-0.000861259 -0.000465126 0.000169802)
(-0.000891712 -0.000471449 0.000176773)
(-0.000905454 -0.000475578 0.000176847)
(-0.000908115 -0.000479269 0.000171758)
(-0.000913181 -0.000486035 0.000163762)
(-0.00091109 -0.000492718 0.000152145)
(-0.000910959 -0.000499088 0.000138659)
(-0.000927567 -0.00051085 0.000124777)
(-0.000913683 -0.000511955 0.000105278)
(-0.000901197 -0.000515421 8.46496e-05)
(-0.000897239 -0.000519506 6.30137e-05)
(-0.000889879 -0.000521466 3.92771e-05)
(-0.000884111 -0.000522028 1.34019e-05)
(-0.00014714 7.19301e-06 5.92721e-05)
(-0.000132288 -2.40888e-05 -3.23334e-05)
(-0.000158614 -5.75214e-05 -3.55862e-05)
(-0.000202904 -0.000113025 -3.74029e-05)
(-0.000283338 -0.000195699 -3.08636e-05)
(-0.000374617 -0.000270969 -7.62823e-06)
(-0.000486645 -0.000340778 2.4363e-05)
(-0.00058433 -0.000383814 5.89666e-05)
(-0.000673093 -0.000410899 9.24705e-05)
(-0.000745883 -0.000425091 0.000121317)
(-0.000805156 -0.000434253 0.000144275)
(-0.000848579 -0.000439424 0.000160084)
(-0.000877957 -0.000444153 0.000168791)
(-0.000892886 -0.000448719 0.000170911)
(-0.000896809 -0.000453445 0.00016761)
(-0.000900068 -0.000460218 0.00016059)
(-0.000896271 -0.000467031 0.000149732)
(-0.000890937 -0.000471217 0.000136223)
(-0.000901512 -0.000479887 0.000122257)
(-0.000884985 -0.000480681 0.000103214)
(-0.000870111 -0.000484283 8.30054e-05)
(-0.000864117 -0.000487531 6.17788e-05)
(-0.000855773 -0.00048967 3.85342e-05)
(-0.0008503 -0.000490859 1.31575e-05)
(-0.000137702 1.66862e-05 6.37985e-05)
(-0.000128689 -1.57833e-05 -2.8486e-05)
(-0.000116668 -3.18686e-05 -2.4046e-05)
(-0.000153124 -7.25733e-05 -3.09007e-05)
(-0.00021175 -0.000138067 -3.33731e-05)
(-0.000313926 -0.000223468 -2.11981e-05)
(-0.000416827 -0.000289659 5.15312e-06)
(-0.000527029 -0.000342542 3.80313e-05)
(-0.000627404 -0.000376831 7.26395e-05)
(-0.000704654 -0.000392661 0.00010354)
(-0.000765416 -0.000400906 0.000128723)
(-0.000811869 -0.000406229 0.00014715)
(-0.000846018 -0.000412633 0.000158826)
(-0.000861212 -0.000417179 0.000162971)
(-0.000865023 -0.000422197 0.00016133)
(-0.000866209 -0.000428809 0.00015539)
(-0.000861544 -0.000436042 0.000145574)
(-0.000857238 -0.00044144 0.000133149)
(-0.000863699 -0.000448648 0.000119478)
(-0.000845018 -0.000449574 0.000100989)
(-0.000827764 -0.000453324 8.12235e-05)
(-0.000819111 -0.000455473 6.03913e-05)
(-0.000807438 -0.000456536 3.75861e-05)
(-0.00079942 -0.00045667 1.27958e-05)
(-0.000129058 2.40875e-05 6.63412e-05)
(-0.000123996 -9.24549e-06 -2.46347e-05)
(-8.82896e-05 -1.73907e-05 -1.46292e-05)
(-9.32135e-05 -3.49123e-05 -1.79323e-05)
(-0.000150914 -9.18617e-05 -3.18222e-05)
(-0.000224587 -0.000159668 -2.87288e-05)
(-0.000344697 -0.000240896 -1.16687e-05)
(-0.000456596 -0.000296846 1.76624e-05)
(-0.000560514 -0.000334469 5.17597e-05)
(-0.000649044 -0.000357144 8.50428e-05)
(-0.000720577 -0.000370657 0.000113772)
(-0.000771444 -0.000377456 0.000135158)
(-0.000803519 -0.000382289 0.000148632)
(-0.000819234 -0.000387156 0.00015492)
(-0.000822859 -0.00039266 0.000155012)
(-0.000821724 -0.000399005 0.000150139)
(-0.000813806 -0.000405304 0.000140927)
(-0.000802372 -0.000407735 0.000128327)
(-0.000800427 -0.00041176 0.00011456)
(-0.000778098 -0.000411754 9.67037e-05)
(-0.000758013 -0.000414775 7.76688e-05)
(-0.000745714 -0.00041512 5.75807e-05)
(-0.00073265 -0.000415895 3.58131e-05)
(-0.000725176 -0.000416515 1.21956e-05)
(-0.000119824 2.86007e-05 6.44608e-05)
(-0.000134998 -5.76012e-06 -2.41192e-05)
(-8.02001e-05 -1.1183e-05 -8.23943e-06)
(-5.15021e-05 -1.29485e-05 -6.64738e-06)
(-6.6023e-05 -3.63991e-05 -1.74114e-05)
(-0.000153754 -0.000111105 -3.31153e-05)
(-0.000249547 -0.00017879 -2.4237e-05)
(-0.000372875 -0.000245544 -3.64489e-07)
(-0.000489255 -0.000293013 3.2958e-05)
(-0.000579782 -0.000318428 6.6987e-05)
(-0.000649783 -0.000332328 9.67654e-05)
(-0.000701782 -0.000340573 0.000119969)
(-0.000738196 -0.000347984 0.000136109)
(-0.000753442 -0.000353137 0.000144269)
(-0.000755072 -0.000358295 0.000145775)
(-0.000750489 -0.000363642 0.000141816)
(-0.000740153 -0.000369013 0.000133423)
(-0.000729585 -0.00037224 0.000122058)
(-0.000723076 -0.000375194 0.00010883)
(-0.000698778 -0.000374698 9.18237e-05)
(-0.000676121 -0.00037663 7.35886e-05)
(-0.000660668 -0.000375288 5.43719e-05)
(-0.000644248 -0.000374397 3.36573e-05)
(-0.000633637 -0.000373203 1.13947e-05)
(-0.000106994 2.80877e-05 5.50333e-05)
(-0.000113345 -2.8757e-06 -1.82881e-05)
(-7.18425e-05 -6.97494e-06 -1.74125e-06)
(-3.67558e-05 -4.1765e-06 1.02385e-06)
(-2.65568e-05 -1.31193e-05 -7.65318e-06)
(-4.5623e-05 -3.53565e-05 -1.73782e-05)
(-0.000166154 -0.000124563 -3.24863e-05)
(-0.000284313 -0.00019201 -1.39517e-05)
(-0.000397292 -0.000241494 1.69503e-05)
(-0.000496752 -0.000275631 5.09142e-05)
(-0.000575638 -0.000296833 8.20657e-05)
(-0.000629958 -0.0003081 0.000106627)
(-0.000661827 -0.000314612 0.00012343)
(-0.000676002 -0.000320172 0.000133108)
(-0.000676337 -0.000325419 0.000136052)
(-0.00066865 -0.000329869 0.000132948)
(-0.000654087 -0.000333238 0.000124887)
(-0.000634863 -0.000332218 0.000113083)
(-0.000618429 -0.000331074 9.97046e-05)
(-0.00058971 -0.00032799 8.35034e-05)
(-0.000564169 -0.000327704 6.65404e-05)
(-0.000544117 -0.000323346 4.87361e-05)
(-0.000526493 -0.000321354 3.00218e-05)
(-0.00051731 -0.000320628 1.01591e-05)
(-0.0001001 2.67647e-05 4.55104e-05)
(-0.000107844 -1.11178e-06 -1.60323e-05)
(-6.41567e-05 -2.75967e-06 3.77767e-06)
(-2.29946e-05 4.73678e-06 8.66618e-06)
(4.00675e-07 4.93136e-06 -1.23796e-06)
(-7.48307e-06 -8.70377e-06 -1.21948e-05)
(-6.36153e-05 -5.00411e-05 -2.36004e-05)
(-0.000187257 -0.000130642 -1.89851e-05)
(-0.000309878 -0.000193289 8.0864e-06)
(-0.000402995 -0.000229391 3.88217e-05)
(-0.0004742 -0.0002511 6.70224e-05)
(-0.000526221 -0.000264639 9.02852e-05)
(-0.000561169 -0.000274799 0.000107887)
(-0.000573579 -0.000280747 0.000118276)
(-0.000570041 -0.000284779 0.000121802)
(-0.000556932 -0.000286864 0.000118888)
(-0.000538427 -0.000287795 0.00011114)
(-0.000520892 -0.0002873 0.000100859)
(-0.000502571 -0.00028561 8.86738e-05)
(-0.000473517 -0.000281439 7.38448e-05)
(-0.000446522 -0.000279026 5.84086e-05)
(-0.000424912 -0.00027291 4.24473e-05)
(-0.0004052 -0.000268757 2.58238e-05)
(-0.000392499 -0.00026516 8.61886e-06)
(-8.1093e-05 2.29813e-05 3.2424e-05)
(-0.000105631 1.21298e-06 -1.54051e-05)
(-6.00663e-05 2.56516e-06 5.40683e-06)
(-1.44804e-05 9.86633e-06 6.70667e-06)
(1.23201e-05 1.36163e-05 -4.00342e-07)
(8.51138e-06 9.68192e-06 -4.05198e-06)
(-2.32226e-05 -1.5773e-05 -1.4187e-05)
(-0.000108478 -7.67125e-05 -1.13011e-05)
(-0.000203579 -0.000132921 8.22338e-06)
(-0.000299528 -0.000179403 3.27248e-05)
(-0.000375629 -0.000209594 5.65619e-05)
(-0.000426875 -0.000226623 7.69134e-05)
(-0.000454028 -0.000235269 9.21236e-05)
(-0.000463515 -0.00024105 0.000102228)
(-0.000458355 -0.000244822 0.000106358)
(-0.000442214 -0.000245465 0.000103716)
(-0.000420304 -0.000243839 9.5947e-05)
(-0.00039383 -0.000237428 8.4818e-05)
(-0.000365761 -0.000229536 7.23836e-05)
(-0.000332407 -0.000220543 5.85766e-05)
(-0.000303617 -0.000214247 4.53357e-05)
(-0.000278131 -0.000203635 3.20283e-05)
(-0.000258402 -0.00019744 1.90121e-05)
(-0.000249126 -0.000194868 6.32446e-06)
(-6.1737e-05 1.90161e-05 2.27257e-05)
(-9.42666e-05 3.30435e-06 -1.37393e-05)
(-5.5912e-05 3.99645e-06 4.3309e-06)
(8.82688e-07 8.023e-06 5.56396e-06)
(1.08063e-05 1.01666e-05 9.57693e-06)
(7.21261e-06 9.77811e-06 1.29792e-05)
(-5.5193e-06 -1.16659e-06 1.07546e-05)
(-2.75925e-05 -2.02705e-05 7.07382e-06)
(-0.00012146 -8.78429e-05 2.08241e-05)
(-0.000191172 -0.000127761 3.27124e-05)
(-0.000250876 -0.000155112 4.57111e-05)
(-0.000296075 -0.000173218 5.92111e-05)
(-0.000326311 -0.00018597 7.19479e-05)
(-0.000333654 -0.000191565 8.05239e-05)
(-0.000323266 -0.000192491 8.35151e-05)
(-0.000300408 -0.00018855 7.96088e-05)
(-0.000274177 -0.000182432 7.12879e-05)
(-0.000253056 -0.000176965 6.24771e-05)
(-0.000229629 -0.000169635 5.26964e-05)
(-0.000201032 -0.000160255 4.13905e-05)
(-0.000174361 -0.000151793 3.09845e-05)
(-0.000152912 -0.000140952 2.13837e-05)
(-0.000134378 -0.000132796 1.19587e-05)
(-0.000122482 -0.000125969 3.76768e-06)
(-4.95261e-05 1.56152e-05 1.63267e-05)
(-8.64144e-05 4.89275e-06 -1.22049e-05)
(-5.1685e-05 3.28585e-06 5.40679e-06)
(-5.21284e-06 1.1279e-05 1.55131e-05)
(8.40139e-06 1.23502e-05 2.21837e-05)
(1.66929e-05 9.80896e-06 2.83506e-05)
(1.82712e-05 1.62943e-06 3.73796e-05)
(2.71722e-06 -1.05491e-05 2.78996e-05)
(-1.80412e-05 -2.39883e-05 2.07511e-05)
(-8.06603e-05 -7.4186e-05 3.38884e-05)
(-0.000142281 -0.000109035 3.86662e-05)
(-0.000185857 -0.000129304 4.48293e-05)
(-0.000205731 -0.000137306 5.09577e-05)
(-0.000209388 -0.000140992 5.65859e-05)
(-0.000198771 -0.000141058 5.8913e-05)
(-0.000176645 -0.000135862 5.49085e-05)
(-0.000152121 -0.000127958 4.67557e-05)
(-0.000123859 -0.00011322 3.63259e-05)
(-9.5852e-05 -9.64723e-05 2.64696e-05)
(-6.49641e-05 -7.72744e-05 1.6136e-05)
(-4.17286e-05 -6.21601e-05 9.26901e-06)
(-2.18876e-05 -4.05967e-05 4.01208e-06)
(-9.86128e-06 -2.6155e-05 9.27934e-07)
(-6.19049e-06 -2.32283e-05 1.49304e-07)
(-3.24372e-05 1.38636e-05 1.20829e-05)
(-7.51715e-05 7.73673e-06 -1.45646e-05)
(-6.11355e-05 9.61742e-06 -2.3735e-06)
(-3.36221e-05 2.44151e-05 1.33313e-05)
(-9.68885e-06 3.4765e-05 2.01063e-05)
(1.28757e-05 2.50829e-05 1.67968e-05)
(3.23799e-05 1.97716e-05 2.69532e-05)
(3.90448e-05 6.92132e-06 3.4321e-05)
(2.24702e-05 -6.00446e-06 2.73021e-05)
(5.65045e-06 -2.38564e-05 2.69629e-05)
(-1.772e-05 -3.08634e-05 1.51728e-05)
(-5.06184e-05 -5.41752e-05 1.80844e-05)
(-7.84491e-05 -7.20453e-05 2.2311e-05)
(-8.26649e-05 -7.54321e-05 2.47242e-05)
(-6.83211e-05 -6.91427e-05 2.32434e-05)
(-4.22047e-05 -5.2585e-05 1.54934e-05)
(-1.73867e-05 -2.90169e-05 5.75255e-06)
(-1.12296e-05 -2.88464e-05 2.31409e-06)
(-1.16158e-06 -1.49593e-05 -1.0751e-06)
(5.87186e-06 -8.48901e-06 -3.86944e-06)
(1.65188e-05 -2.67398e-06 -6.95562e-06)
(1.37604e-05 2.71075e-06 -3.99837e-06)
(1.59893e-05 6.72421e-06 -3.01113e-06)
(2.27488e-05 1.19977e-05 -1.45682e-06)
(-3.85097e-06 1.41267e-05 1.79601e-05)
(-4.73546e-05 1.19966e-05 -1.65945e-05)
(-5.97338e-05 1.2562e-05 -1.52223e-05)
(-5.28802e-05 2.32057e-05 -6.99537e-06)
(-4.09415e-05 4.64626e-05 -3.98499e-06)
(-1.03645e-05 6.06652e-05 -8.52787e-06)
(2.07873e-05 5.13609e-05 -9.02396e-06)
(2.88285e-05 2.08489e-05 8.4381e-07)
(3.16797e-05 1.15636e-05 1.16869e-05)
(3.09365e-05 6.35932e-06 1.38541e-05)
(2.68424e-05 -2.02019e-06 1.10903e-05)
(7.93949e-06 -9.82901e-06 2.6174e-06)
(-5.01049e-07 -1.9296e-05 -1.31535e-06)
(-1.25758e-06 -1.3859e-05 -2.95575e-06)
(4.26328e-06 -1.15421e-05 -6.4668e-06)
(1.09369e-05 -4.30286e-06 -9.49298e-06)
(1.38192e-05 1.66029e-06 -1.02046e-05)
(1.58135e-05 6.26454e-06 -1.02062e-05)
(1.9892e-05 1.17712e-05 -1.0473e-05)
(2.2607e-05 1.63095e-05 -8.97538e-06)
(2.05925e-05 1.553e-05 -5.30447e-06)
(2.11201e-05 1.63531e-05 -3.25651e-06)
(2.15669e-05 1.6281e-05 -2.18194e-06)
(2.18718e-05 1.61846e-05 -8.08476e-07)
(7.02043e-06 1.91726e-05 3.29933e-05)
(-1.7577e-05 1.98638e-05 -1.35943e-05)
(-3.787e-05 1.52131e-05 -1.89525e-05)
(-4.68243e-05 1.92973e-05 -1.83904e-05)
(-4.79694e-05 3.49362e-05 -2.36777e-05)
(-2.54399e-05 4.69497e-05 -3.16322e-05)
(7.65142e-06 4.47118e-05 -3.60583e-05)
(3.08236e-05 3.03148e-05 -2.68012e-05)
(3.22357e-05 1.34634e-05 -4.72632e-06)
(4.37722e-05 1.55405e-05 6.43673e-06)
(3.60128e-05 1.42955e-05 5.59072e-06)
(2.61521e-05 1.05355e-05 8.72372e-07)
(2.6826e-05 1.20213e-05 -5.35815e-06)
(2.39751e-05 1.27216e-05 -1.11272e-05)
(2.50771e-05 1.55404e-05 -1.38624e-05)
(2.01103e-05 1.36604e-05 -9.65199e-06)
(2.08061e-05 1.43185e-05 -7.75072e-06)
(3.13869e-05 2.06692e-05 -9.54666e-06)
(2.5987e-05 1.54312e-05 -6.97168e-06)
(2.25994e-05 1.16522e-05 -5.2933e-06)
(3.03133e-05 1.30414e-05 -5.02769e-06)
(3.59963e-05 1.29085e-05 -3.99076e-06)
(4.05706e-05 1.21136e-05 -3.34605e-06)
(4.25151e-05 1.14091e-05 -1.37468e-06)
(3.00711e-06 2.2595e-05 3.9847e-05)
(-7.63451e-06 3.07496e-05 -7.44036e-06)
(-2.5772e-05 2.63547e-05 -1.76564e-05)
(-3.92536e-05 2.45089e-05 -2.16695e-05)
(-4.18166e-05 2.90814e-05 -2.7424e-05)
(-2.89178e-05 3.35657e-05 -3.58393e-05)
(-6.0329e-06 2.93181e-05 -4.07955e-05)
(1.6947e-05 1.36787e-05 -3.07139e-05)
(3.52169e-05 1.50214e-06 -9.94487e-06)
(5.52089e-05 5.40004e-06 2.25556e-06)
(5.82088e-05 1.33802e-05 2.67754e-06)
(4.52351e-05 1.40987e-05 -1.85782e-06)
(2.70173e-05 1.04105e-05 -3.90269e-06)
(2.33869e-05 1.06539e-05 -5.67948e-06)
(2.23047e-05 1.03756e-05 -6.35974e-06)
(2.45209e-05 9.73566e-06 -6.77937e-06)
(3.35147e-05 9.94984e-06 -8.45423e-06)
(3.98482e-05 8.16315e-06 -9.3613e-06)
(4.40379e-05 4.92426e-06 -9.90573e-06)
(4.95997e-05 1.45054e-06 -1.03069e-05)
(5.22587e-05 -2.14245e-06 -7.99802e-06)
(5.35883e-05 -4.60608e-06 -5.65749e-06)
(5.5096e-05 -6.31859e-06 -4.29007e-06)
(5.55049e-05 -7.22871e-06 -1.70476e-06)
(-2.50441e-06 2.16763e-05 3.60179e-05)
(-1.15168e-05 3.38597e-05 -3.40131e-06)
(-2.09525e-05 3.26593e-05 -1.19367e-05)
(-3.06485e-05 2.89133e-05 -1.69957e-05)
(-3.44199e-05 2.66369e-05 -2.26056e-05)
(-2.80458e-05 2.32373e-05 -2.95402e-05)
(-1.27583e-05 1.2577e-05 -3.2633e-05)
(7.96075e-06 -3.4911e-06 -2.26544e-05)
(3.26096e-05 -1.13925e-05 -6.5515e-06)
(5.58468e-05 -5.35583e-06 8.08123e-07)
(6.82309e-05 2.58529e-06 -1.25979e-06)
(6.49838e-05 4.98217e-06 -6.61875e-06)
(5.62801e-05 3.86895e-06 -9.8704e-06)
(4.88089e-05 2.68751e-06 -1.10833e-05)
(4.65579e-05 3.66436e-07 -1.15494e-05)
(4.83533e-05 -2.79643e-06 -1.16488e-05)
(5.14631e-05 -5.63039e-06 -1.14615e-05)
(5.44009e-05 -7.8461e-06 -1.14712e-05)
(5.67969e-05 -1.06972e-05 -1.1684e-05)
(5.80309e-05 -1.29376e-05 -1.11958e-05)
(5.9924e-05 -1.55835e-05 -8.90683e-06)
(6.02389e-05 -1.58868e-05 -6.43681e-06)
(6.02493e-05 -1.60215e-05 -4.7231e-06)
(5.97438e-05 -1.60888e-05 -1.85411e-06)
(-5.39923e-06 1.65361e-05 2.53937e-05)
(-1.61505e-05 3.03149e-05 -2.0625e-06)
(-2.31585e-05 3.17275e-05 -1.00719e-05)
(-2.85212e-05 2.84719e-05 -1.43066e-05)
(-3.05455e-05 2.29532e-05 -1.88996e-05)
(-2.66041e-05 1.4318e-05 -2.36827e-05)
(-1.56028e-05 9.17143e-07 -2.36321e-05)
(2.01365e-06 -1.15347e-05 -1.40641e-05)
(2.10366e-05 -1.21317e-05 -3.69109e-06)
(4.13571e-05 -7.45984e-06 -2.94008e-07)
(6.0282e-05 -2.52705e-06 -2.94162e-06)
(6.50428e-05 -2.40904e-06 -8.65863e-06)
(6.1648e-05 -6.64184e-06 -1.20533e-05)
(5.56752e-05 -9.72106e-06 -1.26426e-05)
(5.33058e-05 -1.20737e-05 -1.25836e-05)
(5.39946e-05 -1.37624e-05 -1.24141e-05)
(5.57468e-05 -1.44117e-05 -1.21308e-05)
(5.65801e-05 -1.42087e-05 -1.19355e-05)
(5.67799e-05 -1.45332e-05 -1.18476e-05)
(5.59908e-05 -1.50095e-05 -1.10356e-05)
(5.57896e-05 -1.58147e-05 -8.62804e-06)
(5.26189e-05 -1.42024e-05 -6.07968e-06)
(5.02078e-05 -1.3527e-05 -4.20682e-06)
(4.88614e-05 -1.33442e-05 -1.61277e-06)
(-5.71774e-06 1.11427e-05 1.55147e-05)
(-1.71895e-05 2.27666e-05 -1.57487e-06)
(-2.44976e-05 2.61608e-05 -1.02775e-05)
(-2.85095e-05 2.40562e-05 -1.5806e-05)
(-2.88175e-05 1.77588e-05 -2.05785e-05)
(-2.45381e-05 7.15489e-06 -2.43104e-05)
(-1.45269e-05 -6.37089e-06 -2.3369e-05)
(-1.21414e-07 -1.5561e-05 -1.44668e-05)
(1.18238e-05 -1.4612e-05 -5.83097e-06)
(2.2105e-05 -1.11602e-05 -1.76117e-06)
(2.85739e-05 -5.23632e-06 -1.08589e-06)
(3.89288e-05 -3.32027e-06 -4.75866e-06)
(5.0766e-05 -7.17915e-06 -1.02143e-05)
(5.17624e-05 -1.16517e-05 -1.23267e-05)
(5.00887e-05 -1.36692e-05 -1.2349e-05)
(4.78071e-05 -1.34638e-05 -1.16194e-05)
(4.55139e-05 -1.23844e-05 -1.06234e-05)
(4.34161e-05 -1.16005e-05 -9.84083e-06)
(4.22852e-05 -1.17602e-05 -9.36879e-06)
(4.18714e-05 -1.24457e-05 -8.612e-06)
(4.2968e-05 -1.32607e-05 -7.04846e-06)
(4.18755e-05 -1.28368e-05 -5.28652e-06)
(4.17584e-05 -1.301e-05 -3.75267e-06)
(4.15657e-05 -1.30811e-05 -1.46324e-06)
(-4.24767e-06 5.38505e-06 6.09521e-06)
(-1.39381e-05 1.2094e-05 -1.4514e-06)
(-2.19016e-05 1.63627e-05 -8.91072e-06)
(-2.6051e-05 1.57474e-05 -1.56965e-05)
(-2.56783e-05 1.02105e-05 -2.11061e-05)
(-2.00631e-05 1.78052e-07 -2.40264e-05)
(-9.18808e-06 -1.16513e-05 -2.14349e-05)
(4.22655e-06 -1.60464e-05 -1.14537e-05)
(1.56144e-05 -1.64957e-05 -6.92335e-06)
(2.35889e-05 -1.50646e-05 -4.68138e-06)
(2.9151e-05 -1.32744e-05 -3.0763e-06)
(3.15228e-05 -1.02291e-05 -3.45736e-06)
(3.23187e-05 -8.7171e-06 -5.45366e-06)
(3.55235e-05 -1.031e-05 -8.03818e-06)
(3.60009e-05 -1.16443e-05 -9.13506e-06)
(3.52216e-05 -1.2051e-05 -9.08209e-06)
(3.56242e-05 -1.23166e-05 -8.79924e-06)
(3.71666e-05 -1.27733e-05 -8.72037e-06)
(3.90895e-05 -1.34381e-05 -8.79271e-06)
(4.03419e-05 -1.40874e-05 -8.35498e-06)
(4.14179e-05 -1.45292e-05 -6.96305e-06)
(4.04006e-05 -1.39675e-05 -5.28933e-06)
(3.98952e-05 -1.38169e-05 -3.67693e-06)
(3.93676e-05 -1.36856e-05 -1.42695e-06)
(-2.66668e-06 1.35158e-07 -2.87049e-06)
(-7.892e-06 1.41605e-06 -1.83037e-06)
(-1.47365e-05 3.97333e-06 -4.97084e-06)
(-1.92147e-05 4.36989e-06 -1.05672e-05)
(-1.90599e-05 7.50922e-07 -1.54257e-05)
(-1.33895e-05 -6.24596e-06 -1.71952e-05)
(-2.6271e-06 -1.2799e-05 -1.35602e-05)
(8.90488e-06 -1.39714e-05 -8.8909e-06)
(1.79464e-05 -1.43912e-05 -7.87585e-06)
(2.21226e-05 -1.38408e-05 -5.48471e-06)
(2.49819e-05 -1.24101e-05 -3.44582e-06)
(3.11093e-05 -1.31512e-05 -4.04865e-06)