/*--------------------------------*- C++ -*----------------------------------*\
  =========                 |
  \\      /  F ield         | OpenFOAM: The Open Source CFD Toolbox
   \\    /   O peration     | Website:  https://openfoam.org
    \\  /    A nd           | Version:  6
     \\/     M anipulation  |
\*---------------------------------------------------------------------------*/
FoamFile
{
    version     2.0;
    format      ascii;
    class       volScalarField;
    location    "13";
    object      yPlus;
}
// * * * * * * * * * * * * * * * * * * * * * * * * * * * * * * * * * * * * * //

dimensions      [0 0 0 0 0 0 0];

internalField   uniform 0;

boundaryField
{
    inlet
    {
        type            calculated;
        value           uniform 0;
    }
    outlet
    {
        type            calculated;
        value           uniform 0;
    }
    roughCylinder
    {
        type            calculated;
        value           nonuniform List<scalar> 
5120
(
43.585
51.4089
57.6428
63.7722
69.0615
73.3502
76.7857
79.5618
81.8342
83.7379
85.3928
86.8744
88.2207
89.4653
90.6392
91.7726
92.8962
94.0384
95.2225
96.4658
97.7777
99.1605
100.611
102.122
103.684
105.284
106.907
108.528
110.109
111.581
112.795
113.512
42.8719
50.4127
56.4481
62.4377
67.6538
71.9073
75.3243
78.0919
80.3639
82.2741
83.9376
85.4233
86.7612
87.9917
89.1474
90.2594
91.3595
92.4767
93.635
94.8509
96.1339
97.4864
98.9052
100.383
101.91
103.474
105.058
106.642
108.185
109.621
110.805
111.504
42.0932
49.3842
55.2315
61.0809
66.2229
70.4444
73.8496
76.6182
78.901
80.8272
82.504
83.994
85.3274
86.5471
87.6864
88.7787
89.8567
90.9501
92.0825
93.2714
94.5262
95.8489
97.2364
98.6815
100.174
101.702
103.25
104.796
106.301
107.702
108.854
109.534
41.2783
48.3364
53.9976
59.7043
64.7727
68.9667
72.3665
75.1427
77.4442
79.3943
81.0906
82.5901
83.9254
85.1358
86.2617
87.3367
88.3946
89.4654
90.5746
91.7381
92.9656
94.2595
95.6164
97.0293
98.4877
99.9798
101.49
102.999
104.467
105.832
106.955
107.617
40.4304
47.2638
52.7356
58.2945
63.2892
67.4621
70.8675
73.6653
75.9982
77.9801
79.6993
81.2106
82.5506
83.7583
84.8744
85.9346
86.9745
88.0255
89.1113
90.2505
91.4521
92.7183
94.0458
95.4274
96.8531
98.3107
99.786
101.258
102.689
104.02
105.113
105.756
39.553
46.1676
51.4453
56.8513
61.7742
65.9352
69.357
72.1833
74.551
76.5683
78.316
79.8469
81.1992
82.4101
83.5202
84.5697
85.5948
86.6271
87.6938
88.8109
89.9881
91.2279
92.527
93.878
95.2707
96.6941
98.1337
99.5709
100.965
102.262
103.326
103.951
38.6474
45.045
50.1203
55.3641
60.2119
64.3662
67.8161
70.6861
73.1037
75.1659
76.9469
78.4998
79.866
81.0871
82.1987
83.2415
84.2548
85.273
86.3201
87.416
88.5704
89.7851
91.0569
92.3787
93.7408
95.1317
96.5377
97.9391
99.2977
100.562
101.598
102.205
37.7017
43.8821
48.7447
53.8157
58.5881
62.7489
66.2442
69.1686
71.6381
73.7478
75.569
77.1545
78.5475
79.7835
80.9035
81.9453
82.9522
83.9574
84.991
86.0694
87.2025
88.3936
89.6393
90.9325
92.2631
93.6204
94.9915
96.359
97.6824
98.9134
99.9211
100.511
36.7091
42.6734
47.3127
52.1965
56.8845
61.0523
64.6029
67.6
70.1455
72.3208
74.1925
75.8156
77.2339
78.4934
79.6276
80.6781
81.6825
82.6826
83.7019
84.763
85.8771
87.0458
88.2665
89.5319
90.8333
92.1593
93.4981
94.8318
96.1199
97.3202
98.3001
98.8709
35.6593
41.3986
45.7987
50.4741
55.0681
59.2564
62.8905
65.9813
68.6063
70.8505
72.7823
74.4559
75.9213
77.2106
78.3673
79.428
80.4396
81.4366
82.4497
83.4999
84.5966
85.7447
86.9411
88.1794
89.4496
90.743
92.0468
93.3464
94.5992
95.7659
96.7182
97.2718
34.4856
40.0118
44.1655
48.6142
53.0965
57.2978
61.0215
64.2331
66.9849
69.3356
71.3483
73.0858
74.5926
75.923
77.1082
78.1932
79.2143
80.2173
81.2247
82.2626
83.3448
84.4734
85.6466
86.8577
88.099
89.3603
90.6319
91.8991
93.1159
94.2538
95.178
95.7124
33.2223
38.5367
42.4221
46.6084
50.9499
55.1698
59.0259
62.3952
65.2738
67.7342
69.846
71.6615
73.245
74.6255
75.8529
76.9612
78.0029
79.0111
80.0214
81.0569
82.1266
83.2377
84.3884
85.5732
86.7835
88.0112
89.2472
90.4793
91.6607
92.7642
93.6607
94.1776
31.7045
36.8185
40.4177
44.3089
48.4749
52.6884
56.6681
60.2406
63.3587
66.0151
68.2639
70.1926
71.8453
73.2946
74.5695
75.7235
76.7898
77.819
78.833
79.8607
80.921
82.0163
83.1458
84.3046
85.4855
86.6808
87.8843
89.0857
90.2298
91.3059
92.1737
92.6703
30.063
34.9914
38.2938
41.8394
45.759
49.9428
54.1205
57.963
61.283
64.1271
66.5608
68.6188
70.3984
71.9275
73.2745
74.47
75.5747
76.6193
77.6468
78.6838
79.7375
80.8188
81.9281
83.0606
84.2101
85.3701
86.5359
87.7008
88.8077
89.848
90.6863
91.1648
27.8723
32.6278
35.5914
38.7253
42.3483
46.453
50.7252
54.8875
58.7125
61.9588
64.6431
66.9207
68.8279
70.4789
71.9037
73.1761
74.3259
75.4136
76.4586
77.4928
78.5433
79.6131
80.7027
81.8103
82.9289
84.0551
85.188
86.3242
87.39
88.4039
89.2126
89.6702
25.3872
30.0596
32.7505
35.4303
38.5351
42.3949
47.0392
51.7114
55.8213
59.4354
62.5252
65.037
67.1697
68.952
70.4993
71.8389
73.0549
74.1706
75.2426
76.3024
77.3542
78.4142
79.4862
80.5661
81.6515
82.7379
83.8292
84.9249
85.9521
86.9259
87.7021
88.138
21.5599
26.2377
28.5192
30.6176
33.3604
37.0665
41.2643
46.3394
51.7528
56.2311
59.8005
62.8139
65.2189
67.2453
68.9301
70.4079
71.6977
72.8893
73.999
75.0621
76.1183
77.1717
78.2238
79.2797
80.3311
81.3813
82.4381
83.5092
84.4847
85.4362
86.18
86.5958
16.5186
21.5993
24.1845
25.8866
27.1093
29.6026
35.3279
41.325
46.5675
52.118
56.818
60.2782
63.1336
65.3893
67.2999
68.8786
70.2847
71.5254
72.6819
73.7942
74.8626
75.9112
76.9503
77.9738
78.9871
79.9872
80.9957
82.0188
82.9551
83.8567
84.5629
84.9499
6.91847
11.6276
12.5888
13.5473
13.5644
10.9893
15.1276
27.7352
39.6131
46.2904
51.8671
56.7731
60.2827
63.118
65.3015
67.167
68.6991
70.0692
71.2939
72.4171
73.5002
74.5479
75.5629
76.5639
77.5368
78.4977
79.4674
80.4717
81.338
82.2266
82.8926
83.2606
8.99435
11.7257
13.392
14.7006
15.7936
0.816011
8.32515
11.7936
18.538
37.4897
46.9719
52.5656
57.2779
60.5466
63.2157
65.229
66.9817
68.4452
69.7536
70.9669
72.0784
73.1292
74.1392
75.096
76.0207
76.9053
77.8187
78.7616
79.5861
80.4032
81.0278
81.3563
11.5437
15.8371
16.7277
16.1576
15.1125
15.1929
15.1342
13.0681
7.20434
16.237
34.956
46.2987
52.1043
56.9917
60.2577
62.9471
64.9373
66.6335
68.0632
69.2971
70.4407
71.4969
72.4709
73.4089
74.2793
75.1268
75.9851
76.9202
77.6456
78.4702
79.0342
79.3398
20.0113
24.46
26.3324
26.9966
26.225
24.0575
21.4188
17.5394
15.4589
20.3843
17.228
31.9148
46.5732
52.5347
57.154
60.0835
62.5652
64.4609
66.061
67.4697
68.6703
69.7448
70.7288
71.595
72.3942
73.0901
73.9007
74.7313
75.4156
76.1289
76.6434
76.9033
22.1602
27.1478
29.8501
31.8279
32.9613
33.0569
31.7705
28.7634
23.1276
17.4089
23.0497
29.4781
34.0681
46.2029
51.8959
56.6121
59.5496
61.9225
63.7464
65.1874
66.4577
67.5472
68.4701
69.3234
70.0399
70.7342
71.413
72.2724
72.8183
73.5603
73.9899
74.1975
22.9603
28.0536
30.9879
33.3527
35.1097
36.2388
36.6853
36.2573
34.3686
29.4269
23.7234
29.6146
17.3782
34.6803
46.4139
51.361
55.7015
58.5209
60.7506
62.5793
63.9619
65.1022
66.0597
66.7805
67.3563
67.6434
68.4104
68.9979
69.5211
70.1053
70.4215
70.6045
22.3581
27.5957
30.6992
33.3087
35.3864
36.9275
37.9388
38.4143
38.2439
36.8715
32.3807
26.7835
12.0723
15.186
32.1809
45.217
50.3711
54.4604
57.0986
58.9291
60.482
61.6577
62.5106
63.2148
63.656
64.1571
64.4295
64.8357
65.5961
66.1014
66.3918
66.4427
20.8522
26.2274
29.4262
32.1733
34.4448
36.2442
37.5995
38.5517
39.1262
39.2292
38.3188
34.6499
28.5941
20.6628
31.24
33.9899
43.2554
47.8931
51.7776
54.6913
56.4447
57.7436
58.6616
59.0923
59.1309
58.1591
59.3658
59.8292
59.5811
60.0641
59.8482
59.9925
18.8787
24.342
27.5645
30.358
32.7171
34.6611
36.223
37.4632
38.4587
39.2571
39.7488
39.3593
36.4021
26.4082
27.3126
28.3516
29.8056
41.1695
45.2184
47.4915
49.8512
51.2161
52.0781
52.3966
52.1908
53.2117
51.847
43.4341
53.7701
52.2723
53.061
53.3098
16.6475
22.0851
25.2285
27.963
30.3105
32.3123
34.0141
35.4732
36.7685
37.9723
39.0843
39.8839
39.5974
36.2183
29.2602
16.9559
5.10765
20.6741
33.2748
40.6265
42.9879
44.4905
45.2386
44.9735
43.2545
37.413
40.6476
55.1886
38.0757
40.3485
37.3084
36.9657
14.4085
19.6846
22.6466
25.2212
27.4627
29.434
31.1954
32.8088
34.3434
35.8676
37.3982
38.8252
39.7721
39.3068
34.6361
31.1351
10.1979
10.7573
15.9088
15.8041
24.0322
26.7783
31.0583
29.1695
24.7792
21.812
32.6503
78.9306
36.3155
8.73955
20.238
33.7297
12.448
17.4464
20.1546
22.4992
24.5663
26.4365
28.1799
29.8603
31.5381
33.2711
35.0918
36.9416
38.6039
39.592
38.7786
35.0566
25.6628
21.8304
28.9666
10.9485
25.8425
27.3472
35.5074
34.505
21.4847
31.7938
42.6401
91.6335
39.6219
17.2373
27.0779
38.4765
10.9406
15.5976
18.0383
20.1369
22.0074
23.7421
25.4144
27.0837
28.7994
30.6063
32.5455
34.6145
36.7078
38.5298
39.5157
38.8865
36.3126
29.2097
30.3605
22.8487
32.9383
22.869
36.0691
34.6693
29.6827
37.258
53.4569
128.13
44.6979
34.9653
31.1709
30.6373
9.82699
14.2451
16.459
18.3503
20.0536
21.6637
23.2479
24.8541
26.519
28.2787
30.1742
32.2415
34.4752
36.7413
38.6866
39.8207
39.8966
37.9728
33.8919
30.4307
30.6844
30.6747
27.5523
29.1469
30.9257
27.303
52.4665
135.451
48.2104
37.3279
41.284
38.8555
9.22046
13.4499
15.502
17.255
18.8513
20.3766
21.883
23.4025
24.96
26.5855
28.3194
30.2149
32.3216
34.6345
37.0012
39.0604
40.4072
40.5633
39.5242
38.4513
36.2111
35.6073
34.4057
38.2552
37.927
34.7977
33.6128
113.823
38.4453
40.9542
44.679
43.2386
9.01798
13.1553
15.1307
16.8262
18.3827
19.871
21.3251
22.7622
24.1984
25.6586
27.1818
28.8216
30.6437
32.7074
35.0096
37.3877
39.468
40.7427
41.0456
40.8739
40.3023
39.6807
39.2192
41.4507
40.6134
39.7673
34.3038
84.4293
40.1509
42.233
44.8854
43.8969
9.15218
13.2727
15.2414
16.9458
18.5164
20.0077
21.4375
22.8132
24.1461
25.4584
26.7839
28.1683
29.6707
31.3631
33.31
35.5046
37.763
39.6737
40.868
41.4046
41.4537
41.0475
40.7595
41.9799
41.3398
41.3495
38.6736
50.8668
41.1466
42.1919
43.8915
43.3207
9.53328
13.6888
15.6993
17.4593
19.0824
20.6071
22.0406
23.3841
24.6467
25.849
27.0207
28.1987
29.4284
30.7692
32.2927
34.058
36.0406
38.0316
39.6837
40.7827
41.3165
41.2532
41.0356
41.4406
40.8972
40.9995
39.4923
30.8603
40.4804
41.0722
42.1624
41.9698
10.1074
14.3287
16.4063
18.2451
19.9403
21.5162
22.9725
24.3083
25.5333
26.6682
27.7394
28.7759
29.8097
30.8823
32.0494
33.3749
34.9008
36.576
38.2016
39.5208
40.3495
40.5682
40.3799
40.2838
39.7413
39.746
38.7949
33.5441
39.2187
39.5608
40.3694
40.5039
10.8245
15.1394
17.2983
19.2259
20.9991
22.6319
24.1199
25.4634
26.6752
27.7776
28.7956
29.7512
30.6653
31.563
32.4801
33.4656
34.5697
35.8087
37.1103
38.303
39.1672
39.514
39.3692
39.0483
38.5227
38.407
37.7763
35.4578
38.0132
38.3119
39.0169
39.3814
11.6056
16.0778
18.328
20.3474
22.1985
23.8879
25.4107
26.771
27.9862
29.0814
30.0805
31.0011
31.8557
32.657
33.4239
34.1866
34.9838
35.8468
36.7644
37.6534
38.3501
38.6702
38.5489
38.1646
37.6762
37.48
37.0487
35.9268
37.2987
37.656
38.3403
38.8377
12.5242
17.1159
19.4587
21.5692
23.4952
25.2389
26.7973
28.1799
29.4095
30.5141
31.5171
32.4328
33.2681
34.0276
34.7192
35.3572
35.964
36.5653
37.1703
37.747
38.1989
38.3924
38.248
37.856
37.4051
37.1687
36.872
36.3522
37.2203
37.6635
38.3549
38.9152
13.1635
13.5539
14.0228
14.4065
14.7871
15.0977
15.3733
15.5924
15.7731
15.9066
16.0033
16.061
16.0839
16.0721
16.0301
15.9596
15.8628
15.7444
15.6155
15.5072
15.5186
15.6366
15.7704
15.8923
15.9922
16.0655
16.1103
16.1246
16.104
16.0485
15.9538
15.8222
15.6429
15.4253
15.1507
14.8415
14.4618
14.0792
13.6114
13.2217
17.868
18.2738
18.7627
19.1643
19.5626
19.8935
20.1914
20.4349
20.6412
20.8023
20.9271
21.014
21.0657
21.0814
21.0635
21.013
20.9307
20.8202
20.6916
20.5789
20.5923
20.7165
20.8505
20.9649
21.0505
21.1041
21.125
21.1119
21.0625
20.9779
20.855
20.6958
20.491
20.2489
19.9522
19.6227
19.2256
18.8255
18.338
17.9335
20.2809
20.7126
21.232
21.6596
22.0862
22.4467
22.7782
23.0585
23.3046
23.5085
23.6781
23.8113
23.9104
23.9729
23.9991
23.9889
23.9422
23.8611
23.7547
23.6555
23.6688
23.78
23.8925
23.978
24.0284
24.0421
24.0192
23.9596
23.8631
23.7324
23.565
23.3631
23.1186
22.8398
22.5096
22.1505
21.7252
21.2992
20.7812
20.3511
22.4477
22.9005
23.4443
23.8923
24.3433
24.7307
25.0936
25.409
25.6938
25.9401
26.1542
26.3336
26.4798
26.5896
26.6611
26.6929
26.6842
26.6362
26.558
26.4815
26.4934
26.5826
26.6676
26.7206
26.7336
26.7057
26.6378
26.5313
26.388
26.2115
25.9997
25.7555
25.4725
25.1587
24.7972
24.4112
23.9614
23.515
22.9727
22.5215
24.4124
24.8724
25.426
25.8818
26.3451
26.7479
27.1306
27.4701
27.7828
28.0614
28.3111
28.5285
28.7138
28.8627
28.9724
29.0402
29.0644
29.0461
28.9946
28.9408
28.9511
29.0179
29.0769
29.1007
29.0813
29.0177
28.9119
28.7666
28.5846
28.3703
28.123
27.8468
27.536
27.1981
26.8168
26.4155
25.9533
25.499
24.947
24.4885
26.1783
26.6297
27.1792
27.631
28.0953
28.5035
28.8968
29.2527
29.5874
29.8927
30.1725
30.4222
30.6406
30.8229
30.9654
31.0641
31.1166
31.1239
31.0952
31.0594
31.0686
31.1173
31.1539
31.1526
31.105
31.0108
30.8725
30.6939
30.4789
30.2324
29.9554
29.6526
29.3198
28.9656
28.5737
28.1669
27.7036
27.2533
26.7052
26.2553
27.7469
28.1782
28.7159
29.1577
29.6183
30.0288
30.4315
30.8037
31.159
31.4891
31.7962
32.0752
32.3235
32.5357
32.707
32.8326
32.9096
32.9382
32.9277
32.9046
32.9131
32.9488
32.9676
32.9451
32.8732
32.7522
32.5851
32.3768
32.1321
31.8564
31.552
31.2244
30.8711
30.5008
30.0993
29.6901
29.2305
28.7901
28.2536
27.8238
29.1336
29.5405
30.0654
30.4979
30.9563
31.3731
31.7874
32.1767
32.5525
32.9062
33.2387
33.5446
33.8197
34.0584
34.2548
34.4036
34.5011
34.547
34.5498
34.5352
34.5432
34.5704
34.5758
34.5361
34.4439
34.2997
34.1075
33.8729
33.6013
33.2987
32.9691
32.6177
32.2441
31.8565
31.4435
31.0279
30.5703
30.139
29.6151
29.2098
30.3661
30.7493
31.2646
31.6922
32.1538
32.5795
33.0067
33.4129
33.808
34.1835
34.5388
34.8681
35.1667
35.428
35.6456
35.8137
35.9275
35.9866
35.9989
35.9893
35.9972
36.0192
36.0151
35.9622
35.8536
35.6903
35.4769
35.2195
34.9246
34.5986
34.246
33.873
33.4799
33.0753
32.6494
32.2248
31.7639
31.3375
30.8231
30.4415
31.4737
31.8359
32.3453
32.7727
33.239
33.6745
34.114
34.5359
34.9482
35.3425
35.7174
36.0665
36.3846
36.6646
36.8996
37.0827
37.2092
37.2779
37.2965
37.2894
37.2974
37.3168
37.3063
37.2437
37.1224
36.9439
36.7132
36.4373
36.1228
35.7767
35.4046
35.0128
34.6024
34.1823
33.744
33.3095
32.8439
32.4175
31.9089
31.5486
32.4788
32.8212
33.3267
33.7549
34.2259
34.6705
35.121
35.5563
35.9833
36.3933
36.7844
37.1498
37.4836
37.7783
38.0267
38.2215
38.3574
38.433
38.4555
38.4497
38.4577
38.4759
38.4615
38.3919
38.2611
38.0709
37.8267
37.5359
37.2056
36.8434
36.4551
36.0474
35.6224
35.1887
34.7394
34.296
33.8256
33.3986
32.8941
32.5536
33.3918
33.7136
34.2149
34.6433
35.1186
35.5711
36.0311
36.4779
36.9171
37.3402
37.7444
38.1228
38.469
38.7753
39.0339
39.2375
39.3806
39.4614
39.4871
39.4824
39.4905
39.5075
39.4898
39.415
39.277
39.0779
38.8234
38.5209
38.1782
37.8029
37.4015
36.9807
36.5434
36.0982
35.6395
35.1882
34.7138
34.2869
33.787
33.4677
34.2161
34.5146
35.0098
35.4377
35.9165
36.376
36.8442
37.3011
37.7507
38.1847
38.5998
38.9886
39.3445
39.6597
39.9263
40.1368
40.2855
40.3711
40.4006
40.3983
40.4063
40.4209
40.3994
40.3197
40.1759
39.9699
39.7074
39.396
39.0435
38.6577
38.2454
37.8138
37.366
36.9109
36.4439
35.9859
35.5083
35.0823
34.589
34.2942
34.9512
35.2218
35.7086
36.1351
36.6169
37.0831
37.5593
38.0252
38.4842
38.9276
39.3516
39.7488
40.1125
40.4347
40.7074
40.9234
41.0774
41.168
41.2026
41.2046
41.2124
41.2224
41.1959
41.1113
40.9623
40.7506
40.482
40.1635
39.8032
39.4089
38.9876
38.5465
38.0895
37.6252
37.1506
36.6863
36.2062
35.7825
35.2987
35.0335
35.5969
35.8324
36.3076
36.7317
37.2163
37.6892
38.1734
38.6484
39.1162
39.5683
40.0002
40.4048
40.7748
41.1026
41.3804
41.6012
41.7601
41.8563
41.8975
41.9054
41.9128
41.9168
41.8837
41.7935
41.6396
41.4232
41.1493
40.8252
40.4584
40.0569
39.6275
39.1778
38.712
38.239
37.7567
37.286
36.804
36.3839
35.9133
35.6862
36.1564
36.3438
36.8027
37.2227
37.71
38.1901
38.6827
39.1672
39.6441
40.1048
40.5442
40.9554
41.3311
41.6639
41.946
42.1713
42.3352
42.4376
42.4862
42.5005
42.5074
42.5047
42.4644
42.3681
42.2092
41.9884
41.7101
41.3809
41.0084
40.6001
40.1631
39.7049
39.23
38.7478
38.2573
37.7804
37.2967
36.8826
36.4311
36.2561
36.6363
36.7545
37.1869
37.6018
38.0908
38.5789
39.0808
39.5757
40.0624
40.5319
40.9792
41.3969
41.7781
42.1154
42.402
42.6314
42.8005
42.9092
42.9653
42.9856
42.9921
42.9831
42.9353
42.8328
42.669
42.4437
42.1611
41.8272
41.449
41.0341
40.5892
40.1221
39.6377
39.1453
38.6463
38.1623
37.6785
37.2724
36.8515
36.752
37.0501
37.0683
37.456
37.8605
38.3505
38.8467
39.3588
39.8648
40.3622
40.8416
41.2972
41.7219
42.1089
42.451
42.7418
42.9757
43.1498
43.2647
43.3276
43.3532
43.3594
43.3448
43.2901
43.1815
43.0126
42.783
42.4959
42.1571
41.773
41.351
40.8978
40.4208
39.9259
39.4226
38.9142
38.4232
37.9409
37.5492
37.1784
37.1871
37.4098
37.2915
37.6094
37.9915
38.4797
38.9834
39.5061
40.0243
40.5333
41.0233
41.4881
41.9206
42.3139
42.6613
42.9567
43.1952
43.3741
43.4947
43.5638
43.5937
43.5996
43.5804
43.5197
43.4053
43.2315
42.9973
42.7055
42.3612
41.9707
41.5407
41.0782
40.5905
40.0839
39.5689
39.0505
38.5535
38.0753
37.7102
37.4156
37.571
37.7165
37.4282
37.6479
37.9902
38.4684
38.98
39.5132
40.0443
40.5656
41.0671
41.542
41.9829
42.3831
42.7363
43.0367
43.2799
43.4636
43.5894
43.6635
43.697
43.7028
43.6798
43.6139
43.4945
43.3158
43.0768
42.7798
42.4296
42.0319
41.5933
41.1206
40.6212
40.1023
39.5745
39.0459
38.5419
38.0754
37.7531
37.5615
37.8945
37.9491
37.4769
37.5787
37.8644
38.3215
38.8358
39.3785
39.9216
40.4551
40.9681
41.4531
41.9027
42.3103
42.6695
42.9749
43.2226
43.4108
43.5411
43.6194
43.6556
43.6613
43.6354
43.5654
43.4416
43.2584
43.0146
42.7124
42.356
41.9507
41.5032
41.02
40.5088
39.9773
39.4368
38.8979
38.3903
37.9435
37.6758
37.5995
38.1114
38.0568
37.4186
37.4037
37.6251
38.0525
38.5623
39.1125
39.6653
40.2094
40.7324
41.2266
41.684
42.0981
42.4627
42.7726
43.0243
43.216
43.3495
43.4306
43.4688
43.4746
43.4468
43.374
43.2469
43.0601
42.8124
42.5055
42.1434
41.7313
41.2755
40.7827
40.2609
39.718
39.1665
38.6174
38.1105
37.6875
37.4737
37.4972
38.1467
37.9615
37.2196
37.1238
37.2926
37.6916
38.1924
38.7452
39.3044
39.8552
40.385
40.8851
41.3477
41.7659
42.1339
42.4465
42.7002
42.8936
43.0285
43.1109
43.1499
43.1557
43.1274
43.0536
42.9251
42.7365
42.4865
42.1767
41.8109
41.3942
40.9326
40.433
39.9032
39.3517
38.7905
38.2353
37.7314
37.3274
37.1511
37.2309
37.9461
37.6764
36.8987
36.7695
36.9089
37.2878
37.7782
38.3282
38.8892
39.4416
39.9729
40.4741
40.9373
41.3556
41.7232
42.0349
42.2874
42.4795
42.6131
42.6941
42.7325
42.7386
42.7113
42.6389
42.5118
42.3245
42.0754
41.7661
41.4003
40.9828
40.5198
40.0181
39.485
38.9294
38.3626
37.8046
37.3036
36.9086
36.7456
36.8366
37.5563
37.2909
36.5327
36.4111
36.5446
36.9141
37.3949
37.9376
38.4933
39.0402
39.5662
40.062
40.5196
40.9324
41.2943
41.6005
41.8476
42.0342
42.1624
42.2389
42.2747
42.2812
42.2571
42.1894
42.0676
41.8854
41.6414
41.3372
40.9761
40.5634
40.1048
39.6069
39.0773
38.5248
37.9602
37.4061
36.9109
36.5216
36.3611
36.4418
37.141
36.9554
36.2446
36.1497
36.2891
36.6538
37.1239
37.654
38.197
38.7316
39.2453
39.7292
40.1753
40.5767
40.9277
41.2233
41.4602
41.6368
41.7555
41.8236
41.8542
41.8615
41.8432
41.7841
41.6714
41.4987
41.2644
40.9699
40.619
40.2164
39.7679
39.2803
38.7608
38.2185
37.6647
37.1223
36.6391
36.2603
36.108
36.1904
36.8934
36.8697
36.1877
36.1065
36.2431
36.5954
37.047
37.5559
38.0771
38.5917
39.0867
39.5526
39.9814
40.3665
40.7018
40.9826
41.2051
41.3681
41.4734
41.5293
41.5519
41.5601
41.5512
41.5046
41.4053
41.2462
41.0259
40.746
40.4101
40.023
39.5902
39.1185
38.6151
38.0889
37.5515
37.0234
36.5498
36.1719
36.0058
36.0542
36.6905
36.9867
36.3431
36.2802
36.4174
36.7582
37.1901
37.6746
38.1698
38.6605
39.1327
39.5768
39.9852
40.3505
40.6674
40.9306
41.1368
41.2839
41.3737
41.4144
41.426
41.4356
41.439
41.4078
41.3242
41.1813
40.9779
40.7158
40.3986
40.0311
39.6189
39.1682
38.6864
38.182
37.6669
37.1567
36.691
36.3033
36.0967
36.0536
36.5064
37.3072
36.7139
36.6743
36.8101
37.1356
37.5426
37.9981
38.4655
38.9296
39.3769
39.7976
40.1837
40.5283
40.8259
41.0715
41.2611
41.3928
41.4675
41.493
41.4924
41.5037
41.5212
41.5062
41.4391
41.313
41.1273
40.8843
40.5873
40.2411
39.8512
39.4237
38.9664
38.4879
38.0015
37.5205
37.0845
36.7281
36.5601
36.5743
37.1409
37.8346
37.2469
37.2045
37.3256
37.6304
38.0114
38.4392
38.8814
39.3222
39.7476
40.1476
40.5144
40.8411
41.122
41.3523
41.5283
41.6473
41.7098
41.723
41.7112
41.7244
41.7556
41.7558
41.7042
41.5947
41.427
41.2034
40.9278
40.6045
40.239
39.8375
39.4075
38.9576
38.501
38.0513
37.6418
37.3017
37.1371
37.1304
37.6605
38.2872
37.687
37.6376
37.7521
38.0487
38.4195
38.8365
39.2683
39.6985
40.1133
40.5029
40.8593
41.1759
41.4474
41.6689
41.8368
41.9487
42.0047
42.0112
41.9931
42.0088
42.0507
42.0626
42.0232
41.9271
41.7743
41.5672
41.3093
41.0056
40.661
40.282
39.8763
39.453
39.0256
38.6086
38.233
37.9243
37.789
37.8032
38.3522
38.6549
38.0762
38.0406
38.1552
38.4458
38.805
39.2093
39.6271
40.0434
40.4444
40.8207
41.1646
41.4695
41.7302
41.942
42.1013
42.2056
42.255
42.2553
42.231
42.2438
42.2886
42.3052
42.2716
42.1823
42.0375
41.8397
41.5923
41.3003
40.969
40.605
40.2163
39.8126
39.4083
39.019
38.6777
38.4046
38.3064
38.3497
38.9257
43.5714
51.3959
57.6299
63.7597
69.0496
73.339
76.7749
79.5514
81.8241
83.7282
85.3835
86.8656
88.2121
89.4568
90.6308
91.7647
92.8887
94.0314
95.2159
96.4598
97.7724
99.156
100.608
102.12
103.683
105.285
106.909
108.532
110.116
111.591
112.81
113.527
42.8703
50.4078
56.4409
62.4289
67.6439
71.8971
75.314
78.0819
80.3543
82.2646
83.928
85.4136
86.7518
87.9829
89.139
90.2513
91.3517
92.4691
93.6281
94.8446
96.1282
97.4816
98.9013
100.381
101.909
103.475
105.061
106.646
108.192
109.632
110.821
111.519
42.0747
49.3668
55.2143
61.0644
66.2075
70.4304
73.8369
76.6061
78.8893
80.8158
82.4932
83.984
85.3177
86.5374
87.6767
88.7696
89.8483
90.9422
92.075
93.2646
94.5202
95.8439
97.2326
98.6787
100.173
101.703
103.252
104.799
106.308
107.712
108.87
109.55
41.2782
48.3324
53.9911
59.6959
64.763
68.9559
72.3549
75.131
77.4327
79.3832
81.0793
82.5786
83.9143
85.1256
86.2524
87.3277
88.3857
89.4568
90.5666
91.7309
92.959
94.2539
95.612
97.026
98.4863
99.9803
101.492
103.003
104.474
105.842
106.972
107.632
40.4052
47.2398
52.7117
58.2713
63.2676
67.4429
70.851
73.6506
75.9842
77.9666
79.6867
81.1992
82.5398
83.7473
84.863
85.924
86.9648
88.0167
89.103
90.2426
91.4454
92.7125
94.0412
95.4241
96.8517
98.3112
99.7878
101.261
102.697
104.031
105.131
105.773
39.5546
46.1651
51.4402
56.8444
61.7657
65.9249
69.3447
72.1694
74.537
76.5547
78.3024
79.8329
81.1854
82.3979
83.5099
84.5596
85.5847
86.6172
87.6846
88.8028
89.9805
91.2214
92.5217
93.8743
95.2693
96.6946
98.136
99.5735
100.973
102.272
103.345
103.968
38.6139
45.0121
50.0865
55.3304
60.18
64.338
67.7926
70.6668
73.0868
75.1498
76.932
78.4868
79.8544
81.0748
82.1851
83.2289
84.2435
85.263
86.3108
87.407
88.5626
89.7784
91.0516
92.375
93.739
95.1317
96.539
97.9417
99.3063
100.573
101.617
102.222
37.7031
43.8799
48.7407
53.8106
58.5821
62.7406
66.2321
69.1526
71.6205
73.7306
75.5522
77.137
78.5295
79.7678
80.8914
81.9339
82.9408
83.946
84.9801
86.06
87.1938
88.386
89.6331
90.9278
92.2609
93.6209
94.9937
96.3607
97.6904
98.9243
99.9426
100.529
36.6674
42.6305
47.2669
52.1488
56.8376
61.0098
64.5681
67.5738
70.1247
72.3017
74.1748
75.8007
77.2218
78.4807
79.6121
80.6631
81.6691
82.6711
83.6914
84.7526
85.8679
87.038
88.2601
89.5276
90.8311
92.1593
93.4994
94.8331
96.1288
97.3315
98.3219
98.8902
35.6545
41.3915
45.7914
50.4675
55.0625
59.2497
62.8784
65.9617
68.5826
70.8274
72.7605
74.4335
75.8971
77.189
78.3514
79.414
80.4262
81.4232
82.4369
83.4888
84.5864
85.7356
86.9337
88.1737
89.4469
90.743
92.0485
93.3464
94.6071
95.7775
96.7424
97.291
34.437
39.9601
44.1081
48.5513
53.0311
57.2359
60.971
64.1976
66.9598
69.3137
71.328
73.0688
74.5805
75.911
77.0921
78.1766
79.1986
80.2036
81.2124
82.2503
83.3338
84.4639
85.6387
86.8524
88.0962
89.3607
90.6332
91.8974
93.1256
94.265
95.2034
95.7336
33.2008
38.5139
42.4001
46.5901
50.937
55.1594
59.0088
62.3658
65.2378
67.7005
69.8149
71.631
73.212
74.595
75.8295
76.9418
77.986
78.9951
80.0057
81.0433
82.1143
83.2268
84.3795
85.5664
86.7802
88.0112
89.2485
90.4772
91.6691
92.7758
93.6889
94.1983
31.6496
36.7592
40.3501
44.2299
48.3847
52.5965
56.5941
60.195
63.3309
65.9905
68.2427
70.1747
71.8335
73.2839
74.5553
75.7075
76.7725
77.8027
78.8184
79.8462
80.9074
82.0044
83.1359
84.2977
85.4822
86.6818
87.8856
89.0802
90.2394
91.3171
92.204
92.6939
30.0091
34.9362
38.2389
41.7929
45.7323
49.9322
54.0952
57.9081
61.218
64.0723
66.5094
68.5717
70.3527
71.8855
73.2386
74.4399
75.5514
76.5993
77.6275
78.6669
79.7226
80.8054
81.9169
83.0522
84.2061
85.3709
86.5376
87.6961
88.8173
89.8595
90.7203
91.1884
27.8032
32.5555
35.5099
38.6177
42.1909
46.2587
50.5795
54.8238
58.6875
61.9326
64.6288
66.9095
68.817
70.4681
71.8943
73.1647
74.3087
75.3944
76.4411
77.4754
78.5263
79.5979
80.6901
81.8009
82.925
84.0575
85.1901
86.3127
87.3993
88.4147
89.2505
89.696
25.2706
29.9454
32.6321
35.341
38.5519
42.5226
47.0743
51.6063
55.6832
59.3329
62.4206
64.9469
67.1007
68.8961
70.4439
71.7913
73.0209
74.1444
75.2183
76.2809
77.3356
78.3973
79.4713
80.5552
81.6467
82.7407
83.8319
84.916
85.9635
86.9364
87.7448
88.1661
21.478
26.1434
28.4224
30.4256
32.855
36.2218
40.7148
46.2025
51.7393
56.2013
59.8261
62.8399
65.2187
67.2313
68.9307
70.406
71.6821
72.8673
73.9778
75.0408
76.0966
77.1518
78.2082
79.2672
80.3271
81.3872
82.4424
83.4881
84.4946
85.4472
86.229
86.6237
16.3396
21.4556
23.9539
25.7585
27.4963
30.7902
35.9303
41.1465
46.2422
51.9102
56.5512
60.0611
63.0034
65.3133
67.2104
68.8026
70.2357
71.4906
72.6503
73.7662
74.8387
75.889
76.9287
77.9584
78.9812
79.9954
81.0007
82.0013
82.9687
83.8642
84.6201
84.9841
7.18178
10.6734
10.8878
10.8071
11.267
10.4554
14.3421
26.2305
39.2918
46.1121
52.0305
56.9264
60.3355
63.0976
65.3264
67.1833
68.6851
70.0426
71.2681
72.3911
73.4721
74.5217
75.5445
76.5473
77.5339
78.5114
79.4775
80.441
81.3491
82.2357
82.959
83.2923
8.90481
11.0075
10.3779
9.84988
10.9151
18.7553
21.5441
23.4886
20.6037
37.5012
46.2579
52.0327
56.9861
60.4366
63.0594
65.1057
66.9128
68.3991
69.7102
70.9289
72.0468
73.0978
74.1051
75.0724
76.013
76.9295
77.8297
78.7252
79.6041
80.4089
81.1076
81.3983
12.0798
16.7416
17.8588
17.1337
15.5336
14.7492
13.5888
12.1695
20.8692
13.2694
34.9823
46.4064
52.2513
56.935
60.3296
62.9944
64.921
66.5973
68.0351
69.2653
70.4027
71.4614
72.4499
73.385
74.2794
75.1549
76.0088
76.8875
77.6552
78.4684
79.1356
79.3787
19.1059
23.6157
25.5503
26.4087
26.2163
26.0593
23.1231
13.8577
21.6796
21.7934
15.3962
33.6202
46.3765
52.4482
56.8908
59.8891
62.4737
64.4012
65.9912
67.4151
68.6283
69.6973
70.6714
71.556
72.3857
73.168
73.9242
74.666
75.4464
76.1401
76.7618
76.9519
22.2081
27.1905
29.8842
31.8279
32.8569
32.7593
32.2404
30.3411
25.2621
19.49
8.8244
20.5905
31.3282
45.548
51.9387
56.6988
59.5134
61.8603
63.7304
65.1521
66.4017
67.4937
68.4415
69.28
70.0394
70.7764
71.4695
72.2736
72.8029
73.5269
74.1662
74.2519
23.0286
28.131
31.0716
33.4391
35.203
36.3608
36.9038
36.6662
35.172
30.8782
28.0123
30.3923
30.8846
35.2452
46.365
51.1241
55.6066
58.4566
60.6145
62.4891
63.9078
65.023
65.9591
66.7061
67.3607
67.9267
68.451
68.9297
69.5934
70.144
70.6334
70.6503
22.4793
27.7113
30.8085
33.4027
35.4566
36.9679
37.9515
38.3968
38.1731
36.7119
32.1265
31.1372
31.5863
19.2816
32.1844
45.5952
50.2912
54.287
57.1526
58.9161
60.3874
61.557
62.4402
63.0969
63.6084
64.1497
64.5697
65.3552
65.4248
66.0322
66.7399
66.5178
20.9453
26.3113
29.4971
32.2203
34.4555
36.2045
37.4923
38.3589
38.83
38.8054
37.6605
33.5482
29.1264
22.0232
23.6472
32.0193
43.3597
48.0634
51.482
54.4945
56.3933
57.585
58.4633
58.8988
59.217
59.3413
59.4311
59.3441
59.9069
60.2682
60.4134
59.946
18.9345
24.3875
27.5935
30.3588
32.6765
34.5629
36.0492
37.1955
38.082
38.7643
39.1252
38.4306
34.6804
30.6596
26.9352
23.6062
29.7511
39.7356
45.483
47.7567
49.605
50.9268
51.6488
51.7695
51.6177
52.213
52.1692
53.0418
52.713
52.9504
53.72
53.1788
16.6759
22.1078
25.2383
27.9496
30.2623
32.2156
33.8547
35.2398
36.4572
37.5909
38.6534
39.4202
39.0049
35.1325
27.9619
28.4333
32.8055
28.6953
33.936
39.6841
43.0497
44.1157
45.0379
44.2572
43.8961
42.0189
42.138
40.47
40.5796
41.0718
41.0196
36.1594
14.4272
19.701
22.6546
25.2129
27.4286
29.3631
31.0769
32.6358
34.1183
35.6082
37.1387
38.6115
39.6511
39.1932
35.3973
26.677
32.3063
24.8787
12.2218
22.0325
24.1353
25.9316
25.5989
19.6471
12.6785
30.0014
44.9301
27.4408
43.6855
44.658
23.4889
27.4116
12.4574
17.456
20.1602
22.4955
24.5463
26.3917
28.1017
29.7428
31.382
33.0893
34.9128
36.8097
38.5677
39.6813
39.2868
34.9475
26.648
24.4517
16.0159
30.8647
13.3358
16.171
16.6726
19.8107
31.6557
36.4751
36.887
21.8535
43.587
44.0691
29.8893
32.6032
10.9404
15.5972
18.0359
20.1291
21.9892
23.7075
25.3576
27.0002
28.6877
30.4708
32.3991
34.4805
36.6189
38.515
39.6505
39.133
35.9298
29.0234
25.5782
26.8613
25.779
32.1842
29.4192
21.7806
22.5956
37.4022
28.5968
27.5627
34.5616
34.6347
38.5335
31.0778
9.81261
14.2294
16.4415
18.3285
20.0242
21.6233
23.1934
24.7827
26.429
28.1692
30.0468
32.1014
34.3305
36.6022
38.5792
39.7205
39.6425
37.8267
32.9913
29.404
26.8338
36.765
29.0019
33.8803
37.0464
35.0052
39.3273
37.1943
35.9327
37.9712
36.6848
41.5556
9.19321
13.4185
15.4675
17.2157
18.8055
20.323
21.8208
23.3308
24.8775
26.4899
28.2077
30.0832
32.1646
34.4464
36.7842
38.8231
40.1417
40.3741
38.9287
37.9735
36.8864
36.0089
37.6969
41.7396
43.1943
41.5835
44.3122
42.583
41.9668
42.9724
41.2435
44.973
8.97987
13.1109
15.0817
16.7719
18.3227
19.8056
21.2548
22.6872
24.1179
25.5708
27.0833
28.7071
30.5044
32.5314
34.7878
37.1261
39.2075
40.5468
40.7366
40.8019
40.5704
40.3305
41.3155
43.2482
43.9712
42.9094
44.5803
43.4904
42.9075
43.5317
42.8297
45.3022
9.10701
13.2198
15.183
16.8819
18.4476
19.9352
21.3623
22.7359
24.0665
25.375
26.6943
28.0683
29.5536
31.2183
33.126
35.2783
37.5227
39.4702
40.6628
41.3627
41.6006
41.7563
42.2557
43.1886
43.4692