/*--------------------------------*- C++ -*----------------------------------*\
  =========                 |
  \\      /  F ield         | OpenFOAM: The Open Source CFD Toolbox
   \\    /   O peration     | Website:  https://openfoam.org
    \\  /    A nd           | Version:  6
     \\/     M anipulation  |
\*---------------------------------------------------------------------------*/
FoamFile
{
    version     2.0;
    format      ascii;
    class       volScalarField;
    location    "31";
    object      yPlus;
}
// * * * * * * * * * * * * * * * * * * * * * * * * * * * * * * * * * * * * * //

dimensions      [0 0 0 0 0 0 0];

internalField   uniform 0;

boundaryField
{
    inlet
    {
        type            calculated;
        value           uniform 0;
    }
    outlet
    {
        type            calculated;
        value           uniform 0;
    }
    roughCylinder
    {
        type            calculated;
        value           nonuniform List<scalar> 
5120
(
5.6408
24.7578
36.3938
40.3705
43.5298
44.885
45.7452
45.9568
46.1918
46.3381
46.5967
46.6675
46.4436
46.1631
45.9115
45.507
45.1022
45.3852
44.275
43.3997
43.4001
44.1797
44.2173
45.4474
42.8475
43.4982
43.2648
41.9963
41.5655
41.3173
40.751
40.5001
11.6532
24.1656
36.0018
40.156
43.3438
44.7895
45.7145
45.9457
46.155
46.3252
46.6593
46.7711
46.6447
46.4188
46.1913
45.825
45.5807
45.7692
44.5567
43.7437
43.8465
44.3982
44.5243
45.6234
43.1276
43.8316
43.6372
42.54
42.1563
42.0053
41.5009
41.2849
11.4954
24.331
35.6241
39.983
43.2457
44.8088
45.7813
46.0752
46.3875
46.5904
46.8105
46.8443
46.6745
46.4488
46.2195
45.9809
45.8738
45.9359
44.7063
44.0805
44.3378
44.8025
45.085
46.0374
43.7055
44.366
44.1718
43.097
42.6335
42.5054
42.0027
41.801
17.5203
23.3252
35.0932
39.7183
43.0683
44.7482
45.8143
46.1865
46.4796
46.639
46.9095
47.0114
46.9561
46.8113
46.6557
46.4533
46.3791
46.2962
45.1062
44.6143
44.8553
45.089
45.4696
46.2349
44.1123
44.7831
44.6434
43.7228
43.3181
43.2641
42.8232
42.6505
7.55509
23.3001
34.5699
39.4565
42.9343
44.7737
45.916
46.3466
46.7277
46.9644
47.1599
47.1939
47.1004
46.9441
46.801
46.7095
46.6777
46.4668
45.388
45.1034
45.3978
45.5587
46.083
46.6577
44.7971
45.3679
45.2403
44.3371
43.8753
43.8279
43.3921
43.2296
14.1777
22.2547
33.8106
39.0274
42.6587
44.6368
45.8861
46.4504
46.8645
47.0418
47.2773
47.396
47.4184
47.3542
47.3073
47.2367
47.1696
46.8488
45.8973
45.7335
45.9495
45.8998
46.5062
46.886
45.3078
45.8467
45.7796
45.0218
44.6391
44.6346
44.2618
44.1219
12.7561
21.9546
33.047
38.5432
42.3561
44.544
45.9247
46.5698
47.0544
47.3633
47.5912
47.6571
47.6311
47.5447
47.5031
47.5196
47.4697
47.0736
46.2813
46.2782
46.5222
46.4294
47.1283
47.3394
46.0635
46.4607
46.4058
45.6632
45.2487
45.2346
44.8709
44.7377
12.5057
20.7725
31.9715
37.8184
41.8663
44.2401
45.7455
46.5654
47.1679
47.4411
47.7
47.8573
47.9489
47.9702
48.0389
48.0731
47.9703
47.5194
46.8619
46.9256
47.0898
46.8197
47.5438
47.6228
46.6326
46.9782
46.9863
46.3892
46.0686
46.0723
45.7718
45.6571
15.5206
20.487
30.8578
36.9649
41.2564
43.9158
45.646
46.6103
47.2703
47.714
48.0367
48.1695
48.2127
48.2032
48.2613
48.3611
48.285
47.8158
47.3028
47.4711
47.6799
47.4145
48.1492
48.1355
47.4169
47.6095
47.6229
47.0366
46.7047
46.6873
46.3983
46.2883
17.3533
19.4499
29.4299
35.8181
40.4393
43.3719
45.2713
46.4311
47.3024
47.7588
48.1032
48.3308
48.5037
48.6229
48.8017
48.9234
48.8013
48.3223
47.9125
48.0997
48.2403
47.8459
48.5343
48.4836
47.9856
48.1393
48.2125
47.7728
47.5407
47.5273
47.3008
47.208
22.0853
19.3734
27.9032
34.4468
39.3574
42.6832
44.9414
46.363
47.2945
47.9364
48.4109
48.6584
48.7966
48.877
49.0207
49.1802
49.1008
48.6499
48.3536
48.6086
48.8094
48.481
49.1088
49.0483
48.7424
48.7636
48.8272
48.3884
48.157
48.1182
47.9038
47.8153
25.3162
19.344
26.2228
32.7808
38.0697
41.784
44.2944
45.9242
47.1618
47.889
48.384
48.725
49.008
49.2397
49.5185
49.7115
49.6012
49.1718
48.9452
49.1878
49.3164
48.9104
49.4475
49.4273
49.2444
49.2652
49.3815
49.0886
48.9573
48.9201
48.7661
48.6951
29.7837
20.0942
24.4736
30.7398
36.2487
40.4804
43.5391
45.6308
46.9806
47.9059
48.5925
49.0073
49.2754
49.4595
49.6759
49.8767
49.8255
49.4637
49.3289
49.6206
49.8144
49.5333
49.9785
49.9982
49.9187
49.8414
49.9251
49.6165
49.4884
49.4269
49.2821
49.2164
32.6028
21.3297
22.8877
28.5318
34.2852
38.977
42.4122
44.7427
46.5188
47.6534
48.4001
48.9051
49.3185
49.6713
50.0485
50.3103
50.255
49.9356
49.8476
50.1052
50.2077
49.885
50.2368
50.3251
50.276
50.2446
50.3734
50.2073
50.1806
50.131
50.0457
50.0007
35.1727
22.8208
21.3813
25.6341
31.25
36.5181
40.7793
43.9292
45.982
47.3809
48.4027
49.0721
49.5124
49.8123
50.0846
50.3086
50.3149
50.0994
50.0958
50.3955
50.5695
50.4103
50.6974
50.833
50.8296
50.736
50.8125
50.6138
50.5881
50.5157
50.4326
50.3931
35.982
24.4065
20.3173
23.0162
28.2879
33.8719
38.6573
42.1247
44.8268
46.6614
47.8878
48.6978
49.311
49.8001
50.2764
50.6112
50.6509
50.4709
50.4921
50.7473
50.8197
50.6425
50.8573
51.0415
51.0091
50.9998
51.1246
51.0657
51.1436
51.0959
51.0684
51.0504
35.1562
25.554
19.3794
18.7913
23.1134
28.929
34.8725
40.0052
43.4435
45.7898
47.4442
48.5814
49.3223
49.7983
50.1493
50.4142
50.5061
50.4622
50.5762
50.8756
51.0331
51.0318
51.2296
51.4242
51.4122
51.3423
51.3786
51.2568
51.3237
51.2546
51.2196
51.2053
33.0709
25.9207
18.5644
15.8284
17.4301
23.54
30.4727
35.8295
40.5811
43.9555
46.2265
47.6683
48.6907
49.4278
50.0658
50.5094
50.6898
50.6852
50.8093
51.0345
51.0657
51.0351
51.1767
51.3451
51.2725
51.3182
51.4279
51.454
51.6285
51.5979
51.6136
51.6227
30.2872
25.5885
17.3567
13.5983
8.56911
2.50474
14.7565
28.9276
36.7558
41.6093
44.7687
46.9171
48.2516
49.0949
49.6129
49.9666
50.1831
50.3352
50.5678
50.8495
50.9981
51.1509
51.3446
51.4511
51.4147
51.3607
51.3001
51.1799
51.2926
51.2061
51.1813
51.1781
27.2268
24.3504
15.2314
8.29298
11.692
4.518
4.75453
8.56744
26.3545
36.4572
41.8831
44.8331
46.7638
48.0001
48.9757
49.6442
50.0475
50.2677
50.4958
50.6333
50.5908
50.6416
50.7363
50.6185
50.4517
50.5161
50.6019
50.6667
50.9143
50.8882
50.9089
50.9317
24.2491
23.0974
13.3643
12.4662
7.21817
6.13799
4.21167
3.11244
13.3378
29.2748
37.7896
42.694
45.2995
46.9019
47.7534
48.2887
48.6755
49.0372
49.3947
49.6322
49.7573
50.0195
50.2463
49.9764
49.8964
49.7475
49.4016
49.0723
49.0502
48.8051
48.659
48.6074
20.5707
21.5534
11.7499
7.89116
9.27732
12.6109
12.2378
12.4614
13.0989
8.84273
31.4751
37.8531
41.8043
44.0274
45.7292
46.8679
47.6528
48.2017
48.5436
48.3868
48.1146
48.0489
47.9217
46.8505
46.3149
46.1721
46.2016
46.21
46.3996
46.2632
46.1435
46.0899
15.9885
20.0059
11.4427
7.29768
12.7475
8.12442
6.0066
9.90104
6.99021
12.0156
24.7242
33.2079
37.8307
40.8721
42.2686
43.0945
43.6717
44.2505
44.6402
44.7915
44.8024
45.027
45.1772
43.8704
43.5379
42.7207
40.7455
38.5427
36.677
34.4264
32.4098
31.4074
11.1999
17.5754
8.61311
12.0462
6.15665
5.14214
9.56112
8.25453
9.38045
5.31379
15.4742
12.7791
22.6725
28.776
33.7791
36.9482
39.2794
40.4727
41.3709
39.7312
37.9238
36.0836
33.238
25.6095
17.9075
7.43372
21.4345
21.0275
20.9554
20.4389
11.9348
20.3325
14.5257
15.4491
10.8084
4.78288
11.9387
16.3147
17.3231
14.4337
9.57094
8.3467
14.4937
14.7629
15.5345
11.6265
7.37984
10.848
20.0139
16.0472
20.3729
5.81815
20.2047
19.4488
4.79061
19.0882
17.4484
16.4028
16.7633
4.51756
10.5185
8.26684
12.5174
14.3384
9.19437
11.2232
10.8023
6.9445
11.3187
20.3469
25.8474
28.0973
28.0458
24.4702
16.2835
16.7272
16.9176
3.44005
14.1139
17.1641
11.1811
11.4621
3.34981
10.3799
11.7392
16.9071
14.7958
13.7792
19.6671
2.74534
9.5445
16.7678
14.3138
16.9283
18.8257
19.4012
1.93234
11.2885
12.0721
11.7692
9.4076
14.5999
22.6071
27.7297
29.7331
30.6061
30.6682
27.053
22.4096
22.4145
22.1847
20.6509
17.3952
12.2022
15.1622
6.13394
10.4424
13.7665
17.2033
19.4997
22.9813
25.8756
27.33
27.4133
29.0827
29.0881
28.6673
28.4834
5.22116
11.8699
14.798
16.4144
15.3148
15.1456
19.1905
24.6953
28.9203
31.2796
31.3575
29.4611
27.2913
27.0516
28.6739
29.6046
29.6013
30.2365
28.3224
28.889
28.68
29.2533
29.7358
30.3192
30.8523
30.1385
30.0557
29.7385
29.0972
28.7251
28.3737
28.0754
5.18183
11.8798
16.0031
19.7018
21.4507
21.2913
21.9981
24.7458
28.3054
31.2897
32.5087
30.5794
26.2867
25.1404
26.8937
27.8971
28.6736
29.1287
30.0694
30.0471
29.946
29.8534
30.0977
30.4573
30.9268
30.5145
30.2436
29.7457
28.9867
27.9255
26.5059
25.5798
2.44373
7.1224
11.4142
16.9524
21.187
23.3315
24.3375
25.7374
27.6608
29.244
28.5179
23.7797
15.4556
10.7728
16.2567
20.531
24.091
27.8528
29.5996
30.3295
30.3584
30.3938
30.1183
29.6189
29.0604
27.4808
26.4056
25.1257
23.621
21.8067
20.0287
19.0074
1.23461
5.18666
6.05306
10.9803
16.1127
19.6907
21.8972
23.3191
24.0879
23.7796
20.8191
14.3742
8.05131
4.16794
9.62077
7.51638
9.68512
16.5242
21.7049
24.4948
25.6423
25.9661
25.7441
25.0815
24.4272
23.7008
23.3441
22.8517
22.1604
21.4712
20.869
20.5878
1.719
5.82298
7.08864
6.36942
9.93834
11.8538
13.468
14.8378
14.2802
12.8614
12.3807
10.3262
5.91594
13.2678
16.6188
20.4174
22.7986
22.501
22.4668
23.1765
23.9753
24.4954
24.6519
24.657
24.4197
23.8189
23.2646
22.5074
21.6608
20.7086
19.8824
19.4288
2.93812
10.0939
10.9922
12.0853
12.138
11.099
7.50607
8.75335
4.41977
9.36235
3.25679
7.4627
12.075
13.8601
13.4526
12.0245
14.2825
19.1727
22.1093
23.5097
24.074
24.1567
23.8089
23.1471
22.4498
21.7797
21.3371
20.7991
20.2048
19.6047
19.115
18.8868
3.51907
11.6198
13.3725
15.0418
16.5143
17.2081
17.1325
14.7082
13.5326
12.8483
13.2373
14.2449
14.9943
16.0022
17.8031
19.6213
19.9113
19.4035
20.0688
21.1529
21.8768
22.1343
22.0175
21.7638
21.5414
21.2988
21.0486
20.6365
20.1703
19.6747
19.2563
19.0421
2.88038
10.6912
12.2321
14.1108
16.0607
17.5843
18.4621
19.311
19.1065
18.1596
17.6946
17.1663
17.2929
17.4527
17.0451
16.9562
18.6117
20.5279
21.566
22.1213
22.4086
22.4761
22.353
22.1086
21.836
21.5595
21.2951
20.95
20.5661
20.1653
19.8171
19.649
2.82071
10.6354
11.8598
13.5153
15.2404
16.7034
17.6393
17.7572
17.6198
17.6299
17.1005
17.447
18.1212
18.7954
19.8301
20.8346
21.0532
21.2716
21.8869
22.4957
22.8751
22.9949
22.9027
22.7043
22.485
22.2558
22.0132
21.672
21.2944
20.9069
20.5686
20.4077
3.47818
11.5877
12.4174
13.7417
14.9635
16.004
16.7965
17.4446
17.7696
17.7735
18.5287
19.4957
20.2203
20.613
20.7152
20.9748
21.8924
22.8156
23.4246
23.8152
24.0343
24.0851
23.9895
23.7911
23.5495
23.2864
23.007
22.6684
22.3128
21.9537
21.6358
21.4947
3.57918
11.4409
12.5168
13.362
14.1737
14.9434
15.7099
16.4966
17.4552
18.8039
20.0328
21.032
21.6141
22.1099
22.8154
23.5345
23.9503
24.3497
24.8229
25.2231
25.4712
25.545
25.4649
25.2786
25.0358
24.7599
24.4606
24.1137
23.7547
23.3976
23.0821
22.9523
2.67742
10.4318
11.5632
12.6297
13.6775
14.9551
16.4366
18.009
19.5237
20.7943
21.8737
22.6873
23.4173
24.1132
24.6483
25.1326
25.7519
26.3407
26.8119
27.159
27.3733
27.4454
27.3826
27.2058
26.9504
26.6471
26.3168
25.9571
25.5949
25.2384
24.9244
24.8069
1.60293
8.83957
11.5383
12.9553
14.5672
16.3511
18.1182
19.7436
21.1831
22.455
23.5535
24.5584
25.4437
26.1855
26.8835
27.5283
28.0473
28.5163
28.9587
29.33
29.5826
29.6927
29.6573
29.4933
29.2323
28.9109
28.5595
28.1895
27.8214
27.4612
27.1462
27.0388
2.98539
2.31475
2.1229
2.12164
2.35397
2.77876
3.33824
3.83312
4.48884
4.8965
5.32049
5.76546
6.0901
6.34016
6.63192
6.95397
7.35313
7.81904
8.55322
9.05885
10.7004
11.6013
11.3258
11.5261
11.8767
11.7783
11.5158
11.639
11.112
11.0053
9.31699
7.11858
5.32453
4.1243
3.43404
2.74335
2.65068
2.5185
2.44197
2.41276
9.68983
7.838
6.8405
6.63858
7.11263
7.93165
9.01751
9.74817
10.7443
11.5234
12.2717
12.9338
13.5435
14.1485
14.7143
15.1968
15.6442
16.0505
16.4714
16.8228
17.2394
17.6251
17.9485
18.2208
18.4485
18.599
18.6744
18.6666
18.4949
18.2338
17.7451
16.9286
15.8975
14.5856
13.3702
11.5222
11.4679
11.2403
11.3403
11.6087
11.5127
9.78207
8.74249
8.64259
9.29652
10.0947
11.3332
12.0182
13.1116
14.124
14.9992
15.7392
16.4141
17.0574
17.6377
18.1814
18.6778
19.1198
19.5303
19.9026
20.254
20.581
20.8781
21.135
21.3487
21.499
21.5853
21.583
21.4835
21.2572
20.8973
20.3391
19.5787
18.5419
17.3533
15.7857
14.4556
13.3087
12.5316
12.7031
12.0003
11.0392
10.2992
10.3385
11.3001
11.757
13.1236
14.4115
15.64
16.7141
17.6274
18.4114
19.0977
19.7128
20.2613
20.7914
21.2885
21.753
22.1667
22.5356
22.8703
23.1726
23.4392
23.6594
23.8274
23.93
23.9679
23.9191
23.7843
23.5344
23.1656
22.6464
21.96
21.0698
19.9906
18.6419
17.204
15.7303
14.3293
14.0544
12.1476
11.475
11.471
11.5048
12.6305
14.1011
15.579
16.9611
18.181
19.2336
20.139
20.9274
21.6179
22.2297
22.7678
23.2536
23.7146
24.1478
24.5604
24.923
25.2446
25.5288
25.7691
25.9544
26.0819
26.1432
26.1374
26.0487
25.8783
25.601
25.2153
24.6922
24.0247
23.1801
22.1678
20.9357
19.5499
18.1151
16.4418
15.7242
12.0021
11.5371
11.7109
13.1897
15.0769
16.6828
18.1481
19.4594
20.5995
21.5962
22.4714
23.2459
23.9258
24.5248
25.0432
25.5084
25.9372
26.3231
26.7011
27.0513
27.3621
27.6319
27.849
28.0027
28.0908
28.1079
28.0595
27.9337
27.7327
27.4336
27.0385
26.515
25.8656
25.054
24.0878
22.9468
21.6082
20.2793
18.5946
17.5478
11.7343
11.9678
13.7331
15.9086
17.6957
19.2399
20.5902
21.7802
22.8307
23.7701
24.6128
25.3686
26.0276
26.6
27.0812
27.5117
27.9104
28.2782
28.6197
28.9453
29.2574
29.5252
29.727
29.8525
29.9012
29.8751
29.7798
29.6124
29.3769
29.0545
28.645
28.1214
27.481
26.7026
25.7671
24.7088
23.4209
22.1779
20.6101
19.3596
12.4388
14.3893
16.696
18.6161
20.2257
21.6087
22.8132
23.8924
24.869
25.7616
26.5761
27.3119
27.9371
28.457
28.8699
29.2396
29.5958
29.9412
30.2781
30.6001
30.9443
31.2364
31.4375
31.5412
31.5543
31.4851
31.3444
31.134
30.8598
30.5119
30.0812
29.5541
28.9109
28.1587
27.2415
26.2432
25.0135
23.815
22.4028
21.0573
15.3467
17.5319
19.4958
21.1277
22.5211
23.7289
24.8125
25.8072
26.7284
27.5846
28.3744
29.0877
29.6528
30.0507
30.4197
30.7794
31.1317
31.4746
31.8042
32.1309
32.4241
32.7822
33.0019
33.092
33.0727
32.9634
32.7784
32.5282
32.2146
31.8402
31.3865
30.8519
30.2013
29.4628
28.561
27.5917
26.4265
25.2343
23.9592
22.6011
18.5988
20.3469
21.9892
23.3415
24.5416
25.6147
26.6098
27.5428
28.4226
29.25
30.0167
30.7002
31.1369
31.497
31.8565
32.2162
32.5704
32.9126
33.2423
33.5572
33.8559
34.1692
34.4365
34.5213
34.4731
34.3257
34.0994
33.8103
33.4613
33.0587
32.5845
32.039
31.3834
30.6452
29.7615
28.7959
27.6911
26.4941
25.2971
23.9917
21.3677
22.7551
24.1156
25.2533
26.3163
27.2953
28.2268
29.1148
29.9631
30.767
31.5115
32.1527
32.5108
32.852
33.2085
33.5698
33.9264
34.2687
34.5986
34.9024
35.2082
35.4876
35.7876
35.857
35.7748
35.5871
35.3204
34.9931
34.6113
34.1806
33.6891
33.1301
32.4707
31.7251
30.8564
29.888
28.819
27.6388
26.4438
25.2427
23.6433
24.7516
25.9136
26.9115
27.8818
28.7961
29.6822
30.5375
31.3628
32.1485
32.8753
33.4799
33.8067
34.1344
34.4874
34.8491
35.2069
35.5499
35.8781
36.1788
36.4773
36.7535
37.0551
37.0994
36.9804
36.753
36.4481
36.085
35.6726
35.2153
34.7061
34.1334
33.4693
32.7158
31.8518
30.8872
29.8222
28.6809
27.4458
26.3274
25.4893
26.4174
27.4507
28.3609
29.2684
30.1392
30.9942
31.8279
32.6371
33.4101
34.1259
34.735
35.0426
35.3563
35.7029
36.0625
36.4199
36.7637
37.089
37.3923
37.6754
37.9743
38.2434
38.2528
38.0972
37.833
37.4932
37.0976
36.6567
36.1744
35.6459
35.0586
34.3846
33.6238
32.7541
31.7955
30.7188
29.6079
28.3424
27.2492
27.0148
27.8288
28.7808
29.6354
30.5021
31.3458
32.1824
33.0042
33.805
34.5702
35.2787
35.9033
36.2306
36.5311
36.8669
37.2213
37.5764
37.9205
38.2425
38.5522
38.817
39.1582
39.3658
39.3293
39.1384
38.8414
38.4704
38.0457
37.5781
37.0721
36.5229
35.9184
35.2287
34.4572
33.5738
32.6155
31.5211
30.425
29.1329
28.0562
28.3038
29.0413
29.9428
30.7631
31.6065
32.4367
33.2662
34.0854
34.8849
35.646
36.3437
36.9562
37.3755
37.6745
37.9951
38.3397
38.6894
39.0328
39.3518
39.6695
39.9187
40.3134
40.4338
40.3452
40.1204
39.7942
39.3963
38.9459
38.4539
37.9246
37.3535
36.728
36.0178
35.229
34.327
33.3573
32.2464
31.1419
29.8418
28.7408
29.4096
30.0943
30.966
31.7684
32.6025
33.431
34.2635
35.0881
35.8931
36.6557
37.3462
37.9497
38.4886
38.7951
39.0988
39.4294
39.771
40.1109
40.4319
40.7429
41.0348
41.3531
41.4131
41.2921
41.0419
40.6966
40.2788
39.808
39.2948
38.7443
38.1511
37.5019
36.7675
35.9552
35.0306
34.0393
32.9109
31.7836
30.4821
29.3434
30.3645
31.0164
31.8727
32.6708
33.5069
34.3433
35.1868
36.0242
36.8413
37.612
38.3017
38.8944
39.4533
39.8713
40.1825
40.4991
40.8298
41.1609
41.4892
41.7811
42.1517
42.3356
42.3355
42.1852
41.9136
41.554
41.1219
40.6354
40.1051
39.5356
38.9214
38.2477
37.4868
36.6481
35.6966
34.6803
33.5251
32.3805
31.0501
29.9287
31.1874
31.8254
32.6777
33.4828
34.3294
35.181
36.0416
36.8972
37.7319
38.5173
39.2145
39.7994
40.3383
40.8636
41.2337
41.5475
41.8659
42.1906
42.5084
42.8554
43.0973
43.2127
43.1817
43.0147
42.7335
42.363
41.9225
41.4251
40.8812
40.2955
39.6617
38.9636
38.1761
37.3092
36.3286
35.2839
34.098
32.9333
31.5681
30.4681
31.8894
32.5291
33.3873
34.2077
35.071
35.9424
36.8235
37.7001
38.5556
39.3608
40.074
40.6603
41.1838
41.6763
42.146
42.5421
42.8738
43.1962
43.5203
43.755
43.9208
44.0013
43.9523
43.7747
43.4878
43.1104
42.6653
42.1617
41.6082
41.0093
40.3574
39.636
38.8229
37.9273
36.917
35.8404
34.6234
33.4302
32.0371
30.932
32.4716
33.1254
33.9984
34.8396
35.7232
36.6162
37.5182
38.4157
39.2919
40.1185
40.8538
41.454
41.9706
42.4407
42.8791
43.2829
43.6454
43.9608
44.2282
44.4435
44.6174
44.6944
44.6376
44.4533
44.1606
43.7809
43.3297
42.8229
42.2632
41.654
40.9856
40.2424
39.4044
38.4796
37.4392
36.3284
35.0811
33.8528
32.4341
31.3151
32.9245
33.6028
34.4975
35.3626
36.2675
37.1811
38.102
39.0174
39.9116
40.7584
41.518
42.145
42.6633
43.1181
43.5327
43.9124
44.2549
44.5567
44.8191
45.0381
45.2283
45.2989
45.2302
45.0353
44.7354
44.3505
43.8965
43.3844
42.8202
42.2022
41.5179
40.7532
39.8903
38.9364
37.8651
36.7205
35.4404
34.1771
32.7364
31.5927
33.2304
33.941
34.8616
35.752
36.6771
37.6085
38.5443
39.4728
40.3799
41.2435
42.0288
42.6922
43.2227
43.6705
44.0681
44.4279
44.7533
45.0454
45.3082
45.5401
45.7169
45.7702
45.6881
45.4846
45.1796
44.7919
44.3356
43.821
43.2509
42.6251
41.925
41.1384
40.25
39.2663
38.1646
36.9852
35.6731
34.3814
32.9118
31.7383
33.3655
34.1133
35.0614
35.9764
36.9197
37.8655
38.8116
39.7478
40.6621
41.5367
42.345
43.0502
43.6105
44.0672
44.4587
44.8065
45.1215
45.4108
45.6783
45.9308
46.0809
46.1021
45.9971
45.7814
45.4717
45.0833
44.6274
44.1119
43.5379
42.9026
42.1861
41.3768
40.4618
39.4483
38.3149
37.1028
35.7636
34.4393
32.9383
31.7381
33.3059
34.092
35.0662
36.0046
36.9637
37.9209
38.8741
39.8142
40.7311
41.6109
42.4349
43.1754
43.7912
44.2819
44.6879
45.0403
45.3587
45.6562
45.9382
46.1673
46.2851
46.2787
46.1548
45.9288
45.6153
45.2269
44.7721
44.2564
43.6782
43.0318
42.2961
41.4634
40.5222
39.4784
38.3149
37.0706
35.6987
34.342
32.8147
31.596
33.0302
33.8528
34.8511
35.812
36.7859
37.754
38.7136
39.6568
40.5751
41.4573
42.2919
43.0594
43.7314
44.2855
44.7395
45.1257
45.4713
45.7925
46.0745
46.2624
46.3388
46.3044
46.1662
45.9357
45.6236
45.2389
44.7874
44.272
43.6892
43.028
42.2717
41.4147
40.4465
39.3726
38.1777
36.9009
35.5005
34.1167
32.5706
31.3404
32.5274
33.3829
34.4036
35.3884
36.3795
37.3614
38.3308
39.281
40.2044
41.0928
41.9376
42.7243
43.4345
44.0558
44.5894
45.0471
45.4454
45.7755
46.0259
46.1806
46.2348
46.191
46.0529
45.8285
45.5253
45.1498
44.7055
44.1932
43.6072
42.9322
42.1558
41.2747
40.2798
39.1765
37.952
36.6449
35.2186
33.8113
32.2516
31.0138
31.8317
32.7094
33.7471
34.757
35.7689
36.7693
37.7547
38.7187
39.6546
40.5569
41.4178
42.2255
42.9689
43.6369
44.2249
44.735
45.1682
45.5183
45.7757
45.9352
45.9981
45.9678
45.8464
45.6401
45.3546
44.9944
44.5619
44.0558
43.4693
42.784
41.9908
41.0883
40.069
38.9388
37.6871
36.3518
34.9019
33.4721
31.9009
30.6549
31.0153
31.8968
32.9394
33.9706
35.0049
36.0285
37.0362
38.0217
38.9794
39.9035
40.7858
41.6174
42.39
43.0954
43.7264
44.2766
44.741
45.115
45.3961
45.5816
45.6726
45.6713
45.5785
45.3989
45.1373
44.7972
44.3799
43.8828
43.2977
42.6079
41.8044
40.8859
39.8471
38.694
37.4188
36.0579
34.5857
33.1327
31.547
30.2859
30.1609
31.0309
32.0638
33.1061
34.1585
35.2054
36.2379
37.2493
38.2337
39.1845
40.0936
40.9531
41.7554
42.4925
43.1568
43.7414
44.2406
44.6494
44.9655
45.1857
45.3108
45.3423
45.2801
45.1285
44.8915
44.5718
44.17
43.6824
43.0994
42.4069
41.5965
40.6666
39.6125
38.4412
37.1465
35.7643
34.2728
32.799
31.1997
29.9216
29.3219
30.1737
31.1866
32.2292
33.2923
34.3579
35.4139
36.4515
37.4633
38.4415
39.3787
40.2677
41.1006
41.8695
42.5667
43.1851
43.7188
44.1625
44.5133
44.7678
44.926
44.989
44.956
44.8309
44.6169
44.3164
43.9294
43.4512
42.8711
42.1771
41.3619
40.4238
39.3584
38.1731
36.8634
35.4647
33.9586
32.4682
30.8581
29.5648
28.601
29.4363
30.4273
31.4622
32.5265
33.6014
34.6729
35.7299
36.7627
37.7635
38.7249
39.6393
40.4989
41.2958
42.0221
42.6705
43.2349
43.7097
44.0917
44.3768
44.5647
44.656
44.6494
44.5484
44.3558
44.0733
43.7008
43.2329
42.6579
41.9657
41.1495
40.2071
39.135
37.9401
36.6194
35.2078
33.6893
32.1842
30.5632
29.2545
28.1986
29.0115
29.9748
30.9904
32.042
33.1113
34.1835
35.2462
36.2888
37.3028
38.28
39.2127
40.0925
40.9111
41.6606
42.3333
42.9224
43.4225
43.8297
44.1395
44.3514
44.4656
44.4804
44.3991
44.2243
43.9577
43.5988
43.1426
42.578
41.8941
41.0839
40.1455
39.0758
37.8814
36.5597
35.1447
33.6214
32.1084
30.4794
29.1568
16.8878
19.541
34.3449
38.1968
41.5209
42.9613
43.9933
44.3557
44.6056
44.7631
44.9087
44.7415
44.7679
45.1302
45.4529
45.182
44.298
43.878
42.8431
42.2852
40.751
41.6315
40.7536
41.3979
43.1157
40.7781
41.374
40.9136
40.034
39.8419
39.2099
38.9234
16.0091
20.2441
33.7398
37.8894
41.2705
42.8199
43.7957
44.1157
44.5295
44.7796
44.9423
44.9909
45.2333
45.5512
45.7129
45.269
44.4317
44.0985
43.1045
42.4221
41.1836
42.0873
41.3243
41.9667
43.419
41.0456
41.7164
41.2135
40.3826
40.1965
39.5934
39.3195
6.36836
18.8122
33.325
37.6086
41.017
42.5981
43.7185
44.2263
44.5948
44.8182
45.0566
45.0688
45.2093
45.4996
45.6052
45.1891
44.4253
44.2014
43.206
42.4281
41.4281
42.3079
41.696
42.3558
43.6369
41.462
42.2594
41.7977
41.066
40.9243
40.372
40.1132
14.7021
19.2246
32.6686
37.2776
40.7748
42.5541
43.6691
44.0764
44.572
44.9193
45.1665
45.3256
45.6538
45.8808
45.8211
45.2863
44.6513
44.4719
43.5342
42.7823
42.0255
42.8696
42.404
42.9936
43.997
41.8623
42.6834
42.1725
41.4891
41.3457
40.8259
40.5817
9.64362
17.509
31.9522
36.8712
40.4782
42.2779
43.5194
44.2099
44.7186
45.0293
45.3671
45.5222
45.6442
45.7424
45.641
45.2249
44.7175
44.6111
43.7087
43.007
42.4198
43.1968
42.8799
43.4374
44.2626
42.4021
43.2969
42.8257
42.242
42.1333
41.6651
41.436
11.5365
18.1218
31.1435
36.3923
40.1243
42.2136
43.5285
44.074
44.667
45.1184
45.4738
45.6991
46.0136
46.1276
45.9329
45.4339
45.0348
44.9311
44.1129
43.5434
43.1274
43.8577
43.6651
44.1278
44.6828
42.9317
43.7706
43.2569
42.7146
42.6002
42.1654
41.954
9.0603
15.4881
29.9771
35.6965
39.6765
41.7934
43.2147
44.1357
44.8032
45.2295
45.6679
45.9423
46.0306
45.9844
45.7832
45.4574
45.1763
45.1269
44.375
43.9108
43.6019
44.2551
44.1726
44.5904
44.9863
43.5575
44.4155
43.9522
43.5075
43.4239
43.0406
42.8454
11.8173
15.9381
28.8395
34.8925
39.0491
41.5942
43.2112
43.9626
44.6975
45.2669
45.7433
46.0192
46.3228
46.4068
46.2116
45.8169
45.5877
45.5182
44.8607
44.5287
44.347
44.9685
44.973
45.3024
45.4655
44.1816
44.9149
44.4229
44.0099
43.9177
43.5667
43.3919
11.8795
12.7913
27.0833
33.7168
38.3178
40.9184
42.6514
43.9044
44.7685
45.3495
45.8848
46.273
46.3792
46.2884
46.1001
45.9095
45.788
45.7799
45.2064
44.9459
44.8431
45.3887
45.4548
45.7401
45.7949
44.8453
45.5627
45.1388
44.8208
44.7574
44.4566
44.2989
13.8329
12.7897
25.3237
32.3115
37.1717
40.4398
42.5487
43.6106
44.582
45.2962
45.9055
46.2402
46.5812
46.727
46.6305
46.3668
46.2545
46.2222
45.7414
45.561
45.5729
46.1061
46.2216
46.4305
46.3211
45.5081
46.0567
45.6153
45.3187
45.2413
44.9703
44.835
15.9815
10.2336
22.9484
30.4643
35.9724
39.299
41.5912
43.3741
44.4952
45.2974
45.9431
46.4624
46.6494
46.5962
46.4869
46.4462
46.4497
46.501
46.1124
45.9553
46.0338
46.4882
46.6179
46.7801
46.6387
46.1428
46.6605
46.3097
46.1088
46.0603
45.839
45.7217
18.5733
13.6777
20.4977
28.0709
33.8917
38.3247
41.2218
42.7465
44.1527
45.0749
45.8565
46.2809
46.7146
46.9904
47.0468
46.9186
46.902
46.927
46.6221
46.5144
46.7012
47.1566
47.3072
47.4047
47.1842
46.7779
47.1068
46.7426
46.5491
46.4766
46.2802
46.1859
20.7532
12.7085
16.8537
25.385
31.9285
36.2112
39.5141
42.2334
43.7099
44.8797
45.7073
46.4126
46.7299
46.7635
46.764
46.8844
47.0105
47.1464
46.9391
46.8403
47.0704
47.4316
47.5574
47.6009
47.4229
47.2965
47.5984
47.3477
47.2566
47.2171
47.0724
46.9971
21.3464
10.6163
14.5839
21.1798
28.1827
34.4474
38.5271
40.7289
43.029
44.3273
45.4141
46.0044
46.5956
47.048
47.2857
47.2889
47.3679
47.4663
47.3313
47.2926
47.6141
47.9852
48.1205
48.1187
47.9375
47.8226
47.9394
47.6709
47.5717
47.4976
47.3709
47.3178
20.774
12.3437
7.77649
17.5834
24.8123
29.8928
35.1619
39.7718
41.7658
43.6808
44.8963
45.9541
46.4813
46.6457
46.7711
47.0566
47.3072
47.5407
47.5047
47.4904
47.8246
48.08
48.1767
48.1278
48.0307
48.1625
48.2854
48.1449
48.1647
48.1374
48.067
48.0342
19.1143
10.2502
7.43458
11.88
17.4934
27.2104
32.6161
35.7833
40.3334
42.3878
44.1547
45.1087
46.0424
46.7845
47.2447
47.3716
47.5443
47.7182
47.7449
47.821
48.2245
48.5027
48.6203
48.5606
48.5038
48.5612
48.4816
48.3091
48.2778
48.1937
48.1259
48.1103
16.7098
12.1753
9.39013
10.7312
11.2922
9.72733
24.28
34.1827
36.7102
40.6856
42.8274
44.6701
45.5863
46.0012
46.334
46.8602
47.2676
47.6112
47.7379
47.8464
48.2066
48.321
48.3761
48.2756
48.2851
48.5385
48.5494
48.5199
48.651
48.6472
48.6455
48.6571
13.1944
9.97266
5.18377
9.94719
10.2344
5.62882
10.6873
16.9897
33.6559
37.3474
41.0124
42.8241
44.5611
45.8667
46.6931
46.974
47.2641
47.5173
47.6956
47.9252
48.3357
48.5177
48.6429
48.6031
48.6468
48.7343
48.4809
48.3667
48.3542
48.2227
48.1731
48.1748
11.512
6.05095
9.57941
9.9543
10.2285
10.5646
11.3882
7.3207
14.0363
32.762
37.6952
41.5953
43.2518
44.157
44.9087
45.8834
46.5578
47.0641
47.3532
47.583
47.8735
47.7949
47.7773
47.6639
47.631
47.814
47.7886
47.8363
48.0653
48.0993
48.1503
48.2087
11.9273
7.41572
10.0201
7.10204
11.044
11.4941
7.11377
11.5619
13.654
20.3428
32.9702
37.0728
40.9565
43.4865
44.939
45.4212
45.8685
46.211
46.5301
46.9171
47.2483
47.3487
47.5056
47.5965
47.5672
47.5172
47.0356
46.8128
46.6841
46.3673
46.191
46.1413
9.04709
7.98669
2.6595
10.3088
7.35589
9.66159
12.9173
11.6666
12.4026
11.0225
25.1215
34.6086
37.2555
39.0633
40.8594
42.8594
44.1026
44.9288
45.3851
45.6316
45.7125
45.2873
45.0003
44.7913
44.2421
43.883
43.9093
43.9607
44.1654
44.2548
44.3156
44.4031
1.47037
7.02431
6.76121
7.27762
14.2156
19.6566
15.7994
6.22707
10.5935
6.71555
6.08098
14.1835
30.7217
37.4085
39.9579
40.6257
41.2149
41.6035
42.0338
42.5249
42.6271
42.7184
42.9086
43.275
42.8212
42.3898
41.1141
39.6994
38.694
37.1292
35.6142
35.0309
7.104
10.9931
9.51054
5.94407
11.115
17.285
20.6077
21.3985
15.3017
14.2513
12.8641
7.08311
15.8408
6.37212
24.3478
32.076
35.9978
38.0022
38.6374
38.3922
37.8981
35.8818
33.8557
31.5886
26.8129
19.8856
17.3354
17.5411
19.4326
18.459
18.4861
19.8448
9.90397
14.3489
13.9379
12.5514
13.0043
15.7507
18.9107
20.3868
20.0132
11.9899
14.8522
10.4065
1.68393
8.14462
11.0099
11.196
6.4511
8.73562
10.8996
10.6455
0.969517
17.462
19.2277
18.2894
5.285
17.2345
12.5649
13.318
12.2679
17.8461
9.94271
16.9148
9.56615
17.6024
19.6352
20.4183
20.9061
21.7315
22.8069
23.3542
22.5708
19.4373
13.4487
10.2658
8.49173
9.70465
16.3665
15.7858
15.1283
5.37076
11.0618
4.80215
15.275
11.3581
16.2263
16.6177
7.33851
18.651
5.64248
18.3379
9.5056
11.8282
13.8843
15.1947
8.34715
18.454
22.0124
24.1455
25.4066
26.1287
26.4484
26.214
25.1139
23.3197
22.6247
23.5371
24.2891
23.9267
22.9707
20.5903
17.268
13.6476
10.4122
8.11952
7.48981
6.88378
10.7337
16.7288
20.2995
22.2629
24.331
25.8987
26.3149
26.241
25.9771
25.7981
7.34721
18.1593
22.2857
24.9427
26.6608
27.6257
27.8924
27.4913
26.5125
25.469
25.0523
25.0657
25.2325
25.7467
26.6928
27.1778
27.1637
26.89
26.6206
26.4989
26.4075
26.8572
27.4679
27.7819
27.8105
28.5387
28.3646
28.1394
27.9826
27.6958
27.3217
27.0511
6.62216
17.4519
21.7411
24.5736
26.4922
27.6317
27.9815
27.5691
26.4891
24.8457
23.103
22.1518
22.5675
24.5862
27.2752
28.838
29.2839
29.1695
28.9237
28.7709
28.6777
29.0389
29.4233
29.7269
29.8155
30.266
29.9417
29.4173
28.449
27.3382
26.1436
25.3615
5.95233
16.4707
20.7458
23.6164
25.6179
26.8643
27.3045
26.9066
25.6289
23.3641
20.5369
17.3914
13.4558
12.6963
18.9043
23.847
26.8102
28.3366
29.0167
29.3051
29.3714
29.6987
29.8452
29.5569
28.8378
28.4627
27.4281
26.1966
24.597
22.9146
21.283
20.2219
5.35809
15.4278
19.601
22.4524
24.4993
25.8461
26.4253
26.1905
25.1191
23.3254
21.3332
19.323
17.8965
17.9419
18.478
19.6921
21.4283
23.2026
24.5822
25.4804
25.9733
26.4066
26.5999
26.3798
25.8123
25.3892
24.7367
23.936
22.8367
21.6698
20.4946
19.7927
4.85877
14.476
18.5189
21.3072
23.3376
24.7122
25.347
25.1676
24.136
22.3634
20.0943
17.1318
13.2936
11.7484
14.6744
18.5571
21.2377
22.8581
23.8224
24.4068
24.7434
25.0148
25.1835
25.0966
24.692
24.1987
23.3796
22.408
21.2922
20.2824
19.3561
18.791
4.26891
13.2863
17.1612
19.8551
21.7917
23.0665
23.6139
23.3514
22.3008
20.7546
18.9336
16.5049
14.4151
15.1244
16.3784
17.8165
19.5369
21.1188
22.3084
23.0555
23.4317
23.5951
23.526
23.1589
22.5877
22.0883
21.5271
20.9177
20.1943
19.5027
18.8306
18.4378
3.65559
11.7154
15.2826
17.8274
19.6753
20.8992
21.4931
21.461
20.9641
20.166
18.5955
15.6099
12.5944
11.8019
14.3012
17.0483
19.136
20.6432
21.6348
22.1902
22.4368
22.5042
22.423
22.1843
21.8281
21.4543
21.0206
20.5262
19.9708
19.4352
18.892
18.5626
3.75134
11.4123
14.057
16.267
18.0463
19.4007
20.3086
20.7929
20.8256
20.0484
17.7432
14.3141
13.0983
15.1473
17.0984
18.5407
19.7912
20.8787
21.7194
22.2685
22.5486
22.6231
22.5389
22.3223
22.0217
21.6943
21.3317
20.931
20.4652
19.9915
19.5134
19.2391
4.02514
11.4235
13.677
15.78
17.6622
19.2187
20.365
20.97
20.6791
19.0529
15.9049
13.1679
13.5443
15.4311
17.4763
19.3083
20.7805
21.8926
22.6805
23.1768
23.424
23.4755
23.3771
23.1602
22.8583
22.5028
22.1114