/*--------------------------------*- C++ -*----------------------------------*\
  =========                 |
  \\      /  F ield         | OpenFOAM: The Open Source CFD Toolbox
   \\    /   O peration     | Website:  https://openfoam.org
    \\  /    A nd           | Version:  6
     \\/     M anipulation  |
\*---------------------------------------------------------------------------*/
FoamFile
{
    version     2.0;
    format      ascii;
    class       volScalarField;
    location    "45";
    object      omega;
}
// * * * * * * * * * * * * * * * * * * * * * * * * * * * * * * * * * * * * * //

dimensions      [0 0 -1 0 0 0 0];

internalField   nonuniform List<scalar> 
380496
(
843.917
843.917
843.917
843.917
843.917
843.917
843.917
843.917
843.917
843.917
843.917
843.917
843.917
843.917
843.917
843.917
843.917
843.917
843.917
843.917
843.917
843.917
843.917
843.917
843.917
843.917
843.917
843.917
843.917
843.917
843.917
843.917
843.917
843.917
843.917
843.917
843.917
843.917
843.917
843.917
843.917
843.917
843.917
843.917
843.917
843.917
843.917
843.917
843.917
843.917
843.917
843.917
843.917
843.917
843.917
843.917
843.917
843.917
843.917
843.917
843.917
843.917
843.917
843.917
843.917
843.917
843.917
843.917
843.917
843.917
843.917
843.917
843.917
843.917
843.917
843.917
843.917
843.917
843.917
843.917
843.917
843.917
843.917
843.917
843.917
843.917
843.917
843.917
843.917
843.917
843.917
843.917
843.917
843.917
843.917
843.917
843.917
843.917
843.917
843.917
843.917
843.917
843.917
843.917
843.917
843.917
843.917
843.917
843.917
843.917
843.917
843.917
843.917
843.917
843.917
843.917
843.917
843.917
843.917
843.917
843.917
843.917
843.917
843.917
843.917
843.917
843.917
843.917
843.917
843.917
843.917
843.917
843.917
843.917
843.917
843.917
843.917
843.917
843.917
843.917
843.917
843.917
843.917
843.917
843.917
843.917
843.917
843.917
843.917
843.917
843.917
843.917
843.917
843.917
843.917
843.917
843.917
843.917
843.917
843.917
843.917
843.917
843.917
843.917
843.917
843.917
843.917
843.917
843.917
843.917
843.917
843.917
843.917
843.917
843.917
843.917
843.917
843.917
843.917
843.917
843.917
843.917
843.917
843.917
843.917
843.917
843.917
843.917
843.917
843.917
843.917
843.917
843.917
843.917
843.917
843.917
843.917
843.917
843.917
843.917
843.917
843.917
843.917
843.917
843.917
843.917
843.917
843.917
843.917
843.917
843.917
843.917
843.917
843.917
843.917
843.917
843.917
843.917
843.917
843.917
843.917
843.917
843.917
843.917
843.917
843.917
843.917
843.917
843.917
843.917
843.917
843.917
843.917
843.917
843.917
843.917
843.917
843.917
843.917
843.917
843.917
843.917
843.917
843.917
843.917
843.917
843.917
843.917
843.917
843.917
843.917
843.917
843.917
843.917
843.917
843.917
843.917
843.917
843.917
843.917
843.917
843.917
843.917
843.917
843.917
843.917
843.917
843.917
843.917
843.917
843.917
843.917
843.917
843.917
843.917
843.917
843.917
843.917
843.917
843.917
843.917
843.917
843.917
843.917
843.917
843.917
843.917
843.917
843.917
843.917
843.917
843.917
843.917
843.917
843.917
843.917
843.917
843.917
843.917
843.917
843.917
843.917
843.917
843.917
843.917
843.917
843.917
843.917
843.917
843.917
843.917
843.917
843.917
843.917
843.917
843.917
843.917
843.917
843.917
843.917
843.917
843.917
843.917
843.917
843.917
843.917
843.917
843.917
843.917
843.917
843.917
843.917
843.917
843.917
843.917
843.917
843.917
843.917
843.917
843.917
843.917
843.917
843.917
843.917
843.917
843.917
843.917
843.917
843.917
843.917
843.917
843.917
843.917
843.917
843.917
843.917
843.917
843.917
843.917
843.917
843.917
843.917
843.917
843.917
843.917
843.917
843.917
843.917
843.917
843.917
843.917
843.917
843.917
843.917
843.917
843.917
843.917
843.917
843.917
843.917
843.917
843.917
843.917
843.917
843.917
843.917
843.917
843.917
843.917
843.917
843.917
843.917
843.917
843.917
843.917
843.917
843.917
843.917
843.917
843.917
843.917
843.917
843.917
843.917
843.917
843.917
843.917
843.917
843.917
843.917
843.917
843.917
843.917
843.917
843.917
843.917
843.917
843.917
843.917
843.917
843.917
843.917
843.917
843.917
843.917
843.917
843.917
843.917
843.917
843.917
843.917
843.917
843.917
843.917
843.917
843.917
843.917
843.917
843.917
843.917
843.917
843.917
843.917
843.917
843.917
843.917
843.917
843.917
843.917
843.917
843.917
843.917
843.917
843.917
843.917
843.917
843.917
843.917
843.917
843.917
843.917
843.917
843.917
843.917
843.917
843.917
843.917
843.917
843.917
843.917
843.917
843.917
843.917
843.917
843.917
843.917
843.917
843.917
843.917
843.917
843.917
843.917
843.917
843.917
843.917
843.917
843.917
843.917
843.917
843.917
843.917
843.917
843.917
843.917
843.917
843.917
843.917
843.917
843.917
843.917
843.917
843.917
843.917
843.917
843.917
843.917
843.917
843.917
843.917
843.917
843.917
843.917
843.917
843.917
843.917
843.917
843.917
843.917
843.917
843.917
843.917
843.917
843.917
843.917
843.917
843.917
843.917
843.917
843.917
843.917
843.917
843.917
843.917
843.917
843.917
843.917
843.917
843.917
843.917
843.917
843.917
843.917
843.917
843.917
843.917
843.917
843.917
843.917
843.917
843.917
843.917
843.917
843.917
843.917
843.917
843.917
843.917
843.917
843.917
843.917
843.917
843.917
843.917
843.917
843.917
843.917
843.917
843.917
843.917
843.917
843.917
843.917
843.917
843.917
843.917
843.917
843.917
843.917
843.917
843.917
843.917
843.917
843.917
843.917
843.917
843.917
843.917
843.917
843.917
843.917
843.917
843.917
843.917
843.917
843.917
843.917
843.917
843.917
843.917
843.917
843.917
843.917
843.917
843.917
843.917
843.917
843.917
843.917
843.917
843.917
843.917
843.917
843.917
843.917
843.917
843.917
843.917
843.917
843.917
843.917
843.917
843.917
843.917
843.917
843.917
843.917
843.917
843.917
843.917
843.917
843.917
843.917
843.917
843.917
843.917
843.917
843.917
843.917
843.917
843.917
843.917
843.917
843.917
843.917
843.917
843.917
843.917
843.917
843.917
843.917
843.917
843.917
843.917
843.917
843.917
843.917
843.917
843.917
843.917
843.917
843.917
843.917
843.917
843.917
843.917
843.917
843.917
843.917
843.917
843.917
843.917
843.917
843.917
843.917
843.917
843.917
843.917
843.917
843.917
843.917
843.917
843.917
843.917
843.917
843.917
843.917
843.917
843.917
843.917
843.917
843.917
843.917
843.917
843.917
843.917
843.917
843.917
843.917
843.917
843.917
423.923
423.923
423.923
423.923
423.923
423.923
423.923
423.923
423.923
423.923
423.923
423.923
423.923
423.923
423.923
423.923
423.923
423.923
423.923
423.923
423.923
423.923
423.923
423.923
423.923
423.923
423.923
423.923
423.923
423.923
423.923
423.923
423.923
423.923
423.923
281.629
267.587
268.727
269.804
269.894
269.729
269.61
269.533
269.491
269.457
269.439
269.422
269.417
269.409
269.411
269.411
269.415
269.42
269.426
269.435
269.442
269.455
269.463
269.481
269.489
269.514
269.523
269.556
269.566
269.607
269.615
269.669
269.666
269.744
269.701
281.467
267.572
268.649
269.679
269.742
269.572
269.445
269.37
269.323
269.294
269.272
269.264
269.255
269.259
269.256
269.269
269.269
269.288
269.29
269.314
269.318
269.347
269.353
269.387
269.396
269.437
269.449
269.498
269.511
269.568
269.578
269.648
269.638
269.742
269.626
281.132
267.397
268.473
269.469
269.506
269.328
269.196
269.122
269.074
269.05
269.031
269.028
269.024
269.035
269.038
269.059
269.067
269.095
269.106
269.142
269.155
269.199
269.214
269.266
269.285
269.346
269.368
269.439
269.463
269.546
269.567
269.665
269.666
269.807
269.705
280.565
267.018
268.175
269.143
269.145
268.953
268.816
268.744
268.699
268.68
268.667
268.673
268.675
268.696
268.707
268.738
268.755
268.795
268.816
268.864
268.889
268.945
268.974
269.039
269.072
269.148
269.186
269.272
269.313
269.412
269.451
269.568
269.582
269.75
269.648
280.148
266.781
267.826
268.725
268.706
268.509
268.371
268.298
268.255
268.24
268.231
268.242
268.251
268.278
268.298
268.337
268.364
268.413
268.445
268.504
268.541
268.61
268.653
268.733
268.781
268.874
268.927
269.033
269.09
269.211
269.266
269.407
269.438
269.638
269.544
279.34
266.189
267.27
268.122
268.07
267.86
267.723
267.655
267.62
267.613
267.615
267.636
267.657
267.695
267.727
267.778
267.817
267.879
267.925
267.998
268.049
268.133
268.192
268.288
268.353
268.463
268.534
268.659
268.734
268.875
268.949
269.112
269.16
269.39
269.301
278.499
265.571
266.588
267.369
267.288
267.071
266.934
266.87
266.842
266.843
266.854
266.885
266.916
266.965
267.009
267.072
267.124
267.198
267.258
267.344
267.411
267.51
267.584
267.698
267.779
267.908
267.997
268.141
268.235
268.397
268.49
268.677
268.743
269.003
268.921
277.444
264.752
265.702
266.406
266.295
266.072
265.94
265.882
265.864
265.875
265.898
265.94
265.984
266.045
266.101
266.176
266.242
266.329
266.403
266.504
266.586
266.7
266.791
266.921
267.02
267.166
267.273
267.437
267.55
267.732
267.844
268.054
268.136
268.425
268.347
276.19
263.732
264.623
265.247
265.103
264.876
264.752
264.706
264.702
264.727
264.766
264.822
264.88
264.954
265.025
265.113
265.193
265.295
265.384
265.499
265.597
265.727
265.834
265.981
266.097
266.261
266.386
266.568
266.699
266.901
267.031
267.262
267.36
267.676
267.602
274.956
262.704
263.444
263.977
263.812
263.586
263.47
263.432
263.439
263.475
263.524
263.591
263.661
263.745
263.828
263.927
264.019
264.132
264.234
264.362
264.474
264.617
264.739
264.901
265.033
265.212
265.353
265.552
265.699
265.918
266.064
266.313
266.426
266.765
266.693
273.278
261.259
261.947
262.401
262.206
261.984
261.886
261.87
261.899
261.955
262.025
262.109
262.197
262.297
262.396
262.509
262.617
262.744
262.861
263.003
263.131
263.289
263.428
263.605
263.753
263.949
264.107
264.322
264.486
264.722
264.884
265.151
265.278
265.639
265.569
271.661
259.85
260.305
260.653
260.442
260.229
260.143
260.139
260.181
260.249
260.331
260.426
260.525
260.636
260.747
260.871
260.991
261.129
261.26
261.414
261.556
261.728
261.881
262.073
262.237
262.448
262.621
262.853
263.032
263.284
263.462
263.746
263.886
264.268
264.199
269.373
257.803
258.177
258.446
258.216
258.023
257.97
258
258.073
258.168
258.276
258.393
258.513
258.642
258.771
258.91
259.048
259.201
259.349
259.518
259.677
259.865
260.035
260.242
260.424
260.651
260.842
261.09
261.286
261.555
261.749
262.049
262.203
262.606
262.537
267.103
255.734
255.815
255.975
255.738
255.566
255.537
255.588
255.681
255.794
255.919
256.051
256.186
256.328
256.472
256.624
256.776
256.942
257.105
257.288
257.463
257.664
257.852
258.074
258.273
258.516
258.724
258.987
259.2
259.485
259.694
260.011
260.178
260.6
260.531
264.033
252.896
252.804
252.887
252.651
252.522
252.542
252.638
252.768
252.916
253.069
253.226
253.385
253.547
253.71
253.88
254.051
254.233
254.415
254.613
254.807
255.024
255.231
255.468
255.686
255.945
256.172
256.452
256.683
256.983
257.21
257.542
257.724
258.166
258.096
260.551
249.611
249.228
249.237
249.017
248.939
249.006
249.148
249.315
249.497
249.677
249.859
250.038
250.22
250.401
250.588
250.776
250.973
251.172
251.384
251.596
251.828
252.053
252.305
252.542
252.816
253.062
253.356
253.606
253.922
254.165
254.512
254.71
255.168
255.098
256.377
245.605
244.842
244.769
244.577
244.568
244.693
244.885
245.087
245.301
245.503
245.708
245.903
246.102
246.295
246.497
246.697
246.908
247.119
247.345
247.572
247.817
248.059
248.324
248.579
248.867
249.131
249.441
249.709
250.04
250.303
250.663
250.882
251.353
251.292
249.996
239.621
238.809
238.784
238.655
238.742
238.952
239.219
239.475
239.738
239.971
240.208
240.419
240.64
240.843
241.062
241.27
241.497
241.717
241.959
242.197
242.459
242.716
243
243.274
243.58
243.867
244.2
244.491
244.851
245.136
245.526
245.769
246.258
246.234
240.797
231.455
230.471
230.616
230.659
230.879
231.162
231.462
231.725
231.985
232.205
232.432
232.629
232.845
233.039
233.26
233.465
233.7
233.922
234.177
234.42
234.696
234.962
235.262
235.564
235.907
236.238
236.605
236.949
237.336
237.679
238.089
238.399
238.896
238.98
214.289
212.114
212.353
213.252
213.857
214.563
215.256
215.899
216.469
217.005
217.486
217.958
218.391
218.831
219.239
219.665
220.065
220.488
220.888
221.316
221.721
222.158
222.572
223.018
223.442
223.894
224.326
224.779
225.217
225.664
226.101
226.531
226.964
227.323
227.934
9.02069
7.66032
7.58648
7.55188
7.60257
7.67248
7.76216
7.8519
7.9509
8.04096
8.13555
8.21851
8.30571
8.38116
8.46232
8.53214
8.60965
8.67579
8.75185
8.81556
8.89204
8.95366
9.03227
9.09095
9.17349
9.22697
9.31608
9.36029
9.45999
9.48799
9.60484
9.60381
9.74955
9.68947
9.88476
135.248
128.88
128.553
129.043
129.234
129.22
129.159
129.1
129.054
129.019
128.991
128.97
128.955
128.944
128.937
128.932
128.93
128.93
128.931
128.934
128.939
128.945
128.953
128.962
128.975
128.987
129.007
129.022
129.05
129.069
129.108
129.132
129.182
129.217
129.28
135.076
128.68
128.313
128.779
128.958
128.938
128.873
128.813
128.765
128.729
128.702
128.683
128.669
128.661
128.656
128.655
128.656
128.659
128.665
128.672
128.682
128.691
128.705
128.718
128.738
128.754
128.78
128.8
128.835
128.859
128.903
128.934
128.977
129.036
129.034
134.794
128.387
128.005
128.457
128.626
128.601
128.533
128.472
128.424
128.39
128.365
128.348
128.338
128.333
128.333
128.336
128.342
128.351
128.363
128.376
128.393
128.41
128.432
128.452
128.481
128.505
128.542
128.57
128.617
128.648
128.706
128.745
128.803
128.873
128.887
134.361
127.976
127.613
128.061
128.219
128.186
128.114
128.053
128.006
127.974
127.952
127.94
127.934
127.935
127.939
127.948
127.961
127.976
127.994
128.013
128.037
128.061
128.09
128.118
128.154
128.186
128.231
128.267
128.321
128.362
128.426
128.473
128.536
128.614
128.631
134.043
127.651
127.239
127.65
127.79
127.75
127.674
127.61
127.562
127.53
127.509
127.499
127.495
127.499
127.507
127.52
127.537
127.557
127.58
127.605
127.635
127.665
127.701
127.735
127.779
127.818
127.87
127.914
127.976
128.025
128.097
128.154
128.224
128.315
128.335
133.489
127.123
126.721
127.118
127.244
127.194
127.115
127.05
127.004
126.976
126.959
126.954
126.956
126.966
126.98
126.999
127.022
127.049
127.079
127.111
127.147
127.184
127.227
127.27
127.32
127.368
127.427
127.48
127.549
127.606
127.685
127.75
127.826
127.926
127.947
132.924
126.586
126.16
126.525
126.63
126.57
126.485
126.419
126.374
126.348
126.335
126.333
126.34
126.355
126.374
126.399
126.427
126.46
126.496
126.534
126.577
126.621
126.671
126.72
126.778
126.833
126.9
126.96
127.037
127.102
127.188
127.262
127.342
127.454
127.476
132.248
125.943
125.496
125.827
125.909
125.837
125.748
125.681
125.637
125.614
125.606
125.609
125.621
125.641
125.666
125.697
125.731
125.77
125.812
125.857
125.906
125.957
126.013
126.07
126.134
126.197
126.27
126.338
126.421
126.494
126.586
126.669
126.752
126.875
126.895
131.463
125.21
124.747
125.041
125.098
125.012
124.919
124.852
124.813
124.795
124.792
124.802
124.821
124.847
124.879
124.916
124.957
125.002
125.05
125.102
125.157
125.215
125.278
125.341
125.412
125.482
125.562
125.637
125.727
125.808
125.905
125.996
126.084
126.217
126.235
130.701
124.496
123.979
124.221
124.25
124.153
124.056
123.989
123.952
123.937
123.939
123.954
123.977
124.008
124.045
124.087
124.133
124.183
124.237
124.294
124.355
124.418
124.487
124.557
124.634
124.71
124.796
124.877
124.973
125.06
125.162
125.26
125.35
125.493
125.509
129.711
123.57
123.042
123.247
123.248
123.139
123.04
122.977
122.947
122.941
122.951
122.974
123.006
123.045
123.089
123.138
123.191
123.248
123.308
123.372
123.439
123.509
123.584
123.661
123.744
123.827
123.919
124.007
124.109
124.203
124.311
124.415
124.509
124.661
124.674
128.745
122.678
122.06
122.193
122.16
122.038
121.936
121.875
121.848
121.847
121.862
121.891
121.928
121.972
122.022
122.076
122.134
122.197
122.262
122.332
122.404
122.48
122.561
122.644
122.733
122.822
122.921
123.015
123.123
123.223
123.336
123.448
123.545
123.706
123.715
127.449
121.461
120.82
120.909
120.845
120.712
120.613
120.561
120.546
120.557
120.584
120.623
120.67
120.724
120.782
120.845
120.91
120.98
121.053
121.13
121.209
121.293
121.38
121.47
121.566
121.663
121.768
121.87
121.984
122.091
122.21
122.329
122.429
122.601
122.606
126.136
120.248
119.483
119.483
119.38
119.235
119.138
119.092
119.084
119.103
119.139
119.186
119.241
119.303
119.368
119.437
119.51
119.586
119.665
119.749
119.835
119.925
120.019
120.117
120.22
120.323
120.435
120.544
120.665
120.779
120.904
121.03
121.134
121.315
121.316
124.43
118.649
117.808
117.745
117.606
117.455
117.367
117.336
117.344
117.379
117.429
117.489
117.556
117.628
117.703
117.782
117.863
117.948
118.035
118.126
118.221
118.319
118.421
118.526
118.636
118.748
118.867
118.985
119.112
119.234
119.366
119.5
119.608
119.8
119.796
122.481
116.821
115.84
115.691
115.514
115.359
115.281
115.266
115.292
115.343
115.407
115.481
115.56
115.642
115.727
115.815
115.904
115.997
116.092
116.191
116.292
116.398
116.508
116.62
116.738
116.858
116.985
117.11
117.245
117.374
117.513
117.655
117.767
117.97
117.96
120.129
114.623
113.44
113.174
112.95
112.795
112.734
112.74
112.783
112.85
112.928
113.013
113.1
113.191
113.283
113.377
113.472
113.57
113.671
113.776
113.884
113.996
114.113
114.233
114.358
114.485
114.619
114.752
114.895
115.033
115.18
115.331
115.452
115.667
115.657
116.507
111.184
110
109.746
109.52
109.382
109.343
109.373
109.434
109.518
109.606
109.702
109.795
109.894
109.99
110.091
110.191
110.297
110.404
110.517
110.633
110.754
110.879
111.01
111.146
111.286
111.433
111.58
111.738
111.891
112.054
112.218
112.359
112.583
112.593
111.045
106.316
104.827
104.482
104.239
104.124
104.108
104.161
104.237
104.34
104.442
104.558
104.668
104.789
104.906
105.034
105.159
105.295
105.429
105.575
105.719
105.874
106.03
106.198
106.368
106.539
106.715
106.892
107.077
107.259
107.449
107.639
107.814
108.052
108.134
95.7346
95.7756
94.6499
94.3467
94.1253
94.0848
94.1843
94.3665
94.5835
94.8258
95.0694
95.3215
95.5667
95.8172
96.0592
96.3063
96.5456
96.7903
97.0285
97.2727
97.5117
97.7568
97.9982
98.2452
98.4894
98.7383
98.9847
99.2347
99.482
99.7309
99.9775
100.217
100.474
100.666
101.016
11.4412
9.87229
9.83584
9.87821
9.99184
10.1124
10.2453
10.3698
10.5
10.6156
10.7342
10.8369
10.9435
11.0348
11.1323
11.2154
11.3073
11.385
11.4742
11.5484
11.6374
11.7086
11.7995
11.867
11.9621
12.0235
12.1256
12.1767
12.2904
12.3239
12.456
12.4595
12.6211
12.5704
12.7717
79.7825
77.2367
76.6749
76.7659
76.8884
76.9274
76.9151
76.8867
76.8549
76.8276
76.8033
76.7844
76.7682
76.7565
76.7467
76.7401
76.7351
76.7319
76.7304
76.7293
76.7309
76.7312
76.7358
76.7368
76.7452
76.7466
76.7598
76.761
76.7809
76.7811
76.8102
76.8096
76.8498
76.8482
76.9091
79.5949
77.0492
76.4712
76.5471
76.6614
76.6945
76.6792
76.6472
76.6144
76.585
76.5614
76.5415
76.5276
76.5154
76.5091
76.5021
76.5013
76.4977
76.5012
76.4997
76.5067
76.5066
76.5172
76.5181
76.5326
76.5344
76.5537
76.5559
76.5814
76.5841
76.6158
76.6218
76.6532
76.6731
76.6911
79.3539
76.8071
76.2193
76.2862
76.3946
76.4235
76.4055
76.3715
76.3379
76.308
76.2849
76.2657
76.2532
76.2425
76.2383
76.2334
76.2355
76.2345
76.2416
76.2429
76.2545
76.2572
76.2732
76.2768
76.2978
76.3018
76.329
76.333
76.3675
76.3717
76.4134
76.4216
76.4635
76.4881
76.5173
79.0383
76.4935
75.9099
75.9761
76.0807
76.1052
76.0838
76.0477
76.0133
75.9834
75.9614
75.9436
75.9333
75.9249
75.9235
75.9215
75.9269
75.9292
75.9399
75.9449
75.9601
75.967
75.9868
75.9949
76.0199
76.0287
76.0598
76.0689
76.1075
76.1166
76.1628
76.1743
76.2215
76.2459
76.2829
78.7524
76.2184
75.6174
75.664
75.7554
75.7718
75.745
75.7052
75.6683
75.6371
75.6144
75.5968
75.5871
75.5799
75.58
75.5799
75.5873
75.592
75.6051
75.6129
75.6311
75.6409
75.6642
75.6754
75.7043
75.7164
75.752
75.7644
75.8078
75.8204
75.8713
75.8873
75.9383
75.9696
76.0085
78.3534
75.8247
75.228
75.2707
75.3547
75.3644
75.3327
75.2904
75.2524
75.2215
75.1999
75.1842
75.1767
75.1722
75.1751
75.1782
75.1887
75.1969
75.2135
75.225
75.2468
75.2606
75.2876
75.3029
75.3357
75.3519
75.3916
75.4081
75.4557
75.4722
75.5275
75.5468
75.6021
75.6356
75.6792
77.9279
75.4147
74.8127
74.841
74.9116
74.9115
74.8732
74.8269
74.7867
74.7552
74.7339
74.7195
74.7136
74.7113
74.7165
74.7223
74.7355
74.7467
74.7662
74.7809
74.8059
74.823
74.8534
74.8722
74.9086
74.9285
74.9719
74.9921
75.0436
75.0638
75.1229
75.1462
75.2046
75.2428
75.2887
77.4332
74.9369
74.3321
74.3457
74.4013
74.3901
74.3445
74.294
74.2519
74.2201
74.1995
74.1866
74.1827
74.1829
74.1906
74.1994
74.2155
74.2299
74.2524
74.2705
74.2987
74.3193
74.353
74.3754
74.4153
74.4388
74.4859
74.5097
74.5649
74.5888
74.6512
74.6783
74.7392
74.7814
74.8286
76.8735
74.4028
73.7998
73.7992
73.8383
73.8143
73.7607
73.7061
73.6624
73.6311
73.612
73.6016
73.6003
73.6036
73.6143
73.6264
73.6456
73.6634
73.6891
73.7107
73.742
73.7661
73.8032
73.8291
73.8724
73.8995
73.95
73.9774
74.036
74.0635
74.1292
74.16
74.2232
74.2697
74.3179
76.3103
73.8748
73.26
73.2342
73.2523
73.2143
73.1526
73.0938
73.0483
73.0169
72.9987
72.99
72.9907
72.9965
73.0096
73.0245
73.0462
73.067
73.0953
73.1198
73.1539
73.181
73.2209
73.2499
73.2963
73.3265
73.3802
73.4107
73.4725
73.5031
73.5717
73.6058
73.671
73.7213
73.77
75.6269
73.2234
72.6153
72.5762
72.576
72.5237
72.4536
72.3913
72.3456
72.316
72.3005
72.2953
72.2995
72.3092
72.3259
72.3445
72.3697
72.394
72.4256
72.4537
72.491
72.5216
72.5648
72.5973
72.6469
72.6806
72.7377
72.7716
72.8368
72.8706
72.9423
72.9798
73.0473
73.1016
73.1507
74.9227
72.5729
71.9407
71.863
71.833
71.7626
71.6832
71.6168
71.5699
71.5411
71.5274
71.5248
71.5317
71.5445
71.564
71.5859
71.6138
71.6413
71.6757
71.707
71.7472
71.7811
71.8273
71.8631
71.916
71.953
72.0134
72.0507
72.1192
72.1564
72.2312
72.2721
72.3416
72.4001
72.4493
74.0386
71.735
71.1062
71.0099
70.957
70.8699
70.7823
70.7138
70.6683
70.643
70.6337
70.6359
70.6475
70.665
70.6888
70.7152
70.7471
70.7788
70.8168
70.8521
70.8958
70.9338
70.9835
71.0233
71.0798
71.1207
71.1848
71.226
71.2982
71.339
71.4174
71.462
71.534
71.5971
71.6464
73.1014
70.8715
70.2044
70.0568
69.9656
69.8569
69.7597
69.6883
69.6437
69.6213
69.6157
69.6222
69.6381
69.66
69.688
69.7186
69.7542
69.79
69.8316
69.8709
69.9181
69.9601
70.0134
70.0574
70.1175
70.1626
70.2305
70.2756
70.3517
70.3964
70.4784
70.527
70.6014
70.6694
70.7183
71.9315
69.7758
69.0914
68.9081
68.7836
68.6549
68.5502
68.4785
68.4376
68.4205
68.421
68.4336
68.4552
68.4828
68.5158
68.5514
68.5915
68.632
68.6776
68.7216
68.7726
68.8192
68.8763
68.9249
68.9889
69.0385
69.1105
69.1599
69.2402
69.289
69.375
69.4277
69.5052
69.5786
69.6277
70.5748
68.5122
67.7792
67.5402
67.3734
67.222
67.1093
67.0374
67.0006
66.9893
66.9964
67.0152
67.043
67.0761
67.1142
67.1546
67.1989
67.2438
67.2931
67.3413
67.3957
67.4467
67.5071
67.5602
67.6277
67.6819
67.7576
67.8115
67.8958
67.9487
68.0391
68.0956
68.1767
68.2549
68.3043
68.9303
66.9875
66.1758
65.8544
65.6298
65.4511
65.3307
65.2596
65.2273
65.2209
65.2329
65.2555
65.2868
65.3223
65.3627
65.405
65.4512
65.498
65.5492
65.6
65.6568
65.7112
65.7744
65.8316
65.9024
65.9611
66.0406
66.0993
66.1882
66.246
66.3416
66.4033
66.4902
66.575
66.6293
66.575
64.6697
63.8507
63.5245
63.2804
63.0867
62.9585
62.8826
62.8471
62.8371
62.8463
62.8653
62.8944
62.9273
62.9674
63.0093
63.0572
63.106
63.1608
63.2156
63.2773
63.3375
63.4068
63.4716
63.5496
63.6172
63.7057
63.7729
63.8732
63.9372
64.0469
64.1116
64.2154
64.3009
64.3723
63.074
61.5355
60.4574
59.9484
59.5924
59.3412
59.1853
59.0974
59.0601
59.0545
59.0739
59.1063
59.1532
59.2055
59.2684
59.3331
59.4071
59.4809
59.5636
59.6448
59.735
59.8225
59.9201
60.0164
60.1225
60.2171
60.3244
60.4169
60.5313
60.622
60.745
60.834
60.9591
61.0556
61.1714
55.4835
57.2183
56.1463
55.354
54.7486
54.3313
54.0869
53.9573
53.9141
53.9184
53.9641
54.0264
54.112
54.201
54.3063
54.4083
54.5242
54.6333
54.7556
54.8691
54.9957
55.1128
55.2426
55.3631
55.4952
55.6193
55.7526
55.8807
56.0143
56.1447
56.2803
56.4038
56.5573
56.6463
56.8629
13.0127
11.4035
11.4148
11.5415
11.7232
11.8933
12.0643
12.2156
12.3673
12.4979
12.6296
12.7412
12.8564
12.9531
13.0566
13.143
13.2393
13.3189
13.4115
13.4867
13.5784
13.65
13.7433
13.8109
13.9081
13.9695
14.0736
14.1249
14.2402
14.275
14.4077
14.4155
14.574
14.5384
14.7253
52.8625
51.8612
51.455
51.3873
51.423
51.4553
51.4619
51.4534
51.4358
51.4181
51.3997
51.3847
51.3704
51.3596
51.3499
51.3426
51.3366
51.3318
51.329
51.3255
51.3255
51.3225
51.3251
51.3219
51.3274
51.3232
51.3326
51.3262
51.3409
51.3313
51.3531
51.3394
51.371
51.3507
51.4006
52.6911
51.7001
51.2912
51.216
51.2469
51.2741
51.2786
51.2662
51.2479
51.2274
51.2097
51.1925
51.1805
51.1678
51.1612
51.152
51.1501
51.1432
51.1449
51.1394
51.1442
51.1393
51.1468
51.1419
51.1525
51.147
51.1611
51.1545
51.173
51.1651
51.1876
51.1801
51.2037
51.1988
51.2241
52.4925
51.5065
51.0947
51.0146
51.0418
51.0658
51.0679
51.0533
51.0338
51.0119
50.9939
50.9762
50.9645
50.9518
50.9462
50.9374
50.9369
50.9308
50.9346
50.9298
50.9374
50.9329
50.9442
50.9393
50.9545
50.9485
50.9683
50.9607
50.9855
50.9767
51.0058
50.9985
51.0281
51.0265
51.0567
52.255
51.2696
50.8595
50.7794
50.8056
50.8272
50.827
50.8102
50.7892
50.7662
50.748
50.7302
50.7192
50.7072
50.7028
50.6953
50.6965
50.6919
50.6976
50.6947
50.7043
50.7021
50.7155
50.7131
50.7305
50.7272
50.7493
50.7445
50.772
50.7654
50.7983
50.7911
50.8268
50.8209
50.8612
52.0123
51.0414
50.629
50.5408
50.5588
50.574
50.5687
50.5482
50.5244
50.4994
50.4799
50.4613
50.4499
50.4381
50.4341
50.4272
50.4292
50.4256
50.4325
50.4308
50.442
50.441
50.4563
50.4551
50.4748
50.4728
50.4975
50.4939
50.5243
50.5192
50.5548
50.5501
50.5874
50.5864
50.6263
51.7112
50.744
50.3354
50.247
50.2621
50.2733
50.2641
50.2404
50.2144
50.1882
50.168
50.1495
50.1385
50.1275
50.1244
50.119
50.1223
50.1205
50.129
50.1292
50.1422
50.1432
50.1606
50.1615
50.1834
50.1834
50.2106
50.209
50.2422
50.2386
50.2776
50.2737
50.3151
50.3132
50.3586
51.3808
50.4249
50.0185
49.9257
49.9336
49.9379
49.9228
49.8948
49.8656
49.8376
49.8162
49.7974
49.7864
49.776
49.7737
49.7694
49.7738
49.7734
49.7833
49.785
49.7996
49.8022
49.8213
49.8238
49.8477
49.8494
49.8787
49.8787
49.9143
49.9124
49.9537
49.9516
49.9952
49.9953
50.0429
51.0012
50.0573
49.655
49.5582
49.5584
49.5548
49.5329
49.5001
49.4675
49.4374
49.4149
49.3959
49.385
49.3754
49.3739
49.3709
49.3766
49.3778
49.3892
49.3926
49.4089
49.4133
49.4341
49.4385
49.4644
49.4678
49.4993
49.5011
49.539
49.5388
49.5825
49.582
49.6279
49.6293
49.679
50.5803
49.6504
49.2554
49.1559
49.148
49.1355
49.106
49.0679
49.0316
48.9998
48.9763
48.9574
48.9469
48.9384
48.938
48.9364
48.9435
48.9463
48.9592
48.9644
48.9822
48.9884
49.011
49.0171
49.0449
49.0501
49.0837
49.0872
49.1272
49.1287
49.1746
49.1758
49.2237
49.2268
49.2782
50.1473
49.2388
48.8471
48.7391
48.7189
48.6953
48.6575
48.6138
48.574
48.5403
48.5159
48.4971
48.487
48.4794
48.48
48.4798
48.4881
48.4925
48.5067
48.5135
48.5329
48.5407
48.5649
48.5726
48.6022
48.609
48.6445
48.6496
48.6918
48.6948
48.7428
48.7455
48.7952
48.7997
48.8528
49.6402
48.7498
48.3695
48.2604
48.2315
48.1976
48.1512
48.1018
48.0583
48.0231
47.9981
47.9798
47.9705
47.9643
47.9661
47.9677
47.9775
47.9837
47.9995
48.0081
48.0291
48.0387
48.0647
48.0742
48.1056
48.1142
48.1518
48.1586
48.2029
48.2075
48.2578
48.262
48.3137
48.3198
48.3745
49.0984
48.2407
47.8604
47.7357
47.6878
47.6384
47.5813
47.5255
47.4785
47.4418
47.4165
47.3989
47.3906
47.386
47.3893
47.3927
47.404
47.4121
47.4295
47.4401
47.4627
47.4742
47.5019
47.5134
47.5468
47.5573
47.597
47.6056
47.6522
47.6585
47.7111
47.717
47.7707
47.7785
47.8348
48.4418
47.614
47.2469
47.1193
47.0592
46.9963
46.9291
46.8669
46.8164
46.7785
46.7531
46.7367
46.7296
46.7269
46.7318
46.7374
46.7504
46.7607
46.7798
46.7926
46.8169
46.8307
46.8603
46.8739
46.9094
46.922
46.964
46.9746
47.0237
47.0319
47.087
47.0947
47.1506
47.1603
47.2184
47.7236
46.9427
46.5714
46.421
46.335
46.2521
46.1722
46.1032
46.0495
46.0111
45.9863
45.9716
45.9663
45.9662
45.9731
45.9813
45.9963
46.0092
46.0302
46.0455
46.0717
46.0881
46.1197
46.1359
46.1735
46.1886
46.233
46.2458
46.2976
46.3078
46.3657
46.3753
46.4336
46.4453
46.5051
46.8459
46.1181
45.7545
45.5914
45.4839
45.3818
45.2894
45.2132
45.1565
45.1173
45.0932
45.0801
45.0765
45.0786
45.0873
45.0979
45.1145
45.13
45.1525
45.1704
45.1982
45.2172
45.2505
45.2693
45.3089
45.3264
45.3731
45.3882
45.4426
45.4548
45.5155
45.527
45.5881
45.6017
45.6641
45.8226
45.1593
44.7883
44.5979
44.4593
44.333
44.226
44.1416
44.0816
44.0416
44.0184
44.0067
44.0049
44.009
44.0193
44.032
44.0498
44.0674
44.0909
44.1111
44.1397
44.1611
44.1954
44.2168
44.2576
44.2778
44.3262
44.3437
44.4004
44.4146
44.4783
44.4913
44.5557
44.5704
44.6361
44.5799
44.0028
43.6112
43.3757
43.1919
43.0335
42.9088
42.8143
42.7501
42.7069
42.6827
42.6693
42.6667
42.6691
42.6784
42.6899
42.7067
42.7238
42.7464
42.7672
42.7955
42.8186
42.853
42.8769
42.9184
42.9414
42.9913
43.012
43.0709
43.0883
43.1551
43.1711
43.2397
43.2574
43.3294
43.0292
42.415
41.9908
41.7335
41.5218
41.3351
41.1887
41.0746
40.9959
40.9382
40.9037
40.8789
40.8693
40.8637
40.8691
40.876
40.8919
40.9077
40.9315
40.9537
40.9843
41.0111
41.0485
41.0781
41.1233
41.1534
41.2078
41.2354
41.3
41.3231
41.3967
41.4167
41.4939
41.5143
41.5956
40.8416
40.5284
39.9127
39.4675
39.1177
38.84
38.6393
38.4909
38.3955
38.3277
38.2939
38.2709
38.2714
38.274
38.2949
38.3134
38.3476
38.377
38.4202
38.4575
38.5074
38.5503
38.6059
38.6553
38.7173
38.7663
38.8298
38.8757
38.9447
38.9874
39.0645
39.1029
39.1877
39.2214
39.3174
37.8605
40.6892
39.8768
38.923
38.1187
37.4998
37.061
36.7468
36.5383
36.3897
36.301
36.237
36.211
36.1922
36.2014
36.2084
36.2384
36.2606
36.3036
36.3357
36.3869
36.4261
36.4825
36.5276
36.5873
36.6381
36.6993
36.7558
36.8179
36.8781
36.944
36.9997
37.0828
37.1159
37.2471
14.2719
12.6876
12.7647
12.9739
13.2221
13.4384
13.6431
13.8159
13.9839
14.124
14.2636
14.3788
14.4978
14.5951
14.7002
14.7854
14.8821
14.9594
15.0516
15.1237
15.2145
15.2828
15.3748
15.4388
15.5344
15.5925
15.6945
15.7434
15.8555
15.8898
16.0173
16.0288
16.1775
16.1551
16.3246
37.6238
37.2103
36.9824
36.8898
36.8747
36.8848
36.8914
36.8911
36.8828
36.8729
36.8604
36.8494
36.8381
36.8289
36.8203
36.8131
36.8074
36.8016
36.7985
36.7935
36.7928
36.7879
36.7895
36.7838
36.788
36.7806
36.7882
36.7778
36.7899
36.7753