/*--------------------------------*- C++ -*----------------------------------*\
  =========                 |
  \\      /  F ield         | OpenFOAM: The Open Source CFD Toolbox
   \\    /   O peration     | Website:  https://openfoam.org
    \\  /    A nd           | Version:  6
     \\/     M anipulation  |
\*---------------------------------------------------------------------------*/
FoamFile
{
    version     2.0;
    format      ascii;
    class       volScalarField;
    location    "45";
    object      p;
}
// * * * * * * * * * * * * * * * * * * * * * * * * * * * * * * * * * * * * * //

dimensions      [0 2 -2 0 0 0 0];

internalField   nonuniform List<scalar> 
380496
(
0.0129075
0.0132577
0.0130103
0.0129314
0.0128698
0.0128024
0.0127354
0.0126651
0.0125914
0.0125148
0.0124357
0.0123544
0.0122709
0.0121856
0.0120984
0.0120092
0.0119179
0.0118242
0.0117279
0.0116285
0.0115256
0.0114187
0.0113074
0.0111911
0.0110692
0.0109411
0.0108065
0.0106645
0.010515
0.010357
0.0101916
0.0100161
0.00983754
0.00964298
0.00946598
0.0128749
0.0132161
0.0129797
0.012906
0.012848
0.0127829
0.0127166
0.0126458
0.0125707
0.0124918
0.0124097
0.0123247
0.012237
0.0121469
0.0120544
0.0119594
0.0118619
0.0117617
0.0116584
0.0115517
0.0114413
0.0113267
0.0112076
0.0110834
0.0109539
0.0108182
0.0106763
0.0105274
0.0103716
0.0102075
0.0100371
0.00985474
0.00967169
0.00946049
0.00927951
0.0128392
0.0131739
0.0129479
0.0128801
0.0128259
0.0127629
0.0126971
0.0126255
0.0125484
0.0124666
0.0123808
0.0122914
0.0121988
0.0121032
0.0120046
0.0119031
0.0117985
0.0116907
0.0115794
0.0114642
0.011345
0.0112211
0.0110926
0.0109586
0.0108192
0.0106735
0.0105218
0.010363
0.010198
0.0100248
0.00984656
0.00965669
0.00946976
0.00925394
0.00907847
0.0127967
0.0131286
0.012915
0.0128546
0.0128054
0.0127454
0.0126806
0.0126085
0.0125298
0.0124457
0.0123567
0.0122636
0.0121667
0.0120662
0.0119625
0.0118553
0.0117447
0.0116305
0.0115126
0.0113906
0.0112643
0.0111333
0.0109976
0.0108564
0.0107099
0.0105575
0.0103993
0.0102345
0.0100639
0.00988566
0.00970324
0.00950897
0.00931933
0.00909773
0.00892187
0.0127576
0.0130804
0.0128823
0.0128302
0.0127862
0.0127291
0.0126653
0.0125926
0.0125122
0.0124254
0.0123332
0.0122361
0.0121347
0.0120294
0.0119203
0.0118074
0.0116908
0.0115702
0.0114456
0.0113167
0.0111833
0.011045
0.0109019
0.0107535
0.0105998
0.0104403
0.0102753
0.010104
0.00992756
0.00974391
0.00955705
0.00935879
0.00916734
0.0089433
0.00877125
0.0127069
0.0130291
0.0128487
0.0128065
0.0127688
0.0127153
0.0126526
0.0125795
0.0124976
0.0124084
0.012313
0.0122122
0.0121068
0.0119969
0.011883
0.011765
0.011643
0.0115167
0.0113862
0.0112513
0.0111118
0.0109674
0.0108183
0.0106639
0.0105044
0.0103395
0.0101695
0.00999362
0.00981313
0.00962599
0.00943649
0.00923584
0.00904361
0.00881747
0.00864788
0.0126552
0.0129749
0.0128151
0.0127842
0.0127535
0.0127037
0.0126422
0.0125687
0.0124851
0.0123933
0.0122948
0.0121904
0.0120809
0.0119667
0.0118481
0.0117251
0.0115978
0.0114662
0.0113302
0.0111895
0.0110443
0.0108942
0.0107394
0.0105794
0.0104147
0.0102447
0.01007
0.00988993
0.00970579
0.00951551
0.00932372
0.00912119
0.00892875
0.00870161
0.00853581
0.0125957
0.012918
0.0127824
0.0127643
0.0127411
0.0126952
0.0126349
0.0125608
0.0124754
0.0123812
0.0122796
0.0121717
0.0120584
0.0119401
0.0118172
0.0116896
0.0115577
0.0114212
0.0112802
0.0111345
0.0109843
0.0108293
0.0106696
0.0105051
0.0103359
0.0101619
0.00998364
0.00980043
0.0096137
0.00942135
0.00922829
0.00902479
0.00883287
0.00860522
0.00844323
0.0125291
0.0128602
0.0127512
0.0127472
0.0127322
0.0126902
0.0126309
0.0125562
0.0124691
0.0123724
0.0122679
0.0121568
0.0120401
0.0119181
0.0117913
0.0116598
0.0115238
0.011383
0.0112378
0.0110878
0.0109333
0.0107741
0.0106104
0.0104419
0.0102692
0.010092
0.00991076
0.00972506
0.00953636
0.00934248
0.0091486
0.00894452
0.00875334
0.00852547
0.00836708
0.0124651
0.0128081
0.0127257
0.0127352
0.0127276
0.0126885
0.0126298
0.0125542
0.0124653
0.0123664
0.0122593
0.0121454
0.0120257
0.0119006
0.0117706
0.0116357
0.0114962
0.011352
0.0112032
0.0110497
0.0108918
0.0107292
0.0105623
0.0103909
0.0102154
0.0100357
0.00985237
0.00966495
0.00947497
0.0092802
0.00908604
0.00888185
0.00869168
0.00846383
0.00830878
0.0123858
0.012754
0.0127003
0.0127251
0.0127257
0.0126897
0.0126314
0.0125548
0.0124641
0.0123629
0.0122533
0.0121367
0.0120142
0.0118862
0.0117532
0.0116153
0.0114728
0.0113255
0.0111736
0.0110171
0.0108561
0.0106907
0.010521
0.0103471
0.0101693
0.00998755
0.00980256
0.0096138
0.00942289
0.00922756
0.00903337
0.00882929
0.00864023
0.00841257
0.0082607
0.0123088
0.0127056
0.0126804
0.01272
0.0127275
0.0126935
0.012635
0.0125571
0.0124645
0.0123611
0.0122491
0.0121301
0.012005
0.0118745
0.0117389
0.0115984
0.0114531
0.0113032
0.0111487
0.0109896
0.0108261
0.0106582
0.0104863
0.0103103
0.0101307
0.00994737
0.00976111
0.00957141
0.00937995
0.00918439
0.00899045
0.00878674
0.00859892
0.00837159
0.00822272
0.0122112
0.0126575
0.0126615
0.0127178
0.0127327
0.0127003
0.0126414
0.0125619
0.0124672
0.0123615
0.0122472
0.0121258
0.0119984
0.0118655
0.0117276
0.0115847
0.0114371
0.0112848
0.011128
0.0109667
0.0108011
0.0106312
0.0104574
0.0102796
0.0100985
0.0099139
0.00972667
0.00953631
0.00934453
0.00914896
0.00895546
0.0087523
0.00856577
0.00833898
0.0081929
0.0121141
0.0126173
0.0126476
0.0127197
0.0127404
0.0127086
0.0126488
0.0125675
0.0124707
0.0123628
0.0122464
0.0121229
0.0119934
0.0118585
0.0117185
0.0115736
0.0114241
0.0112698
0.0111111
0.0109479
0.0107805
0.0106089
0.0104336
0.0102544
0.0100721
0.0098866
0.00969866
0.00950789
0.00931602
0.00912066
0.00892774
0.00872532
0.00854008
0.00831401
0.00817033
0.0119972
0.0125827
0.0126374
0.0127265
0.0127524
0.0127204
0.0126589
0.0125754
0.0124762
0.0123661
0.0122475
0.012122
0.0119906
0.0118538
0.011712
0.0115653
0.011414
0.0112581
0.0110977
0.010933
0.0107641
0.0105911
0.0104145
0.0102343
0.010051
0.00986473
0.00967628
0.00948527
0.00929346
0.00909846
0.00890624
0.00870478
0.0085209
0.00829606
0.00815462
0.0118733
0.0125569
0.0126294
0.0127348
0.0127646
0.0127317
0.0126687
0.0125829
0.0124816
0.0123694
0.0122489
0.0121217
0.0119886
0.0118503
0.011707
0.0115589
0.0114062
0.0112489
0.0110873
0.0109213
0.0107512
0.0105771
0.0103995
0.0102184
0.0100344
0.00984763
0.00965886
0.00946778
0.00927614
0.00908162
0.00889014
0.00868981
0.00850703
0.00828366
0.00814319
0.0117393
0.0125439
0.0126296
0.0127512
0.0127823
0.012747
0.0126812
0.0125927
0.0124889
0.0123745
0.0122522
0.0121232
0.0119886
0.0118489
0.0117043
0.0115549
0.011401
0.0112426
0.0110798
0.0109128
0.0107417
0.0105668
0.0103884
0.0102067
0.0100222
0.009835
0.00964602
0.00945496
0.00926356
0.00906963
0.00887896
0.00868007
0.00849853
0.00827813
0.00813855
0.0115877
0.0125384
0.012626
0.0127643
0.0127967
0.0127594
0.0126913
0.0126004
0.0124946
0.0123785
0.0122547
0.0121245
0.0119888
0.011848
0.0117024
0.0115521
0.0113974
0.0112381
0.0110746
0.0109068
0.0107351
0.0105595
0.0103806
0.0101984
0.0100135
0.00982614
0.00963706
0.00944612
0.00925498
0.00906168
0.0088717
0.00867438
0.00849326
0.00827589
0.00813203
0.0114415
0.0125537
0.0126361
0.0127871
0.0128166
0.0127754
0.0127041
0.0126104
0.0125023
0.0123845
0.0122592
0.0121277
0.0119909
0.0118492
0.0117028
0.0115517
0.0113962
0.0112363
0.0110722
0.0109039
0.0107317
0.0105557
0.0103764
0.0101939
0.0100088
0.00982123
0.00963212
0.00944131
0.00925044
0.00905775
0.00886856
0.00867302
0.00849342
0.0082822
0.00813591
0.0112871
0.0125612
0.0126354
0.0128028
0.0128304
0.0127868
0.0127132
0.0126175
0.012508
0.012389
0.0122629
0.0121307
0.0119933
0.011851
0.0117041
0.0115526
0.0113967
0.0112364
0.0110719
0.0109032
0.0107307
0.0105545
0.010375
0.0101923
0.0100071
0.00981947
0.00963035
0.00943967
0.00924896
0.00905683
0.00886804
0.0086744
0.00849441
0.00828935
0.00813142
0.01121
0.0125861
0.0126468
0.0128227
0.0128468
0.0128007
0.0127247
0.0126271
0.0125161
0.0123959
0.0122688
0.0121358
0.0119978
0.0118549
0.0117075
0.0115556
0.0113994
0.0112387
0.011074
0.0109051
0.0107325
0.0105561
0.0103765
0.0101938
0.0100085
0.00982092
0.00963188
0.00944125
0.00925078
0.00905886
0.00887081
0.00867802
0.00850254
0.00830204
0.00817808
0.0129067
0.0132563
0.0130102
0.0129314
0.0128699
0.0128024
0.0127354
0.0126651
0.0125914
0.0125148
0.0124357
0.0123544
0.0122709
0.0121856
0.0120984
0.0120092
0.0119179
0.0118242
0.0117279
0.0116285
0.0115256
0.0114187
0.0113074
0.0111911
0.0110693
0.0109412
0.0108066
0.0106645
0.0105151
0.010357
0.0101917
0.0100162
0.00983768
0.00964317
0.0094662
0.012874
0.0132148
0.0129796
0.012906
0.0128481
0.0127828
0.0127166
0.0126458
0.0125707
0.0124918
0.0124097
0.0123247
0.012237
0.0121469
0.0120544
0.0119594
0.0118619
0.0117617
0.0116584
0.0115517
0.0114413
0.0113267
0.0112077
0.0110835
0.0109539
0.0108183
0.0106764
0.0105274
0.0103717
0.0102076
0.0100372
0.00985489
0.00967184
0.00946071
0.00927974
0.0128383
0.0131725
0.0129478
0.0128801
0.012826
0.0127629
0.0126971
0.0126255
0.0125483
0.0124666
0.0123808
0.0122914
0.0121988
0.0121032
0.0120046
0.0119031
0.0117985
0.0116907
0.0115794
0.0114642
0.011345
0.0112212
0.0110926
0.0109586
0.0108192
0.0106736
0.0105218
0.0103631
0.010198
0.0100249
0.00984666
0.00965683
0.00946988
0.00925412
0.00907867
0.0127958
0.0131272
0.0129149
0.0128547
0.0128055
0.0127454
0.0126805
0.0126085
0.0125298
0.0124457
0.0123567
0.0122636
0.0121667
0.0120662
0.0119625
0.0118553
0.0117448
0.0116306
0.0115126
0.0113906
0.0112643
0.0111334
0.0109976
0.0108565
0.01071
0.0105575
0.0103993
0.0102345
0.010064
0.00988576
0.00970333
0.0095091
0.00931945
0.00909792
0.00892207
0.0127565
0.013079
0.0128822
0.0128302
0.0127862
0.0127291
0.0126652
0.0125926
0.0125122
0.0124254
0.0123332
0.0122361
0.0121347
0.0120294
0.0119203
0.0118074
0.0116908
0.0115702
0.0114457
0.0113167
0.0111833
0.0110451
0.010902
0.0107535
0.0105998
0.0104403
0.0102753
0.0101041
0.00992763
0.00974399
0.00955713
0.0093589
0.00916745
0.00894347
0.00877142
0.0127059
0.0130278
0.0128486
0.0128065
0.0127688
0.0127153
0.0126526
0.0125795
0.0124976
0.0124084
0.012313
0.0122122
0.0121068
0.0119969
0.011883
0.011765
0.011643
0.0115167
0.0113863
0.0112513
0.0111118
0.0109675
0.0108183
0.0106639
0.0105045
0.0103395
0.0101695
0.00999368
0.0098132
0.00962607
0.00943657
0.00923595
0.0090437
0.00881762
0.00864802
0.0126541
0.0129736
0.012815
0.0127842
0.0127535
0.0127037
0.0126422
0.0125687
0.0124851
0.0123933
0.0122948
0.0121904
0.0120809
0.0119667
0.0118481
0.0117251
0.0115979
0.0114662
0.0113302
0.0111895
0.0110443
0.0108942
0.0107394
0.0105795
0.0104147
0.0102447
0.01007
0.00988999
0.00970585
0.00951558
0.00932379
0.00912129
0.00892884
0.00870175
0.00853594
0.0125945
0.0129168
0.0127824
0.0127643
0.0127411
0.0126952
0.0126349
0.0125608
0.0124754
0.0123812
0.0122796
0.0121717
0.0120584
0.0119401
0.0118172
0.0116897
0.0115577
0.0114212
0.0112802
0.0111346
0.0109843
0.0108293
0.0106696
0.0105051
0.010336
0.010162
0.00998368
0.00980048
0.00961375
0.00942141
0.00922835
0.00902488
0.00883295
0.00860534
0.00844334
0.012528
0.012859
0.0127512
0.0127472
0.0127322
0.0126902
0.0126309
0.0125562
0.0124691
0.0123724
0.0122679
0.0121569
0.0120401
0.0119181
0.0117914
0.0116598
0.0115238
0.011383
0.0112378
0.0110878
0.0109333
0.0107741
0.0106104
0.010442
0.0102693
0.010092
0.0099108
0.00972511
0.00953641
0.00934254
0.00914865
0.00894459
0.0087534
0.00852558
0.00836717
0.0124639
0.012807
0.0127256
0.0127352
0.0127276
0.0126885
0.0126298
0.0125542
0.0124653
0.0123664
0.0122593
0.0121454
0.0120257
0.0119006
0.0117706
0.0116357
0.0114962
0.011352
0.0112032
0.0110497
0.0108918
0.0107292
0.0105623
0.0103909
0.0102154
0.0100357
0.0098524
0.00966499
0.00947501
0.00928025
0.00908609
0.00888192
0.00869173
0.00846393
0.00830886
0.0123847
0.0127529
0.0127003
0.0127252
0.0127257
0.0126897
0.0126314
0.0125548
0.0124641
0.0123629
0.0122533
0.0121368
0.0120142
0.0118862
0.0117532
0.0116153
0.0114728
0.0113255
0.0111736
0.0110171
0.0108561
0.0106907
0.010521
0.0103471
0.0101693
0.00998758
0.00980259
0.00961383
0.00942293
0.0092276
0.00903341
0.00882935
0.00864027
0.00841266
0.00826077
0.0123076
0.0127046
0.0126803
0.01272
0.0127275
0.0126935
0.012635
0.0125571
0.0124645
0.0123611
0.0122491
0.0121301
0.012005
0.0118745
0.0117389
0.0115984
0.0114531
0.0113032
0.0111487
0.0109896
0.0108261
0.0106583
0.0104863
0.0103103
0.0101307
0.00994739
0.00976114
0.00957144
0.00937999
0.00918443
0.00899049
0.00878679
0.00859895
0.00837167
0.00822278
0.0122101
0.0126566
0.0126615
0.0127178
0.0127327
0.0127003
0.0126414
0.0125619
0.0124672
0.0123615
0.0122472
0.0121258
0.0119984
0.0118655
0.0117276
0.0115847
0.0114371
0.0112848
0.011128
0.0109667
0.0108011
0.0106312
0.0104574
0.0102796
0.0100985
0.00991393
0.00972669
0.00953634
0.00934456
0.009149
0.00895549
0.00875234
0.0085658
0.00833906
0.00819296
0.0121129
0.0126165
0.0126476
0.0127197
0.0127404
0.0127086
0.0126488
0.0125675
0.0124707
0.0123628
0.0122464
0.0121229
0.0119934
0.0118585
0.0117185
0.0115736
0.0114241
0.0112698
0.0111111
0.0109479
0.0107805
0.0106089
0.0104336
0.0102545
0.0100722
0.00988662
0.00969868
0.00950791
0.00931605
0.00912069
0.00892776
0.00872536
0.00854011
0.00831408
0.00817038
0.0119961
0.0125819
0.0126374
0.0127266
0.0127524
0.0127204
0.0126589
0.0125754
0.0124762
0.0123661
0.0122475
0.012122
0.0119906
0.0118538
0.011712
0.0115653
0.011414
0.0112581
0.0110977
0.010933
0.0107641
0.0105911
0.0104145
0.0102343
0.010051
0.00986474
0.0096763
0.0094853
0.00929349
0.00909849
0.00890626
0.00870482
0.00852092
0.00829613
0.00815466
0.0118722
0.0125562
0.0126294
0.0127348
0.0127646
0.0127317
0.0126686
0.0125829
0.0124816
0.0123694
0.0122489
0.0121217
0.0119886
0.0118503
0.011707
0.0115589
0.0114062
0.0112489
0.0110873
0.0109213
0.0107512
0.0105771
0.0103995
0.0102184
0.0100344
0.00984765
0.00965888
0.0094678
0.00927616
0.00908165
0.00889016
0.00868984
0.00850705
0.00828373
0.00814323
0.0117382
0.0125433
0.0126295
0.0127512
0.0127823
0.012747
0.0126812
0.0125927
0.0124889
0.0123745
0.0122522
0.0121232
0.0119886
0.0118489
0.0117043
0.0115549
0.011401
0.0112426
0.0110798
0.0109128
0.0107418
0.0105669
0.0103884
0.0102067
0.0100222
0.00983502
0.00964604
0.00945498
0.00926358
0.00906967
0.00887898
0.00868011
0.00849855
0.0082782
0.00813859
0.0115869
0.0125379
0.012626
0.0127643
0.0127967
0.0127594
0.0126913
0.0126004
0.0124946
0.0123785
0.0122547
0.0121245
0.0119888
0.011848
0.0117024
0.0115521
0.0113974
0.0112381
0.0110746
0.0109068
0.0107351
0.0105596
0.0103806
0.0101984
0.0100135
0.00982617
0.00963709
0.00944615
0.00925501
0.00906172
0.00887174
0.00867442
0.00849329
0.00827596
0.00813207
0.0114406
0.0125534
0.0126361
0.0127871
0.0128166
0.0127754
0.0127041
0.0126104
0.0125023
0.0123845
0.0122592
0.0121277
0.011991
0.0118492
0.0117028
0.0115517
0.0113963
0.0112363
0.0110722
0.0109039
0.0107317
0.0105557
0.0103764
0.010194
0.0100088
0.00982127
0.00963215
0.00944134
0.00925048
0.00905779
0.0088686
0.00867307
0.00849346
0.00828227
0.00813593
0.0112862
0.0125612
0.0126355
0.0128029
0.0128305
0.0127869
0.0127133
0.0126176
0.0125081
0.0123891
0.0122629
0.0121307
0.0119934
0.011851
0.0117041
0.0115526
0.0113968
0.0112364
0.0110719
0.0109032
0.0107308
0.0105545
0.010375
0.0101923
0.0100071
0.0098195
0.00963039
0.00943971
0.009249
0.00905687
0.00886809
0.00867444
0.00849446
0.00828938
0.00813139
0.0112112
0.0125865
0.012647
0.0128227
0.0128468
0.0128006
0.0127247
0.0126271
0.012516
0.0123958
0.0122687
0.0121357
0.0119977
0.0118548
0.0117074
0.0115555
0.0113993
0.0112387
0.011074
0.0109051
0.0107324
0.0105561
0.0103764
0.0101937
0.0100085
0.00982085
0.00963181
0.00944119
0.00925072
0.0090588
0.00887074
0.00867796
0.00850247
0.008302
0.00817809
0.0129093
0.0132536
0.01301
0.0129315
0.0128699
0.0128024
0.0127354
0.0126651
0.0125914
0.0125148
0.0124357
0.0123544
0.0122709
0.0121856
0.0120984
0.0120092
0.0119179
0.0118242
0.0117279
0.0116285
0.0115256
0.0114187
0.0113074
0.0111911
0.0110693
0.0109412
0.0108066
0.0106645
0.0105151
0.0103571
0.0101917
0.0100162
0.00983769
0.0096432
0.00946632
0.0128765
0.0132122
0.0129794
0.0129061
0.0128481
0.0127829
0.0127166
0.0126458
0.0125707
0.0124918
0.0124097
0.0123247
0.012237
0.0121469
0.0120544
0.0119594
0.0118619
0.0117617
0.0116584
0.0115517
0.0114413
0.0113267
0.0112077
0.0110835
0.0109539
0.0108183
0.0106764
0.0105275
0.0103717
0.0102076
0.0100372
0.00985493
0.00967188
0.00946076
0.00927981
0.0128408
0.0131701
0.0129476
0.0128802
0.012826
0.0127629
0.0126971
0.0126255
0.0125483
0.0124666
0.0123808
0.0122914
0.0121988
0.0121032
0.0120046
0.0119031
0.0117985
0.0116907
0.0115794
0.0114642
0.011345
0.0112212
0.0110926
0.0109586
0.0108192
0.0106736
0.0105218
0.0103631
0.010198
0.0100249
0.00984666
0.00965684
0.00946989
0.00925416
0.00907873
0.0127983
0.0131247
0.0129148
0.0128547
0.0128055
0.0127454
0.0126805
0.0126085
0.0125298
0.0124457
0.0123567
0.0122636
0.0121667
0.0120662
0.0119625
0.0118553
0.0117448
0.0116306
0.0115126
0.0113906
0.0112643
0.0111334
0.0109976
0.0108565
0.01071
0.0105576
0.0103994
0.0102346
0.010064
0.00988579
0.00970336
0.00950914
0.00931948
0.00909798
0.00892214
0.0127589
0.0130767
0.012882
0.0128303
0.0127863
0.0127291
0.0126652
0.0125926
0.0125122
0.0124254
0.0123332
0.0122361
0.0121347
0.0120294
0.0119203
0.0118074
0.0116908
0.0115702
0.0114456
0.0113167
0.0111833
0.0110451
0.010902
0.0107535
0.0105998
0.0104403
0.0102753
0.0101041
0.00992764
0.00974402
0.00955715
0.00935893
0.00916747
0.00894352
0.0087715
0.0127083
0.0130255
0.0128484
0.0128066
0.0127689
0.0127153
0.0126526
0.0125795
0.0124976
0.0124083
0.012313
0.0122122
0.0121068
0.0119969
0.011883
0.011765
0.011643
0.0115167
0.0113863
0.0112513
0.0111118
0.0109675
0.0108183
0.0106639
0.0105045
0.0103396
0.0101695
0.00999371
0.00981322
0.0096261
0.00943659
0.009236
0.00904373
0.00881769
0.00864811
0.0126564
0.0129714
0.0128149
0.0127843
0.0127535
0.0127037
0.0126422
0.0125687
0.0124851
0.0123933
0.0122948
0.0121904
0.0120809
0.0119667
0.0118481
0.0117251
0.0115978
0.0114662
0.0113302
0.0111895
0.0110443
0.0108942
0.0107394
0.0105795
0.0104147
0.0102447
0.0100701
0.00989001
0.00970586
0.00951561
0.00932381
0.00912133
0.00892886
0.00870181
0.00853603
0.0125968
0.0129147
0.0127822
0.0127644
0.0127412
0.0126952
0.0126349
0.0125608
0.0124754
0.0123812
0.0122796
0.0121717
0.0120584
0.0119401
0.0118172
0.0116897
0.0115577
0.0114212
0.0112802
0.0111346
0.0109843
0.0108293
0.0106696
0.0105051
0.010336
0.010162
0.0099837
0.0098005
0.00961377
0.00942144
0.00922838
0.00902492
0.00883297
0.00860541
0.00844345
0.0125302
0.012857
0.012751
0.0127472
0.0127323
0.0126902
0.0126309
0.0125561
0.0124691
0.0123724
0.0122679
0.0121568
0.0120401
0.0119181
0.0117914
0.0116598
0.0115238
0.011383
0.0112378
0.0110878
0.0109333
0.0107741
0.0106104
0.010442
0.0102693
0.010092
0.00991081
0.00972514
0.00953643
0.00934257
0.00914867
0.00894463
0.00875343
0.00852565
0.00836728
0.012466
0.0128051
0.0127255
0.0127352
0.0127276
0.0126885
0.0126298
0.0125542
0.0124653
0.0123664
0.0122593
0.0121454
0.0120257
0.0119006
0.0117706
0.0116357
0.0114962
0.011352
0.0112032
0.0110497
0.0108918
0.0107292
0.0105623
0.0103909
0.0102154
0.0100357
0.00985242
0.00966502
0.00947503
0.00928029
0.00908611
0.00888196
0.00869176
0.00846401
0.00830897
0.0123868
0.012751
0.0127001
0.0127252
0.0127257
0.0126897
0.0126314
0.0125548
0.0124641
0.0123629
0.0122533
0.0121367
0.0120142
0.0118862
0.0117532
0.0116153
0.0114728
0.0113255
0.0111736
0.0110171
0.0108562
0.0106907
0.010521
0.0103471
0.0101693
0.0099876
0.0098026
0.00961386
0.00942295
0.00922764
0.00903343
0.00882939
0.0086403
0.00841274
0.00826088
0.0123095
0.0127029
0.0126802
0.0127201
0.0127276
0.0126935
0.012635
0.0125571
0.0124645
0.0123611
0.0122491
0.0121301
0.012005
0.0118745
0.0117389
0.0115984
0.0114531
0.0113032
0.0111487
0.0109896
0.0108261
0.0106583
0.0104864
0.0103103
0.0101307
0.00994741
0.00976115
0.00957147
0.00938
0.00918446
0.00899051
0.00878683
0.00859897
0.00837175
0.0082229
0.0122119
0.0126549
0.0126614
0.0127178
0.0127327
0.0127003
0.0126414
0.0125619
0.0124672
0.0123615
0.0122472
0.0121258
0.0119984
0.0118655
0.0117276
0.0115847
0.0114371
0.0112848
0.011128
0.0109667
0.0108011
0.0106312
0.0104574
0.0102796
0.0100985
0.00991395
0.00972671
0.00953636
0.00934458
0.00914903
0.00895551
0.00875239
0.00856582
0.00833914
0.00819307
0.0121145
0.012615
0.0126475
0.0127197
0.0127404
0.0127086
0.0126488
0.0125675
0.0124707
0.0123628
0.0122463
0.0121229
0.0119934
0.0118585
0.0117185
0.0115736
0.0114241
0.0112698
0.0111111
0.0109479
0.0107805
0.0106089
0.0104336
0.0102545
0.0100722
0.00988664
0.0096987
0.00950794
0.00931606
0.00912072
0.00892778
0.0087254
0.00854013
0.00831416
0.00817049
0.0119977
0.0125806
0.0126373
0.0127266
0.0127524
0.0127203
0.0126589
0.0125754
0.0124762
0.0123661
0.0122475
0.012122
0.0119906
0.0118538
0.011712
0.0115653
0.011414
0.0112581
0.0110977
0.010933
0.0107641
0.0105911
0.0104145
0.0102343
0.010051
0.00986476
0.00967632
0.00948532
0.0092935
0.00909852
0.00890628
0.00870486
0.00852094
0.00829622
0.00815478
0.0118737
0.012555
0.0126293
0.0127348
0.0127646
0.0127317
0.0126686
0.0125829
0.0124815
0.0123694
0.0122489
0.0121217
0.0119886
0.0118503
0.011707
0.0115589
0.0114062
0.0112489
0.0110873
0.0109213
0.0107512
0.0105771
0.0103995
0.0102184
0.0100345
0.00984767
0.00965889
0.00946783
0.00927618
0.00908169
0.00889019
0.00868989
0.00850707
0.00828382
0.00814334
0.0117395
0.0125423
0.0126295
0.0127512
0.0127823
0.012747
0.0126812
0.0125926
0.0124888
0.0123745
0.0122521
0.0121232
0.0119886
0.0118489
0.0117042
0.0115549
0.011401
0.0112426
0.0110798
0.0109128
0.0107418
0.0105669
0.0103885
0.0102067
0.0100222
0.00983505
0.00964606
0.00945502
0.00926361
0.00906971
0.00887901
0.00868016
0.00849858
0.0082783
0.00813871
0.0115881
0.012537
0.0126259
0.0127643
0.0127967
0.0127594
0.0126913
0.0126004
0.0124945
0.0123785
0.0122547
0.0121245
0.0119888
0.011848
0.0117024
0.0115521
0.0113974
0.0112381
0.0110746
0.0109068
0.0107351
0.0105596
0.0103806
0.0101985
0.0100136
0.00982621
0.00963713
0.0094462
0.00925506
0.00906178
0.00887178
0.00867449
0.00849333
0.00827607
0.00813218
0.0114415
0.0125529
0.0126361
0.0127871
0.0128165
0.0127754
0.0127041
0.0126104
0.0125023
0.0123845
0.0122592
0.0121277
0.011991
0.0118492
0.0117028
0.0115518
0.0113963
0.0112364
0.0110723
0.0109039
0.0107318
0.0105558
0.0103765
0.010194
0.0100089
0.00982133
0.00963221
0.00944141
0.00925054
0.00905786
0.00886866
0.00867315
0.00849351
0.00828238
0.00813601
0.0112868
0.012561
0.0126358
0.0128032
0.0128308
0.0127871
0.0127134
0.0126177
0.0125082
0.0123892
0.0122631
0.0121308
0.0119934
0.0118511
0.0117042
0.0115527
0.0113968
0.0112365
0.011072
0.0109033
0.0107308
0.0105546
0.010375
0.0101924
0.0100071
0.00981955
0.00963044
0.00943976
0.00924906
0.00905692
0.00886814
0.00867449
0.00849451
0.00828937
0.00813093
0.0112123
0.0125869
0.0126471
0.0128227
0.0128468
0.0128005
0.0127246
0.012627
0.012516
0.0123958
0.0122687
0.0121356
0.0119976
0.0118547
0.0117074
0.0115554
0.0113992
0.0112386
0.0110739
0.010905
0.0107324
0.010556
0.0103764
0.0101936
0.0100084
0.00982079
0.00963174
0.00944112
0.00925064
0.00905873
0.00887067
0.0086779
0.00850238
0.008302
0.00817835
0.0129127
0.0132501
0.0130098
0.0129315
0.01287
0.0128025
0.0127354
0.0126651
0.0125913
0.0125148
0.0124357
0.0123544
0.0122709
0.0121856
0.0120984
0.0120092
0.0119179
0.0118242
0.0117279
0.0116285
0.0115256
0.0114187
0.0113074
0.0111911
0.0110693
0.0109412
0.0108066
0.0106645
0.0105151
0.0103571
0.0101918
0.0100162
0.00983771
0.00964326
0.00946656
0.0128799
0.0132088
0.0129792
0.0129061
0.0128482
0.0127829
0.0127166
0.0126458
0.0125707
0.0124918
0.0124097
0.0123247
0.012237
0.0121469
0.0120544
0.0119594
0.0118619
0.0117617
0.0116584
0.0115517
0.0114413
0.0113268
0.0112077
0.0110835
0.0109539
0.0108183
0.0106764
0.0105275
0.0103718
0.0102077
0.0100373
0.009855
0.00967194
0.00946086
0.00927997
0.012844
0.0131667
0.0129474
0.0128802
0.0128261
0.012763
0.0126971
0.0126255
0.0125483
0.0124666
0.0123808
0.0122914
0.0121988
0.0121031
0.0120046
0.0119031
0.0117985
0.0116907
0.0115794
0.0114642
0.011345
0.0112212
0.0110926
0.0109586
0.0108192
0.0106736
0.0105218
0.0103631
0.010198
0.0100249
0.00984668
0.00965688
0.00946992
0.00925422
0.00907887
0.0128016
0.0131214
0.0129146
0.0128548
0.0128056
0.0127454
0.0126806
0.0126085
0.0125298
0.0124457
0.0123567
0.0122635
0.0121667
0.0120662
0.0119625
0.0118553
0.0117448
0.0116306
0.0115126
0.0113906
0.0112643
0.0111334
0.0109976
0.0108565
0.01071
0.0105576
0.0103994
0.0102346
0.010064
0.00988583
0.0097034
0.00950921
0.00931953
0.00909808
0.00892232
0.0127621
0.0130735
0.0128818
0.0128303
0.0127863
0.0127292
0.0126652
0.0125926
0.0125122
0.0124254
0.0123332
0.012236
0.0121347
0.0120294
0.0119203
0.0118074
0.0116908
0.0115702
0.0114456
0.0113167
0.0111833
0.0110451
0.010902
0.0107535
0.0105998
0.0104403
0.0102753
0.0101041
0.00992766
0.00974405
0.00955717
0.00935898
0.0091675
0.00894361
0.00877168
0.0127114
0.0130223
0.0128482
0.0128066
0.0127689
0.0127153
0.0126526
0.0125795
0.0124976
0.0124083
0.0123129
0.0122122
0.0121068
0.0119969
0.011883
0.011765
0.011643
0.0115167
0.0113863
0.0112513
0.0111118
0.0109675
0.0108183
0.0106639
0.0105045
0.0103396
0.0101695
0.00999374
0.00981324
0.00962614
0.00943662
0.00923605
0.00904377
0.00881778
0.00864831
0.0126594
0.0129683
0.0128147
0.0127843
0.0127536
0.0127037
0.0126422
0.0125687
0.0124851
0.0123933
0.0122948
0.0121904
0.0120809
0.0119667
0.0118481
0.0117251
0.0115978
0.0114662
0.0113302
0.0111895
0.0110443
0.0108942
0.0107394
0.0105795
0.0104147
0.0102448
0.0100701
0.00989004
0.00970588
0.00951564
0.00932384
0.00912138
0.00892889
0.0087019
0.00853623
0.0125997
0.0129117
0.012782
0.0127644
0.0127412
0.0126952
0.0126348
0.0125608
0.0124754
0.0123812
0.0122796
0.0121717
0.0120584
0.0119401
0.0118172
0.0116897
0.0115577
0.0114212
0.0112802
0.0111346
0.0109843
0.0108293
0.0106696
0.0105051
0.010336
0.010162
0.00998371
0.00980053
0.00961379
0.00942148
0.0092284
0.00902497
0.008833
0.00860552
0.00844367
0.012533
0.0128542
0.0127508
0.0127473
0.0127323
0.0126902
0.0126309
0.0125561
0.0124691
0.0123724
0.0122679
0.0121568
0.0120401
0.0119181
0.0117913
0.0116598
0.0115238
0.011383
0.0112378
0.0110878
0.0109333
0.0107741
0.0106104
0.010442
0.0102693
0.010092
0.00991083
0.00972516
0.00953644
0.0093426
0.0091487
0.00894468
0.00875345
0.00852576
0.0083675
0.0124686
0.0128024
0.0127253
0.0127352
0.0127276
0.0126885
0.0126297
0.0125541
0.0124653
0.0123664
0.0122593
0.0121454
0.0120257
0.0119006
0.0117705
0.0116357
0.0114962
0.011352
0.0112032
0.0110497
0.0108918
0.0107292
0.0105623
0.0103909
0.0102155
0.0100357
0.00985243
0.00966504
0.00947505
0.00928032
0.00908613
0.00888201
0.00869178
0.00846411
0.0083092
0.0123893
0.0127484
0.0127
0.0127252
0.0127257
0.0126897
0.0126313
0.0125547
0.0124641
0.0123629
0.0122533
0.0121367
0.0120142
0.0118862
0.0117532
0.0116153
0.0114728
0.0113255
0.0111736
0.0110171
0.0108561
0.0106907
0.010521
0.0103471
0.0101693
0.00998761
0.00980261
0.00961388
0.00942296
0.00922767
0.00903345
0.00882944
0.00864032
0.00841284
0.00826112
0.0123119
0.0127004
0.01268
0.0127201
0.0127276
0.0126935
0.012635
0.0125571
0.0124645
0.0123611
0.0122491
0.0121301
0.012005
0.0118745
0.0117389
0.0115984
0.0114531
0.0113032
0.0111487
0.0109896
0.0108261
0.0106583
0.0104864
0.0103104
0.0101307
0.00994743
0.00976116
0.00957149
0.00938002
0.00918449
0.00899053
0.00878688
0.00859899
0.00837185
0.00822313
0.0122142
0.0126526
0.0126612
0.0127178
0.0127327
0.0127003
0.0126414
0.0125619
0.0124672
0.0123615
0.0122472
0.0121258
0.0119984
0.0118655
0.0117276
0.0115847
0.0114371
0.0112848
0.011128
0.0109667
0.0108011
0.0106312
0.0104574
0.0102797
0.0100985
0.00991396
0.00972672
0.00953638
0.00934459
0.00914906
0.00895552
0.00875243
0.00856584
0.00833924
0.00819331
0.0121167
0.0126129
0.0126473
0.0127197
0.0127404
0.0127086
0.0126487
0.0125674
0.0124706
0.0123628
0.0122463
0.0121229
0.0119934
0.0118585
0.0117185
0.0115736
0.011424
0.0112698
0.0111111
0.0109479
0.0107805
0.0106089
0.0104336
0.0102545
0.0100722
0.00988665
0.0096987
0.00950796
0.00931607
0.00912075
0.0089278
0.00872544
0.00854014
0.00831427
0.00817073
0.0119997
0.0125786
0.0126372
0.0127266
0.0127525
0.0127203
0.0126589
0.0125754
0.0124762
0.0123661
0.0122475
0.012122
0.0119905
0.0118538
0.011712
0.0115653
0.011414
0.0112581
0.0110977
0.010933
0.0107641
0.0105911
0.0104145
0.0102343
0.010051
0.00986477
0.00967632
0.00948534
0.00929351
0.00909855
0.00890629
0.0087049
0.00852095
0.00829632
0.00815502
0.0118754
0.0125533
0.0126292
0.0127348
0.0127646
0.0127317
0.0126686
0.0125829
0.0124815
0.0123694
0.0122489
0.0121216
0.0119886
0.0118503
0.011707
0.0115589
0.0114062
0.0112489
0.0110872
0.0109212
0.0107512
0.0105771
0.0103995
0.0102184
0.0100345
0.00984768
0.0096589
0.00946785
0.00927619
0.00908172
0.0088902
0.00868994
0.00850709
0.00828393
0.00814359
0.011741
0.0125409
0.0126295
0.0127512
0.0127823
0.0127469
0.0126811
0.0125926
0.0124888
0.0123745
0.0122521
0.0121232
0.0119886
0.0118488
0.0117042
0.0115549
0.011401
0.0112426
0.0110798
0.0109128
0.0107418
0.0105669
0.0103885
0.0102067
0.0100222
0.00983506
0.00964608
0.00945505
0.00926363
0.00906975
0.00887904
0.00868022
0.0084986
0.00827842
0.00813896
0.0115894
0.0125357
0.012626
0.0127643
0.0127967
0.0127593
0.0126912
0.0126003
0.0124945
0.0123785
0.0122546
0.0121244
0.0119887
0.0118479
0.0117024
0.0115521
0.0113974
0.0112381
0.0110746
0.0109068
0.0107351
0.0105596
0.0103807
0.0101985
0.0100136
0.00982625
0.00963717
0.00944625
0.00925509
0.00906183
0.00887182
0.00867456
0.00849336
0.00827619
0.0081324
0.0114428
0.0125522
0.0126362
0.0127871
0.0128166
0.0127754
0.0127041
0.0126104
0.0125023
0.0123845
0.0122592
0.0121277
0.011991
0.0118492
0.0117028
0.0115518
0.0113963
0.0112364
0.0110723
0.010904
0.0107318
0.0105558
0.0103765
0.0101941
0.0100089
0.00982138
0.00963226
0.00944146
0.00925059
0.00905792
0.00886872
0.00867322
0.00849355
0.0082825
0.00813619
0.0112888
0.0125605
0.012636
0.0128034
0.012831
0.0127873
0.0127136
0.0126179
0.0125084
0.0123893
0.0122632
0.0121309
0.0119935
0.0118512
0.0117043
0.0115527
0.0113969
0.0112365
0.011072