/*--------------------------------*- C++ -*----------------------------------*\
  =========                 |
  \\      /  F ield         | OpenFOAM: The Open Source CFD Toolbox
   \\    /   O peration     | Website:  https://openfoam.org
    \\  /    A nd           | Version:  6
     \\/     M anipulation  |
\*---------------------------------------------------------------------------*/
FoamFile
{
    version     2.0;
    format      ascii;
    class       volVectorField;
    location    "17";
    object      wallShearStress;
}
// * * * * * * * * * * * * * * * * * * * * * * * * * * * * * * * * * * * * * //

dimensions      [0 2 -2 0 0 0 0];

internalField   uniform (0 0 0);

boundaryField
{
    inlet
    {
        type            calculated;
        value           uniform (0 0 0);
    }
    outlet
    {
        type            calculated;
        value           uniform (0 0 0);
    }
    roughCylinder
    {
        type            calculated;
        value           nonuniform List<vector> 
5120
(
(-0.00025073 -0.000357141 -0.000183986)
(-0.000307307 -0.000461507 -4.20791e-05)
(-0.00034086 -0.000555319 -7.04844e-07)
(-0.000386585 -0.000645359 5.40461e-05)
(-0.000443599 -0.000723515 0.000117283)
(-0.000508339 -0.000785327 0.000180824)
(-0.000577339 -0.000827956 0.000240159)
(-0.000645937 -0.000851836 0.000292516)
(-0.000710062 -0.000859437 0.000335801)
(-0.000767627 -0.000855815 0.000369293)
(-0.000818886 -0.000849254 0.000394494)
(-0.000864125 -0.000845381 0.000413283)
(-0.000900378 -0.000844256 0.000424412)
(-0.000930935 -0.000848611 0.000428994)
(-0.000957103 -0.000857659 0.000428068)
(-0.000980216 -0.000870692 0.000422694)
(-0.0010017 -0.00088693 0.000413925)
(-0.00102279 -0.000905718 0.000402652)
(-0.00104442 -0.000926582 0.000389547)
(-0.00106726 -0.000949229 0.000375037)
(-0.00109164 -0.000973476 0.000359319)
(-0.00111769 -0.000999196 0.000342424)
(-0.00114537 -0.00102626 0.000324244)
(-0.00117449 -0.0010545 0.000304594)
(-0.00120482 -0.00108367 0.000283203)
(-0.001236 -0.00111343 0.000259714)
(-0.0012676 -0.00114332 0.000233636)
(-0.00129902 -0.00117267 0.000204271)
(-0.00132936 -0.00120052 0.00017047)
(-0.00135712 -0.00122544 0.000130693)
(-0.00137937 -0.00124548 8.28198e-05)
(-0.00139166 -0.00125708 2.81254e-05)
(-0.000269259 -0.000345455 -0.000173817)
(-0.000328948 -0.000447065 -4.45542e-05)
(-0.000365082 -0.000539569 -6.47122e-06)
(-0.000412927 -0.000629323 4.4875e-05)
(-0.000471618 -0.000708497 0.000105483)
(-0.000537908 -0.000772099 0.000167239)
(-0.000608304 -0.000816906 0.000225428)
(-0.000678396 -0.000843208 0.000277162)
(-0.000744711 -0.000853869 0.000320447)
(-0.000805697 -0.00085453 0.000354998)
(-0.000861139 -0.00085204 0.000382195)
(-0.000909925 -0.000849745 0.000402836)
(-0.00094902 -0.000847347 0.000415052)
(-0.000981126 -0.000850603 0.000420216)
(-0.00100882 -0.000858937 0.000419606)
(-0.00103337 -0.000871611 0.000414459)
(-0.00105627 -0.00088772 0.000405864)
(-0.00107877 -0.00090652 0.000394761)
(-0.00110188 -0.000927475 0.000381858)
(-0.00112622 -0.000950233 0.00036759)
(-0.00115217 -0.000974588 0.000352171)
(-0.00117984 -0.0010004 0.00033563)
(-0.00120918 -0.00102752 0.000317863)
(-0.00124 -0.00105579 0.000298677)
(-0.00127203 -0.00108494 0.000277797)
(-0.00130491 -0.00111466 0.000254861)
(-0.00133818 -0.00114447 0.000229377)
(-0.00137122 -0.00117371 0.000200648)
(-0.00140306 -0.00120143 0.000167533)
(-0.00143215 -0.0012262 0.000128507)
(-0.00145543 -0.0012461 8.14876e-05)
(-0.00146823 -0.00125755 2.76902e-05)
(-0.000287656 -0.000328601 -0.000156402)
(-0.000350117 -0.000427222 -4.75465e-05)
(-0.00038864 -0.00051766 -1.28984e-05)
(-0.000438202 -0.000606456 3.48359e-05)
(-0.000498273 -0.000686112 9.25182e-05)
(-0.000565956 -0.000751269 0.000152243)
(-0.000637823 -0.000798411 0.000209204)
(-0.000709767 -0.000827795 0.000260468)
(-0.000778817 -0.000842451 0.000304204)
(-0.000843505 -0.000847706 0.000340182)
(-0.000902849 -0.000848845 0.00036917)
(-0.000954898 -0.000848051 0.000391091)
(-0.000997548 -0.000845676 0.000404603)
(-0.00103132 -0.000847393 0.000410291)
(-0.00106058 -0.000854839 0.000409994)
(-0.00108667 -0.000866976 0.000405113)
(-0.00111107 -0.000882794 0.00039675)
(-0.00113508 -0.000901448 0.000385878)
(-0.0011597 -0.000922325 0.00037323)
(-0.0011856 -0.000945032 0.000359263)
(-0.00121316 -0.000969329 0.000344204)
(-0.00124247 -0.000995049 0.00032808)
(-0.00127349 -0.00102205 0.000310786)
(-0.00130601 -0.00105014 0.000292126)
(-0.00133974 -0.00107909 0.000271818)
(-0.00137431 -0.00110856 0.000249497)
(-0.00140922 -0.00113808 0.000224668)
(-0.00144384 -0.001167 0.000196639)
(-0.00147715 -0.00119439 0.000164279)
(-0.00150753 -0.00121883 0.000126082)
(-0.00153181 -0.00123845 8.00139e-05)
(-0.00154508 -0.00124967 2.72112e-05)
(-0.000303993 -0.000307819 -0.000134493)
(-0.000368811 -0.00040293 -5.06092e-05)
(-0.000409283 -0.000490568 -1.95778e-05)
(-0.000459974 -0.000577762 2.43634e-05)
(-0.000520984 -0.000657398 7.8853e-05)
(-0.00058984 -0.000723906 0.000136271)
(-0.000663239 -0.000773556 0.000191843)
(-0.000737356 -0.000806507 0.000242642)
(-0.000809443 -0.000825672 0.000286958)
(-0.000877827 -0.00083557 0.00032442)
(-0.00094089 -0.000840084 0.000355069)
(-0.000996393 -0.000841001 0.000378201)
(-0.00104273 -0.000839542 0.000393015)
(-0.00107909 -0.0008397 0.000399387)
(-0.00111004 -0.000846169 0.000399527)
(-0.00113779 -0.000857598 0.00039497)
(-0.00116379 -0.000872981 0.000386897)
(-0.00118937 -0.000891362 0.000376325)
(-0.00121557 -0.000912053 0.000364)
(-0.00124307 -0.000934588 0.000350399)
(-0.00127223 -0.000958694 0.00033575)
(-0.00130318 -0.00098419 0.000320095)
(-0.00133584 -0.00101092 0.000303325)
(-0.00137 -0.00103869 0.000285236)
(-0.00140537 -0.00106726 0.000265544)
(-0.00144153 -0.0010963 0.000243877)
(-0.001478 -0.00112538 0.000219739)
(-0.00151409 -0.00115382 0.000192446)
(-0.00154878 -0.00118072 0.000160878)
(-0.00158036 -0.00120469 0.000123549)
(-0.00160556 -0.0012239 7.84822e-05)
(-0.0016192 -0.00123482 2.67178e-05)
(-0.000317241 -0.000283444 -0.000110251)
(-0.000384019 -0.00037452 -5.33976e-05)
(-0.00042595 -0.000458707 -2.61563e-05)
(-0.000477193 -0.000543682 1.38034e-05)
(-0.000538726 -0.000622808 6.47994e-05)
(-0.000608592 -0.000690491 0.000119589)
(-0.000683659 -0.000742819 0.000173544)
(-0.000760262 -0.000779678 0.000223798)
(-0.000835592 -0.000803472 0.000268664)
(-0.000907584 -0.000817761 0.000307473)
(-0.000974215 -0.000825395 0.000339635)
(-0.00103323 -0.000828083 0.000364021)
(-0.00108309 -0.000827716 0.000379931)
(-0.00112332 -0.000827456 0.000387448)
(-0.00115622 -0.00083239 0.000388162)
(-0.00118578 -0.000842911 0.000384026)
(-0.00121349 -0.000857678 0.000376351)
(-0.00124073 -0.000875633 0.000366157)
(-0.00126852 -0.000895967 0.000354226)
(-0.0012976 -0.000918175 0.000341052)
(-0.00132836 -0.000941944 0.000326881)
(-0.00136089 -0.000967056 0.000311749)
(-0.00139513 -0.000993347 0.000295554)
(-0.00143086 -0.00102063 0.000278083)
(-0.00146775 -0.00104865 0.000259048)
(-0.0015054 -0.0010771 0.000238073)
(-0.00154329 -0.00110552 0.000214657)
(-0.00158074 -0.00113331 0.000188127)
(-0.00161666 -0.00115955 0.000157378)
(-0.00164933 -0.0011829 0.000120947)
(-0.00167534 -0.00120159 7.69194e-05)
(-0.00168926 -0.00121214 2.62207e-05)
(-0.000327353 -0.000256867 -8.54333e-05)
(-0.000395574 -0.000343359 -5.57715e-05)
(-0.000438389 -0.000423529 -3.24304e-05)
(-0.000489563 -0.000505691 3.38732e-06)
(-0.000551141 -0.000583799 5.05953e-05)
(-0.000621773 -0.000652374 0.000102403)
(-0.000698492 -0.000707336 0.000154444)
(-0.000777654 -0.000748077 0.000203963)
(-0.000856262 -0.00077629 0.000249217)
(-0.000931827 -0.000794571 0.000289166)
(-0.00100204 -0.000805075 0.000322692)
(-0.0010647 -0.000809564 0.00034836)
(-0.00111832 -0.000810382 0.000365394)
(-0.00116268 -0.000810569 0.000374174)
(-0.00119867 -0.0008139 0.000375772)
(-0.00123022 -0.00082326 0.000372252)
(-0.00125979 -0.000837133 0.000365072)
(-0.00128874 -0.00085441 0.000355357)
(-0.00131821 -0.000874231 0.000343914)
(-0.0013489 -0.000895958 0.00033125)
(-0.00138121 -0.000919221 0.00031762)
(-0.00141528 -0.000943784 0.000303075)
(-0.00145102 -0.000969469 0.000287506)
(-0.00148819 -0.000996073 0.0002707)
(-0.00152648 -0.00102336 0.000252361)
(-0.00156546 -0.00105102 0.000232109)
(-0.00160463 -0.00107863 0.000209445)
(-0.00164326 -0.00110559 0.000183704)
(-0.00168028 -0.00113101 0.000153795)
(-0.00171389 -0.00115359 0.000118285)
(-0.00174059 -0.00117164 7.53348e-05)
(-0.00175467 -0.00118176 2.5724e-05)
(-0.000333115 -0.000228395 -6.10009e-05)
(-0.000402268 -0.000309843 -5.75556e-05)
(-0.000445386 -0.000385446 -3.81947e-05)
(-0.000495844 -0.000464204 -6.70941e-06)
(-0.000556911 -0.000540741 3.63549e-05)
(-0.000628002 -0.00060989 8.47502e-05)
(-0.000706326 -0.000667399 0.000134507)
(-0.000788161 -0.000711999 0.000183031)
(-0.000870175 -0.000744465 0.000228456)
(-0.000949445 -0.00076646 0.000269325)
(-0.00102342 -0.000779693 0.000304077)
(-0.00108993 -0.000786017 0.000331051)
(-0.00114751 -0.000788023 0.000349329)
(-0.00119596 -0.000788914 0.000359316)
(-0.0012363 -0.00079179 0.000362231)
(-0.00127036 -0.000799201 0.000359519)
(-0.00130199 -0.000811952 0.000353009)
(-0.00133287 -0.000828396 0.000343908)
(-0.00136403 -0.000847461 0.000333051)
(-0.00139632 -0.000868498 0.000320976)
(-0.00143018 -0.000891087 0.00030797)
(-0.00146572 -0.000914949 0.000294079)
(-0.00150286 -0.000939868 0.000279197)
(-0.00154137 -0.000965653 0.000263106)
(-0.00158093 -0.000992067 0.000245509)
(-0.0016211 -0.0010188 0.000226016)
(-0.00166136 -0.00104544 0.000204127)
(-0.001701 -0.00107141 0.000179194)
(-0.00173893 -0.00109585 0.000150144)
(-0.00177336 -0.00111754 0.000115578)
(-0.00180059 -0.00113485 7.37395e-05)
(-0.0018147 -0.00114447 2.52331e-05)
(-0.000334665 -0.000199198 -3.79577e-05)
(-0.0004041 -0.000275162 -5.87525e-05)
(-0.000446898 -0.000345756 -4.33452e-05)
(-0.000495954 -0.000420559 -1.63016e-05)
(-0.000555865 -0.000494934 2.23081e-05)
(-0.000626933 -0.000564168 6.68586e-05)
(-0.000706559 -0.000623856 0.000113897)
(-0.000790865 -0.000671946 0.000161025)
(-0.000876151 -0.000708264 0.00020625)
(-0.000959165 -0.000733673 0.000247745)
(-0.00103708 -0.0007495 0.000283549)
(-0.00110767 -0.000757685 0.000311818)
(-0.00116954 -0.000761016 0.000331524)
(-0.00122232 -0.000762684 0.000342891)
(-0.00126691 -0.000765672 0.000347128)
(-0.00130512 -0.000772039 0.000345706)
(-0.0013392 -0.000782956 0.000340082)
(-0.0013721 -0.000797921 0.000331716)
(-0.0014051 -0.000816073 0.000321598)
(-0.00143907 -0.000836277 0.000310235)
(-0.00147444 -0.000858032 0.000297938)
(-0.00151137 -0.000881022 0.000284774)
(-0.0015498 -0.000905024 0.000270642)
(-0.00158949 -0.000929828 0.000255317)
(-0.00163011 -0.000955194 0.000238499)
(-0.00167125 -0.000980829 0.000219794)
(-0.00171239 -0.00100639 0.00019871)
(-0.00175282 -0.00103132 0.000174608)
(-0.00179146 -0.00105473 0.000146435)
(-0.0018265 -0.00107542 0.00011283)
(-0.00185414 -0.00109194 7.21415e-05)
(-0.00186808 -0.00110113 2.47536e-05)
(-0.000330563 -0.000169247 -1.68137e-05)
(-0.000399703 -0.00023941 -5.91854e-05)
(-0.000441545 -0.000304532 -4.76879e-05)
(-0.000488445 -0.000374768 -2.51807e-05)
(-0.000546413 -0.000446259 8.64387e-06)
(-0.000616808 -0.000514934 4.88485e-05)
(-0.00069738 -0.000576368 9.262e-05)
(-0.000784084 -0.000627718 0.000137858)
(-0.000872782 -0.000667747 0.000182472)
(-0.000959761 -0.000696473 0.000224269)
(-0.00104196 -0.000714914 0.000260962)
(-0.00111704 -0.000725066 0.000290522)
(-0.00118343 -0.000729741 0.000311753)
(-0.00124072 -0.00073219 0.000324702)
(-0.00128962 -0.000735321 0.000330412)
(-0.00133188 -0.000741221 0.000330367)
(-0.00136969 -0.000750927 0.000326012)
(-0.00140566 -0.000764631 0.000318824)
(-0.00144054 -0.000781318 0.000309592)
(-0.00147616 -0.000800328 0.000299037)
(-0.001513 -0.000821044 0.000287554)
(-0.00155125 -0.00084304 0.000275206)
(-0.00159083 -0.000866044 0.000261895)
(-0.00163153 -0.000889827 0.000247399)
(-0.00167304 -0.000914146 0.000231409)
(-0.00171494 -0.000938703 0.000213534)
(-0.00175664 -0.000963112 0.000193264)
(-0.00179749 -0.000986849 0.000169987)
(-0.00183648 -0.00100907 0.000142684)
(-0.00187193 -0.0010287 0.000110056)
(-0.00189968 -0.00104432 7.05511e-05)
(-0.00191308 -0.00105297 2.42884e-05)
(-0.000321609 -0.000140004 1.757e-06)
(-0.000389587 -0.000203694 -5.91276e-05)
(-0.000429853 -0.000263352 -5.11937e-05)
(-0.000473956 -0.000328508 -3.31681e-05)
(-0.000529158 -0.000396431 -4.31371e-06)
(-0.000598098 -0.000463792 3.1116e-05)
(-0.000678976 -0.000526291 7.10405e-05)
(-0.000767571 -0.000580288 0.000113768)
(-0.000859348 -0.000623552 0.000157185)
(-0.000950282 -0.000655384 0.000198848)
(-0.00103695 -0.000676386 0.00023618)
(-0.00111671 -0.00068844 0.000266927)
(-0.00118801 -0.000694528 0.000289772)
(-0.0012502 -0.000697829 0.000304519)
(-0.00130378 -0.000701206 0.000311982)
(-0.00135021 -0.000706703 0.000313511)
(-0.00139171 -0.000715544 0.000310608)
(-0.0014306 -0.000728084 0.000304714)
(-0.00146801 -0.000743392 0.000296632)
(-0.00150563 -0.000761166 0.000287136)
(-0.001544 -0.000780676 0.000276622)
(-0.0015834 -0.000801492 0.000265191)
(-0.00162385 -0.000823306 0.000252772)
(-0.00166517 -0.000845862 0.000239146)
(-0.00170707 -0.000868916 0.000224009)
(-0.00174918 -0.000892168 0.000206971)
(-0.00179101 -0.000915248 0.00018753)
(-0.00183193 -0.000937591 0.000165105)
(-0.00187103 -0.00095851 0.000138717)
(-0.00190657 -0.000976936 0.000107116)
(-0.00193425 -0.000991596 6.88828e-05)
(-0.00194688 -0.00099958 2.38098e-05)
(-0.000304356 -0.000110698 1.7356e-05)
(-0.000373058 -0.000168538 -5.81737e-05)
(-0.000410315 -0.000222138 -5.37451e-05)
(-0.000450653 -0.000281547 -3.99775e-05)
(-0.00050201 -0.000344992 -1.62373e-05)
(-0.000568384 -0.000410013 1.39406e-05)
(-0.000648761 -0.000472753 4.9306e-05)
(-0.000738977 -0.000529022 8.87641e-05)
(-0.000834022 -0.000575522 0.000130343)
(-0.000929185 -0.000610544 0.000171384)
(-0.0010207 -0.000634254 0.000209069)
(-0.0011058 -0.000648476 0.000240961)
(-0.00118239 -0.000655987 0.000265454)
(-0.00124974 -0.000660056 0.000282128)
(-0.00130815 -0.000663569 0.000291546)
(-0.00135907 -0.000668703 0.000294936)
(-0.00140446 -0.000676728 0.000293729)
(-0.00144653 -0.00068814 0.00028933)
(-0.00148647 -0.000702122 0.00028258)
(-0.00152597 -0.000718523 0.000274294)
(-0.00156579 -0.000736692 0.000264896)
(-0.00160625 -0.000756151 0.000254507)
(-0.00164741 -0.00077658 0.000243078)
(-0.00168915 -0.000797723 0.000230402)
(-0.00173121 -0.00081933 0.000216183)
(-0.0017733 -0.000841114 0.000200038)
(-0.00181493 -0.000862676 0.000181464)
(-0.00185568 -0.000883528 0.00015994)
(-0.00189452 -0.000903004 0.000134508)
(-0.00193 -0.000920194 0.000104)
(-0.0019573 -0.000933794 6.71317e-05)
(-0.00196895 -0.000941087 2.33197e-05)
(-0.000280828 -8.28216e-05 2.99451e-05)
(-0.000350662 -0.000135414 -5.64584e-05)
(-0.000384732 -0.000182718 -5.53668e-05)
(-0.000420484 -0.000236115 -4.54998e-05)
(-0.000467031 -0.000294403 -2.67479e-05)
(-0.000529736 -0.000356111 -2.08428e-06)
(-0.00060858 -0.000418109 2.80913e-05)
(-0.000699451 -0.000475765 6.34438e-05)
(-0.00079691 -0.000524802 0.000102329)
(-0.000896048 -0.000562805 0.000142087)
(-0.00099257 -0.000589292 0.000179711)
(-0.00108297 -0.000605578 0.000212484)
(-0.00116528 -0.000614573 0.000238621)
(-0.00123831 -0.000619442 0.000257371)
(-0.00130217 -0.000623142 0.000269018)
(-0.00135786 -0.000627837 0.000274533)
(-0.00140736 -0.000634981 0.000275285)
(-0.00145263 -0.000645093 0.000272591)
(-0.00149521 -0.000657677 0.000267392)
(-0.00153675 -0.000672647 0.000260516)
(-0.00157799 -0.000689329 0.000252383)
(-0.00161938 -0.000707285 0.000243166)
(-0.00166106 -0.000726187 0.000232833)
(-0.00170293 -0.00074576 0.000221192)
(-0.00174483 -0.000765756 0.000207953)
(-0.00178648 -0.0007859 0.000192745)
(-0.00182759 -0.000805836 0.000175082)
(-0.00186775 -0.000825055 0.000154493)
(-0.0019061 -0.000843042 0.000130068)
(-0.00194108 -0.000858865 0.000100703)
(-0.00196781 -0.000871387 6.53058e-05)
(-0.00197814 -0.000877948 2.28236e-05)
(-0.000249646 -5.68804e-05 3.92061e-05)
(-0.000319727 -0.000103853 -5.36282e-05)
(-0.000350635 -0.00014476 -5.56197e-05)
(-0.000380995 -0.00019163 -4.9253e-05)
(-0.000421351 -0.000243696 -3.52989e-05)
(-0.000478682 -0.000300628 -1.63699e-05)
(-0.000554429 -0.000360502 7.87853e-06)
(-0.000645257 -0.000418881 3.81139e-05)
(-0.000745491 -0.000470659 7.33602e-05)
(-0.000848954 -0.00051195 0.000111061)
(-0.000950727 -0.000541465 0.000148076)
(-0.00104735 -0.00056037 0.000181536)
(-0.00113583 -0.000571007 0.000209249)
(-0.00121491 -0.00057666 0.00023015)
(-0.00128432 -0.000580341 0.000244171)
(-0.00134519 -0.000584508 0.000252095)
(-0.00139913 -0.000590669 0.000255101)
(-0.00144812 -0.000599498 0.000254449)
(-0.00149348 -0.000610575 0.000251049)
(-0.00153695 -0.000623915 0.000245759)
(-0.00157954 -0.000638965 0.000239064)
(-0.00162172 -0.000655282 0.000231159)
(-0.00166371 -0.000672523 0.000222039)
(-0.00170548 -0.000690425 0.000211527)
(-0.00174692 -0.000708734 0.000199343)
(-0.00178789 -0.000727182 0.000185137)
(-0.00182805 -0.000745394 0.000168417)
(-0.00186737 -0.000762967 0.000148807)
(-0.00190472 -0.000779352 0.000125411)
(-0.00193911 -0.000793833 9.72547e-05)
(-0.0019649 -0.00080522 6.3428e-05)
(-0.00197363 -0.000811079 2.23348e-05)
(-0.000213725 -3.45739e-05 4.51277e-05)
(-0.000282688 -7.54319e-05 -4.99726e-05)
(-0.000311102 -0.000110441 -5.48249e-05)
(-0.00033631 -0.000150991 -5.14226e-05)
(-0.00036997 -0.000196504 -4.1706e-05)
(-0.000420774 -0.00024774 -2.8268e-05)
(-0.000492024 -0.00030425 -1.03182e-05)
(-0.000581056 -0.000361975 1.38832e-05)
(-0.000681822 -0.000415064 4.43284e-05)
(-0.000788516 -0.000459119 7.89585e-05)
(-0.000895542 -0.000491858 0.000114659)
(-0.000997902 -0.000513268 0.000148256)
(-0.00109294 -0.000525783 0.000177352)
(-0.00117855 -0.000532365 0.000200428)
(-0.00125436 -0.000536193 0.000217069)
(-0.00132077 -0.000539728 0.00022766)
(-0.00137945 -0.000544762 0.000233218)
(-0.00143202 -0.000552009 0.000234844)
(-0.0014803 -0.000561445 0.000233513)
(-0.00152597 -0.000573106 0.000230074)
(-0.0015699 -0.000586411 0.00022501)
(-0.00161274 -0.000600976 0.000218569)
(-0.00165481 -0.000616461 0.00021078)
(-0.00169611 -0.000632592 0.000201481)
(-0.00173666 -0.000649118 0.000190407)
(-0.00177637 -0.000665756 0.000177231)
(-0.00181522 -0.00068223 0.000161489)
(-0.00185316 -0.00069806 0.000142873)
(-0.00188935 -0.000712902 0.00012055)
(-0.00192263 -0.000725929 9.36404e-05)
(-0.00194722 -0.000736215 6.15027e-05)
(-0.0019539 -0.000741403 2.18583e-05)
(-0.000171298 -1.59515e-05 4.71619e-05)
(-0.000236889 -4.99516e-05 -4.49217e-05)
(-0.000262777 -7.8925e-05 -5.23023e-05)
(-0.000282531 -0.000112735 -5.13192e-05)
(-0.000308249 -0.000150665 -4.51466e-05)
(-0.000350151 -0.000194341 -3.67407e-05)
(-0.000413978 -0.000245189 -2.53197e-05)
(-0.000499557 -0.000300903 -8.14999e-06)
(-0.000601916 -0.000355911 1.61813e-05)
(-0.000712578 -0.000403422 4.64761e-05)
(-0.000824799 -0.000439762 7.98479e-05)
(-0.000934096 -0.000464676 0.000113043)
(-0.00103592 -0.000479436 0.000143149)
(-0.00112848 -0.000487216 0.000168304)
(-0.0012106 -0.000491101 0.000187582)
(-0.00128299 -0.000494007 0.000201081)
(-0.00134671 -0.000497809 0.000209483)
(-0.00140362 -0.000503547 0.000213777)
(-0.00145502 -0.000511225 0.000214807)
(-0.00150266 -0.000520974 0.000213421)
(-0.00154782 -0.000532411 0.000210184)
(-0.00159116 -0.000545133 0.000205368)
(-0.00163304 -0.000558805 0.000199037)
(-0.00167362 -0.00057314 0.000191051)
(-0.00171297 -0.000587899 0.00018116)
(-0.00175123 -0.000602809 0.000169079)
(-0.00178823 -0.000617517 0.000154323)
(-0.00182455 -0.000631688 0.000136735)
(-0.0018589 -0.000644913 0.000115486)
(-0.00189104 -0.000656586 8.98871e-05)
(-0.00191408 -0.000665789 5.95549e-05)
(-0.00191837 -0.000670442 2.14094e-05)
(-0.000126834 -2.47439e-06 4.573e-05)
(-0.000186983 -2.93148e-05 -3.89116e-05)
(-0.000211599 -5.27387e-05 -4.86391e-05)
(-0.000227867 -8.06503e-05 -4.9758e-05)
(-0.000246887 -0.000111647 -4.6238e-05)
(-0.000280073 -0.000147801 -4.17503e-05)
(-0.000335915 -0.000192282 -3.63033e-05)
(-0.000415411 -0.000244022 -2.67357e-05)
(-0.00051291 -0.00029714 -9.77336e-06)
(-0.000623903 -0.00034639 1.49191e-05)
(-0.00074061 -0.000386423 4.48081e-05)
(-0.000855275 -0.000414621 7.65602e-05)
(-0.000964383 -0.000432326 0.000107123)
(-0.00106409 -0.000441698 0.000134045)
(-0.00115349 -0.000446164 0.000156024)
(-0.00123212 -0.000448524 0.00017258)
(-0.00130125 -0.00045111 0.000184094)
(-0.00136207 -0.000455033 0.000191253)
(-0.00141663 -0.000460828 0.000194912)
(-0.00146662 -0.000468695 0.000195879)
(-0.001513 -0.000478201 0.000194683)
(-0.00155665 -0.000489028 0.000191654)
(-0.00159808 -0.000500852 0.000186901)
(-0.00163747 -0.000513377 0.000180306)
(-0.00167506 -0.000526352 0.000171639)
(-0.00171106 -0.000539459 0.000160651)
(-0.0017459 -0.000552505 0.000146911)
(-0.00177998 -0.000565006 0.00013035)
(-0.00181241 -0.000576776 0.000110216)
(-0.00184281 -0.000587032 8.59631e-05)
(-0.00186391 -0.000595201 5.75766e-05)
(-0.00186517 -0.000599411 2.09888e-05)
(-7.88665e-05 6.63869e-06 4.09237e-05)
(-0.000130779 -1.26113e-05 -3.10408e-05)
(-0.000153 -2.98274e-05 -4.27084e-05)
(-0.00016452 -5.07836e-05 -4.51398e-05)
(-0.000176163 -7.36704e-05 -4.32228e-05)
(-0.00019789 -0.000100046 -4.17684e-05)
(-0.000238563 -0.000134186 -4.12943e-05)
(-0.000306513 -0.000179562 -3.83594e-05)
(-0.000405919 -0.000233655 -2.96746e-05)
(-0.000520043 -0.000285668 -1.33484e-05)
(-0.000640574 -0.000329949 1.10458e-05)
(-0.000762298 -0.00036322 4.00752e-05)
(-0.000877832 -0.000384326 7.00227e-05)
(-0.000985108 -0.000396103 9.81719e-05)
(-0.00108126 -0.000401362 0.000122521)
(-0.00116646 -0.000403537 0.000142175)
(-0.00124104 -0.000405001 0.000156958)
(-0.00130678 -0.00040744 0.000167344)
(-0.00136474 -0.000411382 0.000173913)
(-0.00141661 -0.000417185 0.000177408)
(-0.00146402 -0.000424713 0.000178446)
(-0.00150778 -0.00043363 0.000177366)
(-0.00154844 -0.000443634 0.000174318)
(-0.00158635 -0.000454416 0.000169213)
(-0.0016219 -0.000465739 0.00016184)
(-0.00165567 -0.000477285 0.000152021)
(-0.00168758 -0.000488699 0.000139272)
(-0.00171917 -0.000499676 0.000123758)
(-0.00174886 -0.00050996 0.000104722)
(-0.00177758 -0.000518962 8.18845e-05)
(-0.00179646 -0.000526214 5.55955e-05)
(-0.00179438 -0.000530227 2.06175e-05)
(-3.74792e-05 9.83489e-06 3.23641e-05)
(-7.64237e-05 -2.97843e-06 -2.29007e-05)
(-9.76265e-05 -1.54863e-05 -3.20203e-05)
(-0.000113424 -3.1185e-05 -3.73339e-05)
(-0.000119739 -4.65091e-05 -3.94005e-05)
(-0.000135323 -6.72565e-05 -3.68662e-05)
(-0.000169705 -9.19249e-05 -3.61721e-05)
(-0.000230779 -0.000125697 -4.31298e-05)
(-0.000303705 -0.000170721 -4.81892e-05)
(-0.000408374 -0.000223995 -3.81016e-05)
(-0.00053007 -0.000272049 -1.93753e-05)
(-0.000654385 -0.000309338 5.25577e-06)
(-0.000777566 -0.000335525 3.32068e-05)
(-0.000891817 -0.000350432 6.15241e-05)
(-0.000995744 -0.000357637 8.7875e-05)
(-0.0010874 -0.000360088 0.000110449)
(-0.00116777 -0.000360853 0.000128577)
(-0.00123738 -0.00036166 0.000142206)
(-0.00129845 -0.000363764 0.000151851)
(-0.00135273 -0.000367725 0.000158155)
(-0.00140109 -0.000373333 0.000161615)
(-0.00144471 -0.000380396 0.000162632)
(-0.00148424 -0.000388633 0.000161397)
(-0.00152012 -0.000397744 0.000157844)
(-0.00155286 -0.000407452 0.000151773)
(-0.00158315 -0.000417358 0.000143073)
(-0.00161203 -0.00042739 0.000131347)
(-0.00164051 -0.000436901 0.000116874)
(-0.00166751 -0.00044596 9.89777e-05)
(-0.00169386 -0.000453662 7.75935e-05)
(-0.00171004 -0.000460075 5.35825e-05)
(-0.00170362 -0.000463991 2.02842e-05)
(-1.47868e-05 9.12025e-06 2.15888e-05)
(-2.46691e-05 -9.32037e-07 -1.18371e-05)
(-3.21537e-05 -3.15014e-06 -1.95596e-05)
(-3.42117e-05 -1.27297e-05 -2.21855e-05)
(-4.14073e-05 -1.81919e-05 -2.07098e-05)
(-4.27449e-05 -2.56856e-05 -1.98001e-05)
(-5.63614e-05 -3.30344e-05 -2.15143e-05)
(-0.00010174 -7.0035e-05 -3.47149e-05)
(-0.000190553 -0.000113943 -4.14839e-05)
(-0.000288435 -0.000156207 -4.93245e-05)
(-0.000406707 -0.000207906 -4.25481e-05)
(-0.000536169 -0.000254042 -2.53018e-05)
(-0.000662725 -0.00028455 -1.83215e-06)
(-0.000784825 -0.000304235 2.53144e-05)
(-0.000895076 -0.000314041 5.27412e-05)
(-0.000993328 -0.000317772 7.78398e-05)
(-0.00107885 -0.00031831 9.90734e-05)
(-0.00115355 -0.000318311 0.000116091)
(-0.00121806 -0.000318963 0.000128956)
(-0.00127376 -0.000321046 0.000138116)
(-0.00132273 -0.000324844 0.000144124)
(-0.00136589 -0.000330162 0.000147358)
(-0.00140394 -0.000336779 0.000148037)
(-0.00143747 -0.000344389 0.000146116)
(-0.00146727 -0.000352749 0.000141413)
(-0.00149461 -0.000361432 0.000133931)
(-0.00151934 -0.000370091 0.000123156)
(-0.00154452 -0.000378338 0.000109731)
(-0.00156781 -0.000386153 9.29403e-05)
(-0.00159211 -0.000392775 7.30997e-05)
(-0.0016053 -0.000398497 5.15668e-05)
(-0.00159459 -0.000402723 2.00207e-05)
(7.29443e-06 8.81157e-06 2.21952e-05)
(1.46074e-06 5.81261e-06 -9.30932e-06)
(-6.5561e-06 6.52082e-10 -1.94686e-05)
(-1.16899e-05 -8.36621e-06 -2.1736e-05)
(-1.66205e-05 -1.0402e-05 -2.07556e-05)
(-2.11908e-05 -1.51871e-05 -2.49923e-05)
(-3.78268e-05 -3.08287e-05 -3.78788e-05)
(-4.47699e-05 -5.1536e-05 -3.26281e-05)
(-6.92729e-05 -5.22716e-05 -1.7859e-05)
(-0.000183616 -9.27961e-05 -4.06657e-05)
(-0.000307581 -0.000144562 -5.32628e-05)
(-0.000400726 -0.000187199 -4.72793e-05)
(-0.000538359 -0.000231768 -3.2457e-05)
(-0.000666112 -0.000256941 -8.88948e-06)
(-0.000783818 -0.000271343 1.86759e-05)
(-0.00088738 -0.0002772 4.55157e-05)
(-0.000978321 -0.000278572 6.94563e-05)
(-0.00105607 -0.000277915 8.94673e-05)
(-0.00112297 -0.000277394 0.000105421)
(-0.00118084 -0.000278189 0.000117579)
(-0.00123022 -0.000280454 0.000126213)
(-0.00127257 -0.000284232 0.00013174)
(-0.00130865 -0.000289406 0.000134389)
(-0.0013392 -0.000295663 0.00013412)
(-0.001365 -0.000302749 0.000130734)
(-0.00138753 -0.000310052 0.000124339)
(-0.00140841 -0.000317704 0.000114563)
(-0.0014296 -0.00032476 0.000102169)
(-0.00144959 -0.000331652 8.65475e-05)
(-0.00147096 -0.000337118 6.82943e-05)
(-0.00148086 -0.000342248 4.94864e-05)
(-0.00146416 -0.000346747 1.97881e-05)
(2.07582e-05 7.79576e-06 2.538e-05)
(2.37807e-05 8.07364e-06 -3.63675e-06)
(2.14288e-05 4.1187e-06 -5.33827e-06)
(1.09802e-05 6.06325e-06 -1.20617e-05)
(7.01223e-06 -2.98004e-06 -1.42478e-05)
(-4.26064e-06 -3.25037e-06 -1.37665e-05)
(-1.27722e-05 -8.74975e-06 -1.92804e-05)
(-1.80098e-05 -1.07503e-05 -1.73623e-05)
(-3.9941e-05 -2.50209e-05 -2.95355e-05)
(-5.02727e-05 -2.26813e-05 -2.63515e-05)
(-0.000175328 -0.000124714 -4.88995e-05)
(-0.000322632 -0.000138222 -2.74498e-05)
(-0.000403345 -0.000166684 -6.08632e-05)
(-0.000537285 -0.000207506 -3.96172e-05)
(-0.000659519 -0.000227345 -1.26828e-05)
(-0.000768544 -0.000237075 1.47399e-05)
(-0.000862935 -0.000240137 4.03312e-05)
(-0.000945093 -0.000240322 6.29134e-05)
(-0.00101488 -0.000239545 8.17403e-05)
(-0.00107301 -0.000239221 9.66368e-05)
(-0.00112216 -0.000240321 0.000107834)
(-0.00116325 -0.000242852 0.000115652)
(-0.00119695 -0.000246855 0.000120291)
(-0.0012242 -0.000252021 0.0001217)
(-0.00124616 -0.000258196 0.000119674)
(-0.00126517 -0.000264666 0.000114496)
(-0.00128084 -0.000271253 0.000105595)
(-0.00129825 -0.000277377 9.4256e-05)
(-0.00131358 -0.000283224 7.974e-05)
(-0.00133288 -0.00028783 6.32038e-05)
(-0.00133898 -0.000292391 4.73654e-05)
(-0.00131715 -0.000297699 1.96361e-05)
(3.59034e-05 1.51131e-05 4.2055e-05)
(4.61483e-05 1.21031e-05 -8.44254e-06)
(4.86405e-05 7.69609e-06 -1.39862e-05)
(4.46398e-05 -1.62198e-06 -1.69584e-05)
(4.24344e-05 -7.53857e-06 -1.61337e-05)
(2.97019e-05 -1.2418e-05 -1.27291e-05)
(1.59226e-05 -9.32885e-06 -8.86974e-06)
(-4.00801e-06 3.27773e-06 -1.92934e-05)
(-1.01476e-05 -1.93548e-06 -3.52998e-05)
(-5.15741e-05 -3.96978e-05 -8.15028e-05)
(-7.15511e-05 -0.000113495 -8.69858e-05)
(-0.000115149 -0.00014967 -4.26119e-05)
(-0.000289537 -0.000137296 -2.85242e-05)
(-0.000408279 -0.000150912 -6.10352e-05)
(-0.000532804 -0.000183737 -3.95977e-05)
(-0.000642339 -0.000197777 -1.26361e-05)
(-0.000740281 -0.000204077 1.33108e-05)
(-0.00082328 -0.000205444 3.73593e-05)
(-0.000893713 -0.00020495 5.83675e-05)
(-0.000953335 -0.000204608 7.58334e-05)
(-0.00100183 -0.000205073 8.94093e-05)
(-0.00104116 -0.000206733 9.94169e-05)
(-0.00107187 -0.000209852 0.000105981)
(-0.00109514 -0.000214132 0.000108994)
(-0.00111196 -0.000219456 0.000108185)
(-0.00112501 -0.000224755 0.000103983)
(-0.00113611 -0.000230604 9.60132e-05)
(-0.0011486 -0.000235723 8.56753e-05)
(-0.00116049 -0.000240871 7.23961e-05)
(-0.00117654 -0.000244466 5.76278e-05)
(-0.00117911 -0.00024851 4.50852e-05)
(-0.00114964 -0.000254183 1.94684e-05)
(4.77131e-05 1.62796e-05 4.84619e-05)
(6.49289e-05 1.3828e-05 -8.12144e-06)
(7.16793e-05 1.01544e-05 -1.60873e-05)
(7.41455e-05 2.68471e-06 -2.046e-05)
(7.29002e-05 -5.84887e-06 -2.21214e-05)
(6.72465e-05 -1.39175e-05 -2.17651e-05)
(5.74188e-05 -1.92747e-05 -2.00987e-05)
(4.10168e-05 -2.22717e-05 -2.0916e-05)
(2.77707e-05 -1.80149e-05 -2.85784e-05)
(-2.33339e-05 -3.25314e-05 -3.65075e-05)
(-3.29341e-05 -6.21904e-06 -6.0033e-05)
(-3.91054e-05 -7.93474e-05 -5.55692e-05)
(-0.000112576 -7.28372e-05 -2.09834e-05)
(-0.000279968 -0.00010328 -5.65041e-05)
(-0.000397549 -0.000135198 -5.40632e-05)
(-0.000509113 -0.000157824 -3.34672e-05)
(-0.000606198 -0.000167787 -1.0081e-05)
(-0.00069181 -0.00017231 1.38788e-05)
(-0.000763626 -0.000173445 3.61616e-05)
(-0.000821141 -0.000173251 5.54076e-05)
(-0.000867936 -0.000173715 7.09324e-05)
(-0.000904957 -0.000174949 8.28749e-05)
(-0.000932176 -0.000177529 9.1204e-05)
(-0.000951314 -0.000181219 9.57274e-05)
(-0.000963501 -0.000186074 9.61156e-05)
(-0.000972785 -0.000190712 9.30384e-05)
(-0.000978229 -0.000195627 8.58751e-05)
(-0.000987455 -0.000200232 7.66453e-05)
(-0.00099389 -0.000204237 6.44846e-05)
(-0.00100824 -0.000207205 5.16656e-05)
(-0.00100672 -0.000210536 4.26752e-05)
(-0.00097155 -0.000216884 1.93631e-05)
(5.49562e-05 1.47724e-05 4.8658e-05)
(7.68549e-05 1.21871e-05 -6.99007e-06)
(8.728e-05 8.56336e-06 -1.57926e-05)
(9.32377e-05 9.41415e-07 -2.11696e-05)