/*--------------------------------*- C++ -*----------------------------------*\
  =========                 |
  \\      /  F ield         | OpenFOAM: The Open Source CFD Toolbox
   \\    /   O peration     | Website:  https://openfoam.org
    \\  /    A nd           | Version:  6
     \\/     M anipulation  |
\*---------------------------------------------------------------------------*/
FoamFile
{
    version     2.0;
    format      ascii;
    class       volScalarField;
    location    "17";
    object      yPlus;
}
// * * * * * * * * * * * * * * * * * * * * * * * * * * * * * * * * * * * * * //

dimensions      [0 0 0 0 0 0 0];

internalField   uniform 0;

boundaryField
{
    inlet
    {
        type            calculated;
        value           uniform 0;
    }
    outlet
    {
        type            calculated;
        value           uniform 0;
    }
    roughCylinder
    {
        type            calculated;
        value           nonuniform List<scalar> 
5120
(
43.5182
51.3394
57.5695
63.6969
68.9863
73.2764
76.7137
79.4918
81.7661
83.6711
85.3266
86.809
88.1557
89.4008
90.5749
91.7087
92.8326
93.975
95.1594
96.403
97.7152
99.0983
100.549
102.061
103.623
105.223
106.844
108.462
110.041
111.507
112.716
113.423
42.8086
50.3447
56.3753
62.3621
67.5775
71.8319
75.2504
78.02
80.2939
82.2056
83.8699
85.3564
86.6948
87.9258
89.0819
90.1943
91.2947
92.412
93.5708
94.7871
96.0705
97.4235
98.8429
100.321
101.849
103.412
104.996
106.576
108.117
109.547
110.725
111.412
42.0179
49.3067
55.1504
60.9979
66.1404
70.3641
73.7721
76.5432
78.828
80.7555
82.4333
83.9243
85.2586
86.4789
87.6188
88.7118
89.7904
90.8844
92.0171
93.2066
94.4619
95.7853
97.1734
98.6189
100.112
101.64
103.186
104.729
106.231
107.626
108.773
109.441
41.2125
48.265
53.921
59.6244
64.692
68.8865
72.2873
75.065
77.3682
79.3199
81.0173
82.5181
83.8548
85.0662
86.1929
87.2685
88.3268
89.398
90.5077
91.672
92.9002
94.1948
95.5526
96.966
98.4248
99.9169
101.426
102.932
104.397
105.756
106.872
107.521
40.344
47.1753
52.6429
58.1997
63.1953
67.3714
70.7808
73.5821
75.9176
77.9014
79.6225
81.1357
82.4768
83.6854
84.8024
85.8638
86.9049
87.9568
89.0434
90.1831
91.3857
92.6528
93.9813
95.3637
96.7903
98.248
99.7211
101.19
102.618
103.943
105.03
105.658
39.4842
46.0925
51.3643
56.7667
61.6884
65.8495
69.2718
72.0988
74.468
76.487
78.2358
79.7678
81.1223
82.3357
83.4475
84.4978
85.5234
86.5563
87.6238
88.7421
89.9203
91.1612
92.4614
93.8136
95.2071
96.6306
98.069
99.5009
100.894
102.183
103.241
103.849
38.5468
44.9412
50.0108
55.2513
60.0998
64.2585
67.7144
70.5901
73.0117
75.0768
76.8613
78.4181
79.7864
81.0082
82.1207
83.1654
84.1807
85.2006
86.249
87.3456
88.5012
89.7173
90.9905
92.3138
93.6769
95.0678
96.4713
97.8684
99.2254
100.482
101.511
102.1
37.6271
43.8009
48.6574
53.7247
58.4963
62.6572
66.1521
69.076
71.5467
73.6588
75.4815
77.0669
78.4616
79.7019
80.8253
81.8689
82.8765
83.8824
84.9169
85.9972
87.1317
88.3242
89.5716
90.8661
92.1983
93.5557
94.9255
96.2871
97.6093
98.832
99.8326
100.401
36.5913
42.5501
47.1805
52.0579
56.745
60.9177
64.4775
67.4846
70.0372
72.2165
74.0932
75.7237
77.147
78.4071
79.5418
80.5944
81.6022
82.6053
83.6267
84.6887
85.8044
86.9751
88.1976
89.4653
90.7681
92.095
93.4309
94.7582
96.0456
97.2372
98.2084
98.7568
35.5709
41.3042
45.699
50.3715
54.966
59.1557
62.7893
65.8783
68.5039
70.7522
72.6869
74.3586
75.8238
77.1187
78.281
79.3453
80.3581
81.356
82.3704
83.423
84.5218
85.6719
86.8706
88.1108
89.3833
90.6764
91.979
93.2697
94.5239
95.6803
96.6249
97.1508
34.3468
39.8651
44.0053
48.4418
52.9183
57.1232
60.86
64.0884
66.8533
69.2105
71.2294
72.979
74.4952
75.8272
77.0126
78.0993
79.1251
80.1329
81.1433
82.1827
83.267
84.3984
85.5742
86.7886
88.0324
89.2957
90.563
91.8214
93.0384
94.1661
95.0801
95.5848
33.1067
38.4163
42.297
46.4824
50.828
55.0533
58.91
62.2761
65.1544
67.6216
69.7392
71.5512
73.1325
74.5198
75.7551
76.8698
77.9135
78.9228
79.9347
80.9733
82.046
83.1601
84.3141
85.5017
86.7147
87.9429
89.1767
90.3967
91.5825
92.6733
93.5604
94.0404
31.5392
36.6437
40.2234
44.0911
48.2376
52.4466
56.4443
60.0468
63.1907
65.8602
68.1191
70.0662
71.7334
73.1855
74.4611
75.6165
76.6885
77.7244
78.7428
79.7732
80.8363
81.9353
83.0687
84.2321
85.4172
86.6164
87.8143
89.0023
90.1483
91.2121
92.0681
92.5241
29.8993
34.8239
38.1224
41.6733
45.6125
49.8175
53.9946
57.826
61.1396
63.9905
66.4309
68.4847
70.2637
71.8028
73.1607
74.3659
75.4747
76.5204
77.5502
78.591
79.6491
80.7347
81.8486
82.9852
84.1386
85.2988
86.4628
87.61
88.7264
89.7506
90.5776
91.0043
27.6595
32.4087
35.3461
38.4291
41.9795
46.0332
50.3408
54.5729
58.4652
61.7522
64.4669
66.7743
68.697
70.3515
71.7776
73.0511
74.2078
75.3049
76.3561
77.3948
78.4492
79.5239
80.6195
81.7334
82.8595
83.9935
85.1176
86.2322
87.3034
88.3021
89.0973
89.4971
25.1307
29.805
32.4952
35.2144
38.4367
42.4213
47.0204
51.6229
55.6736
59.2626
62.3379
64.8464
66.9958
68.7971
70.3616
71.7179
72.9406
74.0574
75.1324
76.1971
77.255
78.3212
79.3991
80.4853
81.5759
82.6621
83.7532
84.8234
85.8662
86.8217
87.5818
87.9439
21.2043
25.904
28.1669
30.1092
32.4886
35.8461
40.217
45.5437
51.2371
55.8999
59.5973
62.662
65.0639
67.0929
68.7801
70.2551
71.5539
72.7603
73.8799
74.9492
76.011
77.0713
78.1335
79.1978
80.2625
81.3285
82.3692
83.4035
84.3936
85.3234
86.0511
86.3832
15.9342
21.0993
23.5444
25.5225
27.3376
30.4527
36.0858
41.9389
46.6981
51.9252
56.4558
59.9288
62.876
65.1766
67.1189
68.7345
70.1532
71.3934
72.5513
73.6713
74.7481
75.8057
76.8515
77.8857
78.9057
79.9055
80.9166
81.9013
82.8634
83.7429
84.4282
84.7011
5.23959
10.6177
11.9937
11.3986
11.2496
11.4781
14.3135
24.1936
37.689
45.5086
51.6959
56.6729
60.0932
62.9279
65.1197
66.9675
68.5123
69.9073
71.1519
72.2824
73.3739
74.4319
75.465
76.4763
77.4727
78.4636
79.4051
80.3484
81.2435
82.1013
82.7451
82.9881
3.34077
7.64663
10.6632
14.6238
10.2613
11.1007
17.9875
20.144
19.8243
37.7071
46.1526
51.7799
56.8202
60.2038
62.9468
65.0518
66.829
68.2888
69.5911
70.8176
71.9413
73.0043
74.0211
74.997
75.9317
76.8236
77.7375
78.6168
79.4862
80.2776
80.875
81.0123
11.5339
15.964
16.8321
15.8581
11.6021
10.5519
7.52362
8.20341
20.4199
11.0123
33.3141
46.1742
51.7563
56.7253
60.0194
62.6565
64.6715
66.4132
67.8863
69.1278
70.2835
71.3577
72.3643
73.3141
74.2253
75.1227
75.9395
76.7793
77.5493
78.3304
78.859
78.9644
20.1837
24.622
26.5962
27.5155
27.1763
24.9886
21.4521
20.1502
8.61322
22.1847
30.44
30.2293
45.6649
51.8513
56.712
59.864
62.3874
64.2703
65.8437
67.2774
68.4979
69.5878
70.5781
71.4792
72.2997
73.046
73.8213
74.5482
75.3056
75.9917
76.4692
76.3756
22.2334
27.2229
29.949
31.9816
33.2338
33.5715
32.7231
30.1613
25.4066
25.947
29.6079
30.7217
31.5147
45.7405
51.5307
56.1216
59.1194
61.5856
63.5086
64.9562
66.2419
67.367
68.3485
69.2156
70.0014
70.761
71.4076
72.1285
72.7134
73.4066
73.7711
73.6067
22.9941
28.0834
31.0169
33.3795
35.1287
36.2377
36.6448
36.1322
34.0057
28.6649
31.4095
33.9716
32.9364
34.1358
45.5983
51.0552
55.4995
58.2784
60.4259
62.3036
63.7278
64.8864
65.8492
66.6363
67.2744
67.7978
68.3333
68.8018
69.3962
69.9755
70.2272
69.6593
22.3435
27.5759
30.6693
33.2606
35.3078
36.7986
37.7259
38.0506
37.583
35.5427
30.5068
29.0296
26.9335
13.272
33.3937
44.6427
49.5461
53.8412
56.7364
58.5768
60.1308
61.3863
62.3447
63.07
63.6237
64.1518
64.5347
65.1081
65.4169
65.9664
66.1328
65.2893
20.8352
26.2024
29.3871
32.1092
34.34
36.0758
37.3327
38.1324
38.4655
38.1764
36.6136
32.5179
30.2873
18.0912
11.2327
30.2512
42.8892
47.5498
51.2176
54.2186
56.0837
57.407
58.3122
58.8778
59.1423
59.2436
59.2509
59.2036
59.4234
60.0775
59.6573
57.9874
18.8484
24.3054
27.514
30.2828
32.6035
34.4903
35.9689
37.0877
37.9053
38.4421
38.56
37.6525
34.2959
29.3242
17.1598
15.192
27.7234
39.9353
44.4127
46.8806
49.0934
50.6469
51.6996
51.9662
51.9083
52.1659
52.3433
52.3411
52.9434
52.4364
53.3706
50.2775
16.6031
22.0353
25.1652
27.8767
30.1899
32.1434
33.7791
35.15
36.3314
37.3921
38.334
38.9783
38.6083
36.0455
27.9481
23.6391
12.2507
18.8581
32.7331
39.5102
42.0258
44.009
44.3172
44.735
43.7387
42.422
40.1085
40.7176
37.0861
41.6821
36.4629
34.2629
14.3526
19.6201
22.5676
25.1207
27.3331
29.2662
30.9793
32.5344
34.0038
35.4619
36.9371
38.3466
39.418
39.4802
36.5054
31.7509
18.1902
11.4002
4.32236
16.9962
22.0261
24.2624
30.7271
24.1715
20.4493
27.1647
35.3018
16.126
33.9359
19.2322
35.8413
40.7537
12.3846
17.3685
20.0599
22.3833
24.4253
26.2659
27.9754
29.62
31.2652
32.9765
34.8013
36.705
38.5141
39.8489
39.8354
36.6214
29.7496
26.4314
27.4057
28.686
28.3248
20.7732
36.7181
19.3441
32.4401
35.6709
39.421
22.225
36.4053
23.2952
39.951
43.8539
10.8704
15.5051
17.9265
20.0047
21.8543
23.568
25.2196
26.8702
28.5729
30.3765
32.3301
34.4493
36.6612
38.7151
40.1024
40.0301
37.2832
32.9323
24.2157
26.7489
27.913
21.8361
34.7839
28.4488
25.8553
35.3536
39.8471
35.235
31.6086
38.7299
41.2481
29.9933
9.75571
14.1476
16.3419
18.2154
19.9042
21.5034
23.08
24.6814
26.345
28.1068
30.0101
32.0975
34.3773
36.7386
38.8465
40.1596
40.1638
38.1584
35.1726
32.1138
28.8772
27.1534
26.9354
31.015
35.3545
35.1064
35.5408
37.514
39.1299
37.4637
37.3553
36.681
9.16473
13.3686
15.4045
17.1463
18.7377
20.2642
21.776
23.3022
24.8654
26.4933
28.2256
30.1152
32.2128
34.5174
36.8826
38.9389
40.1829
40.2383
39.7372
37.5645
38.0941
37.6792
37.8615
39.5953
42.1301
41.8745
41.9606
41.6604
43.8554
39.7643
42.4034
41.5447
8.99498
13.1129
15.0798
16.7743
18.3381
19.8402
21.3113
22.7644
24.2117
25.6762
27.1946
28.817
30.6032
32.6057
34.8166
37.0776
39.0244
40.2442
40.7621
40.1267
40.9197
41.0103
41.4501
42.2344
43.4463
43.2358
43.2906
42.5792
44.2536
41.0884
43.7274
42.7966
9.17443
13.2842
15.2548
16.9708
18.5617
20.0783
21.5345
22.9334
24.2828
25.6029
26.9257
28.2935
29.7589
31.3825
33.2167
35.2508
37.3281
39.1454
40.4509
40.8306
41.6731
41.9112
42.2465
42.7059
43.2575
42.9864
42.9006
42.3415
43.3023
41.0185
43.0915
42.5216
9.60808
13.7609
15.783
17.5661
19.2206
20.7807
22.2483
23.6206
24.9041
26.1184
27.2922
28.4603
29.6628
30.9501
32.3806
34.0025
35.8011
37.6461
39.3078
40.3767
41.3671
41.7457
41.9572
42.112
42.158
41.7537
41.496
41.111
41.4717
39.9289
41.3777
41.2347
10.2417
14.467
16.564
18.4344
20.1684
21.785
23.2791
24.6464
25.8952
27.0461
28.1254
29.1605
30.1798
31.2184
32.3223
33.5455
34.9268
36.4507
38.0072
39.2883
40.3635
40.8546
40.9839
40.8779
40.5704
40.0708
39.6921
39.4028
39.4158
38.4448
39.4732
39.7309
11.0228
15.3482
17.5324
19.4968
21.3121
22.9868
24.5124
25.8871
27.1234
28.2444
29.2748
30.2364
31.1472
32.0276
32.9076
33.8286
34.8349
35.9541
37.1612
38.2885
39.2534
39.7505
39.8169
39.5403
39.0318
38.4855
38.0448
37.8075
37.6953
37.2083
38.0107
38.5355
11.8621
16.3562
18.6363
20.6946
22.5878
24.3176
25.8759
27.2656
28.5048
29.6195
30.6335
31.5647
32.4234
33.2192
33.9677
34.6936
35.4302
36.2098
37.0421
37.8566
38.5657
38.9442
38.927
38.5511
37.9513
37.3876
36.9262
36.7256
36.6344
36.534
37.251
37.921
12.8429
17.4596
19.8339
21.9835
23.9502
25.7317
27.3229
28.7327
29.9852
31.1093
32.1283
33.0569
33.9002
34.6609
35.3448
35.9633
36.5349
37.0811
37.6189
38.1252
38.5435
38.7297
38.5962
38.1494
37.5116
36.9373
36.477
36.3119
36.3075
36.4938
37.2027
37.9417
13.5448
13.9645
14.4523
14.8465
15.2295
15.5362
15.8044
16.0135
16.1824
16.3028
16.3859
16.4298
16.4388
16.4136
16.3588
16.2766
16.1693
16.042
15.9057
15.7903
15.7894
15.9057
16.044
16.1738
16.2838
16.3687
16.4265
16.4544
16.4485
16.4076
16.3276
16.2102
16.0444
15.8383
15.573
15.2693
14.8885
14.4956
14.0082
13.5869
18.284
18.7193
19.2266
19.6385
20.0392
20.3668
20.6575
20.8913
21.0861
21.2343
21.3456
21.4187
21.4564
21.4585
21.4274
21.3649
21.2719
21.1522
21.0161
20.8956
20.8949
21.0168
21.1556
21.2783
21.3745
21.4403
21.4746
21.4757
21.4411
21.3711
21.2628
21.1176
20.9258
20.6948
20.4068
20.0816
19.6827
19.2716
18.7642
18.3265
20.7314
21.1922
21.7295
22.167
22.5961
22.954
23.2791
23.5502
23.7853
23.977
24.1333
24.2531
24.3384
24.3873
24.4002
24.3777
24.3201
24.2296
24.1154
24.008
24.0078
24.1172
24.2346
24.3288
24.3901
24.4162
24.4068
24.3613
24.2794
24.1627
24.0094
23.8207
23.5884
23.32
22.9973
22.6416
22.2142
21.7774
21.2399
20.7766
22.9371
23.4176
23.9779
24.435
24.8883
25.2733
25.6302
25.9369
26.2112
26.4458
26.6468
26.8129
26.9454
27.0414
27.0995
27.1188
27.0989
27.0412
26.9549
26.87
26.8702
26.9578
27.0479
27.1098
27.1338
27.1187
27.0644
26.972
26.843
26.6802
26.4822
26.2505
25.9789
25.6748
25.3201
24.937
24.4851
24.0286
23.468
22.9852
24.9407
25.4257
25.9938
26.4572
26.9222
27.3222
27.6991
28.0301
28.3323
28.5994
28.8366
29.0407
29.212
29.347
29.443
29.498
29.5106
29.4824
29.4226
29.3605
29.3613
29.4267
29.4908
29.5236
29.5155
29.4649
29.3731
29.2419
29.0742
28.8734
28.6394
28.375
28.0753
27.7466
27.3717
26.9733
26.5095
26.0465
25.4779
24.9905
26.7419
27.2151
27.7768
28.2344
28.6994
29.1042
29.4915
29.8394
30.1642
30.4583
30.7255
30.9619
31.1665
31.3347
31.4632
31.5489
31.5896
31.5867
31.5496
31.5058
31.5072
31.5547
31.5965
31.6043
31.5684
31.4874
31.3633
31.1991
30.9983
30.7652
30.501
30.2097
29.8872
29.5413
29.1557
28.7522
28.288
27.8304
27.2679
26.7922
28.3409
28.7906
29.3383
29.7843
30.2446
30.6516
31.0487
31.4131
31.7589
32.0779
32.3728
32.6385
32.8728
33.0708
33.228
33.3406
33.4056
33.4241
33.4051
33.3742
33.376
33.411
33.4351
33.4218
33.3619
33.2545
33.1019
32.908
32.6775
32.4152
32.1234
31.8069
31.4632
31.1007
30.7048
30.2988
29.8387
29.3921
28.8432
28.3904
29.7529
30.175
30.7079
31.1434
31.6018
32.0153
32.4241
32.8059
33.1723
33.5151
33.8355
34.1281
34.3893
34.6137
34.7961
34.9316
35.0171
35.0529
35.0474
35.0252
35.0272
35.0541
35.065
35.0348
34.9548
34.8245
34.647
34.4269
34.1697
33.8805
33.5631
33.2228
32.8582
32.4781
32.0703
31.6573
31.1987
30.762
30.2271
29.8012
31.007
31.4029
31.9248
32.3551
32.8163
33.2386
33.6603
34.059
34.4449
34.8093
35.1526
35.4687
35.7533
36.0004
36.2041
36.3589
36.4609
36.5101
36.5142
36.4973
36.4994
36.5214
36.523
36.4799
36.3837
36.2345
36.0359
35.7934
35.5127
35.2001
34.8598
34.4976
34.1136
33.7162
33.2953
32.8731
32.4115
31.9794
31.4548
31.0541
32.1341
32.5068
33.0218
33.451
33.9163
34.348
34.7817
35.1958
35.5987
35.9821
36.3448
36.6808
36.985
37.2508
37.4718
37.642
37.7569
37.8159
37.8267
37.8127
37.815
37.8344
37.8299
37.7771
37.6684
37.5041
37.2883
37.0273
36.7272
36.3947
36.0349
35.6538
35.2526
34.8398
34.4067
33.9748
33.5085
33.0771
32.5588
32.1803
33.1562
33.5071
34.0174
34.446
34.9152
35.3553
35.7993
36.2265
36.6438
37.0428
37.4216
37.7738
38.0938
38.3746
38.6093
38.7913
38.916
38.9824
38.9976
38.9854
38.9878
39.0059
38.9971
38.9374
38.8192
38.6432
38.414
38.1382
37.8224
37.4738
37.0979
36.7012
36.2855
35.8594
35.4156
34.9753
34.5047
34.0734
33.5593
33.2013
34.0846
34.4126
34.917
35.3443
35.8166
36.2635
36.7162
37.1543
37.5833
37.995
38.3868
38.7521
39.0846
39.3772
39.6225
39.814
39.9465
40.0188
40.0381
40.0278
40.0305
40.0467
40.0344
39.9689
39.8433
39.6581
39.4184
39.131
38.8028
38.4413
38.0523
37.6429
37.2154
36.7782
36.3257
35.8783
35.4044
34.9741
34.465
34.1288
34.9216
35.2237
35.7201
36.145
36.6191
37.0716
37.5318
37.9789
38.4178
38.84
39.2424
39.618
39.9605
40.2623
40.5161
40.7151
40.8542
40.9324
40.9567
40.9498
40.9526
40.9657
40.9487
40.8778
40.7457
40.5532
40.3053
40.0087
39.6707
39.2987
38.8994
38.4794
38.042
37.5958
37.1357
36.6825
36.2063
35.778
35.2763
34.9646
35.666
35.9379
36.4234
36.8446
37.3199
37.7773
38.2439
38.6991
39.1465
39.5776
39.9887
40.3728
40.7231
41.0323
41.293
41.4982
41.6435
41.7278
41.7585
41.7572
41.7602
41.7681
41.7448
41.668
41.5299
41.3314
41.0768
40.773
40.4271
40.047
39.6388
39.21
38.7641
38.3096
37.843
37.3847
36.9073
36.4821
35.9903
35.7077
36.3185
36.5525
37.0231
37.4391
37.9145
38.3767
38.8496
39.3125
39.7679
40.2069
40.6255
41.0167
41.3736
41.6889
41.9552
42.1662
42.3174
42.4086
42.4472
42.4528
42.456
42.4573
42.4263
42.3428
42.1989
41.9948
41.7347
41.4249
41.0726
40.6853
40.2696
39.8329
39.3791
38.9169
38.444
37.9808
37.5029
37.0825
36.6048
36.3582
36.8811
37.0651
37.5147
37.9231
38.3981
38.8648
39.3441
39.8149
40.278
40.7247
41.1505
41.5481
41.9109
42.2314
42.5028
42.719
42.8764
42.9749
43.022
43.0347
43.0381
43.0326
42.9932
42.9024
42.7526
42.5433
42.2781
41.9631
41.6051
41.2114
40.7887
40.3443
39.8826
39.4127
38.9333
38.4653
37.9878
37.5744
37.1163
36.9179
37.3592
37.4733
37.8929
38.2899
38.7628
39.2341
39.7202
40.1991
40.6705
41.1251
41.5578
41.9617
42.3299
42.6553
42.9316
43.1531
43.3164
43.4222
43.4775
43.4969
43.5005
43.4886
43.441
43.343
43.1872
42.9727
42.7027
42.3828
42.0192
41.6193
41.1896
40.7373
40.2675
39.7893
39.303
38.8305
38.3549
37.9525
37.5235
37.3932
37.7599
37.775
38.1482
38.5299
38.9982
39.4738
39.9667
40.4546
40.9347
41.3976
41.8378
42.248
42.6218
42.9522
43.2332
43.4597
43.6288
43.7416
43.8045
43.8295
43.8333
43.8158
43.7608
43.6557
43.494
43.2744
42.9996
42.6747
42.3055
41.899
41.4619
41.0013
40.5227
40.0355
39.5425
39.0657
38.5945
38.2072
37.8243
37.7922
38.0895
37.971
38.2744
38.6306
39.092
39.5707
40.0706
40.5677
41.0572
41.529
41.9771
42.3942
42.7739
43.1095
43.3953
43.6268
43.8015
43.9206
43.9899
44.0196
44.0234
44.0013
43.9398
43.8283
43.6609
43.4361
43.1563
42.826
42.4508
42.0373
41.592
41.1223
40.6342
40.1378
39.6377
39.1579
38.6941
38.3331
38.0214
38.1253
38.3422
38.059
38.267
38.583
39.0311
39.5117
40.0179
40.5242
41.0234
41.5047
41.9612
42.3857
42.7717
43.1128
43.4037
43.6401
43.8201
43.9447
44.0194
44.0528
44.0565
44.0308
43.9637
43.8464
43.6734
43.4434
43.1584
42.8222
42.4404
42.0192
41.5651
41.0857
40.5876
40.0818
39.5754
39.0941
38.6444
38.3256
38.1129
38.3872
38.4765
38.0214
38.1185
38.3805
38.8073
39.2878
39.7988
40.3138
40.8223
41.3129
41.778
42.21
42.6025
42.9493
43.2453
43.4865
43.6711
43.8005
43.8796
43.9157
43.9195
43.8907
43.819
43.6967
43.5186
43.2835
42.9929
42.6505
42.2617
41.8325
41.3694
40.8802
40.3723
39.8574
39.3462
38.8653
38.4389
38.1783
38.086
38.549
38.4417
37.8316
37.8191
38.021
38.4196
38.8954
39.412
39.9347
40.4516
40.9506
41.4235
41.8626
42.261
42.6131
42.9136
43.159
43.3475
43.4806
43.5627
43.6009
43.6045
43.5735
43.4984
43.3719
43.1895
42.9497
42.654
42.3059
41.9104
41.4736
41.002
40.5036
39.9867
39.4637
38.9466
38.4712
38.075
37.879
37.9037
38.5321
38.1726
37.4608
37.3679
37.5186
37.8897
38.3573
38.8764
39.4039
39.9267
40.4316
40.91
41.3541
41.757
42.1128
42.4164
42.6644
42.8554
42.9906
43.0744
43.1137
43.1172
43.0849
43.0077
42.8788
42.6935
42.4504
42.151
41.7985
41.3981
40.9555
40.4776
39.9724
39.4486
38.9198
38.3994
37.9317
37.564
37.4214
37.5319
38.271
37.6423
36.9035
36.7792
36.9019
37.2538
37.7123
38.2303
38.7614
39.2868
39.7943
40.2748
40.7206
41.1248
41.4814
41.7855
42.0336
42.2245
42.3593
42.4428
42.4819
42.4853
42.453
42.3759
42.2469
42.0611
41.8174
41.5168
41.1627
40.7602
40.315
39.8339
39.3251
38.7975
38.2634
37.7429
37.2841
36.9366
36.8263
36.9787
37.7669
37.0681
36.3005
36.1536
36.2539
36.5887
37.0359
37.5483
38.0775
38.6006
39.1061
39.5843
40.0278
40.4292
40.783
41.084
41.3288
41.5163
41.6476
41.728
41.7653
41.7688
41.7385
41.6644
41.5388
41.3563
41.1155
40.8176
40.466
40.0656
39.6221
39.1426
38.6347
38.1077
37.5732
37.0551
36.603
36.2657
36.1671
36.3262
37.1187
36.5128
35.7381
35.586
35.6758
35.999
36.4348
36.9375
37.4585
37.9739
38.4718
38.9426
39.3785
39.7724
40.1185
40.4119
40.649
40.8285
40.9521
41.0256
41.0587
41.0623
41.0362
40.9689
40.8506
40.6754
40.4418
40.1508
39.8059
39.412
38.9748
38.5014
37.9994
37.4785
36.9505
36.4408
35.9994
35.6737
35.5863
35.7489
36.5436
36.1604
35.3943
35.2418
35.3198
35.6269
36.0439
36.5275
37.0307
37.5305
38.0141
38.4712
38.8939
39.2751
39.6086
39.8897
40.1147
40.282
40.3933
40.4556
40.4815
40.4858
40.4679
40.4122
40.3062
40.1432
39.9214
39.6421
39.309
38.9267
38.501
38.0388
37.5478
37.0376
36.5204
36.0209
35.5877
35.2659
35.1756
35.3256
36.1
36.1239
35.3768
35.2293
35.2973
35.586
35.9791
36.436
36.9121
37.3882
37.8497
38.2863
38.6895
39.052
39.3678
39.6316
39.8397
39.9903
40.0848
40.1307
40.1447
40.1492
40.1431
40.103
40.0128
39.8652
39.6586
39.3949
39.0774
38.7111
38.3017
37.8562
37.3823
36.8898
36.3918
35.9099
35.4904
35.1761
35.0849
35.2204
35.9702
36.4457
35.7379
35.6059
35.6629
35.928
36.2875
36.7072
37.1478
37.592
38.0242
38.4337
38.8116
39.1505
39.4442
39.6874
39.8762
40.0082
40.0842
40.1114
40.1106
40.1166
40.1265
40.1051
40.0329
39.9031
39.7147
39.47
39.1724
38.827
38.439
38.0153
37.5637
37.0934
36.6179
36.1532
35.7418
35.4215
35.305
35.3904
36.0618
37.0049
36.3135
36.1911
36.2445
36.4952
36.8311
37.2231
37.6368
38.0546
38.4611
38.8458
39.1998
39.5161
39.7886
40.0121
40.1826
40.2975
40.3569
40.3672
40.3516
40.3585
40.3836
40.3788
40.3228
40.2099
40.0398
39.8151
39.5392
39.2171
38.8539
38.4563
38.0319
37.5897
37.143
36.7057
36.3132
35.9957
35.8587
35.884
36.443
37.5997
36.9574
36.8606
36.9156
37.1544
37.4689
37.8386
38.2288
38.6232
39.0067
39.3692
39.7022
39.9987
40.2531
40.4602
40.6161
40.7181
40.766
40.7658
40.7414
40.7502
40.7863
40.7935
40.7505
40.652
40.4982
40.2914
40.0352
39.7345
39.3942
39.0207
38.6216
38.206
37.787
37.3789
37.0119
36.7122
36.5853
36.6094
37.1636
37.7245
37.1966
37.1817
37.2946
37.5691
37.9034
38.2809
38.6712
39.0608
39.4364
39.7891
40.1114
40.3972
40.6409
40.8378
40.9845
41.0782
41.1188
41.1124
41.0829
41.0908
41.1308
41.1437
41.1078
41.0182
40.8749
40.6803
40.4384
40.1535
39.8313
39.4783
39.1024
38.7134
38.3252
37.9529
37.6292
37.3714
37.2862
37.3368
37.9208
43.5168
51.34
57.5713
63.6996
68.9893
73.2793
76.7162
79.4937
81.7674
83.672
85.3273
86.8094
88.1557
89.4002
90.5738
91.7073
92.831
93.9731
95.1571
96.4004
97.7124
99.0953
100.546
102.058
103.62
105.22
106.841
108.461
110.04
111.51
112.721
113.435
42.8154
50.3509
56.3809
62.3668
67.5812
71.8346
75.2525
78.0216
80.2954
82.2066
83.8705
85.3563
86.6944
87.9253
89.0811
90.193
91.293
92.4102
93.5686
94.7846
96.0677
97.4205
98.8395
100.318
101.845
103.409
104.993
106.575
108.116
109.549
110.731
111.425
42.017
49.3082
55.1534
61.002
66.1451
70.3687
73.7764
76.5467
78.8306
80.7574
82.4348
83.9256
85.2595
86.4791
87.6182
88.7108
89.7891
90.8826
92.0149
93.204
94.459
95.7821
97.17
98.6156
100.109
101.637
103.184
104.727
106.231
107.628
108.779
109.454
41.2225
48.2742
53.9294
59.6316
64.6977
68.8907
72.2905
75.0675
77.3705
79.3221
81.0191
82.519
83.8548
85.0658
86.1924
87.2676
88.3254
89.3963
90.5056
91.6695
92.8972
94.1916
95.5492
96.9627
98.4215
99.9142
101.424
102.93
104.396
105.758
106.879
107.535
40.3439
47.1777
52.6473
58.2055
63.202
67.3783
70.7876
73.5885
75.9229
77.9054
79.6254
81.1381
82.479
83.687
84.8029
85.8634
86.904
87.9553
89.0413
90.1806
91.3828
92.6495
93.9778
95.36
96.7866
98.2448
99.7193
101.189
102.618
103.945
105.037
105.674
39.4988
46.1064
51.3775
56.7786
61.6983
65.8573
69.2775
72.1028
74.4711
76.4901
78.2391
79.7705
81.1234
82.3357
83.4471
84.4972
85.5223
86.5547
87.6219
88.7396
89.9173
91.1579
92.4578
93.8099
95.2035
96.6275
98.0663
99.4992
100.893
102.186
103.248
103.866
38.5478
44.9454
50.0171
55.2593
60.1086
64.2676
67.7237
70.5996
73.021
75.0848
76.8669
78.4219
79.7899
81.0115
82.1229
83.1662
84.1805
85.1995
86.247
87.3432
88.4983
89.7139
90.9868
92.3097
93.6733
95.0643
96.4695
97.8676
99.225
100.485
101.519
102.119
37.6484
43.8218
48.6783
53.7446
58.5142
62.6725
66.1644
69.0848
71.5523
73.6628
75.4858
77.0718
78.465
79.703
80.8251
81.8684
82.8756
83.8812
84.9152
85.9947
87.1286
88.3208
89.5678
90.8624
92.1938
93.553
94.9229
96.2849
97.6084
98.8341
99.8409
100.421
36.5951
42.5574
47.1903
52.0691
56.7563
60.9283
64.4877
67.4957
70.0501
72.23
74.104
75.7302
77.1519
78.4123
79.5465
80.5973
81.6033
82.6048
83.6251
84.6865
85.8016
86.9715
88.1937
89.4609
90.7645
92.091
93.4291
94.7573
96.0456
97.2393
98.2179
98.7802
35.6021
41.3358
45.7316
50.4042
54.9977
59.1855
62.8157
65.8992
68.5174
70.7591
72.6923
74.3664
75.8309
77.1222
78.2816
79.3448
80.3576
81.3553
82.3691
83.4207
84.5186
85.6683
86.8666
88.1068
89.3784
90.6738
91.9764
93.2684
94.5222
95.6828
96.6339
97.1765
34.3573
39.8792
44.0221
48.4596
52.9348
57.1361
60.8695
64.0979
66.8671
69.2296
71.2474
72.9892
74.5016
75.8342
77.0202
78.1056
79.1282
80.1333
81.1423
82.1808
83.2645
84.3947
85.57
86.7839
88.029
89.2909
90.5609
91.8201
93.0393
94.1678
95.0916
95.615
33.1535
38.4641
42.3471
46.5344
50.8809
55.1063
58.9607
62.3198
65.1849
67.6368
69.748
71.5646
73.1464
74.5279
75.7576
76.869
77.9132
78.923
79.934
80.9713
82.0427
83.1563
84.3096
85.4972
86.7091
87.9411
89.1755
90.3967
91.5791
92.6754
93.5715
94.0738
31.563
36.6716
40.2552
44.1255
48.2702
52.4719
56.4605
60.0585
63.2071
65.8874
68.1465
70.0797
71.7396
73.1934
74.4717
75.6277
76.6952
77.7265
78.7428
79.7719
80.8342
81.9315
83.0642
84.2269
85.4138
86.6101
87.8122
89.0002
90.1508
91.2133
92.0816
92.5632
29.9761
34.9015
38.2027
41.7555
45.6954
49.9011
54.0749
57.896
61.1902
64.0151
66.4468
68.511
70.2912
71.8206
73.1675
74.3646
75.4735
76.5215
77.5503
78.5895
79.6457
80.7307
81.8434
82.9802
84.132
85.2989
86.4637
87.6125
88.7205
89.7511
90.5907
91.0509
27.7106
32.4629
35.4078
38.5016
42.0595
46.1078
50.4052
54.6311
58.5205
61.8144
64.5143
66.7889
68.6992
70.3573
71.7904
73.0695
74.221
75.3097
76.3578
77.3944
78.4476
79.52
80.6145
81.7274
82.8551
83.9838
85.1148
86.2284
87.3084
88.3025
89.1133
89.5488
25.2893
29.963
32.6528
35.3663
38.5744
42.547
47.116
51.6775
55.7018
59.2654
62.3563
64.8995
67.0488
68.8325
70.3767
71.7152
72.9363
74.0587
75.1334
76.1961
77.2515
78.3168
79.3931
80.4797
81.5692
82.6668
83.757
84.8289
85.8573
86.8179
87.598
88.0105
21.3108
25.9837
28.2667
30.2452
32.6698
36.0525
40.5083
45.892
51.5155
56.1179
59.707
62.6746
65.0563
67.0934
68.7944
70.284
71.5786
72.7705
73.8838
74.9504
76.01
77.067
78.1275
79.1903
80.255
81.3112
82.3665
83.398
84.4016
85.3226
86.0712
86.4529
16.3224
21.6653
24.0925
25.9752
27.7329
30.8524
36.0551
41.5289
46.4087
51.7565
56.4611
60.046
62.9835
65.2412
67.146
68.7281
70.1409
71.3925
72.5538
73.6706
74.7441
75.8003
76.8441
77.8788
78.9002
79.9192
80.9248
81.9125
82.8499
83.7321
84.4459
84.8025
10.2536
11.2108
13.5907
13.3384
12.2656
11.3321
15.741
27.3389
39.3129
46.3817
51.9518
56.662
60.0439
62.9198
65.1397
67.0146
68.5558
69.9282
71.1586
72.2864
73.3731
74.4268
75.4566
76.4667
77.4591
78.4324
79.4053
80.338
81.2558
82.094
82.7735
83.0875
9.05244
4.339
4.9968
15.0556
7.13153
10.698
0.603162
20.3767
18.3862
36.7275
46.202
52.1015
57.1197
60.3273
62.9796
65.0297
66.8018
68.2809
69.5957
70.8168
71.9363
72.9972
74.0112
74.9875
75.928
76.8505
77.7511
78.6417
79.4662
80.2546
80.8884
81.1742
11.3758
15.5908
16.4628
15.9554
14.4174
13.0232
18.9108
18.5498
20.6408
15.8557
34.4955
45.9858
51.4516
56.6883
60.0689
62.7452
64.7442
66.4529
67.8992
69.1369
70.2822
71.3508
72.3518
73.3017
74.2016
75.0707
75.9516
76.7527
77.5726
78.3025
78.9061
79.1252
19.4593
23.8651
25.6696
26.3266
25.7403
23.8503
20.658
14.6354
17.2874
16.2415
18.1546
32.509
47.1358
52.1014
56.6762
59.7762
62.3308
64.2499
65.848
67.2755
68.4907
69.5775
70.5631
71.4644
72.2959
73.0853
73.8399
74.6086
75.2708
75.9439
76.4627
76.6477
21.8771
26.85
29.5518
31.5584
32.7788
33.0904
32.2588
29.8605
25.22
25.2735
25.5596
23.37
30.7408
45.8892
51.7218
56.3073
59.241
61.6554
63.5424
64.9762
66.2342
67.3548
68.3273
69.1991
69.9626
70.679
71.4544
72.0568
72.7694
73.324
73.8517
73.9219
22.7019
27.7743
30.6836
33.0249
34.7592
35.8605
36.2654
35.7615
33.73
29.1438
31.7434
23.3713
15.4155
29.6596
44.6869
50.7552
55.3782
58.2439
60.4151
62.3013
63.7186
64.8694
65.8227
66.6117
67.2639
67.8376
68.3614
68.9466
69.3406
69.8562
70.1724
70.1767
22.2047
27.4171
30.4909
33.0623
35.0894
36.5566
37.4517
37.7366
37.2519
35.3707
30.7923
26.6176
24.9471
22.6334
34.2439
44.9114
49.7785
53.9515
56.8568
58.6237
60.0921
61.3552
62.3024
63.0446
63.5747
64.0115
64.6624
64.916
65.5484
65.7683
66.2198
66.0392
20.8234
26.1685
29.337
32.0441
34.2598
35.979
37.217
37.9985
38.3341
38.1209
36.7463
32.7649
26.1872
25.3364
10.0524
31.2404
42.7653
47.654
51.1079
54.2245
56.0769
57.3717
58.2555
58.8386
59.0915
59.259
59.3381
59.5587
59.4663
59.7408
59.5357
59.0669
18.9474
24.3857
27.5857
30.3475
32.66
34.5342
35.9942
37.0886
37.8807
38.4069
38.5616
37.7692
33.8884
29.3363
26.7192
26.5463
28.3493
39.6284
45.0594
47.056
48.9099
50.5196
51.5816
51.9068
52.2007
52.1845
52.2634
51.8104
52.7704
52.6938
52.5426
52.216
16.7597
22.1892
25.3234
28.0389
30.353
32.3009
33.9236
35.2749
36.4319
37.4669
38.3824
38.9786
38.5331
35.1794
25.1071
14.3089
26.867
21.1064
32.0245
39.6031
42.7204
43.8698
44.2896
44.6047
43.0163
41.7245
41.9303
41.137
41.6554
39.8731
38.4121
35.4426
14.5248
19.808
22.7718
25.339
27.5596
29.4926
31.1962
32.7329
34.1773
35.6076
37.0564
38.4363
39.4365
39.3064
36.475
26.7359
18.7316
27.3962
15.7262
16.3116
20.1704
23.2777
27.7119
23.5983
30.9953
42.8594
22.8476
12.2823
25.5184
44.8207
16.2208
18.1327
12.5342
17.5465
20.2617
22.606
24.6626
26.5093
28.216
29.8488
31.4755
33.1635
34.9611
36.8333
38.5996
39.8671
39.9362
36.6835
28.5028
28.3473
15.9288
6.35284
19.2966
14.588
33.0493
17.6147
32.4948
34.402
9.50936
22.5945
30.7735
47.5252
26.2609
31.5568
10.9906
15.6563
18.1024
20.2021
22.0678
23.791
25.4453
27.0929
28.7885
30.5837
32.5284
34.6379
36.8319
38.857
40.2473
40.1721
37.4832
30.4541
27.6798
17.1895
31.4663
20.7874
32.511
26.3613
36.1412
23.8985
31.1661
35.3483
40.8929
39.9053
31.2431
35.0036
9.84304
14.2644
16.4801
18.3717
20.0742
21.6827
23.2652
24.8705
26.5375
28.3045
30.2161
32.3158
34.6104
36.9871
39.126
40.4706
40.4709
38.5738
34.6553
30.9334
29.5505
28.3523
27.5831
31.6896
33.6632
38.0163
37.6158
37.8694
32.9758
38.5979
39.49
40.8457
9.22262
13.4503
15.5017
17.2559
18.8568
20.3908
21.9098
23.4444
25.0184
26.6611
28.4133
30.3291
32.4604
34.8089
37.2338
39.3635
40.6861
40.8901
39.6537
39.008
35.8913
38.0132
38.0849
39.9165
41.2344
43.7189
42.4098
42.6959
35.6287
43.5345
43.1437
44.3143
9.02726
13.1629
15.1393
16.8409
18.4101
19.9176
21.3957
22.8587
24.3198
25.802
27.3431
28.9952
30.8214
32.8786
35.1642
37.5191
39.5724
40.8904
41.1393
41.186
40.0151
41.1428
41.4639
42.1286
43.0472
44.2237
43.0251
43.192
39.5092
44.1612
43.6727
44.6944
9.18738
13.3098
15.2849
17.0033
18.5961
20.1161
21.5782
22.9859
24.3477
25.6839
27.0272
28.4215
29.9221
31.5946
33.4966
35.6215
37.8059
39.707
40.8909
41.5388
41.2671
41.9174
42.1722
42.2937
42.8853
43.4198