/*--------------------------------*- C++ -*----------------------------------*\
  =========                 |
  \\      /  F ield         | OpenFOAM: The Open Source CFD Toolbox
   \\    /   O peration     | Website:  https://openfoam.org
    \\  /    A nd           | Version:  6
     \\/     M anipulation  |
\*---------------------------------------------------------------------------*/
FoamFile
{
    version     2.0;
    format      ascii;
    class       surfaceScalarField;
    location    "60";
    object      phi;
}
// * * * * * * * * * * * * * * * * * * * * * * * * * * * * * * * * * * * * * //

dimensions      [0 3 -1 0 0 0 0];

internalField   nonuniform List<scalar> 
7494
(
3.35905e-07
-1.73531e-14
4.21434e-13
3.35906e-07
3.99141e-13
-1.3967e-12
-2.72155e-13
8.6624e-13
4.78884e-07
2.34487e-13
1.34158e-12
4.78888e-07
-4.77068e-13
-3.1272e-12
2.96838e-13
1.84094e-12
6.46106e-07
2.656e-13
2.06053e-12
6.46111e-07
-1.25783e-12
-4.23015e-12
1.02407e-12
2.19203e-12
8.20607e-07
-3.64231e-13
2.63649e-12
8.20612e-07
-1.69808e-12
-5.30958e-12
2.08179e-12
2.68545e-12
1.01602e-06
-1.64787e-12
3.053e-12
1.01602e-06
-1.7692e-12
-6.30718e-12
3.41505e-12
3.27568e-12
1.23957e-06
-3.06466e-12
3.00402e-12
1.23958e-06
-1.52548e-12
-7.03313e-12
4.5765e-12
4.0407e-12
1.49842e-06
-3.92919e-12
2.87029e-12
1.49843e-06
-8.97634e-13
-7.25958e-12
4.80868e-12
4.3938e-12
1.80062e-06
-4.04624e-12
3.36589e-12
1.80063e-06
2.67844e-13
-6.87716e-12
3.76373e-12
3.50778e-12
2.15535e-06
-3.92731e-12
3.90931e-12
2.15536e-06
1.20796e-12
-6.69601e-12
2.71088e-12
2.7805e-12
2.5724e-06
-3.65209e-12
4.12942e-12
2.57241e-06
1.50617e-12
-7.47694e-12
2.13993e-12
3.34504e-12
3.06122e-06
-3.18673e-12
2.83187e-12
3.06122e-06
1.32952e-12
-7.33262e-12
1.85314e-12
4.49883e-12
3.63001e-06
-2.57761e-12
3.3161e-12
3.63002e-06
9.37073e-13
-7.8398e-12
1.64193e-12
4.51824e-12
4.28542e-06
-1.88845e-12
4.19069e-12
4.28542e-06
6.34018e-13
-8.7517e-12
1.25591e-12
4.56092e-12
5.03315e-06
-1.03649e-12
4.60453e-12
5.03316e-06
3.42765e-13
-9.69745e-12
6.95242e-13
5.0929e-12
5.87813e-06
3.84949e-14
4.65429e-12
5.87814e-06
-3.21442e-14
-1.08441e-11
-7.51655e-15
6.19252e-12
5.87812e-06
1.11611e-12
4.64469e-12
5.87813e-06
-4.04381e-13
-1.08398e-11
-7.14199e-13
6.19638e-12
5.03313e-06
1.97136e-12
4.66293e-12
5.03314e-06
-6.9708e-13
-9.73508e-12
-1.27799e-12
5.07338e-12
4.28539e-06
2.66368e-12
4.20948e-12
4.2854e-06
-9.981e-13
-8.7549e-12
-1.66651e-12
4.54264e-12
3.62999e-06
3.28163e-12
3.32884e-12
3.63e-06
-1.41183e-12
-7.80809e-12
-1.88377e-12
4.4923e-12
3.06121e-06
3.78678e-12
2.82532e-12
3.06121e-06
-1.62916e-12
-7.26265e-12
-2.15796e-12
4.42371e-12
2.57238e-06
4.07006e-12
4.06121e-12
2.57239e-06
-1.31879e-12
-7.41445e-12
-2.74931e-12
3.35093e-12
2.15534e-06
4.16025e-12
3.95364e-12
2.15535e-06
-3.02698e-13
-6.77814e-12
-3.86345e-12
2.83236e-12
1.8006e-06
4.03171e-12
3.34691e-12
1.80061e-06
9.35669e-13
-6.99871e-12
-4.97202e-12
3.65054e-12
1.4984e-06
3.06551e-12
2.94159e-12
1.4984e-06
1.61477e-12
-7.45858e-12
-4.68379e-12
4.51587e-12
1.23955e-06
1.5482e-12
3.05046e-12
1.23956e-06
1.886e-12
-7.21643e-12
-3.43744e-12
4.1657e-12
1.01599e-06
2.35431e-13
3.12537e-12
1.016e-06
1.82123e-12
-6.43317e-12
-2.05895e-12
3.30685e-12
8.20582e-07
-3.60941e-13
2.69607e-12
8.20588e-07
1.34101e-12
-5.38774e-12
-9.81776e-13
2.69109e-12
6.46087e-07
-2.43132e-13
2.0822e-12
6.46092e-07
5.05183e-13
-4.26831e-12
-2.62678e-13
2.18503e-12
4.78874e-07
1.10277e-13
1.313e-12
4.78878e-07
-3.91573e-13
-3.15581e-12
2.8054e-13
1.84293e-12
3.35899e-07
5.42171e-13
3.359e-07
-1.4191e-12
8.76177e-13
4.59365e-07
-1.00364e-13
8.59928e-13
4.59366e-07
5.20768e-13
-2.92608e-12
-3.55408e-13
1.89213e-12
7.79058e-07
2.75633e-13
2.63346e-12
7.79062e-07
-6.83814e-13
-6.2951e-12
4.32433e-13
3.75769e-12
1.02889e-06
3.25236e-13
4.10764e-12
1.0289e-06
-1.89297e-12
-8.45968e-12
1.58855e-12
4.37789e-12
1.28763e-06
-6.36942e-13
5.45345e-12
1.28763e-06
-2.50644e-12
-1.08713e-11
3.1581e-12
5.43626e-12
1.57661e-06
-2.54378e-12
6.30927e-12
1.57662e-06
-2.59758e-12
-1.30523e-11
5.13672e-12
6.78394e-12
1.90674e-06
-4.64399e-12
6.20526e-12
1.90675e-06
-2.20887e-12
-1.47059e-11
6.83405e-12
8.52635e-12
2.28837e-06
-5.87466e-12
5.81504e-12
2.28837e-06
-1.27361e-12
-1.5256e-11
7.12371e-12
9.45123e-12
2.73298e-06
-6.00521e-12
6.85916e-12
2.73298e-06
4.03642e-13
-1.46051e-11
5.58116e-12
7.73823e-12
3.25355e-06
-5.79796e-12
8.04371e-12
3.25355e-06
1.79105e-12
-1.42657e-11
3.99346e-12
6.20883e-12
3.86398e-06
-5.37281e-12
8.2418e-12
3.86399e-06
2.21134e-12
-1.53679e-11
3.15196e-12
7.11972e-12
4.57806e-06
-4.66031e-12
5.48073e-12
4.57807e-06
1.95301e-12
-1.48308e-11
2.70119e-12
9.34471e-12
5.40835e-06
-3.77723e-12
6.28557e-12
5.40836e-06
1.38854e-12
-1.58208e-11
2.3884e-12
9.52398e-12
6.36589e-06
-2.75393e-12
7.76103e-12
6.3659e-06
9.32331e-13
-1.77509e-11
1.82248e-12
9.98862e-12
7.46108e-06
-1.51251e-12
8.31597e-12
7.46109e-06
5.03779e-13
-1.96977e-11
1.00929e-12
1.1382e-11
8.70387e-06
5.46701e-14
8.07763e-12
8.70388e-06
-4.54623e-14
-2.19246e-11
-1.21249e-14
1.38531e-11
8.70386e-06
1.62496e-12
8.05318e-12
8.70387e-06
-5.91581e-13
-2.19151e-11
-1.03895e-12
1.38658e-11
7.46106e-06
2.87123e-12
8.42067e-12
7.46107e-06
-1.02073e-12
-1.97773e-11
-1.85746e-12
1.13592e-11
6.36586e-06
3.89813e-12
7.79374e-12
6.36587e-06
-1.47398e-12
-1.77604e-11
-2.42873e-12
9.9615e-12
5.40833e-06
4.79961e-12
6.2982e-12
5.40834e-06
-2.06828e-12
-1.57513e-11
-2.74551e-12
9.47577e-12
4.57805e-06
5.56297e-12
5.46581e-12
4.57806e-06
-2.38054e-12
-1.46899e-11
-3.18623e-12
9.20007e-12
3.86397e-06
5.99509e-12
8.10622e-12
3.86397e-06
-1.94464e-12
-1.52361e-11
-4.0523e-12
7.12562e-12
3.25353e-06
6.1836e-12
8.12401e-12
3.25354e-06
-4.53811e-13
-1.44551e-11
-5.73789e-12
6.3452e-12
2.73296e-06
6.02346e-12
6.83264e-12
2.73297e-06
1.33311e-12
-1.48735e-11
-7.36387e-12
8.03878e-12
2.28834e-06
4.64513e-12
5.95758e-12
2.28835e-06
2.33764e-12
-1.56764e-11
-6.98905e-12
9.71665e-12
1.90671e-06
2.39426e-12
6.3215e-12
1.90672e-06
2.76745e-12
-1.50951e-11
-5.16719e-12
8.77257e-12
1.57658e-06
4.31463e-13
6.47403e-12
1.57659e-06
2.68516e-12
-1.33237e-11
-3.12092e-12
6.84755e-12
1.2876e-06
-4.96355e-13
5.57698e-12
1.28761e-06
2.01634e-12
-1.10329e-11
-1.52286e-12
5.45392e-12
1.02887e-06
-3.51778e-13
4.14776e-12
1.02888e-06
7.30965e-13
-8.53551e-12
-3.80163e-13
4.38476e-12
7.79046e-07
1.37985e-13
2.57112e-12
7.7905e-07
-5.10204e-13
-6.34862e-12
3.71543e-13
3.77733e-12
4.59358e-07
1.04813e-12
4.59359e-07
-2.9704e-12
1.92084e-12
5.66954e-07
-1.43716e-13
1.32629e-12
5.66955e-07
6.48293e-13
-4.66255e-12
-4.32506e-13
3.09018e-12
1.01282e-06
3.1922e-13
3.86914e-12
1.01282e-06
-8.05923e-13
-9.46487e-12
5.30865e-13
5.71967e-12
1.33192e-06
3.65092e-13
6.13846e-12
1.33193e-06
-2.33026e-12
-1.27078e-11
2.00407e-12
6.60041e-12
1.66094e-06
-8.5671e-13
8.3887e-12
1.66094e-06
-3.09184e-12
-1.66615e-11
3.97245e-12
8.30621e-12
2.02766e-06
-3.24727e-12
9.69489e-12
2.02767e-06
-3.20975e-12
-2.02108e-11
6.45199e-12
1.05857e-11
2.44618e-06
-5.87069e-12
9.52118e-12
2.44619e-06
-2.72979e-12
-2.29658e-11
8.57471e-12
1.34911e-11
2.92962e-06
-7.38598e-12
8.7922e-12
2.92963e-06
-1.57694e-12
-2.3931e-11
8.92987e-12
1.51564e-11
3.4924e-06
-7.52889e-12
1.04994e-11
3.4924e-06
4.93702e-13
-2.31007e-11
7.00825e-12
1.25876e-11
4.15075e-06
-7.25391e-12
1.24422e-11
4.15075e-06
2.22415e-12
-2.2626e-11
5.01233e-12
1.01611e-11
4.9221e-06
-6.71121e-12
1.24692e-11
4.92211e-06
2.7447e-12
-2.37331e-11
3.95446e-12
1.12521e-11
5.82386e-06
-5.81737e-12
8.13266e-12
5.82387e-06
2.43165e-12
-2.26301e-11
3.37844e-12
1.44874e-11
6.87212e-06
-4.7218e-12
9.14814e-12
6.87213e-06
1.7377e-12
-2.4094e-11
2.98402e-12
1.49273e-11
8.08138e-06
-3.43817e-12
1.10439e-11
8.08139e-06
1.16509e-12
-2.71294e-11
2.27482e-12
1.60824e-11
9.46559e-06
-1.88874e-12
1.15605e-11
9.4656e-06
6.30004e-13
-3.01302e-11
1.25986e-12
1.85705e-11
1.10384e-05
6.86626e-14
1.08143e-11
1.10384e-05
-5.7278e-14
-3.34073e-11
-1.45412e-14
2.26035e-11
1.10384e-05
2.02974e-12
1.07703e-11
1.10384e-05
-7.41104e-13
-3.33913e-11
-1.29548e-12
2.26287e-11
9.46557e-06
3.58511e-12
1.1702e-11
9.46558e-06
-1.27731e-12
-3.02529e-11
-2.31693e-12
1.85558e-11
8.08135e-06
4.87323e-12
1.10854e-11
8.08136e-06
-1.84598e-12
-2.71465e-11
-3.03315e-12
1.60527e-11
6.8721e-06
5.99414e-12
9.15005e-12
6.87211e-06
-2.57671e-12
-2.39805e-11
-3.4307e-12
1.48604e-11
5.82384e-06
6.94975e-12
8.10433e-12
5.82385e-06
-2.96014e-12
-2.24102e-11
-3.99589e-12
1.42749e-11
4.92209e-06
7.49819e-12
1.22665e-11
4.92209e-06
-2.42106e-12
-2.35266e-11
-5.08272e-12
1.12552e-11
4.15073e-06
7.75355e-12
1.25591e-11
4.15074e-06
-5.5891e-13
-2.29474e-11
-7.20422e-12
1.04064e-11
3.49238e-06
7.57163e-12
1.04657e-11
3.49239e-06
1.65052e-12
-2.35351e-11
-9.23057e-12
1.30662e-11
2.9296e-06
5.87334e-12
9.00223e-12
2.9296e-06
2.8894e-12
-2.45938e-11
-8.77051e-12
1.55888e-11
2.44616e-06
3.06158e-12
9.72414e-12
2.44616e-06
3.42479e-12
-2.35875e-11
-6.49309e-12
1.38613e-11
2.02763e-06
6.04057e-13
9.95667e-12
2.02764e-06
3.31943e-12
-2.06458e-11
-3.92876e-12
1.06855e-11
1.66091e-06
-5.67671e-13
8.56587e-12
1.66091e-06
2.48796e-12
-1.6909e-11
-1.92378e-12
8.33933e-12
1.33189e-06
-4.02794e-13
6.17818e-12
1.3319e-06
8.6824e-13
-1.28189e-11
-4.66642e-13
6.63539e-12
1.01281e-06
1.80732e-13
3.77222e-12
1.01281e-06
-6.34688e-13
-9.54127e-12
4.53236e-13
5.76841e-12
5.66947e-07
1.58419e-12
5.66948e-07
-4.72912e-12
3.14278e-12
6.95943e-07
-1.87739e-13
1.8366e-12
6.95944e-07
7.97596e-13
-6.67256e-12
-5.19343e-13
4.49936e-12
1.25284e-06
3.50062e-13
5.01448e-12
1.25285e-06
-9.05119e-13
-1.2544e-11
6.26172e-13
7.67281e-12
1.64568e-06
3.7701e-13
8.10401e-12
1.64569e-06
-2.73003e-12
-1.68738e-11
2.41088e-12
8.81413e-12
2.0494e-06
-1.10626e-12
1.13818e-11
2.04941e-06
-3.64231e-12
-2.25717e-11
4.78168e-12
1.1248e-11
2.49834e-06
-3.98186e-12
1.31624e-11
2.49835e-06
-3.78703e-12
-2.76879e-11
7.76348e-12
1.46338e-11
3.0101e-06
-7.12776e-12
1.29058e-11
3.01011e-06
-3.22224e-12
-3.17168e-11
1.03178e-11
1.88843e-11
3.60078e-06
-8.92479e-12
1.17306e-11
3.60079e-06
-1.86617e-12
-3.31896e-11
1.075e-11
2.14852e-11
4.28797e-06
-9.07426e-12
1.42357e-11
4.28797e-06
5.85757e-13
-3.22743e-11
8.45545e-12
1.80169e-11
5.09136e-06
-8.73119e-12
1.70745e-11
5.09137e-06
2.65718e-12
-3.16941e-11
6.05285e-12
1.4585e-11
6.03213e-06
-8.06948e-12
1.68347e-11
6.03214e-06
3.2813e-12
-3.24946e-11
4.77367e-12
1.56415e-11
7.1315e-06
-6.99714e-12
1.08621e-11
7.1315e-06
2.91587e-12
-3.06694e-11
4.07269e-12
1.97912e-11
8.40929e-06
-5.68979e-12
1.20016e-11
8.4093e-06
2.09566e-12
-3.25931e-11
3.59423e-12
2.05643e-11
9.88357e-06
-4.14283e-12
1.41613e-11
9.88358e-06
1.40665e-12
-3.67958e-11
2.73866e-12
2.2629e-11
1.1572e-05
-2.27644e-12
1.4501e-11
1.1572e-05
7.61188e-13
-4.08847e-11
1.51694e-12
2.63854e-11
1.3492e-05
8.27215e-14
1.30956e-11
1.3492e-05
-6.90621e-14
-4.51767e-11
-1.71929e-14
3.20968e-11
1.3492e-05
2.44617e-12
1.30272e-11
1.3492e-05
-8.95298e-13
-4.51527e-11
-1.55906e-12
3.21378e-11
1.1572e-05
4.31962e-12
1.46678e-11
1.1572e-05
-1.54216e-12
-4.10488e-11
-2.78848e-12
2.63886e-11
9.88354e-06
5.87171e-12
1.4205e-11
9.88355e-06
-2.22626e-12
-3.68194e-11
-3.6528e-12
2.26024e-11
8.40926e-06
7.21008e-12
1.19814e-11
8.40927e-06
-3.09004e-12
-3.24276e-11
-4.13439e-12
2.04833e-11
7.13148e-06
8.35612e-12
1.08106e-11
7.13149e-06
-3.5415e-12
-3.0361e-11
-4.82277e-12
1.95131e-11
6.03211e-06
9.0241e-12
1.65639e-11
6.03212e-06
-2.89579e-12
-3.22102e-11
-6.13613e-12
1.5641e-11
5.09134e-06
9.34522e-12
1.72271e-11
5.09135e-06
-6.65551e-13
-3.21675e-11
-8.6909e-12
1.49619e-11
4.28795e-06
9.14894e-12
1.41895e-11
4.28796e-06
1.9521e-12
-3.28882e-11
-1.11109e-11
1.86942e-11
3.60076e-06
7.13292e-12
1.20053e-11
3.60077e-06
3.40857e-12
-3.41094e-11
-1.05508e-11
2.21007e-11
3.01007e-06
3.7605e-12
1.32165e-11
3.01008e-06
4.04381e-12
-3.25951e-11
-7.8123e-12
1.93752e-11
2.49831e-06
8.07224e-13
1.3528e-11
2.49831e-06
3.91763e-12
-2.83044e-11
-4.7311e-12
1.47711e-11
2.04937e-06
-6.09398e-13
1.16008e-11
2.04938e-06
2.92149e-12
-2.29051e-11
-2.31624e-12
1.12984e-11
1.64565e-06
-4.33688e-13
8.11837e-12
1.64566e-06
9.82314e-13
-1.70159e-11
-5.5014e-13
8.88964e-12
1.25283e-06
2.34896e-13
4.87866e-12
1.25283e-06
-7.8066e-13
-1.26413e-11
5.44842e-13
7.76138e-12
6.95935e-07
2.17816e-12
6.95936e-07
-6.76186e-12
4.58063e-12
8.50434e-07
-2.45584e-13
2.42136e-12
8.50436e-07
9.63644e-13
-9.02577e-12
-6.13006e-13
6.16276e-12
1.51318e-06
3.58517e-13
6.04077e-12
1.51318e-06
-9.87303e-13
-1.5489e-11
7.22576e-13
9.60276e-12
1.98704e-06
3.53778e-13
9.95307e-12
1.98705e-06
-3.11299e-12
-2.0888e-11
2.83215e-12
1.10002e-11
2.47347e-06
-1.40578e-12
1.43779e-11
2.47347e-06
-4.18019e-12
-2.85401e-11
5.62624e-12
1.4253e-11
3.01316e-06
-4.791e-12
1.66761e-11
3.01317e-06
-4.35194e-12
-3.54394e-11
9.13676e-12
1.8918e-11
3.62762e-06
-8.4854e-12
1.63219e-11
3.62763e-06
-3.7029e-12
-4.09192e-11
1.21501e-11
2.47026e-11
4.33629e-06
-1.0573e-11
1.45672e-11
4.33629e-06
-2.14767e-12
-4.29988e-11
1.26724e-11
2.84679e-11
5.16024e-06
-1.07215e-11
1.80164e-11
5.16025e-06
6.85927e-13
-4.20954e-11
9.9967e-12
2.40479e-11
6.12304e-06
-1.03057e-11
2.19193e-11
6.12304e-06
3.11267e-12
-4.14555e-11
7.1682e-12
1.94875e-11
7.24998e-06
-9.51754e-12
2.13583e-11
7.24999e-06
3.84837e-12
-4.16349e-11
5.65213e-12
2.02504e-11
8.56651e-06
-8.25958e-12
1.37266e-11
8.56652e-06
3.43049e-12
-3.89322e-11
4.81901e-12
2.51826e-11
1.00965e-05
-6.73256e-12
1.49251e-11
1.00965e-05
2.48244e-12
-4.12937e-11
4.25016e-12
2.63314e-11
1.1862e-05
-4.90526e-12
1.72051e-11
1.18621e-05
1.67067e-12
-4.67026e-11
3.2376e-12
2.94891e-11
1.38847e-05
-2.69659e-12
1.72539e-11
1.38847e-05
9.04972e-13
-5.18969e-11
1.79368e-12
3.46456e-11
1.6186e-05
9.74909e-14
1.50774e-11
1.6186e-05
-8.12498e-14
-5.71598e-11
-2.04305e-14
4.21042e-11
1.6186e-05
2.89648e-12
1.49798e-11
1.6186e-05
-1.06271e-12
-5.71258e-11
-1.84362e-12
4.2164e-11
1.38846e-05
5.11335e-12
1.74331e-11
1.38847e-05
-1.82977e-12
-5.20986e-11
-3.29664e-12
3.46764e-11
1.1862e-05
6.9462e-12
1.7243e-11
1.1862e-05
-2.63547e-12
-4.673e-11
-4.31984e-12
2.9471e-11
1.00965e-05
8.50951e-12
1.48699e-11
1.00965e-05
-3.63375e-12
-4.10672e-11
-4.89215e-12
2.62416e-11
8.56649e-06
9.85372e-12
1.36392e-11
8.5665e-06
-4.15283e-12
-3.85252e-11
-5.71083e-12
2.48423e-11
7.24996e-06
1.06499e-11
2.10174e-11
7.24997e-06
-3.39241e-12
-4.12709e-11
-7.2671e-12
2.02479e-11
6.12302e-06
1.1042e-11
2.21037e-11
6.12303e-06
-7.8041e-13
-4.20979e-11
-1.02747e-11
2.00192e-11
5.16022e-06
1.08392e-11
1.79483e-11
5.16023e-06
2.24393e-12
-4.28984e-11
-1.30948e-11
2.49442e-11
4.33626e-06
8.49392e-12
1.49074e-11
4.33627e-06
3.92665e-12
-4.42052e-11
-1.24315e-11
2.92937e-11
3.62759e-06
4.5321e-12
1.67654e-11
3.6276e-06
4.66098e-12
-4.20677e-11
-9.20249e-12
2.52974e-11
3.01312e-06
1.05668e-12
1.71539e-11
3.01313e-06
4.50311e-12
-3.62433e-11
-5.56717e-12
1.9082e-11
2.47343e-06
-6.21337e-13
1.46277e-11
2.47344e-06
3.33846e-12
-2.89582e-11
-2.72206e-12
1.43222e-11
1.98701e-06
-4.47761e-13
9.91732e-12
1.98702e-06
1.07981e-12
-2.10562e-11
-6.33987e-13
1.11279e-11
1.51316e-06
2.97874e-13
5.86147e-12
1.51316e-06
-9.43166e-13
-1.56051e-11
6.44086e-13
9.74163e-12
8.50425e-07
2.85663e-12
8.50427e-07
-9.13864e-12
6.27773e-12
1.03514e-06
-3.19158e-13
3.11882e-12
1.03515e-06
1.1456e-12
-1.18024e-11
-7.11809e-13
8.12729e-12
1.8025e-06
3.41186e-13
6.92821e-12
1.8025e-06
-1.05179e-12
-1.82813e-11
8.22604e-13
1.15103e-11
2.36638e-06
2.89178e-13
1.16421e-11
2.36638e-06
-3.48157e-12
-2.46966e-11
3.27745e-12
1.31466e-11
2.94587e-06
-1.76987e-12
1.73355e-11
2.94588e-06
-4.72204e-12
-3.45085e-11
6.53774e-12
1.73031e-11
3.5876e-06
-5.70008e-12
2.02213e-11
3.5876e-06
-4.93746e-12
-4.34152e-11
1.06302e-11
2.34018e-11
4.3173e-06
-9.98191e-12
1.97509e-11
4.31731e-06
-4.19024e-12
-5.05574e-11
1.41282e-11
3.09484e-11
5.15819e-06
-1.23762e-11
1.72559e-11
5.1582e-06
-2.42164e-12
-5.33696e-11
1.47426e-11
3.61614e-11
6.1353e-06
-1.25139e-11
2.17946e-11
6.13531e-06
7.9707e-13
-5.25548e-11
1.16724e-11
3.07183e-11
7.27652e-06
-1.2018e-11
2.69647e-11
7.27653e-06
3.6001e-12
-5.19202e-11
8.3894e-12
2.4891e-11
8.61181e-06
-1.10924e-11
2.60789e-11
8.61182e-06
4.45866e-12
-5.1168e-11
6.61404e-12
2.5054e-11
1.01713e-05
-9.63809e-12
1.68027e-11
1.01713e-05
3.98824e-12
-4.74362e-11
5.63814e-12
3.06026e-11
1.19836e-05
-7.87993e-12
1.80259e-11
1.19836e-05
2.9096e-12
-5.02084e-11
4.97013e-12
3.21337e-11
1.4075e-05
-5.74796e-12
2.03038e-11
1.4075e-05
1.96584e-12
-5.68397e-11
3.78548e-12
3.65239e-11
1.64715e-05
-3.16183e-12
1.99814e-11
1.64716e-05
1.06637e-12
-6.31428e-11
2.0978e-12
4.31651e-11
1.91995e-05
1.13452e-13
1.69703e-11
1.91996e-05
-9.41698e-14
-6.93296e-11
-2.43846e-14
5.23887e-11
1.91995e-05
3.39428e-12
1.68383e-11
1.91995e-05
-1.24902e-12
-6.92833e-11
-2.15714e-12
5.24697e-11
1.64715e-05
5.98972e-12
2.01587e-11
1.64715e-05
-2.14955e-12
-6.33764e-11
-3.85556e-12
4.32322e-11
1.40749e-05
8.12754e-12
2.03269e-11
1.40749e-05
-3.08577e-12
-5.68665e-11
-5.05291e-12
3.65194e-11
1.19836e-05
9.92711e-12
1.79214e-11
1.19836e-05
-4.22114e-12
-4.991e-11
-5.72489e-12
3.20407e-11
1.01713e-05
1.14809e-11
1.6663e-11
1.01713e-05
-4.80814e-12
-4.69182e-11
-6.6846e-12
3.02045e-11
8.61179e-06
1.24174e-11
2.56645e-11
8.6118e-06
-3.92164e-12
-5.07236e-11
-8.50714e-12
2.50531e-11
7.2765e-06
1.28887e-11
2.71733e-11
7.27651e-06
-9.07003e-13
-5.27455e-11
-1.1997e-11
2.5601e-11
6.13528e-06
1.26894e-11
2.16906e-11
6.13529e-06
2.52357e-12
-5.35506e-11
-1.52267e-11
3.18525e-11
5.15817e-06
9.99467e-12
1.76673e-11
5.15818e-06
4.4466e-12
-5.48903e-11
-1.44541e-11
3.72179e-11
4.31727e-06
5.40075e-12
2.03567e-11
4.31728e-06
5.29882e-12
-5.19916e-11
-1.07106e-11
3.16282e-11
3.58756e-06
1.36615e-12
2.08173e-11
3.58757e-06
5.09392e-12
-4.44122e-11
-6.46875e-12
2.35852e-11
2.94583e-06
-5.97519e-13
1.76051e-11
2.94584e-06
3.74209e-12
-3.50087e-11
-3.15042e-12
1.73925e-11
2.36635e-06
-4.42467e-13
1.15329e-11
2.36635e-06
1.16044e-12
-2.48845e-11
-7.20428e-13
1.33373e-11
1.80248e-06
3.70331e-13
6.70147e-12
1.80248e-06
-1.12132e-12
-1.8414e-11
7.49422e-13
1.17096e-11
1.03513e-06
3.65295e-12
1.03513e-06
-1.19401e-11
8.28126e-12
1.25545e-06
-4.09698e-13
3.97352e-12
1.25546e-06
1.34016e-12
-1.50918e-11
-8.1268e-13
1.04443e-11
2.12828e-06
2.93096e-13
7.66424e-12
2.12828e-06
-1.09715e-12
-2.09237e-11
9.28807e-13
1.34097e-11
2.79251e-06
1.72858e-13
1.31328e-11
2.79251e-06
-3.83165e-12
-2.82626e-11
3.75258e-12
1.5253e-11
3.47752e-06
-2.21423e-12
2.02166e-11
3.47752e-06
-5.26511e-12
-4.04341e-11
7.52888e-12
2.03918e-11
4.235e-06
-6.73026e-12
2.37813e-11
4.235e-06
-5.54289e-12
-5.15696e-11
1.22642e-11
2.80546e-11
5.09526e-06
-1.16489e-11
2.31828e-11
5.09527e-06
-4.67991e-12
-6.06275e-11
1.62795e-11
3.7627e-11
6.08575e-06
-1.43727e-11
1.97619e-11
6.08576e-06
-2.68197e-12
-6.43286e-11
1.69928e-11
4.46269e-11
7.23599e-06
-1.44861e-11
2.55156e-11
7.23599e-06
9.23532e-13
-6.36604e-11
1.35128e-11
3.80908e-11
8.57879e-06
-1.38999e-11
3.21978e-11
8.5788e-06
4.12667e-12
-6.31204e-11
9.74104e-12
3.08406e-11
1.01494e-05
-1.2823e-11
3.10345e-11
1.01494e-05
5.12222e-12
-6.11307e-11
7.67836e-12
3.00515e-11
1.19833e-05
-1.11599e-11
2.01667e-11
1.19834e-05
4.59964e-12
-5.62149e-11
6.54673e-12
3.60084e-11
1.41143e-05
-9.15775e-12
2.14123e-11
1.41143e-05
3.3882e-12
-5.93617e-11
5.76889e-12
3.78878e-11
1.65737e-05
-6.69111e-12
2.35826e-11
1.65737e-05
2.3011e-12
-6.72029e-11
4.39352e-12
4.36041e-11
1.93925e-05
-3.68361e-12
2.28362e-11
1.93925e-05
1.25054e-12
-7.45979e-11
2.43552e-12
5.17664e-11
2.26023e-05
1.30933e-13
1.89675e-11
2.26023e-05
-1.08005e-13
-8.1653e-11
-2.92516e-14
6.27237e-11
2.26022e-05
3.95167e-12
1.87961e-11
2.26023e-05
-1.45974e-12
-8.15913e-11
-2.50627e-12
6.2828e-11
1.93925e-05
6.96956e-12
2.2996e-11
1.93925e-05
-2.51072e-12
-7.4856e-11
-4.47692e-12
5.18781e-11
1.65736e-05
9.44214e-12
2.35804e-11
1.65736e-05
-3.58837e-12
-6.72233e-11
-5.86726e-12
4.36181e-11
1.41143e-05
1.14907e-11
2.12427e-11
1.41143e-05
-4.86282e-12
-5.89796e-11
-6.64976e-12
3.77974e-11
1.19833e-05
1.32673e-11
1.99551e-11
1.19833e-05
-5.51767e-12
-5.55718e-11
-7.7636e-12
3.5558e-11
1.01494e-05
1.43591e-11
3.05415e-11
1.01494e-05
-4.49095e-12
-6.06063e-11
-9.88158e-12
3.00583e-11
8.57877e-06
1.49209e-11
3.24188e-11
8.57878e-06
-1.05004e-12
-6.41392e-11
-1.38885e-11
3.17535e-11
7.23597e-06
1.47379e-11
2.53576e-11
7.23598e-06
2.81004e-12
-6.48721e-11
-1.75641e-11
3.95054e-11
6.08573e-06
1.16662e-11
2.02535e-11
6.08574e-06
4.9872e-12
-6.6175e-11
-1.66683e-11
4.59152e-11
5.09523e-06
6.38697e-12
2.39845e-11
5.09524e-06
5.95804e-12
-6.23471e-11
-1.23579e-11
3.83538e-11
4.23496e-06
1.75038e-12
2.45009e-11
4.23497e-06
5.68763e-12
-5.27642e-11
-7.44819e-12
2.8251e-11
3.47748e-06
-5.28744e-13
2.04949e-11
3.47748e-06
4.12856e-12
-4.10123e-11
-3.60673e-12
2.05031e-11
2.79247e-06
-4.14298e-13
1.29285e-11
2.79248e-06
1.22293e-12
-2.84628e-11
-8.11737e-13
1.55161e-11
2.12826e-06
4.51765e-13
7.38728e-12
2.12826e-06
-1.31179e-12
-2.10704e-11
8.57989e-13
1.36792e-11
1.25544e-06
4.60531e-12
1.25545e-06
-1.52561e-11
1.06429e-11
1.51746e-06
-5.17888e-13
5.03739e-12
1.51747e-06
1.54184e-12
-1.89908e-11
-9.10977e-13
1.31664e-11
2.49805e-06
2.08254e-13
8.24583e-12
2.49805e-06
-1.12178e-12
-2.34384e-11
1.04446e-12
1.53249e-11
3.27419e-06
-8.5037e-15
1.43966e-11
3.2742e-06
-4.15452e-12
-3.15663e-11
4.26149e-12
1.73253e-11
4.07917e-06
-2.75679e-12
2.29906e-11
4.07918e-06
-5.80028e-12
-4.628e-11
8.60804e-12
2.35112e-11
4.96861e-06
-7.90145e-12
2.73423e-11
4.96862e-06
-6.16268e-12
-5.98581e-11
1.4053e-11
3.28443e-11
5.97758e-06
-1.3512e-11
2.66182e-11
5.97759e-06
-5.1859e-12
-7.11128e-11
1.86435e-11
4.47202e-11
7.13825e-06
-1.65944e-11
2.20672e-11
7.13826e-06
-2.9448e-12
-7.58928e-11
1.94714e-11
5.38991e-11
8.48525e-06
-1.66697e-11
2.91209e-11
8.48526e-06
1.07114e-12
-7.54541e-11
1.55439e-11
4.62662e-11
1.0057e-05
-1.59804e-11
3.76044e-11
1.0057e-05
4.69861e-12
-7.51009e-11
1.1246e-11
3.73954e-11
1.18948e-05
-1.47358e-11
3.62676e-11
1.18948e-05
5.84809e-12
-7.15791e-11
8.86247e-12
3.52562e-11
1.40402e-05
-1.28509e-11
2.39047e-11
1.40402e-05
5.27495e-12
-6.53198e-11
7.56041e-12
4.13656e-11
1.6533e-05
-1.05921e-11
2.52076e-11
1.6533e-05
3.93044e-12
-6.87974e-11
6.66028e-12
4.3514e-11
1.941e-05
-7.75559e-12
2.71808e-11
1.941e-05
2.68678e-12
-7.78004e-11
5.07223e-12
5.05986e-11
2.27081e-05
-4.27385e-12
2.59863e-11
2.27081e-05
1.46351e-12
-8.62459e-11
2.81271e-12
6.02654e-11
2.64647e-05
1.50252e-13
2.12771e-11
2.64647e-05
-1.2291e-13
-9.41021e-11
-3.52609e-14
7.28734e-11
2.64646e-05
4.58118e-12
2.10615e-11
2.64647e-05
-1.70116e-12
-9.40214e-11
-2.89737e-12
7.30022e-11
2.27081e-05
8.07433e-12
2.61119e-11
2.27081e-05
-2.92381e-12
-8.65192e-11
-5.17177e-12
6.04293e-11
1.94099e-05
1.09166e-11
2.71418e-11
1.94099e-05
-4.15555e-12
-7.78071e-11
-6.77728e-12
5.06354e-11
1.65329e-05
1.32265e-11
2.49555e-11
1.65329e-05
-5.56891e-12
-6.83181e-11
-7.6829e-12
4.34321e-11
1.40402e-05
1.52397e-11
2.3598e-11
1.40402e-05
-6.29035e-12
-6.45352e-11
-8.96584e-12
4.08698e-11
1.18948e-05
1.65049e-11
3.56887e-11
1.18948e-05
-5.10644e-12
-7.09753e-11
-1.14141e-11
3.52792e-11
1.0057e-05
1.71715e-11
3.78205e-11
1.0057e-05
-1.21578e-12
-7.63191e-11
-1.59762e-11
3.85365e-11
8.48523e-06
1.70164e-11
2.88877e-11
8.48524e-06
3.0959e-12
-7.69015e-11
-2.01311e-11
4.8003e-11
7.13823e-06
1.35329e-11
2.26484e-11
7.13824e-06
5.54285e-12
-7.80725e-11
-1.90931e-11
5.54162e-11
5.97755e-06
7.51018e-12
2.76502e-11
5.97756e-06
6.63375e-12
-7.31189e-11
-1.41589e-11
4.54576e-11
4.96858e-06
2.22642e-12
2.8191e-11
4.96858e-06
6.27524e-12
-6.12538e-11
-8.5136e-12
3.30474e-11
4.07913e-06
-4.02876e-13
2.32665e-11
4.07914e-06
4.48926e-12
-4.69308e-11
-4.09457e-12
2.36462e-11
3.27415e-06
-3.58831e-13
1.40786e-11
3.27416e-06
1.26584e-12
-3.17706e-11
-9.10914e-13
1.76696e-11
2.49802e-06
5.4113e-13
7.91766e-12
2.49803e-06
-1.50913e-12
-2.35967e-11
9.65355e-13
1.56739e-11
1.51745e-06
5.75788e-12
1.51745e-06
-1.91841e-11
1.34157e-11
1.82802e-06
-6.43021e-13
6.36841e-12
1.82802e-06
1.74221e-12
-2.3601e-11
-1.00001e-12
1.63463e-11
2.91997e-06
8.01874e-14
8.6808e-12
2.91997e-06
-1.12511e-12
-2.58679e-11
1.17439e-12
1.7289e-11
3.82081e-06
-2.70816e-13
1.54173e-11
3.82082e-06
-4.45444e-12
-3.4593e-11
4.82362e-12
1.93623e-11
4.76227e-06
-3.41743e-12
2.56338e-11
4.76228e-06
-6.33228e-12
-5.19972e-11
9.79937e-12
2.6634e-11
5.80252e-06
-9.23261e-12
3.08914e-11
5.80253e-06
-6.78641e-12
-6.82475e-11
1.6005e-11
3.77483e-11
6.9814e-06
-1.55929e-11
3.00624e-11
6.98141e-06
-5.6959e-12
-8.19972e-11
2.12297e-11
5.22054e-11
8.33631e-06
-1.90713e-11
2.41738e-11
8.33632e-06
-3.19665e-12
-8.80773e-11
2.21949e-11
6.39909e-11
9.90764e-06
-1.90976e-11
3.25438e-11
9.90765e-06
1.24816e-12
-8.79887e-11
1.77904e-11
5.5364e-11
1.17403e-05
-1.82885e-11
4.31623e-11
1.17403e-05
5.32142e-12
-8.79178e-11
1.29279e-11
4.46344e-11
1.38823e-05
-1.68571e-11
4.18215e-11
1.38823e-05
6.64477e-12
-8.25869e-11
1.01842e-11
4.0699e-11
1.63824e-05
-1.4738e-11
2.8107e-11
1.63824e-05
6.02544e-12
-7.48173e-11
8.69482e-12
4.66505e-11
1.9287e-05
-1.22118e-11
2.95425e-11
1.9287e-05
4.55118e-12
-7.857e-11
7.65817e-12
4.89365e-11
2.26395e-05
-8.96494e-12
3.12385e-11
2.26395e-05
3.13582e-12
-8.86396e-11
5.83215e-12
5.73747e-11
2.64833e-05
-4.94602e-12
2.95918e-11
2.64833e-05
1.71285e-12
-9.80571e-11
3.23523e-12
6.84721e-11
3.08624e-05
1.71765e-13
2.40949e-11
3.08624e-05
-1.39045e-13
-1.06627e-10
-4.26836e-14
8.25922e-11
3.08624e-05
5.29698e-12
2.38304e-11
3.08624e-05
-1.98112e-12
-1.06523e-10
-3.33686e-12
8.27458e-11
2.64832e-05
9.32822e-12
2.96654e-11
2.64833e-05
-3.40195e-12
-9.83347e-11
-5.95124e-12
6.86953e-11
2.26394e-05
1.25803e-11
3.11503e-11
2.26395e-05
-4.80219e-12
-8.86241e-11
-7.7975e-12
5.74383e-11
1.9287e-05
1.51618e-11
2.9189e-11
1.9287e-05
-6.35038e-12
-7.79791e-11
-8.8406e-12
4.88694e-11
1.63824e-05
1.74249e-11
2.7678e-11
1.63824e-05
-7.13436e-12
-7.38726e-11
-1.03098e-11
4.61173e-11
1.38823e-05
1.88845e-11
4.11468e-11
1.38823e-05
-5.7734e-12
-8.19039e-11
-1.31294e-11
4.07487e-11
1.17402e-05
1.96745e-11
4.33491e-11
1.17402e-05
-1.41302e-12
-8.93358e-11
-1.82851e-11
4.60299e-11
9.90763e-06
1.9555e-11
3.22114e-11
9.90764e-06
3.36856e-12
-8.96895e-11
-2.29454e-11
5.74656e-11
8.33629e-06
1.56158e-11
2.48523e-11
8.3363e-06
6.10273e-12
-9.06015e-11
-2.17385e-11
6.57394e-11
6.98137e-06
8.7889e-12
3.13575e-11
6.98138e-06
7.31581e-12
-8.4291e-11
-1.61221e-11
5.29198e-11
5.80248e-06
2.81381e-12
3.18744e-11
5.80249e-06
6.86194e-12
-6.98466e-11
-9.6897e-12
3.79534e-11
4.76223e-06
-2.04901e-13
2.58967e-11
4.76223e-06
4.82888e-12
-5.27149e-11
-4.63364e-12
2.67957e-11
3.82077e-06
-2.71076e-13
1.49704e-11
3.82078e-06
1.28861e-12
-3.47919e-11
-1.02244e-12
1.97943e-11
2.91994e-06
6.36447e-13
8.30251e-12
2.91995e-06
-1.70493e-12
-2.60356e-11
1.06502e-12
1.77264e-11
1.828e-06
7.16008e-12
1.828e-06
-2.38269e-11
1.66528e-11
2.19472e-06
-7.82637e-13
8.02967e-12
2.19473e-06
1.9288e-12
-2.90236e-11
-1.07052e-12
2.00321e-11
3.40319e-06
-9.78252e-14
8.99025e-12
3.40319e-06
-1.10895e-12
-2.82754e-11
1.32602e-12
1.93435e-11
4.4428e-06
-6.31675e-13
1.61925e-11
4.44281e-06
-4.72168e-12
-3.73506e-11
5.44606e-12
2.13714e-11
5.53937e-06
-4.21693e-12
2.8127e-11
5.53938e-06
-6.84759e-12
-5.75295e-11
1.11096e-11
2.97206e-11
6.75214e-06
-1.07409e-11
3.44214e-11
6.75215e-06
-7.39803e-12
-7.66965e-11
1.81211e-11
4.27301e-11
8.12554e-06
-1.79091e-11
3.35304e-11
8.12555e-06
-6.19224e-12
-9.32562e-11
2.40383e-11
6.00418e-11
9.7026e-06
-2.18329e-11
2.61105e-11
9.70261e-06
-3.41846e-12
-1.00898e-10
2.51742e-11
7.48888e-11
1.15303e-05
-2.18052e-11
3.5709e-11
1.15303e-05
1.46663e-12
-1.01321e-10
2.02757e-11
6.55172e-11
1.36607e-05
-2.08551e-11
4.88355e-11
1.36607e-05
6.00095e-12
-1.01632e-10
1.48118e-11
5.26549e-11
1.61499e-05
-1.92143e-11
4.77417e-11
1.61499e-05
7.52116e-12
-9.42433e-11
1.16622e-11
4.64237e-11
1.90546e-05
-1.68509e-11
3.28709e-11
1.90546e-05
6.86461e-12
-8.47924e-11
9.96612e-12
5.18508e-11
2.2429e-05
-1.40504e-11
3.4561e-11
2.2429e-05
5.26965e-12
-8.87527e-11
8.77685e-12
5.40843e-11
2.63238e-05
-1.03469e-11
3.59011e-11
2.63238e-05
3.66516e-12
-9.97316e-11
6.68404e-12
6.37979e-11
3.079e-05
-5.71591e-12
3.38151e-11
3.079e-05
2.00833e-12
-1.09995e-10
3.70904e-12
7.61873e-11
3.58792e-05
1.95902e-13
2.76168e-11
3.58793e-05
-1.56609e-13
-1.19162e-10
-5.1839e-14
9.16194e-11
3.58792e-05
6.1157e-12
2.72995e-11
3.58792e-05
-2.30973e-12
-1.1903e-10
-3.83136e-12
9.17969e-11
3.07899e-05
1.07597e-11
3.38181e-11
3.07899e-05
-3.96228e-12
-1.10264e-10
-6.82677e-12
7.64761e-11
2.63237e-05
1.44673e-11
3.57506e-11
2.63237e-05
-5.54752e-12
-9.96842e-11
-8.9429e-12
6.3892e-11
2.24289e-05
1.73267e-11
3.40862e-11
2.24289e-05
-7.22036e-12
-8.80347e-11
-1.01397e-11
5.40381e-11
1.90546e-05
1.98505e-11
3.22883e-11
1.90546e-05
-8.05822e-12
-8.36665e-11
-1.18148e-11
5.129e-11
1.61499e-05
2.15293e-11
4.69575e-11
1.61499e-05
-6.4974e-12
-9.34796e-11
-1.50533e-11
4.65126e-11
1.36607e-05
2.24664e-11
4.896e-11
1.36607e-05
-1.65454e-12
-1.03243e-10
-2.08389e-11
5.43318e-11
1.15302e-05
2.23831e-11
3.52509e-11
1.15302e-05
3.60882e-12
-1.03293e-10
-2.60173e-11
6.80275e-11
9.70258e-06
1.79314e-11
2.68917e-11
9.70259e-06
6.64972e-12
-1.03775e-10
-2.4604e-11
7.6871e-11
8.12551e-06
1.02398e-11
3.512e-11
8.12552e-06
7.98831e-12
-9.58385e-11
-1.82482e-11
6.07019e-11
6.7521e-06
3.53302e-12
3.55427e-11
6.75211e-06
7.43427e-12
-7.85006e-11
-1.09836e-11
4.29354e-11
5.53933e-06
8.18267e-14
2.83675e-11
5.53933e-06
5.13746e-12
-5.83079e-11
-5.2307e-12
2.99131e-11
4.44276e-06
-1.45872e-13
1.56057e-11
4.44277e-06
1.29272e-12
-3.75346e-11
-1.153e-12
2.18964e-11
3.40316e-06
7.34299e-13
8.56492e-12
3.40316e-06
-1.88675e-12
-2.84509e-11
1.14792e-12
1.98778e-11
2.19471e-06
8.8659e-12
2.19471e-06
-2.92872e-11
2.04027e-11
2.626e-06
-9.31008e-13
1.00864e-11
2.626e-06
2.08387e-12
-3.5354e-11
-1.11018e-12
2.4263e-11
3.95814e-06
-3.31849e-13
9.21075e-12
3.95815e-06
-1.07988e-12
-3.07456e-11
1.51114e-12
2.15364e-11
5.15201e-06
-1.11048e-12
1.67347e-11
5.15202e-06
-4.94621e-12
-3.9867e-11
6.13738e-12
2.33642e-11
6.42456e-06
-5.17675e-12
3.04521e-11
6.42457e-06
-7.32831e-12
-6.28198e-11
1.25418e-11
3.27299e-11
7.83467e-06
-1.24398e-11