/*--------------------------------*- C++ -*----------------------------------*\
  =========                 |
  \\      /  F ield         | OpenFOAM: The Open Source CFD Toolbox
   \\    /   O peration     | Website:  https://openfoam.org
    \\  /    A nd           | Version:  6
     \\/     M anipulation  |
\*---------------------------------------------------------------------------*/
FoamFile
{
    version     2.0;
    format      ascii;
    class       volVectorField;
    location    "60";
    object      U;
}
// * * * * * * * * * * * * * * * * * * * * * * * * * * * * * * * * * * * * * //

dimensions      [0 1 -1 0 0 0 0];

internalField   nonuniform List<vector> 
2880
(
(0.0620754 -4.4079e-10 -2.53832e-11)
(0.0620756 1.62286e-09 -1.62622e-10)
(0.0620758 -1.01291e-09 1.05098e-10)
(0.0762825 2.6683e-10 7.91133e-11)
(0.0762833 1.3742e-10 -1.91308e-10)
(0.0762838 -2.04336e-10 1.12844e-10)
(0.0887141 1.02632e-09 1.11989e-10)
(0.0887149 -2.65758e-09 -2.27031e-10)
(0.0887155 1.748e-09 1.16039e-10)
(0.0971219 2.78005e-10 1.29049e-10)
(0.0971228 -3.96724e-09 -2.49644e-10)
(0.0971233 3.7648e-09 1.21246e-10)
(0.103652 -2.40376e-09 1.31659e-10)
(0.103653 -4.75271e-09 -2.58434e-10)
(0.103653 7.17975e-09 1.28433e-10)
(0.109004 -6.34369e-09 1.1116e-10)
(0.109005 -4.31969e-09 -2.50468e-10)
(0.109005 1.06417e-08 1.4009e-10)
(0.113579 -9.6861e-09 8.94442e-11)
(0.113579 -3.42968e-09 -2.24369e-10)
(0.11358 1.30692e-08 1.35286e-10)
(0.117647 -1.05449e-08 8.71353e-11)
(0.117647 -9.25755e-10 -1.86989e-10)
(0.117648 1.14267e-08 9.9732e-11)
(0.121387 -1.02339e-08 8.57992e-11)
(0.121387 2.47944e-09 -1.55257e-10)
(0.121387 7.72561e-09 6.91362e-11)
(0.124877 -9.93545e-09 7.53828e-11)
(0.124878 3.82823e-09 -1.44166e-10)
(0.124878 6.08953e-09 6.86446e-11)
(0.128095 -8.79063e-09 4.26779e-11)
(0.128095 3.87962e-09 -1.19492e-10)
(0.128096 4.89744e-09 7.67182e-11)
(0.13093 -7.46239e-09 4.04479e-11)
(0.130931 2.87796e-09 -1.08516e-10)
(0.130931 4.58205e-09 6.77237e-11)
(0.133235 -5.71162e-09 4.37631e-11)
(0.133235 1.91164e-09 -1.05695e-10)
(0.133236 3.80513e-09 6.18912e-11)
(0.134884 -3.84181e-09 3.9756e-11)
(0.134884 1.2899e-09 -1.01171e-10)
(0.134884 2.55644e-09 6.1365e-11)
(0.135785 -1.30758e-09 3.24556e-11)
(0.135785 4.06658e-10 -9.67394e-11)
(0.135786 9.02655e-10 6.434e-11)
(0.135785 1.50682e-09 3.23377e-11)
(0.135785 -5.70879e-10 -9.67229e-11)
(0.135785 -9.41961e-10 6.44084e-11)
(0.134883 4.05072e-09 4.02961e-11)
(0.134884 -1.44666e-09 -1.01516e-10)
(0.134884 -2.61192e-09 6.12771e-11)
(0.133235 5.9309e-09 4.39685e-11)
(0.133235 -2.07667e-09 -1.0573e-10)
(0.133235 -3.86145e-09 6.17649e-11)
(0.13093 7.67501e-09 4.10087e-11)
(0.13093 -3.03208e-09 -1.07764e-10)
(0.13093 -4.66158e-09 6.79266e-11)
(0.128095 9.08418e-09 4.18323e-11)
(0.128095 -4.14566e-09 -1.18204e-10)
(0.128095 -4.95638e-09 7.51129e-11)
(0.124877 1.03238e-08 7.34295e-11)
(0.124877 -4.17746e-09 -1.42788e-10)
(0.124877 -6.14529e-09 6.89843e-11)
(0.121386 1.05409e-08 8.7979e-11)
(0.121386 -2.70106e-09 -1.58659e-10)
(0.121386 -7.84405e-09 7.13091e-11)
(0.117646 1.08738e-08 8.61039e-11)
(0.117646 9.3941e-10 -1.90787e-10)
(0.117647 -1.18268e-08 1.04681e-10)
(0.113577 9.86933e-09 9.1847e-11)
(0.113578 3.61093e-09 -2.31695e-10)
(0.113578 -1.34912e-08 1.39812e-10)
(0.109002 6.19291e-09 1.13191e-10)
(0.109003 4.5845e-09 -2.5769e-10)
(0.109003 -1.07864e-08 1.44515e-10)
(0.103649 2.07346e-09 1.34308e-10)
(0.10365 5.08587e-09 -2.64133e-10)
(0.10365 -7.16637e-09 1.2979e-10)
(0.097119 -6.0001e-10 1.31495e-10)
(0.0971199 4.26047e-09 -2.53083e-10)
(0.0971203 -3.6664e-09 1.21584e-10)
(0.0887114 -1.16923e-09 1.12609e-10)
(0.0887122 2.79748e-09 -2.28589e-10)
(0.0887128 -1.6311e-09 1.15948e-10)
(0.076281 -1.52695e-10 7.9701e-11)
(0.0762817 -1.06973e-10 -1.9298e-10)
(0.0762823 2.58625e-10 1.13346e-10)
(0.0620743 6.03462e-10 5.83186e-11)
(0.0620745 -1.62034e-09 -1.64863e-10)
(0.0620747 1.01546e-09 1.06593e-10)
(0.0756236 -6.24125e-10 2.43813e-11)
(0.0756238 1.94261e-09 -2.46177e-10)
(0.0756239 -1.20962e-09 1.57868e-10)
(0.110551 1.4249e-10 1.92582e-10)
(0.110552 2.2147e-10 -4.58712e-10)
(0.110552 -2.87601e-10 2.72953e-10)
(0.125851 1.22154e-09 2.57723e-10)
(0.125852 -3.56104e-09 -5.31917e-10)
(0.125852 2.40021e-09 2.75947e-10)
(0.135759 1.9148e-10 2.91137e-10)
(0.13576 -5.27354e-09 -5.84582e-10)
(0.135761 5.13579e-09 2.94382e-10)
(0.143284 -3.40576e-09 2.89957e-10)
(0.143285 -6.24644e-09 -6.02633e-10)
(0.143285 9.6648e-09 3.14509e-10)
(0.149368 -8.62957e-09 2.4592e-10)
(0.149369 -5.61414e-09 -5.83485e-10)
(0.149369 1.42149e-08 3.38507e-10)
(0.15452 -1.2988e-08 2.00987e-10)
(0.154521 -4.40315e-09 -5.20922e-10)
(0.154521 1.73339e-08 3.20259e-10)
(0.159071 -1.39888e-08 2.04161e-10)
(0.159071 -1.15333e-09 -4.28215e-10)
(0.159072 1.50883e-08 2.23905e-10)
(0.163232 -1.34917e-08 2.05725e-10)
(0.163232 3.2934e-09 -3.60552e-10)
(0.163233 1.01607e-08 1.54536e-10)
(0.1671 -1.3044e-08 1.83237e-10)
(0.1671 5.04085e-09 -3.39272e-10)
(0.167101 7.97804e-09 1.55943e-10)
(0.170654 -1.14794e-08 1.05988e-10)
(0.170655 5.07465e-09 -2.84003e-10)
(0.170655 6.38609e-09 1.78038e-10)
(0.173778 -9.72841e-09 1.05224e-10)
(0.173778 3.77668e-09 -2.6156e-10)
(0.173778 5.94579e-09 1.56127e-10)
(0.176312 -7.43822e-09 1.13158e-10)
(0.176312 2.51551e-09 -2.52756e-10)
(0.176312 4.92522e-09 1.39596e-10)
(0.178122 -4.99133e-09 1.05358e-10)
(0.178122 1.68932e-09 -2.41757e-10)
(0.178123 3.30464e-09 1.36423e-10)
(0.179111 -1.69941e-09 8.91378e-11)
(0.179111 5.33311e-10 -2.32339e-10)
(0.179111 1.16519e-09 1.43261e-10)
(0.179111 1.95063e-09 8.88982e-11)
(0.179111 -7.4112e-10 -2.32238e-10)
(0.179111 -1.2211e-09 1.43384e-10)
(0.178122 5.25435e-09 1.0671e-10)
(0.178122 -1.88642e-09 -2.42756e-10)
(0.178122 -3.38224e-09 1.36082e-10)
(0.176311 7.71347e-09 1.13666e-10)
(0.176311 -2.72177e-09 -2.52896e-10)
(0.176312 -5.00666e-09 1.3917e-10)
(0.173777 9.99989e-09 1.06138e-10)
(0.173777 -3.96671e-09 -2.60032e-10)
(0.173778 -6.05391e-09 1.55645e-10)
(0.170654 1.18542e-08 1.05103e-10)
(0.170654 -5.40334e-09 -2.81889e-10)
(0.170654 -6.47061e-09 1.74814e-10)
(0.1671 1.35294e-08 1.80018e-10)
(0.1671 -5.47437e-09 -3.36497e-10)
(0.1671 -8.06294e-09 1.55871e-10)
(0.163231 1.38913e-08 2.0809e-10)
(0.163231 -3.5726e-09 -3.64936e-10)
(0.163232 -1.0329e-08 1.57867e-10)
(0.15907 1.44314e-08 2.03295e-10)
(0.15907 1.17607e-09 -4.35969e-10)
(0.159071 -1.56253e-08 2.32632e-10)
(0.154519 1.32288e-08 2.05933e-10)
(0.15452 4.64259e-09 -5.35162e-10)
(0.15452 -1.78875e-08 3.29176e-10)
(0.149366 8.42845e-09 2.50151e-10)
(0.149367 5.95379e-09 -5.98893e-10)
(0.149367 -1.43961e-08 3.48753e-10)
(0.143281 2.95031e-09 2.97376e-10)
(0.143282 6.67956e-09 -6.14958e-10)
(0.143282 -9.64094e-09 3.17513e-10)
(0.135756 -6.6979e-10 2.97916e-10)
(0.135757 5.65804e-09 -5.93308e-10)
(0.135758 -4.99754e-09 2.95313e-10)
(0.125848 -1.51764e-09 2.60613e-10)
(0.125849 3.75265e-09 -5.36779e-10)
(0.125849 -2.23921e-09 2.76016e-10)
(0.110549 -1.91524e-10 1.88748e-10)
(0.11055 -1.76223e-10 -4.62761e-10)
(0.11055 3.66885e-10 2.74032e-10)
(0.0756225 7.24198e-10 8.96744e-11)
(0.0756227 -1.94074e-09 -2.49869e-10)
(0.0756228 1.2152e-09 1.60201e-10)
(0.0831466 -6.87068e-10 7.41737e-11)
(0.0831468 2.10997e-09 -3.73791e-10)
(0.0831469 -1.30481e-09 2.45014e-10)
(0.128033 1.05752e-10 2.89161e-10)
(0.128034 3.3179e-10 -7.05262e-10)
(0.128034 -3.40809e-10 4.23797e-10)
(0.145131 1.29368e-09 3.95017e-10)
(0.145132 -3.88116e-09 -8.16038e-10)
(0.145133 2.68299e-09 4.23043e-10)
(0.156002 1.08993e-10 4.58567e-10)
(0.156003 -5.79994e-09 -9.12364e-10)
(0.156003 5.76778e-09 4.55599e-10)
(0.164159 -3.92754e-09 4.56723e-10)
(0.16416 -6.87426e-09 -9.48407e-10)
(0.16416 1.08198e-08 4.95327e-10)
(0.170707 -9.75596e-09 3.863e-10)
(0.170708 -6.18175e-09 -9.24613e-10)
(0.170708 1.59011e-08 5.40326e-10)
(0.176225 -1.45801e-08 3.10382e-10)
(0.176226 -4.85314e-09 -8.28222e-10)
(0.176226 1.93639e-08 5.18572e-10)
(0.181082 -1.56394e-08 3.17907e-10)
(0.181082 -1.29194e-09 -6.8656e-10)
(0.181083 1.6867e-08 3.68263e-10)
(0.185512 -1.50541e-08 3.22074e-10)
(0.185512 3.64434e-09 -5.78118e-10)
(0.185512 1.13664e-08 2.55382e-10)
(0.189622 -1.45217e-08 2.8132e-10)
(0.189623 5.57706e-09 -5.30319e-10)
(0.189623 8.91648e-09 2.487e-10)
(0.193394 -1.27616e-08 1.59889e-10)
(0.193394 5.61625e-09 -4.39075e-10)
(0.193395 7.12438e-09 2.78959e-10)
(0.196706 -1.08319e-08 1.55662e-10)
(0.196706 4.20525e-09 -4.02881e-10)
(0.196706 6.62095e-09 2.46755e-10)
(0.199391 -8.27704e-09 1.64189e-10)
(0.199391 2.8023e-09 -3.90679e-10)
(0.199391 5.47868e-09 2.26426e-10)
(0.201308 -5.55116e-09 1.4985e-10)
(0.201308 1.88134e-09 -3.73941e-10)
(0.201308 3.67375e-09 2.24062e-10)
(0.202355 -1.89137e-09 1.2317e-10)
(0.202355 5.95259e-10 -3.57968e-10)
(0.202355 1.29608e-09 2.34918e-10)
(0.202355 2.17223e-09 1.22733e-10)
(0.202355 -8.28721e-10 -3.57814e-10)
(0.202355 -1.35571e-09 2.35157e-10)
(0.201307 5.84488e-09 1.5172e-10)
(0.201308 -2.1036e-09 -3.75402e-10)
(0.201308 -3.75713e-09 2.23764e-10)
(0.19939 8.58355e-09 1.64847e-10)
(0.19939 -3.03653e-09 -3.90881e-10)
(0.19939 -5.56618e-09 2.25931e-10)
(0.196705 1.11375e-08 1.56059e-10)
(0.196705 -4.4177e-09 -4.00936e-10)
(0.196705 -6.73718e-09 2.45866e-10)
(0.193394 1.31817e-08 1.59049e-10)
(0.193394 -5.98455e-09 -4.3475e-10)
(0.193394 -7.21395e-09 2.74584e-10)
(0.189622 1.5064e-08 2.76337e-10)
(0.189622 -6.07473e-09 -5.25595e-10)
(0.189622 -9.00567e-09 2.48994e-10)
(0.185511 1.54978e-08 3.25916e-10)
(0.185511 -3.96264e-09 -5.86841e-10)
(0.185512 -1.15498e-08 2.61672e-10)
(0.181081 1.61304e-08 3.16377e-10)
(0.181081 1.31613e-09 -6.99502e-10)
(0.181082 -1.74639e-08 3.83043e-10)
(0.176224 1.48533e-08 3.17657e-10)
(0.176225 5.11557e-09 -8.51729e-10)
(0.176225 -1.99862e-08 5.33976e-10)
(0.170705 9.53171e-09 3.9384e-10)
(0.170707 6.55978e-09 -9.50019e-10)
(0.170707 -1.61069e-08 5.56126e-10)
(0.164156 3.42179e-09 4.68316e-10)
(0.164158 7.36661e-09 -9.68749e-10)
(0.164158 -1.08004e-08 5.00307e-10)
(0.155999 -6.28956e-10 4.68401e-10)
(0.156 6.23732e-09 -9.2587e-10)
(0.156 -5.61836e-09 4.57322e-10)
(0.145129 -1.59916e-09 3.98337e-10)
(0.145129 4.10108e-09 -8.23151e-10)
(0.14513 -2.50652e-09 4.24546e-10)
(0.128031 -1.52227e-10 2.84287e-10)
(0.128032 -2.77748e-10 -7.11088e-10)
(0.128032 4.29129e-10 4.26822e-10)
(0.0831455 7.95306e-10 1.30094e-10)
(0.0831457 -2.10808e-09 -3.7921e-10)
(0.0831459 1.31146e-09 2.49003e-10)
(0.0909215 -7.34657e-10 1.6301e-10)
(0.0909218 2.24949e-09 -5.77675e-10)
(0.0909218 -1.38181e-09 3.86225e-10)
(0.141085 7.20113e-11 3.9792e-10)
(0.141086 4.45625e-10 -9.8552e-10)
(0.141087 -3.85006e-10 5.98998e-10)
(0.159744 1.28916e-09 5.50076e-10)
(0.159745 -4.0215e-09 -1.1416e-09)
(0.159745 2.859e-09 5.94327e-10)
(0.171475 -1.46359e-11 6.56403e-10)
(0.171476 -6.08408e-09 -1.30211e-09)
(0.171476 6.1931e-09 6.48744e-10)
(0.180185 -4.35023e-09 6.53611e-10)
(0.180186 -7.22186e-09 -1.36887e-09)
(0.180186 1.15944e-08 7.20486e-10)
(0.187129 -1.05897e-08 5.52678e-10)
(0.18713 -6.50122e-09 -1.34568e-09)
(0.18713 1.70494e-08 7.96008e-10)
(0.192953 -1.57249e-08 4.36999e-10)
(0.192953 -5.1042e-09 -1.21054e-09)
(0.192954 2.07523e-08 7.74522e-10)
(0.198061 -1.68028e-08 4.53311e-10)
(0.198062 -1.38098e-09 -1.01105e-09)
(0.198062 1.81128e-08 5.5713e-10)
(0.20271 -1.61523e-08 4.65134e-10)
(0.20271 3.87475e-09 -8.54349e-10)
(0.202711 1.22307e-08 3.88299e-10)
(0.207017 -1.55601e-08 3.98308e-10)
(0.207017 5.94067e-09 -7.6392e-10)
(0.207018 9.58932e-09 3.65203e-10)
(0.210965 -1.36615e-08 2.22626e-10)
(0.210965 5.98278e-09 -6.24874e-10)
(0.210965 7.65614e-09 4.01965e-10)
(0.214428 -1.16243e-08 2.13441e-10)
(0.214428 4.51223e-09 -5.72754e-10)
(0.214429 7.10646e-09 3.58782e-10)
(0.217235 -8.88592e-09 2.19846e-10)
(0.217235 3.0144e-09 -5.56835e-10)
(0.217236 5.87639e-09 3.36912e-10)
(0.219239 -5.95895e-09 1.96167e-10)
(0.219239 2.02396e-09 -5.33256e-10)
(0.219239 3.93984e-09 3.37103e-10)
(0.220333 -2.0321e-09 1.55297e-10)
(0.220333 6.42005e-10 -5.08717e-10)
(0.220333 1.39067e-09 3.53591e-10)
(0.220333 2.33345e-09 1.54578e-10)
(0.220333 -8.92845e-10 -5.08465e-10)
(0.220333 -1.45345e-09 3.54016e-10)
(0.219238 6.27381e-09 1.98514e-10)
(0.219239 -2.26295e-09 -5.35402e-10)
(0.219239 -4.02783e-09 3.36998e-10)
(0.217234 9.21421e-09 2.20608e-10)
(0.217235 -3.2666e-09 -5.57188e-10)
(0.217235 -5.96865e-09 3.36412e-10)
(0.214427 1.19521e-08 2.1357e-10)
(0.214428 -4.73961e-09 -5.69784e-10)
(0.214428 -7.22968e-09 3.57488e-10)
(0.210964 1.41106e-08 2.21383e-10)
(0.210964 -6.37656e-09 -6.18829e-10)
(0.210965 -7.7508e-09 3.95999e-10)
(0.207016 1.61413e-08 3.91659e-10)
(0.207017 -6.47879e-09 -7.57238e-10)
(0.207017 -9.6821e-09 3.65234e-10)
(0.20271 1.66276e-08 4.69779e-10)
(0.20271 -4.21816e-09 -8.67026e-10)
(0.20271 -1.2426e-08 3.98193e-10)
(0.198061 1.7328e-08 4.51724e-10)
(0.198061 1.40507e-09 -1.03027e-09)
(0.198061 -1.8751e-08 5.7842e-10)
(0.192952 1.6023e-08 4.4723e-10)
(0.192952 5.37742e-09 -1.24444e-09)
(0.192952 -2.14187e-08 7.9711e-10)
(0.187127 1.03513e-08 5.65107e-10)
(0.187128 6.89463e-09 -1.38183e-09)
(0.187128 -1.72623e-08 8.16643e-10)
(0.180182 3.81207e-09 6.7139e-10)
(0.180183 7.7529e-09 -1.39897e-09)
(0.180183 -1.15777e-08 7.27355e-10)
(0.171472 -5.29995e-10 6.69587e-10)
(0.171473 6.55579e-09 -1.32138e-09)
(0.171473 -6.03629e-09 6.51516e-10)
(0.159741 -1.59239e-09 5.52445e-10)
(0.159742 4.26096e-09 -1.15137e-09)
(0.159743 -2.67353e-09 5.98457e-10)
(0.141084 -9.56788e-11 3.88254e-10)
(0.141084 -3.8479e-10 -9.93337e-10)
(0.141085 4.79374e-10 6.05044e-10)
(0.0909205 8.55517e-10 1.92412e-10)
(0.0909207 -2.24759e-09 -5.85671e-10)
(0.0909208 1.39062e-09 3.9301e-10)
(0.0989761 -7.83435e-10 2.19842e-10)
(0.0989764 2.35852e-09 -8.08338e-10)
(0.0989764 -1.43899e-09 5.49006e-10)
(0.1518 1.92235e-11 4.95802e-10)
(0.151801 5.56356e-10 -1.25751e-09)
(0.151801 -4.2202e-10 7.74107e-10)
(0.171824 1.22167e-09 6.99061e-10)
(0.171825 -4.05244e-09 -1.46053e-09)
(0.171825 2.97337e-09 7.65585e-10)
(0.184364 -1.79587e-10 8.57788e-10)
(0.184365 -6.21745e-09 -1.70098e-09)
(0.184365 6.49946e-09 8.48225e-10)
(0.193591 -4.73228e-09 8.55766e-10)
(0.193592 -7.38841e-09 -1.80823e-09)
(0.193592 1.21446e-08 9.6028e-10)
(0.200899 -1.12714e-08 7.22326e-10)
(0.2009 -6.66094e-09 -1.79185e-09)
(0.2009 1.78882e-08 1.07409e-09)
(0.206999 -1.66285e-08 5.61476e-10)
(0.207 -5.2195e-09 -1.61988e-09)
(0.207 2.17673e-08 1.05982e-09)
(0.212332 -1.76954e-08 5.92775e-10)
(0.212332 -1.43328e-09 -1.36243e-09)
(0.212332 1.90542e-08 7.68696e-10)
(0.217173 -1.69907e-08 6.16247e-10)
(0.217173 4.03594e-09 -1.15435e-09)
(0.217173 1.29058e-08 5.36737e-10)
(0.221651 -1.63538e-08 5.20282e-10)
(0.221651 6.20843e-09 -1.00994e-09)
(0.221651 1.0114e-08 4.89025e-10)
(0.225751 -1.43474e-08 2.88544e-10)
(0.225751 6.24983e-09 -8.18096e-10)
(0.225751 8.07389e-09 5.29073e-10)
(0.229346 -1.2247e-08 2.72021e-10)
(0.229346 4.75334e-09 -7.48443e-10)
(0.229347 7.48767e-09 4.75683e-10)
(0.232259 -9.37234e-09 2.73681e-10)
(0.232259 3.18902e-09 -7.29273e-10)
(0.232259 6.18845e-09 4.55459e-10)
(0.234338 -6.28663e-09 2.38919e-10)
(0.234338 2.14231e-09 -6.98589e-10)
(0.234338 4.14958e-09 4.59683e-10)
(0.235473 -2.14608e-09 1.82789e-10)
(0.235473 6.81566e-10 -6.64258e-10)
(0.235473 1.46527e-09 4.8172e-10)
(0.235472 2.46243e-09 1.8172e-10)
(0.235473 -9.44495e-10 -6.63893e-10)
(0.235473 -1.53171e-09 4.82369e-10)
(0.234337 6.61681e-09 2.41558e-10)
(0.234337 -2.39253e-09 -7.01326e-10)
(0.234338 -4.24243e-09 4.59924e-10)
(0.232258 9.71641e-09 2.74416e-10)
(0.232258 -3.45267e-09 -7.29715e-10)
(0.232259 -6.28596e-09 4.55063e-10)
(0.229345 1.25899e-08 2.71433e-10)
(0.229346 -4.99013e-09 -7.44425e-10)
(0.229346 -7.61795e-09 4.74096e-10)
(0.22575 1.48158e-08 2.86755e-10)
(0.225751 -6.65894e-09 -8.09668e-10)
(0.225751 -8.1746e-09 5.21676e-10)
(0.22165 1.69619e-08 5.11748e-10)
(0.22165 -6.77059e-09 -1.00103e-09)
(0.221651 -1.0212e-08 4.89054e-10)
(0.217172 1.74902e-08 6.22018e-10)
(0.217172 -4.39485e-09 -1.17235e-09)
(0.217173 -1.31131e-08 5.5122e-10)
(0.212331 1.8248e-08 5.90529e-10)
(0.212331 1.45635e-09 -1.38849e-09)
(0.212332 -1.97232e-08 7.97777e-10)
(0.206998 1.69475e-08 5.74446e-10)
(0.206999 5.49254e-09 -1.66591e-09)
(0.206999 -2.24592e-08 1.0913e-09)
(0.200898 1.10233e-08 7.40651e-10)
(0.200899 7.09876e-09 -1.84242e-09)
(0.200899 -1.81393e-08 1.10159e-09)
(0.193589 4.17067e-09 8.79618e-10)
(0.19359 7.94371e-09 -1.84904e-09)
(0.19359 -1.21277e-08 9.69093e-10)
(0.184361 -3.85434e-10 8.7332e-10)
(0.184362 6.71036e-09 -1.72598e-09)
(0.184362 -6.33595e-09 8.52214e-10)
(0.171821 -1.52893e-09 6.98487e-10)
(0.171822 4.30557e-09 -1.4725e-09)
(0.171822 -2.78199e-09 7.73323e-10)
(0.151799 -3.26455e-11 4.8277e-10)
(0.151799 -4.9013e-10 -1.26708e-09)
(0.1518 5.21319e-10 7.84209e-10)
(0.0989751 9.04177e-10 2.59268e-10)
(0.0989753 -2.35673e-09 -8.1876e-10)
(0.0989754 1.45096e-09 5.59134e-10)
(0.107322 -8.31017e-10 2.88491e-10)
(0.107322 2.43576e-09 -1.0742e-09)
(0.107322 -1.47449e-09 7.37059e-10)
(0.161085 -5.03427e-11 5.82036e-10)
(0.161085 6.63321e-10 -1.51439e-09)
(0.161086 -4.52074e-10 9.45738e-10)
(0.182288 1.10527e-09 8.36092e-10)
(0.182288 -4.00201e-09 -1.76293e-09)
(0.182289 3.04515e-09 9.32824e-10)
(0.195605 -3.81554e-10 1.05631e-09)
(0.195606 -6.23658e-09 -2.09909e-09)
(0.195606 6.72252e-09 1.0502e-09)
(0.205335 -5.09637e-09 1.05832e-09)
(0.205336 -7.45816e-09 -2.26031e-09)
(0.205336 1.25782e-08 1.21254e-09)
(0.212993 -1.18535e-08 8.91677e-10)
(0.212994 -6.7429e-09 -2.2584e-09)
(0.212994 1.85509e-08 1.3729e-09)
(0.219354 -1.73771e-08 6.79482e-10)
(0.219354 -5.22888e-09 -2.05075e-09)
(0.219354 2.25236e-08 1.37309e-09)
(0.224894 -1.84089e-08 7.31922e-10)
(0.224894 -1.45615e-09 -1.73512e-09)
(0.224894 1.97893e-08 1.00187e-09)
(0.229911 -1.76556e-08 7.73069e-10)
(0.229911 4.14708e-09 -1.47484e-09)
(0.229911 1.34586e-08 6.99954e-10)
(0.234543 -1.69837e-08 6.46293e-10)
(0.234544 6.41004e-09 -1.26481e-09)
(0.234544 1.05415e-08 6.17676e-10)
(0.238781 -1.48899e-08 3.58015e-10)
(0.238782 6.44787e-09 -1.0152e-09)
(0.238782 8.41765e-09 6.5655e-10)
(0.242495 -1.27603e-08 3.32775e-10)
(0.242496 4.95218e-09 -9.27092e-10)
(0.242496 7.80164e-09 5.93392e-10)
(0.245503 -9.78186e-09 3.26954e-10)
(0.245503 3.34169e-09 -9.04541e-10)
(0.245504 6.44516e-09 5.77403e-10)
(0.24765 -6.56477e-09 2.79789e-10)
(0.24765 2.24716e-09 -8.66411e-10)
(0.24765 4.32297e-09 5.86661e-10)
(0.248821 -2.24369e-09 2.07373e-10)
(0.248822 7.1744e-10 -8.21228e-10)
(0.248822 1.52693e-09 6.14188e-10)
(0.248821 2.57163e-09 2.05891e-10)
(0.248821 -9.8893e-10 -8.20716e-10)
(0.248821 -1.59756e-09 6.15099e-10)
(0.247649 6.90662e-09 2.8251e-10)
(0.247649 -2.50501e-09 -8.69692e-10)
(0.247649 -4.42103e-09 5.87386e-10)
(0.245502 1.01378e-08 3.27514e-10)
(0.245503 -3.61254e-09 -9.05025e-10)
(0.245503 -6.54845e-09 5.77199e-10)
(0.242495 1.31141e-08 3.31325e-10)
(0.242495 -5.19441e-09 -9.21735e-10)
(0.242495 -7.93901e-09 5.91639e-10)
(0.238781 1.53714e-08 3.55248e-10)
(0.238781 -6.86515e-09 -1.00438e-09)
(0.238781 -8.52503e-09 6.47757e-10)
(0.234543 1.76105e-08 6.35877e-10)
(0.234543 -6.98561e-09 -1.25375e-09)
(0.234543 -1.06463e-08 6.17643e-10)
(0.22991 1.81745e-08 7.79609e-10)
(0.22991 -4.51509e-09 -1.49827e-09)
(0.229911 -1.3678e-08 7.19644e-10)
(0.224893 1.89843e-08 7.28738e-10)
(0.224893 1.47708e-09 -1.76816e-09)
(0.224894 -2.04813e-08 1.03918e-09)
(0.219353 1.77153e-08 6.95376e-10)
(0.219354 5.48697e-09 -2.10748e-09)
(0.219354 -2.32222e-08 1.41194e-09)
(0.212992 1.15977e-08 9.17304e-10)
(0.212993 7.20773e-09 -2.32249e-09)
(0.212993 -1.88233e-08 1.40492e-09)
(0.205333 4.5177e-09 1.08889e-09)
(0.205334 8.02889e-09 -2.31203e-09)
(0.205334 -1.25606e-08 1.22266e-09)
(0.195603 -2.00524e-10 1.07358e-09)
(0.195604 6.74158e-09 -2.12968e-09)
(0.195604 -6.55261e-09 1.05549e-09)
(0.182285 -1.42047e-09 8.30737e-10)
(0.182286 4.26472e-09 -1.77674e-09)
(0.182286 -2.84999e-09 9.45056e-10)
(0.161083 3.53196e-11 5.64573e-10)
(0.161084 -5.92778e-10 -1.52555e-09)
(0.161084 5.55585e-10 9.60793e-10)
(0.10732 9.42193e-10 3.3572e-10)
(0.107321 -2.43417e-09 -1.08717e-09)
(0.107321 1.49022e-09 7.50951e-10)
(0.115954 -8.75061e-10 3.67445e-10)
(0.115954 2.47745e-09 -1.38643e-09)
(0.115954 -1.48597e-09 9.57781e-10)
(0.169436 -1.33111e-10 6.54385e-10)
(0.169436 7.63206e-10 -1.75617e-09)
(0.169436 -4.73707e-10 1.11507e-09)
(0.19163 9.47072e-10 9.58482e-10)
(0.191631 -3.88666e-09 -2.04644e-09)
(0.191631 3.08552e-09 1.09622e-09)
(0.205699 -6.20052e-10 1.25013e-09)
(0.2057 -6.15938e-09 -2.49452e-09)
(0.2057 6.88079e-09 1.25456e-09)
(0.215928 -5.45239e-09 1.2614e-09)
(0.215929 -7.44767e-09 -2.72193e-09)
(0.215929 1.29221e-08 1.47427e-09)
(0.223932 -1.23621e-08 1.0607e-09)
(0.223933 -6.75627e-09 -2.74439e-09)
(0.223933 1.90727e-08 1.69178e-09)
(0.230546 -1.80199e-08 7.89724e-10)
(0.230547 -5.14655e-09 -2.50215e-09)
(0.230547 2.30843e-08 1.71478e-09)
(0.236285 -1.89945e-08 8.69483e-10)
(0.236285 -1.45011e-09 -2.12987e-09)
(0.236285 2.03692e-08 1.25864e-09)
(0.241467 -1.81948e-08 9.3539e-10)
(0.241467 4.21955e-09 -1.81672e-09)
(0.241468 1.39252e-08 8.78987e-10)
(0.246244 -1.74946e-08 7.7768e-10)
(0.246244 6.56328e-09 -1.52981e-09)
(0.246245 1.08988e-08 7.51025e-10)
(0.250609 -1.53281e-08 4.33138e-10)
(0.25061 6.59443e-09 -1.21753e-09)
(0.25061 8.70882e-09 7.83551e-10)
(0.254433 -1.31985e-08 3.979e-10)
(0.254433 5.12316e-09 -1.10948e-09)
(0.254433 8.06825e-09 7.10411e-10)
(0.257528 -1.01409e-08 3.82007e-10)
(0.257529 3.48261e-09 -1.08302e-09)
(0.257529 6.66279e-09 7.00765e-10)
(0.259737 -6.81115e-09 3.2113e-10)
(0.259737 2.34556e-09 -1.03682e-09)
(0.259737 4.47077e-09 7.15739e-10)
(0.260943 -2.331e-09 2.32014e-10)
(0.260943 7.5195e-10 -9.79749e-10)
(0.260943 1.57944e-09 7.48174e-10)
(0.260943 2.66815e-09 2.30055e-10)
(0.260943 -1.02934e-09 -9.79058e-10)
(0.260943 -1.65491e-09 7.49375e-10)
(0.259737 7.16209e-09 3.23704e-10)
(0.259737 -2.6083e-09 -1.04053e-09)
(0.259737 -4.57455e-09 7.17075e-10)
(0.257528 1.05059e-08 3.82217e-10)
(0.257528 -3.75744e-09 -1.08345e-09)
(0.257528 -6.77254e-09 7.00843e-10)
(0.254432 1.35602e-08 3.95262e-10)
(0.254432 -5.36766e-09 -1.10256e-09)
(0.254432 -8.21297e-09 7.08628e-10)
(0.250609 1.58178e-08 4.28965e-10)
(0.250609 -7.01413e-09 -1.20393e-09)
(0.250609 -8.82354e-09 7.73489e-10)
(0.246244 1.81338e-08 7.65243e-10)
(0.246244 -7.1439e-09 -1.51658e-09)
(0.246244 -1.10117e-08 7.51108e-10)
(0.241467 1.87295e-08 9.42476e-10)
(0.241467 -4.59161e-09 -1.84608e-09)
(0.241467 -1.41573e-08 9.04679e-10)
(0.236284 1.95897e-08 8.64699e-10)
(0.236285 1.46751e-09 -2.17039e-09)
(0.236285 -2.1078e-08 1.30539e-09)
(0.230546 1.8374e-08 8.08819e-10)
(0.230546 5.44007e-09 -2.57459e-09)
(0.230546 -2.38347e-08 1.76554e-09)
(0.223931 1.20999e-08 1.09518e-09)
(0.223932 7.2374e-09 -2.82242e-09)
(0.223932 -1.93559e-08 1.72688e-09)
(0.215927 4.86157e-09 1.29893e-09)
(0.215928 8.02698e-09 -2.78481e-09)
(0.215927 -1.29031e-08 1.48527e-09)
(0.205697 2.30409e-11 1.26833e-09)
(0.205698 6.66929e-09 -2.53043e-09)
(0.205698 -6.7044e-09 1.26124e-09)
(0.191628 -1.27387e-09 9.46576e-10)
(0.191629 4.15583e-09 -2.06144e-09)
(0.191629 -2.8881e-09 1.11364e-09)
(0.169434 1.05887e-10 6.32423e-10)
(0.169434 -6.89251e-10 -1.76868e-09)
(0.169435 5.81024e-10 1.13598e-09)
(0.115953 9.68294e-10 4.2533e-10)
(0.115953 -2.47616e-09 -1.40202e-09)
(0.115953 1.50591e-09 9.75998e-10)
(0.124853 -9.13337e-10 4.66e-10)
(0.124853 2.48049e-09 -1.75723e-09)
(0.124853 -1.47149e-09 1.21807e-09)
(0.177163 -2.25346e-10 7.12842e-10)
(0.177164 8.51523e-10 -1.9851e-09)
(0.177164 -4.84413e-10 1.28454e-09)
(0.200157 7.52011e-10 1.06422e-09)
(0.200158 -3.71775e-09 -2.31016e-09)
(0.200158 3.10228e-09 1.25667e-09)
(0.214947 -8.95473e-10 1.43765e-09)
(0.214948 -5.99451e-09 -2.88292e-09)
(0.214948 6.98414e-09 1.45856e-09)
(0.225678 -5.80526e-09 1.46481e-09)
(0.225679 -7.36509e-09 -3.19214e-09)
(0.225679 1.31895e-08 1.7445e-09)
(0.234031 -1.28104e-08 1.22968e-09)
(0.234032 -6.70516e-09 -3.25094e-09)
(0.234031 1.94703e-08 2.03142e-09)
(0.240898 -1.85781e-08 8.91575e-10)
(0.240899 -5.03769e-09 -2.98099e-09)
(0.240899 2.35355e-08 2.09229e-09)
(0.246831 -1.94843e-08 1.00383e-09)
(0.246831 -1.41283e-09 -2.54888e-09)
(0.246831 2.08234e-08 1.54283e-09)
(0.252172 -1.86376e-08 1.10339e-09)
(0.252172 4.26063e-09 -2.18237e-09)
(0.252173 1.43277e-08 1.07606e-09)
(0.257086 -1.79139e-08 9.16003e-10)
(0.257086 6.67967e-09 -1.80697e-09)
(0.257087 1.12017e-08 8.89589e-10)
(0.261571 -1.56859e-08 5.16001e-10)
(0.261572 6.70067e-09 -1.42677e-09)
(0.261572 8.96015e-09 9.09706e-10)
(0.265498 -1.35837e-08 4.70019e-10)
(0.265498 5.27652e-09 -1.297e-09)
(0.265498 8.29939e-09 8.2555e-10)
(0.268675 -1.04669e-08 4.41392e-10)
(0.268676 3.6196e-09 -1.26541e-09)
(0.268676 6.85104e-09 8.23692e-10)
(0.270943 -7.03749e-09 3.6573e-10)
(0.270943 2.44289e-09 -1.21021e-09)
(0.270943 4.59939e-09 8.44548e-10)
(0.27218 -2.412e-09 2.59311e-10)
(0.27218 7.86927e-10 -1.14e-09)
(0.272181 1.625e-09 8.81253e-10)
(0.27218 2.75669e-09 2.56806e-10)
(0.27218 -1.06814e-09 -1.13909e-09)
(0.27218 -1.70604e-09 8.82766e-10)
(0.270942 7.39563e-09 3.67913e-10)
(0.270942 -2.70835e-09 -1.21422e-09)
(0.270942 -4.7095e-09 8.46615e-10)
(0.268675 1.08388e-08 4.41062e-10)
(0.268675 -3.89581e-09 -1.26567e-09)
(0.268675 -6.96799e-09 8.24132e-10)
(0.265497 1.39508e-08 4.65856e-10)
(0.265497 -5.52061e-09 -1.28827e-09)
(0.265497 -8.45184e-09 8.23856e-10)
(0.261571 1.61798e-08 5.0992e-10)
(0.261571 -7.11785e-09 -1.41004e-09)
(0.261571 -9.08292e-09 8.98523e-10)
(0.257086 1.85604e-08 9.01372e-10)
(0.257086 -7.25838e-09 -1.79157e-09)
(0.257086 -1.13244e-08 8.8998e-10)
(0.252172 1.91856e-08 1.11057e-09)
(0.252172 -4.63251e-09 -2.21792e-09)
(0.252172 -1.45732e-08 1.10854e-09)
(0.24683 2.00969e-08 9.96728e-10)
(0.246831 1.425e-09 -2.59763e-09)
(0.246831 -2.15437e-08 1.60054e-09)
(0.240897 1.89427e-08 9.14289e-10)
(0.240898 5.35096e-09 -3.06708e-09)
(0.240898 -2.43149e-08 2.1525e-09)
(0.23403 1.25425e-08 1.27465e-09)
(0.23403 7.19511e-09 -3.34308e-09)
(0.23403 -1.97568e-08 2.06796e-09)
(0.225676 5.20637e-09 1.5096e-09)
(0.225677 7.94735e-09 -3.26641e-09)
(0.225677 -1.31689e-08 1.75603e-09)
(0.214945 2.84955e-10 1.45606e-09)
(0.214946 6.50343e-09 -2.92381e-09)
(0.214946 -6.801e-09 1.46672e-09)
(0.200155 -1.09364e-09 1.04421e-09)
(0.200155 3.99084e-09 -2.32577e-09)
(0.200156 -2.90376e-09 1.28001e-09)
(0.177162 1.76762e-10 6.86215e-10)
(0.177162 -7.74972e-10 -1.99874e-09)
(0.177162 5.95351e-10 1.31214e-09)
(0.124852 9.81478e-10 5.33521e-10)
(0.124852 -2.47966e-09 -1.77567e-09)
(0.124852 1.49595e-09 1.24122e-09)
(0.133985 -9.43191e-10 5.88824e-10)
(0.133985 2.44238e-09 -2.19685e-09)
(0.133986 -1.42961e-09 1.52339e-09)
(0.184479 -3.22648e-10 7.57664e-10)
(0.18448 9.22541e-10 -2.20425e-09)
(0.18448 -4.80759e-10 1.45681e-09)
(0.208075 5.24148e-10 1.15169e-09)
(0.208075 -3.50449e-09 -2.55321e-09)
(0.208075 3.10182e-09 1.41476e-09)
(0.223548 -1.20756e-09 1.61724e-09)
(0.223549 -5.78328e-09 -3.26724e-09)
(0.223549 7.07429e-09 1.66646e-09)
(0.234783 -6.15649e-09 1.6679e-09)
(0.234784 -7.21428e-09 -3.6691e-09)
(0.234784 1.33858e-08 2.02197e-09)
(0.243493 -1.32031e-08 1.39885e-09)
(0.243494 -6.59047e-09 -3.77774e-09)
(0.243494 1.97494e-08 2.39122e-09)
(0.250618 -1.90597e-08 9.84768e-10)
(0.250618 -4.89264e-09 -3.48569e-09)
(0.250618 2.38754e-08 2.50439e-09)
(0.256745 -1.99002e-08 1.13276e-09)
(0.256745 -1.3399e-09 -2.99401e-09)
(0.256746 2.11696e-08 1.85854e-09)
(0.262242 -1.90041e-08 1.27661e-09)
(0.262243 4.27565e-09 -2.57352e-09)
(0.262243 1.46806e-08 1.29338e-09)
(0.267289 -1.826e-08 1.06251e-09)
(0.267289 6.76614e-09 -2.09834e-09)
(0.267289 1.14616e-08 1.03416e-09)
(0.271889 -1.59791e-08 6.08728e-10)
(0.271889 6.77449e-09 -1.64448e-09)
(0.271889 9.17965e-09 1.03446e-09)
(0.275913 -1.39318e-08 5.51741e-10)
(0.275913 5.42072e-09 -1.49084e-09)
(0.275913 8.50253e-09 9.37383e-10)
(0.279169 -1.0773e-08 5.07667e-10)
(0.279169 3.75973e-09 -1.4521e-09)
(0.279169 7.01595e-09 9.44016e-10)
(0.281492 -7.25251e-09 4.15965e-10)
(0.281492 2.54392e-09 -1.3864e-09)
(0.281492 4.71277e-09 9.70529e-10)
(0.282759 -2.48981e-09 2.92099e-10)
(0.282759 8.24113e-10 -1.30179e-09)
(0.28276 1.66499e-09 1.0104e-09)
(0.282759 2.84085e-09 2.88992e-10)
(0.282759 -1.10751e-09 -1.30061e-09)
(0.282759 -1.75237e-09 1.01224e-09)
(0.281491 7.61649e-09 4.17498e-10)
(0.281491 -2.81037e-09 -1.39056e-09)
(0.281491 -4.8299e-09 9.73432e-10)
(0.279168 1.11502e-08 5.06585e-10)
(0.279168 -4.03524e-09 -1.45204e-09)
(0.279168 -7.14087e-09 9.44891e-10)
(0.275912 1.43025e-08 5.45697e-10)
(0.275912 -5.66208e-09 -1.48001e-09)
(0.275912 -8.66315e-09 9.35902e-10)
(0.271888 1.6474e-08 6.00133e-10)
(0.271888 -7.18477e-09 -1.62423e-09)
(0.271888 -9.31118e-09 1.02233e-09)
(0.267288 1.89095e-08 1.04546e-09)
(0.267288 -7.33708e-09 -2.08081e-09)
(0.267288 -1.15952e-08 1.03513e-09)
(0.262242 1.95631e-08 1.28323e-09)
(0.262242 -4.64376e-09 -2.61537e-09)
(0.262242 -1.49402e-08 1.33346e-09)
(0.256745 2.05289e-08 1.12248e-09)
(0.256745 1.34467e-09 -3.05172e-09)
(0.256745 -2.18961e-08 1.92882e-09)
(0.250617 1.94296e-08 1.01146e-09)
(0.250618 5.21616e-09 -3.58589e-09)
(0.250618 -2.46676e-08 2.57406e-09)
(0.243492 1.29301e-08 1.45605e-09)
(0.243493 7.08354e-09 -3.884e-09)
(0.243493 -2.00334e-08 2.42736e-09)
(0.234782 5.55318e-09 1.72025e-09)
(0.234783 7.79479e-09 -3.75492e-09)
(0.234782 -1.33638e-08 2.0337e-09)
(0.223546 5.85301e-10 1.63512e-09)
(0.223547 6.28722e-09 -3.31277e-09)
(0.223547 -6.88567e-09 1.67631e-09)
(0.208072 -8.83321e-10 1.12227e-09)
(0.208073 3.7793e-09 -2.56879e-09)
(0.208073 -2.90299e-09 1.44465e-09)
(0.184478 2.45421e-10 7.26385e-10)
(0.184478 -8.44129e-10 -2.21882e-09)
(0.184478 5.95274e-10 1.49192e-09)
(0.133984 9.80898e-10 6.65091e-10)
(0.133984 -2.44222e-09 -2.21847e-09)
(0.133984 1.45871e-09 1.55213e-09)
(0.143302 -9.61735e-10 7.43227e-10)
(0.143303 2.36113e-09 -2.71574e-09)
(0.143303 -1.35941e-09 1.8789e-09)
(0.191537 -4.20338e-10 7.90102e-10)
(0.191537 9.69252e-10 -2.41835e-09)
(0.191537 -4.58479e-10 1.63525e-09)
(0.215535 2.67372e-10 1.22018e-09)
(0.215535 -3.25574e-09 -2.77534e-09)
(0.215535 3.09023e-09 1.57062e-09)
(0.23164 -1.55357e-09 1.78748e-09)
(0.231641 -5.52782e-09 -3.64075e-09)
(0.231641 7.15132e-09 1.87295e-09)
(0.243382 -6.50466e-09 1.87005e-09)
(0.243383 -6.99682e-09 -4.15074e-09)