/*--------------------------------*- C++ -*----------------------------------*\
  =========                 |
  \\      /  F ield         | OpenFOAM: The Open Source CFD Toolbox
   \\    /   O peration     | Website:  https://openfoam.org
    \\  /    A nd           | Version:  6
     \\/     M anipulation  |
\*---------------------------------------------------------------------------*/
FoamFile
{
    version     2.0;
    format      ascii;
    class       surfaceScalarField;
    location    "0.8";
    object      phi;
}
// * * * * * * * * * * * * * * * * * * * * * * * * * * * * * * * * * * * * * //

dimensions      [0 3 -1 0 0 0 0];

internalField   nonuniform List<scalar> 
185055
(
1.07417e-06
6.35384e-09
-3.27305e-07
-5.84992e-09
1.11231e-06
1.92906e-08
-4.00222e-08
-1.74152e-08
1.1004e-06
2.84884e-08
9.45133e-09
-2.6021e-08
1.09132e-06
3.20267e-08
6.85722e-09
-2.98116e-08
1.08731e-06
2.92064e-08
2.61758e-09
-2.78153e-08
1.08572e-06
2.34176e-08
1.03888e-09
-2.28604e-08
1.08545e-06
1.81555e-08
2.45989e-10
-1.81361e-08
1.08539e-06
1.46759e-08
2.63254e-10
-1.48743e-08
1.08571e-06
1.27173e-08
-6.5376e-11
-1.29712e-08
1.08653e-06
1.1731e-08
-5.4536e-10
-1.20079e-08
1.08585e-06
1.1358e-08
9.27015e-10
-1.16072e-08
1.08402e-06
1.13946e-08
2.05994e-09
-1.16223e-08
1.08317e-06
1.1733e-08
1.09352e-09
-1.19802e-08
1.08382e-06
1.23466e-08
-3.60607e-10
-1.26305e-08
1.08512e-06
1.31984e-08
-9.85263e-10
-1.35187e-08
1.08638e-06
1.42144e-08
-9.03871e-10
-1.45664e-08
1.08737e-06
1.53264e-08
-6.07363e-10
-1.57103e-08
1.08815e-06
1.64967e-08
-3.55971e-10
-1.69244e-08
1.08884e-06
1.771e-08
-1.97746e-10
-1.82009e-08
1.08954e-06
1.8964e-08
-1.18405e-10
-1.95382e-08
1.09028e-06
2.0253e-08
-7.71231e-11
-2.09235e-08
1.09115e-06
2.15724e-08
-8.55576e-11
-2.23506e-08
1.09211e-06
2.29034e-08
-7.11777e-11
-2.37966e-08
1.09324e-06
2.42378e-08
-1.05325e-10
-2.5257e-08
1.09451e-06
2.55444e-08
-1.22868e-10
-2.66979e-08
1.09593e-06
2.68308e-08
-1.16003e-10
-2.81334e-08
1.09758e-06
2.80405e-08
-1.90157e-10
-2.94973e-08
1.09939e-06
2.92122e-08
-1.81712e-10
-3.08405e-08
1.10138e-06
3.02676e-08
-1.85404e-10
-3.20702e-08
1.10369e-06
3.12656e-08
-3.11089e-10
-3.32654e-08
1.10633e-06
3.20773e-08
-4.60546e-10
-3.42582e-08
1.10922e-06
3.28892e-08
-5.03495e-10
-3.52796e-08
1.1124e-06
3.31817e-08
-5.86776e-10
-3.57761e-08
1.11562e-06
3.39987e-08
-4.83984e-10
-3.673e-08
3.29151e-08
-7.41314e-10
1.11937e-06
-3.5929e-08
1.06317e-06
7.36484e-09
-3.17078e-07
1.10246e-06
2.01578e-08
-4.01616e-08
1.09395e-06
2.89309e-08
8.06463e-09
1.08773e-06
3.23308e-08
5.91729e-09
1.08528e-06
2.94826e-08
2.18008e-09
1.08426e-06
2.35862e-08
8.48692e-10
1.08402e-06
1.81544e-08
2.42333e-10
1.08401e-06
1.45198e-08
1.58896e-10
1.08427e-06
1.24882e-08
-2.49543e-11
1.08464e-06
1.15202e-08
-1.62409e-10
1.08405e-06
1.11987e-08
7.50363e-10
1.0828e-06
1.12811e-08
1.36008e-09
1.08218e-06
1.16178e-08
7.34962e-10
1.08259e-06
1.21526e-08
-2.07611e-10
1.08362e-06
1.28633e-08
-6.96861e-10
1.08487e-06
1.37224e-08
-7.57343e-10
1.08613e-06
1.47076e-08
-6.46364e-10
1.08735e-06
1.57997e-08
-5.18057e-10
1.0885e-06
1.69731e-08
-4.16343e-10
1.08962e-06
1.81988e-08
-3.54098e-10
1.09073e-06
1.94513e-08
-3.13182e-10
1.09192e-06
2.07116e-08
-3.21512e-10
1.09316e-06
2.19665e-08
-3.07881e-10
1.09455e-06
2.31995e-08
-3.48959e-10
1.09606e-06
2.44033e-08
-3.72218e-10
1.09773e-06
2.55549e-08
-3.8888e-10
1.09955e-06
2.66499e-08
-4.34883e-10
1.10163e-06
2.76675e-08
-5.34596e-10
1.10368e-06
2.8597e-08
-3.75023e-10
1.10628e-06
2.94345e-08
-7.69068e-10
1.10885e-06
3.01597e-08
-6.5071e-10
1.11193e-06
3.07972e-08
-9.96746e-10
1.11459e-06
3.13465e-08
-8.23403e-10
1.1176e-06
3.18489e-08
-8.5373e-10
3.26047e-08
-3.55824e-09
1.12147e-06
1.05002e-06
9.03685e-09
-3.10654e-07
1.08412e-06
2.44324e-08
-3.83737e-08
1.06925e-06
3.40898e-08
9.712e-09
1.05767e-06
3.62846e-08
7.62472e-09
1.05245e-06
3.13219e-08
3.38249e-09
1.05085e-06
2.38268e-08
1.35674e-09
1.05101e-06
1.76981e-08
2.92764e-10
1.05153e-06
1.39266e-08
7.73368e-11
1.05224e-06
1.19288e-08
-1.53727e-10
1.05308e-06
1.09788e-08
-2.94063e-10
1.05306e-06
1.05866e-08
6.32042e-10
1.0527e-06
1.05622e-08
1.07159e-09
1.05313e-06
1.08614e-08
3.30946e-10
1.05432e-06
1.14726e-08
-5.06126e-10
1.05561e-06
1.23275e-08
-7.62188e-10
1.05663e-06
1.33059e-08
-5.95577e-10
1.05736e-06
1.43169e-08
-3.45882e-10
1.058e-06
1.53337e-08
-1.74137e-10
1.0587e-06
1.63673e-08
-9.25204e-11
1.05954e-06
1.74312e-08
-7.46205e-11
1.06054e-06
1.85264e-08
-7.48011e-11
1.06172e-06
1.964e-08
-1.09984e-10
1.06304e-06
2.07579e-08
-1.07667e-10
1.06454e-06
2.18545e-08
-1.53515e-10
1.06619e-06
2.29244e-08
-1.71325e-10
1.06798e-06
2.39333e-08
-1.7115e-10
1.06997e-06
2.48892e-08
-2.28189e-10
1.07214e-06
2.57567e-08
-2.59148e-10
1.07438e-06
2.654e-08
-1.83218e-10
1.07703e-06
2.72244e-08
-4.34666e-10
1.07976e-06
2.77997e-08
-3.72834e-10
1.08293e-06
2.82632e-08
-6.34351e-10
1.08603e-06
2.86402e-08
-3.99814e-10
1.08959e-06
2.88032e-08
-5.14176e-10
2.92935e-08
-7.98314e-10
1.0937e-06
1.03585e-06
1.02826e-08
-3.09354e-07
1.07076e-06
2.70975e-08
-3.75683e-08
1.05919e-06
3.67507e-08
8.91e-09
1.05089e-06
3.832e-08
6.26322e-09
1.04767e-06
3.23159e-08
2.22548e-09
1.04694e-06
2.3888e-08
6.64421e-10
1.04756e-06
1.72061e-08
-1.23393e-10
1.04825e-06
1.32463e-08
-1.54055e-11
1.04926e-06
1.12584e-08
-3.30313e-10
1.05052e-06
1.03715e-08
-6.54191e-10
1.05014e-06
1.00755e-08
8.9043e-10
1.04888e-06
1.01238e-08
1.69801e-09
1.04867e-06
1.0439e-08
6.27143e-10
1.04973e-06
1.10122e-08
-6.00674e-10
1.05128e-06
1.17926e-08
-1.01596e-09
1.05278e-06
1.2693e-08
-8.86106e-10
1.0541e-06
1.36463e-08
-6.45361e-10
1.05528e-06
1.46232e-08
-4.6616e-10
1.05639e-06
1.56182e-08
-3.59956e-10
1.0575e-06
1.66316e-08
-3.12903e-10
1.05865e-06
1.76604e-08
-2.90381e-10
1.05991e-06
1.86933e-08
-3.13287e-10
1.06126e-06
1.97175e-08
-3.04662e-10
1.06275e-06
2.07135e-08
-3.50219e-10
1.06437e-06
2.16714e-08
-3.69997e-10
1.0661e-06
2.2569e-08
-3.65489e-10
1.06804e-06
2.34001e-08
-4.49226e-10
1.07009e-06
2.41493e-08
-4.39282e-10
1.07228e-06
2.47979e-08
-4.47047e-10
1.07476e-06
2.53551e-08
-6.11534e-10
1.07746e-06
2.57601e-08
-6.63918e-10
1.08046e-06
2.60984e-08
-8.35996e-10
1.08377e-06
2.61102e-08
-7.77175e-10
1.08703e-06
2.62368e-08
-6.95459e-10
2.5426e-08
-8.90463e-10
1.09179e-06
1.02196e-06
1.23835e-08
-2.96312e-07
1.05846e-06
2.89143e-08
-3.83183e-08
1.05088e-06
3.73214e-08
7.01216e-09
1.04572e-06
3.78885e-08
5.58857e-09
1.04435e-06
3.12955e-08
2.39155e-09
1.0446e-06
2.26851e-08
9.54347e-10
1.04557e-06
1.60827e-08
1.47567e-10
1.04659e-06
1.2296e-08
-6.51864e-11
1.04755e-06
1.04986e-08
-2.04972e-10
1.04833e-06
9.79655e-09
-1.99742e-10
1.0482e-06
9.66078e-09
5.44204e-10
1.04753e-06
9.851e-09
9.39936e-10
1.04731e-06
1.02028e-08
4.60871e-10
1.04789e-06
1.0648e-08
-2.18484e-10
1.0491e-06
1.11909e-08
-6.05182e-10
1.05064e-06
1.18467e-08
-6.93595e-10
1.05229e-06
1.26199e-08
-6.25281e-10
1.05392e-06
1.34966e-08
-5.05112e-10
1.05548e-06
1.44454e-08
-3.87785e-10
1.05699e-06
1.54301e-08
-3.07802e-10
1.05848e-06
1.64216e-08
-2.54083e-10
1.06003e-06
1.74007e-08
-2.55396e-10
1.06163e-06
1.83513e-08
-2.3236e-10
1.06335e-06
1.92656e-08
-2.70356e-10
1.06518e-06
2.01235e-08
-2.84005e-10
1.06709e-06
2.09286e-08
-2.70786e-10
1.0692e-06
2.16478e-08
-3.58082e-10
1.07137e-06
2.2301e-08
-3.20767e-10
1.07366e-06
2.28525e-08
-3.4038e-10
1.07617e-06
2.33175e-08
-4.78811e-10
1.07872e-06
2.36822e-08
-4.75042e-10
1.08156e-06
2.39794e-08
-7.188e-10
1.08398e-06
2.41452e-08
-4.51429e-10
1.08633e-06
2.43712e-08
-4.88237e-10
2.44457e-08
-3.06036e-09
1.09037e-06
1.00313e-06
1.51339e-08
-2.92253e-07
1.03413e-06
3.32254e-08
-3.53167e-08
1.02111e-06
4.11413e-08
9.20686e-09
1.01194e-06
4.02078e-08
6.8499e-09
1.00854e-06
3.19086e-08
2.78318e-09
1.00817e-06
2.22342e-08
8.18482e-10
1.00929e-06
1.52465e-08
-2.81848e-10
1.01045e-06
1.14459e-08
-3.07307e-10
1.01181e-06
9.72928e-09
-5.9177e-10
1.01326e-06
9.0871e-09
-7.45769e-10
1.01322e-06
8.99455e-09
7.13894e-10
1.01257e-06
9.21203e-09
1.28147e-09
1.01291e-06
9.56454e-09
2.98589e-10
1.01424e-06
9.96829e-09
-6.43302e-10
1.01587e-06
1.04374e-08
-8.76875e-10
1.01741e-06
1.10209e-08
-7.14469e-10
1.01879e-06
1.17414e-08
-5.05683e-10
1.02007e-06
1.2573e-08
-3.58997e-10
1.02133e-06
1.34645e-08
-2.71371e-10
1.02262e-06
1.43708e-08
-2.32619e-10
1.02399e-06
1.52658e-08
-2.13582e-10
1.02549e-06
1.61368e-08
-2.34253e-10
1.02708e-06
1.69752e-08
-2.2169e-10
1.02884e-06
1.77733e-08
-2.61881e-10
1.03071e-06
1.85195e-08
-2.68078e-10
1.0327e-06
1.92068e-08
-2.65852e-10
1.03484e-06
1.98196e-08
-3.10059e-10
1.03713e-06
2.03568e-08
-3.53009e-10
1.03943e-06
2.08013e-08
-2.46579e-10
1.04213e-06
2.11497e-08
-5.3433e-10
1.04489e-06
2.13878e-08
-4.61727e-10
1.04801e-06
2.15254e-08
-6.62577e-10
1.05129e-06
2.14844e-08
-6.19326e-10
1.05485e-06
2.13858e-08
-5.74677e-10
2.09723e-08
-1.3876e-09
1.05971e-06
9.85653e-07
1.85627e-08
-2.83412e-07
1.01783e-06
3.72306e-08
-3.61805e-08
1.00788e-06
4.35257e-08
7.56161e-09
1.00142e-06
4.04016e-08
6.265e-09
1.00021e-06
3.03665e-08
2.76106e-09
1.00151e-06
2.00783e-08
8.50542e-10
1.00372e-06
1.32757e-08
-2.38952e-10
1.00556e-06
9.91838e-09
-3.09506e-10
1.00719e-06
8.59749e-09
-5.0565e-10
1.00858e-06
8.22381e-09
-5.2175e-10
1.00852e-06
8.29711e-09
7.60579e-10
1.00791e-06
8.60735e-09
1.20812e-09
1.0082e-06
8.98358e-09
2.89913e-10
1.00945e-06
9.34679e-09
-6.22321e-10
1.01108e-06
9.72369e-09
-9.14621e-10
1.01272e-06
1.01861e-08
-8.12776e-10
1.0143e-06
1.07819e-08
-6.16872e-10
1.01582e-06
1.1502e-08
-4.47457e-10
1.01731e-06
1.22997e-08
-3.27133e-10
1.01882e-06
1.3126e-08
-2.6025e-10
1.02036e-06
1.39485e-08
-2.22037e-10
1.02198e-06
1.47477e-08
-2.31425e-10
1.02365e-06
1.55131e-08
-2.13589e-10
1.02545e-06
1.6231e-08
-2.53007e-10
1.02732e-06
1.68991e-08
-2.57154e-10
1.0293e-06
1.74963e-08
-2.60971e-10
1.03137e-06
1.80343e-08
-2.90856e-10
1.0336e-06
1.84836e-08
-3.57596e-10
1.03574e-06
1.88659e-08
-1.97536e-10
1.03826e-06
1.9159e-08
-5.31614e-10
1.04063e-06
1.93778e-08
-3.64536e-10
1.0432e-06
1.95333e-08
-5.75306e-10
1.04549e-06
1.96385e-08
-4.4026e-10
1.0475e-06
1.96858e-08
-3.16895e-10
1.98761e-08
-3.13164e-09
1.05173e-06
9.62649e-07
2.39001e-08
-2.73067e-07
9.88792e-07
4.38245e-08
-3.27362e-08
9.73772e-07
4.88127e-08
9.73289e-09
9.63685e-07
4.29923e-08
7.49637e-09
9.60666e-07
3.03722e-08
3.013e-09
9.61392e-07
1.88226e-08
5.29355e-10
9.6356e-07
1.18284e-08
-7.20042e-10
9.65497e-07
8.70282e-09
-7.21612e-10
9.67356e-07
7.6151e-09
-8.76745e-10
9.69057e-07
7.35271e-09
-8.29684e-10
9.69399e-07
7.45533e-09
4.99439e-10
9.69396e-07
7.77137e-09
8.38985e-10
9.70267e-07
8.1475e-09
-3.52245e-11
9.71817e-07
8.49897e-09
-7.01859e-10
9.73448e-07
8.85659e-09
-7.64064e-10
9.74906e-07
9.30054e-09
-5.72169e-10
9.76213e-07
9.87246e-09
-3.97412e-10
9.77458e-07
1.05479e-08
-2.90431e-10
9.78717e-07
1.12723e-08
-2.3215e-10
9.80053e-07
1.20016e-08
-2.11421e-10
9.8149e-07
1.27139e-08
-2.02764e-10
9.83066e-07
1.3399e-08
-2.26853e-10
9.84741e-07
1.40516e-08
-2.14055e-10
9.86566e-07
1.46616e-08
-2.55639e-10
9.88494e-07
1.52252e-08
-2.53504e-10
9.90512e-07
1.57262e-08
-2.4857e-10
9.92681e-07
1.61675e-08
-3.01897e-10
9.94936e-07
1.65321e-08
-3.02981e-10
9.97238e-07
1.68219e-08
-2.58778e-10
9.99821e-07
1.70292e-08
-4.52949e-10
1.00252e-06
1.71403e-08
-4.62698e-10
1.0055e-06
1.71712e-08
-6.12856e-10
1.00858e-06
1.7052e-08
-4.97809e-10
1.01199e-06
1.68695e-08
-5.89138e-10
1.63935e-08
-1.4103e-09
1.01688e-06
8.24913e-07
2.93991e-08
-2.33833e-07
8.49014e-07
4.90637e-08
-2.93399e-08
8.39165e-07
5.14867e-08
7.17464e-09
8.33553e-07
4.25533e-08
6.05066e-09
8.33561e-07
2.78386e-08
2.52542e-09
8.36085e-07
1.59003e-08
3.9842e-10
8.39134e-07
9.4528e-09
-6.73148e-10
8.41385e-07
7.02141e-09
-5.69664e-10
8.43256e-07
6.435e-09
-6.91127e-10
8.44764e-07
6.45353e-09
-6.08676e-10
8.44762e-07
6.7018e-09
7.56081e-10
8.44382e-07
7.09108e-09
1.06024e-09
8.44949e-07
7.50104e-09
7.92116e-11
8.46319e-07
7.85193e-09
-7.23427e-10
8.47905e-07
8.16442e-09
-8.93478e-10
8.49419e-07
8.52379e-09
-7.37431e-10
8.50834e-07
8.99216e-09
-5.34085e-10
8.5219e-07
9.56483e-09
-3.72945e-10
8.53529e-07
1.01981e-08
-2.65047e-10
8.5489e-07
1.08497e-08
-2.09228e-10
8.56291e-07
1.14945e-08
-1.81226e-10
8.57765e-07
1.21179e-08
-1.93198e-10
8.59286e-07
1.27098e-08
-1.79188e-10
8.60905e-07
1.32596e-08
-2.17145e-10
8.62586e-07
1.37602e-08
-2.16136e-10
8.64326e-07
1.42022e-08
-2.16081e-10
8.66174e-07
1.45804e-08
-2.60719e-10
8.68073e-07
1.48952e-08
-2.62566e-10
8.69979e-07
1.51344e-08
-2.18446e-10
8.72071e-07
1.53101e-08
-3.72605e-10
8.74161e-07
1.54191e-08
-3.68469e-10
8.76323e-07
1.54632e-08
-4.54608e-10
8.78164e-07
1.54937e-08
-2.8223e-10
8.79902e-07
1.54514e-08
-3.20102e-10
1.56246e-08
-2.7842e-09
8.83455e-07
7.7172e-07
3.7675e-08
-2.12868e-07
7.88818e-07
5.66626e-08
-2.46967e-08
7.74787e-07
5.6488e-08
9.0295e-09
7.6648e-07
4.3948e-08
6.91289e-09
7.65276e-07
2.6635e-08
2.40746e-09
7.67391e-07
1.39828e-08
-1.97594e-10
7.7022e-07
7.84921e-09
-1.22601e-09
7.72393e-07
5.89341e-09
-1.04507e-09
7.74206e-07
5.5909e-09
-9.68165e-10
7.75704e-07
5.68813e-09
-7.3261e-10
7.76228e-07
5.896e-09
2.81616e-10
7.76686e-07
6.23135e-09
4.01912e-10
7.77811e-07
6.62715e-09
-2.51503e-10
7.79268e-07
7.0124e-09
-6.17687e-10
7.80593e-07
7.38478e-09
-5.44781e-10
7.81687e-07
7.78769e-09
-3.58209e-10
7.82666e-07
8.25103e-09
-2.37347e-10
7.83649e-07
8.76619e-09
-1.85211e-10
7.84708e-07
9.30699e-09
-1.67643e-10
7.85874e-07
9.85252e-09
-1.68875e-10
7.87148e-07
1.03916e-08
-1.70665e-10
7.88542e-07
1.09153e-08
-1.91205e-10
7.90014e-07
1.14152e-08
-1.78139e-10
7.91606e-07
1.188e-08
-2.11903e-10
7.93265e-07
1.23031e-08
-2.02054e-10
7.94994e-07
1.26725e-08
-1.9901e-10
7.96827e-07
1.29881e-08
-2.40471e-10
7.98719e-07
1.32397e-08
-2.36792e-10
8.00604e-07
1.34284e-08
-1.78703e-10
8.0276e-07
1.35472e-08
-3.93446e-10
8.04904e-07
1.35951e-08
-3.20001e-10
8.07295e-07
1.35696e-08
-4.97115e-10
8.09736e-07
1.34379e-08
-3.85804e-10
8.12327e-07
1.32281e-08
-3.66901e-10
1.2781e-08
-1.32246e-09
8.16493e-07
7.21475e-07
4.67346e-08
-2.01932e-07
7.38917e-07
6.2939e-08
-2.37189e-08
7.28987e-07
5.85652e-08
7.85311e-09
7.24851e-07
4.18949e-08
6.18856e-09
7.26877e-07
2.26188e-08
1.99036e-09
7.30987e-07
1.02874e-08
-4.13971e-10
7.34854e-07
5.26632e-09
-1.28456e-09
7.37366e-07
4.25606e-09
-8.75072e-10
7.39328e-07
4.49081e-09
-8.6125e-10
7.40833e-07
4.82013e-09
-6.37299e-10
7.40827e-07
5.11814e-09
7.83984e-10
7.40656e-07
5.49244e-09
9.09945e-10
7.41481e-07
5.9304e-09
-1.28067e-10
7.42947e-07
6.35326e-09
-8.06989e-10
7.44461e-07
6.71746e-09
-8.46318e-10
7.45828e-07
7.05462e-09
-6.3396e-10
7.4709e-07
7.41652e-09
-4.28295e-10
7.4832e-07
7.82423e-09
-2.87815e-10
7.49562e-07
8.2711e-09
-2.05796e-10
7.50843e-07
8.74166e-09
-1.70317e-10
7.5217e-07
9.22032e-09
-1.55505e-10
7.53564e-07
9.69126e-09
-1.70108e-10
7.54997e-07
1.01405e-08
-1.58478e-10
7.56517e-07
1.05549e-08
-1.94548e-10
7.5808e-07
1.09273e-08
-1.87451e-10
7.59694e-07
1.12476e-08
-1.89825e-10
7.61394e-07
1.15167e-08
-2.28606e-10
7.63135e-07
1.17268e-08
-2.27548e-10
7.64853e-07
1.18812e-08
-1.70639e-10
7.66781e-07
1.19774e-08
-3.58872e-10
7.68652e-07
1.20242e-08
-2.99394e-10
7.706e-07
1.202e-08
-3.98677e-10
7.72274e-07
1.20215e-08
-2.57325e-10
7.73742e-07
1.19372e-08
-1.77794e-10
1.21616e-08
-2.67128e-09
7.77033e-07
6.69612e-07
6.00535e-08
-1.79409e-07
6.79833e-07
7.13674e-08
-1.86493e-08
6.66282e-07
6.23343e-08
9.78247e-09
6.60182e-07
4.10967e-08
6.89795e-09
6.61494e-07
1.97427e-08
1.56437e-09
6.65324e-07
7.68928e-09
-1.23238e-09
6.68852e-07
3.62652e-09
-1.88812e-09
6.71173e-07
3.2961e-09
-1.36055e-09
6.72916e-07
3.79856e-09
-1.05104e-09
6.74267e-07
4.13002e-09
-6.61088e-10
6.74877e-07
4.30205e-09
2.06273e-10
6.75639e-07
4.57288e-09
1.56952e-10
6.76984e-07
5.00645e-09
-4.20919e-10
6.78426e-07
5.52148e-09
-6.09918e-10
6.7956e-07
6.00685e-09
-4.23113e-10
6.80416e-07
6.41337e-09
-2.15094e-10
6.81199e-07
6.759e-09
-1.25738e-10
6.82058e-07
7.08443e-09
-1.19077e-10
6.83046e-07
7.42139e-09
-1.38319e-10
6.84165e-07
7.78203e-09
-1.5928e-10
6.85393e-07
8.16126e-09
-1.68282e-10
6.86725e-07
8.54402e-09
-1.85476e-10
6.88122e-07
8.91442e-09
-1.7058e-10
6.89619e-07
9.25792e-09
-2.00272e-10
6.91163e-07
9.5666e-09
-1.83205e-10
6.92765e-07
9.8298e-09
-1.84241e-10
6.94455e-07
1.00494e-08
-2.22808e-10
6.96171e-07
1.02139e-08
-2.02459e-10
6.97884e-07
1.03313e-08
-1.63742e-10
6.99833e-07
1.03889e-08
-3.60523e-10
7.01756e-07
1.03966e-08
-2.95551e-10
7.03878e-07
1.03406e-08
-4.41703e-10
7.05993e-07
1.0213e-08
-3.07264e-10
7.08278e-07
9.98671e-09
-3.34656e-10
9.59265e-09
-1.18587e-09
7.12033e-07
6.19471e-07
7.4691e-08
-1.69808e-07
6.30499e-07
7.71065e-08
-1.67675e-08
6.22392e-07
6.16676e-08
8.77454e-09
6.21774e-07
3.59759e-08
5.73784e-09
6.26971e-07
1.39299e-08
6.16092e-10
6.32834e-07
3.50098e-09
-1.67435e-09
6.37217e-07
1.18602e-09
-1.94304e-09
6.39699e-07
1.92632e-09
-1.11214e-09
6.41533e-07
2.88936e-09
-9.2446e-10
6.4288e-07
3.35397e-09
-5.71044e-10
6.42863e-07
3.5637e-09
7.55164e-10
6.4287e-07
3.87419e-09
6.91548e-10
6.43799e-07
4.36492e-09
-2.87435e-10
6.45192e-07
4.91092e-09
-7.82489e-10
6.4655e-07
5.3626e-09
-7.13455e-10
6.47776e-07
5.68091e-09
-4.93097e-10
6.4894e-07
5.91897e-09
-3.23986e-10
6.50103e-07
6.14706e-09
-2.25582e-10
6.51291e-07
6.40924e-09
-1.76064e-10
6.52516e-07
6.7155e-09
-1.58579e-10
6.53777e-07
7.05144e-09
-1.51712e-10
6.55092e-07
7.39429e-09
-1.64748e-10
6.56435e-07
7.72394e-09
-1.5281e-10
6.57853e-07
8.02555e-09
-1.85126e-10
6.59299e-07
8.29229e-09
-1.71572e-10
6.6079e-07
8.51568e-09
-1.7711e-10
6.62355e-07
8.69808e-09
-2.13609e-10
6.63935e-07
8.83049e-09
-1.96802e-10
6.65502e-07
8.9219e-09
-1.57373e-10
6.67268e-07
8.96271e-09
-3.40116e-10
6.68971e-07
8.97131e-09
-2.77315e-10
6.70742e-07
8.93359e-09
-3.64438e-10
6.72252e-07
8.91866e-09
-2.1537e-10
6.73563e-07
8.80457e-09
-1.28601e-10
9.06498e-09
-2.48686e-09
6.76577e-07
5.67031e-07
9.48568e-08
-1.47572e-07
5.71021e-07
8.38581e-08
-1.0742e-08
5.60476e-07
6.13394e-08
1.08739e-08
5.58943e-07
3.133e-08
6.17814e-09
5.63866e-07
9.19467e-09
-1.8744e-10
5.69382e-07
6.51878e-10
-2.66727e-09
5.73213e-07
-9.23376e-11
-2.55211e-09
5.75317e-07
1.33239e-09
-1.5102e-09
5.76831e-07
2.41311e-09
-1.03721e-09
5.77986e-07
2.75104e-09
-5.52746e-10
5.78493e-07
2.7718e-09
2.8552e-10
5.79324e-07
2.98747e-09
5.52316e-11
5.80723e-07
3.5163e-09
-5.49896e-10
5.82077e-07
4.17563e-09
-6.18887e-10
5.83041e-07
4.72687e-09
-3.28869e-10
5.83751e-07
5.07251e-09
-1.01221e-10
5.84454e-07
5.26342e-09
-4.73474e-11
5.85284e-07
5.40262e-09
-8.6048e-11
5.86262e-07
5.56713e-09
-1.35549e-10
5.87361e-07
5.78347e-09
-1.67037e-10
5.88549e-07
6.03946e-09
-1.75485e-10
5.89817e-07
6.3108e-09
-1.84802e-10
5.91132e-07
6.57546e-09
-1.66865e-10
5.92531e-07
6.8185e-09
-1.91922e-10
5.93959e-07
7.03333e-09
-1.68695e-10
5.95439e-07
7.21129e-09
-1.75798e-10
5.96992e-07
7.35511e-09
-2.10088e-10
5.98543e-07
7.45375e-09
-1.74362e-10
6.00104e-07
7.51833e-09
-1.57277e-10
6.01881e-07
7.53362e-09
-3.47367e-10
6.03614e-07
7.51769e-09
-2.79602e-10
6.05503e-07
7.44621e-09
-4.01912e-10
6.07343e-07
7.32212e-09
-2.43367e-10
6.0933e-07
7.09635e-09
-2.79187e-10
6.74717e-09
-1.04051e-09
6.12689e-07
5.15612e-07
1.17268e-07
-1.35237e-07
5.21524e-07
8.55313e-08
-7.58503e-09
5.18779e-07
5.47769e-08
9.30774e-09
5.24211e-07
2.19335e-08
3.96397e-09
5.33352e-07
1.9187e-09
-1.86504e-09
5.4062e-07
-3.35355e-09
-3.26265e-09
5.44953e-07
-1.94479e-09
-2.47995e-09
5.47055e-07
4.14126e-10
-1.18441e-09
5.48579e-07
1.74046e-09
-8.50909e-10
5.49715e-07
2.06533e-09
-4.50675e-10
5.49706e-07
2.13696e-09
6.44154e-10
5.49747e-07
2.49364e-09
4.5333e-10
5.5051e-07
3.08089e-09
-3.27906e-10
5.5166e-07
3.64332e-09
-6.18261e-10
5.5288e-07
4.02422e-09
-5.17146e-10
5.54091e-07
4.22638e-09
-3.6437e-10
5.55286e-07
4.33237e-09
-2.64275e-10
5.56466e-07
4.42942e-09
-2.06449e-10
5.57638e-07
4.57096e-09
-1.75811e-10
5.58817e-07
4.76856e-09
-1.64229e-10
5.60013e-07
5.00119e-09
-1.57607e-10
5.61245e-07
5.24367e-09
-1.65236e-10
5.62498e-07
5.47407e-09
-1.51406e-10
5.63815e-07
5.68088e-09
-1.7913e-10
5.65147e-07
5.86035e-09
-1.59525e-10
5.66523e-07
6.00515e-09
-1.69891e-10
5.67962e-07
6.11849e-09
-2.02182e-10
5.69392e-07
6.19248e-09
-1.69125e-10
5.70828e-07
6.23581e-09
-1.53178e-10
5.72455e-07
6.23819e-09
-3.3153e-10
5.74017e-07
6.22655e-09
-2.71074e-10
5.7564e-07
6.16496e-09
-3.41497e-10
5.77014e-07
6.12709e-09
-1.7867e-10
5.78242e-07
5.97175e-09
-1.04166e-10
6.20616e-09
-2.24549e-09
5.81029e-07
4.5976e-07
1.45118e-07
-1.15483e-07
4.59802e-07
8.52591e-08
2.29856e-10
4.56692e-07
4.63571e-08
1.15297e-08
4.62353e-07
1.23512e-08
3.92116e-09
4.7133e-07
-3.99614e-09
-3.06223e-09
4.77873e-07
-5.60807e-09
-4.28776e-09
4.81346e-07
-2.4461e-09
-2.97184e-09
4.82883e-07
2.70808e-10
-1.39435e-09
4.84083e-07
1.45253e-09
-9.11112e-10
4.85026e-07
1.50288e-09
-3.81352e-10
4.85301e-07
1.37402e-09
4.87869e-10
4.86035e-07
1.74262e-09
1.72352e-11
4.87321e-07
2.4611e-09
-6.66376e-10
4.88487e-07
3.09528e-09
-6.17509e-10
4.89308e-07
3.43807e-09
-2.35116e-10
4.89997e-07
3.5533e-09
-1.54782e-11
4.90763e-07
3.5807e-09
-1.42426e-11
4.91666e-07
3.61989e-09
-9.34291e-11
4.9268e-07
3.71293e-09
-1.56101e-10
4.93769e-07
3.86142e-09
-1.81973e-10
4.94911e-07
4.04007e-09
-1.80806e-10
4.96106e-07
4.22825e-09
-1.80133e-10
4.97335e-07
4.40522e-09
-1.6014e-10
4.98633e-07
4.56417e-09
-1.81473e-10
4.99946e-07
4.70185e-09
-1.53697e-10
5.01309e-07
4.81126e-09
-1.69747e-10
5.02731e-07
4.89272e-09
-1.95787e-10
5.04124e-07
4.9452e-09
-1.45608e-10
5.05555e-07
4.96411e-09
-1.59325e-10
5.07177e-07
4.95258e-09
-3.36746e-10
5.08755e-07
4.9331e-09
-2.84106e-10
5.1042e-07
4.8582e-09
-3.58878e-10
5.12001e-07
4.71422e-09
-1.67567e-10
5.13679e-07
4.53504e-09
-2.41951e-10
3.95403e-09
-5.67045e-10
5.16499e-07
4.05415e-07
1.76149e-07
-9.38797e-08
4.10049e-07
7.64691e-08
4.15642e-09
4.18387e-07
3.06704e-08
7.34867e-09
4.32095e-07
-9.74751e-10
-3.82492e-10
4.44791e-07
-1.11172e-08
-5.57461e-09
4.52305e-07
-8.2175e-09
-4.90416e-09
4.55783e-07
-3.22253e-09
-2.70144e-09
4.57196e-07
-1.18494e-10
-1.02379e-09
4.58305e-07
9.52704e-10
-6.09576e-10
4.59314e-07
8.17795e-10
-3.2385e-10
4.59352e-07
9.50174e-10
3.85952e-10
4.59053e-07
1.76348e-09
2.77885e-10
4.5918e-07
2.45352e-09
-1.19211e-10
4.59968e-07
2.60344e-09
-2.95894e-10
4.61281e-07
2.46819e-09
-3.43682e-10
4.62791e-07
2.38244e-09
-3.38376e-10
4.64222e-07
2.43404e-09
-2.84813e-10
4.65492e-07
2.56901e-09
-2.19278e-10
4.66648e-07
2.73357e-09
-1.76772e-10
4.67762e-07
2.90827e-09
-1.60188e-10
4.68877e-07
3.07667e-09
-1.52001e-10
4.70021e-07
3.23967e-09
-1.55094e-10
4.71184e-07
3.38136e-09
-1.39271e-10
4.72403e-07
3.50768e-09
-1.62848e-10
4.73628e-07
3.61432e-09
-1.37169e-10
4.74898e-07
3.69603e-09
-1.54784e-10
4.76221e-07
3.74857e-09
-1.78583e-10
4.77502e-07
3.79128e-09
-1.2763e-10
4.78839e-07
3.77764e-09
-1.50229e-10
4.80334e-07
3.76051e-09
-3.02718e-10
4.81811e-07
3.76204e-09
-3.06213e-10
4.8327e-07
3.68841e-09
-2.89138e-10
4.84536e-07
3.61049e-09
-1.62451e-10
4.85823e-07
3.38208e-09
-1.33509e-10
3.07589e-09
-1.81127e-09
4.88512e-07
3.41832e-07
2.04852e-07
-7.64767e-08
3.44957e-07
5.71859e-08
1.61589e-08
3.55757e-07
1.05041e-08
9.36612e-09
3.68663e-07
-1.18845e-08
-1.99586e-09
3.79103e-07
-1.34838e-08
-8.07428e-09
3.84527e-07
-7.4038e-09
-6.23777e-09
3.86739e-07
-2.43019e-09
-3.0043e-09
3.87509e-07
6.1501e-11
-9.49278e-10
3.88344e-07
7.37522e-10
-6.20225e-10
3.8906e-07
2.18959e-10
-1.16804e-10
3.89191e-07
2.44393e-10
5.74878e-10
3.89851e-07
1.36874e-09
-2.6509e-10
3.90832e-07
2.29284e-09
-8.2098e-10
3.91596e-07
2.26039e-09
-4.21037e-10
3.92242e-07
1.75105e-09
7.18127e-11
3.93027e-07
1.42162e-09
1.75732e-10
3.9399e-07
1.42585e-09
4.52692e-11
3.95039e-07
1.60351e-09
-8.34199e-11
3.96106e-07
1.80229e-09
-1.35948e-10
3.97178e-07
1.97316e-09
-1.36811e-10
3.98268e-07
2.10673e-09
-1.20602e-10
3.99392e-07
2.22696e-09
-1.11115e-10
4.00546e-07
2.32015e-09
-9.31921e-11
4.01756e-07
2.40632e-09
-1.08498e-10
4.02972e-07
2.48066e-09
-8.1704e-11
4.04244e-07
2.52588e-09
-1.01762e-10
4.05546e-07
2.56185e-09
-1.15476e-10
4.06801e-07
2.58699e-09
-5.13691e-11
4.08128e-07
2.54328e-09
-9.26455e-11
4.09677e-07
2.51779e-09
-3.05833e-10
4.11069e-07
2.55574e-09
-1.85315e-10
4.12668e-07
2.45242e-09
-3.63395e-10
4.13615e-07
2.60037e-09
6.26236e-11
4.15246e-07
1.90409e-09
-1.52366e-10
3.21123e-09
-2.70281e-09
4.17813e-07
2.69437e-07
2.33301e-07
-2.67713e-08
2.63686e-07
4.34685e-08
1.94686e-08
2.72306e-07
-6.49339e-10
2.53407e-09
2.83011e-07
-1.65694e-08
-6.02044e-09
2.92175e-07
-1.27434e-08
-9.90419e-09
2.96496e-07
-5.20614e-09
-6.51919e-09
2.97834e-07
-1.06302e-09
-2.70455e-09
2.98353e-07
1.84072e-10
-6.42443e-10
2.98714e-07
5.037e-10
-1.26937e-10
2.99086e-07
-3.71605e-10
2.18689e-10
3.00946e-07
-1.60604e-09
-9.31859e-12
3.04137e-07
-6.50164e-10
-1.17216e-09
3.05966e-07
1.52291e-09
-1.05875e-09
3.05582e-07
2.64162e-09
2.50203e-12
3.04412e-07
2.33924e-09
5.82189e-10
3.0383e-07
1.54985e-09
4.53507e-10
3.04111e-07
1.03015e-09
1.14056e-10
3.04918e-07
9.0032e-10
-1.03278e-10
3.05918e-07
9.7314e-10
-1.7112e-10
3.06968e-07
1.08801e-09
-1.6426e-10
3.08041e-07
1.18059e-09
-1.47438e-10
3.09149e-07
1.25325e-09
-1.33658e-10
3.10287e-07
1.30751e-09
-1.25783e-10
3.11482e-07
1.35412e-09
-1.42579e-10
3.12677e-07
1.39709e-09
-1.12203e-10
3.13935e-07
1.41714e-09
-1.48567e-10
3.15217e-07
1.44192e-09
-1.6182e-10
3.16392e-07
1.4526e-09
-4.11661e-11
3.1768e-07
1.37779e-09
-1.22526e-10
3.19231e-07
1.29549e-09
-3.28892e-10
3.20849e-07
1.31188e-09
-3.74333e-10
3.22448e-07
1.28173e-09
-4.28079e-10
3.23699e-07
1.45302e-09
-1.03142e-10
3.24925e-07
8.54165e-10
-1.75933e-10
1.40699e-09
6.6326e-10
3.26066e-07
1.91454e-07
2.26936e-07
4.88929e-08
2.16235e-07
4.59642e-08
-2.72765e-08
2.47743e-07
-8.65736e-09
-2.34997e-08
2.64365e-07
-2.45614e-08
-8.63035e-09
2.72126e-07
-1.56575e-08
-4.84622e-09
2.74699e-07
-4.46128e-09
-3.31815e-09
2.75533e-07
5.19515e-10
-2.41683e-09
2.75938e-07
9.53409e-10
-1.17375e-09
2.76676e-07
6.02745e-10
-8.37934e-10
2.77418e-07
-7.71776e-10
-3.41062e-10
2.77154e-07
-2.23999e-09
8.97742e-10
2.76597e-07
-6.69258e-10
5.75744e-10
2.76672e-07
1.87108e-09
-4.23409e-10
2.77477e-07
2.53194e-09
-6.95202e-10
2.78738e-07
1.60163e-09
-5.23048e-10
2.80066e-07
5.50886e-10
-3.29352e-10
2.81245e-07
9.75325e-11
-2.45928e-10
2.82274e-07
1.02632e-10
-2.31407e-10
2.83238e-07
2.3667e-10
-2.27841e-10
2.84202e-07
3.38377e-10
-2.13726e-10
2.85191e-07
3.92685e-10
-2.01915e-10
2.86215e-07
4.20984e-10
-1.9146e-10
2.87265e-07
4.46763e-10
-1.89488e-10
2.88363e-07
4.60438e-10
-2.0373e-10
2.89461e-07
4.81548e-10
-1.82614e-10
2.90612e-07
4.86457e-10
-2.20012e-10
2.91789e-07
4.9235e-10
-2.2749e-10
2.92879e-07
5.03244e-10
-1.40666e-10
2.94083e-07
4.11693e-10
-2.38214e-10
2.95461e-07
2.61335e-10
-3.441e-10
2.96976e-07
1.87853e-10
-3.90839e-10
2.98352e-07
2.67875e-10
-3.61962e-10
2.99786e-07
2.12267e-10
-1.93257e-10
3.0144e-07
-1.37237e-10
-6.62495e-10
-2.32207e-09
9.27234e-10
3.04242e-07
2.03444e-07
2.34921e-08
2.88032e-07
-3.86232e-08
3.46312e-07
-6.69373e-08
3.63561e-07
-4.18107e-08
3.67704e-07
-1.98009e-08
3.70159e-07
-6.91616e-09
3.72139e-07
-1.46056e-09
3.7318e-07
-8.75721e-11
3.7489e-07
-1.1074e-09
3.74188e-07
-6.96568e-11
3.70003e-07
1.94525e-09
3.68694e-07
6.39518e-10
3.71554e-07
-9.88749e-10
3.75642e-07
-1.55583e-09
3.78579e-07
-1.33526e-09
3.80028e-07
-8.98569e-10
3.8068e-07
-5.54239e-10
3.81134e-07
-3.51719e-10
3.81621e-07
-2.49783e-10
3.82163e-07
-2.03936e-10
3.82746e-07
-1.90301e-10
3.83356e-07
-1.88426e-10
3.84005e-07
-2.02607e-10
3.84659e-07
-1.93464e-10
3.85391e-07
-2.51089e-10
3.86068e-07
-1.89807e-10
3.86778e-07
-2.17411e-10
3.87647e-07
-3.66259e-10
3.8826e-07
-2.01373e-10
3.88522e-07
-1.04492e-12
3.88697e-07
1.35021e-11
3.89317e-07
-3.52306e-10
3.89991e-07
-4.61404e-10
3.90709e-07
-8.55585e-10
-2.72062e-09
3.91108e-07
2.19614e-06
6.73077e-09
-4.12843e-07
-6.18741e-09
2.22098e-06
2.66478e-08
-6.7575e-08
-2.39364e-08
2.21618e-06
4.61847e-08
9.88405e-09
-4.18157e-08
2.20669e-06
5.78435e-08
1.17306e-08
-5.32275e-08
2.20053e-06
5.69399e-08
5.32757e-09
-5.34826e-08
2.1978e-06
4.77995e-08
1.90699e-09
-4.59384e-08
2.19721e-06
3.75392e-08
1.979e-10
-3.69061e-08
2.19734e-06
2.99626e-08
1.32935e-10
-2.99584e-08
2.1977e-06
2.53843e-08
-1.93552e-10
-2.56168e-08
2.19846e-06
2.28494e-08
-9.68649e-10
-2.31845e-08
2.19861e-06
2.15745e-08
1.12241e-09
-2.19218e-08
2.19778e-06
2.11344e-08
3.22873e-09
-2.14732e-08
2.19698e-06
2.13039e-08
2.25896e-09
-2.16663e-08
2.19703e-06
2.20018e-08
-5.86543e-12
-2.2411e-08
2.19784e-06
2.3165e-08
-1.33701e-09
-2.36261e-08
2.19893e-06
2.46772e-08
-1.4899e-09
-2.51822e-08
2.19997e-06
2.64106e-08
-1.10243e-09
-2.69529e-08
2.20086e-06
2.82753e-08
-6.5421e-10
-2.88672e-08
2.20165e-06
3.0226e-08
-3.10622e-10
-3.08985e-08
2.20242e-06
3.22512e-08
-1.00483e-10
-3.3041e-08
2.20325e-06
3.43441e-08
2.99942e-11
-3.52785e-08
2.2042e-06
3.64999e-08
6.43005e-11
-3.7599e-08
2.20528e-06
3.86928e-08
1.19231e-10
-3.99693e-08
2.20653e-06
4.09071e-08
1.16058e-10
-4.23751e-08
2.20797e-06
4.30942e-08
1.12499e-10
-4.4768e-08
2.20958e-06
4.52573e-08
1.65536e-10
-4.71548e-08
2.2114e-06
4.73189e-08
1.22887e-10
-4.9453e-08
2.21346e-06
4.9314e-08
1.5165e-10
-5.17049e-08
2.21575e-06
5.11483e-08
1.91288e-10
-5.381e-08
2.21829e-06
5.28828e-08
9.08206e-11
-5.58319e-08
2.22115e-06
5.43496e-08
-6.33092e-11
-5.76011e-08
2.22427e-06
5.57839e-08
-8.3693e-11
-5.93296e-08
2.22775e-06
5.65459e-08
-1.56615e-10
-6.04546e-08
2.23134e-06
5.78376e-08
4.09525e-11
-6.1952e-08
5.70892e-08
-4.15035e-10
2.23558e-06
-6.165e-08
2.18409e-06
7.97327e-09
-4.03744e-07
2.20997e-06
2.80088e-08
-6.74028e-08
2.20794e-06
4.69584e-08
9.31892e-09
2.20161e-06
5.84827e-08
1.16108e-08
2.1976e-06
5.77315e-08
5.39985e-09
2.19584e-06
4.85568e-08
1.851e-09
2.19544e-06
3.80116e-08
1.66321e-10
2.19559e-06
3.00829e-08
-1.15473e-10
2.19596e-06
2.52656e-08
-2.67683e-10
2.19647e-06
2.2672e-08
-4.94019e-10
2.1965e-06
2.14492e-08
8.40177e-10
2.19588e-06
2.10839e-08
2.03433e-09
2.19526e-06
2.12645e-08
1.38625e-09
2.19527e-06
2.18456e-08
-5.66832e-11
2.19594e-06
2.27649e-08
-9.69833e-10
2.19704e-06
2.39727e-08
-1.15373e-09
2.19834e-06
2.54311e-08
-9.60896e-10
2.19968e-06
2.71089e-08
-6.91048e-10
2.20099e-06
2.89634e-08
-4.66022e-10