/*--------------------------------*- C++ -*----------------------------------*\
  =========                 |
  \\      /  F ield         | OpenFOAM: The Open Source CFD Toolbox
   \\    /   O peration     | Website:  https://openfoam.org
    \\  /    A nd           | Version:  6
     \\/     M anipulation  |
\*---------------------------------------------------------------------------*/
FoamFile
{
    version     2.0;
    format      ascii;
    class       volVectorField;
    location    "0.8";
    object      U;
}
// * * * * * * * * * * * * * * * * * * * * * * * * * * * * * * * * * * * * * //

dimensions      [0 1 -1 0 0 0 0];

internalField   nonuniform List<vector> 
63568
(
(0.101759 0.000222075 -0.000420812)
(0.110038 0.000721621 -4.4459e-05)
(0.109118 0.00111509 9.93836e-06)
(0.107868 0.0012868 3.832e-06)
(0.107291 0.0012023 7.14174e-07)
(0.107067 0.000992237 4.63695e-07)
(0.106977 0.000797669 2.43403e-07)
(0.107011 0.000671679 3.34748e-07)
(0.106965 0.00060574 5.07578e-08)
(0.107071 0.000579485 -2.00658e-07)
(0.107128 0.000578899 1.14737e-06)
(0.106941 0.000599453 1.81843e-06)
(0.106767 0.000640676 6.63629e-07)
(0.106772 0.000703656 -6.40579e-07)
(0.106892 0.00078702 -1.01305e-06)
(0.107029 0.000885591 -7.61658e-07)
(0.10714 0.000994093 -4.10471e-07)
(0.107225 0.0011102 -1.62119e-07)
(0.107295 0.00123429 -8.19535e-09)
(0.107361 0.00136822 8.35997e-08)
(0.107432 0.00151323 1.58262e-07)
(0.107508 0.00167041 1.81164e-07)
(0.107602 0.00183899 2.54993e-07)
(0.107698 0.00201912 2.65125e-07)
(0.107823 0.0022083 2.95103e-07)
(0.10795 0.00240815 4.11886e-07)
(0.108102 0.00261261 3.84293e-07)
(0.108274 0.00282703 4.58357e-07)
(0.108459 0.00304167 5.73693e-07)
(0.108665 0.00326486 5.51355e-07)
(0.108915 0.00347663 4.60016e-07)
(0.109182 0.00370567 6.27435e-07)
(0.109494 0.00386467 5.72132e-07)
(0.10979 0.00412251 1.06288e-06)
(0.110166 0.00405861 6.29465e-07)
(0.100719 0.000233999 -0.000410698)
(0.108906 0.000704761 -4.41031e-05)
(0.108308 0.00107148 9.1345e-06)
(0.107402 0.00125983 3.15168e-06)
(0.107046 0.00120348 2.21409e-07)
(0.106909 0.00100558 1.61045e-07)
(0.106847 0.000806207 1.57602e-07)
(0.106859 0.000670608 2.11921e-07)
(0.106846 0.000598629 5.94564e-08)
(0.106908 0.000571351 -3.06159e-08)
(0.106921 0.000575373 7.70403e-07)
(0.106793 0.000600641 1.17641e-06)
(0.106675 0.00064029 4.97166e-07)
(0.106669 0.000693549 -3.2986e-07)
(0.106753 0.000761238 -6.64027e-07)
(0.106872 0.000842942 -6.40188e-07)
(0.106999 0.000937756 -5.33263e-07)
(0.107122 0.00104475 -4.52323e-07)
(0.107238 0.00116291 -3.93629e-07)
(0.107349 0.00129142 -3.52964e-07)
(0.107459 0.00142963 -3.08568e-07)
(0.107569 0.00157712 -3.15009e-07)
(0.107692 0.00173326 -2.74129e-07)
(0.107814 0.00189753 -3.06068e-07)
(0.107966 0.00206869 -3.26564e-07)
(0.108112 0.00224635 -2.85213e-07)
(0.108295 0.00242794 -3.11242e-07)
(0.10847 0.00261398 -4.92926e-07)
(0.108705 0.00280034 -1.28323e-07)
(0.108872 0.00298845 -6.99727e-07)
(0.109219 0.00317173 -4.93156e-07)
(0.109371 0.00335831 -6.03367e-07)
(0.109847 0.00352296 -1.23751e-06)
(0.10984 0.00372233 -1.9849e-08)
(0.110579 0.00383013 -8.3319e-06)
(0.0996243 0.000289512 -0.000404287)
(0.107412 0.000776073 -4.35814e-05)
(0.1062 0.00112686 1.02108e-05)
(0.10465 0.00128539 5.05496e-06)
(0.103879 0.00120205 1.74389e-06)
(0.103607 0.000989501 8.8834e-07)
(0.103563 0.000786347 3.16704e-07)
(0.103636 0.000650542 1.9623e-07)
(0.103664 0.000579771 -2.66605e-08)
(0.103774 0.000555506 -1.29917e-07)
(0.10383 0.000559758 8.08347e-07)
(0.103772 0.000584004 1.10881e-06)
(0.10376 0.000623299 1.67302e-07)
(0.103855 0.00067503 -7.3886e-07)
(0.103993 0.000738406 -9.14659e-07)
(0.104111 0.000813233 -6.19944e-07)
(0.104193 0.000900191 -2.76178e-07)
(0.104256 0.00100009 -6.04266e-08)
(0.10432 0.00111258 3.34416e-08)
(0.104394 0.00123621 4.98809e-08)
(0.104485 0.00136936 5.47223e-08)
(0.104591 0.00151075 1.4259e-08)
(0.104718 0.0016598 4.53321e-08)
(0.10485 0.00181528 -2.67205e-09)
(0.105013 0.00197734 -5.48369e-09)
(0.105175 0.00214341 5.58755e-08)
(0.105367 0.00231437 -1.46302e-08)
(0.105565 0.00248673 -4.77738e-08)
(0.105796 0.0026611 1.71085e-07)
(0.106005 0.00283497 -2.31652e-07)
(0.106321 0.0030094 -5.22249e-08)
(0.106534 0.00317995 -3.27217e-07)
(0.106967 0.00336704 -1.31088e-07)
(0.107096 0.00352804 5.83945e-07)
(0.10779 0.00382806 -8.11088e-07)
(0.0982791 0.000352156 -0.000400479)
(0.105964 0.00103411 -4.24355e-05)
(0.105014 0.00149145 9.61722e-06)
(0.103845 0.00160305 3.82881e-06)
(0.103342 0.00138117 6.47141e-07)
(0.1032 0.00104536 2.54118e-07)
(0.103199 0.000777451 -2.84833e-08)
(0.103318 0.000622147 1.56965e-07)
(0.103337 0.000548047 -1.66905e-07)
(0.103512 0.000518934 -4.20348e-07)
(0.103588 0.000513452 1.17281e-06)
(0.103441 0.000525104 1.77042e-06)
(0.103339 0.000558378 4.21112e-07)
(0.103398 0.000618942 -8.56785e-07)
(0.103546 0.000703402 -1.13195e-06)
(0.103704 0.000800477 -8.70976e-07)
(0.103842 0.000899969 -5.94241e-07)
(0.103963 0.00099841 -4.3717e-07)
(0.104074 0.00109815 -3.57995e-07)
(0.104182 0.00120335 -3.25121e-07)
(0.104294 0.00131691 -2.9798e-07)
(0.10441 0.0014395 -3.26686e-07)
(0.104542 0.00157057 -2.93147e-07)
(0.104675 0.00170821 -3.51655e-07)
(0.104836 0.00185176 -3.70874e-07)
(0.104995 0.00199833 -3.1782e-07)
(0.105177 0.00214811 -4.59033e-07)
(0.105376 0.00229793 -4.26202e-07)
(0.105581 0.00244673 -4.04854e-07)
(0.105805 0.00259356 -6.48431e-07)
(0.106075 0.00273224 -6.87586e-07)
(0.106329 0.00286754 -9.06829e-07)
(0.106685 0.00297527 -7.48743e-07)
(0.106941 0.00308246 -1.60473e-07)
(0.10741 0.00310768 -2.95157e-07)
(0.0969483 0.000383798 -0.000386624)
(0.104551 0.00095372 -4.21595e-05)
(0.104001 0.00129969 8.62799e-06)
(0.103212 0.00140988 3.7379e-06)
(0.102952 0.00124997 1.03795e-06)
(0.102933 0.000969811 6.33183e-07)
(0.103002 0.00072829 2.96681e-07)
(0.103123 0.000581465 1.56238e-07)
(0.103202 0.000514049 -3.39512e-08)
(0.103312 0.000496387 -8.47808e-08)
(0.103356 0.000509025 6.12235e-07)
(0.103288 0.000539997 9.30819e-07)
(0.103225 0.000579803 3.91209e-07)
(0.103243 0.000624372 -2.61524e-07)
(0.103338 0.000674831 -5.79168e-07)
(0.10348 0.000735114 -6.29939e-07)
(0.103642 0.000809064 -5.66689e-07)
(0.103806 0.000897747 -4.63025e-07)
(0.103964 0.000999214 -3.48681e-07)
(0.104114 0.00111034 -2.58818e-07)
(0.104261 0.00122857 -1.82094e-07)
(0.104408 0.00135237 -1.77046e-07)
(0.104566 0.00148084 -1.19787e-07)
(0.104723 0.00161337 -1.63881e-07)
(0.104905 0.00174893 -1.68581e-07)
(0.105084 0.00188706 -9.4543e-08)
(0.105281 0.00202562 -2.36865e-07)
(0.105499 0.00216501 -1.44219e-07)
(0.10571 0.00230185 -1.59356e-07)
(0.105946 0.0024374 -3.31404e-07)
(0.106213 0.00256672 -3.52411e-07)
(0.106434 0.00269755 -6.73457e-07)
(0.106806 0.00280877 -5.77872e-07)
(0.106833 0.0029461 -1.48837e-07)
(0.107443 0.00301677 -8.0748e-06)
(0.0953415 0.000497929 -0.000380512)
(0.102454 0.00119108 -4.00622e-05)
(0.101318 0.00157122 9.80471e-06)
(0.100033 0.00161224 4.55377e-06)
(0.0994762 0.00133804 1.25557e-06)
(0.0993513 0.000974512 4.00216e-07)
(0.0994026 0.000698682 -2.02981e-07)
(0.0995685 0.000546522 -1.153e-07)
(0.0996317 0.000481202 -4.41776e-07)
(0.0998342 0.000463538 -5.81403e-07)
(0.0999211 0.000470384 1.04047e-06)
(0.0998275 0.000493427 1.47435e-06)
(0.0997939 0.00052845 1.49238e-07)
(0.0998927 0.000574359 -9.2441e-07)
(0.100053 0.000631493 -1.07012e-06)
(0.100214 0.000698926 -7.98348e-07)
(0.100358 0.000775071 -5.5017e-07)
(0.100487 0.000858758 -4.10336e-07)
(0.100611 0.000949297 -3.37022e-07)
(0.100734 0.00104619 -3.08388e-07)
(0.100865 0.00114896 -2.87635e-07)
(0.101004 0.00125713 -3.21684e-07)
(0.10116 0.00136984 -2.9018e-07)
(0.101319 0.00148652 -3.59627e-07)
(0.101506 0.00160544 -3.64847e-07)
(0.101687 0.00172665 -3.40146e-07)
(0.101898 0.001847 -4.37481e-07)
(0.102107 0.00196773 -5.21788e-07)
(0.102353 0.00208504 -2.68167e-07)
(0.102558 0.002199 -8.76103e-07)
(0.10289 0.00230792 -6.72925e-07)
(0.103089 0.00241115 -9.23196e-07)
(0.103533 0.00250294 -1.02143e-06)
(0.103669 0.00259303 -9.67529e-08)
(0.104386 0.00266719 -2.4075e-06)
(0.0936544 0.000576713 -0.000368935)
(0.100695 0.00124315 -3.95122e-05)
(0.0998625 0.00154756 9.20079e-06)
(0.0988751 0.00154256 4.74022e-06)
(0.098558 0.00125305 1.68683e-06)
(0.098623 0.000894306 6.99755e-07)
(0.0988149 0.000629344 3.31116e-09)
(0.0990565 0.000488611 -2.75434e-08)
(0.0991782 0.000433419 -3.25573e-07)
(0.0993778 0.000424369 -3.87877e-07)
(0.0994539 0.000442245 9.94424e-07)
(0.099368 0.000476592 1.31415e-06)
(0.0993346 0.000515708 1.13608e-07)
(0.0994236 0.000552677 -8.88674e-07)
(0.0995785 0.000589956 -1.08349e-06)
(0.0997444 0.000635812 -8.71373e-07)
(0.0999035 0.00069668 -6.31555e-07)
(0.100055 0.000772863 -4.6293e-07)
(0.100203 0.000860395 -3.52565e-07)
(0.100349 0.000954943 -2.93809e-07)
(0.1005 0.0010539 -2.54191e-07)
(0.100653 0.0011561 -2.79287e-07)
(0.100819 0.00126109 -2.46228e-07)
(0.100983 0.00136815 -3.20417e-07)
(0.101173 0.00147693 -3.25623e-07)
(0.101352 0.00158583 -3.16198e-07)
(0.101562 0.00169488 -3.87987e-07)
(0.10176 0.0018017 -5.28459e-07)
(0.102004 0.00190664 -1.68515e-07)
(0.102178 0.00200731 -9.12612e-07)
(0.102506 0.00210337 -5.62612e-07)
(0.102631 0.00219479 -9.1175e-07)
(0.103048 0.00227822 -1.11526e-06)
(0.102995 0.00235708 -3.66977e-07)
(0.103642 0.00243202 -8.96968e-06)
(0.0917111 0.00075546 -0.00035621)
(0.0981178 0.00152093 -3.66261e-05)
(0.0967308 0.00180574 1.03739e-05)
(0.0952885 0.00168612 5.44179e-06)
(0.0947094 0.00126502 1.67112e-06)
(0.094678 0.000833644 2.08662e-07)
(0.0948508 0.000554942 -6.0926e-07)
(0.0951027 0.000426094 -5.17744e-07)
(0.095234 0.000384718 -7.59858e-07)
(0.0954675 0.000383054 -7.14453e-07)
(0.0955721 0.000398973 8.29992e-07)
(0.0955371 0.000425554 1.02817e-06)
(0.095571 0.000459015 -2.18551e-07)
(0.0957076 0.000498411 -1.0274e-06)
(0.0958757 0.000544191 -1.00657e-06)
(0.0960293 0.00059677 -7.0677e-07)
(0.0961636 0.000656648 -4.86606e-07)
(0.0962872 0.000724035 -3.80031e-07)
(0.096409 0.00079847 -3.36945e-07)
(0.0965353 0.000878984 -3.34133e-07)
(0.0966722 0.00096453 -3.34468e-07)
(0.0968185 0.00105402 -3.83534e-07)
(0.0969826 0.00114657 -3.59382e-07)
(0.0971486 0.00124093 -4.4813e-07)
(0.0973422 0.00133672 -4.43576e-07)
(0.0975283 0.00143186 -4.33433e-07)
(0.0977404 0.00152706 -5.72241e-07)
(0.0979548 0.00161925 -5.6671e-07)
(0.0981862 0.0017098 -4.74638e-07)
(0.0984056 0.00179612 -9.1982e-07)
(0.0987019 0.00187802 -9.37869e-07)
(0.0989227 0.00195676 -1.13686e-06)
(0.099323 0.00202764 -9.26417e-07)
(0.0994547 0.00209555 -6.89231e-07)
(0.100159 0.00215502 -2.74057e-06)
(0.0896457 0.000923307 -0.000345641)
(0.0959605 0.00167645 -3.55454e-05)
(0.094922 0.00188483 1.0013e-05)
(0.0938722 0.00168119 5.69922e-06)
(0.0936303 0.0011981 2.0447e-06)
(0.093859 0.000746425 4.39987e-07)
(0.0941978 0.000474035 -4.64246e-07)
(0.0945433 0.000360654 -3.3311e-07)
(0.0947065 0.000331933 -6.40575e-07)
(0.0949628 0.000337158 -5.97782e-07)
(0.0950493 0.000360208 1.17592e-06)
(0.094965 0.000395677 1.33502e-06)
(0.0949631 0.000433294 -2.04851e-07)
(0.0950907 0.000465733 -1.2409e-06)
(0.0952702 0.000496056 -1.29427e-06)
(0.0954474 0.000533704 -9.64739e-07)
(0.0956112 0.000584953 -6.68816e-07)
(0.0957657 0.000648928 -4.81358e-07)
(0.0959163 0.000721016 -3.7389e-07)
(0.0960669 0.000797299 -3.30208e-07)
(0.0962224 0.000876054 -3.12146e-07)
(0.0963818 0.000956806 -3.58529e-07)
(0.0965539 0.0010394 -3.4051e-07)
(0.0967239 0.00112322 -4.4208e-07)
(0.0969179 0.00120775 -4.46442e-07)
(0.0971018 0.00129181 -4.52279e-07)
(0.0973094 0.00137468 -5.91689e-07)
(0.0975166 0.0014556 -5.95861e-07)
(0.0977379 0.0015329 -5.02736e-07)
(0.0979418 0.00160674 -9.29198e-07)
(0.0982157 0.00167478 -9.83631e-07)
(0.0983936 0.00173728 -1.11605e-06)
(0.0987435 0.00179199 -9.91773e-07)
(0.098713 0.00183958 -9.61006e-07)
(0.0993417 0.00188314 -9.54361e-06)
(0.0875565 0.00118475 -0.000328742)
(0.0930454 0.00196026 -3.18873e-05)
(0.0913964 0.00208014 1.13613e-05)
(0.0898853 0.00172366 6.22205e-06)
(0.0894211 0.00111972 1.56484e-06)
(0.0895846 0.000632951 -5.11925e-07)
(0.089915 0.000378761 -1.31275e-06)
(0.0902451 0.000293359 -1.02391e-06)
(0.0904253 0.000284205 -1.05841e-06)
(0.0906685 0.00029846 -7.84383e-07)
(0.0907787 0.000319875 6.40297e-07)
(0.0907927 0.00034759 6.07798e-07)
(0.0908852 0.000380497 -5.4318e-07)
(0.0910549 0.000417193 -1.09687e-06)
(0.0912258 0.000456528 -9.08881e-07)
(0.0913652 0.000498746 -5.72203e-07)
(0.0914824 0.000545481 -3.84456e-07)
(0.0915942 0.000598097 -3.32765e-07)
(0.0917123 0.000656801 -3.41881e-07)
(0.0918416 0.000720888 -3.74804e-07)
(0.0919849 0.000789327 -3.96554e-07)
(0.0921393 0.000860957 -4.5244e-07)
(0.0923107 0.000934732 -4.29103e-07)
(0.0924837 0.00100954 -5.27198e-07)
(0.0926828 0.00108461 -5.07189e-07)
(0.0928715 0.00115883 -5.15097e-07)
(0.0930874 0.00123164 -6.59116e-07)
(0.0932991 0.00130232 -6.41241e-07)
(0.0935317 0.00136986 -5.05875e-07)
(0.0937365 0.00143411 -1.1524e-06)
(0.0940429 0.00149472 -9.05969e-07)
(0.0942226 0.00155078 -1.361e-06)
(0.0946381 0.00160397 -1.01344e-06)
(0.0947136 0.0016512 -6.15168e-07)
(0.0954194 0.00169952 -3.40768e-06)
(0.085145 0.00147245 -0.000319692)
(0.0904671 0.00218457 -2.98446e-05)
(0.0891948 0.00219499 1.15045e-05)
(0.0881754 0.0017146 6.49924e-06)
(0.088159 0.00103056 1.71555e-06)
(0.0886498 0.000529479 -4.19982e-07)
(0.0891608 0.000294372 -1.21245e-06)
(0.0895906 0.00023291 -7.25218e-07)
(0.0897757 0.000237948 -9.54647e-07)
(0.0900667 0.000256254 -7.23854e-07)
(0.0901465 0.000279547 1.33777e-06)
(0.0900677 0.000310868 1.21203e-06)
(0.0901037 0.000345625 -5.92051e-07)
(0.0902664 0.000378235 -1.53046e-06)
(0.0904594 0.000409538 -1.37497e-06)
(0.0906349 0.000445043 -9.23218e-07)
(0.0907925 0.000488347 -5.96573e-07)
(0.0909423 0.000538685 -4.27043e-07)
(0.0910917 0.000593538 -3.55624e-07)
(0.0912442 0.000651242 -3.46734e-07)
(0.0914032 0.000711312 -3.55854e-07)
(0.0915668 0.000773535 -4.17372e-07)
(0.0917422 0.000837518 -4.09664e-07)
(0.0919154 0.000902434 -5.27163e-07)
(0.0921117 0.000967626 -5.20691e-07)
(0.0922955 0.00103188 -5.48734e-07)
(0.0925046 0.00109494 -6.94932e-07)
(0.0927081 0.00115547 -6.90128e-07)
(0.0929294 0.00121329 -5.60032e-07)
(0.0931225 0.00126718 -1.17123e-06)
(0.0934058 0.00131676 -1.01234e-06)
(0.0935596 0.00136131 -1.2816e-06)
(0.0939211 0.00140014 -1.09283e-06)
(0.0938705 0.0014299 -7.58955e-07)
(0.0944896 0.00146212 -1.0133e-05)
(0.0826635 0.00187442 -0.000297266)
(0.0868881 0.00247465 -2.48992e-05)
(0.0850091 0.00231291 1.30983e-05)
(0.0835889 0.00164168 6.7666e-06)
(0.0834317 0.000862988 6.99613e-07)
(0.0838984 0.000375879 -1.77075e-06)
(0.0844033 0.00019165 -2.18335e-06)
(0.0847915 0.000169704 -1.4834e-06)
(0.0849934 0.000194823 -1.27221e-06)
(0.0852331 0.0002196 -7.83024e-07)
(0.0853384 0.000239839 5.38127e-07)
(0.0853882 0.000264418 2.38089e-07)
(0.0855305 0.000297131 -8.86009e-07)
(0.0857276 0.000335442 -1.19573e-06)
(0.0858955 0.000373852 -7.99751e-07)
(0.0860153 0.000409814 -3.94954e-07)
(0.0861127 0.000445092 -2.45848e-07)
(0.0862134 0.000482899 -2.72785e-07)
(0.0863296 0.000525439 -3.51186e-07)
(0.086463 0.0005732 -4.24182e-07)
(0.0866124 0.000625409 -4.63153e-07)
(0.0867732 0.000680689 -5.19956e-07)
(0.0869494 0.000737718 -4.96221e-07)
(0.0871264 0.000795286 -6.01367e-07)
(0.0873279 0.000852646 -5.63854e-07)
(0.0875169 0.000908755 -5.95947e-07)
(0.0877334 0.000963458 -7.49913e-07)
(0.0879435 0.00101562 -6.7833e-07)
(0.0881689 0.00106535 -6.05997e-07)
(0.0883733 0.00111164 -1.2767e-06)
(0.0886694 0.00115514 -1.03486e-06)
(0.0888433 0.00119466 -1.47662e-06)
(0.0892436 0.00123355 -9.66888e-07)
(0.0892966 0.00126391 -8.94514e-07)
(0.0899998 0.00130663 -3.34698e-06)
(0.0796428 0.00236988 -0.000286466)
(0.0835342 0.00275516 -2.14641e-05)
(0.0822247 0.00241266 1.30549e-05)
(0.0815479 0.00157398 6.2127e-06)
(0.0820286 0.000723421 7.2865e-08)
(0.0828953 0.000251714 -1.97695e-06)
(0.0835784 0.00010922 -2.08179e-06)
(0.0840506 0.000119333 -1.07333e-06)
(0.0842363 0.000157785 -1.16024e-06)
(0.0845327 0.000182467 -7.24903e-07)
(0.0845958 0.000197817 1.39393e-06)
(0.0845302 0.000219491 9.48552e-07)
(0.0845963 0.000252319 -8.99696e-07)
(0.0847728 0.000291826 -1.6072e-06)
(0.0849621 0.000331239 -1.28117e-06)
(0.0851304 0.000367414 -8.0838e-07)
(0.085285 0.000401165 -5.3148e-07)
(0.0854367 0.000434847 -4.1897e-07)
(0.0855909 0.000470687 -3.9044e-07)
(0.0857492 0.000510012 -4.05864e-07)
(0.0859131 0.000553003 -4.28315e-07)
(0.0860809 0.000598945 -4.92718e-07)
(0.0862588 0.000646783 -4.87888e-07)
(0.0864343 0.000695367 -6.12688e-07)
(0.0866315 0.000743926 -5.89482e-07)
(0.0868146 0.000791393 -6.4002e-07)
(0.0870239 0.000837627 -7.95939e-07)
(0.0872256 0.000881337 -7.37621e-07)
(0.087441 0.000922889 -6.62982e-07)
(0.0876342 0.000960681 -1.32866e-06)
(0.0879132 0.000995418 -1.11807e-06)
(0.0880641 0.00102514 -1.40848e-06)
(0.0884203 0.00105137 -1.05665e-06)
(0.088366 0.00106582 -7.70103e-07)
(0.0889728 0.00108759 -1.03005e-05)
(0.0764814 0.00296128 -0.00025958)
(0.0789435 0.00293945 -1.43408e-05)
(0.0771492 0.00232637 1.4961e-05)
(0.0762327 0.00131148 5.97701e-06)
(0.076688 0.00045756 -1.60027e-06)
(0.0775574 7.75326e-05 -3.62677e-06)
(0.0782066 1.77112e-05 -3.06516e-06)
(0.0786082 7.04549e-05 -1.72894e-06)
(0.0787867 0.000123248 -1.37974e-06)
(0.0790233 0.000149576 -7.1649e-07)
(0.0791063 0.000164097 6.85061e-07)
(0.079162 0.000186407 2.85951e-08)
(0.0793327 0.000220583 -1.22382e-06)
(0.079544 0.000259234 -1.30743e-06)
(0.0797038 0.000293525 -6.78608e-07)
(0.0798089 0.000320862 -2.2264e-07)
(0.0798984 0.000344385 -1.51153e-07)
(0.080001 0.000368831 -2.74951e-07)
(0.0801252 0.000397548 -4.12261e-07)
(0.080268 0.000431525 -5.02262e-07)
(0.0804256 0.000469841 -5.38481e-07)
(0.0805927 0.000510878 -5.8302e-07)
(0.0807725 0.000553143 -5.55971e-07)
(0.0809525 0.000595502 -6.64133e-07)
(0.081155 0.000637346 -6.0764e-07)
(0.0813431 0.000677824 -6.71071e-07)
(0.0815599 0.000716951 -8.24568e-07)
(0.0817673 0.00075354 -6.92058e-07)
(0.0819857 0.000788264 -7.02439e-07)
(0.0821906 0.000819604 -1.41806e-06)
(0.0824794 0.000849287 -1.14234e-06)
(0.0826479 0.00087496 -1.56804e-06)
(0.0830343 0.000901983 -8.90296e-07)
(0.0830697 0.000919104 -9.86559e-07)
(0.0837544 0.0009588 -3.19726e-06)
(0.0726095 0.00376698 -0.000241521)
(0.0744776 0.00322688 -9.46847e-06)
(0.0737099 0.00234114 1.32328e-05)
(0.0739202 0.0011439 3.46872e-06)
(0.0752112 0.000270181 -3.3745e-06)
(0.0765053 -4.57917e-05 -4.05368e-06)
(0.0772949 -4.3553e-05 -2.80151e-06)
(0.0777422 3.98829e-05 -1.22598e-06)
(0.0778992 9.8772e-05 -1.18876e-06)
(0.0781762 0.000117668 -6.4508e-07)
(0.0782271 0.000117805 1.29946e-06)
(0.0781747 0.000129689 6.79724e-07)
(0.0782377 0.00016552 -9.09033e-07)
(0.0783905 0.000215918 -1.36626e-06)
(0.0785642 0.000262438 -1.08196e-06)
(0.0787374 0.00029469 -7.78549e-07)
(0.0789088 0.000314767 -6.13729e-07)
(0.0790777 0.000330701 -5.30973e-07)
(0.0792445 0.000349297 -4.96323e-07)
(0.0794111 0.000373384 -5.00105e-07)
(0.07958 0.000402444 -5.16021e-07)
(0.0797512 0.000434817 -5.71856e-07)
(0.0799305 0.000468804 -5.65524e-07)
(0.0801075 0.000503183 -6.91959e-07)
(0.0803049 0.000537321 -6.48519e-07)
(0.0804867 0.000570342 -7.27688e-07)
(0.0806963 0.000602181 -8.81725e-07)
(0.0808956 0.000631721 -7.57048e-07)
(0.0811045 0.000659537 -7.7274e-07)
(0.0813005 0.000683987 -1.48538e-06)
(0.0815751 0.000706447 -1.24565e-06)
(0.081727 0.000724066 -1.51252e-06)
(0.0820773 0.000737505 -9.85571e-07)
(0.0820254 0.000738753 -7.80005e-07)
(0.0826267 0.000743406 -1.00724e-05)
(0.0682283 0.0045658 -0.000211706)
(0.0683319 0.00306628 1.13288e-06)
(0.0674615 0.00185433 1.51778e-05)
(0.067705 0.000619988 2.42722e-06)
(0.0690781 -7.96656e-05 -5.55028e-06)
(0.0703466 -0.000210622 -5.60765e-06)
(0.0710327 -0.000107514 -3.52288e-06)
(0.0713786 1.02886e-05 -1.58549e-06)
(0.0714933 7.25712e-05 -1.36093e-06)
(0.0717343 8.74875e-05 -5.34825e-07)
(0.0717764 9.97571e-05 1.08245e-06)
(0.0718149 0.000132351 -1.09038e-07)
(0.0719921 0.0001687 -1.55602e-06)
(0.072195 0.000192371 -1.3441e-06)
(0.0723377 0.000205308 -5.00677e-07)
(0.0724388 0.000216681 -9.64606e-08)
(0.0725416 0.000231147 -1.70768e-07)
(0.0726651 0.000249225 -3.82289e-07)
(0.0728084 0.00027078 -5.29473e-07)
(0.0729648 0.000295763 -5.91077e-07)
(0.0731305 0.000323254 -6.00935e-07)
(0.0733025 0.000352259 -6.26239e-07)
(0.0734841 0.000381545 -5.98569e-07)
(0.073666 0.000410482 -7.08027e-07)
(0.073868 0.000438795 -6.33102e-07)
(0.0740543 0.000465685 -7.39299e-07)
(0.0742713 0.00049135 -8.72548e-07)
(0.0744746 0.000514803 -6.69877e-07)
(0.0746847 0.000536553 -8.17287e-07)
(0.0748943 0.000555361 -1.53959e-06)
(0.0751726 0.000574319 -1.3075e-06)
(0.0753436 0.000587772 -1.56226e-06)
(0.0757042 0.000604903 -7.30363e-07)
(0.0757297 0.00060711 -1.06713e-06)
(0.0763768 0.00064631 -1.54731e-06)
(0.063086 0.00577416 -0.000176371)
(0.0623436 0.00324365 5.38204e-06)
(0.0634563 0.00170512 7.98743e-06)
(0.0653069 0.000356982 -3.63403e-06)
(0.0676105 -0.000262176 -8.56131e-06)
(0.0692109 -0.000283814 -6.03046e-06)
(0.0699482 -0.000122517 -2.99719e-06)
(0.070286 4.74376e-06 -1.06846e-06)
(0.070389 5.94864e-05 -9.68334e-07)
(0.0706289 5.83328e-05 -6.07874e-07)
(0.070702 3.99752e-05 9.06434e-07)
(0.0706415 5.11748e-05 7.29369e-07)
(0.0706111 0.00010063 -1.52699e-07)
(0.0706793 0.000160307 -7.30483e-07)
(0.0708511 0.000200807 -1.07969e-06)
(0.0710821 0.000216167 -1.17539e-06)
(0.0713156 0.000217981 -1.01016e-06)
(0.0715232 0.000219498 -7.69712e-07)
(0.0717069 0.000227307 -6.15492e-07)
(0.071879 0.000241972 -5.70507e-07)
(0.0720495 0.000260927 -5.76968e-07)
(0.072222 0.000282234 -6.2565e-07)
(0.0724014 0.00030408 -6.17765e-07)
(0.0725799 0.000325986 -7.41873e-07)
(0.0727763 0.000347503 -6.73092e-07)
(0.0729568 0.000368207 -7.91953e-07)
(0.0731669 0.000387214 -9.23852e-07)
(0.0733635 0.000405442 -7.07749e-07)
(0.0735625 0.000420501 -9.04023e-07)
(0.073771 0.000434157 -1.558e-06)
(0.0740304 0.00044758 -1.5674e-06)
(0.0742075 0.000456352 -1.40699e-06)
(0.0745194 0.000450524 -9.72024e-07)
(0.0745092 0.000453697 -1.01403e-06)
(0.0751065 0.000351715 -8.0915e-06)
(0.056341 0.00667442 -0.000142386)
(0.0539319 0.00234788 2.09941e-05)
(0.0559544 0.000619968 9.08081e-06)
(0.0579291 -0.000425564 -5.31463e-06)
(0.0600012 -0.000630573 -1.04529e-05)
(0.061271 -0.000395884 -6.5732e-06)
(0.0617628 -0.00014725 -2.8984e-06)
(0.0619816 -6.15507e-06 -9.01412e-07)
(0.0620146 3.625e-05 -1.08006e-06)
(0.0622499 2.31025e-05 -1.38606e-07)
(0.0622472 5.59587e-05 1.2693e-06)
(0.0622892 0.000134391 -6.5981e-07)
(0.0624576 0.000166806 -1.71496e-06)
(0.0626041 0.000132214 -7.55464e-07)
(0.0627025 8.57578e-05 1.49829e-07)
(0.0628103 7.17565e-05 1.63024e-07)
(0.0629532 8.90402e-05 -1.9817e-07)
(0.0631181 0.000117468 -4.42896e-07)
(0.0632888 0.000143932 -5.02857e-07)
(0.0634594 0.000166207 -4.80191e-07)
(0.0636318 0.000185348 -4.50643e-07)
(0.0638082 0.000203824 -4.53491e-07)
(0.0639915 0.000220962 -4.29901e-07)
(0.0641774 0.000237942 -5.17568e-07)
(0.0643785 0.000254438 -4.31465e-07)
(0.0645662 0.000269213 -5.64246e-07)
(0.0647857 0.000282691 -6.30276e-07)
(0.0649821 0.000296411 -3.58657e-07)
(0.0651891 0.000304137 -6.39523e-07)
(0.0654029 0.000313176 -1.56882e-06)
(0.0656919 0.000326456 -9.36969e-07)
(0.0658314 0.00032869 -1.74633e-06)
(0.066243 0.000344421 4.51904e-07)
(0.0660435 0.000306266 -1.12754e-06)
(0.066972 0.000374144 -1.23841e-05)
(0.0483034 0.00798219 -7.60865e-05)
(0.0425208 0.00197544 2.33715e-05)
(0.0445933 0.000253475 1.7167e-06)
(0.0460988 -0.000477151 -7.52625e-06)
(0.0480383 -0.000462333 -1.08049e-05)
(0.0491532 -0.000234644 -5.95235e-06)
(0.0495039 -7.38402e-05 -2.0965e-06)
(0.0496001 4.1276e-06 -4.71793e-07)
(0.0496796 2.79849e-05 -1.74402e-07)
(0.0497272 -2.86426e-07 4.76246e-07)
(0.0498007 -2.68802e-05 -6.15937e-07)
(0.0503347 1.04418e-05 -3.22859e-06)
(0.050865 8.11657e-05 -2.17997e-06)
(0.0509524 0.000122186 6.33592e-07)
(0.0507422 0.000120617 1.70917e-06)
(0.0505617 0.000102704 1.0698e-06)
(0.0505456 9.11818e-05 1.46272e-07)
(0.0506534 9.13484e-05 -3.70584e-07)
(0.0508132 9.90634e-05 -5.39042e-07)
(0.0509858 0.000109851 -5.65277e-07)
(0.0511625 0.000120658 -5.81314e-07)
(0.0513427 0.000131687 -6.03309e-07)
(0.0515311 0.000141567 -6.24059e-07)
(0.0517213 0.000151848 -7.29746e-07)
(0.0519285 0.000161851 -6.4468e-07)
(0.0521193 0.000170244 -8.5284e-07)
(0.0523471 0.000179254 -9.12558e-07)
(0.0525445 0.000186667 -4.39016e-07)
(0.0527409 0.000188155 -9.58133e-07)
(0.0529684 0.000191817 -1.90884e-06)
(0.0532642 0.000204944 -2.05615e-06)
(0.0534906 0.00020126 -2.03377e-06)
(0.0538315 0.00023748 -5.37509e-07)
(0.0538362 0.00015088 -1.05526e-06)
(0.0543925 0.000386578 3.46872e-06)
(0.0347141 0.00839425 -6.76395e-06)
(0.0328772 0.00111798 -8.01943e-05)
(0.0410657 -0.00036984 -3.30176e-05)
(0.0447304 -0.000878349 -2.49738e-06)
(0.0467097 -0.000611767 -6.47884e-08)
(0.0474342 -0.000216581 -1.48681e-06)
(0.0476246 -1.2857e-05 -2.63706e-06)
(0.0477206 2.20153e-05 -1.78317e-06)
(0.0477683 2.57953e-05 -1.61535e-06)
(0.0479797 -3.65434e-05 -3.96237e-07)
(0.0480252 -0.000139723 2.25118e-06)
(0.0478889 -7.79716e-05 1.31869e-06)
(0.0478335 8.84855e-05 -1.15828e-06)
(0.0479137 0.000177937 -2.11487e-06)
(0.0481095 0.00015239 -1.83125e-06)
(0.0483486 8.39843e-05 -1.19537e-06)
(0.0485694 3.80965e-05 -7.94474e-07)
(0.0487572 2.68737e-05 -6.9437e-07)
(0.048926 3.36768e-05 -7.25081e-07)
(0.0490907 4.35762e-05 -7.59777e-07)
(0.0492595 5.13471e-05 -7.92393e-07)
(0.0494328 5.71309e-05 -8.20165e-07)
(0.049614 6.23354e-05 -8.57154e-07)
(0.049796 6.66985e-05 -9.60578e-07)
(0.0499936 7.17809e-05 -9.1235e-07)
(0.0501761 7.51749e-05 -1.12785e-06)
(0.0503921 7.9171e-05 -1.18324e-06)
(0.050582 8.32752e-05 -8.45651e-07)
(0.0507722 7.71438e-05 -1.4264e-06)
(0.0509939 6.68694e-05 -1.9374e-06)
(0.051256 6.57014e-05 -2.07228e-06)
(0.0515036 7.16904e-05 -1.56099e-06)
(0.0517629 7.48193e-05 -1.01448e-06)
(0.051946 2.27481e-05 -3.04724e-06)
(0.0524428 -0.000134717 3.74228e-06)
(0.0312734 0.00769203 -4.1312e-06)
(0.042932 0.0025217 -9.29878e-05)
(0.0597456 -0.000176808 -0.00014797)
(0.0649119 -0.000983134 -9.24659e-05)
(0.0659001 -0.000629691 -4.26952e-05)
(0.0664105 -0.000154138 -1.40577e-05)
(0.0667974 4.76496e-05 -2.6984e-06)
(0.0671229 5.46249e-05 -1.59013e-07)
(0.0671783 2.65301e-05 -3.0997e-06)
(0.067734 -3.78303e-05 -5.10686e-07)
(0.0669483 -8.22461e-05 5.46741e-06)
(0.0662225 7.67298e-06 2.4449e-06)
(0.0664621 0.000110729 -2.24331e-06)
(0.0672443 0.000105025 -4.64075e-06)
(0.0679346 3.5754e-05 -4.70727e-06)
(0.0683062 -1.443e-05 -3.55555e-06)
(0.0684598 -2.31093e-05 -2.25152e-06)
(0.068542 -1.16584e-05 -1.34683e-06)
(0.0686235 -5.57959e-07 -9.0288e-07)
(0.0687167 4.77667e-06 -7.52112e-07)
(0.0688187 6.71302e-06 -7.45544e-07)
(0.0689262 7.5332e-06 -7.77916e-07)
(0.0690381 8.73431e-06 -8.71677e-07)
(0.0691597 9.38858e-06 -8.56669e-07)
(0.0692734 1.05861e-05 -1.16526e-06)
(0.0694226 1.10741e-05 -9.01467e-07)
(0.0695185 1.14473e-05 -1.0687e-06)
(0.0696753 1.25665e-05 -1.9151e-06)
(0.069834 4.84419e-06 -1.11741e-06)
(0.069894 -1.16368e-05 -9.43865e-08)
(0.0699347 -2.25709e-05 -2.02002e-08)
(0.0699439 -9.41606e-06 -2.09613e-06)
(0.0701797 -1.15003e-05 -2.7617e-06)
(0.0701319 -2.39465e-05 -5.42074e-06)
(0.0705561 -0.000286907 -1.79272e-05)
(0.183433 0.000198019 -0.000497019)
(0.187141 0.000852106 -8.28028e-05)
(0.187412 0.00154841 1.73032e-05)
(0.186498 0.00199186 1.68105e-05)
(0.185786 0.00200618 6.94274e-06)
(0.185447 0.00172817 2.46233e-06)
(0.185324 0.00140223 3.90627e-07)
(0.185345 0.00116379 4.83616e-07)
(0.185345 0.00102694 -2.28824e-07)
(0.185405 0.000960165 -1.66129e-06)
(0.185473 0.00093698 2.34902e-06)
(0.185432 0.000947267 6.30232e-06)
(0.185334 0.00098891 4.03014e-06)
(0.185296 0.00106368 -6.87544e-07)
(0.185342 0.00117127 -3.25634e-06)
(0.185432 0.00130541 -3.33757e-06)
(0.185526 0.00145744 -2.3967e-06)
(0.185607 0.00162155 -1.45756e-06)
(0.185676 0.00179644 -8.13175e-07)
(0.18574 0.00198428 -4.64958e-07)
(0.185807 0.00218754 -2.71335e-07)
(0.185879 0.00240844 -2.81465e-07)
(0.185966 0.00264666 -2.15467e-07)
(0.186062 0.00290236 -3.34397e-07)
(0.186177 0.00317243 -4.17864e-07)
(0.186305 0.00345825 -3.82034e-07)
(0.186449 0.00375311 -7.0099e-07)
(0.186612 0.00406139 -6.86463e-07)
(0.186796 0.00437382 -6.80306e-07)
(0.186996 0.00469697 -1.33135e-06)
(0.187226 0.00501125 -2.21831e-06)
(0.187474 0.00534398 -2.61174e-06)
(0.18776 0.00560887 -3.1165e-06)
(0.188046 0.00596369 -2.62953e-06)
(0.188397 0.00604132 -4.33903e-06)
(0.18241 0.000215009 -0.000483154)
(0.186127 0.000832746 -8.2696e-05)
(0.186569 0.00147959 1.50934e-05)
(0.185945 0.00193595 1.54065e-05)
(0.185477 0.00199864 6.3948e-06)
(0.18526 0.00175403 2.19453e-06)
(0.18518 0.00143028 3.92655e-07)
(0.185191 0.0011778 1.87539e-07)
(0.185205 0.00102782 -1.84078e-07)
(0.185251 0.000955967 -5.96449e-07)
(0.185291 0.000937397 1.95699e-06)
(0.185258 0.000955416 4.12472e-06)
(0.185187 0.000998777 2.58559e-06)
(0.185154 0.00106372 -4.61388e-07)
(0.185187 0.00115009 -2.32952e-06)
(0.185267 0.00125751 -2.6899e-06)
(0.185372 0.00138519 -2.31475e-06)
(0.185485 0.00153205 -1.81562e-06)
(0.185598 0.00169658 -1.41644e-06)
(0.185707 0.00187728 -1.18477e-06)
(0.185814 0.00207289 -1.04484e-06)
(0.185922 0.00228263 -1.10134e-06)
(0.18604 0.00250555 -1.07765e-06)
(0.186161 0.00274103 -1.25987e-06)
(0.186301 0.0029873 -1.39914e-06)
(0.186448 0.00324396 -1.50761e-06)
(0.18662 0.00350764 -1.71288e-06)
(0.186788 0.00377865 -2.26856e-06)
(0.187011 0.00405185 -1.50004e-06)
(0.187194 0.0043293 -3.48352e-06)
(0.187473 0.00460079 -3.16839e-06)
(0.187677 0.0048786 -5.09042e-06)
(0.18802 0.0051297 -4.37656e-06)
(0.188149 0.00541813 -4.495e-06)
(0.188688 0.00561335 -2.23226e-05)
(0.181251 0.000270035 -0.000474222)
(0.184847 0.000929875 -7.9604e-05)
(0.184777 0.00158019 1.73117e-05)
(0.18346 0.00201347 1.7754e-05)
(0.182466 0.00204228 8.30241e-06)
(0.182027 0.00176875 3.15234e-06)
(0.181929 0.00142829 5.44223e-07)
(0.181999 0.00116732 4.2462e-08)
(0.182065 0.00101367 -4.83733e-07)
(0.182159 0.00094248 -9.20373e-07)
(0.182247 0.000923588 1.7037e-06)
(0.182274 0.000939766 3.45206e-06)
(0.18229 0.000981195 1.56727e-06)
(0.182357 0.00104297 -1.22993e-06)
(0.182463 0.00112336 -2.46989e-06)