/*--------------------------------*- C++ -*----------------------------------*\
  =========                 |
  \\      /  F ield         | OpenFOAM: The Open Source CFD Toolbox
   \\    /   O peration     | Website:  https://openfoam.org
    \\  /    A nd           | Version:  6
     \\/     M anipulation  |
\*---------------------------------------------------------------------------*/
FoamFile
{
    version     2.0;
    format      ascii;
    class       volScalarField;
    location    "4";
    object      yPlus;
}
// * * * * * * * * * * * * * * * * * * * * * * * * * * * * * * * * * * * * * //

dimensions      [0 0 0 0 0 0 0];

internalField   uniform 0;

boundaryField
{
    inlet
    {
        type            calculated;
        value           uniform 0;
    }
    outlet
    {
        type            calculated;
        value           uniform 0;
    }
    roughCylinder
    {
        type            calculated;
        value           nonuniform List<scalar> 
5120
(
96.1038
61.6427
53.7918
57.3855
63.3837
68.4299
72.6014
76.0856
79.055
81.6731
84.0429
86.2334
88.2783
90.2266
92.0895
93.9209
95.7533
97.6313
99.5707
101.589
103.689
105.869
108.119
110.429
112.783
115.154
117.511
119.802
121.957
123.873
125.372
126.207
98.03
62.2603
53.0904
55.9556
61.801
66.793
70.9392
74.4109
77.3723
79.9884
82.3468
84.4939
86.503
88.384
90.1953
91.9564
93.7227
95.521
97.3883
99.3311
101.354
103.454
105.622
107.848
110.115
112.4
114.669
116.877
118.953
120.8
122.245
123.049
97.6222
62.278
52.593
54.6302
60.2458
65.1735
69.2779
72.7374
75.7142
78.3335
80.6728
82.8013
84.7501
86.5925
88.3317
90.034
91.7286
93.4668
95.2595
97.1268
99.0702
101.089
103.173
105.314
107.494
109.692
111.875
113.999
115.998
117.776
119.167
119.939
80.5977
61.1907
51.7032
53.1621
58.6142
63.5008
67.6101
71.0964
74.0859
76.7102
79.0507
81.1367
83.0655
84.8393
86.5375
88.1736
89.8106
91.4692
93.1936
94.9889
96.8599
98.802
100.809
102.868
104.965
107.078
109.177
111.22
113.142
114.853
116.19
116.932
96.025
62.4331
51.4472
51.8729
57.0371
61.88
65.9687
69.4515
72.472
75.1178
77.4373
79.532
81.4001
83.1545
84.7848
86.3722
87.9402
89.551
91.2081
92.9336
94.7299
96.5954
98.5226
100.501
102.515
104.545
106.562
108.524
110.372
112.018
113.305
114.015
79.4107
61.2422
50.6182
50.3867
55.351
60.1627
64.2792
67.8281
70.8795
73.5284
75.8776
77.926
79.809
81.4976
83.1041
84.633
86.1593
87.6931
89.288
90.9487
92.68
94.4765
96.3315
98.2344
100.171
102.122
104.059
105.945
107.721
109.303
110.539
111.221
92.7388
62.0903
50.4948
49.1557
53.7286
58.5157
62.6408
66.1792
69.2629
71.9651
74.2858
76.3814
78.2043
79.9045
81.4522
82.9487
84.4085
85.9102
87.4487
89.0471
90.7089
92.4338
94.2139
96.0402
97.8979
99.7692
101.629
103.439
105.145
106.666
107.854
108.507
77.6606
61.0964
49.8022
47.669
51.9468
56.7001
60.8605
64.5125
67.663
70.3551
72.754
74.794
76.6738
78.3171
79.866
81.3143
82.7559
84.1848
85.6669
87.2083
88.8133
90.4766
92.1916
93.9482
95.7345
97.5311
99.3156
101.054
102.691
104.152
105.292
105.917
85.488
60.3431
49.4442
46.4344
50.1926
54.9382
59.1657
62.7982
65.9661
68.7768
71.1293
73.2726
75.0851
76.7767
78.2814
79.7234
81.1008
82.5175
83.9576
85.4452
86.9861
88.5818
90.2251
91.9084
93.617
95.3366
97.0459
98.7095
100.281
101.684
102.779
103.375
86.8154
60.5411
48.8235
44.9416
48.2268
52.9072
57.1541
60.9703
64.2958
67.0621
69.5738
71.646
73.5729
75.2093
76.7453
78.1496
79.5433
80.8951
82.2838
83.7223
85.2153
86.7565
88.3407
89.9587
91.5996
93.2475
94.8828
96.4783
97.9826
99.327
100.376
100.943
73.8217
60.1638
48.7904
43.6569
46.1712
50.8446
55.2888
59.0972
62.3862
65.4028
67.8345
70.0932
71.9389
73.6724
75.1734
76.603
77.9294
79.29
80.6561
82.0514
83.4837
84.9593
86.4717
88.0153
89.5782
91.1484
92.7093
94.2298
95.6692
96.9578
97.9632
98.5014
78.0914
58.9202
47.8218
42.0393
43.8493
48.3839
52.7828
56.8828
60.5505
63.4473
66.1795
68.3416
70.3881
72.0643
73.6379
75.0342
76.4184
77.7207
79.0372
80.3897
81.7847
83.2129
84.6728
86.1555
87.6531
89.1544
90.6427
92.0973
93.4711
94.7021
95.6622
96.1715
72.9516
58.1817
47.9514
40.723
41.221
45.645
50.5282
54.7005
58.1806
61.6006
64.1892
66.6765
68.6172
70.4677
72.0141
73.4826
74.7899
76.1244
77.4438
78.7666
80.1019
81.4652
82.8499
84.2553
85.6729
87.0933
88.5056
89.8823
91.191
92.3678
93.2848
93.7658
77.4997
57.4883
46.7999
39.1108
38.2344
42.3262
46.966
51.6183
56.0205
59.1478
62.3169
64.6628
66.9499
68.7296
70.4148
71.8508
73.2765
74.5632
75.8309
77.1142
78.426
79.7499
81.0911
82.4408
83.7947
85.1483
86.4878
87.802
89.0456
90.164
91.035
91.4861
75.4023
57.6837
46.3222
37.1101
34.5024
37.9821
43.822
48.8096
52.6194
56.9309
59.8148
62.7574
64.8908
66.9864
68.6475
70.2287
71.5578
72.9065
74.2128
75.4866
76.7361
77.9928
79.25
80.5139
81.7825
83.0472
84.3065
85.5353
86.7114
87.7759
88.604
89.0284
63.9601
54.6869
45.6891
35.8075
29.8963
32.7115
37.5259
43.5923
49.8631
53.3731
57.5111
60.2165
62.9926
64.9748
66.8927
68.4347
69.9767
71.2927
72.5394
73.7729
75.0157
76.2428
77.467
78.6825
79.8873
81.088
82.2731
83.4431
84.553
85.5569
86.3379
86.727
44.8095
46.5955
41.8638
32.9811
24.5305
22.5474
32.1038
39.1534
43.6206
50.4515
53.9022
57.8599
60.3615
62.957
64.8422
66.6541
68.058
69.4748
70.8119
72.0628
73.2382
74.3892
75.514
76.6247
77.7325
78.8283
79.9231
80.9926
82.0291
82.9771
83.7148
84.0821
22.5025
34.7367
34.74
29.0907
10.2764
10.6203
8.85598
26.5282
39.8123
43.7672
50.7047
54.1531
58.0371
60.4037
62.7895
64.5395
66.3175
67.7252
68.9835
70.1898
71.3754
72.51
73.6122
74.6872
75.7301
76.7656
77.783
78.8006
79.769
80.6524
81.3396
81.66
13.4193
15.4273
15.1158
9.21866
6.2129
16.4055
16.7933
19.5913
18.9791
39.5979
44.0396
50.9368
54.1837
57.9039
60.2111
62.4762
64.0276
65.5891
67.0183
68.2747
69.3863
70.4248
71.4024
72.3335
73.2555
74.1549
75.0621
75.949
76.8309
77.6539
78.2953
78.6037
7.19597
7.3844
12.7285
14.3086
4.8015
4.08092
17.7172
18.3282
9.89698
12.9191
38.9623
44.0014
51.0781
54.1975
57.6127
59.7466
61.9851
63.5831
64.8912
66.0978
67.2327
68.2726
69.238
70.1577
71.0142
71.8621
72.6878
73.5393
74.3516
75.1036
75.6894
75.9291
11.6288
10.0566
2.50095
14.821
17.0969
18.1362
19.0784
19.5053
19.6038
3.53466
9.79382
38.9607
43.8861
50.8424
53.9796
57.2143
59.0219
60.8525
62.4737
63.7703
64.8272
65.7307
66.5255
67.2233
67.9105
68.5605
69.2366
69.8952
70.5935
71.2752
71.8095
72.0537
9.84692
11.8763
11.2448
7.08328
15.5133
20.8465
21.5077
22.151
21.8098
10.1502
10.0102
11.5904
39.4973
44.0905
50.3504
53.2126
56.427
58.3984
59.8053
61.0475
62.1266
63.0616
63.8648
64.6013
65.2279
65.8514
66.4443
67.1119
67.7456
68.3482
68.8206
68.9591
6.98438
16
19.9799
22.3842
22.0887
16.7355
22.0167
20.3875
5.11715
24.31
22.5953
21.0468
12.9568
39.319
44.1358
49.9188
52.1457
54.5019
56.5172
57.9131
58.929
59.6416
60.1603
60.5118
60.8607
61.1486
61.5051
61.837
62.2935
62.8049
63.2148
63.3901
8.75673
18.1777
23.1074
26.8461
29.3977
31.0639
29.364
18.0214
4.91978
21.6953
19.5006
23.2095
21.7265
17.6688
38.4359
42.7351
48.4987
51.2511
52.8268
54.1567
55.1507
55.9484
56.5611
57.0669
57.3893
57.7306
58.0195
58.4944
58.9229
59.3477
59.6878
59.6685
9.21093
17.3815
22.8871
27.2113
30.2881
31.7748
32.1041
32.6689
25.0733
20.9847
25.435
27.8813
22.394
22.53
21.8244
38.3549
41.0631
44.6861
47.6404
49.2834
50.2654
50.6613
50.6547
50.3283
50.04
49.6565
49.4475
49.165
49.2065
49.4983
49.7586
49.8849
9.54716
16.4626
21.811
26.1315
29.4761
31.9789
33.2826
32.274
31.5986
23.7056
27.6694
26.0001
27.0534
0.97123
23.0848
16.5503
35.0807
39.8135
41.6988
43.1581
44.0447
44.6255
44.8249
45.1895
45.1039
45.0506
44.8999
45.2094
45.5317
45.6311
45.8606
45.4864
9.40594
16.3385
21.2825
25.2562
28.2908
30.3289
31.4269
32.1425
31.0082
29.9086
17.4616
17.5344
16.6817
25.2138
13.2116
13.9332
10.7272
24.2677
30.2449
33.6521
34.4329
33.476
32.8982
28.676
26.0245
22.3953
19.4106
17.3666
12.8151
14.8845
12.3022
14.4658
8.73545
15.6044
20.3254
24.1097
26.9989
29.0513
30.1616
30.11
29.8583
27.9972
26.0204
12.7457
28.1058
28.1433
24.3742
15.5637
15.0418
24.9196
22.1276
8.37396
8.34369
14.4422
28.863
23.7358
11.726
22.6137
21.7373
30.484
6.47102
31.203
22.2489
31.7637
8.14555
15.1579
19.5427
22.9735
25.5154
27.1817
27.9836
28.2103
27.7572
27.1916
23.1452
13.1091
15.3824
29.6604
26.5165
24.0514
24.5838
23.1971
24.8336
25.2733
6.60913
27.1377
27.3668
29.739
22.5415
30.2199
30.7479
20.557
31.5866
22.2993
7.03306
23.2292
7.67884
14.9886
19.1261
22.2428
24.4867
25.9317
26.5621
26.4079
26.0746
25.4986
25.0594
22.3021
21.918
26.8786
24.2109
27.2145
20.9305
24.7676
25.9972
18.5398
27.9595
20.4335
21.8024
22.9735
17.0552
16.5713
19.0294
32.6536
26.59
11.7955
19.4548
19.405
7.21009
14.7881
18.801
21.7104
23.6979
24.8572
25.2586
25.1503
24.8196
24.5577
23.4745
21.0066
11.2143
28.7083
14.2726
18.7326
19.2846
27.1665
21.9511
10.3049
23.9591
11.6043
20.7086
18.2063
17.7325
28.9599
13.509
21.7078
17.8104
6.17828
26.2152
34.1935
6.90052
14.7398
18.6634
21.4181
23.2391
24.2637
24.5794
24.3948
24.2207
24.1471
23.8814
22.3627
19.8731
16.9812
18.7549
25.8439
28.0508
18.4935
25.2603
8.46916
14.924
24.1492
24.6182
20.3564
17.1117
13.2342
31.0268
14.4891
17.9987
31.4075
20.3626
18.8516
6.51428
14.6261
18.4788
21.0848
22.7349
23.6033
23.8446
23.7959
23.9242
24.3959
24.8123
25.0818
24.2705
20.5365
18.2483
23.7419
23.7122
10.6233
15.9595
26.7148
8.67022
11.1136
19.6519
23.2885
26.0748
28.5355
29.3589
29.5446
28.458
27.6324
24.9042
24.2069
6.20649
14.5316
18.2923
20.7386
22.2225
22.9562
23.1278
23.1196
23.5166
24.3388
25.0117
25.0733
25.3586
27.0149
27.2938
25.3429
26.2869
26.8588
27.9695
28.8682
31.2865
34.2365
33.4368
34.0208
34.276
34.3549
34.1602
34.1394
33.701
32.8249
32.3376
31.741
5.78567
14.2279
17.8823
20.1482
21.4333
21.9824
22.033
22.0666
22.763
24.1641
25.5757
26.4073
26.1354
24.8895
25.2331
27.326
28.9536
30.8854
31.5915
32.0305
32.3899
32.0598
32.9412
33.218
33.532
33.7168
33.6777
33.2731
32.5516
31.476
30.2492
29.3033
5.35109
13.776
17.2854
19.34
20.3955
20.7191
20.5645
20.4634
21.2649
23.0456
25.0065
26.5343
27.5773
28.0489
27.5991
27.2774
28.0991
29.4194
30.9143
31.7996
32.4666
33.2391
32.9396
33.205
33.266
33.2634
33.0948
32.7052
31.9869
31.0824
30.0158
29.2349
4.8096
13.0171
16.3559
18.1827
18.9828
19.0314
18.5754
18.1668
18.8961
21.0314
23.5769
25.5874
26.5349
26.5281
26.2934
26.1109
26.4609
27.7696
29.2389
29.9587
30.5033
30.8807
31.4631
31.8062
32.1611
32.3635
32.3103
31.9304
31.1358
29.9122
28.5421
27.4608
4.26215
12.1167
15.2668
16.9002
17.4945
17.3074
16.503
15.4448
15.4626
17.4704
20.5165
23.5774
25.7709
26.4309
25.5443
24.2423
23.7699
24.9902
26.9634
28.2563
29.3273
30.2617
30.8828
31.638
32.198
32.5806
32.6602
32.3458
31.5453
30.2992
28.807
27.6815
3.88028
11.4745
14.2577
15.7993
16.3874
16.2157
15.3183
13.6433
12.3167
13.2655
15.8643
19.3571
22.2809
23.7359
23.4613
21.9945
20.868
22.0806
24.9351
26.7103
28.253
29.6535
30.979
32.0653
33.0028
33.6431
33.887
33.6282
32.7682
31.2885
29.4725
28.0579
3.72228
11.5642
13.6362
15.2096
16.0395
16.2063
15.6288
13.9617
11.8082
11.3541
11.5191
14.391
17.9565
20.4124
20.6365
19.2468
17.9017
19.692
23.6853
26.3608
28.566
30.4777
32.1274
33.6212
34.8123
35.6595
36.0367
35.8295
34.9323
33.3308
31.3285
29.7688
3.65902
2.93369
2.17002
1.93206
1.25894
4.06845
6.31781
8.65111
11.5111
13.76
17.5497
20.5916
22.3336
22.3663
21.0181
19.0202
17.0891
15.5966
14.5621
13.5952
13.5797
14.5516
15.6825
17.2328
19.1516
20.9414
21.8754
21.3583
19.2346
16.0868
12.4531
10.4429
7.92501
5.76059
3.90104
1.53072
1.87929
2.25609
3.05009
3.71491
11.4219
9.78763
7.83238
6.74902
4.71633
11.8149
16.5197
19.3352
21.097
22.2914
23.0959
23.3335
23.2159
22.9713
22.8973
23.1613
23.7875
24.6292
25.2485
24.6143
24.4465
24.799
24.084
23.2675
22.704
22.5129
22.5985
22.8061
22.7972
22.4518
21.5277
20.2971
18.5166
15.4987
11.6048
5.44091
6.71126
8.0969
10.0296
11.5493
12.8429
11.5167
9.91868
8.30654
7.02071
14.8344
20.0033
22.2629
23.2322
23.6597
23.6827
23.5017
23.2459
23.0676
23.0556
23.2887
23.8492
24.7688
25.7135
24.8564
24.6022
25.0602
24.103
23.2753
22.783
22.611
22.6399
22.8411
23.0557
23.2083
23.1016
22.6086
21.5449
18.9963
13.5014
7.2124
8.47537
10.0732
11.4076
12.8861
14.339
12.5371
11.1147
9.04226
11.8146
17.8273
21.9264
23.2403
23.7934
24.1139
24.1285
24.0095
23.7952
23.7051
23.8356
24.3134
25.3069
26.8785
28.4789
27.3785
27.0131
27.6825
26.0401
24.6023
23.7173
23.3179
23.2126
23.3368
23.5309
23.6376
23.5728
23.2296
22.6445
21.1335
16.4712
10.771
9.28546
11.2573
12.533
14.3506
15.3175
13.403
11.3615
10.1417
13.2481
19.9642
22.397
23.4191
24.2706
24.8992
25.2527
25.4385
25.5076
25.6606
26.0636
26.8635
28.2638
30.3474
32.4149
31.5056
31.0673
31.5573
29.3919
27.4689
26.2117
25.5005
25.136
25.0078
24.9128
24.7013
24.2941
23.6395
22.7659
21.7772
18.7894
12.0055
9.88637
11.5981
13.4517
15.3144
15.6807
13.6043
11.1433
11.5951
15.4207
20.8352
22.3188
23.9255
25.1833
26.2014
26.9069
27.4046
27.7515
28.1267
28.7178
29.7042
31.3247
33.733
36.0882
35.4083
34.9695
35.1776
32.7332
30.5
29.0426
28.1531
27.6039
27.2449
26.857
26.3246
25.5334
24.4924
23.1228
21.6547
19.8777
13.9792
11.2801
11.3668
13.7849
15.7017
15.239
12.756
10.3867
11.7258
16.9387
20.9822
22.6087
24.8405
26.3042
27.6466
28.5671
29.3142
29.8684
30.4364
31.1807
32.3198
34.1052
36.6856
39.1407
38.6441
38.1958
38.2039
35.6339
33.2324
31.6349
30.6086
29.9136
29.3592
28.759
27.9739
26.9553
25.5747
23.9789
21.7566
20.1247
15.4268
11.6646
11.0074
13.2239
15.357
13.5376
11.0795
0.883634
12.6887
17.8279
21.0496
23.3554
25.7323
27.3927
28.9003
29.9794
30.903
31.629
32.3724
33.2778
34.5903
36.53
39.1519
41.5465
41.1926
40.8852
40.681
38.1071
35.6251
33.8681
32.6804
31.8374
31.106
30.3451
29.3715
28.2169
26.6248
24.8926
22.3528
20.1814
16.3114
11.8099
9.35968
11.4962
13.7928
10.8169
2.69392
5.01504
13.9797
18.2468
21.3677
24.1629
26.469
28.3456
29.8975
31.1294
32.1638
33.0509
33.9519
35.0383
36.5256
38.5825
41.1711
43.4267
43.296
43.081
42.6429
40.185
37.6901
35.7902
34.4201
33.4032
32.5118
31.6023
30.508
29.2215
27.5605
25.6378
23.139
20.3744
16.9614
12.1529
5.12449
6.10278
11.4891
7.53487
7.40827
11.2901
13.6695
18.9129
21.7032
24.8464
27.0746
29.1192
30.695
32.059
33.1841
34.2206
35.2631
36.5116
38.1242
40.2398
42.7414
44.8318
44.9171
44.7533
44.1076
41.8397
39.4041
37.4106
35.8904
34.7028
33.6673
32.6123
31.4306
30.0145
28.3373
26.2326
23.8474
20.6556
17.6474
12.2454
9.62405
3.56127
7.6117
11.397
8.8444
11.5529
14.1747
19.1413
22.0619
25.2554
27.5636
29.6752
31.3289
32.7832
34.0104
35.1678
36.3356
37.703
39.3871
41.4815
43.831
45.7803
45.9924
45.8526
45.1241
43.0197
40.7019
38.6982
37.0892
35.7716
34.6074
33.428
32.1494
30.637
28.8978
26.7037
24.2906
20.9623
18.0458
12.4867
11.4031
8.60423
11.3142
11.5672
11.5026
11.4178
14.1845
18.9145
22.2003
25.3595
27.8556
30.0009
31.7712
33.2931
34.6251
35.8733
37.1413
38.5809
40.2862
42.3047
44.4641
46.2202
46.5052
46.3713
45.6615
43.7391
41.57
39.6102
37.9624
36.564
35.2964
34.0257
32.6423
31.0649
29.2051
26.9906
24.3664
21.1502
17.7187
13.0154
10.5476
10.9575
11.6163
12.7415
10.9707
9.6598
13.5024
18.0244
21.9231
25.1062
27.8573
30.0637
31.9718
33.5637
34.9955
36.3144
37.6538
39.1253
40.8058
42.697
44.6224
46.127
46.4746
46.3435
45.6696
43.9868
42.0146
40.149
38.5064
37.0648
35.7217
34.3763
32.8937
31.242
29.2449
26.9662
24.0815
20.8493
16.8047
12.2488
8.63625
10.8874
13.1175
15.5878
11.7136
9.79472
11.7238
16.3403
21.0456
24.4003
27.4612
29.7909
31.8594
33.5443
35.0739
36.4541
37.8357
39.2989
40.9053
42.6246
44.2921
45.5519
45.9414
45.819
45.1754
43.7456
42.0095
40.2862
38.6976
37.2464
35.8571
34.4363
32.8631
31.0955
28.9615
26.5091
23.3755
19.8219
15.2762
9.22273
9.35192
12.051
15.9969
17.1324
13.2081
8.87153
3.11102
14.4421
19.3297
23.2314
26.5338
29.1212
31.3374
33.175
34.7949
36.2484
37.647
39.0763
40.5745
42.1052
43.5261
44.578
44.9729
44.8651
44.2633
43.0598
41.5617
40.0053
38.5052
37.07
35.653
34.1467
32.483
30.5443
28.2805
25.5232
22.1861
18.0824
12.4487
6.71059
10.6083
13.707
17.3255
16.6654
13.4363
10.2613
8.53181
11.6363
17.2451
21.7079
25.0648
28.0448
30.3469
32.4077
34.1077
35.6624
37.0718
38.4647
39.8485
41.201
42.4066
43.2855
43.6552
43.5638
43.0211
42.0103
40.7231
39.3332
37.9239
36.5183
35.0635
33.4673
31.6933
29.5573
27.1907
24.0161
20.7895
15.6399
10.4743
3.98968
10.5673
13.6567
16.7516
15.3043
11.9907
9.27956
5.3611
12.496
15.7819
20.3938
23.6
26.6192
29.0614
31.2049
33.0341
34.6505
36.1011
37.4544
38.7474
39.9474
40.9805
41.7189
42.049
41.9729
41.4977
40.6433
39.5294
38.2812
36.9504
35.5711
34.0678
32.4096
30.5079
28.3203
25.8071
22.7175
19.5851
14.633
11.9851
7.34239
10.881
12.5782
15.5602
17.4148
15.1212
14.3758
14.5543
16.0461
18.3211
20.8805
23.5051
25.887
28.0999
30.0659
31.8284
33.4068
34.8194
36.1095
37.2982
38.3672
39.2557
39.8806
40.1666
40.1046
39.6994
38.9748
38.0131
36.8934
35.671
34.35
32.9053
31.2981
29.5252
27.5588
25.376
23.0614
20.5297
18.1677
16.1277
14.8161
14.7159
15.5003
17.739
22.5008
21.3398
21.1498
21.3045
22.1852
23.3605
24.7977
26.2844
27.8027
29.2481
30.6359
31.9338
33.1468
34.2696
35.307
36.2679
37.1239
37.828
38.3207
38.5494
38.5068
38.1962
37.6362
36.886
36.0041
35.0363
34.004
32.8935
31.7067
30.4501
29.1203
27.7458
26.3103
24.9152
23.5687
22.4738
21.656
21.5312
21.7154
22.8643
26.0272
25.6106
26.0202
26.606
27.5721
28.6169
29.7503
30.8414
31.8888
32.862
33.7675
34.6056
35.3833
36.1118
36.8022
37.4441
38.0177
38.488
38.8178
38.9747
38.9576
38.7682
38.4149
37.9342
37.3643
36.7378
36.0716
35.3729
34.6282
33.8263
32.9577
32.0206
31.0061
29.9436
28.8348
27.8081
26.8531
26.2685
25.8501
26.2522
28.824
28.8663
29.6379
30.4982
31.6224
32.7376
33.8651
34.9062
35.8684
36.7279
37.5004
38.1969
38.8405
39.4356
39.9845
40.4797
40.9079
41.25
41.4859
41.6001
41.5976
41.4788
41.241
40.903
40.485
40.0047
39.4739
38.8983
38.2746
37.5968
36.8415
35.997
35.0478
34.0175
32.8986
31.7895
30.6693
29.8091
29.036
28.9884
31.2141
31.5688
32.5969
33.6288
34.8575
36.0232
37.1662
38.2003
39.1428
39.9801
40.7465
41.4491
42.098
42.6924
43.2298
43.7023
44.0995
44.4088
44.6184
44.72
44.7219
44.6235
44.4175
44.1144
43.7261
43.2647
42.74
42.1591
41.5238
40.8341
40.0795
39.2521
38.3181
37.2907
36.1526
34.9899
33.7627
32.7306
31.7009
31.344
33.3203
33.894
35.1293
36.2843
37.5961
38.805
39.9686
41.008
41.9532
42.8114
43.6054
44.3376
45.0128
45.6279
46.1782
46.6558
47.0514
47.3555
47.5595
47.6582
47.6615
47.5684
47.3695
47.0719
46.684
46.2155
45.6752
45.0706
44.406
43.6839
42.8991
42.0488
41.1095
40.0743
38.9133
37.7051
36.3926
35.2355
33.9981
33.4214
35.1024
35.891
37.2686
38.5328
39.9114
41.1662
42.3569
43.4189
44.3971
45.2932
46.1253
46.8931
47.599
48.2387
48.8071
49.2963
49.6984
50.0052
50.2102
50.3092
50.3129
50.2206
50.0213
49.7206
49.3256
48.8441
48.284
47.6529
46.9554
46.1958
45.3711
44.4813
43.5079
42.4485
41.2586
40.0028
38.6222
37.3543
35.9734
35.181
36.5713
37.5023
39.0135
40.3629
41.8111
43.1135
44.3433
45.4414
46.4626
47.4016
48.2745
49.0786
49.8156
50.4806
51.0684
51.5717
51.9835
52.2964
52.5049
52.6053
52.6092
52.5157
52.3131
52.0062
51.601
51.1045
50.5238
49.866
49.136
48.3385
47.4717
46.5379
45.5203
44.4244
43.1942
41.8897
40.438
39.0837
37.5678
36.6308
37.6102
38.6616
40.2742
41.7007
43.2123
44.5664
45.8427
46.9902
48.0595
49.0438
49.9577
50.7981
51.5658
52.2561
52.864
53.3826
53.8054
54.126
54.3392
54.4417
54.4456
54.3502
54.1428
53.8281
53.4114
52.899
52.2974
51.6134
50.8515
50.0167
49.1078
48.1275
47.061
45.9148
44.6373
43.2803
41.7648
40.3326
38.7151
37.6573
38.116
39.2551
40.9462
42.4386
44.0093
45.4166
46.7424
47.9396
49.0564
50.0846
51.0381
51.9132
52.7108
53.4259
54.0538
54.5882
55.0229
55.3521
55.5707
55.6754
55.6793
55.5815
55.3688
55.0455
54.6166
54.088
53.4658
52.7563
51.9639
51.0935
50.1442
49.1193
48.0047
46.8081
45.4803
44.0699
42.4945
40.9965
39.2998
38.1543
37.9591
39.1494
40.8867
42.4286
44.0489
45.5069
46.8823
48.1274
49.289
50.3586
51.3493
52.2574
53.0834
53.8226
54.4704
55.0208
55.4679
55.8059
56.0302
56.1377
56.1415
56.0411
55.8226
55.4903
55.049
54.5042
53.8619
53.1279
52.3067
51.403
50.4159
49.349
48.1891
46.9442
45.5666
44.1046
42.4795
40.9311
39.1881
37.9906
37.0155
38.2155
39.9599
41.5303
43.1855
44.6888
46.1106
47.3997
48.6018
49.7092
50.734
51.6725
52.5251
53.2872
53.9543
54.5204
54.9799
55.3272
55.5576
55.6679
55.6717
55.5687
55.3444
55.0032
54.5496
53.9893
53.3278
52.571
51.7232
50.7891
49.7681
48.6636
47.4631
46.1742
44.7503
43.2433
41.5835
40.007
38.257
37.0503
35.2517
36.4135
38.1144
39.6886
41.3611
42.9036
44.3684
45.6972
46.9351
48.0761
49.1312
50.0974
50.9745
51.7582
52.4436
53.0251
53.4969
53.8535
54.0901
54.2038
54.2078
54.1018
53.8718
53.5218
53.0565
52.4813
51.8019
51.0241
50.1522
49.1907
48.1396
47.0015
45.7656
44.4369
42.9696
41.4237
39.7467
38.168
36.4607
35.2958
32.9849
34.0575
35.6651
37.2062
38.8655
40.4277
41.9265
43.2962
44.5659
45.7363
46.8175
47.8073
48.7055
49.5076
50.209
50.8041
51.287
51.6521
51.8948
52.0119
52.0165
51.908
51.6732
51.3159
50.8407
50.2533
49.559
48.7639
47.8722
46.8883
45.8125
44.6464
43.3797
42.0114
40.5128
38.9495
37.2887
35.744
34.1344
33.0553
31.1914
32.1763
33.6872
35.1862
36.821
38.3876
39.9024
41.2963
42.5838
43.7706
44.8661
45.8689
46.7787
47.5912
48.3017
48.9045
49.3938
49.764
50.0105
50.13
50.1351
50.0253
49.788
49.4269
48.9466
48.3526
47.6506
46.8463
45.9442
44.9486
43.8597
42.6786
41.3955
40.0045
38.4916
36.9255
35.2908
33.7888
32.2772
31.2832
97.4297
62.5179
54.0664
57.386
63.3666
68.4131
72.5854
76.0699
79.0397
81.6583
84.0282
86.2186
88.2632
90.2117
92.0744
93.9057
95.7377
97.6155
99.5547
101.573
103.674
105.853
108.103
110.414
112.768
115.14
117.496
119.787
121.942
123.859
125.358
126.194
97.0688
61.7894
53.0121
55.9281
61.7796
66.7741
70.9219
74.3949
77.3568
79.9727
82.3313
84.4784
86.4878
88.3685
90.1797
91.9408
93.7073
95.5058
97.3732
99.3159
101.339
103.439
105.607
107.833
110.101
112.385
114.655
116.863
118.94
120.787
122.232
123.036
98.8114
63.1104
52.8456
54.635
60.2269
65.1551
69.2605
72.7203
75.6975
78.3177
80.657
82.7858
84.7342
86.5769
88.3162
90.0183
91.7124
93.4504
95.243
97.1102
99.054
101.072
103.157
105.299
107.479
109.677
111.86
113.985
115.983
117.762
119.153
119.926
97.3229
62.5382
51.9805
53.1622
58.5919
63.4818
67.592
71.0794
74.0695
76.6932
79.034
81.1199
83.0492
84.8226
86.5209
88.157
89.7943
91.4532
93.1778
94.9731
96.8438
98.7862
100.793
102.853
104.95
107.063
109.163
111.205
113.127
114.839
116.176
116.918
80.2197
61.98
51.7534
51.9075
57.0158
61.8588
65.949
69.4326
72.4531
75.1004
77.4199
79.5151
81.3831
83.138
84.7682
86.3556
87.9232
89.5336
91.1906
92.9162
94.7129
96.5783
98.5059
100.484
102.499
104.529
106.546
108.509
110.357
112.003
113.29
114.001
94.1974
62.135
50.8236
50.4133
55.3332
60.1454
64.261
67.8091
70.8615
73.5096
75.8595
77.908
79.791
81.4792
83.0861
84.6152
86.1419
87.6761
89.2715
90.9324
92.6629
94.46
96.3153
98.2184
100.155
102.105
104.044
105.93
107.706
109.288
110.525
111.206
78.8595
61.8828
50.8476
49.2013
53.7006
58.4871
62.6154
66.158
69.2412
71.9453
74.2657
76.3616
78.1857
79.887
81.4343
82.9309
84.3904
85.8916
87.4298
89.0283
90.6913
92.4154
94.1964
96.0225
97.8815
99.753
101.612
103.423
105.129
106.65
107.839
108.492
89.7135
61.1192
49.7346
47.6942
51.9331
56.685
60.8435
64.4891
67.6415
70.3333
72.734
74.7751
76.6536
78.296
79.8462
81.2949
82.7371
84.1669
85.6496
87.1913
88.7952
90.4596
92.1745
93.9318
95.7167
97.514
99.2993
101.037
102.675
104.135
105.277
105.901
75.9992
61.1047
49.8562
46.4568
50.1537
54.895
59.1268
62.7736
65.9422
68.7542
71.1054
73.2478
75.0639
76.758
78.2617
79.704
81.0812
82.4973
83.937
85.4247
86.9674
88.5621
90.2062
91.889
93.5992
95.3196
97.0279
98.6922
100.264
101.666
102.762
103.359
82.8378
59.343
48.7631
44.977
48.2116
52.897
57.1445
60.9419
64.2669
67.0346
69.5511
71.6269
73.5502
75.1839
76.723
78.1278
79.5224
80.8758
82.2655
83.7047
85.1958
86.7385
88.3224
89.9414
91.5805
93.2284
94.8652
96.4606
97.9652
99.3094
100.359
100.925
70.355
58.1708
48.1532
43.5639
46.1217
50.7786
55.2231
59.0638
62.3608
65.3782
67.8054
70.0608
71.9131
73.6531
75.1514
76.5815
77.9077
79.2674
80.633
82.0281
83.4633
84.9376
86.4511
87.9939
89.5586
91.13
92.6895
94.2104
95.6504
96.9393
97.9445
98.4844
76.1398
57.7291
47.3887
41.9501
43.8141
48.3778
52.7876
56.8505
60.5091
63.4086
66.1516
68.3217
70.3635
72.0322
73.6115
75.009
76.3948
77.6993
79.0176
80.3714
81.7635
83.1936
84.6526
86.1368
87.6326
89.1329
90.6232
92.0777
93.4519
94.6827
95.643
96.15
73.3788
57.8164
47.5745
40.565
41.1361
45.5404
50.4203
54.6494
58.1526
61.5767
64.1551
66.6355
68.5832
70.4477
71.9897
73.4589
74.7655
76.099
77.4174
78.7391
80.0786
81.4406
82.8274
84.2314
85.651
87.073
88.483
89.8604
91.1699
92.3462
93.2633
93.7469
70.9095
55.3807
46.1681
38.9463
38.1792
42.3284
46.9833
51.5756
55.9578
59.0864
62.2759
64.637
66.9237
68.6885
70.3821
71.8197
73.249
74.5388
75.8091
77.0953
78.4029
79.729
81.0679
82.4197
83.772
85.1239
86.4667
87.78
89.0239
90.1413
91.0133
91.4613
73.8073
56.9968
46.0854
36.9975
34.3753
37.7947
43.6517
48.7405
52.5897
56.9132
59.7811
62.7103
64.8447
66.9641
68.6199
70.2035
71.5301
72.8773
74.1826
75.4538
76.7086
77.9642
79.2249
80.487
81.7572
83.0247
84.2805
85.5102
86.6869
87.7508
88.5791
89.0061
63.4116
54.4224
45.5634
35.7192
29.8545
32.7231
37.5662
43.4965
49.7507
53.2633
57.4364
60.1727
62.9634
64.9231
66.8518
68.3934
69.9431
71.2639
72.5134
73.7518
74.9907
76.2192
77.4399
78.6579
79.8616
81.0589
82.2493
83.4177
84.5282
85.5306
86.3122
86.6989
44.5897
46.4339
41.7138
32.7949
23.8965
22.4209
31.6419
39.0841
43.5976
50.4479
53.8809
57.8109
60.2965
62.9272
64.808
66.6295
68.0265
69.4408
70.7778
72.0248
73.2041
74.3558
75.485
76.5937
77.7025
78.8033
79.8918
80.9625
81.9995
82.9469
83.686
84.0538
21.623
34.5168
34.6173
29.0231
14.9549
17.7379
10.7897
25.7592
39.5048
43.5605
50.557
54.0679
58.003
60.3419
62.7404
64.4804
66.274
67.6898
68.9503
70.1628
71.3484
72.4815
73.5804
74.6577
75.7003
76.7291
77.7557
78.7708
79.74
80.6212
81.3062
81.6283
12.1199
15.5669
14.9704
9.38581
15.8578
15.9816
17.4193
11.8545
19.6967
39.4096
44.0028
50.8862
54.085
57.8537
60.1607
62.4549
63.9929
65.5486
66.9796
68.2328
69.3424
70.3862
71.3665
72.2961
73.2185
74.1274
75.0228
75.9118
76.7939
77.6166
78.2651
78.5662
12.5999
10.6647
6.43941
6.6933
16.0531
17.0072
17.7977
18.4143
19.6703
16.2951
38.8109
43.8394
51.0265
54.1262
57.5581
59.6593
61.9235
63.537
64.8477
66.0581
67.2029
68.2346
69.2014
70.1217
70.9787
71.8135
72.6563
73.5033
74.3172
75.0641
75.6377
75.8917
4.29298
8.9202
13.4982
8.45245
8.84526
8.48151
8.75921
8.65779
19.9142
19.9197
8.39183
38.7254
43.745
50.7463
53.8915
57.1952
58.9865
60.8035
62.4251
63.7277
64.7675
65.6876
66.476
67.1753
67.8622
68.5311
69.1838
69.8466
70.5449
71.2296
71.7889
72.0043
8.6155
11.2
11.1161
9.22056
19.0348
20.6647
13.1897
14.0921
11.5681
9.32738
9.01729
13.9434
39.1605
43.9868
50.2955
53.0854
56.3311
58.3343
59.7547
60.9806
62.0969
63.0063
63.8238
64.5562
65.1846
65.7813
66.4089
67.0672
67.7041
68.2888
68.7244
68.9106
6.92945
16.1464
20.1748
22.4809
22.7267
17.0989
15.0008
14.8334
24.8561
23.4957
22.0905
21.9416
16.6491
39.1629
43.9382
49.8844
52.1103
54.4379
56.4324
57.8828
58.8312
59.5855
60.0872
60.4442
60.7911
61.1191
61.425
61.7669
62.2242
62.7666
63.2264
63.3177
8.74057
18.1253
23.0569
26.8162
29.3698
31.0516
29.2006
18.1808
7.19991
26.4865
10.001
15.9233
22.5552
17.3635
38.5024
42.5474
48.3493
51.1583
52.7986
54.0112
55.1402
55.891
56.5065
57.0097
57.3351
57.6184
57.9853
58.4406
58.8692
59.1973
59.5101
59.6148
9.15128
17.32
22.8358
27.1708
30.2597
31.7931
32.1942
32.6401
26.0146
30.2668
29.3463
13.1297
23.6857
22.3645
19.9165
38.2434
40.9637
44.5754
47.432
49.3469
50.09
50.5018
50.5465
50.2045
49.9295
49.6305
49.2972
49.0248
49.1033
49.6297
49.7947
49.7443
9.50145
16.4243
21.7675
26.0851
29.4338
31.932
33.2532
32.3439
31.505
25.5712
28.6347
5.86024
20.932
23.1703
23.0445
16.0451
34.9997
39.6876
41.7604
42.7287
43.9532
44.7003
44.8028
45.1456
44.9383
44.8293
44.8282
45.2567
45.3992
45.0159
45.6316
45.314
9.36024
16.2848
21.2235
25.2032
28.2502
30.3119
31.4256
32.1254
31.097
29.7501
17.5088
12.273
30.3139
25.1232
15.7208
13.6688
8.13273
23.8298
29.7788
33.4041
34.5796
32.8624
31.5057
28.4684
26.733
22.4604
20.5107
14.591
12.2524
15.2994
11.4506
15.4933
8.71002
15.5673
20.287
24.0753
26.9697
29.0278
30.1526
30.135
29.8725
28.1477
26.2691
27.3051
29.3954
12.5836
11.7499
16.2999
14.5671
24.7514
20.3661
23.8552
4.3676
13.5628
23.5611
14.0194
29.2328
20.7871
29.4055
7.14965
22.1737
8.85201
22.301
31.8455
8.12085
15.1358
19.5175
22.9511
25.5016
27.1833
28.0047
28.2471
27.8421
27.3104
23.5861
14.3383
17.9912
19.572
23.8186
25.1579
5.30572
23.8562
16.3062
25.9605
26.2462
19.9333
20.6338
22.1213
8.41745
21.4723
4.3513
30.8033
12.2165
31.7872
7.9511
23.3165
7.67912
14.9786
19.1185
22.2394
24.4877
25.9409
26.5889
26.4642
26.1525
25.6078
25.1961
22.0256
14.2358
5.40944
14.7027
25.9846
24.756
10.3219
20.2581
26.0105
19.6206
8.74935
11.5509
13.9374
30.9612
26.3944
18.6222
25.5806
9.37673
26.9874
18.4804
20.8747
7.19555
14.7801
18.8002
21.7162
23.7115
24.8826
25.3024
25.2224
24.937
24.6891
23.5317
21.959
21.8107
25.2183
12.3642
18.1416
12.3739
26.409
17.3839
27.843
11.1106
19.3626
27.6591
31.2896
27.3055
26.1102
15.9066
7.21813
29.8949
17.4163
30.1614
15.3999
6.89415
14.7351
18.6599
21.4146
23.2376
24.2714
24.6098
24.4668
24.361
24.4449
24.5656
23.4076
19.3198
14.8394
5.43776
25.3513
27.8459
10.0577
12.2282
21.5491
28.3937
7.92527
25.3879
16.6621
9.43161
26.821
29.4205
27.7086
17.1313
31.5455
36.4945
33.0688
6.49842
14.6151
18.4671
21.0689
22.7158
23.5859
23.8388
23.8199
23.9896
24.432
24.5898
24.3811
23.526
20.3744
15.995
10.9315
8.57663
25.4928
30.8162
24.2611
25.8314
10.1225
19.9038
23.5414
26.9586
28.0867
29.0783
29.0944
28.7884
27.5854
27.1491
25.391
6.18172
14.5087
18.2608
20.6935
22.1654
22.895
23.0776
23.1056
23.5794
24.5409
25.4551
25.8537
26.2057
27.276
28.4395
28.3464
28.404
27.1262
29.1985
28.4773
30.5659
34.031
33.4568
34.0329
34.1771
34.2812
34.0733
33.9284
33.6031
32.7804
32.1296
31.4732
5.75064
14.1847
17.8227
20.0662
21.3294
21.8616
21.9067
21.9606
22.7128
24.1772
25.6168
26.4315
26.2259
25.345
25.2848
27.0735
28.7643
30.2739
31.4302
31.9979
32.1043
32.1284
32.8475
33.1355
33.5194
33.6585
33.6576
33.3537