/*--------------------------------*- C++ -*----------------------------------*\
  =========                 |
  \\      /  F ield         | OpenFOAM: The Open Source CFD Toolbox
   \\    /   O peration     | Website:  https://openfoam.org
    \\  /    A nd           | Version:  6
     \\/     M anipulation  |
\*---------------------------------------------------------------------------*/
FoamFile
{
    version     2.0;
    format      ascii;
    class       volScalarField;
    location    "1.4";
    object      nut;
}
// * * * * * * * * * * * * * * * * * * * * * * * * * * * * * * * * * * * * * //

dimensions      [0 2 -1 0 0 0 0];

internalField   nonuniform List<scalar> 
63552
(
5.93522e-06
5.9641e-06
3.42815e-06
3.5604e-06
5.42386e-06
5.80836e-06
6.00655e-06
6.33059e-06
3.64839e-06
8.13762e-06
4.38683e-06
9.89547e-06
4.7206e-06
5.10934e-06
6.62101e-06
4.53851e-06
4.73683e-06
3.3666e-06
5.89412e-06
4.9214e-06
3.76701e-06
5.63752e-06
3.57868e-06
3.96093e-06
7.5454e-06
4.38136e-06
8.81817e-06
4.75802e-06
5.38613e-06
8.57832e-06
5.00514e-06
4.0964e-06
6.08698e-06
3.44715e-06
6.50459e-06
5.59408e-06
5.60697e-06
3.69226e-06
3.77654e-06
7.45871e-06
3.56126e-06
4.71598e-06
5.11679e-06
1.35538e-05
4.02604e-08
1.22632e-07
4.66301e-06
4.77718e-06
4.55893e-06
3.65727e-06
5.42851e-06
3.71347e-06
7.38481e-06
7.5849e-06
4.32925e-06
4.4395e-06
4.72675e-06
1.22858e-05
2.18844e-06
1.99704e-06
5.77852e-06
4.95585e-06
3.58721e-06
5.17703e-06
3.73982e-06
6.26444e-06
3.75271e-06
4.04702e-06
4.49153e-06
8.22271e-06
5.90795e-06
1.76331e-07
4.4305e-06
3.13209e-06
5.05522e-06
5.28016e-06
3.42955e-06
5.49075e-06
6.41841e-06
7.24424e-06
4.03379e-06
4.60662e-06
3.90146e-06
7.31566e-06
4.71625e-07
3.41146e-07
1.48331e-07
2.26589e-06
4.18418e-06
3.60303e-06
5.59542e-06
3.76242e-06
6.1254e-06
4.37953e-06
4.52317e-06
5.05476e-06
6.6896e-06
9.06402e-07
2.48691e-07
1.79176e-07
3.65398e-07
4.5194e-06
4.95748e-06
3.6928e-06
5.9426e-06
7.46032e-06
4.30605e-06
8.56264e-06
6.74238e-06
7.84061e-10
7.23403e-07
1.07178e-06
1.42153e-06
1.38798e-06
3.44838e-06
4.81806e-06
5.64737e-06
6.10753e-06
4.27195e-06
7.22286e-06
1.04389e-05
2.73986e-07
1.73039e-07
5.39845e-07
1.42617e-06
2.4914e-06
3.53266e-06
4.84922e-06
3.64948e-06
5.84203e-06
4.15318e-06
6.83319e-06
5.55044e-06
1.27555e-07
2.64798e-07
1.13297e-07
3.30567e-07
1.8287e-07
9.07742e-07
5.02128e-06
4.56892e-06
5.58144e-06
4.02913e-06
6.35107e-06
6.00808e-06
1.39221e-07
3.14293e-07
5.30118e-07
1.08265e-06
1.61505e-06
1.54072e-06
3.52614e-06
6.28432e-06
4.0649e-06
3.7505e-06
2.84593e-06
1.5162e-07
1.64064e-07
2.25019e-07
1.74551e-07
5.30379e-07
2.42318e-06
3.65923e-06
5.54322e-06
6.54801e-06
5.45185e-06
6.47589e-06
1.29675e-07
1.79061e-07
2.43966e-07
4.63956e-07
6.73056e-07
6.46108e-07
2.67294e-06
3.5705e-06
3.73217e-06
5.56185e-06
5.67224e-07
1.19016e-07
1.52989e-07
2.07742e-07
2.92609e-07
5.10717e-07
1.15947e-06
1.79981e-06
3.98889e-06
4.78239e-06
5.33452e-06
1.75447e-06
1.12252e-07
1.42789e-07
1.90264e-07
2.86746e-07
4.34616e-07
7.3053e-07
1.60639e-06
3.16358e-06
4.8193e-06
3.2649e-06
5.41168e-07
1.05847e-07
1.34556e-07
1.7709e-07
2.58851e-07
4.00077e-07
7.00722e-07
1.30693e-06
2.63453e-06
3.76363e-06
3.2791e-06
1.0184e-06
1.02367e-07
1.2895e-07
1.6849e-07
2.45033e-07
3.69605e-07
6.33926e-07
1.19512e-06
2.35893e-06
3.4159e-06
2.78283e-06
8.14647e-07
1.25408e-07
1.63222e-07
2.3563e-07
3.53354e-07
5.9972e-07
1.11313e-06
2.18547e-06
3.16393e-06
2.63044e-06
7.93217e-07
1.23763e-07
1.60654e-07
2.31398e-07
3.45395e-07
5.83934e-07
1.07777e-06
2.10753e-06
3.05218e-06
2.53795e-06
7.73255e-07
5.15197e-06
5.62323e-06
5.03079e-06
5.31853e-06
5.72531e-06
6.04984e-06
6.37098e-06
7.1028e-06
7.7514e-06
1.02189e-05
1.16925e-05
1.8408e-05
2.54326e-05
3.00162e-05
2.17442e-05
4.55397e-06
5.14939e-06
4.55367e-06
5.38149e-06
5.61381e-06
6.08325e-06
6.59276e-06
7.10973e-06
8.29657e-06
1.05536e-05
1.26885e-05
1.93234e-05
2.5626e-05
2.98776e-05
2.10812e-05
4.68708e-06
4.0631e-06
5.09872e-06
5.51045e-06
6.23357e-06
6.59978e-06
7.45819e-06
8.2361e-06
1.00913e-05
1.32247e-05
1.80778e-05
2.5227e-05
2.87409e-05
2.03797e-05
3.67775e-06
3.47032e-06
4.69159e-06
5.62749e-06
6.01794e-06
6.62074e-06
7.74872e-06
8.72265e-06
1.14169e-05
1.37408e-05
1.91347e-05
2.66625e-05
3.03961e-05
1.95493e-05
4.25964e-06
4.34972e-06
5.57239e-06
6.09322e-06
6.50151e-06
7.7501e-06
8.80858e-06
1.128e-05
1.33085e-05
1.91699e-05
2.72714e-05
3.23139e-05
1.88198e-05
3.02011e-06
4.8659e-06
4.62839e-06
5.71671e-06
6.72335e-06
7.82023e-06
9.50871e-06
1.17924e-05
1.49946e-05
2.02947e-05
2.76834e-05
3.11466e-05
1.83341e-05
4.27204e-06
3.40782e-06
3.96448e-06
5.01519e-06
6.29188e-06
7.8866e-06
9.62625e-06
1.12456e-05
1.47192e-05
2.07331e-05
2.76552e-05
3.20298e-05
1.78017e-05
4.51355e-06
4.79226e-06
5.19672e-06
6.00275e-06
8.13421e-06
9.92115e-06
1.18658e-05
1.538e-05
2.24343e-05
2.88473e-05
3.36869e-05
1.69146e-05
3.78555e-06
4.45193e-06
5.47491e-06
6.48539e-06
7.74162e-06
9.75445e-06
1.24553e-05
1.55256e-05
2.2603e-05
2.90511e-05
3.36478e-05
1.64989e-05
4.4499e-06
4.70262e-06
5.37211e-06
6.44231e-06
8.25723e-06
1.0132e-05
1.29357e-05
1.54761e-05
2.30172e-05
2.96097e-05
3.39977e-05
1.55765e-05
4.15778e-06
4.76454e-06
5.54766e-06
6.48111e-06
7.98478e-06
1.00091e-05
1.32734e-05
1.64537e-05
2.3562e-05
3.04378e-05
3.39559e-05
1.51752e-05
4.83584e-06
5.67304e-06
6.70359e-06
8.3348e-06
1.03085e-05
1.30536e-05
1.65337e-05
2.42591e-05
3.16099e-05
3.32899e-05
1.48099e-05
4.93806e-06
5.73446e-06
6.76145e-06
8.39497e-06
1.03796e-05
1.34073e-05
1.73456e-05
2.44843e-05
3.31988e-05
3.47571e-05
1.45389e-05
5.02309e-06
5.85606e-06
6.89885e-06
8.50464e-06
1.04821e-05
1.35323e-05
1.74823e-05
2.39563e-05
3.19942e-05
3.5288e-05
1.43172e-05
5.06851e-06
5.92675e-06
6.97127e-06
8.6454e-06
1.06638e-05
1.35584e-05
1.76843e-05
2.53958e-05
3.3537e-05
3.53197e-05
1.39789e-05
5.15924e-06
5.99712e-06
7.07195e-06
8.72473e-06
1.07118e-05
1.37904e-05
1.78247e-05
2.55762e-05
3.42818e-05
3.56677e-05
1.40068e-05
5.18614e-06
6.05767e-06
7.13021e-06
8.79836e-06
1.08276e-05
1.38197e-05
1.79731e-05
2.57145e-05
3.44092e-05
3.57737e-05
1.3665e-05
5.23384e-06
6.10272e-06
7.18086e-06
8.86509e-06
1.08772e-05
1.39244e-05
1.80617e-05
2.58404e-05
3.4575e-05
3.5919e-05
1.36182e-05
6.13057e-06
7.21614e-06
8.90088e-06
1.0922e-05
1.39701e-05
1.81335e-05
2.59139e-05
3.46753e-05
3.59968e-05
1.35142e-05
6.1466e-06
7.23268e-06
8.92224e-06
1.09414e-05
1.39993e-05
1.81686e-05
2.59473e-05
3.47236e-05
3.60413e-05
1.34665e-05
9.24068e-06
9.76299e-06
9.69882e-06
1.0316e-05
1.09959e-05
1.22831e-05
1.37789e-05
1.67755e-05
2.03658e-05
2.64545e-05
3.25496e-05
4.85364e-05
6.90325e-05
7.34732e-05
2.40486e-05
9.27186e-06
9.76693e-06
9.8055e-06
1.0672e-05
1.15233e-05
1.2978e-05
1.48206e-05
1.80715e-05
2.18169e-05
2.81341e-05
3.496e-05
5.12285e-05
7.03284e-05
7.33559e-05
2.3303e-05
9.69388e-06
9.81654e-06
1.07155e-05
1.15964e-05
1.31202e-05
1.49508e-05
1.81484e-05
2.1931e-05
2.80745e-05
3.48775e-05
5.067e-05
7.0627e-05
7.40711e-05
2.3019e-05
9.82415e-06
1.00592e-05
1.10249e-05
1.21003e-05
1.37942e-05
1.5855e-05
1.93644e-05
2.32572e-05
2.99432e-05
3.66339e-05
5.28759e-05
7.30197e-05
7.44956e-05
2.23229e-05
1.02286e-05
1.11532e-05
1.21926e-05
1.39635e-05
1.61238e-05
1.96327e-05
2.34933e-05
3.0134e-05
3.70241e-05
5.32156e-05
7.35348e-05
7.5323e-05
2.20099e-05
1.03814e-05
1.14397e-05
1.25537e-05
1.4629e-05
1.71099e-05
2.07197e-05
2.48827e-05
3.13001e-05
3.88399e-05
5.5184e-05
7.4923e-05
7.53671e-05
2.138e-05
1.06754e-05
1.1564e-05
1.27549e-05
1.48113e-05
1.73085e-05
2.113e-05
2.52657e-05
3.16308e-05
3.90461e-05
5.59357e-05
7.5716e-05
7.59723e-05
2.1064e-05
1.18948e-05
1.30983e-05
1.52831e-05
1.79878e-05
2.21117e-05
2.64472e-05
3.2832e-05
4.03669e-05
5.77569e-05
7.734e-05
7.66619e-05
2.05232e-05
1.21185e-05
1.33974e-05
1.54846e-05
1.80144e-05
2.23257e-05
2.6983e-05
3.36313e-05
4.10364e-05
5.8537e-05
7.7813e-05
7.68178e-05
2.02221e-05
1.2385e-05
1.36919e-05
1.6e-05
1.87977e-05
2.29079e-05
2.8014e-05
3.4607e-05
4.20984e-05
5.94147e-05
7.88913e-05
7.71646e-05
1.9781e-05
1.26299e-05
1.39752e-05
1.62246e-05
1.89818e-05
2.34086e-05
2.83787e-05
3.54653e-05
4.32211e-05
6.05168e-05
7.99555e-05
7.72982e-05
1.94982e-05
1.42857e-05
1.65704e-05
1.93412e-05
2.35625e-05
2.88124e-05
3.61442e-05
4.40356e-05
6.15399e-05
8.12222e-05
7.73935e-05
1.91165e-05
1.44404e-05
1.68286e-05
1.97404e-05
2.42823e-05
2.93894e-05
3.64916e-05
4.52061e-05
6.24142e-05
8.22003e-05
7.78774e-05
1.88519e-05
1.47739e-05
1.70947e-05
1.99668e-05
2.42485e-05
2.95075e-05
3.72981e-05
4.57472e-05
6.30791e-05
8.24353e-05
7.82896e-05
1.8574e-05
1.48568e-05
1.73043e-05
2.02141e-05
2.47613e-05
3.00446e-05
3.71436e-05
4.63867e-05
6.43964e-05
8.34942e-05
7.84454e-05
1.83756e-05
1.51045e-05
1.74879e-05
2.0451e-05
2.49051e-05
3.01455e-05
3.78323e-05
4.66926e-05
6.50237e-05
8.45123e-05
7.8795e-05
1.81472e-05
1.51878e-05
1.76375e-05
2.06099e-05
2.51059e-05
3.04422e-05
3.7863e-05
4.70996e-05
6.54494e-05
8.49719e-05
7.88151e-05
1.80201e-05
1.53062e-05
1.7759e-05
2.07361e-05
2.52636e-05
3.05671e-05
3.8112e-05
4.72999e-05
6.57589e-05
8.52827e-05
7.89571e-05
1.78844e-05
1.78293e-05
2.08257e-05
2.53552e-05
3.06798e-05
3.82175e-05
4.74722e-05
6.59605e-05
8.54982e-05
7.90075e-05
1.7806e-05
1.78705e-05
2.08685e-05
2.54067e-05
3.07304e-05
3.82812e-05
4.75526e-05
6.60554e-05
8.56029e-05
7.90423e-05
1.7759e-05
1.62389e-05
1.68864e-05
1.71657e-05
1.83262e-05
1.92792e-05
2.16592e-05
2.42559e-05
2.9714e-05
3.58259e-05
4.70396e-05
5.77502e-05
8.54111e-05
0.000119693
0.000114312
2.74544e-05
1.6503e-05
1.72261e-05
1.76682e-05
1.90179e-05
2.02192e-05
2.28163e-05
2.58485e-05
3.16892e-05
3.81679e-05
4.96551e-05
6.12254e-05
8.95109e-05
0.000121812
0.000112995
2.6721e-05
1.7373e-05
1.77727e-05
1.91156e-05
2.02804e-05
2.29164e-05
2.58896e-05
3.16083e-05
3.8023e-05
4.94899e-05
6.08011e-05
8.91018e-05
0.000122608
0.000114685
2.64101e-05
1.76843e-05
1.81996e-05
1.9669e-05
2.10807e-05
2.39533e-05
2.7268e-05
3.33554e-05
4.00773e-05
5.18003e-05
6.35485e-05
9.22086e-05
0.000124874
0.000114031
2.57258e-05
1.8409e-05
1.98804e-05
2.12446e-05
2.41525e-05
2.74694e-05
3.35291e-05
4.01958e-05
5.1982e-05
6.38493e-05
9.27223e-05
0.000125678
0.000114791
2.5382e-05
1.88391e-05
2.03148e-05
2.19153e-05
2.50701e-05
2.86872e-05
3.49519e-05
4.20648e-05
5.37381e-05
6.60473e-05
9.51689e-05
0.000127348
0.000114653
2.47632e-05
1.8959e-05
2.05818e-05
2.21682e-05
2.52938e-05
2.88405e-05
3.52501e-05
4.23725e-05
5.42526e-05
6.65049e-05
9.6188e-05
0.000128513
0.000114893
2.44108e-05
2.10003e-05
2.26416e-05
2.59041e-05
2.97505e-05
3.63713e-05
4.38851e-05
5.57325e-05
6.83029e-05
9.81513e-05
0.000129963
0.00011495
2.38721e-05
2.12911e-05
2.30472e-05
2.62406e-05
2.99498e-05
3.66288e-05
4.43547e-05
5.64662e-05
6.92063e-05
9.92592e-05
0.000130777
0.000114907
2.35305e-05
2.16457e-05
2.33809e-05
2.68102e-05
3.08522e-05
3.74898e-05
4.54844e-05
5.76138e-05
7.06967e-05
0.000100608
0.000131917
0.000114935
2.30818e-05
2.19084e-05
2.37862e-05
2.71535e-05
3.10433e-05
3.79062e-05
4.58521e-05
5.83665e-05
7.18091e-05
0.000101996
0.000132937
0.000114857
2.27676e-05
2.41543e-05
2.75613e-05
3.1622e-05
3.83825e-05
4.66081e-05
5.91609e-05
7.29144e-05
0.000103295
0.000134007
0.000114822
2.24098e-05
2.43472e-05
2.7873e-05
3.2038e-05
3.90529e-05
4.7149e-05
5.9711e-05
7.39843e-05
0.00010451
0.000134829
0.000114801
2.21275e-05
2.47682e-05
2.82498e-05
3.23924e-05
3.9192e-05
4.75009e-05
6.04294e-05
7.47257e-05
0.000105613
0.000135567
0.000114841
2.18569e-05
2.48788e-05
2.84711e-05
3.26764e-05
3.97568e-05
4.81201e-05
6.05536e-05
7.54344e-05
0.000106662
0.000136318
0.000114791
2.16322e-05
2.51778e-05
2.87299e-05
3.2996e-05
3.99958e-05
4.82957e-05
6.1245e-05
7.59122e-05
0.000107432
0.00013714
0.000114791
2.14411e-05
2.52941e-05
2.89018e-05
3.32011e-05
4.02337e-05
4.86886e-05
6.13757e-05
7.64008e-05
0.000107979
0.000137587
0.0001147
2.12783e-05
2.54359e-05
2.90641e-05
3.33632e-05
4.04467e-05
4.88623e-05
6.16768e-05
7.66895e-05
0.000108374
0.000137889
0.000114676
2.11619e-05
2.91494e-05
3.34797e-05
4.05645e-05
4.90167e-05
6.18202e-05
7.6915e-05
0.000108638
0.000138096
0.000114635
2.10778e-05
2.92018e-05
3.35356e-05
4.06314e-05
4.90871e-05
6.19016e-05
7.70215e-05
0.000108764
0.000138196
0.00011461
2.10324e-05
2.48568e-05
2.58344e-05
2.61978e-05
2.78899e-05
2.88841e-05
3.2146e-05
3.49959e-05
4.23282e-05
4.95645e-05
6.58076e-05
8.009e-05
0.000121542
0.0001707
0.000153597
2.99975e-05
2.52437e-05
2.63174e-05
2.6862e-05
2.87068e-05
3.00179e-05
3.34903e-05
3.68432e-05
4.45602e-05
5.24763e-05
6.90102e-05
8.44695e-05
0.000126905
0.000173187
0.000150728
2.92522e-05
2.65055e-05
2.69792e-05
2.88243e-05
3.00519e-05
3.35301e-05
3.67562e-05
4.43441e-05
5.2034e-05
6.85626e-05
8.36324e-05
0.000126303
0.000174183
0.000153145
2.89062e-05
2.69033e-05
2.75244e-05
2.94737e-05
3.09844e-05
3.46612e-05
3.83098e-05
4.62102e-05
5.44972e-05
7.11574e-05
8.70385e-05
0.000130113
0.000176269
0.000151927
2.82179e-05
2.77629e-05
2.9724e-05
3.11616e-05
3.48583e-05
3.84073e-05
4.6262e-05
5.4408e-05
7.1191e-05
8.70543e-05
0.000130696
0.000177346
0.000152637
2.78436e-05
2.82491e-05
3.02156e-05
3.191e-05
3.57771e-05
3.96976e-05
4.77372e-05
5.64827e-05
7.32226e-05
8.96827e-05
0.000133522
0.000179004
0.000152186
2.72304e-05
2.84494e-05
3.05251e-05
3.21961e-05
3.6057e-05
3.98645e-05
4.79738e-05
5.66374e-05
7.3601e-05
9.01537e-05
0.000134711
0.000180233
0.000152144
2.68494e-05
3.10049e-05
3.27872e-05
3.67206e-05
4.08935e-05
4.91312e-05
5.82883e-05
7.51996e-05
9.22557e-05
0.000136885
0.000181555
0.000151865
2.63217e-05
3.12877e-05
3.31469e-05
3.71223e-05
4.11985e-05
4.9461e-05
5.86257e-05
7.57647e-05
9.31335e-05
0.000138244
0.000182547
0.000151565
2.59529e-05
3.17403e-05
3.36031e-05
3.76765e-05
4.20618e-05
5.03678e-05
5.98698e-05
7.69684e-05
9.47949e-05
0.000139949
0.000183638
0.000151293
2.55128e-05
3.19381e-05
3.39822e-05
3.81021e-05
4.23545e-05
5.07766e-05
6.02638e-05
7.75786e-05
9.58309e-05
0.000141462
0.000184602
0.000150952
2.51751e-05
3.44331e-05
3.85119e-05
4.30021e-05
5.14264e-05
6.11875e-05
7.8461e-05
9.7071e-05
0.000142937
0.00018553
0.000150656
2.48186e-05
3.46274e-05
3.8847e-05
4.34047e-05
5.1976e-05
6.16802e-05
7.90469e-05
9.8046e-05
0.000144278
0.000186312
0.00015034
2.4528e-05
3.50711e-05
3.92767e-05
4.38619e-05
5.22996e-05
6.22366e-05
7.96989e-05
9.8926e-05
0.000145478
0.000187055
0.000150077
2.42517e-05
3.52296e-05
3.94936e-05
4.41355e-05
5.27987e-05
6.2813e-05
8.00585e-05
9.96596e-05
0.000146472
0.000187666
0.000149801
2.40234e-05
3.55232e-05
3.97898e-05
4.45062e-05
5.31232e-05
6.31065e-05
8.06335e-05
0.00010027
0.000147297
0.000188259
0.000149568
2.38225e-05
3.56752e-05
3.99666e-05
4.47312e-05
5.3363e-05
6.35119e-05
8.08804e-05
0.000100791
0.000147923
0.000188639
0.000149344
2.3666e-05
3.58219e-05
4.01479e-05
4.49137e-05
5.36005e-05
6.37313e-05
8.11819e-05
0.000101152
0.000148378
0.0001889
0.000149174
2.35421e-05
4.02387e-05
4.50413e-05
5.37293e-05
6.39059e-05
8.1348e-05
0.000101409
0.000148683
0.000189071
0.000149037
2.34592e-05
4.02955e-05
4.51042e-05
5.38025e-05
6.39884e-05
8.14369e-05
0.000101533
0.000148829
0.00018915
0.000148946
2.34135e-05
3.4785e-05
3.61057e-05
3.64666e-05
3.86349e-05
3.95144e-05
4.35509e-05
4.59555e-05
5.46513e-05
6.11062e-05
8.1585e-05
9.62204e-05
0.000153176
0.000220234
0.000195686
3.19995e-05
3.52736e-05
3.66523e-05
3.72162e-05
3.94997e-05
4.07544e-05
4.49195e-05
4.78959e-05
5.68417e-05
6.42656e-05
8.49662e-05
0.000101282
0.000159837
0.000223009
0.000191134
3.12474e-05
3.68427e-05
3.73453e-05
3.96395e-05
4.07763e-05
4.49425e-05
4.77468e-05
5.65977e-05
6.364e-05
8.42972e-05
9.99102e-05
0.000158789
0.000224038
0.000194154
3.08713e-05
3.72931e-05
3.79644e-05
4.03096e-05
4.1769e-05
4.60441e-05
4.93525e-05
5.83487e-05
6.62384e-05
8.6882e-05
0.000103723
0.000163216
0.000226119
0.00019262
3.01849e-05
3.81957e-05
4.05863e-05
4.19593e-05
4.62631e-05
4.94244e-05
5.84069e-05
6.60358e-05
8.67848e-05
0.000103399
0.000163775
0.000227325
0.00019315
2.97821e-05
3.87431e-05
4.11033e-05
4.27484e-05
4.71185e-05
5.07285e-05
5.97741e-05
6.81519e-05
8.87593e-05
0.000106294
0.000166925
0.000228978
0.000192513
2.91774e-05
3.89876e-05
4.14425e-05
4.30555e-05
4.74642e-05
5.09446e-05
6.00467e-05
6.82453e-05
8.90111e-05
0.000106611
0.00016823
0.000230201
0.000192191
2.87706e-05
4.19207e-05
4.3703e-05
4.80983e-05
5.19883e-05
6.11104e-05
6.9916e-05
9.05187e-05
0.000108846
0.000170629
0.000231508
0.000191671
2.82516e-05
4.22405e-05
4.40344e-05
4.8534e-05
5.23416e-05
6.15102e-05
7.02228e-05
9.09594e-05
0.000109584
0.000172181
0.000232567
0.000191106
2.78629e-05
4.26908e-05
4.45766e-05
4.90586e-05
5.31679e-05
6.23234e-05
7.14968e-05
9.20977e-05
0.000111313
0.000174125
0.000233633
0.000190558
2.74279e-05
4.29027e-05
4.49055e-05
4.95027e-05
5.3538e-05
6.2779e-05
7.19303e-05
9.26159e-05
0.000112237
0.000175725
0.000234561
0.000189956
2.70772e-05
4.54222e-05
4.99101e-05
5.41793e-05
6.34109e-05
7.28819e-05
9.34737e-05
0.000113544
0.000177337
0.000235422
0.000189398
2.67219e-05
4.56151e-05
5.02439e-05
5.45759e-05
6.38953e-05
7.33737e-05
9.40011e-05
0.000114452
0.000178747
0.000236166
0.000188833
2.6424e-05
4.60488e-05
5.06688e-05
5.50787e-05
6.42998e-05
7.40159e-05
9.46085e-05
0.000115408
0.000180014
0.000236831
0.000188324
2.61467e-05
4.62503e-05
5.08963e-05
5.53447e-05
6.47146e-05
7.45305e-05
9.50343e-05
0.000116156
0.000181068
0.000237371
0.000187842
2.59138e-05
4.6525e-05
5.11868e-05
5.57288e-05
6.50704e-05
7.49188e-05
9.54993e-05
0.000116831
0.000181958
0.000237835
0.000187418
2.57134e-05
4.67015e-05
5.13687e-05
5.59595e-05
6.53005e-05
7.52919e-05
9.57924e-05
0.000117369
0.000182659
0.000238166
0.000187048
2.55517e-05
4.68511e-05
5.1549e-05
5.61527e-05
6.55308e-05
7.55424e-05
9.60635e-05
0.000117772
0.000183177
0.000238395
0.000186747
2.54291e-05
5.16409e-05
5.62804e-05
6.56584e-05
7.57194e-05
9.6228e-05
0.000118045
0.000183521
0.000238539
0.000186513
2.53444e-05
5.16971e-05
5.63458e-05
6.57298e-05
7.58065e-05
9.6313e-05
0.000118178
0.000183686
0.0002386
0.000186357
2.52989e-05
4.61007e-05
4.76231e-05
4.80745e-05
5.05809e-05
5.13833e-05
5.60835e-05
5.77854e-05
6.7726e-05
7.17544e-05
9.60067e-05
0.000105741
0.00017986
0.000268836
0.000242127
3.36072e-05
4.66763e-05
4.82156e-05
4.8893e-05
5.14602e-05
5.26981e-05
5.74022e-05
5.97799e-05
6.96918e-05
7.49813e-05
9.9122e-05
0.000111208
0.000187987
0.000272
0.00023568
3.28527e-05
4.83903e-05
4.90185e-05
5.16062e-05
5.27143e-05
5.74356e-05
5.9608e-05
6.95147e-05
7.42973e-05
9.84465e-05
0.000109265
0.000186367
0.000273023
0.000239056
3.2452e-05
4.88739e-05
4.96901e-05
5.2271e-05
5.37526e-05
5.84592e-05
6.12391e-05
7.10244e-05
7.6898e-05
0.000100688
0.000113262
0.000191406
0.000275231
0.000237285
3.17714e-05
4.99081e-05
5.25626e-05
5.39537e-05
5.87108e-05
6.13184e-05
7.11599e-05
7.66908e-05
0.000100594
0.000112571
0.000191958
0.000276521
0.000237473
3.13469e-05
5.0508e-05
5.30908e-05
5.4778e-05
5.94813e-05
6.26264e-05
7.23135e-05
7.87694e-05
0.000102236
0.000115546
0.000195419
0.000278236
0.000236631
3.07502e-05
5.0755e-05
5.344e-05
5.50868e-05
5.98695e-05
6.28772e-05
7.26503e-05
7.88927e-05
0.000102461
0.000115642
0.000196893
0.000279504
0.000235955
3.03261e-05
5.3911e-05
5.57729e-05
6.0447e-05
6.39063e-05
7.35281e-05
8.05113e-05
0.00010368
0.00011788
0.000199536
0.000280866
0.000235141
2.98124e-05
5.42599e-05
5.60956e-05
6.08953e-05
6.42833e-05
7.3974e-05
8.08558e-05
0.000104058
0.000118455
0.000201309
0.000281983
0.000234247
2.94118e-05
5.46791e-05
5.66783e-05
6.13777e-05
6.50904e-05
7.46407e-05
8.20875e-05
0.00010498
0.000120167
0.000203478
0.000283075
0.000233374
2.89782e-05
5.49411e-05
5.69856e-05
6.18094e-05
6.54937e-05
7.51158e-05
8.25699e-05
0.000105419
0.000120988
0.000205242
0.000284012
0.000232462
2.862e-05
5.75182e-05
6.2207e-05
6.61215e-05
7.56471e-05
8.34822e-05
0.000106115
0.000122291
0.000207034
0.000284867
0.0002316
2.8264e-05
5.77342e-05
6.25299e-05
6.65115e-05
7.60878e-05
8.40007e-05
0.000106548
0.00012315
0.000208581
0.0002856
0.000230758
2.7962e-05
5.81403e-05
6.29143e-05
6.70172e-05
7.64859e-05
8.46465e-05
0.000107049
0.000124122
0.000209991
0.000286233
0.000229986
2.76827e-05
5.83672e-05
6.31571e-05
6.72969e-05
7.68288e-05
8.5126e-05
0.000107419
0.000124869
0.000211184
0.000286751
0.000229275
2.7447e-05
5.86313e-05
6.3422e-05
6.76655e-05
7.71623e-05
8.55592e-05
0.000107776
0.000125559
0.000212195
0.000287171
0.000228649
2.72446e-05
5.88157e-05
6.36072e-05
6.78995e-05
7.73776e-05
8.59009e-05
0.000108035
0.000126101
0.000213003
0.000287485
0.000228111
2.70823e-05
5.89733e-05
6.37767e-05
6.80972e-05
7.75804e-05
8.6164e-05
0.000108251
0.000126519
0.000213607
0.000287703
0.00022767
2.69575e-05
6.38669e-05
6.82207e-05
7.76971e-05
8.63359e-05
0.000108387
0.000126797
0.000214006
0.000287834
0.000227331
2.68725e-05
6.39193e-05
6.82858e-05
7.77612e-05
8.64229e-05
0.000108456
0.000126932
0.000214197
0.000287887
0.000227106
2.68266e-05
5.899e-05
6.04393e-05
6.12854e-05
6.37779e-05
6.49088e-05
6.98513e-05
7.13032e-05
8.22435e-05
8.35704e-05
0.000111873
0.000111791
0.000206465
0.000319097
0.000290861
3.50039e-05
5.96375e-05
6.10841e-05
6.2166e-05
6.46676e-05
6.62788e-05
7.11026e-05
7.33697e-05
8.39245e-05
8.6889e-05
0.000114399
0.000117613
0.000216319
0.000322635
0.000282193
3.42435e-05
6.12239e-05
6.22738e-05
6.47935e-05
6.62906e-05
7.11412e-05
7.31862e-05
8.38229e-05
8.61933e-05
0.000113917
0.000115113
0.000214322
0.000323785
0.000285563
3.38253e-05
6.1741e-05
6.29856e-05
6.54603e-05
6.73663e-05
7.20826e-05
7.48509e-05
8.50564e-05
8.88177e-05
0.000115582
0.00011925
0.000220005
0.000326169
0.000283498
3.31455e-05
6.31891e-05
6.57421e-05
6.75743e-05
7.23497e-05
7.49453e-05
8.52537e-05
8.86568e-05
0.000115609
0.000118238
0.000220831
0.000327616
0.000283168
3.27062e-05
6.38167e-05
6.62795e-05
6.84291e-05
7.30454e-05
7.62627e-05
8.6166e-05
9.07199e-05
0.000116746
0.000121255
0.000224662
0.000329452
0.000281992
3.2111e-05
6.40598e-05
6.66242e-05
6.87346e-05
7.34435e-05
7.65426e-05
8.65349e-05
9.09187e-05
0.000117004
0.000121197
0.000226551
0.00033085
0.000280857
3.16757e-05
6.70958e-05
6.94487e-05
7.39733e-05
7.75632e-05
8.72157e-05
9.25066e-05
0.000117816
0.000123427
0.000229546
0.000332311
0.00027963
3.1162e-05
6.74506e-05
6.97717e-05
7.44106e-05
7.7955e-05
8.76612e-05
9.29263e-05
0.000118144
0.000123941
0.000231731
0.000333529
0.000278315
3.07533e-05
6.78565e-05
7.03704e-05
7.48543e-05
7.87541e-05
8.81849e-05
9.41193e-05
0.00011875
0.000125627
0.000234243
0.000334688
0.000277031
3.03181e-05
6.8155e-05
7.06772e-05
7.52605e-05
7.91712e-05
8.86284e-05
9.467e-05
0.000119085
0.000126452
0.000236359
0.000335684
0.000275732
2.99537e-05
7.11907e-05
7.56388e-05
7.97898e-05
8.90573e-05
9.55496e-05
0.000119543
0.000127753
0.000238465
0.000336576
0.000274501
2.95954e-05
7.1441e-05
7.595e-05
8.01779e-05
8.94404e-05
9.6114e-05
0.000119848
0.000128646
0.000240309
0.000337337
0.000273323
2.92887e-05
7.18141e-05
7.62856e-05
8.0664e-05
8.97926e-05
9.67521e-05
0.000120181
0.000129643
0.000241989
0.000337984
0.000272243
2.9007e-05
7.20506e-05
7.6532e-05
8.09695e-05
9.00787e-05
9.72348e-05
0.000120434
0.000130431
0.000243433
0.000338514
0.000271262
2.87679e-05
7.23079e-05
7.67739e-05
8.13138e-05
9.03625e-05
9.76851e-05
0.000120669
0.000131155
0.000244656
0.000338935
0.000270401
2.85632e-05
7.24918e-05
7.69558e-05
8.15524e-05
9.05577e-05
9.80226e-05
0.000120843
0.000131727
0.000245638
0.000339252
0.000269666
2.83981e-05
7.26584e-05
7.71154e-05
8.17511e-05
9.0728e-05
9.82914e-05
0.000120985
0.00013217
0.000246376
0.000339471
0.000269065
2.82719e-05
7.7202e-05
8.18707e-05
9.08286e-05
9.84623e-05
0.000121074
0.000132462
0.000246862
0.000339599
0.000268601
2.81851e-05
7.72492e-05
8.19338e-05
9.08827e-05
9.8549e-05
0.00012112
0.000132604
0.000247096
0.000339648
0.000268294
2.81382e-05
7.36608e-05
7.46622e-05
7.64176e-05
7.82705e-05
8.06214e-05
8.47696e-05
8.75355e-05
9.80127e-05
9.90843e-05
0.000130469
0.000121192
0.000243932
0.000374946
0.000337596
3.62708e-05
7.43611e-05
7.53839e-05
7.73378e-05
7.92039e-05
8.20116e-05
8.59994e-05
8.96751e-05
9.94761e-05
0.000102651
0.000132304
0.000128071
0.000255607
0.000378542
0.000326525
3.54969e-05
7.54693e-05
7.74261e-05
7.92751e-05
8.20273e-05
8.60022e-05
8.95017e-05
9.9369e-05
0.000101956
0.000132007
0.000124929
0.000253928
0.000380049
0.000329529
3.50709e-05
7.60335e-05
7.81564e-05
7.99734e-05
8.31097e-05
8.69034e-05
9.1184e-05
0.000100379
0.000104703
0.000133002
0.000129648
0.000260189
0.000382552
0.000327057
3.43848e-05
7.8347e-05
8.02163e-05
8.33264e-05
8.71511e-05
9.13148e-05
0.000100572
0.00010463
0.00013312
0.000128488
0.000261844
0.000384234
0.000326085
3.39373e-05
7.89714e-05
8.07793e-05
8.41881e-05
8.78153e-05
9.26258e-05
0.000101288
0.000106749
0.000133689
0.000131831
0.00026614
0.000386177
0.000324445
3.33384e-05
7.92158e-05
8.11041e-05
8.4499e-05
8.81942e-05
9.29436e-05
0.000101636
0.000107072
0.000133916
0.000131933
0.000268823
0.00038773
0.000322771
3.28954e-05
8.15913e-05
8.52136e-05
8.87081e-05
9.39528e-05
0.000102166
0.00010868
0.000134287
0.00013437
0.000272339
0.000389272
0.000321047
3.23786e-05
8.19389e-05
8.55472e-05
8.91206e-05
9.43623e-05
0.000102567
0.000109231
0.000134489
0.000135197
0.000275204
0.000390583
0.000319249
3.1963e-05
8.23567e-05
8.61389e-05
8.95483e-05
9.5144e-05
0.000102987
0.000110423
0.000134761
0.000137063
0.000278236
0.00039179
0.000317501
3.15247e-05
8.26738e-05
8.64541e-05
8.99259e-05
9.55732e-05
0.000103368
0.000111079
0.000134921
0.000138224
0.000280921
0.000392828
0.00031577
3.11543e-05
8.69312e-05
9.02903e-05
9.61715e-05
0.000103726
0.000111964
0.000135123
0.000139732
0.000283497
0.000393739
0.000314135
3.07927e-05
8.72056e-05
9.05907e-05
9.65636e-05
0.000104045
0.000112598
0.000135252
0.000140924
0.000285801
0.00039451
0.000312591
3.04813e-05
8.75436e-05
9.08917e-05
9.70175e-05
0.000104349
0.000113253
0.000135394
0.00014214
0.000287876
0.000395156
0.00031118
3.01962e-05
8.77779e-05
9.11322e-05
9.73408e-05
0.000104594
0.000113772
0.000135496
0.000143165
0.000289675
0.00039568
0.00030991
2.99533e-05
8.80218e-05
9.13612e-05
9.76628e-05
0.000104833
0.000114241
0.000135595
0.000144076
0.000291192
0.00039609
0.0003088
2.97456e-05
8.82022e-05
9.15389e-05
9.79028e-05
0.000105008
0.0001146
0.000135664
0.000144811
0.000292414
0.000396393
0.000307855
2.95779e-05
8.83727e-05
9.16953e-05
9.80992e-05
0.000105154
0.000114879
0.000135721
0.000145374
0.000293331
0.000396598
0.000307082
2.94491e-05
9.17795e-05
9.82153e-05
0.000105241
0.000115057
0.000135755
0.000145745
0.000293936
0.000396713
0.000306483
2.93605e-05
9.18221e-05
9.82747e-05
0.000105286
0.000115146
0.000135772
0.000145925
0.000294228
0.000396753
0.000306082
2.9312e-05
9.02513e-05
9.05151e-05
9.36904e-05
9.42372e-05
9.89528e-05
0.000100808
0.000107535
0.00011434
0.000121243
0.000150086
0.000142862
0.000302879
0.000438443
0.000377796
3.74541e-05
9.09839e-05
9.13488e-05
9.46118e-05
9.52826e-05
0.000100298
0.000102145
0.000109667
0.000115814
0.000125138
0.00015135
0.000152414
0.000315866
0.0004415
0.000364548
3.66612e-05
9.13661e-05
9.46863e-05
9.52641e-05
0.000100333
0.000102045
0.000109553
0.000115555
0.000124538
0.000150983
0.000148518
0.000315428
0.000443465
0.000366949
3.62323e-05
9.19998e-05
9.53948e-05
9.60424e-05
0.000101358
0.000103007
0.000111168
0.000116505
0.000127424
0.000151308
0.000154678
0.000321992
0.00044593
0.000364019
3.55355e-05
9.55808e-05
9.62257e-05
0.000101592
0.000103199
0.000111371
0.000116619
0.000127537
0.000151332
0.000153865
0.000324886
0.000447772
0.000362391
3.50821e-05
9.61649e-05
9.68468e-05
0.000102405
0.000103913
0.000112606
0.000117267
0.000129711
0.000151346
0.000158029
0.000329668
0.000449697
0.000360245
3.44764e-05
9.64135e-05
9.71413e-05
0.000102732
0.00010426
0.000112977
0.000117565
0.000130233
0.000151373
0.00015899
0.000333314
0.000451288
0.000358038
3.40263e-05
9.76692e-05
0.000103402
0.000104818
0.000113923
0.000118049
0.000131858
0.000151338
0.000162056
0.000337408
0.000452785
0.000355821
3.35042e-05
9.80086e-05
0.000103751
0.000105212
0.000114355
0.000118405
0.000132584
0.000151284
0.000163845
0.000341029
0.000454063
0.000353556
3.30816e-05
9.84619e-05
0.000104304
0.00010567
0.000115079
0.000118804
0.00013378
0.000151252
0.000166353
0.00034462
0.000455198
0.000351368
3.26385e-05
9.87945e-05
0.000104628
0.000106035
0.00011551
0.000119144
0.000134557
0.000151165
0.000168388
0.0003479
0.000456162
0.000349231
3.22619e-05
0.000105055
0.000106413
0.000116058
0.000119493
0.000135454
0.00015113
0.000170553
0.000350963
0.000456984
0.000347222
3.18957e-05
0.000105333
0.000106715
0.000116441
0.000119786
0.000136157
0.000151057
0.000172474
0.000353726
0.000457665
0.000345341
3.1579e-05
0.00010563
0.000107011
0.000116847
0.000120081
0.000136832
0.00015102
0.000174289
0.000356188
0.00045822
0.00034363
3.12898e-05
0.000105849
0.000107254
0.000117162
0.000120323
0.000137387
0.000150972
0.000175882
0.000358324
0.000458656
0.000342097
3.10427e-05
0.000106069
0.000107485
0.000117456
0.000120552
0.000137869
0.000150944
0.000177262
0.000360118
0.000458985
0.000340762
3.08314e-05
0.00010624
0.000107669
0.000117686
0.000120731
0.000138247
0.000150917
0.000178386
0.00036156
0.000459217
0.000339628
3.06605e-05
0.000106407
0.000107832
0.000117872
0.000120876
0.000138535
0.000150899
0.000179241
0.00036264
0.000459363
0.000338697
3.0529e-05
0.000107921
0.000117981
0.000120962
0.000138719
0.000150883
0.000179807
0.000363353
0.000459433
0.000337971
3.0438e-05
0.000107962
0.000118033
0.000121005
0.000138809
0.000150874
0.000180082
0.000363696
0.000459446
0.000337478
3.03874e-05
0.000108742
0.000108435
0.00011303
0.000112246
0.000119835
0.000118595
0.000131585
0.000131335
0.000152236
0.000167892
0.000186569
0.000385516
0.000507769
0.000409363
3.85752e-05
0.000109496
0.000109408
0.000113924
0.000113482
0.000121064
0.000120243
0.000133539
0.000133289
0.00015622
0.00016921
0.000200342
0.000398775
0.000509678
0.00039447
3.77595e-05
0.00010936
0.00011398
0.000113362
0.000121114
0.00011999
0.00013352
0.000132724
0.000155896
0.000168281
0.000196303
0.000400094
0.00051198
0.000396255
3.73313e-05
0.000110078
0.000114633
0.000114268
0.000122008