/*--------------------------------*- C++ -*----------------------------------*\
  =========                 |
  \\      /  F ield         | OpenFOAM: The Open Source CFD Toolbox
   \\    /   O peration     | Website:  https://openfoam.org
    \\  /    A nd           | Version:  6
     \\/     M anipulation  |
\*---------------------------------------------------------------------------*/
FoamFile
{
    version     2.0;
    format      ascii;
    class       volScalarField;
    location    "1.4";
    object      p;
}
// * * * * * * * * * * * * * * * * * * * * * * * * * * * * * * * * * * * * * //

dimensions      [0 2 -2 0 0 0 0];

internalField   nonuniform List<scalar> 
63552
(
0.0134693
0.013253
0.0127902
0.0121624
0.0112516
0.0100054
0.0082588
0.00629001
0.00352348
0.000399997
-0.00397984
-0.00876466
-0.0150339
-0.0182467
-0.0324192
0.0153645
0.0153569
0.0150447
0.0146748
0.0139928
0.0129827
0.0115577
0.00979668
0.00740515
0.00473809
0.000862609
-0.00321673
-0.00846568
-0.0106583
-0.024299
0.0173318
0.0172049
0.0170711
0.0166462
0.0158472
0.0148098
0.0133032
0.0113035
0.00906624
0.00581009
0.00225575
-0.00196937
-0.00345695
-0.0156327
0.0195699
0.0195943
0.0195217
0.0193877
0.0188775
0.0180905
0.016986
0.0153291
0.0135241
0.0108936
0.00785332
0.0046425
0.00356521
-0.00683939
0.0220274
0.0221346
0.022116
0.02194
0.0213387
0.0206585
0.0193263
0.0180016
0.0158743
0.0134514
0.0112113
0.0108392
0.0019274
0.0242935
0.0246126
0.0247908
0.0248887
0.0246377
0.0242988
0.0233781
0.0225103
0.0208723
0.0190364
0.017768
0.0180653
0.010485
0.0267262
0.0271657
0.027557
0.0278084
0.027859
0.0278207
0.0274078
0.0269006
0.0258102
0.024513
0.0241137
0.0250008
0.0187585
0.0297582
0.0303876
0.0308515
0.031131
0.0312991
0.031342
0.0311424
0.0306376
0.0298673
0.0302433
0.0317749
0.0268189
0.0322162
0.0330358
0.0337913
0.0343771
0.0348089
0.0350839
0.0353675
0.0353288
0.0350606
0.0362044
0.0382797
0.0346737
0.034616
0.0356155
0.0365577
0.0373799
0.0381522
0.0386706
0.0394408
0.0397635
0.0400424
0.0418815
0.0444845
0.0419886
0.0368838
0.0380819
0.0392433
0.0402885
0.0413146
0.042191
0.0431966
0.0439777
0.0447629
0.0472249
0.0503169
0.0488284
0.0403937
0.0417537
0.043036
0.0443097
0.0454711
0.0467679
0.0479223
0.049141
0.0521861
0.0557
0.0553843
0.042534
0.0440654
0.0455415
0.0470372
0.0484573
0.0500694
0.0514927
0.0531431
0.0567222
0.0606303
0.0611331
0.0444698
0.046164
0.0478221
0.0495231
0.0511693
0.0530227
0.0547612
0.0567253
0.0607759
0.0651006
0.0662361
0.0461815
0.048013
0.0498268
0.0516975
0.0535523
0.0556448
0.0576207
0.059876
0.064321
0.0689542
0.0708123
0.0476439
0.0495945
0.0515414
0.0535606
0.0555789
0.0578549
0.0600594
0.0625918
0.0673471
0.0722507
0.0746117
0.0488394
0.0508852
0.0529401
0.0550766
0.0572353
0.0596626
0.062033
0.0647886
0.0697823
0.0749744
0.0776915
0.0497506
0.0518693
0.0540056
0.0562318
0.0584937
0.0610348
0.0635345
0.0664593
0.0716389
0.0770185
0.0800006
0.0525328
0.0547243
0.0570101
0.0593423
0.0619585
0.0645425
0.0675833
0.0728825
0.0783979
0.0815479
0.0528661
0.0550852
0.0574004
0.0597684
0.062421
0.0650464
0.0681483
0.0735022
0.0790874
0.0823156
0.0135133
0.0132579
0.0128043
0.0121817
0.0112376
0.00999764
0.00831763
0.00623145
0.00339864
0.000295404
-0.00400812
-0.00896045
-0.0156087
-0.0194311
-0.0333431
0.0154829
0.0154068
0.0151285
0.0146905
0.0139603
0.0129605
0.0115289
0.00978872
0.00737887
0.00466132
0.000982192
-0.00346295
-0.00905982
-0.0120587
-0.0250355
0.0174612
0.0173683
0.0171311
0.0166393
0.0159032
0.0147072
0.0133176
0.0113085
0.00902212
0.00581239
0.00199328
-0.00254112
-0.00461793
-0.0164401
0.0195961
0.0196723
0.019646
0.019409
0.018904
0.0180351
0.0169292
0.015307
0.013469
0.0107496
0.00761416
0.0040977
0.00288168
-0.0078235
0.022021
0.0221686
0.0221842
0.0219438
0.0214086
0.0205713
0.0193338
0.0178984
0.0157748
0.0132219
0.0105897
0.00992754
0.000849338
0.0243676
0.0247115
0.0249529
0.0249839
0.0247291
0.0242262
0.0233526
0.022315
0.0207612
0.018769
0.0169867
0.0168746
0.00946038
0.026718
0.0272518
0.0276581
0.0279567
0.0280008
0.0278708
0.0273347
0.0267539
0.025669
0.0242318
0.0233737
0.0238502
0.0179384
0.0297589
0.0303641
0.0308769
0.0311915
0.0314237
0.0312542
0.0311453
0.0304799
0.0295886
0.0295888
0.0305842
0.0261235
0.0322285
0.0330371
0.0337707
0.0343268
0.0348329
0.0350806
0.0353294
0.0351194
0.0347491
0.0355121
0.0370517
0.0339204
0.0346097
0.0356174
0.0365713
0.0373935
0.0381482
0.0387539
0.0393307
0.0396087
0.0397058
0.0411826
0.0432255
0.041346
0.036882
0.0380745
0.0392338
0.0402871
0.0413088
0.042174
0.04316
0.0438427
0.0443862
0.046518
0.0490258
0.0483163
0.0403868
0.0417363
0.043002
0.044263
0.0454044
0.0467074
0.0477575
0.048753
0.0514423
0.0543986
0.0545999
0.0425239
0.0440506
0.045518
0.0470023
0.0483958
0.0499642
0.0513732
0.0527578
0.0559446
0.0593406
0.0603889
0.0444597
0.0461458
0.047791
0.0494681
0.0510867
0.0529159
0.0545953
0.0563628
0.0599967
0.0637587
0.0656255
0.0461706
0.0479947
0.0497957
0.0516477
0.0534679
0.0555043
0.0574398
0.0595341
0.0635348
0.0676322
0.0700675
0.0476326
0.0495754
0.0515089
0.0535069
0.055493
0.0577224
0.0598584
0.0622015
0.0665302
0.0709463
0.0738747
0.0488279
0.0508656
0.052907
0.0550223
0.0571463
0.0595231
0.0618295
0.0643846
0.068966
0.0735997
0.0769331
0.0497389
0.0518494
0.0539721
0.0561767
0.0584041
0.0608943
0.0633263
0.0660435
0.0708026
0.0756437
0.0792587
0.0525128
0.0546906
0.0569547
0.0592521
0.0618176
0.0643339
0.0671639
0.0720394
0.077016
0.0808136
0.0528462
0.0550516
0.0573452
0.0596783
0.0622805
0.0648388
0.0677289
0.0726599
0.0777137
0.0815932
0.0134802
0.013236
0.0127789
0.0121628
0.011225
0.00998383
0.00829515
0.00619613
0.00334652
0.000203367
-0.00417593
-0.00924322
-0.0162697
-0.0206516
-0.0339325
0.0154436
0.0153663
0.0150834
0.0146586
0.013946
0.0129454
0.011511
0.00976035
0.00731785
0.0045636
0.000805749
-0.00374096
-0.0097529
-0.0132456
-0.0257321
0.0174321
0.0173279
0.0170927
0.0166246
0.0158881
0.0146944
0.0132917
0.0112426
0.0089005
0.0056503
0.00171078
-0.00329423
-0.00589025
-0.0171708
0.0195825
0.0196605
0.0196227
0.0193785
0.0188846
0.0180077
0.0168974
0.0152437
0.0133357
0.0105842
0.00729389
0.00327488
0.00147437
-0.00850475
0.0220052
0.0221475
0.0221332
0.0218928
0.0213524
0.0205286
0.0192705
0.0177757
0.0155825
0.012866
0.00975048
0.00848866
0.000172555
0.0243592
0.0246895
0.0248974
0.024917
0.0246553
0.0241665
0.0232814
0.022198
0.0205617
0.0183959
0.0161401
0.0154195
0.00879595
0.026716
0.0272348
0.027637
0.0279164
0.0279409
0.0277932
0.027253
0.026624
0.0254714
0.0238492
0.0224948
0.0223125
0.0172557
0.0297605
0.0303639
0.0308667
0.031167
0.0313474
0.0311538
0.0309927
0.0302758
0.029186
0.028678
0.0289884
0.025401
0.0322228
0.0330339
0.0337629
0.0343116
0.0347757
0.0349642
0.035164
0.0349105
0.0343364
0.0345876
0.0354065
0.0331312
0.0346091
0.0356105
0.0365552
0.0373617
0.0380943
0.0386292
0.0391562
0.0393853
0.0392762
0.0402269
0.0415234
0.0405141
0.0368797
0.038071
0.0392217
0.0402581
0.0412525
0.042069
0.0429742
0.0436017
0.0439391
0.0455274
0.0472771
0.0474125
0.0403821
0.0417254
0.042978
0.0442111
0.0453028
0.046525
0.0475158
0.04829
0.0504289
0.0526243
0.0537097
0.0425197
0.0440383
0.04549
0.0469446
0.0482886
0.0497865
0.0511209
0.0522806
0.0549121
0.0575173
0.0595069
0.0444553
0.0461334
0.0477631
0.0494129
0.0509812
0.0527313
0.0543463
0.0558693
0.0589403
0.0618894
0.0646428
0.0461661
0.047982
0.0497671
0.0515889
0.0533571
0.0553237
0.0571839
0.0590139
0.0624519
0.0657401
0.0691177
0.0476281
0.0495622
0.0514795
0.0534472
0.0553812
0.0575339
0.0596001
0.0616753
0.0654245
0.0689929
0.0728999
0.0488232
0.0508523
0.052877
0.0549616
0.057032
0.0593342
0.0615664
0.0638467
0.0678386
0.0716333
0.0759661
0.0497341
0.0518358
0.0539416
0.0561152
0.0582886
0.0607029
0.0630604
0.0654974
0.0696621
0.0736489
0.0782841
0.052499
0.0546597
0.0568926
0.0591355
0.061625
0.0640655
0.0666106
0.0708866
0.0750053
0.079837
0.0528323
0.0550206
0.0572829
0.0595612
0.0620873
0.0645691
0.0671711
0.071499
0.0756932
0.0806149
0.0134829
0.0132347
0.0127828
0.0121602
0.0112215
0.00997825
0.0082805
0.00617704
0.00330677
8.88346e-05
-0.00439171
-0.00959334
-0.0170645
-0.0220607
-0.0349456
0.0154484
0.0153692
0.0150908
0.0146633
0.0139454
0.0129416
0.0115055
0.00973556
0.00726205
0.00444836
0.000566173
-0.004101
-0.0105868
-0.0145912
-0.0267931
0.0174318
0.0173303
0.0170975
0.0166241
0.0158772
0.0146986
0.013263
0.0111781
0.00877716
0.00542422
0.00134147
-0.00416459
-0.00734185
-0.0182503
0.0195844
0.0196629
0.0196232
0.0193829
0.0188857
0.0180114
0.0168771
0.0151805
0.0132064
0.0103788
0.00690118
0.00236281
-0.000118787
-0.00958878
0.0220096
0.0221548
0.0221441
0.0219055
0.0213484
0.0205146
0.0192041
0.0176455
0.0153663
0.012451
0.00882555
0.00688391
-0.000915696
0.0243636
0.0246994
0.0249066
0.0249285
0.0246585
0.0241568
0.0232173
0.0220747
0.020337
0.0179686
0.0152202
0.0138087
0.00768575
0.0267193
0.0272408
0.0276462
0.0279208
0.0279391
0.0277749
0.0271953
0.0264886
0.0252425
0.0234121
0.0215416
0.0206368
0.0161134
0.0297656
0.0303723
0.0308733
0.0311649
0.0313209
0.0310997
0.0308289
0.0300422
0.0287339
0.0276872
0.0272717
0.0242429
0.0322294
0.0330421
0.0337702
0.0343166
0.0347586
0.0349035
0.0350049
0.0346814
0.0338732
0.0335812
0.0336506
0.0319974
0.0346149
0.03562
0.0365646
0.0373641
0.0380774
0.0385553
0.0390079
0.0391408
0.0387957
0.0391989
0.0397283
0.0393671
0.0368873
0.0380802
0.0392303
0.0402609
0.0412347
0.0420043
0.0428169
0.0433484
0.0434473
0.0444786
0.0454462
0.0462448
0.0403927
0.0417348
0.0429812
0.0441948
0.04524
0.0463671
0.0472674
0.0477856
0.0493704
0.0507603
0.0525619
0.0425307
0.0440488
0.045494
0.0469267
0.0482227
0.0496315
0.0508653
0.0517635
0.0538403
0.0556131
0.0583466
0.0444673
0.0461436
0.0477663
0.049395
0.0509163
0.0525752
0.0540951
0.0553421
0.0578522
0.0599719
0.0634851
0.0461784
0.0479933
0.0497712
0.0515709
0.0532886
0.0551667
0.0569328
0.0584733
0.0613504
0.0637934
0.0679557
0.0476411
0.0495735
0.0514833
0.0534283
0.0553128
0.0573749
0.0593475
0.061135
0.0643205
0.0670242
0.0717386
0.0488364
0.0508642
0.052881
0.0549427
0.0569619
0.0591741
0.0613126
0.0633006
0.0667242
0.0696506
0.0747966
0.0497477
0.0518477
0.0539456
0.0560959
0.0582177
0.0605418
0.0628053
0.0649469
0.0685425
0.0716505
0.0771109
0.0525111
0.0546637
0.0568732
0.0590638
0.0614633
0.0638095
0.066056
0.0697611
0.0729964
0.0786599
0.0528444
0.0550245
0.0572633
0.0594891
0.0619255
0.0643128
0.0666138
0.0703692
0.0736779
0.0794339
0.0134642
0.0132121
0.0127634
0.0121374
0.0112081
0.00997038
0.00827382
0.00617439
0.00329256
1.40629e-05
-0.00456306
-0.00991748
-0.0178586
-0.0235453
-0.036437
0.0154385
0.0153528
0.0150761
0.0146437
0.0139331
0.0129355
0.011507
0.00973179
0.00724247
0.00437714
0.000387931
-0.00443246
-0.011433
-0.0160302
-0.0283022
0.0174209
0.0173221
0.017085
0.0166103
0.0158647
0.014706
0.0132578
0.011157
0.00870603
0.00525641
0.00100455
-0.00503241
-0.00884384
-0.019774
0.0195769
0.0196577
0.0196141
0.0193712
0.0188763
0.0180154
0.0168778
0.0151627
0.0131369
0.0102253
0.00655127
0.00146553
-0.00169289
-0.0111067
0.0220061
0.0221508
0.0221369
0.0219011
0.0213451
0.0205183
0.0191862
0.0175797
0.0152142
0.0120917
0.00791822
0.0052996
-0.00242471
0.0243652
0.0247023
0.024907
0.0249304
0.0246649
0.0241648
0.0232049
0.0220162
0.0201847
0.0176008
0.0143073
0.0122074
0.00617204
0.0267228
0.0272475
0.0276562
0.02793
0.0279531
0.0277838
0.027189
0.0264252
0.0250906
0.0230371
0.0206026
0.0189948
0.0145832
0.0297716
0.0303847
0.0308897
0.0311859
0.0313331
0.0310994
0.0307531
0.0298894
0.0283489
0.0267227
0.0255931
0.0227071
0.0322378
0.0330556
0.0337877
0.0343422
0.0347795
0.0349043
0.0349369
0.034533
0.0334811
0.0326031
0.0319393
0.0304734
0.0346232
0.035636
0.036586
0.0373919
0.0381025
0.0385557
0.0389489
0.0389864
0.0383928
0.0382053
0.0379859
0.0378339
0.0368986
0.0380978
0.0392533
0.0402917
0.0412631
0.0420127
0.0427585
0.0431953
0.0430365
0.0434719
0.043676
0.0447068
0.0404123
0.0417602
0.0430145
0.044226
0.0452519
0.0463117
0.0471176
0.0473658
0.0483554
0.0489609
0.0510382
0.0425521
0.0440766
0.0455297
0.0469602
0.0482368
0.0495801
0.0507168
0.0513361
0.0528158
0.0537915
0.0568127
0.0444906
0.0461728
0.0478033
0.04943
0.0509323
0.0525268
0.0539508
0.0549086
0.0568172
0.0581292
0.0619514
0.0462029
0.0480244
0.0498105
0.0516082
0.0533053
0.0551183
0.0567915
0.0580364
0.0603103
0.0619288
0.0664264
0.0476672
0.049606
0.0515238
0.0534664
0.0553307
0.0573284
0.0592067
0.0606966
0.0632755
0.0651482
0.0702083
0.0488634
0.0508979
0.0529227
0.0549823
0.0569805
0.0591274
0.0611728
0.0628594
0.0656749
0.0677643
0.0732666
0.0497755
0.0518823
0.0539882
0.0561363
0.0582366
0.0604957
0.0626655
0.0645033
0.0674905
0.0697555
0.0755789
0.0525463
0.0547068
0.056914
0.059083
0.0614173
0.0636698
0.0656103
0.0687069
0.0710967
0.0771271
0.0528798
0.0550678
0.0573044
0.0595082
0.0618796
0.0641731
0.0661669
0.0693138
0.071777
0.0779
0.013445
0.0131894
0.0127438
0.0121139
0.0111904
0.00995592
0.00826746
0.00617555
0.0033023
-9.3032e-06
-0.0046547
-0.010167
-0.0186548
-0.0249366
-0.0383719
0.0154259
0.0153333
0.0150587
0.0146214
0.0139171
0.0129236
0.0115088
0.0097361
0.00725351
0.00436034
0.0003008
-0.00468273
-0.0122813
-0.0174118
-0.0301952
0.0174071
0.0173102
0.0170681
0.0165953
0.0158524
0.0147154
0.0132657
0.0111714
0.00869506
0.00518463
0.000758241
-0.00588829
-0.0102547
-0.0216426
0.0195671
0.0196498
0.0196018
0.0193589
0.0188684
0.0180259
0.0168933
0.015185
0.0131344
0.0101699
0.00629956
0.000585896
-0.00314696
-0.0129253
0.0220006
0.0221443
0.0221291
0.0218972
0.0213531
0.0205391
0.0192139
0.017587
0.0151677
0.0118414
0.00703472
0.00383971
-0.00420539
0.0243646
0.0247021
0.0249065
0.0249322
0.0246799
0.0241913
0.023242
0.0220356
0.0201461
0.0173503
0.0134177
0.0107389
0.00441606
0.0267251
0.0272522
0.0276654
0.0279402
0.0279759
0.0278135
0.0272335
0.026448
0.0250602
0.022787
0.0196968
0.0175081
0.0128399
0.0297778
0.0303985
0.0309084
0.0312185
0.0313698
0.0311518
0.0307756
0.0298653
0.0280961
0.0258
0.0240891
0.0209792
0.0322467
0.0330721
0.0338103
0.0343813
0.0348259
0.034961
0.0349691
0.0345179
0.0332292
0.0316713
0.0304223
0.028764
0.0346338
0.0356559
0.0366133
0.0374354
0.0381564
0.0386181
0.0389912
0.0389744
0.0381387
0.0372629
0.0364566
0.0361321
0.0369123
0.0381209
0.0392844
0.0403402
0.041323
0.0420849
0.0428069
0.0431899
0.0427814
0.0425216
0.0421364
0.0430155
0.0404381
0.041795
0.043068
0.0442919
0.0453312
0.0463678
0.0471185
0.0471081
0.0473996
0.047411
0.0493641
0.0425809
0.0441148
0.0455869
0.0470305
0.0483218
0.0496437
0.0507236
0.0510767
0.0518551
0.0522346
0.0551415
0.0445221
0.0462141
0.0478639
0.0495046
0.0510221
0.0525963
0.0539643
0.0546464
0.0558501
0.0565632
0.0602882
0.0462365
0.0480684
0.0498744
0.0516868
0.0533994
0.0551925
0.0568102
0.0577748
0.0593412
0.0603544
0.0647708
0.0477029
0.0496524
0.0515904
0.0535479
0.0554278
0.0574065
0.0592294
0.0604346
0.0623018
0.0635708
0.0685576
0.0489006
0.0509463
0.0529914
0.0550665
0.0570805
0.0592083
0.0611984
0.062597
0.0646988
0.0661845
0.071619
0.0498141
0.0519322
0.0540586
0.0562225
0.0583385
0.0605789
0.062693
0.0642402
0.066513
0.0681732
0.0739334
0.0525973
0.0547783
0.0570016
0.0591862
0.0615019
0.0636987
0.0653465
0.0677286
0.0695141
0.0754833
0.0529313
0.0551399
0.0573927
0.0596119
0.061965
0.0642025
0.0659027
0.0683355
0.0701956
0.0762572
0.0134221
0.0131613
0.0127173
0.012082
0.0111637
0.00993154
0.00825696
0.00617092
0.00332437
-2.37833e-07
-0.00466958
-0.0103093
-0.0193969
-0.0258821
-0.0405017
0.0154093
0.0153088
0.0150357
0.0145925
0.0138934
0.0129027
0.0115064
0.0097378
0.00728304
0.00438082
0.000301706
-0.00481769
-0.0130564
-0.0185321
-0.0320125
0.0173889
0.0172935
0.0170456
0.0165751
0.0158345
0.0147214
0.0132749
0.0112092
0.00872778
0.0052074
0.000638499
-0.006658
-0.0114229
-0.0233213
0.0195538
0.0196377
0.019585
0.0193431
0.0188561
0.0180359
0.0169118
0.0152342
0.013182
0.0102149
0.00618597
-0.000195724
-0.00433806
-0.0144905
0.0219928
0.0221348
0.02212
0.0218912
0.0213664
0.020566
0.0192733
0.0176499
0.0152293
0.0117407
0.00625672
0.0026601
-0.00569387
0.0243626
0.0247
0.0249063
0.0249342
0.0247018
0.0242275
0.0233141
0.0221155
0.0202243
0.0172602
0.0126399
0.00957395
0.00298705
0.026727
0.027256
0.0276755
0.0279523
0.0280075
0.0278571
0.0273163
0.0265384
0.0251542
0.0227078
0.0189142
0.0163542
0.011457
0.0297852
0.030415
0.0309302
0.0312612
0.0314237
0.031246
0.0308758
0.0299741
0.028025
0.0250116
0.0229467
0.0196384
0.0322579
0.0330935
0.033839
0.0344333
0.0348916
0.035064
0.0350826
0.0346416
0.0331685
0.0308812
0.0292935
0.0274613
0.0346486
0.035682
0.0366482
0.0374944
0.0382326
0.0387317
0.0391186
0.0391099
0.0380861
0.0364699
0.035341
0.034861
0.0369309
0.0381518
0.0393254
0.0404067
0.0414083
0.0422107
0.0429454
0.0433375
0.0427362
0.0417277
0.0410339
0.0417756
0.0404733
0.0418414
0.0431414
0.0443862
0.0454679
0.0465192
0.0472779
0.0470684
0.0466059
0.0463214
0.0481544
0.0426201
0.0441662
0.0456659
0.047132
0.0484677
0.0498062
0.050894
0.0510421
0.0510621
0.0511569
0.0539525
0.0445651
0.0462703
0.0479485
0.0496131
0.0511759
0.0527687
0.0541455
0.0546149
0.055056
0.0554951
0.0591202
0.0462828
0.0481284
0.0499636
0.0518012
0.0535605
0.055374
0.0570005
0.0577481
0.058548
0.0592951
0.0636209
0.0477521
0.0497161
0.0516838
0.0536674
0.0555942
0.0575946
0.0594276
0.0604111
0.0615077
0.0625206
0.0674214
0.0489522
0.0510127
0.0530881
0.0551901
0.0572518
0.0594021
0.0614021
0.0625761
0.0639052
0.0651424
0.0704935
0.0498674
0.0520009
0.0541578
0.0563492
0.0585132
0.0607769
0.0629012
0.0642209
0.06572
0.0671366
0.072815
0.0526675
0.0548792
0.0571305
0.0593632
0.0617026
0.0639094
0.0653279
0.0669363
0.0684823
0.0743696
0.0530024
0.0552416
0.0575227
0.05979
0.0621671
0.0644144
0.0658841
0.067544
0.0691674
0.0751455
0.0133958
0.0131289
0.0126852
0.0120443
0.0111313
0.00990034
0.00824397
0.00616012
0.003353
1.81409e-05
-0.00463904
-0.0103624
-0.0200385
-0.0263645
-0.0421135
0.015389
0.0152804
0.0150083
0.0145592
0.0138657
0.0128775
0.0115036
0.00973797
0.00732549
0.00441869
0.000361307
-0.00485539
-0.0137064
-0.0192682
-0.0331804
0.0173677
0.0172733
0.0170203
0.0165536
0.0158163
0.0147294
0.0132875
0.0112662
0.00878534
0.00529574
0.000626217
-0.00728772
-0.0121983
-0.0242741
0.0195381
0.0196231
0.0195669
0.0193279
0.0188454
0.0180515
0.0169367
0.0153066
0.0132614
0.0103324
0.00619228
-0.000818368
-0.00510658
-0.0152782
0.0219843
0.0221254
0.0221137
0.0218895
0.0213904
0.0206038
0.0193616
0.017751
0.0153715
0.011771
0.00564947
0.00192641
-0.00635791
0.0243611
0.0246995
0.0249108
0.0249431
0.024737
0.0242786
0.0234192
0.0222395
0.0203916
0.0173125
0.0120461
0.00888165
0.0024256
0.0267311
0.0272633
0.0276917
0.0279739
0.0280557
0.0279212
0.0274372
0.0266809
0.0253448
0.0227818
0.0183304
0.0157025
0.0109833
0.0297985
0.0304399
0.0309636
0.0313228
0.0315024
0.0313826
0.0310369
0.0301877
0.0281187
0.0244373
0.0223356
0.0192435
0.0322768
0.0331258
0.0338823
0.0345072
0.0349858
0.0352156
0.0352629
0.0348766
0.0332822
0.0303174
0.0287227
0.0271371
0.0346732
0.0357214
0.0367007
0.0375788
0.0383409
0.038899
0.0393186
0.0393651
0.0382178
0.0359158
0.0348088
0.0346002
0.0369608
0.0381979
0.0393866
0.040502
0.04153
0.0423941
0.0431629
0.0436114
0.0428839
0.0411837
0.0405387
0.0415737
0.0405259
0.0419106
0.0432463
0.0445204
0.0456662
0.046755
0.04757
0.0472302
0.046072
0.045861
0.0480054
0.0426786
0.0442426
0.0457794
0.0472772
0.0486792
0.0500581
0.0512026
0.0512162
0.0505378
0.0507281
0.0538477
0.0446289
0.0463535
0.0480701
0.0497685
0.0513991
0.0530354
0.0544697
0.0547991
0.0545394
0.0550946
0.0590547
0.0463516
0.0482174
0.0500919
0.0519651
0.0537941
0.0556538
0.0573381
0.057942
0.0580391
0.0589198
0.0635882
0.0478249
0.0498103
0.0518181
0.053839
0.0558362
0.0578847
0.0597769
0.0606128
0.0610047
0.0621679
0.0674147
0.0490284
0.0511111
0.0532272
0.0553677
0.0575007
0.059701
0.0617602
0.062784
0.0634079
0.0648087
0.070506
0.0499462
0.0521025
0.0543005
0.0565315
0.0587674
0.0610823
0.0632659
0.0644329
0.0652273
0.0668175
0.0728403
0.0527713
0.0550244
0.057316
0.0596209
0.0620125
0.0642783
0.0655423
0.0664471
0.0681744
0.0744018
0.0531073
0.055388
0.0577099
0.0600494
0.0624793
0.0647851
0.0660991
0.0670573
0.0688669
0.0751789
0.0133667
0.0130934
0.0126492
0.0120039
0.0110964
0.00986885
0.00823416
0.00615547
0.00339241
5.18812e-05
-0.0045953
-0.0104126
-0.0205953
-0.0265138
-0.042709
0.0153661
0.0152501
0.0149786
0.0145258
0.0138387
0.0128563
0.0115082
0.00975128
0.00738723
0.00448397
0.00044811
-0.00488412
-0.0142428
-0.0194962
-0.0334651
0.0173458
0.0172524
0.016997
0.0165363
0.0158065
0.014749
0.0133196
0.0113502
0.00888054
0.00541951
0.000631469
-0.0077858
-0.0124144
-0.0243141
0.0195231
0.0196094
0.0195528
0.01932
0.018847
0.0180839
0.0169869
0.0154125
0.0133879
0.0104921
0.00622603
-0.00128531
-0.00527408
-0.0151226
0.021979
0.0221224
0.0221178
0.0219042
0.0214372
0.0206733
0.0194909
0.0179088
0.0155646
0.0118379
0.00521538
0.00182586
-0.00603906
0.0243646
0.0247075
0.0249282
0.0249722
0.0247995
0.0243676
0.0235717
0.0224291
0.0206177
0.0174111
0.0116448
0.00885444
0.00288526
0.0267423
0.0272817
0.0277231
0.0280192
0.0281356
0.0280301
0.0276128
0.0268996
0.0256022
0.0229113
0.0179588
0.0157487
0.0115679
0.0298257
0.0304832
0.0310241
0.0314203
0.0316318
0.0315809
0.0312846
0.0304756
0.0282777
0.024095
0.022454
0.0199409
0.0323127
0.03318
0.0339568
0.0346216
0.0351361
0.0354364
0.0355388
0.0351934
0.0334696
0.0300035
0.0289111
0.0279369
0.0347173
0.0357859
0.0367883
0.0377085
0.0385109
0.0391422
0.0396224
0.0397096
0.0384319
0.0356294
0.035064
0.0354932
0.0370128
0.038272
0.0394867
0.0406469
0.0417189
0.0426595
0.0434927
0.0439814
0.043122
0.0409236
0.040857
0.0425518
0.0406094
0.0420222
0.043405
0.0447266
0.0459522
0.0471101
0.0479645
0.0474902
0.0458372
0.0462382
0.0490597
0.0427706
0.0443648
0.0459506
0.0474995
0.048984
0.0504361
0.0516193
0.0514954
0.050326
0.0511588
0.0549684
0.0447288
0.0464855
0.0482531
0.0500052
0.0517206
0.0534342
0.0549069
0.0550951
0.0543484
0.0555735
0.0602333
0.0464585
0.0483579
0.0502848
0.0522142
0.0541305
0.056071
0.0577932
0.058253
0.0578667
0.0594414
0.0648154
0.0479377
0.0499581
0.0520196
0.054099
0.056185
0.0583169
0.0602472
0.0609362
0.0608482
0.0627265
0.068681
0.0491462
0.0512649
0.0534357
0.0556364
0.0578596
0.0601456
0.0622425
0.0631172
0.0632649
0.0653982
0.0718019
0.0500677
0.0522609
0.0545144
0.056807
0.0591339
0.0615362
0.0637574
0.0647731
0.0650951
0.0674311
0.0741565
0.0529328
0.0552418
0.057596
0.0599926
0.0624726
0.0647756
0.0658868
0.0663226
0.068806
0.0757292
0.0532704
0.0556072
0.0579922
0.0604237
0.0629426
0.0652851
0.0664453
0.0669377
0.0695098
0.0765094
0.0133363
0.0130578
0.0126127
0.0119665
0.0110655
0.00984803
0.00823754
0.00617759
0.00345349
0.000137071
-0.00455555
-0.0105601
-0.0210822
-0.0262305
-0.0423381
0.0153428
0.0152216
0.0149509
0.014499
0.0138205
0.0128519
0.0115327
0.009801
0.00748239
0.00461869
0.000543457
-0.00500736
-0.0146779
-0.019176
-0.0328192
0.0173273
0.0172357
0.0169832
0.0165318
0.0158191
0.0147944
0.0133963
0.0114771
0.00905887
0.00556148
0.00055075
-0.00815977
-0.0120263
-0.0234246
0.0195134
0.0196025
0.0195514
0.0193294
0.0188764
0.0181494
0.0170902
0.0155714
0.0136111
0.0106768
0.00618198
-0.00159902
-0.00479341
-0.0140225
0.0219833
0.0221352
0.0221435
0.0219522
0.0215244
0.0208045
0.0196834
0.0181764
0.0157925
0.0118356
0.00495931
0.00240905
-0.00475251
0.0243803
0.0247345
0.024971
0.02504
0.0249092
0.0245265
0.0237973
0.0227406
0.0208863
0.0174495
0.0114474
0.00954392
0.00433843
0.0267687
0.0273226
0.0277836
0.0281081
0.0282694
0.0282176
0.027872
0.0272535
0.0259111
0.0229893
0.0178168
0.0165437
0.0131722
0.0298794
0.03056
0.0311332
0.0315778
0.0318476
0.0318729
0.0316797
0.0308229
0.0283946
0.0240079
0.023352
0.0216831
0.0323787
0.0332724
0.0340854
0.0348024
0.0353804
0.0357612
0.0359739
0.0355776
0.0336232
0.0299689
0.0299081
0.0298051
0.0347953
0.035893
0.0369351
0.0379113
0.038782
0.0394988
0.0400958
0.040129
0.0386209
0.0356456
0.036155
0.0374765
0.0371022
0.038393
0.0396511
0.0408709
0.0420161
0.0430471
0.0440026
0.0444337
0.0433431
0.0409878
0.0420363
0.0446397
0.0407438
0.042203
0.0436487
0.0450479
0.0463687
0.047654
0.0484478
0.0477414
0.0459465
0.0474995
0.0512413
0.0429173
0.0445606
0.0462125
0.0478429
0.0494271
0.051011
0.0521308
0.0517733
0.0504768
0.0524948
0.0572325
0.0448866
0.0466951
0.0485315
0.0503687
0.0521877
0.0540369
0.0554441
0.055397
0.0545366
0.0569767
0.0625688
0.0466264
0.0485797
0.0505776
0.0525952
0.0546187
0.0566979
0.0583528
0.0585758
0.0580879
0.0609038
0.0672109
0.0481141
0.0501902
0.0523248
0.054495
0.0566912
0.058964
0.0608259
0.0612768
0.0610978
0.0642399
0.0711248
0.0493296
0.0515055
0.053751
0.0560446
0.0583804
0.060809
0.0628366
0.063472
0.0635381
0.066954
0.0742823
0.0502565
0.0525081
0.0548374
0.0572245
0.0596659
0.0622117
0.0643631
0.0651385
0.0653865
0.0690202
0.0766617
0.0531843
0.05557
0.0580197
0.0605321
0.0631559
0.0653891
0.0662591
0.0666271
0.0704196
0.0782481
0.0535241
0.0559379
0.058419
0.0609671
0.0636295
0.0659024
0.0668209
0.0672499
0.0711386
0.0790318
0.0133077
0.0130263
0.0125818
0.0119399
0.0110489
0.00985082
0.00826936
0.00624458
0.0035548
0.000296551
-0.00453947
-0.0108446
-0.0214301
-0.0255247
-0.0412492
0.0153232
0.0152003
0.0149324
0.0144881
0.0138226
0.0128791
0.011595
0.00990757
0.00763326
0.00484941
0.000623983
-0.00526276
-0.0149401
-0.0183574
-0.0314771
0.0173183
0.0172312
0.0169892
0.0165534
0.0158702
0.0148857
0.0135401
0.0116722
0.00934845
0.0056988
0.000349112
-0.0083319
-0.0110899
-0.0218445
0.0195157
0.0196114
0.0195742
0.0193707
0.0189516
0.0182702
0.0172709
0.0158122
0.0139601
0.0108638
0.00602893
-0.00167817
-0.00372541
-0.0122272
0.0220072
0.0221765
0.0222068
0.0220534
0.0216765
0.0210234
0.0199714
0.0185837
0.0160329
0.0117356
0.00496909
0.0036126
-0.00275932
0.0244193
0.0247944
0.025057
0.0251679
0.0250931
0.0247835
0.0241322
0.0232047
0.0211761
0.017403
0.0115467
0.0108835
0.00651333
0.0268224
0.027401
0.0278927
0.0282637
0.0284859
0.0285133
0.0282542
0.0277733
0.0262504
0.0229945
0.0180021
0.018017
0.015515
0.0299757
0.0306913
0.0313158
0.0318268
0.0321815
0.0323016
0.0322527
0.0312096
0.0284517
0.0242775
0.0249548
0.0241809
0.0324924
0.0334252
0.0342944
0.0350833
0.035752
0.0362357
0.0365985
0.0360098
0.0337291
0.0303193
0.0316348
0.0324458
0.0349258
0.0360664
0.0371694
0.0382227
0.0391898
0.0400176
0.0407691
0.0406046
0.0387744
0.0360732
0.037999
0.0402484
0.0372488
0.0385862
0.0399095
0.0412115
0.0424585
0.0436084
0.0447218
0.04495
0.0435407
0.0414882
0.0439903
0.0475312
0.0409556
0.042484
0.0440167
0.0455227
0.0469699
0.0484158
0.0490021
0.0479803
0.0465148
0.0495551
0.0542404
0.0431464
0.0448626
0.0466057
0.0483476
0.0500651
0.0518114
0.0527199
0.0520497
0.0511073
0.0546432
0.0603268
0.0451314
0.047016
0.0489477
0.0509004
0.0528589
0.0548717
0.0560645
0.0557072
0.0552229
0.0592083
0.0657458
0.0468853
0.0489175
0.0510139
0.0531507
0.0553191
0.0575625
0.0590008
0.0589156
0.0588233
0.0632088
0.0704578
0.048385
0.0505424
0.0527784
0.0550707
0.0574164
0.0598534
0.0614973
0.0616418
0.0618749
0.0666079
0.0744283
0.0496104
0.0518696
0.0542186
0.0566369
0.0591259
0.0617183
0.0635271
0.0638574
0.0643493
0.0693741
0.0776289
0.0505448
0.0528811
0.0553157
0.0578293
0.0604268
0.0631356
0.0650683
0.0655393
0.066224
0.0714814
0.0800382
0.0535634
0.0560554
0.058633
0.0613034
0.064089
0.0661042
0.0666701
0.0674827
0.0729109
0.0816414
0.0539062
0.056427
0.0590366
0.0617438
0.0645667
0.0666226
0.0672372
0.0681158
0.0736486
0.0824304
0.0132862
0.0130053
0.0125654
0.0119343
0.0110606
0.00989078
0.00835027
0.00636512
0.00372516
0.000506611
-0.00457911
-0.0112331
-0.0215321
-0.0244801
-0.0397655
0.0153134
0.0151936
0.0149335
0.0145046
0.0138612
0.0129533
0.0117181
0.0100817
0.0078727
0.00515186
0.000648951
-0.00560935
-0.0149227
-0.0171488
-0.0297459
0.0173271
0.0172506
0.017028
0.0166184
0.0159769
0.0150486
0.0137631
0.0119715
0.0097238
0.0057899
7.1984e-05
-0.00819306
-0.00972289
-0.0198776
0.0195396
0.0196491
0.0196355
0.0194632
0.0190915
0.0184741
0.0175431
0.0161743
0.0144065
0.0110103
0.00581963
-0.00141421
-0.00219459
-0.0100406
0.0220649
0.0222622
0.0223287
0.0222285
0.021923
0.0213462
0.0203972
0.0191005
0.0162417
0.0115961
0.00535416
0.005307
-0.000366208
0.024497
0.0249047
0.025209
0.0253787
0.0253827
0.0251567
0.0246217
0.0237885
0.0214428
0.0173357
0.012052
0.0127389
0.00909994
0.0269203
0.0275362
0.0280751
0.0285109
0.0288191
0.0289373
0.028807
0.0284232
0.0265752
0.0229971
0.0186239
0.0200295
0.018283
0.0301351
0.0309036
0.031599
0.0322031
0.0326554
0.0329167
0.0329655
0.03159
0.0285243
0.0250124
0.0271185
0.0271184
0.0326757
0.0336666
0.0346127
0.0355018
0.0362751
0.0369115
0.037372
0.0364441
0.0338688
0.0311624
0.033943
0.0355409
0.0351322
0.0363359
0.0375216
0.0386819
0.0397603
0.040752
0.0415996
0.04109
0.0389791
0.0370194
0.0404436
0.0434892
0.0374774
0.0388826
0.0402943
0.0417095
0.0430743
0.0443985
0.045606
0.0454836
0.0438065
0.0425311
0.0465624
0.0509052
0.0412774
0.0428993
0.0445511
0.0461811
0.0478119
0.0493492
0.0495805
0.0483034
0.0476475
0.0522451
0.0577351
0.0434918
0.0453061
0.0471738
0.0490453
0.0509549
0.0527897
0.0533394
0.0524252
0.0523217
0.0574405
0.0639289
0.0454984
0.0474853
0.0495461
0.0516337
0.0537916
0.0558897
0.0567211
0.05613
0.0565105
0.062102
0.0694418
0.0472713
0.0494094
0.0516391
0.0539154
0.0562893
0.0586151
0.05969
0.05938
0.060175
0.0661872
0.0742335
0.0487873
0.0510539
0.0534265
0.0558624
0.0584186
0.0609349
0.0622144
0.0621415
0.0632809
0.0696589
0.0782692
0.0500262
0.0523969
0.0548853
0.0574505
0.060154
0.0628227
0.0642671
0.0643858
0.0657994
0.0724851
0.0815203
0.0509708
0.0534206
0.0559966
0.0586598
0.0614744
0.064257
0.065826
0.0660894
0.0677075
0.0746396
0.0839653
0.0541111
0.0567458
0.0594749
0.0623639
0.0652214
0.0668741
0.0672347
0.0689891
0.0761035
0.0855893
0.054458
0.0571221
0.0598843
0.0628107
0.0657038
0.0673992
0.0678092
0.0696345
0.0768619
0.086386
0.0132792
0.0130037
0.0125754
0.0119625
0.0111173
0.00998314
0.00849978
0.00654394
0.00399009
0.000703418