/*--------------------------------*- C++ -*----------------------------------*\
  =========                 |
  \\      /  F ield         | OpenFOAM: The Open Source CFD Toolbox
   \\    /   O peration     | Website:  https://openfoam.org
    \\  /    A nd           | Version:  6
     \\/     M anipulation  |
\*---------------------------------------------------------------------------*/
FoamFile
{
    version     2.0;
    format      ascii;
    class       volVectorField;
    location    "1.4";
    object      U;
}
// * * * * * * * * * * * * * * * * * * * * * * * * * * * * * * * * * * * * * //

dimensions      [0 1 -1 0 0 0 0];

internalField   nonuniform List<vector> 
63552
(
(0.134011 -0.0928172 7.25121e-05)
(0.137093 -0.103629 -0.000110136)
(0.136488 -0.114474 4.8277e-06)
(0.138373 -0.128168 3.65706e-06)
(0.141135 -0.143573 -0.000147179)
(0.144482 -0.1601 -5.59718e-05)
(0.147101 -0.17828 0.000298004)
(0.151926 -0.198153 -0.000243419)
(0.156747 -0.219946 -0.000616187)
(0.164647 -0.242259 -0.000724817)
(0.172525 -0.269438 4.81973e-05)
(0.183545 -0.304134 -0.000982765)
(0.203232 -0.340953 -0.00398625)
(0.240705 -0.346817 -0.00787756)
(0.207421 -0.26672 -0.00841094)
(0.124032 -0.0936109 0.000705349)
(0.127131 -0.104734 0.000278725)
(0.125277 -0.115375 0.000609667)
(0.127965 -0.129691 1.76265e-05)
(0.131294 -0.145671 -0.000265563)
(0.134389 -0.162231 -0.000183669)
(0.135854 -0.180127 -0.000172936)
(0.139748 -0.199621 -0.000218172)
(0.14336 -0.220863 -0.000276597)
(0.149624 -0.242817 -0.000699882)
(0.155706 -0.269768 0.000602281)
(0.164353 -0.30364 -0.00156292)
(0.181737 -0.338051 -0.0042381)
(0.217231 -0.34391 -0.00901666)
(0.190003 -0.26534 -0.00727818)
(0.115712 -0.104107 0.00100958)
(0.112495 -0.114243 0.00136615)
(0.117132 -0.129559 0.000295272)
(0.121035 -0.145956 -0.000330213)
(0.122974 -0.162213 0.000142052)
(0.123765 -0.179822 -0.000764939)
(0.126597 -0.198793 -0.000311679)
(0.129136 -0.219754 -0.000153632)
(0.133822 -0.241168 -0.000334711)
(0.137958 -0.26753 -0.000165935)
(0.14429 -0.300143 -0.00188828)
(0.159495 -0.333053 -0.00399744)
(0.19297 -0.339271 -0.00812687)
(0.172518 -0.263046 -0.00759198)
(0.103267 -0.102562 0.000144213)
(0.100487 -0.112919 0.000583431)
(0.106258 -0.128774 0.000681588)
(0.109973 -0.14522 -0.000162105)
(0.111243 -0.161321 -0.00020492)
(0.111644 -0.17863 -0.000519454)
(0.113473 -0.197218 -0.000709589)
(0.114841 -0.217474 -0.000481843)
(0.118043 -0.238618 -0.000279094)
(0.120487 -0.263866 -0.000948961)
(0.124572 -0.295346 -0.00174222)
(0.138079 -0.32727 -0.00372062)
(0.16933 -0.333791 -0.00635011)
(0.154303 -0.258266 -0.00924085)
(0.0929706 -0.112905 -0.000224328)
(0.095071 -0.12695 -0.000113171)
(0.0981613 -0.143267 0.000400767)
(0.0986836 -0.159007 -2.62123e-05)
(0.0983793 -0.176061 0.000354514)
(0.0998438 -0.194179 -0.000867151)
(0.100168 -0.213698 -0.000453568)
(0.102097 -0.234367 -0.000757895)
(0.102877 -0.258696 -0.000557159)
(0.104701 -0.288939 -0.0015476)
(0.116334 -0.319462 -0.00416745)
(0.145745 -0.326333 -0.00744293)
(0.13576 -0.251587 -0.00996568)
(0.0810375 -0.110423 0.000454803)
(0.085248 -0.125288 0.000460085)
(0.0839622 -0.13952 0.00131095)
(0.0849059 -0.155313 0.000805458)
(0.084369 -0.171998 0.000601063)
(0.0861698 -0.189919 -0.000788182)
(0.0854092 -0.20852 -0.000718235)
(0.0862903 -0.22842 -0.00147555)
(0.0854522 -0.252049 -0.000659113)
(0.0851963 -0.280971 -0.00180893)
(0.0950501 -0.309386 -0.00500707)
(0.122509 -0.316442 -0.00861346)
(0.117366 -0.243396 -0.0100619)
(0.0739607 -0.108866 -0.000187578)
(0.0709575 -0.120693 0.000860342)
(0.0695968 -0.134661 0.000814679)
(0.0706841 -0.150147 0.00104955)
(0.0702963 -0.166494 0.000930912)
(0.0721399 -0.184099 -5.15864e-05)
(0.0708627 -0.202026 -0.000959967)
(0.0707405 -0.220709 -0.00125686)
(0.0681196 -0.243407 -0.0010215)
(0.0659801 -0.271006 -0.00200846)
(0.0743469 -0.297632 -0.00480519)
(0.0998482 -0.304741 -0.00833547)
(0.0994029 -0.233828 -0.00964105)
(0.063051 -0.117816 -0.000340561)
(0.0597465 -0.130447 -0.000558321)
(0.0581889 -0.144345 -0.000134897)
(0.0565797 -0.159547 -4.77172e-06)
(0.0578362 -0.176717 0.000469066)
(0.0564102 -0.194104 -0.000997054)
(0.0552899 -0.211925 -0.000510942)
(0.0513074 -0.23315 -0.00121027)
(0.0473535 -0.259446 -0.00200227)
(0.0542693 -0.284437 -0.00472146)
(0.078003 -0.291302 -0.00853932)
(0.0821738 -0.222747 -0.00935737)
(0.0522652 -0.112472 -0.000103022)
(0.0498905 -0.125073 -0.000491489)
(0.048143 -0.138416 -0.000818142)
(0.0454934 -0.152561 -0.00117932)
(0.0438196 -0.167786 -0.000425328)
(0.0423426 -0.184658 -0.000431086)
(0.0399939 -0.201507 -0.000774104)
(0.0350089 -0.221353 -0.00152856)
(0.0293553 -0.246056 -0.00231607)
(0.0348404 -0.269049 -0.00514573)
(0.0570007 -0.275784 -0.00879404)
(0.0658002 -0.210079 -0.00949281)
(0.0445032 -0.107259 -0.000387028)
(0.0400047 -0.118474 -0.000337349)
(0.0371058 -0.130775 -0.000371616)
(0.0338316 -0.144097 -0.000468446)
(0.0314751 -0.158291 -0.000745941)
(0.0279475 -0.173653 0.000210444)
(0.0254872 -0.189641 -0.00120998)
(0.019643 -0.208059 -0.00130659)
(0.0122473 -0.230812 -0.00256746)
(0.016386 -0.252028 -0.0052246)
(0.0371268 -0.25842 -0.00896487)
(0.0503677 -0.196426 -0.00857575)
(0.0355077 -0.100457 -0.000359099)
(0.0310795 -0.111096 -0.000546204)
(0.0268474 -0.122224 -0.000583879)
(0.0221983 -0.134239 -0.000528213)
(0.0186701 -0.147108 -0.000701394)
(0.0143689 -0.161234 -0.000832641)
(0.011522 -0.176331 -0.000688952)
(0.00458944 -0.193381 -0.00131328)
(-0.00381498 -0.214081 -0.00282067)
(-0.00100811 -0.233559 -0.00528093)
(0.0184421 -0.239364 -0.00915984)
(0.0361796 -0.181112 -0.00783237)
(0.022287 -0.102499 -0.000544995)
(0.0177922 -0.112745 -0.000797172)
(0.0125639 -0.123694 -0.00102329)
(0.00812756 -0.13534 -0.00116226)
(0.00258562 -0.147908 -0.0012412)
(-0.00208216 -0.161403 -0.00106177)
(-0.00910238 -0.177243 -0.00161919)
(-0.0185892 -0.195857 -0.00292267)
(-0.017111 -0.213561 -0.00556263)
(0.0012302 -0.218801 -0.00932522)
(0.0233396 -0.164205 -0.0100186)
(0.0144735 -0.0930364 -0.00062468)
(0.00901611 -0.102089 -0.000751776)
(0.00301832 -0.111815 -0.000863801)
(-0.00247586 -0.122104 -0.000987939)
(-0.00877085 -0.133338 -0.00122586)
(-0.0138198 -0.145535 -0.00153773)
(-0.0222755 -0.159652 -0.00140639)
(-0.0321659 -0.176296 -0.00313488)
(-0.0317699 -0.191908 -0.00589256)
(-0.0143406 -0.196619 -0.00939011)
(0.0112592 -0.147373 -0.00995279)
(0.00726103 -0.0826233 -0.000658382)
(0.00132554 -0.0905904 -0.000841204)
(-0.00530873 -0.0991036 -0.00101478)
(-0.0113193 -0.108127 -0.00128973)
(-0.0185009 -0.117858 -0.0013968)
(-0.0250367 -0.128364 -0.00147273)
(-0.0340013 -0.14091 -0.00197096)
(-0.0442691 -0.155514 -0.00308724)
(-0.0448117 -0.169044 -0.00599219)
(-0.0283268 -0.173281 -0.00954808)
(0.000733502 -0.129232 -0.00842748)
(0.000881179 -0.0713937 -0.000694124)
(-0.00556462 -0.0781838 -0.000871419)
(-0.0127193 -0.0854373 -0.00103628)
(-0.019407 -0.0931105 -0.00122449)
(-0.027137 -0.101428 -0.00145916)
(-0.0341828 -0.110394 -0.00187012)
(-0.044415 -0.121029 -0.00205261)
(-0.0555178 -0.133632 -0.00299352)
(-0.0564166 -0.14504 -0.00620106)
(-0.0404224 -0.148744 -0.00964662)
(-0.00805485 -0.110426 -0.0101867)
(-0.00451509 -0.0594494 -0.000727312)
(-0.0114359 -0.065043 -0.000908792)
(-0.0190078 -0.0710244 -0.00108369)
(-0.0261862 -0.0773357 -0.00130804)
(-0.034512 -0.0841479 -0.00147594)
(-0.0422473 -0.0915145 -0.00174994)
(-0.0531424 -0.100304 -0.00228755)
(-0.0649263 -0.110713 -0.00342613)
(-0.0661183 -0.120109 -0.00636594)
(-0.0507965 -0.123127 -0.00956165)
(-0.0156732 -0.0909955 -0.010068)
(-0.00900762 -0.0468879 -0.000753926)
(-0.0162172 -0.0512653 -0.000940764)
(-0.0241687 -0.0559368 -0.00111853)
(-0.031744 -0.0608662 -0.00134185)
(-0.0404349 -0.0662049 -0.00153897)
(-0.0487071 -0.0719457 -0.0018667)
(-0.0602681 -0.0788061 -0.00232362)
(-0.0726206 -0.0869527 -0.00357992)
(-0.07425 -0.0943079 -0.00653546)
(-0.0590007 -0.0965836 -0.0102762)
(-0.0216586 -0.0711729 -0.010622)
(-0.012382 -0.0338447 -0.000775915)
(-0.0198737 -0.0369832 -0.000966461)
(-0.028084 -0.0403331 -0.00114946)
(-0.0359499 -0.0438661 -0.00137783)
(-0.0449765 -0.0476834 -0.00157133)
(-0.0535926 -0.0517971 -0.00190567)
(-0.0656424 -0.0567243 -0.00242191)
(-0.0784025 -0.0625639 -0.00374007)
(-0.0803401 -0.0678092 -0.00682247)
(-0.0652473 -0.0694467 -0.010419)
(-0.0262279 -0.051057 -0.010665)
(-0.0223422 -0.0223313 -0.000987482)
(-0.0307257 -0.0243476 -0.00117478)
(-0.0387995 -0.0264683 -0.00140809)
(-0.0480205 -0.0287673 -0.00160584)
(-0.0568907 -0.0312322 -0.00195258)
(-0.0692654 -0.0342 -0.00247954)
(-0.0822993 -0.0377243 -0.00384141)
(-0.0844365 -0.0408587 -0.00701679)
(-0.0693905 -0.0418414 -0.0107278)
(-0.0292142 -0.0306709 -0.0108858)
(-0.0235803 -0.00746892 -0.00100292)
(-0.0320551 -0.0081414 -0.00119441)
(-0.0402268 -0.00884813 -0.00143299)
(-0.0495509 -0.00961584 -0.00163486)
(-0.0585398 -0.0104357 -0.00199491)
(-0.0710935 -0.0114292 -0.0025374)
(-0.0842582 -0.0126094 -0.00392881)
(-0.0864892 -0.0136475 -0.00717976)
(-0.0714481 -0.0139716 -0.0109643)
(-0.0306764 -0.0102034 -0.0110556)
(0.186486 -0.113005 -0.00108116)
(0.184569 -0.123996 -0.000544865)
(0.183649 -0.137219 -0.000654252)
(0.183203 -0.15192 -0.000530828)
(0.182583 -0.168118 -0.000325791)
(0.183058 -0.1857 -0.000360745)
(0.184072 -0.205274 -0.000688627)
(0.187769 -0.225695 -0.000931742)
(0.190795 -0.247391 -0.00130473)
(0.198143 -0.268526 -0.00192939)
(0.20555 -0.292833 -0.00211372)
(0.217149 -0.319806 -0.00362876)
(0.23138 -0.351697 -0.00828461)
(0.261261 -0.366138 -0.0161266)
(0.223757 -0.300048 -0.0171541)
(0.180698 -0.115239 -0.00148551)
(0.177435 -0.126064 -0.0010233)
(0.175997 -0.139469 -0.00122603)
(0.17447 -0.153871 -0.000923531)
(0.172477 -0.169606 -0.000534178)
(0.171568 -0.186561 -0.00055191)
(0.171904 -0.205891 -0.000766568)
(0.174227 -0.225626 -0.00118179)
(0.175896 -0.246624 -0.00166101)
(0.181738 -0.267424 -0.00223203)
(0.187718 -0.291286 -0.00256383)
(0.196753 -0.317829 -0.00393391)
(0.209114 -0.348677 -0.0087085)
(0.236579 -0.362772 -0.0166426)
(0.205115 -0.298225 -0.018297)
(0.170338 -0.126664 -0.00122576)
(0.168778 -0.140211 -0.00145692)
(0.165168 -0.153824 -0.00127246)
(0.161532 -0.16889 -0.00077457)
(0.160091 -0.185759 -0.000859199)
(0.159068 -0.20434 -0.000862507)
(0.160251 -0.223572 -0.00137236)
(0.160543 -0.243994 -0.00191693)
(0.164758 -0.264239 -0.00254693)
(0.169301 -0.287644 -0.00265154)
(0.175731 -0.3136 -0.00418245)
(0.186105 -0.343298 -0.00905213)
(0.211245 -0.357489 -0.0171264)
(0.186067 -0.295219 -0.0192761)
(0.163984 -0.127009 -0.000593172)
(0.161381 -0.140214 -0.000846028)
(0.15594 -0.153181 -0.00139583)
(0.151018 -0.167729 -0.00120312)
(0.148531 -0.184081 -0.00112988)
(0.146056 -0.201748 -0.00128164)
(0.146206 -0.220378 -0.00155541)
(0.145168 -0.240101 -0.00208544)
(0.148 -0.259872 -0.00279191)
(0.150725 -0.282426 -0.00277593)
(0.154996 -0.307779 -0.00453405)
(0.163552 -0.336162 -0.00952405)
(0.186417 -0.350775 -0.0178991)
(0.166406 -0.289615 -0.0197279)
(0.151084 -0.137908 -0.000579388)
(0.146344 -0.151354 -0.00114908)
(0.140411 -0.165477 -0.00182597)
(0.136868 -0.181228 -0.00171645)
(0.13345 -0.198325 -0.0019902)
(0.13199 -0.215899 -0.00187377)
(0.129653 -0.234822 -0.00232491)
(0.131054 -0.253908 -0.00287405)
(0.132145 -0.275665 -0.00311324)
(0.134367 -0.300207 -0.00485931)
(0.141242 -0.327226 -0.00986484)
(0.161761 -0.34216 -0.0182377)
(0.146603 -0.282289 -0.0203003)
(0.143307 -0.135992 -0.000946983)
(0.135889 -0.148088 -0.00150936)
(0.130977 -0.16272 -0.0023052)
(0.125947 -0.177584 -0.00241531)
(0.12128 -0.193813 -0.00260381)
(0.117855 -0.210083 -0.00233974)
(0.114438 -0.22818 -0.00253736)
(0.114297 -0.246377 -0.00294986)
(0.113953 -0.267277 -0.00335905)
(0.11414 -0.290891 -0.00512719)
(0.119287 -0.31646 -0.0100928)
(0.137492 -0.331477 -0.0183336)
(0.126947 -0.273091 -0.0209064)
(0.132761 -0.131696 -0.000377351)
(0.127661 -0.144847 -0.00125666)
(0.121671 -0.158759 -0.00183277)
(0.115278 -0.172793 -0.0024581)
(0.109105 -0.188018 -0.00288928)
(0.103994 -0.203122 -0.00297867)
(0.0991844 -0.220097 -0.0028002)
(0.0976286 -0.237274 -0.00321968)
(0.0959824 -0.257323 -0.00351175)
(0.0942593 -0.279902 -0.00537543)
(0.0978224 -0.303937 -0.0104534)
(0.113916 -0.31886 -0.0186976)
(0.107815 -0.262241 -0.0216908)
(0.116781 -0.13906 -0.000783026)
(0.110203 -0.152374 -0.00104385)
(0.103985 -0.166222 -0.0017425)
(0.0972443 -0.180873 -0.00241907)
(0.0908891 -0.19502 -0.00334785)
(0.0844993 -0.210708 -0.00320352)
(0.0817323 -0.226899 -0.00364186)
(0.0785489 -0.245732 -0.00370498)
(0.0751102 -0.26716 -0.00566634)
(0.0772023 -0.289646 -0.0108777)
(0.0911283 -0.304254 -0.0190465)
(0.0893785 -0.249915 -0.0225059)
(0.107445 -0.132988 -0.000940831)
(0.0994125 -0.14523 -0.0012746)
(0.0919021 -0.157971 -0.00162086)
(0.0841575 -0.171624 -0.00202814)
(0.0780008 -0.185505 -0.00312612)
(0.0702062 -0.199892 -0.00369551)
(0.0664328 -0.21512 -0.00389901)
(0.0617112 -0.232628 -0.00387385)
(0.0567235 -0.252779 -0.00588008)
(0.057384 -0.273681 -0.0111879)
(0.0693368 -0.287756 -0.019346)
(0.0718049 -0.236072 -0.0233639)
(0.097492 -0.125308 -0.000897893)
(0.0891945 -0.13693 -0.00135939)
(0.0811237 -0.148929 -0.00194146)
(0.0724033 -0.161522 -0.00248412)
(0.0650548 -0.174246 -0.0030981)
(0.057135 -0.187995 -0.0040685)
(0.0517078 -0.201839 -0.00416003)
(0.045631 -0.21797 -0.00415171)
(0.0391919 -0.236796 -0.00606382)
(0.0385816 -0.25606 -0.0114818)
(0.0487261 -0.269421 -0.0196518)
(0.0552019 -0.220745 -0.0242845)
(0.0884949 -0.116966 -0.00101827)
(0.0792817 -0.127542 -0.00138961)
(0.0706363 -0.138617 -0.00188565)
(0.0614591 -0.15035 -0.00250915)
(0.0533975 -0.162127 -0.00319876)
(0.0445556 -0.174712 -0.00391523)
(0.0379236 -0.187267 -0.00453537)
(0.03074 -0.202057 -0.0044522)
(0.022724 -0.219274 -0.00624144)
(0.0209763 -0.23684 -0.0117782)
(0.0294849 -0.249329 -0.0199328)
(0.0398837 -0.204271 -0.0252611)
(0.0701084 -0.117189 -0.00150198)
(0.060611 -0.127178 -0.00194525)
(0.0505569 -0.13776 -0.00243353)
(0.0417038 -0.148417 -0.00311829)
(0.032271 -0.159895 -0.00381142)
(0.0254077 -0.1715 -0.00462662)
(0.0166818 -0.184701 -0.00468234)
(0.00744401 -0.200292 -0.00642291)
(0.00471199 -0.216149 -0.0120456)
(0.0117785 -0.227659 -0.0201385)
(0.0257587 -0.186349 -0.0253025)
(0.0614886 -0.105847 -0.00155869)
(0.0514976 -0.114814 -0.00205464)
(0.040883 -0.124285 -0.0025959)
(0.0315473 -0.133853 -0.00328385)
(0.0213517 -0.144098 -0.00394882)
(0.0134265 -0.154319 -0.00461956)
(0.00413857 -0.166206 -0.00496393)
(-0.00643113 -0.180022 -0.00663559)
(-0.0101677 -0.194111 -0.0122584)
(-0.00434848 -0.204562 -0.0203742)
(0.0127985 -0.166912 -0.0254138)
(0.0538007 -0.0936475 -0.00164323)
(0.0431869 -0.101485 -0.00211723)
(0.0319831 -0.109778 -0.00264397)
(0.0218802 -0.118128 -0.00327159)
(0.0111577 -0.127113 -0.00393107)
(0.00305974 -0.136185 -0.00473965)
(-0.00723729 -0.14652 -0.00506178)
(-0.0188737 -0.158576 -0.00688544)
(-0.023459 -0.170825 -0.0124702)
(-0.0187452 -0.180076 -0.0206151)
(0.00138648 -0.147148 -0.0267502)
(0.0469239 -0.0806637 -0.00170753)
(0.0358906 -0.0873527 -0.00219755)
(0.0241776 -0.0944314 -0.00272596)
(0.01366 -0.10157 -0.00339737)
(0.00238999 -0.10923 -0.00403081)
(-0.00657142 -0.116938 -0.00467883)
(-0.0172223 -0.125823 -0.00515358)
(-0.0295478 -0.1361 -0.00715617)
(-0.0350288 -0.146476 -0.0127382)
(-0.031206 -0.154421 -0.0207958)
(-0.00850402 -0.125834 -0.0265108)
(0.041123 -0.0669757 -0.00176599)
(0.0296487 -0.0724949 -0.00225661)
(0.0175395 -0.0783289 -0.00279145)
(0.00653581 -0.0842064 -0.00345171)
(-0.00519154 -0.0905264 -0.00409589)
(-0.0144303 -0.0968828 -0.00481138)
(-0.0258185 -0.1042 -0.00519673)
(-0.0386776 -0.112661 -0.00724659)
(-0.0448704 -0.12116 -0.0129439)
(-0.0417009 -0.127829 -0.0211671)
(-0.0168363 -0.104084 -0.0269243)
(0.036333 -0.0527213 -0.00181347)
(0.0245622 -0.0570316 -0.00230985)
(0.0121107 -0.0615963 -0.002847)
(0.000754166 -0.0661915 -0.00351589)
(-0.0113016 -0.0711335 -0.00415029)
(-0.0210027 -0.0761055 -0.00484362)
(-0.0327826 -0.0818366 -0.0052734)
(-0.0461116 -0.0884689 -0.00733964)
(-0.0527536 -0.0950865 -0.0131571)
(-0.0502274 -0.100314 -0.0212436)
(-0.0235561 -0.0815106 -0.0269309)
(0.0327067 -0.0379928 -0.00185011)
(0.0206884 -0.0410868 -0.00235027)
(0.00797906 -0.0443611 -0.00289042)
(-0.0036371 -0.0476555 -0.00356437)
(-0.0159788 -0.0512046 -0.00419958)
(-0.0259346 -0.054761 -0.00489993)
(-0.0381206 -0.0588824 -0.00532319)
(-0.0517809 -0.0636489 -0.0074013)
(-0.0588015 -0.0683743 -0.013279)
(-0.0566558 -0.0721766 -0.021421)
(-0.0285743 -0.0585406 -0.0271496)
(0.0180669 -0.0247895 -0.00237931)
(0.00519658 -0.0267608 -0.00292199)
(-0.00660715 -0.0287407 -0.00360135)
(-0.0191212 -0.0308784 -0.00423427)
(-0.0292711 -0.0330145 -0.00494202)
(-0.0417153 -0.0354966 -0.00537197)
(-0.0556032 -0.0383806 -0.00745338)
(-0.0628659 -0.0412111 -0.0133805)
(-0.060958 -0.0435181 -0.0215605)
(-0.0319041 -0.0352206 -0.0272835)
(0.0167509 -0.00828851 -0.00239673)
(0.00379464 -0.0089467 -0.00294177)
(-0.00809923 -0.00960602 -0.00362616)
(-0.0207038 -0.0103214 -0.00425855)
(-0.0309447 -0.0110311 -0.00497436)
(-0.0435352 -0.0118621 -0.00540834)
(-0.0575343 -0.0128296 -0.00749017)
(-0.0649195 -0.0137706 -0.0134576)
(-0.0631038 -0.0145474 -0.0216922)
(-0.033534 -0.0117424 -0.0273799)
(0.223633 -0.116338 1.94328e-05)
(0.221075 -0.127439 0.000151836)
(0.219515 -0.140179 0.000166288)
(0.217606 -0.154255 9.27745e-05)
(0.215091 -0.169793 -0.000110465)
(0.213427 -0.186641 -0.000438499)
(0.212329 -0.205356 -0.00100943)
(0.213418 -0.224701 -0.00185851)
(0.21471 -0.245784 -0.00289222)
(0.219979 -0.266048 -0.00431896)
(0.226927 -0.289586 -0.00484272)
(0.237662 -0.313307 -0.00717686)
(0.247494 -0.342278 -0.0139781)
(0.270655 -0.361663 -0.0261555)
(0.238032 -0.320738 -0.0339532)
(0.216893 -0.117479 -0.000102164)
(0.213676 -0.128514 5.82083e-05)
(0.211552 -0.141202 5.18541e-05)
(0.208558 -0.155026 -5.75043e-05)
(0.204828 -0.170261 -0.000315732)
(0.202076 -0.186789 -0.00068735)
(0.19997 -0.205099 -0.00130961)
(0.199818 -0.224023 -0.00222588)
(0.199798 -0.244575 -0.003272)
(0.203635 -0.264578 -0.00471745)
(0.209031 -0.287541 -0.00530688)
(0.21741 -0.311174 -0.00776539)
(0.225507 -0.339343 -0.0145655)
(0.246152 -0.358236 -0.0270631)
(0.218774 -0.318404 -0.0353197)
(0.205959 -0.127965 -0.000105174)
(0.203025 -0.140441 -0.000139254)
(0.19905 -0.153958 -0.000280017)
(0.1942 -0.168852 -0.000538334)
(0.190514 -0.185042 -0.000921363)
(0.187268 -0.202927 -0.00161577)
(0.185784 -0.221398 -0.00254609)
(0.184388 -0.241437 -0.00360441)
(0.186767 -0.261081 -0.0049968)
(0.190573 -0.28349 -0.0057133)
(0.19673 -0.306938 -0.00820874)
(0.203 -0.334072 -0.0149913)
(0.221095 -0.352906 -0.0275628)
(0.198919 -0.314633 -0.0367249)
(0.197887 -0.126887 -0.000206073)
(0.194059 -0.13907 -0.00031473)
(0.189295 -0.152266 -0.000521291)
(0.183625 -0.166801 -0.000707327)
(0.178961 -0.182575 -0.00113585)
(0.174594 -0.199949 -0.00183607)
(0.171799 -0.217818 -0.00283486)
(0.169035 -0.237217 -0.0039577)
(0.169984 -0.256371 -0.00532609)
(0.172231 -0.278147 -0.0060651)
(0.176241 -0.301166 -0.00861707)
(0.180765 -0.32713 -0.0154636)
(0.196372 -0.345976 -0.0281053)
(0.178535 -0.308603 -0.0381792)
(0.184675 -0.136693 -0.000394134)
(0.179293 -0.149571 -0.000678354)
(0.173027 -0.163747 -0.000867135)
(0.167395 -0.179042 -0.00130096)
(0.1619 -0.195802 -0.00203099)
(0.1577 -0.213008 -0.0031056)
(0.153592 -0.23168 -0.00426574)
(0.153128 -0.250228 -0.00571018)
(0.153859 -0.27126 -0.00636254)
(0.155867 -0.29365 -0.00899277)
(0.158825 -0.318371 -0.0160292)
(0.171882 -0.337182 -0.0287572)
(0.158056 -0.300709 -0.0394278)
(0.175726 -0.133596 -0.00054411)
(0.169287 -0.146014 -0.000819235)
(0.162685 -0.159756 -0.00111403)
(0.156096 -0.174469 -0.00158055)
(0.149353 -0.190509 -0.00232889)
(0.143739 -0.206973 -0.00337999)
(0.138349 -0.224803 -0.00457648)
(0.136531 -0.242667 -0.00607925)
(0.135758 -0.26281 -0.00674206)
(0.135819 -0.284461 -0.00940328)
(0.137264 -0.307914 -0.0165581)
(0.147905 -0.326595 -0.0292812)
(0.137778 -0.290917 -0.040553)
(0.165876 -0.129492 -0.000615247)
(0.159474 -0.141519 -0.000922891)
(0.152117 -0.154715 -0.00142208)
(0.144612 -0.168784 -0.00197951)
(0.136766 -0.184071 -0.00272942)
(0.129945 -0.199729 -0.00368224)
(0.123272 -0.216658 -0.00486671)
(0.120187 -0.233705 -0.00635981)
(0.118011 -0.252869 -0.00710776)
(0.116205 -0.273642 -0.00978109)
(0.116228 -0.295727 -0.0170192)
(0.124588 -0.31406 -0.0297313)
(0.117972 -0.279247 -0.0415306)
(0.149244 -0.13595 -0.00106195)
(0.14106 -0.148522 -0.00159234)
(0.132921 -0.161909 -0.00225598)
(0.12424 -0.176384 -0.00310631)
(0.116499 -0.191198 -0.00402133)
(0.108659 -0.207178 -0.00515912)
(0.104334 -0.223278 -0.00663347)
(0.100775 -0.241385 -0.00742286)
(0.0972276 -0.261134 -0.0101436)
(0.0958892 -0.281804 -0.0175044)
(0.10207 -0.299601 -0.0301846)
(0.0988507 -0.265885 -0.0424246)
(0.139684 -0.129459 -0.00115081)
(0.130644 -0.141292 -0.00171106)
(0.121454 -0.153888 -0.00239985)
(0.111842 -0.167491 -0.00329273)
(0.10338 -0.181447 -0.00433599)
(0.094523 -0.19642 -0.00544123)
(0.0890333 -0.211472 -0.00692926)
(0.0841558 -0.228437 -0.00770051)
(0.0790204 -0.247037 -0.010515)
(0.0764289 -0.26624 -0.0179934)
(0.080565 -0.283297 -0.0306307)
(0.0806094 -0.250892 -0.0431701)
(0.130104 -0.121991 -0.00128977)
(0.120429 -0.133042 -0.0018373)
(0.110624 -0.144801 -0.00253814)
(0.100195 -0.157452 -0.00341632)
(0.0907386 -0.170431 -0.0045571)
(0.081126 -0.184341 -0.00574071)
(0.074444 -0.19833 -0.00720913)
(0.068304 -0.214042 -0.00796883)
(0.0617246 -0.231386 -0.0108538)
(0.0579613 -0.249071 -0.0183974)
(0.0602325 -0.265205 -0.0310352)
(0.0634004 -0.234397 -0.0438699)
(0.121237 -0.113621 -0.00140974)
(0.110791 -0.123809 -0.0019885)
(0.100217 -0.134654 -0.00270547)
(0.0890495 -0.146311 -0.00360625)
(0.0788589 -0.158263 -0.00475292)
(0.068352 -0.17105 -0.0060502)
(0.0607119 -0.183893 -0.00747266)
(0.0534372 -0.198288 -0.00825405)
(0.0454532 -0.214254 -0.0111398)
(0.0406446 -0.230351 -0.0187712)
(0.0412414 -0.24542 -0.0314212)
(0.047367 -0.216452 -0.044587)
(0.101749 -0.113642 -0.00211868)
(0.0904641 -0.123498 -0.0028594)
(0.0785471 -0.134078 -0.00378275)
(0.067591 -0.144931 -0.00493273)
(0.056362 -0.156556 -0.00625454)
(0.0480065 -0.168202 -0.00775765)
(0.0395772 -0.181245 -0.0085212)
(0.0303701 -0.195726 -0.0114053)
(0.0246132 -0.210219 -0.0191345)
(0.0237223 -0.224094 -0.0317673)
(0.0326415 -0.197291 -0.0453183)
(0.0933607 -0.102589 -0.00224247)
(0.0814977 -0.111415 -0.00298789)
(0.0689557 -0.120881 -0.00391473)
(0.0573589 -0.130584 -0.00508095)
(0.0454128 -0.140975 -0.00642751)
(0.0362658 -0.15136 -0.00797549)
(0.0269879 -0.162996 -0.00876832)
(0.0166204 -0.17592 -0.0116623)
(0.00999414 -0.188779 -0.0194669)
(0.00777587 -0.201323 -0.032081)
(0.0192373 -0.176886 -0.0457532)
(0.0858262 -0.0907104 -0.00235267)
(0.0733859 -0.0984527 -0.00311038)
(0.0602587 -0.106751 -0.00405034)
(0.0480205 -0.115251 -0.00523279)
(0.035474 -0.124355 -0.00658296)
(0.0257934 -0.133479 -0.00814791)
(0.0156605 -0.143643 -0.00900756)
(0.00430029 -0.154965 -0.0118838)
(-0.00310077 -0.166145 -0.0197361)
(-0.00644511 -0.177228 -0.0322963)
(0.00734964 -0.15542 -0.0460958)
(0.0791409 -0.078098 -0.00244912)
(0.0662333 -0.0847157 -0.00321709)
(0.0526056 -0.0918042 -0.00416405)
(0.0398744 -0.0990639 -0.00535212)
(0.0267892 -0.106836 -0.00671388)
(0.0164937 -0.114619 -0.00829891)
(0.00573475 -0.123314 -0.00918176)
(-0.00636412 -0.132954 -0.0121041)
(-0.014504 -0.14244 -0.0200147)
(-0.0188152 -0.151991 -0.0325419)
(-0.00294757 -0.133067 -0.0466436)
(0.0734515 -0.0648271 -0.00253135)
(0.060137 -0.0702893 -0.0033063)
(0.0460917 -0.0761368 -0.00426089)
(0.032912 -0.082122 -0.00546126)
(0.0193581 -0.0885329 -0.00682516)
(0.0086492 -0.0949385 -0.00840685)
(-0.00271685 -0.102109 -0.00932177)
(-0.0154399 -0.11005 -0.0122875)
(-0.0242072 -0.117824 -0.0202163)
(-0.029252 -0.12577 -0.0327629)
(-0.0116463 -0.109942 -0.0468798)
(0.0687982 -0.0510142 -0.00259784)
(0.055155 -0.0552882 -0.00338023)
(0.0407758 -0.0598653 -0.00433999)
(0.0272365 -0.0645449 -0.00554838)
(0.0133318 -0.0695587 -0.00691675)
(0.00223249 -0.0745764 -0.00850426)
(-0.00959408 -0.0801826 -0.00942522)
(-0.0227922 -0.0864074 -0.0124226)
(-0.032014 -0.0924539 -0.0204201)
(-0.0377058 -0.0987213 -0.0329801)
(-0.0186346 -0.0861544 -0.0471832)
(0.0652492 -0.0367574 -0.00264815)
(0.0513653 -0.0398258 -0.00343543)
(0.0367253 -0.0431111 -0.00439915)
(0.022924 -0.0464669 -0.00561484)
(0.00873855 -0.0500697 -0.00698508)
(-0.00263142 -0.0536564 -0.00857642)
(-0.0148332 -0.0576868 -0.00950475)
(-0.0283838 -0.0621618 -0.012517)
(-0.0379646 -0.0664791 -0.0205678)
(-0.0440956 -0.0710218 -0.0331192)
(-0.0238826 -0.061862 -0.0473339)
(0.0488007 -0.0240282 -0.00347263)
(0.0339946 -0.0260059 -0.00443858)
(0.0200122 -0.0280239 -0.00566015)
(0.0056456 -0.0301929 -0.00703038)
(-0.00590748 -0.03235 -0.00862715)
(-0.0183656 -0.0347731 -0.00955771)
(-0.032147 -0.0374785 -0.0125745)
(-0.0419669 -0.0400639 -0.0206653)
(-0.0483735 -0.0428246 -0.0332431)
(-0.0273601 -0.0372219 -0.0474527)
(0.04751 -0.00803408 -0.00349171)
(0.0326188 -0.00869457 -0.00445893)
(0.0185463 -0.0093668 -0.00568455)
(0.00408829 -0.0100925 -0.00705411)
(-0.00755331 -0.0108096 -0.00865654)
(-0.0201494 -0.0116196 -0.00958745)
(-0.0340427 -0.0125261 -0.012602)
(-0.0439875 -0.0133856 -0.0207186)
(-0.0505145 -0.014316 -0.0333245)
(-0.0290696 -0.0124114 -0.0474922)
(0.247097 -0.113525 -0.00011788)
(0.244956 -0.12417 5.1386e-05)
(0.24295 -0.136029 2.30287e-05)
(0.240745 -0.149176 8.95491e-06)
(0.238133 -0.163821 -0.000153215)
(0.235903 -0.179805 -0.000583608)
(0.233834 -0.197684 -0.00142236)
(0.23337 -0.216505 -0.00267475)
(0.233439 -0.237296 -0.00434168)
(0.237299 -0.257644 -0.00661754)
(0.24358 -0.281103 -0.00795916)
(0.254152 -0.303859 -0.0110233)
(0.261315 -0.330347 -0.0192761)
(0.278955 -0.350065 -0.0352172)
(0.256279 -0.334549 -0.0516343)
(0.240044 -0.114224 -0.000245184)
(0.237264 -0.124765 -0.000116337)
(0.234582 -0.136523 -0.000174868)
(0.231502 -0.149496 -0.000239516)
(0.22794 -0.163946 -0.000422312)
(0.224749 -0.179709 -0.000895266)
(0.221645 -0.197285 -0.00180159)
(0.220009 -0.215796 -0.00310814)
(0.21882 -0.236144 -0.00482071)
(0.221284 -0.256244 -0.00715545)
(0.226038 -0.27917 -0.00853529)
(0.234334 -0.301814 -0.0117492)
(0.239752 -0.327621 -0.0200388)
(0.254936 -0.346704 -0.0363316)
(0.236358 -0.331745 -0.0536301)
(0.229276 -0.123855 -0.000237901)
(0.22586 -0.135425 -0.000321963)
(0.221976 -0.148156 -0.000480046)
(0.217512 -0.162342 -0.000716971)
(0.21338 -0.177822 -0.00120712)
(0.209209 -0.195061 -0.00219191)
(0.20632 -0.213213 -0.00350996)
(0.203783 -0.233105 -0.00524029)
(0.204795 -0.252868 -0.00758905)
(0.207967 -0.27527 -0.00906694)
(0.214139 -0.297757 -0.0123389)
(0.217862 -0.322664 -0.0207052)
(0.230401 -0.341462 -0.0370965)
(0.215756 -0.327446 -0.0555052)
(0.221161 -0.122535 -0.000345248)
(0.216996 -0.133856 -0.000449943)
(0.212352 -0.1463 -0.000684379)
(0.207049 -0.160151 -0.00100456)
(0.20196 -0.175272 -0.00155726)
(0.196739 -0.192085 -0.00254649)
(0.192612 -0.209752 -0.00391565)
(0.188776 -0.229061 -0.00568736)
(0.188349 -0.248348 -0.00804758)
(0.190011 -0.270117 -0.0095823)
(0.19408 -0.29221 -0.0129093)
(0.196188 -0.316063 -0.021379)
(0.206251 -0.334748 -0.0378501)
(0.19466 -0.32095 -0.0573261)
(0.207983 -0.13141 -0.000588494)
(0.202584 -0.143526 -0.000912235)
(0.196488 -0.156981 -0.00130064)
(0.190451 -0.171671 -0.00190465)
(0.184148 -0.187959 -0.00289255)
(0.1788 -0.205077 -0.00431731)
(0.173688 -0.223726 -0.00610592)
(0.171876 -0.242427 -0.00852828)
(0.172037 -0.263453 -0.0100249)
(0.174144 -0.284982 -0.0134445)
(0.174789 -0.30769 -0.0221157)
(0.182362 -0.326264 -0.0387106)
(0.173503 -0.312526 -0.0589232)
(0.198986 -0.128235 -0.000720662)
(0.192824 -0.139959 -0.00108852)
(0.185979 -0.15294 -0.0015799)
(0.178996 -0.167104 -0.00224838)
(0.171602 -0.182769 -0.00327985)
(0.165072 -0.199246 -0.00471429)
(0.158741 -0.217129 -0.00653057)
(0.155629 -0.235149 -0.00900434)
(0.154313 -0.255296 -0.0105004)
(0.154504 -0.276131 -0.0139998)
(0.153759 -0.297645 -0.0228312)
(0.158988 -0.316031 -0.0394975)
(0.152592 -0.302186 -0.0603693)
(0.18988 -0.124225 -0.000808871)
(0.183088 -0.135499 -0.00120381)
(0.175482 -0.147968 -0.0018097)
(0.16759 -0.161532 -0.00256804)
(0.159155 -0.176495 -0.00364766)
(0.15151 -0.192226 -0.00509245)
(0.143996 -0.209276 -0.00694427)
(0.139647 -0.226503 -0.0094113)
(0.136947 -0.24567 -0.0109607)
(0.135305 -0.265673 -0.0145127)
(0.133248 -0.28591 -0.0234724)
(0.136245 -0.303913 -0.0402047)
(0.132167 -0.289964 -0.0616758)
(0.173434 -0.130117 -0.00132822)
(0.165043 -0.142014 -0.00197025)
(0.156307 -0.154925 -0.00281737)
(0.146927 -0.169107 -0.00398498)
(0.138257 -0.184001 -0.00546)
(0.129642 -0.200133 -0.00735408)
(0.12409 -0.216446 -0.00978815)
(0.120068 -0.23456 -0.011385)
(0.1167 -0.25358 -0.0150074)
(0.113405 -0.272497 -0.0241047)
(0.114304 -0.289948 -0.0409149)
(0.112445 -0.275994 -0.0629091)
(0.164051 -0.123833 -0.00148282)
(0.154894 -0.135067 -0.00214062)
(0.145316 -0.147247 -0.00302299)
(0.135055 -0.160597 -0.00425515)
(0.125438 -0.174596 -0.00582739)
(0.115762 -0.189737 -0.00772764)
(0.109067 -0.205045 -0.0101934)
(0.103794 -0.222019 -0.0117803)
(0.0988583 -0.239929 -0.0154935)
(0.0944133 -0.257476 -0.0247302)
(0.0933415 -0.274193 -0.0416003)
(0.093617 -0.260352 -0.064052)
(0.154975 -0.116655 -0.00163309)
(0.145092 -0.127156 -0.0023236)
(0.134741 -0.138539 -0.00323801)
(0.123644 -0.150982 -0.00447227)
(0.113141 -0.164017 -0.00611484)
(0.102526 -0.178073 -0.00808079)
(0.0947498 -0.192326 -0.0105844)
(0.0882749 -0.208069 -0.0121438)
(0.0819064 -0.224763 -0.0159453)
(0.07639 -0.240897 -0.0252856)
(0.0735182 -0.256713 -0.042235)
(0.0758415 -0.24315 -0.0650858)
(0.14635 -0.108618 -0.0017902)
(0.135785 -0.11832 -0.00249725)
(0.124703 -0.128827 -0.00343899)
(0.112822 -0.140291 -0.00471235)
(0.101498 -0.152304 -0.00638158)
(0.0899996 -0.165232 -0.00844659)
(0.0812449 -0.178338 -0.0109282)
(0.0736599 -0.19279 -0.0124975)
(0.0659582 -0.208162 -0.016346)
(0.0594842 -0.222824 -0.0258036)
(0.0549941 -0.237598 -0.0428265)
(0.0592826 -0.224502 -0.0660691)
(0.127058 -0.108592 -0.0026686)