/*--------------------------------*- C++ -*----------------------------------*\
  =========                 |
  \\      /  F ield         | OpenFOAM: The Open Source CFD Toolbox
   \\    /   O peration     | Website:  https://openfoam.org
    \\  /    A nd           | Version:  6
     \\/     M anipulation  |
\*---------------------------------------------------------------------------*/
FoamFile
{
    version     2.0;
    format      ascii;
    class       surfaceScalarField;
    location    "20";
    object      phi;
}
// * * * * * * * * * * * * * * * * * * * * * * * * * * * * * * * * * * * * * //

dimensions      [0 3 -1 0 0 0 0];

internalField   nonuniform List<scalar> 
5598
(
4.67342e-07
7.5507e-13
1.71961e-12
4.67345e-07
-1.27204e-12
-1.27604e-12
4.98999e-13
-4.27109e-13
4.48314e-07
4.5144e-12
4.59596e-14
4.48317e-07
-6.92822e-12
2.46555e-12
2.6748e-12
-2.79042e-12
6.28933e-07
8.69674e-12
3.02164e-13
6.28938e-07
-1.45316e-11
2.20636e-12
6.3902e-12
-2.80285e-12
8.29677e-07
1.06526e-11
1.61633e-12
8.29684e-07
-1.92286e-11
-2.30714e-12
9.31129e-12
5.10736e-13
1.05806e-06
8.51317e-12
2.65792e-12
1.05807e-06
-1.73626e-11
-1.01674e-11
9.62194e-12
7.47236e-12
1.32237e-06
4.15272e-12
1.93291e-12
1.32238e-06
-1.03772e-11
-1.6544e-11
6.91608e-12
1.4692e-11
1.63048e-06
-5.56457e-13
-9.93138e-13
1.63049e-06
-2.8238e-12
-1.55628e-11
3.92327e-12
1.67045e-11
1.99083e-06
-3.51294e-12
-5.97845e-12
1.99083e-06
2.30714e-12
-1.03481e-11
1.58503e-12
1.64904e-11
2.41259e-06
-5.7796e-12
-1.07878e-11
2.41259e-06
6.56044e-12
-7.24434e-12
-5.37967e-13
1.81686e-11
2.90523e-06
-6.93656e-12
-1.4182e-11
2.90523e-06
8.83567e-12
-6.06912e-12
-1.75128e-12
2.03462e-11
3.4799e-06
-6.26405e-12
-1.64452e-11
3.47991e-06
8.71534e-12
-5.57947e-12
-2.36965e-12
2.20909e-11
4.14699e-06
-5.78366e-12
-1.77222e-11
4.147e-06
7.85892e-12
-1.53763e-11
-2.0254e-12
3.31303e-11
4.90974e-06
-3.79897e-12
-1.34113e-11
4.90978e-06
5.26719e-12
-2.89401e-11
-1.47734e-12
4.24105e-11
5.76777e-06
-1.57237e-12
-4.98568e-12
5.76781e-06
1.803e-12
-3.24571e-11
-2.85687e-13
3.74886e-11
6.73097e-06
-3.87165e-15
-1.15129e-11
6.731e-06
-6.92862e-14
-2.1317e-11
-3.899e-14
3.2887e-11
6.7309e-06
1.57861e-12
-1.17231e-11
6.73093e-06
-1.91678e-12
-2.12061e-11
2.04606e-13
3.29506e-11
5.76752e-06
3.83533e-12
-5.15954e-12
5.76756e-06
-5.3482e-12
-3.24396e-11
1.38109e-12
3.75974e-11
4.90926e-06
5.84342e-12
-1.34985e-11
4.90929e-06
-7.94779e-12
-2.88534e-11
1.99841e-12
4.23261e-11
4.14633e-06
6.35177e-12
-1.77439e-11
4.14635e-06
-8.69301e-12
-1.54156e-11
2.25806e-12
3.31367e-11
3.47916e-06
7.02905e-12
-1.64242e-11
3.47916e-06
-8.87979e-12
-5.40522e-12
1.77274e-12
2.18243e-11
2.90458e-06
6.00368e-12
-1.42661e-11
2.90458e-06
-6.68428e-12
-5.88991e-12
5.9359e-13
2.0165e-11
2.41199e-06
3.86032e-12
-1.08688e-11
2.41199e-06
-2.43085e-12
-7.11342e-12
-1.5311e-12
1.79968e-11
1.99028e-06
1.02503e-12
-6.08605e-12
1.99029e-06
2.63227e-12
-1.01223e-11
-3.76703e-12
1.62164e-11
1.62996e-06
-3.65086e-12
-1.10367e-12
1.62997e-06
1.02971e-11
-1.55117e-11
-6.75603e-12
1.66153e-11
1.32185e-06
-8.05565e-12
1.86538e-12
1.32186e-06
1.73653e-11
-1.65368e-11
-9.4101e-12
1.46621e-11
1.05757e-06
-1.02777e-11
2.66984e-12
1.05758e-06
1.93028e-11
-1.02376e-11
-9.10412e-12
7.54634e-12
8.29252e-07
-8.46351e-12
1.67734e-12
8.29259e-07
1.47056e-11
-2.37862e-12
-6.29313e-12
6.73339e-13
6.28606e-07
-4.42106e-12
4.12499e-13
6.28611e-07
7.05012e-12
2.25665e-12
-2.64849e-12
-2.70078e-12
4.48086e-07
-7.68704e-13
1.46279e-13
4.48089e-07
1.28396e-12
2.5602e-12
-5.07401e-13
-2.73377e-12
4.67141e-07
1.71055e-12
4.67144e-07
-1.29777e-12
-4.04923e-13
7.10438e-07
2.40477e-12
2.45298e-12
7.10441e-07
-3.62202e-12
-8.86853e-13
1.27066e-12
-1.60307e-12
1.15953e-06
1.04204e-11
-1.91935e-12
1.15953e-06
-1.55516e-11
9.20865e-12
5.77365e-12
-8.15727e-12
1.52475e-06
1.91333e-11
-1.62205e-12
1.52476e-06
-3.10092e-11
9.54745e-12
1.31567e-11
-8.85803e-12
1.92056e-06
2.26149e-11
3.43693e-12
1.92057e-06
-3.95708e-11
-3.72573e-12
1.85779e-11
-2.3239e-13
2.36766e-06
1.8117e-11
7.94788e-12
2.36767e-06
-3.45627e-11
-2.65061e-11
1.81105e-11
1.84781e-11
2.88125e-06
8.9541e-12
7.67575e-12
2.88126e-06
-2.04397e-11
-4.3215e-11
1.29463e-11
3.58244e-11
3.47501e-06
-5.84255e-13
1.05607e-12
3.47502e-06
-5.84084e-12
-4.01605e-11
7.55476e-12
3.95841e-11
4.16286e-06
-6.68731e-12
-1.09788e-11
4.16287e-06
4.36733e-12
-2.63651e-11
3.09939e-12
3.78579e-11
4.95933e-06
-1.11078e-11
-2.20005e-11
4.95933e-06
1.23145e-11
-1.83454e-11
-7.14584e-13
4.07697e-11
5.87872e-06
-1.31688e-11
-2.90935e-11
5.87872e-06
1.64095e-11
-1.41278e-11
-2.94607e-12
4.35138e-11
6.93676e-06
-1.20353e-11
-3.30555e-11
6.93677e-06
1.61249e-11
-1.07553e-11
-3.92756e-12
4.40096e-11
8.14844e-06
-1.07491e-11
-3.31907e-11
8.14845e-06
1.42895e-11
-2.68367e-11
-3.44759e-12
6.01286e-11
9.52727e-06
-7.15257e-12
-2.46199e-11
9.52729e-06
9.5188e-12
-4.45347e-11
-2.37857e-12
6.93191e-11
1.10966e-05
-2.91189e-12
-1.09914e-11
1.10966e-05
3.44142e-12
-4.45602e-11
-6.63024e-13
5.57187e-11
1.28946e-05
-1.09781e-14
-1.99688e-11
1.28946e-05
-1.33552e-13
-2.62878e-11
-7.01171e-14
4.63948e-11
1.28945e-05
2.90987e-12
-2.0308e-11
1.28945e-05
-3.67453e-12
-2.61338e-11
5.11091e-13
4.6502e-11
1.10965e-05
7.21095e-12
-1.13042e-11
1.10965e-05
-9.67632e-12
-4.46014e-11
2.21435e-12
5.59013e-11
9.52696e-06
1.08676e-11
-2.4822e-11
9.52698e-06
-1.44462e-11
-4.44257e-11
3.37517e-12
6.91742e-11
8.1479e-06
1.21896e-11
-3.32626e-11
8.14791e-06
-1.61988e-11
-2.69178e-11
3.84698e-12
6.01164e-11
6.93602e-06
1.33653e-11
-3.307e-11
6.93603e-06
-1.64871e-11
-1.04665e-11
2.96677e-12
4.35241e-11
5.87799e-06
1.15414e-11
-2.93741e-11
5.87799e-06
-1.24911e-11
-1.37447e-11
7.73528e-13
4.3149e-11
4.95859e-06
7.38497e-12
-2.23031e-11
4.9586e-06
-4.62357e-12
-1.79844e-11
-2.96878e-12
4.03334e-11
4.16215e-06
1.52892e-12
-1.13343e-11
4.16216e-06
5.52112e-12
-2.58831e-11
-7.27888e-12
3.72469e-11
3.4743e-06
-7.92796e-12
7.62533e-13
3.47431e-06
2.03553e-11
-4.01406e-11
-1.266e-11
3.93819e-11
2.88053e-06
-1.71545e-11
7.53576e-12
2.88054e-06
3.45658e-11
-4.31833e-11
-1.76278e-11
3.5622e-11
2.36695e-06
-2.18158e-11
7.96156e-12
2.36696e-06
3.9752e-11
-2.67632e-11
-1.81122e-11
1.87399e-11
1.91992e-06
-1.86133e-11
3.66167e-12
1.91993e-06
3.14391e-11
-4.01331e-12
-1.29455e-11
2.6741e-13
1.52425e-06
-1.0202e-11
-1.25531e-12
1.52425e-06
1.58502e-11
9.71871e-12
-5.69805e-12
-8.56493e-12
1.15915e-06
-2.40749e-12
-1.61033e-12
1.15915e-06
3.68649e-12
9.50597e-12
-1.27382e-12
-7.97794e-12
7.10182e-07
2.44565e-12
7.10185e-07
-8.86265e-13
-1.54635e-12
9.34341e-07
3.71342e-12
2.57861e-12
9.34345e-07
-5.4363e-12
5.87244e-13
1.85497e-12
-3.33488e-12
1.71624e-06
1.47446e-11
-5.61292e-12
1.71624e-06
-2.17207e-11
1.8738e-11
7.92691e-12
-1.48117e-11
2.23101e-06
2.66462e-11
-5.15464e-12
2.23102e-06
-4.25249e-11
2.01795e-11
1.77008e-11
-1.68287e-11
2.78166e-06
3.12854e-11
5.43391e-12
2.78167e-06
-5.36649e-11
-4.68811e-12
2.46617e-11
-1.72705e-12
3.4038e-06
2.52806e-11
1.48227e-11
3.40381e-06
-4.65268e-11
-4.69941e-11
2.35803e-11
3.20392e-11
4.11866e-06
1.27322e-11
1.61484e-11
4.11867e-06
-2.76056e-11
-7.65143e-11
1.69181e-11
6.09405e-11
4.94525e-06
-3.96646e-13
5.2039e-12
4.94527e-06
-8.08164e-12
-7.05578e-11
1.00593e-11
6.62973e-11
5.90307e-06
-8.95474e-12
-1.58212e-11
5.90307e-06
5.83455e-12
-4.5726e-11
4.21114e-12
6.25512e-11
7.01264e-06
-1.51088e-11
-3.50679e-11
7.01265e-06
1.65393e-11
-3.14049e-11
-7.41857e-13
6.72988e-11
8.29472e-06
-1.79656e-11
-4.74085e-11
8.29473e-06
2.20257e-11
-2.3317e-11
-3.64833e-12
7.12951e-11
9.77238e-06
-1.65711e-11
-5.41145e-11
9.77239e-06
2.16605e-11
-1.6284e-11
-4.86251e-12
7.07822e-11
1.14681e-05
-1.47171e-11
-5.34368e-11
1.14681e-05
1.91097e-11
-4.04308e-11
-4.26452e-12
9.40676e-11
1.3402e-05
-9.85761e-12
-3.96136e-11
1.3402e-05
1.27166e-11
-6.42933e-11
-2.8726e-12
1.04213e-10
1.56065e-05
-4.00747e-12
-1.92685e-11
1.56065e-05
4.67072e-12
-6.14828e-11
-8.55293e-13
8.10966e-11
1.81339e-05
-1.55349e-14
-3.13501e-11
1.8134e-05
-1.82928e-13
-3.44856e-11
-9.73763e-14
6.60779e-11
1.81339e-05
4.00158e-12
-3.1853e-11
1.81339e-05
-4.99493e-12
-3.42739e-11
6.42363e-13
6.62423e-11
1.56063e-05
9.93456e-12
-1.97691e-11
1.56063e-05
-1.29339e-11
-6.16059e-11
2.65168e-12
8.13675e-11
1.34015e-05
1.48813e-11
-3.99734e-11
1.34016e-05
-1.93147e-11
-6.41623e-11
4.15151e-12
1.03996e-10
1.14674e-05
1.67785e-11
-5.35674e-11
1.14674e-05
-2.17955e-11
-4.05278e-11
4.79188e-12
9.39745e-11
9.77142e-06
1.82423e-11
-5.41918e-11
9.77143e-06
-2.21265e-11
-1.59355e-11
3.66822e-12
7.01057e-11
8.29379e-06
1.57022e-11
-4.79595e-11
8.29379e-06
-1.67569e-11
-2.26997e-11
8.08822e-13
7.07194e-11
7.0117e-06
9.91652e-12
-3.56923e-11
7.01171e-06
-6.18407e-12
-3.0744e-11
-4.02138e-12
6.65252e-11
5.90217e-06
1.69637e-12
-1.65289e-11
5.90217e-06
7.67953e-12
-4.49677e-11
-9.6961e-12
6.15574e-11
4.94436e-06
-1.13183e-11
4.66984e-12
4.94437e-06
2.75309e-11
-7.06252e-11
-1.65386e-11
6.5965e-11
4.11774e-06
-2.39476e-11
1.59005e-11
4.11776e-06
4.65371e-11
-7.64395e-11
-2.28933e-11
6.04911e-11
3.4029e-06
-3.01777e-11
1.48295e-11
3.40291e-06
5.39289e-11
-4.75246e-11
-2.40009e-11
3.25793e-11
2.78086e-06
-2.59156e-11
5.89532e-12
2.78087e-06
4.31468e-11
-5.30288e-12
-1.74035e-11
-7.53998e-13
2.23037e-06
-1.44253e-11
-4.43604e-12
2.23038e-06
2.21567e-11
2.05156e-11
-7.80732e-12
-1.62775e-11
1.71576e-06
-3.69931e-12
-5.01664e-12
1.71576e-06
5.54785e-12
1.93121e-11
-1.84774e-12
-1.44545e-11
9.34029e-07
2.59104e-12
9.34033e-07
6.48623e-13
-3.22582e-12
1.21479e-06
5.0196e-12
2.31151e-12
1.21479e-06
-7.24559e-12
2.915e-12
2.45498e-12
-5.62453e-12
2.25615e-06
1.88161e-11
-1.06204e-11
2.25616e-06
-2.75162e-11
3.01527e-11
9.9616e-12
-2.22514e-11
2.93491e-06
3.37013e-11
-9.87931e-12
2.93492e-06
-5.32066e-11
3.30243e-11
2.18416e-11
-2.60237e-11
3.65108e-06
3.9541e-11
7.74877e-12
3.6511e-06
-6.66562e-11
-5.84459e-12
3.00292e-11
-3.4632e-12
4.4583e-06
3.22489e-11
2.30772e-11
4.45831e-06
-5.76893e-11
-7.13127e-11
2.84222e-11
4.80357e-11
5.38513e-06
1.65755e-11
2.69802e-11
5.38515e-06
-3.44689e-11
-1.15505e-10
2.05101e-11
8.94648e-11
6.45638e-06
-6.34234e-14
1.10939e-11
6.45639e-06
-1.02606e-11
-1.0564e-10
1.23519e-11
9.6078e-11
7.69741e-06
-1.10858e-11
-2.06719e-11
7.69741e-06
7.25548e-12
-6.71818e-11
5.2326e-12
8.94835e-11
9.13501e-06
-1.90172e-11
-5.02147e-11
9.13501e-06
2.07059e-11
-4.50051e-11
-8.0151e-13
9.65609e-11
1.07965e-05
-2.27373e-11
-6.94622e-11
1.07965e-05
2.7576e-11
-3.22643e-11
-4.30771e-12
1.02652e-10
1.27123e-05
-2.11099e-11
-7.99846e-11
1.27123e-05
2.71097e-11
-2.09041e-11
-5.70674e-12
1.0151e-10
1.49126e-05
-1.87301e-11
-7.88199e-11
1.49126e-05
2.38368e-11
-5.47188e-11
-4.9423e-12
1.33867e-10
1.74242e-05
-1.25882e-11
-5.88678e-11
1.74242e-05
1.58409e-11
-8.71432e-11
-3.26772e-12
1.46497e-10
2.02888e-05
-5.12627e-12
-3.00886e-11
2.02889e-05
5.8573e-12
-8.33389e-11
-9.7816e-13
1.14005e-10
2.35739e-05
-1.9579e-14
-4.59249e-11
2.35739e-05
-2.31364e-13
-4.67557e-11
-1.25788e-13
9.30522e-11
2.35738e-05
5.11863e-12
-4.6625e-11
2.35739e-05
-6.26963e-12
-4.64712e-11
7.0237e-13
9.32834e-11
2.02886e-05
1.26848e-11
-3.0827e-11
2.02886e-05
-1.61174e-11
-8.35604e-11
2.98778e-12
1.14376e-10
1.74237e-05
1.8939e-11
-5.94267e-11
1.74237e-05
-2.40906e-11
-8.69873e-11
4.79047e-12
1.46191e-10
1.49117e-05
2.13721e-11
-7.90228e-11
1.49117e-05
-2.72918e-11
-5.48197e-11
5.63064e-12
1.3365e-10
1.27111e-05
2.30922e-11
-8.01509e-11
1.27111e-05
-2.77006e-11
-2.05392e-11
4.33045e-12
1.00657e-10
1.07953e-05
1.97694e-11
-7.03607e-11
1.07953e-05
-2.09715e-11
-3.13839e-11
8.86021e-13
1.01843e-10
9.13383e-06
1.23073e-11
-5.12627e-11
9.13383e-06
-7.69298e-12
-4.39973e-11
-4.98409e-12
9.54027e-11
7.69628e-06
1.70981e-12
-2.18334e-11
7.69628e-06
9.77964e-12
-6.61299e-11
-1.18995e-11
8.80644e-11
6.45527e-06
-1.47866e-11
1.0264e-11
6.45528e-06
3.44043e-11
-1.05847e-10
-2.0035e-11
9.56001e-11
5.38398e-06
-3.05629e-11
2.66597e-11
5.384e-06
5.77186e-11
-1.15376e-10
-2.75445e-11
8.86404e-11
4.45717e-06
-3.81409e-11
2.31269e-11
4.45719e-06
6.70056e-11
-7.21958e-11
-2.91858e-11
4.88853e-11
3.65008e-06
-3.2771e-11
8.50946e-12
3.65009e-06
5.40066e-11
-6.88348e-12
-2.14592e-11
-1.88501e-12
2.9341e-06
-1.83934e-11
-8.72921e-12
2.93412e-06
2.80861e-11
3.35566e-11
-9.79625e-12
-2.51453e-11
2.25554e-06
-4.98133e-12
-9.66142e-12
2.25555e-06
7.4087e-12
3.10661e-11
-2.43254e-12
-2.16622e-11
1.2144e-06
2.36925e-12
1.21441e-06
3.07818e-12
-5.43876e-12
1.56751e-06
6.623e-12
1.61159e-12
1.56752e-06
-9.42119e-12
6.18152e-12
3.15857e-12
-8.55149e-12
2.84207e-06
2.31996e-11
-1.67897e-11
2.84208e-06
-3.37347e-11
4.29849e-11
1.21378e-11
-3.01567e-11
3.7082e-06
4.1041e-11
-1.56559e-11
3.70822e-06
-6.42386e-11
4.7362e-11
2.60705e-11
-3.5855e-11
4.61274e-06
4.81817e-11
1.03467e-11
4.61275e-06
-7.98921e-11
-7.65579e-12
3.52842e-11
-4.95092e-12
5.62891e-06
3.9679e-11
3.26252e-11
5.62893e-06
-6.91777e-11
-9.91866e-11
3.31613e-11
6.62728e-11
6.79437e-06
2.08311e-11
3.99398e-11
6.79439e-06
-4.17449e-11
-1.59378e-10
2.41377e-11
1.20817e-10
8.14071e-06
4.51724e-13
1.86032e-11
8.14072e-06
-1.2601e-11
-1.44529e-10
1.46558e-11
1.28175e-10
9.69999e-06
-1.33384e-11
-2.57236e-11
9.69999e-06
8.80194e-12
-8.96461e-11
6.27533e-12
1.17767e-10
1.15061e-05
-2.32477e-11
-6.77616e-11
1.15061e-05
2.52643e-11
-5.76666e-11
-9.13999e-13
1.27406e-10
1.35938e-05
-2.78762e-11
-9.58855e-11
1.35938e-05
3.36489e-11
-3.92243e-11
-5.11136e-12
1.36477e-10
1.6002e-05
-2.60398e-11
-1.11364e-10
1.6002e-05
3.305e-11
-2.28021e-11
-6.64426e-12
1.35083e-10
1.87692e-05
-2.31176e-11
-1.10194e-10
1.87692e-05
2.89662e-11
-6.75712e-11
-5.6442e-12
1.78255e-10
2.19295e-05
-1.55799e-11
-8.3365e-11
2.19296e-05
1.92205e-11
-1.11489e-10
-3.6577e-12
1.95561e-10
2.55347e-05
-6.36803e-12
-4.42248e-11
2.55347e-05
7.14044e-12
-1.09767e-10
-1.0786e-12
1.54858e-10
2.96691e-05
-2.38908e-14
-6.47338e-11
2.96691e-05
-2.83905e-13
-6.29751e-11
-1.5696e-13
1.28239e-10
2.9669e-05
6.35966e-12
-6.56708e-11
2.96691e-05
-7.64768e-12
-6.25977e-11
7.33808e-13
1.28545e-10
2.55344e-05
1.56985e-11
-4.52585e-11
2.55344e-05
-1.95615e-11
-1.10095e-10
3.31311e-12
1.55338e-10
2.19289e-05
2.33742e-11
-8.41688e-11
2.19289e-05
-2.92751e-11
-1.11296e-10
5.45345e-12
1.9514e-10
1.87681e-05
2.6362e-11
-1.10486e-10
1.87681e-05
-3.32803e-11
-6.76658e-11
6.55875e-12
1.77872e-10
1.60004e-05
2.83143e-11
-1.11646e-10
1.60005e-05
-3.38007e-11
-2.2451e-11
5.14082e-12
1.34051e-10
1.35924e-05
2.41723e-11
-9.72178e-11
1.35923e-05
-2.55844e-11
-3.80555e-11
1.02056e-12
1.35418e-10
1.15047e-05
1.48403e-11
-6.9343e-11
1.15047e-05
-9.3339e-12
-5.62677e-11
-5.96349e-12
1.25819e-10
9.69859e-06
1.56331e-12
-2.74385e-11
9.69859e-06
1.20344e-11
-8.82871e-11
-1.41035e-11
1.15875e-10
8.13933e-06
-1.86476e-11
1.7422e-11
8.13934e-06
4.16903e-11
-1.44937e-10
-2.35568e-11
1.2754e-10
6.79295e-06
-3.76274e-11
3.95856e-11
6.79297e-06
6.92441e-11
-1.592e-10
-3.20959e-11
1.19503e-10
5.62752e-06
-4.64792e-11
3.28286e-11
5.62753e-06
8.03443e-11
-1.00501e-10
-3.42617e-11
6.74065e-11
4.61149e-06
-3.99018e-11
1.14623e-11
4.61151e-06
6.52198e-11
-9.20287e-12
-2.55963e-11
-2.63673e-12
3.7072e-06
-2.26623e-11
-1.39984e-11
3.70722e-06
3.44455e-11
4.81166e-11
-1.1918e-11
-3.45796e-11
2.84131e-06
-6.54974e-12
-1.53942e-11
2.84132e-06
9.64733e-12
4.42942e-11
-3.1124e-12
-2.92775e-11
1.56704e-06
1.75115e-12
1.56704e-06
6.49682e-12
-8.2541e-12
2.01061e-06
8.67432e-12
3.53373e-13
2.01061e-06
-1.21262e-11
1.05447e-11
3.99335e-12
-1.21979e-11
3.50805e-06
2.81183e-11
-2.39591e-11
3.50806e-06
-4.06532e-11
5.68322e-11
1.45255e-11
-3.82836e-11
4.5903e-06
4.89837e-11
-2.24161e-11
4.59032e-06
-7.60729e-11
6.25343e-11
3.0541e-11
-4.57283e-11
5.71534e-06
5.75574e-11
1.30707e-11
5.71536e-06
-9.38595e-11
-1.0651e-11
4.0585e-11
-5.51068e-12
6.97468e-06
4.78962e-11
4.33648e-11
6.97469e-06
-8.14345e-11
-1.30322e-10
3.7937e-11
8.65528e-11
8.417e-06
2.57143e-11
5.48817e-11
8.41701e-06
-4.97937e-11
-2.07151e-10
2.79655e-11
1.5416e-10
1.0082e-05
1.21491e-12
2.76738e-11
1.0082e-05
-1.52238e-11
-1.86319e-10
1.70419e-11
1.61749e-10
1.20097e-05
-1.5743e-11
-3.11672e-11
1.20097e-05
1.05172e-11
-1.11943e-10
7.33796e-12
1.46428e-10
1.42423e-05
-2.8e-11
-8.80748e-11
1.42423e-05
3.03899e-11
-6.74402e-11
-1.04619e-12
1.58261e-10
1.68232e-05
-3.36806e-11
-1.27492e-10
1.68232e-05
4.05659e-11
-4.18866e-11
-6.07776e-12
1.71282e-10
1.98009e-05
-3.1573e-11
-1.4935e-10
1.98009e-05
3.9824e-11
-1.94804e-11
-7.80343e-12
1.70107e-10
2.32244e-05
-2.80606e-11
-1.48818e-10
2.32244e-05
3.47829e-11
-7.57903e-11
-6.47254e-12
2.25297e-10
2.71352e-05
-1.89608e-11
-1.14536e-10
2.71353e-05
2.30398e-11
-1.34413e-10
-4.09931e-12
2.49926e-10
3.15967e-05
-7.79531e-12
-6.32672e-11
3.15967e-05
8.59773e-12
-1.39153e-10
-1.17505e-12
2.03639e-10
3.67128e-05
-2.87345e-14
-9.01536e-11
3.67128e-05
-3.43095e-13
-8.11661e-11
-1.91717e-13
1.72041e-10
3.67127e-05
7.78721e-12
-9.13746e-11
3.67127e-05
-9.21152e-12
-8.06665e-11
7.5281e-13
1.72426e-10
3.15963e-05
1.91048e-11
-6.46656e-11
3.15963e-05
-2.34539e-11
-1.39582e-10
3.68248e-12
2.04227e-10
2.71344e-05
2.83702e-11
-1.15633e-10
2.71344e-05
-3.5156e-11
-1.34166e-10
6.24188e-12
2.4935e-10
2.3223e-05
3.19625e-11
-1.49223e-10
2.3223e-05
-4.01087e-11
-7.58669e-11
7.70848e-12
2.24703e-10
1.97991e-05
3.42099e-11
-1.49778e-10
1.97991e-05
-4.07472e-11
-1.91796e-11
6.11612e-12
1.68894e-10
1.68214e-05
2.91137e-11
-1.2935e-10
1.68214e-05
-3.07675e-11
-4.04057e-11
1.17805e-12
1.69955e-10
1.42405e-05
1.75546e-11
-9.03115e-11
1.42405e-05
-1.11549e-11
-6.5599e-11
-6.95272e-12
1.56196e-10
1.20079e-05
1.20459e-12
-3.35411e-11
1.20079e-05
1.45577e-11
-1.10267e-10
-1.63728e-11
1.44016e-10
1.00803e-05
-2.31036e-11
2.60867e-11
1.00803e-05
4.97468e-11
-1.87001e-10
-2.7263e-11
1.60948e-10
8.41526e-06
-4.54555e-11
5.44739e-11
8.41527e-06
8.15652e-11
-2.06953e-10
-3.66873e-11
1.52326e-10
6.97296e-06
-5.55337e-11
4.37566e-11
6.97298e-06
9.44435e-11
-1.3215e-10
-3.93887e-11
8.80286e-11
5.71381e-06
-4.7618e-11
1.45935e-11
5.71383e-06
7.72428e-11
-1.2769e-11
-2.99637e-11
-2.34195e-12
4.58906e-06
-2.74497e-11
-2.01784e-11
4.58908e-06
4.15155e-11
6.35355e-11
-1.42373e-11
-4.39858e-11
3.50712e-06
-8.55005e-12
-2.20555e-11
3.50713e-06
1.24322e-11
5.85861e-11
-3.91135e-12
-3.70503e-11
2.01002e-06
6.2722e-13
2.01002e-06
1.10768e-11
-1.17394e-11
2.56484e-06
1.13305e-11
-1.66683e-12
2.56485e-06
-1.55034e-11
1.61792e-11
4.96266e-12
-1.6602e-11
4.28314e-06
3.37575e-11
-3.19174e-11
4.28315e-06
-4.84282e-11
7.12393e-11
1.71091e-11
-4.63811e-11
5.6139e-06
5.77296e-11
-3.0057e-11
5.61393e-06
-8.89079e-11
7.78814e-11
3.52619e-11
-5.50796e-11
6.9997e-06
6.78812e-11
1.56838e-11
6.99972e-06
-1.08744e-10
-1.54354e-11
4.59127e-11
-4.30542e-12
8.54596e-06
5.71272e-11
5.50798e-11
8.54598e-06
-9.46677e-11
-1.64331e-10
4.27388e-11
1.08698e-10
1.03141e-05
3.14113e-11
7.14945e-11
1.03141e-05
-5.88885e-11
-2.57426e-10
3.20899e-11
1.88408e-10
1.23535e-05
2.23491e-12
3.82014e-11
1.23535e-05
-1.82513e-11
-2.29926e-10
1.96327e-11
1.95824e-10
1.47135e-05
-1.82958e-11
-3.73916e-11
1.47135e-05
1.23121e-11
-1.3247e-10
8.51349e-12
1.74266e-10
1.74466e-05
-3.31209e-11
-1.12087e-10
1.74465e-05
3.59888e-11
-7.15209e-11
-1.25315e-12
1.87269e-10
2.06059e-05
-4.02239e-11
-1.6518e-10
2.06059e-05
4.84083e-11
-3.70904e-11
-7.21174e-12
2.04816e-10
2.42517e-05
-3.79412e-11
-1.95225e-10
2.42517e-05
4.76754e-11
-7.6658e-12
-9.1928e-12
2.04599e-10
2.84449e-05
-3.37059e-11
-1.9659e-10
2.84449e-05
4.15417e-11
-7.49921e-11
-7.53407e-12
2.7251e-10
3.32361e-05
-2.28383e-11
-1.54488e-10
3.32361e-05
2.74596e-11
-1.51496e-10
-4.64617e-12
3.07287e-10
3.87014e-05
-9.46203e-12
-8.96628e-11
3.87015e-05
1.02974e-11
-1.68378e-10
-1.28382e-12
2.59684e-10
4.49682e-05
-3.42012e-14
-1.2586e-10
4.49682e-05
-4.10794e-13
-9.77031e-11
-2.30454e-13
2.24512e-10
4.49681e-05
9.45553e-12
-1.27418e-10
4.49681e-05
-1.10328e-11
-9.70395e-11
7.74505e-13
2.24969e-10
3.87009e-05
2.30118e-11
-9.15018e-11
3.8701e-05
-2.79581e-11
-1.68884e-10
4.14879e-12
2.6036e-10
3.3235e-05
3.40747e-11
-1.55929e-10
3.32351e-05
-4.19912e-11
-1.51166e-10
7.26291e-12
3.06503e-10
2.84432e-05
3.84062e-11
-1.97131e-10
2.84432e-05
-4.80227e-11
-7.50384e-11
9.08883e-12
2.71657e-10
2.42495e-05
4.08503e-11
-1.95825e-10
2.42495e-05
-4.86172e-11
-7.4642e-12
7.26043e-12
2.03204e-10
2.06037e-05
3.44317e-11
-1.67654e-10
2.06037e-05
-3.6416e-11
-3.52827e-11
1.41458e-12
2.03199e-10
1.74443e-05
2.04434e-11
-1.15114e-10
1.74443e-05
-1.30562e-11
-6.91771e-11
-8.04703e-12
1.84667e-10
1.47114e-05
6.30821e-13
-4.05446e-11
1.47114e-05
1.74718e-11
-1.30445e-10
-1.88285e-11
1.71263e-10
1.23514e-05
-2.83366e-11
3.61645e-11
1.23514e-05
5.88435e-11
-2.30961e-10
-3.12427e-11
1.94841e-10
1.0312e-05
-5.42727e-11
7.10513e-11
1.0312e-05
9.48892e-11
-2.5726e-10
-4.13022e-11
1.86005e-10
8.54388e-06
-6.55153e-11
5.56818e-11
8.5439e-06
1.09492e-10
-1.66761e-10
-4.45463e-11
1.10598e-10
6.99784e-06
-5.61156e-11
1.7664e-11
6.99786e-06
9.02736e-11
-1.81604e-11
-3.45649e-11
-1.83769e-13
5.6124e-06
-3.2936e-11
-2.71735e-11
5.61243e-06
4.94518e-11
7.91531e-11
-1.67313e-11
-5.27999e-11
4.282e-06
-1.11333e-11
-2.94386e-11
4.28202e-06
1.59112e-11
7.3474e-11
-4.82817e-12
-4.47203e-11
2.56411e-06
-1.18478e-12
2.56412e-06
1.7012e-11
-1.5913e-11
3.25364e-06
1.47544e-11
-4.72445e-12
3.25366e-06
-1.96718e-11
2.3212e-11
6.04018e-12
-2.17e-11
5.19768e-06
4.0309e-11
-4.04144e-11
5.1977e-06
-5.71768e-11
8.5658e-11
1.98273e-11
-5.41395e-11
6.81266e-06
6.74461e-11
-3.84554e-11
6.8127e-06
-1.02843e-10
9.27608e-11
4.0171e-11
-6.33751e-11
8.50713e-06
7.9326e-11
1.78737e-11
8.50716e-06
-1.2459e-10
-2.26365e-11
5.1139e-11
-3.9492e-13
1.03941e-05
6.75813e-11
6.73488e-11
1.03941e-05
-1.08986e-10
-2.00649e-10
4.74654e-11
1.32561e-10
1.25484e-05
3.81196e-11
8.93565e-11
1.25484e-05
-6.93092e-11
-3.08256e-10
3.65935e-11
2.22033e-10
1.50307e-05
3.6495e-12
5.00132e-11
1.50307e-05
-2.18471e-11
-2.74003e-10
2.24591e-11
2.29232e-10
1.79018e-05
-2.09101e-11
-4.49859e-11
1.79018e-05
1.41068e-11
-1.48982e-10
9.79849e-12
1.99638e-10
2.1226e-05
-3.83385e-11
-1.41245e-10
2.1226e-05
4.18633e-11
-6.6109e-11
-1.60545e-12
2.12091e-10
2.50687e-05
-4.70953e-11
-2.10404e-10
2.50687e-05
5.68796e-11
-2.02819e-11
-8.62517e-12
2.33991e-10
2.95035e-05
-4.50289e-11
-2.50397e-10
2.95034e-05
5.66319e-11
1.69171e-11
-1.09568e-11
2.35701e-10
3.46058e-05
-4.01901e-11
-2.55955e-10
3.46058e-05
4.95351e-11
-5.96861e-11
-8.98548e-12
3.16855e-10
4.04365e-05
-2.73088e-11
-2.06362e-10
4.04366e-05
3.26594e-11
-1.56444e-10
-5.38158e-12
3.645e-10
4.7087e-05
-1.14177e-11
-1.26849e-10
4.7087e-05
1.23169e-11
-1.92242e-10
-1.43392e-12
3.21237e-10
5.4712e-05
-4.02465e-14
-1.76857e-10
5.4712e-05
-4.88599e-13
-1.07194e-10
-2.73143e-13
2.85267e-10
5.47118e-05
1.14142e-11
-1.78806e-10
5.47119e-05
-1.31922e-11
-1.06306e-10
8.28177e-13
2.85772e-10
4.70864e-05
2.75165e-11
-1.29207e-10
4.70865e-05
-3.32565e-11
-1.92769e-10
4.79612e-12
3.21944e-10
4.04352e-05
4.06256e-11
-2.08199e-10
4.04353e-05
-5.00758e-11
-1.55992e-10
8.67464e-12
3.6343e-10
3.46037e-05
4.55763e-11
-2.56657e-10
3.46037e-05
-5.70497e-11
-5.96941e-11
1.08463e-11
3.1569e-10
2.95007e-05
4.78247e-11
-2.51189e-10
2.95006e-05
-5.71126e-11
1.6953e-11
8.68576e-12
2.34127e-10
2.5066e-05
3.98598e-11
-2.13587e-10
2.5066e-05
-4.23362e-11
-1.81453e-11
1.80195e-12
2.32066e-10
2.12233e-05
2.34143e-11
-1.45205e-10
2.12233e-05
-1.49538e-11
-6.32123e-11
-9.23821e-12
2.08896e-10
1.78992e-05
-3.02823e-13
-4.90558e-11
1.78992e-05
2.09416e-11
-1.46564e-10
-2.14933e-11
1.9597e-10
1.50282e-05
-3.45453e-11
4.74923e-11
1.50282e-05
6.92545e-11
-2.75478e-10
-3.55703e-11
2.28036e-10
1.25458e-05
-6.42916e-11
8.88721e-11
1.25458e-05
1.0927e-10
-3.08153e-10
-4.57816e-11
2.19019e-10
1.03916e-05
-7.65968e-11
6.81961e-11
1.03916e-05
1.25492e-10
-2.03782e-10
-4.95655e-11
1.34973e-10
8.50488e-06
-6.55597e-11
2.03549e-11
8.50491e-06
1.04428e-10
-2.60337e-11
-3.93521e-11
4.81204e-12
6.81084e-06
-3.93083e-11
-3.48637e-11
6.81087e-06
5.83863e-11
9.43255e-11
-1.93464e-11
-6.04976e-11
5.1963e-06
-1.4456e-11
-3.72995e-11
5.19632e-06
2.02076e-11
8.8407e-11
-5.8318e-12
-5.19806e-11
3.25274e-06
-3.93316e-12
3.25275e-06
2.44528e-11
-2.06855e-11
4.10294e-06
1.91005e-11
-9.14634e-12
4.10296e-06
-2.47075e-11
3.16366e-11
7.16127e-12
-2.72569e-11
6.28623e-06
4.79881e-11
-4.92039e-11
6.28626e-06
-6.70433e-11
9.94905e-11
2.26212e-11
-6.11943e-11
8.22487e-06
7.83046e-11
-4.74734e-11
8.2249e-06
-1.17982e-10
1.06587e-10
4.52033e-11
-7.0143e-11
1.02834e-05
9.20719e-11
1.92071e-11
1.02834e-05
-1.41934e-10
-3.22785e-11
5.66138e-11
6.68779e-12
1.25757e-05
7.94948e-11
7.95945e-11
1.25757e-05
-1.25135e-10
-2.38315e-10
5.26187e-11
1.57754e-10
1.51894e-05
4.5859e-11
1.08142e-10
1.51894e-05
-8.12593e-11
-3.57846e-10
4.16549e-11
2.53562e-10
1.8198e-05
5.35932e-12
6.25555e-11
1.81979e-05
-2.6033e-11
-3.16762e-10
2.56374e-11
2.60739e-10
2.16753e-05
-2.34968e-11
-5.52271e-11
2.16753e-05
1.58183e-11
-1.58564e-10
1.11864e-11
2.20918e-10
2.57006e-05
-4.34159e-11
-1.77642e-10
2.57005e-05
4.78692e-11
-4.64411e-11
-2.19624e-12
2.3007e-10
3.03533e-05
-5.38862e-11
-2.65533e-10
3.03533e-05
6.57179e-11
1.4494e-11
-1.0465e-11
2.55235e-10
3.57231e-05
-5.25989e-11
-3.1678e-10
3.57231e-05
6.64692e-11
6.00032e-11
-1.31056e-11
2.596e-10
4.19031e-05
-4.7619e-11
-3.29682e-10
4.19031e-05
5.88798e-11
-2.28476e-11
-1.08351e-11
3.54082e-10
4.89661e-05
-3.24488e-11
-2.74608e-10
4.89661e-05
3.88671e-11
-1.41064e-10
-6.45611e-12
4.17829e-10
5.70208e-05
-1.36921e-11
-1.80258e-10
5.70209e-05
1.47558e-11
-2.0248e-10
-1.69617e-12
3.85478e-10
6.62548e-05
-4.66734e-14
-2.49545e-10
6.62548e-05
-5.77992e-13
-1.01516e-10
-3.19157e-13
3.52587e-10
6.62546e-05
1.36921e-11
-2.51937e-10
6.62547e-05
-1.57921e-11
-1.00326e-10
9.87443e-13
3.53091e-10
5.70201e-05
3.26945e-11
-1.83218e-10
5.70202e-05
-3.95801e-11
-2.02936e-10
5.77827e-12
3.86116e-10
4.89645e-05
4.81255e-11
-2.76891e-10
4.89645e-05
-5.95216e-11
-1.40447e-10
1.04831e-11
4.16383e-10
4.19006e-05
5.32314e-11
-3.30557e-10
4.19006e-05
-6.69584e-11
-2.28133e-11
1.2988e-11
3.52535e-10
3.57198e-05
5.4721e-11
-3.17782e-10
3.57197e-05
-6.59674e-11
5.9787e-11
1.05386e-11
2.57854e-10
3.03501e-05
4.51555e-11
-2.6952e-10
3.035e-05
-4.83788e-11
1.69442e-11
2.43477e-12
2.52991e-10
2.56973e-05
2.63674e-11
-1.8268e-10
2.56973e-05
-1.67586e-11
-4.29548e-11
-1.05144e-11
2.26231e-10
2.16722e-05
-1.47964e-12
-6.03923e-11
2.16722e-05
2.49779e-11
-1.5568e-10
-2.4491e-11
2.1651e-10
1.81949e-05
-4.1735e-11
5.95449e-11
1.81949e-05
8.11706e-11
-3.18735e-10
-4.0432e-11
2.59245e-10
1.51863e-05
-7.57572e-11
1.07553e-10
1.51863e-05
1.25843e-10
-3.58212e-10
-5.10161e-11
2.50331e-10
1.25727e-05
-8.89627e-11
8.07031e-11
1.25727e-05
1.43318e-10
-2.42193e-10
-5.51344e-11
1.60725e-10
1.02807e-05
-7.61206e-11
2.222e-11
1.02807e-05
1.19815e-10
-3.61093e-11
-4.4265e-11
1.28137e-11
8.22267e-06
-4.67775e-11
-4.3121e-11
8.2227e-06
6.84654e-11
1.08468e-10
-2.20203e-11
-6.66212e-11
6.28456e-06
-1.8667e-11
-4.53989e-11
6.28459e-06
2.53999e-11
1.02785e-10
-6.8536e-12
-5.8471e-11
4.10182e-06
-7.91296e-12
4.10184e-06
3.34178e-11
-2.57914e-11
5.14117e-06
2.44969e-11
-1.52739e-11
5.14119e-06
-3.06255e-11
4.12108e-11
8.21747e-12
-3.27924e-11
7.5896e-06
5.70343e-11
-5.81125e-11
7.58964e-06
-7.81532e-11
1.12116e-10
2.53851e-11
-6.70886e-11
9.89602e-06
9.04978e-11
-5.6932e-11
9.89606e-06
-1.34396e-10
1.1889e-10
5.02327e-11
-7.50554e-11
1.23814e-05
1.06318e-10
1.91605e-11
1.23815e-05
-1.61254e-10
-4.36031e-11
6.26005e-11
1.67287e-11
1.51555e-05
9.31294e-11
9.09523e-11
1.51555e-05
-1.43897e-10
-2.75727e-10
5.86969e-11
1.83543e-10
1.83165e-05
5.45138e-11
1.27592e-10
1.83165e-05
-9.48307e-11
-4.04712e-10
4.7469e-11
2.81756e-10
2.19515e-05
7.06939e-12
7.51869e-11
2.19515e-05
-3.06138e-11
-3.55726e-10
2.9258e-11
2.8851e-10
2.61499e-05
-2.59071e-11
-7.0485e-11
2.61499e-05
1.73022e-11
-1.57117e-10
1.26708e-11
2.36377e-10
3.10082e-05
-4.7924e-11
-2.24679e-10
3.10082e-05
5.37017e-11
-6.63262e-12
-3.14749e-12
2.38735e-10
3.66234e-05
-6.00614e-11
-3.34092e-10
3.66233e-05
7.45865e-11
7.46054e-11
-1.29283e-11
2.64716e-10
4.31037e-05
-5.99153e-11
-3.97585e-10
4.31036e-05
7.66373e-11
1.29114e-10
-1.58275e-11
2.71996e-10
5.05636e-05
-5.55097e-11
-4.21191e-10
5.05636e-05
6.93203e-11
4.46502e-11
-1.3315e-11
3.78493e-10
5.90899e-05
-3.83569e-11
-3.64733e-10
5.90899e-05
4.63903e-11
-9.54547e-11
-8.08434e-12
4.62892e-10
6.8812e-05
-1.63423e-11
-2.57416e-10
6.8812e-05
1.7749e-11
-1.87521e-10
-2.14848e-12
4.48368e-10
7.9956e-05
-5.29758e-14
-3.52456e-10
7.9956e-05
-6.80188e-13
-6.90514e-11
-3.66967e-13
4.23393e-10
7.99557e-05
1.63483e-11
-3.55332e-10
7.99557e-05
-1.897e-11
-6.74587e-11
1.33244e-12
4.23808e-10
6.88112e-05
3.86458e-11
-2.61054e-10
6.88112e-05
-4.72402e-11
-1.87785e-10
7.3133e-12
4.48794e-10
5.9088e-05
5.60892e-11
-3.67506e-10
5.9088e-05
-7.00716e-11
-9.4631e-11
1.29217e-11
4.60962e-10
5.05605e-05
6.06311e-11
-4.22235e-10
5.05605e-05
-7.7193e-11
4.47114e-11
1.57014e-11
3.76488e-10
4.30996e-05
6.09983e-11
-3.98804e-10
4.30995e-05
-7.48376e-11
1.28534e-10
1.30149e-11
2.70093e-10
3.66194e-05
4.98788e-11
-3.38972e-10
3.66193e-05
-5.42303e-11
7.73271e-11
3.43677e-12
2.6215e-10
3.10043e-05
2.91337e-11
-2.30939e-10
3.10042e-05
-1.83151e-11
-2.54153e-12
-1.18635e-11
2.34206e-10
2.61461e-05
-2.65558e-12
-7.69319e-11
2.61461e-05
2.94241e-11
-1.53692e-10
-2.7908e-11
2.31155e-10
2.19478e-05
-4.98389e-11
7.15361e-11
2.19478e-05
9.47097e-11
-3.58243e-10
-4.60134e-11
2.86765e-10
1.83128e-05
-8.89298e-11
1.26881e-10
1.83128e-05
1.44987e-10
-4.05892e-10
-5.71192e-11
2.78603e-10
1.51519e-05
-1.02807e-10
9.23001e-11
1.51519e-05
1.63095e-10
-2.80366e-10
-6.11849e-11
1.87137e-10
1.23782e-05
-8.79925e-11
2.27288e-11
1.23782e-05
1.36505e-10
-4.7675e-11
-4.91806e-11
2.36415e-11
9.89337e-06
-5.55794e-11
-5.17854e-11
9.89341e-06
7.98149e-11
1.21111e-10
-2.46446e-11
-7.08591e-11
7.58758e-06
-2.38913e-11
-5.35707e-11
7.58762e-06
3.15014e-11
1.1599e-10
-7.78316e-12
-6.374e-11
5.13977e-06
-1.3431e-11
5.1398e-06
4.36884e-11
-3.07171e-11
6.39958e-06
3.10288e-11
-2.3415e-11
6.39961e-06
-3.73763e-11
5.13513e-11
9.06262e-12
-3.75069e-11
9.15654e-06
6.77011e-11
-6.71062e-11
9.15659e-06
-9.06137e-11
1.22957e-10
2.79707e-11