/*--------------------------------*- C++ -*----------------------------------*\
  =========                 |
  \\      /  F ield         | OpenFOAM: The Open Source CFD Toolbox
   \\    /   O peration     | Website:  https://openfoam.org
    \\  /    A nd           | Version:  6
     \\/     M anipulation  |
\*---------------------------------------------------------------------------*/
FoamFile
{
    version     2.0;
    format      ascii;
    class       volVectorField;
    location    "20";
    object      U;
}
// * * * * * * * * * * * * * * * * * * * * * * * * * * * * * * * * * * * * * //

dimensions      [0 1 -1 0 0 0 0];

internalField   nonuniform List<vector> 
2160
(
(0.0654143 -3.65278e-10 1.66594e-10)
(0.0654143 5.55399e-11 -1.0689e-10)
(0.065415 1.61273e-10 -6.18202e-11)
(0.0540896 4.32786e-09 4.93627e-11)
(0.0540895 -6.49546e-09 3.58951e-11)
(0.0540904 2.31837e-09 -9.22032e-11)
(0.0654076 1.34888e-08 4.45895e-11)
(0.0654078 -2.11989e-08 2.96895e-11)
(0.0654087 8.58946e-09 -8.25462e-11)
(0.0743747 2.08274e-08 5.79133e-11)
(0.0743753 -3.6211e-08 -9.70987e-11)
(0.074376 1.67075e-08 3.38585e-11)
(0.081756 1.99699e-08 7.48706e-11)
(0.0817572 -3.82746e-08 -3.00714e-10)
(0.0817572 1.98501e-08 2.24729e-10)
(0.0880751 1.28981e-08 4.15967e-11)
(0.0880767 -2.77777e-08 -4.33112e-10)
(0.0880763 1.63393e-08 3.93652e-10)
(0.0936078 2.50959e-09 -1.96406e-11)
(0.0936093 -1.14807e-08 -3.57407e-10)
(0.0936087 1.01871e-08 3.80678e-10)
(0.0985196 -4.85629e-09 -9.62813e-11)
(0.098521 5.40817e-10 -2.07741e-10)
(0.0985201 5.19388e-09 3.07542e-10)
(0.102912 -9.22239e-09 -1.23171e-10)
(0.102913 9.21274e-09 -1.26605e-10)
(0.102912 5.91238e-10 2.52346e-10)
(0.106821 -1.3661e-08 -1.01905e-10)
(0.106822 1.66706e-08 -7.42733e-11)
(0.106821 -2.65976e-09 1.77721e-10)
(0.11029 -1.29563e-08 -6.00672e-11)
(0.110292 1.74947e-08 -2.53215e-11)
(0.110291 -4.32238e-09 8.6406e-11)
(0.113291 -1.18191e-08 1.79561e-11)
(0.113293 1.65353e-08 3.06659e-11)
(0.113292 -4.61688e-09 -4.86893e-11)
(0.115615 -1.0172e-08 3.14294e-11)
(0.115617 1.36808e-08 1.72754e-10)
(0.115617 -3.42471e-09 -2.03793e-10)
(0.117074 -4.45455e-09 -5.98603e-12)
(0.117075 6.14148e-09 2.8209e-10)
(0.117075 -1.78583e-09 -2.76424e-10)
(0.117767 -1.41385e-09 4.35651e-11)
(0.117768 1.00365e-09 1.96611e-10)
(0.117768 2.35395e-10 -2.40337e-10)
(0.117766 1.40453e-09 4.45745e-11)
(0.117767 -1.2631e-09 1.95863e-10)
(0.117766 -3.82693e-10 -2.40888e-10)
(0.117068 4.47762e-09 -5.34009e-12)
(0.11707 -6.35318e-09 2.81417e-10)
(0.11707 1.60069e-09 -2.76182e-10)
(0.115604 1.02744e-08 3.14905e-11)
(0.115606 -1.37952e-08 1.72046e-10)
(0.115605 3.28027e-09 -2.04347e-10)
(0.113273 1.19751e-08 1.68164e-11)
(0.113275 -1.66378e-08 2.52399e-11)
(0.113274 4.48529e-09 -4.25583e-11)
(0.110267 1.31009e-08 -5.98693e-11)
(0.110268 -1.75271e-08 -1.91341e-11)
(0.110267 4.27694e-09 7.89302e-11)
(0.106797 1.39169e-08 -1.03888e-10)
(0.106799 -1.67592e-08 -7.00669e-11)
(0.106797 2.6869e-09 1.74184e-10)
(0.102887 9.78799e-09 -1.24732e-10)
(0.102888 -9.47813e-09 -1.2612e-10)
(0.102887 -4.94243e-10 2.51319e-10)
(0.0984926 5.64575e-09 -9.8336e-11)
(0.098494 -8.73607e-10 -2.01657e-10)
(0.0984931 -4.98086e-09 3.00397e-10)
(0.0935779 -1.49622e-09 -2.19717e-11)
(0.0935795 1.11218e-08 -3.55966e-10)
(0.0935788 -9.84699e-09 3.78329e-10)
(0.0880406 -1.19611e-08 3.9792e-11)
(0.0880422 2.7858e-08 -4.33224e-10)
(0.0880419 -1.61047e-08 3.93488e-10)
(0.0817178 -1.91073e-08 7.54334e-11)
(0.081719 3.81524e-08 -3.01746e-10)
(0.0817191 -1.92273e-08 2.25642e-10)
(0.0743366 -2.02253e-08 5.94098e-11)
(0.0743372 3.65824e-08 -9.81946e-11)
(0.0743378 -1.64876e-08 3.79994e-11)
(0.0653736 -1.31553e-08 4.76486e-11)
(0.0653738 2.15354e-08 3.09688e-11)
(0.0653747 -8.45403e-09 -7.94556e-11)
(0.0540621 -4.28498e-09 5.21555e-11)
(0.0540619 6.61076e-09 3.84301e-11)
(0.0540628 -2.32846e-09 -9.12091e-11)
(0.0653861 2.89479e-10 1.69198e-10)
(0.0653861 -8.69799e-11 -1.0846e-10)
(0.0653868 -1.77242e-10 -5.97298e-11)
(0.0850938 -2.9316e-10 2.2011e-10)
(0.0850938 -1.50178e-10 -9.96128e-11)
(0.0850946 2.75465e-10 -1.23833e-10)
(0.119714 9.51527e-09 -8.00232e-11)
(0.119714 -1.36539e-08 5.37929e-10)
(0.119715 4.56257e-09 -5.07944e-10)
(0.135693 2.60823e-08 -5.48267e-11)
(0.135693 -3.97968e-08 4.79896e-10)
(0.135695 1.54997e-08 -4.73043e-10)
(0.147326 3.85605e-08 1.69637e-10)
(0.147326 -6.52384e-08 -1.96338e-10)
(0.147327 2.92262e-08 2.94846e-12)
(0.156554 3.62032e-08 3.19283e-10)
(0.156555 -6.63708e-08 -1.09264e-09)
(0.156555 3.30443e-08 7.6988e-10)
(0.164217 2.34293e-08 2.43736e-10)
(0.164219 -4.6856e-08 -1.5532e-09)
(0.164219 2.60863e-08 1.31913e-09)
(0.170721 5.0696e-09 -4.62048e-12)
(0.170723 -1.92851e-08 -1.25999e-09)
(0.170722 1.63903e-08 1.27888e-09)
(0.176286 -7.71135e-09 -3.35234e-10)
(0.176287 7.13944e-10 -7.24958e-10)
(0.176286 8.54679e-09 1.0733e-09)
(0.181026 -1.51888e-08 -5.61235e-10)
(0.181028 1.49886e-08 -4.42823e-10)
(0.181027 1.21313e-09 1.01338e-09)
(0.184967 -2.24117e-08 -6.42214e-10)
(0.184969 2.67958e-08 -3.07018e-10)
(0.184968 -3.78471e-09 9.54767e-10)
(0.188132 -2.1173e-08 -6.41251e-10)
(0.188133 2.77828e-08 -2.23274e-10)
(0.188133 -6.24377e-09 8.67742e-10)
(0.190491 -1.91088e-08 -5.83313e-10)
(0.190492 2.59509e-08 -5.00346e-10)
(0.190492 -6.67884e-09 1.085e-09)
(0.191983 -1.62461e-08 -3.78132e-10)
(0.191984 2.12225e-08 -7.73319e-10)
(0.191984 -4.83815e-09 1.15325e-09)
(0.192742 -7.0929e-09 -1.30403e-10)
(0.192743 9.56559e-09 -7.15974e-10)
(0.192743 -2.65321e-09 8.47857e-10)
(0.193058 -2.23465e-09 -2.38504e-10)
(0.193059 1.65185e-09 -3.87738e-10)
(0.193058 2.73289e-10 6.27466e-10)
(0.193058 2.20183e-09 -2.42812e-10)
(0.193058 -2.09028e-09 -3.85683e-10)
(0.193058 -5.04124e-10 6.28829e-10)
(0.19274 7.10992e-09 -1.34621e-10)
(0.192741 -9.9263e-09 -7.15945e-10)
(0.192741 2.36875e-09 8.5047e-10)
(0.191976 1.64064e-08 -3.80869e-10)
(0.191977 -2.14024e-08 -7.71109e-10)
(0.191977 4.60296e-09 1.15089e-09)
(0.190478 1.93565e-08 -5.84179e-10)
(0.19048 -2.62028e-08 -5.0159e-10)
(0.190479 6.55317e-09 1.08482e-09)
(0.188112 2.14131e-08 -6.40984e-10)
(0.188113 -2.79277e-08 -2.16754e-10)
(0.188112 6.26346e-09 8.57558e-10)
(0.184944 2.28445e-08 -6.47212e-10)
(0.184946 -2.68832e-08 -2.98689e-10)
(0.184945 3.77309e-09 9.46568e-10)
(0.181 1.61442e-08 -5.67332e-10)
(0.181001 -1.53897e-08 -4.34618e-10)
(0.181 -1.07456e-09 1.00313e-09)
(0.176256 9.06506e-09 -3.44136e-10)
(0.176257 -1.23979e-09 -7.10899e-10)
(0.176256 -8.19245e-09 1.05601e-09)
(0.170686 -3.30698e-09 -1.35125e-11)
(0.170688 1.87795e-08 -1.25824e-09)
(0.170687 -1.58694e-08 1.27229e-09)
(0.164176 -2.17704e-08 2.3844e-10)
(0.164178 4.70729e-08 -1.55243e-09)
(0.164177 -2.56829e-08 1.31343e-09)
(0.156507 -3.46368e-08 3.19418e-10)
(0.156508 6.61489e-08 -1.10214e-09)
(0.156508 -3.18532e-08 7.80145e-10)
(0.147277 -3.74404e-08 1.79356e-10)
(0.147278 6.59892e-08 -2.0825e-10)
(0.147279 -2.88028e-08 2.50754e-11)
(0.135648 -2.5428e-08 -3.61223e-11)
(0.135648 4.05041e-08 4.8847e-10)
(0.13565 -1.52298e-08 -4.5751e-10)
(0.119675 -9.40854e-09 -6.22884e-11)
(0.119675 1.39412e-08 5.55268e-10)
(0.119677 -4.55204e-09 -4.97608e-10)
(0.0850631 2.00649e-10 2.21146e-10)
(0.0850632 1.19547e-10 -1.00232e-10)
(0.0850639 -2.90619e-10 -1.1969e-10)
(0.0957661 -1.13623e-10 2.58324e-10)
(0.0957662 -4.07852e-10 -3.05409e-11)
(0.095767 3.66128e-10 -2.38962e-10)
(0.151627 1.19682e-08 -3.36293e-10)
(0.151627 -1.68769e-08 1.27427e-09)
(0.151629 5.52563e-09 -1.05303e-09)
(0.1699 3.12943e-08 -2.57476e-10)
(0.169901 -4.71211e-08 1.16187e-09)
(0.169902 1.80166e-08 -1.01062e-09)
(0.182596 4.57687e-08 2.99844e-10)
(0.182597 -7.62244e-08 -2.8003e-10)
(0.182597 3.3536e-08 -6.99399e-11)
(0.192594 4.29818e-08 6.55867e-10)
(0.192595 -7.66708e-08 -2.12672e-09)
(0.192596 3.71431e-08 1.46476e-09)
(0.200876 2.8179e-08 5.89555e-10)
(0.200878 -5.40275e-08 -2.988e-09)
(0.200878 2.90363e-08 2.41986e-09)
(0.2079 6.55134e-09 1.29286e-10)
(0.207902 -2.24195e-08 -2.38385e-09)
(0.207901 1.84715e-08 2.28506e-09)
(0.213913 -8.63475e-09 -5.00277e-10)
(0.213915 6.70482e-10 -1.34518e-09)
(0.213914 9.81923e-09 1.87342e-09)
(0.219046 -1.76171e-08 -9.16264e-10)
(0.219047 1.72652e-08 -8.05455e-10)
(0.219046 1.56471e-09 1.74145e-09)
(0.223331 -2.61485e-08 -1.05391e-09)
(0.223333 3.08301e-08 -5.28255e-10)
(0.223331 -3.96467e-09 1.59394e-09)
(0.226799 -2.48589e-08 -1.03486e-09)
(0.226801 3.19574e-08 -3.37649e-10)
(0.2268 -6.66106e-09 1.37948e-09)
(0.229416 -2.24648e-08 -8.89065e-10)
(0.229418 2.97637e-08 -7.04422e-10)
(0.229417 -7.10421e-09 1.59655e-09)
(0.231098 -1.90871e-08 -5.68249e-10)
(0.2311 2.42706e-08 -9.90998e-10)
(0.231099 -5.01948e-09 1.56382e-09)
(0.231968 -8.36739e-09 -2.27764e-10)
(0.231968 1.09718e-08 -8.28285e-10)
(0.231968 -2.81953e-09 1.05966e-09)
(0.232332 -2.62737e-09 -3.3909e-10)
(0.232332 1.91918e-09 -4.13607e-10)
(0.232332 3.38977e-10 7.55267e-10)
(0.232331 2.58573e-09 -3.44631e-10)
(0.232332 -2.43625e-09 -4.11022e-10)
(0.232331 -6.14795e-10 7.56943e-10)
(0.231965 8.38408e-09 -2.34024e-10)
(0.231966 -1.13981e-08 -8.29454e-10)
(0.231966 2.48334e-09 1.06351e-09)
(0.231091 1.92727e-08 -5.73029e-10)
(0.231092 -2.44816e-08 -9.88779e-10)
(0.231092 4.74281e-09 1.56015e-09)
(0.229402 2.27536e-08 -8.91242e-10)
(0.229404 -3.00714e-08 -7.08906e-10)
(0.229403 6.9705e-09 1.59844e-09)
(0.226777 2.51432e-08 -1.03541e-09)
(0.226778 -3.21425e-08 -3.26239e-10)
(0.226777 6.70038e-09 1.36132e-09)
(0.223306 2.66592e-08 -1.06507e-09)
(0.223307 -3.09189e-08 -5.12594e-10)
(0.223306 3.94329e-09 1.57896e-09)
(0.219017 1.87412e-08 -9.30575e-10)
(0.219018 -1.77174e-08 -7.90129e-10)
(0.219017 -1.4056e-09 1.72287e-09)
(0.213881 1.02287e-08 -5.19667e-10)
(0.213882 -1.26103e-09 -1.32048e-09)
(0.213881 -9.40579e-09 1.84196e-09)
(0.207863 -4.4741e-09 1.11711e-10)
(0.207864 2.18828e-08 -2.38431e-09)
(0.207864 -1.78835e-08 2.27316e-09)
(0.200832 -2.62185e-08 5.79169e-10)
(0.200833 5.43219e-08 -2.98527e-09)
(0.200833 -2.85603e-08 2.40452e-09)
(0.192543 -4.11245e-08 6.55717e-10)
(0.192545 7.64136e-08 -2.14884e-09)
(0.192545 -3.57002e-08 1.48797e-09)
(0.182543 -4.4434e-08 3.2289e-10)
(0.182544 7.71447e-08 -3.09753e-10)
(0.182545 -3.30206e-08 -2.13312e-11)
(0.169852 -3.05004e-08 -2.15218e-10)
(0.169852 4.7994e-08 1.18181e-09)
(0.169853 -1.76852e-08 -9.78154e-10)
(0.151585 -1.18103e-08 -2.95272e-10)
(0.151585 1.72634e-08 1.3137e-09)
(0.151586 -5.48805e-09 -1.02916e-09)
(0.0957341 2.21464e-11 2.60591e-10)
(0.0957342 3.84178e-10 -2.78187e-11)
(0.0957349 -3.76516e-10 -2.31323e-10)
(0.106547 2.25046e-10 2.6371e-10)
(0.106547 -8.40289e-10 1.59891e-10)
(0.106548 4.95106e-10 -4.5048e-10)
(0.17057 1.33261e-08 -7.24655e-10)
(0.17057 -1.86543e-08 2.19933e-09)
(0.170571 6.10037e-09 -1.6719e-09)
(0.19126 3.39706e-08 -5.75157e-10)
(0.19126 -5.07568e-08 2.0587e-09)
(0.191261 1.91976e-08 -1.66377e-09)
(0.205089 4.94448e-08 4.40903e-10)
(0.20509 -8.13185e-08 -3.43774e-10)
(0.205091 3.52427e-08 -1.81217e-10)
(0.215866 4.66426e-08 1.0857e-09)
(0.215867 -8.12309e-08 -3.3911e-09)
(0.215867 3.83608e-08 2.296e-09)
(0.224752 3.10506e-08 1.06181e-09)
(0.224754 -5.75621e-08 -4.75095e-09)
(0.224753 3.00001e-08 3.72645e-09)
(0.232269 7.69331e-09 3.42075e-10)
(0.23227 -2.41379e-08 -3.7605e-09)
(0.232269 1.92989e-08 3.4709e-09)
(0.238693 -8.93673e-09 -6.72572e-10)
(0.238694 5.81952e-10 -2.08482e-09)
(0.238693 1.03939e-08 2.80549e-09)
(0.244173 -1.89001e-08 -1.34445e-09)
(0.244174 1.85114e-08 -1.2248e-09)
(0.244173 1.72388e-09 2.60329e-09)
(0.248751 -2.82481e-08 -1.5909e-09)
(0.248752 3.3038e-08 -7.75037e-10)
(0.248751 -3.99845e-09 2.38608e-09)
(0.252465 -2.70487e-08 -1.56919e-09)
(0.252466 3.42662e-08 -4.55065e-10)
(0.252465 -6.73498e-09 2.03613e-09)
(0.255284 -2.44918e-08 -1.33016e-09)
(0.255285 3.18175e-08 -9.76399e-10)
(0.255284 -7.11034e-09 2.31184e-09)
(0.257108 -2.08091e-08 -8.52115e-10)
(0.25711 2.58705e-08 -1.33406e-09)
(0.257109 -4.88146e-09 2.19331e-09)
(0.258056 -9.16875e-09 -3.6554e-10)
(0.258057 1.17159e-08 -1.08756e-09)
(0.258057 -2.78123e-09 1.45968e-09)
(0.258453 -2.86986e-09 -4.94361e-10)
(0.258454 2.06877e-09 -5.27364e-10)
(0.258454 3.98307e-10 1.02592e-09)
(0.258453 2.82432e-09 -5.02168e-10)
(0.258453 -2.62957e-09 -5.2418e-10)
(0.258453 -7.03818e-10 1.02838e-09)
(0.258053 9.1876e-09 -3.74756e-10)
(0.258054 -1.21789e-08 -1.0901e-09)
(0.258054 2.4108e-09 1.46479e-09)
(0.2571 2.1009e-08 -8.59959e-10)
(0.257102 -2.61007e-08 -1.33154e-09)
(0.257101 4.58102e-09 2.18847e-09)
(0.255268 2.4805e-08 -1.33364e-09)
(0.25527 -3.21513e-08 -9.80455e-10)
(0.255269 6.96525e-09 2.31102e-09)
(0.252441 2.736e-08 -1.57167e-09)
(0.252442 -3.44678e-08 -4.43647e-10)
(0.252441 6.7786e-09 2.01472e-09)
(0.248723 2.88038e-08 -1.61034e-09)
(0.248725 -3.3132e-08 -7.5321e-10)
(0.248723 3.97974e-09 2.36571e-09)
(0.244142 2.01211e-08 -1.37045e-09)
(0.244143 -1.89938e-08 -1.19917e-09)
(0.244142 -1.54578e-09 2.5733e-09)
(0.238658 1.06677e-08 -7.06599e-10)
(0.238659 -1.20249e-09 -2.05027e-09)
(0.238658 -9.94525e-09 2.75986e-09)
(0.232228 -5.44377e-09 3.13228e-10)
(0.23223 2.35969e-08 -3.76585e-09)
(0.232229 -1.86729e-08 3.45327e-09)
(0.224704 -2.8927e-08 1.04868e-09)
(0.224706 5.79078e-08 -4.74572e-09)
(0.224706 -2.94816e-08 3.69409e-09)
(0.215811 -4.46352e-08 1.08762e-09)
(0.215812 8.09732e-08 -3.43101e-09)
(0.215812 -3.67888e-08 2.33484e-09)
(0.205033 -4.79978e-08 4.81554e-10)
(0.205033 8.23322e-08 -3.98419e-10)
(0.205034 -3.46762e-08 -9.70546e-11)
(0.191207 -3.30999e-08 -5.0309e-10)
(0.191207 5.17146e-08 2.09236e-09)
(0.191209 -1.88289e-08 -1.60907e-09)
(0.170524 -1.31209e-08 -6.54776e-10)
(0.170524 1.91093e-08 2.26627e-09)
(0.170525 -6.03739e-09 -1.63004e-09)
(0.106513 -3.07162e-10 2.66654e-10)
(0.106513 8.30958e-10 1.7061e-10)
(0.106514 -4.96103e-10 -4.35939e-10)
(0.117649 7.48112e-10 2.15451e-10)
(0.117649 -1.4718e-09 4.53727e-10)
(0.117649 6.6405e-10 -7.26197e-10)
(0.183867 1.44069e-08 -1.2288e-09)
(0.183867 -2.0036e-08 3.28726e-09)
(0.183868 6.53977e-09 -2.3574e-09)
(0.206788 3.54883e-08 -9.82504e-10)
(0.206789 -5.27578e-08 3.11113e-09)
(0.20679 1.98145e-08 -2.39912e-09)
(0.221725 5.14401e-08 6.04169e-10)
(0.221726 -8.36776e-08 -4.36056e-10)
(0.221727 3.57735e-08 -2.94505e-10)
(0.233224 4.88076e-08 1.59531e-09)
(0.233225 -8.30357e-08 -4.88332e-09)
(0.233226 3.81877e-08 3.2742e-09)
(0.242656 3.30301e-08 1.64986e-09)
(0.242658 -5.94689e-08 -6.79797e-09)
(0.242658 3.01122e-08 5.2052e-09)
(0.25061 8.69182e-09 6.28862e-10)
(0.250612 -2.5226e-08 -5.33549e-09)
(0.250611 1.95488e-08 4.78676e-09)
(0.257396 -8.92162e-09 -8.58515e-10)
(0.257397 4.93917e-10 -2.89275e-09)
(0.257396 1.05893e-08 3.8246e-09)
(0.26318 -1.97805e-08 -1.85779e-09)
(0.263181 1.93397e-08 -1.64764e-09)
(0.26318 1.85999e-09 3.55753e-09)
(0.268015 -2.95378e-08 -2.2378e-09)
(0.268016 3.44925e-08 -1.00001e-09)
(0.268015 -4.11216e-09 3.26884e-09)
(0.271947 -2.85099e-08 -2.23892e-09)
(0.271948 3.57996e-08 -5.38636e-10)
(0.271947 -6.77462e-09 2.79535e-09)
(0.274948 -2.58775e-08 -1.89831e-09)
(0.274949 3.31303e-08 -1.25745e-09)
(0.274949 -7.02231e-09 3.16393e-09)
(0.276903 -2.19891e-08 -1.22853e-09)
(0.276904 2.68549e-08 -1.74778e-09)
(0.276904 -4.67489e-09 2.98682e-09)
(0.277922 -9.75495e-09 -5.48728e-10)
(0.277923 1.21822e-08 -1.44907e-09)
(0.277923 -2.6743e-09 2.0084e-09)
(0.278349 -3.04328e-09 -7.04384e-10)
(0.27835 2.17942e-09 -7.12082e-10)
(0.27835 4.38473e-10 1.42229e-09)
(0.278349 2.99547e-09 -7.14892e-10)
(0.278349 -2.76876e-09 -7.07763e-10)
(0.278349 -7.65026e-10 1.42568e-09)
(0.277919 9.77701e-09 -5.61964e-10)
(0.277919 -1.26695e-08 -1.45323e-09)
(0.277919 2.27893e-09 2.01504e-09)
(0.276894 2.21976e-08 -1.24023e-09)
(0.276896 -2.70985e-08 -1.7448e-09)
(0.276895 4.36003e-09 2.98028e-09)
(0.274932 2.62068e-08 -1.90339e-09)
(0.274933 -3.34814e-08 -1.26119e-09)
(0.274932 6.8702e-09 3.15983e-09)
(0.271921 2.88395e-08 -2.24367e-09)
(0.271922 -3.60117e-08 -5.27584e-10)
(0.271921 6.82108e-09 2.77028e-09)
(0.267986 3.01217e-08 -2.26798e-09)
(0.267987 -3.45918e-08 -9.70805e-10)
(0.267986 4.10043e-09 3.242e-09)
(0.263147 2.10666e-08 -1.89888e-09)
(0.263148 -1.98409e-08 -1.61025e-09)
(0.263147 -1.6691e-09 3.51459e-09)
(0.257359 1.07407e-08 -9.10762e-10)
(0.25736 -1.13317e-09 -2.84747e-09)
(0.257359 -1.01149e-08 3.76273e-09)
(0.250567 -6.34098e-09 5.86141e-10)
(0.250569 2.46895e-08 -5.348e-09)
(0.250568 -1.88964e-08 4.76277e-09)
(0.242606 -3.08125e-08 1.6329e-09)
(0.242607 5.98502e-08 -6.79e-09)
(0.242607 -2.95659e-08 5.15255e-09)
(0.233166 -4.67229e-08 1.60334e-09)
(0.233168 8.28115e-08 -4.94566e-09)
(0.233168 -3.6564e-08 3.3295e-09)
(0.221665 -4.99305e-08 6.66449e-10)
(0.221666 8.4747e-08 -5.21916e-10)
(0.221667 -3.51787e-08 -1.65584e-10)
(0.206732 -3.45702e-08 -8.74249e-10)
(0.206733 5.37576e-08 3.16098e-09)
(0.206734 -1.94171e-08 -2.31667e-09)
(0.183818 -1.41576e-08 -1.12318e-09)
(0.183818 2.05444e-08 3.38711e-09)
(0.18382 -6.44965e-09 -2.29227e-09)
(0.117613 -8.12116e-10 2.24851e-10)
(0.117613 1.48524e-09 4.77599e-10)
(0.117614 -6.50221e-10 -7.0205e-10)
(0.129133 1.47241e-09 1.1486e-10)
(0.129133 -2.30559e-09 8.51232e-10)
(0.129134 8.62408e-10 -1.06889e-09)
(0.194209 1.53616e-08 -1.82826e-09)
(0.194209 -2.12082e-08 4.48495e-09)
(0.194211 6.88623e-09 -3.07606e-09)
(0.219047 3.63487e-08 -1.46878e-09)
(0.219048 -5.37976e-08 4.25805e-09)
(0.219049 2.00744e-08 -3.16534e-09)
(0.235089 5.24302e-08 7.8231e-10)
(0.23509 -8.44302e-08 -5.90514e-10)
(0.235091 3.56255e-08 -3.69094e-10)
(0.247291 5.00845e-08 2.17991e-09)
(0.247292 -8.31388e-08 -6.58061e-09)
(0.247292 3.71161e-08 4.38107e-09)
(0.257238 3.44963e-08 2.34281e-09)
(0.257239 -6.04922e-08 -9.07175e-09)
(0.257239 2.9779e-08 6.80954e-09)
(0.265594 9.63557e-09 9.79121e-10)
(0.265595 -2.59872e-08 -7.05754e-09)
(0.265594 1.94682e-08 6.19195e-09)
(0.272707 -8.69256e-09 -1.03813e-09)
(0.272708 4.19162e-10 -3.7224e-09)
(0.272707 1.05175e-08 4.86495e-09)
(0.278766 -2.03463e-08 -2.45272e-09)
(0.278767 1.98739e-08 -2.01481e-09)
(0.278766 1.95037e-09 4.54188e-09)
(0.283832 -3.049e-08 -3.02738e-09)
(0.283833 3.55448e-08 -1.14361e-09)
(0.283831 -4.17442e-09 4.21526e-09)
(0.28796 -2.954e-08 -3.03966e-09)
(0.28796 3.69786e-08 -5.32931e-10)
(0.287959 -6.90061e-09 3.59834e-09)
(0.291127 -2.68881e-08 -2.60563e-09)
(0.291129 3.40894e-08 -1.48424e-09)
(0.291128 -6.95923e-09 4.10162e-09)
(0.293202 -2.28368e-08 -1.70888e-09)
(0.293203 2.75372e-08 -2.17238e-09)
(0.293202 -4.50177e-09 3.89599e-09)
(0.294285 -1.02273e-08 -7.93797e-10)
(0.294286 1.25144e-08 -1.87925e-09)
(0.294285 -2.54416e-09 2.68845e-09)
(0.294739 -3.17886e-09 -9.86675e-10)
(0.29474 2.28e-09 -9.41697e-10)
(0.294739 4.56834e-10 1.93658e-09)
(0.294738 3.12958e-09 -1.00066e-09)
(0.294739 -2.88959e-09 -9.36093e-10)
(0.294738 -7.98369e-10 1.94102e-09)
(0.294281 1.02534e-08 -8.11961e-10)
(0.294282 -1.30192e-08 -1.88498e-09)
(0.294282 2.12995e-09 2.69672e-09)
(0.293192 2.30508e-08 -1.72531e-09)
(0.293194 -2.77911e-08 -2.16862e-09)
(0.293193 4.17844e-09 3.88722e-09)
(0.29111 2.72283e-08 -2.61269e-09)
(0.291111 -3.44549e-08 -1.48721e-09)
(0.29111 6.80521e-09 4.09318e-09)
(0.287932 2.98823e-08 -3.04787e-09)
(0.287933 -3.71998e-08 -5.23304e-10)
(0.287932 6.95139e-09 3.56985e-09)
(0.283801 3.10911e-08 -3.07062e-09)
(0.283802 -3.56444e-08 -1.10646e-09)
(0.283801 4.1679e-09 4.18172e-09)
(0.278731 2.1673e-08 -2.51268e-09)
(0.278732 -2.03832e-08 -1.96392e-09)
(0.27873 -1.74959e-09 4.48441e-09)
(0.272668 1.05706e-08 -1.11253e-09)
(0.272669 -1.07488e-09 -3.66624e-09)
(0.272668 -1.00205e-08 4.78525e-09)
(0.265549 -7.22786e-09 9.19989e-10)
(0.26555 2.54561e-08 -7.08001e-09)
(0.265549 -1.87936e-08 6.16128e-09)
(0.257184 -3.22293e-08 2.32338e-09)
(0.257186 6.08976e-08 -9.06182e-09)
(0.257185 -2.92131e-08 6.73197e-09)
(0.24723 -4.79705e-08 2.19557e-09)
(0.247231 8.29823e-08 -6.67167e-09)
(0.247231 -3.55021e-08 4.45809e-09)
(0.235026 -5.08893e-08 8.70048e-10)
(0.235027 8.55328e-08 -7.12644e-10)
(0.235028 -3.50189e-08 -1.87035e-10)
(0.218989 -3.54005e-08 -1.3185e-09)
(0.218989 5.48086e-08 4.32619e-09)
(0.21899 -1.96494e-08 -3.04963e-09)
(0.194158 -1.50698e-08 -1.68041e-09)
(0.194158 2.17605e-08 4.62241e-09)
(0.194159 -6.76722e-09 -2.98207e-09)
(0.129095 -1.5081e-09 1.3491e-10)
(0.129095 2.35072e-09 8.94049e-10)
(0.129096 -8.27504e-10 -1.03076e-09)
(0.140963 2.39291e-09 -5.25674e-11)
(0.140963 -3.31693e-09 1.37001e-09)
(0.140964 1.07022e-09 -1.48812e-09)
(0.202909 1.62659e-08 -2.50645e-09)
(0.202909 -2.22421e-08 5.75174e-09)
(0.20291 7.1393e-09 -3.80318e-09)
(0.229243 3.67943e-08 -2.02571e-09)
(0.229244 -5.41252e-08 5.44299e-09)
(0.229245 2.00006e-08 -3.91351e-09)
(0.246379 5.27294e-08 9.63021e-10)
(0.24638 -8.40862e-08 -8.4676e-10)
(0.246381 3.50136e-08 -3.53378e-10)
(0.259286 5.07604e-08 2.82655e-09)
(0.259288 -8.19882e-08 -8.46154e-09)
(0.259288 3.5327e-08 5.60782e-09)
(0.269739 3.56215e-08 3.12341e-09)
(0.26974 -6.09827e-08 -1.15052e-08)
(0.269739 2.91967e-08 8.48947e-09)
(0.27848 1.05766e-08 1.38713e-09)
(0.278481 -2.65746e-08 -8.87696e-09)
(0.27848 1.91717e-08 7.6426e-09)
(0.285901 -8.43231e-09 -1.24746e-09)
(0.285901 3.28515e-10 -4.52238e-09)
(0.2859 1.04007e-08 5.91113e-09)
(0.292215 -2.04826e-08 -3.14865e-09)
(0.292216 2.00195e-08 -2.24998e-09)
(0.292215 1.98141e-09 5.49959e-09)
(0.297495 -3.09931e-08 -3.96886e-09)
(0.297495 3.61562e-08 -1.12918e-09)
(0.297494 -4.2561e-09 5.15846e-09)
(0.301803 -3.03798e-08 -4.02481e-09)
(0.301804 3.79168e-08 -3.67049e-10)
(0.301803 -6.98171e-09 4.42675e-09)
(0.305126 -2.76475e-08 -3.47973e-09)
(0.305127 3.48913e-08 -1.57701e-09)
(0.305126 -6.9918e-09 5.07303e-09)
(0.30731 -2.34603e-08 -2.32239e-09)
(0.307312 2.80724e-08 -2.53699e-09)
(0.307311 -4.40801e-09 4.87921e-09)
(0.308452 -1.06323e-08 -1.12694e-09)
(0.308453 1.27832e-08 -2.33403e-09)
(0.308453 -2.41614e-09 3.48228e-09)
(0.30893 -3.29154e-09 -1.37443e-09)
(0.308931 2.38546e-09 -1.179e-09)
(0.308931 4.51478e-10 2.56423e-09)
(0.308929 3.24137e-09 -1.39237e-09)
(0.30893 -3.00997e-09 -1.17151e-09)
(0.30893 -8.0296e-10 2.5697e-09)
(0.308448 1.06633e-08 -1.15122e-09)
(0.308449 -1.33013e-08 -2.34119e-09)
(0.308449 1.98809e-09 3.49209e-09)
(0.307301 2.36776e-08 -2.34443e-09)
(0.307302 -2.83349e-08 -2.53207e-09)
(0.307301 4.08114e-09 4.86739e-09)
(0.305107 2.79948e-08 -3.48944e-09)
(0.305108 -3.52705e-08 -1.5791e-09)
(0.305107 6.84099e-09 5.05932e-09)
(0.301775 3.07301e-08 -4.03676e-09)
(0.301775 -3.81441e-08 -3.59673e-10)
(0.301774 7.03637e-09 4.39468e-09)
(0.297463 3.15988e-08 -4.02777e-09)
(0.297464 -3.62479e-08 -1.0835e-09)
(0.297462 4.25338e-09 5.11753e-09)
(0.292178 2.18186e-08 -3.23144e-09)
(0.292179 -2.0517e-08 -2.18395e-09)
(0.292178 -1.77189e-09 5.42585e-09)
(0.28586 1.0346e-08 -1.34855e-09)
(0.28586 -9.90293e-10 -4.45403e-09)
(0.285859 -9.89067e-09 5.81141e-09)
(0.278433 -8.14515e-09 1.30962e-09)
(0.278434 2.60452e-08 -8.9127e-09)
(0.278434 -1.84745e-08 7.60466e-09)
(0.269683 -3.33408e-08 3.10378e-09)
(0.269684 6.14024e-08 -1.14945e-08)
(0.269684 -2.86149e-08 8.38196e-09)
(0.259223 -4.86546e-08 2.85581e-09)
(0.259224 8.19169e-08 -8.58788e-09)
(0.259224 -3.37602e-08 5.70795e-09)
(0.246314 -5.11802e-08 1.0796e-09)
(0.246315 8.52067e-08 -1.00917e-09)
(0.246316 -3.44096e-08 -1.1015e-10)
(0.229182 -3.58276e-08 -1.82798e-09)
(0.229183 5.51204e-08 5.5306e-09)
(0.229184 -1.95429e-08 -3.75843e-09)
(0.202855 -1.59325e-08 -2.31018e-09)
(0.202855 2.28312e-08 5.93055e-09)
(0.202857 -6.98919e-09 -3.67417e-09)
(0.140923 -2.38998e-09 -1.52035e-11)
(0.140923 3.40218e-09 1.4394e-09)
(0.140924 -1.00789e-09 -1.43e-09)
(0.153021 3.47638e-09 -3.122e-10)
(0.153021 -4.44744e-09 2.02906e-09)
(0.153022 1.25804e-09 -1.98551e-09)
(0.210709 1.71625e-08 -3.24317e-09)
(0.210709 -2.31628e-08 7.04358e-09)
(0.21071 7.2831e-09 -4.51403e-09)
(0.238058 3.69673e-08 -2.64686e-09)
(0.238059 -5.38678e-08 6.61191e-09)
(0.23806 1.95877e-08 -4.59506e-09)
(0.256238 5.25157e-08 1.12631e-09)
(0.256239 -8.29198e-08 -1.24808e-09)
(0.256239 3.40445e-08 -1.84209e-10)
(0.269861 5.10042e-08 3.51978e-09)
(0.269862 -7.98121e-08 -1.04723e-08)
(0.269862 3.28888e-08 6.91578e-09)
(0.280825 3.64991e-08 3.97376e-09)
(0.280826 -6.11443e-08 -1.40089e-08)
(0.280825 2.84827e-08 1.01735e-08)
(0.289949 1.15561e-08 1.88144e-09)
(0.289949 -2.7091e-08 -1.07545e-08)
(0.289949 1.8727e-08 9.07145e-09)
(0.297667 -8.09445e-09 -1.49342e-09)
(0.297668 1.7299e-10 -5.21613e-09)
(0.297666 1.0245e-08 6.89396e-09)
(0.304226 -2.02134e-08 -3.97785e-09)
(0.304227 1.98116e-08 -2.24551e-09)
(0.304225 1.94419e-09 6.35579e-09)
(0.309709 -3.07865e-08 -5.09158e-09)
(0.309709 3.61151e-08 -8.52924e-10)
(0.309708 -4.40401e-09 6.02398e-09)
(0.314187 -3.0736e-08 -5.20808e-09)
(0.314188 3.8385e-08 4.56486e-11)
(0.314186 -7.08226e-09 5.20856e-09)
(0.317656 -2.82223e-08 -4.53762e-09)
(0.317657 3.56637e-08 -1.43403e-09)
(0.317656 -7.1837e-09 5.99307e-09)
(0.319946 -2.39161e-08 -3.11706e-09)
(0.319947 2.85569e-08 -2.74861e-09)
(0.319946 -4.43329e-09 5.89188e-09)
(0.321142 -1.09868e-08 -1.59708e-09)
(0.321143 1.30324e-08 -2.75206e-09)
(0.321142 -2.31725e-09 4.37756e-09)
(0.321641 -3.38955e-09 -1.92772e-09)
(0.321642 2.50632e-09 -1.3649e-09)
(0.321642 4.19512e-10 3.30671e-09)
(0.321641 3.33914e-09 -1.95046e-09)
(0.321641 -3.14173e-09 -1.355e-09)
(0.321641 -7.76162e-10 3.31304e-09)
(0.321138 1.10228e-08 -1.62863e-09)
(0.321139 -1.35611e-08 -2.76002e-09)
(0.321138 1.88095e-09 4.38836e-09)
(0.319935 2.41351e-08 -3.14555e-09)
(0.319936 -2.88272e-08 -2.74196e-09)
(0.319936 4.10767e-09 5.87586e-09)
(0.317637 2.85738e-08 -4.5502e-09)
(0.317638 -3.60567e-08 -1.435e-09)
(0.317637 7.04129e-09 5.9733e-09)
(0.314157 3.10873e-08 -5.22442e-09)
(0.314158 -3.86126e-08 4.94715e-11)
(0.314157 7.1405e-09 5.17272e-09)
(0.309676 3.13885e-08 -5.16856e-09)
(0.309676 -3.61946e-08 -7.9833e-10)
(0.309675 4.40407e-09 5.97509e-09)
(0.304188 2.15393e-08 -4.088e-09)
(0.304188 -2.02885e-08 -2.16248e-09)
(0.304187 -1.72613e-09 6.26402e-09)
(0.297624 1.00102e-08 -1.62553e-09)
(0.297625 -8.22576e-10 -5.13436e-09)
(0.297624 -9.72643e-09 6.77137e-09)
(0.2899 -9.12899e-09 1.78617e-09)
(0.289901 2.65556e-08 -1.08089e-08)
(0.2899 -1.80032e-08 9.02462e-09)
(0.280767 -3.42381e-08 3.94991e-09)
(0.280768 6.15686e-08 -1.39997e-08)
(0.280768 -2.78853e-08 1.00382e-08)
(0.269796 -4.89371e-08 3.56153e-09)
(0.269797 7.97686e-08 -1.06183e-08)
(0.269797 -3.13309e-08 7.02542e-09)
(0.25617 -5.0977e-08 1.27483e-09)
(0.256171 8.40475e-08 -1.45369e-09)
(0.256172 -3.34572e-08 1.27514e-10)
(0.237995 -3.59907e-08 -2.39674e-09)
(0.237996 5.48461e-08 6.72138e-09)
(0.237997 -1.91126e-08 -4.39617e-09)
(0.210653 -1.67878e-08 -2.99279e-09)
(0.210653 2.37823e-08 7.26678e-09)
(0.210655 -7.09938e-09 -4.34357e-09)
(0.152978 -3.42571e-09 -2.48424e-10)
(0.152978 4.57941e-09 2.1349e-09)
(0.152979 -1.16291e-09 -1.89892e-09)
(0.165124 4.66042e-09 -6.96504e-10)
(0.165124 -5.61035e-09 2.8371e-09)
(0.165125 1.39227e-09 -2.54686e-09)
(0.218071 1.80725e-08 -4.01644e-09)
(0.218072 -2.39701e-08 8.31018e-09)
(0.218073 7.29541e-09 -5.17923e-09)
(0.24594 3.69622e-08 -3.32134e-09)
(0.245941 -5.31677e-08 7.71964e-09)
(0.245943 1.88888e-08 -5.17422e-09)
(0.265052 5.19089e-08 1.24704e-09)
(0.265053 -8.11026e-08 -1.81927e-09)
(0.265054 3.27753e-08 1.88636e-10)
(0.279397 5.09436e-08 4.23032e-09)
(0.279398 -7.74605e-08 -1.25954e-08)
(0.279398 3.05281e-08 8.31638e-09)
(0.290886 3.71917e-08 4.86114e-09)
(0.290887 -6.11282e-08 -1.64821e-08)
(0.290886 2.77281e-08 1.17935e-08)
(0.300399 1.23497e-08 2.4159e-09)
(0.300399 -2.74506e-08 -1.26316e-08)
(0.300398 1.82738e-08 1.04661e-08)
(0.308415 -7.68873e-09 -1.80589e-09)
(0.308415 -4.38864e-11 -5.7108e-09)
(0.308414 1.00573e-08 7.75129e-09)
(0.315215 -1.95512e-08 -5.00474e-09)
(0.315215 1.92685e-08 -1.86124e-09)
(0.315213 1.83307e-09 7.03535e-09)
(0.320895 -2.98756e-08 -6.4519e-09)
(0.320895 3.5459e-08 -1.65158e-10)
(0.320894 -4.65123e-09 6.71924e-09)
(0.325537 -3.03875e-08 -6.62843e-09)
(0.325537 3.82114e-08 8.23307e-10)
(0.325536 -7.25108e-09 5.86422e-09)
(0.329147 -2.86149e-08 -5.88615e-09)
(0.329148 3.62381e-08 -9.24179e-10)
(0.329147 -7.36165e-09 6.83826e-09)
(0.331537 -2.42356e-08 -4.16096e-09)
(0.331538 2.90666e-08 -2.68381e-09)
(0.331537 -4.62055e-09 6.87744e-09)
(0.332785 -1.12739e-08 -2.26564e-09)
(0.332786 1.32959e-08 -3.03347e-09)
(0.332786 -2.2985e-09 5.33558e-09)
(0.333305 -3.47776e-09 -2.7205e-09)
(0.333306 2.65225e-09 -1.41292e-09)
(0.333305 3.56678e-10 4.15104e-09)
(0.333304 3.42793e-09 -2.74859e-09)
(0.333305 -3.29509e-09 -1.39967e-09)
(0.333304 -7.13474e-10 4.15776e-09)
(0.332781 1.13133e-08 -2.30545e-09)
(0.332782 -1.38328e-08 -3.04116e-09)
(0.332782 1.86157e-09 5.34599e-09)
(0.331527 2.44546e-08 -4.19679e-09)
(0.331527 -2.93447e-08 -2.67471e-09)
(0.331527 4.30137e-09 6.85573e-09)
(0.329127 2.89642e-08 -5.90215e-09)
(0.329128 -3.66365e-08 -9.23971e-10)
(0.329127 7.22726e-09 6.81107e-09)
(0.325506 3.07328e-08 -6.64951e-09)
(0.325506 -3.84332e-08 8.21889e-10)
(0.325505 7.31212e-09 5.82479e-09)
(0.320861 3.04654e-08 -6.54985e-09)
(0.320861 -3.55218e-08 -1.01929e-10)
(0.320859 4.65324e-09 6.66206e-09)
(0.315175 2.08472e-08 -5.14699e-09)
(0.315175 -1.97157e-08 -1.75975e-09)
(0.315173 -1.60599e-09 6.92392e-09)
(0.30837 9.5721e-09 -1.97518e-09)
(0.308371 -5.77078e-10 -5.61323e-09)
(0.308369 -9.53126e-09 7.60301e-09)
(0.300348 -9.92709e-09 2.29885e-09)
(0.300349 2.68915e-08 -1.27044e-08)
(0.300348 -1.75362e-08 1.04079e-08)
(0.290827 -3.49829e-08 4.83333e-09)
(0.290827 6.15488e-08 -1.64853e-08)
(0.290827 -2.71152e-08 1.16373e-08)
(0.279329 -4.8942e-08 4.28637e-09)
(0.27933 7.78133e-08 -1.28028e-08)
(0.27933 -2.93662e-08 8.47699e-09)
(0.264982 -5.03978e-08 1.42995e-09)
(0.264983 8.22293e-08 -2.06205e-09)
(0.264984 -3.22179e-08 5.67597e-10)
(0.245875 -3.5983e-08 -3.01447e-09)
(0.245876 5.41287e-08 7.85263e-09)
(0.245877 -1.84086e-08 -4.92721e-09)
(0.218013 -1.7657e-08 -3.7068e-09)
(0.218014 2.46132e-08 8.58073e-09)
(0.218015 -7.07565e-09 -4.96138e-09)
(0.165079 -4.55568e-09 -5.94253e-10)
(0.165079 5.79238e-09 2.99191e-09)
(0.16508 -1.26131e-09 -2.42037e-09)
(0.177056 5.86109e-09 -1.24175e-09)
(0.177056 -6.70763e-09 3.78289e-09)
(0.177057 1.44518e-09 -3.13555e-09)
(0.2253 1.89985e-08 -4.80806e-09)
(0.225301 -2.46461e-08 9.49771e-09)
(0.225302 7.15187e-09 -5.76213e-09)
(0.253219 3.68443e-08 -4.03537e-09)
(0.25322 -5.21207e-08 8.72473e-09)