/*--------------------------------*- C++ -*----------------------------------*\
  =========                 |
  \\      /  F ield         | OpenFOAM: The Open Source CFD Toolbox
   \\    /   O peration     | Website:  https://openfoam.org
    \\  /    A nd           | Version:  6
     \\/     M anipulation  |
\*---------------------------------------------------------------------------*/
FoamFile
{
    version     2.0;
    format      ascii;
    class       volScalarField;
    location    "45";
    object      p;
}
// * * * * * * * * * * * * * * * * * * * * * * * * * * * * * * * * * * * * * //

dimensions      [0 2 -2 0 0 0 0];

internalField   nonuniform List<scalar> 
380496
(
0.014202
0.0146759
0.0142759
0.014175
0.0140634
0.0139487
0.01384
0.0137309
0.0136222
0.0135145
0.0134078
0.0133024
0.0131984
0.0130958
0.0129945
0.0128943
0.012795
0.0126961
0.0125974
0.0124983
0.0123983
0.0122968
0.0121932
0.0120869
0.0119773
0.0118634
0.0117449
0.0116207
0.0114908
0.0113536
0.011211
0.0110586
0.0109064
0.0107358
0.0105947
0.0141774
0.0146441
0.0142562
0.0141596
0.0140512
0.0139382
0.0138295
0.0137195
0.013609
0.0134987
0.0133888
0.0132797
0.0131714
0.0130639
0.0129573
0.0128512
0.0127455
0.0126397
0.0125336
0.0124267
0.0123185
0.0122084
0.012096
0.0119805
0.0118616
0.0117383
0.0116105
0.011477
0.0113382
0.0111918
0.0110406
0.0108769
0.0107159
0.010521
0.0103696
0.0141496
0.0146113
0.0142347
0.0141429
0.0140375
0.0139257
0.0138166
0.0137049
0.0135917
0.0134781
0.0133641
0.0132503
0.0131368
0.0130236
0.0129105
0.0127975
0.0126843
0.0125705
0.0124558
0.0123396
0.0122216
0.0121012
0.011978
0.0118513
0.0117208
0.0115857
0.0114459
0.0113002
0.0111494
0.0109912
0.0108294
0.0106549
0.0104874
0.0102843
0.0101364
0.0141138
0.0145757
0.0142129
0.0141276
0.0140262
0.0139164
0.0138073
0.0136944
0.0135791
0.0134626
0.0133453
0.0132276
0.0131096
0.0129915
0.0128732
0.0127544
0.0126349
0.0125145
0.0123927
0.012269
0.0121433
0.0120148
0.0118833
0.0117481
0.0116091
0.0114654
0.0113171
0.0111631
0.0110043
0.0108381
0.0106689
0.0104864
0.0103121
0.0100985
0.00994492
0.0140812
0.0145378
0.0141913
0.0141131
0.0140159
0.0139077
0.0137982
0.0136837
0.0135659
0.0134461
0.013325
0.013203
0.0130803
0.0129571
0.0128331
0.0127083
0.0125824
0.012455
0.0123259
0.0121946
0.0120608
0.011924
0.0117839
0.01164
0.011492
0.0113394
0.0111822
0.0110195
0.0108523
0.010678
0.0105015
0.0103119
0.0101326
0.00991355
0.0097596
0.0140354
0.0144973
0.0141696
0.0141
0.0140078
0.0139015
0.0137918
0.0136758
0.0135556
0.0134329
0.0133083
0.0131824
0.0130555
0.0129276
0.0127986
0.0126685
0.0125368
0.0124035
0.012268
0.0121301
0.0119895
0.0118456
0.0116984
0.0115472
0.0113921
0.0112323
0.0110682
0.0108988
0.0107252
0.0105448
0.0103628
0.0101678
0.00998423
0.00975987
0.0096035
0.013987
0.0144547
0.0141486
0.0140888
0.0140018
0.0138973
0.013787
0.0136692
0.0135464
0.0134205
0.0132922
0.0131624
0.0130312
0.0128987
0.0127648
0.0126294
0.0124922
0.012353
0.0122114
0.0120672
0.01192
0.0117694
0.0116154
0.0114573
0.0112953
0.0111289
0.0109582
0.0107825
0.010603
0.0104169
0.0102301
0.0100305
0.00984371
0.00961583
0.00945917
0.0139285
0.0144113
0.0141296
0.0140806
0.0139991
0.0138959
0.0137848
0.013665
0.0135395
0.0134105
0.0132788
0.0131453
0.0130101
0.0128734
0.012735
0.0125949
0.0124528
0.0123083
0.0121614
0.0120116
0.0118586
0.0117023
0.0115424
0.0113786
0.0112108
0.0110388
0.0108628
0.010682
0.0104978
0.0103075
0.0101169
0.00991385
0.00972468
0.00949381
0.00933693
0.0138586
0.014368
0.0141122
0.0140754
0.0139997
0.0138974
0.0137852
0.0136631
0.0135348
0.0134027
0.0132678
0.0131308
0.012992
0.0128515
0.0127092
0.0125649
0.0124184
0.0122694
0.0121178
0.0119631
0.0118053
0.011644
0.0114791
0.0113104
0.0111378
0.0109611
0.0107806
0.0105957
0.0104077
0.0102138
0.0100203
0.00981457
0.00962382
0.0093907
0.00923433
0.0137886
0.0143329
0.0141006
0.014075
0.0140036
0.0139012
0.0137874
0.013663
0.0135321
0.0133972
0.0132594
0.0131194
0.0129775
0.0128338
0.0126882
0.0125405
0.0123904
0.0122377
0.0120822
0.0119237
0.0117619
0.0115966
0.0114277
0.0112551
0.0110787
0.0108984
0.0107146
0.0105265
0.0103356
0.0101393
0.00994372
0.00973599
0.00954432
0.00930938
0.00915387
0.0136967
0.0142977
0.0140897
0.0140772
0.0140104
0.0139074
0.0137917
0.0136648
0.013531
0.0133933
0.0132527
0.01311
0.0129653
0.0128187
0.0126701
0.0125192
0.012366
0.01221
0.0120512
0.0118892
0.011724
0.0115553
0.011383
0.011207
0.0110274
0.0108441
0.0106574
0.0104666
0.0102735
0.0100751
0.00987798
0.00966873
0.00947661
0.00924016
0.00908613
0.0136033
0.0142739
0.0140853
0.0140847
0.0140205
0.0139155
0.0137973
0.0136676
0.0135311
0.0133907
0.0132476
0.0131023
0.0129551
0.012806
0.0126547
0.0125013
0.0123453
0.0121866
0.0120249
0.01186
0.0116919
0.0115203
0.0113451
0.0111664
0.0109842
0.0107984
0.0106094
0.0104166
0.0102217
0.0100217
0.0098235
0.00961312
0.00942092
0.00918311
0.00903096
0.0134791
0.0142544
0.0140824
0.0140955
0.0140336
0.0139259
0.0138048
0.013672
0.0135326
0.0133896
0.013244
0.0130964
0.0129469
0.0127955
0.012642
0.0124862
0.0123279
0.0121668
0.0120026
0.0118353
0.0116647
0.0114907
0.0113131
0.0111322
0.0109477
0.0107599
0.010569
0.0103746
0.0101783
0.00997717
0.0097782
0.00956707
0.00937512
0.00913634
0.00898663
0.0133492
0.014251
0.014086
0.0141111
0.0140488
0.0139371
0.0138126
0.0136766
0.0135345
0.0133891
0.0132413
0.0130917
0.0129402
0.0127869
0.0126315
0.0124737
0.0123134
0.0121503
0.0119841
0.0118148
0.0116421
0.0114661
0.0112867
0.0111038
0.0109176
0.0107282
0.0105358
0.0103402
0.0101428
0.00994086
0.00974137
0.00952978
0.0093381
0.00909849
0.00895105
0.0131869
0.0142599
0.0140931
0.0141316
0.0140675
0.0139507
0.0138222
0.0136827
0.0135377
0.0133899
0.0132401
0.0130886
0.0129354
0.0127804
0.0126233
0.0124639
0.0123019
0.0121371
0.0119693
0.0117983
0.011624
0.0114463
0.0112653
0.011081
0.0108934
0.0107026
0.0105092
0.0103126
0.0101144
0.00991199
0.00971224
0.00950063
0.00930943
0.00907009
0.00892512
0.013006
0.0142887
0.0141047
0.0141542
0.0140856
0.013963
0.0138306
0.013688
0.0135405
0.0133906
0.0132391
0.0130861
0.0129315
0.0127751
0.0126167
0.012456
0.0122927
0.0121266
0.0119574
0.0117851
0.0116095
0.0114306
0.0112484
0.0110629
0.0108742
0.0106825
0.0104882
0.0102909
0.0100922
0.00988947
0.00968951
0.00947805
0.00928663
0.00904762
0.0089022
0.0128026
0.0143377
0.0141229
0.0141839
0.0141081
0.0139783
0.0138412
0.0136949
0.0135448
0.013393
0.0132399
0.0130855
0.0129296
0.0127721
0.0126127
0.0124509
0.0122865
0.0121193
0.0119492
0.0117758
0.0115992
0.0114193
0.0112362
0.0110497
0.0108603
0.0106679
0.010473
0.0102752
0.0100762
0.00987344
0.00967353
0.00946286
0.00927175
0.00903589
0.00889061
0.0125629
0.0144094
0.0141403
0.0142098
0.0141256
0.0139897
0.013849
0.0137001
0.0135481
0.0133948
0.0132405
0.0130851
0.0129284
0.0127701
0.0126098
0.0124472
0.0122821
0.0121142
0.0119433
0.0117692
0.0115919
0.0114112
0.0112275
0.0110404
0.0108504
0.0106574
0.0104622
0.0102641
0.010065
0.00986219
0.00966217
0.00945224
0.00925945
0.00902554
0.00886995
0.0123188
0.0144973
0.0141685
0.0142464
0.0141502
0.0140065
0.0138611
0.0137089
0.0135546
0.0133997
0.0132441
0.0130877
0.0129301
0.012771
0.0126101
0.0124468
0.0122812
0.0121126
0.0119412
0.0117665
0.0115888
0.0114076
0.0112234
0.0110359
0.0108456
0.0106523
0.0104569
0.0102585
0.0100595
0.00985684
0.00965723
0.00944867
0.00925714
0.00903044
0.00887662
0.0120528
0.0146005
0.0141917
0.0142752
0.0141679
0.0140187
0.0138701
0.0137156
0.0135599
0.0134038
0.0132474
0.0130903
0.0129321
0.0127725
0.0126111
0.0124474
0.0122814
0.0121124
0.0119407
0.0117656
0.0115876
0.0114061
0.0112217
0.0110339
0.0108435
0.0106499
0.0104545
0.010256
0.0100571
0.00985452
0.00965489
0.00944736
0.00925274
0.00902941
0.00884362
0.011802
0.0147084
0.0142378
0.0143191
0.014197
0.0140394
0.0138853
0.0137272
0.0135689
0.0134111
0.0132534
0.0130953
0.0129365
0.0127763
0.0126145
0.0124504
0.0122841
0.0121149
0.011943
0.0117678
0.0115897
0.0114081
0.0112236
0.0110358
0.0108454
0.0106518
0.0104564
0.010258
0.0100592
0.00985678
0.00965781
0.00945113
0.00926169
0.00904559
0.00890691
0.0142051
0.0146687
0.014276
0.0141754
0.0140636
0.0139488
0.01384
0.0137309
0.0136222
0.0135144
0.0134078
0.0133024
0.0131984
0.0130958
0.0129945
0.0128943
0.012795
0.0126961
0.0125974
0.0124983
0.0123983
0.0122968
0.0121933
0.012087
0.0119773
0.0118634
0.0117449
0.0116207
0.0114908
0.0113537
0.011211
0.0110587
0.0109065
0.0107359
0.0105948
0.0141804
0.0146371
0.0142563
0.01416
0.0140513
0.0139382
0.0138295
0.0137195
0.013609
0.0134987
0.0133888
0.0132797
0.0131714
0.0130639
0.0129573
0.0128512
0.0127455
0.0126397
0.0125337
0.0124267
0.0123185
0.0122084
0.012096
0.0119805
0.0118616
0.0117384
0.0116106
0.0114771
0.0113383
0.0111919
0.0110407
0.0108771
0.010716
0.0105211
0.0103697
0.0141523
0.0146045
0.0142347
0.0141432
0.0140376
0.0139257
0.0138166
0.0137049
0.0135917
0.013478
0.0133641
0.0132503
0.0131368
0.0130236
0.0129105
0.0127975
0.0126843
0.0125705
0.0124558
0.0123396
0.0122216
0.0121012
0.0119781
0.0118514
0.0117209
0.0115857
0.0114459
0.0113002
0.0111495
0.0109912
0.0108294
0.010655
0.0104874
0.0102844
0.0101364
0.0141166
0.014569
0.0142129
0.0141279
0.0140264
0.0139164
0.0138073
0.0136944
0.0135791
0.0134626
0.0133453
0.0132276
0.0131096
0.0129915
0.0128732
0.0127544
0.0126349
0.0125145
0.0123927
0.0122691
0.0121433
0.0120148
0.0118834
0.0117482
0.0116091
0.0114654
0.0113172
0.0111632
0.0110044
0.0108382
0.010669
0.0104865
0.0103122
0.0100986
0.00994502
0.0140837
0.0145312
0.0141914
0.0141134
0.014016
0.0139077
0.0137982
0.0136837
0.0135659
0.0134461
0.013325
0.013203
0.0130803
0.0129571
0.0128331
0.0127083
0.0125824
0.012455
0.0123259
0.0121946
0.0120608
0.011924
0.011784
0.01164
0.0114921
0.0113395
0.0111823
0.0110196
0.0108524
0.010678
0.0105016
0.010312
0.0101327
0.00991367
0.00975969
0.0140379
0.0144908
0.0141697
0.0141003
0.0140079
0.0139015
0.0137918
0.0136758
0.0135556
0.0134329
0.0133083
0.0131824
0.0130555
0.0129276
0.0127986
0.0126685
0.0125369
0.0124035
0.012268
0.0121301
0.0119895
0.0118457
0.0116985
0.0115473
0.0113922
0.0112324
0.0110683
0.0108989
0.0107253
0.0105449
0.0103629
0.010168
0.00998436
0.00976001
0.0096036
0.0139893
0.0144484
0.0141487
0.0140891
0.0140019
0.0138973
0.013787
0.0136692
0.0135464
0.0134205
0.0132922
0.0131624
0.0130312
0.0128987
0.0127648
0.0126294
0.0124922
0.012353
0.0122114
0.0120672
0.01192
0.0117695
0.0116154
0.0114574
0.0112954
0.0111289
0.0109583
0.0107825
0.010603
0.010417
0.0102302
0.0100306
0.00984383
0.00961597
0.00945926
0.0139306
0.0144052
0.0141297
0.0140809
0.0139992
0.0138959
0.0137848
0.013665
0.0135395
0.0134105
0.0132788
0.0131453
0.0130101
0.0128734
0.012735
0.0125949
0.0124528
0.0123084
0.0121614
0.0120116
0.0118587
0.0117023
0.0115424
0.0113786
0.0112109
0.0110389
0.0108629
0.0106821
0.0104979
0.0103076
0.010117
0.00991398
0.00972481
0.00949396
0.00933702
0.0138607
0.0143622
0.0141123
0.0140757
0.0139997
0.0138974
0.0137852
0.0136631
0.0135348
0.0134027
0.0132678
0.0131308
0.012992
0.0128515
0.0127092
0.0125649
0.0124184
0.0122695
0.0121178
0.0119632
0.0118053
0.011644
0.0114791
0.0113104
0.0111379
0.0109612
0.0107807
0.0105958
0.0104078
0.010214
0.0100205
0.00981469
0.00962395
0.00939085
0.00923442
0.0137905
0.0143272
0.0141007
0.0140753
0.0140037
0.0139012
0.0137874
0.013663
0.0135321
0.0133972
0.0132594
0.0131194
0.0129775
0.0128339
0.0126882
0.0125405
0.0123904
0.0122378
0.0120823
0.0119237
0.0117619
0.0115966
0.0114278
0.0112552
0.0110788
0.0108985
0.0107146
0.0105265
0.0103357
0.0101394
0.00994384
0.00973611
0.00954445
0.00930953
0.00915395
0.0136986
0.0142922
0.0140898
0.0140775
0.0140105
0.0139074
0.0137917
0.0136648
0.013531
0.0133933
0.0132527
0.01311
0.0129653
0.0128187
0.0126701
0.0125193
0.012366
0.0122101
0.0120512
0.0118893
0.011724
0.0115553
0.011383
0.0112071
0.0110275
0.0108442
0.0106574
0.0104667
0.0102736
0.0100752
0.0098781
0.00966885
0.00947674
0.00924031
0.00908621
0.0136048
0.0142686
0.0140853
0.0140849
0.0140206
0.0139155
0.0137973
0.0136676
0.0135311
0.0133907
0.0132476
0.0131023
0.0129551
0.012806
0.0126548
0.0125013
0.0123453
0.0121866
0.0120249
0.0118601
0.0116919
0.0115203
0.0113452
0.0111665
0.0109843
0.0107985
0.0106094
0.0104167
0.0102218
0.0100218
0.00982361
0.00961325
0.00942104
0.00918327
0.00903103
0.0134806
0.0142494
0.0140825
0.0140957
0.0140337
0.0139259
0.0138047
0.0136719
0.0135326
0.0133896
0.013244
0.0130964
0.0129469
0.0127955
0.012642
0.0124863
0.0123279
0.0121668
0.0120026
0.0118354
0.0116647
0.0114907
0.0113132
0.0111322
0.0109478
0.01076
0.0105691
0.0103747
0.0101784
0.00997729
0.00977831
0.0095672
0.00937525
0.0091365
0.0089867
0.0133504
0.0142463
0.014086
0.0141112
0.0140489
0.0139371
0.0138125
0.0136766
0.0135345
0.0133891
0.0132413
0.0130917
0.0129402
0.0127869
0.0126315
0.0124737
0.0123134
0.0121503
0.0119841
0.0118148
0.0116422
0.0114662
0.0112867
0.0111039
0.0109177
0.0107283
0.0105359
0.0103403
0.0101429
0.00994098
0.00974149
0.00952991
0.00933823
0.00909866
0.00895111
0.013188
0.0142555
0.0140931
0.0141317
0.0140675
0.0139507
0.0138221
0.0136827
0.0135377
0.0133899
0.0132401
0.0130885
0.0129354
0.0127804
0.0126233
0.0124639
0.0123019
0.0121371
0.0119693
0.0117983
0.011624
0.0114464
0.0112654
0.011081
0.0108935
0.0107027
0.0105092
0.0103127
0.0101145
0.00991212
0.00971237
0.00950077
0.00930958
0.00907028
0.00892519
0.0130069
0.0142846
0.0141046
0.0141542
0.0140856
0.013963
0.0138306
0.0136879
0.0135404
0.0133906
0.0132391
0.013086
0.0129315
0.0127751
0.0126167
0.012456
0.0122927
0.0121266
0.0119575
0.0117852
0.0116096
0.0114307
0.0112484
0.0110629
0.0108743
0.0106826
0.0104883
0.010291
0.0100923
0.00988962
0.00968966
0.00947822
0.00928679
0.00904783
0.00890228
0.0128032
0.014334
0.0141227
0.0141839
0.014108
0.0139782
0.0138411
0.0136949
0.0135448
0.013393
0.0132399
0.0130855
0.0129297
0.0127722
0.0126127
0.0124509
0.0122866
0.0121194
0.0119493
0.0117759
0.0115993
0.0114194
0.0112363
0.0110499
0.0108604
0.010668
0.0104731
0.0102753
0.0100764
0.00987361
0.00967371
0.00946305
0.00927195
0.00903613
0.00889075
0.0125635
0.014406
0.0141401
0.0142098
0.0141255
0.0139896
0.013849
0.0137001
0.0135481
0.0133949
0.0132406
0.0130852
0.0129285
0.0127702
0.0126099
0.0124473
0.0122823
0.0121143
0.0119434
0.0117693
0.011592
0.0114114
0.0112276
0.0110405
0.0108506
0.0106576
0.0104624
0.0102642
0.0100652
0.00986238
0.00966237
0.00945244
0.00925965
0.00902577
0.00887008
0.0123177
0.0144947
0.0141682
0.0142464
0.0141502
0.0140066
0.0138612
0.013709
0.0135548
0.0133999
0.0132443
0.0130878
0.0129303
0.0127712
0.0126102
0.012447
0.0122813
0.0121128
0.0119413
0.0117667
0.0115889
0.0114077
0.0112236
0.011036
0.0108458
0.0106524
0.010457
0.0102587
0.0100596
0.00985701
0.00965741
0.00944885
0.00925734
0.00903065
0.00887683
0.0120501
0.0145995
0.0141918
0.0142755
0.0141683
0.014019
0.0138703
0.0137158
0.01356
0.013404
0.0132475
0.0130904
0.0129322
0.0127726
0.0126112
0.0124475
0.0122814
0.0121125
0.0119407
0.0117657
0.0115877
0.0114062
0.0112218
0.011034
0.0108436
0.01065
0.0104545
0.0102561
0.0100571
0.00985458
0.00965495
0.00944741
0.00925281
0.00902942
0.00884368
0.0118163
0.0147117
0.0142374
0.0143181
0.0141957
0.0140382
0.0138843
0.0137263
0.0135682
0.0134105
0.0132528
0.0130948
0.012936
0.0127758
0.012614
0.01245
0.0122837
0.0121146
0.0119426
0.0117674
0.0115893
0.0114077
0.0112233
0.0110354
0.010845
0.0106514
0.010456
0.0102576
0.0100588
0.0098564
0.00965741
0.00945073
0.00926127
0.00904515
0.00890627
0.0142135
0.0146634
0.0142758
0.0141755
0.0140636
0.0139488
0.01384
0.0137309
0.0136222
0.0135144
0.0134078
0.0133024
0.0131984
0.0130958
0.0129945
0.0128943
0.0127949
0.0126961
0.0125974
0.0124983
0.0123983
0.0122968
0.0121933
0.012087
0.0119773
0.0118634
0.0117449
0.0116207
0.0114908
0.0113537
0.011211
0.0110587
0.0109065
0.010736
0.0105949
0.0141886
0.0146318
0.0142561
0.01416
0.0140514
0.0139383
0.0138296
0.0137195
0.013609
0.0134987
0.0133888
0.0132797
0.0131714
0.0130639
0.0129573
0.0128512
0.0127455
0.0126398
0.0125337
0.0124267
0.0123185
0.0122084
0.012096
0.0119806
0.0118617
0.0117384
0.0116106
0.0114771
0.0113383
0.0111919
0.0110408
0.0108771
0.0107161
0.0105211
0.0103698
0.0141605
0.0145993
0.0142346
0.0141433
0.0140377
0.0139258
0.0138166
0.0137049
0.0135917
0.013478
0.0133641
0.0132503
0.0131368
0.0130235
0.0129105
0.0127975
0.0126843
0.0125705
0.0124558
0.0123396
0.0122216
0.0121012
0.0119781
0.0118514
0.0117209
0.0115857
0.0114459
0.0113003
0.0111495
0.0109912
0.0108294
0.010655
0.0104875
0.0102844
0.0101365
0.0141247
0.0145638
0.0142128
0.014128
0.0140264
0.0139164
0.0138073
0.0136944
0.0135791
0.0134626
0.0133453
0.0132276
0.0131096
0.0129915
0.0128732
0.0127544
0.012635
0.0125145
0.0123927
0.0122691
0.0121433
0.0120149
0.0118834
0.0117482
0.0116092
0.0114655
0.0113172
0.0111632
0.0110045
0.0108382
0.0106691
0.0104866
0.0103123
0.0100987
0.00994512
0.0140915
0.0145262
0.0141913
0.0141135
0.014016
0.0139077
0.0137982
0.0136837
0.0135659
0.0134461
0.013325
0.013203
0.0130803
0.0129571
0.0128331
0.0127083
0.0125824
0.012455
0.0123259
0.0121946
0.0120608
0.011924
0.011784
0.01164
0.0114921
0.0113395
0.0111823
0.0110196
0.0108524
0.0106781
0.0105016
0.0103121
0.0101327
0.0099137
0.00975977
0.0140456
0.0144859
0.0141696
0.0141004
0.0140079
0.0139015
0.0137918
0.0136758
0.0135556
0.0134329
0.0133083
0.0131824
0.0130555
0.0129276
0.0127986
0.0126685
0.0125369
0.0124035
0.0122681
0.0121302
0.0119895
0.0118457
0.0116985
0.0115473
0.0113922
0.0112324
0.0110683
0.0108989
0.0107254
0.010545
0.010363
0.010168
0.00998442
0.00976006
0.0096037
0.0139969
0.0144436
0.0141486
0.0140891
0.014002
0.0138973
0.013787
0.0136692
0.0135464
0.0134205
0.0132922
0.0131624
0.0130312
0.0128987
0.0127648
0.0126294
0.0124922
0.012353
0.0122114
0.0120672
0.01192
0.0117695
0.0116154
0.0114574
0.0112954
0.011129
0.0109583
0.0107826
0.0106031
0.0104171
0.0102302
0.0100307
0.00984389
0.00961601
0.00945936
0.013938
0.0144006
0.0141296
0.014081
0.0139993
0.0138959
0.0137849
0.013665
0.0135395
0.0134104
0.0132788
0.0131453
0.0130101
0.0128734
0.012735
0.0125949
0.0124528
0.0123084
0.0121614
0.0120116
0.0118587
0.0117024
0.0115425
0.0113787
0.0112109
0.0110389
0.0108629
0.0106821
0.010498
0.0103077
0.0101171
0.00991403
0.00972488
0.00949401
0.00933714
0.0138679
0.0143576
0.0141122
0.0140758
0.0139998
0.0138974
0.0137852
0.0136631
0.0135348
0.0134027
0.0132678
0.0131308
0.012992
0.0128515
0.0127092
0.0125649
0.0124184
0.0122695
0.0121178
0.0119632
0.0118053
0.0116441
0.0114792
0.0113104
0.0111379
0.0109612
0.0107807
0.0105958
0.0104078
0.010214
0.0100205
0.00981474
0.00962401
0.0093909
0.00923453
0.0137974
0.0143228
0.0141006
0.0140753
0.0140038
0.0139012
0.0137874
0.013663
0.0135321
0.0133971
0.0132593
0.0131194
0.0129775
0.0128338
0.0126882
0.0125405
0.0123904
0.0122378
0.0120823
0.0119237
0.0117619
0.0115967
0.0114278
0.0112552
0.0110788
0.0108986
0.0107147
0.0105266
0.0103358
0.0101394
0.00994389
0.00973617
0.00954452
0.00930959
0.00915407
0.0137054
0.0142879
0.0140897
0.0140775
0.0140105
0.0139074
0.0137917
0.0136647
0.013531
0.0133933
0.0132527
0.01311
0.0129653
0.0128187
0.0126701
0.0125193
0.012366
0.0122101
0.0120512
0.0118893
0.011724
0.0115553
0.011383
0.0112071
0.0110275
0.0108442
0.0106575
0.0104668
0.0102736
0.0100752
0.00987815
0.0096689
0.0094768
0.00924037
0.00908632
0.0136113
0.0142645
0.0140853
0.0140849
0.0140206
0.0139155
0.0137973
0.0136675
0.013531
0.0133907
0.0132475
0.0131023
0.0129551
0.012806
0.0126547
0.0125013
0.0123453
0.0121866
0.0120249
0.0118601
0.0116919
0.0115203
0.0113452
0.0111665
0.0109843
0.0107985
0.0106095
0.0104167
0.0102218
0.0100219
0.00982367
0.0096133
0.00942111
0.00918333
0.00903115
0.013487
0.0142454
0.0140824
0.0140958
0.0140337
0.0139259
0.0138047
0.0136719
0.0135325
0.0133896
0.013244
0.0130964
0.0129469
0.0127955
0.012642
0.0124862
0.0123279
0.0121668
0.0120026
0.0118354
0.0116647
0.0114907
0.0113132
0.0111322
0.0109478
0.01076
0.0105691
0.0103747
0.0101784
0.00997734
0.00977837
0.00956726
0.00937532
0.00913656
0.00898682
0.0133565
0.0142426
0.0140859
0.0141113
0.0140488
0.0139371
0.0138125
0.0136765
0.0135344
0.013389
0.0132413
0.0130916
0.0129402
0.0127869
0.0126314
0.0124737
0.0123134
0.0121503
0.0119841
0.0118148
0.0116422
0.0114662
0.0112867
0.0111039
0.0109177
0.0107283
0.0105359
0.0103403
0.0101429
0.00994104
0.00974155
0.00952997
0.0093383
0.00909873
0.00895124
0.0131938
0.014252
0.014093
0.0141317
0.0140675
0.0139506
0.0138221
0.0136826
0.0135376
0.0133898
0.01324
0.0130885
0.0129353
0.0127803
0.0126233
0.0124639
0.0123019
0.0121371
0.0119693
0.0117983
0.011624
0.0114464
0.0112654
0.0110811
0.0108935
0.0107028
0.0105093
0.0103127
0.0101146
0.00991219
0.00971245
0.00950085
0.00930966
0.00907037
0.00892534
0.0130125
0.0142814
0.0141045
0.0141542
0.0140855
0.0139628
0.0138305
0.0136878
0.0135403
0.0133905
0.013239
0.013086
0.0129314
0.0127751
0.0126167
0.012456
0.0122927
0.0121266
0.0119575
0.0117852
0.0116096
0.0114307
0.0112485
0.011063
0.0108744
0.0106827
0.0104883
0.0102911
0.0100924
0.00988971
0.00968976
0.00947831
0.0092869
0.00904793
0.00890243
0.0128084
0.014331
0.0141226
0.0141839
0.0141079
0.013978
0.013841
0.0136948
0.0135447
0.013393
0.0132399
0.0130855
0.0129297
0.0127722
0.0126127
0.012451
0.0122866
0.0121195
0.0119493
0.011776
0.0115994
0.0114195
0.0112364
0.0110499
0.0108605
0.0106681
0.0104732
0.0102754
0.0100765
0.00987373
0.00967384
0.00946318
0.00927209
0.00903627
0.00889095
0.0125683
0.0144034
0.0141399
0.0142097
0.0141253
0.0139895
0.0138489
0.0137001
0.0135481
0.0133949
0.0132407
0.0130853
0.0129286
0.0127702
0.01261
0.0124474
0.0122824
0.0121144
0.0119435
0.0117694
0.0115921
0.0114115
0.0112277
0.0110406
0.0108507
0.0106577
0.0104625
0.0102644
0.0100653
0.00986252
0.00966252
0.00945258
0.0092598
0.00902591
0.00887025
0.0123214
0.0144929
0.014168
0.0142463
0.0141503
0.0140067
0.0138614
0.0137092
0.0135549
0.0134
0.0132445
0.013088
0.0129304
0.0127713
0.0126104
0.0124471
0.0122814
0.0121129
0.0119415
0.0117668
0.011589
0.0114078
0.0112237
0.0110361
0.0108459
0.0106525
0.0104571
0.0102588
0.0100598
0.00985712
0.00965753
0.00944896
0.00925748
0.00903078
0.00887704
0.0120521
0.0145997
0.0141922
0.0142761
0.0141687
0.0140193
0.0138705
0.013716
0.0135601
0.0134041
0.0132476
0.0130904
0.0129323
0.0127726
0.0126112
0.0124475
0.0122814
0.0121125
0.0119407
0.0117657
0.0115877
0.0114062
0.0112218
0.011034
0.0108436
0.01065
0.0104545
0.0102561
0.0100571
0.00985457
0.00965494
0.00944739
0.00925282
0.00902936
0.00884355
0.0118245
0.0147138
0.0142373
0.0143176
0.0141951
0.0140376
0.0138838
0.0137259
0.0135678
0.0134101
0.0132525
0.0130945
0.0129357
0.0127756
0.0126138
0.0124498
0.0122835
0.0121144
0.0119424
0.0117673
0.0115891
0.0114076
0.0112231
0.0110352
0.0108449
0.0106513
0.0104559
0.0102574
0.0100586
0.00985622
0.00965722
0.00945054
0.00926108
0.00904498
0.008906
0.0142186
0.0146581
0.0142755
0.0141754
0.0140637
0.0139488
0.01384
0.0137309
0.0136222
0.0135144
0.0134078
0.0133024
0.0131984
0.0130958
0.0129945
0.0128943
0.0127949
0.0126961
0.0125974
0.0124983
0.0123983
0.0122968
0.0121932
0.0120869
0.0119773
0.0118634
0.0117449
0.0116207
0.0114908
0.0113537
0.011211
0.0110587
0.0109065
0.010736
0.010595
0.0141936
0.0146267
0.0142558
0.0141599
0.0140514
0.0139383
0.0138296
0.0137195
0.013609
0.0134987
0.0133888
0.0132797
0.0131714
0.013064
0.0129573
0.0128512
0.0127455
0.0126398
0.0125337
0.0124268
0.0123185
0.0122085
0.0120961
0.0119806
0.0118617
0.0117384
0.0116106
0.0114772
0.0113383
0.011192
0.0110408
0.0108772
0.0107161
0.0105212
0.0103698
0.0141654
0.0145942
0.0142343
0.0141432
0.0140377
0.0139258
0.0138166
0.0137049
0.0135917
0.013478
0.0133641
0.0132503
0.0131368
0.0130235
0.0129105
0.0127975
0.0126843
0.0125705
0.0124558
0.0123396
0.0122216
0.0121012
0.0119781
0.0118514
0.0117209
0.0115857
0.0114459
0.0113002
0.0111495
0.0109912
0.0108294
0.010655
0.0104874
0.0102844
0.0101365
0.0141295
0.0145588
0.0142125
0.0141279
0.0140264
0.0139165
0.0138073
0.0136944
0.0135791
0.0134626
0.0133453
0.0132276
0.0131096
0.0129915
0.0128732
0.0127544
0.012635
0.0125145
0.0123927
0.0122691
0.0121433
0.0120149
0.0118834
0.0117482
0.0116092
0.0114655
0.0113172
0.0111632
0.0110045
0.0108383
0.0106691
0.0104866
0.0103123
0.0100987
0.00994521
0.0140963
0.0145213
0.014191
0.0141134
0.014016
0.0139077
0.0137982
0.0136837
0.0135659
0.0134461
0.013325
0.013203
0.0130803
0.0129571
0.0128331
0.0127083
0.0125824
0.012455
0.0123259
0.0121946
0.0120608
0.011924
0.011784
0.01164
0.0114921
0.0113395
0.0111823
0.0110196
0.0108524
0.0106781
0.0105016
0.0103121
0.0101327
0.00991373
0.00975986
0.0140503
0.0144811
0.0141693
0.0141003
0.014008
0.0139016
0.0137918
0.0136758
0.0135556
0.0134329
0.0133083
0.0131824
0.0130555
0.0129276
0.0127986
0.0126685
0.0125369
0.0124035
0.0122681
0.0121302
0.0119895
0.0118457
0.0116985
0.0115473
0.0113922
0.0112325
0.0110684
0.0108989
0.0107254
0.010545
0.010363
0.0101681
0.00998444
0.0097601
0.00960381
0.0140015
0.0144389
0.0141483
0.0140891
0.014002
0.0138973
0.013787
0.0136692
0.0135464
0.0134204
0.0132922
0.0131624
0.0130312
0.0128987
0.0127648
0.0126294
0.0124922
0.012353
0.0122114
0.0120672
0.01192
0.0117695
0.0116154
0.0114574
0.0112954
0.011129
0.0109583
0.0107826
0.0106031
0.0104171
0.0102302
0.0100307
0.0098439
0.00961605
0.00945947
0.0139425
0.014396
0.0141293
0.0140809
0.0139993
0.013896
0.0137849
0.013665
0.0135395
0.0134104
0.0132788
0.0131452
0.0130101
0.0128734
0.012735
0.0125949
0.0124528
0.0123084
0.0121614
0.0120116
0.0118587
0.0117024
0.0115425
0.0113787
0.0112109
0.0110389
0.0108629
0.0106821
0.010498
0.0103077
0.0101171
0.00991406
0.00972489
0.00949406
0.00933726
0.0138723
0.0143531
0.014112
0.0140757
0.0139998
0.0138974
0.0137852
0.0136631
0.0135348
0.0134027
0.0132678
0.0131308
0.012992
0.0128515
0.0127092
0.0125649
0.0124184
0.0122695
0.0121178
0.0119632
0.0118053
0.0116441
0.0114792
0.0113104
0.0111379
0.0109612
0.0107807
0.0105958
0.0104078
0.010214
0.0100205
0.00981477
0.00962402
0.00939095
0.00923466
0.0138017
0.0143184
0.0141004
0.0140753
0.0140038
0.0139012
0.0137874
0.013663
0.0135321
0.0133971
0.0132593
0.0131194
0.0129775
0.0128338
0.0126882
0.0125405
0.0123904
0.0122377
0.0120823
0.0119237
0.0117619
0.0115967
0.0114278
0.0112552
0.0110788
0.0108986
0.0107147
0.0105266
0.0103358
0.0101394
0.0099439
0.0097362
0.00954453
0.00930964
0.00915421
0.0137096
0.0142837
0.0140895
0.0140775
0.0140105
0.0139074
0.0137916
0.0136647
0.013531
0.0133933
0.0132527
0.0131099
0.0129652
0.0128187
0.01267
0.0125192
0.012366
0.0122101
0.0120512
0.0118893
0.011724
0.0115553
0.011383
0.0112071
0.0110275
0.0108442
0.0106575
0.0104668
0.0102736
0.0100753
0.00987816
0.00966893
0.00947681
0.00924042
0.00908647
0.0136154
0.0142604
0.0140851
0.0140848
0.0140206
0.0139155
0.0137972
0.0136675
0.013531
0.0133906
0.0132475
0.0131023
0.012955
0.0128059
0.0126547
0.0125013
0.0123453
0.0121866
0.0120249
0.0118601
0.0116919
0.0115203
0.0113452
0.0111665
0.0109843
0.0107985
0.0106095
0.0104167
0.0102218
0.0100219
0.00982367
0.00961333
0.00942112
0.00918338
0.0090313
0.0134909
0.0142415
0.0140823
0.0140957
0.0140337
0.0139259
0.0138047
0.0136719
0.0135325
0.0133895
0.0132439
0.0130963
0.0129469
0.0127955
0.012642
0.0124862
0.0123278
0.0121667
0.0120026
0.0118353
0.0116647
0.0114907
0.0113132
0.0111322
0.0109478
0.01076
0.0105691
0.0103748
0.0101784
0.00997736
0.00977837
0.00956729
0.00937533
0.00913662
0.00898698
0.0133602
0.0142388
0.0140858
0.0141112
0.0140488
0.013937
0.0138124
0.0136765
0.0135344
0.013389
0.0132412
0.0130916
0.0129401
0.0127868
0.0126314
0.0124737
0.0123133
0.0121503
0.0119841
0.0118148
0.0116422
0.0114662
0.0112867
0.0111039
0.0109177
0.0107283
0.0105359
0.0103403
0.0101429
0.00994106
0.00974156
0.00953001
0.00933832
0.00909879
0.00895142
0.0131975
0.0142485
0.0140929
0.0141316
0.0140675
0.0139505
0.013822
0.0136825
0.0135375
0.0133897
0.0132399
0.0130884
0.0129353
0.0127803
0.0126232
0.0124638
0.0123019
0.0121371
0.0119693
0.0117983
0.011624
0.0114464
0.0112654
0.0110811
0.0108935
0.0107028
0.0105093
0.0103127
0.0101146
0.00991222
0.00971247
0.0095009
0.00930969
0.00907044
0.00892554
0.0130159
0.0142782
0.0141044
0.0141541
0.0140854
0.0139627
0.0138303
0.0136877
0.0135402
0.0133904
0.0132389
0.0130859
0.0129314
0.012775
0.0126167
0.012456
0.0122927
0.0121266
0.0119575
0.0117852
0.0116096
0.0114307
0.0112485
0.011063
0.0108744
0.0106827
0.0104884
0.0102911
0.0100925
0.00988976
0.0096898
0.00947838
0.00928694
0.00904803
0.00890266
0.0128116
0.0143281
0.0141224
0.0141837
0.0141078
0.0139779
0.0138409
0.0136947
0.0135447
0.0133929
0.0132398
0.0130854
0.0129297
0.0127722
0.0126127
0.012451
0.0122866
0.0121195
0.0119493
0.011776
0.0115994
0.0114195
0.0112364
0.01105
0.0108606
0.0106681
0.0104733
0.0102755
0.0100766
0.0098738
0.0096739
0.00946326
0.00927215
0.00903639
0.00889119
0.0125713
0.0144008
0.0141397
0.0142095
0.0141253
0.0139894
0.0138489
0.0137001
0.0135481
0.0133949
0.0132407
0.0130853
0.0129286
0.0127703
0.0126101
0.0124475
0.0122824
0.0121145
0.0119436
0.0117695
0.0115922
0.0114116
0.0112278
0.0110407
0.0108508
0.0106578
0.0104625
0.0102644
0.0100654
0.00986259
0.00966259
0.00945266
0.00925987
0.00902602
0.00887045
0.0123238
0.0144914
0.0141681
0.0142463
0.0141503
0.0140067
0.0138614
0.0137093
0.013555
0.0134001
0.0132445
0.0130881
0.0129305
0.0127714
0.0126104
0.0124472
0.0122815
0.0121129
0.0119415
0.0117668
0.0115891
0.0114079
0.0112237
0.0110362
0.0108459
0.0106526
0.0104572
0.0102589
0.0100598
0.00985717
0.00965757
0.00944901
0.00925752
0.00903084
0.00887718
0.012054
0.0146002
0.0141925
0.0142762
0.0141689
0.0140194
0.0138706
0.013716
0.0135601
0.0134041
0.0132476
0.0130904
0.0129322
0.0127726
0.0126112
0.0124475
0.0122814
0.0121125
0.0119407
0.0117657
0.0115876
0.0114061
0.0112217
0.0110339
0.0108435
0.0106499
0.0104545
0.010256
0.010057
0.00985451
0.00965488
0.00944732
0.00925275
0.00902926
0.00884305
0.0118231
0.014715
0.014238
0.0143176
0.0141952
0.0140376
0.0138837
0.0137258
0.0135677
0.0134101
0.0132525
0.0130945
0.0129357
0.0127755
0.0126138
0.0124498
0.0122835
0.0121143
0.0119424
0.0117673
0.0115891
0.0114076
0.0112231
0.0110352
0.0108449