/*--------------------------------*- C++ -*----------------------------------*\
  =========                 |
  \\      /  F ield         | OpenFOAM: The Open Source CFD Toolbox
   \\    /   O peration     | Website:  https://openfoam.org
    \\  /    A nd           | Version:  6
     \\/     M anipulation  |
\*---------------------------------------------------------------------------*/
FoamFile
{
    version     2.0;
    format      ascii;
    class       volScalarField;
    location    "1";
    object      omega;
}
// * * * * * * * * * * * * * * * * * * * * * * * * * * * * * * * * * * * * * //

dimensions      [0 0 -1 0 0 0 0];

internalField   nonuniform List<scalar> 
380496
(
843.917
843.917
843.917
843.917
843.917
843.917
843.917
843.917
843.917
843.917
843.917
843.917
843.917
843.917
843.917
843.917
843.917
843.917
843.917
843.917
843.917
843.917
843.917
843.917
843.917
843.917
843.917
843.917
843.917
843.917
843.917
843.917
843.917
843.917
843.917
843.917
843.917
843.917
843.917
843.917
843.917
843.917
843.917
843.917
843.917
843.917
843.917
843.917
843.917
843.917
843.917
843.917
843.917
843.917
843.917
843.917
843.917
843.917
843.917
843.917
843.917
843.917
843.917
843.917
843.917
843.917
843.917
843.917
843.917
843.917
843.917
843.917
843.917
843.917
843.917
843.917
843.917
843.917
843.917
843.917
843.917
843.917
843.917
843.917
843.917
843.917
843.917
843.917
843.917
843.917
843.917
843.917
843.917
843.917
843.917
843.917
843.917
843.917
843.917
843.917
843.917
843.917
843.917
843.917
843.917
843.917
843.917
843.917
843.917
843.917
843.917
843.917
843.917
843.917
843.917
843.917
843.917
843.917
843.917
843.917
843.917
843.917
843.917
843.917
843.917
843.917
843.917
843.917
843.917
843.917
843.917
843.917
843.917
843.917
843.917
843.917
843.917
843.917
843.917
843.917
843.917
843.917
843.917
843.917
843.917
843.917
843.917
843.917
843.917
843.917
843.917
843.917
843.917
843.917
843.917
843.917
843.917
843.917
843.917
843.917
843.917
843.917
843.917
843.917
843.917
843.917
843.917
843.917
843.917
843.917
843.917
843.917
843.917
843.917
843.917
843.917
843.917
843.917
843.917
843.917
843.917
843.917
843.917
843.917
843.917
843.917
843.917
843.917
843.917
843.917
843.917
843.917
843.917
843.917
843.917
843.917
843.917
843.917
843.917
843.917
843.917
843.917
843.917
843.917
843.917
843.917
843.917
843.917
843.917
843.917
843.917
843.917
843.917
843.917
843.917
843.917
843.917
843.917
843.917
843.917
843.917
843.917
843.917
843.917
843.917
843.917
843.917
843.917
843.917
843.917
843.917
843.917
843.917
843.917
843.917
843.917
843.917
843.917
843.917
843.917
843.917
843.917
843.917
843.917
843.917
843.917
843.917
843.917
843.917
843.917
843.917
843.917
843.917
843.917
843.917
843.917
843.917
843.917
843.917
843.917
843.917
843.917
843.917
843.917
843.917
843.917
843.917
843.917
843.917
843.917
843.917
843.917
843.917
843.917
843.917
843.917
843.917
843.917
843.917
843.917
843.917
843.917
843.917
843.917
843.917
843.917
843.917
843.917
843.917
843.917
843.917
843.917
843.917
843.917
843.917
843.917
843.917
843.917
843.917
843.917
843.917
843.917
843.917
843.917
843.917
843.917
843.917
843.917
843.917
843.917
843.917
843.917
843.917
843.917
843.917
843.917
843.917
843.917
843.917
843.917
843.917
843.917
843.917
843.917
843.917
843.917
843.917
843.917
843.917
843.917
843.917
843.917
843.917
843.917
843.917
843.917
843.917
843.917
843.917
843.917
843.917
843.917
843.917
843.917
843.917
843.917
843.917
843.917
843.917
843.917
843.917
843.917
843.917
843.917
843.917
843.917
843.917
843.917
843.917
843.917
843.917
843.917
843.917
843.917
843.917
843.917
843.917
843.917
843.917
843.917
843.917
843.917
843.917
843.917
843.917
843.917
843.917
843.917
843.917
843.917
843.917
843.917
843.917
843.917
843.917
843.917
843.917
843.917
843.917
843.917
843.917
843.917
843.917
843.917
843.917
843.917
843.917
843.917
843.917
843.917
843.917
843.917
843.917
843.917
843.917
843.917
843.917
843.917
843.917
843.917
843.917
843.917
843.917
843.917
843.917
843.917
843.917
843.917
843.917
843.917
843.917
843.917
843.917
843.917
843.917
843.917
843.917
843.917
843.917
843.917
843.917
843.917
843.917
843.917
843.917
843.917
843.917
843.917
843.917
843.917
843.917
843.917
843.917
843.917
843.917
843.917
843.917
843.917
843.917
843.917
843.917
843.917
843.917
843.917
843.917
843.917
843.917
843.917
843.917
843.917
843.917
843.917
843.917
843.917
843.917
843.917
843.917
843.917
843.917
843.917
843.917
843.917
843.917
843.917
843.917
843.917
843.917
843.917
843.917
843.917
843.917
843.917
843.917
843.917
843.917
843.917
843.917
843.917
843.917
843.917
843.917
843.917
843.917
843.917
843.917
843.917
843.917
843.917
843.917
843.917
843.917
843.917
843.917
843.917
843.917
843.917
843.917
843.917
843.917
843.917
843.917
843.917
843.917
843.917
843.917
843.917
843.917
843.917
843.917
843.917
843.917
843.917
843.917
843.917
843.917
843.917
843.917
843.917
843.917
843.917
843.917
843.917
843.917
843.917
843.917
843.917
843.917
843.917
843.917
843.917
843.917
843.917
843.917
843.917
843.917
843.917
843.917
843.917
843.917
843.917
843.917
843.917
843.917
843.917
843.917
843.917
843.917
843.917
843.917
843.917
843.917
843.917
843.917
843.917
843.917
843.917
843.917
843.917
843.917
843.917
843.917
843.917
843.917
843.917
843.917
843.917
843.917
843.917
843.917
843.917
843.917
843.917
843.917
843.917
843.917
843.917
843.917
843.917
843.917
843.917
843.917
843.917
843.917
843.917
843.917
843.917
843.917
843.917
843.917
843.917
843.917
843.917
843.917
843.917
843.917
843.917
843.917
843.917
843.917
843.917
843.917
843.917
843.917
843.917
843.917
843.917
843.917
843.917
843.917
843.917
843.917
843.917
843.917
843.917
843.917
843.917
843.917
843.917
843.917
843.917
843.917
843.917
843.917
843.917
843.917
843.917
843.917
843.917
843.917
843.917
843.917
843.917
843.917
843.917
843.917
843.917
843.917
843.917
843.917
843.917
843.917
843.917
843.917
843.917
843.917
843.917
843.917
843.917
843.917
843.917
843.917
843.917
843.917
843.917
843.917
843.917
843.917
843.917
843.917
843.917
843.917
843.917
843.917
843.917
843.917
843.917
843.917
843.917
843.917
843.917
843.917
843.917
843.917
843.917
843.917
843.917
843.917
843.917
843.917
843.917
843.917
843.917
843.917
843.917
843.917
843.917
843.917
843.917
843.917
843.917
423.923
423.923
423.923
423.923
423.923
423.923
423.923
423.923
423.923
423.923
423.923
423.923
423.923
423.923
423.923
423.923
423.923
423.923
423.923
423.923
423.923
423.923
423.923
423.923
423.923
423.923
423.923
423.923
423.923
423.923
423.923
423.923
423.923
423.923
423.923
281.464
267.868
269.785
271.147
271.062
270.621
270.329
270.146
270.204
270.155
270.125
270.391
270.693
270.753
270.622
270.462
270.362
270.327
270.327
270.339
270.35
270.362
270.367
270.387
270.397
270.422
270.45
270.478
270.515
270.565
270.603
270.64
270.673
270.733
270.767
281.318
267.801
269.493
270.716
270.663
270.345
270.149
270.048
270.084
270.075
270.101
270.298
270.503
270.55
270.465
270.349
270.265
270.225
270.218
270.232
270.253
270.281
270.301
270.334
270.353
270.388
270.414
270.467
270.466
270.584
270.538
270.673
270.598
270.8
270.617
280.978
267.788
269.725
270.963
270.685
270.057
269.635
269.434
269.475
269.48
269.521
269.729
269.924
269.967
269.911
269.854
269.839
269.856
269.881
269.903
269.919
269.941
269.96
270.001
270.034
270.087
270.142
270.209
270.259
270.374
270.395
270.532
270.515
270.717
270.621
280.436
267.371
269.193
270.294
270.041
269.54
269.259
269.12
269.25
269.242
269.278
269.601
269.915
269.974
269.855
269.718
269.645
269.634
269.658
269.694
269.731
269.772
269.805
269.855
269.893
269.947
270.007
270.061
270.13
270.213
270.267
270.358
270.385
270.508
270.523
280.025
267.073
268.652
269.66
269.5
269.16
268.992
268.959
269.063
269.132
269.227
269.435
269.625
269.68
269.629
269.549
269.496
269.485
269.511
269.56
269.617
269.681
269.735
269.802
269.855
269.92
269.994
270.051
270.138
270.218
270.289
270.391
270.408
270.612
270.496
279.234
266.616
268.311
269.198
268.805
268.236
267.937
267.822
267.987
268.013
268.097
268.429
268.721
268.78
268.69
268.595
268.559
268.578
268.63
268.692
268.755
268.821
268.88
268.957
269.022
269.109
269.193
269.295
269.366
269.523
269.56
269.729
269.74
269.964
269.856
278.384
265.919
267.46
268.265
267.904
267.428
267.241
267.252
267.49
267.596
267.73
268.049
268.315
268.373
268.301
268.225
268.199
268.222
268.273
268.338
268.405
268.478
268.545
268.63
268.701
268.792
268.876
268.985
269.046
269.22
269.236
269.431
269.424
269.695
269.535
277.355
265.216
266.685
267.258
266.629
265.932
265.628
265.602
265.857
265.965
266.12
266.463
266.736
266.804
266.757
266.716
266.725
266.776
266.846
266.922
266.996
267.074
267.147
267.242
267.325
267.432
267.54
267.654
267.763
267.914
268.004
268.161
268.207
268.459
268.337
276.084
264.099
265.405
265.905
265.36
264.839
264.736
264.877
265.26
265.423
265.611
265.995
266.284
266.338
266.268
266.211
266.213
266.265
266.34
266.423
266.507
266.596
266.679
266.781
266.869
266.979
267.087
267.2
267.309
267.455
267.551
267.701
267.759
268.032
267.876
274.873
263.175
264.258
264.429
263.566
262.831
262.641
262.791
263.17
263.363
263.574
263.914
264.165
264.245
264.245
264.258
264.309
264.382
264.46
264.539
264.617
264.705
264.793
264.906
265.007
265.134
265.26
265.393
265.514
265.699
265.781
265.986
266.018
266.3
266.175
273.182
261.616
262.5
262.582
261.853
261.392
261.506
261.868
262.418
262.63
262.866
263.29
263.582
263.63
263.573
263.545
263.579
263.653
263.742
263.835
263.928
264.028
264.126
264.244
264.347
264.474
264.597
264.727
264.847
265.021
265.112
265.296
265.357
265.642
265.507
271.592
260.296
260.77
260.417
259.346
258.721
258.81
259.23
259.759
260.021
260.267
260.6
260.834
260.926
260.969
261.033
261.118
261.203
261.28
261.355
261.436
261.533
261.636
261.765
261.882
262.027
262.168
262.314
262.454
262.649
262.748
262.962
263.004
263.308
263.165
269.303
258.097
258.21
257.758
256.986
256.867
257.429
258.121
258.83
259.074
259.336
259.766
260.042
260.09
260.056
260.056
260.112
260.199
260.297
260.4
260.507
260.622
260.736
260.869
260.987
261.13
261.267
261.408
261.545
261.731
261.834
262.029
262.1
262.393
262.279
267.074
256.088
255.556
254.592
253.558
253.426
254.064
254.84
255.525
255.794
256.045
256.387
256.617
256.714
256.781
256.871
256.968
257.053
257.127
257.207
257.301
257.416
257.539
257.686
257.818
257.98
258.135
258.292
258.451
258.655
258.766
258.991
259.042
259.362
259.227
264.04
253.014
251.782
250.803
250.43
251.168
252.46
253.533
254.333
254.558
254.808
255.22
255.489
255.544
255.518
255.518
255.573
255.67
255.791
255.921
256.054
256.191
256.324
256.474
256.604
256.763
256.913
257.066
257.22
257.415
257.53
257.734
257.816
258.116
258.027
260.644
249.752
247.577
246.129
245.782
246.759
248.243
249.382
250.127
250.303
250.537
250.895
251.125
251.221
251.29
251.369
251.449
251.527
251.616
251.724
251.853
251.996
252.144
252.308
252.456
252.634
252.8
252.969
253.15
253.354
253.49
253.707
253.788
254.115
254.01
256.617
245.293
241.907
240.871
241.886
244.165
246.348
247.682
248.406
248.543
248.73
249.109
249.39
249.444
249.364
249.303
249.348
249.495
249.691
249.888
250.066
250.229
250.381
250.544
250.69
250.866
251.03
251.194
251.376
251.566
251.718
251.898
252.029
252.324
252.199
250.539
239.603
235.19
233.824
234.871
237.127
239.18
240.364
240.979
241.014
241.206
241.548
241.825
242.018
242.133
242.17
242.171
242.206
242.308
242.464
242.645
242.831
243.013
243.203
243.38
243.587
243.777
243.976
244.189
244.413
244.563
244.82
244.909
245.343
245.132
242.079
231.771
224.213
220.859
221.401
223.903
225.975
226.959
227.311
227.353
227.335
227.561
228.152
228.875
229.29
229.222
228.899
228.638
228.584
228.7
228.896
229.11
229.323
229.537
229.743
229.979
230.191
230.423
230.672
230.895
231.086
231.32
231.531
231.921
232.04
222.246
216.809
209.336
210.713
215.919
220.169
222.234
222.871
223.038
223.025
223.135
223.319
223.514
223.633
223.643
223.657
223.773
223.982
224.222
224.452
224.665
224.868
225.071
225.28
225.485
225.714
225.922
226.153
226.394
226.591
226.771
226.966
227.266
227.527
228.252
9.94839
10.2551
10.6743
10.5608
10.443
10.4565
10.4917
10.5544
10.4713
10.7067
10.4277
10.2379
10.3389
10.4985
10.5889
10.6155
10.6153
10.6104
10.6064
10.6036
10.6009
10.5984
10.5946
10.5957
10.5837
10.5993
10.5748
10.583
10.5908
10.5652
10.55
10.5127
10.5758
10.505
10.6537
135.184
128.939
128.944
129.67
129.852
129.688
129.477
129.331
129.292
129.257
129.24
129.327
129.461
129.525
129.497
129.427
129.367
129.336
129.329
129.333
129.341
129.348
129.356
129.363
129.374
129.387
129.402
129.421
129.445
129.472
129.498
129.527
129.551
129.595
129.629
135.016
128.714
128.628
129.306
129.523
129.44
129.301
129.199
129.164
129.144
129.149
129.22
129.314
129.358
129.337
129.283
129.232
129.203
129.196
129.205
129.222
129.24
129.261
129.279
129.3
129.317
129.346
129.36
129.405
129.416
129.474
129.476
129.531
129.579
129.575
134.731
128.498
128.523
129.218
129.3
129.011
128.706
128.523
128.477
128.465
128.479
128.559
128.656
128.704
128.701
128.681
128.671
128.673
128.682
128.69
128.696
128.702
128.712
128.725
128.745
128.767
128.798
128.824
128.869
128.899
128.952
128.976
129.027
129.083
129.093
134.307
128.076
128.054
128.701
128.809
128.6
128.381
128.255
128.253
128.249
128.265
128.39
128.548
128.623
128.602
128.54
128.49
128.468
128.472
128.488
128.509
128.53
128.551
128.573
128.596
128.622
128.652
128.682
128.72
128.756
128.795
128.831
128.86
128.923
128.919
133.987
127.704
127.574
128.192
128.375
128.28
128.15
128.077
128.083
128.107
128.152
128.248
128.35
128.4
128.387
128.342
128.302
128.286
128.297
128.325
128.362
128.4
128.437
128.473
128.507
128.544
128.581
128.62
128.664
128.709
128.757
128.801
128.843
128.928
128.925
133.442
127.281
127.242
127.81
127.837
127.569
127.319
127.186
127.197
127.207
127.244
127.384
127.542
127.618
127.605
127.559
127.524
127.517
127.533
127.56
127.592
127.623
127.654
127.686
127.722
127.758
127.802
127.84
127.897
127.938
127.997
128.036
128.075
128.155
128.126
132.864
126.677
126.574
127.123
127.177
126.957
126.764
126.697
126.759
126.818
126.891
127.039
127.189
127.256
127.243
127.2
127.171
127.168
127.188
127.22
127.257
127.294
127.332
127.369
127.409
127.448
127.497
127.534
127.595
127.634
127.7
127.74
127.789
127.886
127.871
132.203
126.16
126.096
126.532
126.392
125.991
125.687
125.575
125.635
125.694
125.772
125.929
126.088
126.166
126.171
126.151
126.141
126.15
126.176
126.207
126.24
126.272
126.306
126.341
126.381
126.424
126.472
126.518
126.576
126.629
126.685
126.736
126.769
126.859
126.817
131.402
125.344
125.202
125.608
125.505
125.183
124.979
124.963
125.102
125.207
125.316
125.503
125.677
125.749
125.735
125.696
125.677
125.687
125.717
125.757
125.799
125.839
125.88
125.922
125.966
126.012
126.061
126.109
126.166
126.222
126.277
126.334
126.373
126.483
126.462
130.654
124.788
124.642
124.874
124.535
124.023
123.728
123.695
123.836
123.954
124.069
124.234
124.384
124.464
124.488
124.497
124.511
124.535
124.564
124.593
124.624
124.655
124.692
124.732
124.777
124.826
124.88
124.931
124.996
125.052
125.114
125.168
125.201
125.305
125.245
129.648
123.783
123.53
123.686
123.365
122.959
122.815
122.917
123.163
123.319
123.46
123.672
123.856
123.928
123.918
123.891
123.887
123.908
123.945
123.986
124.027
124.068
124.112
124.157
124.205
124.256
124.31
124.361
124.425
124.482
124.541
124.603
124.637
124.763
124.726
128.703
123.095
122.769
122.671
122.071
121.491
121.298
121.421
121.678
121.855
121.998
122.166
122.307
122.387
122.431
122.469
122.506
122.539
122.565
122.588
122.614
122.645
122.684
122.73
122.78
122.834
122.893
122.949
123.017
123.079
123.142
123.201
123.235
123.342
123.277
127.401
121.826
121.287
121.021
120.455
120.087
120.156
120.473
120.85
121.053
121.212
121.433
121.615
121.687
121.685
121.671
121.677
121.704
121.741
121.783
121.826
121.871
121.92
121.971
122.023
122.079
122.137
122.192
122.259
122.321
122.38
122.447
122.477
122.613
122.567
126.126
120.888
120.157
119.539
118.699
118.241
118.346
118.724
119.116
119.329
119.477
119.642
119.775
119.855
119.912
119.967
120.013
120.045
120.066
120.087
120.115
120.152
120.2
120.252
120.309
120.369
120.432
120.492
120.565
120.63
120.696
120.758
120.794
120.908
120.843
124.45
119.301
118.11
117.201
116.492
116.446
116.958
117.578
118.079
118.298
118.447
118.657
118.833
118.91
118.912
118.898
118.9
118.927
118.97
119.023
119.078
119.134
119.19
119.248
119.305
119.366
119.428
119.488
119.559
119.625
119.686
119.755
119.786
119.927
119.877
122.574
117.861
116.279
114.924
114.056
114.103
114.76
115.453
115.942
116.134
116.263
116.425
116.556
116.638
116.697
116.745
116.779
116.801
116.824
116.856
116.9
116.953
117.012
117.073
117.136
117.202
117.269
117.335
117.411
117.482
117.548
117.614
117.656
117.775
117.721
120.375
115.782
113.265
111.546
111.085
111.832
113.012
113.932
114.462
114.634
114.731
114.915
115.11
115.201
115.177
115.113
115.088
115.127
115.208
115.298
115.381
115.452
115.518
115.582
115.646
115.713
115.781
115.849
115.923
116
116.056
116.136
116.168
116.316
116.249
116.949
113.075
109.787
107.456
106.878
107.625
108.784
109.648
110.121
110.251
110.329
110.449
110.602
110.769
110.895
110.932
110.901
110.864
110.866
110.912
110.984
111.063
111.142
111.219
111.295
111.375
111.455
111.536
111.63
111.707
111.79
111.859
111.922
112.082
112.022
111.914
109.488
104.416
100.387
99.1034
100.138
101.603
102.482
102.845
102.964
102.854
102.749
102.985
103.535
104.011
104.115
103.919
103.672
103.541
103.541
103.613
103.706
103.801
103.89
103.979
104.075
104.165
104.261
104.371
104.466
104.542
104.609
104.683
104.846
104.929
100.664
103.062
95.7463
92.4464
94.1332
96.8457
98.5051
99.1374
99.3468
99.3757
99.4566
99.5576
99.6516
99.7533
99.7879
99.7621
99.7523
99.8019
99.895
100
100.1
100.192
100.28
100.367
100.454
100.549
100.637
100.735
100.841
100.933
100.99
101.032
101.135
101.208
101.638
12.5564
12.9396
13.4638
13.4646
13.3433
13.3323
13.3647
13.4477
13.3493
13.6026
13.3744
13.1404
13.1912
13.3537
13.472
13.5208
13.53
13.5272
13.5237
13.5216
13.5201
13.5193
13.5162
13.5208
13.5075
13.5269
13.5069
13.5088
13.5238
13.507
13.5005
13.4466
13.5132
13.4298
13.5749
79.7667
77.2087
76.7538
77.0143
77.2197
77.2193
77.1092
77.0099
76.9463
76.9113
76.9009
76.9197
76.9615
76.9993
77.01
76.9944
76.9684
76.9469
76.9362
76.9337
76.9366
76.9382
76.9429
76.9438
76.9481
76.9532
76.9582
76.9647
76.9755
76.9861
76.9951
77.0066
77.0158
77.031
77.0533
79.58
77.0076
76.5122
76.7461
76.9683
77.0151
76.9547
76.8815
76.8287
76.8001
76.7955
76.8144
76.8474
76.8737
76.8778
76.8614
76.8369
76.8167
76.8074
76.8078
76.8166
76.8253
76.839
76.8459
76.8605
76.8641
76.8873
76.8757
76.9242
76.8954
76.9574
76.9246
76.9773
76.9737
77.0089
79.3375
76.7991
76.3666
76.6274
76.7832
76.6997
76.5184
76.3786
76.3072
76.282
76.2839
76.3061
76.3391
76.3672
76.382
76.3866
76.3879
76.3898
76.3925
76.3936
76.3948
76.3928
76.3964
76.3971
76.4059
76.4121
76.4283
76.4294
76.4639
76.4558
76.502
76.4857
76.53
76.5343
76.5622
79.0256
76.4822
76.0259
76.2623
76.4278
76.3898
76.2594
76.1629
76.1145
76.0994
76.1091
76.1466
76.2027
76.2507
76.2694
76.2605
76.2399
76.2233
76.2179
76.2214
76.2313
76.2398
76.252
76.2599
76.2712
76.2834
76.2947
76.3068
76.3268
76.3374
76.3599
76.3684
76.3802
76.4122
76.401
78.7392
76.1724
75.6579
75.8759
76.0894
76.1272
76.0632
75.9973
75.9644
75.9612
75.981
76.0197
76.0651
76.0967
76.1017
76.0847
76.0614
76.0465
76.0468
76.0596
76.0811
76.102
76.1253
76.1433
76.1613
76.1821
76.1959
76.2177
76.238
76.2575
76.2858
76.2959
76.3281
76.3546
76.3849
78.3417
75.8461
75.4075
75.6176
75.7354
75.6506
75.4877
75.3767
75.3283
75.3207
75.3405
75.3867
75.4473
75.4972
75.5194
75.516
75.5021
75.4924
75.4937
75.5034
75.519
75.5325
75.5499
75.5615
75.5799
75.593
75.6175
75.6229
75.6658
75.6632
75.7092
75.7079
75.736
75.7579
75.7643
77.9104
75.3815
74.9052
75.1116
75.2494
75.1868
75.0502
74.9694
74.9543
74.9775
75.022
75.0829
75.1469
75.1917
75.2061
75.198
75.1841
75.1779
75.1839
75.1983
75.2184
75.2363
75.2583
75.2737
75.2968
75.311
75.3416
75.3431
75.3961
75.3854
75.4444
75.4379
75.4811
75.5061
75.5413
77.4183
74.9958
74.5901
74.7518
74.7589
74.5571
74.3259
74.2042
74.1794
74.2035
74.2492
74.3102
74.3763
74.4304
74.4613
74.471
74.4709
74.4719
74.4791
74.4909
74.506
74.5185
74.5353
74.5475
74.5661
74.5834
74.6049
74.6207
74.6539
74.6681
74.7017
74.711
74.737
74.758
74.7628
76.8518
74.3952
73.9418
74.088
74.1116
73.9426
73.7567
73.6889
73.7118
73.7717
73.8441
73.9255
74.0031
74.0554
74.0739
74.0691
74.0601
74.06
74.0718
74.0905
74.1127
74.1318
74.1541
74.1711
74.1933
74.2136
74.2367
74.2552
74.2878
74.3068
74.3379
74.3557
74.3868
74.4164
74.4533
76.2891
73.9928
73.6137
73.6806
73.5377
73.2174
72.9508
72.8589
72.8851
72.9523
73.0238
73.0934
73.158
73.212
73.2514
73.2765
73.2919
73.3031
73.3136
73.3238
73.3358
73.3462
73.3627
73.3756
73.3968
73.4155
73.4411
73.4554
73.498
73.5044
73.55
73.5545
73.581
73.6128
73.6087
75.5953
73.2832
72.8429
72.8549
72.6926
72.4011
72.2017
72.1935
72.2833
72.3898
72.488
72.5821
72.6643
72.7193
72.7428
72.7466
72.7472
72.7545
72.7697
72.7882
72.8087
72.8264
72.8485
72.8658
72.8901
72.9113
72.9377
72.955
72.9945
73.0088
73.0452
73.0648
73.0875
73.1338
73.1562
74.8929
72.8067
72.4221
72.2944
71.9248
71.4841
71.2346
71.2287
71.3353
71.4528
71.5465
71.6169
71.6734
71.7261
71.7769
71.8201
71.851
71.8693
71.8788
71.8842
71.8915
71.8997
71.9166
71.931
71.9548
71.976
72.0026
72.0202
72.0636
72.072
72.1187
72.1222
72.1551
72.1824
72.185
74.0006
71.947
71.4507
71.186
70.7628
70.389
70.2734
70.4013
70.5897
70.7452
70.8603
70.9556
71.0341
71.089
71.1193
71.1325
71.1408
71.1517
71.1668
71.1839
71.2034
71.2218
71.2458
71.2652
71.292
71.3154
71.3428
71.3629
71.4034
71.4195
71.4552
71.4784
71.4959
71.5529
71.5637
73.0732
71.3286
70.8294
70.3415
69.6965
69.2242
69.1183
69.2805
69.4845
69.6432
69.7457
69.8056
69.8516
69.9052
69.9662
70.021
70.0579
70.0753
70.0808
70.0829
70.0898
70.1003
70.1209
70.1386
70.166
70.1897
70.2174
70.2383
70.2828
70.292
70.3398
70.343
70.3806
70.4091
70.4151
71.9124
70.2994
69.5638
68.8008
68.089
67.7805
67.9155
68.2639
68.5596
68.7457
68.8563
68.9344
69.0028
69.0615
69.0982
69.113
69.1185
69.127
69.1431
69.1645
69.1898
69.2139
69.2428
69.2653
69.2956
69.3212
69.3495
69.373
69.4149
69.4317
69.4676
69.4919
69.5093
69.5722
69.5738
70.5822
69.3772
68.5322
67.4614
66.5731
66.2804
66.4971
66.8938
67.1892
67.3654
67.4569
67.4992
67.5371
67.5942
67.6602
67.713
67.7418
67.752
67.756
67.7633
67.7785
67.7979
67.8251
67.8476
67.8786
67.9046
67.9329
67.9595
68.0008
68.0164
68.0594
68.0671
68.1102
68.1358
68.1521
69.0188
68.099
66.7339
65.1874
64.2948
64.3355
64.9108
65.5067
65.8651
66.0357
66.1074
66.1634
66.2456
66.3219
66.3489
66.3327
66.3127
66.3178
66.3488
66.3911
66.4334
66.4684
66.5032
66.5296
66.5632
66.5922
66.6211
66.6547
66.689
66.7227
66.7426
66.7827
66.8
66.8537
66.8726
66.7327
66.4018
64.6344
62.5571
61.4434
61.4556
62.0291
62.6099
62.93
63.0924
63.1463
63.1364
63.1684
63.2806
63.4071
63.4717
63.4642
63.4274
63.4044
63.4097
63.4368
63.4713
63.5096
63.5413
63.5794
63.6114
63.6468
63.6809
63.7316
63.7449
63.8067
63.8031
63.8688
63.8985
63.9329
63.3799
64.2992
61.7528
58.6011
56.962
57.13
57.9768
58.6149
58.9126
59.0624
58.991
58.7959
58.8069
59.1216
59.4985
59.6701
59.6076
59.4536
59.3378
59.2991
59.3147
59.3501
59.3913
59.4243
59.4628
59.497
59.5315
59.5698
59.6154
59.6466
59.6881
59.6888
59.7298
59.7506
59.8325
57.5397
62.026
57.2013
53.2588
53.006
54.4679
55.653
56.1823
56.3711
56.4154
56.4657
56.5283
56.5851
56.6599
56.7008
56.6785
56.6356
56.6203
56.6419
56.684
56.7301
56.7717
56.8122
56.8463
56.8858
56.9232
56.9585
57.0015
57.0452
57.0911
57.114
57.1141
57.1498
57.125
57.364
14.101
14.5624
15.205
15.3532
15.2691
15.2313
15.2446
15.3364
15.2342
15.4715
15.324
15.0896
15.0821
15.2154
15.3416
15.4091
15.4312
15.4339
15.4323
15.4315
15.4314
15.4327
15.4307
15.4387
15.4262
15.4463
15.4349
15.4313
15.4489
15.4407
15.4495
15.3891
15.4517
15.3664
15.4885
52.8705
51.8156
51.3948
51.4202
51.5609
51.6205
51.5779
51.5203
51.4603
51.4247
51.4198
51.4176
51.4141
51.4216
51.4373
51.4477
51.4466
51.4383
51.4306
51.4259
51.4263
51.4254
51.4285
51.4274
51.4287
51.4305
51.4318
51.4321
51.4366
51.4401
51.4421
51.4435
51.4477
51.4451
51.4643
52.6998
51.6469
51.2097
51.2195
51.3666
51.4523
51.444
51.402
51.3532
51.3222
51.3154
51.3153
51.3164
51.3227
51.3309
51.3335
51.3279
51.3184
51.3113
51.3086
51.3127
51.3157
51.3255
51.3267
51.3383
51.3329
51.357
51.3301
51.3783
51.3372
51.3902
51.3509
51.3934
51.3674
51.4124
52.5006
51.465
51.0657
51.1047
51.2245
51.2304
51.1348
51.0391
50.969
50.9376
50.9362
50.9373
50.9358
50.9413
50.9552
50.9708
50.9823
50.9887
50.9917
50.9913
50.9911
50.9867
50.9879
50.984
50.9878
50.9861
50.9982
50.9854
51.0157
50.9919
51.031
51.0017
51.0357
51.0195
51.0523
52.2646
51.2278
50.8181
50.8426
50.9635
50.9938
50.9272
50.8638
50.8063
50.7826
50.7915
50.7978
50.7995
50.8132
50.8363
50.8533
50.8567
50.8515
50.8465
50.8449
50.8491
50.8517
50.8591
50.8616
50.8664
50.8723
50.877
50.8786
50.8917
50.89
50.904
50.9026
50.9032
50.9196
50.9117
52.0232
50.9757
50.5315
50.5426
50.6933
50.7747
50.7591
50.7143
50.6732
50.6565
50.6639
50.6773
50.6899
50.7024
50.7104
50.7088
50.6998
50.6905
50.6881
50.6932
50.7058
50.7174
50.7322
50.7427
50.7507
50.7647
50.768
50.7791
50.79
50.7943
50.815
50.8078
50.8333
50.8298
50.869
51.7203
50.7176
50.3347
50.3591
50.4556
50.4524
50.3572
50.2774
50.2142
50.1937
50.2077
50.2178
50.2228
50.2396
50.2655
50.2847
50.2902
50.2875
50.2859
50.2879
50.2955
50.3007
50.3114
50.3143
50.325
50.3265
50.3448
50.333
50.3684
50.3504
50.3837
50.37
50.3903
50.384
50.4073
51.3891
50.3575
49.9462
49.9705
50.0827
50.0906
50.0063
49.9378
49.8945
49.8939
49.9236
49.9476
49.9619
49.9785
49.9967
50.0075
50.0091
50.0075
50.0095
50.0157
50.0272
50.0357
50.0499
50.055
50.0704
50.0708
50.0971
50.0785
50.1265
50.0985
50.1452
50.1247
50.1602
50.1514
50.1984
51.006
50.0488
49.7114
49.7301
49.7592
49.6632
49.5008
49.3963
49.3404
49.3406
49.3713
49.3912
49.4027
49.4254
49.4576
49.4839
49.4967
49.5002
49.5023
49.5056
49.5124
49.5163
49.5254
49.5282
49.5369
49.5431
49.5542
49.5548
49.5768
49.5744
49.598
49.5877
49.612
49.6016
49.6257
50.5837
49.5925
49.219
49.2286
49.2662
49.1828
49.0383
48.9621
48.9339
48.9594
49.0119
49.0471
49.0669
49.0897
49.1143
49.1298
49.1347
49.136
49.1409
49.1495
49.1619
49.1709
49.1842
49.1908
49.2022
49.2114
49.2233
49.2278
49.2478
49.2519
49.2724
49.2682
49.3001
49.2888
49.3422
50.1435
49.2662
48.9864
48.9744
48.903
48.7033
48.4905
48.3881
48.3616
48.3933
48.4424
48.4688
48.4821
48.5068
48.5438
48.5777
48.5989
48.609
48.6138
48.6163
48.6207
48.6222
48.6303
48.6322
48.6426
48.6477
48.6632
48.6585
48.6915
48.6787
48.712
48.6994
48.7209
48.7187
48.743
49.6314
48.7351
48.4174
48.3686
48.2694
48.0649
47.8744
47.8214
47.8325
47.8953
47.9701
48.0113
48.0316
48.0574
48.0883
48.1108
48.122
48.128
48.1348
48.1428
48.1533
48.1603
48.1728
48.1783
48.1914
48.1994
48.215
48.2155
48.2434
48.242
48.2645
48.266
48.2865
48.2892
48.3362
49.0804
48.3491
48.1282
48.0184
47.7764
47.4516
47.214
47.1528
47.1803
47.2523
47.319
47.3462
47.3558
47.3813
47.425
47.4689
47.4993
47.5141
47.5186
47.5178
47.5181
47.5171
47.5244
47.5264
47.538
47.5447
47.5595
47.5575
47.5904
47.5779
47.6136
47.5962
47.6275
47.6175
47.6514
48.4159
47.7116
47.4388
47.2335
46.9165
46.5902
46.4113
46.4379
46.5189
46.6256
46.716
46.7555
46.7723
46.8002
46.8372
46.8661
46.8818
46.8896
46.8956
46.9017
46.9103
46.9167
46.9295
46.9359
46.9503
46.9598
46.9751
46.9778
47.0058
47.0058
47.026
47.0324
47.046
47.0599
47.0972
47.6895
47.2186
47.0206
46.6956
46.2153
45.7973
45.6141
45.6595
45.7623
45.8754
45.953
45.9722
45.9746
46.0013
46.0519
46.1029
46.1368
46.1509
46.1522
46.1484
46.1472
46.1468
46.1556
46.1594
46.173
46.1813
46.1956
46.1965
46.2289
46.217
46.2524
46.2349
46.2693
46.2599
46.2965
46.8077
46.4619
46.1654
45.6335
45.0259
44.6443
44.5902
44.7664
44.9358
45.077
45.1665
45.1921
45.2042
45.2381
45.281
45.3103
45.322
45.3254
45.3292
45.336
45.3469
45.3566
45.3723
45.3806
45.397
45.4081
45.4227
45.4285
45.4562
45.4571
45.4758
45.4844
45.4959
45.5159
45.5459
45.7792
45.7597
45.4852
44.7661
44.007
43.6061
43.6052
43.8257
44.0109
44.1527
44.2269
44.2282
44.22
44.2487
44.3038
44.3542
44.3826
44.391
44.3901
44.3887
44.3922
44.3977
44.4107
44.4176
44.4333
44.4432
44.4562
44.4626
44.4902
44.4838
44.5147
44.4987
44.5401
44.5245
44.5694
44.5639
44.8439
44.3179
43.1971
42.2826
42.0049
42.2162
42.5826
42.8274
42.9711
43.0322
43.0389
43.0593
43.1101
43.1535
43.1644
43.1545
43.1475
43.1548
43.1726
43.1945
43.2126
43.2325
43.2438
43.2617
43.2757
43.2875
43.3045
43.3206
43.3383
43.3424
43.3593
43.3799
43.3797
43.4346
43.0082
43.6899
42.9854
41.483
40.3553
40.0478
40.2772
40.6574
40.8785
41.0222
41.0763
41.0352
41.0049
41.0574
41.1561
41.2279
41.2428
41.2209
41.196
41.1865
41.1933
41.2071
41.2258
41.2382
41.2569
41.2692
41.284
41.2957
41.3261
41.3167
41.359
41.3364
41.3864
41.3745
41.4223
40.7901
42.4235
41.4815
39.3516
37.8742
37.6366
38.0793
38.5235
38.7572
38.8948
38.8709
38.6926
38.5991
38.7384
39.0023
39.1852
39.2057
39.1253
39.0377
38.9895
38.9799
38.9876
39.0036
39.0114
39.026
39.0341
39.0429
39.054
39.0712
39.0725
39.097
39.0761
39.1006
39.069
39.125
38.5372
42.7449
39.5429
36.05
35.007
35.6875
36.5027
36.9198
37.0779
37.1213
37.1469
37.1905
37.2423
37.3046
37.3409
37.3206
37.2694
37.2293
37.218
37.2286
37.2483
37.2664
37.2858
37.2972
37.315
37.3291
37.3407
37.36
37.3751
37.3982
37.409
37.3995
37.4172
37.3613
37.502
15.25
15.7692
16.5435
16.8429
16.8246
16.7714
16.7598
16.8524
16.7539
16.9593
16.8889
16.6802
16.6269
16.72
16.8395
16.9189
16.954
16.964
16.9656
16.9664
16.9677
16.9712
16.9704
16.9814
16.971
16.9896
16.9879
16.9812
16.9987
16.9951
17.0199
16.9613
17.0186
16.9382
17.0351
37.6405
37.175
36.8814
36.8216
36.8974
36.9631
36.9559
36.9279
36.881
36.8481
36.846
36.8408
36.8211
36.8097
36.8183
36.8359
36.8477
36.8495
36.8464
36.8424
36.8418
36.8398
36.8419
36.8406
36.8406
36.8408
36.8416
36.8392
36.8411
36.8414
36.842
36.8377