/*--------------------------------*- C++ -*----------------------------------*\
  =========                 |
  \\      /  F ield         | OpenFOAM: The Open Source CFD Toolbox
   \\    /   O peration     | Website:  https://openfoam.org
    \\  /    A nd           | Version:  6
     \\/     M anipulation  |
\*---------------------------------------------------------------------------*/
FoamFile
{
    version     2.0;
    format      ascii;
    class       volScalarField;
    location    "1";
    object      p;
}
// * * * * * * * * * * * * * * * * * * * * * * * * * * * * * * * * * * * * * //

dimensions      [0 2 -2 0 0 0 0];

internalField   nonuniform List<scalar> 
380496
(
0.0135378
0.0138983
0.0136744
0.0136213
0.0135852
0.0135433
0.0135036
0.0134616
0.0134152
0.0133633
0.0133054
0.0132411
0.0131729
0.0131038
0.0130342
0.0129632
0.0128906
0.0128167
0.0127417
0.0126652
0.0125868
0.0125061
0.0124226
0.0123357
0.0122451
0.01215
0.0120498
0.011944
0.0118321
0.0117128
0.0115873
0.0114524
0.0113137
0.0111583
0.011012
0.0135033
0.0138574
0.0136505
0.0136072
0.0135775
0.0135394
0.0135012
0.0134592
0.0134114
0.013357
0.0132956
0.0132273
0.0131548
0.0130808
0.0130058
0.0129291
0.0128506
0.0127705
0.0126889
0.0126053
0.0125195
0.0124309
0.0123393
0.012244
0.0121452
0.0120414
0.0119332
0.011819
0.0116995
0.0115724
0.0114408
0.0112984
0.0111595
0.0109913
0.010876
0.0134628
0.0138114
0.0136188
0.0135843
0.0135613
0.0135285
0.0134938
0.0134535
0.0134057
0.0133496
0.0132851
0.0132125
0.013135
0.0130554
0.0129741
0.0128904
0.0128046
0.0127169
0.0126272
0.0125353
0.0124408
0.0123432
0.0122423
0.0121374
0.0120287
0.0119149
0.0117966
0.0116722
0.0115427
0.0114057
0.0112647
0.0111124
0.0109635
0.0107834
0.0106444
0.0134141
0.0137645
0.0135931
0.0135721
0.0135575
0.0135293
0.0134961
0.0134553
0.0134054
0.0133462
0.0132777
0.0132004
0.0131177
0.0130331
0.0129466
0.0128576
0.0127661
0.0126724
0.0125766
0.0124782
0.0123768
0.0122721
0.0121639
0.0120517
0.0119354
0.0118144
0.0116887
0.0115574
0.011421
0.0112776
0.01113
0.0109716
0.0108149
0.01063
0.0104708
0.0133644
0.0137087
0.0135591
0.0135502
0.0135438
0.0135216
0.0134925
0.0134539
0.0134043
0.0133432
0.0132712
0.0131897
0.0131024
0.0130124
0.0129199
0.0128246
0.0127267
0.0126263
0.0125236
0.012418
0.0123093
0.0121972
0.0120815
0.0119618
0.011838
0.0117096
0.0115766
0.0114383
0.0112954
0.0111459
0.0109944
0.010832
0.0106803
0.0104937
0.0103773
0.0133015
0.0136529
0.0135328
0.0135417
0.0135465
0.0135303
0.0135032
0.0134638
0.0134112
0.0133458
0.0132688
0.0131814
0.0130883
0.0129928
0.0128951
0.0127944
0.0126911
0.0125852
0.0124769
0.0123656
0.0122509
0.0121326
0.0120105
0.0118844
0.0117544
0.0116195
0.0114806
0.0113363
0.0111879
0.0110328
0.0108755
0.0107063
0.0105447
0.0103448
0.0101995
0.0132306
0.0135861
0.0134961
0.0135216
0.0135376
0.0135289
0.013506
0.0134682
0.0134148
0.0133468
0.0132659
0.0131742
0.0130765
0.0129761
0.012873
0.0127668
0.0126577
0.0125462
0.0124321
0.012315
0.0121945
0.0120704
0.0119426
0.0118107
0.0116752
0.0115349
0.0113909
0.0112418
0.0110892
0.0109306
0.0107717
0.0106018
0.0104467
0.0102524
0.0101405
0.0131494
0.0135219
0.0134728
0.013521
0.0135504
0.0135482
0.013527
0.0134872
0.0134293
0.0133553
0.0132678
0.0131695
0.0130659
0.01296
0.0128518
0.0127408
0.012627
0.0125108
0.012392
0.01227
0.0121446
0.0120153
0.0118823
0.0117453
0.0116046
0.0114595
0.0113106
0.0111572
0.0110003
0.0108373
0.0106737
0.0104982
0.0103332
0.0101273
0.00998379
0.0130526
0.013448
0.0134382
0.0135074
0.01355
0.0135554
0.0135378
0.0134982
0.0134379
0.0133601
0.0132684
0.0131658
0.0130579
0.0129478
0.0128353
0.0127196
0.0126012
0.0124804
0.0123571
0.0122308
0.0121012
0.0119678
0.0118308
0.0116899
0.0115454
0.0113968
0.0112446
0.0110882
0.0109287
0.0107639
0.0105999
0.010425
0.0102668
0.0100674
0.00995693
0.0129571
0.0133878
0.0134237
0.013517
0.0135729
0.0135833
0.0135658
0.0135226
0.0134563
0.0133715
0.0132727
0.013164
0.0130512
0.0129368
0.0128202
0.012701
0.0125793
0.0124554
0.0123289
0.0121993
0.0120661
0.0119293
0.0117887
0.0116443
0.0114964
0.0113445
0.0111894
0.01103
0.0108681
0.0107007
0.0105337
0.0103556
0.0101903
0.00998288
0.00984396
0.0128367
0.0133182
0.0133979
0.013514
0.0135825
0.0135985
0.0135827
0.0135378
0.0134674
0.0133781
0.0132751
0.0131625
0.0130461
0.0129285
0.0128087
0.012686
0.0125608
0.0124334
0.0123037
0.012171
0.012035
0.0118954
0.0117523
0.0116055
0.0114552
0.0113011
0.0111438
0.0109827
0.0108193
0.0106509
0.0104839
0.0103065
0.0101465
0.00994474
0.00983456
0.0127138
0.0132624
0.0133915
0.0135342
0.0136156
0.0136348
0.013617
0.0135661
0.0134878
0.0133904
0.0132802
0.013162
0.0130415
0.0129203
0.0127974
0.0126721
0.0125446
0.012415
0.0122829
0.0121479
0.0120094
0.0118673
0.0117216
0.0115723
0.0114195
0.0112632
0.0111039
0.010941
0.010776
0.010606
0.0104373
0.0102579
0.0100924
0.00988505
0.00974781
0.0125591
0.0132041
0.013379
0.0135462
0.0136378
0.0136588
0.0136395
0.0135842
0.0135
0.0133973
0.013283
0.0131614
0.013038
0.0129145
0.0127893
0.0126615
0.0125313
0.012399
0.0122645
0.0121272
0.0119868
0.0118429
0.0116956
0.0115447
0.0113904
0.0112327
0.0110721
0.010908
0.0107422
0.0105717
0.0104032
0.0102247
0.0100633
0.0098609
0.00974832
0.0123966
0.0131598
0.0133812
0.013577
0.0136799
0.0137012
0.0136772
0.0136135
0.0135197
0.0134086
0.0132877
0.0131614
0.0130348
0.0129087
0.0127811
0.0126514
0.0125196
0.0123859
0.01225
0.0121111
0.011969
0.0118234
0.0116742
0.0115215
0.0113656
0.0112064
0.0110445
0.0108793
0.0107126
0.0105413
0.0103719
0.0101924
0.010027
0.0098212
0.0096843
0.0122031
0.0131287
0.0133894
0.0136088
0.0137161
0.0137333
0.0137035
0.0136322
0.0135311
0.0134146
0.01329
0.0131609
0.0130323
0.0129046
0.0127758
0.0126445
0.0125109
0.0123751
0.0122373
0.0120969
0.0119536
0.0118068
0.0116567
0.011503
0.0113461
0.0111861
0.0110234
0.0108576
0.0106905
0.0105191
0.01035
0.0101715
0.0100091
0.0098074
0.00969022
0.0119862
0.0131046
0.0133995
0.0136493
0.0137643
0.0137781
0.0137407
0.0136591
0.0135476
0.0134234
0.0132935
0.0131609
0.0130299
0.0129005
0.0127701
0.0126375
0.012503
0.0123666
0.012228
0.0120867
0.0119422
0.0117942
0.0116428
0.0114879
0.0113299
0.011169
0.0110055
0.0108391
0.0106716
0.0104999
0.0103306
0.0101521
0.00998746
0.00978421
0.00964821
0.0117555
0.0131214
0.0134349
0.0137032
0.0138134
0.0138166
0.0137687
0.0136766
0.0135564
0.0134273
0.0132949
0.0131604
0.013028
0.0128978
0.0127669
0.0126337
0.0124979
0.01236
0.0122202
0.0120779
0.0119328
0.0117842
0.0116321
0.0114767
0.0113181
0.0111566
0.0109928
0.0108261
0.0106586
0.010487
0.0103181
0.0101407
0.0099781
0.00977844
0.00965586
0.01147
0.0131265
0.0134523
0.01375
0.0138626
0.0138587
0.0138004
0.0136971
0.0135676
0.0134332
0.0132974
0.0131602
0.0130262
0.0128948
0.0127629
0.012629
0.0124931
0.0123554
0.0122155
0.0120727
0.0119268
0.0117772
0.0116243
0.0114679
0.0113089
0.0111467
0.0109826
0.0108157
0.010648
0.0104765
0.0103079
0.010131
0.00996907
0.00976917
0.00965193
0.011217
0.0132077
0.0135145
0.0138218
0.0139194
0.0138995
0.0138268
0.0137106
0.0135718
0.0134343
0.0132985
0.0131608
0.0130255
0.0128928
0.0127604
0.0126264
0.0124904
0.0123523
0.0122121
0.012069
0.0119228
0.0117728
0.0116194
0.0114627
0.0113033
0.0111408
0.0109767
0.0108096
0.010642
0.0104707
0.0103025
0.0101269
0.00996481
0.00977311
0.00963354
0.0108764
0.0132432
0.0135418
0.0138595
0.0139481
0.013921
0.0138419
0.0137208
0.0135784
0.0134383
0.0132994
0.0131591
0.0130234
0.0128915
0.0127595
0.0126255
0.0124893
0.0123512
0.0122109
0.0120676
0.0119209
0.0117704
0.0116165
0.0114594
0.0112998
0.011137
0.0109729
0.0108057
0.0106382
0.010467
0.0102988
0.0101242
0.00996107
0.00977404
0.00961852
0.0107837
0.0133569
0.0136143
0.0139325
0.0140019
0.0139528
0.0138526
0.0137184
0.0135739
0.0134371
0.013301
0.0131602
0.0130223
0.0128893
0.0127578
0.0126247
0.0124893
0.0123514
0.012211
0.0120674
0.0119204
0.0117697
0.0116157
0.0114585
0.0112989
0.0111361
0.0109719
0.0108049
0.0106376
0.0104664
0.0102984
0.010125
0.00996691
0.00978851
0.00967772
0.0135371
0.0138968
0.0136743
0.0136213
0.0135852
0.0135433
0.0135036
0.0134616
0.0134152
0.0133633
0.0133054
0.0132411
0.0131729
0.0131038
0.0130342
0.0129632
0.0128906
0.0128167
0.0127417
0.0126652
0.0125869
0.0125061
0.0124226
0.0123357
0.0122451
0.01215
0.0120499
0.0119441
0.0118321
0.0117129
0.0115874
0.0114525
0.0113138
0.0111584
0.0110121
0.0135024
0.0138559
0.0136504
0.0136073
0.0135776
0.0135394
0.0135012
0.0134592
0.0134114
0.013357
0.0132956
0.0132273
0.0131548
0.0130808
0.0130058
0.0129291
0.0128506
0.0127705
0.0126889
0.0126053
0.0125195
0.0124309
0.0123393
0.0122441
0.0121452
0.0120414
0.0119333
0.0118191
0.0116995
0.0115725
0.0114409
0.0112985
0.0111596
0.0109915
0.0108762
0.0134618
0.01381
0.0136187
0.0135843
0.0135613
0.0135285
0.0134938
0.0134535
0.0134057
0.0133496
0.0132851
0.0132125
0.013135
0.0130554
0.0129741
0.0128905
0.0128046
0.0127169
0.0126272
0.0125354
0.0124408
0.0123432
0.0122423
0.0121375
0.0120287
0.011915
0.0117966
0.0116723
0.0115428
0.0114058
0.0112647
0.0111125
0.0109635
0.0107835
0.0106445
0.0134132
0.013763
0.013593
0.0135721
0.0135575
0.0135293
0.0134961
0.0134553
0.0134054
0.0133462
0.0132777
0.0132004
0.0131177
0.0130331
0.0129466
0.0128576
0.0127661
0.0126724
0.0125766
0.0124782
0.0123768
0.0122722
0.0121639
0.0120517
0.0119355
0.0118144
0.0116888
0.0115574
0.0114211
0.0112777
0.0111301
0.0109717
0.010815
0.0106301
0.0104709
0.0133633
0.0137073
0.0135591
0.0135502
0.0135438
0.0135216
0.0134925
0.0134539
0.0134043
0.0133432
0.0132712
0.0131897
0.0131024
0.0130124
0.0129199
0.0128246
0.0127267
0.0126264
0.0125236
0.012418
0.0123094
0.0121973
0.0120815
0.0119618
0.0118381
0.0117096
0.0115767
0.0114383
0.0112955
0.011146
0.0109945
0.0108321
0.0106804
0.0104938
0.0103774
0.0133005
0.0136516
0.0135328
0.0135417
0.0135465
0.0135303
0.0135032
0.0134638
0.0134112
0.0133458
0.0132688
0.0131814
0.0130883
0.0129928
0.0128951
0.0127945
0.0126911
0.0125852
0.0124769
0.0123656
0.0122509
0.0121326
0.0120106
0.0118844
0.0117544
0.0116195
0.0114806
0.0113364
0.0111879
0.0110329
0.0108756
0.0107064
0.0105448
0.0103449
0.0101996
0.0132295
0.0135848
0.013496
0.0135216
0.0135376
0.0135289
0.013506
0.0134682
0.0134148
0.0133468
0.0132659
0.0131742
0.0130765
0.0129761
0.012873
0.0127668
0.0126577
0.0125462
0.0124321
0.012315
0.0121945
0.0120704
0.0119426
0.0118108
0.0116752
0.0115349
0.0113909
0.0112418
0.0110892
0.0109306
0.0107717
0.0106019
0.0104467
0.0102525
0.0101406
0.0131483
0.0135207
0.0134727
0.0135211
0.0135505
0.0135482
0.013527
0.0134872
0.0134293
0.0133553
0.0132678
0.0131695
0.0130659
0.01296
0.0128519
0.0127408
0.012627
0.0125108
0.012392
0.01227
0.0121446
0.0120153
0.0118823
0.0117453
0.0116046
0.0114595
0.0113107
0.0111572
0.0110003
0.0108373
0.0106737
0.0104982
0.0103333
0.0101274
0.0099838
0.0130515
0.0134468
0.0134381
0.0135074
0.01355
0.0135554
0.0135378
0.0134982
0.0134379
0.0133601
0.0132684
0.0131658
0.0130579
0.0129479
0.0128353
0.0127196
0.0126012
0.0124804
0.0123571
0.0122309
0.0121012
0.0119678
0.0118308
0.01169
0.0115455
0.0113968
0.0112446
0.0110882
0.0109287
0.0107639
0.0105999
0.010425
0.0102668
0.0100675
0.00995702
0.0129559
0.0133867
0.0134236
0.0135171
0.0135729
0.0135833
0.0135658
0.0135226
0.0134563
0.0133715
0.0132727
0.013164
0.0130512
0.0129368
0.0128202
0.012701
0.0125793
0.0124554
0.0123289
0.0121993
0.0120661
0.0119293
0.0117887
0.0116443
0.0114964
0.0113445
0.0111894
0.01103
0.0108681
0.0107007
0.0105337
0.0103556
0.0101903
0.00998292
0.00984395
0.0128356
0.0133171
0.0133978
0.013514
0.0135825
0.0135985
0.0135827
0.0135378
0.0134674
0.0133781
0.0132751
0.0131625
0.0130461
0.0129285
0.0128087
0.012686
0.0125608
0.0124334
0.0123037
0.012171
0.012035
0.0118955
0.0117523
0.0116055
0.0114552
0.0113011
0.0111439
0.0109827
0.0108193
0.0106509
0.0104839
0.0103066
0.0101465
0.00994481
0.00983463
0.0127126
0.0132614
0.0133914
0.0135342
0.0136156
0.0136348
0.013617
0.0135661
0.0134878
0.0133904
0.0132802
0.013162
0.0130415
0.0129204
0.0127974
0.0126721
0.0125446
0.012415
0.0122829
0.0121479
0.0120094
0.0118673
0.0117216
0.0115723
0.0114196
0.0112632
0.011104
0.010941
0.010776
0.010606
0.0104373
0.0102579
0.0100924
0.00988509
0.00974779
0.012558
0.0132031
0.013379
0.0135462
0.0136379
0.0136588
0.0136395
0.0135841
0.0135
0.0133973
0.013283
0.0131614
0.013038
0.0129145
0.0127893
0.0126615
0.0125313
0.012399
0.0122645
0.0121272
0.0119868
0.0118429
0.0116956
0.0115447
0.0113904
0.0112327
0.0110721
0.0109081
0.0107422
0.0105718
0.0104032
0.0102247
0.0100633
0.00986096
0.00974839
0.0123954
0.0131589
0.0133811
0.0135771
0.01368
0.0137012
0.0136772
0.0136134
0.0135197
0.0134086
0.0132877
0.0131614
0.0130348
0.0129087
0.0127811
0.0126514
0.0125196
0.0123859
0.01225
0.0121111
0.011969
0.0118234
0.0116742
0.0115216
0.0113656
0.0112064
0.0110445
0.0108794
0.0107126
0.0105413
0.0103719
0.0101924
0.010027
0.00982123
0.00968427
0.012202
0.0131279
0.0133894
0.0136089
0.0137162
0.0137333
0.0137034
0.0136322
0.0135311
0.0134146
0.01329
0.0131609
0.0130323
0.0129046
0.0127758
0.0126445
0.0125109
0.0123751
0.0122373
0.0120969
0.0119536
0.0118068
0.0116567
0.011503
0.0113461
0.0111861
0.0110234
0.0108576
0.0106905
0.0105191
0.01035
0.0101715
0.0100091
0.00980744
0.00969028
0.0119851
0.0131039
0.0133995
0.0136493
0.0137643
0.0137781
0.0137406
0.013659
0.0135476
0.0134234
0.0132935
0.0131609
0.0130299
0.0129005
0.0127701
0.0126375
0.012503
0.0123666
0.012228
0.0120867
0.0119422
0.0117942
0.0116428
0.0114879
0.0113299
0.011169
0.0110055
0.0108392
0.0106716
0.0105
0.0103307
0.0101521
0.00998746
0.00978423
0.00964817
0.0117544
0.0131208
0.0134349
0.0137033
0.0138135
0.0138166
0.0137687
0.0136765
0.0135564
0.0134273
0.0132949
0.0131604
0.013028
0.0128978
0.0127669
0.0126337
0.0124979
0.01236
0.0122202
0.0120779
0.0119328
0.0117842
0.0116321
0.0114767
0.0113181
0.0111566
0.0109928
0.0108261
0.0106586
0.010487
0.0103181
0.0101407
0.0099781
0.00977849
0.00965588
0.0114691
0.013126
0.0134524
0.0137501
0.0138627
0.0138587
0.0138004
0.013697
0.0135676
0.0134332
0.0132974
0.0131602
0.0130262
0.0128948
0.0127629
0.012629
0.0124931
0.0123554
0.0122155
0.0120727
0.0119268
0.0117772
0.0116243
0.0114679
0.0113089
0.0111467
0.0109826
0.0108157
0.010648
0.0104766
0.0103079
0.010131
0.00996906
0.00976922
0.00965198
0.011216
0.0132075
0.0135146
0.0138218
0.0139194
0.0138994
0.0138268
0.0137106
0.0135718
0.0134343
0.0132985
0.0131608
0.0130255
0.0128928
0.0127604
0.0126264
0.0124904
0.0123523
0.0122121
0.012069
0.0119228
0.0117728
0.0116194
0.0114627
0.0113033
0.0111408
0.0109767
0.0108096
0.010642
0.0104707
0.0103025
0.0101269
0.00996481
0.00977314
0.00963349
0.0108753
0.0132439
0.0135423
0.0138596
0.013948
0.0139209
0.0138418
0.0137208
0.0135784
0.0134383
0.0132994
0.0131591
0.0130233
0.0128915
0.0127595
0.0126255
0.0124893
0.0123512
0.0122109
0.0120676
0.0119209
0.0117704
0.0116166
0.0114594
0.0112998
0.011137
0.0109729
0.0108057
0.0106382
0.0104671
0.0102988
0.0101242
0.00996107
0.00977401
0.00961844
0.0107864
0.0133583
0.0136141
0.013932
0.0140015
0.0139526
0.0138526
0.0137184
0.0135739
0.0134371
0.013301
0.0131602
0.0130223
0.0128893
0.0127578
0.0126247
0.0124893
0.0123514
0.012211
0.0120674
0.0119204
0.0117697
0.0116157
0.0114585
0.0112989
0.0111361
0.0109719
0.0108049
0.0106376
0.0104664
0.0102984
0.010125
0.00996689
0.00978853
0.00967779
0.0135396
0.0138942
0.0136742
0.0136214
0.0135854
0.0135434
0.0135036
0.0134616
0.0134152
0.0133633
0.0133054
0.013241
0.0131729
0.0131038
0.0130342
0.0129632
0.0128906
0.0128167
0.0127417
0.0126652
0.0125869
0.0125061
0.0124226
0.0123357
0.0122451
0.01215
0.0120499
0.0119441
0.0118321
0.0117129
0.0115874
0.0114525
0.0113138
0.0111584
0.0110122
0.0135049
0.0138534
0.0136503
0.0136074
0.0135777
0.0135395
0.0135012
0.0134592
0.0134114
0.013357
0.0132956
0.0132273
0.0131548
0.0130808
0.0130058
0.0129291
0.0128506
0.0127705
0.0126889
0.0126054
0.0125195
0.0124309
0.0123393
0.0122441
0.0121453
0.0120415
0.0119333
0.0118191
0.0116995
0.0115726
0.0114409
0.0112985
0.0111596
0.0109915
0.0108764
0.0134643
0.0138075
0.0136185
0.0135844
0.0135614
0.0135285
0.0134938
0.0134535
0.0134057
0.0133496
0.013285
0.0132125
0.013135
0.0130555
0.0129741
0.0128905
0.0128046
0.0127168
0.0126272
0.0125353
0.0124408
0.0123432
0.0122423
0.0121375
0.0120287
0.011915
0.0117966
0.0116723
0.0115428
0.0114058
0.0112647
0.0111125
0.0109635
0.0107835
0.0106444
0.0134157
0.0137606
0.0135929
0.0135723
0.0135576
0.0135293
0.0134961
0.0134552
0.0134054
0.0133462
0.0132777
0.0132004
0.0131177
0.0130331
0.0129467
0.0128576
0.0127661
0.0126724
0.0125766
0.0124782
0.0123768
0.0122722
0.0121639
0.0120517
0.0119355
0.0118144
0.0116888
0.0115575
0.0114211
0.0112777
0.0111301
0.0109717
0.010815
0.0106301
0.0104709
0.0133657
0.0137049
0.0135589
0.0135504
0.013544
0.0135217
0.0134925
0.0134539
0.0134043
0.0133432
0.0132712
0.0131897
0.0131024
0.0130124
0.0129199
0.0128246
0.0127267
0.0126263
0.0125236
0.0124181
0.0123094
0.0121973
0.0120815
0.0119619
0.0118381
0.0117096
0.0115767
0.0114383
0.0112955
0.011146
0.0109945
0.0108321
0.0106804
0.0104939
0.0103776
0.0133029
0.0136493
0.0135326
0.0135419
0.0135466
0.0135304
0.0135032
0.0134638
0.0134112
0.0133458
0.0132688
0.0131814
0.0130883
0.0129928
0.0128951
0.0127945
0.0126911
0.0125852
0.0124769
0.0123656
0.0122509
0.0121326
0.0120106
0.0118844
0.0117544
0.0116195
0.0114806
0.0113364
0.0111879
0.0110329
0.0108756
0.0107064
0.0105448
0.0103449
0.0101995
0.0132318
0.0135826
0.0134958
0.0135217
0.0135377
0.0135289
0.013506
0.0134681
0.0134147
0.0133468
0.0132659
0.0131742
0.0130765
0.0129761
0.012873
0.0127668
0.0126577
0.0125462
0.0124321
0.012315
0.0121945
0.0120704
0.0119426
0.0118108
0.0116752
0.0115349
0.0113909
0.0112419
0.0110892
0.0109306
0.0107718
0.0106019
0.0104467
0.0102525
0.0101408
0.0131505
0.0135185
0.0134726
0.0135212
0.0135506
0.0135483
0.013527
0.0134872
0.0134293
0.0133553
0.0132678
0.0131695
0.0130659
0.01296
0.0128519
0.0127408
0.012627
0.0125108
0.012392
0.01227
0.0121446
0.0120153
0.0118823
0.0117453
0.0116046
0.0114595
0.0113107
0.0111572
0.0110003
0.0108374
0.0106737
0.0104982
0.0103333
0.0101274
0.00998378
0.0130537
0.0134447
0.013438
0.0135075
0.0135501
0.0135554
0.0135378
0.0134982
0.0134378
0.0133601
0.0132684
0.0131658
0.0130579
0.0129479
0.0128353
0.0127196
0.0126012
0.0124804
0.0123571
0.0122309
0.0121012
0.0119679
0.0118308
0.01169
0.0115455
0.0113968
0.0112446
0.0110882
0.0109287
0.0107639
0.0105999
0.010425
0.0102668
0.0100676
0.00995721
0.012958
0.0133847
0.0134235
0.0135172
0.013573
0.0135833
0.0135658
0.0135226
0.0134562
0.0133714
0.0132727
0.013164
0.0130512
0.0129368
0.0128202
0.012701
0.0125793
0.0124554
0.0123289
0.0121993
0.0120661
0.0119293
0.0117887
0.0116443
0.0114964
0.0113445
0.0111894
0.01103
0.0108681
0.0107007
0.0105337
0.0103556
0.0101903
0.00998295
0.00984393
0.0128376
0.0133152
0.0133977
0.013514
0.0135825
0.0135985
0.0135827
0.0135377
0.0134674
0.0133781
0.0132751
0.0131625
0.0130461
0.0129285
0.0128087
0.012686
0.0125608
0.0124334
0.0123037
0.012171
0.012035
0.0118955
0.0117523
0.0116055
0.0114552
0.0113011
0.0111439
0.0109828
0.0108193
0.0106509
0.0104839
0.0103066
0.0101465
0.00994491
0.00983482
0.0127145
0.0132597
0.0133913
0.0135343
0.0136157
0.0136348
0.013617
0.0135661
0.0134878
0.0133903
0.0132802
0.013162
0.0130415
0.0129204
0.0127974
0.0126721
0.0125446
0.012415
0.0122829
0.0121479
0.0120094
0.0118673
0.0117216
0.0115723
0.0114196
0.0112633
0.011104
0.010941
0.010776
0.010606
0.0104373
0.0102579
0.0100924
0.00988512
0.00974777
0.0125598
0.0132014
0.0133789
0.0135463
0.0136379
0.0136588
0.0136394
0.0135841
0.0135
0.0133973
0.013283
0.0131614
0.013038
0.0129146
0.0127893
0.0126615
0.0125313
0.012399
0.0122645
0.0121272
0.0119868
0.011843
0.0116956
0.0115447
0.0113904
0.0112327
0.0110721
0.0109081
0.0107422
0.0105718
0.0104032
0.0102247
0.0100633
0.00986105
0.00974857
0.012397
0.0131574
0.0133811
0.0135772
0.01368
0.0137012
0.0136772
0.0136134
0.0135197
0.0134086
0.0132876
0.0131613
0.0130348
0.0129087
0.0127812
0.0126514
0.0125196
0.0123859
0.01225
0.0121111
0.011969
0.0118234
0.0116742
0.0115216
0.0113656
0.0112064
0.0110445
0.0108794
0.0107126
0.0105413
0.0103719
0.0101924
0.010027
0.00982126
0.00968426
0.0122036
0.0131265
0.0133893
0.0136089
0.0137162
0.0137333
0.0137034
0.0136321
0.013531
0.0134146
0.01329
0.0131609
0.0130323
0.0129047
0.0127758
0.0126445
0.0125109
0.0123751
0.0122373
0.0120969
0.0119536
0.0118069
0.0116567
0.011503
0.0113461
0.0111861
0.0110234
0.0108577
0.0106905
0.0105191
0.01035
0.0101715
0.0100091
0.00980752
0.00969044
0.0119865
0.0131027
0.0133995
0.0136494
0.0137644
0.0137781
0.0137406
0.013659
0.0135476
0.0134234
0.0132935
0.0131609
0.0130299
0.0129005
0.0127701
0.0126375
0.012503
0.0123666
0.012228
0.0120867
0.0119422
0.0117942
0.0116428
0.0114879
0.01133
0.011169
0.0110055
0.0108392
0.0106716
0.0105
0.0103306
0.0101521
0.00998746
0.00978427
0.00964812
0.0117557
0.0131199
0.013435
0.0137034
0.0138135
0.0138165
0.0137686
0.0136764
0.0135563
0.0134273
0.0132949
0.0131604
0.013028
0.0128977
0.0127669
0.0126337
0.012498
0.0123601
0.0122202
0.0120779
0.0119328
0.0117842
0.0116321
0.0114767
0.0113181
0.0111567
0.0109928
0.0108262
0.0106586
0.010487
0.0103181
0.0101407
0.0099781
0.00977858
0.009656
0.0114702
0.0131252
0.0134526
0.0137503
0.0138627
0.0138585
0.0138002
0.0136969
0.0135675
0.0134332
0.0132974
0.0131602
0.0130262
0.0128948
0.0127629
0.012629
0.0124931
0.0123554
0.0122155
0.0120728
0.0119268
0.0117772
0.0116243
0.0114679
0.0113089
0.0111467
0.0109826
0.0108157
0.0106479
0.0104766
0.0103079
0.010131
0.00996904
0.0097693
0.00965216
0.0112169
0.013207
0.0135146
0.0138218
0.0139192
0.0138992
0.0138266
0.0137105
0.0135717
0.0134343
0.0132984
0.0131608
0.0130255
0.0128928
0.0127604
0.0126264
0.0124904
0.0123523
0.0122121
0.012069
0.0119228
0.0117728
0.0116194
0.0114627
0.0113033
0.0111408
0.0109767
0.0108096
0.010642
0.0104708
0.0103025
0.0101269
0.0099648
0.00977316
0.00963339
0.0108753
0.0132444
0.013543
0.0138598
0.0139479
0.0139206
0.0138416
0.0137207
0.0135784
0.0134383
0.0132995
0.0131591
0.0130233
0.0128914
0.0127595
0.0126255
0.0124894
0.0123512
0.0122109
0.0120676
0.0119209
0.0117704
0.0116166
0.0114594
0.0112999
0.011137
0.0109729
0.0108057
0.0106382
0.0104671
0.0102989
0.0101243
0.00996106
0.00977386
0.00961778
0.0107883
0.0133601
0.013614
0.0139313
0.014001
0.0139524
0.0138526
0.0137185
0.0135739
0.0134371
0.013301
0.0131602
0.0130223
0.0128893
0.0127578
0.0126247
0.0124893
0.0123514
0.012211
0.0120674
0.0119204
0.0117697
0.0116157
0.0114585
0.0112989
0.0111361
0.0109719
0.0108049
0.0106376
0.0104664
0.0102984
0.010125
0.00996687
0.00978863
0.0096782
0.0135431
0.0138906
0.0136739
0.0136215
0.0135855
0.0135434
0.0135036
0.0134616
0.0134152
0.0133633
0.0133053
0.013241
0.0131729
0.0131038
0.0130342
0.0129632
0.0128906
0.0128167
0.0127417
0.0126652
0.0125869
0.0125061
0.0124226
0.0123357
0.0122451
0.01215
0.0120499
0.0119441
0.0118321
0.0117129
0.0115874
0.0114525
0.0113138
0.0111584
0.0110123
0.0135082
0.0138499
0.01365
0.0136075
0.0135778
0.0135396
0.0135012
0.0134592
0.0134114
0.013357
0.0132956
0.0132273
0.0131548
0.0130808
0.0130058
0.0129291
0.0128506
0.0127705
0.0126889
0.0126054
0.0125195
0.0124309
0.0123394
0.0122441
0.0121453
0.0120415
0.0119333
0.0118192
0.0116995
0.0115726
0.011441
0.0112986
0.0111596
0.0109916
0.0108767
0.0134676
0.0138041
0.0136182
0.0135844
0.0135614
0.0135285
0.0134938
0.0134535
0.0134057
0.0133496
0.013285
0.0132125
0.013135
0.0130555
0.0129741
0.0128905
0.0128046
0.0127168
0.0126272
0.0125353
0.0124408
0.0123432
0.0122423
0.0121375
0.0120287
0.011915
0.0117966
0.0116723
0.0115427
0.0114058
0.0112647
0.0111125
0.0109635
0.0107836
0.0106444
0.013419
0.0137572
0.0135926
0.0135724
0.0135578
0.0135294
0.0134961
0.0134552
0.0134054
0.0133462
0.0132777
0.0132004
0.0131177
0.0130331
0.0129467
0.0128577
0.0127661
0.0126724
0.0125766
0.0124782
0.0123768
0.0122722
0.0121639
0.0120517
0.0119355
0.0118145
0.0116888
0.0115575
0.0114211
0.0112777
0.0111301
0.0109718
0.010815
0.0106301
0.0104709
0.0133688
0.0137017
0.0135586
0.0135504
0.0135441
0.0135218
0.0134925
0.0134539
0.0134042
0.0133432
0.0132712
0.0131897
0.0131024
0.0130124
0.0129199
0.0128246
0.0127267
0.0126264
0.0125236
0.0124181
0.0123094
0.0121973
0.0120815
0.0119619
0.0118381
0.0117097
0.0115767
0.0114383
0.0112955
0.011146
0.0109945
0.0108321
0.0106804
0.010494
0.0103779
0.013306
0.013646
0.0135324
0.013542
0.0135467
0.0135305
0.0135032
0.0134638
0.0134112
0.0133458
0.0132688
0.0131814
0.0130883
0.0129928
0.0128951
0.0127945
0.0126911
0.0125852
0.0124769
0.0123656
0.0122509
0.0121327
0.0120106
0.0118844
0.0117544
0.0116196
0.0114806
0.0113364
0.0111879
0.0110329
0.0108756
0.0107064
0.0105448
0.010345
0.0101996
0.0132348
0.0135794
0.0134956
0.0135218
0.0135378
0.013529
0.013506
0.0134681
0.0134147
0.0133467
0.0132659
0.0131742
0.0130765
0.0129761
0.012873
0.0127668
0.0126577
0.0125462
0.0124321
0.012315
0.0121945
0.0120704
0.0119426
0.0118108
0.0116752
0.011535
0.0113909
0.0112419
0.0110893
0.0109307
0.0107718
0.0106019
0.0104468
0.0102526
0.0101412
0.0131534
0.0135155
0.0134724
0.0135212
0.0135507
0.0135483
0.013527
0.0134872
0.0134292
0.0133552
0.0132677
0.0131695
0.0130658
0.01296
0.0128519
0.0127408
0.012627
0.0125108
0.012392
0.01227
0.0121446
0.0120154
0.0118823
0.0117453
0.0116046
0.0114595
0.0113107
0.0111572
0.0110003
0.0108374
0.0106737
0.0104983
0.0103333
0.0101274
0.00998386
0.0130565
0.0134417
0.0134377
0.0135075
0.0135502
0.0135554
0.0135378
0.0134981
0.0134378
0.0133601
0.0132683
0.0131658
0.0130579
0.0129479
0.0128353
0.0127196
0.0126012
0.0124804
0.0123571
0.0122309
0.0121012
0.0119679
0.0118309
0.01169
0.0115455
0.0113969
0.0112446
0.0110882
0.0109287
0.010764
0.0105999
0.0104251
0.0102668
0.0100677
0.00995755
0.0129607
0.013382
0.0134233
0.0135172
0.0135731
0.0135834
0.0135658
0.0135226
0.0134562
0.0133714
0.0132727
0.013164
0.0130512
0.0129368
0.0128202
0.012701
0.0125794
0.0124554
0.0123289
0.0121993
0.0120661
0.0119293
0.0117887
0.0116444
0.0114964
0.0113446
0.0111894
0.0110301
0.0108681
0.0107008
0.0105338
0.0103556
0.0101903
0.00998301
0.00984403
0.0128402
0.0133125
0.0133974
0.013514
0.0135826
0.0135985
0.0135826
0.0135377
0.0134673
0.013378
0.013275
0.0131625
0.0130461
0.0129285
0.0128087
0.012686
0.0125608
0.0124334
0.0123036
0.012171
0.012035
0.0118955
0.0117523
0.0116055
0.0114552
0.0113011
0.0111439
0.0109828
0.0108193
0.010651
0.0104839
0.0103066
0.0101465
0.00994502
0.00983516
0.0127169
0.0132572
0.0133911
0.0135344
0.0136158
0.0136348
0.013617
0.0135661
0.0134877
0.0133903
0.0132801
0.013162
0.0130415
0.0129204
0.0127974
0.0126721
0.0125446
0.012415
0.0122829
0.0121479
0.0120094
0.0118673
0.0117216
0.0115723
0.0114196
0.0112633
0.011104
0.010941
0.010776
0.010606
0.0104373
0.0102579
0.0100924
0.00988518
0.00974788
0.0125622
0.013199
0.0133787
0.0135462
0.0136379
0.0136588
0.0136394
0.013584
0.0134999
0.0133973
0.013283
0.0131614
0.013038
0.0129146
0.0127894
0.0126615
0.0125313
0.012399
0.0122645
0.0121272
0.0119868
0.011843
0.0116956
0.0115447
0.0113904
0.0112327
0.0110721
0.0109081
0.0107422
0.0105718
0.0104032
0.0102247
0.0100633
0.00986116
0.00974888
0.0123992
0.0131552
0.013381
0.0135772
0.0136801
0.0137012
0.0136771
0.0136133
0.0135196
0.0134086
0.0132876
0.0131613
0.0130348
0.0129087
0.0127812
0.0126514
0.0125196
0.0123859
0.01225
0.0121111
0.011969
0.0118234
0.0116742
0.0115216
0.0113656
0.0112065
0.0110445
0.0108794
0.0107126
0.0105414
0.0103719
0.0101925
0.010027
0.00982133
0.00968437
0.0122056
0.0131245
0.0133893
0.013609
0.0137162
0.0137333
0.0137033
0.0136321
0.013531
0.0134145
0.01329
0.0131609
0.0130323
0.0129047
0.0127759
0.0126445
0.0125109
0.0123751
0.0122373
0.0120969
0.0119536
0.0118069
0.0116567
0.011503
0.0113461
0.0111861
0.0110234
0.0108577
0.0106905
0.0105191
0.01035
0.0101716
0.0100091
0.00980762
0.00969072
0.0119883
0.013101
0.0133996
0.0136495
0.0137645
0.0137781
0.0137405
0.0136588
0.0135475
0.0134234
0.0132935
0.0131608
0.0130299
0.0129005
0.0127701
0.0126375
0.012503
0.0123666
0.0122281
0.0120867
0.0119422
0.0117942
0.0116428
0.0114879
0.01133
0.011169
0.0110055
0.0108392
0.0106716
0.0105
0.0103306
0.0101522
0.00998745
0.00978432
0.00964816
0.0117572
0.0131185
0.0134352
0.0137035
0.0138136
0.0138165
0.0137685
0.0136763
0.0135562
0.0134273
0.0132949
0.0131604
0.013028
0.0128977
0.0127669
0.0126337
0.012498
0.0123601
0.0122202
0.012078
0.0119328
0.0117842
0.0116321
0.0114767
0.0113182
0.0111567
0.0109928
0.0108262
0.0106586
0.010487
0.0103181
0.0101408
0.00997808
0.00977869
0.0096563
0.0114716
0.0131239
0.013453
0.0137506
0.0138628
0.0138584
0.0138
0.0136967
0.0135675
0.0134332
0.0132974
0.0131602
0.0130262
0.0128948
0.0127629
0.012629
0.0124932
0.0123554
0.0122155
0.0120728
0.0119268
0.0117772
0.0116243
0.0114679
0.0113089
0.0111467
0.0109826
0.0108157
0.0106479
0.0104766
0.0103079
0.010131
0.009969
0.00976941
0.00965248
0.0112182
0.0132064
0.0135152
0.0138219
0.0139191
0.0138989
0.0138263
0.0137103
0.0135717
0.0134343
0.0132984
0.0131607
0.0130255
0.0128928
0.0127604
0.0126265
0.0124905
0.0123523
0.0122121
0.012069
0.0119227
0.0117728
0.0116194
0.0114627
0.0113033
0.0111408
0.0109767
0.0108096
0.010642
0.0104708
0.0103024
0.0101269
0.00996475
0.00977316
0.00963328
0.0108761
0.0132442
0.013544
0.01386
0.0139477
0.0139202
0.0138413
0.0137206
0.0135784
0.0134383
0.0132995
0.0131592
0.0130233
0.0128913
0.0127594
0.0126255
0.0124894
0.0123512
0.0122109
0.0120676
0.0119209
0.0117704
0.0116165
0.0114594
0.0112998
0.011137
0.0109729
0.0108057
0.0106382
0.0104671
0.0102989
0.0101243
0.009961
0.00977361
0.00961646
0.0107886
0.0133626
0.0136145
0.0139304
0.0140006
0.0139524
0.0138527
0.0137185
0.0135739
0.0134371
0.0133009
0.0131602
0.0130224
0.0128893
0.0127578
0.0126247
0.0124892
0.0123513
0.012211
0.0120674
0.0119204
0.0117697
0.0116157
0.0114585
0.0112989
0.0111361
0.0109719
0.0108049
0.0106376
0.0104664
0.0102984
0.010125
0.00996686
0.00978885
0.00967898
0.0135474
0.0138861
0.0136736
0.0136215
0.0135855
0.0135435
0.0135036
0.0134616
0.0134151
0.0133632
0.0133053
0.013241
0.0131728
0.0131038
0.0130342
0.0129632