/*--------------------------------*- C++ -*----------------------------------*\
  =========                 |
  \\      /  F ield         | OpenFOAM: The Open Source CFD Toolbox
   \\    /   O peration     | Website:  https://openfoam.org
    \\  /    A nd           | Version:  6
     \\/     M anipulation  |
\*---------------------------------------------------------------------------*/
FoamFile
{
    version     2.0;
    format      ascii;
    class       volVectorField;
    location    "1";
    object      wallShearStress;
}
// * * * * * * * * * * * * * * * * * * * * * * * * * * * * * * * * * * * * * //

dimensions      [0 2 -2 0 0 0 0];

internalField   uniform (0 0 0);

boundaryField
{
    inlet
    {
        type            calculated;
        value           uniform (0 0 0);
    }
    outlet
    {
        type            calculated;
        value           uniform (0 0 0);
    }
    roughCylinder
    {
        type            calculated;
        value           nonuniform List<vector> 
3840
(
(-0.000132513 -0.000175842 -8.06736e-05)
(-0.000242775 -0.000409168 -4.3234e-05)
(-0.000338575 -0.000563128 4.91928e-05)
(-0.00040985 -0.000627484 0.000113951)
(-0.00047891 -0.000658017 0.000163771)
(-0.000521488 -0.000643775 0.000191495)
(-0.00055532 -0.00062381 0.000206868)
(-0.000575271 -0.000603687 0.000214865)
(-0.000592614 -0.000593141 0.000220445)
(-0.000605273 -0.000587713 0.000221149)
(-0.000616967 -0.000588721 0.000218649)
(-0.000624114 -0.000590599 0.000211874)
(-0.000632729 -0.000597149 0.000203146)
(-0.000640162 -0.000604756 0.000191939)
(-0.000642766 -0.000609374 0.000177748)
(-0.000638079 -0.000608086 0.000160647)
(-0.000634908 -0.000608494 0.000143337)
(-0.000617775 -0.000595852 0.000122994)
(-0.000610502 -0.000591089 0.000104478)
(-0.000632659 -0.00061328 8.96047e-05)
(-0.000628155 -0.000611493 7.02091e-05)
(-0.000625437 -0.000610776 5.07642e-05)
(-0.000622177 -0.000609142 3.10602e-05)
(-0.000618782 -0.00060659 1.0543e-05)
(-0.000313805 -0.000371995 -0.000167311)
(-0.000260943 -0.000398902 -5.02153e-05)
(-0.00036519 -0.000561491 4.0225e-05)
(-0.000440857 -0.000631621 0.000106671)
(-0.000513319 -0.000665482 0.000157662)
(-0.000559284 -0.000655205 0.000186498)
(-0.000597386 -0.000640383 0.000203909)
(-0.000620827 -0.000622643 0.000214504)
(-0.000639483 -0.000610465 0.000221043)
(-0.000652653 -0.000604042 0.000222008)
(-0.000664956 -0.000604521 0.000219601)
(-0.000672532 -0.000606227 0.000212852)
(-0.000681477 -0.000612629 0.000204033)
(-0.000689 -0.000620029 0.000192687)
(-0.000691968 -0.00062495 0.000178545)
(-0.000688526 -0.00062508 0.000161816)
(-0.000686322 -0.000626599 0.000144712)
(-0.000670425 -0.000616085 0.000124759)
(-0.000663065 -0.000611806 0.000106167)
(-0.000683175 -0.000631261 9.05914e-05)
(-0.000679454 -0.000630513 7.11073e-05)
(-0.000677153 -0.000630413 5.14585e-05)
(-0.000674524 -0.00062952 3.15158e-05)
(-0.000671139 -0.000627169 1.06963e-05)
(-0.000249886 -0.000260781 -0.000111647)
(-0.00028333 -0.000389713 -5.83038e-05)
(-0.000393227 -0.000554909 3.03087e-05)
(-0.0004726 -0.000629903 9.80767e-05)
(-0.000549153 -0.000668211 0.000150439)
(-0.000599493 -0.000663357 0.000181128)
(-0.000642153 -0.000653992 0.000201009)
(-0.000668775 -0.000638606 0.000213856)
(-0.000689365 -0.000625347 0.000221371)
(-0.000702841 -0.000617615 0.000222573)
(-0.000715759 -0.000617438 0.000220221)
(-0.000723779 -0.000618905 0.000213504)
(-0.000732987 -0.000625047 0.000204599)
(-0.000740659 -0.000632269 0.000193177)
(-0.000744259 -0.000637672 0.000179183)
(-0.000742304 -0.000639307 0.000162871)
(-0.000740924 -0.000641759 0.00014595)
(-0.000726398 -0.000633409 0.000126402)
(-0.000719009 -0.000629698 0.000107767)
(-0.000736829 -0.000646425 9.15311e-05)
(-0.000734068 -0.000646817 7.19707e-05)
(-0.000732289 -0.000647405 5.21254e-05)
(-0.000730391 -0.000647287 3.19499e-05)
(-0.00072705 -0.00064518 1.08411e-05)
(-0.000352354 -0.000321423 -0.000127238)
(-0.000300702 -0.000370935 -6.51212e-05)
(-0.000419762 -0.000542231 1.9229e-05)
(-0.000503222 -0.000622686 8.8236e-05)
(-0.000584315 -0.000666287 0.000141992)
(-0.000639844 -0.000668128 0.00017507)
(-0.000687283 -0.000664241 0.000197728)
(-0.000717238 -0.000651156 0.000212652)
(-0.00074042 -0.000637633 0.00022135)
(-0.000754304 -0.000628578 0.000222904)
(-0.000767844 -0.000627636 0.000220572)
(-0.000776254 -0.000628762 0.000213882)
(-0.000785781 -0.00063466 0.000204943)
(-0.000793737 -0.000641803 0.000193524)
(-0.000798072 -0.000647715 0.000179724)
(-0.000797548 -0.000650667 0.000163803)
(-0.000796867 -0.000653919 0.000147062)
(-0.000783897 -0.000647762 0.000127934)
(-0.000776583 -0.000644731 0.000109292)
(-0.000792077 -0.00065899 9.24656e-05)
(-0.000790208 -0.000660388 7.28047e-05)
(-0.000789038 -0.0006617 5.27635e-05)
(-0.000787825 -0.000662264 3.23539e-05)
(-0.00078464 -0.000660487 1.09752e-05)
(-0.000481214 -0.000381613 -0.0001322)
(-0.000324689 -0.00035608 -7.3563e-05)
(-0.000444157 -0.000524187 7.56404e-06)
(-0.000532221 -0.000610118 7.73469e-05)
(-0.000618347 -0.0006598 0.000132468)
(-0.000679634 -0.000669052 0.000168243)
(-0.000732003 -0.000670489 0.000193844)
(-0.000765626 -0.000659865 0.000210811)
(-0.000791929 -0.00064713 0.000220976)
(-0.000806289 -0.000636107 0.000222917)
(-0.000820473 -0.000634338 0.000220626)
(-0.000829415 -0.000635142 0.000214026)
(-0.000839401 -0.000640865 0.00020513)
(-0.000847819 -0.000648043 0.000193804)
(-0.000853092 -0.000654551 0.000180265)
(-0.000853812 -0.000658573 0.000164697)
(-0.000853669 -0.00066248 0.000148131)
(-0.000842176 -0.000658343 0.000129391)
(-0.000835153 -0.0006562 0.000110788)
(-0.000848592 -0.000668487 9.34591e-05)
(-0.000847673 -0.000670888 7.36727e-05)
(-0.000847156 -0.000672927 5.34137e-05)
(-0.000846631 -0.000674127 3.27542e-05)
(-0.00084367 -0.000672731 1.11065e-05)
(-0.000458468 -0.000311815 -8.95823e-05)
(-0.000337413 -0.000328498 -7.9394e-05)
(-0.000466333 -0.000501072 -4.29086e-06)
(-0.000558617 -0.000592308 6.53842e-05)
(-0.00065027 -0.000648638 0.000121816)
(-0.000717864 -0.000665692 0.000160484)
(-0.000775437 -0.000672265 0.000189139)
(-0.000813117 -0.000664229 0.000208259)
(-0.000842407 -0.000652578 0.000219817)
(-0.000858405 -0.000640021 0.000222398)
(-0.00087327 -0.000637267 0.000220315)
(-0.000882795 -0.000637639 0.000213857)
(-0.000893373 -0.000643199 0.000205089)
(-0.000902478 -0.000650518 0.000193958)
(-0.000908628 -0.000657499 0.000180703)
(-0.000910236 -0.000662254 0.00016545)
(-0.000910798 -0.000666943 0.00014913)
(-0.000900747 -0.000664718 0.000130769)
(-0.000893932 -0.000663434 0.000112212)
(-0.000905512 -0.000674128 9.44534e-05)
(-0.000905356 -0.000677351 7.45079e-05)
(-0.000905581 -0.000680168 5.40277e-05)
(-0.000905632 -0.000681912 3.31167e-05)
(-0.000903071 -0.000681019 1.12246e-05)
(-0.000583093 -0.000337111 -7.35499e-05)
(-0.000357319 -0.000307505 -8.56566e-05)
(-0.000485467 -0.000472966 -1.6813e-05)
(-0.000582075 -0.000570219 5.24216e-05)
(-0.000679638 -0.0006334 0.000110086)
(-0.000753985 -0.000658328 0.000151761)
(-0.000817128 -0.000669819 0.000183526)
(-0.000859315 -0.00066447 0.00020493)
(-0.000891785 -0.000653918 0.000217802)
(-0.000910313 -0.000640643 0.000221326)
(-0.000926058 -0.000636679 0.000219665)
(-0.00093642 -0.00063659 0.000213445)
(-0.000947821 -0.000642034 0.000204914)
(-0.000957691 -0.000649455 0.000194048)
(-0.000964749 -0.000656865 0.000181125)
(-0.000966887 -0.000662088 0.000166167)
(-0.000968036 -0.000667473 0.000150113)
(-0.000959215 -0.000666957 0.000132102)
(-0.000952851 -0.000666804 0.000113636)
(-0.000962953 -0.000676439 9.55184e-05)
(-0.000963508 -0.000680465 7.53773e-05)
(-0.000964363 -0.000683947 5.46399e-05)
(-0.000964953 -0.000686182 3.34643e-05)
(-0.000962828 -0.000685781 1.13349e-05)
(-0.000640223 -0.000312231 -3.90709e-05)
(-0.000379832 -0.000285485 -9.18608e-05)
(-0.000499688 -0.000439917 -2.95495e-05)
(-0.000601334 -0.000543517 3.85511e-05)
(-0.000704968 -0.000613598 9.72157e-05)
(-0.000786531 -0.000646387 0.000141876)
(-0.000855756 -0.000662726 0.000176745)
(-0.000902954 -0.000660207 0.000200541)
(-0.000939185 -0.000651031 0.000214831)
(-0.000960937 -0.000638053 0.000219588)
(-0.000977955 -0.000632388 0.00021851)
(-0.000989195 -0.000631682 0.000212636)
(-0.00100157 -0.000636907 0.000204451)
(-0.00101244 -0.00064448 0.000193968)
(-0.00102018 -0.000652119 0.000181404)
(-0.00102253 -0.000657653 0.000166764)
(-0.00102456 -0.00066398 0.000151078)
(-0.00101672 -0.000665043 0.000133397)
(-0.00101054 -0.000665878 0.000115003)
(-0.00101934 -0.000674749 9.65728e-05)
(-0.00102036 -0.000679455 7.62021e-05)
(-0.00102196 -0.00068388 5.52099e-05)
(-0.00102296 -0.000686627 3.37695e-05)
(-0.00102152 -0.000686886 1.14302e-05)
(-0.000688475 -0.000278555 3.26154e-08)
(-0.000407404 -0.000264272 -9.90026e-05)
(-0.000509768 -0.000403776 -4.18516e-05)
(-0.000616101 -0.000512823 2.39005e-05)
(-0.00072579 -0.00058977 8.33261e-05)
(-0.000814956 -0.000630151 0.000130839)
(-0.000890736 -0.000651192 0.000168726)
(-0.000943571 -0.000651673 0.000195024)
(-0.000983955 -0.000644 0.000210932)
(-0.00100904 -0.000631716 0.000216966)
(-0.00102882 -0.000625106 0.000216863)
(-0.00104138 -0.000623507 0.000211597)
(-0.00105482 -0.000628398 0.000203857)
(-0.00106642 -0.000635834 0.000193789)
(-0.00107476 -0.000643648 0.000181658)
(-0.00107707 -0.000649407 0.00016738)
(-0.00107964 -0.000656459 0.000152063)
(-0.00107256 -0.000659071 0.000134706)
(-0.00106674 -0.000661496 0.000116434)
(-0.0010744 -0.000670229 9.77267e-05)
(-0.00107565 -0.000675682 7.70777e-05)
(-0.0010774 -0.000680664 5.576e-05)
(-0.00107865 -0.000683848 3.40397e-05)
(-0.0010778 -0.00068465 1.15074e-05)
(-0.000705578 -0.000230861 3.93508e-05)
(-0.00043011 -0.000237755 -0.000104479)
(-0.000514337 -0.000364074 -5.32396e-05)
(-0.000624509 -0.00047756 8.59171e-06)
(-0.000740235 -0.000561328 6.8348e-05)
(-0.000837473 -0.000609017 0.000118446)
(-0.000920519 -0.000634792 0.000159217)
(-0.000979643 -0.000638418 0.00018808)
(-0.00102507 -0.000632683 0.000205925)
(-0.00105399 -0.000621395 0.000213407)
(-0.00107666 -0.000614369 0.000214414)
(-0.00109096 -0.000611559 0.000209973)
(-0.00110567 -0.000615736 0.000202867)
(-0.00111835 -0.000623136 0.000193406)
(-0.00112693 -0.000630926 0.000181767)
(-0.00112907 -0.00063717 0.00016796)
(-0.0011323 -0.000645462 0.000153135)
(-0.00112537 -0.000649628 0.000136082)
(-0.00111895 -0.000653226 0.00011783)
(-0.00112501 -0.000661771 9.88002e-05)
(-0.00112606 -0.000667769 7.78168e-05)
(-0.00112826 -0.000673352 5.61839e-05)
(-0.00112967 -0.000676842 3.4211e-05)
(-0.00112979 -0.000678329 1.15495e-05)
(-0.0007821 -0.000199988 8.19375e-05)
(-0.000454215 -0.000210297 -0.000109628)
(-0.0005141 -0.000322304 -6.34353e-05)
(-0.000626423 -0.000438675 -7.06196e-06)
(-0.000747978 -0.000529004 5.23762e-05)
(-0.000853646 -0.000583599 0.000104717)
(-0.000944486 -0.000613933 0.000148159)
(-0.00101089 -0.000620964 0.00017968)
(-0.00106168 -0.00061713 0.000199644)
(-0.00109481 -0.000606984 0.000208831)
(-0.00112119 -0.000600303 0.000211221)
(-0.00113856 -0.000597205 0.000207989)
(-0.00115478 -0.000600606 0.000201769)
(-0.00116775 -0.000607363 0.000192948)
(-0.00117652 -0.0006153 0.000181964)
(-0.00117794 -0.000621873 0.000168676)
(-0.00118055 -0.000630807 0.000154224)
(-0.00117324 -0.000636322 0.000137401)
(-0.00116628 -0.000641019 0.000119143)
(-0.00117063 -0.000649278 9.97697e-05)
(-0.0011712 -0.000655591 7.84102e-05)
(-0.00117337 -0.000661482 5.64436e-05)
(-0.001175 -0.000665258 3.4263e-05)
(-0.00117589 -0.000667229 1.15432e-05)
(-0.000749251 -0.000142382 0.000111176)
(-0.000476315 -0.000179594 -0.000112457)
(-0.000508 -0.000278734 -7.23798e-05)
(-0.000619799 -0.000395703 -2.26651e-05)
(-0.000746679 -0.000492157 3.53857e-05)
(-0.000861258 -0.000553448 8.94622e-05)
(-0.000960877 -0.000588417 0.000135341)
(-0.00103514 -0.000598757 0.000169464)
(-0.00109252 -0.00059725 0.000191851)
(-0.00113076 -0.000588591 0.000203118)
(-0.00116028 -0.000581991 0.000206999)
(-0.00118001 -0.000578554 0.000205057)
(-0.00119819 -0.000581577 0.000200006)
(-0.0012123 -0.000588121 0.000192182)
(-0.00122049 -0.00059587 0.000181907)
(-0.00122114 -0.000602707 0.000169232)
(-0.00122307 -0.000612105 0.000155212)
(-0.00121467 -0.00061853 0.000138555)
(-0.00120661 -0.000624036 0.000120239)
(-0.00120911 -0.000631992 0.000100526)
(-0.00120908 -0.000638521 7.87893e-05)
(-0.0012115 -0.000644897 5.65274e-05)
(-0.00121333 -0.000648923 3.41841e-05)
(-0.00121546 -0.000651545 1.14903e-05)
(-0.00079867 -0.000102261 0.000149859)
(-0.000503291 -0.000149572 -0.000114328)
(-0.000497016 -0.0002346 -7.94665e-05)
(-0.000604878 -0.00034988 -3.7731e-05)
(-0.000736179 -0.000451797 1.76072e-05)
(-0.000859925 -0.000519535 7.27357e-05)
(-0.000968763 -0.000558809 0.000120717)
(-0.00105231 -0.000572699 0.000157475)
(-0.00111672 -0.000573279 0.000182396)
(-0.00116041 -0.000566014 0.000195993)
(-0.00119466 -0.000560244 0.000201916)
(-0.0012179 -0.000557076 0.000201706)
(-0.00123716 -0.000559371 0.000197886)
(-0.00125097 -0.000565084 0.000191033)
(-0.00125874 -0.000572716 0.000181666)
(-0.00125813 -0.000579649 0.000169666)
(-0.00125841 -0.00058904 0.000156051)
(-0.00124881 -0.000596334 0.000139604)
(-0.00123935 -0.000602574 0.00012121)
(-0.00123946 -0.000610076 0.000101107)
(-0.0012384 -0.000616598 7.89579e-05)
(-0.00124038 -0.000623139 5.63895e-05)
(-0.00124241 -0.000627387 3.39425e-05)
(-0.00124541 -0.000630369 1.13705e-05)
(-0.000737933 -5.09658e-05 0.00016512)
(-0.000526308 -0.000117916 -0.000112973)
(-0.000480976 -0.000190367 -8.40681e-05)
(-0.000579736 -0.000301202 -5.14463e-05)
(-0.000713794 -0.00040734 -6.38421e-07)
(-0.000846826 -0.000481435 5.44272e-05)
(-0.00096637 -0.000525403 0.000104161)
(-0.00105983 -0.00054246 0.000143387)
(-0.00113248 -0.000545141 0.000171)
(-0.00118288 -0.000539493 0.000187304)
(-0.00122091 -0.000533937 0.000195402)
(-0.00124666 -0.000530557 0.000197069)
(-0.00126812 -0.000532668 0.00019495)
(-0.00128293 -0.000538229 0.00018953)
(-0.00128926 -0.000545349 0.000181135)
(-0.00128732 -0.00055243 0.000169966)
(-0.00128552 -0.000561704 0.00015682)
(-0.00127347 -0.000569379 0.000140503)
(-0.00126185 -0.000576147 0.00012197)
(-0.00125926 -0.000583227 0.000101448)
(-0.00125698 -0.000589712 7.8875e-05)
(-0.00125879 -0.000596612 5.60378e-05)
(-0.00126114 -0.00060114 3.35427e-05)
(-0.00126557 -0.000604678 1.11927e-05)
(-0.000760434 -8.89909e-06 0.000195897)
(-0.000549446 -8.69871e-05 -0.000110203)
(-0.000462564 -0.000147761 -8.58265e-05)
(-0.000545514 -0.00025147 -6.29412e-05)
(-0.000679777 -0.000360055 -1.87465e-05)
(-0.000821799 -0.000440392 3.47676e-05)
(-0.000952308 -0.000488954 8.56083e-05)
(-0.00105713 -0.000509159 0.000127215)
(-0.00113921 -0.000513581 0.000157624)
(-0.00119681 -0.000509183 0.000176842)
(-0.00124107 -0.000504613 0.000187823)
(-0.00127094 -0.000501562 0.000191989)
(-0.00129278 -0.000502734 0.000191638)
(-0.00130638 -0.000507291 0.00018762)
(-0.00131182 -0.000514247 0.000180523)
(-0.00130723 -0.000521089 0.00017019)
(-0.00130222 -0.000529974 0.000157505)
(-0.00128756 -0.000538147 0.000141367)
(-0.00127306 -0.000545331 0.000122603)
(-0.00126695 -0.000551841 0.000101554)
(-0.00126281 -0.000558087 7.8498e-05)
(-0.00126369 -0.000565062 5.5387e-05)
(-0.00126622 -0.000569801 3.29224e-05)
(-0.00127152 -0.000573542 1.09253e-05)
(-0.000680441 2.98006e-05 0.000197054)
(-0.000562655 -5.56706e-05 -0.000104468)
(-0.000441268 -0.000107571 -8.42952e-05)
(-0.000500876 -0.000201219 -7.08565e-05)
(-0.000631715 -0.000309787 -3.5819e-05)
(-0.000781514 -0.000395934 1.403e-05)
(-0.000924281 -0.000449838 6.49848e-05)
(-0.00104244 -0.000473569 0.000108779)
(-0.00113482 -0.000478981 0.000142062)
(-0.00120074 -0.000475361 0.000164427)
(-0.0012494 -0.000470682 0.000178351)
(-0.00128225 -0.000467322 0.000185297)
(-0.0013069 -0.000468495 0.000187506)
(-0.00132118 -0.000472912 0.000185532)
(-0.00132373 -0.000479128 0.000179739)
(-0.00131659 -0.000486032 0.000170464)
(-0.00130754 -0.000494434 0.000158238)
(-0.00128837 -0.000502609 0.000142069)
(-0.00127006 -0.000510545 0.000122982)
(-0.0012601 -0.000516914 0.000101368)
(-0.00125383 -0.000523104 7.78088e-05)
(-0.0012539 -0.000530347 5.44618e-05)
(-0.00125683 -0.000535325 3.21022e-05)
(-0.00126361 -0.000539421 1.05837e-05)
(-0.000672759 6.5844e-05 0.000215363)
(-0.000571009 -2.58693e-05 -9.80944e-05)
(-0.000421096 -7.19833e-05 -7.99818e-05)
(-0.000448582 -0.000152766 -7.41816e-05)
(-0.000570162 -0.000258045 -5.07043e-05)
(-0.000725968 -0.00034938 -7.08753e-06)
(-0.000881722 -0.000409235 4.24537e-05)
(-0.00101306 -0.000436246 8.77362e-05)
(-0.00111844 -0.000442924 0.000124131)
(-0.00119439 -0.000439557 0.000150154)
(-0.00125126 -0.000434957 0.000167909)
(-0.00128859 -0.000431637 0.00017828)
(-0.0013123 -0.000431482 0.000183052)
(-0.00132424 -0.000434781 0.000183101)
(-0.00132499 -0.000440869 0.000179047)
(-0.00131292 -0.000447386 0.000170656)
(-0.00129879 -0.000455941 0.000158902)
(-0.00127484 -0.000464921 0.000142776)
(-0.0012516 -0.000473634 0.000123235)
(-0.00123675 -0.000479912 0.000100903)
(-0.00122766 -0.000485993 7.67651e-05)
(-0.0012263 -0.000493264 5.31886e-05)
(-0.00122935 -0.000498244 3.102e-05)
(-0.00123694 -0.000502276 1.01357e-05)
(-0.000609768 9.1299e-05 0.000211159)
(-0.00056278 1.22439e-06 -8.93158e-05)
(-0.000398137 -4.12316e-05 -7.23481e-05)
(-0.000388867 -0.000107424 -7.17128e-05)
(-0.000494851 -0.000205979 -6.17361e-05)
(-0.000653012 -0.000300861 -2.75791e-05)
(-0.000819909 -0.000366271 1.82239e-05)
(-0.000969345 -0.000398824 6.41414e-05)
(-0.00108866 -0.000406652 0.000103513)
(-0.00117481 -0.000402654 0.000133492)
(-0.00123685 -0.000396322 0.000155289)
(-0.00127777 -0.000391801 0.000169566)
(-0.00130506 -0.000391638 0.000177974)
(-0.00131676 -0.000394904 0.00018075)
(-0.00131247 -0.000400523 0.000178323)
(-0.0012959 -0.000407709 0.00017112)
(-0.00127506 -0.000416614 0.000159766)
(-0.00124404 -0.000426181 0.00014344)
(-0.00121468 -0.000435578 0.000123246)
(-0.00119454 -0.000442 0.000100076)
(-0.00118211 -0.000447975 7.52947e-05)
(-0.00117915 -0.000455185 5.1525e-05)
(-0.00118254 -0.000460132 2.96601e-05)
(-0.00119159 -0.000464233 9.58645e-06)
(-0.000581699 0.000114865 0.000213657)
(-0.000551552 2.43799e-05 -8.10721e-05)
(-0.000376781 -1.67744e-05 -6.25374e-05)
(-0.000325951 -6.80919e-05 -6.33036e-05)
(-0.000405901 -0.000154845 -6.66465e-05)
(-0.000560759 -0.00025067 -4.58201e-05)
(-0.000742519 -0.000323716 -6.96296e-06)
(-0.000906657 -0.000360499 3.77697e-05)
(-0.00104295 -0.000370628 7.98859e-05)
(-0.00114373 -0.000366552 0.000114699)
(-0.00121682 -0.000359771 0.000141948)
(-0.00126224 -0.000353889 0.000161063)
(-0.00128641 -0.000351686 0.000172855)
(-0.00129408 -0.000354093 0.000178288)
(-0.00128629 -0.000360345 0.000178021)
(-0.00126176 -0.000367903 0.000171725)
(-0.00123332 -0.000377502 0.00016072)
(-0.00119448 -0.000387917 0.000144068)
(-0.00115754 -0.000397861 0.000122936)
(-0.00113105 -0.000404387 9.87166e-05)
(-0.00111485 -0.000410256 7.3243e-05)
(-0.00110994 -0.000417161 4.93482e-05)
(-0.00111341 -0.000421835 2.79413e-05)
(-0.00112318 -0.00042558 8.89921e-06)
(-0.000510078 0.000122085 0.000192855)
(-0.000522518 4.12468e-05 -7.10447e-05)
(-0.000351256 1.29742e-06 -4.99312e-05)
(-0.00026246 -3.70519e-05 -4.9371e-05)
(-0.000309555 -0.000108181 -6.37825e-05)
(-0.000453513 -0.000201474 -5.99379e-05)
(-0.000639297 -0.000278043 -3.21451e-05)
(-0.000826586 -0.000322689 9.0521e-06)
(-0.000982761 -0.000336 5.34342e-05)
(-0.00109665 -0.000330826 9.34977e-05)
(-0.00117556 -0.000321503 0.000126344)
(-0.00122528 -0.000314262 0.000150971)
(-0.00125332 -0.000312269 0.000167659)
(-0.00125871 -0.000314864 0.000176448)
(-0.00124291 -0.000321139 0.000177994)
(-0.00121111 -0.000330008 0.000172812)
(-0.00117235 -0.000340254 0.000161743)
(-0.00112364 -0.000351361 0.000144371)
(-0.00107829 -0.000361955 0.000122076)
(-0.00104493 -0.000368694 9.66663e-05)
(-0.00102415 -0.000374234 7.0447e-05)
(-0.00101696 -0.000380424 4.65379e-05)
(-0.00102059 -0.000384657 2.58053e-05)
(-0.00103176 -0.000388229 8.06802e-06)
(-0.000446063 0.000120481 0.000166696)
(-0.000491373 5.20064e-05 -6.1371e-05)
(-0.00032385 1.22764e-05 -3.52764e-05)
(-0.000197125 -1.56565e-05 -3.06204e-05)
(-0.000204633 -6.69366e-05 -5.06044e-05)
(-0.00032247 -0.000149849 -6.51712e-05)
(-0.000522084 -0.000234849 -5.62071e-05)
(-0.00072692 -0.000284763 -2.18731e-05)
(-0.000904413 -0.000301474 2.42248e-05)
(-0.00103836 -0.000297631 7.06255e-05)
(-0.00113097 -0.000287482 0.000110965)
(-0.00118388 -0.000278649 0.000141914)
(-0.00120578 -0.000274815 0.00016286)
(-0.00120462 -0.000277147 0.000174747)
(-0.00118227 -0.000284662 0.000178456)
(-0.00113918 -0.000294604 0.000173759)
(-0.00109017 -0.000306363 0.000162566)
(-0.00103016 -0.000318134 0.000144123)
(-0.00097486 -0.000328455 0.000120249)
(-0.000934381 -0.000334919 9.35215e-05)
(-0.000909402 -0.000339894 6.66455e-05)
(-0.000900106 -0.000345096 4.29418e-05)
(-0.000903809 -0.000348718 2.31747e-05)
(-0.000915648 -0.000351822 7.06167e-06)
(-0.000441978 0.000125043 0.000151839)
(-0.000453111 5.51117e-05 -5.0473e-05)
(-0.000290448 1.63229e-05 -1.81784e-05)
(-0.00014146 -4.62306e-06 -1.06464e-05)
(-0.000107234 -3.5913e-05 -2.88378e-05)
(-0.000191473 -0.000105217 -6.13625e-05)
(-0.000371138 -0.000184286 -7.49749e-05)
(-0.000605055 -0.000245089 -5.39685e-05)
(-0.000812826 -0.000267947 -6.85054e-06)
(-0.000962938 -0.000264725 4.66213e-05)
(-0.00106181 -0.000252774 9.45546e-05)
(-0.00111865 -0.000243108 0.000132284)
(-0.00114265 -0.000240275 0.000158736)
(-0.0011358 -0.000243536 0.000173969)
(-0.00110225 -0.000252221 0.000179188)
(-0.00104816 -0.0002641 0.000174901)
(-0.000984965 -0.000276145 0.000162649)
(-0.000913183 -0.000287963 0.000142731)
(-0.000848103 -0.000297393 0.00011701)
(-0.000800082 -0.000302669 8.88234e-05)
(-0.000770341 -0.000306241 6.14023e-05)
(-0.000758797 -0.000309945 3.82678e-05)
(-0.000762568 -0.000312866 1.99157e-05)
(-0.00077561 -0.000315801 5.85712e-06)
(-0.000444275 0.000120273 0.000125355)
(-0.000420626 5.31805e-05 -3.77152e-05)
(-0.000249971 1.39303e-05 -3.77561e-07)
(-5.721e-05 -2.42071e-06 5.30772e-06)
(-2.06984e-05 -1.41099e-05 -1.48459e-06)
(-3.51746e-05 -4.18985e-05 -2.43782e-05)
(-0.000217862 -0.000138903 -8.85867e-05)
(-0.000470374 -0.000204215 -8.71848e-05)
(-0.00070646 -0.000233093 -3.82117e-05)
(-0.000879757 -0.000233567 2.39631e-05)
(-0.000991923 -0.000222931 8.06888e-05)
(-0.00104862 -0.000213127 0.000125228)
(-0.0010629 -0.00020985 0.000155671)
(-0.00104597 -0.000214088 0.000173385)
(-0.00100124 -0.000224214 0.000179763)
(-0.000933281 -0.000237091 0.000174946)
(-0.000858035 -0.000249447 0.000161416)
(-0.000772776 -0.000259833 0.000139208)
(-0.000697493 -0.000266989 0.000111274)
(-0.000643396 -0.00027031 8.18224e-05)
(-0.000610381 -0.000272027 5.4299e-05)
(-0.000597355 -0.000273986 3.23092e-05)
(-0.000601223 -0.000276193 1.59567e-05)
(-0.000614738 -0.000278892 4.4358e-06)
(-0.000426604 0.000105245 8.59709e-05)
(-0.000383649 4.82658e-05 -2.42809e-05)
(-0.000199456 9.64741e-06 1.32767e-05)
(-4.79728e-05 -5.22274e-06 2.30088e-05)
(2.4844e-05 -1.24829e-05 1.53156e-05)
(4.71491e-05 -2.58047e-05 -8.06637e-06)
(-1.89798e-05 -3.87784e-05 -3.64276e-05)
(-0.000307667 -0.000150519 -0.000112294)
(-0.000591621 -0.000195497 -6.63073e-05)
(-0.000782112 -0.00020083 5.6963e-06)
(-0.000897566 -0.000191604 6.94857e-05)
(-0.000954613 -0.000184142 0.000119559)
(-0.000966271 -0.000183419 0.000153975)
(-0.000939354 -0.000189403 0.000173464)
(-0.000881357 -0.00020059 0.000179882)
(-0.000799117 -0.000213782 0.000173604)
(-0.000707893 -0.000224226 0.000157128)
(-0.000612422 -0.000232329 0.000132461)
(-0.000529049 -0.000235862 0.000102225)
(-0.000469229 -0.00023535 7.16017e-05)
(-0.000433403 -0.000233845 4.45568e-05)
(-0.000419378 -0.000233586 2.4606e-05)
(-0.000423325 -0.000235161 1.11213e-05)
(-0.000437365 -0.000238118 2.77421e-06)
(-0.000435328 0.000104893 5.27838e-05)
(-0.000352904 4.76599e-05 -1.66528e-05)
(-0.000147842 1.27874e-05 2.03872e-05)
(-2.00775e-05 7.78072e-06 3.16515e-05)
(6.71387e-05 8.46587e-06 8.84463e-06)
(0.000100529 -1.56888e-05 -5.33142e-06)
(7.44255e-05 -1.37179e-05 -3.22843e-05)
(-0.000140217 -7.32746e-05 -0.00011508)
(-0.000470551 -0.000150231 -8.49198e-05)
(-0.000681833 -0.000167816 -2.85867e-06)
(-0.000803624 -0.000163709 6.54751e-05)
(-0.000854592 -0.000159566 0.000118517)
(-0.000853406 -0.000160678 0.000153776)
(-0.000812836 -0.000168053 0.000172909)
(-0.000738986 -0.000179269 0.000177394)
(-0.000643952 -0.000191594 0.0001686)
(-0.000542178 -0.00019948 0.000148894)
(-0.000435091 -0.000201584 0.000120084)
(-0.000345937 -0.000198738 8.75168e-05)
(-0.00028493 -0.000193423 5.68294e-05)
(-0.000249723 -0.000188349 3.1545e-05)
(-0.000236312 -0.000185972 1.49156e-05)
(-0.000240273 -0.000187225 5.36904e-06)
(-0.000253785 -0.000190653 8.83274e-07)
(-0.000431062 0.000106652 2.54181e-05)
(-0.000327251 4.92617e-05 -1.3668e-05)
(-0.000109247 1.76644e-05 2.23925e-05)
(3.49233e-06 1.45581e-05 2.13047e-05)
(0.000102567 2.22401e-05 -1.04114e-05)
(9.89186e-05 -1.48278e-05 -6.50236e-06)
(7.7715e-05 1.27784e-05 1.14314e-07)
(-1.93975e-05 -4.95502e-06 -4.21281e-05)
(-0.000345998 -9.66484e-05 -7.84344e-05)
(-0.000569851 -0.000132136 2.75612e-06)
(-0.000688812 -0.000135053 6.90174e-05)
(-0.00073371 -0.000136363 0.00012063)
(-0.00072323 -0.000140774 0.000154184)
(-0.000670006 -0.00014942 0.000170885)
(-0.000584492 -0.000160235 0.000172255)
(-0.000474917 -0.000168683 0.000158182)
(-0.000360454 -0.000169145 0.000132313)
(-0.000252002 -0.000164172 0.000100231)
(-0.000164593 -0.00015272 6.60294e-05)
(-0.000105483 -0.000138451 3.60053e-05)
(-7.36753e-05 -0.000126985 1.41974e-05)
(-6.23468e-05 -0.000121896 2.8559e-06)
(-6.59567e-05 -0.00012395 -1.29638e-06)
(-7.79459e-05 -0.00012943 -1.1774e-06)
(-0.000391725 0.000100137 3.65872e-06)
(-0.000297611 4.98078e-05 -1.18949e-05)
(-7.66107e-05 1.6423e-05 2.56546e-05)
(3.03193e-05 2.42913e-05 1.62916e-05)
(0.00015005 1.9597e-05 -3.27151e-05)
(0.000114211 -2.25545e-05 -5.03704e-07)
(9.62091e-05 1.51537e-05 2.50397e-05)
(5.3315e-06 1.79838e-05 -1.68333e-05)
(-0.000238152 -5.09799e-05 -4.81315e-05)
(-0.000455247 -9.94509e-05 2.35428e-05)
(-0.000570516 -0.000110801 8.14793e-05)
(-0.000604857 -0.000117033 0.000126851)
(-0.000581751 -0.000123646 0.000154584)
(-0.000514031 -0.000131705 0.0001651)
(-0.000411017 -0.00013757 0.000158087)
(-0.000296084 -0.000140059 0.00013834)
(-0.000182987 -0.000131747 0.000106726)
(-7.49853e-05 -0.000108522 6.63541e-05)
(-4.10709e-06 -7.49284e-05 2.98267e-05)
(2.29266e-05 -4.42345e-05 5.68841e-06)
(2.72063e-05 -2.76492e-05 -5.10749e-06)
(2.80363e-05 -2.31868e-05 -7.62003e-06)
(3.29394e-05 -2.86776e-05 -7.20327e-06)
(3.55908e-05 -3.86732e-05 -3.24328e-06)
(-0.000320505 8.67168e-05 -9.38023e-06)
(-0.000261961 5.12522e-05 -8.64008e-06)
(-6.54072e-05 1.71685e-05 2.88518e-05)
(5.92946e-05 6.47716e-05 2.5823e-05)
(0.000144189 1.02633e-05 -3.69038e-05)
(9.26286e-05 -2.54724e-05 9.41633e-06)
(7.20459e-05 2.24449e-06 3.4138e-05)
(1.28984e-05 1.90974e-05 1.6614e-05)
(-0.000151741 -2.36629e-05 4.74192e-06)
(-0.000335966 -7.35312e-05 5.40409e-05)
(-0.000438599 -9.029e-05 9.79707e-05)
(-0.000462242 -9.99005e-05 0.000132631)
(-0.000425145 -0.000106423 0.000149862)
(-0.000346355 -0.00011128 0.000150993)
(-0.000242768 -0.000112038 0.000136671)
(-0.000123726 -0.000100653 0.000104194)
(-1.82017e-05 -5.99281e-05 5.20297e-05)
(2.88626e-05 -2.8947e-05 2.31242e-05)
(5.07838e-05 -1.08636e-05 6.24427e-06)
(7.59261e-05 -5.80172e-07 -1.3257e-05)
(6.74245e-05 5.03094e-06 -2.43394e-05)
(7.97262e-05 8.34495e-06 -3.1725e-05)
(7.67506e-05 7.70553e-06 -2.3079e-05)
(7.88487e-05 4.91758e-06 -8.94024e-06)
(-0.000233224 7.14794e-05 -1.02164e-05)
(-0.000219855 5.16724e-05 -6.64563e-06)
(-6.04731e-05 2.20059e-05 2.48682e-05)
(3.79953e-05 7.15119e-05 1.93949e-05)
(0.000121564 5.63196e-06 -3.43672e-05)
(7.21803e-05 -2.86518e-05 1.16879e-05)
(8.19289e-05 -1.30107e-05 5.25246e-05)
(3.08461e-05 2.43831e-06 4.55312e-05)
(-7.8442e-05 -1.91324e-05 5.40193e-05)
(-0.000217844 -5.69642e-05 8.26212e-05)
(-0.000299907 -7.49862e-05 0.000111834)
(-0.000311299 -8.42338e-05 0.00013297)
(-0.000268983 -8.88705e-05 0.000138846)
(-0.00018471 -8.66912e-05 0.000126013)
(-6.95947e-05 -6.4114e-05 8.37458e-05)
(8.01644e-06 -3.81843e-05 5.24581e-05)
(4.75995e-05 -1.25746e-05 3.87864e-05)
(7.50734e-05 3.91212e-06 2.98439e-05)
(6.85717e-05 8.31088e-06 5.65603e-06)
(8.35262e-05 1.23352e-05 -1.8496e-05)
(8.5336e-05 1.55746e-05 -3.7824e-05)
(9.09034e-05 1.9411e-05 -4.55811e-05)
(6.73564e-05 1.58477e-05 -2.60689e-05)
(8.17953e-05 1.91184e-05 -1.2056e-05)
(-0.000145791 5.61028e-05 1.13682e-07)
(-0.000173191 5.03366e-05 -1.03843e-05)
(-7.2378e-05 3.31526e-05 1.93273e-05)
(7.03534e-06 6.93373e-05 7.6904e-06)
(8.66712e-05 7.248e-06 -3.73234e-05)
(7.70211e-05 -4.33797e-05 1.03853e-05)
(5.26338e-05 -1.85614e-05 3.74537e-05)
(2.97054e-05 -9.14304e-06 3.97949e-05)
(-1.85398e-05 -2.44193e-05 7.88745e-05)
(-0.000108637 -4.78253e-05 9.80857e-05)
(-0.000167716 -6.33954e-05 0.000116527)
(-0.00016564 -6.80698e-05 0.00012126)
(-0.000106577 -6.05063e-05 0.000102125)
(-2.38695e-05 -3.11059e-05 5.28084e-05)
(1.99694e-05 -2.08682e-05 5.65453e-05)
(3.10918e-05 4.99074e-07 3.79691e-05)
(4.33526e-05 4.76807e-06 3.83401e-05)
(0.000102256 1.06025e-06 5.09168e-05)
(0.000124178 -1.11968e-05 1.38065e-05)
(0.000124756 -1.63937e-05 -3.11661e-05)
(0.000117256 -1.25731e-05 -6.15172e-05)
(0.000107157 -5.74309e-06 -6.53868e-05)
(0.000107189 -7.27974e-07 -5.13299e-05)
(0.000100755 3.99435e-06 -1.82763e-05)
(-6.9858e-05 3.91314e-05 1.71974e-05)
(-0.000119497 4.76459e-05 -1.60299e-05)
(-8.23587e-05 4.25901e-05 5.05207e-06)
(-2.4319e-05 6.33829e-05 -9.47177e-06)
(3.97836e-05 2.7021e-06 -3.97579e-05)
(3.85871e-05 -3.02574e-05 3.03909e-06)
(6.49474e-05 -3.10224e-05 4.50104e-05)
(3.48614e-05 -1.40678e-05 3.62149e-05)
(1.66489e-05 -1.79639e-05 4.69411e-05)
(-1.06725e-05 -2.78065e-05 6.13009e-05)
(-2.8886e-05 -3.295e-05 6.75331e-05)
(-1.46518e-05 -2.06811e-05 4.3728e-05)
(2.26241e-06 -2.2233e-05 6.22618e-05)
(2.18856e-05 -4.52997e-06 5.67674e-05)
(4.04886e-05 8.05222e-06 7.90338e-05)
(6.95107e-05 7.15376e-06 0.000104301)