/*--------------------------------*- C++ -*----------------------------------*\
  =========                 |
  \\      /  F ield         | OpenFOAM: The Open Source CFD Toolbox
   \\    /   O peration     | Website:  https://openfoam.org
    \\  /    A nd           | Version:  6
     \\/     M anipulation  |
\*---------------------------------------------------------------------------*/
FoamFile
{
    version     2.0;
    format      ascii;
    class       volScalarField;
    location    "0.8";
    object      yPlus;
}
// * * * * * * * * * * * * * * * * * * * * * * * * * * * * * * * * * * * * * //

dimensions      [0 0 0 0 0 0 0];

internalField   uniform 0;

boundaryField
{
    inlet
    {
        type            calculated;
        value           uniform 0;
    }
    outlet
    {
        type            calculated;
        value           uniform 0;
    }
    roughCylinder
    {
        type            calculated;
        value           nonuniform List<scalar> 
3840
(
48.1732
56.5487
63.8563
70.0559
74.7298
78.3079
81.2139
83.743
86.0233
88.1317
90.1248
92.0556
93.9795
95.9445
97.9849
100.12
102.356
104.693
107.123
109.631
112.186
114.713
116.993
118.519
47.6656
55.7233
62.8321
68.9211
73.5445
77.0895
79.9825
82.4988
84.7528
86.8277
88.7812
90.6686
92.547
94.465
96.4574
98.5426
100.729
103.015
105.392
107.845
110.345
112.818
115.049
116.541
47.1021
54.8815
61.8067
67.7879
72.3645
75.8877
78.7756
81.2808
83.5104
85.5521
87.467
89.312
91.1458
93.0179
94.963
97.0001
99.1368
101.372
103.697
106.099
108.545
110.965
113.148
114.608
46.5149
54.0462
60.7974
66.6763
71.2121
74.7218
77.6102
80.1059
82.3131
84.3224
86.1995
88.0029
89.793
91.62
93.5189
95.5088
97.5973
99.7828
102.058
104.407
106.802
109.17
111.306
112.734
45.9287
53.2272
59.809
65.5896
70.09
73.5928
76.4847
78.9733
81.1626
83.1396
84.9797
86.7427
88.4903
90.2734
92.1276
94.0716
96.1129
98.2507
100.476
102.776
105.119
107.437
109.528
110.925
45.3581
52.4319
58.8463
64.5318
69.0017
72.5009
75.3978
77.8816
80.0554
82.0024
83.8071
85.5308
87.2373
88.9782
90.789
92.6887
94.685
96.776
98.9548
101.205
103.5
105.768
107.816
109.183
44.8094
51.6641
57.9113
63.504
67.9466
71.4459
74.3489
76.8302
78.9912
80.9119
82.6825
84.3686
86.0355
87.7356
89.5046
91.3616
93.314
95.36
97.4928
99.6964
101.943
104.165
106.17
107.509
44.2855
50.9254
57.0043
62.5058
66.9238
70.4264
73.3365
75.8179
77.9688
79.8671
81.606
83.2563
84.8851
86.5461
88.2751
90.091
92.0015
94.0047
96.093
98.2515
100.452
102.629
104.593
105.905
43.7832
50.2139
56.1235
61.5347
65.9314
69.4407
72.3593
74.8436
76.9876
78.8694
80.5786
82.1948
83.7877
85.4113
87.1018
88.8781
90.7475
92.7089
94.7547
96.8701
99.0268
101.16
103.085
104.371
43.2999
49.5276
55.2665
60.5876
64.9662
68.4857
71.4151
73.9053
76.0464
77.9157
79.5988
81.1837
82.7422
84.3302
85.984
87.7227
89.5535
91.475
93.48
95.5531
97.6673
99.7594
101.647
102.908
42.8304
48.863
54.4302
59.6608
64.0249
67.5591
70.5021
73.0019
75.1439
77.0046
78.667
80.223
81.7499
83.3042
84.9228
86.6248
88.4176
90.3005
92.2658
94.2985
96.3725
98.4242
100.277
101.514
42.3732
48.2181
53.6121
58.7501
63.1024
66.6559
69.6174
72.1308
74.2781
76.1341
77.7805
79.3111
80.8082
82.3307
83.9159
85.583
87.34
89.1858
91.1123
93.1056
95.1397
97.1533
98.972
100.187
41.9263
47.5899
52.8086
57.8507
62.1939
65.774
68.7585
71.29
73.4471
75.3023
76.9369
78.4466
79.9174
81.4099
82.9627
84.5954
86.3164
88.1251
90.0147
91.9689
93.9647
95.9414
97.7282
98.9225
41.4912
46.9772
52.0165
56.9569
61.2925
64.9049
67.9204
70.4758
72.6476
74.5066
76.1334
77.6257
79.0727
80.537
82.0586
83.6575
85.3432
87.1158
88.9683
90.8849
92.8437
94.7852
96.5414
97.7164
41.0681
46.3777
51.2319
56.0621
60.3902
64.0421
67.0993
69.6847
71.8765
73.7439
75.3674
76.8456
78.2708
79.7083
81.1996
82.7655
84.4166
86.1534
87.9699
89.8503
91.7734
93.6809
95.4085
96.5654
40.6533
45.7876
50.4505
55.159
59.4772
63.1766
66.2864
68.9112
71.1292
73.0102
74.6346
76.1023
77.5079
78.9201
80.3821
81.9156
83.5325
85.2343
87.0158
88.8608
90.7492
92.6246
94.3252
95.4652
40.2377
45.2033
49.6669
54.2389
58.542
62.2977
65.4749
68.1489
70.4012
72.3013
73.9314
75.3919
76.7802
78.1682
79.6014
81.1032
82.6863
84.3535
86.1005
87.9109
89.7664
91.6106
93.286
94.4107
39.8156
44.6206
48.8747
53.2919
57.5705
61.3914
64.6512
67.3899
69.6847
71.6107
73.2513
74.7085
76.0819
77.4472
78.8521
80.3223
81.872
83.505
85.2178
86.9945
88.8176
90.6325
92.2841
93.3955
39.382
44.0323
48.0666
52.3065
56.5458
60.4396
63.8006
66.6222
68.973
70.9327
72.5894
74.0468
75.4076
76.7508
78.1279
79.5668
81.0828
82.6816
84.3605
86.1044
87.8962
89.6832
91.3126
92.4116
38.9279
43.4283
47.2332
51.2693
55.4474
59.4195
62.9044
65.8327
68.254
70.2572
71.9361
73.3981
74.7487
76.0716
77.4206
78.8276
80.3099
81.8744
83.5195
85.2306
86.9924
88.7529
90.3618
91.4505
38.4417
42.7953
46.3619
50.1636
54.2496
58.3006
61.9372
65.0011
67.516
69.5756
71.2846
72.7555
74.0983
75.4005
76.7214
78.096
79.5435
81.0732
82.6848
84.3635
86.0957
87.8308
89.4209
90.5012
37.9071
42.1161
45.4368
48.9691
52.921
57.0458
60.8646
64.1021
66.7399
68.8726
70.6211
72.1063
73.4436
74.7265
76.0183
77.3586
78.7711
80.2651
81.8422
83.4878
85.1911
86.9027
88.4757
89.5498
37.2967
41.3678
44.4357
47.6601
51.4214
55.5992
59.6401
63.1029
65.9023
68.1336
69.934
71.4399
72.7741
74.0366
75.2976
76.6023
77.9764
79.4337
80.9764
82.5896
84.2648
85.9535
87.5112
88.5813
36.5792
40.5198
43.3287
46.1999
49.6942
53.8967
58.1961
61.9561
64.9722
67.3349
69.2049
70.7384
72.072
73.314
74.5419
75.8068
77.1425
78.5607
80.0661
81.6449
83.2923
84.9604
86.505
87.5747
35.7129
39.5299
42.0764
44.5511
47.6839
51.8274
56.4415
60.5918
63.9045
66.4467
68.41
69.9825
71.3179
72.5372
73.7272
74.9499
76.2395
77.617
79.0859
80.6315
82.2515
83.8995
85.4331
86.5066
34.644
38.3512
40.6372
42.6697
45.3234
49.2985
54.2253
58.9191
62.6439
65.4321
67.5242
69.1475
70.4869
71.6799
72.8286
73.9995
75.2442
76.5762
78.0017
79.5101
81.1036
82.7348
84.2608
85.3417
33.2962
36.9131
38.9387
40.4733
42.495
46.1334
51.3807
56.7586
61.0922
64.233
66.498
68.1921
69.5389
70.7017
71.7968
72.9129
74.097
75.381
76.766
78.24
79.8071
81.4231
82.9456
84.0436
31.568
35.1301
36.9065
37.8898
39.0851
42.1227
47.6564
53.944
59.1255
62.7801
65.2942
67.0808
68.4342
69.5561
70.5919
71.6329
72.7611
73.9891
75.3186
76.7521
78.2974
79.9054
81.4287
82.5496
29.3103
32.8731
34.4104
34.7642
34.8363
36.8229
42.5873
50.1535
56.5475
60.9555
63.8136
65.7259
67.09
68.1593
69.1098
70.0719
71.1115
72.2812
73.5644
74.9624
76.4854
78.0884
79.6263
80.7926
26.3452
29.9936
31.3233
30.9793
29.5167
29.6216
35.4837
44.956
53.1485
58.6183
61.9769
64.0564
65.4187
66.412
67.2606
68.1011
69.0674
70.1663
71.3682
72.7298
74.2525
75.8732
77.4296
78.6551
22.4963
26.3417
27.4906
26.3569
22.4781
16.6628
23.8874
37.6635
48.6394
55.5992
59.6028
61.8925
63.2498
64.1234
64.8208
65.5318
66.352
67.3908
68.5391
69.8632
71.3809
73.0219
74.6367
75.9827
18.064
22.0297
22.8965
20.7411
16.1121
20.2234
12.8609
27.1975
42.7453
51.7429
56.5583
59.0537
60.3279
61.0307
61.5403
62.0484
62.7851
63.7514
64.7514
66.0634
67.6481
69.3711
71.0387
72.5462
14.4771
18.4779
18.7424
15.5222
7.59643
16.2756
2.75841
12.6309
35.9083
46.8768
52.5529
55.2429
56.3841
56.7575
56.9863
57.2903
57.7583
58.7796
59.7618
60.9648
62.6436
64.4838
66.2706
68.0704
13.0449
16.5677
17.1974
19.5581
22.0309
19.4189
18.8885
23.1299
27.8509
41.0961
47.101
49.7133
50.346
50.2835
50.2622
50.2438
50.6288
51.8998
52.5031
53.6629
55.752
57.9669
59.7512
62.0576
12.703
15.7108
20.648
25.5741
25.7936
24.0541
25.7194
28.4236
29.7637
33.7058
40.0023
41.9458
41.8721
40.4931
40.3625
40.5887
39.6409
42.5341
43.7242
43.059
46.0988
48.6904
50.4641
53.9584
11.6092
13.7187
14.2363
20.6752
26.7096
21.1882
20.8311
31.9138
35.2567
28.4751
22.8228
24.5732
18.6647
15.5651
20.0571
20.7864
18.9848
28.5399
27.0029
21.6098
31.3135
42.4541
35.8698
41.9651
12.609
16.095
19.8328
24.6259
27.5006
27.5471
23.1609
22.1396
32.7957
20.4058
14.8106
9.78358
16.7505
11.5769
28.2987
30.7325
8.29929
35.8518
36.5673
20.7343
22.6975
48.6269
41.2452
33.2837
16.1779
21.597
26.2932
30.7352
33.4083
33.9213
33.2951
34.0784
36.6373
35.7473
33.0058
35.2979
36.097
36.1989
38.4922
42.8252
31.6576
38.5615
38.6835
21.6658
37.1238
41.871
27.7344
43.8435
20.3184
26.1048
30.7335
34.8725
37.4104
38.1653
38.1151
38.388
40.4305
43.7808
44.6612
48.7748
51.5282
53.4147
47.1831
46.9541
45.3883
38.6414
24.1274
39.6842
42.5118
29.9058
31.6003
42.1483
23.5753
28.8939
32.9531
36.5567
39.1349
40.3858
40.6172
41.0707
42.5466
45.214
49.9047
54.2287
56.4931
57.3776
55.1878
51.3912
52.2695
47.3673
46.8853
48.9804
42.3632
40.7947
44.0012
38.4518
20.6509
15.1986
4.98236
7.13175
9.8203
15.8505
23.4196
25.3478
25.3279
24.4887
23.1686
21.9372
20.9661
20.3758
20.1087
19.924
19.9354
19.8751
19.8608
19.7833
19.7833
19.8556
19.8685
19.9205
19.9175
20.0915
20.3585
20.9889
21.8806
23.253
24.4384
25.4832
25.379
23.4806
15.9132
11.76
10.9097
2.42205
13.3926
18.9199
26.0194
19.1343
8.35508
10.9112
13.9832
26.7401
30.0147
32.9128
32.7586
32.5246
30.8561
29.3602
27.7928
26.7161
26.1285
25.7861
25.6733
25.5765
25.5164
25.4257
25.425
25.509
25.5659
25.6547
25.7724
26.1029
26.698
27.7886
29.3165
30.9065
32.4924
32.9196
33.0253
30.2089
27.2115
13.7702
8.57043
14.1846
18.05
24.8801
29.7421
22.814
7.06668
11.1724
20.7278
32.363
34.6735
37.9649
37.7271
37.7193
35.8241
34.0492
32.0721
30.6523
29.8412
29.4114
29.2668
29.1902
29.1503
29.084
29.0831
29.1416
29.1769
29.2447
29.3933
29.8093
30.6333
32.0547
34.0155
35.8649
37.7147
37.9042
38.132
35.034
32.6057
22.361
7.81302
16.4827
21.6098
28.9907
32.6549
25.402
5.11147
11.6515
27.6542
35.9799
38.7603
41.836
41.6879
41.7134
39.8288
37.9117
35.7174
34.0054
32.9804
32.4545
32.2842
32.2294
32.2149
32.1712
32.17
32.205
32.214
32.2595
32.4336
32.9441
33.9879
35.6916
37.8912
39.8634
41.7414
41.8666
42.0819
39.1094
36.5497
27.8165
13.0358
18.7981
24.7808
32.454
34.9187
27.0348
6.8845
14.1968
31.5102
38.5684
41.8634
44.672
44.6991
44.657
42.9352
40.9962
38.7608
36.8464
35.644
35.0284
34.8404
34.8113
34.8248
34.8009
34.7993
34.8136
34.7941
34.8132
35.0063
35.6038
36.8334
38.7262
40.9927
42.9599
44.7155
44.8747
44.9614
42.2191
39.2752
31.3313
17.6052
6.03185
27.5043
35.3271
36.9943
28.988
11.1312
16.3668
33.2791
40.6034
43.9905
46.6985
46.8243
46.7347
45.1908
43.3504
41.2271
39.2368
37.9348
37.267
37.0854
37.0974
37.1476
37.1452
37.143
37.1354
37.0789
37.0563
37.2438
37.8926
39.2259
41.1909
43.3535
45.2211
46.7877
47.0397
46.9126
44.511
40.9915
33.9106
18.2137
20.9976
29.9036
37.1233
38.2538
30.0837
11.6932
19.1008
35.0857
42.0453
45.4803
47.9999
48.187
48.0618
46.6587
45.0141
43.0821
41.2023
39.9158
39.2749
39.1476
39.2285
39.3298
39.3542
39.3516
39.3167
39.2086
39.1169
39.2507
39.8724
41.1923
43.0486
45.0149
46.7044
48.0818
48.4525
48.0926
46.124
42.1991
35.3724
23.0495
25.0242
29.3299
36.9052
38.4404
28.9983
12.6599
24.9259
37.4325
43.0275
46.4997
48.5562
48.8226
48.6331
47.3572
46.0027
44.3208
42.7636
41.6335
41.1478
41.1396
41.3236
41.4902
41.5465
41.5435
41.4764
41.3021
41.1084
41.1187
41.5963
42.7407
44.3068
45.9762
47.4319
48.6068
49.0914
48.5992
47.0535
43.1816
38.0182
25.6646
25.71
28.2135
36.4245
39.5166
29.6575
21.6274
31.1787
39.3548
43.6605
46.7642
48.2786
48.6395
48.3709
47.3679
46.3568
45.0677
43.988
43.1983
42.9996
43.172
43.4767
43.7096
43.7956
43.7922
43.6952
43.4535
43.1409
42.9639
43.165
43.9518
45.064
46.3119
47.4344
48.3454
48.813
48.3888
47.042
44.0534
39.5381
32.1929
24.3849
28.0631
37.7975
43.3727
33.97
29.1872
35.2971
40.1149
43.5123
45.9471
47.1707
47.6014
47.4702
46.9161
46.3628
45.6461
45.1454
44.8475
44.9913
45.3496
45.7456
46.0165
46.1158
46.1124
46.0014
45.7218
45.3156
44.9531
44.8087
45.1008
45.633
46.314
46.9399
47.4623
47.6645
47.2992
46.0688
43.8567
40.307
35.7532
29.9794
32.8783
41.9664
47.7467
38.6776
34.3083
37.6436
40.2084
43.1063
44.9714
46.1577
46.7088
46.9228
46.8779
46.8483
46.727
46.7574
46.9074
47.2993
47.7441
48.1446
48.3923
48.4753
48.4718
48.3772
48.1199
47.7109
47.2539
46.8689
46.6983
46.702
46.793
46.8626
46.907
46.7144
46.2279
45.0541
43.2982
40.4627
37.8579
34.6791
37.9228
46.4818
51.3887
42.9595
39.0012
40.1879
41.7639
44.2366
45.7497
46.9027
47.5673
48.027
48.3395
48.6355
48.8859
49.2087
49.5562
49.9823
50.3597
50.6546
50.8124
50.8478
50.8445
50.798
50.6308
50.3293
49.937
49.5169
49.1502
48.8477
48.5835
48.3049
48.0024
47.5557
46.9378
45.82
44.3799
41.9954
40.4586
39.2725
42.8965
50.7815
53.6547
46.6315
43.2102
43.6743
44.9641
47.1194
48.4408
49.531
50.2304
50.7698
51.22
51.6112
51.975
52.3213
52.6376
52.9233
53.1321
53.2582
53.2942
53.2677
53.2649
53.2813
53.2375
53.1052
52.8873
52.5992
52.279
51.9318
51.5786
51.1821
50.7608
50.2201
49.5751
48.5131
47.2645
45.2085
43.9506
43.6313
46.8425
53.8449
54.9616
49.0107
46.2355
46.6108
47.9932
50.0511
51.4157
52.5444
53.3127
53.9262
54.4291
54.8615
55.2352
55.5303
55.7502
55.8861
55.9401
55.9253
55.8627
55.787
55.7848
55.8519
55.9087
55.9183
55.8597
55.7205
55.5004
55.2061
54.8381
54.4138
53.9234
53.334
52.5945
51.518
50.2098
48.2409
46.9722
46.6511
49.6622
55.6327
55.4636
50.908
48.0224
48.3999
49.8344
51.923
53.5153
54.7868
55.7316
56.4673
57.0672
57.5737
57.9843
58.2903
58.4845
58.573
58.5692
58.5002
58.3981
58.3025
58.3009
58.389
58.4867
58.5521
58.5527
58.4632
58.2677
57.9663
57.558
57.064
56.4741
55.7641
54.8482
53.6204
52.0731
50.0551
48.5914
48.2445
50.6168
55.2116
55.9835
52.1647
49.3185
49.2782
50.7484
52.8135
54.6757
56.1187
57.2788
58.1585
58.8808
59.4814
59.9725
60.3441
60.5896
60.7153
60.737
60.6833
60.5898
60.4981
60.4966
60.5812
60.6705
60.7206
60.6957
60.5678
60.3219
59.9505
59.4655
58.8689
58.1674
57.2993
56.1903
54.7651
52.99
50.9418
49.5206
49.2717
51.5827
54.2933
55.2923
53.3825
50.9257
50.4936
51.678
53.5849
55.4854
57.0474
58.3035
59.2961
60.0934
60.7673
61.319
61.7521
62.0535
62.2298
62.2936
62.2708
62.1965
62.1136
62.1119
62.1872
62.2568
62.2751
62.2072
62.0275
61.7237
61.2907
60.7412
60.076
59.2914
58.3245
57.0978
55.5778
53.7214
51.8392
50.5768
50.6854
52.6631
54.8482
55.6856
54.7703
52.6092
52.1893
53.0447
54.755
56.5481
58.1039
59.3546
60.3491
61.1458
61.8197
62.3773
62.8188
63.1336
63.3238
63.4005
63.3863
63.3152
63.2329
63.231
63.306
63.3723
63.382
63.3016
63.1087
62.7929
62.3526
61.8
61.1359
60.3572
59.3886
58.1728
56.6508
54.8808
53.0953
51.9052
51.4942
52.4387
51.7827
55.4493
54.8644
54.1198
54.065
55.0238
56.5444
58.1608
59.5853
60.7237
61.6281
62.3483
62.9617
63.4691
63.8695
64.1509
64.3144
64.3697
64.3376
64.2509
64.159
64.157
64.2422
64.3245
64.3534
64.2964
64.1333
63.8548
63.4603
62.9621
62.3633
61.6649
60.7945
59.7066
58.3378
56.8064
55.2963
54.3468
54.0231
54.3516
53.7005
55.2401
55.853
55.5191
56.0334
57.2274
58.68
60.1696
61.4073
62.3884
63.1397
63.7555
64.2749
64.7055
65.0361
65.2583
65.3724
65.3887
65.3272
65.2197
65.1183
65.1211
65.2258
65.3387
65.4079
65.4026
65.3032
65.0986
64.7861
64.3723
63.8593
63.2406
62.4501
61.4099
60.0167
58.3231
56.4309
54.783
53.4066
53.5819
52.0152
48.0862
52.514
53.6381
55.8818
57.9516
59.9598
61.6484
62.983
63.946
64.6551
65.2122
65.6659
66.0228
66.2778
66.428
66.4788
66.4439
66.3439
66.2097
66.0934
66.0933
66.2077
66.3419
66.444
66.4841
66.4418
66.3031
66.061
65.7167
65.2719
64.7195
64.0052
63.0319
61.6723
59.9571
57.9286
55.8831
53.8689
52.9055
49.6988
51.43
54.8317
55.5566
57.5292
59.5883
61.5347
63.1391
64.3837
65.2585
65.9115
66.4157
66.8156
67.1113
67.3017
67.3889
67.3842
67.3052
67.1742
67.0212
66.8969
66.8956
67.0156
67.165
67.2939
67.3733
67.3815
67.301
67.1199
66.8354
66.4488
65.9615
65.3326
64.4968
63.3125
61.7927
59.9815
58.0192
56.3251
54.7247
52.6743
52.0541
55.768
57.7316
60.1086
62.1581
63.8301
65.1271
66.0314
66.6527
67.1182
67.488
67.7724
67.9626
68.0538
68.0516
67.9716
67.8345
67.6631
67.4859
67.3509
67.349
67.4785
67.6499
67.8166
67.951
68.0307
68.0346
67.9458
67.7564
67.4689
67.088
66.6024
65.9413
64.9964
63.6176
61.9648
59.8855
57.9437
56.6232
53.1842
46.5464
54.0045
56.8208
59.6451
62.0808
63.9843
65.4208
66.4316
67.0981
67.5889
67.9493
68.2019
68.3393
68.3666
68.2984
68.1584
67.972
67.7636
67.5603
67.4088
67.406
67.5502
67.7458
67.9471
68.1283
68.2651
68.3318
68.3032
68.1618
67.8985
67.5141
66.979
66.23
65.0954
63.4454
61.3337
58.4629
55.7615
52.7614
45.745
48.1121
56.513
63.8341
70.0431
74.7222
78.3025
81.2098
83.7397
86.0207
88.13
90.1238
92.0552
93.9792
95.9439
97.9838
100.118
102.353
104.689
107.117
109.623
112.176
114.701
116.978
118.501
47.6083
55.6845
62.8039
68.8994
73.5269
77.0746
79.9693
82.4866
84.7414
86.817
88.7711
90.6591
92.5379
94.4561
96.4482
98.5332
100.719
103.004
105.38
107.834
110.332
112.803
115.032
116.523
47.0476
54.8433
61.7787
67.7675
72.3485
75.8743
78.7638
81.2699
83.5001
85.5422
87.4574
89.3028
91.1367
93.0086
94.9535
96.9902
99.1264
101.361
103.685
106.086
108.53
110.949
113.13
114.588
46.4632
54.008
60.7688
66.6559
71.1968
74.7093
77.5992
80.0956
82.3033
84.3128
86.1902
87.9937
89.7837
91.6104
93.5089
95.4984
97.5861
99.7713
102.046
104.394
106.786
109.153
111.287
112.713
45.8782
53.1888
59.7801
65.5693
70.0752
73.581
76.4743
78.9636
81.1532
83.1304
84.9704
86.7333
88.4807
90.2636
92.1172
94.0607
96.1013
98.2385
100.463
102.762
105.103
107.42
109.508
110.904
45.3075
52.3933
58.8175
64.5118
68.9875
72.4897
75.388
77.8723
80.0463
81.9932
83.7979
85.5213
87.2276
88.968
90.7782
92.6773
94.6731
96.7634
98.9407
101.191
103.483
105.751
107.795
109.161
44.7581
51.6255
57.8831
63.4848
67.9331
71.4353
74.3396
76.8213
78.9824
80.9028
82.6732
84.3589
86.0254
87.725
89.4935
91.3497
93.3013
95.3466
97.4784
99.6814
101.926
104.147
106.149
107.486
44.2334
50.8868
56.9769
62.4874
66.9111
70.4165
73.3277
75.8094
77.9602
79.8582
81.5967
83.2464
84.8748
86.5352
88.2635
90.0787
91.988
93.9906
96.0779
98.2358
100.435
102.61
104.571
105.881
43.7309
50.1756
56.0968
61.5173
65.9196
69.4314
72.351
74.8355
76.9792
78.8606
80.5692
82.1849
83.777
85.4
87.0898
88.8653
90.7341
92.6949
94.7398
96.8542
99.0087
101.141
103.063
104.346
43.2475
49.4897
55.2406
60.571
64.955
68.477
71.4072
73.8975
76.0382
77.9069
79.5893
81.1736
82.7313
84.3187
85.9717
87.7095
89.5397
91.4602
93.4643
95.5369
97.6486
99.7391
101.623
102.882
42.7785
48.8255
54.4049
59.645
64.0144
67.5509
70.4947
72.9943
75.1359
76.9959
78.6575
80.2126
81.7387
83.2922
84.9101
86.6112
88.4035
90.2854
92.2497
94.282
96.3531
98.4036
100.252
101.488
42.3221
48.1811
53.5873
58.735
63.0925
66.6483
69.6104
72.1235
74.2703
76.1255
77.7709
79.3007
80.7969
82.3185
83.9028
85.5691
87.3252
89.1703
91.0963
93.0887
95.1204
97.1324
98.9469
100.16
41.8765
47.5536
52.7844
57.8361
62.1846
65.7669
68.7518
71.283
73.4395
75.2938
76.9273
78.4359
79.9058
81.3974
82.9493
84.5811
86.3012
88.1097
89.998
91.9521
93.945
95.9202
97.7023
98.8943
41.443
46.9418
51.9929
56.943
61.2839
64.8983
67.9142
70.4692
72.64
74.498
76.1238
77.615
79.061
80.5243
82.0449
83.6428
85.3276
87.0996
88.9512
90.8682
92.8237
94.7636
96.5152
97.6871
41.0216
46.3432
51.2089
56.0488
60.3823
64.0361
67.0935
69.6785
71.8694
73.7356
75.3578
76.8348
78.2588
79.6953
81.1857
82.7506
84.4007
86.1372
87.9528
89.8339
91.753
93.6594
95.3819
96.5354
40.6087
45.7543
50.4281
55.1462
59.4699
63.1712
66.2812
68.9053
71.1223
73.0019
74.625
76.0914
77.4961
78.907
80.3678
81.9004
83.5163
85.2179
86.9987
88.8448
90.7291
92.603
94.2979
95.4347
40.1951
45.1711
49.6452
54.2268
58.5354
62.293
65.4702
68.1435
70.3946
72.2935
73.9221
75.3812
76.768
78.155
79.587
81.0877
82.6699
84.3369
86.0833
87.8953
89.7459
91.589
93.2582
94.379
39.7748
44.5896
48.8537
53.2804
57.5647
61.3876
64.6474
67.3851
69.6786
71.6031
73.242
74.6978
76.0701
77.4338
78.8375
80.3067
81.8551
83.4883
85.2005
86.9797
88.7975
90.6112
92.2562
93.3628
39.3432
44.0028
48.0466
52.2959
56.541
60.4368
63.7976
66.6181
68.9675
70.9257
72.5808
74.0365
75.3955
76.7376
78.1133
79.5507
81.0658
82.6649
84.3437
86.0904
87.8763
89.6621
91.2845
92.378
38.8912
43.4001
47.2142
51.2595
55.4439
59.4182
62.9028
65.8298
68.2493
70.2506
71.9277
73.388
74.7374
76.0583
77.406
78.8118
80.2923
81.8577
83.5032
85.2181
86.9727
88.732
90.3334
91.4158
38.4078
42.7693
46.3446
50.1556
54.2479
58.3011
61.9369
64.9992
67.5122
69.5699
71.2771
72.7462
74.0867
75.3878
76.7068
78.0793
79.5259
81.0568
82.669
84.3523
86.0771
87.811
89.3922
90.4654
37.8761
42.0923
45.421
48.9624
52.9212
57.0486
60.8667
64.1023
66.7377
68.8679
70.614
72.0974
73.4333
74.7138
76.0037
77.3428
78.7524
80.2484
81.8273
83.4794
85.1735
86.8838
88.4471
89.5131
37.2698
41.3478
44.4234
47.6571
51.4255
55.6055
59.6449
63.1048
65.9014
68.1303
69.9286
71.4321
72.764
74.0248
75.2834
76.5851
77.958
79.4179
80.9626
82.5832
84.2483
85.936
87.4821
88.5428
36.5567
40.5034
43.3188
46.1988
49.7013
53.9072
58.2051
61.9616
64.9742
67.3335
69.2005
70.732
72.0637
73.3029
74.5276
75.7911
77.1218
78.5437
80.0542
81.6434
83.2775
84.9439
86.4758
87.534
35.6966
39.5203
42.0739
44.5583
47.6999
51.8467
56.4576
60.6018
63.9092
66.448
68.4084
69.9776
71.3103
72.5269
73.7145
74.9319
76.2197
77.602
79.0757
80.6331
82.2387
83.8856
85.4038
86.4629
34.6349
38.3472
40.6382
42.6791
45.3425
49.3235
54.2484
58.9355
62.6537
65.4362
67.5244
69.1459
70.4823
71.6724
72.8143
73.9837
75.2186
76.5577
77.9955
79.5203
81.0932
82.7226
84.2316
85.2944
33.2987
36.9216
38.9546
40.5012
42.5367
46.1827
51.4244
56.7883
61.1088
64.243
66.5034
68.1922
69.5363
70.6943
71.7869
72.8935
74.0746
75.3664
76.7627
78.2552
79.8008
81.4156
82.9164
83.9904
31.5844
35.1504
36.9309
37.923
39.1318
42.1798
47.7111
53.9859
59.1528
62.7954
65.3031
67.0885
68.4374
69.5555
70.5771
71.6162
72.7217
73.965
75.3248
76.7832
78.2942
79.899
81.4002
82.4899
29.3542
32.9213
34.4694
34.8467
34.9571
36.9767
42.7165
50.2348
56.5926
60.9832
63.8324
65.7357
67.0973
68.1601
69.1052
70.0477
71.0847
72.2625
73.5747
75.0028
76.4906
78.092
79.5965
80.7186
26.4217
30.0744
31.4172
31.1044
29.696
29.7986
35.7003
45.0727
53.2158
58.6579
62.0044
64.0839
65.4407
66.4265
67.2442
68.0812
68.9884
70.1223
71.4052
72.8023
74.2615
75.8742
77.4046
78.57
22.6423
26.4947
27.684
26.6597
23.0522
19.8971
25.248
38.0202
48.7447
55.6615
59.6494
61.9241
63.2817
64.1506
64.8257
65.4881
66.3185
67.3414
68.576
69.9565
71.4091
73.0438
74.6062
75.857
18.2797
22.2899
23.3368
21.6562
20.8606
25.9364
15.3338
27.118
42.8977
51.8197
56.6201
59.1266
60.4021
61.092
61.5128
62.007
62.5883
63.6266
64.8656
66.2245
67.6786
69.369
71.0318
72.4052
14.5131
18.5832
18.9985
22.3383
26.4428
22.3808
20.746
24.8041
35.936
47.0032
52.6451
55.3249
56.4888
56.8842
57.013
57.1456
57.7448
58.549
59.7759
61.1889
62.7199
64.4973
66.2482
67.8119
12.5334
16.1859
16.6341
20.1458
26.1092
16.9314
28.7044
33.7121
30.9055
40.991
47.2398
49.9079
50.6319
50.5888
50.1512
49.9711
50.019
51.2474
52.5915
54.0563
55.8307
57.7456
59.8493
61.8089
11.3389
14.5815
16.3817
19.8138
24.5314
20.189
23.9
32.7136
24.2929
33.7396
39.8382
42.1358
42.3109
41.4639
40.5567
38.8944
41.1017
40.0868
41.8827
43.8153
46.3093
48.0988
50.4769
53.181
11.7347
15.6433
19.6755
24.4616
26.3221
23.2504
24.3936
25.1188
27.6367
18.8606
23.4625
25.1391
21.6302
20.2973
17.7312
19.9007
12.9045
29.9426
21.6962
23.3181
31.3401
33.4231
38.1385
43.0336
13.9268
18.314
21.7547
25.6384
28.0697
27.5738
26.3348
25.5101
18.3323
24.9291
25.2154
16.7397
23.3405
25.07
27.3949
36.2256
24.7817
39.9922
25.6657
25.4854
25.322
41.7558
39.1454
20.828
17.4762
23.4872
28.1309
31.9025
33.5036
33.1802
31.5095
29.8943
30.1007
28.1915
33.6728
32.541
36.9256
37.5298
38.4487
34.3966
35.6154
37.139
25.072
20.5656
39.6639
30.8806
21.7401
31.4048
20.0711
26.1811
30.894
35.0158
37.7291
38.9783
39.3306
39.6692
41.081
43.8965
45.5325
49.7856
50.2809
49.3617
47.9998
49.0891
41.4636
41.5482
40.91
34.6705
42.4697
34.7633
33.2746
38.1161
23.9017
29.1014
33.0022
36.4803
39.1685
40.9457
41.8388
42.5157
44.2295
47.5614
51.3558
54.2067
56.0472
56.291
55.9418
55.1625
53.5708
53.2423
50.0714
50.7554
40.5778
46.3581
38.3214
32.9578
47.8782
46.1467
45.1106
43.4943
42.4279
40.9111
39.8462
38.358
37.3148
35.955
34.9012
33.6895
32.7039
31.6063
30.7381
29.9118
29.1829
28.5609
28.0871
27.5364
27.5366
28.088
28.5637
29.1986
29.8827
30.7527
31.6692
32.7361
33.7148
34.9151
35.9742
37.339
38.3879
39.8744
40.9697
42.5079
43.5462
45.1653
46.2037
47.9495
56.4497
54.8525
53.8323
52.3392
51.2939
49.9277
48.8767
47.6197
46.5964
45.4483
44.4882
43.4879
42.5705
41.7112
41.0683
40.3314
39.721
39.2054
38.8192
38.5624
38.5626
38.8194
39.2066
39.7219
40.3534
40.9332
41.6996
42.5783
43.4999
44.5006
45.464
46.6149
47.6391
48.9054
49.9619
51.344
52.3965
53.8848
54.9005
56.4999
63.8884
62.357
61.349
59.9158
58.8726
57.551
56.5053
55.3054
54.2904
53.2065
52.2559
51.2891
50.4156
49.5947
48.8881
48.2047
47.6281
47.1521
46.8037
46.6072
46.6074
46.8038
47.1527
47.6283
48.2137
48.8467
49.5854
50.4189
51.2968
52.266
53.22
54.3063
55.3223
56.5298
57.5759
58.9052
59.9567
61.3904
62.3971
63.9301
70.122
68.5757
67.5192
66.0671
64.9774
63.639
62.5567
61.3462
60.3092
59.2303
58.2685
57.3115
56.4449
55.6278
54.897
54.2391
53.6844
53.2368
52.9162
52.7418
52.742
52.9165
53.2374
53.6854
54.2418
54.893
55.6288
56.4497
57.3189
58.2774
59.2421
60.3226
61.362
62.5752
63.6604
65.0004
66.0962
67.5491
68.6083
70.1565
74.7836
73.1913
72.069
70.5801
69.4344
68.0729
66.9476
65.7229
64.6569
63.5731
62.6015
61.6608
60.8046
60.0012
59.2776
58.6347
58.0984
57.673
57.3729
57.2117
57.2119
57.3733
57.6738
58.0998
58.6368
59.2794
60.0048
60.8098
61.6678
62.6094
63.5832
64.668
65.7366
66.962
68.0907
69.4527
70.6032
72.0921
73.2183
74.8122
78.3536
76.7279
75.5548
74.0471
72.858
71.4869
70.328
69.0973
68.0087
66.9203
65.9366
64.9967
64.1458
63.3631
62.6604
62.0316
61.5104
61.1018
60.8163
60.664
60.6643
60.817
61.1029
61.5119
62.0338
62.663
63.3669
64.1506
65.0028
65.9435
66.929
68.0181
69.109
70.3402
71.5022
72.8734
74.0667
75.5743
76.751
78.3781
81.2442
79.5946
78.375
76.8568
75.6317
74.2552
73.0709
71.8358
70.7318
69.6401
68.6485
67.707
66.8536
66.0733
65.3807
64.7682
64.2564
63.8586
63.582
63.4352
63.4354
63.5828
63.8597
64.2579
64.7702
65.3834
66.0768
66.8578
67.7123
68.6546
69.6478
70.7401
71.8462
73.0816
74.2687
75.6452
76.874
78.392
79.6151
81.2657
83.758
82.0842
80.8261
79.2932
78.0388
76.6497
75.4436
74.1974
73.0778
71.9773
70.9753
70.0277
69.1685
68.3846
67.6888
67.0777
66.5707
66.1766
65.9033
65.7584
65.7587
65.9044
66.1778
66.5722
67.0797
67.6914
68.3878
69.1724
70.0326
70.9809
71.9843
73.0854
74.2068
75.4533
76.6619
78.0509
79.3088
80.8412
82.1028
83.7772
86.0358
84.329
83.0444
81.4888
80.2104
78.8036
77.5766
76.3157
75.1787
74.0654
73.0493
72.0906
71.2205
70.4276
69.7236
69.1059
68.5973
68.202
67.9278
67.7823
67.7824
67.929
68.2032
68.5986
69.1077
69.726
70.4306
71.2241
72.0952
73.0545
74.0718
75.1857
76.3244
77.5855
78.8149
80.2213
81.503
83.0578
84.3459
86.053
88.1513
86.4095
85.1012
83.5204
82.2181
80.7911
79.5421
78.2633
77.1069
75.9772
74.9441
73.9704
73.0851
72.2777
71.5584
70.9341
70.4185
70.0182
69.7402
69.5922
69.5924
69.7415
70.0194
70.4199
70.9358
71.5605
72.2804
73.0884
73.9745
74.9489
75.9832
77.1133
78.2713
79.5502
80.8014
82.2279
83.5333
85.113
86.4249
88.1664
90.1572
88.3778
87.0491
85.4397
84.1148
82.6642
81.3927
80.0929
78.9153
77.7662
76.7136
75.7217
74.8182
73.9931
73.2555
72.6219
72.0963
71.6878
71.4037
71.2517
71.2518
71.405
71.6891
72.0977
72.6235
73.2574
73.9957
74.8214
75.7256
76.7181
77.7717
78.9212
80.1002
81.4001
82.6735
84.1237
85.4514
87.0595
88.3918
90.1704
92.1039
90.2849
88.9379
87.2979
85.9506
84.4744
83.1795
81.8567
80.6563
79.4857
78.4113
77.3985
76.4738
75.627
74.8767
74.2276
73.6902
73.271
72.9788
72.8217
72.8219
72.9802
73.2724
73.6916
74.2292
74.8786
75.6294
76.4768
77.4022
78.4155
79.4908
80.6618
81.8634
83.1863
84.483
85.9586
87.3086
88.9471
90.2977
92.1155
94.0445
92.1845
90.8196
89.1476
87.7774
86.2742
84.955
83.6076
82.3833
81.1895
80.0921
79.057
78.1099
77.2406
76.4744
75.809
75.2567
74.8249
74.523
74.3599
74.36
74.5245
74.8264
75.2582
75.8107
76.4763
77.243
78.1128
79.0606
80.0961
81.1944
82.3885
83.614
84.9613
86.2822
87.7848
89.1575
90.8281
92.1964
94.0548
96.0259
94.1234
92.7401
91.0344
89.6404
88.1085
86.7638
85.3902
84.1404
82.9217
81.7995
80.7402
79.7684
78.8816
78.0944
77.4114
76.8419
76.3956
76.0824
75.9124
75.9126
76.0839
76.3971
76.8435
77.4132
78.0964
78.884
79.7713
80.7437
81.8034
82.9264
84.1454
85.3962
86.7698
88.1161
89.6473
91.0437
92.748
94.1347
96.0353
98.0821
96.1354
94.7322
92.9912
91.5719
90.0096
88.638
87.2367
85.9602
84.7152
83.567
82.4823
81.4851
80.5774
79.7684
79.0649
78.4763
78.0133
77.6872
77.5092
77.5093
77.6887
78.0149
78.478
79.0668
79.7705
80.58
81.488
82.4858
83.5709
84.7198
85.965
87.2426
88.6439
90.017
91.5786
93.0002
94.7398
96.1462
98.091
100.232
98.2388
96.8139
95.0357
93.5893
91.995
90.5947
89.1638
87.8589
86.5861
85.4104
84.299
83.2767
82.3451
81.5125
80.7861
80.1761
79.6939
79.3528
79.1656
79.1658
79.3543
79.6955
80.1778
80.7881
81.5147
82.3478
83.2798
84.3026
85.4144
86.5907
87.8638
89.1697
90.6005
92.0022
93.596
95.0445
96.8215
98.2495
100.241
102.483
100.441
98.9926
97.1753
95.7003
94.0716
92.6412
91.179
89.8441
88.5418
87.3372
86.1976
85.1498
84.1916
83.3335
82.5819
81.9478
81.4439
81.0852
80.8873
80.8875
81.0866
81.4454
81.9496
82.584
83.336
84.1944
85.153
86.2013
87.3413
88.5465
89.8491
91.1849
92.6472
94.079
95.7069
97.1843
99.0007
100.452
102.491
104.833
102.743
101.268
99.4102
97.9042
96.2402
94.7775
93.2826
91.9164
90.5834
89.3485
88.1796
87.1041
86.1181
85.2324
84.4533
83.7924
83.2636
82.8845
82.6739
82.6741
82.8858
83.2651
83.7942
84.4555
85.235
86.121
87.1076
88.1835
89.3529
90.5883
91.9217
93.2888
94.7838
96.2475
97.9115
99.419
101.277
102.753
104.842
107.276
105.134
103.633
101.733
100.195
98.4941
96.998
95.4694
94.0705
92.7055
91.4397
90.2406
89.1365
88.1208
87.2057
86.3972
85.7067
85.1496
84.7467
84.5207
84.5211
84.748
85.1513
85.7088
86.3993
87.2086
88.1238
89.1399
90.2449
91.444
92.7106
94.0757
95.4759
97.0046
98.5016
100.202
101.742
103.642
105.146
107.287
109.798
107.603
106.074
104.131
102.56
100.821
99.2909
97.7274
96.2954
94.8978
93.6004
92.371
91.2365
90.1912
89.2456
88.4058
87.6838
87.095
86.6634
86.419
86.419
86.6646
87.0962
87.6854
88.4083
89.2484
90.1941
91.2402
92.3752
93.605
94.9029
96.3009
97.7341
99.2977
100.829