/*--------------------------------*- C++ -*----------------------------------*\
  =========                 |
  \\      /  F ield         | OpenFOAM: The Open Source CFD Toolbox
   \\    /   O peration     | Website:  https://openfoam.org
    \\  /    A nd           | Version:  6
     \\/     M anipulation  |
\*---------------------------------------------------------------------------*/
FoamFile
{
    version     2.0;
    format      ascii;
    class       volScalarField;
    location    "0.2";
    object      k;
}
// * * * * * * * * * * * * * * * * * * * * * * * * * * * * * * * * * * * * * //

dimensions      [0 2 -2 0 0 0 0];

internalField   nonuniform List<scalar> 
63280
(
0.000451415
0.000458199
0.00046665
0.000477796
0.000500598
0.000510012
0.000489993
0.000470237
0.000458423
0.00045126
0.000444491
0.000440013
0.000425471
0.000404473
0.000386731
0.000377565
0.000369541
0.00032985
0.00033028
0.000335538
0.000347219
0.000379979
0.000393276
0.000364511
0.000341027
0.000330657
0.000323471
0.000326832
0.000307702
0.000351626
0.000368857
0.000372799
0.000372044
0.000375068
0.000316641
0.000322681
0.000329426
0.00033871
0.000394335
0.000421967
0.000365607
0.000328547
0.000315325
0.000309125
0.000306145
0.000301344
0.000293998
0.000285657
0.000279789
0.000283869
0.000271841
0.000303519
0.000306283
0.000310224
0.000316593
0.000335041
0.000341949
0.000324104
0.000310501
0.000304865
0.000302321
0.000300563
0.000300504
0.000291962
0.000279612
0.000270778
0.000266658
0.000263045
0.000223173
0.00022125
0.000222964
0.000229134
0.000250352
0.000257729
0.000237357
0.000224033
0.000219803
0.000216723
0.000220947
0.000209593
0.000239859
0.000254687
0.00026109
0.000264029
0.000265498
0.000212244
0.000215092
0.000218285
0.000223221
0.000253241
0.000265225
0.000232756
0.000215022
0.000210249
0.000208269
0.000207449
0.000204972
0.000201999
0.000199128
0.00019873
0.000197111
0.000201754
0.000204353
0.000206458
0.000207977
0.000209763
0.000211012
0.000209956
0.000207338
0.000205262
0.000204545
0.000204369
0.000204437
0.000204197
0.000201525
0.000197506
0.000194349
0.000192508
0.000191475
0.000145771
0.000147361
0.000148986
0.00015253
0.000169991
0.00017475
0.000155311
0.000147213
0.000146276
0.000146442
0.000146575
0.00014596
0.000145099
0.000143266
0.000145575
0.000136258
0.000156342
0.00014153
0.00014311
0.000144234
0.000146288
0.000153355
0.000154052
0.000145524
0.00014204
0.000141863
0.000142324
0.000142754
0.000142203
0.000140965
0.000140464
0.000139028
0.000135154
0.000134277
0.000100927
0.000102023
0.000102494
0.000104475
0.000111053
0.00011101
0.000103006
0.00010072
0.000100988
0.000101481
0.000102374
0.000101117
0.000102408
9.62194e-05
0.000111208
0.000121811
0.000128594
9.91594e-05
9.93365e-05
9.95225e-05
0.000101183
0.000107894
0.000107866
9.92871e-05
9.73049e-05
9.80415e-05
9.87947e-05
9.97795e-05
9.88108e-05
9.76468e-05
9.64034e-05
9.57598e-05
9.53271e-05
9.66462e-05
7.66446e-05
7.19019e-05
6.98682e-05
7.02746e-05
7.22151e-05
7.16151e-05
6.90846e-05
6.87549e-05
6.84547e-05
7.07042e-05
6.64622e-05
7.74109e-05
8.61813e-05
9.22158e-05
9.46184e-05
9.41288e-05
9.4564e-05
6.7627e-05
6.81683e-05
6.8241e-05
6.9481e-05
7.26248e-05
7.09734e-05
6.58521e-05
6.56135e-05
6.64317e-05
6.7078e-05
6.71519e-05
6.69053e-05
6.6859e-05
6.72573e-05
6.74364e-05
6.70391e-05
6.77351e-05
6.63826e-05
6.69052e-05
6.68267e-05
6.68562e-05
6.60929e-05
6.458e-05
6.40432e-05
6.45775e-05
6.54184e-05
6.62555e-05
6.70455e-05
6.68713e-05
6.60842e-05
6.58122e-05
6.59242e-05
6.57125e-05
6.62971e-05
4.43299e-05
4.45377e-05
4.44867e-05
4.545e-05
4.62645e-05
4.44027e-05
4.2507e-05
4.32843e-05
4.41831e-05
4.46246e-05
4.48865e-05
4.49073e-05
4.48144e-05
4.48702e-05
4.50394e-05
4.50006e-05
4.5621e-05
4.35113e-05
4.36654e-05
4.36244e-05
4.38336e-05
4.32966e-05
4.19417e-05
4.15579e-05
4.21423e-05
4.28814e-05
4.34426e-05
4.38329e-05
4.3991e-05
4.39827e-05
4.40413e-05
4.41886e-05
4.41843e-05
4.4747e-05
2.73767e-05
2.74239e-05
2.73275e-05
2.79165e-05
2.76151e-05
2.61101e-05
2.58237e-05
2.66864e-05
2.72696e-05
2.75047e-05
2.76471e-05
2.77534e-05
2.78323e-05
2.79548e-05
2.81296e-05
2.82225e-05
2.86944e-05
2.68579e-05
2.68699e-05
2.67733e-05
2.68713e-05
2.62159e-05
2.51301e-05
2.51106e-05
2.5695e-05
2.63117e-05
2.67331e-05
2.69951e-05
2.71619e-05
2.72655e-05
2.74049e-05
2.75495e-05
2.77046e-05
2.8341e-05
1.34592e-05
1.3481e-05
1.34898e-05
1.34644e-05
1.35955e-05
1.31817e-05
1.28486e-05
1.32444e-05
1.3553e-05
1.36675e-05
1.37525e-05
1.38532e-05
1.39563e-05
1.40554e-05
1.41717e-05
1.43465e-05
1.4406e-05
1.48437e-05
6.48853e-06
6.48521e-06
6.49072e-06
6.47487e-06
6.58992e-06
6.4763e-06
6.1786e-06
6.24154e-06
6.41902e-06
6.50843e-06
6.52771e-06
6.53272e-06
6.53844e-06
6.5383e-06
6.5664e-06
6.50196e-06
6.97915e-06
5.55092e-06
5.26384e-05
5.25676e-05
5.2559e-05
5.20563e-05
5.30754e-05
4.83639e-05
4.39748e-05
4.72584e-05
5.02527e-05
5.1815e-05
5.24459e-05
5.26711e-05
5.28023e-05
5.28967e-05
5.3232e-05
5.34317e-05
5.44327e-05
5.54834e-05
0.000848123
0.00084602
0.000843618
0.000840773
0.000830549
0.000815562
0.000813026
0.000823084
0.000835512
0.00084555
0.000851552
0.000857822
0.000860444
0.000860215
0.000857608
0.000853938
0.000856624
0.000810234
0.000802891
0.000797576
0.000796149
0.000779647
0.000753503
0.000752107
0.000770234
0.000789105
0.000798671
0.000812152
0.000803245
0.000818011
0.000834653
0.000848785
0.00085171
0.000862657
0.000798632
0.000799185
0.000794306
0.000795023
0.000771826
0.00072979
0.000724341
0.000749959
0.000774672
0.000788291
0.000796331
0.000799217
0.000802929
0.000807723
0.000809976
0.000816643
0.00081161
0.000792356
0.000790193
0.000786992
0.000784563
0.000770833
0.000750078
0.000748406
0.000762489
0.000777636
0.000788631
0.000795011
0.000801381
0.000805099
0.000805625
0.000803871
0.000801302
0.000804363
0.000754324
0.000745384
0.000739081
0.000739016
0.000720251
0.0006899
0.000690591
0.000711636
0.000731184
0.000740092
0.000753322
0.00074344
0.000757453
0.000776235
0.000792445
0.000799176
0.000807559
0.000740826
0.000740626
0.000735817
0.000737886
0.000713526
0.000670731
0.000669394
0.000696188
0.000719407
0.000731544
0.000738625
0.000741172
0.000744775
0.000749245
0.000754769
0.000753515
0.000768502
0.000733124
0.000732498
0.000730833
0.000727157
0.000718394
0.000708161
0.0007067
0.000713966
0.000723718
0.000732004
0.000738124
0.000743037
0.000746914
0.000749144
0.000750085
0.000750098
0.000757485
0.000680329
0.000679615
0.000675162
0.000680009
0.000655341
0.000612369
0.000615589
0.000644422
0.000667106
0.000678863
0.000685251
0.000689665
0.000693654
0.000693468
0.0007035
0.000686622
0.00070329
0.000672828
0.000672365
0.000670099
0.000670724
0.000654322
0.000628531
0.000630043
0.000647689
0.000663352
0.000673018
0.000679085
0.000684006
0.0006867
0.000689554
0.000692665
0.00068876
0.000693249
0.000615793
0.000615599
0.000612561
0.000616613
0.000596144
0.000562542
0.000567956
0.000591266
0.000608389
0.000616741
0.000622422
0.00062395
0.000634469
0.000617755
0.000631664
0.000653702
0.000679788
0.000612741
0.000609905
0.000605788
0.000610322
0.000588675
0.000552433
0.000557792
0.000582374
0.000600733
0.000609486
0.000615526
0.00061939
0.000622441
0.000620171
0.000621571
0.000624581
0.000634325
0.000583927
0.000559472
0.000545728
0.000544271
0.000529997
0.000510034
0.000515911
0.000532041
0.000539737
0.000553582
0.000536589
0.000552877
0.000580518
0.000604962
0.000619146
0.000622599
0.000628689
0.000541661
0.000542194
0.000539136
0.000545174
0.0005218
0.000483813
0.000491367
0.00051593
0.000531565
0.000538845
0.000540935
0.000544631
0.000549696
0.000553499
0.000556917
0.000557623
0.00056397
0.000536697
0.000537008
0.00053589
0.000533902
0.000524225
0.000511349
0.000511089
0.000520065
0.000529681
0.000536454
0.000541506
0.000545418
0.000547238
0.000548009
0.00055004
0.000550589
0.000556401
0.00046059
0.000460502
0.000457469
0.000463764
0.000443047
0.000411162
0.000421327
0.000443549
0.000456727
0.000462383
0.000465738
0.000468542
0.00047057
0.000472062
0.000474257
0.000474908
0.000481056
0.000455274
0.000454976
0.000453522
0.000453677
0.000442793
0.000427284
0.000429382
0.00044003
0.000449254
0.000455103
0.000459031
0.000462001
0.000464086
0.000465591
0.000467651
0.000468146
0.000473811
0.000367127
0.000366725
0.00036412
0.000369262
0.000351652
0.00032737
0.000338367
0.000355808
0.000364781
0.000368365
0.00037063
0.000372658
0.000374402
0.000375952
0.000378043
0.000378841
0.000384112
0.000361412
0.000360858
0.000359343
0.000359634
0.00035001
0.00033645
0.000338617
0.000347777
0.000355626
0.000360569
0.000363761
0.000366094
0.000367888
0.000369406
0.000371325
0.000371695
0.000377616
0.000230231
0.000230153
0.000229976
0.00022898
0.000230733
0.000219677
0.000211661
0.000222562
0.000230105
0.000232566
0.000234101
0.000235877
0.000237657
0.000239369
0.000240949
0.000243447
0.000243734
0.000249039
0.000134867
0.000134841
0.000134903
0.000134593
0.000136134
0.000133581
0.000128562
0.00013045
0.000134112
0.000135701
0.00013602
0.000136147
0.000136283
0.00013635
0.000136728
0.000135582
0.000142706
0.000121722
0.000156796
0.000157127
0.000157505
0.000156704
0.00015993
0.00014844
0.000136495
0.000145385
0.000153041
0.000156338
0.000157309
0.000157391
0.000157185
0.000156851
0.000156621
0.000156235
0.000156492
0.000156388
0.000979262
0.000977661
0.000977098
0.000977155
0.000973988
0.000967283
0.000965322
0.000969713
0.000976251
0.000982672
0.000986275
0.000991399
0.000993914
0.000994763
0.000993557
0.000991622
0.000992083
0.00094867
0.000941702
0.000938257
0.000939255
0.000934417
0.000922644
0.000920596
0.000928024
0.000938089
0.000941971
0.000954371
0.000943866
0.00095264
0.000968999
0.00098503
0.000989213
0.000998741
0.000937591
0.000939049
0.000936965
0.00093911
0.000931837
0.000912038
0.000906281
0.000915459
0.000926974
0.000934085
0.00093956
0.000940211
0.000942654
0.00094871
0.000951706
0.000960687
0.000953208
0.000933066
0.000931602
0.000930641
0.000930993
0.000926644
0.000917247
0.000915093
0.000920796
0.00092829
0.000934899
0.00093855
0.000943104
0.000946148
0.000947606
0.000946789
0.000945351
0.000945727
0.000901691
0.000893251
0.000888853
0.000890345
0.000884876
0.000871309
0.000869924
0.000878389
0.000888529
0.000891668
0.00090403
0.000891975
0.000900095
0.000917798
0.000934746
0.00094292
0.000948728
0.000888907
0.000889693
0.000887422
0.000889923
0.000882193
0.000862371
0.000858436
0.000868184
0.000878836
0.000885026
0.000889728
0.000890297
0.000892626
0.000897042
0.000903439
0.000901576
0.000916202
0.000881674
0.000881947
0.000882268
0.000881949
0.00087883
0.000873521
0.00087172
0.000874838
0.00088017
0.000885282
0.000889285
0.000892465
0.000895424
0.00089806
0.00089907
0.000899336
0.000905335
0.000835775
0.00083605
0.000833895
0.000838186
0.000831068
0.000811611
0.000810273
0.00082165
0.000832504
0.000839154
0.000843196
0.000846104
0.000849774
0.000848075
0.000859573
0.000842415
0.00085256
0.000829133
0.000829275
0.000828948
0.000831032
0.000825972
0.000814158
0.000813012
0.000820074
0.000827789
0.000833382
0.000837097
0.00084071
0.000842605
0.000845037
0.000848115
0.000844059
0.000846603
0.000779034
0.000778888
0.000777858
0.000781815
0.000776
0.000761029
0.000761782
0.000771362
0.000779571
0.000783918
0.000787613
0.00078687
0.000799482
0.000781987
0.000789809
0.000808784
0.000832728
0.000777632
0.000774732
0.000772133
0.000775766
0.00076927
0.000753017
0.000753301
0.000763076
0.000771963
0.00077648
0.00078036
0.000782724
0.000785939
0.000783365
0.000783788
0.000786677
0.000795718
0.00075602
0.000732928
0.000719746
0.000717906
0.00071327
0.000705095
0.000707471
0.000715328
0.000716298
0.000729546
0.000709894
0.000719068
0.000743129
0.000766511
0.000781159
0.000785864
0.000790777
0.000714122
0.00071463
0.000713171
0.000717419
0.00070964
0.000691754
0.000692724
0.00070249
0.000709404
0.000713558
0.000713468
0.000715627
0.000720541
0.000724653
0.000728056
0.000728925
0.000733963
0.000707463
0.000707999
0.000708426
0.000709222
0.000705573
0.000697786
0.000695913
0.000700122
0.000705956
0.000710443
0.000713533
0.000716515
0.000718782
0.00071964
0.000720877
0.00072102
0.000724937
0.000640734
0.000641135
0.000639584
0.000644011
0.000637095
0.000621854
0.000625119
0.000634973
0.000641629
0.000644917
0.000647035
0.000649158
0.000651001
0.000652068
0.000653524
0.00065368
0.000658318
0.000633497
0.000633775
0.000633462
0.000635067
0.00063083
0.000621506
0.000620797
0.000626107
0.000631867
0.000635887
0.000638556
0.000640698
0.00064241
0.000643425
0.000644794
0.000644812
0.000648492
0.000555282
0.000555463
0.000553822
0.000557773
0.000550777
0.000537708
0.000542744
0.000551539
0.000556328
0.000558442
0.000559929
0.000561396
0.000562735
0.000563684
0.000565068
0.000565236
0.00056844
0.000546365
0.000546429
0.000545797
0.000547303
0.000543021
0.000533668
0.00053294
0.000538087
0.000543583
0.000547278
0.000549583
0.000551209
0.000552481
0.000553273
0.000554612
0.000554063
0.000557213
0.000426834
0.000427375
0.000427942
0.000427705
0.000429852
0.000424011
0.000420547
0.000429023
0.000433115
0.000433429
0.000433965
0.000435272
0.000436703
0.0004381
0.00043901
0.000441101
0.000440454
0.000442729
0.000303692
0.000304011
0.000304343
0.000304499
0.000306038
0.000304098
0.000299379
0.000300932
0.000305258
0.000307002
0.000306984
0.000306794
0.00030669
0.000306563
0.000306578
0.000305
0.000311904
0.000289258
0.000214193
0.000214757
0.000215385
0.000214341
0.00021884
0.000204339
0.000188081
0.000199325
0.000209631
0.000214047
0.000215299
0.000215353
0.000215
0.000214464
0.000213988
0.000213312
0.000213354
0.000212561
0.00102678
0.00102501
0.00102466
0.00102525
0.00102407
0.0010203
0.00101923
0.00102208
0.00102637
0.00103128
0.00103365
0.00103841
0.00104076
0.00104183
0.00104089
0.00104094
0.00103993
0.000999296
0.000992132
0.000988935
0.000990102
0.00098856
0.000981892
0.000980888
0.000985254
0.000992199
0.000993074
0.00100552
0.000994279
0.00100021
0.00101631
0.00103281
0.00103811
0.00104656
0.000988154
0.000989463
0.000988186
0.000990079
0.000986996
0.000975011
0.000971373
0.000976191
0.000982744
0.000986737
0.000991139
0.000990826
0.000992356
0.000998762
0.00100126
0.00101269
0.00100361
0.000984437
0.000982844
0.00098231
0.000983129
0.000981436
0.00097606
0.000974661
0.000978034
0.000982715
0.00098753
0.000989957
0.000993886
0.00099642
0.000997998
0.000997298
0.000997519
0.000995972
0.000955082
0.000946613
0.000942587
0.000943961
0.000942287
0.000934677
0.000933936
0.000938703
0.000945532
0.000945632
0.000958301
0.000945163
0.000950909
0.000968549
0.000985256
0.00099487
0.000998621
0.000942176
0.000943036
0.00094159
0.00094352
0.000940276
0.000928551
0.000925708
0.000930661
0.000936631
0.000940083
0.00094384
0.000943549
0.000945154
0.000949187
0.000955934
0.000954014
0.000968438
0.000935173
0.000935601
0.000936215
0.00093674
0.000935351
0.000931732
0.000930158
0.000932128
0.000935965
0.000939878
0.000943103
0.000945606
0.000947976
0.000950771
0.000951616
0.000952727
0.000957661
0.00089037
0.000890911
0.000889607
0.000892979
0.000890776
0.000879713
0.000878606
0.000884822
0.000891155
0.00089548
0.000898462
0.00090058
0.00090424
0.00090137
0.000914204
0.000897159
0.000904449
0.000884105
0.000884303
0.000884413
0.000886402
0.000884569
0.0008777
0.000876577
0.000880562
0.000885444
0.000889435
0.000892204
0.000895276
0.000896677
0.000899075
0.00090225
0.000898295
0.000899171
0.000834934
0.000834541
0.000834039
0.000837344
0.000835886
0.000827752
0.000828114
0.000833441
0.000838243
0.000840805
0.00084393
0.000841545
0.000855714
0.000837532
0.000844052
0.000863507
0.000885161
0.000833773
0.00083077
0.000828489
0.000831017
0.000828788
0.00081969
0.000819496
0.000824817
0.000830246
0.000832987
0.000836227
0.000837688
0.000840729
0.00083818
0.000838265
0.000841242
0.000849335
0.000811916
0.000789728
0.000777001
0.000774532
0.000772835
0.000769167
0.000770796
0.000776089
0.000773886
0.000787827
0.000766721
0.000774715
0.000798706
0.000821054
0.000835068
0.000840555
0.000844487
0.000770755
0.000770984
0.00076985
0.000772693
0.000769492
0.000759075
0.000758908
0.00076404
0.000767601
0.000770622
0.000769775
0.000771075
0.000775495
0.000779771
0.000783203
0.000784415
0.000788549
0.000763181
0.000763632
0.000764077
0.000765457
0.000763619
0.000757499
0.000755477
0.000758392
0.000762938
0.000766671
0.000769105
0.000771488
0.000773683
0.000774761
0.000775793
0.000776175
0.0007787
0.000697733
0.000698255
0.000697296
0.000700437
0.000697818
0.000689049
0.000690537
0.000696119
0.000700194
0.000702509
0.000704137
0.000705799
0.000707365
0.000708333
0.000709488
0.000709691
0.000713306
0.000689408
0.000689791
0.000689584
0.000691283
0.000689026
0.000681854
0.00068057
0.00068428
0.0006888
0.000692142
0.000694347
0.000696074
0.000697522
0.000698417
0.000699488
0.000699677
0.000701959
0.000616573
0.000617015
0.000615788
0.00061898
0.000615676
0.000606849
0.000609596
0.000615251
0.000618545
0.000620175
0.000621352
0.000622477
0.000623528
0.000624245
0.000625246
0.000625443
0.000627188
0.000607033
0.00060724
0.000606755
0.000608288
0.000605733
0.000598198
0.000596829
0.000600559
0.00060495
0.000607974
0.000609801
0.000611013
0.000611957
0.000612448
0.000613402
0.000612979
0.000614174
0.000519873
0.000520698
0.000521381
0.000521803
0.000522899
0.000520317
0.000519212
0.000523633
0.000526233
0.00052659
0.000526912
0.00052774
0.000528638
0.000529555
0.000529744
0.000531555
0.000529507
0.000531732
0.000395991
0.000396569
0.000397037
0.00039751
0.000398932
0.000397652
0.000395102
0.00039694
0.000399882
0.000400683
0.000400284
0.000399905
0.000399656
0.000399401
0.000399272
0.00039712
0.000405457
0.000376833
0.000265745
0.000266452
0.000267296
0.00026595
0.0002716
0.000255791
0.00023596
0.00024781
0.000260111
0.000265634
0.000267253
0.000267363
0.00026695
0.000266305
0.00026571
0.000264852
0.000264886
0.000263655
0.0010522
0.00105053
0.00105031
0.00105105
0.00105094
0.00104905
0.00104853
0.00105049
0.0010534
0.0010574
0.0010588
0.00106329
0.00106536
0.00106618
0.00106468
0.001066
0.00106402
0.00102563
0.00101843
0.00101536
0.00101627
0.00101644
0.00101302
0.00101271
0.00101533
0.00102065
0.00101934
0.00103206
0.00102022
0.0010244
0.00104008
0.00105655
0.00106248
0.00107034
0.00101391
0.00101525
0.00101465
0.00101601
0.00101503
0.00100807
0.00100559
0.00100802
0.00101189
0.00101391
0.00101762
0.00101663
0.00101729
0.00102364
0.00102504
0.00103837
0.00102832
0.00101057
0.00100902
0.00100872
0.00100956
0.00100919
0.00100632
0.00100544
0.00100756
0.00101065
0.00101442
0.001016
0.00101958
0.00102169
0.00102302
0.00102183
0.00102324
0.00102035
0.0009817
0.000973251
0.000969413
0.00097031
0.000970452
0.000966529
0.000966315
0.000969056
0.000974241
0.000972186
0.000985377
0.000971519
0.000975727
0.000993273
0.00100946
0.0010202
0.00102256
0.000968112
0.000969102
0.000968344
0.000969575
0.000968416
0.000961711
0.000959588
0.000962014
0.000965512
0.00096729
0.000970481
0.000969591
0.000970625
0.000974097
0.000980907
0.000978727
0.00099329
0.000961138
0.000961815
0.000962535
0.000963383
0.000962885
0.000960281
0.000958916
0.000960282
0.000963285
0.000966488
0.000969262
0.000971376
0.00097326
0.00097604
0.000976538
0.000978212
0.00098261
0.000916108
0.000916875
0.000916308
0.000918774
0.000918804
0.00091285
0.000912038
0.000915589
0.000919529
0.000922504
0.000924809
0.000926309
0.000930018
0.000926026
0.000939923
0.000922991
0.000928337
0.000909961
0.00091028
0.000910695
0.000912342
0.000911978
0.000908096
0.000907138
0.000909523
0.000912902
0.000916006
0.000918209
0.000920961
0.000921948
0.000924247
0.000927592
0.000923654
0.000923259
0.000860901
0.00086037
0.000860259
0.000862823
0.000863323
0.000859284
0.000859613
0.000862756
0.000865791
0.000867307
0.000870273
0.000866507
0.000881834
0.000863194
0.000868756
0.000888773
0.000908768
0.000859442
0.00085657
0.00085461
0.000856109
0.000855703
0.000850859
0.000850555
0.00085359
0.000857286
0.000859024
0.00086199
0.00086287
0.000865695
0.000863053
0.00086291
0.000865858
0.000873303
0.000837425
0.000815999
0.000803642
0.00080044
0.000799911
0.000798871
0.000800153
0.000804285
0.000800092
0.000814849
0.000793074
0.00080012
0.000824055
0.000845593
0.000858972
0.000864953
0.000868279
0.000796365
0.000796502
0.000795654
0.00079731
0.000796093
0.000790082
0.000789422
0.000792223
0.000794055
0.000796572
0.000795332
0.000796114
0.000800048
0.000804323
0.000807784
0.00080923
0.000812911
0.00078825
0.000788818
0.000789168
0.000790633
0.000789699
0.000784605
0.000782562
0.000784766
0.000788562
0.000791872
0.000793999
0.000795994
0.000797961
0.000799114
0.000800046
0.000800661
0.000802325
0.000724393
0.000725064
0.000724611
0.000726763
0.000726042
0.000720936
0.000721478
0.000724887
0.000727724
0.000729561
0.00073093
0.000732277
0.000733549
0.000734386
0.000735338
0.000735572
0.000738641
0.000715476
0.000715978
0.0007158
0.000717332
0.000716053
0.000710245
0.000708676
0.000711439
0.000715206
0.000718128
0.000720071
0.00072153
0.000722732
0.000723501
0.000724347
0.000724673
0.000726118
0.000650919
0.00065159
0.000650661
0.000653348
0.000651759
0.000644796
0.000646005
0.000650228
0.000653091
0.000654616
0.000655632
0.000656507
0.000657298
0.000657805
0.000658506
0.000658721
0.000659569
0.000642522
0.000642855
0.000642516
0.000643828
0.000642288
0.000636296
0.0006346
0.000637282
0.000640802
0.000643278
0.000644723
0.000645593
0.000646228
0.00064644
0.00064704
0.000646729
0.00064665
0.000589649
0.000590767
0.00059138
0.000592719
0.000592002
0.000591732
0.000594314
0.000595473
0.000596121
0.00059626
0.000596406
0.000596858
0.000597308
0.000597842
0.000597283
0.00059926
0.000594933
0.000599308
0.00045682
0.000457642
0.000458267
0.000458943
0.000460577
0.000459672
0.000458766
0.00046135
0.000463134
0.000462976
0.000462197
0.00046167
0.000461325
0.000460955
0.000460924
0.000457422
0.000470566
0.000428563
0.000313231
0.000314019
0.000315062
0.000313412
0.000319957
0.000304325
0.000281999
0.000293054
0.000306519
0.000312975
0.000314972
0.000315171
0.000314744
0.000314032
0.000313383
0.000312376
0.000312524
0.000310889
0.00106213
0.00106059
0.00106046
0.00106118
0.00106154
0.00106076
0.00106057
0.00106206
0.00106418
0.00106775
0.00106849
0.00107285
0.00107479
0.00107535
0.00107313
0.00107513
0.00107276
0.00103588
0.00102863
0.0010256
0.00102616
0.00102705
0.00102555
0.00102574
0.00102737
0.00103202
0.00102918
0.00104236
0.00103024
0.0010331
0.0010483
0.00106471
0.00107087
0.00107864
0.00102338
0.00102477
0.00102468
0.00102556
0.00102542
0.00102145
0.00101967
0.00102083
0.00102337
0.00102426
0.00102766
0.00102628
0.00102625
0.00103254
0.00103281
0.00104744
0.00103715
0.00102027
0.0010188
0.00101861
0.00101933
0.0010195
0.00101808
0.00101756
0.00101902
0.00102125
0.00102452
0.00102558
0.00102901
0.0010309
0.001032
0.0010302
0.00103235
0.00102873
0.000991665
0.000983198
0.000979425
0.000979818
0.000980666
0.00097886
0.000979063
0.0009807
0.000985233
0.000981679
0.00099551
0.000981354
0.000984287
0.00100163
0.00101733
0.00102886
0.00103045
0.000977196
0.000978283
0.000978028
0.000978721
0.000978343
0.000974532
0.000972922
0.000974044
0.000976337
0.000977175
0.000980139
0.000978891
0.000979544
0.000982498
0.000989375
0.0009867
0.00100173
0.000970244
0.000971107
0.000971869
0.000972812
0.00097275
0.000970727
0.000969503
0.000970543
0.000973096
0.000975907
0.000978452
0.000980382
0.00098193
0.000984688
0.000984907
0.000986798
0.000991222
0.000924998
0.000925882
0.000925859
0.000927678
0.000928552
0.000925508
0.000924991
0.000927197
0.000929939
0.000932214
0.000934165
0.000935221
0.000939094
0.000934093
0.000948872
0.00093211
0.000935981
0.000918894
0.000919268
0.000919879
0.000921213
0.000921416
0.000919217
0.000918439
0.000920007
0.000922623
0.000925288
0.000927187
0.000929794
0.000930513
0.000932655
0.000936305
0.000932316
0.000931146
0.000870308
0.000869621
0.000869755
0.000871754
0.000872997
0.000871247
0.000871674
0.000873729
0.000875914
0.000876854
0.00087992
0.000875046
0.000891227
0.00087254
0.000877058
0.000897155
0.000916048
0.00086831
0.000865629
0.000863953
0.000864724
0.000864934
0.000862435
0.000862176
0.000864048
0.000866927
0.000868144
0.000871032
0.000871579
0.000874295
0.000871521
0.000871243
0.000874045
0.000881242
0.000847023
0.000826418
0.000814418
0.000810635
0.000810384
0.000810697
0.000811789
0.000815497
0.00081009
0.000825488
0.000803887
0.000809756
0.000833124
0.000853809
0.000866596
0.000872798
0.00087592
0.00080609
0.000806153
0.000805486
0.000806342
0.000805851
0.000802258
0.000801437
0.00080311
0.000804067
0.000806443
0.000805032
0.00080553
0.000809107
0.000813311
0.00081683
0.000818373
0.000821999
0.000797811
0.000798507
0.000798768
0.000800141
0.000799663
0.00079523
0.000793191
0.000794949
0.000798247
0.00080128
0.000803247
0.000805
0.000806745
0.000807903
0.000808804
0.000809534
0.000810786
0.000737542
0.000738347
0.000738237
0.0007398
0.00073982
0.000736553
0.000736585
0.000738906
0.000741186
0.000742823
0.000744079
0.000745234
0.000746256
0.000746934
0.000747735
0.000747907
0.000750744
0.000728695
0.000729275
0.000729104
0.000730422
0.000729644
0.000724742
0.000723042
0.000725168
0.00072838
0.000730967
0.000732716
0.000733976
0.000734953
0.00073556
0.000736216
0.000736537
0.000737535
0.000676342
0.000677189
0.000676417
0.000678855
0.000678062
0.0006717
0.000671819
0.000675349
0.000678181
0.000679754
0.000680687
0.000681366
0.000681916
0.000682193
0.000682627
0.000682749
0.000683023
0.000670832
0.000671254
0.00067112
0.00067213
0.000671281
0.000666813
0.00066504
0.000666807
0.000669466
0.000671363
0.000672418
0.000672954
0.000673275
0.000673172
0.000673421
0.000673058
0.000672083
0.000650712
0.000652162
0.000652644
0.000655054
0.000652387
0.000653587
0.000660778
0.000660071
0.000658378
0.00065768
0.000657482
0.000657623
0.000657713
0.000657973
0.000656667
0.000659096
0.000652167
0.000659224
0.000499784
0.000500838
0.000501657
0.000502432
0.000504546
0.000503679
0.000503476
0.000507058
0.000508323
0.000507476
0.000506379
0.00050573
0.000505318
0.000504831
0.000505119
0.000499555
0.000519991
0.00046051
0.000359494
0.000360335
0.000361575
0.00035964
0.000366845
0.000352244
0.000328284
0.000337825
0.000351815
0.000359015
0.000361372
0.000361672
0.000361241
0.000360473
0.000359788
0.000358618
0.000358959
0.000356806
0.00106147
0.00106002
0.00105993
0.00106061
0.00106116
0.001061
0.00106105
0.00106229
0.00106394
0.00106733
0.00106762
0.0010719
0.00107384
0.00107429
0.0010714
0.00107375
0.00107139
0.00103559
0.00102825
0.00102519
0.00102544
0.00102659
0.0010262
0.00102678
0.00102783
0.00103227
0.00102831
0.00104195
0.00102989
0.00103159
0.00104621
0.00106261
0.00106881
0.00107674
0.00102228
0.00102368
0.00102394
0.00102451
0.00102464
0.00102241
0.00102114
0.00102161
0.00102348
0.00102366
0.00102699
0.00102543
0.00102483
0.00103113
0.00103045
0.00104591
0.00103594
0.00101935
0.00101792
0.0010178
0.00101841
0.00101877
0.00101817
0.0010179
0.00101902
0.00102076
0.00102378
0.00102451
0.00102786
0.00102968
0.00103068
0.00102834
0.00103094
0.00102698
0.000991236
0.000982707
0.000978922
0.000978912
0.00097998
0.00097937
0.000979912
0.000980908
0.000985255
0.000980605
0.000994992
0.000980957
0.000982667
0.00099963
0.00101491
0.001027
0.00102821
0.000975867
0.000977002
0.000977085
0.000977455
0.000977319
0.000975156
0.000973955
0.000974387
0.000976069
0.000976328
0.000979252
0.000977804
0.000978201
0.000980721
0.000987738
0.000984481
0.00100002
0.000968994
0.000969955
0.000970732
0.000971694
0.000971865
0.000970198
0.000969064
0.0009699
0.000972184
0.000974753
0.000977177
0.000979024
0.000980344
0.000983093
0.000983158
0.000985004
0.000989772
0.000923972
0.000924891
0.000925231
0.000926665
0.000927817
0.000926419
0.000926177
0.000927683
0.000929778
0.000931665
0.000933439
0.000934168
0.000938273
0.000932424
0.000947834
0.000931461
0.000934039
0.000917916
0.000918272
0.000918989
0.000920116
0.000920522
0.000919265
0.000918652
0.000919782
0.000921965
0.000924392
0.000926113
0.000928652
0.000929236
0.000931149
0.000935172
0.000931145
0.000929524
0.000870521
0.000869657
0.000869906
0.000871539
0.000873026
0.000872528
0.000873087
0.000874581
0.000876336
0.000876926
0.000880191
0.000874476
0.000891136
0.000872918
0.000876255
0.000895863
0.000913894
0.000867894
0.000865419
0.000863974
0.000864316
0.000864681
0.00086344
0.000863278
0.000864524
0.000866971
0.000867894
0.000870746
0.000871083
0.000873785
0.000870901
0.000870528
0.000873125
0.000880312
0.000848242
0.000828701
0.000817133
0.000812997
0.000812677
0.000813579
0.00081451
0.000818102
0.000812034
0.000827604
0.000807031
0.000811501
0.000833634
0.000853214
0.00086534
0.000871527
0.000874655
0.000807963
0.000807902
0.000807282
0.000807656
0.000807407
0.000805096
0.000804257
0.000805387
0.000805852
0.000808226
0.000806768
0.000807094
0.000810416
0.000814534
0.000818123
0.00081968
0.000823417
0.000799903
0.000800679
0.000800874
0.000802101
0.000801883
0.000797953
0.000795924
0.000797329
0.000800204
0.000802983
0.00080481
0.000806378
0.000807926
0.000809046
0.00080994
0.000810681
0.000811756
0.000745683
0.000746605
0.000746688
0.000747962
0.000748269
0.000745789
0.000745475
0.000747218
0.000749233
0.000750781
0.000751985
0.000753017
0.000753822
0.000754312
0.000754967
0.000755014
0.000757677
0.000737651
0.00073827
0.000738113
0.00073923
0.000738759
0.000734577
0.000732841
0.000734448
0.000737141
0.000739374
0.000740913
0.000741981
0.000742727
0.000743122
0.000743578
0.000743771
0.000744485
0.000700541
0.000701511
0.000700816
0.000703106
0.000702764
0.000696607
0.000695913
0.000698953
0.000701768
0.000703368
0.000704224
0.000704727
0.000705042
0.000705063
0.000705231
0.000705173
0.000704987
0.000699262
0.000699746
0.000699884
0.000700562
0.000700236
0.000697381
0.000695743
0.000696651
0.000698403
0.000699657
0.000700292
0.000700484
0.000700484
0.000700029
0.000699932
0.000699379
0.000697682
0.000706202
0.000708022
0.000708362
0.000711891
0.000707483
0.00070937
0.000721283
0.000720059
0.000716117
0.000714179
0.000713487
0.000713373
0.000713206
0.000713313
0.000711346
0.000714358
0.000705131
0.00071421
0.000529335
0.000530639
0.000531721