/*--------------------------------*- C++ -*----------------------------------*\
  =========                 |
  \\      /  F ield         | OpenFOAM: The Open Source CFD Toolbox
   \\    /   O peration     | Website:  https://openfoam.org
    \\  /    A nd           | Version:  6
     \\/     M anipulation  |
\*---------------------------------------------------------------------------*/
FoamFile
{
    version     2.0;
    format      ascii;
    class       volScalarField;
    location    "0.2";
    object      nut;
}
// * * * * * * * * * * * * * * * * * * * * * * * * * * * * * * * * * * * * * //

dimensions      [0 2 -1 0 0 0 0];

internalField   nonuniform List<scalar> 
63280
(
5.34905e-07
5.42943e-07
5.52957e-07
5.66164e-07
5.93184e-07
6.04339e-07
5.80617e-07
5.57207e-07
5.43209e-07
5.34721e-07
5.26699e-07
5.21393e-07
5.04162e-07
4.79281e-07
4.58257e-07
4.47396e-07
4.37887e-07
3.90856e-07
3.91366e-07
3.97596e-07
4.11437e-07
4.50256e-07
4.66012e-07
4.31927e-07
4.041e-07
3.91812e-07
3.83297e-07
3.87279e-07
3.64611e-07
4.16659e-07
4.37077e-07
4.41749e-07
4.40854e-07
4.44437e-07
3.75204e-07
3.82361e-07
3.90353e-07
4.01355e-07
4.67267e-07
5.0001e-07
4.33226e-07
3.89312e-07
3.73644e-07
3.66298e-07
3.62767e-07
3.57078e-07
3.48373e-07
3.38489e-07
3.31536e-07
3.3637e-07
3.22118e-07
3.59655e-07
3.6293e-07
3.676e-07
3.75148e-07
3.97007e-07
4.05193e-07
3.84048e-07
3.67928e-07
3.6125e-07
3.58235e-07
3.56152e-07
3.56083e-07
3.45961e-07
3.31326e-07
3.20858e-07
3.15977e-07
3.11695e-07
2.64449e-07
2.62171e-07
2.64201e-07
2.71512e-07
2.96654e-07
3.05396e-07
2.81257e-07
2.65468e-07
2.60456e-07
2.56806e-07
2.61811e-07
2.48357e-07
2.84221e-07
3.01791e-07
3.09379e-07
3.12862e-07
3.14602e-07
2.51499e-07
2.54873e-07
2.58657e-07
2.64506e-07
3.00078e-07
3.14279e-07
2.75804e-07
2.5479e-07
2.49135e-07
2.46788e-07
2.45816e-07
2.42882e-07
2.39359e-07
2.35957e-07
2.35486e-07
2.33567e-07
2.39068e-07
2.42149e-07
2.44642e-07
2.46443e-07
2.48559e-07
2.50038e-07
2.48788e-07
2.45686e-07
2.43225e-07
2.42376e-07
2.42167e-07
2.42248e-07
2.41963e-07
2.38797e-07
2.34035e-07
2.30294e-07
2.28113e-07
2.26888e-07
1.72731e-07
1.74615e-07
1.76541e-07
1.8074e-07
2.01431e-07
2.0707e-07
1.84036e-07
1.7444e-07
1.7333e-07
1.73527e-07
1.73685e-07
1.72955e-07
1.71935e-07
1.69764e-07
1.72499e-07
1.61459e-07
1.85257e-07
1.67707e-07
1.69578e-07
1.7091e-07
1.73344e-07
1.81719e-07
1.82544e-07
1.72439e-07
1.68311e-07
1.68101e-07
1.68647e-07
1.69157e-07
1.68503e-07
1.67037e-07
1.66443e-07
1.64742e-07
1.60151e-07
1.59111e-07
1.19594e-07
1.20892e-07
1.2145e-07
1.23797e-07
1.31592e-07
1.31542e-07
1.22057e-07
1.19349e-07
1.19665e-07
1.2025e-07
1.21308e-07
1.19819e-07
1.21348e-07
1.14015e-07
1.31776e-07
1.4434e-07
1.52377e-07
1.17499e-07
1.17709e-07
1.17929e-07
1.19897e-07
1.27849e-07
1.27816e-07
1.1765e-07
1.15301e-07
1.16174e-07
1.17067e-07
1.18234e-07
1.17086e-07
1.15707e-07
1.14233e-07
1.13471e-07
1.12958e-07
1.14521e-07
9.08201e-08
8.52002e-08
8.27903e-08
8.32719e-08
8.55713e-08
8.48603e-08
8.18618e-08
8.14711e-08
8.11155e-08
8.37809e-08
7.87544e-08
9.17281e-08
1.02121e-07
1.09271e-07
1.12118e-07
1.11538e-07
1.12054e-07
8.01346e-08
8.07761e-08
8.08623e-08
8.23316e-08
8.60568e-08
8.41e-08
7.80315e-08
7.77488e-08
7.87183e-08
7.94841e-08
7.95716e-08
7.92794e-08
7.92246e-08
7.96966e-08
7.99087e-08
7.9438e-08
8.02628e-08
7.86601e-08
7.92794e-08
7.91864e-08
7.92213e-08
7.83169e-08
7.65241e-08
7.5888e-08
7.65212e-08
7.75175e-08
7.85095e-08
7.94456e-08
7.92391e-08
7.83065e-08
7.79842e-08
7.81169e-08
7.7866e-08
7.85588e-08
5.25287e-08
5.27749e-08
5.27145e-08
5.38559e-08
5.48212e-08
5.2615e-08
5.03687e-08
5.12897e-08
5.23547e-08
5.28779e-08
5.31883e-08
5.32129e-08
5.31028e-08
5.3169e-08
5.33694e-08
5.33235e-08
5.40587e-08
5.15588e-08
5.17414e-08
5.16927e-08
5.19406e-08
5.13043e-08
4.96988e-08
4.92441e-08
4.99365e-08
5.08124e-08
5.14774e-08
5.19398e-08
5.21272e-08
5.21173e-08
5.21868e-08
5.23613e-08
5.23562e-08
5.30229e-08
3.244e-08
3.2496e-08
3.23817e-08
3.30797e-08
3.27225e-08
3.09392e-08
3.05998e-08
3.1622e-08
3.23131e-08
3.25917e-08
3.27604e-08
3.28864e-08
3.29799e-08
3.31251e-08
3.33322e-08
3.34423e-08
3.40014e-08
3.18253e-08
3.18395e-08
3.17251e-08
3.18411e-08
3.10645e-08
2.97779e-08
2.97548e-08
3.04473e-08
3.11781e-08
3.16774e-08
3.19879e-08
3.21855e-08
3.23083e-08
3.24734e-08
3.26448e-08
3.28286e-08
3.35827e-08
1.59485e-08
1.59743e-08
1.59847e-08
1.59547e-08
1.611e-08
1.56197e-08
1.5225e-08
1.5694e-08
1.60597e-08
1.61953e-08
1.6296e-08
1.64153e-08
1.65375e-08
1.66549e-08
1.67928e-08
1.69999e-08
1.70704e-08
1.75891e-08
7.68859e-09
7.68465e-09
7.69118e-09
7.6724e-09
7.80873e-09
7.6741e-09
7.32133e-09
7.39592e-09
7.60622e-09
7.71217e-09
7.73502e-09
7.74095e-09
7.74773e-09
7.74756e-09
7.78086e-09
7.7045e-09
8.26994e-09
6.57757e-09
1.23406e-07
1.23231e-07
1.23202e-07
1.22024e-07
1.24396e-07
1.13408e-07
1.03164e-07
1.10828e-07
1.17817e-07
1.21467e-07
1.22947e-07
1.23483e-07
1.23801e-07
1.24035e-07
1.24833e-07
1.25316e-07
1.2767e-07
1.30144e-07
3.21965e-06
3.2107e-06
3.20308e-06
3.19537e-06
3.16172e-06
3.10787e-06
3.09455e-06
3.12633e-06
3.16878e-06
3.2041e-06
3.22526e-06
3.24749e-06
3.25611e-06
3.25612e-06
3.25056e-06
3.24031e-06
3.25271e-06
3.08673e-06
3.0608e-06
3.04418e-06
3.04471e-06
2.99236e-06
2.89852e-06
2.88539e-06
2.94301e-06
3.00792e-06
3.0413e-06
3.09061e-06
3.05526e-06
3.11375e-06
3.17352e-06
3.22415e-06
3.23514e-06
3.2777e-06
3.05146e-06
3.05113e-06
3.03482e-06
3.04468e-06
2.97391e-06
2.82529e-06
2.79282e-06
2.87403e-06
2.96028e-06
3.00966e-06
3.03906e-06
3.04861e-06
3.06016e-06
3.07678e-06
3.08674e-06
3.11304e-06
3.09445e-06
3.03128e-06
3.02221e-06
3.01196e-06
3.00668e-06
2.96163e-06
2.8868e-06
2.87543e-06
2.92145e-06
2.97428e-06
3.01354e-06
3.03626e-06
3.05877e-06
3.07053e-06
3.07306e-06
3.07056e-06
3.0635e-06
3.07643e-06
2.8993e-06
2.86856e-06
2.8485e-06
2.85418e-06
2.79365e-06
2.68339e-06
2.67711e-06
2.74599e-06
2.81456e-06
2.84612e-06
2.8953e-06
2.8553e-06
2.91045e-06
2.97703e-06
3.03459e-06
3.05865e-06
3.09095e-06
2.85602e-06
2.85449e-06
2.8386e-06
2.85273e-06
2.77562e-06
2.62153e-06
2.60495e-06
2.69342e-06
2.7762e-06
2.82083e-06
2.84685e-06
2.85504e-06
2.86701e-06
2.88332e-06
2.90438e-06
2.89834e-06
2.95471e-06
2.83433e-06
2.83004e-06
2.82394e-06
2.81181e-06
2.78102e-06
2.74353e-06
2.73673e-06
2.76128e-06
2.79545e-06
2.82492e-06
2.84679e-06
2.86417e-06
2.87732e-06
2.88556e-06
2.89078e-06
2.89181e-06
2.92121e-06
2.65224e-06
2.64968e-06
2.63443e-06
2.65838e-06
2.57831e-06
2.42048e-06
2.42053e-06
2.51796e-06
2.59956e-06
2.64272e-06
2.66559e-06
2.68047e-06
2.69412e-06
2.6932e-06
2.73181e-06
2.66488e-06
2.7342e-06
2.63046e-06
2.62752e-06
2.61908e-06
2.62471e-06
2.56959e-06
2.47461e-06
2.47445e-06
2.53496e-06
2.59138e-06
2.62684e-06
2.64878e-06
2.66614e-06
2.67591e-06
2.68697e-06
2.69837e-06
2.68345e-06
2.7032e-06
2.43517e-06
2.43379e-06
2.42214e-06
2.44185e-06
2.37339e-06
2.24757e-06
2.25904e-06
2.33977e-06
2.40225e-06
2.43334e-06
2.45394e-06
2.45646e-06
2.49576e-06
2.43072e-06
2.4891e-06
2.56675e-06
2.66017e-06
2.4239e-06
2.41285e-06
2.39902e-06
2.42166e-06
2.3495e-06
2.21404e-06
2.22514e-06
2.31093e-06
2.37862e-06
2.41159e-06
2.4334e-06
2.44622e-06
2.45908e-06
2.4521e-06
2.45667e-06
2.46637e-06
2.50396e-06
2.32414e-06
2.23973e-06
2.19212e-06
2.19159e-06
2.14293e-06
2.06618e-06
2.08199e-06
2.1389e-06
2.16694e-06
2.22168e-06
2.15218e-06
2.21746e-06
2.31558e-06
2.40134e-06
2.45079e-06
2.46142e-06
2.48695e-06
2.17968e-06
2.17976e-06
2.16895e-06
2.19789e-06
2.11868e-06
1.9739e-06
1.99331e-06
2.08132e-06
2.14073e-06
2.16922e-06
2.17604e-06
2.18854e-06
2.20838e-06
2.22338e-06
2.23449e-06
2.23495e-06
2.26066e-06
2.16836e-06
2.16758e-06
2.16218e-06
2.15583e-06
2.12043e-06
2.07131e-06
2.06878e-06
2.10094e-06
2.13644e-06
2.16195e-06
2.18058e-06
2.19344e-06
2.19972e-06
2.20477e-06
2.21401e-06
2.21568e-06
2.23937e-06
1.89637e-06
1.89572e-06
1.88439e-06
1.9135e-06
1.84078e-06
1.71485e-06
1.74521e-06
1.8271e-06
1.87863e-06
1.90091e-06
1.91313e-06
1.92275e-06
1.93044e-06
1.9369e-06
1.94538e-06
1.94673e-06
1.97133e-06
1.88085e-06
1.87936e-06
1.87382e-06
1.87633e-06
1.83627e-06
1.77538e-06
1.78046e-06
1.81928e-06
1.85474e-06
1.87775e-06
1.89285e-06
1.90374e-06
1.91154e-06
1.91779e-06
1.92604e-06
1.92732e-06
1.95022e-06
1.56244e-06
1.56136e-06
1.55152e-06
1.57595e-06
1.51105e-06
1.41057e-06
1.44709e-06
1.51454e-06
1.55175e-06
1.5666e-06
1.57517e-06
1.58257e-06
1.58906e-06
1.595e-06
1.60296e-06
1.60503e-06
1.62581e-06
1.54527e-06
1.54332e-06
1.53767e-06
1.54079e-06
1.50412e-06
1.44889e-06
1.45485e-06
1.48956e-06
1.52102e-06
1.54101e-06
1.55347e-06
1.56232e-06
1.56912e-06
1.57503e-06
1.58232e-06
1.5833e-06
1.60615e-06
1.08682e-06
1.08698e-06
1.08672e-06
1.08254e-06
1.09301e-06
1.04196e-06
9.99297e-07
1.04538e-06
1.08131e-06
1.09507e-06
1.10235e-06
1.10946e-06
1.11642e-06
1.12303e-06
1.1289e-06
1.13866e-06
1.13807e-06
1.15606e-06
7.56518e-07
7.55922e-07
7.5584e-07
7.53873e-07
7.62705e-07
7.53151e-07
7.25927e-07
7.30338e-07
7.4866e-07
7.58546e-07
7.61011e-07
7.61985e-07
7.63015e-07
7.63598e-07
7.65758e-07
7.59546e-07
7.9702e-07
6.86467e-07
9.90372e-06
9.83818e-06
9.7898e-06
9.71765e-06
9.79213e-06
9.43394e-06
9.03707e-06
9.32331e-06
9.59804e-06
9.75086e-06
9.8442e-06
9.92367e-06
1.00087e-05
1.01044e-05
1.02184e-05
1.03416e-05
1.05018e-05
1.06652e-05
7.75485e-06
7.73644e-06
7.73096e-06
7.73473e-06
7.71429e-06
7.65781e-06
7.63178e-06
7.6565e-06
7.70195e-06
7.7485e-06
7.77454e-06
7.81028e-06
7.82697e-06
7.83484e-06
7.8344e-06
7.82724e-06
7.83916e-06
7.57677e-06
7.52415e-06
7.49924e-06
7.51655e-06
7.49197e-06
7.3952e-06
7.35924e-06
7.4008e-06
7.47253e-06
7.50112e-06
7.59157e-06
7.51929e-06
7.5761e-06
7.67398e-06
7.78116e-06
7.81246e-06
7.8883e-06
7.50759e-06
7.51131e-06
7.49477e-06
7.52654e-06
7.49619e-06
7.33792e-06
7.26581e-06
7.31767e-06
7.40411e-06
7.46097e-06
7.50357e-06
7.5091e-06
7.51956e-06
7.55562e-06
7.57831e-06
7.6466e-06
7.60297e-06
7.48458e-06
7.46791e-06
7.46039e-06
7.4695e-06
7.445e-06
7.36865e-06
7.33814e-06
7.37163e-06
7.42545e-06
7.47457e-06
7.50134e-06
7.53338e-06
7.55164e-06
7.56213e-06
7.56411e-06
7.55903e-06
7.56713e-06
7.30059e-06
7.23935e-06
7.20827e-06
7.23103e-06
7.20515e-06
7.09423e-06
7.06012e-06
7.10913e-06
7.18353e-06
7.20729e-06
7.3e-06
7.2139e-06
7.26531e-06
7.37134e-06
7.4844e-06
7.54413e-06
7.59245e-06
7.21412e-06
7.21704e-06
7.20112e-06
7.23555e-06
7.2023e-06
7.0436e-06
6.98399e-06
7.04227e-06
7.12449e-06
7.17498e-06
7.21192e-06
7.21523e-06
7.22629e-06
7.25397e-06
7.30252e-06
7.28614e-06
7.3954e-06
7.17938e-06
7.17553e-06
7.1756e-06
7.17483e-06
7.15364e-06
7.11196e-06
7.09326e-06
7.11118e-06
7.14765e-06
7.18417e-06
7.21319e-06
7.23624e-06
7.2555e-06
7.27302e-06
7.28335e-06
7.28585e-06
7.33557e-06
6.89017e-06
6.89189e-06
6.87528e-06
6.92224e-06
6.89233e-06
6.73181e-06
6.6885e-06
6.75955e-06
6.84372e-06
6.89689e-06
6.92722e-06
6.94599e-06
6.9703e-06
6.95566e-06
7.04392e-06
6.914e-06
6.98857e-06
6.85714e-06
6.85503e-06
6.84963e-06
6.87244e-06
6.84616e-06
6.74992e-06
6.72401e-06
6.7691e-06
6.8275e-06
6.8711e-06
6.89914e-06
6.9244e-06
6.93751e-06
6.95539e-06
6.97828e-06
6.94705e-06
6.96881e-06
6.54395e-06
6.54143e-06
6.52921e-06
6.56937e-06
6.54188e-06
6.41398e-06
6.39314e-06
6.45677e-06
6.52261e-06
6.55881e-06
6.58877e-06
6.57488e-06
6.66669e-06
6.53693e-06
6.59427e-06
6.71047e-06
6.87672e-06
6.53711e-06
6.51234e-06
6.49161e-06
6.5338e-06
6.50472e-06
6.36751e-06
6.34276e-06
6.40871e-06
6.48087e-06
6.51955e-06
6.54872e-06
6.56131e-06
6.58835e-06
6.57406e-06
6.57241e-06
6.58593e-06
6.65691e-06
6.4219e-06
6.26441e-06
6.16583e-06
6.16036e-06
6.13429e-06
6.0582e-06
6.05675e-06
6.11283e-06
6.12169e-06
6.23303e-06
6.08201e-06
6.1416e-06
6.29289e-06
6.45317e-06
6.55945e-06
6.59007e-06
6.6335e-06
6.13077e-06
6.12886e-06
6.11528e-06
6.16545e-06
6.12797e-06
5.97158e-06
5.9498e-06
6.02059e-06
6.08241e-06
6.12144e-06
6.12045e-06
6.12962e-06
6.16566e-06
6.20005e-06
6.22329e-06
6.2226e-06
6.26562e-06
6.10237e-06
6.10225e-06
6.09994e-06
6.10695e-06
6.08195e-06
6.01871e-06
5.99689e-06
6.02363e-06
6.06707e-06
6.10304e-06
6.12849e-06
6.14705e-06
6.15991e-06
6.1705e-06
6.18552e-06
6.18583e-06
6.22054e-06
5.65286e-06
5.65513e-06
5.64034e-06
5.6907e-06
5.65282e-06
5.50718e-06
5.5036e-06
5.57982e-06
5.64256e-06
5.67379e-06
5.69052e-06
5.70395e-06
5.71676e-06
5.72722e-06
5.74043e-06
5.73856e-06
5.779e-06
5.61628e-06
5.61705e-06
5.61293e-06
5.6303e-06
5.60296e-06
5.52283e-06
5.50483e-06
5.53981e-06
5.58626e-06
5.62131e-06
5.64438e-06
5.66072e-06
5.67316e-06
5.6823e-06
5.69492e-06
5.69337e-06
5.72648e-06
5.10372e-06
5.10647e-06
5.09114e-06
5.13936e-06
5.09097e-06
4.95104e-06
4.96824e-06
5.0462e-06
5.09913e-06
5.12239e-06
5.13503e-06
5.14577e-06
5.15549e-06
5.16317e-06
5.17492e-06
5.17382e-06
5.20199e-06
5.06268e-06
5.06271e-06
5.05671e-06
5.07415e-06
5.04619e-06
4.96383e-06
4.94435e-06
4.97843e-06
5.0248e-06
5.0581e-06
5.07796e-06
5.09078e-06
5.10014e-06
5.10655e-06
5.11679e-06
5.11162e-06
5.14003e-06
4.53888e-06
4.54279e-06
4.54873e-06
4.53943e-06
4.58352e-06
4.49467e-06
4.38189e-06
4.46062e-06
4.53533e-06
4.56577e-06
4.57889e-06
4.58974e-06
4.59962e-06
4.60815e-06
4.61238e-06
4.62469e-06
4.61754e-06
4.60713e-06
4.73569e-06
4.72871e-06
4.72227e-06
4.71729e-06
4.7245e-06
4.76273e-06
4.73184e-06
4.6729e-06
4.69433e-06
4.72213e-06
4.7299e-06
4.73253e-06
4.73624e-06
4.73885e-06
4.74134e-06
4.74097e-06
4.7176e-06
4.97769e-06
1.15743e-05
1.15008e-05
1.14474e-05
1.13644e-05
1.14533e-05
1.10698e-05
1.06115e-05
1.0918e-05
1.12332e-05
1.1409e-05
1.1516e-05
1.16074e-05
1.17048e-05
1.18145e-05
1.19432e-05
1.2083e-05
1.22612e-05
1.24325e-05
1.35111e-05
1.34775e-05
1.34643e-05
1.34706e-05
1.34506e-05
1.33766e-05
1.33381e-05
1.33675e-05
1.34264e-05
1.3493e-05
1.35274e-05
1.35831e-05
1.36099e-05
1.36238e-05
1.36215e-05
1.36293e-05
1.36336e-05
1.32767e-05
1.3188e-05
1.31397e-05
1.31616e-05
1.31429e-05
1.30168e-05
1.29641e-05
1.30118e-05
1.31106e-05
1.31365e-05
1.32839e-05
1.31786e-05
1.32293e-05
1.33643e-05
1.35299e-05
1.35927e-05
1.37003e-05
1.31537e-05
1.31596e-05
1.31322e-05
1.31755e-05
1.31534e-05
1.29417e-05
1.28397e-05
1.28992e-05
1.30098e-05
1.30833e-05
1.31485e-05
1.31554e-05
1.31629e-05
1.32181e-05
1.32444e-05
1.3376e-05
1.33035e-05
1.31297e-05
1.30991e-05
1.30836e-05
1.30976e-05
1.30763e-05
1.29773e-05
1.29304e-05
1.29686e-05
1.30375e-05
1.31064e-05
1.31427e-05
1.31908e-05
1.32173e-05
1.32342e-05
1.32351e-05
1.32447e-05
1.32383e-05
1.28787e-05
1.27767e-05
1.27188e-05
1.27471e-05
1.27309e-05
1.25882e-05
1.25355e-05
1.2591e-05
1.26932e-05
1.27109e-05
1.28643e-05
1.27364e-05
1.27811e-05
1.29295e-05
1.30973e-05
1.32106e-05
1.32675e-05
1.2727e-05
1.27327e-05
1.2707e-05
1.27532e-05
1.27306e-05
1.25224e-05
1.2432e-05
1.24967e-05
1.26015e-05
1.26671e-05
1.27239e-05
1.27273e-05
1.27367e-05
1.27716e-05
1.28518e-05
1.28294e-05
1.2997e-05
1.26728e-05
1.26682e-05
1.26675e-05
1.26708e-05
1.26499e-05
1.25941e-05
1.25631e-05
1.2582e-05
1.26297e-05
1.26806e-05
1.27231e-05
1.27566e-05
1.27837e-05
1.28127e-05
1.28264e-05
1.28377e-05
1.29034e-05
1.22417e-05
1.22472e-05
1.22207e-05
1.22843e-05
1.22714e-05
1.20638e-05
1.19931e-05
1.20754e-05
1.21838e-05
1.22572e-05
1.23018e-05
1.23279e-05
1.23694e-05
1.23341e-05
1.24849e-05
1.22991e-05
1.23646e-05
1.21938e-05
1.21912e-05
1.2181e-05
1.22133e-05
1.21948e-05
1.20705e-05
1.20255e-05
1.20774e-05
1.21537e-05
1.22149e-05
1.22554e-05
1.22931e-05
1.23108e-05
1.23377e-05
1.23762e-05
1.23321e-05
1.2341e-05
1.17283e-05
1.17212e-05
1.16998e-05
1.17548e-05
1.17421e-05
1.15783e-05
1.15385e-05
1.16144e-05
1.17012e-05
1.17499e-05
1.17994e-05
1.17645e-05
1.19228e-05
1.17293e-05
1.17834e-05
1.1951e-05
1.21811e-05
1.17272e-05
1.16863e-05
1.16448e-05
1.16976e-05
1.16816e-05
1.1504e-05
1.14574e-05
1.15356e-05
1.16314e-05
1.16847e-05
1.17303e-05
1.17421e-05
1.17827e-05
1.1764e-05
1.17554e-05
1.17739e-05
1.18745e-05
1.15764e-05
1.134e-05
1.11738e-05
1.11496e-05
1.11248e-05
1.1028e-05
1.1017e-05
1.1095e-05
1.10878e-05
1.12741e-05
1.10494e-05
1.1104e-05
1.13154e-05
1.15532e-05
1.17227e-05
1.17863e-05
1.18432e-05
1.11112e-05
1.11067e-05
1.10785e-05
1.11435e-05
1.11178e-05
1.09119e-05
1.08646e-05
1.09495e-05
1.10288e-05
1.10888e-05
1.1087e-05
1.10903e-05
1.11371e-05
1.1195e-05
1.12377e-05
1.12436e-05
1.1301e-05
1.10538e-05
1.10544e-05
1.10485e-05
1.10621e-05
1.10386e-05
1.09504e-05
1.09103e-05
1.09402e-05
1.09991e-05
1.10522e-05
1.10904e-05
1.11175e-05
1.1137e-05
1.11546e-05
1.11771e-05
1.11825e-05
1.12211e-05
1.03995e-05
1.04054e-05
1.038e-05
1.04487e-05
1.04213e-05
1.02251e-05
1.02012e-05
1.02957e-05
1.03826e-05
1.04302e-05
1.04567e-05
1.04759e-05
1.04935e-05
1.05094e-05
1.05293e-05
1.05294e-05
1.05824e-05
1.03359e-05
1.03377e-05
1.03288e-05
1.03552e-05
1.03306e-05
1.02191e-05
1.01814e-05
1.02219e-05
1.02856e-05
1.03373e-05
1.03724e-05
1.03965e-05
1.04143e-05
1.04278e-05
1.04455e-05
1.04466e-05
1.0483e-05
9.68254e-06
9.69e-06
9.66163e-06
9.73597e-06
9.68644e-06
9.47288e-06
9.47652e-06
9.58542e-06
9.66748e-06
9.70687e-06
9.72773e-06
9.74341e-06
9.75688e-06
9.76733e-06
9.78319e-06
9.78392e-06
9.81264e-06
9.62841e-06
9.62826e-06
9.61716e-06
9.64155e-06
9.61815e-06
9.50872e-06
9.46604e-06
9.50001e-06
9.56004e-06
9.60676e-06
9.63469e-06
9.65157e-06
9.663e-06
9.66971e-06
9.68183e-06
9.67527e-06
9.70059e-06
9.55225e-06
9.55627e-06
9.5653e-06
9.54181e-06
9.62123e-06
9.50427e-06
9.28184e-06
9.35137e-06
9.47623e-06
9.54503e-06
9.57296e-06
9.58695e-06
9.59577e-06
9.60145e-06
9.59819e-06
9.60725e-06
9.58977e-06
9.54956e-06
1.1542e-05
1.15186e-05
1.14909e-05
1.14825e-05
1.14404e-05
1.15745e-05
1.1663e-05
1.15053e-05
1.14514e-05
1.14601e-05
1.14665e-05
1.14725e-05
1.14818e-05
1.14915e-05
1.14869e-05
1.1566e-05
1.11533e-05
1.31012e-05
1.28965e-05
1.28149e-05
1.27571e-05
1.26633e-05
1.27632e-05
1.23888e-05
1.18904e-05
1.21786e-05
1.25171e-05
1.27142e-05
1.28351e-05
1.2938e-05
1.30472e-05
1.31699e-05
1.33132e-05
1.34683e-05
1.36665e-05
1.38505e-05
2.05108e-05
2.04649e-05
2.04429e-05
2.04493e-05
2.04319e-05
2.03466e-05
2.02955e-05
2.0327e-05
2.0397e-05
2.04844e-05
2.05253e-05
2.06022e-05
2.06386e-05
2.06558e-05
2.06415e-05
2.06689e-05
2.06606e-05
2.01998e-05
2.00756e-05
2.00009e-05
2.00201e-05
2.00094e-05
1.98651e-05
1.97957e-05
1.98448e-05
1.99717e-05
1.99881e-05
2.01996e-05
2.00592e-05
2.01036e-05
2.02773e-05
2.05008e-05
2.06005e-05
2.07383e-05
2.00081e-05
2.00205e-05
1.99847e-05
2.00312e-05
2.00199e-05
1.97735e-05
1.96381e-05
1.96979e-05
1.98304e-05
1.9918e-05
2.00071e-05
2.00152e-05
2.00168e-05
2.00908e-05
2.01104e-05
2.03169e-05
2.02124e-05
1.99837e-05
1.99414e-05
1.99163e-05
1.9931e-05
1.9914e-05
1.98e-05
1.97365e-05
1.97766e-05
1.98586e-05
1.99476e-05
1.99929e-05
2.00586e-05
2.00928e-05
2.01141e-05
2.01058e-05
2.01367e-05
2.0109e-05
1.96484e-05
1.95054e-05
1.94169e-05
1.94421e-05
1.9436e-05
1.92733e-05
1.92027e-05
1.92602e-05
1.93916e-05
1.9397e-05
1.96183e-05
1.94484e-05
1.9485e-05
1.9679e-05
1.98981e-05
2.00752e-05
2.01356e-05
1.9416e-05
1.9428e-05
1.93947e-05
1.94443e-05
1.94328e-05
1.91921e-05
1.90692e-05
1.91341e-05
1.92594e-05
1.9338e-05
1.94163e-05
1.94199e-05
1.94267e-05
1.94643e-05
1.95759e-05
1.95479e-05
1.97775e-05
1.93362e-05
1.93354e-05
1.93342e-05
1.93404e-05
1.93212e-05
1.92538e-05
1.92105e-05
1.92291e-05
1.92873e-05
1.93525e-05
1.94091e-05
1.94538e-05
1.94879e-05
1.95288e-05
1.95429e-05
1.95655e-05
1.96448e-05
1.87416e-05
1.8754e-05
1.87206e-05
1.87924e-05
1.87972e-05
1.856e-05
1.84612e-05
1.85494e-05
1.86799e-05
1.87734e-05
1.88331e-05
1.8866e-05
1.8928e-05
1.88658e-05
1.90837e-05
1.88476e-05
1.88958e-05
1.8676e-05
1.86753e-05
1.86612e-05
1.86981e-05
1.86876e-05
1.85446e-05
1.84805e-05
1.85358e-05
1.86286e-05
1.87077e-05
1.87608e-05
1.88117e-05
1.88336e-05
1.88683e-05
1.89236e-05
1.88694e-05
1.8857e-05
1.80456e-05
1.80336e-05
1.80044e-05
1.8067e-05
1.80697e-05
1.78837e-05
1.7825e-05
1.79088e-05
1.80154e-05
1.80759e-05
1.8148e-05
1.8088e-05
1.83176e-05
1.80645e-05
1.81089e-05
1.83311e-05
1.86154e-05
1.80474e-05
1.79944e-05
1.79309e-05
1.79836e-05
1.79791e-05
1.77753e-05
1.77061e-05
1.77918e-05
1.79095e-05
1.79773e-05
1.80407e-05
1.80503e-05
1.81029e-05
1.80802e-05
1.80639e-05
1.80876e-05
1.82142e-05
1.78589e-05
1.75542e-05
1.73189e-05
1.72655e-05
1.72381e-05
1.71273e-05
1.71054e-05
1.72055e-05
1.71783e-05
1.74401e-05
1.71546e-05
1.71966e-05
1.74603e-05
1.77687e-05
1.79993e-05
1.81031e-05
1.81714e-05
1.72135e-05
1.72095e-05
1.71664e-05
1.72354e-05
1.72216e-05
1.69821e-05
1.69074e-05
1.70006e-05
1.70941e-05
1.71764e-05
1.71756e-05
1.71718e-05
1.72242e-05
1.7305e-05
1.73702e-05
1.73887e-05
1.74585e-05
1.71189e-05
1.71245e-05
1.71154e-05
1.71333e-05
1.71135e-05
1.70058e-05
1.69472e-05
1.69766e-05
1.70478e-05
1.71166e-05
1.71674e-05
1.72032e-05
1.72284e-05
1.72522e-05
1.72806e-05
1.72941e-05
1.7332e-05
1.62975e-05
1.63104e-05
1.62763e-05
1.63557e-05
1.63413e-05
1.61074e-05
1.60587e-05
1.61647e-05
1.6274e-05
1.63387e-05
1.6376e-05
1.64012e-05
1.64223e-05
1.64423e-05
1.64674e-05
1.64715e-05
1.65331e-05
1.6205e-05
1.621e-05
1.61965e-05
1.62281e-05
1.62091e-05
1.60759e-05
1.60182e-05
1.60581e-05
1.61337e-05
1.61991e-05
1.62446e-05
1.62756e-05
1.62974e-05
1.63135e-05
1.6334e-05
1.63389e-05
1.63734e-05
1.5567e-05
1.55819e-05
1.55396e-05
1.56365e-05
1.55923e-05
1.53063e-05
1.52842e-05
1.54186e-05
1.55319e-05
1.55902e-05
1.56201e-05
1.564e-05
1.56557e-05
1.56668e-05
1.56842e-05
1.5687e-05
1.57103e-05
1.55231e-05
1.55239e-05
1.55103e-05
1.55348e-05
1.55224e-05
1.54092e-05
1.53447e-05
1.53662e-05
1.54279e-05
1.54806e-05
1.55124e-05
1.553e-05
1.55406e-05
1.5544e-05
1.55551e-05
1.5546e-05
1.55599e-05
1.62233e-05
1.6229e-05
1.6238e-05
1.62094e-05
1.62895e-05
1.6194e-05
1.59464e-05
1.59624e-05
1.6084e-05
1.61722e-05
1.62112e-05
1.62262e-05
1.6231e-05
1.62315e-05
1.62144e-05
1.62247e-05
1.61725e-05
1.61441e-05
1.90149e-05
1.89876e-05
1.8947e-05
1.89446e-05
1.88615e-05
1.90185e-05
1.92271e-05
1.90818e-05
1.89731e-05
1.89407e-05
1.89322e-05
1.89371e-05
1.89501e-05
1.89675e-05
1.89547e-05
1.91157e-05
1.83925e-05
2.1389e-05
1.40069e-05
1.39172e-05
1.38557e-05
1.37523e-05
1.38574e-05
1.35167e-05
1.30036e-05
1.32496e-05
1.3593e-05
1.38059e-05
1.39395e-05
1.40528e-05
1.41728e-05
1.43072e-05
1.4464e-05
1.46325e-05
1.48504e-05
1.50453e-05
2.87929e-05
2.8737e-05
2.87076e-05
2.87132e-05
2.8701e-05
2.86141e-05
2.85545e-05
2.85855e-05
2.86619e-05
2.87685e-05
2.88124e-05
2.89111e-05
2.89571e-05
2.89762e-05
2.89431e-05
2.89911e-05
2.8972e-05
2.83867e-05
2.82271e-05
2.81268e-05
2.81391e-05
2.81389e-05
2.79927e-05
2.79135e-05
2.79575e-05
2.81087e-05
2.81051e-05
2.83867e-05
2.82053e-05
2.82426e-05
2.84616e-05
2.87471e-05
2.8884e-05
2.90571e-05
2.81157e-05
2.81366e-05
2.80978e-05
2.81419e-05
2.81433e-05
2.78883e-05
2.77278e-05
2.77777e-05
2.7922e-05
2.80159e-05
2.81281e-05
2.81352e-05
2.81285e-05
2.82239e-05
2.82294e-05
2.85177e-05
2.83815e-05
2.80909e-05
2.80386e-05
2.80055e-05
2.80188e-05
2.8008e-05
2.7891e-05
2.78156e-05
2.78534e-05
2.79429e-05
2.80495e-05
2.81013e-05
2.81844e-05
2.82261e-05
2.82509e-05
2.82278e-05
2.82824e-05
2.8233e-05
2.76548e-05
2.74708e-05
2.73527e-05
2.7369e-05
2.73745e-05
2.72095e-05
2.71277e-05
2.718e-05
2.73365e-05
2.73196e-05
2.76143e-05
2.73976e-05
2.74252e-05
2.76724e-05
2.7943e-05
2.81881e-05
2.82523e-05
2.73313e-05
2.73511e-05
2.7315e-05
2.73621e-05
2.73629e-05
2.71143e-05
2.69666e-05
2.70216e-05
2.7158e-05
2.7243e-05
2.73419e-05
2.73442e-05
2.73479e-05
2.73859e-05
2.75302e-05
2.74914e-05
2.7793e-05
2.72215e-05
2.72272e-05
2.72273e-05
2.72372e-05
2.7222e-05
2.71474e-05
2.70939e-05
2.71107e-05
2.71769e-05
2.72544e-05
2.73242e-05
2.73797e-05
2.74198e-05
2.74728e-05
2.74863e-05
2.75187e-05
2.76157e-05
2.64473e-05
2.64673e-05
2.64325e-05
2.65066e-05
2.65306e-05
2.62889e-05
2.61692e-05
2.62535e-05
2.63966e-05
2.65057e-05
2.6579e-05
2.66169e-05
2.6702e-05
2.6607e-05
2.6897e-05
2.66086e-05
2.66419e-05
2.63621e-05
2.63636e-05
2.63484e-05
2.6387e-05
2.63861e-05
2.6238e-05
2.61592e-05
2.62124e-05
2.63157e-05
2.64096e-05
2.64737e-05
2.6537e-05
2.6563e-05
2.66034e-05
2.66772e-05
2.6612e-05
2.65791e-05
2.55639e-05
2.55452e-05
2.55113e-05
2.55767e-05
2.55963e-05
2.54071e-05
2.53343e-05
2.5418e-05
2.55375e-05
2.56059e-05
2.5701e-05
2.56125e-05
2.59151e-05
2.56053e-05
2.56386e-05
2.59159e-05
2.62497e-05
2.55625e-05
2.55014e-05
2.54192e-05
2.5464e-05
2.54708e-05
2.52602e-05
2.5173e-05
2.52572e-05
2.53889e-05
2.54675e-05
2.55476e-05
2.55532e-05
2.56163e-05
2.55891e-05
2.55667e-05
2.55944e-05
2.57479e-05
2.53381e-05
2.49822e-05
2.46864e-05
2.45991e-05
2.45677e-05
2.44515e-05
2.44192e-05
2.45364e-05
2.44866e-05
2.48148e-05
2.44836e-05
2.4511e-05
2.48157e-05
2.51798e-05
2.54624e-05
2.56057e-05
2.5688e-05
2.4527e-05
2.45237e-05
2.44675e-05
2.45326e-05
2.45315e-05
2.42793e-05
2.41805e-05
2.42726e-05
2.43718e-05
2.44739e-05
2.44749e-05
2.44638e-05
2.45183e-05
2.46194e-05
2.47087e-05
2.47419e-05
2.48259e-05
2.43934e-05
2.44056e-05
2.4395e-05
2.4416e-05
2.44019e-05
2.42822e-05
2.42075e-05
2.42325e-05
2.43101e-05
2.43905e-05
2.44511e-05
2.44941e-05
2.45238e-05
2.45523e-05
2.45854e-05
2.4606e-05
2.46437e-05
2.34831e-05
2.35048e-05
2.34649e-05
2.35499e-05
2.35511e-05
2.32952e-05
2.3221e-05
2.33277e-05
2.34527e-05
2.35325e-05
2.35802e-05
2.36109e-05
2.36336e-05
2.36553e-05
2.36835e-05
2.36909e-05
2.37577e-05
2.33686e-05
2.33774e-05
2.3361e-05
2.33947e-05
2.33837e-05
2.32415e-05
2.31672e-05
2.32e-05
2.32789e-05
2.33515e-05
2.34037e-05
2.3439e-05
2.34622e-05
2.34778e-05
2.34985e-05
2.35046e-05
2.35355e-05
2.29378e-05
2.29609e-05
2.2907e-05
2.30193e-05
2.29889e-05
2.26494e-05
2.25934e-05
2.27375e-05
2.28748e-05
2.295e-05
2.29879e-05
2.30103e-05
2.30257e-05
2.30341e-05
2.305e-05
2.30518e-05
2.30665e-05
2.29398e-05
2.29423e-05
2.29317e-05
2.29501e-05
2.29526e-05
2.28633e-05
2.27866e-05
2.27855e-05
2.28346e-05
2.28829e-05
2.29124e-05
2.29268e-05
2.29334e-05
2.29295e-05
2.29376e-05
2.29217e-05
2.29191e-05
2.43598e-05
2.43739e-05
2.43787e-05
2.43717e-05
2.43968e-05
2.43637e-05
2.42508e-05
2.42052e-05
2.42493e-05
2.43106e-05
2.43452e-05
2.43585e-05
2.43591e-05
2.43573e-05
2.43234e-05
2.43508e-05
2.42341e-05
2.42727e-05
2.53519e-05
2.53461e-05
2.53192e-05
2.533e-05
2.52747e-05
2.53498e-05
2.55504e-05
2.55552e-05
2.54921e-05
2.54386e-05
2.54115e-05
2.54111e-05
2.54245e-05
2.54449e-05
2.54463e-05
2.55505e-05
2.51386e-05
2.68166e-05
1.50086e-05
1.49111e-05
1.48462e-05
1.47346e-05
1.48398e-05
1.45426e-05
1.4033e-05
1.42297e-05
1.45655e-05
1.47891e-05
1.49337e-05
1.50567e-05
1.51866e-05
1.53315e-05
1.55009e-05
1.5681e-05
1.59187e-05
1.61204e-05
3.84157e-05
3.83502e-05
3.83146e-05
3.83195e-05
3.83136e-05
3.82314e-05
3.81679e-05
3.81976e-05
3.82769e-05
3.84018e-05
3.8446e-05
3.85674e-05
3.86242e-05
3.86451e-05
3.85882e-05
3.86564e-05
3.86313e-05
3.78976e-05
3.76997e-05
3.75744e-05
3.75775e-05
3.75888e-05
3.74514e-05
3.73701e-05
3.74056e-05
3.75797e-05
3.75455e-05
3.79046e-05
3.76764e-05
3.77037e-05
3.79754e-05
3.83319e-05
3.85054e-05
3.87219e-05
3.75369e-05
3.75665e-05
3.75281e-05
3.75676e-05
3.75815e-05
3.73338e-05
3.71583e-05
3.71933e-05
3.73419e-05
3.74346e-05
3.75698e-05
3.75739e-05
3.75566e-05
3.7678e-05
3.76646e-05
3.80408e-05
3.78756e-05
3.75109e-05
3.74489e-05
3.74091e-05
3.74203e-05
3.74163e-05
3.7304e-05
3.72218e-05
3.72555e-05
3.73483e-05
3.74703e-05
3.75267e-05
3.76273e-05
3.76768e-05
3.77054e-05
3.76636e-05
3.77428e-05
3.76736e-05
3.69597e-05
3.67333e-05
3.65862e-05
3.65905e-05
3.66075e-05
3.64512e-05
3.63658e-05
3.64087e-05
3.65883e-05
3.65392e-05
3.69138e-05
3.66457e-05
3.66612e-05
3.69703e-05
3.72958e-05
3.7612e-05
3.76819e-05
3.65356e-05
3.65631e-05
3.65272e-05
3.65698e-05
3.6582e-05
3.63403e-05
3.61769e-05
3.62169e-05
3.63571e-05
3.64423e-05
3.65619e-05
3.65612e-05
3.65623e-05
3.65995e-05
3.67801e-05
3.67228e-05
3.71083e-05
3.63935e-05
3.64059e-05
3.64087e-05
3.64231e-05
3.64137e-05
3.63346e-05
3.62723e-05
3.62867e-05
3.63593e-05
3.64474e-05
3.65299e-05
3.65958e-05
3.66412e-05
3.67065e-05
3.67202e-05
3.67589e-05
3.68808e-05
3.54292e-05
3.54561e-05
3.54232e-05
3.54976e-05
3.55406e-05
3.53089e-05
3.51763e-05
3.52517e-05
3.54001e-05
3.55209e-05
3.56068e-05
3.56482e-05
3.57592e-05
3.56261e-05
3.59933e-05
3.56493e-05
3.56711e-05
3.53239e-05
3.53261e-05
3.53111e-05
3.53504e-05
3.53593e-05
3.5214e-05
3.51248e-05
3.51729e-05
3.52821e-05
3.53881e-05
3.54619e-05
3.55366e-05
3.55674e-05
3.56106e-05
3.57056e-05
3.56272e-05
3.55778e-05
3.4368e-05
3.43404e-05
3.43029e-05
3.43691e-05
3.44053e-05
3.42229e-05
3.41409e-05
3.42199e-05
3.43472e-05
3.44206e-05
3.45386e-05
3.44204e-05
3.47934e-05
3.44342e-05
3.44552e-05
3.47827e-05
3.5161e-05
3.4355e-05
3.429e-05
3.41925e-05
3.42263e-05
3.42427e-05
3.40347e-05
3.39341e-05
3.40117e-05
3.41513e-05
3.42379e-05
3.4333e-05
3.43329e-05
3.44054e-05
3.43734e-05
3.43476e-05
3.43781e-05
3.456e-05
3.41071e-05
3.3725e-05
3.33827e-05
3.32628e-05
3.32254e-05
3.31053e-05
3.3062e-05
3.31913e-05
3.31235e-05
3.35002e-05
3.31483e-05
3.31594e-05
3.34856e-05
3.3882e-05
3.42013e-05
3.43773e-05
3.44766e-05
3.31657e-05
3.31613e-05
3.30913e-05
3.31484e-05
3.31594e-05
3.2904e-05
3.27852e-05
3.28713e-05
3.29711e-05
3.30903e-05
3.30946e-05
3.30776e-05
3.31315e-05
3.32497e-05
3.33631e-05
3.3412e-05
3.3511e-05
3.2999e-05
3.30174e-05
3.30065e-05
3.30289e-05
3.30211e-05
3.28956e-05
3.28079e-05
3.28253e-05
3.29034e-05
3.29902e-05
3.30569e-05
3.31048e-05
3.31372e-05
3.31687e-05
3.32056e-05
3.32308e-05
3.32697e-05
3.21187e-05
3.21496e-05
3.21053e-05
3.2193e-05
3.22105e-05
3.194e-05
3.18403e-05
3.19402e-05
3.20751e-05
3.21674e-05
3.22245e-05
3.22601e-05
3.22825e-05
3.23028e-05
3.23315e-05
3.23406e-05
3.24066e-05
3.19979e-05
3.20104e-05
3.19931e-05
3.2026e-05
3.20239e-05
3.18844e-05
3.1799e-05
3.18198e-05
3.18935e-05
3.19662e-05
3.20205e-05
3.20568e-05
3.20785e-05
3.20902e-05
3.21084e-05
3.21119e-05
3.21382e-05
3.19332e-05
3.19627e-05
3.19028e-05
3.20186e-05
3.20078e-05
3.16497e-05
3.15596e-05
3.16935e-05
3.18397e-05
3.19255e-05
3.19684e-05
3.19912e-05
3.20039e-05
3.20065e-05
3.20186e-05
3.20154e-05
3.2019e-05
3.20059e-05
3.20113e-05
3.20103e-05
3.20184e-05
3.2035e-05
3.1992e-05
3.19173e-05
3.18912e-05
3.19184e-05
3.19549e-05
3.19783e-05
3.19872e-05
3.19892e-05
3.19755e-05
3.19821e-05
3.19564e-05
3.19352e-05
3.34964e-05