/*--------------------------------*- C++ -*----------------------------------*\
  =========                 |
  \\      /  F ield         | OpenFOAM: The Open Source CFD Toolbox
   \\    /   O peration     | Website:  https://openfoam.org
    \\  /    A nd           | Version:  6
     \\/     M anipulation  |
\*---------------------------------------------------------------------------*/
FoamFile
{
    version     2.0;
    format      ascii;
    class       volScalarField;
    location    "0";
    object      k;
}
// * * * * * * * * * * * * * * * * * * * * * * * * * * * * * * * * * * * * * //

dimensions      [0 2 -2 0 0 0 0];

internalField   nonuniform List<scalar> 
63568
(
0.000526947
0.00052809
0.00052935
0.000530772
0.000532431
0.000534479
0.000537243
0.000541548
0.000549885
0.00057179
0.000650226
0.000607165
0.000561887
0.000547047
0.0005401
0.000535785
0.000532541
0.000529796
0.000527302
0.000524941
0.000522649
0.00052039
0.000518143
0.000515894
0.000513634
0.00051136
0.000509065
0.000506749
0.000495519
0.000497735
0.00049981
0.00050176
0.0005036
0.00050534
0.000506991
0.000526721
0.000527801
0.000528973
0.000530264
0.000531723
0.000533439
0.000535605
0.000538687
0.000544036
0.000556722
0.000595465
0.00057613
0.000550923
0.00054194
0.000537204
0.000533916
0.000531227
0.000528816
0.000526539
0.000524326
0.000522142
0.000519963
0.000517778
0.000515578
0.000513359
0.000511117
0.00050885
0.000506558
0.000495353
0.000497549
0.000499604
0.000501532
0.000503348
0.000505062
0.000506686
0.000452333
0.00045353
0.000454847
0.000456329
0.000458049
0.000460154
0.000462953
0.000467193
0.000474979
0.000493324
0.000541159
0.000518489
0.000485259
0.000472277
0.000465669
0.000461379
0.000458077
0.000455245
0.000452653
0.000450188
0.000447789
0.00044542
0.000443062
0.0004407
0.000438326
0.000435935
0.000433523
0.000431087
0.000419263
0.000421593
0.000423776
0.000425827
0.000427761
0.000429591
0.000431327
0.000452212
0.000453376
0.000454648
0.000456063
0.000457686
0.00045964
0.000462198
0.000466058
0.000473411
0.000493438
0.000577074
0.000529084
0.000484163
0.000470775
0.00046454
0.000460557
0.000457463
0.000454771
0.000452277
0.000449881
0.000447534
0.000445204
0.000442875
0.000440536
0.00043818
0.000435804
0.000433403
0.000430977
0.00041917
0.000421494
0.000423669
0.000425712
0.000427636
0.000429455
0.000431179
0.000452065
0.000453188
0.000454402
0.00045573
0.000457217
0.000458941
0.000461065
0.000463973
0.000468678
0.000478372
0.000503118
0.000490998
0.000474045
0.000466728
0.000462416
0.000459242
0.000456559
0.000454105
0.000451762
0.000449469
0.000447194
0.000444919
0.000442632
0.000440327
0.000437999
0.000435645
0.000433264
0.000430855
0.000419062
0.000421372
0.000423531
0.000425558
0.000427466
0.000429266
0.000430971
0.000392031
0.000393196
0.000394462
0.000395861
0.00039745
0.000399337
0.000401761
0.000405333
0.000411983
0.000429915
0.000503431
0.000462032
0.000421567
0.00040952
0.000403797
0.000400045
0.000397063
0.000394426
0.000391956
0.000389567
0.000387214
0.00038487
0.000382523
0.000380161
0.000377779
0.000375374
0.000372944
0.000370486
0.000358504
0.00036086
0.000363064
0.000365134
0.000367083
0.000368924
0.000370668
0.000391949
0.00039309
0.000394324
0.000395676
0.000397191
0.000398956
0.000401159
0.000404271
0.000409756
0.000423722
0.00048199
0.000448708
0.0004172
0.000407588
0.000402722
0.000399356
0.00039658
0.000394067
0.000391677
0.000389342
0.000387028
0.000384714
0.000382389
0.000380045
0.000377677
0.000375284
0.000372863
0.000370414
0.000358441
0.000360791
0.000362988
0.000365049
0.00036699
0.000368822
0.000370556
0.000342017
0.000343144
0.00034436
0.000345691
0.00034718
0.000348912
0.000351068
0.000354118
0.000359553
0.000373856
0.000434094
0.000399913
0.000367134
0.000357409
0.000352598
0.000349291
0.000346564
0.000344091
0.000341736
0.000339433
0.000337148
0.000334863
0.000332565
0.000330248
0.000327907
0.000325541
0.000323146
0.000320723
0.000308881
0.000311205
0.000313379
0.000315418
0.000317338
0.00031915
0.000320866
0.000341973
0.000343088
0.000344287
0.000345593
0.000347044
0.000348712
0.000350759
0.000353594
0.00035855
0.00037175
0.000439697
0.000398081
0.000365447
0.000356522
0.00035207
0.000348943
0.000346317
0.000343906
0.000341591
0.000339316
0.000337052
0.000334781
0.000332495
0.000330186
0.000327853
0.000325492
0.000323102
0.000320683
0.000308846
0.000311168
0.000313338
0.000315374
0.00031729
0.000319098
0.000320809
0.000298743
0.000299812
0.00030096
0.000302206
0.000303581
0.000305149
0.000307043
0.00030961
0.000313958
0.000325012
0.000373067
0.000345308
0.000319765
0.000312116
0.000308138
0.000305261
0.0003028
0.000300515
0.000298306
0.000296126
0.00029395
0.000291764
0.000289561
0.000287335
0.000285082
0.000282803
0.000280494
0.000278157
0.000266708
0.000268952
0.00027105
0.000273017
0.000274868
0.000276613
0.000278265
0.000298722
0.000299785
0.000300925
0.000302158
0.000303515
0.000305053
0.000306898
0.000309378
0.000313591
0.000324986
0.000395524
0.000349873
0.000319435
0.000311777
0.000307909
0.000305103
0.000302685
0.000300428
0.000298239
0.000296072
0.000293905
0.000291726
0.000289528
0.000287305
0.000285056
0.000282779
0.000280472
0.000278136
0.000266691
0.000268934
0.000271031
0.000272997
0.000274846
0.00027659
0.00027824
0.000259533
0.00026053
0.000261596
0.000262744
0.000263997
0.000265402
0.000267056
0.000269206
0.000272667
0.000281193
0.000320843
0.00029726
0.000277088
0.000271091
0.000267814
0.000265325
0.000263124
0.00026104
0.000259001
0.000256973
0.000254939
0.00025289
0.000250819
0.000248723
0.000246601
0.000244451
0.000242273
0.000240066
0.00022924
0.00023136
0.00023334
0.000235197
0.000236944
0.000238591
0.000240148
0.000259522
0.000260516
0.000261577
0.000262718
0.000263962
0.000265351
0.000266978
0.000269085
0.000272492
0.000281472
0.000344688
0.00030213
0.000277035
0.000270927
0.000267695
0.000265242
0.000263064
0.000260995
0.000258966
0.000256945
0.000254916
0.00025287
0.000250802
0.000248708
0.000246587
0.000244438
0.00024226
0.000240054
0.00022923
0.00023135
0.00023333
0.000235187
0.000236933
0.000238579
0.000240135
0.000222312
0.00022322
0.000224188
0.000225224
0.000226346
0.000227587
0.000229014
0.000230805
0.000233551
0.000240213
0.00027842
0.000254024
0.000236935
0.000232213
0.000229524
0.00022739
0.000225451
0.000223584
0.00022174
0.000219896
0.00021804
0.000216164
0.000214266
0.000212343
0.000210393
0.000208417
0.000206414
0.000204384
0.000194414
0.000196365
0.000198187
0.000199896
0.000201501
0.000203015
0.000204446
0.000222305
0.000223211
0.000224176
0.000225208
0.000226324
0.000227554
0.000228962
0.000230718
0.000233392
0.000240015
0.000289337
0.000255282
0.000236714
0.000232072
0.000229437
0.000227333
0.000225411
0.000223554
0.000221717
0.000219878
0.000218024
0.000216151
0.000214255
0.000212333
0.000210384
0.000208409
0.000206406
0.000204376
0.000194408
0.000196358
0.000198181
0.000199888
0.000201494
0.000203007
0.000204437
0.00018515
0.00018595
0.000186799
0.000187705
0.00018868
0.000189746
0.000190949
0.00019241
0.000194543
0.00019961
0.000238948
0.000211489
0.000197059
0.000193435
0.000191274
0.000189488
0.000187825
0.000186204
0.00018459
0.000182969
0.000181332
0.000179675
0.000177996
0.000176293
0.000174567
0.000172815
0.000171039
0.000169239
0.000160391
0.000162122
0.000163738
0.000165253
0.000166677
0.000168018
0.000169286
0.000185144
0.000185942
0.000186789
0.000187692
0.000188661
0.000189718
0.000190904
0.000192329
0.000194356
0.000198855
0.000226996
0.00020812
0.000196611
0.000193276
0.000191191
0.000189436
0.000187789
0.000186177
0.000184569
0.000182951
0.000181317
0.000179663
0.000177985
0.000176284
0.000174559
0.000172808
0.000171033
0.000169233
0.000160386
0.000162116
0.000163732
0.000165246
0.000166669
0.00016801
0.000169277
0.000145878
0.000146542
0.000147245
0.000147993
0.000148793
0.00014966
0.000150623
0.000151757
0.000153322
0.00015681
0.000190269
0.000165433
0.000155028
0.000152453
0.000150808
0.000149389
0.000148039
0.000146708
0.000145375
0.000144031
0.000142671
0.000141292
0.000139894
0.000138475
0.000137034
0.000135573
0.000134091
0.000132589
0.000125199
0.000126644
0.000127993
0.000129257
0.000130445
0.000131565
0.000132622
0.000108798
0.000109325
0.000109881
0.000110471
0.000111099
0.000111773
0.000112507
0.00011334
0.000114401
0.000116404
0.000131303
0.000120598
0.000115375
0.000113757
0.000112581
0.000111509
0.000110463
0.000109419
0.000108367
0.000107302
0.000106221
0.000105124
0.000104011
0.00010288
0.000101732
0.000100566
9.93841e-05
9.81851e-05
9.22832e-05
9.34362e-05
9.4513e-05
9.55217e-05
9.64695e-05
9.73623e-05
9.82055e-05
0.000108799
0.000109327
0.000109884
0.000110475
0.000111104
0.00011178
0.000112519
0.000113362
0.000114444
0.000116512
0.000130621
0.000120711
0.000115455
0.000113795
0.000112603
0.000111523
0.000110473
0.000109426
0.000108372
0.000107306
0.000106225
0.000105127
0.000104013
0.000102882
0.000101733
0.000100568
9.93854e-05
9.81862e-05
9.2284e-05
9.34371e-05
9.45141e-05
9.5523e-05
9.64709e-05
9.73639e-05
9.82072e-05
5.15985e-05
5.17359e-05
5.18816e-05
5.20368e-05
5.22026e-05
5.23816e-05
5.2578e-05
5.28029e-05
5.30935e-05
5.36626e-05
5.85551e-05
5.49435e-05
5.33696e-05
5.29192e-05
5.26003e-05
5.23135e-05
5.20365e-05
5.17623e-05
5.14881e-05
5.12127e-05
5.09354e-05
5.06562e-05
5.03748e-05
5.00912e-05
4.98056e-05
4.95179e-05
4.92284e-05
4.8937e-05
4.7537e-05
4.78063e-05
4.80597e-05
4.82987e-05
4.85248e-05
4.8739e-05
4.89426e-05
0.000928797
0.000928124
0.00092738
0.000926534
0.000925539
0.000924296
0.000922598
0.000919934
0.000914831
0.000902182
0.000863554
0.000883734
0.000907745
0.000916498
0.000920733
0.000923365
0.000925326
0.000926968
0.000928449
0.000929846
0.000931199
0.000932534
0.000933863
0.000935197
0.000936541
0.000937899
0.000939275
0.00094067
0.000947538
0.000946169
0.000944892
0.000943698
0.000942575
0.000941517
0.000940516
0.000928716
0.000928023
0.000927249
0.000926363
0.000925311
0.000923988
0.000922183
0.000919422
0.000914529
0.000904339
0.000882695
0.000892368
0.000908603
0.00091611
0.000920231
0.000922932
0.000924974
0.000926684
0.000928217
0.000929653
0.000931037
0.000932395
0.000933742
0.000935091
0.000936446
0.000937814
0.000939197
0.000940599
0.000947478
0.000946105
0.000944824
0.000943624
0.000942495
0.00094143
0.000940421
0.000881209
0.000880539
0.000879812
0.000879011
0.000878106
0.000877037
0.000875678
0.000873717
0.000870235
0.00086184
0.000837574
0.00084939
0.000865633
0.000871545
0.000874593
0.000876668
0.000878349
0.00087985
0.000881268
0.000882648
0.000884014
0.000885382
0.00088676
0.000888153
0.000889564
0.000890997
0.000892453
0.000893933
0.000901291
0.000899835
0.000898479
0.000897213
0.000896026
0.000894909
0.000893855
0.000881114
0.000880417
0.000879653
0.000878798
0.00087781
0.000876605
0.000875003
0.000872556
0.00086791
0.00085593
0.000814055
0.000836833
0.000861325
0.000869503
0.000873415
0.000875899
0.000877803
0.000879441
0.000880948
0.00088239
0.000883801
0.000885202
0.000886606
0.00088802
0.000889448
0.000890896
0.000892364
0.000893854
0.000901221
0.000899757
0.000898393
0.000897117
0.000895919
0.000894791
0.000893725
0.000881035
0.000880317
0.000879524
0.000878628
0.000877581
0.000876291
0.000874572
0.000872001
0.000867528
0.000858477
0.000840993
0.000848562
0.000862248
0.00086904
0.000872871
0.000875446
0.000877444
0.000879155
0.000880716
0.000882198
0.00088364
0.000885065
0.000886487
0.000887915
0.000889355
0.000890812
0.000892287
0.000893783
0.000901163
0.000899694
0.000898326
0.000897045
0.000895842
0.000894707
0.000893634
0.000832658
0.000831978
0.000831243
0.000830437
0.000829531
0.000828469
0.000827129
0.000825198
0.000821672
0.000812237
0.000774468
0.000795417
0.000816641
0.00082301
0.000826085
0.000828151
0.000829829
0.000831337
0.000832769
0.000834169
0.000835559
0.000836953
0.00083836
0.000839784
0.000841229
0.000842696
0.000844188
0.000845705
0.000853244
0.000851751
0.000850361
0.000849063
0.000847847
0.000846703
0.000845624
0.000832573
0.000831869
0.000831101
0.000830247
0.000829269
0.000828094
0.000826563
0.000824289
0.000820145
0.000810091
0.000778279
0.000794933
0.000814577
0.000821616
0.000825173
0.000827521
0.000829369
0.000830987
0.000832493
0.000833945
0.000835374
0.000836797
0.000838226
0.000839667
0.000841126
0.000842605
0.000844106
0.000845631
0.000853181
0.000851682
0.000850286
0.000848981
0.000847756
0.000846604
0.000845515
0.000781997
0.000781343
0.000780643
0.000779885
0.000779051
0.000778103
0.000776962
0.000775419
0.0007728
0.000766011
0.000735671
0.00075312
0.000769252
0.000773907
0.000776305
0.00077804
0.000779531
0.000780922
0.000782273
0.000783613
0.000784958
0.000786315
0.00078769
0.000789087
0.000790507
0.000791951
0.000793422
0.000794919
0.000802385
0.00080091
0.000799538
0.000798258
0.000797058
0.000795931
0.00079487
0.000781917
0.000781241
0.000780509
0.000779706
0.000778802
0.000777742
0.000776403
0.000774476
0.000770998
0.000761996
0.000725782
0.000746364
0.000766155
0.000772311
0.000775352
0.000777409
0.000779081
0.000780583
0.000782008
0.000783399
0.000784781
0.000786166
0.000787563
0.000788976
0.00079041
0.000791866
0.000793346
0.000794851
0.000802326
0.000800845
0.000799466
0.000798178
0.000796971
0.000795836
0.000794764
0.00072778
0.000727163
0.000726506
0.000725804
0.000725043
0.0007242
0.000723227
0.000721994
0.000720085
0.0007155
0.000693036
0.000706573
0.000717731
0.000720996
0.000722851
0.000724309
0.000725629
0.000726899
0.000728155
0.000729415
0.000730688
0.000731979
0.000733292
0.000734627
0.000735987
0.000737373
0.000738785
0.000740223
0.00074741
0.000745992
0.000744674
0.000743444
0.000742293
0.000741212
0.000740194
0.000727711
0.000727074
0.000726391
0.000725649
0.000724827
0.000723885
0.000722734
0.000721143
0.000718364
0.00071095
0.000673939
0.000696427
0.000714477
0.000719491
0.000721989
0.000723749
0.000725233
0.000726602
0.000727924
0.000729229
0.000730534
0.000731849
0.000733181
0.000734531
0.000735903
0.000737299
0.000738719
0.000740164
0.00074736
0.000745936
0.000744611
0.000743375
0.000742216
0.000741128
0.000740102
0.000668422
0.000667852
0.00066725
0.000666609
0.000665924
0.000665179
0.000664346
0.000663352
0.000661953
0.000658924
0.000642589
0.000652972
0.00066043
0.000662706
0.000664155
0.000665386
0.000666549
0.000667694
0.000668841
0.000670001
0.000671178
0.000672377
0.000673597
0.000674841
0.00067611
0.000677403
0.000678721
0.000680064
0.000686788
0.000685463
0.000684231
0.000683082
0.000682007
0.000680998
0.000680048
0.00066836
0.000667773
0.000667147
0.000666471
0.000665731
0.000664896
0.000663903
0.000662581
0.000660369
0.00065452
0.000621223
0.000642285
0.000657352
0.000661326
0.000663374
0.000664881
0.000666193
0.000667428
0.000668633
0.000669834
0.00067104
0.00067226
0.000673498
0.000674755
0.000676034
0.000677336
0.000678662
0.000680012
0.000686743
0.000685412
0.000684175
0.00068302
0.000681938
0.000680922
0.000679965
0.000601926
0.000601415
0.000600874
0.000600303
0.000599695
0.000599041
0.000598326
0.000597502
0.00059642
0.000594246
0.000579545
0.000589643
0.000595355
0.000597054
0.000598229
0.000599279
0.000600297
0.000601312
0.000602337
0.000603378
0.000604438
0.000605518
0.000606619
0.000607743
0.000608889
0.000610058
0.000611251
0.000612466
0.000618551
0.000617352
0.000616237
0.000615198
0.000614225
0.000613313
0.000612454
0.000601871
0.000601344
0.000600782
0.000600179
0.000599522
0.000598788
0.000597928
0.000596811
0.000595001
0.000590329
0.000563073
0.000580464
0.000592606
0.000595817
0.000597529
0.000598827
0.000599978
0.000601074
0.000602152
0.000603229
0.000604315
0.000605414
0.000606531
0.000607666
0.000608822
0.000609999
0.000611198
0.000612419
0.00061851
0.000617306
0.000616187
0.000615143
0.000614165
0.000613246
0.000612381
0.000525156
0.000524714
0.000524247
0.000523754
0.00052323
0.000522669
0.000522058
0.000521362
0.000520465
0.000518684
0.000503287
0.00051455
0.000519603
0.000521002
0.000521989
0.000522884
0.000523758
0.000524632
0.000525517
0.000526416
0.000527332
0.000528266
0.000529219
0.000530192
0.000531184
0.000532196
0.000533228
0.00053428
0.000539546
0.000538507
0.000537542
0.000536642
0.000535801
0.000535011
0.000534268
0.000525106
0.00052465
0.000524163
0.000523641
0.000523072
0.000522437
0.000521693
0.000520728
0.000519168
0.000515181
0.000494556
0.000507087
0.000517118
0.000519872
0.000521349
0.000522471
0.000523468
0.000524416
0.000525349
0.000526281
0.000527221
0.000528173
0.000529139
0.000530122
0.000531123
0.000532142
0.000533179
0.000534236
0.000539509
0.000538466
0.000537497
0.000536593
0.000535746
0.000534951
0.000534202
0.000433831
0.00043348
0.000433109
0.000432715
0.000432294
0.00043184
0.000431336
0.000430744
0.000429927
0.00042813
0.000413407
0.000423933
0.000429042
0.000430378
0.000431236
0.000431979
0.000432688
0.00043339
0.000434096
0.000434811
0.000435538
0.000436278
0.000437032
0.000437801
0.000438586
0.000439386
0.000440201
0.000441032
0.000445188
0.000444368
0.000443606
0.000442895
0.000442229
0.000441605
0.000441018
0.000306721
0.00030642
0.000306106
0.000305781
0.000305447
0.000305109
0.000304782
0.000304507
0.000304431
0.000305342
0.0003143
0.000308702
0.000304923
0.000304665
0.000304953
0.000305402
0.000305921
0.000306479
0.000307066
0.000307674
0.000308301
0.000308945
0.000309606
0.000310284
0.000310976
0.000311684
0.000312407
0.000313145
0.000316849
0.00031612
0.000315443
0.000314812
0.000314223
0.00031367
0.000313151
0.000306658
0.00030634
0.000306001
0.00030564
0.000305249
0.000304817
0.000304322
0.0003037
0.000302736
0.000300299
0.000285995
0.000294843
0.000301507
0.000303198
0.000304137
0.000304879
0.000305555
0.000306207
0.000306854
0.000307504
0.000308161
0.000308828
0.000309506
0.000310196
0.0003109
0.000311616
0.000312346
0.00031309
0.000316802
0.000316068
0.000315386
0.00031475
0.000314154
0.000313595
0.000313068
0.000158732
0.00015905
0.000159381
0.000159726
0.00016008
0.000160438
0.000160782
0.000161064
0.000161106
0.000159869
0.000138356
0.000154585
0.000160466
0.000160866
0.000160586
0.000160117
0.00015957
0.000158981
0.000158364
0.000157726
0.000157071
0.0001564
0.000155715
0.000155016
0.000154306
0.000153583
0.000152848
0.000152102
0.000148417
0.000149135
0.000149805
0.000150432
0.000151021
0.000151575
0.000152098
0.00110544
0.00110538
0.00110531
0.00110522
0.00110512
0.001105
0.00110482
0.00110455
0.00110403
0.00110287
0.0011
0.00110142
0.00110336
0.00110419
0.00110462
0.00110489
0.00110508
0.00110525
0.00110539
0.00110552
0.00110565
0.00110578
0.0011059
0.00110603
0.00110615
0.00110628
0.0011064
0.00110653
0.00110717
0.00110705
0.00110693
0.00110682
0.00110671
0.00110662
0.00110652
0.00110536
0.00110528
0.00110518
0.00110505
0.00110489
0.00110466
0.00110433
0.00110377
0.00110276
0.00110093
0.00109888
0.0010995
0.00110162
0.00110303
0.00110384
0.00110434
0.00110468
0.00110493
0.00110514
0.00110532
0.00110548
0.00110563
0.00110578
0.00110592
0.00110606
0.00110619
0.00110633
0.00110646
0.00110711
0.00110698
0.00110686
0.00110674
0.00110663
0.00110652
0.00110642
0.00106503
0.00106499
0.00106495
0.00106491
0.00106488
0.00106487
0.00106488
0.00106494
0.00106512
0.00106536
0.00106409
0.00106498
0.00106532
0.00106512
0.00106502
0.001065
0.00106503
0.00106508
0.00106515
0.00106523
0.00106532
0.00106542
0.00106552
0.00106562
0.00106573
0.00106584
0.00106595
0.00106607
0.00106668
0.00106656
0.00106646
0.00106636
0.00106626
0.00106618
0.0010661
0.00106495
0.00106489
0.00106482
0.00106474
0.00106465
0.00106453
0.00106437
0.0010641
0.00106361
0.00106247
0.00105975
0.00106106
0.00106295
0.00106376
0.00106417
0.00106443
0.00106461
0.00106477
0.00106491
0.00106503
0.00106516
0.00106528
0.0010654
0.00106552
0.00106564
0.00106576
0.00106588
0.001066
0.00106662
0.0010665
0.00106639
0.00106628
0.00106618
0.00106609
0.001066
0.00106488
0.0010648
0.0010647
0.00106458
0.00106442
0.00106421
0.00106388
0.00106332
0.00106228
0.00106017
0.00105731
0.00105826
0.00106099
0.00106256
0.00106339
0.00106388
0.00106422
0.00106447
0.00106467
0.00106484
0.00106499
0.00106514
0.00106528
0.00106541
0.00106555
0.00106568
0.00106581
0.00106594
0.00106657
0.00106644
0.00106632
0.00106621
0.0010661
0.001066
0.0010659
0.00102009
0.00102004
0.00101998
0.00101993
0.00101987
0.00101981
0.00101975
0.00101969
0.0010196
0.0010193
0.00101682
0.00101838
0.00101947
0.00101966
0.00101976
0.00101985
0.00101994
0.00102004
0.00102014
0.00102024
0.00102034
0.00102045
0.00102056
0.00102067
0.00102078
0.0010209
0.00102102
0.00102114
0.00102176
0.00102164
0.00102153
0.00102143
0.00102133
0.00102124
0.00102115
0.00102001
0.00101994
0.00101986
0.00101977
0.00101965
0.00101949
0.00101926
0.00101887
0.00101811
0.00101638
0.00101368
0.00101459
0.00101709
0.00101833
0.00101894
0.0010193
0.00101955
0.00101974
0.0010199
0.00102005
0.00102019
0.00102032
0.00102044
0.00102057
0.0010207
0.00102082
0.00102095
0.00102108
0.0010217
0.00102158
0.00102146
0.00102135
0.00102125
0.00102115
0.00102106
0.000970372
0.000970324
0.000970275
0.000970226
0.00097018
0.000970139
0.000970113
0.00097012
0.000970211
0.000970447
0.000969008
0.000970238
0.000970385
0.00097023
0.000970199
0.000970231
0.000970293
0.000970372
0.000970462
0.000970558
0.00097066
0.000970766
0.000970876
0.00097099
0.000971106
0.000971226
0.000971349
0.000971474
0.00097212
0.000971997
0.000971882
0.000971775
0.000971675
0.000971582
0.000971495
0.000970307
0.000970242
0.000970168
0.000970083
0.00096998
0.000969849
0.000969664
0.000969362
0.000968762
0.000967265
0.000964228
0.000965406
0.000967909
0.000968946
0.000969434
0.000969724
0.000969932
0.000970101
0.000970249
0.000970386
0.000970518
0.000970646
0.000970774
0.000970901
0.000971028
0.000971157
0.000971287
0.000971418
0.000972072
0.000971944
0.000971824
0.000971711
0.000971605
0.000971505
0.00097141
0.000915046
0.000914995
0.000914945
0.000914895
0.000914849
0.000914813
0.000914799
0.000914839
0.000915025
0.000915642
0.000915664
0.000916223
0.000915398
0.000915022
0.000914925
0.000914933
0.000914987
0.000915064
0.000915156
0.000915257
0.000915365
0.000915479
0.000915597
0.000915719
0.000915845
0.000915974
0.000916107
0.000916243
0.000916942
0.000916808
0.000916684
0.000916568
0.000916461
0.00091636
0.000916266
0.000914992
0.000914926
0.000914854
0.000914773
0.000914679
0.000914565
0.000914412
0.000914178
0.000913723
0.000912515
0.000909173
0.000910703
0.00091306
0.000913877
0.000914257
0.000914495
0.000914676
0.000914832
0.000914974
0.000915111
0.000915244
0.000915377
0.00091551
0.000915643
0.000915778
0.000915915
0.000916054
0.000916195
0.000916901
0.000916763
0.000916634
0.000916514
0.000916401
0.000916294
0.000916194
0.000852826
0.000852769
0.000852712
0.000852656
0.000852603
0.000852561
0.000852542
0.000852581
0.000852789
0.000853582
0.000854957
0.000854765
0.000853243
0.000852784
0.000852677
0.000852689
0.000852752
0.00085284
0.000852944
0.000853057
0.000853178
0.000853305
0.000853437
0.000853573
0.000853713
0.000853858
0.000854005
0.000854156
0.000854932
0.000854782
0.000854644
0.000854515
0.000854395
0.000854283
0.000854178
0.000852777
0.000852707
0.00085263
0.000852545
0.00085245
0.000852336
0.00085219
0.000851975
0.00085157
0.000850456
0.000846702
0.000848556
0.000850973
0.000851716
0.000852064
0.00085229
0.00085247
0.00085263
0.000852779
0.000852925
0.000853069
0.000853213
0.000853358
0.000853505
0.000853654
0.000853804
0.000853958
0.000854114
0.000854895
0.000854742
0.000854599
0.000854466
0.000854341
0.000854224
0.000854113
0.000781816
0.000781748
0.000781679
0.00078161
0.000781543
0.000781481
0.000781438
0.000781439
0.000781579
0.000782253
0.000783745
0.000783472
0.000781957
0.000781596
0.000781547
0.000781597
0.000781689
0.000781802
0.000781929
0.000782064
0.000782206
0.000782354
0.000782507
0.000782664
0.000782825
0.000782991
0.00078316
0.000783333
0.000784215
0.000784044
0.000783885
0.000783738
0.0007836
0.000783471
0.00078335
0.000781771
0.000781691
0.000781604
0.000781509
0.000781401
0.000781275
0.000781113
0.000780876
0.00078043
0.000779164
0.000774436
0.000776808
0.000779761
0.000780594
0.000780978
0.000781229
0.00078143
0.000781609
0.000781778
0.000781943
0.000782106
0.00078227
0.000782435
0.000782601
0.00078277
0.000782942
0.000783117
0.000783294
0.000784181
0.000784007
0.000783845
0.000783693
0.00078355
0.000783417
0.00078329
0.000698842
0.000698759
0.000698673
0.000698584
0.000698493
0.000698401
0.000698315
0.000698247
0.000698242
0.000698503
0.000698562
0.000699071
0.000698393
0.000698304
0.000698371
0.000698489
0.000698629
0.000698781
0.000698942
0.000699109
0.000699282
0.00069946
0.000699642
0.000699829
0.000700021
0.000700217
0.000700417
0.000700621
0.000701652
0.00070145
0.000701263
0.000701089
0.000700926
0.000700773
0.00070063
0.000698799
0.000698705
0.000698602
0.000698488
0.00069836
0.000698206
0.000698008
0.000697712
0.00069714
0.000695442
0.000687887
0.000691986
0.00069625
0.000697345
0.00069783
0.00069814
0.000698384
0.000698598
0.0006988
0.000698995
0.000699188
0.00069938
0.000699574
0.000699771
0.000699969
0.000700171
0.000700376
0.000700584
0.00070162
0.000701416
0.000701225
0.000701047
0.00070088
0.000700722
0.000700574
0.000601333
0.000601243
0.000601147
0.000601046
0.000600938
0.00060082
0.000600687
0.000600528
0.0006003
0.00059977
0.000595964
0.00059856
0.000600036
0.00060042
0.000600654
0.00060085
0.000601034
0.000601215
0.000601397
0.00060158
0.000601766
0.000601955
0.000602147
0.000602344
0.000602544
0.000602748
0.000602956
0.000603168
0.000604231
0.000604021
0.000603827
0.000603646
0.000603476
0.000603317
0.000603167
0.000447019
0.000446715
0.000446401
0.000446077
0.00044575
0.00044543
0.000445141
0.000444957
0.00044513
0.000447047
0.000466316
0.000453393
0.000446133
0.000445306
0.000445418
0.000445796
0.000446284
0.00044683
0.000447414
0.000448026
0.000448661
0.000449316
0.00044999
0.00045068
0.000451388
0.000452111
0.000452851
0.000453606
0.000457404
0.000456657
0.000455964
0.000455319
0.000454716
0.000454151
0.00045362
0.000446946
0.000446622
0.000446278
0.000445913
0.00044552
0.00044509
0.000444606
0.000444017
0.000443156
0.000441154
0.000432434
0.000437077
0.000442147
0.000443596
0.000444467
0.000445187
0.000445857
0.000446513
0.000447168
0.000447829
0.000448498
0.000449179
0.000449873
0.000450579
0.000451299
0.000452032
0.00045278
0.000453542
0.000457349
0.000456597
0.000455898
0.000455246
0.000454636
0.000454063
0.000453524
0.000228941
0.00022944
0.000229962
0.000230505
0.000231066
0.000231636
0.000232194
0.000232673
0.000232838
0.000231304
0.000202743
0.000224327
0.000232039
0.000232437
0.000231925
0.000231159
0.000230286
0.000229353
0.000228381
0.000227378
0.000226349
0.000225296
0.000224222
0.000223128
0.000222014
0.000220881
0.000219731
0.000218562
0.000212794
0.000213918
0.000214968
0.00021595
0.000216872
0.00021774
0.000218558
0.00113011
0.00113008
0.00113006
0.00113002
0.00112998
0.00112993
0.00112986
0.00112974
0.00112953
0.00112913
0.00112861
0.0011288
0.00112928
0.00112959
0.00112976
0.00112988
0.00112996
0.00113002
0.00113008
0.00113013
0.00113017
0.00113022
0.00113026
0.00113031
0.00113035
0.0011304
0.00113044
0.00113049
0.00113072
0.00113067
0.00113063
0.00113059
0.00113056
0.00113052
0.00113049
0.00113003
0.00112999
0.00112993
0.00112985
0.00112975
0.0011296
0.00112936
0.00112895
0.00112821
0.00112694
0.00112619
0.00112621
0.00112739
0.00112839
0.00112897
0.00112932
0.00112955
0.00112971
0.00112983
0.00112992
0.00113001
0.00113008
0.00113014
0.0011302
0.00113026
0.00113031
0.00113037
0.00113042
0.00113066
0.00113061
0.00113056
0.00113052
0.00113047
0.00113043
0.00113039
0.0010896
0.00108959
0.00108959
0.0010896
0.00108962
0.00108966
0.00108975
0.00108993
0.0010903
0.00109102
0.00109106
0.00109133
0.00109078
0.00109023
0.00108996
0.00108982
0.00108976
0.00108973
0.00108972
0.00108973
0.00108975
0.00108977
0.0010898
0.00108983
0.00108986
0.0010899
0.00108993
0.00108997
0.0010902
0.00109016
0.00109012
0.00109009
0.00109006
0.00109003
0.00109001
0.00108952
0.0010895
0.00108947
0.00108943
0.00108939
0.00108933
0.00108925
0.00108911
0.00108885
0.00108834
0.00108784
0.00108794
0.00108854
0.00108893
0.00108914
0.00108926
0.00108935
0.00108942
0.00108948
0.00108953
0.00108958
0.00108963
0.00108968
0.00108972
0.00108977
0.00108982
0.00108986
0.00108991
0.00109014
0.0010901
0.00109006
0.00109002
0.00108998
0.00108994
0.00108991
0.00108945
0.0010894
0.00108934
0.00108927
0.00108917
0.00108901
0.00108876
0.00108833
0.00108748
0.00108579
0.00108378
0.00108435
0.00108644
0.00108769
0.00108835
0.00108872
0.00108896
0.00108912
0.00108924
0.00108934
0.00108942
0.0010895
0.00108956
0.00108962
0.00108968
0.00108974
0.00108979
0.00108984
0.00109009
0.00109004
0.00108999
0.00108994
0.0010899
0.00108986
0.00108981
0.00104511
0.0010451
0.00104508
0.00104507
0.00104506
0.00104506
0.00104507
0.0010451
0.0010452
0.0010454
0.00104485
0.00104535
0.00104534
0.00104519
0.00104513
0.00104511
0.00104512
0.00104514
0.00104516
0.00104519
0.00104523
0.00104526
0.0010453
0.00104534
0.00104538
0.00104542
0.00104546
0.00104551
0.00104575
0.0010457
0.00104566
0.00104563
0.00104559
0.00104556
0.00104553
0.00104504
0.00104501
0.00104497
0.00104492
0.00104485
0.00104474
0.00104458
0.0010443
0.00104373
0.00104247
0.00104137
0.00104142
0.00104296
0.00104388
0.00104432
0.00104457
0.00104473
0.00104485
0.00104493
0.00104501
0.00104507
0.00104513
0.00104519
0.00104524
0.00104529
0.00104535
0.0010454
0.00104545
0.00104569
0.00104565
0.0010456
0.00104556
0.00104551
0.00104547
0.00104544
0.000996372
0.00099636
0.000996349
0.000996341
0.00099634
0.000996352
0.00099639
0.000996486
0.000996731
0.000997368
0.000997602
0.000997887
0.000997117
0.000996687
0.000996518
0.000996452
0.000996432
0.000996435
0.000996451
0.000996475
0.000996504
0.000996538
0.000996574
0.000996613
0.000996654
0.000996697
0.000996741
0.000996786
0.000997035
0.00099699
0.000996949
0.00099691
0.000996875
0.000996842
0.000996811
0.00099631
0.00099628
0.000996244
0.000996201
0.000996146
0.000996069
0.000995952
0.000995746
0.000995318
0.000994267
0.000993165
0.000993217
0.000994703
0.000995435
0.000995771
0.000995958
0.000996079
0.00099617
0.000996243
0.000996307
0.000996366
0.000996421