/*--------------------------------*- C++ -*----------------------------------*\
  =========                 |
  \\      /  F ield         | OpenFOAM: The Open Source CFD Toolbox
   \\    /   O peration     | Website:  https://openfoam.org
    \\  /    A nd           | Version:  6
     \\/     M anipulation  |
\*---------------------------------------------------------------------------*/
FoamFile
{
    version     2.0;
    format      ascii;
    class       volScalarField;
    location    "0";
    object      nut;
}
// * * * * * * * * * * * * * * * * * * * * * * * * * * * * * * * * * * * * * //

dimensions      [0 2 -1 0 0 0 0];

internalField   nonuniform List<scalar> 
63568
(
1.25454e-06
1.26037e-06
1.26682e-06
1.27416e-06
1.28279e-06
1.29358e-06
1.30834e-06
1.33163e-06
1.37705e-06
1.49543e-06
1.90977e-06
1.68341e-06
1.4423e-06
1.36198e-06
1.32442e-06
1.30137e-06
1.2843e-06
1.27003e-06
1.25721e-06
1.24515e-06
1.23351e-06
1.22207e-06
1.21073e-06
1.1994e-06
1.18803e-06
1.1766e-06
1.16508e-06
1.15345e-06
1.09719e-06
1.1083e-06
1.11871e-06
1.1285e-06
1.13773e-06
1.14648e-06
1.15478e-06
1.25433e-06
1.2601e-06
1.26646e-06
1.27364e-06
1.28203e-06
1.29234e-06
1.30606e-06
1.32667e-06
1.36339e-06
1.44546e-06
1.65789e-06
1.55637e-06
1.40965e-06
1.35065e-06
1.31932e-06
1.29859e-06
1.28255e-06
1.26883e-06
1.25632e-06
1.24446e-06
1.23295e-06
1.22161e-06
1.21034e-06
1.19907e-06
1.18775e-06
1.17636e-06
1.16488e-06
1.15329e-06
1.09703e-06
1.10811e-06
1.11849e-06
1.12824e-06
1.13745e-06
1.14616e-06
1.15443e-06
1.14547e-06
1.15101e-06
1.15708e-06
1.16387e-06
1.17169e-06
1.18118e-06
1.19364e-06
1.21231e-06
1.24647e-06
1.32866e-06
1.55805e-06
1.44697e-06
1.29205e-06
1.23432e-06
1.20514e-06
1.18602e-06
1.17113e-06
1.15822e-06
1.14631e-06
1.13492e-06
1.12379e-06
1.11277e-06
1.10178e-06
1.09075e-06
1.07966e-06
1.06847e-06
1.05718e-06
1.04578e-06
9.90277e-07
1.00119e-06
1.01141e-06
1.02102e-06
1.03007e-06
1.03862e-06
1.04674e-06
1.14546e-06
1.151e-06
1.15707e-06
1.16386e-06
1.17171e-06
1.18124e-06
1.19389e-06
1.21322e-06
1.25037e-06
1.35085e-06
1.75893e-06
1.52622e-06
1.30465e-06
1.23737e-06
1.20611e-06
1.1864e-06
1.1713e-06
1.1583e-06
1.14636e-06
1.13495e-06
1.12381e-06
1.11278e-06
1.10178e-06
1.09074e-06
1.07964e-06
1.06845e-06
1.05715e-06
1.04573e-06
9.90245e-07
1.00117e-06
1.0114e-06
1.02101e-06
1.03007e-06
1.03864e-06
1.04676e-06
1.14532e-06
1.15082e-06
1.15683e-06
1.16352e-06
1.17119e-06
1.18038e-06
1.19222e-06
1.20931e-06
1.23837e-06
1.29854e-06
1.43508e-06
1.37144e-06
1.27257e-06
1.2276e-06
1.20206e-06
1.1843e-06
1.17002e-06
1.15744e-06
1.14572e-06
1.13446e-06
1.12341e-06
1.11246e-06
1.10151e-06
1.09051e-06
1.07945e-06
1.06829e-06
1.05702e-06
1.04563e-06
9.9014e-07
1.00104e-06
1.01124e-06
1.02083e-06
1.02986e-06
1.0384e-06
1.04649e-06
1.05117e-06
1.05642e-06
1.06212e-06
1.06842e-06
1.07556e-06
1.08404e-06
1.09491e-06
1.11091e-06
1.14074e-06
1.22191e-06
1.56282e-06
1.36973e-06
1.18399e-06
1.12966e-06
1.10398e-06
1.08714e-06
1.07374e-06
1.06189e-06
1.05077e-06
1.04e-06
1.0294e-06
1.01884e-06
1.00825e-06
9.97598e-07
9.86857e-07
9.76008e-07
9.65043e-07
9.53954e-07
8.99865e-07
9.10494e-07
9.20438e-07
9.29772e-07
9.38563e-07
9.46867e-07
9.54733e-07
1.05115e-06
1.05639e-06
1.06208e-06
1.06835e-06
1.07546e-06
1.08387e-06
1.09458e-06
1.11009e-06
1.13804e-06
1.20873e-06
1.48347e-06
1.32954e-06
1.1762e-06
1.12749e-06
1.10313e-06
1.08671e-06
1.07349e-06
1.06171e-06
1.05064e-06
1.0399e-06
1.02932e-06
1.01877e-06
1.00819e-06
9.97547e-07
9.86812e-07
9.75969e-07
9.65009e-07
9.53924e-07
8.99833e-07
9.10457e-07
9.20396e-07
9.29725e-07
9.38511e-07
9.4681e-07
9.5467e-07
9.66127e-07
9.71068e-07
9.76396e-07
9.82218e-07
9.88716e-07
9.96244e-07
1.00557e-06
1.01868e-06
1.04192e-06
1.10335e-06
1.37107e-06
1.21763e-06
1.07433e-06
1.03264e-06
1.01198e-06
9.97691e-07
9.85836e-07
9.75043e-07
9.64736e-07
9.54641e-07
9.44615e-07
9.34576e-07
9.24479e-07
9.14293e-07
9.04001e-07
8.93592e-07
8.8306e-07
8.724e-07
8.2026e-07
8.30487e-07
8.4005e-07
8.49021e-07
8.57465e-07
8.65434e-07
8.72977e-07
9.66144e-07
9.71089e-07
9.76424e-07
9.82255e-07
9.88768e-07
9.96319e-07
1.00569e-06
1.01888e-06
1.04231e-06
1.1048e-06
1.41271e-06
1.22628e-06
1.0752e-06
1.03299e-06
1.01219e-06
9.97825e-07
9.85931e-07
9.75115e-07
9.64792e-07
9.54685e-07
9.4465e-07
9.34604e-07
9.24501e-07
9.1431e-07
9.04014e-07
8.93601e-07
8.83065e-07
8.72401e-07
8.20259e-07
8.3049e-07
8.40056e-07
8.4903e-07
8.57477e-07
8.65449e-07
8.72995e-07
8.85608e-07
8.90231e-07
8.95187e-07
9.00555e-07
9.06468e-07
9.13181e-07
9.21245e-07
9.32075e-07
9.50235e-07
9.96261e-07
1.20292e-06
1.08217e-06
9.74317e-07
9.42418e-07
9.25686e-07
9.1346e-07
9.02924e-07
8.93098e-07
8.83574e-07
8.74157e-07
8.64746e-07
8.55286e-07
8.45744e-07
8.36099e-07
8.2634e-07
8.16459e-07
8.06453e-07
7.96319e-07
7.46652e-07
7.5638e-07
7.65473e-07
7.74001e-07
7.82022e-07
7.89589e-07
7.96745e-07
8.8564e-07
8.90271e-07
8.9524e-07
9.00627e-07
9.06569e-07
9.13333e-07
9.215e-07
9.32585e-07
9.51639e-07
1.00341e-06
1.31582e-06
1.11498e-06
9.78296e-07
9.43578e-07
9.26219e-07
9.13772e-07
9.03134e-07
8.93251e-07
8.83692e-07
8.74251e-07
8.64823e-07
8.5535e-07
8.45796e-07
8.36142e-07
8.26375e-07
8.16486e-07
8.06473e-07
7.96333e-07
7.46664e-07
7.56399e-07
7.65499e-07
7.74032e-07
7.8206e-07
7.89632e-07
7.96795e-07
8.05459e-07
8.09742e-07
8.14313e-07
8.19231e-07
8.24592e-07
8.3058e-07
8.37587e-07
8.46624e-07
8.60988e-07
8.9606e-07
1.06322e-06
9.62758e-07
8.79116e-07
8.54339e-07
8.40624e-07
8.30094e-07
8.2072e-07
8.11806e-07
8.03066e-07
7.94361e-07
7.85623e-07
7.76811e-07
7.67905e-07
7.58889e-07
7.49757e-07
7.40503e-07
7.31127e-07
7.21627e-07
6.74998e-07
6.84123e-07
6.9265e-07
7.00643e-07
7.0816e-07
7.15247e-07
7.21947e-07
8.0549e-07
8.09781e-07
8.14364e-07
8.19299e-07
8.24689e-07
8.30724e-07
8.37824e-07
8.47086e-07
8.62226e-07
9.02399e-07
1.17974e-06
9.94038e-07
8.82606e-07
8.55367e-07
8.41108e-07
8.30382e-07
8.20916e-07
8.11952e-07
8.03179e-07
7.94452e-07
7.85697e-07
7.76873e-07
7.67956e-07
7.58932e-07
7.49792e-07
7.40531e-07
7.31148e-07
7.21642e-07
6.75012e-07
6.84143e-07
6.92676e-07
7.00675e-07
7.08197e-07
7.1529e-07
7.21996e-07
7.21859e-07
7.25765e-07
7.29919e-07
7.34366e-07
7.39176e-07
7.44481e-07
7.50561e-07
7.58141e-07
7.69644e-07
7.97284e-07
9.58907e-07
8.54887e-07
7.83648e-07
7.63966e-07
7.52623e-07
7.43548e-07
7.35258e-07
7.27258e-07
7.19343e-07
7.1142e-07
7.03438e-07
6.95372e-07
6.87207e-07
6.78932e-07
6.70544e-07
6.6204e-07
6.53419e-07
6.44682e-07
6.01758e-07
6.10154e-07
6.17998e-07
6.2535e-07
6.32261e-07
6.38775e-07
6.44931e-07
7.2188e-07
7.25792e-07
7.29954e-07
7.34413e-07
7.39242e-07
7.44579e-07
7.50717e-07
7.58425e-07
7.7031e-07
8.00081e-07
1.0173e-06
8.68298e-07
7.85283e-07
7.64533e-07
7.52916e-07
7.43731e-07
7.35386e-07
7.27353e-07
7.19417e-07
7.11479e-07
7.03487e-07
6.95413e-07
6.87241e-07
6.78961e-07
6.70568e-07
6.62059e-07
6.53435e-07
6.44693e-07
6.01768e-07
6.10168e-07
6.18015e-07
6.2537e-07
6.32284e-07
6.38801e-07
6.44961e-07
6.3019e-07
6.33656e-07
6.37333e-07
6.41255e-07
6.45473e-07
6.5008e-07
6.55271e-07
6.61558e-07
6.70688e-07
6.92249e-07
8.61877e-07
7.4297e-07
6.81382e-07
6.65915e-07
6.56633e-07
6.48931e-07
6.41745e-07
6.34729e-07
6.27742e-07
6.20719e-07
6.13628e-07
6.06449e-07
5.99173e-07
5.91795e-07
5.84311e-07
5.76721e-07
5.69024e-07
5.61221e-07
5.22866e-07
5.30366e-07
5.37372e-07
5.43937e-07
5.50108e-07
5.55923e-07
5.61417e-07
6.30198e-07
6.33667e-07
6.37349e-07
6.41277e-07
6.45503e-07
6.50123e-07
6.55338e-07
6.61661e-07
6.70816e-07
6.91602e-07
8.19788e-07
7.34562e-07
6.8127e-07
6.66039e-07
6.56731e-07
6.48999e-07
6.41794e-07
6.34765e-07
6.27769e-07
6.2074e-07
6.13644e-07
6.06462e-07
5.99184e-07
5.91804e-07
5.84319e-07
5.76728e-07
5.6903e-07
5.61227e-07
5.22869e-07
5.30369e-07
5.37375e-07
5.43941e-07
5.50112e-07
5.55927e-07
5.61422e-07
5.23528e-07
5.26454e-07
5.29552e-07
5.32847e-07
5.36375e-07
5.40198e-07
5.44447e-07
5.49459e-07
5.56402e-07
5.71959e-07
7.2101e-07
6.10476e-07
5.64017e-07
5.52565e-07
5.45282e-07
5.39017e-07
5.33064e-07
5.27197e-07
5.21323e-07
5.15401e-07
5.09409e-07
5.03337e-07
4.97177e-07
4.90927e-07
4.84584e-07
4.7815e-07
4.71623e-07
4.65005e-07
4.3246e-07
4.38823e-07
4.44765e-07
4.50333e-07
4.55566e-07
4.60496e-07
4.65153e-07
4.14462e-07
4.16817e-07
4.19305e-07
4.21942e-07
4.24748e-07
4.2776e-07
4.31048e-07
4.34784e-07
4.3956e-07
4.48672e-07
5.18089e-07
4.67992e-07
4.43994e-07
4.36675e-07
4.31395e-07
4.26593e-07
4.21915e-07
4.17248e-07
4.12544e-07
4.07784e-07
4.02957e-07
3.98058e-07
3.93083e-07
3.88031e-07
3.82903e-07
3.77697e-07
3.72416e-07
3.6706e-07
3.40699e-07
3.4585e-07
3.50659e-07
3.55165e-07
3.59399e-07
3.63387e-07
3.67153e-07
4.1448e-07
4.16839e-07
4.19335e-07
4.21982e-07
4.24804e-07
4.27843e-07
4.31178e-07
4.35012e-07
4.40031e-07
4.49975e-07
5.19404e-07
4.70718e-07
4.4491e-07
4.37083e-07
4.31624e-07
4.26739e-07
4.22017e-07
4.17323e-07
4.12603e-07
4.07831e-07
4.02995e-07
3.9809e-07
3.9311e-07
3.88054e-07
3.82923e-07
3.77715e-07
3.72432e-07
3.67074e-07
3.4071e-07
3.45862e-07
3.50673e-07
3.55181e-07
3.59416e-07
3.63406e-07
3.67174e-07
4.04795e-06
4.07916e-06
4.11222e-06
4.14731e-06
4.1847e-06
4.22475e-06
4.26815e-06
4.31652e-06
4.37514e-06
4.47384e-06
5.17887e-06
4.66468e-06
4.42256e-06
4.33737e-06
4.27025e-06
4.20729e-06
4.14541e-06
4.08362e-06
4.02155e-06
3.95905e-06
3.89603e-06
3.83249e-06
3.76841e-06
3.70381e-06
3.63872e-06
3.57315e-06
3.50713e-06
3.4407e-06
3.12125e-06
3.18268e-06
3.24047e-06
3.29497e-06
3.3465e-06
3.39534e-06
3.44173e-06
4.1821e-06
4.18342e-06
4.18488e-06
4.18654e-06
4.18848e-06
4.1909e-06
4.1942e-06
4.19938e-06
4.2094e-06
4.23496e-06
4.31566e-06
4.27349e-06
4.22362e-06
4.20611e-06
4.1978e-06
4.19266e-06
4.18883e-06
4.18562e-06
4.18271e-06
4.17997e-06
4.1773e-06
4.17467e-06
4.17205e-06
4.16942e-06
4.16676e-06
4.16408e-06
4.16136e-06
4.1586e-06
4.14506e-06
4.14777e-06
4.1503e-06
4.15266e-06
4.15488e-06
4.15697e-06
4.15895e-06
4.18187e-06
4.18313e-06
4.1845e-06
4.18602e-06
4.18776e-06
4.18983e-06
4.19251e-06
4.19639e-06
4.20319e-06
4.21881e-06
4.26202e-06
4.24115e-06
4.21184e-06
4.20069e-06
4.19476e-06
4.19072e-06
4.18747e-06
4.18461e-06
4.18193e-06
4.17933e-06
4.17678e-06
4.17423e-06
4.17167e-06
4.16909e-06
4.16648e-06
4.16383e-06
4.16113e-06
4.1584e-06
4.14489e-06
4.14758e-06
4.15008e-06
4.15242e-06
4.15461e-06
4.15668e-06
4.15863e-06
4.03472e-06
4.03596e-06
4.03732e-06
4.03887e-06
4.04068e-06
4.04293e-06
4.04596e-06
4.05062e-06
4.05924e-06
4.07902e-06
4.12543e-06
4.10438e-06
4.0705e-06
4.05638e-06
4.04914e-06
4.0445e-06
4.04098e-06
4.03801e-06
4.0353e-06
4.03274e-06
4.03026e-06
4.02781e-06
4.02536e-06
4.0229e-06
4.02043e-06
4.01792e-06
4.01538e-06
4.01281e-06
4.00018e-06
4.00271e-06
4.00507e-06
4.00727e-06
4.00934e-06
4.0113e-06
4.01314e-06
4.03452e-06
4.0357e-06
4.03698e-06
4.03841e-06
4.04006e-06
4.04204e-06
4.04464e-06
4.04858e-06
4.05609e-06
4.07628e-06
4.15277e-06
4.11063e-06
4.06702e-06
4.05345e-06
4.0471e-06
4.04305e-06
4.03991e-06
4.03718e-06
4.03465e-06
4.03221e-06
4.02982e-06
4.02743e-06
4.02503e-06
4.02262e-06
4.02017e-06
4.0177e-06
4.01518e-06
4.01262e-06
4.00002e-06
4.00254e-06
4.00488e-06
4.00707e-06
4.00912e-06
4.01106e-06
4.01288e-06
4.03428e-06
4.0354e-06
4.03659e-06
4.03789e-06
4.03932e-06
4.04096e-06
4.04293e-06
4.04555e-06
4.04966e-06
4.05807e-06
4.08085e-06
4.06947e-06
4.05426e-06
4.04787e-06
4.04401e-06
4.04108e-06
4.03853e-06
4.03616e-06
4.03385e-06
4.03157e-06
4.02929e-06
4.02698e-06
4.02465e-06
4.02229e-06
4.01988e-06
4.01744e-06
4.01495e-06
4.01242e-06
3.99985e-06
4.00234e-06
4.00466e-06
4.00682e-06
4.00885e-06
4.01076e-06
4.01255e-06
3.87604e-06
3.87717e-06
3.87841e-06
3.87977e-06
3.88134e-06
3.88321e-06
3.88565e-06
3.88931e-06
3.89619e-06
3.91431e-06
3.9791e-06
3.94439e-06
3.90603e-06
3.89375e-06
3.88789e-06
3.8841e-06
3.88114e-06
3.87855e-06
3.87613e-06
3.8738e-06
3.8715e-06
3.86921e-06
3.86691e-06
3.86458e-06
3.86223e-06
3.85984e-06
3.85742e-06
3.85496e-06
3.84283e-06
3.84526e-06
3.84751e-06
3.84962e-06
3.8516e-06
3.85346e-06
3.85521e-06
3.87582e-06
3.87689e-06
3.87804e-06
3.87928e-06
3.88065e-06
3.88221e-06
3.8841e-06
3.88668e-06
3.89108e-06
3.90247e-06
3.95376e-06
3.9242e-06
3.89704e-06
3.88924e-06
3.88523e-06
3.88235e-06
3.87989e-06
3.87761e-06
3.87539e-06
3.8732e-06
3.87101e-06
3.86879e-06
3.86655e-06
3.86427e-06
3.86196e-06
3.8596e-06
3.85721e-06
3.85477e-06
3.84267e-06
3.84507e-06
3.84731e-06
3.84939e-06
3.85135e-06
3.85319e-06
3.85492e-06
3.70285e-06
3.70396e-06
3.70515e-06
3.70647e-06
3.70797e-06
3.70974e-06
3.71201e-06
3.71533e-06
3.72143e-06
3.73731e-06
3.79346e-06
3.76361e-06
3.73003e-06
3.71919e-06
3.71392e-06
3.71042e-06
3.70763e-06
3.70514e-06
3.70281e-06
3.70053e-06
3.69829e-06
3.69604e-06
3.69377e-06
3.69149e-06
3.68917e-06
3.68681e-06
3.68442e-06
3.68199e-06
3.66998e-06
3.67238e-06
3.67461e-06
3.67669e-06
3.67864e-06
3.68048e-06
3.68221e-06
3.70265e-06
3.7037e-06
3.70482e-06
3.70602e-06
3.70734e-06
3.70882e-06
3.71059e-06
3.71293e-06
3.71686e-06
3.72739e-06
3.7866e-06
3.74994e-06
3.72225e-06
3.71514e-06
3.7115e-06
3.70882e-06
3.70649e-06
3.70429e-06
3.70213e-06
3.69999e-06
3.69784e-06
3.69566e-06
3.69345e-06
3.6912e-06
3.68892e-06
3.68659e-06
3.68422e-06
3.68181e-06
3.66983e-06
3.67221e-06
3.67442e-06
3.67649e-06
3.67842e-06
3.68024e-06
3.68195e-06
3.51051e-06
3.51161e-06
3.5128e-06
3.5141e-06
3.51556e-06
3.51728e-06
3.51943e-06
3.52251e-06
3.52807e-06
3.54248e-06
3.5944e-06
3.56671e-06
3.53582e-06
3.52595e-06
3.52108e-06
3.51778e-06
3.51508e-06
3.51264e-06
3.51033e-06
3.50806e-06
3.50581e-06
3.50355e-06
3.50128e-06
3.49897e-06
3.49663e-06
3.49425e-06
3.49184e-06
3.48938e-06
3.47723e-06
3.47965e-06
3.4819e-06
3.484e-06
3.48598e-06
3.48783e-06
3.48958e-06
3.51033e-06
3.51138e-06
3.5125e-06
3.5137e-06
3.51501e-06
3.51647e-06
3.51818e-06
3.5204e-06
3.52402e-06
3.53373e-06
3.5982e-06
3.55615e-06
3.52893e-06
3.52237e-06
3.51896e-06
3.51637e-06
3.51408e-06
3.51189e-06
3.50974e-06
3.50759e-06
3.50542e-06
3.50323e-06
3.501e-06
3.49873e-06
3.49641e-06
3.49406e-06
3.49166e-06
3.48922e-06
3.47709e-06
3.4795e-06
3.48174e-06
3.48383e-06
3.48579e-06
3.48762e-06
3.48935e-06
3.29288e-06
3.294e-06
3.2952e-06
3.29652e-06
3.29797e-06
3.29966e-06
3.30173e-06
3.30463e-06
3.30973e-06
3.32311e-06
3.37562e-06
3.34687e-06
3.31683e-06
3.30771e-06
3.30315e-06
3.29998e-06
3.29732e-06
3.29489e-06
3.29256e-06
3.29026e-06
3.28796e-06
3.28565e-06
3.28331e-06
3.28094e-06
3.27854e-06
3.27609e-06
3.2736e-06
3.27107e-06
3.25851e-06
3.26101e-06
3.26333e-06
3.2655e-06
3.26753e-06
3.26944e-06
3.27124e-06
3.29271e-06
3.29379e-06
3.29493e-06
3.29615e-06
3.29746e-06
3.29891e-06
3.30056e-06
3.30262e-06
3.30578e-06
3.31391e-06
3.37691e-06
3.33376e-06
3.30983e-06
3.30423e-06
3.30113e-06
3.29865e-06
3.29639e-06
3.29419e-06
3.29201e-06
3.28982e-06
3.2876e-06
3.28534e-06
3.28305e-06
3.28071e-06
3.27833e-06
3.27591e-06
3.27344e-06
3.27092e-06
3.25839e-06
3.26087e-06
3.26318e-06
3.26534e-06
3.26736e-06
3.26925e-06
3.27103e-06
3.04131e-06
3.04246e-06
3.0437e-06
3.04504e-06
3.04651e-06
3.04817e-06
3.05017e-06
3.05287e-06
3.05746e-06
3.06967e-06
3.12893e-06
3.09395e-06
3.0638e-06
3.05553e-06
3.05132e-06
3.04828e-06
3.04566e-06
3.04321e-06
3.04082e-06
3.03846e-06
3.03608e-06
3.03368e-06
3.03125e-06
3.02878e-06
3.02627e-06
3.02372e-06
3.02112e-06
3.01847e-06
3.00532e-06
3.00793e-06
3.01036e-06
3.01263e-06
3.01475e-06
3.01674e-06
3.01862e-06
3.04115e-06
3.04226e-06
3.04344e-06
3.04468e-06
3.04601e-06
3.04745e-06
3.04904e-06
3.0509e-06
3.05347e-06
3.05927e-06
3.11273e-06
3.0739e-06
3.05629e-06
3.05204e-06
3.04933e-06
3.04699e-06
3.04475e-06
3.04253e-06
3.0403e-06
3.03803e-06
3.03573e-06
3.03339e-06
3.031e-06
3.02856e-06
3.02608e-06
3.02355e-06
3.02096e-06
3.01833e-06
3.0052e-06
3.0078e-06
3.01022e-06
3.01247e-06
3.01458e-06
3.01655e-06
3.01842e-06
2.74145e-06
2.74266e-06
2.74394e-06
2.74531e-06
2.7468e-06
2.74845e-06
2.75037e-06
2.75283e-06
2.75677e-06
2.76706e-06
2.83601e-06
2.79064e-06
2.76197e-06
2.75495e-06
2.75119e-06
2.7483e-06
2.7457e-06
2.74322e-06
2.74077e-06
2.73831e-06
2.73583e-06
2.73332e-06
2.73077e-06
2.72817e-06
2.72553e-06
2.72283e-06
2.72009e-06
2.71729e-06
2.70337e-06
2.70613e-06
2.7087e-06
2.71109e-06
2.71333e-06
2.71543e-06
2.71741e-06
2.7413e-06
2.74246e-06
2.74367e-06
2.74495e-06
2.7463e-06
2.74772e-06
2.74923e-06
2.75083e-06
2.7526e-06
2.75506e-06
2.7787e-06
2.76001e-06
2.75372e-06
2.75134e-06
2.74916e-06
2.74699e-06
2.74479e-06
2.74254e-06
2.74024e-06
2.73789e-06
2.73548e-06
2.73303e-06
2.73052e-06
2.72795e-06
2.72533e-06
2.72266e-06
2.71993e-06
2.71715e-06
2.70325e-06
2.706e-06
2.70855e-06
2.71093e-06
2.71315e-06
2.71524e-06
2.7172e-06
2.37497e-06
2.37627e-06
2.37764e-06
2.37909e-06
2.38064e-06
2.38232e-06
2.38418e-06
2.38637e-06
2.3894e-06
2.39621e-06
2.46245e-06
2.41332e-06
2.39273e-06
2.38773e-06
2.38455e-06
2.38181e-06
2.37919e-06
2.3766e-06
2.37399e-06
2.37136e-06
2.36867e-06
2.36594e-06
2.36316e-06
2.36032e-06
2.35743e-06
2.35448e-06
2.35147e-06
2.3484e-06
2.3331e-06
2.33613e-06
2.33894e-06
2.34156e-06
2.34402e-06
2.34632e-06
2.34849e-06
4.26165e-06
4.27404e-06
4.28691e-06
4.30019e-06
4.31375e-06
4.32724e-06
4.33984e-06
4.34922e-06
4.34713e-06
4.28791e-06
3.5937e-06
4.07603e-06
4.31603e-06
4.33877e-06
4.33064e-06
4.31372e-06
4.2931e-06
4.27047e-06
4.2465e-06
4.2215e-06
4.19565e-06
4.16903e-06
4.1417e-06
4.11368e-06
4.085e-06
4.05568e-06
4.02572e-06
3.99514e-06
3.84154e-06
3.87177e-06
3.89984e-06
3.92599e-06
3.95042e-06
3.97331e-06
3.99481e-06
4.26332e-06
4.27618e-06
4.28971e-06
4.30397e-06
4.31904e-06
4.33502e-06
4.35213e-06
4.37082e-06
4.39253e-06
4.42384e-06
4.39842e-06
4.45593e-06
4.40783e-06
4.37806e-06
4.35247e-06
4.3277e-06
4.30289e-06
4.27774e-06
4.25215e-06
4.22604e-06
4.19939e-06
4.17217e-06
4.14438e-06
4.11601e-06
4.08705e-06
4.05749e-06
4.02734e-06
3.9966e-06
3.8428e-06
3.87315e-06
3.90135e-06
3.92765e-06
3.95225e-06
3.97532e-06
3.99702e-06
8.08143e-06
8.05034e-06
8.0177e-06
7.98346e-06
7.94762e-06
7.91028e-06
7.87184e-06
7.83363e-06
7.80074e-06
7.8034e-06
8.39601e-06
7.93755e-06
7.80394e-06
7.8313e-06
7.87939e-06
7.93381e-06
7.99134e-06
8.05093e-06
8.11213e-06
8.17476e-06
8.23869e-06
8.30386e-06
8.37022e-06
8.43774e-06
8.50639e-06
8.57614e-06
8.64696e-06
8.71882e-06
9.07322e-06
9.00407e-06
8.93952e-06
8.87908e-06
8.82231e-06
8.76887e-06
8.71843e-06
8.95499e-06
8.95634e-06
8.95784e-06
8.95953e-06
8.96151e-06
8.96396e-06
8.96728e-06
8.97247e-06
8.98254e-06
9.00856e-06
9.09183e-06
9.0484e-06
8.99694e-06
8.9792e-06
8.97083e-06
8.96565e-06
8.96177e-06
8.9585e-06
8.95553e-06
8.95271e-06
8.94997e-06
8.94726e-06
8.94456e-06
8.94184e-06
8.9391e-06
8.93633e-06
8.93352e-06
8.93067e-06
8.91669e-06
8.91949e-06
8.9221e-06
8.92455e-06
8.92684e-06
8.929e-06
8.93105e-06
8.95454e-06
8.95577e-06
8.95709e-06
8.95852e-06
8.96011e-06
8.96193e-06
8.96414e-06
8.96718e-06
8.9724e-06
8.98552e-06
9.02912e-06
9.00719e-06
8.97935e-06
8.97021e-06
8.96548e-06
8.9621e-06
8.95923e-06
8.95659e-06
8.95403e-06
8.9515e-06
8.94897e-06
8.94641e-06
8.94383e-06
8.94121e-06
8.93855e-06
8.93584e-06
8.93308e-06
8.93027e-06
8.91635e-06
8.91911e-06
8.92168e-06
8.92408e-06
8.92633e-06
8.92845e-06
8.93044e-06
8.70792e-06
8.70931e-06
8.71086e-06
8.71263e-06
8.71472e-06
8.71736e-06
8.72098e-06
8.72664e-06
8.73718e-06
8.76101e-06
8.81294e-06
8.79008e-06
8.75089e-06
8.7338e-06
8.72503e-06
8.71948e-06
8.71536e-06
8.71192e-06
8.70884e-06
8.70595e-06
8.70317e-06
8.70043e-06
8.69771e-06
8.69499e-06
8.69224e-06
8.68948e-06
8.68668e-06
8.68384e-06
8.67001e-06
8.67279e-06
8.67539e-06
8.67782e-06
8.68011e-06
8.68227e-06
8.68432e-06
8.70752e-06
8.7088e-06
8.71019e-06
8.71174e-06
8.7135e-06
8.71561e-06
8.71836e-06
8.72248e-06
8.73033e-06
8.75177e-06
8.8356e-06
8.78926e-06
8.74186e-06
8.72752e-06
8.72085e-06
8.71657e-06
8.71323e-06
8.71029e-06
8.70755e-06
8.70491e-06
8.7023e-06
8.69969e-06
8.69708e-06
8.69443e-06
8.69176e-06
8.68904e-06
8.68628e-06
8.68348e-06
8.6697e-06
8.67246e-06
8.67503e-06
8.67743e-06
8.67968e-06
8.6818e-06
8.6838e-06
8.70709e-06
8.70825e-06
8.70948e-06
8.71078e-06
8.71217e-06
8.71367e-06
8.71533e-06
8.71729e-06
8.71998e-06
8.72553e-06
8.74634e-06
8.73497e-06
8.72274e-06
8.71843e-06
8.71559e-06
8.71313e-06
8.71078e-06
8.70845e-06
8.70611e-06
8.70374e-06
8.70133e-06
8.69888e-06
8.69638e-06
8.69383e-06
8.69123e-06
8.68857e-06
8.68587e-06
8.68311e-06
8.66937e-06
8.6721e-06
8.67463e-06
8.67699e-06
8.67919e-06
8.68126e-06
8.68321e-06
8.43704e-06
8.43831e-06
8.43971e-06
8.44126e-06
8.44304e-06
8.4452e-06
8.44803e-06
8.4523e-06
8.46039e-06
8.48154e-06
8.55413e-06
8.51579e-06
8.47194e-06
8.45757e-06
8.45072e-06
8.44633e-06
8.44292e-06
8.43996e-06
8.43722e-06
8.43459e-06
8.43199e-06
8.42942e-06
8.42683e-06
8.42422e-06
8.42158e-06
8.4189e-06
8.41619e-06
8.41343e-06
8.39989e-06
8.40261e-06
8.40514e-06
8.4075e-06
8.40972e-06
8.41181e-06
8.41378e-06
8.43664e-06
8.43781e-06
8.43905e-06
8.44038e-06
8.44181e-06
8.44341e-06
8.44527e-06
8.44765e-06
8.45153e-06
8.46197e-06
8.51811e-06
8.48462e-06
8.45678e-06
8.44971e-06
8.44602e-06
8.44321e-06
8.4407e-06
8.43829e-06
8.43591e-06
8.43352e-06
8.43112e-06
8.42867e-06
8.42619e-06
8.42367e-06
8.42109e-06
8.41847e-06
8.4158e-06
8.41308e-06
8.39959e-06
8.40227e-06
8.40477e-06
8.4071e-06
8.40928e-06
8.41133e-06
8.41325e-06
8.13846e-06
8.13969e-06
8.14104e-06
8.14253e-06
8.14423e-06
8.14627e-06
8.14892e-06
8.15288e-06
8.16029e-06
8.17953e-06
8.24325e-06
8.21028e-06
8.17079e-06
8.15766e-06
8.15134e-06
8.14723e-06
8.14401e-06
8.14119e-06
8.13855e-06
8.13601e-06
8.13351e-06
8.13101e-06
8.1285e-06
8.12596e-06
8.1234e-06
8.1208e-06
8.11816e-06
8.11547e-06
8.1023e-06
8.10494e-06
8.1074e-06
8.1097e-06
8.11186e-06
8.11389e-06
8.11581e-06
8.13811e-06
8.13924e-06
8.14045e-06
8.14173e-06
8.14313e-06
8.14466e-06
8.14644e-06
8.14869e-06
8.15229e-06
8.16211e-06
8.22647e-06
8.18547e-06
8.15717e-06
8.15058e-06
8.14711e-06
8.14443e-06
8.14202e-06
8.13969e-06
8.13738e-06
8.13506e-06
8.13272e-06
8.13035e-06
8.12793e-06
8.12547e-06
8.12297e-06
8.12041e-06
8.11781e-06
8.11516e-06
8.10203e-06
8.10464e-06
8.10708e-06
8.10935e-06
8.11147e-06
8.11347e-06
8.11534e-06
7.80491e-06
7.80608e-06
7.80736e-06
7.80877e-06
7.81037e-06
7.81228e-06
7.81473e-06
7.81835e-06
7.82508e-06
7.84276e-06
7.90216e-06
7.8716e-06
7.83467e-06
7.82264e-06
7.81686e-06
7.81307e-06
7.81006e-06
7.8074e-06
7.8049e-06
7.80247e-06
7.80008e-06
7.79768e-06
7.79527e-06
7.79283e-06
7.79037e-06
7.78786e-06
7.78532e-06
7.78273e-06
7.77003e-06
7.77257e-06
7.77495e-06
7.77716e-06
7.77924e-06
7.7812e-06
7.78304e-06
7.8046e-06
7.80569e-06
7.80685e-06
7.80809e-06
7.80943e-06
7.8109e-06
7.81259e-06
7.81471e-06
7.81803e-06
7.82694e-06
7.89421e-06
7.84926e-06
7.82243e-06
7.81642e-06
7.81319e-06
7.81065e-06
7.80834e-06
7.80611e-06
7.80389e-06
7.80166e-06
7.79941e-06
7.79712e-06
7.79479e-06
7.79241e-06
7.79e-06
7.78753e-06
7.78502e-06
7.78247e-06
7.7698e-06
7.77232e-06
7.77467e-06
7.77686e-06
7.77891e-06
7.78083e-06
7.78265e-06
7.42618e-06
7.42729e-06
7.42849e-06
7.42981e-06
7.4313e-06
7.43306e-06
7.43529e-06
7.43853e-06
7.44453e-06
7.46074e-06
7.52064e-06
7.48904e-06
7.4532e-06
7.4423e-06
7.43711e-06
7.43366e-06
7.43089e-06
7.42841e-06
7.42607e-06
7.42378e-06
7.42151e-06
7.41924e-06
7.41695e-06
7.41463e-06
7.41228e-06
7.4099e-06
7.40747e-06
7.40501e-06
7.39287e-06
7.3953e-06
7.39757e-06
7.39968e-06
7.40166e-06
7.40352e-06
7.40528e-06
7.4259e-06
7.42693e-06
7.42802e-06
7.42919e-06
7.43043e-06
7.43178e-06
7.43329e-06
7.43511e-06
7.43774e-06
7.44435e-06
7.50497e-06
7.46212e-06
7.44095e-06
7.43635e-06
7.43365e-06
7.43141e-06
7.4293e-06
7.42722e-06
7.42514e-06
7.42303e-06
7.42089e-06
7.41872e-06
7.4165e-06
7.41424e-06
7.41194e-06
7.40959e-06
7.4072e-06
7.40476e-06
7.39266e-06
7.39507e-06
7.39731e-06
7.3994e-06
7.40136e-06
7.40319e-06
7.40492e-06
6.9879e-06
6.98893e-06
6.99004e-06
6.99125e-06
6.9926e-06
6.99417e-06
6.99612e-06
6.99888e-06
7.00391e-06
7.01794e-06
7.08179e-06
7.04558e-06
7.01126e-06
7.00196e-06
6.99754e-06
6.99454e-06
6.99207e-06
6.98982e-06
6.98766e-06
6.98555e-06
6.98344e-06
6.98132e-06
6.97918e-06
6.97701e-06
6.97481e-06
6.97257e-06
6.9703e-06
6.96798e-06
6.95655e-06
6.95883e-06
6.96096e-06
6.96294e-06
6.9648e-06
6.96655e-06
6.9682e-06
6.98764e-06
6.98859e-06
6.9896e-06
6.99066e-06
6.99177e-06
6.99295e-06
6.99421e-06
6.99557e-06
6.99718e-06
7.00022e-06
7.04367e-06
7.00977e-06
6.99854e-06
6.99609e-06
6.9942e-06
6.99237e-06
6.99054e-06
6.98868e-06
6.98678e-06
6.98484e-06
6.98285e-06
6.98083e-06
6.97876e-06
6.97665e-06
6.97449e-06
6.97229e-06
6.97004e-06
6.96775e-06
6.95635e-06
6.95862e-06
6.96072e-06
6.96268e-06
6.96451e-06
6.96623e-06
6.96785e-06
6.46823e-06
6.46917e-06
6.47017e-06
6.47124e-06
6.47243e-06
6.47377e-06
6.47538e-06
6.47754e-06
6.48127e-06
6.4917e-06
6.55676e-06
6.51547e-06
6.48659e-06
6.4797e-06
6.4763e-06
6.47384e-06
6.47173e-06
6.46976e-06
6.46783e-06
6.46592e-06
6.46401e-06
6.46207e-06
6.4601e-06
6.45811e-06
6.45608e-06
6.45401e-06
6.45191e-06
6.44977e-06
6.43917e-06
6.44128e-06
6.44325e-06
6.44508e-06
6.4468e-06
6.44841e-06
6.44993e-06
6.46798e-06
6.46884e-06
6.46973e-06
6.47066e-06
6.47162e-06
6.47258e-06
6.4735e-06
6.47426e-06
6.47448e-06
6.47242e-06
6.47491e-06
6.46813e-06
6.47324e-06
6.4738e-06
6.47298e-06
6.47171e-06
6.47023e-06
6.46864e-06
6.46696e-06
6.46522e-06
6.46343e-06
6.46158e-06
6.45969e-06
6.45775e-06
6.45576e-06
6.45373e-06
6.45166e-06
6.44954e-06
6.43898e-06
6.44107e-06
6.44301e-06
6.44482e-06
6.44652e-06
6.4481e-06
6.44959e-06
5.87586e-06
5.87689e-06
5.87798e-06
5.87912e-06
5.88034e-06
5.88164e-06
5.88306e-06
5.88467e-06
5.88675e-06
5.89085e-06
5.92992e-06
5.90058e-06
5.88873e-06
5.8855e-06
5.88322e-06
5.88114e-06
5.87911e-06
5.87708e-06
5.87503e-06
5.87294e-06
5.87081e-06
5.86864e-06
5.86643e-06
5.86417e-06
5.86187e-06
5.85952e-06
5.85712e-06
5.85467e-06
5.84249e-06
5.84491e-06
5.84715e-06
5.84924e-06
5.8512e-06
5.85303e-06
5.85476e-06
7.44168e-06
7.4528e-06
7.46434e-06
7.47626e-06
7.48841e-06
7.50049e-06
7.51176e-06
7.52009e-06
7.51798e-06
7.46386e-06
6.82833e-06
7.27061e-06
7.48957e-06
7.51053e-06
7.50341e-06
7.4883e-06
7.46983e-06
7.44954e-06
7.42804e-06
7.40561e-06
7.38241e-06
7.35852e-06
7.33399e-06
7.30884e-06
7.2831e-06
7.25678e-06
7.22989e-06
7.20244e-06
7.06457e-06
7.09171e-06
7.1169e-06
7.14037e-06
7.1623e-06
7.18285e-06
7.20215e-06
7.44316e-06
7.4547e-06
7.46683e-06
7.47961e-06
7.4931e-06
7.5074e-06
7.52267e-06
7.53926e-06
7.55828e-06
7.58455e-06
7.54484e-06
7.6082e-06
7.57108e-06
7.54541e-06
7.52279e-06
7.50071e-06
7.47852e-06
7.45599e-06
7.43305e-06
7.40964e-06
7.38573e-06
7.36131e-06
7.33637e-06
7.31091e-06
7.28491e-06
7.25839e-06
7.23133e-06
7.20374e-06
7.06568e-06
7.09293e-06
7.11825e-06
7.14185e-06
7.16392e-06
7.18463e-06
7.20411e-06
1.31122e-05
1.30974e-05
1.3082e-05
1.3066e-05
1.30494e-05
1.30325e-05
1.30159e-05
1.30015e-05
1.29959e-05
1.30385e-05
1.38461e-05
1.32356e-05
1.30182e-05
1.3008e-05
1.30236e-05
1.30464e-05
1.30723e-05
1.30999e-05
1.31286e-05
1.31582e-05
1.31886e-05
1.32197e-05
1.32514e-05
1.32837e-05
1.33166e-05
1.335e-05
1.33839e-05
1.34184e-05
1.35887e-05
1.35555e-05
1.35245e-05
1.34955e-05
1.34683e-05
1.34427e-05
1.34185e-05
1.49899e-05
1.49912e-05
1.49926e-05
1.49941e-05
1.49959e-05
1.49981e-05
1.50011e-05
1.50058e-05
1.50149e-05
1.5039e-05
1.5117e-05
1.50766e-05
1.50282e-05
1.50119e-05
1.50043e-05
1.49996e-05
1.49961e-05
1.49931e-05
1.49904e-05
1.49878e-05
1.49852e-05
1.49828e-05
1.49803e-05
1.49777e-05
1.49752e-05
1.49726e-05
1.497e-05
1.49674e-05
1.49545e-05
1.49571e-05
1.49596e-05
1.49618e-05
1.49639e-05
1.4966e-05
1.49678e-05
1.49893e-05
1.49903e-05
1.49914e-05
1.49926e-05
1.49938e-05
1.49951e-05
1.49965e-05
1.49982e-05
1.50009e-05
1.50096e-05
1.50494e-05
1.50283e-05
1.5005e-05
1.49993e-05
1.49966e-05
1.49944e-05
1.49923e-05
1.49902e-05
1.49881e-05
1.49859e-05
1.49837e-05
1.49815e-05
1.49792e-05
1.49768e-05
1.49744e-05
1.49719e-05
1.49694e-05
1.49668e-05
1.4954e-05
1.49566e-05
1.49589e-05
1.49611e-05
1.49632e-05
1.49651e-05
1.49669e-05
1.46184e-05
1.46197e-05
1.46212e-05
1.46229e-05
1.4625e-05
1.46277e-05
1.46315e-05
1.46375e-05
1.46489e-05
1.46742e-05
1.47241e-05
1.47031e-05
1.46637e-05
1.46454e-05
1.46361e-05
1.46303e-05
1.46261e-05
1.46227e-05
1.46197e-05
1.46169e-05
1.46143e-05
1.46117e-05
1.46092e-05
1.46066e-05
1.46041e-05
1.46015e-05
1.4599e-05
1.45963e-05
1.45838e-05
1.45863e-05
1.45887e-05
1.4591e-05
1.45931e-05
1.45951e-05
1.4597e-05
1.46178e-05
1.46189e-05
1.46202e-05
1.46216e-05
1.46231e-05
1.4625e-05
1.46274e-05
1.46309e-05
1.46376e-05
1.46566e-05
1.47346e-05
1.46914e-05
1.46477e-05
1.46352e-05
1.46294e-05
1.46257e-05
1.46227e-05
1.46201e-05
1.46177e-05
1.46153e-05
1.46129e-05
1.46106e-05
1.46082e-05
1.46058e-05
1.46033e-05
1.46009e-05
1.45983e-05
1.45958e-05
1.45833e-05
1.45858e-05
1.45881e-05
1.45903e-05
1.45924e-05
1.45943e-05
1.45962e-05
1.46171e-05
1.46181e-05
1.46191e-05
1.46201e-05
1.46211e-05
1.46221e-05
1.46229e-05
1.46234e-05
1.46232e-05
1.46231e-05
1.46365e-05
1.46275e-05
1.46225e-05
1.46224e-05
1.46218e-05
1.46206e-05
1.46191e-05
1.46174e-05
1.46155e-05
1.46135e-05
1.46115e-05
1.46093e-05
1.46071e-05
1.46049e-05
1.46025e-05
1.46002e-05
1.45977e-05
1.45952e-05
1.45828e-05
1.45853e-05
1.45875e-05
1.45897e-05
1.45917e-05
1.45935e-05
1.45953e-05
1.42127e-05
1.42139e-05
1.42152e-05
1.42166e-05
1.42183e-05
1.42204e-05
1.42231e-05
1.42273e-05
1.42354e-05
1.42564e-05
1.43236e-05
1.4289e-05
1.4247e-05
1.42327e-05
1.42259e-05
1.42216e-05
1.42184e-05
1.42156e-05
1.4213e-05
1.42106e-05
1.42082e-05
1.42059e-05
1.42035e-05
1.42011e-05
1.41987e-05
1.41963e-05
1.41938e-05
1.41913e-05
1.41791e-05
1.41816e-05
1.41839e-05
1.41861e-05
1.41881e-05
1.419e-05
1.41918e-05
1.42121e-05
1.42131e-05
1.42142e-05
1.42153e-05
1.42164e-05
1.42176e-05
1.42189e-05
1.42203e-05
1.42221e-05
1.42281e-05
1.42779e-05
1.42463e-05
1.42247e-05
1.42209e-05
1.42188e-05
1.42169e-05
1.4215e-05
1.4213e-05
1.4211e-05
1.4209e-05
1.42069e-05
1.42047e-05
1.42025e-05
1.42003e-05
1.4198e-05
1.41956e-05
1.41932e-05
1.41908e-05
1.41787e-05
1.41811e-05
1.41834e-05
1.41855e-05
1.41874e-05
1.41893e-05
1.4191e-05
1.37674e-05
1.37685e-05
1.37698e-05
1.37712e-05
1.37728e-05
1.37748e-05
1.37775e-05
1.37816e-05
1.37895e-05
1.38101e-05
1.38716e-05
1.38412e-05
1.38009e-05
1.37869e-05
1.37802e-05