/*--------------------------------*- C++ -*----------------------------------*\
  =========                 |
  \\      /  F ield         | OpenFOAM: The Open Source CFD Toolbox
   \\    /   O peration     | Website:  https://openfoam.org
    \\  /    A nd           | Version:  6
     \\/     M anipulation  |
\*---------------------------------------------------------------------------*/
FoamFile
{
    version     2.0;
    format      ascii;
    class       volVectorField;
    location    "0";
    object      U;
}
// * * * * * * * * * * * * * * * * * * * * * * * * * * * * * * * * * * * * * //

dimensions      [0 1 -1 0 0 0 0];

internalField   nonuniform List<vector> 
63568
(
(0.128142 1.45144e-08 -1.2798e-10)
(0.128269 1.46835e-08 -1.28754e-10)
(0.12841 1.48624e-08 -1.29612e-10)
(0.128571 1.50526e-08 -1.30585e-10)
(0.128761 1.5256e-08 -1.3173e-10)
(0.128999 1.5476e-08 -1.33156e-10)
(0.129324 1.57199e-08 -1.35102e-10)
(0.12984 1.60047e-08 -1.38155e-10)
(0.130851 1.63815e-08 -1.44049e-10)
(0.133493 1.70431e-08 -1.59115e-10)
(0.142777 1.88675e-08 -2.1044e-10)
(0.137702 1.78856e-08 -1.82542e-10)
(0.132307 1.67161e-08 -1.52384e-10)
(0.130517 1.61569e-08 -1.42084e-10)
(0.129683 1.57512e-08 -1.37194e-10)
(0.129174 1.53926e-08 -1.34166e-10)
(0.128798 1.50494e-08 -1.31912e-10)
(0.128484 1.47104e-08 -1.30023e-10)
(0.128203 1.43706e-08 -1.28322e-10)
(0.127939 1.40277e-08 -1.2672e-10)
(0.127684 1.36806e-08 -1.25172e-10)
(0.127434 1.33287e-08 -1.23652e-10)
(0.127187 1.29716e-08 -1.22143e-10)
(0.126939 1.26092e-08 -1.20635e-10)
(0.126691 1.22414e-08 -1.19122e-10)
(0.126441 1.18681e-08 -1.17601e-10)
(0.12619 1.14894e-08 -1.16067e-10)
(0.125936 1.11054e-08 -1.1452e-10)
(0.124708 -8.06099e-09 -6.77642e-11)
(0.124951 -8.4137e-09 -6.83781e-11)
(0.125178 -8.74046e-09 -6.89682e-11)
(0.125392 -9.04412e-09 -6.9537e-11)
(0.125593 -9.32711e-09 -7.00867e-11)
(0.125784 -9.59153e-09 -7.06193e-11)
(0.125966 -9.8392e-09 -7.11363e-11)
(0.128135 1.45141e-08 -1.28076e-10)
(0.12826 1.46832e-08 -1.28875e-10)
(0.128398 1.48622e-08 -1.29768e-10)
(0.128555 1.50525e-08 -1.3079e-10)
(0.128737 1.5256e-08 -1.32004e-10)
(0.128961 1.54763e-08 -1.3353e-10)
(0.129258 1.57199e-08 -1.35612e-10)
(0.129705 1.60017e-08 -1.38803e-10)
(0.130503 1.636e-08 -1.44502e-10)
(0.132302 1.69084e-08 -1.56627e-10)
(0.137041 1.79175e-08 -1.83934e-10)
(0.134765 1.74554e-08 -1.71429e-10)
(0.131514 1.66381e-08 -1.51492e-10)
(0.130225 1.61395e-08 -1.42628e-10)
(0.129545 1.57461e-08 -1.3783e-10)
(0.129095 1.53901e-08 -1.34701e-10)
(0.128746 1.50475e-08 -1.3234e-10)
(0.128448 1.47085e-08 -1.30366e-10)
(0.128176 1.43686e-08 -1.286e-10)
(0.127918 1.40258e-08 -1.2695e-10)
(0.127667 1.36788e-08 -1.25366e-10)
(0.12742 1.3327e-08 -1.23816e-10)
(0.127174 1.29701e-08 -1.22285e-10)
(0.126929 1.26079e-08 -1.2076e-10)
(0.126682 1.22403e-08 -1.19233e-10)
(0.126433 1.18674e-08 -1.177e-10)
(0.126183 1.14891e-08 -1.16157e-10)
(0.12593 1.11055e-08 -1.14603e-10)
(0.124703 -8.06153e-09 -6.78719e-11)
(0.124945 -8.41383e-09 -6.84961e-11)
(0.125171 -8.74025e-09 -6.90976e-11)
(0.125384 -9.04363e-09 -6.96789e-11)
(0.125584 -9.32637e-09 -7.02423e-11)
(0.125774 -9.59059e-09 -7.07899e-11)
(0.125955 -9.8381e-09 -7.13233e-11)
(0.124494 1.31692e-08 -1.37225e-10)
(0.124618 1.33255e-08 -1.37478e-10)
(0.124754 1.3491e-08 -1.3777e-10)
(0.124907 1.36671e-08 -1.38116e-10)
(0.125084 1.38557e-08 -1.3855e-10)
(0.1253 1.40602e-08 -1.39131e-10)
(0.125586 1.42873e-08 -1.39993e-10)
(0.126018 1.45525e-08 -1.41462e-10)
(0.126815 1.48978e-08 -1.44489e-10)
(0.128726 1.54529e-08 -1.52497e-10)
(0.133953 1.64826e-08 -1.76555e-10)
(0.131438 1.60196e-08 -1.64754e-10)
(0.127879 1.51838e-08 -1.4897e-10)
(0.126536 1.46933e-08 -1.43604e-10)
(0.12586 1.43202e-08 -1.41204e-10)
(0.125421 1.39878e-08 -1.39842e-10)
(0.125081 1.36698e-08 -1.3892e-10)
(0.12479 1.3356e-08 -1.38211e-10)
(0.124522 1.30418e-08 -1.37615e-10)
(0.124267 1.27251e-08 -1.37083e-10)
(0.124019 1.24048e-08 -1.36588e-10)
(0.123773 1.20802e-08 -1.36116e-10)
(0.123529 1.17509e-08 -1.35657e-10)
(0.123284 1.14168e-08 -1.35206e-10)
(0.123037 1.10777e-08 -1.34758e-10)
(0.122789 1.07338e-08 -1.34313e-10)
(0.122538 1.03849e-08 -1.33866e-10)
(0.122285 1.00312e-08 -1.33419e-10)
(0.121056 -7.16868e-09 -1.55081e-10)
(0.121298 -7.48662e-09 -1.56985e-10)
(0.121524 -7.78132e-09 -1.58798e-10)
(0.121738 -8.05532e-09 -1.6053e-10)
(0.121938 -8.31081e-09 -1.62188e-10)
(0.122128 -8.54968e-09 -1.6378e-10)
(0.122309 -8.77355e-09 -1.65312e-10)
(0.12449 1.31638e-08 -1.37252e-10)
(0.124612 1.33186e-08 -1.37513e-10)
(0.124747 1.3482e-08 -1.37816e-10)
(0.124897 1.3655e-08 -1.38179e-10)
(0.125071 1.38388e-08 -1.38639e-10)
(0.125283 1.40357e-08 -1.39267e-10)
(0.125564 1.42499e-08 -1.40217e-10)
(0.125993 1.4492e-08 -1.41886e-10)
(0.126822 1.4796e-08 -1.45496e-10)
(0.129076 1.5315e-08 -1.55986e-10)
(0.138328 1.6995e-08 -1.99357e-10)
(0.133041 1.60394e-08 -1.74651e-10)
(0.128038 1.50493e-08 -1.51238e-10)
(0.126532 1.46015e-08 -1.44456e-10)
(0.125836 1.42606e-08 -1.41634e-10)
(0.125398 1.39472e-08 -1.40102e-10)
(0.125063 1.36407e-08 -1.39095e-10)
(0.124775 1.33342e-08 -1.38338e-10)
(0.12451 1.30249e-08 -1.37712e-10)
(0.124257 1.27115e-08 -1.3716e-10)
(0.12401 1.23936e-08 -1.36651e-10)
(0.123766 1.20707e-08 -1.36168e-10)
(0.123522 1.17427e-08 -1.35701e-10)
(0.123278 1.14095e-08 -1.35244e-10)
(0.123032 1.10711e-08 -1.34791e-10)
(0.122784 1.07277e-08 -1.34341e-10)
(0.122534 1.03791e-08 -1.33891e-10)
(0.122281 1.00256e-08 -1.33441e-10)
(0.121052 -7.16303e-09 -1.5523e-10)
(0.121294 -7.48084e-09 -1.57151e-10)
(0.121521 -7.77533e-09 -1.58982e-10)
(0.121733 -8.04903e-09 -1.60733e-10)
(0.121934 -8.30413e-09 -1.62413e-10)
(0.122124 -8.54253e-09 -1.64028e-10)
(0.122304 -8.76585e-09 -1.65584e-10)
(0.124483 1.31555e-08 -1.37272e-10)
(0.124603 1.33081e-08 -1.37538e-10)
(0.124735 1.34685e-08 -1.37847e-10)
(0.124881 1.36372e-08 -1.38217e-10)
(0.125047 1.38145e-08 -1.38686e-10)
(0.125245 1.40011e-08 -1.39318e-10)
(0.125499 1.41975e-08 -1.40253e-10)
(0.125861 1.44048e-08 -1.4181e-10)
(0.126471 1.46275e-08 -1.44805e-10)
(0.12774 1.48939e-08 -1.51492e-10)
(0.130722 1.53808e-08 -1.66601e-10)
(0.129311 1.51336e-08 -1.59682e-10)
(0.127189 1.47414e-08 -1.48716e-10)
(0.12624 1.44512e-08 -1.43951e-10)
(0.1257 1.41704e-08 -1.4155e-10)
(0.12532 1.3886e-08 -1.40121e-10)
(0.125012 1.35958e-08 -1.39139e-10)
(0.124739 1.32995e-08 -1.38385e-10)
(0.124483 1.29971e-08 -1.37756e-10)
(0.124235 1.26886e-08 -1.37199e-10)
(0.123993 1.23743e-08 -1.36685e-10)
(0.123751 1.20542e-08 -1.36199e-10)
(0.12351 1.17285e-08 -1.35728e-10)
(0.123267 1.13972e-08 -1.35268e-10)
(0.123023 1.10605e-08 -1.34813e-10)
(0.122776 1.07185e-08 -1.34361e-10)
(0.122527 1.03713e-08 -1.3391e-10)
(0.122275 1.0019e-08 -1.33458e-10)
(0.121047 -7.15695e-09 -1.55349e-10)
(0.121288 -7.47364e-09 -1.57279e-10)
(0.121513 -7.767e-09 -1.59122e-10)
(0.121725 -8.03957e-09 -1.60886e-10)
(0.121925 -8.29352e-09 -1.6258e-10)
(0.122114 -8.53072e-09 -1.64211e-10)
(0.122292 -8.7528e-09 -1.65785e-10)
(0.120409 8.88247e-09 -9.88821e-11)
(0.120528 8.97434e-09 -9.84007e-11)
(0.120658 9.07157e-09 -9.7908e-11)
(0.120802 9.17487e-09 -9.74117e-11)
(0.120965 9.28532e-09 -9.69272e-11)
(0.12116 9.40473e-09 -9.64875e-11)
(0.121412 9.53677e-09 -9.61677e-11)
(0.121784 9.69021e-09 -9.6164e-11)
(0.122483 9.89092e-09 -9.70975e-11)
(0.124384 1.02355e-08 -1.01566e-10)
(0.132268 1.11058e-08 -1.2313e-10)
(0.127817 1.06566e-08 -1.10915e-10)
(0.123499 1.00668e-08 -9.96272e-11)
(0.122227 9.77244e-09 -9.7259e-11)
(0.121628 9.55528e-09 -9.6958e-11)
(0.121238 9.3618e-09 -9.73337e-11)
(0.120929 9.17607e-09 -9.7997e-11)
(0.120658 8.99227e-09 -9.88083e-11)
(0.120404 8.80795e-09 -9.97082e-11)
(0.120159 8.62192e-09 -1.00668e-10)
(0.119918 8.4336e-09 -1.01672e-10)
(0.119678 8.24265e-09 -1.02711e-10)
(0.119437 8.04891e-09 -1.03781e-10)
(0.119196 7.85227e-09 -1.04877e-10)
(0.118952 7.65271e-09 -1.05997e-10)
(0.118706 7.45022e-09 -1.07139e-10)
(0.118458 7.2448e-09 -1.08303e-10)
(0.118206 7.03651e-09 -1.09486e-10)
(0.116981 -3.46316e-09 -2.39149e-10)
(0.117222 -3.64723e-09 -2.42727e-10)
(0.117447 -3.81738e-09 -2.46114e-10)
(0.117659 -3.97513e-09 -2.49328e-10)
(0.117858 -4.1218e-09 -2.52388e-10)
(0.118047 -4.25852e-09 -2.55307e-10)
(0.118225 -4.38629e-09 -2.58099e-10)
(0.120403 8.87198e-09 -9.88392e-11)
(0.120521 8.96096e-09 -9.83456e-11)
(0.120648 9.05415e-09 -9.78356e-11)
(0.120789 9.15156e-09 -9.73139e-11)
(0.120947 9.25303e-09 -9.67902e-11)
(0.121134 9.35797e-09 -9.62858e-11)
(0.121369 9.46486e-09 -9.58501e-11)
(0.121707 9.57009e-09 -9.56128e-11)
(0.122313 9.66615e-09 -9.59865e-11)
(0.123858 9.76185e-09 -9.87697e-11)
(0.130147 1.03503e-08 -1.15398e-10)
(0.126581 9.9495e-09 -1.05566e-10)
(0.123141 9.69263e-09 -9.75761e-11)
(0.12208 9.57236e-09 -9.62892e-11)
(0.121549 9.43398e-09 -9.64041e-11)
(0.121189 9.28068e-09 -9.69763e-11)
(0.120895 9.11786e-09 -9.77467e-11)
(0.120633 8.9483e-09 -9.86228e-11)
(0.120385 8.77341e-09 -9.95648e-11)
(0.120143 8.59398e-09 -1.00553e-10)
(0.119905 8.41044e-09 -1.01578e-10)
(0.119667 8.22309e-09 -1.02633e-10)
(0.119428 8.03213e-09 -1.03714e-10)
(0.119188 7.8377e-09 -1.04819e-10)
(0.118945 7.63991e-09 -1.05947e-10)
(0.1187 7.43887e-09 -1.07095e-10)
(0.118452 7.23468e-09 -1.08263e-10)
(0.118201 7.02742e-09 -1.0945e-10)
(0.116977 -3.45326e-09 -2.39266e-10)
(0.117217 -3.63629e-09 -2.42857e-10)
(0.117442 -3.80532e-09 -2.46256e-10)
(0.117653 -3.96186e-09 -2.49485e-10)
(0.117852 -4.10721e-09 -2.5256e-10)
(0.11804 -4.24251e-09 -2.55496e-10)
(0.118217 -4.36872e-09 -2.58307e-10)
(0.115861 2.31208e-09 -2.60109e-11)
(0.115977 2.31622e-09 -2.45071e-11)
(0.116103 2.32126e-09 -2.29293e-11)
(0.11624 2.32767e-09 -2.12751e-11)
(0.116394 2.33632e-09 -1.95443e-11)
(0.116574 2.3489e-09 -1.77414e-11)
(0.116799 2.36916e-09 -1.58825e-11)
(0.11712 2.4064e-09 -1.40155e-11)
(0.117695 2.48817e-09 -1.22881e-11)
(0.119219 2.7084e-09 -1.11751e-11)
(0.125655 3.20082e-09 -1.07391e-11)
(0.122003 2.99992e-09 -1.11993e-11)
(0.118504 2.61366e-09 -1.19653e-11)
(0.11747 2.46644e-09 -1.38613e-11)
(0.116964 2.40371e-09 -1.62813e-11)
(0.116618 2.3709e-09 -1.8935e-11)
(0.116335 2.35069e-09 -2.17235e-11)
(0.116079 2.33659e-09 -2.4608e-11)
(0.115835 2.32574e-09 -2.75706e-11)
(0.115598 2.31679e-09 -3.06025e-11)
(0.115363 2.30898e-09 -3.36983e-11)
(0.115128 2.3019e-09 -3.68548e-11)
(0.114891 2.29529e-09 -4.00696e-11)
(0.114653 2.289e-09 -4.33409e-11)
(0.114412 2.28291e-09 -4.66671e-11)
(0.114169 2.27696e-09 -5.00469e-11)
(0.113923 2.2711e-09 -5.34789e-11)
(0.113674 2.26529e-09 -5.69618e-11)
(0.112458 2.94498e-09 -3.34728e-10)
(0.112697 2.96155e-09 -3.40593e-10)
(0.11292 2.97799e-09 -3.46115e-10)
(0.11313 2.99428e-09 -3.51329e-10)
(0.113327 3.01042e-09 -3.56268e-10)
(0.113513 3.02637e-09 -3.60958e-10)
(0.113689 3.04212e-09 -3.65422e-10)
(0.115856 2.30052e-09 -2.59389e-11)
(0.115971 2.30146e-09 -2.44152e-11)
(0.116095 2.30197e-09 -2.28091e-11)
(0.116229 2.30176e-09 -2.11136e-11)
(0.116379 2.30026e-09 -1.93196e-11)
(0.116552 2.29635e-09 -1.7414e-11)
(0.116765 2.28762e-09 -1.53748e-11)
(0.117062 2.26828e-09 -1.31555e-11)
(0.117585 2.22284e-09 -1.06358e-11)
(0.118988 2.11833e-09 -7.49176e-12)
(0.126243 2.3613e-09 -5.1597e-12)
(0.121797 2.09621e-09 -5.49193e-12)
(0.118318 2.15705e-09 -9.11619e-12)
(0.117373 2.23192e-09 -1.23992e-11)
(0.116906 2.26454e-09 -1.54135e-11)
(0.11658 2.27906e-09 -1.83621e-11)
(0.116307 2.28541e-09 -2.13162e-11)
(0.116058 2.28763e-09 -2.43025e-11)
(0.11582 2.28753e-09 -2.73324e-11)
(0.115585 2.28602e-09 -3.0411e-11)
(0.115352 2.2836e-09 -3.35407e-11)
(0.115119 2.28055e-09 -3.67227e-11)
(0.114884 2.27704e-09 -3.99572e-11)
(0.114646 2.27318e-09 -4.32441e-11)
(0.114407 2.26904e-09 -4.6583e-11)
(0.114164 2.26468e-09 -4.99733e-11)
(0.113918 2.26013e-09 -5.34142e-11)
(0.11367 2.25543e-09 -5.69047e-11)
(0.112454 2.9568e-09 -3.34839e-10)
(0.112693 2.97457e-09 -3.40717e-10)
(0.112916 2.99232e-09 -3.46253e-10)
(0.113125 3.01005e-09 -3.51482e-10)
(0.113322 3.02776e-09 -3.56438e-10)
(0.113507 3.04542e-09 -3.61145e-10)
(0.113683 3.06305e-09 -3.65629e-10)
(0.110774 -5.97823e-09 5.07546e-11)
(0.110887 -6.10548e-09 5.32804e-11)
(0.111009 -6.23886e-09 5.59393e-11)
(0.11114 -6.37846e-09 5.87406e-11)
(0.111287 -6.5241e-09 6.16953e-11)
(0.111454 -6.67502e-09 6.48167e-11)
(0.111658 -6.82897e-09 6.81238e-11)
(0.111937 -6.97961e-09 7.16533e-11)
(0.112418 -7.10736e-09 7.55164e-11)
(0.113651 -7.1484e-09 8.03409e-11)
(0.118945 -7.26318e-09 9.33053e-11)
(0.115905 -7.10721e-09 8.56223e-11)
(0.113067 -7.10464e-09 7.77116e-11)
(0.112218 -6.97938e-09 7.26706e-11)
(0.111783 -6.78804e-09 6.79092e-11)
(0.111473 -6.56942e-09 6.31399e-11)
(0.111209 -6.33633e-09 5.83041e-11)
(0.110967 -6.09368e-09 5.3385e-11)
(0.110733 -5.84362e-09 4.8377e-11)
(0.110503 -5.58726e-09 4.32782e-11)
(0.110273 -5.32521e-09 3.80883e-11)
(0.110043 -5.05784e-09 3.28076e-11)
(0.109811 -4.7854e-09 2.74368e-11)
(0.109577 -4.5081e-09 2.1977e-11)
(0.10934 -4.22607e-09 1.64294e-11)
(0.1091 -3.93946e-09 1.07954e-11)
(0.108858 -3.64839e-09 5.07662e-12)
(0.108612 -3.35298e-09 -7.25143e-13)
(0.10741 1.14945e-08 -4.10187e-10)
(0.107645 1.17915e-08 -4.18105e-10)
(0.107866 1.20692e-08 -4.25544e-10)
(0.108073 1.23295e-08 -4.32552e-10)
(0.108267 1.25742e-08 -4.39176e-10)
(0.108451 1.28049e-08 -4.45451e-10)
(0.108624 1.30229e-08 -4.51411e-10)
(0.11077 -5.98899e-09 5.08172e-11)
(0.110882 -6.11922e-09 5.33601e-11)
(0.111002 -6.25681e-09 5.60429e-11)
(0.111131 -6.40256e-09 5.88793e-11)
(0.111274 -6.55765e-09 6.18875e-11)
(0.111436 -6.72397e-09 6.50959e-11)
(0.11163 -6.90518e-09 6.8557e-11)
(0.111891 -7.10995e-09 7.23932e-11)
(0.112336 -7.36439e-09 7.6985e-11)
(0.113547 -7.77167e-09 8.40657e-11)
(0.121195 -8.65075e-09 1.06539e-10)
(0.116225 -8.23454e-09 9.33536e-11)
(0.112956 -7.56887e-09 8.04292e-11)
(0.112145 -7.20556e-09 7.39664e-11)
(0.111737 -6.91987e-09 6.86637e-11)
(0.111441 -6.65584e-09 6.36366e-11)
(0.111187 -6.39762e-09 5.86584e-11)
(0.11095 -6.13961e-09 5.3652e-11)
(0.11072 -5.87948e-09 4.85865e-11)
(0.110492 -5.61613e-09 4.34474e-11)
(0.110265 -5.34901e-09 3.8228e-11)
(0.110036 -5.07784e-09 3.29248e-11)
(0.109805 -4.80246e-09 2.75362e-11)
(0.109571 -4.52282e-09 2.2062e-11)
(0.109335 -4.23889e-09 1.65023e-11)
(0.109096 -3.95071e-09 1.0858e-11)
(0.108854 -3.65831e-09 5.13017e-12)
(0.108608 -3.36176e-09 -6.79782e-13)
(0.107406 1.15052e-08 -4.10239e-10)
(0.107642 1.18036e-08 -4.18167e-10)
(0.107862 1.20826e-08 -4.25614e-10)
(0.108069 1.23443e-08 -4.32633e-10)
(0.108263 1.25906e-08 -4.39266e-10)
(0.108446 1.2823e-08 -4.45552e-10)
(0.108619 1.30429e-08 -4.51523e-10)
(0.105022 -1.42874e-08 1.06441e-10)
(0.105132 -1.45375e-08 1.09273e-10)
(0.105249 -1.48005e-08 1.12258e-10)
(0.105376 -1.50771e-08 1.15411e-10)
(0.105515 -1.5368e-08 1.18748e-10)
(0.105672 -1.56738e-08 1.22297e-10)
(0.105858 -1.59945e-08 1.26101e-10)
(0.106105 -1.63289e-08 1.30265e-10)
(0.106513 -1.66717e-08 1.35108e-10)
(0.107537 -1.70101e-08 1.42136e-10)
(0.1122 -1.76939e-08 1.63411e-10)
(0.109458 -1.72486e-08 1.50996e-10)
(0.107046 -1.68161e-08 1.38475e-10)
(0.106333 -1.6401e-08 1.31817e-10)
(0.105953 -1.59582e-08 1.26109e-10)
(0.105671 -1.54982e-08 1.20598e-10)
(0.105425 -1.50252e-08 1.15097e-10)
(0.105194 -1.4541e-08 1.09543e-10)
(0.104969 -1.40464e-08 1.03912e-10)
(0.104746 -1.35419e-08 9.81932e-11)
(0.104522 -1.30278e-08 9.23803e-11)
(0.104298 -1.25043e-08 8.64714e-11)
(0.104071 -1.19717e-08 8.04658e-11)
(0.103841 -1.14301e-08 7.43634e-11)
(0.103609 -1.08796e-08 6.81649e-11)
(0.103373 -1.03205e-08 6.18715e-11)
(0.103135 -9.75284e-09 5.54846e-11)
(0.102893 -9.17693e-09 4.9006e-11)
(0.10171 1.99908e-08 -4.00071e-10)
(0.101942 2.05629e-08 -4.08343e-10)
(0.102158 2.10966e-08 -4.16097e-10)
(0.102362 2.15959e-08 -4.2339e-10)
(0.102553 2.20644e-08 -4.30268e-10)
(0.102733 2.25052e-08 -4.36773e-10)
(0.102904 2.29208e-08 -4.4294e-10)
(0.105018 -1.4295e-08 1.06467e-10)
(0.105127 -1.45473e-08 1.09306e-10)
(0.105243 -1.48132e-08 1.12301e-10)
(0.105367 -1.50942e-08 1.15468e-10)
(0.105503 -1.53918e-08 1.18826e-10)
(0.105654 -1.57084e-08 1.22409e-10)
(0.105831 -1.60483e-08 1.26275e-10)
(0.10606 -1.64215e-08 1.30565e-10)
(0.106429 -1.68581e-08 1.3573e-10)
(0.107406 -1.75001e-08 1.44053e-10)
(0.1145 -1.94351e-08 1.79945e-10)
(0.10969 -1.83072e-08 1.56928e-10)
(0.106922 -1.71679e-08 1.39756e-10)
(0.106259 -1.65647e-08 1.32365e-10)
(0.105908 -1.60525e-08 1.26421e-10)
(0.105641 -1.55599e-08 1.20804e-10)
(0.105404 -1.5069e-08 1.15245e-10)
(0.105178 -1.45739e-08 1.09656e-10)
(0.104957 -1.40722e-08 1.04002e-10)
(0.104736 -1.35627e-08 9.82663e-11)
(0.104514 -1.3045e-08 9.24409e-11)
(0.104291 -1.25188e-08 8.65222e-11)
(0.104065 -1.1984e-08 8.05085e-11)
(0.103836 -1.14406e-08 7.43993e-11)
(0.103604 -1.08887e-08 6.81949e-11)
(0.103369 -1.03283e-08 6.1896e-11)
(0.103131 -9.75964e-09 5.55041e-11)
(0.10289 -9.18278e-09 4.90205e-11)
(0.101707 1.9998e-08 -4.00042e-10)
(0.101939 2.05711e-08 -4.08315e-10)
(0.102155 2.11059e-08 -4.16069e-10)
(0.102358 2.16063e-08 -4.23362e-10)
(0.102549 2.2076e-08 -4.3024e-10)
(0.102729 2.25181e-08 -4.36743e-10)
(0.102899 2.29351e-08 -4.42908e-10)
(0.0984057 -1.90245e-08 1.00001e-10)
(0.0985118 -1.93591e-08 1.02042e-10)
(0.0986249 -1.97115e-08 1.04194e-10)
(0.0987464 -2.0083e-08 1.06468e-10)
(0.0988786 -2.04754e-08 1.08875e-10)
(0.0990258 -2.08906e-08 1.11436e-10)
(0.0991971 -2.13318e-08 1.14184e-10)
(0.0994165 -2.18052e-08 1.17197e-10)
(0.0997636 -2.23293e-08 1.20719e-10)
(0.100633 -2.29955e-08 1.25942e-10)
(0.10549 -2.48195e-08 1.43569e-10)
(0.102433 -2.37185e-08 1.32952e-10)
(0.100208 -2.26405e-08 1.23231e-10)
(0.0996011 -2.19539e-08 1.18351e-10)
(0.099268 -2.13143e-08 1.14216e-10)
(0.0990106 -2.06782e-08 1.10235e-10)
(0.0987803 -2.00353e-08 1.06265e-10)
(0.0985604 -1.93826e-08 1.0226e-10)
(0.0983443 -1.87188e-08 9.82012e-11)
(0.0981288 -1.80435e-08 9.4079e-11)
(0.0979123 -1.73563e-08 8.98899e-11)
(0.0976938 -1.66574e-08 8.5632e-11)
(0.0974728 -1.59467e-08 8.13047e-11)
(0.0972491 -1.52243e-08 7.69078e-11)
(0.0970224 -1.44904e-08 7.24419e-11)
(0.0967927 -1.37451e-08 6.79077e-11)
(0.0965599 -1.29887e-08 6.33062e-11)
(0.096324 -1.22213e-08 5.86386e-11)
(0.0951664 2.47948e-08 -2.64969e-10)
(0.095393 2.5539e-08 -2.70678e-10)
(0.0956048 2.62329e-08 -2.76023e-10)
(0.0958033 2.68821e-08 -2.81043e-10)
(0.0959899 2.7491e-08 -2.85772e-10)
(0.0961659 2.80638e-08 -2.90239e-10)
(0.0963323 2.86039e-08 -2.94468e-10)
(0.0984019 -1.90264e-08 9.99931e-11)
(0.0985069 -1.93615e-08 1.02032e-10)
(0.0986185 -1.97147e-08 1.04181e-10)
(0.0987378 -2.00873e-08 1.06449e-10)
(0.0988666 -2.04813e-08 1.08849e-10)
(0.0990081 -2.08992e-08 1.11397e-10)
(0.0991694 -2.13451e-08 1.14122e-10)
(0.0993687 -2.18281e-08 1.17088e-10)
(0.0996682 -2.23759e-08 1.20497e-10)
(0.100404 -2.31285e-08 1.25418e-10)
(0.106194 -2.56999e-08 1.46479e-10)
(0.102139 -2.40758e-08 1.3246e-10)
(0.100035 -2.27326e-08 1.22833e-10)
(0.0995177 -2.1995e-08 1.18161e-10)
(0.0992199 -2.13379e-08 1.14108e-10)
(0.0989795 -2.06937e-08 1.10167e-10)
(0.0987584 -2.00464e-08 1.06219e-10)
(0.0985441 -1.9391e-08 1.02227e-10)
(0.0983317 -1.87254e-08 9.81754e-11)
(0.0981187 -1.80488e-08 9.40585e-11)
(0.0979039 -1.73607e-08 8.98731e-11)
(0.0976867 -1.66611e-08 8.56177e-11)
(0.0974668 -1.59498e-08 8.12921e-11)
(0.0972438 -1.52269e-08 7.68964e-11)
(0.0970178 -1.44926e-08 7.24312e-11)
(0.0967885 -1.37469e-08 6.78974e-11)
(0.0965561 -1.29901e-08 6.3296e-11)
(0.0963206 -1.22224e-08 5.86283e-11)
(0.0951635 2.47957e-08 -2.64902e-10)
(0.0953899 2.55402e-08 -2.70606e-10)
(0.0956014 2.62344e-08 -2.75945e-10)
(0.0957996 2.68838e-08 -2.80958e-10)
(0.0959859 2.74931e-08 -2.8568e-10)
(0.0961615 2.80662e-08 -2.90138e-10)
(0.0963274 2.86066e-08 -2.94357e-10)
(0.090574 -1.76639e-08 5.32572e-11)
(0.0906757 -1.79525e-08 5.41438e-11)
(0.0907837 -1.82566e-08 5.50776e-11)
(0.0908992 -1.85773e-08 5.60623e-11)
(0.0910239 -1.89162e-08 5.71022e-11)
(0.0911609 -1.92753e-08 5.82028e-11)
(0.0913171 -1.96579e-08 5.93725e-11)
(0.0915101 -2.00705e-08 6.06278e-11)
(0.0918007 -2.05334e-08 6.20164e-11)
(0.0925167 -2.11502e-08 6.37768e-11)
(0.0979543 -2.31802e-08 6.84533e-11)
(0.0942004 -2.19032e-08 6.56712e-11)
(0.0921581 -2.08246e-08 6.28434e-11)
(0.0916552 -2.02086e-08 6.10268e-11)
(0.0913666 -1.96492e-08 5.93323e-11)
(0.0911337 -1.90972e-08 5.76463e-11)
(0.0909197 -1.85411e-08 5.59427e-11)
(0.0907123 -1.79774e-08 5.42132e-11)
(0.0905066 -1.74046e-08 5.24544e-11)
(0.0903005 -1.68221e-08 5.06651e-11)
(0.0900926 -1.62296e-08 4.88447e-11)
(0.0898824 -1.56271e-08 4.69931e-11)
(0.0896696 -1.50145e-08 4.51103e-11)
(0.0894538 -1.43919e-08 4.31967e-11)
(0.0892351 -1.37594e-08 4.12525e-11)
(0.0890132 -1.31172e-08 3.92783e-11)
(0.0887883 -1.24653e-08 3.72745e-11)
(0.0885604 -1.1804e-08 3.52417e-11)
(0.0874408 2.17071e-08 -7.87192e-11)
(0.0876599 2.23577e-08 -8.08044e-11)
(0.0878645 2.29642e-08 -8.27509e-11)
(0.0880563 2.35312e-08 -8.45736e-11)
(0.0882367 2.40628e-08 -8.62852e-11)
(0.0884066 2.45627e-08 -8.78968e-11)
(0.0885672 2.50337e-08 -8.94179e-11)
(0.09057 -1.76608e-08 5.32453e-11)
(0.0906705 -1.79486e-08 5.41286e-11)
(0.090777 -1.82514e-08 5.50578e-11)
(0.0908901 -1.85704e-08 5.60358e-11)
(0.0910112 -1.89067e-08 5.70654e-11)
(0.0911423 -1.92615e-08 5.81491e-11)
(0.0912877 -1.96363e-08 5.92885e-11)
(0.0914583 -2.00331e-08 6.04823e-11)
(0.0916908 -2.04562e-08 6.17173e-11)
(0.0921774 -2.09278e-08 6.29299e-11)
(0.0954485 -2.19965e-08 6.46026e-11)
(0.0931831 -2.13191e-08 6.35591e-11)
(0.0919322 -2.06717e-08 6.2256e-11)
(0.0915602 -2.01411e-08 6.07654e-11)
(0.0913141 -1.9611e-08 5.9184e-11)
(0.0911001 -1.90723e-08 5.75499e-11)
(0.0908961 -1.85234e-08 5.58744e-11)
(0.0906948 -1.79641e-08 5.41618e-11)
(0.090493 -1.73941e-08 5.24141e-11)
(0.0902895 -1.68136e-08 5.06324e-11)
(0.0900836 -1.62225e-08 4.88176e-11)
(0.0898749 -1.56211e-08 4.69701e-11)
(0.0896631 -1.50093e-08 4.50906e-11)
(0.0894482 -1.43874e-08 4.31795e-11)
(0.0892301 -1.37554e-08 4.12375e-11)
(0.0890089 -1.31136e-08 3.9265e-11)
(0.0887845 -1.24622e-08 3.72626e-11)
(0.0885569 -1.18012e-08 3.52311e-11)
(0.0874378 2.17027e-08 -7.86688e-11)
(0.0876565 2.23528e-08 -8.07488e-11)
(0.0878609 2.29588e-08 -8.26896e-11)
(0.0880523 2.35252e-08 -8.4506e-11)
(0.0882322 2.40563e-08 -8.62109e-11)
(0.0884017 2.45554e-08 -8.78151e-11)
(0.0885618 2.50258e-08 -8.93282e-11)
(0.0809065 -1.1345e-08 1.04431e-11)
(0.0810024 -1.15149e-08 1.05548e-11)
(0.0811038 -1.16938e-08 1.06713e-11)
(0.0812118 -1.18823e-08 1.0792e-11)
(0.0813274 -1.20811e-08 1.0916e-11)
(0.0814527 -1.22912e-08 1.10406e-11)
(0.0815921 -1.25135e-08 1.11591e-11)
(0.0817568 -1.275e-08 1.12527e-11)
(0.081986 -1.30052e-08 1.12528e-11)
(0.0825042 -1.33039e-08 1.07623e-11)
(0.087643 -1.42278e-08 2.50171e-12)
(0.0838083 -1.36001e-08 8.74435e-12)
(0.0822394 -1.31436e-08 1.09989e-11)
(0.0818599 -1.28188e-08 1.11715e-11)
(0.0816201 -1.25019e-08 1.10833e-11)
(0.0814144 -1.21821e-08 1.0923e-11)
(0.0812193 -1.18572e-08 1.07329e-11)
(0.081027 -1.15266e-08 1.05268e-11)
(0.0808346 -1.11899e-08 1.03103e-11)
(0.0806407 -1.08471e-08 1.00861e-11)
(0.0804445 -1.04982e-08 9.85555e-12)
(0.0802457 -1.01432e-08 9.61942e-12)
(0.080044 -9.78219e-09 9.37822e-12)
(0.0798393 -9.4152e-09 9.13228e-12)
(0.0796317 -9.04233e-09 8.88186e-12)
(0.079421 -8.66365e-09 8.62713e-12)
(0.0792073 -8.27929e-09 8.36827e-12)
(0.0789907 -7.88935e-09 8.10542e-12)
(0.0779255 1.31456e-08 3.9805e-11)
(0.0781338 1.3533e-08 3.99817e-11)
(0.0783283 1.3894e-08 4.01564e-11)
(0.0785106 1.42313e-08 4.03293e-11)
(0.0786819 1.45475e-08 4.05005e-11)
(0.0788434 1.48446e-08 4.067e-11)
(0.0789958 1.51245e-08 4.0838e-11)
(0.0743749 -4.49907e-09 3.11556e-11)
(0.074498 -4.55217e-09 3.14256e-11)
(0.0746279 -4.60814e-09 3.17073e-11)
(0.0747651 -4.66722e-09 3.20001e-11)
(0.0749106 -4.72972e-09 3.2302e-11)
(0.0750654 -4.79608e-09 3.26077e-11)
(0.0752319 -4.86703e-09 3.29039e-11)
(0.0754153 -4.94418e-09 3.31523e-11)
(0.0756326 -5.03253e-09 3.32154e-11)
(0.0759777 -5.15798e-09 3.23214e-11)
(0.0780285 -5.54934e-09 1.95245e-11)
(0.0765779 -5.3252e-09 2.87065e-11)
(0.0757982 -5.09253e-09 3.27417e-11)
(0.0754897 -4.97223e-09 3.30033e-11)
(0.0752369 -4.86703e-09 3.27456e-11)
(0.0749955 -4.76449e-09 3.23401e-11)
(0.0747554 -4.66172e-09 3.18725e-11)
(0.0745136 -4.55779e-09 3.13706e-11)
(0.0742686 -4.45231e-09 3.08459e-11)
(0.07402 -4.34512e-09 3.03039e-11)
(0.0737673 -4.23616e-09 2.97473e-11)
(0.0735106 -4.12538e-09 2.91779e-11)
(0.0732497 -4.01277e-09 2.85966e-11)
(0.0729847 -3.89834e-09 2.80041e-11)
(0.0727155 -3.78211e-09 2.7401e-11)
(0.0724422 -3.66409e-09 2.67877e-11)
(0.0721649 -3.54431e-09 2.61645e-11)
(0.0718836 -3.42281e-09 2.55319e-11)
(0.0704982 5.00715e-09 2.89334e-11)
(0.0707687 5.13647e-09 2.89391e-11)
(0.0710214 5.25695e-09 2.89528e-11)
(0.071258 5.36954e-09 2.89736e-11)
(0.0714803 5.47506e-09 2.90007e-11)
(0.0716897 5.57421e-09 2.90334e-11)
(0.0718874 5.66761e-09 2.9071e-11)
(0.0743752 -4.49687e-09 3.11751e-11)
(0.0744984 -4.54935e-09 3.14505e-11)
(0.0746284 -4.60445e-09 3.174e-11)
(0.0747658 -4.66224e-09 3.20442e-11)
(0.0749116 -4.72275e-09 3.23638e-11)
(0.0750669 -4.78583e-09 3.26988e-11)
(0.0752343 -4.85083e-09 3.30481e-11)
(0.0754195 -4.91571e-09 3.34063e-11)
(0.0756411 -4.97269e-09 3.37514e-11)
(0.0760005 -4.97928e-09 3.39415e-11)
(0.077987 -4.5154e-09 2.98706e-11)
(0.0766165 -4.82987e-09 3.33391e-11)
(0.0758145 -4.9717e-09 3.38307e-11)
(0.0754971 -4.92047e-09 3.34663e-11)
(0.075241 -4.83828e-09 3.30019e-11)
(0.0749981 -4.74609e-09 3.25038e-11)
(0.0747573 -4.64886e-09 3.19867e-11)
(0.0745149 -4.54823e-09 3.14553e-11)
(0.0742696 -4.44489e-09 3.09115e-11)
(0.0740208 -4.33917e-09 3.03564e-11)
(0.073768 -4.23126e-09 2.97905e-11)
(0.0735111 -4.12126e-09 2.9214e-11)
(0.0732502 -4.00925e-09 2.86274e-11)
(0.0729851 -3.89529e-09 2.80307e-11)
(0.0727158 -3.77943e-09 2.74243e-11)
(0.0724425 -3.66172e-09 2.68083e-11)
(0.0721651 -3.5422e-09 2.61829e-11)
(0.0718838 -3.42091e-09 2.55483e-11)
(0.0704983 5.0047e-09 2.89207e-11)
(0.0707689 5.13378e-09 2.89251e-11)
(0.0710216 5.25399e-09 2.89374e-11)
(0.0712582 5.36628e-09 2.89567e-11)
(0.0714806 5.47148e-09 2.8982e-11)
(0.07169 5.57027e-09 2.90128e-11)
(0.0718878 5.66328e-09 2.90484e-11)
(0.0678592 -8.48236e-10 1.02413e-10)
(0.0678793 -8.5439e-10 1.04099e-10)
(0.0679009 -8.6085e-10 1.05882e-10)
(0.0679241 -8.67614e-10 1.07771e-10)
(0.0679495 -8.74656e-10 1.09775e-10)
(0.0679778 -8.81896e-10 1.11906e-10)
(0.0680108 -8.8911e-10 1.14186e-10)
(0.0680532 -8.95633e-10 1.16652e-10)
(0.0681215 -8.98987e-10 1.19419e-10)
(0.0683109 -8.84596e-10 1.23101e-10)
(0.0704379 -5.73366e-10 1.39369e-10)
(0.0688461 -8.11308e-10 1.28009e-10)
(0.068215 -8.91407e-10 1.21156e-10)
(0.0680895 -8.93581e-10 1.17478e-10)
(0.0680244 -8.86224e-10 1.14139e-10)
(0.0679747 -8.76244e-10 1.10856e-10)
(0.0679305 -8.65188e-10 1.07568e-10)
(0.0678886 -8.5356e-10 1.04257e-10)
(0.0678476 -8.41568e-10 1.00915e-10)
(0.067807 -8.29309e-10 9.75412e-11)
(0.0677665 -8.16839e-10 9.41344e-11)
(0.0677259 -8.04191e-10 9.06953e-11)
(0.0676852 -7.91388e-10 8.7225e-11)
(0.0676443 -7.78445e-10 8.37248e-11)
(0.0676032 -7.65376e-10 8.01962e-11)
(0.0675618 -7.52194e-10 7.66411e-11)
(0.0675202 -7.38908e-10 7.30611e-11)
(0.0674783 -7.25528e-10 6.94583e-11)
(0.067278 1.03786e-09 -2.98113e-11)
(0.0673166 1.05575e-09 -3.29691e-11)
(0.067353 1.07263e-09 -3.59062e-11)
(0.0673873 1.08859e-09 -3.86452e-11)
(0.0674198 1.10373e-09 -4.12054e-11)
(0.0674506 1.11811e-09 -4.36038e-11)
(0.0674799 1.13181e-09 -4.58553e-11)
(0.180456 1.98354e-08 -4.03848e-10)
(0.180413 2.00318e-08 -4.04663e-10)
(0.180365 2.0238e-08 -4.05513e-10)
(0.18031 2.04547e-08 -4.06395e-10)
(0.180246 2.06826e-08 -4.07307e-10)
(0.180166 2.09229e-08 -4.08237e-10)
(0.180057 2.1177e-08 -4.0916e-10)
(0.179887 2.14482e-08 -4.10014e-10)
(0.179562 2.17456e-08 -4.10624e-10)
(0.17876 2.21039e-08 -4.10456e-10)
(0.176318 2.26787e-08 -4.07933e-10)
(0.177595 2.23943e-08 -4.09292e-10)
(0.179112 2.19083e-08 -4.10339e-10)
(0.179669 2.15228e-08 -4.09835e-10)
(0.179939 2.11554e-08 -4.08766e-10)
(0.180107 2.07874e-08 -4.07453e-10)
(0.180233 2.04134e-08 -4.06008e-10)
(0.180339 2.00316e-08 -4.04476e-10)
(0.180434 1.96412e-08 -4.02879e-10)
(0.180524 1.9242e-08 -4.01227e-10)
(0.180611 1.88338e-08 -3.99526e-10)
(0.180697 1.84164e-08 -3.97778e-10)
(0.180783 1.79899e-08 -3.95987e-10)
(0.180869 1.7554e-08 -3.94152e-10)
(0.180956 1.7109e-08 -3.92276e-10)
(0.181044 1.66546e-08 -3.90359e-10)
(0.181132 1.6191e-08 -3.88401e-10)
(0.181223 1.57182e-08 -3.86402e-10)
(0.181666 -1.11692e-08 -2.27408e-10)
(0.181578 -1.16206e-08 -2.25986e-10)
(0.181495 -1.20363e-08 -2.24805e-10)
(0.181418 -1.24204e-08 -2.23834e-10)
(0.181346 -1.27763e-08 -2.23048e-10)
(0.181277 -1.31072e-08 -2.22424e-10)
(0.181213 -1.34154e-08 -2.21943e-10)
(0.180449 1.98354e-08 -4.03787e-10)
(0.180404 2.00319e-08 -4.04586e-10)
(0.180354 2.02383e-08 -4.05414e-10)
(0.180296 2.04555e-08 -4.06266e-10)
(0.180227 2.06842e-08 -4.07133e-10)
(0.18014 2.09259e-08 -4.07995e-10)
(0.180022 2.11826e-08 -4.08809e-10)
(0.17984 2.14585e-08 -4.09483e-10)
(0.179517 2.1763e-08 -4.09805e-10)
(0.178852 2.2117e-08 -4.0935e-10)
(0.177477 2.25091e-08 -4.0798e-10)
(0.178086 2.23482e-08 -4.0846e-10)
(0.179129 2.19251e-08 -4.09283e-10)
(0.179621 2.15367e-08 -4.09065e-10)
(0.179892 2.11634e-08 -4.08222e-10)
(0.180069 2.07914e-08 -4.07055e-10)
(0.180203 2.04151e-08 -4.05705e-10)
(0.180315 2.00319e-08 -4.04238e-10)
(0.180415 1.96407e-08 -4.02686e-10)
(0.180508 1.9241e-08 -4.01066e-10)
(0.180598 1.88326e-08 -3.9939e-10)
(0.180686 1.84152e-08 -3.97662e-10)
(0.180773 1.79887e-08 -3.95886e-10)
(0.18086 1.7553e-08 -3.94064e-10)
(0.180948 1.71082e-08 -3.92199e-10)
(0.181037 1.66542e-08 -3.90291e-10)
(0.181126 1.6191e-08 -3.88342e-10)
(0.181217 1.57186e-08 -3.86351e-10)
(0.181661 -1.11702e-08 -2.27675e-10)
(0.181572 -1.16211e-08 -2.26284e-10)
(0.181489 -1.20363e-08 -2.25136e-10)
(0.181412 -1.24201e-08 -2.242e-10)
(0.181339 -1.27758e-08 -2.23451e-10)
(0.18127 -1.31064e-08 -2.22867e-10)
(0.181205 -1.34145e-08 -2.22431e-10)
(0.176959 1.80664e-08 -3.70361e-10)
(0.176919 1.82502e-08 -3.69727e-10)
(0.176875 1.84438e-08 -3.69078e-10)
(0.176827 1.86481e-08 -3.68422e-10)
(0.176774 1.88643e-08 -3.67775e-10)
(0.176711 1.90945e-08 -3.67172e-10)
(0.176633 1.93424e-08 -3.66684e-10)