/*--------------------------------*- C++ -*----------------------------------*\
  =========                 |
  \\      /  F ield         | OpenFOAM: The Open Source CFD Toolbox
   \\    /   O peration     | Website:  https://openfoam.org
    \\  /    A nd           | Version:  6
     \\/     M anipulation  |
\*---------------------------------------------------------------------------*/
FoamFile
{
    version     2.0;
    format      ascii;
    class       volScalarField;
    location    "80";
    object      k;
}
// * * * * * * * * * * * * * * * * * * * * * * * * * * * * * * * * * * * * * //

dimensions      [0 2 -2 0 0 0 0];

internalField   nonuniform List<scalar> 
1800
(
0.000214706
0.000214704
0.000214703
0.000465705
0.000465696
0.000465693
0.000532038
0.000532029
0.000532027
0.000582818
0.00058281
0.000582809
0.000625213
0.000625206
0.000625205
0.000661832
0.000661826
0.000661825
0.00069451
0.000694505
0.000694504
0.000724644
0.00072464
0.00072464
0.00075322
0.000753217
0.000753217
0.000780695
0.000780694
0.000780693
0.00080687
0.000806873
0.000806871
0.000830797
0.000830801
0.000830798
0.000850965
0.00085097
0.000850967
0.000865843
0.000865847
0.000865842
0.000874156
0.000874158
0.000874152
0.000874154
0.000874156
0.00087415
0.000865838
0.000865842
0.000865838
0.000850959
0.000850964
0.000850961
0.000830788
0.000830793
0.00083079
0.00080686
0.000806863
0.00080686
0.000780686
0.000780686
0.000780685
0.000753218
0.000753215
0.000753215
0.00072465
0.000724646
0.000724646
0.000694522
0.000694517
0.000694516
0.00066185
0.000661844
0.000661843
0.000625237
0.000625231
0.000625229
0.000582847
0.000582839
0.000582837
0.000532062
0.000532052
0.00053205
0.000465713
0.000465703
0.000465701
0.000214716
0.000214714
0.000214713
0.000286179
0.000286177
0.000286176
0.000808753
0.000808743
0.00080874
0.000898225
0.000898215
0.000898213
0.000966146
0.000966137
0.000966135
0.00102134
0.00102134
0.00102133
0.00106781
0.0010678
0.0010678
0.00110839
0.00110838
0.00110838
0.00114515
0.00114515
0.00114515
0.00117956
0.00117956
0.00117956
0.00121232
0.00121232
0.00121232
0.00124329
0.00124329
0.00124329
0.00127143
0.00127143
0.00127143
0.00129504
0.00129504
0.00129504
0.0013124
0.0013124
0.0013124
0.00132207
0.00132208
0.00132207
0.00132207
0.00132208
0.00132207
0.00131239
0.0013124
0.00131239
0.00129503
0.00129503
0.00129503
0.00127142
0.00127142
0.00127142
0.00124328
0.00124328
0.00124328
0.00121231
0.00121231
0.00121231
0.00117956
0.00117956
0.00117956
0.00114516
0.00114516
0.00114516
0.0011084
0.00110839
0.00110839
0.00106783
0.00106783
0.00106782
0.00102137
0.00102136
0.00102136
0.000966178
0.000966169
0.000966167
0.000898252
0.000898242
0.000898239
0.000808764
0.000808754
0.00080875
0.00028619
0.000286187
0.000286186
0.000332796
0.000332793
0.000332792
0.00089043
0.000890416
0.000890413
0.000970186
0.000970172
0.000970169
0.00103574
0.00103573
0.00103572
0.0010915
0.00109149
0.00109149
0.00113981
0.0011398
0.0011398
0.00118277
0.00118276
0.00118276
0.00122213
0.00122213
0.00122213
0.0012592
0.0012592
0.0012592
0.00129459
0.00129459
0.00129459
0.0013281
0.0013281
0.0013281
0.00135855
0.00135856
0.00135855
0.0013841
0.00138411
0.00138411
0.00140288
0.00140289
0.00140288
0.00141334
0.00141334
0.00141334
0.00141334
0.00141334
0.00141333
0.00140287
0.00140288
0.00140287
0.0013841
0.0013841
0.0013841
0.00135854
0.00135855
0.00135854
0.00132808
0.00132809
0.00132808
0.00129458
0.00129458
0.00129458
0.0012592
0.00125919
0.00125919
0.00122214
0.00122213
0.00122213
0.00118278
0.00118277
0.00118277
0.00113983
0.00113982
0.00113982
0.00109153
0.00109152
0.00109152
0.00103578
0.00103576
0.00103576
0.000970215
0.000970201
0.000970198
0.00089044
0.000890425
0.000890421
0.000332808
0.000332805
0.000332803
0.000382641
0.000382637
0.000382636
0.000939936
0.000939919
0.000939915
0.00100526
0.00100525
0.00100524
0.00106293
0.00106292
0.00106292
0.00111487
0.00111485
0.00111485
0.00116171
0.0011617
0.0011617
0.00120454
0.00120453
0.00120453
0.00124448
0.00124447
0.00124447
0.00128249
0.00128248
0.00128248
0.00131898
0.00131898
0.00131898
0.00135362
0.00135363
0.00135362
0.00138516
0.00138517
0.00138516
0.00141164
0.00141164
0.00141164
0.00143108
0.00143109
0.00143108
0.00144191
0.00144192
0.00144191
0.00144191
0.00144191
0.00144191
0.00143108
0.00143108
0.00143108
0.00141163
0.00141163
0.00141163
0.00138515
0.00138516
0.00138515
0.00135361
0.00135361
0.00135361
0.00131897
0.00131897
0.00131897
0.00128249
0.00128248
0.00128248
0.00124449
0.00124448
0.00124448
0.00120456
0.00120455
0.00120455
0.00116174
0.00116173
0.00116173
0.0011149
0.00111489
0.00111489
0.00106297
0.00106296
0.00106296
0.0010053
0.00100528
0.00100527
0.000939943
0.000939925
0.000939921
0.000382652
0.000382648
0.000382647
0.000435073
0.000435068
0.000435066
0.000977499
0.000977479
0.000977474
0.00102924
0.00102922
0.00102921
0.0010763
0.00107628
0.00107628
0.00112162
0.00112161
0.0011216
0.00116485
0.00116483
0.00116483
0.00120597
0.00120596
0.00120596
0.00124536
0.00124535
0.00124535
0.00128342
0.00128341
0.00128341
0.00132027
0.00132027
0.00132027
0.00135542
0.00135542
0.00135542
0.00138748
0.00138749
0.00138748
0.00141441
0.00141442
0.00141442
0.00143419
0.0014342
0.00143419
0.00144521
0.00144521
0.0014452
0.00144521
0.00144521
0.0014452
0.00143419
0.00143419
0.00143419
0.0014144
0.00141441
0.00141441
0.00138747
0.00138747
0.00138747
0.0013554
0.0013554
0.0013554
0.00132026
0.00132026
0.00132026
0.00128342
0.00128341
0.00128341
0.00124537
0.00124536
0.00124536
0.00120599
0.00120598
0.00120598
0.00116487
0.00116486
0.00116486
0.00112166
0.00112165
0.00112164
0.00107634
0.00107632
0.00107632
0.00102927
0.00102925
0.00102925
0.000977504
0.000977483
0.000977478
0.000435084
0.000435079
0.000435077
0.00048909
0.000489084
0.000489082
0.00100729
0.00100727
0.00100727
0.00104921
0.00104919
0.00104918
0.00108454
0.00108452
0.00108452
0.00112114
0.00112112
0.00112112
0.00115884
0.00115883
0.00115883
0.00119689
0.00119688
0.00119687
0.00123477
0.00123476
0.00123475
0.00127224
0.00127223
0.00127223
0.00130898
0.00130898
0.00130898
0.00134425
0.00134425
0.00134425
0.00137652
0.00137653
0.00137652
0.00140366
0.00140367
0.00140367
0.0014236
0.0014236
0.00142359
0.00143469
0.0014347
0.00143468
0.00143469
0.00143469
0.00143468
0.00142359
0.0014236
0.00142359
0.00140365
0.00140366
0.00140366
0.00137651
0.00137652
0.00137651
0.00134423
0.00134423
0.00134423
0.00130897
0.00130897
0.00130897
0.00127224
0.00127223
0.00127223
0.00123478
0.00123477
0.00123477
0.00119691
0.0011969
0.0011969
0.00115888
0.00115886
0.00115886
0.00112118
0.00112116
0.00112116
0.00108459
0.00108457
0.00108457
0.00104925
0.00104922
0.00104922
0.0010073
0.00100727
0.00100727
0.0004891
0.000489094
0.000489092
0.00054328
0.000543273
0.000543271
0.00102959
0.00102957
0.00102956
0.0010671
0.00106707
0.00106707
0.00109104
0.00109102
0.00109101
0.00111736
0.00111734
0.00111733
0.00114773
0.00114771
0.00114771
0.00118124
0.00118122
0.00118122
0.00121662
0.00121661
0.00121661
0.00125287
0.00125287
0.00125287
0.0012891
0.0012891
0.0012891
0.00132421
0.00132421
0.00132421
0.00135648
0.00135649
0.00135648
0.00138366
0.00138367
0.00138367
0.00140363
0.00140364
0.00140363
0.00141475
0.00141475
0.00141474
0.00141474
0.00141475
0.00141473
0.00140362
0.00140363
0.00140362
0.00138365
0.00138366
0.00138366
0.00135647
0.00135648
0.00135647
0.00132419
0.00132419
0.00132419
0.00128909
0.00128909
0.00128909
0.00125288
0.00125287
0.00125287
0.00121664
0.00121663
0.00121663
0.00118126
0.00118125
0.00118125
0.00114777
0.00114775
0.00114775
0.00111741
0.00111739
0.00111738
0.0010911
0.00109107
0.00109107
0.00106713
0.00106711
0.0010671
0.00102959
0.00102957
0.00102956
0.000543289
0.000543282
0.00054328
0.000595905
0.000595897
0.000595895
0.0010436
0.00104357
0.00104356
0.00108263
0.0010826
0.0010826
0.00109693
0.00109691
0.0010969
0.00111216
0.00111213
0.00111213
0.00113352
0.00113351
0.0011335
0.00116091
0.0011609
0.0011609
0.00119266
0.00119264
0.00119264
0.00122696
0.00122696
0.00122696
0.00126224
0.00126224
0.00126224
0.00129692
0.00129693
0.00129692
0.00132901
0.00132902
0.00132902
0.00135611
0.00135612
0.00135611
0.00137602
0.00137603
0.00137602
0.0013871
0.00138711
0.00138709
0.0013871
0.0013871
0.00138709
0.00137601
0.00137602
0.00137601
0.0013561
0.00135611
0.0013561
0.001329
0.00132901
0.001329
0.0012969
0.00129691
0.0012969
0.00126223
0.00126223
0.00126222
0.00122697
0.00122696
0.00122696
0.00119268
0.00119266
0.00119266
0.00116094
0.00116093
0.00116092
0.00113357
0.00113355
0.00113355
0.00111221
0.00111219
0.00111219
0.00109699
0.00109697
0.00109696
0.00108267
0.00108264
0.00108264
0.0010436
0.00104357
0.00104356
0.000595913
0.000595905
0.000595902
0.000645138
0.00064513
0.000645127
0.00104847
0.00104844
0.00104844
0.00109437
0.00109434
0.00109433
0.00110203
0.001102
0.001102
0.00110632
0.0011063
0.00110629
0.00111735
0.00111733
0.00111733
0.00113695
0.00113693
0.00113693
0.00116369
0.00116368
0.00116368
0.00119515
0.00119514
0.00119514
0.00122895
0.00122895
0.00122894
0.0012629
0.0012629
0.0012629
0.00129463
0.00129464
0.00129463
0.00132151
0.00132152
0.00132151
0.00134128
0.00134129
0.00134128
0.00135229
0.0013523
0.00135228
0.00135229
0.00135229
0.00135228
0.00134127
0.00134128
0.00134127
0.0013215
0.00132151
0.0013215
0.00129461
0.00129462
0.00129461
0.00126287
0.00126288
0.00126287
0.00122893
0.00122893
0.00122893
0.00119516
0.00119515
0.00119515
0.00116372
0.0011637
0.0011637
0.00113699
0.00113697
0.00113697
0.0011174
0.00111738
0.00111738
0.00110639
0.00110636
0.00110636
0.0011021
0.00110207
0.00110206
0.00109441
0.00109438
0.00109437
0.00104847
0.00104844
0.00104843
0.000645146
0.000645137
0.000645133
0.000689428
0.000689419
0.000689415
0.00104387
0.00104384
0.00104383
0.0011002
0.00110017
0.00110016
0.00110515
0.00110512
0.00110511
0.00109979
0.00109977
0.00109976
0.00109975
0.00109973
0.00109973
0.00110998
0.00110996
0.00110996
0.00113016
0.00113015
0.00113015
0.00115764
0.00115763
0.00115763
0.00118925
0.00118925
0.00118924
0.00122207
0.00122208
0.00122207
0.00125322
0.00125323
0.00125322
0.00127975
0.00127977
0.00127976
0.0012993
0.00129931
0.00129929
0.0013102
0.0013102
0.00131018
0.00131019
0.00131019
0.00131017
0.00129929
0.0012993
0.00129928
0.00127974
0.00127975
0.00127974
0.0012532
0.00125321
0.0012532
0.00122205
0.00122206
0.00122205
0.00118924
0.00118923
0.00118923
0.00115764
0.00115763
0.00115763
0.00113019
0.00113017
0.00113017
0.00111002
0.00111001
0.00111
0.00109981
0.00109979
0.00109979
0.00109987
0.00109984
0.00109984
0.00110522
0.00110519
0.00110518
0.00110025
0.00110021
0.0011002
0.00104386
0.00104383
0.00104382
0.000689435
0.000689425
0.000689421
0.00072788
0.00072787
0.000727867
0.00103018
0.00103015
0.00103014
0.00109785
0.00109782
0.00109781
0.00110426
0.00110423
0.00110422
0.00109168
0.00109165
0.00109165
0.00108076
0.00108074
0.00108073
0.00108036
0.00108034
0.00108034
0.00109231
0.0010923
0.00109229
0.0011144
0.00111439
0.00111439
0.00114291
0.0011429
0.0011429
0.00117407
0.00117407
0.00117406
0.00120432
0.00120433
0.00120432
0.00123034
0.00123035
0.00123034
0.00124956
0.00124956
0.00124955
0.00126028
0.00126028
0.00126026
0.00126028
0.00126028
0.00126026
0.00124955
0.00124955
0.00124954
0.00123033
0.00123034
0.00123033
0.00120431
0.00120432
0.00120431
0.00117404
0.00117405
0.00117404
0.00114289
0.00114288
0.00114288
0.00111441
0.0011144
0.0011144
0.00109234
0.00109233
0.00109233
0.00108041
0.00108039
0.00108039
0.00108083
0.00108081
0.0010808
0.00109177
0.00109174
0.00109174
0.00110434
0.00110431
0.0011043
0.0010979
0.00109786
0.00109785
0.00103017
0.00103014
0.00103013
0.000727887
0.000727876
0.000727872
0.000760492
0.000760482
0.000760478
0.00100864
0.00100861
0.0010086
0.00108531
0.00108528
0.00108527
0.00109675
0.00109672
0.00109671
0.00108027
0.00108024
0.00108023
0.00105974
0.00105972
0.00105972
0.00104814
0.00104812
0.00104812
0.00105031
0.00105029
0.00105029
0.00106539
0.00106538
0.00106538
0.00108956
0.00108956
0.00108955
0.00111831
0.00111831
0.0011183
0.00114725
0.00114726
0.00114725
0.0011725
0.00117251
0.0011725
0.00119125
0.00119126
0.00119124
0.00120174
0.00120174
0.00120172
0.00120174
0.00120173
0.00120171
0.00119124
0.00119125
0.00119123
0.00117249
0.0011725
0.00117249
0.00114723
0.00114724
0.00114723
0.00111828
0.00111828
0.00111827
0.00108955
0.00108954
0.00108954
0.0010654
0.00106538
0.00106538
0.00105035
0.00105033
0.00105033
0.00104821
0.00104819
0.00104818
0.00105983
0.00105981
0.0010598
0.00108037
0.00108034
0.00108033
0.00109684
0.00109681
0.0010968
0.00108536
0.00108533
0.00108532
0.00100864
0.00100861
0.0010086
0.000760499
0.000760489
0.000760484
0.000788101
0.000788092
0.000788088
0.000981271
0.000981239
0.000981231
0.00106136
0.00106132
0.00106131
0.00107978
0.00107975
0.00107974
0.00106305
0.00106303
0.00106302
0.00103534
0.00103532
0.00103531
0.00101297
0.00101295
0.00101294
0.00100424
0.00100423
0.00100422
0.0010106
0.00101058
0.00101058
0.0010289
0.00102889
0.00102889
0.00105416
0.00105416
0.00105416
0.00108116
0.00108117
0.00108116
0.0011053
0.00110531
0.0011053
0.00112339
0.0011234
0.00112338
0.00113355
0.00113355
0.00113352
0.00113355
0.00113354
0.00113352
0.00112338
0.00112339
0.00112337
0.00110529
0.0011053
0.00110528
0.00108114
0.00108115
0.00108114
0.00105413
0.00105414
0.00105413
0.00102888
0.00102888
0.00102887
0.00101061
0.0010106
0.0010106
0.00100429
0.00100427
0.00100427
0.00101304
0.00101302
0.00101302
0.00103544
0.00103542
0.00103541
0.00106317
0.00106314
0.00106313
0.00107988
0.00107985
0.00107984
0.00106141
0.00106138
0.00106136
0.000981269
0.000981236
0.000981226
0.00078811
0.0007881
0.000788096
0.00081204
0.000812031
0.000812026
0.000950604
0.000950573
0.000950564
0.00102588
0.00102585
0.00102584
0.00105082
0.00105079
0.00105078
0.00103703
0.001037
0.00103699
0.0010054
0.00100538
0.00100537
0.000973934
0.000973915
0.000973912
0.000954086
0.000954072
0.000954071
0.000950203
0.000950192
0.000950192
0.000960811
0.000960804
0.000960801
0.000981125
0.000981124
0.000981115
0.00100524
0.00100524
0.00100523
0.00102773
0.00102774
0.00102772
0.00104488
0.00104488
0.00104486
0.00105458
0.00105457
0.00105454
0.00105457
0.00105457
0.00105454
0.00104487
0.00104487
0.00104485
0.00102772
0.00102772
0.00102771
0.00100522
0.00100522
0.00100521
0.000981095
0.000981095
0.000981086
0.000960796
0.000960789
0.000960787
0.00095022
0.00095021
0.000950209
0.000954146
0.000954131
0.00095413
0.000974027
0.000974008
0.000974005
0.00100552
0.0010055
0.00100549
0.00103715
0.00103713
0.00103712
0.00105093
0.00105089
0.00105088
0.00102594
0.0010259
0.00102589
0.000950605
0.000950573
0.000950563
0.000812051
0.000812042
0.000812037
0.000833632
0.000833624
0.00083362
0.000919361
0.000919331
0.000919322
0.000980063
0.000980029
0.000980018
0.00100822
0.00100819
0.00100818
0.000999168
0.00099914
0.000999133
0.00096722
0.000967197
0.000967193
0.000929594
0.000929576
0.000929574
0.000899691
0.000899678
0.000899677
0.000884709
0.0008847
0.0008847
0.000885693
0.000885687
0.000885684
0.000899108
0.000899106
0.000899097
0.000918929
0.00091893
0.000918917
0.000938942
0.000938945
0.000938928
0.000954712
0.000954711
0.000954688
0.000963767
0.00096376
0.000963731
0.000963764
0.000963757
0.000963729
0.000954704
0.000954702
0.000954679
0.000938928
0.000938931
0.000938914
0.000918907
0.000918909
0.000918895
0.000899078
0.000899075
0.000899066
0.000885682
0.000885675
0.000885673
0.000884735
0.000884726
0.000884726
0.000899765
0.000899753
0.000899752
0.000929706
0.000929689
0.000929686
0.000967354
0.000967332
0.000967326
0.000999306
0.000999278
0.000999269
0.00100833
0.0010083
0.00100829
0.000980127
0.000980091
0.000980079
0.000919366
0.000919335
0.000919325
0.000833647
0.000833638
0.000833633
0.000853764
0.000853756
0.000853753
0.000890118
0.00089009
0.000890082
0.000926335
0.000926303
0.000926292
0.000951848
0.000951818
0.000951808
0.00094725
0.000947224
0.000947217
0.000918149
0.000918129
0.000918124
0.00087828
0.000878265
0.000878263
0.000840944
0.000840934
0.000840933
0.000815212
0.000815205
0.000815205
0.000804939
0.000804934
0.000804931
0.000809053
0.000809049
0.000809041
0.000822534
0.000822532
0.000822518
0.000838773
0.000838772
0.000838754
0.000852498
0.000852492
0.000852469
0.00086063
0.00086062
0.000860592
0.000860628
0.000860618
0.00086059
0.00085249
0.000852485
0.000852461
0.00083876
0.000838758
0.00083874
0.000822512
0.00082251
0.000822496
0.000809024
0.00080902
0.000809011
0.000804933
0.000804928
0.000804926
0.000815251
0.000815245
0.000815244
0.000841039
0.000841029
0.000841028
0.000878415
0.0008784
0.000878397
0.000918304
0.000918284
0.000918278
0.000947403
0.000947377
0.000947368
0.000951972
0.000951941
0.00095193
0.000926405
0.000926371
0.000926359
0.000890128
0.000890099
0.000890089
0.000853782
0.000853774
0.00085377
0.00087265
0.000872644
0.000872641
0.000865157
0.000865131
0.000865124
0.000868293
0.000868263
0.000868254
0.000883684
0.000883657
0.000883648
0.000881072
0.000881049
0.000881042
0.000856893
0.000856876
0.000856872
0.000819102
0.00081909
0.000819088
0.000778412
0.000778405
0.000778405
0.000743941
0.000743938
0.000743938
0.000721731
0.000721728
0.000721726
0.00071403
0.000714025
0.000714018
0.000718431
0.000718427
0.000718413
0.000728964
0.000728958
0.00072894
0.000739618
0.00073961
0.000739586
0.000746419
0.000746407
0.000746379
0.000746418
0.000746406
0.000746378
0.000739613
0.000739605
0.000739581
0.000728951
0.000728945
0.000728927
0.000718409
0.000718404
0.00071839
0.000714003
0.000713999
0.000713992
0.000721736
0.000721733
0.000721731
0.000744001
0.000743998
0.000743998
0.000778534
0.000778527
0.000778527
0.000819263
0.000819251
0.00081925
0.000857071
0.000857054
0.000857049
0.000881242
0.000881219
0.000881211
0.000883819
0.00088379
0.00088378
0.000868368
0.000868337
0.000868327
0.000865169
0.000865143
0.000865134
0.000872671
0.000872664
0.000872661
0.00088979
0.000889784
0.000889782
0.000846384
0.000846361
0.000846355
0.0008109
0.000810874
0.000810866
0.000808759
0.000808734
0.000808727
0.000804283
0.000804264
0.000804258
0.000785757
0.000785743
0.000785741
0.000753963
0.000753956
0.000753955
0.000714753
0.00071475
0.000714751
0.00067518
0.000675181
0.000675182
0.000642071
0.00064207
0.00064207
0.000620905
0.000620901
0.000620895
0.000613337
0.000613331
0.000613318
0.000615722
0.000615714
0.000615695
0.000621933
0.000621922
0.0006219
0.000626862
0.000626847
0.000626822
0.000626863
0.000626848
0.000626823
0.000621931
0.000621919
0.000621897
0.000615709
0.000615701
0.000615683
0.000613315
0.000613309
0.000613295
0.000620886
0.000620883
0.000620877
0.000642094
0.000642095
0.000642094
0.000675271
0.000675272
0.000675274
0.000714909
0.000714906
0.000714907
0.000754157
0.00075415
0.000754149
0.000785962
0.000785948
0.000785945
0.000804472
0.000804453
0.000804446
0.000808905
0.000808879
0.000808871
0.00081098
0.000810952
0.000810942
0.000846396
0.000846373
0.000846365
0.000889812
0.000889806
0.000889803
0.000903939
0.000903934
0.000903932
0.000834946
0.000834926
0.000834921
0.000761199
0.000761176
0.00076117
0.000737116
0.000737094
0.000737089
0.000727396
0.00072738
0.000727377
0.000714122
0.000714113
0.000714112
0.000690674
0.00069067
0.000690671
0.000656878
0.00065688
0.000656882
0.000616369
0.000616374
0.000616376
0.000575396
0.000575399
0.000575399
0.000541635
0.000541633
0.000541629
0.000520998
0.000520991
0.000520979
0.000513589
0.000513578
0.00051356
0.000514267
0.000514253
0.000514232
0.000516892
0.000516875
0.000516852
0.000516895
0.000516878
0.000516855
0.000514268
0.000514254
0.000514232
0.000513578
0.000513567
0.000513549
0.000520976
0.00052097
0.000520957
0.000541631
0.000541629
0.000541624
0.000575447
0.000575451
0.000575451
0.000616498
0.000616503
0.000616505
0.000657073
0.000657075
0.000657078
0.000690905
0.000690901
0.000690902
0.000714358
0.000714348
0.000714347
0.000727607
0.00072759
0.000727586
0.000737271
0.000737249
0.000737242
0.000761278
0.000761253
0.000761246
0.000834954
0.000834933
0.000834927
0.000903962
0.000903956
0.000903954
0.000912879
0.000912875
0.000912873
0.000830283
0.000830265
0.00083026
0.000729345
0.000729325
0.000729319
0.000687144
0.000687125
0.000687121
0.000671984
0.000671969
0.000671968
0.000662354
0.000662345
0.000662346
0.000645997
0.000645997
0.000645999
0.000617928
0.000617932
0.000617935
0.000578837
0.000578845
0.000578847
0.000534045
0.000534051
0.000534051
0.000492206
0.000492204
0.000492201
0.000462019
0.000462012
0.000461999
0.00044682
0.000446807
0.000446789
0.000442909
0.000442892
0.00044287
0.000443617
0.000443598
0.000443575
0.000443621
0.000443602
0.000443579
0.000442912
0.000442895
0.000442873
0.000446809
0.000446796
0.000446778
0.000461999
0.000461992
0.000461979
0.000492216
0.000492214
0.000492211
0.000534121
0.000534127
0.000534128
0.000578998
0.000579005
0.000579008
0.000618155
0.00061816
0.000618163
0.000646258
0.000646258
0.000646259
0.000662614
0.000662605
0.000662606
0.000672211
0.000672196
0.000672194
0.000687305
0.000687285
0.00068728
0.00072942
0.000729398
0.000729392
0.000830285
0.000830266
0.000830261
0.000912901
0.000912896
0.000912894
)
;

boundaryField
{
    freeSurface
    {
        type            slip;
    }
    inlet
    {
        type            cyclic;
    }
    outlet
    {
        type            cyclic;
    }
    sidewalls
    {
        type            kqRWallFunction;
        value           nonuniform List<scalar> 
120
(
0.000214706
0.000286179
0.000332796
0.000382641
0.000435073
0.00048909
0.00054328
0.000595905
0.000645138
0.000689428
0.00072788
0.000760492
0.000788101
0.00081204
0.000833632
0.000853764
0.00087265
0.00088979
0.000903939
0.000912879
0.000214704
0.000286177
0.000332793
0.000382637
0.000435068
0.000489084
0.000543273
0.000595897
0.00064513
0.000689419
0.00072787
0.000760482
0.000788092
0.000812031
0.000833624
0.000853756
0.000872644
0.000889784
0.000903934
0.000912875
0.000214703
0.000286176
0.000332792
0.000382636
0.000435066
0.000489082
0.000543271
0.000595895
0.000645127
0.000689415
0.000727867
0.000760478
0.000788088
0.000812026
0.00083362
0.000853753
0.000872641
0.000889782
0.000903932
0.000912873
0.000214716
0.00028619
0.000332808
0.000382652
0.000435084
0.0004891
0.000543289
0.000595913
0.000645146
0.000689435
0.000727887
0.000760499
0.00078811
0.000812051
0.000833647
0.000853782
0.000872671
0.000889812
0.000903962
0.000912901
0.000214714
0.000286187
0.000332805
0.000382648
0.000435079
0.000489094
0.000543282
0.000595905
0.000645137
0.000689425
0.000727876
0.000760489
0.0007881
0.000812042
0.000833638
0.000853774
0.000872664
0.000889806
0.000903956
0.000912896
0.000214713
0.000286186
0.000332803
0.000382647
0.000435077
0.000489092
0.00054328
0.000595902
0.000645133
0.000689421
0.000727872
0.000760484
0.000788096
0.000812037
0.000833633
0.00085377
0.000872661
0.000889803
0.000903954
0.000912894
)
;
    }
    noSlipWalls
    {
        type            kqRWallFunction;
        value           nonuniform List<scalar> 
90
(
0.000214706
0.000465705
0.000532038
0.000582818
0.000625213
0.000661832
0.00069451
0.000724644
0.00075322
0.000780695
0.00080687
0.000830797
0.000850965
0.000865843
0.000874156
0.000874154
0.000865838
0.000850959
0.000830788
0.00080686
0.000780686
0.000753218
0.00072465
0.000694522
0.00066185
0.000625237
0.000582847
0.000532062
0.000465713
0.000214716
0.000214704
0.000465696
0.000532029
0.00058281
0.000625206
0.000661826
0.000694505
0.00072464
0.000753217
0.000780694
0.000806873
0.000830801
0.00085097
0.000865847
0.000874158
0.000874156
0.000865842
0.000850964
0.000830793
0.000806863
0.000780686
0.000753215
0.000724646
0.000694517
0.000661844
0.000625231
0.000582839
0.000532052
0.000465703
0.000214714
0.000214703
0.000465693
0.000532027
0.000582809
0.000625205
0.000661825
0.000694504
0.00072464
0.000753217
0.000780693
0.000806871
0.000830798
0.000850967
0.000865842
0.000874152
0.00087415
0.000865838
0.000850961
0.00083079
0.00080686
0.000780685
0.000753215
0.000724646
0.000694516
0.000661843
0.000625229
0.000582837
0.00053205
0.000465701
0.000214713
)
;
    }
}


// ************************************************************************* //
