/*--------------------------------*- C++ -*----------------------------------*\
  =========                 |
  \\      /  F ield         | OpenFOAM: The Open Source CFD Toolbox
   \\    /   O peration     | Website:  https://openfoam.org
    \\  /    A nd           | Version:  6
     \\/     M anipulation  |
\*---------------------------------------------------------------------------*/
FoamFile
{
    version     2.0;
    format      ascii;
    class       volScalarField;
    location    "80";
    object      nut;
}
// * * * * * * * * * * * * * * * * * * * * * * * * * * * * * * * * * * * * * //

dimensions      [0 2 -1 0 0 0 0];

internalField   nonuniform List<scalar> 
1800
(
4.04471e-06
4.04467e-06
4.04466e-06
4.90628e-06
4.90618e-06
4.90616e-06
5.60516e-06
5.60506e-06
5.60504e-06
6.14017e-06
6.14009e-06
6.14007e-06
6.58684e-06
6.58677e-06
6.58675e-06
6.97264e-06
6.97258e-06
6.97257e-06
7.31693e-06
7.31687e-06
7.31687e-06
7.63441e-06
7.63436e-06
7.63436e-06
7.93547e-06
7.93544e-06
7.93544e-06
8.22494e-06
8.22494e-06
8.22493e-06
8.50072e-06
8.50075e-06
8.50073e-06
8.7528e-06
8.75285e-06
8.75282e-06
8.9653e-06
8.96535e-06
8.96532e-06
9.12203e-06
9.12207e-06
9.12203e-06
9.20959e-06
9.20962e-06
9.20956e-06
9.20958e-06
9.20961e-06
9.20954e-06
9.12198e-06
9.12203e-06
9.12198e-06
8.96523e-06
8.96528e-06
8.96525e-06
8.75272e-06
8.75276e-06
8.75274e-06
8.50061e-06
8.50064e-06
8.50061e-06
8.22485e-06
8.22485e-06
8.22484e-06
7.93545e-06
7.93543e-06
7.93543e-06
7.63447e-06
7.63443e-06
7.63443e-06
7.31706e-06
7.317e-06
7.31699e-06
6.97283e-06
6.97277e-06
6.97276e-06
6.5871e-06
6.58702e-06
6.58701e-06
6.14047e-06
6.14038e-06
6.14036e-06
5.6054e-06
5.60529e-06
5.60527e-06
4.90636e-06
4.90625e-06
4.90623e-06
4.04488e-06
4.04484e-06
4.04482e-06
2.20376e-05
2.20375e-05
2.20374e-05
1.79541e-05
1.79538e-05
1.79537e-05
1.89116e-05
1.89112e-05
1.89112e-05
1.95656e-05
1.95654e-05
1.95653e-05
2.01414e-05
2.01412e-05
2.01411e-05
2.06751e-05
2.06749e-05
2.06749e-05
2.11807e-05
2.11805e-05
2.11805e-05
2.16671e-05
2.1667e-05
2.1667e-05
2.214e-05
2.21399e-05
2.21399e-05
2.25997e-05
2.25997e-05
2.25997e-05
2.30389e-05
2.3039e-05
2.30389e-05
2.34397e-05
2.34399e-05
2.34398e-05
2.37762e-05
2.37764e-05
2.37763e-05
2.40231e-05
2.40232e-05
2.40231e-05
2.41604e-05
2.41605e-05
2.41604e-05
2.41604e-05
2.41605e-05
2.41603e-05
2.4023e-05
2.40231e-05
2.4023e-05
2.37761e-05
2.37762e-05
2.37762e-05
2.34396e-05
2.34397e-05
2.34396e-05
2.30387e-05
2.30388e-05
2.30387e-05
2.25996e-05
2.25996e-05
2.25996e-05
2.214e-05
2.214e-05
2.214e-05
2.16673e-05
2.16672e-05
2.16672e-05
2.1181e-05
2.11808e-05
2.11808e-05
2.06755e-05
2.06753e-05
2.06753e-05
2.0142e-05
2.01418e-05
2.01417e-05
1.95663e-05
1.9566e-05
1.9566e-05
1.8912e-05
1.89117e-05
1.89116e-05
1.7954e-05
1.79537e-05
1.79536e-05
2.2038e-05
2.20378e-05
2.20378e-05
2.37648e-05
2.37647e-05
2.37646e-05
2.90788e-05
2.90781e-05
2.90779e-05
3.00524e-05
3.00518e-05
3.00516e-05
3.05384e-05
3.05379e-05
3.05378e-05
3.10469e-05
3.10465e-05
3.10464e-05
3.16127e-05
3.16123e-05
3.16123e-05
3.22196e-05
3.22193e-05
3.22192e-05
3.28506e-05
3.28503e-05
3.28503e-05
3.34924e-05
3.34922e-05
3.34922e-05
3.41313e-05
3.41313e-05
3.41313e-05
3.47489e-05
3.47491e-05
3.4749e-05
3.53155e-05
3.53158e-05
3.53157e-05
3.57917e-05
3.57919e-05
3.57918e-05
3.61404e-05
3.61407e-05
3.61405e-05
3.63343e-05
3.63345e-05
3.63342e-05
3.63342e-05
3.63344e-05
3.63341e-05
3.61403e-05
3.61405e-05
3.61404e-05
3.57914e-05
3.57917e-05
3.57916e-05
3.53152e-05
3.53155e-05
3.53154e-05
3.47485e-05
3.47487e-05
3.47486e-05
3.41311e-05
3.41311e-05
3.4131e-05
3.34924e-05
3.34923e-05
3.34923e-05
3.2851e-05
3.28507e-05
3.28507e-05
3.22201e-05
3.22198e-05
3.22198e-05
3.16134e-05
3.16131e-05
3.1613e-05
3.10481e-05
3.10476e-05
3.10475e-05
3.05397e-05
3.05391e-05
3.0539e-05
3.00533e-05
3.00526e-05
3.00524e-05
2.90784e-05
2.90777e-05
2.90775e-05
2.37651e-05
2.3765e-05
2.3765e-05
2.54823e-05
2.54822e-05
2.54821e-05
4.10121e-05
4.10109e-05
4.10107e-05
4.23918e-05
4.23906e-05
4.23904e-05
4.25789e-05
4.2578e-05
4.25778e-05
4.28256e-05
4.28249e-05
4.28248e-05
4.32732e-05
4.32726e-05
4.32725e-05
4.38868e-05
4.38862e-05
4.38862e-05
4.46114e-05
4.4611e-05
4.4611e-05
4.53999e-05
4.53997e-05
4.53997e-05
4.6213e-05
4.6213e-05
4.62129e-05
4.7013e-05
4.70133e-05
4.70132e-05
4.77533e-05
4.77537e-05
4.77536e-05
4.83772e-05
4.83776e-05
4.83775e-05
4.88342e-05
4.88346e-05
4.88343e-05
4.90881e-05
4.90883e-05
4.90879e-05
4.9088e-05
4.90882e-05
4.90878e-05
4.88339e-05
4.88343e-05
4.88341e-05
4.83769e-05
4.83773e-05
4.83772e-05
4.77529e-05
4.77533e-05
4.77532e-05
4.70124e-05
4.70127e-05
4.70126e-05
4.62126e-05
4.62126e-05
4.62126e-05
4.54001e-05
4.53999e-05
4.53999e-05
4.4612e-05
4.46116e-05
4.46116e-05
4.38877e-05
4.38871e-05
4.38871e-05
4.32745e-05
4.32738e-05
4.32738e-05
4.28275e-05
4.28267e-05
4.28266e-05
4.25811e-05
4.25801e-05
4.25799e-05
4.2393e-05
4.23918e-05
4.23916e-05
4.10113e-05
4.10101e-05
4.10098e-05
2.54827e-05
2.54825e-05
2.54825e-05
2.71721e-05
2.7172e-05
2.71719e-05
5.37447e-05
5.3743e-05
5.37427e-05
5.63955e-05
5.63937e-05
5.63934e-05
5.63355e-05
5.6334e-05
5.63337e-05
5.61369e-05
5.61357e-05
5.61356e-05
5.62794e-05
5.62785e-05
5.62784e-05
5.67694e-05
5.67686e-05
5.67686e-05
5.75149e-05
5.75143e-05
5.75143e-05
5.84197e-05
5.84193e-05
5.84193e-05
5.94027e-05
5.94027e-05
5.94026e-05
6.0395e-05
6.03955e-05
6.03952e-05
6.13247e-05
6.13253e-05
6.13251e-05
6.21118e-05
6.21125e-05
6.21123e-05
6.26888e-05
6.26894e-05
6.2689e-05
6.30093e-05
6.30097e-05
6.30091e-05
6.30092e-05
6.30096e-05
6.3009e-05
6.26884e-05
6.2689e-05
6.26886e-05
6.21114e-05
6.2112e-05
6.21118e-05
6.13241e-05
6.13247e-05
6.13245e-05
6.03941e-05
6.03946e-05
6.03944e-05
5.94021e-05
5.94022e-05
5.9402e-05
5.842e-05
5.84197e-05
5.84197e-05
5.75159e-05
5.75153e-05
5.75152e-05
5.67709e-05
5.677e-05
5.677e-05
5.62815e-05
5.62805e-05
5.62804e-05
5.61398e-05
5.61386e-05
5.61384e-05
5.63387e-05
5.63372e-05
5.63369e-05
5.63972e-05
5.63954e-05
5.6395e-05
5.37433e-05
5.37415e-05
5.37412e-05
2.71724e-05
2.71722e-05
2.71722e-05
2.88095e-05
2.88093e-05
2.88093e-05
6.6917e-05
6.69147e-05
6.69142e-05
7.21393e-05
7.21367e-05
7.21362e-05
7.21685e-05
7.21663e-05
7.21659e-05
7.14046e-05
7.14029e-05
7.14026e-05
7.10213e-05
7.102e-05
7.10198e-05
7.12054e-05
7.12042e-05
7.12041e-05
7.18587e-05
7.18578e-05
7.18578e-05
7.28261e-05
7.28256e-05
7.28256e-05
7.39652e-05
7.39652e-05
7.3965e-05
7.51587e-05
7.51594e-05
7.5159e-05
7.62966e-05
7.62975e-05
7.62971e-05
7.72667e-05
7.72677e-05
7.72674e-05
7.7979e-05
7.79799e-05
7.79793e-05
7.83749e-05
7.83755e-05
7.83746e-05
7.83747e-05
7.83753e-05
7.83744e-05
7.79785e-05
7.79794e-05
7.79788e-05
7.72661e-05
7.72671e-05
7.72668e-05
7.62957e-05
7.62967e-05
7.62963e-05
7.51575e-05
7.51582e-05
7.51578e-05
7.39645e-05
7.39645e-05
7.39643e-05
7.28266e-05
7.28261e-05
7.28261e-05
7.18601e-05
7.18592e-05
7.18592e-05
7.12075e-05
7.12063e-05
7.12062e-05
7.10245e-05
7.10231e-05
7.10229e-05
7.14089e-05
7.14072e-05
7.14069e-05
7.21732e-05
7.2171e-05
7.21705e-05
7.21416e-05
7.21389e-05
7.21383e-05
6.69148e-05
6.69125e-05
6.69119e-05
2.88098e-05
2.88096e-05
2.88095e-05
3.03635e-05
3.03633e-05
3.03633e-05
7.9995e-05
7.9992e-05
7.99914e-05
8.94293e-05
8.94257e-05
8.9425e-05
9.02611e-05
9.0258e-05
9.02574e-05
8.89661e-05
8.89636e-05
8.89632e-05
8.78332e-05
8.78312e-05
8.7831e-05
8.74707e-05
8.7469e-05
8.74689e-05
8.78615e-05
8.78603e-05
8.78603e-05
8.87995e-05
8.87988e-05
8.87988e-05
9.00607e-05
9.00607e-05
9.00605e-05
9.14567e-05
9.14577e-05
9.14572e-05
9.2821e-05
9.28223e-05
9.28218e-05
9.39961e-05
9.39975e-05
9.3997e-05
9.48614e-05
9.48627e-05
9.48619e-05
9.53429e-05
9.53438e-05
9.53425e-05
9.53427e-05
9.53435e-05
9.53422e-05
9.48607e-05
9.4862e-05
9.48611e-05
9.39952e-05
9.39966e-05
9.39962e-05
9.28199e-05
9.28212e-05
9.28207e-05
9.1455e-05
9.14561e-05
9.14555e-05
9.00597e-05
9.00598e-05
9.00595e-05
8.88002e-05
8.87995e-05
8.87995e-05
8.78637e-05
8.78625e-05
8.78624e-05
8.74739e-05
8.74722e-05
8.74721e-05
8.78379e-05
8.78359e-05
8.78356e-05
8.89724e-05
8.897e-05
8.89695e-05
9.02677e-05
9.02646e-05
9.02638e-05
8.94321e-05
8.94284e-05
8.94276e-05
7.99919e-05
7.99889e-05
7.99882e-05
3.03637e-05
3.03635e-05
3.03635e-05
3.18001e-05
3.17999e-05
3.17998e-05
9.23388e-05
9.23352e-05
9.23344e-05
0.000107826
0.000107821
0.00010782
0.000110586
0.000110582
0.000110581
0.000109062
0.000109059
0.000109058
0.000107018
0.000107015
0.000107015
0.000105821
0.000105819
0.000105819
0.000105708
0.000105706
0.000105706
0.000106467
0.000106466
0.000106466
0.000107782
0.000107782
0.000107782
0.000109366
0.000109367
0.000109366
0.000110969
0.000110971
0.00011097
0.000112371
0.000112373
0.000112372
0.000113408
0.00011341
0.000113409
0.000113986
0.000113988
0.000113986
0.000113986
0.000113987
0.000113986
0.000113407
0.000113409
0.000113408
0.000112369
0.000112371
0.000112371
0.000110968
0.000110969
0.000110969
0.000109363
0.000109365
0.000109364
0.000107781
0.000107781
0.000107781
0.000106468
0.000106467
0.000106467
0.000105711
0.000105709
0.000105709
0.000105826
0.000105824
0.000105824
0.000107025
0.000107022
0.000107022
0.000109071
0.000109068
0.000109067
0.000110595
0.000110591
0.00011059
0.000107829
0.000107824
0.000107823
9.23348e-05
9.2331e-05
9.23301e-05
3.18002e-05
3.18e-05
3.17999e-05
3.30876e-05
3.30874e-05
3.30873e-05
0.000103268
0.000103264
0.000103263
0.000126674
0.000126668
0.000126666
0.000132853
0.000132848
0.000132846
0.000131773
0.000131768
0.000131767
0.000128822
0.000128818
0.000128818
0.000126495
0.000126492
0.000126492
0.000125559
0.000125557
0.000125557
0.000125913
0.000125912
0.000125912
0.000127159
0.000127159
0.000127159
0.000128885
0.000128887
0.000128886
0.000130728
0.00013073
0.000130729
0.000132373
0.000132376
0.000132375
0.000133601
0.000133603
0.000133602
0.000134288
0.00013429
0.000134287
0.000134288
0.000134289
0.000134287
0.0001336
0.000133602
0.0001336
0.000132371
0.000132374
0.000132373
0.000130726
0.000130728
0.000130727
0.000128882
0.000128884
0.000128883
0.000127157
0.000127158
0.000127157
0.000125914
0.000125913
0.000125913
0.000125564
0.000125561
0.000125561
0.000126502
0.000126499
0.000126499
0.000128832
0.000128828
0.000128827
0.000131786
0.000131781
0.00013178
0.000132865
0.000132859
0.000132858
0.000126677
0.000126671
0.00012667
0.000103263
0.000103258
0.000103257
3.30878e-05
3.30875e-05
3.30874e-05
3.42045e-05
3.42043e-05
3.42042e-05
0.000112149
0.000112144
0.000112143
0.000145153
0.000145146
0.000145144
0.000156475
0.000156468
0.000156466
0.000156932
0.000156926
0.000156924
0.000153369
0.000153364
0.000153363
0.000149691
0.000149687
0.000149686
0.00014755
0.000147547
0.000147547
0.000147175
0.000147173
0.000147173
0.00014815
0.000148151
0.00014815
0.000149925
0.000149927
0.000149926
0.000151981
0.000151984
0.000151983
0.000153877
0.00015388
0.000153879
0.00015531
0.000155314
0.000155312
0.000156118
0.00015612
0.000156117
0.000156118
0.00015612
0.000156117
0.000155309
0.000155312
0.00015531
0.000153875
0.000153879
0.000153877
0.000151978
0.000151981
0.00015198
0.000149921
0.000149923
0.000149922
0.000148148
0.000148148
0.000148148
0.000147177
0.000147175
0.000147175
0.000147556
0.000147553
0.000147553
0.000149701
0.000149697
0.000149696
0.000153383
0.000153378
0.000153377
0.000156949
0.000156943
0.000156941
0.00015649
0.000156482
0.00015648
0.000145157
0.00014515
0.000145148
0.000112143
0.000112138
0.000112137
3.42046e-05
3.42044e-05
3.42043e-05
3.51455e-05
3.51452e-05
3.51451e-05
0.000118507
0.000118502
0.0001185
0.000162342
0.000162333
0.000162331
0.000180578
0.000180568
0.000180566
0.000184044
0.000184035
0.000184034
0.00018057
0.000180563
0.000180562
0.000175513
0.000175508
0.000175507
0.000171775
0.000171771
0.000171771
0.00017024
0.000170238
0.000170238
0.000170634
0.000170634
0.000170633
0.000172284
0.000172287
0.000172285
0.000174483
0.000174488
0.000174486
0.000176616
0.000176621
0.000176619
0.000178263
0.000178267
0.000178264
0.000179201
0.000179204
0.000179199
0.0001792
0.000179203
0.000179198
0.000178261
0.000178265
0.000178262
0.000176614
0.000176618
0.000176616
0.00017448
0.000174484
0.000174482
0.000172278
0.000172282
0.00017228
0.000170631
0.000170631
0.00017063
0.000170243
0.000170241
0.000170241
0.000171785
0.000171781
0.00017178
0.000175528
0.000175523
0.000175522
0.00018059
0.000180583
0.000180582
0.000184066
0.000184058
0.000184056
0.000180595
0.000180586
0.000180583
0.000162346
0.000162337
0.000162335
0.0001185
0.000118495
0.000118493
3.51456e-05
3.51453e-05
3.51452e-05
3.59242e-05
3.5924e-05
3.59239e-05
0.000122114
0.000122108
0.000122106
0.000177281
0.00017727
0.000177268
0.000204047
0.000204035
0.000204032
0.000212238
0.000212227
0.000212224
0.000210014
0.000210004
0.000210003
0.0002039
0.000203893
0.000203892
0.000198261
0.000198256
0.000198256
0.000195045
0.000195042
0.000195042
0.0001944
0.0001944
0.000194399
0.000195634
0.000195638
0.000195635
0.000197832
0.000197838
0.000197835
0.000200149
0.000200156
0.000200153
0.000202001
0.000202006
0.000202002
0.000203074
0.000203077
0.000203071
0.000203073
0.000203076
0.00020307
0.000201999
0.000202004
0.000202
0.000200146
0.000200152
0.000200149
0.000197828
0.000197834
0.000197831
0.000195627
0.000195631
0.000195629
0.000194396
0.000194396
0.000194395
0.000195049
0.000195047
0.000195047
0.000198275
0.00019827
0.000198269
0.000203921
0.000203914
0.000203913
0.000210041
0.000210032
0.00021003
0.000212267
0.000212256
0.000212253
0.000204068
0.000204056
0.000204053
0.000177286
0.000177275
0.000177272
0.000122107
0.000122101
0.000122099
3.59243e-05
3.5924e-05
3.59239e-05
3.65706e-05
3.65704e-05
3.65703e-05
0.000123027
0.000123021
0.000123019
0.000189039
0.000189027
0.000189024
0.000225605
0.00022559
0.000225587
0.000240283
0.000240269
0.000240266
0.00024088
0.000240868
0.000240866
0.000234515
0.000234505
0.000234504
0.000226923
0.000226916
0.000226915
0.000221474
0.00022147
0.00022147
0.000219165
0.000219164
0.000219163
0.000219516
0.00021952
0.000219517
0.000221446
0.000221453
0.000221449
0.000223828
0.000223835
0.000223831
0.000225846
0.000225852
0.000225847
0.000227049
0.000227053
0.000227045
0.000227048
0.000227052
0.000227044
0.000225843
0.00022585
0.000225844
0.000223824
0.000223831
0.000223827
0.00022144
0.000221447
0.000221443
0.000219507
0.000219512
0.000219508
0.00021916
0.00021916
0.000219159
0.00022148
0.000221477
0.000221477
0.000226943
0.000226937
0.000226935
0.000234546
0.000234536
0.000234534
0.000240917
0.000240905
0.000240903
0.00024032
0.000240306
0.000240303
0.00022563
0.000225616
0.000225612
0.000189044
0.000189032
0.000189028
0.00012302
0.000123014
0.000123012
3.65707e-05
3.65705e-05
3.65704e-05
3.7122e-05
3.71217e-05
3.71216e-05
0.000121549
0.000121542
0.000121541
0.000196774
0.00019676
0.000196757
0.000243884
0.000243868
0.000243864
0.000266668
0.000266651
0.000266647
0.000271926
0.00027191
0.000271907
0.000266663
0.00026665
0.000266648
0.000257511
0.000257502
0.000257501
0.000249381
0.000249376
0.000249375
0.000244614
0.000244613
0.000244612
0.000243371
0.000243375
0.000243371
0.000244571
0.000244578
0.000244573
0.000246783
0.000246791
0.000246785
0.000248878
0.000248885
0.000248877
0.00025019
0.000250193
0.000250183
0.000250189
0.000250192
0.000250182
0.000248875
0.000248881
0.000248873
0.000246778
0.000246786
0.00024678
0.000244563
0.000244571
0.000244566
0.00024336
0.000243364
0.00024336
0.000244609
0.000244609
0.000244607
0.000249392
0.000249387
0.000249387
0.000257541
0.000257533
0.000257531
0.000266707
0.000266694
0.000266692
0.000271976
0.00027196
0.000271957
0.000266715
0.000266697
0.000266693
0.000243915
0.000243898
0.000243893
0.00019678
0.000196767
0.000196763
0.000121542
0.000121536
0.000121533
3.71221e-05
3.71219e-05
3.71218e-05
3.76124e-05
3.76122e-05
3.76121e-05
0.000118146
0.00011814
0.000118138
0.000199808
0.000199794
0.00019979
0.000257509
0.00025749
0.000257485
0.000289724
0.000289704
0.0002897
0.000301569
0.000301549
0.000301546
0.000299271
0.000299255
0.000299253
0.000289584
0.000289573
0.000289571
0.000278647
0.000278641
0.000278639
0.000270526
0.000270524
0.000270523
0.00026666
0.000266663
0.000266658
0.000266367
0.000266374
0.000266367
0.000267985
0.000267993
0.000267985
0.000269976
0.000269981
0.000269971
0.000271342
0.000271345
0.000271332
0.000271341
0.000271344
0.000271331
0.000269972
0.000269978
0.000269967
0.000267979
0.000267987
0.000267979
0.000266357
0.000266364
0.000266357
0.000266645
0.000266649
0.000266643
0.000270522
0.000270521
0.000270519
0.000278665
0.00027866
0.000278659
0.000289629
0.000289618
0.000289616
0.000299333
0.000299316
0.000299314
0.000301635
0.000301615
0.000301612
0.000289782
0.000289762
0.000289757
0.000257545
0.000257525
0.00025752
0.000199816
0.000199802
0.000199797
0.00011814
0.000118134
0.000118132
3.76126e-05
3.76124e-05
3.76123e-05
3.8064e-05
3.80638e-05
3.80637e-05
0.000113393
0.000113387
0.000113385
0.000197758
0.000197744
0.00019774
0.000265201
0.00026518
0.000265175
0.000307805
0.000307781
0.000307776
0.000328115
0.000328091
0.000328088
0.000331027
0.000331006
0.000331003
0.000322559
0.000322543
0.000322542
0.000309297
0.000309289
0.000309287
0.000297016
0.000297013
0.000297011
0.000289153
0.000289155
0.000289149
0.000286174
0.000286179
0.00028617
0.000286468
0.000286474
0.000286463
0.00028802
0.000288024
0.00028801
0.000289335
0.000289336
0.00028932
0.000289334
0.000289335
0.000289319
0.000288016
0.00028802
0.000288006
0.00028646
0.000286466
0.000286456
0.000286161
0.000286166
0.000286158
0.000289136
0.000289138
0.000289132
0.000297017
0.000297014
0.000297012
0.000309331
0.000309323
0.000309321
0.000322627
0.000322611
0.00032261
0.000331113
0.000331092
0.00033109
0.000328203
0.000328178
0.000328175
0.000307877
0.000307852
0.000307847
0.000265243
0.000265222
0.000265216
0.000197769
0.000197754
0.00019775
0.000113389
0.000113383
0.000113381
3.80643e-05
3.80641e-05
3.8064e-05
3.84828e-05
3.84826e-05
3.84826e-05
0.000107957
0.000107952
0.00010795
0.00019078
0.000190766
0.000190762
0.00026602
0.000265998
0.000265992
0.000319556
0.000319529
0.000319524
0.000350132
0.000350104
0.0003501
0.000360718
0.000360691
0.000360689
0.000355895
0.000355874
0.000355873
0.000341675
0.000341662
0.000341661
0.000324917
0.000324911
0.000324908
0.00031151
0.000311509
0.000311502
0.00030414
0.000304142
0.000304131
0.000301943
0.000301947
0.000301933
0.000302489
0.00030249
0.000302473
0.000303563
0.00030356
0.00030354
0.000303562
0.000303559
0.00030354
0.000302485
0.000302487
0.000302469
0.000301934
0.000301938
0.000301924
0.000304124
0.000304126
0.000304115
0.000311491
0.00031149
0.000311484
0.000324929
0.000324924
0.000324921
0.000341735
0.000341722
0.000341722
0.000355999
0.000355977
0.000355976
0.000360839
0.000360812
0.00036081
0.000350247
0.000350218
0.000350214
0.000319645
0.000319617
0.000319612
0.000266069
0.000266047
0.000266041
0.000190794
0.000190779
0.000190775
0.000107955
0.000107949
0.000107947
3.84832e-05
3.8483e-05
3.84829e-05
3.8859e-05
3.88588e-05
3.88588e-05
0.000102608
0.000102603
0.000102602
0.000179969
0.000179956
0.000179953
0.000259917
0.000259894
0.000259889
0.000324414
0.000324383
0.000324379
0.000366956
0.000366922
0.000366919
0.000387659
0.000387624
0.000387624
0.000389223
0.000389191
0.000389192
0.000376332
0.000376309
0.00037631
0.000355896
0.000355882
0.000355881
0.000335933
0.000335926
0.000335919
0.000322299
0.000322296
0.000322282
0.000316064
0.000316062
0.000316044
0.00031478
0.000314775
0.000314754
0.000315326
0.000315316
0.000315293
0.000315327
0.000315316
0.000315293
0.000314778
0.000314773
0.000314752
0.000316053
0.000316051
0.000316033
0.00032228
0.000322276
0.000322263
0.000335918
0.000335912
0.000335904
0.000355935
0.000355922
0.000355921
0.000376437
0.000376414
0.000376416
0.000389378
0.000389346
0.000389347
0.000387828
0.000387792
0.000387792
0.000367107
0.000367072
0.000367069
0.000324524
0.000324492
0.000324487
0.000259975
0.000259951
0.000259946
0.000179986
0.000179972
0.000179968
0.000102607
0.000102602
0.0001026
3.88594e-05
3.88593e-05
3.88592e-05
3.91668e-05
3.91667e-05
3.91666e-05
9.81872e-05
9.81834e-05
9.81821e-05
0.000167872
0.000167861
0.000167858
0.000248866
0.000248842
0.000248839
0.00032343
0.000323394
0.000323391
0.000378966
0.000378923
0.000378922
0.000411371
0.000411324
0.000411326
0.000421314
0.00042127
0.000421272
0.000412237
0.000412197
0.0004122
0.000390439
0.000390408
0.000390408
0.000364933
0.000364909
0.000364903
0.000344535
0.000344517
0.0003445
0.000333259
0.000333242
0.000333219
0.000329474
0.000329453
0.000329427
0.000329243
0.000329218
0.00032919
0.000329246
0.000329221
0.000329193
0.000329474
0.000329453
0.000329428
0.000333247
0.00033323
0.000333207
0.000344514
0.000344495
0.000344479
0.000364932
0.000364908
0.000364901
0.000390528
0.000390497
0.000390497
0.000412407
0.000412367
0.00041237
0.000421537
0.000421492
0.000421494
0.0004116
0.000411552
0.000411553
0.00037916
0.000379116
0.000379114
0.000323562
0.000323525
0.000323522
0.000248931
0.000248906
0.000248902
0.00016789
0.000167879
0.000167875
9.81864e-05
9.81826e-05
9.81812e-05
3.91672e-05
3.91671e-05
3.9167e-05
3.936e-05
3.93599e-05
3.93599e-05
9.55284e-05
9.55252e-05
9.55242e-05
0.00015886
0.000158851
0.000158848
0.000238531
0.000238508
0.000238505
0.000320108
0.000320067
0.000320066
0.000386272
0.000386218
0.000386218
0.000428407
0.000428348
0.00042835
0.000445559
0.000445498
0.000445501
0.000440753
0.000440694
0.000440697
0.000419976
0.000419922
0.000419922
0.000392335
0.000392286
0.00039228
0.00036802
0.000367977
0.000367957
0.000353266
0.000353225
0.000353196
0.000347605
0.000347562
0.000347528
0.000346794
0.000346747
0.000346711
0.0003468
0.000346753
0.000346717
0.00034761
0.000347566
0.000347532
0.000353253
0.000353212
0.000353183
0.000367999
0.000367957
0.000367937
0.000392351
0.000392302
0.000392296
0.000420118
0.000420066
0.000420066
0.000440983
0.000440924
0.000440927
0.000445842
0.000445781
0.000445783
0.000428687
0.000428627
0.000428628
0.0003865
0.000386445
0.000386445
0.000320256
0.000320214
0.000320211
0.0002386
0.000238575
0.000238572
0.000158878
0.000158868
0.000158865
9.55276e-05
9.55243e-05
9.55231e-05
3.93604e-05
3.93603e-05
3.93603e-05
)
;

boundaryField
{
    freeSurface
    {
        type            slip;
    }
    inlet
    {
        type            cyclic;
    }
    outlet
    {
        type            cyclic;
    }
    sidewalls
    {
        type            nutkWallFunction;
        Cmu             0.09;
        kappa           0.41;
        E               9.8;
        value           nonuniform List<scalar> 
120
(
2.11749e-06
2.51665e-06
2.74715e-06
2.97425e-06
3.19578e-06
3.4088e-06
3.60956e-06
3.79401e-06
3.95846e-06
4.10046e-06
4.21964e-06
4.31798e-06
4.39941e-06
4.46872e-06
4.53026e-06
4.58683e-06
4.63924e-06
4.68624e-06
4.72467e-06
4.74877e-06
2.11748e-06
2.51664e-06
2.74714e-06
2.97423e-06
3.19577e-06
3.40878e-06
3.60954e-06
3.79399e-06
3.95843e-06
4.10043e-06
4.21961e-06
4.31796e-06
4.39938e-06
4.46869e-06
4.53023e-06
4.58681e-06
4.63922e-06
4.68623e-06
4.72465e-06
4.74876e-06
2.11747e-06
2.51663e-06
2.74713e-06
2.97423e-06
3.19576e-06
3.40877e-06
3.60953e-06
3.79398e-06
3.95842e-06
4.10042e-06
4.2196e-06
4.31794e-06
4.39937e-06
4.46868e-06
4.53022e-06
4.5868e-06
4.63921e-06
4.68622e-06
4.72465e-06
4.74875e-06
2.11755e-06
2.51671e-06
2.74721e-06
2.9743e-06
3.19583e-06
3.40884e-06
3.6096e-06
3.79404e-06
3.95848e-06
4.10048e-06
4.21966e-06
4.31801e-06
4.39943e-06
4.46875e-06
4.5303e-06
4.58688e-06
4.63929e-06
4.6863e-06
4.72473e-06
4.74883e-06
2.11754e-06
2.51669e-06
2.74719e-06
2.97428e-06
3.19581e-06
3.40881e-06
3.60957e-06
3.79402e-06
3.95845e-06
4.10045e-06
4.21963e-06
4.31798e-06
4.3994e-06
4.46872e-06
4.53027e-06
4.58686e-06
4.63927e-06
4.68629e-06
4.72471e-06
4.74882e-06
2.11753e-06
2.51669e-06
2.74718e-06
2.97428e-06
3.1958e-06
3.40881e-06
3.60956e-06
3.79401e-06
3.95844e-06
4.10044e-06
4.21962e-06
4.31796e-06
4.39939e-06
4.46871e-06
4.53026e-06
4.58685e-06
4.63926e-06
4.68628e-06
4.72471e-06
4.74881e-06
)
;
    }
    noSlipWalls
    {
        type            nutkWallFunction;
        Cmu             0.09;
        kappa           0.41;
        E               9.8;
        value           uniform 0;
    }
}


// ************************************************************************* //
