/*--------------------------------*- C++ -*----------------------------------*\
  =========                 |
  \\      /  F ield         | OpenFOAM: The Open Source CFD Toolbox
   \\    /   O peration     | Website:  https://openfoam.org
    \\  /    A nd           | Version:  6
     \\/     M anipulation  |
\*---------------------------------------------------------------------------*/
FoamFile
{
    version     2.0;
    format      ascii;
    class       surfaceScalarField;
    location    "80";
    object      phi;
}
// * * * * * * * * * * * * * * * * * * * * * * * * * * * * * * * * * * * * * //

dimensions      [0 3 -1 0 0 0 0];

internalField   nonuniform List<scalar> 
4650
(
1.09347e-06
-3.27392e-13
-8.84982e-13
1.09347e-06
-7.50126e-14
2.33738e-12
4.96582e-13
-1.54659e-12
1.72583e-06
-1.28413e-12
-1.58921e-12
1.72582e-06
3.2707e-12
4.81053e-12
-1.80212e-12
-3.31158e-12
2.29432e-06
-2.25526e-12
-2.00808e-12
2.29431e-06
6.59156e-12
6.1562e-12
-4.12117e-12
-4.1788e-12
2.89124e-06
-2.72458e-12
-2.51359e-12
2.89123e-06
8.80477e-12
7.49627e-12
-5.86885e-12
-4.97889e-12
3.55883e-06
-2.44237e-12
-2.82961e-12
3.55882e-06
9.95005e-12
8.32321e-12
-7.3095e-12
-5.48043e-12
4.32313e-06
-1.45353e-12
-2.87581e-12
4.32312e-06
1.01172e-11
9.10549e-12
-8.47801e-12
-6.2172e-12
5.20949e-06
3.84714e-14
-2.78695e-12
5.20948e-06
9.28297e-12
9.79971e-12
-9.14216e-12
-7.00634e-12
6.24616e-06
2.00488e-12
-2.69363e-12
6.24616e-06
7.35596e-12
9.50306e-12
-9.19993e-12
-6.79107e-12
7.46532e-06
4.61565e-12
-3.44284e-12
7.46532e-06
3.65127e-12
8.84402e-12
-8.11131e-12
-5.39588e-12
8.9022e-06
6.58751e-12
-5.12005e-12
8.9022e-06
1.88063e-13
5.89465e-12
-6.63079e-12
-7.63767e-13
1.05924e-05
6.54386e-12
-8.46043e-12
1.05924e-05
-1.50348e-12
1.23784e-12
-4.90231e-12
7.2293e-12
1.25673e-05
5.81177e-12
-1.23775e-11
1.25673e-05
-2.79111e-12
-1.19531e-12
-2.8714e-12
1.35616e-11
1.48511e-05
4.85787e-12
-1.76643e-11
1.48511e-05
-3.95297e-12
-3.66707e-13
-7.65638e-13
1.8041e-11
1.7461e-05
3.04981e-12
-2.80662e-11
1.7461e-05
-3.28251e-12
9.67072e-12
3.49194e-13
1.84182e-11
2.04071e-05
8.16194e-14
-4.06612e-11
2.0407e-05
-8.54024e-14
2.69079e-11
9.31452e-14
1.37804e-11
2.04071e-05
-2.89075e-12
-4.07483e-11
2.0407e-05
3.10658e-12
2.70129e-11
-1.59289e-13
1.37683e-11
1.74609e-05
-4.67453e-12
-2.82421e-11
1.74609e-05
3.78776e-12
9.78991e-12
9.57402e-13
1.84381e-11
1.48511e-05
-5.61189e-12
-1.77453e-11
1.48511e-05
2.63442e-12
-4.00459e-13
3.06059e-12
1.81333e-11
1.25673e-05
-6.39071e-12
-1.23348e-11
1.25673e-05
1.31341e-12
-1.32689e-12
5.14786e-12
1.36743e-11
1.05923e-05
-6.48048e-12
-8.4483e-12
1.05923e-05
-4.2076e-13
9.17824e-13
6.95482e-12
7.54746e-12
8.90213e-06
-4.48708e-12
-5.04541e-12
8.90213e-06
-3.93189e-12
5.7524e-12
8.45644e-12
-6.9088e-13
7.4653e-06
-1.81342e-12
-3.43343e-12
7.46529e-06
-7.74807e-12
8.63972e-12
9.58877e-12
-5.19611e-12
6.24619e-06
2.8807e-13
-2.78626e-12
6.24618e-06
-9.9508e-12
9.75562e-12
9.68415e-12
-6.96348e-12
5.20956e-06
1.9023e-12
-2.9623e-12
5.20955e-06
-1.07192e-11
9.99675e-12
8.83452e-12
-7.03067e-12
4.32322e-06
2.93589e-12
-3.10544e-12
4.32321e-06
-1.05382e-11
9.40334e-12
7.61738e-12
-6.29528e-12
3.55892e-06
3.19991e-12
-3.06696e-12
3.55891e-06
-9.42318e-12
8.63955e-12
6.23615e-12
-5.57044e-12
2.89134e-06
2.66467e-12
-2.7366e-12
2.89133e-06
-7.18533e-12
7.82582e-12
4.5317e-12
-5.08739e-12
2.2944e-06
1.58034e-12
-2.17158e-12
2.29439e-06
-3.67398e-12
6.47764e-12
2.10188e-12
-4.30325e-12
1.72587e-06
4.39347e-13
-1.67763e-12
1.72586e-06
-7.93979e-14
5.09005e-12
-3.55825e-13
-3.40831e-12
1.0935e-06
-8.56983e-13
1.0935e-06
2.3645e-12
-1.5034e-12
1.50837e-06
-3.84885e-13
-1.96656e-12
1.50837e-06
-5.5698e-14
4.95311e-12
6.33114e-13
-3.27327e-12
2.41676e-06
-1.67081e-12
-3.19469e-12
2.41675e-06
4.15988e-12
8.67805e-12
-2.20628e-12
-5.66389e-12
3.1811e-06
-2.98388e-12
-4.12863e-12
3.18109e-06
8.64078e-12
1.11932e-11
-5.35338e-12
-7.11598e-12
3.9831e-06
-3.61155e-12
-5.34194e-12
3.98309e-06
1.15871e-11
1.44622e-11
-7.68502e-12
-9.10354e-12
4.87789e-06
-3.24985e-12
-6.15537e-12
4.87788e-06
1.31584e-11
1.65391e-11
-9.64059e-12
-1.0348e-11
5.90015e-06
-1.95329e-12
-6.36895e-12
5.90014e-06
1.34278e-11
1.84739e-11
-1.12257e-11
-1.20733e-11
7.08332e-06
2.97788e-14
-6.27146e-12
7.08332e-06
1.23608e-11
2.01625e-11
-1.21531e-11
-1.38732e-11
8.46447e-06
2.62538e-12
-6.1789e-12
8.46446e-06
9.6444e-12
2.00198e-11
-1.20472e-11
-1.38077e-11
1.00856e-05
6.05727e-12
-7.90865e-12
1.00856e-05
4.77455e-12
1.91143e-11
-1.06211e-11
-1.11885e-11
1.19926e-05
8.6333e-12
-1.12063e-11
1.19926e-05
2.05618e-13
1.30216e-11
-8.64706e-12
-1.78558e-12
1.42325e-05
8.60534e-12
-1.80472e-11
1.42325e-05
-1.99872e-12
3.51558e-12
-6.42412e-12
1.45477e-11
1.68476e-05
7.6545e-12
-2.66492e-11
1.68476e-05
-3.693e-12
-9.95464e-13
-3.76598e-12
2.76205e-11
1.98723e-05
6.4235e-12
-3.82812e-11
1.98723e-05
-5.18902e-12
1.25024e-12
-1.05005e-12
3.7052e-11
2.33335e-05
4.04621e-12
-6.00626e-11
2.33334e-05
-4.27865e-12
2.22761e-11
3.88144e-13
3.78381e-11
2.72505e-05
1.13459e-13
-8.62998e-11
2.72505e-05
-1.19713e-13
5.78002e-11
1.29103e-13
2.85596e-11
2.72505e-05
-3.82169e-12
-8.64847e-11
2.72504e-05
4.03385e-12
5.80213e-11
-1.26294e-13
2.85333e-11
2.33334e-05
-6.17579e-12
-6.04198e-11
2.33334e-05
4.94385e-12
2.25406e-11
1.32808e-12
3.78548e-11
1.98722e-05
-7.39264e-12
-3.84503e-11
1.98722e-05
3.45684e-12
1.1853e-12
4.04406e-12
3.72404e-11
1.68475e-05
-8.38894e-12
-2.65785e-11
1.68475e-05
1.70736e-12
-1.23508e-12
6.77382e-12
2.78421e-11
1.42324e-05
-8.47166e-12
-1.8027e-11
1.42324e-05
-5.53157e-13
2.8991e-12
9.09417e-12
1.51678e-11
1.19926e-05
-5.88469e-12
-1.1063e-11
1.19926e-05
-5.2267e-12
1.28118e-11
1.11597e-11
-1.71163e-12
1.00855e-05
-2.36523e-12
-7.9024e-12
1.00855e-05
-1.0262e-11
1.87458e-11
1.2663e-11
-1.08207e-11
8.4645e-06
4.08556e-13
-6.39275e-12
8.46449e-06
-1.31596e-11
2.04236e-11
1.27795e-11
-1.40176e-11
7.0834e-06
2.55531e-12
-6.66184e-12
7.08339e-06
-1.41967e-11
2.06154e-11
1.16651e-11
-1.39451e-11
5.90025e-06
3.91425e-12
-6.87203e-12
5.90024e-06
-1.39465e-11
1.91393e-11
1.00526e-11
-1.22613e-11
4.87801e-06
4.25386e-12
-6.6672e-12
4.878e-06
-1.24294e-11
1.72272e-11
8.19309e-12
-1.05551e-11
3.98322e-06
3.54558e-12
-5.80554e-12
3.98321e-06
-9.45889e-12
1.51376e-11
5.92846e-12
-9.32777e-12
3.18119e-06
2.09338e-12
-4.445e-12
3.18118e-06
-4.76363e-12
1.18104e-11
2.68171e-12
-7.35889e-12
2.41681e-06
5.94945e-13
-3.34773e-12
2.4168e-06
-2.38447e-13
9.1726e-12
-3.5047e-13
-5.81532e-12
1.50841e-06
-1.82434e-12
1.5084e-06
4.87769e-12
-3.0432e-12
1.95003e-06
-4.57679e-13
-3.30756e-12
1.95003e-06
-5.48361e-14
8.09738e-12
7.62697e-13
-5.32673e-12
3.1211e-06
-2.04957e-12
-4.93958e-12
3.12109e-06
5.02914e-12
1.20106e-11
-2.62487e-12
-7.35609e-12
4.09525e-06
-3.68246e-12
-6.46241e-12
4.09524e-06
1.05606e-11
1.55955e-11
-6.49802e-12
-9.21001e-12
5.121e-06
-4.47876e-12
-8.54683e-12
5.12099e-06
1.42778e-11
2.12357e-11
-9.43347e-12
-1.26576e-11
6.26386e-06
-4.05362e-12
-1.00147e-11
6.26385e-06
1.6303e-11
2.49864e-11
-1.19113e-11
-1.49083e-11
7.5673e-06
-2.4603e-12
-1.04968e-11
7.56729e-06
1.66896e-11
2.84328e-11
-1.39149e-11
-1.78808e-11
9.07364e-06
2.28383e-15
-1.0453e-11
9.07363e-06
1.5399e-11
3.13873e-11
-1.51021e-11
-2.09013e-11
1.08297e-05
3.22514e-12
-1.04392e-11
1.08297e-05
1.20267e-11
3.16668e-11
-1.49705e-11
-2.11764e-11
1.28886e-05
7.48693e-12
-1.33986e-11
1.28886e-05
5.98397e-12
3.09655e-11
-1.3205e-11
-1.75343e-11
1.53083e-05
1.07109e-11
-1.84589e-11
1.53083e-05
2.61007e-13
2.15806e-11
-1.07294e-11
-3.06863e-12
1.81481e-05
1.06977e-11
-2.90398e-11
1.81481e-05
-2.49672e-12
6.81237e-12
-7.96969e-12
2.22547e-11
2.14623e-05
9.53643e-12
-4.31748e-11
2.14623e-05
-4.5983e-12
3.75061e-13
-4.69066e-12
4.27593e-11
2.52957e-05
8.04226e-12
-6.24302e-11
2.52957e-05
-6.44119e-12
4.56133e-12
-1.36825e-12
5.79047e-11
2.96848e-05
5.07273e-12
-9.70015e-11
2.96848e-05
-5.29763e-12
3.78796e-11
4.20488e-13
5.92105e-11
3.46573e-05
1.41791e-13
-1.38457e-10
3.46572e-05
-1.48127e-13
9.327e-11
1.58785e-13
4.52903e-11
3.46573e-05
-4.79145e-12
-1.38752e-10
3.46572e-05
4.99587e-12
9.36226e-11
-9.93165e-14
4.52467e-11
2.96847e-05
-7.72859e-12
-9.75622e-11
2.96847e-05
6.13826e-12
3.8309e-11
1.70999e-12
5.92142e-11
2.52956e-05
-9.20213e-12
-6.27059e-11
2.52956e-05
4.30685e-12
4.46495e-12
5.03223e-12
5.8199e-11
2.14622e-05
-1.04127e-11
-4.30846e-11
2.14622e-05
2.13502e-12
3.89112e-14
8.3946e-12
4.30943e-11
1.81479e-05
-1.04948e-11
-2.90024e-11
1.81479e-05
-6.90405e-13
5.89882e-12
1.12732e-11
2.31724e-11
1.53082e-05
-7.26622e-12
-1.82493e-11
1.53082e-05
-6.54373e-12
2.13401e-11
1.38715e-11
-3.02724e-12
1.28885e-05
-2.89652e-12
-1.33948e-11
1.28885e-05
-1.27984e-11
3.04561e-11
1.57405e-11
-1.70226e-11
1.08298e-05
5.47099e-13
-1.08012e-11
1.08297e-05
-1.63741e-11
3.22347e-11
1.58633e-11
-2.14109e-11
9.07373e-06
3.21301e-12
-1.10968e-11
9.07372e-06
-1.76445e-11
3.21309e-11
1.44617e-11
-2.10196e-11
7.56742e-06
4.8834e-12
-1.13177e-11
7.56741e-06
-1.72807e-11
2.95096e-11
1.24232e-11
-1.81814e-11
6.26399e-06
5.27943e-12
-1.08414e-11
6.26398e-06
-1.53165e-11
2.60911e-11
1.00595e-11
-1.52414e-11
5.12113e-06
4.38043e-12
-9.26744e-12
5.12112e-06
-1.15608e-11
2.22707e-11
7.19965e-12
-1.29959e-11
4.09536e-06
2.57401e-12
-6.92014e-12
4.09535e-06
-5.77022e-12
1.6481e-11
3.21089e-12
-9.54978e-12
3.12117e-06
7.28851e-13
-5.13128e-12
3.12116e-06
-3.15507e-13
1.26758e-11
-4.05376e-13
-7.52827e-12
1.95008e-06
-3.01096e-12
1.95008e-06
7.87423e-12
-4.84515e-12
2.51604e-06
-5.27574e-13
-5.0109e-12
2.51604e-06
-4.55601e-14
1.19775e-11
8.86919e-13
-7.81727e-12
3.94344e-06
-2.4425e-12
-6.86542e-12
3.94343e-06
5.9157e-12
1.47884e-11
-3.03918e-12
-8.32829e-12
5.16108e-06
-4.41351e-12
-9.01579e-12
5.16107e-06
1.25286e-11
1.92402e-11
-7.65032e-12
-1.0332e-11
6.45224e-06
-5.40084e-12
-1.21194e-11
6.45223e-06
1.71213e-11
2.76349e-11
-1.12712e-11
-1.54688e-11
7.89032e-06
-4.9198e-12
-1.44093e-11
7.89031e-06
1.96918e-11
3.35365e-11
-1.43551e-11
-1.90315e-11
9.52802e-06
-3.01076e-12
-1.52899e-11
9.528e-06
2.02526e-11
3.88973e-11
-1.68536e-11
-2.35235e-11
1.14178e-05
-2.50294e-14
-1.53885e-11
1.14178e-05
1.87394e-11
4.34288e-11
-1.83451e-11
-2.79883e-11
1.3618e-05
3.88752e-12
-1.55352e-11
1.3618e-05
1.46749e-11
4.44351e-11
-1.82145e-11
-2.88274e-11
1.61949e-05
9.06026e-12
-2.00012e-11
1.61949e-05
7.34732e-12
4.44833e-11
-1.60786e-11
-2.44305e-11
1.92209e-05
1.30201e-11
-2.69686e-11
1.92209e-05
3.35593e-13
3.1628e-11
-1.30554e-11
-4.57764e-12
2.27701e-05
1.30307e-11
-4.1483e-11
2.27701e-05
-3.05902e-12
1.11247e-11
-9.68505e-12
3.03993e-11
2.6911e-05
1.1643e-11
-6.19938e-11
2.6911e-05
-5.6102e-12
2.79276e-12
-5.72631e-12
5.91407e-11
3.17006e-05
9.87701e-12
-9.0228e-11
3.17006e-05
-7.83262e-12
9.32091e-12
-1.75654e-12
8.09615e-11
3.71865e-05
6.23949e-12
-1.38944e-10
3.71865e-05
-6.43238e-12
5.59433e-11
4.34211e-13
8.31362e-11
4.34063e-05
1.75583e-13
-1.97249e-10
4.34063e-05
-1.81439e-13
1.32457e-10
1.93037e-13
6.49493e-11
4.34063e-05
-5.89124e-12
-1.97666e-10
4.34062e-05
6.06294e-12
1.32957e-10
-4.35382e-14
6.48855e-11
3.71864e-05
-9.48686e-12
-1.39731e-10
3.71864e-05
7.461e-12
5.65544e-11
2.17305e-12
8.31188e-11
3.17005e-05
-1.12253e-11
-9.06293e-11
3.17005e-05
5.25106e-12
9.19368e-12
6.14382e-12
8.13713e-11
2.69108e-05
-1.26695e-11
-6.18895e-11
2.69108e-05
2.61408e-12
2.37318e-12
1.02002e-11
5.95898e-11
2.277e-05
-1.27443e-11
-4.14245e-11
2.277e-05
-8.63551e-13
9.91535e-12
1.37168e-11
3.16138e-11
1.92208e-05
-8.78329e-12
-2.66939e-11
1.92208e-05
-8.03395e-12
3.13987e-11
1.68937e-11
-4.60872e-12
1.61948e-05
-3.48148e-12
-1.99928e-11
1.61948e-05
-1.56137e-11
4.38518e-11
1.9152e-11
-2.38008e-11
1.3618e-05
6.97663e-13
-1.6073e-11
1.3618e-05
-1.9908e-11
4.51793e-11
1.92555e-11
-2.90721e-11
1.14179e-05
3.93004e-12
-1.63252e-11
1.14179e-05
-2.1407e-11
4.44843e-11
1.75146e-11
-2.8137e-11
9.52815e-06
5.93182e-12
-1.64725e-11
9.52814e-06
-2.0875e-11
4.04223e-11
1.49753e-11
-2.3934e-11
7.89047e-06
6.37528e-12
-1.5588e-11
7.89046e-06
-1.83705e-11
3.50963e-11
1.20229e-11
-1.94955e-11
6.45239e-06
5.25919e-12
-1.3106e-11
6.45238e-06
-1.37187e-11
2.90331e-11
8.48337e-12
-1.59158e-11
5.16121e-06
3.07832e-12
-9.59798e-12
5.1612e-06
-6.79635e-12
2.03523e-11
3.73638e-12
-1.07378e-11
3.94352e-06
8.67315e-13
-7.06616e-12
3.94351e-06
-4.03042e-13
1.5571e-11
-4.53908e-13
-8.48063e-12
2.5161e-06
-4.5218e-12
2.5161e-06
1.15721e-11
-7.02185e-12
3.23725e-06
-6.01231e-13
-7.19809e-12
3.23724e-06
3.05275e-14
1.67816e-11
9.57258e-13
-1.08208e-11
4.92973e-06
-2.85672e-12
-9.02002e-12
4.92972e-06
6.83578e-12
1.70592e-11
-3.45609e-12
-8.58089e-12
6.43173e-06
-5.18187e-12
-1.17844e-11
6.43172e-06
1.45532e-11
2.20045e-11
-8.81269e-12
-1.03633e-11
8.04081e-06
-6.38014e-12
-1.6021e-11
8.0408e-06
2.01343e-11
3.34297e-11
-1.32113e-11
-1.73461e-11
9.83524e-06
-5.84904e-12
-1.93103e-11
9.83523e-06
2.33626e-11
4.2002e-11
-1.70076e-11
-2.25593e-11
1.18767e-05
-3.60035e-12
-2.07721e-11
1.18767e-05
2.41709e-11
4.97383e-11
-2.00985e-11
-2.88484e-11
1.42291e-05
-3.67555e-14
-2.11346e-11
1.42291e-05
2.24438e-11
5.62056e-11
-2.19578e-11
-3.49962e-11
1.69643e-05
4.63953e-12
-2.15364e-11
1.69643e-05
1.76386e-11
5.82931e-11
-2.18538e-11
-3.66592e-11
2.01643e-05
1.08119e-11
-2.77941e-11
2.01643e-05
8.90749e-12
5.97243e-11
-1.93179e-11
-3.18558e-11
2.39191e-05
1.56053e-11
-3.68414e-11
2.39191e-05
4.44895e-13
4.32797e-11
-1.56832e-11
-6.32209e-12
2.83207e-05
1.56994e-11
-5.54292e-11
2.83207e-05
-3.69412e-12
1.65363e-11
-1.16551e-11
3.89507e-11
3.34545e-05
1.40715e-11
-8.31598e-11
3.34545e-05
-6.7468e-12
6.20647e-12
-6.95058e-12
7.6869e-11
3.93925e-05
1.19706e-11
-1.21744e-10
3.93925e-05
-9.38687e-12
1.53743e-11
-2.23269e-12
1.06447e-10
4.61957e-05
7.57531e-12
-1.86007e-10
4.61956e-05
-7.70229e-12
7.60405e-11
4.2099e-13
1.10159e-10
5.39134e-05
2.15498e-13
-2.62806e-10
5.39133e-05
-2.20792e-13
1.74583e-10
2.32899e-13
8.84474e-11
5.39133e-05
-7.14837e-12
-2.63357e-10
5.39133e-05
7.25247e-12
1.75242e-10
5.12115e-14
8.83638e-11
4.61956e-05
-1.14915e-11
-1.87043e-10
4.61955e-05
8.93347e-12
7.68491e-11
2.73731e-12
1.10112e-10
3.93924e-05
-1.35578e-11
-1.22291e-10
3.93924e-05
6.30636e-12
1.52175e-11
7.45862e-12
1.06981e-10
3.34543e-05
-1.52527e-11
-8.30441e-11
3.34543e-05
3.1515e-12
5.71614e-12
1.2278e-11
7.74319e-11
2.83206e-05
-1.52629e-11
-5.53446e-11
2.83206e-05
-1.08997e-12
1.50353e-11
1.64858e-11
4.04578e-11
2.3919e-05
-1.04699e-11
-3.64979e-11
2.3919e-05
-9.74322e-12
4.31097e-11
2.03066e-11
-6.47634e-12
2.01642e-05
-4.14592e-12
-2.77767e-11
2.01642e-05
-1.87637e-11
5.89885e-11
2.29792e-11
-3.11297e-11
1.69643e-05
8.4678e-13
-2.22782e-11
1.69643e-05
-2.38198e-11
5.92139e-11
2.30284e-11
-3.68872e-11
1.42292e-05
4.70509e-12
-2.24052e-11
1.42292e-05
-2.55412e-11
5.75856e-11
2.08821e-11
-3.5149e-11
1.18769e-05
7.06368e-12
-2.23573e-11
1.18769e-05
-2.47714e-11
5.17414e-11
1.7747e-11
-2.93617e-11
9.83541e-06
7.547e-12
-2.0871e-11
9.8354e-06
-2.16118e-11
4.40467e-11
1.40987e-11
-2.31574e-11
8.04098e-06
6.18962e-12
-1.72736e-11
8.04097e-06
-1.59441e-11
3.51809e-11
9.78352e-12
-1.78911e-11
6.43187e-06
3.61681e-12
-1.24689e-11
6.43186e-06
-7.86389e-12
2.32897e-11
4.26971e-12
-1.07979e-11
4.92983e-06
1.02184e-12
-9.19939e-12
4.92982e-06
-5.67889e-13
1.79027e-11
-4.40595e-13
-8.66983e-12
3.23732e-06
-6.47754e-12
3.23731e-06
1.61634e-11
-9.64403e-12
4.14976e-06
-6.95771e-13
-1.0001e-11
4.14975e-06
2.4859e-13
2.26578e-11
9.08904e-13
-1.43558e-11
6.12689e-06
-3.29939e-12
-1.14651e-11
6.12689e-06
7.81423e-12
1.89505e-11
-3.89601e-12
-8.18424e-12
7.9608e-06
-5.97999e-12
-1.47581e-11
7.96079e-06
1.66097e-11
2.38238e-11
-9.96912e-12
-9.25065e-12
9.95057e-06
-7.39936e-12
-2.01817e-11
9.95056e-06
2.32783e-11
3.83787e-11
-1.5233e-11
-1.81196e-11
1.21765e-05
-6.82063e-12
-2.46552e-11
1.21764e-05
2.72869e-11
5.01611e-11
-1.98608e-11
-2.53331e-11
1.47085e-05
-4.20626e-12
-2.69506e-11
1.47084e-05
2.84313e-11
6.0804e-11
-2.36586e-11
-3.36965e-11
1.76225e-05
-6.35831e-15
-2.77385e-11
1.76225e-05
2.6512e-11
6.96253e-11
-2.59661e-11
-4.17852e-11
2.10063e-05
5.50851e-12
-2.8506e-11
2.10063e-05
2.09289e-11
7.32005e-11
-2.59262e-11
-4.45686e-11
2.49608e-05
1.27577e-11
-3.68232e-11
2.49608e-05
1.06958e-11
7.67316e-11
-2.29692e-11
-3.98072e-11
2.9597e-05
1.8481e-11
-4.81302e-11
2.9597e-05
6.11319e-13
5.66602e-11
-1.86491e-11
-8.37273e-12
3.50289e-05
1.87275e-11
-7.08769e-11
3.50289e-05
-4.4055e-12
2.31937e-11
-1.38992e-11
4.77614e-11
4.13623e-05
1.6845e-11
-1.06683e-10
4.13623e-05
-8.01561e-12
1.06482e-11
-8.37799e-12
9.59217e-11
4.86877e-05
1.43456e-11
-1.5698e-10
4.86877e-05
-1.11102e-11
2.25976e-11
-2.81214e-12
1.34488e-10
5.70822e-05
9.09439e-12
-2.38173e-10
5.70822e-05
-9.11224e-12
9.77108e-11
3.72085e-13
1.40724e-10
6.66096e-05
2.61822e-13
-3.35054e-10
6.66096e-05
-2.66932e-13
2.18715e-10
2.79023e-13
1.16643e-10
6.66096e-05
-8.57641e-12
-3.35747e-10
6.66096e-05
8.56806e-12
2.19539e-10
1.94912e-13
1.16544e-10
5.70821e-05
-1.37641e-11
-2.39481e-10
5.70821e-05
1.05609e-11
9.8731e-11
3.41932e-12
1.40639e-10
4.86875e-05
-1.62215e-11
-1.57691e-10
4.86875e-05
7.4794e-12
2.24137e-11
8.99214e-12
1.35152e-10
4.13621e-05
-1.81852e-11
-1.06556e-10
4.13621e-05
3.75095e-12
1.00995e-11
1.46476e-11
9.65968e-11
3.50287e-05
-1.80659e-11
-7.07579e-11
3.50287e-05
-1.39124e-12
2.14076e-11
1.96173e-11
4.95519e-11
2.95969e-05
-1.23426e-11
-4.77027e-11
2.95969e-05
-1.17004e-11
5.66012e-11
2.41557e-11
-8.71556e-12
2.49607e-05
-4.9176e-12
-3.67999e-11
2.49607e-05
-2.2257e-11
7.59075e-11
2.72586e-11
-3.89967e-11
2.10063e-05
9.67629e-13
-2.94801e-11
2.10063e-05
-2.81056e-11
7.42825e-11
2.7205e-11
-4.47369e-11
1.76226e-05
5.51566e-12
-2.93848e-11
1.76226e-05
-3.00343e-11
7.13358e-11
2.45743e-11
-4.19083e-11
1.47086e-05
8.25875e-12
-2.89729e-11
1.47086e-05
-2.89416e-11
6.33055e-11
2.07304e-11
-3.43019e-11
1.21766e-05
8.77754e-12
-2.66159e-11
1.21766e-05
-2.50002e-11
5.27072e-11
1.62636e-11
-2.60663e-11
9.95076e-06
7.16384e-12
-2.16877e-11
9.95075e-06
-1.82082e-11
4.04542e-11
1.10793e-11
-1.87445e-11
7.96096e-06
4.19602e-12
-1.55159e-11
7.96095e-06
-8.99425e-12
2.52165e-11
4.8258e-12
-9.67017e-12
6.12701e-06
1.20616e-12
-1.15898e-11
6.127e-06
-8.79129e-13
1.97942e-11
-3.10019e-13
-8.16035e-12
4.14984e-06
-9.01463e-12
4.14983e-06
2.18073e-11
-1.27338e-11
5.29517e-06
-8.38571e-13
-1.35528e-11
5.29516e-06
7.08552e-13
2.96798e-11
6.60494e-13
-1.83564e-11
7.58986e-06
-3.78221e-12
-1.42734e-11
7.58985e-06
8.89333e-12
2.06574e-11
-4.39501e-12
-7.26838e-12
9.81091e-06
-6.79287e-12
-1.79198e-11
9.8109e-06
1.86558e-11
2.46972e-11
-1.10956e-11
-7.01362e-12
1.22549e-05
-8.42369e-12
-2.44977e-11
1.22549e-05
2.6469e-11
4.22234e-11
-1.72888e-11
-1.76376e-11
1.50026e-05
-7.79169e-12
-3.03518e-11
1.50026e-05
3.13744e-11
5.773e-11
-2.28686e-11
-2.7163e-11
1.81312e-05
-4.78282e-12
-3.37897e-11
1.81312e-05
3.29559e-11
7.18833e-11
-2.75025e-11
-3.78932e-11
2.17292e-05
1.11474e-13
-3.52193e-11
2.17292e-05
3.08845e-11
8.35488e-11
-3.03562e-11
-4.81971e-11
2.59019e-05
6.53091e-12
-3.64829e-11
2.59019e-05
2.45127e-11
8.90659e-11
-3.04356e-11
-5.24255e-11
3.07727e-05
1.49013e-11
-4.70874e-11
3.07727e-05
1.27318e-11
9.54807e-11
-2.7056e-11
-4.82611e-11
3.64782e-05
2.1635e-11
-6.08276e-11
3.64782e-05
8.65863e-13
7.19379e-11
-2.19716e-11
-1.09051e-11
4.31588e-05
2.21233e-11
-8.78088e-11
4.31588e-05
-5.19428e-12
3.13702e-11
-1.64244e-11
5.65415e-11
5.09457e-05
1.99772e-11
-1.32477e-10
5.09457e-05
-9.41977e-12
1.63299e-11
-1.00194e-11
1.16001e-10
5.99517e-05
1.70073e-11
-1.95867e-10
5.99517e-05
-1.29956e-11
3.10766e-11
-3.50744e-12
1.6493e-10
7.02739e-05
1.07959e-11
-2.9532e-10
7.02739e-05
-1.06519e-11
1.20723e-10
2.77931e-13
1.74941e-10
8.19937e-05
3.14363e-13
-4.1372e-10
8.19936e-05
-3.20235e-13
2.64084e-10
3.31809e-13
1.50036e-10
8.19936e-05
-1.0175e-11
-4.14564e-10
8.19935e-05
9.99888e-12
2.65072e-10
3.97829e-13
1.49932e-10
7.02738e-05
-1.63103e-11
-2.96923e-10
7.02738e-05
1.23361e-11
1.21968e-10
4.23195e-12
1.74808e-10
5.99515e-05
-1.92302e-11
-1.96764e-10
5.99515e-05
8.77337e-12
3.08705e-11
1.07553e-11
1.65726e-10
5.09454e-05
-2.14767e-11
-1.32334e-10
5.09454e-05
4.41594e-12
1.57354e-11
1.73154e-11
1.16783e-10
4.31586e-05
-2.11442e-11
-8.76233e-11
4.31586e-05
-1.79495e-12
2.93044e-11
2.31299e-11
5.85844e-11
3.64781e-05
-1.4408e-11
-6.02818e-11
3.64781e-05
-1.39184e-11
7.20413e-11
2.84608e-11
-1.15202e-11
3.07726e-05
-5.83554e-12
-4.70637e-11
3.07726e-05
-2.60526e-11
9.45799e-11
3.19882e-11
-4.73709e-11
2.59019e-05
1.01241e-12
-3.77173e-11
2.59019e-05
-3.26974e-11
9.02759e-11
3.17651e-11
-5.24733e-11
2.17293e-05
6.31404e-12
-3.72841e-11
2.17293e-05
-3.48056e-11
8.55928e-11
2.85582e-11
-4.82525e-11
1.81314e-05
9.47236e-12
-3.62732e-11
1.81314e-05
-3.32929e-11
7.48917e-11
2.38773e-11
-3.85781e-11
1.50028e-05
1.00304e-11
-3.27128e-11
1.50028e-05
-2.84465e-11
6.07754e-11
1.84648e-11
-2.80296e-11
1.22551e-05
8.16507e-12
-2.6227e-11
1.22551e-05
-2.04616e-11
4.45706e-11
1.23381e-11
-1.83144e-11
9.8111e-06
4.82548e-12
-1.87132e-11
9.81109e-06
-1.02224e-11
2.6118e-11
5.43018e-12
-7.36605e-12
7.59e-06
1.4435e-12
-1.43056e-11
7.58999e-06
-1.42815e-12
2.14362e-11
5.98084e-15
-7.07469e-12
5.29527e-06
-1.22765e-11
5.29526e-06
2.85977e-11
-1.6241e-11
6.72113e-06
-1.07661e-12
-1.79696e-11
6.72113e-06
1.54488e-12
3.78145e-11
1.12587e-13
-2.26552e-11
9.3852e-06
-4.32945e-12
-1.75243e-11
9.38519e-06
1.01472e-11
2.24421e-11
-5.01266e-12
-6.02649e-12
1.20584e-05
-7.60279e-12
-2.12449e-11
1.20584e-05
2.06455e-11
2.47116e-11
-1.21701e-11
-3.77045e-12
1.5042e-05
-9.40068e-12
-2.88335e-11
1.5042e-05
2.95766e-11
4.47135e-11
-1.93057e-11
-1.57894e-11
1.84187e-05
-8.69208e-12
-3.62578e-11
1.84187e-05
3.546e-11
6.43579e-11
-2.59389e-11
-2.78438e-11
2.22725e-05
-5.25318e-12
-4.11882e-11
2.22724e-05
3.75794e-11
8.26826e-11
-3.15439e-11
-4.12471e-11
2.67039e-05
3.90328e-13
-4.3541e-11
2.67039e-05
3.54182e-11
9.77683e-11
-3.50608e-11
-5.40603e-11
3.18379e-05
7.75983e-12
-4.54553e-11
3.18379e-05
2.82899e-11
1.05725e-10
-3.53366e-11
-6.0077e-11
3.78237e-05
1.72337e-11
-5.85002e-11
3.78237e-05
1.50154e-11
1.15835e-10
-3.15711e-11
-5.71671e-11
4.48285e-05
2.5017e-11
-7.48216e-11
4.48285e-05
1.25442e-12
8.93241e-11
-2.56477e-11
-1.4243e-11
5.3025e-05
2.58661e-11
-1.06172e-10
5.3025e-05
-6.0554e-12
4.15657e-11
-1.92166e-11
6.47386e-11
6.25754e-05
2.34624e-11
-1.60379e-10
6.25754e-05
-1.09568e-11
2.3719e-11
-1.18732e-11
1.36476e-10
7.36201e-05
1.99355e-11
-2.38211e-10
7.362e-05
-1.50183e-11
4.12419e-11
-4.32459e-12
1.97148e-10
8.62804e-05
1.26555e-11
-3.57117e-10
8.62804e-05
-1.22887e-11
1.45236e-10
1.29163e-13
2.12322e-10
0.00010066
3.71918e-13
-4.98196e-10
0.000100659
-3.80271e-13
3.1025e-10
3.91103e-13
1.88459e-10
0.000100659
-1.19222e-11
-4.99193e-10
0.000100659
1.15138e-11
3.11397e-10
6.68722e-13
1.88359e-10
8.62802e-05
-1.91118e-11
-3.59036e-10
8.62802e-05
1.42358e-11
1.46718e-10
5.17971e-12
2.12127e-10
7.36198e-05
-2.25808e-11
-2.39311e-10
7.36198e-05
1.01879e-11
4.10226e-11
1.27447e-11
1.98073e-10
6.25751e-05
-2.51122e-11
-1.60204e-10
6.25751e-05
5.14852e-12
2.30887e-11
2.02639e-11
1.37351e-10
5.30247e-05
-2.44558e-11
-1.0588e-10
5.30247e-05
-2.33782e-12
3.9217e-11
2.70174e-11
6.70053e-11
4.48283e-05
-1.66642e-11
-7.41148e-11
4.48283e-05
-1.63834e-11
8.9634e-11
3.32056e-11
-1.52142e-11
3.78236e-05
-6.95859e-12
-5.84817e-11
3.78236e-05
-3.00308e-11
1.14859e-10
3.71068e-11
-5.61909e-11
3.1838e-05
9.02016e-13
-4.69792e-11
3.1838e-05
-3.74341e-11
1.07013e-10
3.66265e-11
-5.99249e-11
2.67041e-05
7.01853e-12
-4.6069e-11
2.6704e-05
-3.96829e-11
1.00155e-10
3.2743e-11
-5.40146e-11
2.22726e-05
1.06299e-11
-4.41411e-11
2.22726e-05
-3.76534e-11
8.61943e-11
2.70905e-11
-4.20011e-11
1.84189e-05
1.1249e-11
-3.89952e-11
1.84189e-05
-3.18109e-11
6.78747e-11
2.06193e-11
-2.88369e-11
1.50422e-05
9.17196e-12
-3.07327e-11
1.50422e-05
-2.26464e-11
4.72479e-11
1.35233e-11
-1.64775e-11
1.20586e-05
5.52527e-12
-2.20235e-11
1.20586e-05
-1.16112e-11
2.60659e-11
6.12548e-12
-3.99433e-12
9.38537e-06
1.77552e-12
-1.74199e-11
9.38536e-06
-2.33903e-12
2.30892e-11
5.89659e-13
-5.59997e-12
6.72125e-06
-1.63957e-11
6.72124e-06
3.65325e-11
-2.00304e-11
8.48257e-06
-1.48767e-12
-2.33227e-11
8.48256e-06
2.93705e-12
4.68971e-11
-8.51194e-13
-2.69828e-11
1.15941e-05
-4.9894e-12
-2.129e-11
1.15941e-05
1.1699e-11
2.46205e-11
-5.83873e-12
-4.71187e-12
1.47974e-05
-8.39711e-12
-2.46971e-11
1.47974e-05
2.25473e-11
2.40525e-11
-1.31841e-11
2.45552e-13
1.84198e-05
-1.02635e-11
-3.30222e-11
1.84198e-05
3.24281e-11
4.56332e-11
-2.11859e-11
-1.25329e-11
2.25515e-05
-9.41992e-12
-4.21437e-11
2.25515e-05
3.92821e-11
6.96247e-11
-2.89184e-11
-2.71897e-11
2.72843e-05
-5.49933e-12
-4.89491e-11
2.72843e-05
4.20113e-11
9.27857e-11
-3.56154e-11
-4.35421e-11
3.27312e-05
9.44466e-13
-5.2575e-11
3.27312e-05
3.98446e-11
1.11951e-10
-3.99301e-11
-5.91717e-11
3.90374e-05
9.27438e-12
-5.53238e-11
3.90374e-05
3.20502e-11
1.22887e-10
-4.05026e-11
-6.73339e-11
4.63815e-05
1.9733e-11
-7.0833e-11
4.63815e-05
1.75096e-11
1.37443e-10
-3.64596e-11
-6.64036e-11
5.49669e-05
2.85143e-11
-8.98668e-11
5.49669e-05
1.85475e-12
1.09049e-10
-2.96461e-11
-1.88628e-11
6.50055e-05
2.98732e-11
-1.25851e-10
6.50055e-05
-6.9587e-12
5.46537e-11
-2.22267e-11
7.13651e-11
7.66974e-05
2.72516e-11
-1.9018e-10
7.66974e-05
-1.26074e-11
3.37223e-11
-1.39136e-11
1.5623e-10
9.02168e-05
2.30647e-11
-2.83663e-10
9.02168e-05
-1.71235e-11
5.40495e-11
-5.25647e-12
2.29839e-10
0.000105715
1.46113e-11
-4.22956e-10
0.000105715
-1.39567e-11
1.72063e-10
-8.1321e-14
2.51445e-10
0.000123323
4.31629e-13
-5.87412e-10
0.000123322
-4.45333e-13
3.57393e-10
4.55923e-13
2.30664e-10
0.000123322
-1.3762e-11
-5.88561e-10
0.000123322
1.30509e-11
3.58697e-10
1.01214e-12
2.30568e-10
0.000105715
-2.21088e-11
-4.25209e-10
0.000105715
1.62099e-11
1.73792e-10
6.25147e-12
2.51175e-10
9.02166e-05
-2.62308e-11
-2.84984e-10
9.02166e-05
1.17094e-11
5.38326e-11
1.49294e-11
2.3088e-10
7.66971e-05
-2.90226e-11
-1.89931e-10
7.66971e-05
5.93484e-12
3.30565e-11
2.34366e-11
1.5717e-10
6.50052e-05
-2.79048e-11
-1.25417e-10
6.50052e-05
-3.07848e-12
5.19989e-11
3.12413e-11
7.38505e-11
5.49667e-05
-1.91033e-11
-8.90052e-11
5.49667e-05
-1.90338e-11
1.0959e-10
3.83197e-11
-2.02041e-11
4.63814e-05
-8.37692e-12
-7.08339e-11
4.63814e-05
-3.39382e-11
1.36363e-10
4.24504e-11
-6.52961e-11
3.90374e-05
5.12234e-13
-5.71704e-11
3.90374e-05
-4.20096e-11
1.24197e-10
4.16068e-11
-6.68925e-11
3.27313e-05
7.50253e-12
-5.56098e-11
3.27313e-05
-4.43627e-11
1.1472e-10
3.69517e-11
-5.90205e-11
2.72845e-05
1.16218e-11
-5.23569e-11
2.72845e-05
-4.17497e-11
9.6783e-11
3.02057e-11
-4.43602e-11
2.25518e-05
1.236e-11
-4.5204e-11
2.25517e-05
-3.49056e-11
7.35478e-11
2.26122e-11
-2.82899e-11
1.842e-05
1.01665e-11
-3.50083e-11
1.842e-05
-2.47135e-11
4.82303e-11
1.46037e-11
-1.31743e-11
1.47976e-05
6.33756e-12
-2.53919e-11
1.47976e-05
-1.32686e-11
2.52298e-11
6.97728e-12
2.20582e-13
1.15943e-05
2.27469e-12
-2.1e-11
1.15943e-05
-3.78086e-12
2.50746e-11
1.53731e-12
-3.99016e-12
8.48271e-06
-2.14661e-11
8.4827e-06
4.54892e-11
-2.38856e-11
1.06439e-05
-2.19251e-12
-2.96023e-11
1.06439e-05
5.1158e-12
5.66266e-11
-2.35576e-12
-3.10003e-11
1.43154e-05
-5.85104e-12
-2.56154e-11
1.43154e-05
1.37451e-11
2.7537e-11
-7.00055e-12
-3.62894e-12
1.81445e-05
-9.18358e-12
-2.82245e-11
1.81445e-05
2.43806e-11
2.3006e-11
-1.41656e-11
4.68168e-12
2.25216e-05
-1.09419e-11
-3.68657e-11
2.25215e-05
3.48244e-11
4.48503e-11
-2.28134e-11
-7.94419e-12
2.75556e-05
-9.84321e-12
-4.76827e-11
2.75556e-05
4.2461e-11
7.30729e-11
-3.15699e-11
-2.50778e-11
3.335e-05
-5.3546e-12
-5.67379e-11
3.335e-05
4.57814e-11
1.01626e-10
-3.94226e-11
-4.45498e-11
4.00318e-05
1.94242e-12
-6.20396e-11
4.00318e-05
4.3709e-11
1.25557e-10
-4.46863e-11
-6.32734e-11
4.77674e-05
1.11922e-11
-6.58489e-11
4.77674e-05
3.54053e-11
1.40083e-10
-4.56707e-11
-7.39668e-11
5.67675e-05
2.23624e-11
-8.36636e-11
5.67675e-05
2.01133e-11
1.59578e-10
-4.15916e-11
-7.56651e-11
6.72775e-05
3.189e-11
-1.05602e-10
6.72775e-05
2.83801e-12
1.31298e-10
-3.3908e-11
-2.53128e-11
7.95563e-05
3.39007e-11
-1.46643e-10
7.95563e-05
-7.76933e-12
7.20096e-11
-2.53524e-11
7.48417e-11
9.38503e-05
3.11845e-11
-2.21689e-10
9.38503e-05
-1.42876e-11
4.79826e-11
-1.60724e-11
1.73433e-10
0.000110375
2.62394e-11
-3.31749e-10
0.000110375
-1.91929e-11
7.12749e-11
-6.27326e-12
2.60751e-10
0.00012932
1.65426e-11
-4.91829e-10
0.00012932
-1.55388e-11
2.02874e-10
-3.5509e-13
2.89632e-10
0.000150847
4.87932e-13
-6.79621e-10
0.000150847
-5.11924e-13
4.06501e-10
5.24234e-13
2.73913e-10
0.000150847
-1.55837e-11
-6.80916e-10
0.000150847
1.45014e-11
4.07965e-10
1.42462e-12
2.73812e-10
0.00012932
-2.51572e-11
-4.9443e-10
0.00012932
1.81488e-11
2.04859e-10
7.41025e-12
2.89268e-10
0.000110375
-3.00349e-11
-3.33299e-10
0.000110375
1.32653e-11
7.10851e-11
1.72329e-11
2.61882e-10
9.385e-05
-3.30019e-11
-2.21288e-10
9.385e-05
6.67895e-12
4.72439e-11
2.6721e-11
1.74405e-10
7.9556e-05
-3.12937e-11
-1.46007e-10
7.9556e-05
-4.14606e-12
6.90245e-11
3.57306e-11
7.75224e-11
6.72772e-05
-2.17128e-11
-1.04668e-10
6.72772e-05
-2.1729e-11
1.32068e-10
4.36485e-11
-2.69354e-11
5.67673e-05
-1.02263e-11
-8.36738e-11
5.67673e-05
-3.72809e-11
1.58272e-10
4.76593e-11
-7.43104e-11
4.77674e-05
-3.4076e-13
-6.80573e-11
4.77674e-05
-4.58927e-11
1.41364e-10
4.63577e-11
-7.31444e-11
4.00319e-05
7.58742e-12
-6.56188e-11
4.00319e-05
-4.83588e-11
1.28829e-10
4.0876e-11
-6.31005e-11
3.33502e-05
1.23051e-11
-6.05556e-11
3.33502e-05
-4.51835e-11
1.06069e-10
3.29674e-11
-4.54316e-11
2.75558e-05
1.32842e-11
-5.09762e-11
2.75558e-05
-3.75097e-11
7.72847e-11
2.43016e-11
-2.62418e-11
2.25218e-05
1.11504e-11
-3.88202e-11
2.25218e-05
-2.6667e-11
4.73432e-11
1.55812e-11
-8.46373e-12
1.81448e-05
7.34483e-12
-2.87485e-11
1.81448e-05
-1.53829e-11
2.38861e-11
8.09113e-12
4.93228e-12
1.43156e-05
3.05884e-12
-2.509e-11
1.43156e-05
-5.98187e-12
2.77514e-11
2.95869e-12
-2.55953e-12
1.06441e-05
-2.75051e-11
1.06441e-05
5.52158e-11
-2.75376e-11
1.32824e-05
-3.36452e-12
-3.66761e-11
1.32823e-05
8.37788e-12
6.6569e-11
-4.53619e-12
-3.43461e-11
1.7668e-05
-7.06876e-12
-3.05211e-11
1.7668e-05
1.66302e-11
3.15023e-11
-8.71115e-12
-3.06177e-12