/*--------------------------------*- C++ -*----------------------------------*\
  =========                 |
  \\      /  F ield         | OpenFOAM: The Open Source CFD Toolbox
   \\    /   O peration     | Website:  https://openfoam.org
    \\  /    A nd           | Version:  6
     \\/     M anipulation  |
\*---------------------------------------------------------------------------*/
FoamFile
{
    version     2.0;
    format      ascii;
    class       volScalarField;
    location    "2";
    object      nut;
}
// * * * * * * * * * * * * * * * * * * * * * * * * * * * * * * * * * * * * * //

dimensions      [0 2 -1 0 0 0 0];

internalField   nonuniform List<scalar> 
63264
(
3.54449e-07
4.39979e-07
4.51016e-07
4.38546e-07
4.29598e-07
4.23251e-07
4.1695e-07
4.10124e-07
4.0311e-07
3.96579e-07
3.91092e-07
3.86981e-07
3.84258e-07
3.82958e-07
3.82581e-07
3.8331e-07
3.84005e-07
3.85924e-07
3.86747e-07
3.89716e-07
3.90506e-07
3.9452e-07
3.9562e-07
4.00533e-07
4.0227e-07
4.08248e-07
4.10841e-07
4.18277e-07
4.22063e-07
4.31645e-07
4.36595e-07
4.50263e-07
4.54344e-07
4.78274e-07
4.76272e-07
3.74214e-07
4.74113e-07
4.89112e-07
4.74192e-07
4.63785e-07
4.57683e-07
4.53371e-07
4.5017e-07
4.47648e-07
4.4545e-07
4.43349e-07
4.41351e-07
4.39476e-07
4.38148e-07
4.37101e-07
4.3704e-07
4.36606e-07
4.37632e-07
4.37115e-07
4.3909e-07
4.38521e-07
4.41457e-07
4.41507e-07
4.45467e-07
4.46589e-07
4.51889e-07
4.54208e-07
4.6121e-07
4.64822e-07
4.74082e-07
4.78812e-07
4.91633e-07
4.96104e-07
5.15544e-07
5.16961e-07
3.89331e-07
5.02892e-07
5.23038e-07
5.06048e-07
4.93645e-07
4.85956e-07
4.80139e-07
4.75135e-07
4.70566e-07
4.66302e-07
4.62335e-07
4.58741e-07
4.55567e-07
4.53032e-07
4.51176e-07
4.49981e-07
4.49236e-07
4.48724e-07
4.48516e-07
4.48338e-07
4.4861e-07
4.49009e-07
4.49882e-07
4.51211e-07
4.52756e-07
4.55226e-07
4.57652e-07
4.61401e-07
4.65043e-07
4.70402e-07
4.75657e-07
4.83111e-07
4.90586e-07
4.9997e-07
5.11409e-07
4.07844e-07
5.36519e-07
5.62096e-07
5.42601e-07
5.28529e-07
5.19564e-07
5.11547e-07
5.02825e-07
4.93352e-07
4.83858e-07
4.75204e-07
4.67948e-07
4.6224e-07
4.57997e-07
4.55076e-07
4.53122e-07
4.51806e-07
4.50931e-07
4.50148e-07
4.4986e-07
4.4938e-07
4.49711e-07
4.49624e-07
4.50578e-07
4.50949e-07
4.52511e-07
4.53461e-07
4.55829e-07
4.57568e-07
4.61252e-07
4.6398e-07
4.70028e-07
4.73352e-07
4.84053e-07
4.87236e-07
4.29484e-07
5.76008e-07
6.06311e-07
5.81908e-07
5.63647e-07
5.51904e-07
5.41185e-07
5.29838e-07
5.17974e-07
5.06366e-07
4.95894e-07
4.87104e-07
4.80095e-07
4.74774e-07
4.70771e-07
4.68035e-07
4.65639e-07
4.64469e-07
4.62408e-07
4.62391e-07
4.60201e-07
4.61175e-07
4.59037e-07
4.60691e-07
4.58901e-07
4.61093e-07
4.5983e-07
4.62782e-07
4.62251e-07
4.66553e-07
4.66718e-07
4.7392e-07
4.73391e-07
4.87641e-07
4.83111e-07
4.44273e-07
6.06881e-07
6.46499e-07
6.19738e-07
5.99166e-07
5.87935e-07
5.80106e-07
5.73451e-07
5.67191e-07
5.60964e-07
5.54692e-07
5.48526e-07
5.42442e-07
5.36761e-07
5.31377e-07
5.27046e-07
5.22525e-07
5.19574e-07
5.15279e-07
5.13261e-07
5.0914e-07
5.07717e-07
5.04134e-07
5.03328e-07
5.00311e-07
5.00375e-07
4.97929e-07
4.99006e-07
4.97298e-07
4.99685e-07
4.98758e-07
5.03166e-07
5.02613e-07
5.10285e-07
5.09278e-07
4.56234e-07
6.3353e-07
6.81492e-07
6.51217e-07
6.27235e-07
6.13376e-07
6.03871e-07
5.95898e-07
5.88508e-07
5.81388e-07
5.74228e-07
5.67458e-07
5.60736e-07
5.54007e-07
5.47531e-07
5.41784e-07
5.36462e-07
5.31756e-07
5.27012e-07
5.22781e-07
5.18353e-07
5.14571e-07
5.10572e-07
5.07321e-07
5.03831e-07
5.01115e-07
4.98183e-07
4.96068e-07
4.93803e-07
4.92483e-07
4.91147e-07
4.90789e-07
4.91008e-07
4.91112e-07
4.94548e-07
4.71377e-07
6.64563e-07
7.21441e-07
6.87436e-07
6.60287e-07
6.44431e-07
6.32682e-07
6.21271e-07
6.09427e-07
5.97589e-07
5.86114e-07
5.76032e-07
5.66986e-07
5.58701e-07
5.51043e-07
5.44526e-07
5.38392e-07
5.33192e-07
5.27678e-07
5.22946e-07
5.17735e-07
5.13273e-07
5.08375e-07
5.04247e-07
4.99551e-07
4.95739e-07
4.91286e-07
4.87749e-07
4.83694e-07
4.80637e-07
4.77163e-07
4.74994e-07
4.72279e-07
4.71518e-07
4.70159e-07
4.8961e-07
7.00781e-07
7.64773e-07
7.24895e-07
6.91686e-07
6.72654e-07
6.58132e-07
6.4415e-07
6.30036e-07
6.16147e-07
6.03047e-07
5.91387e-07
5.80942e-07
5.71763e-07
5.63227e-07
5.56155e-07
5.48927e-07
5.43375e-07
5.36505e-07
5.31654e-07
5.24812e-07
5.20214e-07
5.13517e-07
5.0905e-07
5.02523e-07
4.98211e-07
4.9186e-07
4.87771e-07
4.81701e-07
4.78049e-07
4.72351e-07
4.69747e-07
4.64107e-07
4.64069e-07
4.57794e-07
5.0415e-07
7.34163e-07
8.1559e-07
7.71065e-07
7.30978e-07
7.10348e-07
6.97702e-07
6.87552e-07
6.78103e-07
6.68691e-07
6.59065e-07
6.4927e-07
6.39202e-07
6.29205e-07
6.1919e-07
6.09904e-07
6.00527e-07
5.92202e-07
5.83167e-07
5.75377e-07
5.66335e-07
5.58819e-07
5.49787e-07
5.42552e-07
5.33666e-07
5.26757e-07
5.18133e-07
5.11552e-07
5.0328e-07
4.9711e-07
4.89236e-07
4.8371e-07
4.76209e-07
4.71728e-07
4.64514e-07
5.1198e-07
7.53387e-07
8.44816e-07
7.97118e-07
7.53018e-07
7.29898e-07
7.16021e-07
7.05155e-07
6.95254e-07
6.85652e-07
6.75669e-07
6.65829e-07
6.55772e-07
6.44873e-07
6.3356e-07
6.22443e-07
6.11946e-07
6.0181e-07
5.92017e-07
5.8222e-07
5.72609e-07
5.62936e-07
5.53468e-07
5.43987e-07
5.34646e-07
5.25388e-07
5.16146e-07
5.07103e-07
4.98016e-07
4.89205e-07
4.80477e-07
4.719e-07
4.63939e-07
4.55321e-07
4.49114e-07
5.19983e-07
7.73907e-07
8.77792e-07
8.26377e-07
7.78336e-07
7.52335e-07
7.36479e-07
7.23132e-07
7.10022e-07
6.97377e-07
6.83951e-07
6.71973e-07
6.60849e-07
6.48634e-07
6.35776e-07
6.23265e-07
6.11836e-07
6.00869e-07
5.90463e-07
5.79892e-07
5.69648e-07
5.59182e-07
5.49009e-07
5.38679e-07
5.28523e-07
5.1826e-07
5.08071e-07
4.97817e-07
4.87644e-07
4.77424e-07
4.67449e-07
4.57303e-07
4.4792e-07
4.37635e-07
4.29713e-07
5.32471e-07
7.99574e-07
9.12278e-07
8.55834e-07
8.01929e-07
7.73205e-07
7.55092e-07
7.39278e-07
7.23478e-07
7.07799e-07
6.91986e-07
6.77527e-07
6.64223e-07
6.50716e-07
6.37171e-07
6.24112e-07
6.121e-07
6.00555e-07
5.89527e-07
5.78424e-07
5.67456e-07
5.56451e-07
5.45381e-07
5.34432e-07
5.23263e-07
5.12247e-07
5.00971e-07
4.89845e-07
4.78491e-07
4.67314e-07
4.56047e-07
4.44936e-07
4.34029e-07
4.23039e-07
4.13021e-07
5.46051e-07
8.28042e-07
9.50427e-07
8.87854e-07
8.2727e-07
7.95483e-07
7.7519e-07
7.5721e-07
7.39218e-07
7.21258e-07
7.03781e-07
6.87524e-07
6.7244e-07
6.57976e-07
6.44027e-07
6.30793e-07
6.18227e-07
6.06322e-07
5.94459e-07
5.83043e-07
5.71104e-07
5.59746e-07
5.47546e-07
5.36091e-07
5.23674e-07
5.11994e-07
4.99422e-07
4.87509e-07
4.74849e-07
4.6283e-07
4.50209e-07
4.38331e-07
4.2587e-07
4.14539e-07
4.02387e-07
5.55774e-07
8.51979e-07
9.99186e-07
9.30572e-07
8.5877e-07
8.22713e-07
8.02973e-07
7.87604e-07
7.72809e-07
7.57796e-07
7.4255e-07
7.2722e-07
7.11845e-07
6.9653e-07
6.81355e-07
6.66668e-07
6.52171e-07
6.38368e-07
6.24277e-07
6.10858e-07
5.96756e-07
5.83246e-07
5.69032e-07
5.55349e-07
5.41013e-07
5.27237e-07
5.1282e-07
4.98988e-07
4.84585e-07
4.70764e-07
4.56493e-07
4.42829e-07
4.28809e-07
4.15512e-07
4.01872e-07
5.58516e-07
8.58859e-07
1.01242e-06
9.42705e-07
8.68677e-07
8.3141e-07
8.1133e-07
7.96013e-07
7.81391e-07
7.66745e-07
7.51596e-07
7.36658e-07
7.21934e-07
7.06333e-07
6.89974e-07
6.73603e-07
6.57986e-07
6.42941e-07
6.28319e-07
6.13807e-07
5.99274e-07
5.84753e-07
5.70101e-07
5.55486e-07
5.40707e-07
5.25958e-07
5.11051e-07
4.96185e-07
4.812e-07
4.66315e-07
4.51401e-07
4.3664e-07
4.22024e-07
4.07491e-07
3.93542e-07
5.61301e-07
8.66314e-07
1.0267e-06
9.55179e-07
8.78711e-07
8.39891e-07
8.18936e-07
8.02763e-07
7.86947e-07
7.71473e-07
7.54896e-07
7.39307e-07
7.25077e-07
7.09328e-07
6.91759e-07
6.73973e-07
6.5738e-07
6.41716e-07
6.26693e-07
6.11774e-07
5.96914e-07
5.82004e-07
5.67082e-07
5.52101e-07
5.37047e-07
5.21909e-07
5.0666e-07
4.91334e-07
4.75937e-07
4.6052e-07
4.45138e-07
4.29798e-07
4.1467e-07
3.99556e-07
3.85009e-07
5.65058e-07
8.7508e-07
1.04128e-06
9.67487e-07
8.88181e-07
8.47773e-07
8.25855e-07
8.08753e-07
7.91864e-07
7.75386e-07
7.57707e-07
7.41247e-07
7.26552e-07
7.10355e-07
6.92191e-07
6.73845e-07
6.56816e-07
6.40844e-07
6.25558e-07
6.10388e-07
5.95266e-07
5.80084e-07
5.6487e-07
5.49588e-07
5.34221e-07
5.18757e-07
5.03177e-07
4.87511e-07
4.71765e-07
4.55999e-07
4.40248e-07
4.24563e-07
4.09031e-07
3.93611e-07
3.78574e-07
5.70138e-07
8.85778e-07
1.05676e-06
9.80369e-07
8.97732e-07
8.56017e-07
8.33187e-07
8.15051e-07
7.97149e-07
7.79128e-07
7.60751e-07
7.43171e-07
7.26564e-07
7.09512e-07
6.91661e-07
6.74039e-07
6.57241e-07
6.41345e-07
6.25857e-07
6.10573e-07
5.95241e-07
5.79873e-07
5.64397e-07
5.48845e-07
5.33168e-07
5.17393e-07
5.01495e-07
4.85516e-07
4.69459e-07
4.53391e-07
4.37333e-07
4.21364e-07
4.05515e-07
3.89852e-07
3.74451e-07
5.75312e-07
8.9714e-07
1.0729e-06
9.93063e-07
9.06861e-07
8.63475e-07
8.39588e-07
8.20389e-07
8.01426e-07
7.82214e-07
7.63045e-07
7.44475e-07
7.26548e-07
7.08932e-07
6.91494e-07
6.74584e-07
6.58231e-07
6.42484e-07
6.26972e-07
6.11618e-07
5.96186e-07
5.80688e-07
5.65037e-07
5.49273e-07
5.33362e-07
5.17339e-07
5.01194e-07
4.84976e-07
4.68693e-07
4.52413e-07
4.36151e-07
4.20001e-07
4.03961e-07
3.8815e-07
3.72549e-07
3.8755e-06
3.95063e-06
3.92689e-06
3.94521e-06
3.95591e-06
3.9581e-06
3.95763e-06
3.95564e-06
3.95162e-06
3.94569e-06
3.93854e-06
3.9313e-06
3.92446e-06
3.91953e-06
3.91528e-06
3.91469e-06
3.91223e-06
3.91568e-06
3.91236e-06
3.91862e-06
3.91388e-06
3.92151e-06
3.9168e-06
3.92514e-06
3.92071e-06
3.93013e-06
3.92583e-06
3.93618e-06
3.93208e-06
3.94373e-06
3.93944e-06
3.95334e-06
3.94783e-06
3.96575e-06
3.95765e-06
3.9178e-06
3.98522e-06
3.95997e-06
3.97787e-06
3.98854e-06
3.98971e-06
3.98745e-06
3.9846e-06
3.98199e-06
3.97983e-06
3.97784e-06
3.97595e-06
3.97336e-06
3.97133e-06
3.96813e-06
3.96791e-06
3.96456e-06
3.96753e-06
3.9632e-06
3.96835e-06
3.96311e-06
3.9685e-06
3.9635e-06
3.96894e-06
3.96423e-06
3.97072e-06
3.96626e-06
3.97422e-06
3.97004e-06
3.97976e-06
3.97556e-06
3.9875e-06
3.98267e-06
3.99725e-06
3.99172e-06
3.94307e-06
4.01431e-06
3.98817e-06
4.00493e-06
4.01591e-06
4.01742e-06
4.01559e-06
4.01313e-06
4.01044e-06
4.00758e-06
4.00449e-06
4.00115e-06
3.99737e-06
3.99357e-06
3.99007e-06
3.9874e-06
3.98572e-06
3.98452e-06
3.98411e-06
3.98338e-06
3.98293e-06
3.98258e-06
3.98155e-06
3.98227e-06
3.98092e-06
3.98282e-06
3.98173e-06
3.98461e-06
3.98395e-06
3.98782e-06
3.98773e-06
3.99219e-06
3.9938e-06
3.99703e-06
4.00391e-06
3.97857e-06
4.04324e-06
4.01592e-06
4.03155e-06
4.04297e-06
4.04579e-06
4.04558e-06
4.04429e-06
4.04126e-06
4.036e-06
4.02894e-06
4.02092e-06
4.01296e-06
4.00575e-06
3.99996e-06
3.99583e-06
3.99288e-06
3.99157e-06
3.98975e-06
3.98975e-06
3.98773e-06
3.9883e-06
3.98617e-06
3.98733e-06
3.98554e-06
3.98734e-06
3.98582e-06
3.98836e-06
3.98679e-06
3.99007e-06
3.9885e-06
3.99253e-06
3.99122e-06
3.99585e-06
3.99624e-06
4.02199e-06
4.07254e-06
4.04354e-06
4.05842e-06
4.06939e-06
4.07219e-06
4.07165e-06
4.0697e-06
4.06598e-06
4.06007e-06
4.05235e-06
4.04375e-06
4.03516e-06
4.02765e-06
4.02088e-06
4.01681e-06
4.0117e-06
4.01154e-06
4.00611e-06
4.00898e-06
4.0024e-06
4.00676e-06
4.00008e-06
4.00488e-06
3.99879e-06
4.00399e-06
3.99827e-06
4.00389e-06
3.99832e-06
4.0045e-06
3.99869e-06
4.00621e-06
3.99946e-06
4.00966e-06
4.00121e-06
4.04688e-06
4.09552e-06
4.06647e-06
4.08027e-06
4.09088e-06
4.09323e-06
4.09172e-06
4.08914e-06
4.08632e-06
4.08332e-06
4.08e-06
4.07643e-06
4.07216e-06
4.06811e-06
4.06286e-06
4.05991e-06
4.05419e-06
4.05367e-06
4.0477e-06
4.0486e-06
4.04289e-06
4.04376e-06
4.03825e-06
4.03965e-06
4.03372e-06
4.03618e-06
4.03019e-06
4.03341e-06
4.02758e-06
4.03163e-06
4.02595e-06
4.03077e-06
4.02549e-06
4.03064e-06
4.02697e-06
4.06386e-06
4.11562e-06
4.08708e-06
4.09895e-06
4.10933e-06
4.11147e-06
4.10954e-06
4.10672e-06
4.10376e-06
4.10073e-06
4.09745e-06
4.09401e-06
4.08998e-06
4.08559e-06
4.08064e-06
4.07633e-06
4.07176e-06
4.06858e-06
4.06472e-06
4.06231e-06
4.05854e-06
4.05626e-06
4.05236e-06
4.05019e-06
4.04641e-06
4.04461e-06
4.0411e-06
4.03987e-06
4.03656e-06
4.03585e-06
4.033e-06
4.03225e-06
4.03085e-06
4.02834e-06
4.03163e-06
4.08922e-06
4.136e-06
4.10776e-06
4.11788e-06
4.12792e-06
4.13063e-06
4.12955e-06
4.12739e-06
4.12432e-06
4.11996e-06
4.11423e-06
4.10791e-06
4.10102e-06
4.09449e-06
4.08773e-06
4.08261e-06
4.07698e-06
4.07364e-06
4.06907e-06
4.06645e-06
4.06227e-06
4.0597e-06
4.05527e-06
4.0531e-06
4.04849e-06
4.04663e-06
4.04239e-06
4.04067e-06
4.03667e-06
4.03516e-06
4.03138e-06
4.02977e-06
4.02675e-06
4.02401e-06
4.02395e-06
4.1219e-06
4.15712e-06
4.1282e-06
4.13725e-06
4.14607e-06
4.14844e-06
4.14707e-06
4.14428e-06
4.14048e-06
4.13547e-06
4.12914e-06
4.12225e-06
4.11465e-06
4.108e-06
4.10041e-06
4.09572e-06
4.08852e-06
4.0862e-06
4.07926e-06
4.0782e-06
4.0715e-06
4.07052e-06
4.0639e-06
4.063e-06
4.05627e-06
4.05568e-06
4.04898e-06
4.0486e-06
4.04205e-06
4.04172e-06
4.03531e-06
4.03509e-06
4.02874e-06
4.02853e-06
4.02297e-06
4.14665e-06
4.17579e-06
4.14896e-06
4.15604e-06
4.16316e-06
4.16496e-06
4.16304e-06
4.15972e-06
4.15617e-06
4.15269e-06
4.14905e-06
4.14529e-06
4.14082e-06
4.13634e-06
4.1307e-06
4.12607e-06
4.11973e-06
4.11586e-06
4.10935e-06
4.10638e-06
4.09972e-06
4.09718e-06
4.09015e-06
4.08779e-06
4.08043e-06
4.07822e-06
4.0708e-06
4.06875e-06
4.06141e-06
4.05953e-06
4.05238e-06
4.05043e-06
4.04384e-06
4.04112e-06
4.03637e-06
4.15684e-06
4.18822e-06
4.16292e-06
4.16831e-06
4.17469e-06
4.17623e-06
4.17401e-06
4.17046e-06
4.16682e-06
4.16342e-06
4.16003e-06
4.15658e-06
4.15272e-06
4.14809e-06
4.14297e-06
4.13744e-06
4.13196e-06
4.1264e-06
4.12113e-06
4.11574e-06
4.11056e-06
4.10514e-06
4.09968e-06
4.09427e-06
4.08847e-06
4.08327e-06
4.07728e-06
4.0723e-06
4.06635e-06
4.06133e-06
4.05567e-06
4.05024e-06
4.04539e-06
4.03843e-06
4.03648e-06
4.16726e-06
4.20083e-06
4.17798e-06
4.18097e-06
4.18652e-06
4.18801e-06
4.18588e-06
4.18246e-06
4.17858e-06
4.17444e-06
4.16956e-06
4.1645e-06
4.1592e-06
4.15306e-06
4.14687e-06
4.14038e-06
4.13456e-06
4.12839e-06
4.12302e-06
4.11713e-06
4.11181e-06
4.10591e-06
4.10022e-06
4.09424e-06
4.08824e-06
4.08226e-06
4.07616e-06
4.07022e-06
4.06413e-06
4.05808e-06
4.0521e-06
4.04553e-06
4.04022e-06
4.03195e-06
4.02926e-06
4.18805e-06
4.21418e-06
4.19218e-06
4.19372e-06
4.19781e-06
4.19898e-06
4.19685e-06
4.19321e-06
4.18889e-06
4.18391e-06
4.17797e-06
4.17145e-06
4.16462e-06
4.15722e-06
4.15003e-06
4.1428e-06
4.13636e-06
4.12986e-06
4.12395e-06
4.11804e-06
4.11204e-06
4.10636e-06
4.09993e-06
4.09412e-06
4.08746e-06
4.08148e-06
4.07469e-06
4.06867e-06
4.06177e-06
4.05554e-06
4.0486e-06
4.04188e-06
4.03514e-06
4.02716e-06
4.02197e-06
4.21082e-06
4.228e-06
4.20728e-06
4.20708e-06
4.20954e-06
4.21023e-06
4.20795e-06
4.20403e-06
4.19928e-06
4.19369e-06
4.18714e-06
4.17987e-06
4.17217e-06
4.1643e-06
4.15651e-06
4.14923e-06
4.14199e-06
4.13577e-06
4.1288e-06
4.12342e-06
4.11626e-06
4.11124e-06
4.10372e-06
4.09856e-06
4.0909e-06
4.08541e-06
4.07765e-06
4.07192e-06
4.06397e-06
4.05793e-06
4.04973e-06
4.04319e-06
4.03489e-06
4.02748e-06
4.0196e-06
4.22735e-06
4.23901e-06
4.22403e-06
4.22101e-06
4.22036e-06
4.21998e-06
4.21723e-06
4.21295e-06
4.20823e-06
4.20337e-06
4.19827e-06
4.19277e-06
4.18674e-06
4.18036e-06
4.17336e-06
4.16674e-06
4.15922e-06
4.15297e-06
4.14535e-06
4.13941e-06
4.13194e-06
4.12588e-06
4.1183e-06
4.1121e-06
4.10408e-06
4.09774e-06
4.08942e-06
4.08279e-06
4.07427e-06
4.0673e-06
4.05857e-06
4.05113e-06
4.04225e-06
4.03401e-06
4.02546e-06
4.23077e-06
4.24327e-06
4.2297e-06
4.22598e-06
4.22479e-06
4.22429e-06
4.22147e-06
4.21716e-06
4.21248e-06
4.20782e-06
4.20298e-06
4.19788e-06
4.19243e-06
4.18617e-06
4.17948e-06
4.17243e-06
4.16542e-06
4.1584e-06
4.1513e-06
4.14438e-06
4.13719e-06
4.1302e-06
4.12277e-06
4.11554e-06
4.10785e-06
4.10036e-06
4.09241e-06
4.0847e-06
4.07645e-06
4.06842e-06
4.05984e-06
4.05131e-06
4.04249e-06
4.03307e-06
4.0246e-06
4.23428e-06
4.24762e-06
4.23569e-06
4.23085e-06
4.22894e-06
4.22827e-06
4.22538e-06
4.22107e-06
4.21626e-06
4.21147e-06
4.20615e-06
4.20062e-06
4.19495e-06
4.18825e-06
4.1811e-06
4.17367e-06
4.16655e-06
4.15935e-06
4.1522e-06
4.14501e-06
4.13774e-06
4.13037e-06
4.12286e-06
4.11525e-06
4.10744e-06
4.0996e-06
4.09155e-06
4.08344e-06
4.07511e-06
4.06662e-06
4.05792e-06
4.04886e-06
4.03983e-06
4.02991e-06
4.0209e-06
4.23984e-06
4.25212e-06
4.24155e-06
4.23573e-06
4.23305e-06
4.23213e-06
4.22913e-06
4.22469e-06
4.21967e-06
4.21459e-06
4.20883e-06
4.20281e-06
4.19668e-06
4.18953e-06
4.18194e-06
4.17419e-06
4.16683e-06
4.15946e-06
4.15218e-06
4.14487e-06
4.1375e-06
4.13003e-06
4.12241e-06
4.11467e-06
4.10674e-06
4.09872e-06
4.09051e-06
4.08219e-06
4.07364e-06
4.06493e-06
4.05597e-06
4.04671e-06
4.0373e-06
4.02728e-06
4.01758e-06
4.2482e-06
4.25697e-06
4.24734e-06
4.24076e-06
4.23715e-06
4.23598e-06
4.23296e-06
4.22842e-06
4.22324e-06
4.21774e-06
4.21163e-06
4.20509e-06
4.1981e-06
4.19057e-06
4.1826e-06
4.17478e-06
4.16704e-06
4.15957e-06
4.15211e-06
4.14474e-06
4.13732e-06
4.12984e-06
4.1222e-06
4.11444e-06
4.10649e-06
4.09842e-06
4.09014e-06
4.08173e-06
4.07307e-06
4.06423e-06
4.0551e-06
4.0457e-06
4.036e-06
4.0259e-06
4.01568e-06
4.25667e-06
4.26188e-06
4.25337e-06
4.2457e-06
4.24111e-06
4.23952e-06
4.23634e-06
4.23159e-06
4.22615e-06
4.22026e-06
4.21379e-06
4.20677e-06
4.1992e-06
4.19131e-06
4.18316e-06
4.17521e-06
4.16731e-06
4.1597e-06
4.15216e-06
4.14474e-06
4.13732e-06
4.12986e-06
4.12226e-06
4.11454e-06
4.10663e-06
4.09857e-06
4.0903e-06
4.08186e-06
4.07316e-06
4.06425e-06
4.05502e-06
4.04553e-06
4.03568e-06
4.02551e-06
4.01502e-06
8.51994e-06
8.78672e-06
8.70632e-06
8.69887e-06
8.71862e-06
8.73218e-06
8.73975e-06
8.74334e-06
8.7424e-06
8.73695e-06
8.72749e-06
8.71597e-06
8.70251e-06
8.69208e-06
8.68001e-06
8.67824e-06
8.66734e-06
8.67654e-06
8.6617e-06
8.67885e-06
8.66017e-06
8.67964e-06
8.66134e-06
8.68155e-06
8.66336e-06
8.68563e-06
8.66727e-06
8.69057e-06
8.67202e-06
8.69699e-06
8.67705e-06
8.70509e-06
8.68224e-06
8.71511e-06
8.68828e-06
8.58628e-06
8.85297e-06
8.77128e-06
8.76211e-06
8.78113e-06
8.79208e-06
8.79393e-06
8.79183e-06
8.78863e-06
8.78588e-06
8.78329e-06
8.78108e-06
8.77632e-06
8.77325e-06
8.76459e-06
8.76541e-06
8.75355e-06
8.7629e-06
8.74728e-06
8.76248e-06
8.74532e-06
8.76006e-06
8.74391e-06
8.7579e-06
8.74125e-06
8.7572e-06
8.73991e-06
8.7584e-06
8.74057e-06
8.76238e-06
8.74315e-06
8.76917e-06
8.74735e-06
8.7782e-06
8.75274e-06
8.63576e-06
8.90789e-06
8.82715e-06
8.81558e-06
8.83434e-06
8.84545e-06
8.84835e-06
8.84802e-06
8.84608e-06
8.84344e-06
8.84016e-06
8.83599e-06
8.82989e-06
8.82276e-06
8.8151e-06
8.80859e-06
8.80402e-06
8.80038e-06
8.79881e-06
8.79683e-06
8.79489e-06
8.79447e-06
8.78992e-06
8.79218e-06
8.7857e-06
8.79018e-06
8.78353e-06
8.78989e-06
8.78288e-06
8.79147e-06
8.78408e-06
8.79379e-06
8.78768e-06
8.79615e-06
8.79399e-06
8.69143e-06
8.96431e-06
8.88301e-06
8.86864e-06
8.88696e-06
8.89973e-06
8.90569e-06
8.90884e-06
8.90859e-06
8.90384e-06
8.89491e-06
8.8826e-06
8.86853e-06
8.8541e-06
8.84121e-06
8.83148e-06
8.82348e-06
8.82049e-06
8.81494e-06
8.81594e-06
8.80986e-06
8.81232e-06
8.80559e-06
8.80895e-06
8.80254e-06
8.80715e-06
8.80074e-06
8.80717e-06
8.7998e-06
8.80772e-06
8.79931e-06
8.80821e-06
8.79896e-06
8.80834e-06
8.79942e-06
8.75174e-06
9.02272e-06
8.93866e-06
8.9224e-06
8.93875e-06
8.9511e-06
8.95658e-06
8.95868e-06
8.95755e-06
8.95214e-06
8.94242e-06
8.92951e-06
8.9146e-06
8.90065e-06
8.88577e-06
8.87816e-06
8.86411e-06
8.8668e-06
8.85023e-06
8.86148e-06
8.84195e-06
8.85629e-06
8.8372e-06
8.85144e-06
8.83392e-06
8.84861e-06
8.83186e-06
8.84702e-06
8.83045e-06
8.84629e-06
8.82852e-06
8.84624e-06
8.82583e-06
8.8472e-06
8.82264e-06
8.79495e-06
9.06766e-06
8.98541e-06
8.96864e-06
8.98426e-06
8.99564e-06
8.99852e-06
8.99731e-06
8.9945e-06
8.99096e-06
8.98665e-06
8.98194e-06
8.975e-06
8.96898e-06
8.95777e-06
8.9542e-06
8.93963e-06
8.94217e-06
8.92651e-06
8.93225e-06
8.91822e-06
8.92362e-06
8.90987e-06
8.917e-06
8.90127e-06
8.91064e-06
8.8945e-06
8.90504e-06
8.88875e-06
8.90076e-06
8.88424e-06
8.89732e-06
8.88079e-06
8.89457e-06
8.87794e-06
8.83124e-06
9.10651e-06
9.02723e-06
9.00739e-06
9.02217e-06
9.03279e-06
9.03459e-06
9.03309e-06
9.03034e-06
9.02708e-06
9.02326e-06
9.01926e-06
9.0137e-06
9.00709e-06
8.99791e-06
8.99021e-06
8.98065e-06
8.97534e-06
8.96736e-06
8.96434e-06
8.95701e-06
8.95465e-06
8.94699e-06
8.94475e-06
8.93691e-06
8.93533e-06
8.92743e-06
8.92733e-06
8.91914e-06
8.9204e-06
8.91248e-06
8.91385e-06
8.90753e-06
8.90689e-06
8.90432e-06
8.8717e-06
9.14704e-06
9.06937e-06
9.04706e-06
9.06049e-06
9.07132e-06
9.07407e-06
9.074e-06
9.07203e-06
9.06771e-06
9.06046e-06
9.05178e-06
9.04082e-06
9.03008e-06
9.01665e-06
9.00738e-06
8.99513e-06
8.9898e-06
8.98043e-06
8.97722e-06
8.96946e-06
8.96697e-06
8.9583e-06
8.95695e-06
8.94762e-06
8.94651e-06
8.93808e-06
8.93738e-06
8.92917e-06
8.92926e-06
8.92118e-06
8.92125e-06
8.91396e-06
8.91234e-06
8.90749e-06
8.91526e-06
9.19014e-06
9.11043e-06
9.08743e-06
9.09794e-06
9.10736e-06
9.1096e-06
9.10831e-06
9.10513e-06
9.09994e-06
9.09187e-06
9.08257e-06
9.07013e-06
9.05989e-06
9.04446e-06
9.03773e-06
9.02115e-06
9.02014e-06
9.00407e-06
9.00618e-06
8.99162e-06
8.99402e-06
8.97999e-06
8.98286e-06
8.96839e-06
8.97204e-06
8.9577e-06
8.96173e-06
8.94804e-06
8.95207e-06
8.93873e-06
8.94303e-06
8.92952e-06
8.93393e-06
8.92017e-06
8.95186e-06
9.22695e-06
9.15139e-06
9.12878e-06
9.13701e-06
9.14518e-06
9.14645e-06
9.1435e-06
9.13911e-06
9.1346e-06
9.12972e-06
9.1249e-06
9.11816e-06
9.11193e-06
9.10168e-06
9.09504e-06
9.08217e-06
9.0774e-06
9.06374e-06
9.06149e-06
9.04781e-06
9.04717e-06
9.03306e-06
9.03331e-06
9.01861e-06
9.01928e-06
9.00459e-06
9.00559e-06
8.99111e-06
8.99256e-06
8.97858e-06
8.97992e-06
8.96703e-06
8.9675e-06
8.95595e-06
8.97582e-06
9.25175e-06
9.17899e-06
9.15468e-06
9.1616e-06
9.16902e-06
9.16945e-06
9.166e-06
9.16148e-06
9.15713e-06
9.15291e-06
9.14868e-06
9.14394e-06
9.13742e-06
9.12943e-06
9.12e-06
9.11056e-06
9.10092e-06
9.09217e-06
9.08344e-06
9.07548e-06
9.06742e-06
9.05905e-06
9.05162e-06
9.04232e-06
9.03568e-06
9.02591e-06
9.02e-06
9.01056e-06
9.00487e-06
8.99629e-06
8.99036e-06
8.98315e-06
8.97573e-06
8.9712e-06
9.00036e-06
9.27634e-06
9.20826e-06
9.18113e-06
9.18664e-06
9.19355e-06
9.19344e-06
9.19012e-06
9.18549e-06
9.18038e-06
9.17396e-06
9.16694e-06
9.15983e-06
9.15051e-06
9.14043e-06
9.12849e-06
9.11834e-06
9.10715e-06
9.09867e-06
9.08904e-06
9.08139e-06
9.07266e-06
9.06448e-06
9.056e-06
9.04713e-06
9.03884e-06
9.02985e-06
9.02202e-06
9.01338e-06
9.00597e-06
8.99804e-06
8.99026e-06
8.984e-06
8.97425e-06
8.97092e-06
9.02877e-06
9.30399e-06
9.2358e-06
9.20785e-06
9.21073e-06
9.21633e-06
9.21594e-06
9.21206e-06
9.20675e-06
9.20042e-06
9.19243e-06
9.183e-06
9.17298e-06
9.16102e-06
9.1489e-06
9.13553e-06
9.12408e-06
9.11247e-06
9.10261e-06
9.09353e-06
9.08407e-06
9.07655e-06
9.06672e-06
9.05923e-06
9.0493e-06
9.0417e-06
9.03168e-06
9.02457e-06
9.01483e-06
9.00797e-06
8.99884e-06
8.99191e-06
8.98366e-06
8.97563e-06
8.96925e-06
9.0581e-06
9.33226e-06
9.26438e-06
9.23544e-06
9.23572e-06
9.23969e-06
9.23872e-06
9.23414e-06
9.22804e-06
9.22079e-06
9.21197e-06
9.20156e-06
9.18986e-06
9.17714e-06
9.16358e-06
9.15092e-06
9.13748e-06
9.12746e-06
9.11467e-06
9.10762e-06
9.09497e-06
9.0896e-06
9.07698e-06
9.07165e-06
9.05947e-06
9.05379e-06
9.04193e-06
9.03645e-06
9.02483e-06
9.01951e-06
9.00831e-06
9.00277e-06
8.99226e-06
8.98613e-06
8.97631e-06
9.08073e-06
9.35349e-06
9.29369e-06
9.26547e-06
9.26249e-06
9.26432e-06
9.2624e-06
9.25693e-06
9.25012e-06
9.24309e-06
9.23582e-06
9.228e-06
9.21893e-06
9.20921e-06
9.19733e-06
9.18683e-06
9.17305e-06
9.16358e-06
9.14973e-06
9.14123e-06
9.12865e-06
9.12056e-06
9.10842e-06
9.10104e-06
9.08845e-06
9.08141e-06
9.06891e-06
9.06184e-06
9.04973e-06
9.04272e-06
9.03107e-06
9.02407e-06
9.01306e-06
9.00584e-06
8.99564e-06
9.08919e-06
9.36208e-06
9.30409e-06
9.27555e-06
9.27198e-06
9.27363e-06
9.2715e-06
9.26595e-06
9.2592e-06
9.25251e-06
9.2458e-06
9.23867e-06
9.23119e-06
9.22191e-06
9.21141e-06
9.19956e-06
9.18753e-06
9.17583e-06
9.164e-06
9.15334e-06
9.14211e-06
9.13211e-06
9.12116e-06
9.11126e-06
9.10036e-06
9.09049e-06
9.07959e-06
9.07008e-06
9.05933e-06
9.05017e-06
9.03979e-06
9.03081e-06
9.0211e-06
9.01192e-06
9.00331e-06
9.0979e-06
9.37066e-06
9.31486e-06
9.28533e-06
9.28076e-06
9.28204e-06
9.27949e-06
9.27383e-06
9.26693e-06
9.26015e-06
9.25281e-06
9.2449e-06
9.2372e-06
9.22746e-06
9.21627e-06
9.20339e-06
9.19097e-06
9.17871e-06
9.16704e-06
9.1559e-06
9.14503e-06
9.13442e-06
9.12373e-06
9.11319e-06
9.10236e-06
9.09181e-06
9.08108e-06
9.07074e-06
9.06034e-06
9.05032e-06
9.04041e-06
9.0306e-06
9.02138e-06
9.01152e-06
9.00326e-06
9.10748e-06
9.37973e-06
9.32536e-06
9.2951e-06
9.28947e-06
9.29019e-06
9.28726e-06
9.28129e-06
9.27403e-06
9.26682e-06
9.25876e-06
9.24998e-06
9.24141e-06
9.23089e-06
9.21883e-06
9.20526e-06
9.19227e-06
9.17963e-06
9.16773e-06
9.15642e-06
9.14546e-06
9.13476e-06
9.12405e-06
9.1134e-06
9.10254e-06
9.09182e-06
9.08098e-06
9.07045e-06
9.05991e-06
9.04974e-06
9.03965e-06
9.02982e-06
9.02036e-06
9.01072e-06
9.00204e-06
9.11799e-06
9.38979e-06
9.33569e-06
9.30522e-06
9.29837e-06
9.29825e-06
9.29517e-06
9.2889e-06
9.28132e-06
9.27344e-06
9.26475e-06
9.25531e-06
9.24497e-06
9.23347e-06
9.22031e-06
9.20686e-06
9.19327e-06
9.18052e-06
9.16827e-06
9.1567e-06
9.14553e-06
9.13472e-06
9.12394e-06
9.11327e-06
9.1025e-06
9.09185e-06
9.08114e-06
9.07068e-06
9.06022e-06
9.05009e-06
9.04e-06
9.0302e-06
9.02058e-06
9.01109e-06
9.00205e-06
9.12883e-06
9.39974e-06
9.34625e-06
9.31502e-06
9.30685e-06
9.30568e-06
9.30209e-06
9.29534e-06
9.28723e-06
9.27866e-06
9.26935e-06
9.25915e-06
9.24763e-06
9.23519e-06
9.2215e-06
9.20792e-06
9.19418e-06
9.18128e-06
9.16882e-06
9.15705e-06
9.14572e-06
9.13479e-06
9.124e-06
9.11337e-06
9.10272e-06
9.09221e-06
9.08167e-06
9.07134e-06
9.06101e-06
9.05095e-06
9.0409e-06
9.03112e-06
9.02143e-06
9.01197e-06
9.00273e-06
1.44229e-05
1.48664e-05
1.48085e-05
1.47656e-05
1.4776e-05
1.47961e-05
1.48147e-05
1.48305e-05
1.48402e-05
1.48428e-05
1.48373e-05
1.48262e-05
1.48069e-05
1.47912e-05
1.47662e-05
1.4764e-05
1.47361e-05
1.47561e-05
1.4719e-05
1.47541e-05
1.47118e-05
1.47482e-05
1.47084e-05
1.47454e-05
1.47054e-05
1.47456e-05
1.47061e-05
1.47465e-05
1.4707e-05
1.47486e-05
1.4707e-05
1.47505e-05
1.47057e-05
1.4752e-05
1.47033e-05
1.45214e-05
1.49647e-05
1.4906e-05
1.48605e-05
1.48694e-05
1.4885e-05
1.48917e-05
1.48921e-05
1.48901e-05
1.4889e-05
1.48881e-05
1.48889e-05
1.48831e-05
1.48815e-05
1.4864e-05
1.4869e-05
1.48408e-05
1.48625e-05
1.48263e-05
1.48579e-05
1.48219e-05
1.48501e-05
1.4817e-05
1.4844e-05
1.48082e-05
1.48384e-05
1.48006e-05
1.48342e-05
1.47945e-05
1.48332e-05
1.47899e-05
1.48351e-05
1.47866e-05
1.48385e-05
1.47835e-05
1.46011e-05
1.50469e-05
1.499e-05
1.49409e-05
1.49493e-05
1.4965e-05
1.49735e-05
1.49783e-05
1.49808e-05
1.49823e-05
1.4983e-05
1.49822e-05
1.49766e-05
1.49674e-05
1.49548e-05
1.4943e-05
1.49337e-05
1.49263e-05
1.4922e-05
1.49188e-05
1.4913e-05
1.49142e-05
1.49022e-05
1.49087e-05
1.48926e-05
1.49024e-05
1.48853e-05
1.4899e-05
1.48791e-05
1.48982e-05
1.48749e-05
1.48977e-05
1.48719e-05
1.48972e-05
1.4869e-05
1.46853e-05
1.51312e-05
1.50737e-05
1.50198e-05
1.50264e-05
1.50442e-05
1.50582e-05
1.50711e-05
1.50808e-05
1.50839e-05
1.50798e-05
1.50683e-05
1.50508e-05
1.50293e-05
1.50071e-05
1.49896e-05
1.49728e-05
1.49677e-05
1.4955e-05
1.49583e-05
1.49449e-05
1.49511e-05
1.49365e-05
1.49438e-05
1.49296e-05
1.49395e-05
1.49245e-05
1.49385e-05
1.49212e-05
1.49381e-05
1.4918e-05
1.49369e-05
1.49132e-05
1.49338e-05
1.49065e-05
1.47727e-05
1.5218e-05
1.5156e-05
1.50993e-05
1.51022e-05
1.51195e-05
1.51338e-05
1.51461e-05
1.51555e-05
1.5159e-05
1.51548e-05
1.51435e-05
1.51252e-05
1.51066e-05
1.50807e-05
1.50707e-05
1.50406e-05
1.50509e-05
1.50141e-05
1.50406e-05
1.5e-05
1.50298e-05
1.49924e-05
1.50204e-05
1.49862e-05
1.50149e-05
1.49825e-05
1.50115e-05
1.49799e-05
1.50095e-05
1.49761e-05
1.50073e-05
1.49701e-05
1.50045e-05
1.49616e-05
1.48404e-05
1.52856e-05
1.52248e-05
1.51683e-05
1.51708e-05
1.51865e-05
1.51951e-05
1.5198e-05
1.51984e-05
1.51979e-05
1.51962e-05
1.51946e-05
1.51875e-05
1.51834e-05
1.51647e-05
1.51645e-05
1.51357e-05
1.51461e-05
1.51155e-05
1.51299e-05
1.51043e-05
1.51179e-05
1.50917e-05
1.51099e-05
1.50792e-05
1.51005e-05
1.50697e-05
1.50924e-05
1.50608e-05
1.50859e-05
1.50537e-05
1.50802e-05
1.5047e-05
1.50751e-05
1.50397e-05
1.49006e-05
1.53443e-05
1.52874e-05
1.52265e-05
1.52279e-05
1.5243e-05
1.52498e-05
1.52525e-05
1.52538e-05
1.52544e-05
1.52542e-05
1.52543e-05
1.52511e-05
1.5246e-05
1.52338e-05
1.52243e-05
1.52085e-05
1.52023e-05
1.51888e-05
1.5187e-05
1.51752e-05
1.51748e-05
1.51624e-05
1.51623e-05
1.51489e-05
1.51502e-05
1.51357e-05
1.51404e-05
1.51243e-05
1.51324e-05
1.51154e-05
1.51255e-05
1.51081e-05
1.51189e-05
1.51011e-05
1.49637e-05
1.54054e-05
1.53497e-05
1.52853e-05
1.52843e-05
1.52997e-05
1.53082e-05
1.53143e-05
1.53194e-05
1.53216e-05
1.53189e-05
1.53136e-05
1.53024e-05
1.52911e-05
1.5271e-05
1.52589e-05
1.52379e-05
1.52315e-05
1.52162e-05
1.52138e-05
1.5202e-05
1.52021e-05
1.51878e-05
1.51902e-05
1.51751e-05
1.51771e-05
1.51635e-05
1.51672e-05
1.51532e-05
1.51593e-05
1.5145e-05
1.51524e-05
1.51376e-05
1.51447e-05
1.51297e-05
1.50282e-05
1.54706e-05
1.54092e-05
1.53449e-05
1.53401e-05
1.5353e-05
1.53616e-05
1.53667e-05
1.53705e-05
1.53723e-05
1.53691e-05
1.5364e-05
1.53504e-05
1.53414e-05
1.53171e-05
1.53122e-05
1.52821e-05
1.52865e-05
1.52575e-05
1.52666e-05
1.5242e-05
1.52516e-05
1.5228e-05
1.52392e-05
1.52146e-05
1.5227e-05
1.52032e-05
1.5216e-05
1.51939e-05
1.52069e-05
1.51853e-05
1.51993e-05
1.51771e-05
1.51918e-05
1.51681e-05
1.50843e-05
1.55262e-05
1.5466e-05
1.5404e-05
1.53981e-05
1.54095e-05
1.54163e-05
1.54171e-05
1.54153e-05
1.54137e-05
1.54118e-05
1.54108e-05
1.54057e-05
1.54026e-05
1.53894e-05
1.53849e-05
1.53648e-05
1.5363e-05
1.53405e-05
1.53431e-05
1.5321e-05
1.53268e-05
1.53043e-05
1.53121e-05
1.52889e-05
1.52973e-05
1.52744e-05
1.52833e-05
1.52607e-05
1.52706e-05
1.52489e-05
1.52589e-05
1.52386e-05
1.52486e-05
1.52285e-05
1.51252e-05
1.55651e-05
1.5507e-05
1.5443e-05
1.54356e-05
1.54464e-05
1.54519e-05
1.54517e-05
1.54498e-05
1.54484e-05
1.54477e-05
1.54475e-05
1.54467e-05
1.54429e-05
1.5436e-05
1.54257e-05
1.54144e-05