/*--------------------------------*- C++ -*----------------------------------*\
  =========                 |
  \\      /  F ield         | OpenFOAM: The Open Source CFD Toolbox
   \\    /   O peration     | Website:  https://openfoam.org
    \\  /    A nd           | Version:  6
     \\/     M anipulation  |
\*---------------------------------------------------------------------------*/
FoamFile
{
    version     2.0;
    format      ascii;
    class       surfaceScalarField;
    location    "2";
    object      phi;
}
// * * * * * * * * * * * * * * * * * * * * * * * * * * * * * * * * * * * * * //

dimensions      [0 3 -1 0 0 0 0];

internalField   nonuniform List<scalar> 
184155
(
1.04465e-06
-2.13335e-09
-3.10298e-07
5.33346e-09
1.08452e-06
-8.94008e-09
-4.38149e-08
1.28823e-08
1.07634e-06
-1.09857e-08
4.27492e-09
1.48898e-08
1.06868e-06
-1.17723e-08
4.00352e-09
1.54312e-08
1.06386e-06
-1.21696e-08
1.3258e-09
1.56629e-08
1.05971e-06
-1.2801e-08
6.82186e-10
1.62672e-08
1.05545e-06
-1.40843e-08
7.36192e-10
1.76106e-08
1.05098e-06
-1.58826e-08
9.17845e-10
1.94361e-08
1.04646e-06
-1.76946e-08
1.08208e-09
2.11324e-08
1.04215e-06
-1.90054e-08
1.15298e-09
2.21601e-08
1.03827e-06
-1.9563e-08
1.11769e-09
2.23215e-08
1.03494e-06
-1.94603e-08
9.8527e-10
2.181e-08
1.03217e-06
-1.90023e-08
7.76139e-10
2.09964e-08
1.02988e-06
-1.85503e-08
5.40473e-10
2.02963e-08
1.02799e-06
-1.83659e-08
3.08941e-10
1.99434e-08
1.02633e-06
-1.85892e-08
1.72447e-10
2.00857e-08
1.02485e-06
-1.92299e-08
3.10914e-11
2.06725e-08
1.02339e-06
-2.02425e-08
3.44111e-11
2.16676e-08
1.02206e-06
-2.15443e-08
-8.05383e-11
2.29547e-08
1.02072e-06
-2.30768e-08
-5.70705e-11
2.44772e-08
1.01949e-06
-2.47658e-08
-1.55652e-10
2.61546e-08
1.0183e-06
-2.65873e-08
-1.85315e-10
2.79562e-08
1.01721e-06
-2.84801e-08
-2.46926e-10
2.98183e-08
1.0162e-06
-3.04383e-08
-2.82108e-10
3.17284e-08
1.01532e-06
-3.24057e-08
-3.45104e-10
3.36313e-08
1.01455e-06
-3.43884e-08
-3.6358e-10
3.55238e-08
1.01395e-06
-3.63289e-08
-4.26977e-10
3.73555e-08
1.01352e-06
-3.82461e-08
-4.5636e-10
3.91364e-08
1.01333e-06
-4.0076e-08
-5.4016e-10
4.08071e-08
1.01334e-06
-4.18569e-08
-5.62001e-10
4.24073e-08
1.01374e-06
-4.35097e-08
-7.03129e-10
4.38136e-08
1.0143e-06
-4.50995e-08
-6.66228e-10
4.52054e-08
1.01564e-06
-4.65804e-08
-8.85799e-10
4.61283e-08
1.01693e-06
-4.78529e-08
-8.17947e-10
4.73786e-08
-4.96343e-08
2.5781e-11
1.01909e-06
4.74484e-08
1.05387e-06
5.62736e-10
-3.15976e-07
1.09539e-06
-5.41159e-09
-4.50503e-08
1.08761e-06
-7.52255e-09
4.32175e-09
1.0801e-06
-8.52131e-09
4.26164e-09
1.07561e-06
-9.14416e-09
1.46063e-09
1.07212e-06
-9.99806e-09
6.88051e-10
1.06897e-06
-1.14802e-08
5.47542e-10
1.06606e-06
-1.34508e-08
4.76027e-10
1.06334e-06
-1.5423e-08
4.49288e-10
1.06076e-06
-1.68917e-08
4.68402e-10
1.05829e-06
-1.76108e-08
5.1737e-10
1.05592e-06
-1.76569e-08
5.61777e-10
1.0537e-06
-1.73346e-08
5.53327e-10
1.05163e-06
-1.69768e-08
4.92358e-10
1.04977e-06
-1.68621e-08
3.59812e-10
1.04801e-06
-1.71078e-08
2.75778e-10
1.0464e-06
-1.77564e-08
1.36394e-10
1.04478e-06
-1.87558e-08
1.41522e-10
1.04323e-06
-2.00483e-08
4.80261e-11
1.04166e-06
-2.15779e-08
7.37906e-11
1.04015e-06
-2.32827e-08
2.78484e-11
1.0387e-06
-2.5133e-08
-1.4601e-12
1.03733e-06
-2.70793e-08
-3.20002e-11
1.03607e-06
-2.91009e-08
-7.69562e-11
1.03495e-06
-3.11544e-08
-1.35959e-10
1.03396e-06
-3.32283e-08
-1.74013e-10
1.03316e-06
-3.52818e-08
-2.41621e-10
1.03251e-06
-3.73118e-08
-2.81072e-10
1.03207e-06
-3.92796e-08
-3.59973e-10
1.03178e-06
-4.11829e-08
-3.89504e-10
1.03177e-06
-4.3002e-08
-4.96149e-10
1.03185e-06
-4.46779e-08
-4.94199e-10
1.03226e-06
-4.63743e-08
-6.18919e-10
1.03263e-06
-4.76079e-08
-6.13858e-10
-4.96968e-08
-7.77368e-10
1.03347e-06
1.06084e-06
2.97585e-09
-3.15641e-07
1.10401e-06
-2.52153e-09
-4.60613e-08
1.09695e-06
-4.597e-09
4.13251e-09
1.08964e-06
-5.71523e-09
4.50858e-09
1.08531e-06
-6.48657e-09
1.67268e-09
1.08195e-06
-7.47798e-09
8.40304e-10
1.07885e-06
-9.06512e-09
6.84191e-10
1.07588e-06
-1.11142e-08
6.35109e-10
1.073e-06
-1.31654e-08
6.22244e-10
1.07022e-06
-1.47385e-08
6.1945e-10
1.06758e-06
-1.55933e-08
6.23772e-10
1.06509e-06
-1.57978e-08
6.31992e-10
1.06278e-06
-1.5627e-08
6.05101e-10
1.06068e-06
-1.54029e-08
5.27553e-10
1.05878e-06
-1.53753e-08
4.09338e-10
1.05705e-06
-1.56817e-08
3.01106e-10
1.05542e-06
-1.63508e-08
2.30596e-10
1.05383e-06
-1.73583e-08
1.87956e-10
1.05226e-06
-1.86464e-08
1.73743e-10
1.0507e-06
-2.01653e-08
1.47601e-10
1.04917e-06
-2.18684e-08
1.13396e-10
1.04767e-06
-2.37167e-08
7.88047e-11
1.04626e-06
-2.56792e-08
1.34972e-11
1.0449e-06
-2.77246e-08
-1.75549e-11
1.04365e-06
-2.98242e-08
-7.96699e-11
1.0425e-06
-3.19543e-08
-1.18357e-10
1.04147e-06
-3.40897e-08
-1.62887e-10
1.04057e-06
-3.62118e-08
-2.07533e-10
1.03985e-06
-3.83018e-08
-2.5524e-10
1.03932e-06
-4.03374e-08
-3.10127e-10
1.03899e-06
-4.232e-08
-3.60071e-10
1.03894e-06
-4.41739e-08
-4.54751e-10
1.03901e-06
-4.59972e-08
-4.41093e-10
1.03951e-06
-4.74916e-08
-6.16186e-10
-4.91165e-08
-8.73985e-10
1.0398e-06
1.06847e-06
4.98398e-09
-3.19815e-07
1.11315e-06
-6.90444e-11
-4.71309e-08
1.10655e-06
-2.1135e-09
4.11681e-09
1.09946e-06
-3.32612e-09
4.70242e-09
1.09546e-06
-4.17254e-09
1.67923e-09
1.09236e-06
-5.14326e-09
7.70239e-10
1.0892e-06
-6.60727e-09
7.05494e-10
1.08574e-06
-8.50656e-09
8.45198e-10
1.08204e-06
-1.04851e-08
1.02541e-09
1.0783e-06
-1.21289e-08
1.13242e-09
1.07476e-06
-1.31893e-08
1.13255e-09
1.07159e-06
-1.36801e-08
1.05063e-09
1.06885e-06
-1.37955e-08
9.10631e-10
1.06653e-06
-1.3812e-08
7.28938e-10
1.06456e-06
-1.39451e-08
5.36843e-10
1.06284e-06
-1.43498e-08
3.86257e-10
1.06128e-06
-1.50616e-08
2.76494e-10
1.05977e-06
-1.60836e-08
2.35812e-10
1.0583e-06
-1.73665e-08
1.88644e-10
1.05683e-06
-1.88718e-08
1.74948e-10
1.05539e-06
-2.05548e-08
1.214e-10
1.05397e-06
-2.23859e-08
8.93265e-11
1.05259e-06
-2.43313e-08
3.45483e-11
1.05124e-06
-2.63709e-08
2.23273e-12
1.04992e-06
-2.84746e-08
-3.12848e-11
1.04864e-06
-3.06262e-08
-5.00598e-11
1.04742e-06
-3.27996e-08
-7.49498e-11
1.04628e-06
-3.4982e-08
-8.31205e-11
1.04525e-06
-3.71535e-08
-1.19316e-10
1.04434e-06
-3.92956e-08
-1.35784e-10
1.04363e-06
-4.14125e-08
-1.98896e-10
1.04312e-06
-4.34351e-08
-2.24816e-10
1.04291e-06
-4.5474e-08
-3.11265e-10
1.04303e-06
-4.72338e-08
-3.81366e-10
-4.91995e-08
-3.14258e-10
1.04343e-06
1.07669e-06
6.51438e-09
-3.27554e-07
1.12275e-06
2.13954e-09
-4.82743e-08
1.11617e-06
8.9862e-11
4.37836e-09
1.10887e-06
-1.21893e-09
5.19214e-09
1.1048e-06
-2.11084e-09
2.01532e-09
1.10167e-06
-3.02631e-09
1.00902e-09
1.09845e-06
-4.334e-09
9.45504e-10
1.09493e-06
-6.05394e-09
1.06949e-09
1.09116e-06
-7.9365e-09
1.21628e-09
1.08737e-06
-9.633e-09
1.30014e-09
1.08378e-06
-1.08864e-08
1.28452e-09
1.08057e-06
-1.16476e-08
1.17926e-09
1.0778e-06
-1.20422e-08
1.01925e-09
1.07544e-06
-1.22858e-08
8.2991e-10
1.07345e-06
-1.2587e-08
6.32425e-10
1.07169e-06
-1.30852e-08
4.94821e-10
1.07014e-06
-1.38542e-08
3.47068e-10
1.06861e-06
-1.48908e-08
3.31883e-10
1.06719e-06
-1.61761e-08
2.25635e-10
1.06574e-06
-1.76699e-08
2.56134e-10
1.06434e-06
-1.93345e-08
1.7364e-10
1.06294e-06
-2.11479e-08
1.68568e-10
1.06156e-06
-2.30734e-08
1.21289e-10
1.06019e-06
-2.51013e-08
9.4308e-11
1.05885e-06
-2.71983e-08
6.50475e-11
1.05753e-06
-2.93601e-08
5.16842e-11
1.05627e-06
-3.15559e-08
2.34906e-11
1.05505e-06
-3.37837e-08
1.41774e-11
1.05395e-06
-3.60201e-08
-2.73096e-11
1.05293e-06
-3.82503e-08
-3.10842e-11
1.05213e-06
-4.04894e-08
-1.24349e-10
1.05144e-06
-4.26416e-08
-9.56036e-11
1.05116e-06
-4.49264e-08
-2.74454e-10
1.05098e-06
-4.68215e-08
-2.3343e-10
-4.95469e-08
-1.65728e-10
1.0515e-06
1.08241e-06
7.64925e-09
-3.29683e-07
1.13017e-06
3.84343e-09
-4.94632e-08
1.12433e-06
1.85147e-09
4.08095e-09
1.1172e-06
5.01681e-10
5.40545e-09
1.11341e-06
-4.50367e-10
2.1341e-09
1.1109e-06
-1.43279e-09
9.11106e-10
1.10869e-06
-2.78836e-09
6.62064e-10
1.10656e-06
-4.52728e-09
6.03017e-10
1.10444e-06
-6.41353e-09
6.02425e-10
1.10229e-06
-8.11949e-09
6.34665e-10
1.10013e-06
-9.40532e-09
6.81127e-10
1.09797e-06
-1.02176e-08
7.29155e-10
1.09585e-06
-1.06813e-08
7.60542e-10
1.09379e-06
-1.09863e-08
7.59708e-10
1.09186e-06
-1.13422e-08
6.82495e-10
1.09001e-06
-1.18686e-08
6.32944e-10
1.08829e-06
-1.26463e-08
5.11548e-10
1.08657e-06
-1.36723e-08
5.02448e-10
1.0849e-06
-1.4932e-08
4.29153e-10
1.0832e-06
-1.63944e-08
4.18122e-10
1.0815e-06
-1.80281e-08
3.93883e-10
1.07981e-06
-1.98094e-08
3.5552e-10
1.07813e-06
-2.17133e-08
3.18241e-10
1.07646e-06
-2.37217e-08
2.96594e-10
1.07483e-06
-2.58121e-08
2.39088e-10
1.07322e-06
-2.79727e-08
2.20103e-10
1.07167e-06
-3.01827e-08
1.76585e-10
1.07017e-06
-3.24326e-08
1.52199e-10
1.06875e-06
-3.47084e-08
1.05411e-10
1.06741e-06
-3.69874e-08
8.48225e-11
1.06618e-06
-3.92914e-08
2.61397e-11
1.06505e-06
-4.15176e-08
1.08933e-11
1.06403e-06
-4.38704e-08
-4.05512e-11
1.06313e-06
-4.58608e-08
-5.57225e-11
-4.86144e-08
-3.50642e-10
1.06254e-06
1.08702e-06
8.57263e-09
-3.29495e-07
1.13632e-06
5.09883e-09
-5.05483e-08
1.13112e-06
3.21454e-09
3.83282e-09
1.12399e-06
1.88231e-09
5.75437e-09
1.12016e-06
9.08221e-10
2.46764e-09
1.11767e-06
-1.12939e-10
1.16474e-09
1.11554e-06
-1.49707e-09
8.41747e-10
1.11352e-06
-3.24023e-09
7.32753e-10
1.11153e-06
-5.11103e-09
6.91129e-10
1.10953e-06
-6.79904e-09
6.80684e-10
1.10753e-06
-8.08042e-09
6.76064e-10
1.10553e-06
-8.91276e-09
6.95964e-10
1.1035e-06
-9.41205e-09
7.51953e-10
1.10149e-06
-9.76441e-09
7.92433e-10
1.09955e-06
-1.01538e-08
7.53231e-10
1.0977e-06
-1.07022e-08
6.84296e-10
1.09592e-06
-1.1475e-08
6.0284e-10
1.09417e-06
-1.24817e-08
5.64776e-10
1.09241e-06
-1.37079e-08
5.37977e-10
1.09061e-06
-1.51284e-08
5.28537e-10
1.08879e-06
-1.67162e-08
5.06118e-10
1.08695e-06
-1.84488e-08
4.79228e-10
1.08511e-06
-2.03058e-08
4.39968e-10
1.08325e-06
-2.22689e-08
3.98656e-10
1.0814e-06
-2.4323e-08
3.60976e-10
1.07956e-06
-2.64528e-08
3.24225e-10
1.07773e-06
-2.86465e-08
2.94721e-10
1.07592e-06
-3.08893e-08
2.67603e-10
1.07414e-06
-3.31752e-08
2.40999e-10
1.07243e-06
-3.54792e-08
2.08317e-10
1.07077e-06
-3.78169e-08
1.88193e-10
1.06924e-06
-4.01154e-08
1.21481e-10
1.0677e-06
-4.24728e-08
1.4406e-10
1.06645e-06
-4.46343e-08
2.06602e-11
-4.70796e-08
-3.63614e-10
1.06528e-06
1.09223e-06
9.20064e-09
-3.32243e-07
1.1429e-06
6.02007e-09
-5.15984e-08
1.13818e-06
4.23663e-09
3.69906e-09
1.13108e-06
2.92641e-09
6.05802e-09
1.12739e-06
1.95855e-09
2.63622e-09
1.12509e-06
9.83237e-10
1.20955e-09
1.12297e-06
-2.89472e-10
9.09852e-10
1.1207e-06
-1.88155e-09
9.12444e-10
1.11821e-06
-3.61932e-09
9.91798e-10
1.1156e-06
-5.2412e-09
1.05283e-09
1.11302e-06
-6.54079e-09
1.03994e-09
1.11058e-06
-7.45941e-09
9.90385e-10
1.10828e-06
-8.07393e-09
9.61875e-10
1.10612e-06
-8.53905e-09
9.3916e-10
1.10412e-06
-9.00644e-09
8.48104e-10
1.10226e-06
-9.59894e-09
7.54846e-10
1.10051e-06
-1.03759e-08
6.51964e-10
1.09878e-06
-1.13647e-08
6.10751e-10
1.09704e-06
-1.25542e-08
5.87085e-10
1.09527e-06
-1.39266e-08
5.73499e-10
1.09345e-06
-1.54566e-08
5.60737e-10
1.09159e-06
-1.71247e-08
5.37591e-10
1.0897e-06
-1.89109e-08
4.94784e-10
1.08776e-06
-2.08039e-08
4.72188e-10
1.08579e-06
-2.27889e-08
4.35708e-10
1.08378e-06
-2.48572e-08
4.10913e-10
1.08173e-06
-2.69977e-08
3.98688e-10
1.07966e-06
-2.92009e-08
3.84293e-10
1.07757e-06
-3.14595e-08
3.73348e-10
1.07549e-06
-3.3757e-08
3.61204e-10
1.07343e-06
-3.61002e-08
3.46436e-10
1.07144e-06
-3.84416e-08
3.1757e-10
1.06949e-06
-4.08404e-08
3.10476e-10
1.06774e-06
-4.31251e-08
2.42335e-10
-4.56212e-08
6.30605e-11
1.06622e-06
1.09798e-06
9.45728e-09
-3.37628e-07
1.14982e-06
6.7039e-09
-5.25197e-08
1.14517e-06
5.00452e-09
3.88038e-09
1.13777e-06
3.71241e-09
6.61715e-09
1.13388e-06
2.7735e-09
3.06993e-09
1.13153e-06
1.87279e-09
1.46435e-09
1.12936e-06
7.39087e-10
1.13967e-09
1.12702e-06
-6.75096e-10
1.13191e-09
1.12448e-06
-2.25655e-09
1.17519e-09
1.12184e-06
-3.79386e-09
1.19818e-09
1.11923e-06
-5.10229e-09
1.17016e-09
1.11675e-06
-6.09662e-09
1.11213e-09
1.11446e-06
-6.8249e-09
1.04649e-09
1.11232e-06
-7.39214e-09
9.90922e-10
1.11037e-06
-7.9382e-09
8.8236e-10
1.10852e-06
-8.56688e-09
8.15078e-10
1.1068e-06
-9.34895e-09
7.00966e-10
1.10506e-06
-1.03137e-08
6.83342e-10
1.10333e-06
-1.14579e-08
6.31885e-10
1.10154e-06
-1.27707e-08
6.31903e-10
1.0997e-06
-1.42297e-08
6.17651e-10
1.09779e-06
-1.58212e-08
6.02501e-10
1.09583e-06
-1.75267e-08
5.82513e-10
1.09379e-06
-1.93391e-08
5.67932e-10
1.09171e-06
-2.12441e-08
5.42275e-10
1.08956e-06
-2.32379e-08
5.32823e-10
1.08735e-06
-2.53083e-08
5.15626e-10
1.08509e-06
-2.74518e-08
5.08459e-10
1.0828e-06
-2.96602e-08
4.95613e-10
1.08048e-06
-3.19228e-08
4.87146e-10
1.07817e-06
-3.425e-08
4.5891e-10
1.07586e-06
-3.65918e-08
4.55e-10
1.07368e-06
-3.90548e-08
3.96187e-10
1.07154e-06
-4.13708e-08
3.88344e-10
-4.42179e-08
3.27906e-10
1.06981e-06
1.10277e-06
9.41341e-09
-3.41135e-07
1.15637e-06
7.12026e-09
-5.40139e-08
1.15246e-06
5.52866e-09
3.3871e-09
1.14484e-06
4.28135e-09
7.04973e-09
1.14081e-06
3.3636e-09
3.44005e-09
1.13876e-06
2.47058e-09
1.44958e-09
1.13726e-06
1.34844e-09
8.95411e-10
1.13585e-06
-3.65117e-11
7.71471e-10
1.13442e-06
-1.56898e-09
7.43736e-10
1.13291e-06
-3.04618e-09
7.54053e-10
1.13132e-06
-4.29771e-09
7.90732e-10
1.12962e-06
-5.24484e-09
8.48949e-10
1.12783e-06
-5.94306e-09
9.0805e-10
1.12597e-06
-6.48732e-09
9.5604e-10
1.12409e-06
-7.01453e-09
9.50459e-10
1.1222e-06
-7.61597e-09
9.39182e-10
1.12033e-06
-8.36315e-09
8.85257e-10
1.11842e-06
-9.27414e-09
8.68574e-10
1.11649e-06
-1.03508e-08
8.28964e-10
1.11447e-06
-1.15795e-08
8.28937e-10
1.11238e-06
-1.29476e-08
8.08982e-10
1.11019e-06
-1.44432e-08
8.10984e-10
1.10792e-06
-1.60551e-08
7.91786e-10
1.10557e-06
-1.77749e-08
7.87142e-10
1.10315e-06
-1.95918e-08
7.65425e-10
1.10066e-06
-2.14991e-08
7.53407e-10
1.09811e-06
-2.34874e-08
7.35716e-10
1.09548e-06
-2.5551e-08
7.21558e-10
1.0928e-06
-2.7685e-08
7.04652e-10
1.09007e-06
-2.98776e-08
6.91985e-10
1.08728e-06
-3.21423e-08
6.75641e-10
1.08446e-06
-3.44283e-08
6.5819e-10
1.0816e-06
-3.68441e-08
6.53508e-10
1.07871e-06
-3.91162e-08
6.29005e-10
-4.19492e-08
3.77427e-10
1.07607e-06
1.1054e-06
9.14004e-09
-3.40832e-07
1.16023e-06
7.14788e-09
-5.48528e-08
1.15692e-06
5.70443e-09
3.13528e-09
1.14926e-06
4.55049e-09
7.39003e-09
1.14516e-06
3.69e-09
3.77394e-09
1.14315e-06
2.82718e-09
1.65639e-09
1.14175e-06
1.72737e-09
1.01749e-09
1.14049e-06
3.74431e-10
8.47229e-10
1.13925e-06
-1.10481e-09
7.8131e-10
1.13795e-06
-2.51104e-09
7.63349e-10
1.13657e-06
-3.6828e-09
7.64011e-10
1.13509e-06
-4.5567e-09
7.89205e-10
1.13345e-06
-5.19036e-09
8.87695e-10
1.13164e-06
-5.68484e-09
1.0074e-09
1.12973e-06
-6.16453e-09
1.06104e-09
1.1278e-06
-6.71969e-09
1.03868e-09
1.12585e-06
-7.40952e-09
9.89401e-10
1.12388e-06
-8.25255e-09
9.51291e-10
1.12184e-06
-9.24793e-09
9.36376e-10
1.11971e-06
-1.03845e-08
9.30809e-10
1.11749e-06
-1.16529e-08
9.30222e-10
1.11516e-06
-1.30414e-08
9.22642e-10
1.11275e-06
-1.45433e-08
9.06706e-10
1.11023e-06
-1.61489e-08
8.92766e-10
1.10762e-06
-1.78516e-08
8.69055e-10
1.10491e-06
-1.96431e-08
8.56216e-10
1.1021e-06
-2.15182e-08
8.3872e-10
1.09919e-06
-2.34696e-08
8.28698e-10
1.09618e-06
-2.5496e-08
8.22777e-10
1.09308e-06
-2.75863e-08
8.07206e-10
1.08988e-06
-2.9751e-08
8.10987e-10
1.08662e-06
-3.19548e-08
7.77134e-10
1.08324e-06
-3.42616e-08
8.00164e-10
1.0799e-06
-3.65032e-08
7.27361e-10
-3.91193e-08
3.84943e-10
1.07669e-06
1.1081e-06
8.747e-09
-3.40703e-07
1.16424e-06
6.92635e-09
-5.59203e-08
1.16158e-06
5.63886e-09
2.73172e-09
1.15386e-06
4.59257e-09
7.67832e-09
1.14971e-06
3.80057e-09
4.03932e-09
1.14772e-06
3.00232e-09
1.8073e-09
1.14634e-06
1.98991e-09
1.12531e-09
1.14497e-06
7.47701e-10
9.97888e-10
1.14349e-06
-6.11813e-10
9.8727e-10
1.14187e-06
-1.90933e-09
1.0175e-09
1.14018e-06
-2.9968e-09
9.9944e-10
1.13851e-06
-3.81761e-09
9.28639e-10
1.13674e-06
-4.41409e-09
9.93596e-10
1.1348e-06
-4.88493e-09
1.14273e-09
1.13277e-06
-5.33705e-09
1.20469e-09
1.13076e-06
-5.85559e-09
1.14259e-09
1.12879e-06
-6.4884e-09
1.05498e-09
1.1268e-06
-7.25921e-09
9.95096e-10
1.12474e-06
-8.16824e-09
9.80785e-10
1.12258e-06
-9.20887e-09
9.84771e-10
1.12031e-06
-1.03711e-08
9.88794e-10
1.11792e-06
-1.16435e-08
9.87344e-10
1.11543e-06
-1.30196e-08
9.70339e-10
1.11281e-06
-1.4491e-08
9.54661e-10
1.11008e-06
-1.60535e-08
9.3306e-10
1.10722e-06
-1.77016e-08
9.19014e-10
1.10423e-06
-1.94322e-08
9.09361e-10
1.10109e-06
-2.12402e-08
9.04553e-10
1.09781e-06
-2.31243e-08
9.07872e-10
1.0944e-06
-2.5078e-08
9.05767e-10
1.09083e-06
-2.71042e-08
9.18719e-10
1.08717e-06
-2.91876e-08
8.99313e-10
1.08332e-06
-3.13484e-08
9.31269e-10
1.07946e-06
-3.3516e-08
8.79749e-10
-3.5912e-08
5.67005e-10
1.07568e-06
1.11155e-06
8.12055e-09
-3.43507e-07
1.16857e-06
6.50987e-09
-5.66064e-08
1.1661e-06
5.36418e-09
2.748e-09
1.15813e-06
4.41977e-09
8.14192e-09
1.15381e-06
3.7088e-09
4.41535e-09
1.15181e-06
3.0018e-09
1.99887e-09
1.15039e-06
2.11922e-09
1.2917e-09
1.1489e-06
1.04383e-09
1.19311e-09
1.14721e-06
-1.38677e-10
1.2108e-09
1.14535e-06
-1.28475e-09
1.23832e-09
1.14341e-06
-2.26754e-09
1.2135e-09
1.14148e-06
-3.03529e-09
1.14277e-09
1.13953e-06
-3.61123e-09
1.15379e-09
1.1375e-06
-4.07796e-09
1.22259e-09
1.13544e-06
-4.52014e-09
1.24217e-09
1.13342e-06
-5.01237e-09
1.17486e-09
1.13143e-06
-5.5963e-09
1.0933e-09
1.12943e-06
-6.29578e-09
1.03828e-09
1.12736e-06
-7.11656e-09
1.01884e-09
1.12518e-06
-8.05396e-09
1.02968e-09
1.12288e-06
-9.09986e-09
1.0293e-09
1.12044e-06
-1.02446e-08
1.03984e-09
1.11787e-06
-1.14811e-08
1.02915e-09
1.11516e-06
-1.28038e-08
1.02053e-09
1.11231e-06
-1.42094e-08
1.01082e-09
1.1093e-06
-1.56951e-08
1.00292e-09
1.10613e-06
-1.72589e-08
9.995e-10
1.10278e-06
-1.88983e-08
1.00259e-09
1.09926e-06
-2.06123e-08
1.01028e-09
1.09557e-06
-2.23979e-08
1.01407e-09
1.09169e-06
-2.42555e-08
1.02818e-09
1.08766e-06
-2.61788e-08
1.02177e-09
1.08344e-06
-2.81749e-08
1.04303e-09
1.07911e-06
-3.02027e-08
1.01587e-09
-3.24204e-08
8.3769e-10
1.07478e-06
1.1152e-06
7.2785e-09
-3.46944e-07
1.17311e-06
5.95445e-09
-5.73505e-08
1.17076e-06
4.94015e-09
2.77496e-09
1.16245e-06
4.08569e-09
8.63831e-09
1.1579e-06
3.46337e-09
4.7992e-09
1.15586e-06
2.87253e-09
2.16453e-09
1.15443e-06
2.15449e-09
1.40169e-09
1.15287e-06
1.28339e-09
1.31558e-09
1.15108e-06
3.08321e-10
1.34766e-09
1.1491e-06
-6.70183e-10
1.36592e-09
1.14703e-06
-1.54849e-09
1.3432e-09
1.14498e-06
-2.27102e-09
1.29438e-09
1.14293e-06
-2.84244e-09
1.27378e-09
1.1409e-06
-3.31485e-09
1.27189e-09
1.13889e-06
-3.75359e-09
1.24584e-09
1.1369e-06
-4.21815e-09
1.19014e-09
1.13494e-06
-4.75288e-09
1.12034e-09
1.13293e-06
-5.37786e-09
1.08595e-09
1.13087e-06
-6.10476e-09
1.05627e-09
1.12867e-06
-6.92868e-09
1.06798e-09
1.12636e-06
-7.84512e-09
1.06103e-09
1.12388e-06
-8.84744e-09
1.07608e-09
1.12126e-06
-9.92973e-09
1.07319e-09
1.11847e-06
-1.10892e-08
1.07505e-09
1.1155e-06
-1.2323e-08
1.07907e-09
1.11236e-06
-1.363e-08
1.07989e-09
1.10902e-06
-1.50086e-08
1.08821e-09
1.10548e-06
-1.64584e-08
1.097e-09
1.10174e-06
-1.79788e-08
1.10833e-09
1.09779e-06
-1.95687e-08
1.11812e-09
1.09364e-06
-2.12317e-08
1.12723e-09
1.08929e-06
-2.29594e-08
1.1297e-09
1.08477e-06
-2.47793e-08
1.13036e-09
1.08006e-06
-2.66153e-08
1.12215e-09
-2.87355e-08
1.06566e-09
1.07531e-06
1.11804e-06
6.26697e-09
-3.49316e-07
1.17751e-06
5.2532e-09
-5.87672e-08
1.17597e-06
4.39974e-09
2.08385e-09
1.16714e-06
3.66463e-09
9.24709e-09
1.16203e-06
3.11618e-09
5.45732e-09
1.15997e-06
2.59502e-09
2.34212e-09
1.15888e-06
1.96593e-09
1.28122e-09
1.15786e-06
1.20696e-09
1.09475e-09
1.1567e-06
3.62921e-10
1.10034e-09
1.15539e-06
-4.77346e-10
1.12112e-09
1.15392e-06
-1.22662e-09
1.14647e-09
1.1523e-06
-1.83811e-09
1.18211e-09
1.15056e-06
-2.32586e-09
1.23027e-09
1.1487e-06
-2.72808e-09
1.27198e-09
1.14677e-06
-3.1022e-09
1.28053e-09
1.14477e-06
-3.49592e-09
1.27748e-09
1.14272e-06
-3.95098e-09
1.24172e-09
1.1406e-06
-4.48352e-09
1.23279e-09
1.13838e-06
-5.09916e-09
1.21302e-09
1.13603e-06
-5.79387e-09
1.21264e-09
1.13353e-06
-6.56482e-09
1.21978e-09
1.13087e-06
-7.40856e-09
1.22399e-09
1.12803e-06
-8.32416e-09
1.23105e-09
1.12501e-06
-9.30969e-09
1.24207e-09
1.12181e-06
-1.03635e-08
1.244e-09
1.11841e-06
-1.14836e-08
1.25256e-09
1.11481e-06
-1.2668e-08
1.25902e-09
1.111e-06
-1.39152e-08
1.26445e-09
1.10697e-06
-1.5225e-08
1.27258e-09
1.10272e-06
-1.6596e-08
1.27663e-09
1.09824e-06
-1.80331e-08
1.28306e-09
1.09353e-06
-1.95265e-08
1.28222e-09
1.08857e-06
-2.11087e-08
1.28793e-09
1.08337e-06
-2.26947e-08
1.27984e-09
-2.45613e-08
1.18144e-09
1.07801e-06
1.11888e-06
5.12849e-09
-3.49128e-07
1.17893e-06
4.33773e-09
-5.91381e-08
1.17776e-06
3.65638e-09
1.91993e-09
1.16895e-06
3.06621e-09
9.40235e-09
1.16383e-06
2.62006e-09
5.61978e-09
1.16182e-06
2.18574e-09
2.41832e-09
1.16084e-06
1.65108e-09
1.29914e-09
1.15996e-06
1.00168e-09
1.08635e-09
1.15896e-06
2.83995e-10
1.07469e-09
1.15781e-06
-4.2037e-10
1.09029e-09
1.15652e-06
-1.03523e-09
1.10054e-09
1.1551e-06
-1.52448e-09
1.10516e-09
1.1535e-06
-1.90678e-09
1.18494e-09
1.15167e-06
-2.21808e-09
1.31923e-09
1.14967e-06
-2.50669e-09
1.40555e-09
1.14759e-06
-2.81419e-09
1.39765e-09
1.14547e-06
-3.17487e-09
1.34048e-09
1.14329e-06
-3.60157e-09
1.29661e-09
1.14102e-06
-4.09628e-09
1.27347e-09
1.1386e-06
-4.65501e-09
1.2761e-09
1.13603e-06
-5.27562e-09
1.2814e-09
1.13329e-06
-5.95643e-09
1.28916e-09
1.13037e-06
-6.69774e-09
1.29232e-09
1.12727e-06
-7.49832e-09
1.29414e-09
1.12396e-06
-8.35718e-09
1.29699e-09
1.12045e-06
-9.272e-09
1.30064e-09
1.11672e-06
-1.02414e-08
1.30681e-09
1.11275e-06
-1.12636e-08
1.31632e-09
1.10854e-06
-1.23391e-08
1.32651e-09
1.10407e-06
-1.34666e-08
1.33556e-09
1.09934e-06
-1.46506e-08
1.34596e-09
1.09435e-06
-1.58843e-08
1.34634e-09
1.08908e-06
-1.71903e-08
1.35607e-09
1.08356e-06
-1.85106e-08
1.33769e-09
-2.00376e-08
1.23818e-09
1.0778e-06
1.11975e-06
3.93716e-09
-3.49043e-07
1.18038e-06
3.31374e-09
-5.9604e-08
1.17951e-06
2.80054e-09
1.71773e-09
1.17066e-06
2.35731e-09
9.56307e-09
1.16548e-06
2.01903e-09
5.78482e-09
1.16347e-06
1.68176e-09
2.51007e-09
1.16251e-06
1.25942e-09
1.35319e-09
1.16162e-06
7.43118e-10
1.14556e-09
1.16059e-06
1.74324e-10
1.13852e-09
1.15938e-06
-3.78339e-10
1.17161e-09
1.15802e-06
-8.53374e-10
1.17356e-09
1.15662e-06
-1.22321e-09
1.09675e-09
1.15506e-06
-1.50105e-09
1.15633e-09
1.15319e-06
-1.72086e-09
1.37592e-09
1.15108e-06
-1.92483e-09
1.53146e-09
1.1489e-06
-2.1465e-09
1.51198e-09
1.14672e-06
-2.40979e-09
1.40836e-09
1.14452e-06
-2.72439e-09
1.33019e-09
1.14221e-06
-3.09296e-09
1.29995e-09
1.13977e-06
-3.51336e-09
1.30573e-09
1.13715e-06
-3.98361e-09
1.31835e-09
1.13437e-06
-4.50123e-09
1.32684e-09
1.13141e-06
-5.06493e-09
1.32803e-09
1.12826e-06
-5.67316e-09
1.32684e-09
1.1249e-06
-6.32503e-09
1.32481e-09
1.12132e-06
-7.01935e-09
1.32643e-09
1.11751e-06
-7.75581e-09
1.33281e-09
1.11343e-06
-8.53382e-09
1.3431e-09
1.10909e-06
-9.35407e-09
1.35719e-09
1.10447e-06
-1.02162e-08
1.37055e-09
1.09956e-06
-1.11231e-08
1.38588e-09
1.09435e-06
-1.20715e-08
1.39243e-09
1.08883e-06
-1.30741e-08
1.40465e-09
1.08302e-06
-1.40975e-08
1.39564e-09
-1.52652e-08
1.32342e-09
1.07693e-06
1.12077e-06
2.68026e-09
-3.49478e-07
1.18185e-06
2.20282e-09
-5.99682e-08
1.18118e-06
1.8591e-09
1.61276e-09
1.17222e-06
1.56865e-09
9.75311e-09
1.16693e-06
1.3446e-09
5.96184e-09
1.16489e-06
1.11255e-09
2.60694e-09
1.16392e-06
8.1485e-10
1.42003e-09
1.16299e-06
4.47829e-10
1.21794e-09
1.1619e-06
4.44393e-11
1.21882e-09
1.16061e-06
-3.43031e-10
1.25841e-09
1.15917e-06
-6.70436e-10
1.25727e-09
1.15771e-06
-9.18483e-10
1.1544e-09
1.15611e-06
-1.09313e-09
1.19544e-09
1.15419e-06
-1.22402e-09
1.42196e-09
1.15203e-06
-1.34752e-09
1.58501e-09
1.14981e-06
-1.48637e-09
1.55752e-09
1.14761e-06
-1.65373e-09
1.43941e-09
1.14539e-06
-1.85549e-09
1.35024e-09
1.14308e-06
-2.09577e-09
1.31639e-09
1.14062e-06
-2.3748e-09
1.32289e-09
1.13799e-06
-2.69089e-09
1.33784e-09
1.13518e-06
-3.04042e-09
1.34902e-09
1.13218e-06
-3.42065e-09
1.35283e-09
1.12898e-06
-3.82946e-09
1.35334e-09
1.12557e-06
-4.26622e-09
1.35307e-09
1.12193e-06
-4.73088e-09
1.35593e-09
1.11803e-06
-5.22413e-09
1.36309e-09
1.11387e-06
-5.74637e-09
1.3747e-09
1.10943e-06
-6.29846e-09
1.38938e-09
1.10469e-06
-6.8805e-09
1.40455e-09
1.09964e-06
-7.49399e-09
1.41997e-09
1.09427e-06
-8.13757e-09
1.42983e-09
1.08858e-06
-8.81769e-09
1.4399e-09
1.08256e-06
-9.51597e-09
1.43575e-09
-1.03077e-08
1.39306e-09
1.07621e-06
1.12202e-06
1.3522e-09
-3.5066e-07
1.18343e-06
1.04261e-09
-6.02404e-08
1.18281e-06
8.69364e-10
1.60299e-09
1.17368e-06
7.28293e-10
9.96873e-09
1.16827e-06
6.17608e-10
6.14137e-09
1.1662e-06
4.97602e-10
2.68022e-09
1.16521e-06
3.39297e-10
1.47289e-09
1.16423e-06
1.42001e-10
1.28325e-09
1.16304e-06
-7.52827e-11
1.30834e-09
1.16164e-06
-2.82623e-10
1.34109e-09
1.16009e-06
-4.5504e-10
1.33663e-09
1.15845e-06
-5.81128e-10
1.29534e-09
1.1567e-06
-6.63275e-10
1.32654e-09
1.15475e-06
-7.19252e-10
1.44607e-09
1.15265e-06
-7.71176e-10
1.52278e-09
1.1505e-06
-8.31628e-10
1.49759e-09
1.14833e-06
-9.0657e-10
1.41864e-09
1.14612e-06
-9.99158e-10
1.35458e-09
1.14381e-06
-1.11247e-09
1.33021e-09
1.14135e-06
-1.24745e-09
1.3314e-09
1.13872e-06
-1.40305e-09
1.34378e-09
1.1359e-06
-1.5766e-09
1.35549e-09
1.13288e-06
-1.76575e-09
1.36367e-09
1.12965e-06
-1.96886e-09
1.3695e-09
1.12619e-06
-2.18554e-09
1.37564e-09
1.12249e-06
-2.416e-09
1.38398e-09
1.11853e-06
-2.66099e-09
1.39524e-09
1.1143e-06
-2.92104e-09
1.40958e-09
1.10977e-06
-3.19677e-09
1.42559e-09
1.10494e-06
-3.48836e-09
1.44199e-09
1.09978e-06
-3.79648e-09
1.45679e-09
1.0943e-06
-4.12061e-09
1.46783e-09
1.08847e-06
-4.46349e-09
1.47526e-09
1.0823e-06
-4.81678e-09
1.47315e-09
-5.21694e-09
1.4514e-09
1.07575e-06
1.12331e-06
-3.51916e-07
1.185e-06
-6.0542e-08
1.18438e-06
1.60657e-09
1.17501e-06
1.02082e-08
1.16941e-06
6.33427e-09
1.16726e-06
2.77227e-09
1.1662e-06
1.53618e-09
1.16513e-06
1.35402e-09
1.16384e-06
1.38989e-09
1.16232e-06
1.41692e-09
1.16065e-06
1.41401e-09
1.15888e-06
1.40252e-09
1.15701e-06
1.41531e-09
1.15504e-06
1.44963e-09
1.15301e-06
1.45806e-09
1.15093e-06
1.42998e-09
1.1488e-06
1.38411e-09
1.14661e-06
1.34735e-09
1.14431e-06
1.33258e-09
1.14186e-06
1.332e-09
1.13923e-06
1.34142e-09
1.13642e-06
1.35348e-09
1.13339e-06
1.36605e-09
1.13014e-06
1.37847e-09
1.12665e-06
1.39168e-09
1.12292e-06
1.40628e-09
1.11891e-06
1.42212e-09
1.11463e-06
1.43928e-09
1.11005e-06
1.45621e-09
1.10515e-06
1.47259e-09
1.09994e-06
1.48583e-09
1.09438e-06
1.49582e-09
1.08848e-06
1.50034e-09
1.08223e-06
1.49749e-09
1.48463e-09
1.07558e-06
2.12593e-06
1.20119e-10
-3.92375e-07
6.08313e-09
2.14663e-06
-1.10681e-08
-7.17e-08
1.82603e-08
2.14143e-06
-1.6483e-08
2.07192e-09
2.38775e-08
2.13205e-06
-1.91326e-08
6.2439e-09
2.62807e-08
2.12405e-06
-2.0529e-08
2.43619e-09
2.74144e-08
2.11711e-06
-2.19092e-08
8.0491e-10
2.87223e-08
2.11041e-06
-2.42345e-08
5.12755e-10
3.1167e-08
2.10359e-06
-2.7607e-08
6.65973e-10
3.46787e-08
2.09669e-06
-3.13268e-08
9.67275e-10
3.83354e-08
2.08998e-06
-3.44012e-08
1.23986e-09
4.10296e-08
2.08372e-06
-3.61261e-08
1.40688e-09
4.20939e-08
2.07809e-06
-3.64033e-08
1.42679e-09
4.15898e-08
2.07315e-06
-3.5649e-08
1.28272e-09
4.00851e-08
2.06882e-06
-3.45288e-08
1.02366e-09
3.83785e-08
2.065e-06
-3.36401e-08
6.95381e-10
3.70718e-08
2.06149e-06
-3.33741e-08
4.8074e-10
3.65689e-08
2.05824e-06
-3.38666e-08
2.3494e-10
3.69201e-08
2.05505e-06
-3.50866e-08
2.3081e-10
3.80786e-08
2.05196e-06
-3.69108e-08
5.5416e-11
3.98666e-08
2.04889e-06
-3.92071e-08
7.83602e-11
4.21399e-08
2.04587e-06
-4.18497e-08
-4.5544e-11
4.47575e-08
2.04292e-06
-4.475e-08
-1.11303e-10
4.76252e-08
2.04004e-06
-4.78258e-08
-1.87769e-10
5.06488e-08
2.03724e-06
-5.10217e-08
-2.33608e-10
5.37715e-08
2.03455e-06
-5.42773e-08
-3.02861e-10
5.6924e-08
2.03199e-06
-5.75551e-08
-3.08185e-10
6.0067e-08
2.02956e-06
-6.08035e-08
-3.42482e-10
6.31432e-08
2.02731e-06
-6.39987e-08
-3.41325e-10
6.61331e-08
2.02527e-06
-6.7091e-08
-3.81784e-10
6.89752e-08
2.02346e-06
-7.00736e-08
-3.61189e-10
7.16864e-08
2.02194e-06
-7.28925e-08
-4.34758e-10
7.41366e-08
2.02069e-06
-7.55529e-08
-3.59733e-10
7.64979e-08
2.02001e-06
-7.80746e-08
-4.27605e-10
7.82947e-08
2.01947e-06
-8.02273e-08
-3.44307e-10
8.03005e-08
-8.28708e-08
1.67159e-09
2.01956e-06
8.11333e-08
2.13599e-06
5.35979e-09
-3.9744e-07
2.15767e-06
-4.75234e-09
-7.3044e-08
2.15338e-06
-9.99831e-09
2.12278e-09
2.14481e-06
-1.28406e-08
6.54766e-09
2.13762e-06
-1.45524e-08
2.67313e-09
2.13165e-06
-1.62872e-08
1.03451e-09
2.12626e-06
-1.89472e-08
6.48025e-10
2.12121e-06
-2.26119e-08
5.31323e-10
2.11641e-06
-2.6599e-08
5.23805e-10
2.11182e-06
-2.9941e-08
5.93389e-10
2.10745e-06
-3.19552e-08
7.16492e-10
2.10329e-06
-3.25275e-08
8.47444e-10
2.09936e-06
-3.2065e-08
9.03802e-10
2.09563e-06
-3.11846e-08
8.70345e-10
2.09215e-06
-3.04869e-08
6.8827e-10
2.08882e-06
-3.03292e-08
5.61424e-10
2.08565e-06
-3.08802e-08
3.21105e-10
2.08251e-06
-3.21114e-08
3.10542e-10
2.0794e-06
-3.39307e-08
1.71219e-10
2.0763e-06
-3.62258e-08
1.99208e-10
2.07319e-06
-3.88843e-08
1.74368e-10
2.07012e-06
-4.1826e-08
1.4456e-10
2.06709e-06
-4.49745e-08
1.38544e-10
2.06415e-06
-4.82707e-08
1.19059e-10
2.06131e-06
-5.16559e-08
8.08898e-11
2.05859e-06
-5.50851e-08
7.73411e-11
2.056e-06
-5.85105e-08
4.74381e-11
2.05357e-06
-6.18972e-08
5.37339e-11
2.0513e-06
-6.52081e-08
2.54166e-11
2.04919e-06
-6.84077e-08
5.80509e-11
2.04727e-06
-7.14912e-08
2.27853e-11
2.04546e-06
-7.43491e-08
1.10867e-10
2.04386e-06
-7.72007e-08
1.08704e-10
2.04225e-06
-7.94498e-08
2.15574e-10
-8.25305e-08
3.62134e-10
2.04077e-06
2.14375e-06
9.89188e-09
-3.96997e-07
2.16642e-06
4.47931e-10
-7.39304e-08
2.1631e-06
-4.57459e-09
2.02109e-09
2.15537e-06
-7.48965e-09
6.89091e-09
2.14891e-06
-9.3939e-09
2.97579e-09
2.14355e-06
-1.13428e-08
1.24998e-09
2.13867e-06
-1.41768e-08
8.00246e-10
2.13399e-06
-1.7965e-08
6.63244e-10
2.12944e-06
-2.20651e-08
6.41659e-10
2.12502e-06
-2.55639e-08
6.60769e-10
2.12079e-06
-2.78062e-08
7.07356e-10
2.11678e-06
-2.86716e-08
7.85469e-10
2.11301e-06
-2.85188e-08
8.26254e-10
2.1095e-06
-2.79295e-08
7.85506e-10
2.10622e-06
-2.745e-08
6.49519e-10
2.10314e-06
-2.74489e-08
4.99539e-10
2.10019e-06
-2.80789e-08
3.87137e-10
2.09729e-06
-2.93485e-08
3.24422e-10
2.0944e-06
-3.11747e-08