/*--------------------------------*- C++ -*----------------------------------*\
  =========                 |
  \\      /  F ield         | OpenFOAM: The Open Source CFD Toolbox
   \\    /   O peration     | Website:  https://openfoam.org
    \\  /    A nd           | Version:  6
     \\/     M anipulation  |
\*---------------------------------------------------------------------------*/
FoamFile
{
    version     2.0;
    format      ascii;
    class       volVectorField;
    location    "6";
    object      wallShearStress;
}
// * * * * * * * * * * * * * * * * * * * * * * * * * * * * * * * * * * * * * //

dimensions      [0 2 -2 0 0 0 0];

internalField   uniform (0 0 0);

boundaryField
{
    inlet
    {
        type            calculated;
        value           uniform (0 0 0);
    }
    outlet
    {
        type            calculated;
        value           uniform (0 0 0);
    }
    roughCylinder
    {
        type            calculated;
        value           nonuniform List<vector> 
5120
(
(-0.000119893 -0.00013835 -7.03305e-05)
(-0.000146069 -0.000237224 -6.514e-05)
(-0.00023237 -0.000405184 -9.22758e-06)
(-0.000277825 -0.0004795 4.10138e-05)
(-0.000332815 -0.000541996 8.69976e-05)
(-0.000379422 -0.000572183 0.000125374)
(-0.000421057 -0.000584926 0.000155742)
(-0.000452609 -0.000580606 0.00017642)
(-0.00047783 -0.000569865 0.000190247)
(-0.000497938 -0.000558615 0.000200126)
(-0.000516546 -0.000551027 0.000208775)
(-0.000531251 -0.000545014 0.000214871)
(-0.00054128 -0.000540147 0.000217587)
(-0.000546256 -0.000534771 0.000216756)
(-0.000549831 -0.000531575 0.000213879)
(-0.000554638 -0.000532145 0.000209912)
(-0.0005591 -0.000534357 0.000204253)
(-0.000561664 -0.000536453 0.000196598)
(-0.0005587 -0.000534425 0.000186071)
(-0.000559533 -0.000536485 0.000175929)
(-0.000555042 -0.000533979 0.000163401)
(-0.000546167 -0.000527618 0.000149291)
(-0.000551447 -0.000534615 0.000138644)
(-0.000562442 -0.000546753 0.000128665)
(-0.000577301 -0.000562218 0.000118465)
(-0.000569954 -0.000556802 0.00010322)
(-0.000570336 -0.000559105 8.91833e-05)
(-0.000566272 -0.00055686 7.41109e-05)
(-0.000565018 -0.000557314 5.90958e-05)
(-0.000556885 -0.000550673 4.30313e-05)
(-0.000553587 -0.000548323 2.65531e-05)
(-0.000550861 -0.000546258 9.03465e-06)
(-0.000125704 -0.000127961 -6.07065e-05)
(-0.000157554 -0.000229985 -6.99357e-05)
(-0.000247738 -0.000394841 -1.75302e-05)
(-0.000296387 -0.000473872 3.22508e-05)
(-0.000353786 -0.000539389 7.84129e-05)
(-0.000402833 -0.000573208 0.000117647)
(-0.000446607 -0.000588646 0.000148665)
(-0.000479915 -0.000586552 0.00016976)
(-0.000508338 -0.000579877 0.00018481)
(-0.000532101 -0.00057234 0.000196492)
(-0.00055247 -0.000565642 0.000206316)
(-0.000568558 -0.000558891 0.0002133)
(-0.000577988 -0.000551689 0.000216081)
(-0.000583638 -0.000546043 0.000215755)
(-0.000588456 -0.000543379 0.000213556)
(-0.000593559 -0.000543706 0.00020978)
(-0.000597721 -0.000545322 0.000204075)
(-0.000599949 -0.000546968 0.00019641)
(-0.000596945 -0.000545033 0.000186089)
(-0.000599136 -0.000548284 0.000176443)
(-0.000595761 -0.000547128 0.000164434)
(-0.000589802 -0.000543885 0.000151303)
(-0.000596869 -0.000552285 0.000140971)
(-0.000609964 -0.000565797 0.000131173)
(-0.00062297 -0.000578909 0.000120246)
(-0.000614373 -0.000572961 0.000104773)
(-0.000614284 -0.000574885 9.05293e-05)
(-0.00061009 -0.000572807 7.52971e-05)
(-0.000609038 -0.00057362 6.01109e-05)
(-0.000600528 -0.000567096 4.38306e-05)
(-0.000596962 -0.000564722 2.70659e-05)
(-0.000594309 -0.000562926 9.21588e-06)
(-0.000113303 -9.99041e-05 -4.12005e-05)
(-0.000167644 -0.000217495 -7.39114e-05)
(-0.000262811 -0.000379552 -2.64494e-05)
(-0.000314197 -0.000462202 2.2312e-05)
(-0.000374055 -0.00053083 6.84933e-05)
(-0.000425528 -0.000568257 0.000108455)
(-0.000471855 -0.000587107 0.000140186)
(-0.000508636 -0.000589617 0.000162462)
(-0.000540394 -0.000587139 0.00017902)
(-0.000566366 -0.000581823 0.000192082)
(-0.000589518 -0.000577209 0.000203316)
(-0.000607025 -0.000570568 0.000211149)
(-0.000617867 -0.000562584 0.000214709)
(-0.000623538 -0.000555919 0.000214738)
(-0.00062901 -0.000552907 0.000212949)
(-0.000636252 -0.000554449 0.000209977)
(-0.000640096 -0.000555397 0.000204244)
(-0.000642747 -0.00055721 0.000196827)
(-0.000640072 -0.000555665 0.0001868)
(-0.000642335 -0.000558901 0.000177241)
(-0.000637946 -0.000557147 0.000165171)
(-0.00063314 -0.000555209 0.000152536)
(-0.000642261 -0.000565049 0.000142611)
(-0.000657061 -0.000579387 0.000132946)
(-0.000667853 -0.000590073 0.000121384)
(-0.000659528 -0.000585057 0.000106036)
(-0.000660811 -0.00058829 9.18953e-05)
(-0.000657187 -0.000587052 7.65864e-05)
(-0.000657232 -0.00058903 6.12941e-05)
(-0.000649278 -0.000583532 4.4824e-05)
(-0.000646029 -0.000581707 2.77298e-05)
(-0.000642954 -0.000579739 9.44204e-06)
(-0.000126316 -9.52417e-05 -3.02606e-05)
(-0.000176209 -0.000201726 -7.72615e-05)
(-0.000275096 -0.000358684 -3.55619e-05)
(-0.000329659 -0.000445283 1.15396e-05)
(-0.000391591 -0.000516571 5.74408e-05)
(-0.00044582 -0.000558051 9.79678e-05)
(-0.000495246 -0.000581114 0.000130401)
(-0.000534658 -0.000587468 0.000153665)
(-0.000569597 -0.000589205 0.00017183)
(-0.000599558 -0.00058811 0.00018695)
(-0.000624483 -0.000584644 0.000199261)
(-0.000643214 -0.000578331 0.000207785)
(-0.000655139 -0.000569807 0.000212099)
(-0.00066274 -0.000562964 0.000213125)
(-0.000670914 -0.000561202 0.000212393)
(-0.000678605 -0.000562156 0.000209612)
(-0.00068169 -0.000562042 0.000203788)
(-0.000684028 -0.000563338 0.000196453)
(-0.000681687 -0.000562135 0.000186769)
(-0.000684726 -0.000565945 0.000177563)
(-0.000682194 -0.000566034 0.000166216)
(-0.000681328 -0.000567597 0.000154665)
(-0.000691737 -0.000578083 0.000144899)
(-0.000707839 -0.000592814 0.00013523)
(-0.000714825 -0.000600076 0.000122798)
(-0.000707269 -0.000596376 0.000107618)
(-0.000707537 -0.00059885 9.32117e-05)
(-0.000703813 -0.000597884 7.77568e-05)
(-0.00070406 -0.000600214 6.22975e-05)
(-0.00069584 -0.000595026 4.56285e-05)
(-0.000692475 -0.000593378 2.82619e-05)
(-0.000689505 -0.000591761 9.63183e-06)
(-0.000120087 -7.6173e-05 -1.43982e-05)
(-0.000184135 -0.000184952 -8.00905e-05)
(-0.000284825 -0.000333704 -4.43965e-05)
(-0.000341513 -0.000422601 2.53263e-07)
(-0.00040562 -0.000496776 4.5428e-05)
(-0.000462653 -0.000542365 8.62134e-05)
(-0.000514922 -0.000569454 0.000119108)
(-0.000558617 -0.000581593 0.000143827)
(-0.000597852 -0.000588592 0.000163981)
(-0.000629824 -0.000589737 0.000180589)
(-0.000657463 -0.000588437 0.000194353)
(-0.000678172 -0.000583203 0.000203888)
(-0.00069329 -0.00057649 0.000209597)
(-0.000703755 -0.000569976 0.000211851)
(-0.000713033 -0.000567181 0.000211648)
(-0.000722432 -0.000568469 0.000209466)
(-0.000725151 -0.000567513 0.000203725)
(-0.000727962 -0.000568839 0.000196727)
(-0.000726358 -0.000568228 0.000187486)
(-0.000729032 -0.000571685 0.000178344)
(-0.000726043 -0.000571644 0.00016714)
(-0.000726788 -0.000574546 0.000156109)
(-0.000738249 -0.000585447 0.000146524)
(-0.000754844 -0.000599925 0.000136785)
(-0.000758343 -0.000604498 0.000123724)
(-0.000753169 -0.000603315 0.00010899)
(-0.000754769 -0.000607029 9.46627e-05)
(-0.000751503 -0.000606827 7.91032e-05)
(-0.000752809 -0.000610215 6.35178e-05)
(-0.000745347 -0.000606221 4.66624e-05)
(-0.000742385 -0.000605201 2.89628e-05)
(-0.000738871 -0.000603412 9.8718e-06)
(-0.000149237 -7.81583e-05 -8.63067e-07)
(-0.000186968 -0.000163241 -8.05993e-05)
(-0.000290204 -0.000304107 -5.22711e-05)
(-0.000349556 -0.000395232 -1.11857e-05)
(-0.000415237 -0.000471668 3.25224e-05)
(-0.000475227 -0.000521619 7.32166e-05)
(-0.000531501 -0.00055408 0.000106682)
(-0.000578683 -0.000571042 0.000132643)
(-0.000620722 -0.000581641 0.000154362)
(-0.000657088 -0.000587182 0.000173066)
(-0.000687249 -0.000587862 0.000188247)
(-0.000710302 -0.000584069 0.000199011)
(-0.000727191 -0.000577953 0.000205663)
(-0.000741096 -0.000572758 0.000209253)
(-0.000754479 -0.000570979 0.00021046)
(-0.000764049 -0.000570598 0.00020849)
(-0.000766136 -0.000568549 0.000202874)
(-0.000768793 -0.000569369 0.000196135)
(-0.000767909 -0.000569257 0.000187411)
(-0.000771341 -0.000573214 0.000178708)
(-0.000770812 -0.000575222 0.000168353)
(-0.000775595 -0.000581133 0.000158315)
(-0.00078738 -0.000591871 0.000148744)
(-0.000803964 -0.00060577 0.000138834)
(-0.000802975 -0.000607315 0.00012503)
(-0.000800157 -0.000608447 0.000110672)
(-0.000800373 -0.000611478 9.60621e-05)
(-0.000796841 -0.000611697 8.03471e-05)
(-0.000798143 -0.000615454 6.45774e-05)
(-0.000790511 -0.000612048 4.75267e-05)
(-0.000787478 -0.000611402 2.95488e-05)
(-0.000784136 -0.000610145 1.00843e-05)
(-0.000140058 -5.9078e-05 1.4372e-05)
(-0.000189444 -0.000141882 -8.07733e-05)
(-0.000291765 -0.000272016 -5.91132e-05)
(-0.000352306 -0.000362826 -2.24887e-05)
(-0.000419738 -0.000441857 1.88319e-05)
(-0.000482988 -0.000496625 5.90342e-05)
(-0.000542207 -0.000533398 9.27511e-05)
(-0.000593904 -0.000556085 0.000120102)
(-0.000641436 -0.000572475 0.000143951)
(-0.000680424 -0.000580435 0.000164216)
(-0.000713858 -0.000583588 0.000181005)
(-0.000739844 -0.000581648 0.000193238)
(-0.000761205 -0.000578161 0.000201656)
(-0.000778857 -0.000574542 0.000206638)
(-0.000793861 -0.000572331 0.000208531)
(-0.000805395 -0.000571595 0.00020738)
(-0.000807835 -0.000568676 0.00020229)
(-0.000811293 -0.000569306 0.00019609)
(-0.000811515 -0.000569729 0.00018798)
(-0.000814675 -0.000573401 0.000179508)
(-0.000813832 -0.000575388 0.000169408)
(-0.000819761 -0.000582114 0.000159799)
(-0.000831334 -0.00059256 0.000150266)
(-0.000847092 -0.000605636 0.000140179)
(-0.00084272 -0.000605624 0.000125982)
(-0.000843163 -0.000609672 0.000112157)
(-0.000844824 -0.000614258 9.76404e-05)
(-0.000841144 -0.000615095 8.17592e-05)
(-0.000843095 -0.000619777 6.58276e-05)
(-0.00083616 -0.000617674 4.85884e-05)
(-0.000833286 -0.000617643 3.02754e-05)
(-0.00082922 -0.000616283 1.03357e-05)
(-0.000139986 -4.58499e-05 2.86909e-05)
(-0.000187989 -0.000118643 -7.80279e-05)
(-0.000288254 -0.000237169 -6.50125e-05)
(-0.000349969 -0.000326874 -3.32852e-05)
(-0.000417937 -0.000407338 4.58938e-06)
(-0.000483846 -0.000466495 4.36233e-05)
(-0.000547709 -0.000509325 7.76767e-05)
(-0.000604006 -0.000537524 0.000106319)
(-0.000654194 -0.000556791 0.000131526)
(-0.000698316 -0.000569044 0.000153783)
(-0.000735611 -0.000574889 0.000172258)
(-0.000765446 -0.000575347 0.000186214)
(-0.000789352 -0.000572906 0.000195954)
(-0.000809971 -0.000570331 0.000202197)
(-0.000828695 -0.000569512 0.000205427)
(-0.000841039 -0.000568213 0.000204925)
(-0.000844236 -0.000564823 0.000200568)
(-0.000848447 -0.000565176 0.000195067)
(-0.000849927 -0.000566104 0.000187757)
(-0.00085421 -0.000570422 0.000179964)
(-0.00085587 -0.000574288 0.000170772)
(-0.000864678 -0.000582963 0.000161936)
(-0.000875435 -0.000592851 0.000152339)
(-0.00088984 -0.000605009 0.000141999)
(-0.000881231 -0.00060327 0.000127299)
(-0.000883827 -0.000609187 0.000113774)
(-0.000883811 -0.00061299 9.89507e-05)
(-0.00087938 -0.000613967 8.28838e-05)
(-0.000880805 -0.000618603 6.67518e-05)
(-0.000873588 -0.000616981 4.93532e-05)
(-0.000870399 -0.000617172 3.0806e-05)
(-0.000866517 -0.000616376 1.05329e-05)
(-0.00015166 -3.61183e-05 4.63141e-05)
(-0.00018818 -9.80359e-05 -7.48306e-05)
(-0.000280256 -0.000201087 -6.94168e-05)
(-0.000340417 -0.000286642 -4.28132e-05)
(-0.00040888 -0.000368357 -9.67786e-06)
(-0.000478143 -0.000432703 2.73825e-05)
(-0.000545006 -0.000480132 6.12574e-05)
(-0.000605596 -0.000513385 9.09095e-05)
(-0.000662674 -0.000538767 0.000118051)
(-0.000710673 -0.000553767 0.000141865)
(-0.000752239 -0.000562231 0.000162033)
(-0.000785852 -0.000564734 0.000177673)
(-0.000814917 -0.000565074 0.000189419)
(-0.000839795 -0.000564408 0.000197354)
(-0.000859647 -0.000563316 0.00020144)
(-0.000873451 -0.000562165 0.000201913)
(-0.000878402 -0.000559351 0.000198685)
(-0.000884255 -0.000560244 0.00019422)
(-0.000887154 -0.000561834 0.000187826)
(-0.000891307 -0.000565962 0.000180509)
(-0.000892229 -0.000569424 0.000171608)
(-0.000900759 -0.000577764 0.000163004)
(-0.000909992 -0.00058664 0.000153335)
(-0.000922358 -0.000597523 0.000142764)
(-0.000911213 -0.000595376 0.000127937)
(-0.00091634 -0.000603046 0.000114793)
(-0.00091833 -0.000608526 0.000100146)
(-0.000913348 -0.000609821 8.39361e-05)
(-0.000915193 -0.000615029 6.76917e-05)
(-0.000908717 -0.00061457 5.01958e-05)
(-0.000905454 -0.000615174 3.14053e-05)
(-0.000900823 -0.000614294 1.07448e-05)
(-0.000161499 -2.44879e-05 6.56228e-05)
(-0.000183051 -7.69104e-05 -6.87851e-05)
(-0.000267397 -0.000164511 -7.14118e-05)
(-0.000325379 -0.000244888 -5.04432e-05)
(-0.000392105 -0.000325542 -2.32543e-05)
(-0.000462556 -0.000393252 1.06209e-05)
(-0.000534077 -0.000446906 4.38679e-05)
(-0.000600673 -0.000486476 7.44076e-05)
(-0.000660583 -0.000514288 0.000102523)
(-0.000714507 -0.000533244 0.000128031)
(-0.000761261 -0.000544555 0.000149913)
(-0.000800204 -0.000549836 0.000167496)
(-0.000832434 -0.000551349 0.000180798)
(-0.000859681 -0.000551343 0.000190098)
(-0.000883024 -0.000551747 0.000195795)
(-0.00089817 -0.000550887 0.000197427)
(-0.000904682 -0.000548707 0.00019545)
(-0.000911601 -0.00054991 0.000192041)
(-0.000915664 -0.000552038 0.000186636)
(-0.000921097 -0.000556864 0.000180209)
(-0.000924334 -0.000561791 0.000172272)
(-0.000934234 -0.000570808 0.000164251)
(-0.000942039 -0.00057886 0.000154566)
(-0.000952532 -0.000588755 0.000143824)
(-0.000938381 -0.00058608 0.000128802)
(-0.000944287 -0.000594135 0.000115778)
(-0.000944414 -0.000598652 0.000100892)
(-0.000938364 -0.000599994 8.45707e-05)
(-0.000939227 -0.0006048 6.81979e-05)
(-0.000932366 -0.000604697 5.06661e-05)
(-0.000928492 -0.00060538 3.17668e-05)
(-0.000924057 -0.00060508 1.08893e-05)
(-0.000182814 -1.2302e-05 9.34394e-05)
(-0.000181156 -5.92965e-05 -6.34096e-05)
(-0.000250658 -0.000129167 -7.07193e-05)
(-0.000301707 -0.000200474 -5.48715e-05)
(-0.000366131 -0.00027869 -3.50569e-05)
(-0.000438765 -0.000350573 -5.83102e-06)
(-0.00051289 -0.00040887 2.57793e-05)
(-0.000583011 -0.000452791 5.63069e-05)
(-0.000651201 -0.000487179 8.57192e-05)
(-0.000710588 -0.0005093 0.000112602)
(-0.000762851 -0.000523098 0.000136121)
(-0.000806184 -0.000529952 0.000155351)
(-0.000843897 -0.000533877 0.000170694)
(-0.000876084 -0.000536073 0.000182037)
(-0.000900798 -0.000536665 0.00018908)
(-0.000917797 -0.000536529 0.000192209)
(-0.000926941 -0.000535688 0.000191884)
(-0.000935774 -0.000537766 0.000189836)
(-0.000940985 -0.000540462 0.000185513)
(-0.000946127 -0.000545064 0.000179752)
(-0.000947874 -0.000549156 0.000172139)
(-0.000955915 -0.000556946 0.000164244)
(-0.000961351 -0.000563751 0.000154534)
(-0.000969187 -0.000572344 0.000143661)
(-0.000953824 -0.00057034 0.000128822)
(-0.000960604 -0.000578695 0.000116013)
(-0.000962839 -0.00058463 0.000101411)
(-0.000955753 -0.00058615 8.50269e-05)
(-0.000956617 -0.000591179 6.8637e-05)
(-0.000950281 -0.000592009 5.11537e-05)
(-0.000945913 -0.000592924 3.21622e-05)
(-0.000940608 -0.000592528 1.10367e-05)
(-0.000190145 3.04109e-06 0.000118047)
(-0.000177118 -4.29394e-05 -5.69442e-05)
(-0.000230751 -9.66379e-05 -6.69568e-05)
(-0.00027465 -0.000158154 -5.60539e-05)
(-0.000332697 -0.000230127 -4.40499e-05)
(-0.000402624 -0.000302188 -2.09777e-05)
(-0.000479942 -0.000365728 7.65602e-06)
(-0.000557185 -0.000416906 3.75523e-05)
(-0.000628344 -0.0004539 6.70312e-05)
(-0.000694457 -0.00048006 9.50477e-05)
(-0.000753163 -0.000496653 0.000120161)
(-0.000803412 -0.000506112 0.000141415)
(-0.000845178 -0.000510975 0.000158456)
(-0.000879392 -0.000513431 0.000171325)
(-0.000907779 -0.000515655 0.000180398)
(-0.000927119 -0.000516596 0.00018534)
(-0.000938513 -0.000516905 0.000186769)
(-0.00094848 -0.000519501 0.000186106)
(-0.000954462 -0.000522628 0.000182967)
(-0.000960664 -0.000527814 0.000178292)
(-0.000964186 -0.000532984 0.000171719)
(-0.000971982 -0.000540617 0.000164314)
(-0.000975409 -0.000546604 0.000154687)
(-0.00098104 -0.000554353 0.000143792)
(-0.000963765 -0.000552691 0.000129017)
(-0.000968939 -0.000559882 0.000116104)
(-0.000968645 -0.000564272 0.000101308)
(-0.00096013 -0.000565871 8.49286e-05)
(-0.000959408 -0.000570147 6.85168e-05)
(-0.000952313 -0.000571107 5.11753e-05)
(-0.000946886 -0.000571981 3.22657e-05)
(-0.000941575 -0.000572076 1.10975e-05)
(-0.00019495 1.90143e-05 0.000143468)
(-0.000178959 -2.93914e-05 -5.2148e-05)
(-0.000207827 -6.81051e-05 -6.02964e-05)
(-0.000238003 -0.000115684 -5.2121e-05)
(-0.00028932 -0.000179389 -4.83897e-05)
(-0.000358008 -0.000251875 -3.35184e-05)
(-0.00043583 -0.000318647 -9.54241e-06)
(-0.000514392 -0.000373019 1.81495e-05)
(-0.00059471 -0.00041743 4.72858e-05)
(-0.00066758 -0.000447775 7.58653e-05)
(-0.000733309 -0.000467515 0.000102388)
(-0.000788859 -0.000478218 0.000125358)
(-0.000836688 -0.000484597 0.000144556)
(-0.000877006 -0.000488998 0.000159802)
(-0.000907477 -0.000491605 0.000170676)
(-0.000929047 -0.000493527 0.000177619)
(-0.000943378 -0.000495348 0.000181168)
(-0.000955069 -0.000498828 0.000182197)
(-0.000961619 -0.00050236 0.000180356)
(-0.000966933 -0.000507128 0.000176522)
(-0.00096777 -0.000511026 0.000170286)
(-0.000972211 -0.000516989 0.000162958)
(-0.000972605 -0.000521803 0.000153382)
(-0.000975019 -0.000528271 0.000142456)
(-0.000957314 -0.000527815 0.000128069)
(-0.000961487 -0.000534391 0.000115228)
(-0.000962626 -0.000539655 0.000100785)
(-0.000952585 -0.000541479 8.44806e-05)
(-0.000951308 -0.00054578 6.81963e-05)
(-0.00094427 -0.000547372 5.11208e-05)
(-0.000937811 -0.000548399 3.23493e-05)
(-0.000931351 -0.000548308 1.11439e-05)
(-0.000186745 3.26814e-05 0.000158847)
(-0.000181305 -1.68679e-05 -4.72706e-05)
(-0.000183867 -4.49917e-05 -5.15616e-05)
(-0.000205243 -8.10392e-05 -4.55343e-05)
(-0.000242329 -0.000131724 -4.77589e-05)
(-0.000300525 -0.000197278 -4.15502e-05)
(-0.000377039 -0.000265724 -2.4388e-05)
(-0.000462657 -0.000327619 -5.4263e-07)
(-0.00054505 -0.000374762 2.66603e-05)
(-0.000625131 -0.000410026 5.49715e-05)
(-0.000698069 -0.000433431 8.23759e-05)
(-0.000762219 -0.000447672 0.000107347)
(-0.000815777 -0.000455228 0.000128668)
(-0.000858315 -0.00045913 0.000145733)
(-0.000892844 -0.000462774 0.00015903)
(-0.000917627 -0.000465513 0.000168332)
(-0.000934201 -0.00046802 0.000173933)
(-0.000946441 -0.000471817 0.000176569)
(-0.000953036 -0.000475638 0.000176123)
(-0.000958732 -0.000480767 0.00017351)
(-0.000960449 -0.00048561 0.000168361)
(-0.000963282 -0.00049139 0.000161511)
(-0.000961071 -0.000495779 0.000152126)
(-0.000960784 -0.000501696 0.000141323)
(-0.00094152 -0.00050168 0.000127133)
(-0.000941629 -0.000506457 0.000113986)
(-0.000939058 -0.000509773 9.94147e-05)
(-0.000927211 -0.000511681 8.32897e-05)
(-0.000923649 -0.000515036 6.71486e-05)
(-0.000915286 -0.000516394 5.04722e-05)
(-0.000907243 -0.000517311 3.20658e-05)
(-0.000900351 -0.000517454 1.10774e-05)
(-0.000171802 4.18591e-05 0.000163418)
(-0.000184191 -5.57637e-06 -4.26267e-05)
(-0.000158525 -2.7407e-05 -4.14004e-05)
(-0.000157347 -4.80476e-05 -3.27771e-05)
(-0.000186239 -8.5761e-05 -4.01234e-05)
(-0.000238144 -0.000144575 -4.38858e-05)
(-0.000309439 -0.000211426 -3.54958e-05)
(-0.000390794 -0.000273125 -1.74292e-05)
(-0.000482499 -0.000328463 6.36266e-06)
(-0.000569594 -0.000368897 3.33445e-05)
(-0.000650745 -0.000397024 6.11233e-05)
(-0.00072073 -0.000413641 8.74102e-05)
(-0.000780868 -0.000423411 0.000110952)
(-0.000831105 -0.000429671 0.000130917)
(-0.000868743 -0.000433487 0.000146618)
(-0.000895867 -0.000436382 0.000158293)
(-0.000914969 -0.000439566 0.0001662)
(-0.000928249 -0.000443804 0.000170719)
(-0.000934516 -0.000447792 0.00017173)
(-0.000938074 -0.000452325 0.000170012)
(-0.000935482 -0.000455717 0.000165146)
(-0.000933719 -0.000460105 0.000158377)
(-0.000927909 -0.000463738 0.000149139)
(-0.000923606 -0.000468558 0.000138415)
(-0.000903808 -0.000469285 0.000124654)
(-0.000901688 -0.000473594 0.000111545)
(-0.000899199 -0.000477154 9.73893e-05)
(-0.000885437 -0.000479049 8.15219e-05)
(-0.000880716 -0.000482127 6.57058e-05)
(-0.000871805 -0.000483686 4.96021e-05)
(-0.000862125 -0.000484525 3.16725e-05)
(-0.000853729 -0.000484336 1.09658e-05)
(-0.000151299 4.47935e-05 0.000154203)
(-0.000180814 4.07607e-06 -3.73004e-05)
(-0.000131976 -1.51683e-05 -3.08029e-05)
(-0.00013024 -2.8834e-05 -2.23351e-05)
(-0.000135947 -4.99744e-05 -2.88902e-05)
(-0.000166196 -9.18739e-05 -3.83744e-05)
(-0.000226813 -0.000151839 -3.9917e-05)
(-0.000312957 -0.000219264 -3.11037e-05)
(-0.000402819 -0.000275514 -1.25964e-05)
(-0.000497347 -0.000322003 1.17526e-05)
(-0.000585688 -0.000354849 3.89612e-05)
(-0.000665203 -0.000376715 6.64648e-05)
(-0.00073197 -0.000389459 9.20006e-05)
(-0.00078442 -0.000395988 0.000114012)
(-0.00082633 -0.000400795 0.000132379)
(-0.000857146 -0.000404427 0.000146709)
(-0.00087783 -0.000407871 0.000156857)
(-0.000890612 -0.000411861 0.000163128)
(-0.000895894 -0.000415763 0.000165606)
(-0.000898701 -0.000420502 0.000165152)
(-0.000895962 -0.000424671 0.000161371)
(-0.000891504 -0.000428923 0.000155015)
(-0.000882386 -0.000432122 0.000145961)
(-0.000874459 -0.000436299 0.000135391)
(-0.000852609 -0.000436962 0.000121813)
(-0.000844572 -0.000439229 0.000108268)
(-0.000836801 -0.000440329 9.40251e-05)
(-0.000820839 -0.000441732 7.85582e-05)
(-0.000813142 -0.000443416 6.31361e-05)
(-0.000802327 -0.00044418 4.78254e-05)
(-0.000790491 -0.00044447 3.07075e-05)
(-0.00078116 -0.00044417 1.06682e-05)
(-0.000132387 4.28398e-05 0.000136108)
(-0.000174828 1.09704e-05 -3.24084e-05)
(-0.000115595 -8.50371e-06 -2.29792e-05)
(-8.66638e-05 -1.28116e-05 -9.33765e-06)
(-6.9972e-05 -1.81403e-05 -1.19405e-05)
(-9.94178e-05 -4.84504e-05 -2.67989e-05)
(-0.000146281 -9.75246e-05 -3.79796e-05)
(-0.00021428 -0.000154838 -3.82615e-05)
(-0.000312869 -0.000219647 -2.83368e-05)
(-0.000412418 -0.000271086 -8.19765e-06)
(-0.000509429 -0.000310291 1.77287e-05)
(-0.000594118 -0.000335664 4.55204e-05)
(-0.000666774 -0.000351887 7.25232e-05)
(-0.000727256 -0.000362526 9.70886e-05)
(-0.000772498 -0.000368616 0.000117871)
(-0.000804934 -0.000372621 0.000134533)
(-0.00082707 -0.000376534 0.000146996)
(-0.000839922 -0.000380728 0.000155241)
(-0.00084385 -0.000384507 0.000159196)
(-0.000842738 -0.000388173 0.000159448)
(-0.000833639 -0.000390407 0.000155623)
(-0.000823337 -0.000393085 0.000149129)
(-0.000809953 -0.000395184 0.000140146)
(-0.000796943 -0.00039779 0.000129616)
(-0.000773762 -0.000398209 0.000116439)
(-0.00076338 -0.000400191 0.000103072)
(-0.000754521 -0.000401002 8.93892e-05)
(-0.000736814 -0.000401685 7.44932e-05)
(-0.000727779 -0.000402684 5.97642e-05)
(-0.000716056 -0.000402951 4.55153e-05)
(-0.000702313 -0.000402622 2.94345e-05)
(-0.00069138 -0.000401701 1.02586e-05)
(-0.000115656 3.7414e-05 0.000111572)
(-0.000161496 1.40626e-05 -2.76127e-05)
(-0.000109696 -5.39849e-06 -1.78568e-05)
(-6.99123e-05 -6.566e-06 -1.3763e-06)
(-4.34173e-05 -6.01091e-06 -1.9266e-06)
(-3.15585e-05 -1.25631e-05 -8.28808e-06)
(-5.41034e-05 -3.84073e-05 -2.22957e-05)
(-0.000124594 -9.79389e-05 -4.01442e-05)
(-0.000208463 -0.000155477 -3.84778e-05)
(-0.000314725 -0.000214408 -2.40803e-05)
(-0.000416657 -0.000258831 -6.43998e-07)
(-0.000510287 -0.000291196 2.66762e-05)
(-0.000588632 -0.000311873 5.42408e-05)
(-0.000649588 -0.000323812 7.96727e-05)
(-0.000697914 -0.000332036 0.000102239)
(-0.000733118 -0.000337767 0.000121067)
(-0.000755224 -0.000342115 0.000135449)
(-0.000765836 -0.000345913 0.000145192)
(-0.000767087 -0.000349211 0.000150327)
(-0.000763513 -0.000352647 0.000151499)
(-0.000753685 -0.000355571 0.000148575)
(-0.000740492 -0.000357935 0.000142323)
(-0.000723635 -0.000359035 0.000133426)
(-0.000706378 -0.000360231 0.000123)
(-0.000680436 -0.000359324 0.000109923)
(-0.000663763 -0.000358691 9.61594e-05)
(-0.000648766 -0.000356337 8.25387e-05)
(-0.000628554 -0.000355305 6.83768e-05)
(-0.000616314 -0.000354262 5.45231e-05)
(-0.000602468 -0.00035295 4.1691e-05)
(-0.000586262 -0.00035124 2.71615e-05)
(-0.000574087 -0.000349629 9.50504e-06)
(-0.000101533 3.07095e-05 8.55051e-05)
(-0.000149372 1.47232e-05 -2.45144e-05)
(-0.000103637 -3.28276e-06 -1.34421e-05)
(-6.04995e-05 -2.69779e-06 5.03629e-06)
(-2.7157e-05 1.16517e-06 6.40786e-06)
(-7.02452e-06 -3.30213e-07 7.34909e-07)
(-4.39825e-06 -6.88719e-06 -9.44773e-06)
(-2.12024e-05 -2.22436e-05 -1.76096e-05)
(-0.000112445 -9.2668e-05 -4.10048e-05)
(-0.000211949 -0.000153063 -3.24882e-05)
(-0.000319147 -0.000205611 -1.25142e-05)
(-0.000413109 -0.000241771 1.24668e-05)
(-0.000494423 -0.000266994 3.86765e-05)
(-0.000562319 -0.000284599 6.42724e-05)
(-0.000612543 -0.000295177 8.75346e-05)
(-0.00064735 -0.000301851 0.000107483)
(-0.000668975 -0.000307007 0.000123402)
(-0.000678282 -0.00031124 0.000134627)
(-0.000677005 -0.000314391 0.000140789)
(-0.000667836 -0.000316342 0.000142015)
(-0.000649662 -0.000316306 0.000138191)
(-0.000629604 -0.000316024 0.000131185)
(-0.000607942 -0.000314841 0.000122069)
(-0.000585093 -0.000313222 0.000111563)
(-0.000557119 -0.000310586 9.88489e-05)
(-0.000539619 -0.000309525 8.57511e-05)
(-0.000523974 -0.000306523 7.31578e-05)
(-0.000503404 -0.000304282 6.02006e-05)
(-0.000490666 -0.000302295 4.77759e-05)
(-0.000476368 -0.00029995 3.67916e-05)
(-0.000458968 -0.000297108 2.42337e-05)
(-0.000445758 -0.00029461 8.52278e-06)
(-7.88286e-05 2.29645e-05 5.75059e-05)
(-0.000130794 1.47109e-05 -2.13062e-05)
(-9.91557e-05 -6.28276e-07 -1.19083e-05)
(-5.50242e-05 1.92531e-06 7.94187e-06)
(-1.56338e-05 8.21504e-06 9.23203e-06)
(1.4319e-05 1.15963e-05 2.84109e-06)
(1.95168e-05 1.06707e-05 -2.20998e-06)
(7.06273e-06 2.11452e-06 -1.20076e-05)
(-2.1837e-05 -1.91751e-05 -1.66305e-05)
(-0.000115473 -8.89048e-05 -2.63354e-05)
(-0.000211456 -0.00014456 -1.23457e-05)
(-0.000308579 -0.000189634 6.69534e-06)
(-0.000391199 -0.000220125 2.8282e-05)
(-0.00045556 -0.000239127 5.06324e-05)
(-0.000506765 -0.00025251 7.27515e-05)
(-0.000542739 -0.000261544 9.29489e-05)
(-0.00056213 -0.000267207 0.000109373)
(-0.000566866 -0.000270701 0.000120883)
(-0.000560543 -0.000272664 0.000127046)
(-0.000547092 -0.000273632 0.000128089)
(-0.00052884 -0.000274178 0.00012463)
(-0.000507303 -0.000273238 0.00011757)
(-0.000483594 -0.000270446 0.000108507)
(-0.000457759 -0.000266606 9.81746e-05)
(-0.000427443 -0.000261458 8.55651e-05)
(-0.000404998 -0.000256806 7.24227e-05)
(-0.000384363 -0.000249844 6.0371e-05)
(-0.000361194 -0.000244186 4.86662e-05)
(-0.000346073 -0.000239424 3.8028e-05)
(-0.000330334 -0.000234738 2.93835e-05)
(-0.000310892 -0.000229302 1.95252e-05)
(-0.000296788 -0.000225379 6.89897e-06)
(-5.24917e-05 1.55424e-05 3.52962e-05)
(-0.000113649 1.40841e-05 -1.84543e-05)
(-9.45628e-05 1.49307e-06 -1.28118e-05)
(-5.0858e-05 4.87379e-06 9.07217e-06)
(-2.01023e-06 8.48246e-06 1.16849e-05)
(1.82574e-05 1.27633e-05 1.01217e-05)
(1.91195e-05 1.14638e-05 1.11495e-05)
(1.17547e-05 6.99994e-06 1.16831e-05)
(-3.80008e-06 -5.16327e-06 6.11372e-06)
(-3.80905e-05 -3.3682e-05 3.12724e-06)
(-0.000115468 -9.0298e-05 4.34644e-06)
(-0.000194247 -0.000133605 1.12979e-05)
(-0.000273654 -0.000167997 2.37708e-05)
(-0.000344247 -0.000193959 4.08296e-05)
(-0.000395567 -0.000209828 5.98254e-05)
(-0.000428519 -0.000219403 7.84806e-05)
(-0.000445398 -0.000225639 9.45397e-05)
(-0.00044764 -0.000229454 0.000106074)
(-0.000438127 -0.000231084 0.000111958)
(-0.000418904 -0.000230046 0.000111613)
(-0.00039123 -0.000225658 0.000105466)
(-0.000362956 -0.000219991 9.65478e-05)
(-0.000334772 -0.000212829 8.67403e-05)
(-0.000304432 -0.000204219 7.6148e-05)
(-0.000273108 -0.000195707 6.41139e-05)
(-0.000253029 -0.000190458 5.28579e-05)
(-0.000235619 -0.000183467 4.31017e-05)
(-0.000215793 -0.000177101 3.38086e-05)
(-0.000202759 -0.000171756 2.59251e-05)
(-0.0001886 -0.000166141 2.02725e-05)
(-0.00017065 -0.000159574 1.38187e-05)
(-0.000157115 -0.000154581 4.94142e-06)
(-3.13921e-05 1.04238e-05 2.37211e-05)
(-8.36145e-05 1.08378e-05 -1.36595e-05)
(-9.2586e-05 4.16529e-06 -1.80612e-05)
(-5.96459e-05 5.11869e-06 5.66475e-06)
(-9.22688e-06 1.56674e-05 1.8857e-05)
(1.0073e-05 2.03393e-05 2.14348e-05)
(2.4849e-05 1.91592e-05 2.4941e-05)
(3.51971e-05 1.22072e-05 3.21418e-05)
(2.71507e-05 2.48875e-07 3.09121e-05)
(1.53911e-05 -1.37346e-05 3.25934e-05)
(-1.50796e-05 -3.6873e-05 2.68283e-05)
(-8.06955e-05 -8.27663e-05 2.40119e-05)
(-0.000156018 -0.000118018 2.36332e-05)
(-0.000217629 -0.000141714 3.18426e-05)
(-0.000268484 -0.000159536 4.60625e-05)
(-0.000302052 -0.000171351 6.22463e-05)
(-0.000314984 -0.00017729 7.62874e-05)
(-0.000310578 -0.000178982 8.55667e-05)
(-0.000293763 -0.000177504 8.88078e-05)
(-0.000269292 -0.000173461 8.5959e-05)
(-0.000245097 -0.000169555 7.95664e-05)
(-0.000220284 -0.000163327 7.07404e-05)
(-0.0001954 -0.000154892 6.16591e-05)
(-0.000167772 -0.000144318 5.19904e-05)
(-0.000138183 -0.000132732 4.05881e-05)
(-0.000116913 -0.000122538 3.01395e-05)
(-9.70407e-05 -0.000109645 2.16485e-05)
(-7.63951e-05 -9.72334e-05 1.45685e-05)
(-6.38849e-05 -8.80481e-05 1.00266e-05)
(-5.09346e-05 -7.88825e-05 7.68896e-06)
(-3.44749e-05 -6.67886e-05 5.09392e-06)
(-2.3498e-05 -5.81981e-05 1.79445e-06)
(-2.47991e-06 6.25549e-06 1.55391e-05)
(-4.33364e-05 7.43757e-06 -1.00005e-05)
(-7.26871e-05 6.75708e-06 -2.50351e-05)
(-7.36921e-05 9.15682e-06 -2.02234e-05)
(-5.42727e-05 1.76955e-05 -8.0635e-06)
(-3.00296e-05 2.66269e-05 6.61093e-06)
(-4.87694e-06 5.53849e-05 1.28369e-05)
(2.28023e-05 3.77172e-05 5.66215e-06)
(4.5397e-05 2.86999e-05 1.32205e-05)
(5.15856e-05 1.14468e-05 2.01992e-05)
(3.99262e-05 -5.82013e-06 2.01816e-05)
(1.49361e-05 -1.9248e-05 1.63075e-05)
(-3.15628e-05 -5.56513e-05 1.82783e-05)
(-0.00010119 -9.21189e-05 2.3817e-05)
(-0.000151601 -0.000111683 3.3027e-05)
(-0.000179208 -0.000121601 4.50325e-05)
(-0.00018818 -0.000126659 5.61176e-05)
(-0.000181599 -0.000127863 6.30657e-05)
(-0.000163496 -0.000125513 6.39618e-05)
(-0.000137506 -0.000118974 5.78619e-05)
(-0.000106335 -0.000105873 4.57442e-05)
(-7.80737e-05 -9.02075e-05 3.34162e-05)
(-5.22901e-05 -7.18478e-05 2.25864e-05)
(-2.71342e-05 -4.95676e-05 1.23024e-05)