/*--------------------------------*- C++ -*----------------------------------*\
  =========                 |
  \\      /  F ield         | OpenFOAM: The Open Source CFD Toolbox
   \\    /   O peration     | Website:  https://openfoam.org
    \\  /    A nd           | Version:  6
     \\/     M anipulation  |
\*---------------------------------------------------------------------------*/
FoamFile
{
    version     2.0;
    format      ascii;
    class       volScalarField;
    location    "13";
    object      omega;
}
// * * * * * * * * * * * * * * * * * * * * * * * * * * * * * * * * * * * * * //

dimensions      [0 0 -1 0 0 0 0];

internalField   nonuniform List<scalar> 
380496
(
843.917
843.917
843.917
843.917
843.917
843.917
843.917
843.917
843.917
843.917
843.917
843.917
843.917
843.917
843.917
843.917
843.917
843.917
843.917
843.917
843.917
843.917
843.917
843.917
843.917
843.917
843.917
843.917
843.917
843.917
843.917
843.917
843.917
843.917
843.917
843.917
843.917
843.917
843.917
843.917
843.917
843.917
843.917
843.917
843.917
843.917
843.917
843.917
843.917
843.917
843.917
843.917
843.917
843.917
843.917
843.917
843.917
843.917
843.917
843.917
843.917
843.917
843.917
843.917
843.917
843.917
843.917
843.917
843.917
843.917
843.917
843.917
843.917
843.917
843.917
843.917
843.917
843.917
843.917
843.917
843.917
843.917
843.917
843.917
843.917
843.917
843.917
843.917
843.917
843.917
843.917
843.917
843.917
843.917
843.917
843.917
843.917
843.917
843.917
843.917
843.917
843.917
843.917
843.917
843.917
843.917
843.917
843.917
843.917
843.917
843.917
843.917
843.917
843.917
843.917
843.917
843.917
843.917
843.917
843.917
843.917
843.917
843.917
843.917
843.917
843.917
843.917
843.917
843.917
843.917
843.917
843.917
843.917
843.917
843.917
843.917
843.917
843.917
843.917
843.917
843.917
843.917
843.917
843.917
843.917
843.917
843.917
843.917
843.917
843.917
843.917
843.917
843.917
843.917
843.917
843.917
843.917
843.917
843.917
843.917
843.917
843.917
843.917
843.917
843.917
843.917
843.917
843.917
843.917
843.917
843.917
843.917
843.917
843.917
843.917
843.917
843.917
843.917
843.917
843.917
843.917
843.917
843.917
843.917
843.917
843.917
843.917
843.917
843.917
843.917
843.917
843.917
843.917
843.917
843.917
843.917
843.917
843.917
843.917
843.917
843.917
843.917
843.917
843.917
843.917
843.917
843.917
843.917
843.917
843.917
843.917
843.917
843.917
843.917
843.917
843.917
843.917
843.917
843.917
843.917
843.917
843.917
843.917
843.917
843.917
843.917
843.917
843.917
843.917
843.917
843.917
843.917
843.917
843.917
843.917
843.917
843.917
843.917
843.917
843.917
843.917
843.917
843.917
843.917
843.917
843.917
843.917
843.917
843.917
843.917
843.917
843.917
843.917
843.917
843.917
843.917
843.917
843.917
843.917
843.917
843.917
843.917
843.917
843.917
843.917
843.917
843.917
843.917
843.917
843.917
843.917
843.917
843.917
843.917
843.917
843.917
843.917
843.917
843.917
843.917
843.917
843.917
843.917
843.917
843.917
843.917
843.917
843.917
843.917
843.917
843.917
843.917
843.917
843.917
843.917
843.917
843.917
843.917
843.917
843.917
843.917
843.917
843.917
843.917
843.917
843.917
843.917
843.917
843.917
843.917
843.917
843.917
843.917
843.917
843.917
843.917
843.917
843.917
843.917
843.917
843.917
843.917
843.917
843.917
843.917
843.917
843.917
843.917
843.917
843.917
843.917
843.917
843.917
843.917
843.917
843.917
843.917
843.917
843.917
843.917
843.917
843.917
843.917
843.917
843.917
843.917
843.917
843.917
843.917
843.917
843.917
843.917
843.917
843.917
843.917
843.917
843.917
843.917
843.917
843.917
843.917
843.917
843.917
843.917
843.917
843.917
843.917
843.917
843.917
843.917
843.917
843.917
843.917
843.917
843.917
843.917
843.917
843.917
843.917
843.917
843.917
843.917
843.917
843.917
843.917
843.917
843.917
843.917
843.917
843.917
843.917
843.917
843.917
843.917
843.917
843.917
843.917
843.917
843.917
843.917
843.917
843.917
843.917
843.917
843.917
843.917
843.917
843.917
843.917
843.917
843.917
843.917
843.917
843.917
843.917
843.917
843.917
843.917
843.917
843.917
843.917
843.917
843.917
843.917
843.917
843.917
843.917
843.917
843.917
843.917
843.917
843.917
843.917
843.917
843.917
843.917
843.917
843.917
843.917
843.917
843.917
843.917
843.917
843.917
843.917
843.917
843.917
843.917
843.917
843.917
843.917
843.917
843.917
843.917
843.917
843.917
843.917
843.917
843.917
843.917
843.917
843.917
843.917
843.917
843.917
843.917
843.917
843.917
843.917
843.917
843.917
843.917
843.917
843.917
843.917
843.917
843.917
843.917
843.917
843.917
843.917
843.917
843.917
843.917
843.917
843.917
843.917
843.917
843.917
843.917
843.917
843.917
843.917
843.917
843.917
843.917
843.917
843.917
843.917
843.917
843.917
843.917
843.917
843.917
843.917
843.917
843.917
843.917
843.917
843.917
843.917
843.917
843.917
843.917
843.917
843.917
843.917
843.917
843.917
843.917
843.917
843.917
843.917
843.917
843.917
843.917
843.917
843.917
843.917
843.917
843.917
843.917
843.917
843.917
843.917
843.917
843.917
843.917
843.917
843.917
843.917
843.917
843.917
843.917
843.917
843.917
843.917
843.917
843.917
843.917
843.917
843.917
843.917
843.917
843.917
843.917
843.917
843.917
843.917
843.917
843.917
843.917
843.917
843.917
843.917
843.917
843.917
843.917
843.917
843.917
843.917
843.917
843.917
843.917
843.917
843.917
843.917
843.917
843.917
843.917
843.917
843.917
843.917
843.917
843.917
843.917
843.917
843.917
843.917
843.917
843.917
843.917
843.917
843.917
843.917
843.917
843.917
843.917
843.917
843.917
843.917
843.917
843.917
843.917
843.917
843.917
843.917
843.917
843.917
843.917
843.917
843.917
843.917
843.917
843.917
843.917
843.917
843.917
843.917
843.917
843.917
843.917
843.917
843.917
843.917
843.917
843.917
843.917
843.917
843.917
843.917
843.917
843.917
843.917
843.917
843.917
843.917
843.917
843.917
843.917
843.917
843.917
843.917
843.917
843.917
843.917
843.917
843.917
843.917
843.917
843.917
843.917
843.917
843.917
843.917
843.917
843.917
843.917
843.917
843.917
843.917
843.917
843.917
843.917
843.917
843.917
843.917
843.917
843.917
843.917
843.917
843.917
843.917
843.917
843.917
843.917
843.917
843.917
843.917
843.917
843.917
843.917
843.917
843.917
843.917
843.917
843.917
843.917
843.917
843.917
843.917
843.917
843.917
843.917
843.917
843.917
843.917
843.917
843.917
843.917
423.923
423.923
423.923
423.923
423.923
423.923
423.923
423.923
423.923
423.923
423.923
423.923
423.923
423.923
423.923
423.923
423.923
423.923
423.923
423.923
423.923
423.923
423.923
423.923
423.923
423.923
423.923
423.923
423.923
423.923
423.923
423.923
423.923
423.923
423.923
281.629
267.585
268.722
269.803
269.899
269.742
269.634
269.568
269.539
269.515
269.511
269.501
269.509
269.507
269.521
269.525
269.543
269.551
269.571
269.585
269.606
269.628
269.649
269.678
269.701
269.739
269.762
269.808
269.831
269.882
269.906
269.957
269.98
270.029
270.041
281.466
267.57
268.645
269.679
269.749
269.589
269.474
269.412
269.377
269.362
269.352
269.355
269.357
269.371
269.378
269.401
269.411
269.441
269.454
269.49
269.506
269.549
269.57
269.618
269.644
269.697
269.73
269.785
269.824
269.88
269.92
269.975
269.997
270.07
269.984
281.132
267.395
268.471
269.471
269.517
269.35
269.231
269.172
269.138
269.129
269.123
269.135
269.143
269.168
269.183
269.216
269.237
269.279
269.304
269.354
269.385
269.442
269.479
269.544
269.586
269.661
269.707
269.792
269.836
269.932
269.969
270.079
270.086
270.233
270.128
280.564
267.016
268.173
269.148
269.16
268.981
268.859
268.803
268.773
268.771
268.773
268.795
268.812
268.848
268.873
268.92
268.952
269.008
269.046
269.112
269.156
269.232
269.283
269.37
269.426
269.524
269.584
269.693
269.756
269.874
269.932
270.062
270.093
270.259
270.177
280.147
266.78
267.826
268.732
268.725
268.542
268.42
268.365
268.34
268.343
268.352
268.38
268.406
268.451
268.488
268.546
268.59
268.66
268.712
268.793
268.853
268.947
269.014
269.121
269.196
269.317
269.397
269.53
269.614
269.759
269.839
270
270.052
270.26
270.188
279.34
266.188
267.271
268.132
268.094
267.901
267.781
267.732
267.716
267.73
267.751
267.793
267.833
267.891
267.943
268.015
268.076
268.162
268.231
268.33
268.409
268.522
268.61
268.738
268.835
268.978
269.081
269.24
269.347
269.519
269.623
269.815
269.888
270.136
270.074
278.498
265.57
266.59
267.382
267.315
267.116
267
266.956
266.95
266.973
267.006
267.06
267.113
267.185
267.251
267.338
267.416
267.517
267.605
267.722
267.821
267.954
268.063
268.213
268.332
268.5
268.627
268.812
268.944
269.145
269.275
269.498
269.597
269.886
269.839
277.443
264.751
265.706
266.422
266.327
266.124
266.014
265.979
265.984
266.019
266.067
266.133
266.202
266.288
266.371
266.473
266.567
266.686
266.793
266.928
267.047
267.201
267.332
267.505
267.647
267.838
267.99
268.2
268.358
268.587
268.743
268.997
269.122
269.449
269.416
276.189
263.731
264.628
265.265
265.14
264.935
264.834
264.813
264.834
264.885
264.95
265.033
265.119
265.221
265.321
265.44
265.553
265.689
265.815
265.97
266.109
266.283
266.436
266.631
266.796
267.012
267.187
267.423
267.606
267.861
268.043
268.326
268.475
268.839
268.819
274.955
262.703
263.45
263.998
263.853
263.65
263.559
263.548
263.582
263.645
263.723
263.818
263.918
264.033
264.147
264.28
264.409
264.56
264.703
264.875
265.033
265.225
265.398
265.613
265.799
266.036
266.233
266.491
266.697
266.976
267.18
267.49
267.66
268.056
268.046
273.277
261.258
261.955
262.425
262.252
262.055
261.983
261.995
262.053
262.138
262.238
262.353
262.472
262.606
262.739
262.89
263.037
263.206
263.369
263.559
263.737
263.949
264.143
264.378
264.586
264.844
265.065
265.345
265.573
265.876
266.103
266.438
266.629
267.055
267.055
271.66
259.85
260.313
260.679
260.491
260.304
260.247
260.273
260.345
260.444
260.558
260.685
260.818
260.965
261.113
261.277
261.44
261.625
261.804
262.011
262.208
262.438
262.652
262.906
263.135
263.414
263.655
263.957
264.207
264.533
264.782
265.14
265.352
265.806
265.814
269.373
257.804
258.188
258.475
258.271
258.105
258.082
258.143
258.247
258.376
258.516
258.668
258.824
258.991
259.16
259.344
259.528
259.731
259.932
260.157
260.376
260.626
260.861
261.137
261.388
261.688
261.952
262.277
262.549
262.897
263.168
263.55
263.782
264.265
264.28
267.102
255.734
255.826
256.007
255.796
255.653
255.656
255.739
255.865
256.013
256.172
256.341
256.515
256.697
256.884
257.084
257.286
257.506
257.725
257.969
258.207
258.476
258.733
259.028
259.302
259.622
259.909
260.255
260.55
260.92
261.213
261.617
261.869
262.379
262.401
264.032
252.897
252.817
252.922
252.714
252.616
252.668
252.798
252.964
253.146
253.337
253.532
253.731
253.937
254.147
254.367
254.592
254.832
255.074
255.337
255.599
255.888
256.169
256.485
256.782
257.124
257.435
257.803
258.121
258.514
258.83
259.257
259.531
260.066
260.095
260.551
249.612
249.242
249.274
249.084
249.039
249.141
249.318
249.521
249.739
249.958
250.181
250.404
250.633
250.864
251.104
251.35
251.609
251.873
252.155
252.439
252.748
253.052
253.387
253.71
254.072
254.408
254.796
255.14
255.554
255.894
256.342
256.638
257.198
257.234
256.376
245.607
244.858
244.81
244.65
244.675
244.837
245.065
245.304
245.557
245.799
246.048
246.289
246.54
246.787
247.047
247.309
247.587
247.868
248.169
248.474
248.801
249.127
249.482
249.828
250.211
250.573
250.983
251.351
251.792
252.155
252.635
252.953
253.544
253.598
249.996
239.624
238.827
238.831
238.736
238.859
239.106
239.412
239.707
240.011
240.288
240.572
240.834
241.111
241.374
241.656
241.932
242.231
242.528
242.851
243.173
243.524
243.872
244.257
244.631
245.048
245.441
245.888
246.29
246.767
247.166
247.676
248.035
248.646
248.744
240.798
231.461
230.492
230.665
230.742
230.998
231.317
231.654
231.956
232.258
232.523
232.798
233.048
233.321
233.576
233.861
234.134
234.442
234.741
235.076
235.419
235.814
236.204
236.635
237.057
237.519
237.967
238.457
238.921
239.443
239.911
240.468
240.906
241.547
241.771
214.296
212.132
212.394
213.327
213.971
214.718
215.453
216.142
216.761
217.352
217.891
218.426
218.926
219.438
219.923
220.43
220.915
221.429
221.923
222.452
222.96
223.505
224.029
224.589
225.13
225.701
226.257
226.835
227.401
227.977
228.546
229.11
229.676
230.179
230.897
9.02169
7.66464
7.59319
7.56199
7.61687
7.69179
7.78745
7.88408
7.991
8.08983
8.19412
8.2876
8.38607
8.47345
8.56717
8.65008
8.74105
8.82123
8.91161
8.99017
9.08157
9.15868
9.25267
9.32756
9.42601
9.49659
9.60208
9.66445
9.78093
9.82838
9.96229
9.98276
10.1451
10.1115
10.3206
135.248
128.879
128.552
129.046
129.243
129.236
129.184
129.134
129.097
129.069
129.049
129.035
129.027
129.022
129.022
129.024
129.029
129.036
129.046
129.058
129.072
129.089
129.109
129.13
129.157
129.183
129.218
129.25
129.295
129.334
129.388
129.441
129.498
129.579
129.63
135.076
128.679
128.313
128.782
128.967
128.955
128.899
128.848
128.81
128.782
128.763
128.752
128.745
128.744
128.747
128.752
128.762
128.773
128.788
128.805
128.826
128.847
128.874
128.901
128.935
128.968
129.009
129.05
129.099
129.149
129.205
129.268
129.32
129.417
129.423
134.794
128.386
128.005
128.46
128.636
128.619
128.561
128.51
128.472
128.446
128.43
128.422
128.42
128.424
128.432
128.444
128.459
128.478
128.5
128.525
128.554
128.584
128.621
128.657
128.702
128.745
128.8
128.847
128.915
128.967
129.05
129.107
129.199
129.278
129.342
134.361
127.975
127.613
128.065
128.23
128.206
128.144
128.093
128.056
128.034
128.021
128.018
128.022
128.031
128.046
128.064
128.087
128.113
128.143
128.175
128.212
128.251
128.297
128.342
128.396
128.448
128.512
128.57
128.646
128.71
128.798
128.871
128.959
129.065
129.105
134.043
127.65
127.238
127.653
127.802
127.771
127.705
127.651
127.614
127.593
127.582
127.582
127.589
127.602
127.621
127.645
127.673
127.705
127.741
127.78
127.825
127.871
127.925
127.978
128.042
128.102
128.177
128.244
128.33
128.404
128.502
128.584
128.684
128.799
128.854
133.489
127.122
126.721
127.123
127.256
127.217
127.148
127.094
127.059
127.042
127.037
127.042
127.055
127.076
127.101
127.132
127.168
127.207
127.251
127.299
127.352
127.407
127.469
127.532
127.605
127.675
127.758
127.835
127.931
128.013
128.121
128.213
128.319
128.445
128.501
132.924
126.585
126.16
126.53
126.643
126.593
126.52
126.465
126.432
126.417
126.416
126.426
126.445
126.471
126.502
126.54
126.582
126.629
126.68
126.735
126.796
126.86
126.93
127.002
127.083
127.163
127.255
127.341
127.446
127.539
127.655
127.757
127.87
128.009
128.067
132.248
125.942
125.496
125.832
125.923
125.861
125.784
125.729
125.698
125.687
125.691
125.707
125.731
125.764
125.802
125.846
125.895
125.949
126.008
126.071
126.139
126.211
126.29
126.371
126.46
126.549
126.65
126.745
126.858
126.96
127.084
127.196
127.314
127.465
127.523
131.463
125.209
124.747
125.047
125.112
125.038
124.957
124.903
124.876
124.871
124.881
124.904
124.936
124.976
125.021
125.073
125.129
125.191
125.257
125.328
125.405
125.485
125.572
125.661
125.759
125.856
125.965
126.07
126.191
126.302
126.433
126.555
126.678
126.842
126.899
130.701
124.495
123.979
124.226
124.265
124.18
124.095
124.042
124.017
124.016
124.031
124.06
124.096
124.142
124.193
124.251
124.313
124.381
124.454
124.532
124.615
124.702
124.796
124.893
124.998
125.103
125.22
125.332
125.46
125.58
125.717
125.847
125.975
126.149
126.205
129.711
123.569
123.042
123.254
123.265
123.167
123.081
123.032
123.015
123.023
123.047
123.084
123.13
123.184
123.243
123.309
123.379
123.455
123.535
123.621
123.712
123.808
123.909
124.014
124.127
124.24
124.365
124.486
124.621
124.749
124.892
125.032
125.163
125.349
125.403
128.745
122.677
122.06
122.2
122.177
122.067
121.979
121.932
121.919
121.932
121.962
122.004
122.056
122.116
122.181
122.253
122.33
122.413
122.5
122.592
122.69
122.793
122.902
123.014
123.134
123.256
123.387
123.516
123.659
123.794
123.945
124.093
124.228
124.426
124.477
127.448
121.46
120.821
120.917
120.863
120.743
120.658
120.62
120.619
120.644
120.686
120.74
120.803
120.873
120.948
121.029
121.114
121.206
121.301
121.403
121.509
121.62
121.737
121.858
121.987
122.117
122.257
122.394
122.545
122.689
122.847
123.003
123.144
123.353
123.402
126.136
120.247
119.484
119.492
119.399
119.268
119.184
119.153
119.16
119.194
119.245
119.308
119.378
119.456
119.54
119.628
119.722
119.821
119.924
120.034
120.148
120.268
120.393
120.523
120.66
120.798
120.946
121.093
121.251
121.404
121.569
121.735
121.881
122.101
122.148
124.43
118.648
117.81
117.754
117.627
117.489
117.415
117.399
117.423
117.473
117.538
117.615
117.698
117.788
117.882
117.981
118.084
118.193
118.306
118.425
118.549
118.678
118.813
118.952
119.098
119.246
119.404
119.559
119.727
119.889
120.063
120.238
120.39
120.624
120.667
122.481
116.821
115.842
115.701
115.536
115.395
115.332
115.332
115.373
115.439
115.52
115.611
115.707
115.808
115.913
116.022
116.136
116.254
116.377
116.505
116.638
116.776
116.92
117.069
117.224
117.382
117.549
117.715
117.892
118.064
118.246
118.431
118.59
118.837
118.877
120.129
114.623
113.443
113.185
112.974
112.834
112.788
112.809
112.867
112.951
113.045
113.148
113.254
113.365
113.478
113.596
113.717
113.843
113.974
114.11
114.252
114.399
114.552
114.71
114.876
115.044
115.221
115.397
115.585
115.768
115.962
116.16
116.331
116.593
116.638
116.507
111.184
110.004
109.759
109.546
109.424
109.4
109.446
109.524
109.625
109.731
109.846
109.96
110.081
110.201
110.328
110.457
110.593
110.733
110.88
111.032
111.192
111.357
111.53
111.711
111.897
112.092
112.287
112.495
112.697
112.911
113.126
113.319
113.595
113.661
111.046
106.318
104.834
104.499
104.271
104.174
104.176
104.246
104.341
104.463
104.586
104.724
104.859
105.007
105.152
105.311
105.468
105.64
105.811
105.998
106.185
106.381
106.581
106.789
107.003
107.223
107.45
107.679
107.918
108.155
108.405
108.654
108.892
109.19
109.335
95.7375
95.7829
94.6645
94.3748
94.1703
94.1477
94.2659
94.4679
94.7061
94.9713
95.2401
95.5202
95.7958
96.0794
96.3571
96.6425
96.9226
97.2105
97.4941
97.7862
98.0755
98.373
98.6685
98.9714
99.2729
99.5806
99.8872
100.198
100.508
100.82
101.131
101.435
101.758
102.016
102.433
11.4423
9.87722
9.84351
9.8897
10.008
10.1341
10.2737
10.4057
10.5447
10.67
10.7993
10.9137
11.0328
11.1374
11.2489
11.3466
11.4536
11.547
11.6523
11.7431
11.8489
11.9375
12.0456
12.1313
12.244
12.3245
12.4447
12.5159
12.6479
12.7029
12.8533
12.8805
13.0593
13.0378
13.2532
79.7825
77.2362
76.6745
76.767
76.8927
76.9361
76.9287
76.9054
76.8781
76.8553
76.8344
76.8196
76.806
76.7983
76.7907
76.7882
76.7855
76.7869
76.7884
76.7926
76.7983
76.8045
76.8148
76.8225
76.838
76.8471
76.8682
76.8798
76.9058
76.923
76.9508
76.9819
77.0028
77.063
77.0661
79.595
77.0488
76.4705
76.5477
76.6652
76.703
76.6929
76.6663
76.6385
76.6137
76.5941
76.578
76.5674
76.5585
76.5553
76.5518
76.5546
76.555
76.5629
76.5664
76.5788
76.5852
76.6017
76.6114
76.6317
76.6455
76.6691
76.6881
76.7147
76.7405
76.7693
76.8049
76.8307
76.883
76.9004
79.3539
76.8066
76.2186
76.2867
76.3985
76.4321
76.4195
76.391
76.3626
76.3374
76.3189
76.3036
76.2951
76.2881
76.2878
76.287
76.2932
76.297
76.3089
76.3163
76.3333
76.3439
76.3663
76.3794
76.4079
76.4229
76.4592
76.4746
76.5212
76.5355
76.5948
76.6087
76.6775
76.6999
76.7689
79.0384
76.4931
75.909
75.9764
76.0844
76.1138
76.098
76.0675
76.0385
76.0136
75.9963
75.9829
75.9769
75.9726
75.9756
75.9779
75.9881
75.9954
76.0117
76.0229
76.045
76.0593
76.0875
76.1045
76.1393
76.1584
76.2007
76.2217
76.2723
76.2954
76.3536
76.3827
76.4399
76.4889
76.5293
78.7525
76.2179
75.6163
75.6641
75.7589
75.7802
75.7591
75.7252
75.694
75.668
75.6504
75.6374
75.6324
75.6296
75.6344
75.639
75.6516
75.6616
75.681
75.6954
75.7212
75.7391
75.7714
75.7923
75.8317
75.855
75.9024
75.9276
75.9841
76.0108
76.0765
76.1074
76.1753
76.222
76.2806
78.3535
75.8242
75.2268
75.2707
75.3583
75.373
75.3472
75.3107
75.2785
75.253
75.2366
75.2259
75.2234
75.2237
75.2316
75.2399
75.256
75.2701
75.2933
75.3119
75.3419
75.3642
75.4011
75.4265
75.4708
75.4986
75.5512
75.5806
75.6427
75.6731
75.7445
75.7786
75.8516
75.9013
75.9632
77.928
75.4142
74.8114
74.8409
74.915
74.92
74.8877
74.8473
74.8131
74.7872
74.7714
74.7622
74.7615
74.7643
74.7748
74.7861
74.8053
74.8227
74.8493
74.8717
74.9053
74.9316
74.9725
75.0021
75.0506
75.0827
75.1398
75.1735
75.2403
75.275
75.3508
75.3894
75.4661
75.5206
75.5855
77.4333
74.9364
74.3307
74.3454
74.4047
74.3987
74.3591
74.3148
74.2786
74.2526
74.2377
74.2303
74.2318
74.2374
74.2507
74.2653
74.2876
74.3087
74.3387
74.3649
74.4023
74.4327
74.4774
74.5112
74.5639
74.6002
74.6616
74.6996
74.7705
74.8093
74.8891
74.9318
75.0115
75.07
75.137
76.8736
74.4022
73.7983
73.7989
73.8417
73.823
73.7755
73.7271
73.6895
73.6641
73.6508
73.646
73.6503
73.6593
73.6759
73.6941
73.7199
73.7448
73.7784
73.8086
73.8496
73.8841
73.9327
73.9706
74.0273
74.0678
74.1333
74.1753
74.2503
74.2932
74.3766
74.4235
74.5059
74.5691
74.6374
76.3105
73.8742
73.2585
73.2339
73.2557
73.2232
73.1675
73.115
73.0757
73.0504
73.0381
73.0352
73.0416
73.0533
73.0725
73.0937
73.1223
73.1505
73.1872
73.2208
73.2651
73.3031
73.3551
73.3967
73.4569
73.5012
73.5702
73.616
73.6945
73.7411
73.8277
73.8783
73.9629
74.0303
74.0993
75.627
73.2227
72.6137
72.5759
72.5796
72.5328
72.4689
72.4129
72.3734
72.3499
72.3404
72.3411
72.3513
72.3669
72.3899
72.4152
72.4477
72.4799
72.5203
72.5579
72.606
72.648
72.7038
72.7495
72.8135
72.8618
72.9347
72.9844
73.0667
73.1171
73.2071
73.2617
73.3486
73.4205
73.4903
74.9228
72.5723
71.9391
71.8627
71.8367
71.7719
71.6987
71.6387
71.5981
71.5755
71.5679
71.5712
71.5842
71.603
71.6291
71.6579
71.6935
71.7294
71.7731
71.8145
71.8659
71.9118
71.9712
72.0208
72.0886
72.1407
72.2175
72.271
72.3572
72.4113
72.5049
72.5633
72.6527
72.7292
72.7994
74.0388
71.7343
71.1045
71.0098
70.961
70.8797
70.7983
70.7362
70.697
70.6778
70.6746
70.6828
70.7006
70.7245
70.7552
70.7888
70.8289
70.8694
70.9173
70.9633
71.0189
71.0694
71.1329
71.187
71.259
71.3156
71.3967
71.4545
71.5449
71.6032
71.7007
71.7635
71.8557
71.9372
72.0082
73.1016
70.8708
70.2027
70.0568
69.9698
69.867
69.7761
69.7111
69.6728
69.6565
69.6571
69.6697
69.692
69.7205
69.7556
69.7939
69.8381
69.8833
69.9353
69.986
70.0457
70.1009
70.1687
70.2274
70.3038
70.365
70.4505
70.5128
70.6077
70.6704
70.7722
70.8394
70.9348
71.0218
71.0932
71.9316
69.7752
69.0898
68.9083
68.7883
68.6655
68.5672
68.5019
68.4672
68.4563
68.4629
68.4817
68.51
68.5445
68.5851
68.6289
68.6782
68.7287
68.7855
68.8415
68.9058
68.9663
69.0386
69.1027
69.1836
69.2501
69.3403
69.4076
69.5074
69.5749
69.6815
69.7536
69.8528
69.946
70.0185
70.575
68.5116
67.7777
67.5405
67.3784
67.2331
67.1269
67.0614
67.0308
67.0256
67.0388
67.0641
67.0988
67.1393
67.1855
67.2349
67.2891
67.3449
67.4062
67.4672
67.5358
67.6016
67.6781
67.7476
67.8329
67.9049
67.9998
68.0725
68.1773
68.2499
68.3618
68.4388
68.5426
68.6415
68.7157
68.9305
66.987
66.1745
65.8553
65.6355
65.463
65.3491
65.2844
65.2583
65.258
65.2765
65.3059
65.3447
65.3884
65.4379
65.4901
65.5472
65.606
65.6704
65.7353
65.8074
65.8778
65.9583
66.0331
66.1229
66.2006
66.3009
66.3792
66.4912
66.5675
66.6892
66.7686
66.883
66.9876
67.0677
66.5752
64.6695
63.85
63.5262
63.2872
63.0999
62.9783
62.9087
62.8796
62.8761
62.8923
62.919
62.9566
62.999
63.0494
63.1026
63.1629
63.2252
63.2947
63.3651
63.4439
63.5215
63.6104
63.6931
63.7927
63.879
63.9905
64.0779
64.2022
64.2883
64.4228
64.5112
64.6406
64.7509
64.8498
63.0742
61.5354
60.4577
59.9524
59.6029
59.3594
59.2113
59.131
59.1013
59.1038
59.1321
59.1744
59.2323
59.2966
59.3728
59.4521
59.5417
59.6329
59.7334
59.8358
59.9472
60.0534
60.1693
60.2797
60.4026
60.5171
60.6487
60.7646
60.9075
61.0203
61.1739
61.285
61.4403
61.5635
61.7072
55.4845
57.2197
56.1488
55.3611
54.7622
54.3515
54.1135
53.9901
53.9537
53.9655
54.0201
54.0925
54.1898
54.2917
54.4114
54.5293
54.6623
54.7899
54.9317
55.0662
55.2151
55.356
55.5107
55.6574
55.8165
55.9691
56.1309
56.2888
56.4525
56.6135
56.7813
56.935
57.124
57.2387
57.5033
13.0137
11.4083
11.4223
11.5526
11.7388
11.9142
12.0914
12.2498
12.4097
12.5495
12.6915
12.8142
12.9415
13.0511
13.1682
13.2689
13.38
13.4752
13.5837
13.6754
13.7838
13.8728
13.9832
14.0691
14.1839
14.2645
14.3867
14.4583
14.5918
14.6483
14.799
14.8309
15.0058
14.9995
15.1999
52.8626
51.861
51.4544
51.3869
51.4239
51.4584
51.4676
51.4619
51.4465
51.4313
51.4141
51.4013
51.3874
51.3786
51.3687
51.3636
51.3575
51.3549
51.3523
51.3513
51.3523
51.352
51.3566
51.3563
51.3645
51.3645
51.3754
51.3772
51.3888
51.396
51.4035
51.4243
51.4187
51.466
51.4362
52.6912
51.6999
51.2904
51.2153
51.2473
51.2769
51.284
51.2748
51.2591
51.2409
51.2251
51.2095
51.1985
51.1869
51.1813
51.1732
51.1723
51.1667
51.1699
51.1664
51.1729
51.1713
51.1804
51.1808
51.1918
51.1948
51.207
51.2133
51.2262
51.2363
51.25
51.2638
51.279
51.292
51.3205
52.4926
51.5062
51.0939
51.0137
51.0422
51.0683
51.0733
51.0616
51.0449
51.0252
51.0094
50.9931
50.983
50.9715
50.9672
50.9598
50.9606
50.9563
50.9615
50.9595
50.9686
50.9681
50.9813
50.9815
50.9993
50.9989
51.0228
51.0202
51.0521
51.0458
51.0871
51.0774
51.1271
51.116
51.1756
52.255
51.2694
50.8585
50.7782
50.8056
50.8295
50.8323
50.8184
50.8003
50.7797
50.7636
50.7475
50.7381
50.7275
50.7247
50.7186
50.7214
50.7186
50.7264
50.7259
50.7383
50.7393
50.7562
50.7579
50.7797
50.7815
50.8085
50.81
50.8424
50.8442
50.8807
50.8858
50.9213
50.9348
50.9675
52.0124
51.0412
50.628
50.5395
50.5585
50.576
50.5737
50.5561
50.5352
50.5128
50.4955
50.4788
50.4692
50.4588
50.4565
50.4511
50.455
50.4533
50.4625
50.4633
50.4776
50.48
50.4992
50.5025
50.5269
50.5303
50.5605
50.5634
50.5999
50.6021
50.6447
50.6477
50.6935
50.6998
50.751
51.7113
50.7438
50.3342
50.2455
50.2617
50.2751
50.2689
50.2482
50.2251
50.2014
50.1835
50.1669
50.1578
50.1484
50.1472
50.1434
50.1488
50.149
50.1601
50.163
50.1794
50.184
50.2057
50.2111
50.2384
50.2438
50.2773
50.2819
50.3223
50.3256
50.3725
50.3762
50.4262
50.433
50.4872
51.3809
50.4247
50.0172
49.9239
49.9329
49.9395
49.9273
49.9024
49.8761
49.8506
49.8315
49.8148
49.8057
49.7971
49.7966
49.7941
49.8007
49.8024
49.815
49.8196
49.8378
49.8442
49.868
49.8753
49.9049
49.9122
49.9483
49.9547
49.9979
50.003
50.0527
50.0583
50.111
50.1196
50.1767
51.0013
50.0571
49.6536
49.5563
49.5575
49.5561
49.5372
49.5074
49.4777
49.4502
49.43
49.4131
49.4042
49.3965
49.397
49.3958
49.4038
49.4072
49.4215
49.4279
49.448
49.4564
49.4823
49.4916
49.5236
49.5329
49.5715
49.5798
49.6257
49.6326
49.6852
49.6923
49.7476
49.7573
49.8171
50.5805
49.6502
49.2539
49.1538
49.1469
49.1367
49.1101
49.075
49.0416
49.0123
48.9911
48.9744
48.966
48.9593
48.9609
48.9614
48.9708
48.976
48.992
49.0004
49.0223
49.0327
49.0605
49.0719
49.106
49.1173
49.1583
49.1686
49.2168
49.2257
49.2806
49.2895
49.347
49.3584
49.4202
50.1474
49.2385
48.8456
48.7369
48.7177
48.6964
48.6615
48.6208
48.5838
48.5527
48.5306
48.5139
48.5058
48.5002
48.5028
48.5047
48.5155
48.5224
48.5399
48.5501
48.5737
48.586
48.6157
48.6289
48.6651
48.6783
48.7213
48.7335
48.784
48.7945
48.8516
48.8623
48.9217
48.9347
48.9981
49.6404
48.7495
48.3678
48.2582
48.2303
48.1987
48.1552
48.1087
48.068
48.0352
48.0125
47.9963
47.989
47.9849
47.9889
47.9926
48.005
48.0139
48.0331
48.0454
48.0709
48.0852
48.1169
48.1322
48.1705
48.1857
48.231
48.2451
48.298
48.3103
48.3698
48.3822
48.4436
48.4583
48.5234
49.0986
48.2404
47.8587
47.7334
47.6866
47.6394
47.5853
47.5324
47.4881
47.4538
47.4307
47.4152
47.4089
47.4064
47.4119
47.4176
47.4316
47.4426
47.4637
47.4782
47.5055
47.5221
47.5558
47.5733
47.6138
47.6311
47.6788
47.6949
47.7502
47.7645
47.8264
47.8407
47.9043
47.9208
47.9876
48.4419
47.6136
47.245
47.117
47.058
46.9975
46.9331
46.8737
46.8258
46.7902
46.767
46.7526
46.7476
46.747
46.7543
46.7623
46.7782
46.7917
46.8147
46.8317
46.8612
46.8802
46.9161
46.9361
46.9789
46.9986
47.0489
47.0671
47.1252
47.1415
47.2062
47.2225
47.2885
47.3071
47.3759
47.7237
46.9424
46.5696
46.4187
46.3338
46.2533
46.1763
46.11
46.0589
46.0227
46
45.9874
45.9842
45.9862
45.9956
46.0064
46.0246
46.041
46.0662
46.0861
46.1178
46.1397
46.178
46.2008
46.2461
46.2684
46.3214
46.3422
46.4032
46.4218
46.4895
46.5079
46.5766
46.5976
46.6685
46.8461
46.1177
45.7527
45.5891
45.4829
45.3833
45.2937
45.2201
45.1657
45.1287
45.1066
45.0955
45.0941
45.0985
45.1099
45.1235
45.1437
45.163
45.1902
45.213
45.2467
45.2717
45.3121
45.3378
45.3855
45.4106
45.4663
45.4897
45.5538
45.5747
45.6457
45.6664
45.7383
45.7616
45.8356
45.8228
45.1591
44.7865
44.5957
44.4584
44.3346
44.2304
44.1486
44.0909
44.0528
44.0316
44.022
44.0225
44.0292
44.0426
44.0586
44.0805
44.1024
44.1311
44.1566
44.1918
44.2196
44.2615
44.2904
44.3398
44.3682
44.4262
44.4525
44.5194
44.543
44.6175
44.6403
44.7162
44.7412
44.8192
44.5801
44.0026
43.6095
43.3737
43.1914
43.0355
42.9135
42.8215
42.7594
42.7182
42.696
42.6849
42.685
42.6905
42.7034
42.7189
42.7404
42.7625
42.791
42.818
42.8534
42.8837
42.9264
42.9585
43.0094
43.0413
43.1018
43.1314
43.2026
43.2283
43.3086
43.3332
43.4151
43.4434
43.5272
43.0293
42.4148
41.9892
41.7318
41.5217
41.3376
41.1939
41.0822
41.0056
40.9499
40.9176
40.8956
40.8892
40.8874
40.8972
40.9089
40.9302
40.9519
40.9824
41.0116
41.0503
41.0849
41.1322
41.1698
41.2257
41.2641
41.3298
41.3666
41.4431
41.4765
41.563
41.5942
41.6846
41.7169
41.8124
40.8418
40.5277
39.9108
39.4663
39.119
38.8445
38.6471
38.5013
38.4083
38.3431
38.3122
38.2928
38.2976
38.3052
38.3317
38.3566
38.3975
38.4348
38.486
38.5329
38.5933
38.6456
38.7097
38.7647
38.8333
38.89
38.9649
39.021
39.1044
39.1571
39.2493
39.2979
39.3966
39.4428
39.5517
37.8608
40.6876
39.8743
38.9216
38.1197
37.5029
37.0653
36.7515
36.5435
36.3955
36.3082
36.2462
36.2232
36.2078
36.221
36.2326
36.2679
36.2961
36.3456
36.3849
36.4442
36.4924
36.5585
36.6145
36.6851
36.7482
36.8213
36.8909
36.966
37.0395
37.1202
37.188
37.2892
37.3302
37.4864
14.2727
12.692
12.7717
12.9843
13.2366
13.4576
13.6679
13.847
14.0224
14.1708
14.3197
14.445
14.5752
14.6843
14.8021
14.9006
15.0111
15.1032
15.2104
15.2984
15.405
15.4899
15.5983
15.6801
15.7926
15.8695
15.9888
16.0577
16.1873
16.243
16.3875
16.423
16.587
16.5931
16.7754
37.6239
37.2103
36.982
36.889
36.8741
36.8852
36.8929
36.8943
36.887
36.8786
36.8662
36.8566
36.8446
36.8366
36.8269
36.8207
36.8138
36.8091
36.805
36.801
36.7999
36.796
36.7976
36.7935
36.7974
36.7935
36.7982
36.7964