/*--------------------------------*- C++ -*----------------------------------*\
  =========                 |
  \\      /  F ield         | OpenFOAM: The Open Source CFD Toolbox
   \\    /   O peration     | Website:  https://openfoam.org
    \\  /    A nd           | Version:  6
     \\/     M anipulation  |
\*---------------------------------------------------------------------------*/
FoamFile
{
    version     2.0;
    format      ascii;
    class       volScalarField;
    location    "13";
    object      yPlus;
}
// * * * * * * * * * * * * * * * * * * * * * * * * * * * * * * * * * * * * * //

dimensions      [0 0 0 0 0 0 0];

internalField   uniform 0;

boundaryField
{
    inlet
    {
        type            calculated;
        value           uniform 0;
    }
    outlet
    {
        type            calculated;
        value           uniform 0;
    }
    roughCylinder
    {
        type            calculated;
        value           nonuniform List<scalar> 
3840
(
9.50043
26.6037
38.5964
41.7303
44.7781
45.432
46.1604
45.8613
45.5396
45.0513
45.3686
45.599
45.2562
45.0123
45.3555
44.7495
44.7024
43.0982
41.438
40.9435
42.2481
41.0367
40.5819
40.1289
16.1606
26.984
38.0255
41.4443
44.4623
45.1565
45.9754
45.5628
45.616
45.3363
45.5919
45.705
45.3525
45.1365
45.4312
44.8913
44.8995
43.2031
41.6525
41.2861
42.4813
41.3687
40.9627
40.5955
9.05995
25.1895
37.6147
41.1414
44.1999
44.9943
45.6938
45.562
45.523
45.2584
45.5242
45.6184
45.3617
45.0835
45.3745
44.9567
45.0758
43.5487
42.1923
41.8836
43.0022
41.9699
41.5684
41.1624
11.2294
25.5615
36.948
40.7558
43.8283
44.6572
45.5781
45.3607
45.6672
45.637
45.8462
45.8187
45.5063
45.2879
45.5211
45.2358
45.3415
43.7992
42.5749
42.29
43.3074
42.3779
42.0247
41.7055
6.18401
23.087
36.2936
40.3419
43.4909
44.551
45.3548
45.4973
45.7552
45.6386
45.8094
45.7683
45.5661
45.3252
45.5448
45.4222
45.5671
44.2814
43.2599
42.9466
43.8797
43.0353
42.6794
42.3281
10.1784
23.5381
35.4888
39.8464
43.1171
44.2039
45.3453
45.3975
45.9051
46.0289
46.1954
46.0581
45.7883
45.6248
45.7823
45.7865
45.8663
44.6349
43.7365
43.3962
44.2312
43.4906
43.1835
42.9165
9.72145
20.4014
34.4937
39.2831
42.6884
44.1658
45.1666
45.5985
46.0864
46.0571
46.1607
46.0309
45.9093
45.7441
45.8773
46.0133
46.1074
45.1811
44.4722
44.0952
44.833
44.1808
43.8675
43.5725
11.7677
20.8469
33.4433
38.5853
42.2825
43.7562
45.1993
45.5273
46.1641
46.3915
46.5687
46.3992
46.2139
46.1236
46.1874
46.3941
46.4213
45.5649
44.9607
44.566
45.2038
44.6528
44.3918
44.1761
10.747
16.9473
31.9406
37.732
41.6218
43.6994
44.9666
45.6849
46.3521
46.4074
46.5071
46.3668
46.3694
46.2889
46.3204
46.5984
46.6612
46.1071
45.6793
45.2814
45.8107
45.3444
45.0758
44.831
12.0637
17.0694
30.4366
36.6042
41.0518
43.0734
44.9276
45.5486
46.2945
46.6357
46.9
46.7867
46.7167
46.6993
46.6652
46.9509
46.9689
46.452
46.1118
45.726
46.1568
45.7836
45.5735
45.405
12.6824
13.1882
28.1822
35.2158
39.8822
42.8529
44.5029
45.5675
46.4242
46.6056
46.775
46.7002
46.8437
46.8454
46.7885
47.0925
47.1786
46.9343
46.7611
46.412
46.7317
46.4333
46.2149
46.0114
12.7899
9.57831
25.8834
33.2552
38.9491
41.7625
44.275
45.2773
46.1758
46.6805
47.1078
47.1302
47.1773
47.2308
47.13
47.396
47.4507
47.1877
47.0724
46.7559
46.9849
46.7635
46.6112
46.4844
13.9883
11.6978
22.4332
30.9671
36.7417
41.1827
43.444
45.0524
46.1996
46.5665
46.8581
46.9038
47.1897
47.2777
47.1826
47.4365
47.5786
47.5533
47.5902
47.3433
47.4685
47.3079
47.1485
46.981
15.044
10.2871
19.2029
27.3543
35.1555
39.1166
42.8611
44.4732
45.6764
46.4354
47.0868
47.2861
47.4379
47.5699
47.4651
47.66
47.7633
47.6605
47.7122
47.5139
47.5749
47.4739
47.3935
47.3065
16.5341
9.97113
12.5989
23.5469
30.4957
37.8377
41.1378
43.7813
45.4923
46.1841
46.6586
46.8432
47.2578
47.433
47.3678
47.5662
47.7818
47.8903
48.078
47.9805
47.9484
47.8941
47.7961
47.6539
17.3365
5.72812
10.6367
14.9814
27.8854
33.2331
39.8324
42.5783
44.4538
45.7172
46.7174
47.1608
47.3994
47.6075
47.5653
47.708
47.8623
47.8087
47.908
47.8352
47.7588
47.7402
47.7348
47.6924
17.4524
2.05043
11.0228
12.2783
11.287
30.4857
35.6936
40.8527
43.7966
45.109
45.9136
46.3011
46.8942
47.1592
47.1918
47.3644
47.6234
47.7902
48.0125
48.0867
47.9331
47.9483
47.8982
47.7653
16.5122
6.09116
11.0226
11.3363
6.27948
10.8117
32.7193
38.1109
41.6157
43.9528
45.5903
46.4567
46.8095
47.1018
47.1913
47.3485
47.5042
47.3387
47.2464
47.1981
46.9891
46.9647
47.0118
47.0237
15.4257
3.90135
10.9482
11.4785
12.0852
13.2808
15.5237
33.5846
39.893
42.4779
43.8814
44.6032
45.5289
45.8951
46.0621
46.2865
46.5008
46.6221
46.6775
46.8735
46.6158
46.6207
46.5435
46.3645
13.285
5.04746
11.3713
6.10894
9.48823
7.14118
15.6202
26.6335
34.7583
39.6814
42.6688
44.3485
44.8564
45.2403
45.4927
45.7727
45.7987
45.1726
44.319
43.8273
43.3728
43.041
43.0075
43.0902
11.0901
6.40795
3.78128
1.90355
7.71459
9.34699
12.9707
3.80698
31.1086
36.0417
38.4347
39.6749
41.4212
41.9247
42.1216
42.3741
42.2332
42.1191
41.6708
41.7886
41.3453
41.1031
40.5765
39.9781
11.4889
11.3111
8.328
9.46114
13.0955
10.4366
13.4865
13.3159
10.3183
26.2994
34.1619
38.543
39.1148
39.5751
39.8932
40.3134
39.7476
37.1286
32.1079
26.5267
22.9046
16.3086
11.5483
10.3409
11.3898
6.32653
10.5899
13.3082
14.6801
10.9072
15.5232
13.8097
13.7818
16.2395
13.8698
13.327
23.9462
25.1982
23.1138
19.4301
11.9108
2.89359
8.12594
19.2938
9.99814
18.0075
17.0348
9.92724
7.53399
2.09431
6.76626
16.6851
23.314
25.5586
22.9731
11.763
4.2108
15.1809
11.0558
8.27045
12.3267
13.793
7.55391
5.11365
4.35571
8.26063
18.0211
14.6728
10.1191
17.3474
13.2725
16.7833
9.1312
11.1076
9.13609
16.0684
23.4819
27.3855
27.82
26.358
19.2814
13.7256
11.9024
17.5745
7.59131
9.96168
5.9929
16.8666
7.66957
13.9025
18.9414
11.7302
17.7574
21.2202
23.3543
24.7358
11.7321
16.1097
14.8399
17.8154
23.3448
27.4163
28.8452
27.3923
25.185
25.2133
25.3582
23.1165
18.2941
13.9832
13.9787
17.2919
19.7526
21.7224
24.4867
26.768
26.9274
27.1334
27.4235
27.5571
12.6418
19.2367
20.4282
21.9884
24.9929
27.7831
29.0442
28.3003
25.164
23.3325
25.5941
26.0163
26.0573
25.837
25.4602
25.1779
25.1963
25.2382
25.4765
26.1033
26.8018
27.3266
27.7894
28.0429
11.5679
20.0348
22.8491
24.631
26.3404
27.7866
27.9376
25.2389
17.7692
16.082
21.1761
23.5285
24.6893
24.5926
24.1954
23.9246
23.7937
23.9035
23.8274
23.6184
24.0672
24.1246
24.1602
24.2616
9.00392
18.6917
22.5019
24.7935
26.1552
26.6239
25.3956
20.5767
10.8964
5.87836
6.37977
7.10229
16.744
19.9703
20.0719
18.8928
17.9007
17.7255
17.3408
17.5989
19.6614
20.9456
21.7777
22.2954
5.66353
15.4192
20.0372
22.9573
24.4462
24.5098
22.5967
16.3105
4.78028
11.6788
15.1997
16.5945
14.6287
14.0221
14.1876
14.5438
15.3432
16.438
17.8308
18.901
19.8836
20.6329
21.0722
21.3431
3.50625
11.6663
15.6503
19.0633
20.7976
20.5372
17.8975
7.78972
8.27937
10.4634
10.2462
11.7826
16.4706
17.6541
17.5701
17.2598
16.9977
16.9068
16.8283
17.2266
18.3776
19.1022
19.6359
19.9702
2.42723
8.27221
11.3742
12.7996
13.8241
12.7104
7.28276
9.54379
9.72714
11.5914
13.6142
14.4981
13.3029
13.7909
14.2751
14.459
14.8574
15.5598
16.4615
17.3939
18.3393
19.0694
19.7198
20.1195
2.84022
8.48895
10.6027
11.5574
11.6933
11.6463
11.5466
11.4214
12.0236
12.784
12.9409
13.6804
15.4602
15.8555
15.8012
15.7612
15.8534
16.1839
16.6659
17.4917
18.6181
19.4788
20.1563
20.5533
3.08218
9.01913
11.5341
13.2394
14.5271
14.7202
12.9733
11.6228
12.4342
13.6148
14.8485
15.3582
14.998
15.1546
15.3118
15.3935
15.7031
16.3341
17.2325
18.2458
19.3293
20.1921
20.9035
21.3158
2.95139
8.67889
11.4003
13.102
14.1576
13.4442
11.7512
12.6728
14.0823
14.9737
15.3567
15.822
16.4766
16.5863
16.5124
16.5085
16.704
17.2028
17.961
18.9725
20.142
21.0896
21.8358
22.2588
3.17815
8.92809
11.4151
12.6277
12.8668
11.8428
12.3962
13.925
15.0607
16.0005
16.8043
17.1733
17.1396
17.1563
17.1384
17.1442
17.3874
17.9918
18.911
20.0138
21.2214
22.2321
23.0312
23.4788
3.3668
9.5765
11.4258
11.5674
11.4137
11.8608
13.6878
15.219
16.4425
17.3393
17.8697
18.2442
18.4964
18.4888
18.3849
18.3621
18.5818
19.1681
20.0925
21.2493
22.5183
23.5988
24.4459
24.9184
2.34189
8.31718
10.3673
11.5002
11.7533
13.5868
15.2078
16.5831
17.7039
18.5915
19.2623
19.6216
19.7135
19.7001
19.6332
19.6295
19.8747
20.5058
21.4989
22.7174
24.0363
25.1796
26.0786
26.5805
2.43537
9.32028
11.4767
11.7076
13.2661
14.9997
16.5765
17.941
19.0787
19.9659
20.5781
20.9738
21.1789
21.198
21.1419
21.1625
21.4316
22.0843
23.1107
24.3805
25.7493
26.9517
27.8976
28.4286
2.85588
11.0769
11.6563
13.0298
14.8275
16.4903
17.9906
19.3063
20.4282
21.3384
22.0228
22.4548
22.6656
22.7327
22.7384
22.8134
23.1301
23.8252
24.8966
26.2119
27.6221
28.8765
29.8652
30.4247
3.11604
2.97591
2.96519
3.1256
3.53309
4.18009
4.85772
5.33248
5.70147
5.93583
6.10252
6.19964
6.25979
6.29461
6.34245
6.35446
6.30718
6.28053
6.28027
6.31141
6.37577
6.47613
6.57141
6.60836
6.68168
6.76576
6.85312
6.91293
6.937
6.88045
6.73434
6.43047
5.99279
5.33353
4.60424
3.72981
3.08556
2.80306
2.75372
2.86195
11.3962
11.4469
11.5933
11.4934
11.5485
11.9834
12.4792
12.7251
12.9534
13.0843
13.1911
13.2545
13.2888
13.2845
13.2851
13.3034
13.3465
13.3735
13.4
13.4306
13.4659
13.5038
13.5449
13.6172
13.705
13.7626
13.8008
13.8084
13.8
13.7524
13.6825
13.5353
13.3587
13.0152
12.6847
11.9521
11.6608
11.516
11.3846
11.2902
11.7196
12.5828
13.0965
13.6287
14.0885
14.5126
14.8426
15.0966
15.3097
15.4747
15.6086
15.7106
15.7986
15.8671
15.9208
15.979
16.0481
16.0985
16.1376
16.1728
16.2053
16.2328
16.2566
16.2978
16.332
16.3464
16.3504
16.3208
16.2702
16.187
16.0806
15.929
15.7476
15.4954
15.19
14.7814
14.2432
13.693
13.0407
12.3542
13.4252
14.1786
14.8656
15.4423
15.9354
16.3576
16.7083
17.0149
17.2774
17.5052
17.7076
17.8905
18.0595
18.2187
18.3512
18.4632
18.5544
18.6258
18.6752
18.7137
18.7442
18.7646
18.7663
18.7533
18.7168
18.6667
18.6021
18.5125
18.4041
18.2611
18.0922
17.8885
17.6552
17.374
17.0398
16.6474
16.1549
15.5939
14.9025
14.119
15.105
15.8955
16.5704
17.1491
17.6471
18.0879
18.4719
18.819
19.129
19.4174
19.685
19.9384
20.1657
20.3694
20.5425
20.6825
20.7895
20.8743
20.9291
20.9676
20.9977
21.0141
21.0033
20.9709
20.9071
20.8112
20.6823
20.5322
20.3629
20.1681
19.9493
19.6976
19.4199
19.0983
18.7439
18.327
17.8563
17.2908
16.6621
15.8653
16.814
17.5452
18.1889
18.7486
19.2472
19.6991
20.1069
20.4882
20.8422
21.1811
21.4943
21.7874
22.055
22.2938
22.4956
22.6511
22.7552
22.8417
22.8949
22.9276
22.9618
22.98
22.9654
22.9335
22.8544
22.7291
22.5641
22.3674
22.1419
21.8967
21.6313
21.3401
21.0257
20.6737
20.2963
19.8644
19.3981
18.8523
18.2529
17.5376
18.4248
19.0569
19.6831
20.2124
20.7135
21.1704
21.6011
22.01
22.3953
22.7618
23.1072
23.4315
23.73
23.9955
24.2141
24.3607
24.3969
24.4407
24.477
24.5112
24.5439
24.5732
24.5947
24.629
24.5604
24.4187
24.2256
23.9949
23.7345
23.449
23.142
22.8156
22.4693
22.0951
21.6962
21.2585
20.7841
20.2651
19.673
19.049
19.8603
20.4088
21.023
21.5234
22.0291
22.4892
22.9349
23.3563
23.761
24.1476
24.516
24.8634
25.1842
25.4675
25.6876
25.7718
25.8163
25.8597
25.8957
25.9297
25.9628
25.9913
26.0137
26.0337
26.0206
25.8766
25.6637
25.4072
25.1194
24.8067
24.4726
24.1188
23.7456
23.354
22.937
22.4986
22.0141
21.5215
20.925
20.3783
21.0865
21.5864
22.183
22.6691
23.1738
23.6323
24.0845
24.5143
24.9317
25.3324
25.7167
26.0806
26.4189
26.7204
26.9601
27.0607
27.0837
27.1138
27.1464
27.1799
27.2129
27.2429
27.2747
27.3153
27.2838
27.1172
26.8822
26.6045
26.296
25.9634
25.61
25.239
24.8485
24.4428
24.0109
23.5702
23.0783
22.6035
22.006
21.508
22.0928
22.5656
23.1517
23.6286
24.1303
24.5901
25.0472
25.4842
25.9105
26.321
26.7156
27.0901
27.4395
27.7551
28.0218
28.2065
28.2103
28.2237
28.2478
28.278
28.3121
28.3472
28.3885
28.4499
28.338
28.1389
27.8855
27.5936
27.2718
26.9263
26.56
26.1764
25.7736
25.3577
24.9154
24.4682
23.9694
23.4967
22.9007
22.4219
22.8666
23.3352
23.9174
24.3971
24.9019
25.3686
25.833
26.2782
26.7125
27.1303
27.5307
27.9089
28.2585
28.5701
28.8296
29.0212
29.1451
29.2331
29.246
29.2644
29.3033
29.3474
29.3232
29.2631
29.1343
28.9376
28.6866
28.3937
28.0681
27.7161
27.3414
26.9482
26.5349
26.1077
25.6543
25.1955
24.6871
24.2021
23.5985
23.1074
23.414
23.8919
24.4911
24.9853
25.5044
25.9854
26.4626
26.9196
27.3638
27.7894
28.1951
28.5751
28.9225
29.2256
29.4679
29.6315
29.7225
29.7851
29.8282
29.8613
29.8829
29.8912
29.8826
29.8515
29.7501
29.5731
29.3339
29.0465
28.7215
28.3665
27.9855
27.5832
27.1582
26.7168
26.2472
25.7692
25.2393
24.729
24.0938
23.5858
23.7513
24.2487
24.8921
25.4147
25.9618
26.4659
26.9636
27.4378
27.8962
28.3329
28.7467
29.1319
29.4816
29.784
30.0221
30.1754
30.2342
30.2648
30.2877
30.3105
30.3335
30.3551
30.3732
30.3724
30.2887
30.1227
29.89
29.6054
29.2796
28.9202
28.5314
28.1176
27.6773
27.2166
26.7226
26.2156
25.6461
25.0954
24.407
23.8747
23.9066
24.446
25.1473
25.7193
26.3072
26.8454
27.3715
27.8696
28.3472
28.7994
29.2252
29.6197
29.9763
30.2851
30.5314
30.6964
30.7681
30.7802
30.7824
30.7938
30.8189
30.8555
30.8939
30.8891
30.8026
30.6365
30.4041
30.1184
29.7888
29.4221
29.0224
28.593
28.1323
27.645
27.1177
26.5664
25.9446
25.3378
24.5889
24.009
23.9628
24.5586
25.3228
25.9567
26.5977
27.1796
27.7407
28.2683
28.7696
29.2411
29.6821
30.0889
30.4566
30.7775
31.0412
31.2349
31.3489
31.3897
31.39
31.3958
31.4228
31.4651
31.4884
31.4535
31.3455
31.1673
30.9277
30.6361
30.2993
29.9224
29.5085
29.0598
28.5741
28.0541
27.4852
26.8802
26.2
25.5289
24.7164
24.078
24.0683
24.7172
25.5396
26.2341
26.9293
27.5584
28.1562
28.7146
29.2406
29.7322
30.1891
30.6091
30.9887
31.3228
31.6043
31.8242
31.9753
32.0608
32.1069
32.1373
32.1614
32.1747
32.1607
32.0926
31.9609
31.7673
31.5177
31.2178
30.8721
30.4839
30.0546
29.5855
29.0736
28.5192
27.9064
27.2488
26.5131
25.7807
24.9084
24.2157
24.4109
25.0956
25.958
26.6962
27.4301
28.0957
28.7225
29.3053
29.8507
30.3578
30.827
31.257
31.6461
31.9907
32.2869
32.5291
32.7118
32.8331
32.9046
32.9482
32.9747
32.978
32.941
32.849
32.6988
32.4922
32.2332
31.9255
31.5715
31.1732
30.731
30.2448
29.7114
29.1294
28.483
27.7855
27.0085
26.2303
25.3144
24.5833
25.1348
25.8274
26.7013
27.4551
28.2017
28.8804
29.518
30.11
30.662
31.1736
31.6454
32.0769
32.4671
32.8146
33.1174
33.3732
33.5796
33.7352
33.8414
33.905
33.9315
33.9153
33.851
33.7362
33.5704
33.3551
33.0916
32.7814
32.4253
32.0242
31.5774
31.0846
30.5421
29.9482
29.2887
28.575
27.7821
26.985
26.0529
25.3094
26.2412
26.9188
27.7799
28.522
29.2545
29.922
30.5501
31.1339
31.6775
32.1804
32.6432
33.0655
33.447
33.7868
34.0837
34.3367
34.5442
34.7054
34.8202
34.8907
34.9166
34.8953
34.8261
34.7092
34.5448
34.3334
34.0758
33.7725
33.4239
33.03
32.5902
32.1039
31.5679
30.9809
30.3315
29.6274
28.8447
28.0559
27.1323
26.4
27.601
28.2494
29.0829
29.7944
30.4958
31.1375
31.7425
32.3049
32.8282
33.3117
33.756
34.1608
34.5258
34.8505
35.1341
35.3758
35.5745
35.7295
35.8405
35.9097
35.9357
35.9162
35.8512
35.7405
35.5848
35.3842
35.139
34.8496
34.5159
34.1378
33.7148
33.2462
32.7294
32.164
31.54
30.8618
30.1053
29.3414
28.4396
27.732
29.0397
29.6545
30.4575
31.1328
31.798
32.4069
32.9815
33.5151
34.011
34.4685
34.8883
35.2702
35.6142
35.9198
36.1865
36.4138
36.6009
36.7469
36.852
36.9182
36.944
36.9268
36.8666
36.7637
36.6184
36.4307
36.2007
35.9284
35.6139
35.2565
34.8559
34.4112
33.92
33.3823
32.7894
32.1471
31.4272
30.6993
29.8278
29.1542
30.3356
30.9304
31.714
32.3626
33.0014
33.5833
34.1307
34.6371
35.1064
35.5381
35.933
36.2913
36.6135
36.8993
37.1487
37.3611
37.5361
37.673
37.772
37.8353
37.8611
37.8463
37.7915
37.6969
37.5628
37.3889
37.1751
36.9212
36.6268
36.2912
35.9137
35.4931
35.0274
34.5159
33.9504
33.3373
32.645
31.9418
31.0875
30.4332
31.3554
31.9354
32.7057
33.3353
33.9547
34.5158
35.042
35.5269
35.9747
36.3853
36.76
37.0993
37.4035
37.6732
37.9081
38.1083
38.2735
38.403
38.4972
38.5584
38.5842
38.5715
38.5214
38.4341
38.3096
38.1475
37.9475
37.7091
37.4316
37.1143
36.7559
36.3554
35.9101
35.4193
34.8751
34.2838
33.6108
32.9252
32.0827
31.4427
31.9283
32.5057
33.2741
33.8981
34.5101
35.0623
35.5786
36.0528
36.4896
36.8891
37.2528
37.5814
37.8759
38.1363
38.3634
38.5567
38.7164
38.8419
38.9335
38.9939
39.0202
39.0091
38.9621
38.8793
38.7607
38.6057
38.414
38.1847
37.9171
37.6101
37.2623
36.8724
36.4376
35.9571
35.4227
34.8405
34.175
33.4955
32.6554
32.019
12.1792
26.85
38.2004
41.4013
44.3736
45.0545
45.8889
45.9085
46.1467
45.8851
45.4428
44.8495
44.6563
44.1851
43.6368
42.9012
42.4704
44.0561
41.2097
40.2811
42.2083
40.8769
40.3233
39.9607
16.5359
25.5757
37.8421
41.1216
44.1522
44.8197
45.7798
45.7176
46.1894
45.963
45.6694
45.115
44.8592
44.3565
43.7777
43.0662
42.7723
44.3338
41.4898
40.6869
42.4174
41.2245
40.7732
40.457
12.1384
25.6919
37.2055
40.7991
43.8369
44.7456
45.6832
45.8653
46.1491
45.832
45.5076
45.1423
44.9739
44.3755
43.8234
43.2521
43.2272
44.7901
42.1222
41.4135
42.8871
41.8078
41.2931
40.9636
16.2602
23.9957
36.7186
40.4722
43.6368
44.5317
45.607
45.6636
46.1423
45.9425
45.8222
45.5173
45.33
44.7012
44.1234
43.5987
43.5692
45.0113
42.5369
41.896
43.1712
42.2335
41.816
41.5281
8.40318
24.0193
35.9825
40.0962
43.2376
44.4106
45.4588
45.8076
46.1745
45.9194
45.7414
45.584
45.5336
44.8699
44.2909
43.9287
44.0258
45.4338
43.2676
42.6766
43.7088
42.8708
42.3973
42.0957
10.4925
21.8434
35.2375
39.5902
42.9684
44.1481
45.3723
45.5831
46.1253
46.0485
46.1197
46.025
45.9527
45.2993
44.6787
44.3868
44.3636
45.6358
43.7383
43.184
44.048
43.345
42.9685
42.7057
12.1078
21.8719
34.2548
39.0765
42.4343
43.9533
45.15
45.7107
46.2249
46.1224
46.0947
46.0841
46.1398
45.5148
44.9027
44.7865
44.8126
46.0596
44.4891
43.9802
44.6331
44.0127
43.5855
43.3114
5.61086
18.7362
33.1469
38.2832
42.0634
43.6197
45.0704
45.4894
46.149
46.2412
46.4906
46.5401
46.5365
45.9554
45.3376
45.2913
45.1589
46.2735
44.9443
44.4749
44.9999
44.5032
44.1806
43.9446
9.68793
18.8835
31.7374
37.5301
41.3113
43.3499
44.7696
45.5975
46.2933
46.3755
46.4733
46.5345
46.6406
46.1352
45.5892
45.6993
45.6188
46.7172
45.6582
45.2574
45.6025
45.1693
44.7987
44.5524
11.8119
14.6464
30.1514
36.2687
40.7884
42.8784
44.6789
45.3582
46.1602
46.4267
46.8322
46.9677
46.9813
46.5425
46.0467
46.1923
45.9756
46.9289
46.0354
45.6916
45.9475
45.6252
45.3724
45.167
12.2327
14.9484
27.9894
35.0998
39.5884
42.4332
44.208
45.3824
46.2801
46.559
46.7627
46.853
46.9837
46.6505
46.2812
46.5387
46.4211
47.3648
46.6694
46.4201
46.5232
46.2462
45.9457
45.7269
13.1589
9.69859
25.7874
32.9125
38.7049
41.6163
44.0041
45.0251
46.0094
46.4587
47.0234
47.2425
47.2771
47.0171
46.7193
46.9648
46.7518
47.517
46.9101
46.7222
46.7713
46.5904
46.4222
46.2509
13.8773
4.18748
22.0679
31.0581
36.5864
40.7481
43.12
44.8355
46.0118
46.5215
46.8301
46.9624
47.1517
47.0126
46.8546
47.169
47.1058
47.8752
47.4161
47.3334
47.2556
47.1028
46.8873
46.6968
15.5662
8.27943
19.1513
26.7948
34.7881
39.0545
42.6005
44.1714
45.487
46.1819
46.9449
47.2845
47.3835
47.3059
47.1994
47.4657
47.333
47.8866
47.4603
47.4333
47.3451
47.2849
47.2149
47.0851
16.543
13.4243
11.995
23.9997
30.6082
37.2611
40.741
43.5229
45.227
46.1059
46.5724
46.784
47.0804
47.1168
47.1351
47.4693
47.5393
48.1183
47.8289
47.9103
47.7154
47.6676
47.5298
47.3628
17.0649
8.20623
5.3402
12.1198
26.6498
33.2875
39.5129
42.1499
44.1985
45.3647
46.4719
47.0277
47.2444
47.3243
47.366
47.6307
47.6101
47.8929
47.5709
47.6604
47.4938
47.5283
47.5651
47.4983
16.5039
8.08012
2.61995
8.80232
11.1694
28.6961
34.9821
40.4966
43.3787
44.963
45.7308
46.1167
46.6141
46.8215
46.9788
47.2939
47.499
47.8608
47.7124
47.9218
47.6613
47.6938
47.5928
47.4273
15.6015
9.97916
8.44193
11.8139
12.6583
13.5761
32.187
37.3511
41.2503
43.4148
45.2121
46.196
46.6059
46.8476
47.0148
47.2522
47.2866
47.1632
46.8085
46.8702
46.6427
46.7087
46.8267
46.8699
14.1071
9.06347
11.632
11.3991
11.7443
13.0383
12.5149
33.1927
39.1957
42.2898
43.6055
44.3079
45.1622
45.5625
45.8382
46.0804
46.3417
46.4084
46.3377
46.5921
46.2735
46.3166
46.1209
45.8452
11.6562
2.30458
11.0315
12.0284
12.2212
12.2602
14.8889
24.6085
34.309
38.7834
42.132
43.9853
44.6529
45.0748
45.3617
45.5122
45.4258
44.4808
43.6874
43.246
42.8317
42.6353
42.7373
43.0227
11.1437
11.1321
5.37548
11.0549
1.7153
13.0103
13.0504
7.94686
29.6164
35.9716
38.1068
39.2754
40.9009
41.5794
41.9136
41.8062
41.8736
41.4623
41.2874
41.4296
40.8988
40.67
39.444
38.4488
11.0768
8.49011
6.79787
10.9523
13.8596
8.89263
8.55498
14.0952
8.42869
23.2743
33.1847
38.0773
38.9974
39.5999
39.9204
39.6906
38.8126
34.5622
30.6415
24.8035
20.5368
11.3835
20.1439
10.6281
11.5157
7.19476
6.81298
14.9735
17.5967
12.7851
6.09491
11.858
9.44565
11.4927
12.4659
11.4786
22.177
24.142
22.78
16.725
10.5714
12.4857
19.3501
9.7464
14.2148
11.5174
18.8824
13.0759
7.77111
9.89012
9.76075
17.1295
23.2648
25.6898
24.5358
15.8254
13.1181
8.3147
11.5471
15.0363
15.9406
17.121
12.8405
11.3853
5.94917
9.97215
9.2572
5.24079
12.057
19.5961
18.5464
10.1087
10.2846
12.0235
11.4362
16.6698
22.9823
26.7883
27.3465
25.7855
20.4544
16.3383
11.2482
9.48415
16.8117
10.9307
8.29198
17.5482
11.1339
14.0333
9.47084
12.0676
19.072
22.5422
24.3242
25.1738
12.8733
17.0634
16.922
19.0784
23.3233
26.8746
28.2073
27.0642
24.1901
24.603
26.0345
22.931
19.556
15.2655
15.0453
17.9917
19.8429
21.8639
24.4595
26.5729
26.6177
26.9812
27.3109
27.5498
12.9608
19.7037
21.4182
22.9382
25.2888
27.531
28.4652
27.4898
23.7245
23.1415
24.8108
25.0048
25.5584
25.5442
25.2305
24.8713
24.9651
24.9862
25.4997
25.9857
26.5963
27.1438
27.5791
27.7031
11.5706
20.1636
23.1473
24.9885
26.4385
27.397
26.868
22.9941
12.0433
13.7823
20.1072
22.2637
24.5386
24.667
24.2161
23.8648
23.7768
23.5265
23.2021
23.4389
23.3694
23.5469
23.7515
23.7574
9.12073
18.8466
22.6239
24.8756
26.0881
26.2017
24.4623
18.7332
12.0931
9.29231
10.6647
3.70852
16.4632
19.7645
20.0129
18.975
18.1743
17.3485
16.7851
17.8194
19.4799
20.8217
21.7072
22.1896
6.05943
16.0461
20.4694
23.1857
24.5034
24.3266
22.013
15.7935
8.34876
11.5071
15.5964
18.6266
15.599
14.7118
14.7325
15.0134
15.6757
16.7239
18.0123
18.8239
19.6143
20.3229
20.7812
20.9774
3.71138
11.9508
16.5951
19.7921
21.2815
20.843
17.6814
11.5908
11.4822
11.5857
9.59259
10.459
15.6853
17.3026
17.3861
17.1015
16.8323
16.5167
16.4858
17.2404
18.192
18.9826
19.5506
19.8569
2.92363
9.52417
11.6437
14.1521
15.3429
14.3045
11.574
10.6468
11.131
11.5372
13.7939
15.0293
14.0852
14.1985
14.483
14.6662
15.0264
15.6552
16.5581
17.4185
18.2525
19.0235
19.6992
20.0699
3.00788
9.05274
11.3056
11.9896
12.9138
13.3952
12.963
11.4849
11.5767
12.4306
12.6393
13.3785
15.0547
15.6715
15.7345
15.7038
15.8085
16.0727
16.5771
17.5639
18.6206
19.5046
20.1981
20.5805
3.11766
9.09629
11.5462
13.5242
15.0424
15.4514
13.5769
11.5939
12.1056
13.3732
14.854
15.5044
15.3096
15.3088
15.3563
15.4371
15.7518
16.3866
17.31
18.3321
19.367
20.2564
20.9846
21.383
3.09537
8.93905
11.51
13.6471
14.9571
14.4274
11.7326
11.8328
13.4322
14.6604
15.1822
15.716
16.3496
16.5516
16.5163
16.5047
16.7017
17.1917
17.9862
19.0813
20.2274
21.1887
21.9491
22.3625
3.26414
9.07651
11.507
13.1481
13.609
12.0062
11.5609
13.2687
14.6909
15.7805
16.7403
17.2226
17.2656
17.2321
17.1624
17.1554
17.4077
18.0276
18.9743
20.1193
21.3198
22.3452
23.1561
23.5949
3.46342
9.44824
11.5153
11.8978
11.4837
11.488
13.0086
14.6204
15.9954
17.0728
17.7259
18.1731
18.4691
18.5066
18.405
18.3621
18.5759
19.1744
20.1311
21.3381
22.6109
23.7037
24.5615
25.0268
2.40529
8.08238
10.4703
11.4118
11.5697
12.6534
14.4062
16.0087
17.3259
18.3438
19.1264
19.585
19.7404
19.7278
19.6357
19.6082
19.8476
20.492
21.5119
22.7697
24.0985
25.2556
26.1643
26.6599
2.33249
8.47795
10.968
11.5712
12.2955
14.1732
15.9123
17.4148
18.6739
19.6825
20.3995
20.8742
21.1341
21.1822
21.1171
21.1102
21.3636
22.0237
23.0752
24.3812
25.7635
26.981
27.9366
28.4623
2.81916
10.2287
11.5171
12.0932
13.9922
15.722
17.3257
18.7714
20.0239
21.0394
21.8146
22.3318
22.5984
22.6818
22.6711
22.7157
23.013
23.7112
24.8028
26.1497
27.5754
28.8464
29.8451
30.4001
16.4979
10.0548
2.35004
11.1786
2.12716
12.7907
7.94532
9.81175
12.2933
4.26002
11.3229
9.90858
9.28654
7.54311
7.28067
6.31806
5.81421
5.57003
5.5458
5.13048
4.98184
6.10184
5.63875
6.01871
1.05897
7.43709
4.88348
9.38064
9.84885
11.8951
10.9064
4.27728
6.13397
5.99326
11.4641
8.38174
10.4936
16.1586
15.6152
14.1048
26.4375
24.768
23.8873
21.9952
21.3082
19.1549
18.5271
16.4568
15.9552
13.794
13.4023
11.9436
11.5104
10.2005
6.97823
7.81472
5.99675
5.72292
6.50605
4.3289
3.03064
9.22833
5.92507
7.42558
6.07625
8.8438
11.4194
11.9431
12.3184
13.4867
13.6408
15.8317
16.4108
18.4809
19.1936
21.4554
22.0051
24.4651
24.6754
27.2505
38.2678
36.6936
36.0779
34.5623
33.8352
32.4711
31.6554
30.4963
29.5992
28.6554
27.6094
26.8316
25.8824
25.5678
25.4462
24.8049
24.6139
24.3296
24.1054
23.9797
24.0007
22.8514
24.099
24.4497
24.8323
25.1362
25.4959
26.2409
27.0852
27.8013
28.7032
29.5784
30.5164
31.6295
32.5339
33.7737
34.6747
36.017
36.9368
38.3208
41.1136
39.6109
38.6215
37.2214
36.1655
34.8856
33.829
32.7487
31.7885
30.8784
30.0184
29.105
28.4455
27.6301
27.2795
27.0054
26.6066
26.4028
26.2911
25.9948
25.8732
26.3
26.5143
26.6631
26.752
27.3654
28.1011
28.9965
29.4742
30.1787
30.8296
31.7844
32.7024
33.7866
34.8074
36.0532
37.1515
38.6094
39.7358
41.3106
44.0188
42.6287
41.566
40.2848
39.1782
37.9536
36.8324
35.7256
34.7361
33.8175
32.9932
32.1801
31.5123
30.9863
30.6619
30.3268
29.9745
29.7022
29.5087
29.3464
29.3167
29.173
29.7538
29.8802
30.1878
30.6826
31.3355
31.9609
32.413
33.0342
33.7907
34.7589
35.7009
36.7885
37.804
39.0289
40.1816
41.5771
42.8084
44.2736
44.5008
43.2204
42.0499
40.8691
39.7222
38.5465
37.3842
36.2654
35.2572
34.338
33.5824
32.7627
32.1533
31.5082
31.2365
30.9933
30.6245
30.3466
30.1206
29.9582
29.9435
30.1617
30.4982
30.5279
30.8199
31.4506
32.0984
32.7011
32.9485
33.58
34.3175
35.2852
36.2361
37.2677
38.3192
39.5387
40.7449
42.1607
43.4281
44.8888
45.3399
44.0353
42.9006
41.742
40.6711
39.5182
38.3984
37.2143
36.1942
35.1883
34.5
33.7263
33.1507
32.5727
32.2455
32.0452
31.6772
31.3345
31.0129
30.9356
31.0373
31.2241
31.5246
31.5925
32.0548
32.6457
33.1992
33.5217
33.6756
34.3544
35.1319
36.1964
37.1392
38.21
39.2939
40.5072
41.7407
43.0918
44.3228
45.7238
45.1629
43.9495
42.703
41.6087
40.5539
39.4803
38.4501
37.2679
36.2389
35.1339
34.4119
33.6617
33.0702
32.4529
32.1062
31.9341
31.6647
31.2678
30.8015
30.7771
31.0481
31.3915
31.4477
31.6305
32.1763
32.834
33.1767
33.3546
33.5245
34.2754
35.0918
36.2164
37.1042
38.255
39.2833
40.4932
41.6607
42.873
44.1058
45.299
45.6107
44.1577
43.0675
41.7027
40.802
39.6209
38.8341
37.6901
36.7578
35.5774
34.7023
33.9045
33.2388
32.5963
32.1348
31.9443
31.813
31.3871
30.7735
30.7905
31.3312
31.7273
31.4913
31.9568
32.71
33.1704
33.2917
33.4337
33.8442
34.5782
35.4625
36.532
37.4234
38.6361
39.4842
40.7267
41.5525
42.8525
43.7782
45.1677
45.4253
43.9717
42.8497
41.5009
40.4737
39.3713
38.5432
37.6976
36.8731
35.9182
34.7889
33.8779
33.0369
32.3939
31.7735
31.3554
31.4781
31.122
30.5363
30.4455
31.1858
31.551
30.8712
31.8298
32.6536
32.6332
33.0624
33.4351
33.9224
34.5417
35.4533
36.2607
37.2107
38.0926
38.9681
39.9422
40.8473
42.065
43.1065
44.5707
45.0194
43.5413
42.4857
41.1625
40.1687
39.0273
38.1874
37.3371
36.7194
36.0232
35.1808
34.0224
33.0847
32.4206
32.0781
31.498
31.2443
31.1776
30.9967
30.7769
31.3606
31.4598
30.5495
31.9742
32.4603
32.4625
33.2094
33.6856
34.0818
34.7353
35.4539
36.2241
37.0736
38.0266
38.9897
40.0273
41.0572
42.2649
43.417
44.8225
44.2292
42.7986
41.6214
40.434
39.4212
38.4177
37.4499
36.555
35.7519
35.2254
34.6307
33.9508
32.8851
32.183
31.9379
31.6145
31.162
30.9663
30.9252
30.7266
31.2404
31.157
30.5467
31.7036
32.0471
32.2721
33.0613
33.5115
33.9061
34.4775
35.3515
36.1888
37.2196
38.2738
39.3153
40.3353
41.3855
42.5532
43.7198
45.062
44.0343
42.726
41.6046
40.5138
39.6033
38.6429
37.6683
36.4668
35.2874
34.3743
33.8268
33.4437
32.7009
31.6709
30.971
30.9112
30.78
31.2504
31.0103
30.2394
30.8655
30.9443
30.592
31.2965
31.4767
32.2648
32.3798
32.7326
33.358
34.1467
34.981
35.8265
36.7128
37.568
38.4925
39.4855
40.6208
41.8754
43.186
44.5925
43.6345
42.2613
41.0303
39.7136
38.6526
37.6409
36.9035
36.1308
35.3475
34.4407
33.6373
33.3298
32.8114
31.9965
31.1509
31.0946
30.3202
29.7762
30.1413
30.362
30.0489
30.4129
29.879
30.1847
30.3868
30.5476
31.0396
31.7788
32.7703
33.7164
34.4563
35.414
36.5717
37.7752
38.8368
39.9019
40.8972
42.0492
43.1651
44.4903
43.1077
41.8967
40.7582
39.5817
38.4136
37.2743
36.1944
35.2973
34.4861
33.845
33.2338
32.8005
32.1611
31.4421
30.5696
30.4015
30.093
29.2242
28.1028
28.8895
28.6969
28.0293
29.1934
28.6552
28.5674
29.9354
30.8419
31.3051
32.4192
33.3413
34.2888
35.0759
36.1078
37.2539
38.4915
39.7034
40.9078
42.1848
43.4207
44.7988
42.2713
41.1283
39.9534
38.8739
37.6542
36.4822
35.1342
33.9768
32.789
32.0025
31.0845
30.3422
29.4905
28.9672
28.2279
27.7243
27.2663
27.9802
27.1991
26.9362
28.3027
28.5148
28.0291
28.3135
29.3749
29.7025
29.8614
30.2302
31.3249
32.0827
32.9441
33.9229
35.2176
36.5825
37.9721
39.2746
40.509
41.7229
42.9033
44.1895
41.4761
40.2219
38.8093
37.8644
36.7005
35.9972
34.868
34.0965
32.7223
31.7702
30.3917
29.6529
28.3953
28.0278
27.4298
27.2765
26.8734
26.6845
26.2267
26.5371
27.3019
27.105
27.1785
27.0582
27.3999
27.7071
28.5562
29.2994
30.4652
31.5655
33.0505
34.2701
35.5423
36.5562
37.6702
38.7441
39.9467
41.204
42.5305
43.9614
42.897
41.328
39.4472
37.9444
36.1574
34.8691
33.2963
32.3059
31.0192
30.3073
29.2801
28.8443
28.0826
27.7921
27.0484
26.7553
26.3513
26.7375
26.2976
26.0841
25.7859
26.6806
27.7618
28.3142
28.8266
29.0304
29.657
29.9952
30.8296
31.3653
32.3398
33.0528
34.1912
35.09
36.3542
37.347
38.6624
39.7252
41.1083
42.2953
40.1332
38.9807
37.4508
36.4783
35.1044
34.285
33.013
32.3085
31.0882
30.4971
29.382
28.9845
28.0664
27.8282
26.8894
26.4696
26.1002
27.1404
26.3375
26.55
26.4323
26.1018
26.2198
26.1998
26.7625
27.0871
27.9186
28.3796
29.3991
29.9975
31.1177
31.8199
33.0041
33.795
35.0156
35.8596
37.1258
38.0464
39.4333
40.5244
39.0642
37.8032
36.1022
35.0207
33.4848
32.619
31.2612
30.6391
29.4836
29.1103
28.1675
28.0341
27.2857
27.3053
26.5756
26.3975
25.3539
25.0361
24.8543
24.6728
24.2553
24.2674
24.8852
25.1861
26.3206
26.724
27.6218
27.6689
28.3957
28.4904
29.3908
29.7669
30.9425
31.6388