/*--------------------------------*- C++ -*----------------------------------*\
  =========                 |
  \\      /  F ield         | OpenFOAM: The Open Source CFD Toolbox
   \\    /   O peration     | Website:  https://openfoam.org
    \\  /    A nd           | Version:  6
     \\/     M anipulation  |
\*---------------------------------------------------------------------------*/
FoamFile
{
    version     2.0;
    format      ascii;
    class       volVectorField;
    location    "3";
    object      wallShearStress;
}
// * * * * * * * * * * * * * * * * * * * * * * * * * * * * * * * * * * * * * //

dimensions      [0 2 -2 0 0 0 0];

internalField   uniform (0 0 0);

boundaryField
{
    inlet
    {
        type            calculated;
        value           uniform (0 0 0);
    }
    outlet
    {
        type            calculated;
        value           uniform (0 0 0);
    }
    roughCylinder
    {
        type            calculated;
        value           nonuniform List<vector> 
5120
(
(-0.000277132 -0.000395372 -0.000205219)
(-0.000339115 -0.000505832 -4.0755e-05)
(-0.000377202 -0.000605286 4.8e-06)
(-0.000428745 -0.000699148 6.39829e-05)
(-0.000491714 -0.000778955 0.000130802)
(-0.000561809 -0.00084023 0.000196677)
(-0.000635005 -0.00088044 0.000256975)
(-0.000706068 -0.000900421 0.000308909)
(-0.000770742 -0.000903278 0.000350462)
(-0.000827921 -0.000895703 0.000381553)
(-0.000878743 -0.000888602 0.000405306)
(-0.000921687 -0.0008836 0.000422031)
(-0.000956208 -0.000883075 0.000431446)
(-0.000985119 -0.000887703 0.000434421)
(-0.00100956 -0.000896984 0.000432167)
(-0.00103103 -0.00091006 0.000425765)
(-0.00105095 -0.000926129 0.000416273)
(-0.00107056 -0.00094453 0.000404566)
(-0.00109078 -0.000964793 0.00039126)
(-0.00111219 -0.000986642 0.000376715)
(-0.00113509 -0.0010099 0.000361074)
(-0.00115956 -0.00103445 0.000344304)
(-0.00118551 -0.00106017 0.000326258)
(-0.00121278 -0.00108691 0.000306704)
(-0.00124113 -0.00111445 0.000285337)
(-0.00127026 -0.0011425 0.000261773)
(-0.00129979 -0.00117065 0.000235499)
(-0.00132923 -0.0011983 0.000205821)
(-0.00135782 -0.00122464 0.000171595)
(-0.00138418 -0.00124834 0.000131423)
(-0.0014054 -0.00126746 8.30467e-05)
(-0.00141781 -0.00127904 2.80526e-05)
(-0.000299555 -0.000385193 -0.000195794)
(-0.0003651 -0.000493203 -4.36374e-05)
(-0.000406105 -0.000591714 -1.25873e-06)
(-0.000460118 -0.000685618 5.47865e-05)
(-0.000525121 -0.000766681 0.000119363)
(-0.000597068 -0.000829823 0.000183857)
(-0.000671888 -0.000872062 0.000243345)
(-0.000744718 -0.000894268 0.00029486)
(-0.000812159 -0.000900429 0.000336644)
(-0.000873436 -0.000897855 0.000369366)
(-0.000928304 -0.000893961 0.000395169)
(-0.000974852 -0.000889542 0.000413748)
(-0.00101083 -0.000887173 0.000423811)
(-0.00104102 -0.000890831 0.000427131)
(-0.00106673 -0.000899493 0.000425084)
(-0.00108942 -0.000912262 0.000418806)
(-0.00111056 -0.000928226 0.000409409)
(-0.0011314 -0.000946626 0.000397803)
(-0.00115289 -0.000966944 0.000384632)
(-0.00117562 -0.000988852 0.000370275)
(-0.00119989 -0.00101216 0.000354878)
(-0.00122576 -0.00103673 0.000338409)
(-0.00125316 -0.00106245 0.000320719)
(-0.0012819 -0.00108914 0.000301565)
(-0.00131172 -0.0011166 0.000280637)
(-0.00134231 -0.00114452 0.000257544)
(-0.00137329 -0.00117252 0.00023177)
(-0.00140413 -0.00120001 0.000202624)
(-0.00143407 -0.00122617 0.000168974)
(-0.00146164 -0.00124969 0.000129449)
(-0.00148384 -0.00126867 8.17935e-05)
(-0.00149685 -0.00128016 2.76117e-05)
(-0.000322592 -0.00036974 -0.00017854)
(-0.000391373 -0.000475059 -4.71249e-05)
(-0.000435119 -0.000571875 -8.04641e-06)
(-0.000491217 -0.000665168 4.46907e-05)
(-0.000557966 -0.000746966 0.00010679)
(-0.000631622 -0.000811732 0.000169726)
(-0.000708193 -0.000856241 0.00022839)
(-0.000783279 -0.000881549 0.000279764)
(-0.000854078 -0.00089201 0.000322396)
(-0.000919477 -0.000894204 0.000356934)
(-0.000978157 -0.000893223 0.000384476)
(-0.00102788 -0.000889838 0.00040446)
(-0.00106608 -0.000885961 0.0004152)
(-0.0010975 -0.000888467 0.000418854)
(-0.00112451 -0.000896346 0.000416997)
(-0.00114846 -0.000908659 0.00041087)
(-0.00117085 -0.000924361 0.000401608)
(-0.00119298 -0.000942621 0.000390149)
(-0.00121578 -0.000962849 0.000377167)
(-0.00123986 -0.000984668 0.000363053)
(-0.00126551 -0.00100786 0.000347952)
(-0.00129279 -0.00103229 0.000331841)
(-0.00132162 -0.0010578 0.000314557)
(-0.00135179 -0.00108426 0.000295856)
(-0.00138304 -0.00111142 0.000275419)
(-0.00141505 -0.00113903 0.000252848)
(-0.00144743 -0.00116668 0.000227628)
(-0.00147963 -0.0011938 0.000199066)
(-0.00151087 -0.0012196 0.000166052)
(-0.00153962 -0.00124279 0.000127246)
(-0.00156274 -0.00126147 8.03939e-05)
(-0.00157634 -0.00127281 2.71202e-05)
(-0.000343877 -0.000349823 -0.000156101)
(-0.00041558 -0.000451997 -5.0728e-05)
(-0.000461699 -0.000546417 -1.51408e-05)
(-0.000519344 -0.000638511 3.41189e-05)
(-0.000587464 -0.000720614 9.35086e-05)
(-0.000662714 -0.000786911 0.000154664)
(-0.000741266 -0.000834048 0.000212402)
(-0.000819074 -0.00086317 0.000263761)
(-0.000893493 -0.000878413 0.000307472)
(-0.000962878 -0.000885095 0.000343819)
(-0.0010252 -0.000886765 0.000372973)
(-0.00107796 -0.000884445 0.000394035)
(-0.00111938 -0.000880076 0.000405794)
(-0.00115219 -0.000881303 0.000409894)
(-0.00118056 -0.000888302 0.000408229)
(-0.00120583 -0.000900042 0.000402298)
(-0.00122954 -0.000915384 0.000393214)
(-0.00125297 -0.000933394 0.000381955)
(-0.00127709 -0.000953416 0.000369209)
(-0.0013025 -0.000975028 0.000355383)
(-0.0013295 -0.00099799 0.000340628)
(-0.00135816 -0.00102213 0.000324918)
(-0.00138835 -0.00104732 0.000308086)
(-0.00141988 -0.00107339 0.000289878)
(-0.00145248 -0.00110012 0.000269969)
(-0.0014858 -0.00112724 0.00024795)
(-0.00151946 -0.00115439 0.000223308)
(-0.0015529 -0.00118098 0.000195356)
(-0.00158536 -0.00120628 0.000163002)
(-0.00161518 -0.00122898 0.000124946)
(-0.00163915 -0.00124727 7.89321e-05)
(-0.0016533 -0.00125838 2.66063e-05)
(-0.0003629 -0.00032628 -0.000130978)
(-0.000437169 -0.000424761 -5.41355e-05)
(-0.000485191 -0.000516154 -2.22083e-05)
(-0.000543839 -0.00060647 2.34165e-05)
(-0.000612973 -0.000688439 7.98452e-05)
(-0.000689735 -0.000756159 0.000138948)
(-0.00077047 -0.000806155 0.000195607)
(-0.000851287 -0.000839372 0.00024695)
(-0.000929361 -0.000859312 0.000291723)
(-0.00100251 -0.00087002 0.000329735)
(-0.00106832 -0.00087409 0.000360387)
(-0.00112436 -0.000873045 0.000382496)
(-0.00116966 -0.000869398 0.00039559)
(-0.00120417 -0.000868725 0.000400159)
(-0.00123394 -0.000874697 0.000398782)
(-0.00126061 -0.000885719 0.00039311)
(-0.00128566 -0.000900551 0.000384272)
(-0.00131042 -0.000918191 0.000373278)
(-0.00133585 -0.000937879 0.000360832)
(-0.00136257 -0.00095916 0.000347351)
(-0.00139088 -0.000981747 0.000332994)
(-0.00142081 -0.00100546 0.000317731)
(-0.00145228 -0.00103015 0.000301393)
(-0.00148504 -0.00105567 0.000283714)
(-0.00151884 -0.0010818 0.000264361)
(-0.00155332 -0.00110827 0.000242918)
(-0.00158812 -0.00113473 0.000218876)
(-0.00162267 -0.00116064 0.000191547)
(-0.00165618 -0.00118527 0.000159869)
(-0.00168696 -0.00120735 0.000122585)
(-0.00171168 -0.00122512 7.74296e-05)
(-0.00172632 -0.00123593 2.6077e-05)
(-0.000379102 -0.000299937 -0.000104761)
(-0.000455555 -0.000394224 -5.71617e-05)
(-0.000504975 -0.000482041 -2.90401e-05)
(-0.000564078 -0.000570046 1.27713e-05)
(-0.000633839 -0.000651463 6.59397e-05)
(-0.000711998 -0.000720468 0.000122679)
(-0.000795032 -0.000773418 0.000178065)
(-0.000879029 -0.000810757 0.00022932)
(-0.000960805 -0.000835096 0.000275063)
(-0.00103766 -0.000849369 0.000314562)
(-0.001107 -0.000855637 0.000346628)
(-0.00116655 -0.000855888 0.000369869)
(-0.00121529 -0.000853071 0.000384044)
(-0.001253 -0.000851075 0.000389486)
(-0.00128434 -0.000855829 0.000388628)
(-0.0013125 -0.000865875 0.000383289)
(-0.00133897 -0.000880043 0.000374789)
(-0.00136506 -0.000897137 0.000364129)
(-0.00139178 -0.000916343 0.00035205)
(-0.00141977 -0.000937136 0.000338975)
(-0.0014493 -0.000959202 0.000325072)
(-0.00148044 -0.000982337 0.000310313)
(-0.00151305 -0.00100639 0.000294514)
(-0.00154692 -0.00103119 0.000277403)
(-0.00158176 -0.00105656 0.000258636)
(-0.00161724 -0.00108221 0.000237791)
(-0.00165301 -0.00110783 0.000214364)
(-0.00168846 -0.00113288 0.000187667)
(-0.0017229 -0.00115669 0.000156674)
(-0.00175449 -0.001178 0.000120176)
(-0.00177985 -0.00119515 7.58958e-05)
(-0.00179492 -0.00120559 2.55355e-05)
(-0.000392064 -0.000271709 -7.86366e-05)
(-0.000470239 -0.000361325 -5.97176e-05)
(-0.000520499 -0.000445056 -3.5491e-05)
(-0.000579452 -0.000530228 2.32651e-06)
(-0.000649384 -0.000610647 5.19173e-05)
(-0.000728721 -0.000680714 0.000105944)
(-0.000814032 -0.000736522 0.000159801)
(-0.000901227 -0.000777794 0.000210801)
(-0.000986687 -0.000806123 0.000257328)
(-0.00106728 -0.000823541 0.00029811)
(-0.00114028 -0.000831875 0.000331513)
(-0.00120356 -0.000833425 0.000355974)
(-0.00125598 -0.000831427 0.000371162)
(-0.00129789 -0.000829416 0.000377879)
(-0.00133111 -0.000832118 0.00037765)
(-0.0013609 -0.000841066 0.000372785)
(-0.00138885 -0.000854297 0.000364718)
(-0.00141633 -0.000870686 0.000354496)
(-0.00144436 -0.000889269 0.000342863)
(-0.00147358 -0.000909447 0.000330273)
(-0.00150427 -0.000930854 0.000316894)
(-0.00153649 -0.000953269 0.00030269)
(-0.00157011 -0.000976524 0.000287476)
(-0.00160491 -0.00100048 0.000270969)
(-0.0016406 -0.00102494 0.000252817)
(-0.00167688 -0.00104966 0.00023259)
(-0.00171339 -0.00107431 0.000209789)
(-0.00174958 -0.00109838 0.00018373)
(-0.00178476 -0.00112124 0.000153426)
(-0.00181702 -0.00114168 0.000117729)
(-0.00184288 -0.0011581 7.43355e-05)
(-0.00185832 -0.00116815 2.49829e-05)
(-0.000401066 -0.000242024 -5.34012e-05)
(-0.000480467 -0.000326556 -6.17268e-05)
(-0.000530995 -0.000405741 -4.14304e-05)
(-0.00058916 -0.00048756 -7.78691e-06)
(-0.000658702 -0.000566491 3.78839e-05)
(-0.000738845 -0.00063725 8.8809e-05)
(-0.000826255 -0.000695655 0.0001408)
(-0.000916577 -0.000740559 0.000191271)
(-0.00100575 -0.000772531 0.000238333)
(-0.00109025 -0.00079285 0.000280203)
(-0.00116718 -0.000803191 0.000314864)
(-0.00123439 -0.00080607 0.000340621)
(-0.00129077 -0.000804891 0.00035699)
(-0.00133662 -0.000803235 0.000364886)
(-0.00137342 -0.000804573 0.000365726)
(-0.001405 -0.000811732 0.000361526)
(-0.0014346 -0.000823906 0.000354046)
(-0.00146351 -0.000839359 0.000344361)
(-0.00149284 -0.000857135 0.000333277)
(-0.00152321 -0.000876537 0.000321254)
(-0.00155497 -0.000897158 0.000308468)
(-0.00158815 -0.000918739 0.000294883)
(-0.00162263 -0.000941106 0.000280309)
(-0.00165816 -0.000964099 0.000264446)
(-0.00169449 -0.000987533 0.000246938)
(-0.0017313 -0.00101116 0.000227341)
(-0.00176834 -0.00103471 0.000205174)
(-0.001805 -0.00105767 0.000179749)
(-0.00184073 -0.00107947 0.000150137)
(-0.00187346 -0.00109892 0.000115251)
(-0.00189969 -0.00111453 7.27517e-05)
(-0.00191539 -0.00112411 2.44198e-05)
(-0.000405857 -0.000211538 -2.97217e-05)
(-0.000485897 -0.000290624 -6.31701e-05)
(-0.000536085 -0.000364861 -4.67724e-05)
(-0.000592768 -0.000442831 -1.74303e-05)
(-0.000661232 -0.000519713 2.40093e-05)
(-0.000741673 -0.000590677 7.14224e-05)
(-0.000830889 -0.000651291 0.000121146)
(-0.000924197 -0.00069945 0.000170727)
(-0.00101707 -0.000734697 0.00021799)
(-0.00110558 -0.000757658 0.000260691)
(-0.00118663 -0.000769916 0.000296507)
(-0.00125803 -0.000774136 0.000323604)
(-0.0013186 -0.000773795 0.00034134)
(-0.00136851 -0.000772487 0.000350483)
(-0.00140936 -0.000773345 0.000352569)
(-0.00144393 -0.00077882 0.000349406)
(-0.00147526 -0.000789164 0.000342662)
(-0.00150571 -0.000803517 0.00033369)
(-0.00153636 -0.00082033 0.000323274)
(-0.00156789 -0.000838834 0.000311923)
(-0.0016006 -0.000858536 0.000299818)
(-0.00163456 -0.00087915 0.00028692)
(-0.00166966 -0.000900486 0.000273035)
(-0.00170567 -0.000922487 0.000257863)
(-0.00174234 -0.000944965 0.000241032)
(-0.00177943 -0.000967617 0.000222091)
(-0.00181667 -0.00099014 0.000200565)
(-0.00185356 -0.00101207 0.000175772)
(-0.0018896 -0.00103283 0.000146844)
(-0.00192262 -0.00105128 0.000112772)
(-0.00194903 -0.00106608 7.11649e-05)
(-0.00196494 -0.00107524 2.38535e-05)
(-0.000405712 -0.000180609 -8.03708e-06)
(-0.000485841 -0.000253997 -6.39704e-05)
(-0.000535084 -0.000322935 -5.14101e-05)
(-0.000589547 -0.000396572 -2.64396e-05)
(-0.000656144 -0.000470778 1.04783e-05)
(-0.000736187 -0.000541319 5.39318e-05)
(-0.000826712 -0.000603589 0.000100892)
(-0.000922739 -0.000654554 0.000149094)
(-0.0010193 -0.00069279 0.000196146)
(-0.00111207 -0.000718314 0.00023942)
(-0.00119761 -0.000732507 0.000276292)
(-0.00127354 -0.00073809 0.00030476)
(-0.00133858 -0.000738605 0.000324026)
(-0.0013928 -0.00073764 0.000334632)
(-0.00143766 -0.000738271 0.000338062)
(-0.00147586 -0.000742737 0.000336154)
(-0.00151018 -0.000751641 0.000330592)
(-0.00154223 -0.00076435 0.000322508)
(-0.00157418 -0.000779876 0.000312893)
(-0.00160674 -0.000797307 0.00030233)
(-0.00164026 -0.000816038 0.000291007)
(-0.00167483 -0.000835722 0.000278882)
(-0.00171035 -0.000856122 0.000265761)
(-0.0017464 -0.000877069 0.000251296)
(-0.00178278 -0.000898389 0.000235114)
(-0.00181942 -0.000919829 0.000216783)
(-0.00185624 -0.000941142 0.000195862)
(-0.0018927 -0.000961833 0.000171663)
(-0.0019286 -0.000981409 0.000143412)
(-0.00196152 -0.000998747 0.000110178)
(-0.00198782 -0.00101266 6.94987e-05)
(-0.00200366 -0.00102129 2.32553e-05)
(-0.000400582 -0.000150076 1.11911e-05)
(-0.000479936 -0.000217186 -6.42803e-05)
(-0.000527632 -0.000280793 -5.52652e-05)
(-0.00057915 -0.000349601 -3.46513e-05)
(-0.000642947 -0.000420451 -2.47465e-06)
(-0.000721722 -0.000489825 3.65833e-05)
(-0.000812978 -0.000553137 8.02114e-05)
(-0.000911497 -0.000606521 0.00012647)
(-0.00101175 -0.000647513 0.000172834)
(-0.00110886 -0.00067544 0.000216331)
(-0.00119911 -0.000691502 0.000254083)
(-0.00127987 -0.000698419 0.000283908)
(-0.00134967 -0.000699749 0.000304813)
(-0.00140844 -0.000699099 0.000317109)
(-0.00145754 -0.000699552 0.000322125)
(-0.0014994 -0.000703286 0.000321659)
(-0.0015366 -0.000711034 0.000317397)
(-0.00157093 -0.000722247 0.000310477)
(-0.0016045 -0.000736434 0.000301921)
(-0.00163807 -0.00075265 0.00029232)
(-0.00167211 -0.000770231 0.000281876)
(-0.00170679 -0.000788772 0.000270569)
(-0.00174207 -0.000808006 0.000258207)
(-0.00177763 -0.000827659 0.000244441)
(-0.00181335 -0.000847582 0.000228919)
(-0.00184925 -0.000867613 0.000211218)
(-0.00188524 -0.000887476 0.000190906)
(-0.00192099 -0.000906773 0.00016731)
(-0.00195644 -0.000925003 0.000139759)
(-0.00198902 -0.000941139 0.000107416)
(-0.00201495 -0.000954057 6.77166e-05)
(-0.0020307 -0.00096209 2.26138e-05)
(-0.000388365 -0.000119903 2.75662e-05)
(-0.000468417 -0.000181059 -6.39238e-05)
(-0.000513294 -0.000239049 -5.83319e-05)
(-0.000561025 -0.000302558 -4.18819e-05)
(-0.000621031 -0.000369365 -1.45705e-05)
(-0.000697503 -0.000436729 1.96507e-05)
(-0.000788636 -0.000500313 5.92976e-05)
(-0.000889059 -0.000555531 0.000102903)
(-0.000992771 -0.000598984 0.000147956)
(-0.00109449 -0.000629354 0.00019128)
(-0.0011899 -0.000647403 0.000229729)
(-0.00127595 -0.000655707 0.000260889)
(-0.00135097 -0.000657849 0.000283538)
(-0.0014147 -0.000657487 0.000297735)
(-0.00146825 -0.000657698 0.000304594)
(-0.00151393 -0.000660695 0.000305814)
(-0.00155415 -0.000667307 0.00030305)
(-0.00159079 -0.000677163 0.000297483)
(-0.00162586 -0.000689953 0.000290156)
(-0.00166029 -0.000704773 0.000281653)
(-0.00169465 -0.000720986 0.000272203)
(-0.00172921 -0.000738179 0.000261807)
(-0.001764 -0.000756036 0.000250272)
(-0.00179882 -0.000774257 0.000237259)
(-0.00183359 -0.000792683 0.00022244)
(-0.00186832 -0.000811167 0.000205388)
(-0.00190319 -0.000829512 0.000185712)
(-0.0019378 -0.000847278 0.000162722)
(-0.00197255 -0.000864098 0.000135898)
(-0.00200447 -0.000878951 0.000104494)
(-0.00202984 -0.000890835 6.58257e-05)
(-0.00204534 -0.0008982 2.19291e-05)
(-0.000368957 -9.06675e-05 4.09857e-05)
(-0.000450757 -0.000146517 -6.28447e-05)
(-0.000492109 -0.000198508 -6.05267e-05)
(-0.000535029 -0.000256355 -4.79454e-05)
(-0.000590022 -0.000318362 -2.54894e-05)
(-0.000662871 -0.000382713 3.52912e-06)
(-0.000752879 -0.000445712 3.8501e-05)
(-0.000854812 -0.000502338 7.86641e-05)
(-0.00096203 -0.000548167 0.000121723)
(-0.00106837 -0.000580919 0.00016435)
(-0.0011691 -0.000600944 0.000203187)
(-0.00126081 -0.000610646 0.00023558)
(-0.0013414 -0.000613524 0.000260016)
(-0.00141039 -0.000613299 0.000276273)
(-0.0014688 -0.000613194 0.000285242)
(-0.0015186 -0.000615396 0.000288445)
(-0.00156199 -0.000620785 0.000287435)
(-0.00160098 -0.000629221 0.000283448)
(-0.0016376 -0.000640532 0.000277548)
(-0.00167288 -0.000653878 0.000270321)
(-0.00170744 -0.000668621 0.000262014)
(-0.00174163 -0.000684327 0.000252635)
(-0.00177558 -0.000700671 0.000242001)
(-0.00180917 -0.000717321 0.000229783)
(-0.00184249 -0.000734133 0.000215696)
(-0.00187565 -0.000751006 0.000199321)
(-0.00190883 -0.000767708 0.000180279)
(-0.00194196 -0.000783914 0.000157901)
(-0.00197564 -0.000799235 0.000131822)
(-0.00200663 -0.000812777 0.000101412)
(-0.00203112 -0.000823578 6.38215e-05)
(-0.00204635 -0.000830269 2.12012e-05)
(-0.000342539 -6.33528e-05 5.13266e-05)
(-0.00042585 -0.000113917 -6.09633e-05)
(-0.000463757 -0.000159894 -6.17019e-05)
(-0.000501138 -0.00021187 -5.26313e-05)
(-0.00055005 -0.00026845 -3.48796e-05)
(-0.000617949 -0.00032882 -1.13191e-05)
(-0.000705484 -0.000390204 1.82877e-05)
(-0.00080773 -0.000447384 5.40769e-05)
(-0.000917685 -0.000495115 9.42384e-05)
(-0.0010288 -0.000530344 0.000135523)
(-0.00113535 -0.000552598 0.000174372)
(-0.00123319 -0.00056384 0.000207842)
(-0.00131997 -0.000567525 0.000234117)
(-0.00139487 -0.00056743 0.000252635)
(-0.00145848 -0.000566827 0.000263964)
(-0.00151264 -0.000568045 0.000269432)
(-0.0015595 -0.000572113 0.0002705)
(-0.00160103 -0.00057905 0.000268381)
(-0.00163917 -0.000588745 0.000264129)
(-0.00167506 -0.000600446 0.00025835)
(-0.00170952 -0.000613577 0.000251325)
(-0.00174301 -0.000627696 0.000243079)
(-0.00177574 -0.000642461 0.000233431)
(-0.00180779 -0.000657535 0.000222074)
(-0.00183928 -0.00067273 0.000208759)
(-0.00187036 -0.00068796 0.000193069)
(-0.00190153 -0.000703066 0.000174676)
(-0.00193266 -0.000717661 0.000152884)
(-0.001965 -0.000731485 0.000127566)
(-0.00199468 -0.000743696 9.81941e-05)
(-0.00201807 -0.000753424 6.17209e-05)
(-0.00203286 -0.000759391 2.04329e-05)
(-0.00030959 -3.89631e-05 5.83865e-05)
(-0.000393294 -8.38415e-05 -5.82691e-05)
(-0.00042801 -0.00012404 -6.17963e-05)
(-0.000459387 -0.000170004 -5.57731e-05)
(-0.000500879 -0.00022045 -4.23746e-05)
(-0.000561979 -0.000275634 -2.43118e-05)
(-0.000645378 -0.00033418 -6.92126e-07)
(-0.000747233 -0.000391324 2.97401e-05)
(-0.00086002 -0.000440971 6.60273e-05)
(-0.000975659 -0.000478625 0.000105135)
(-0.00108802 -0.000503168 0.000143429)
(-0.00119247 -0.000516131 0.000177711)
(-0.00128585 -0.000520656 0.000205766)
(-0.00136691 -0.000520544 0.000226642)
(-0.0014362 -0.000519309 0.000240598)
(-0.00149519 -0.000519406 0.000248677)
(-0.00154572 -0.000521959 0.000252149)
(-0.00158983 -0.000527227 0.000252202)
(-0.00162956 -0.000535212 0.000249879)
(-0.00166611 -0.000545225 0.000245797)
(-0.00170034 -0.000556706 0.000240241)
(-0.00173281 -0.000569199 0.000233249)
(-0.00176388 -0.000582357 0.00022466)
(-0.00179375 -0.000595805 0.000214183)
(-0.00182281 -0.00060938 0.000201646)
(-0.0018513 -0.000623007 0.000186649)
(-0.00187977 -0.000636496 0.000168878)
(-0.00190854 -0.000649555 0.000147654)
(-0.00193915 -0.000661882 0.000123105)
(-0.00196722 -0.000672795 9.48252e-05)
(-0.00198916 -0.000681452 5.95095e-05)
(-0.00200349 -0.000686727 1.962e-05)
(-0.000270542 -1.83231e-05 6.19558e-05)
(-0.000353016 -5.70467e-05 -5.4676e-05)
(-0.000385014 -9.1714e-05 -6.07401e-05)
(-0.000410591 -0.000131774 -5.72988e-05)
(-0.000444166 -0.000175799 -4.77149e-05)
(-0.000497099 -0.000224922 -3.49032e-05)
(-0.000574387 -0.000279306 -1.76697e-05)
(-0.000673372 -0.000334924 6.40403e-06)
(-0.000786909 -0.000385451 3.75817e-05)
(-0.000907134 -0.000425721 7.35085e-05)
(-0.00102593 -0.000453014 0.000110546)
(-0.00113732 -0.000467961 0.000145204)
(-0.00123791 -0.000473552 0.000174918)
(-0.00132604 -0.000473605 0.000198301)
(-0.00140154 -0.000471668 0.000215139)
(-0.00146558 -0.000470415 0.000226137)
(-0.00152013 -0.000471308 0.000232392)
(-0.00156709 -0.000474793 0.000234979)
(-0.00160834 -0.000480924 0.000234875)
(-0.0016452 -0.000489108 0.0002327)
(-0.00167876 -0.00049885 0.00022877)
(-0.00170979 -0.000509711 0.000223152)
(-0.00173874 -0.000521298 0.000215692)
(-0.0017661 -0.000533249 0.000206144)
(-0.00179232 -0.00054533 0.000194407)
(-0.00181772 -0.000557464 0.000180105)
(-0.00184312 -0.000569508 0.000162949)
(-0.00186894 -0.000581082 0.000142238)
(-0.00189753 -0.000591981 0.000118463)
(-0.0019236 -0.00060165 9.13234e-05)
(-0.00194382 -0.000609298 5.71981e-05)
(-0.00195756 -0.000613873 1.87635e-05)
(-0.000225952 -2.1425e-06 6.1914e-05)
(-0.000305209 -3.43005e-05 -5.01074e-05)
(-0.000334892 -6.35847e-05 -5.84902e-05)
(-0.000354911 -9.7795e-05 -5.71611e-05)
(-0.000379669 -0.000134989 -5.06033e-05)
(-0.00042227 -0.000176836 -4.23606e-05)
(-0.000490984 -0.00022546 -3.1519e-05)
(-0.000586271 -0.000278764 -1.47028e-05)
(-0.000700975 -0.000330246 1.00414e-05)
(-0.000824384 -0.000372668 4.14476e-05)
(-0.000948784 -0.000402672 7.62178e-05)
(-0.00106768 -0.000420071 0.000110677)
(-0.00117602 -0.000427051 0.00014178)
(-0.00127134 -0.000427282 0.000167612)
(-0.00135339 -0.000424614 0.000187517)
(-0.00142312 -0.000422001 0.000201795)
(-0.00148191 -0.000421082 0.000211198)
(-0.00153166 -0.000422607 0.00021666)
(-0.00157445 -0.000426806 0.000219101)
(-0.00161168 -0.000433188 0.000219119)
(-0.00164447 -0.000441267 0.000217028)
(-0.00167365 -0.000450557 0.000212905)
(-0.00169995 -0.000460668 0.000206631)
(-0.00172402 -0.000471178 0.000197997)
(-0.00174668 -0.000481862 0.000187038)
(-0.00176828 -0.000492613 0.000173409)
(-0.00178984 -0.000503307 0.000156821)
(-0.00181232 -0.000513548 0.000136576)
(-0.00183854 -0.000523095 0.000113585)
(-0.00186227 -0.000531623 8.76515e-05)
(-0.00188044 -0.00053833 5.47598e-05)
(-0.00189356 -0.000542248 1.7854e-05)
(-0.00017699 9.15134e-06 5.83517e-05)
(-0.000250742 -1.63455e-05 -4.4554e-05)
(-0.000278731 -4.02662e-05 -5.49954e-05)
(-0.000294618 -6.89433e-05 -5.54644e-05)
(-0.000311725 -9.96632e-05 -5.11718e-05)
(-0.000343789 -0.000134017 -4.65234e-05)
(-0.000401455 -0.000175453 -4.15441e-05)
(-0.000487369 -0.000223512 -3.24304e-05)
(-0.000597635 -0.000273384 -1.53561e-05)
(-0.000724811 -0.000318481 1.00801e-05)
(-0.000856119 -0.000352129 4.1281e-05)
(-0.000982547 -0.000372469 7.46061e-05)
(-0.00109902 -0.000381331 0.000106601)
(-0.00120253 -0.00038227 0.000134805)
(-0.00129188 -0.000379123 0.000157928)
(-0.00136739 -0.000375092 0.000175729)
(-0.00143069 -0.000372334 0.00018865)
(-0.00148357 -0.000371901 0.000197388)
(-0.00152775 -0.000374107 0.000202685)
(-0.00156483 -0.00037862 0.000205112)
(-0.00159617 -0.000385009 0.000204999)
(-0.00162298 -0.00039283 0.000202478)
(-0.00164604 -0.000401617 0.00019743)
(-0.00166647 -0.000410923 0.00018973)
(-0.00168518 -0.000420442 0.000179553)
(-0.00170264 -0.000430058 0.000166604)
(-0.00171991 -0.00043966 0.000150547)
(-0.0017385 -0.000448692 0.000130682)
(-0.00176205 -0.000456994 0.000108485)
(-0.00178305 -0.000464491 8.38214e-05)
(-0.00179884 -0.000470352 5.21978e-05)
(-0.00181125 -0.000473642 1.68912e-05)
(-0.00012502 1.50021e-05 5.14725e-05)
(-0.000190672 -3.72203e-06 -3.78753e-05)
(-0.000217333 -2.21968e-05 -5.02167e-05)
(-0.000229937 -4.53367e-05 -5.23842e-05)
(-0.000238825 -6.94022e-05 -4.94404e-05)
(-0.000258189 -9.536e-05 -4.67045e-05)
(-0.000301921 -0.000128122 -4.58835e-05)
(-0.000380521 -0.000170885 -4.42533e-05)
(-0.000489402 -0.000219608 -3.66913e-05)
(-0.000614313 -0.000264955 -1.93224e-05)
(-0.000748868 -0.000301518 6.87046e-06)
(-0.000882896 -0.000325435 3.79586e-05)
(-0.00100793 -0.000336932 7.01311e-05)
(-0.00111956 -0.000338976 0.00010031)
(-0.00121617 -0.000335604 0.000126573)
(-0.00129808 -0.000330459 0.000148126)
(-0.00136605 -0.000325953 0.00016487)
(-0.0014217 -0.000323513 0.000177172)
(-0.00146718 -0.000323789 0.000185639)
(-0.00150414 -0.000326586 0.000190757)
(-0.001534 -0.000331501 0.000192835)
(-0.00155788 -0.000338021 0.000192003)
(-0.00157709 -0.000345684 0.000188198)
(-0.00159301 -0.000353941 0.000181365)
(-0.00160691 -0.000362447 0.0001719)
(-0.00161928 -0.000371044 0.000159582)
(-0.0016315 -0.000379757 0.000143991)
(-0.00164584 -0.000387746 0.000124427)
(-0.00166647 -0.000394928 0.00010306)
(-0.00168438 -0.000401534 7.97583e-05)
(-0.00169755 -0.000406662 4.94654e-05)
(-0.00170922 -0.000409376 1.58586e-05)
(-7.20246e-05 1.64816e-05 4.24088e-05)
(-0.000126631 3.95897e-06 -2.99284e-05)
(-0.000151716 -8.76239e-06 -4.34387e-05)
(-0.000163693 -2.6519e-05 -4.66376e-05)
(-0.000169746 -4.44836e-05 -4.45082e-05)
(-0.000180818 -6.2577e-05 -4.2765e-05)
(-0.000211898 -8.57707e-05 -4.60428e-05)
(-0.000266266 -0.000117934 -5.16192e-05)
(-0.00035616 -0.000160724 -5.1111e-05)
(-0.000485495 -0.000209055 -4.2492e-05)
(-0.000626784 -0.000249558 -2.44686e-05)
(-0.00076824 -0.000278059 2.2588e-06)
(-0.000901986 -0.000293198 3.33595e-05)
(-0.00102248 -0.000297399 6.4865e-05)
(-0.00112721 -0.00029462 9.40582e-05)
(-0.0012153 -0.000288687 0.000119348)
(-0.00128791 -0.0002827 0.000140112)
(-0.0013467 -0.000278551 0.000156305)
(-0.00139313 -0.000277037 0.000168182)
(-0.00142913 -0.00027819 0.00017613)
(-0.00145644 -0.000281706 0.000180461)
(-0.00147689 -0.000287159 0.000181387)
(-0.00149159 -0.000293937 0.000178806)
(-0.00150266 -0.000301438 0.000172807)
(-0.0015116 -0.000309239 0.000164043)
(-0.0015189 -0.000317138 0.000152396)
(-0.0015255 -0.000325247 0.000137194)
(-0.00153518 -0.000332305 0.000117813)
(-0.00155265 -0.000338478 9.73161e-05)
(-0.00156714 -0.000344333 7.54714e-05)
(-0.00157729 -0.000348806 4.65594e-05)
(-0.00158824 -0.00035101 1.47558e-05)
(-2.73338e-05 1.33934e-05 3.10362e-05)
(-6.54263e-05 5.9918e-06 -2.01234e-05)
(-8.90896e-05 -9.56807e-07 -3.18562e-05)
(-0.000102509 -1.2348e-05 -3.82271e-05)
(-0.000104895 -2.51873e-05 -3.80552e-05)
(-0.000105301 -3.54086e-05 -3.74635e-05)
(-0.0001165 -5.12663e-05 -3.75748e-05)
(-0.000171064 -7.4864e-05 -4.28916e-05)
(-0.000258309 -0.000107666 -5.72279e-05)
(-0.00035754 -0.00015052 -6.3044e-05)
(-0.000494722 -0.00019683 -5.21092e-05)
(-0.000642049 -0.00023033 -3.06974e-05)
(-0.000783712 -0.000250096 -2.09156e-06)
(-0.000912649 -0.000257414 2.9669e-05)
(-0.00102477 -0.000255946 6.11217e-05)
(-0.00111951 -0.000250055 8.9976e-05)
(-0.00119676 -0.000243127 0.000114804)
(-0.0012577 -0.000237508 0.00013495)
(-0.00130477 -0.00023453 0.000150402)
(-0.0013399 -0.000234426 0.000161377)
(-0.00136485 -0.000236948 0.000168119)
(-0.00138097 -0.000241563 0.000170781)
(-0.0013905 -0.000247722 0.000169354)
(-0.00139582 -0.000254637 0.000164038)
(-0.00139876 -0.00026183 0.000155832)
(-0.00139982 -0.000269029 0.000144784)
(-0.00140023 -0.000276796 0.000129899)
(-0.00140507 -0.000282968 0.000110597)
(-0.00141933 -0.000288268 9.10801e-05)
(-0.00143008 -0.000293483 7.08265e-05)
(-0.0014372 -0.000297425 4.34056e-05)
(-0.00144733 -0.000299162 1.35594e-05)
(-5.13088e-06 1.07733e-05 2.47466e-05)
(-1.65182e-05 3.17309e-06 -8.95847e-06)
(-2.59293e-05 3.24208e-06 -1.98347e-05)
(-3.25109e-05 -3.40069e-06 -3.00116e-05)
(-3.31749e-05 -1.30223e-05 -3.25649e-05)
(-4.90566e-05 -3.15795e-05 -4.37081e-05)
(-5.54648e-05 -4.04933e-05 -3.51754e-05)
(-4.51409e-05 -2.67874e-05 -2.00478e-05)
(-0.000107668 -5.6716e-05 -3.53228e-05)
(-0.0002396 -9.87325e-05 -5.65704e-05)
(-0.000355477 -0.000137979 -6.96067e-05)
(-0.000503151 -0.000179931 -5.77972e-05)
(-0.00065332 -0.000206138 -3.39195e-05)
(-0.000790654 -0.000218128 -3.69453e-06)
(-0.000911027 -0.000219497 2.90284e-05)
(-0.00101159 -0.000214483 6.08473e-05)
(-0.00109286 -0.000207336 8.9505e-05)
(-0.00115638 -0.000201015 0.000113649)
(-0.0012034 -0.000197024 0.000132665)
(-0.00123618 -0.000195908 0.000146564)
(-0.00125707 -0.00019758 0.000155573)
(-0.00126871 -0.000201741 0.000159971)
(-0.00127245 -0.000207531 0.000159567)
(-0.00127194 -0.000214114 0.000154828)
(-0.0012693 -0.000220982 0.000147166)
(-0.00126487 -0.00022773 0.000136847)
(-0.00125844 -0.00023539 0.000122152)
(-0.00125841 -0.000240601 0.000102778)
(-0.0012693 -0.000245107 8.43671e-05)
(-0.00127617 -0.000249747 6.58423e-05)
(-0.0012798 -0.000253172 3.99996e-05)
(-0.00128929 -0.00025453 1.22734e-05)
(2.02477e-05 5.27669e-06 1.8965e-05)
(1.81131e-05 1.55073e-06 -5.63835e-06)
(1.26292e-05 1.37767e-06 -1.47695e-05)
(4.42911e-06 -3.06013e-06 -2.20799e-05)
(-3.91212e-06 -8.68767e-06 -2.60445e-05)
(-1.07215e-05 -1.33808e-05 -2.67097e-05)
(-1.65495e-05 -1.54598e-05 -2.61017e-05)
(-2.47056e-05 -1.88028e-05 -2.79626e-05)
(-3.44777e-05 -2.41648e-05 -2.84487e-05)
(-7.60938e-05 -5.40329e-05 -3.19058e-05)
(-0.000227566 -9.10942e-05 -4.90105e-05)
(-0.000365792 -0.000123717 -7.24276e-05)
(-0.000515392 -0.000160487 -5.99608e-05)
(-0.000659903 -0.000179177 -3.29984e-05)
(-0.000786688 -0.000184339 -7.23932e-07)
(-0.000893324 -0.000181616 3.3124e-05)
(-0.000978326 -0.000175314 6.51016e-05)
(-0.00104235 -0.00016887 9.28048e-05)
(-0.00108865 -0.000164523 0.000115174)
(-0.0011196 -0.000163077 0.000131967)
(-0.00113725 -0.000164506 0.000143279)
(-0.00114285 -0.000168381 0.000149143)
(-0.00114019 -0.000174004 0.000149535)
(-0.00113299 -0.000180272 0.000145092)
(-0.00112356 -0.000186694 0.000137717)
(-0.0011123 -0.000192601 0.000128066)
(-0.00109868 -0.000200343 0.000113482)
(-0.00109423 -0.000204355 9.39422e-05)
(-0.00110201 -0.000208204 7.69035e-05)
(-0.00110479 -0.000212217 6.02926e-05)
(-0.00110544 -0.000215226 3.6234e-05)
(-0.001114 -0.000216208 1.0866e-05)
(4.10324e-05 2.63309e-06 2.8916e-05)
(4.88444e-05 1.14654e-06 -2.72447e-06)
(4.66984e-05 -4.53455e-07 -5.85635e-06)
(3.85544e-05 -2.08661e-06 -1.01822e-05)
(2.97042e-05 -5.39944e-06 -1.5281e-05)
(1.87913e-05 -5.84721e-06 -1.91968e-05)
(5.38947e-06 -4.01048e-06 -2.54184e-05)