/*--------------------------------*- C++ -*----------------------------------*\
  =========                 |
  \\      /  F ield         | OpenFOAM: The Open Source CFD Toolbox
   \\    /   O peration     | Website:  https://openfoam.org
    \\  /    A nd           | Version:  6
     \\/     M anipulation  |
\*---------------------------------------------------------------------------*/
FoamFile
{
    version     2.0;
    format      ascii;
    class       volScalarField;
    location    "3";
    object      yPlus;
}
// * * * * * * * * * * * * * * * * * * * * * * * * * * * * * * * * * * * * * //

dimensions      [0 0 0 0 0 0 0];

internalField   uniform 0;

boundaryField
{
    inlet
    {
        type            calculated;
        value           uniform 0;
    }
    outlet
    {
        type            calculated;
        value           uniform 0;
    }
    roughCylinder
    {
        type            calculated;
        value           nonuniform List<scalar> 
5120
(
45.29
53.1564
59.4464
65.5844
70.8391
75.0713
78.4447
81.1594
83.3758
85.2375
86.872
88.3359
89.6703
90.9061
92.073
93.2003
94.3178
95.4529
96.6279
97.8579
99.1507
100.507
101.924
103.392
104.904
106.447
108.009
109.567
111.088
112.507
113.676
114.375
44.6471
52.2377
58.3347
64.336
69.5173
73.7127
77.0656
79.7698
81.9842
83.8517
85.4897
86.9501
88.2707
89.4883
90.633
91.7355
92.8263
93.9332
95.0787
96.2781
97.539
98.8626
100.245
101.677
103.152
104.657
106.178
107.697
109.179
110.561
111.7
112.38
43.9601
51.3067
57.2218
63.086
68.1923
72.3513
75.6871
78.3874
80.6093
82.4904
84.1361
85.5956
86.9037
88.1039
89.2276
90.3064
91.3713
92.4511
93.5682
94.7377
95.9672
97.2578
98.605
100.002
101.438
102.905
104.387
105.866
107.31
108.656
109.764
110.426
43.2332
50.3569
56.0953
61.8226
66.8555
70.9837
74.3109
77.0182
79.2585
81.1598
82.816
84.2755
85.5741
86.7601
87.8651
88.9215
89.9622
91.0155
92.1045
93.2446
94.4433
95.7016
97.0152
98.3768
99.7773
101.206
102.649
104.088
105.494
106.804
107.881
108.526
42.4978
49.408
54.9686
60.5559
65.5156
69.6179
72.9438
75.6652
77.9294
79.8542
81.5244
82.9877
84.2837
85.4568
86.5441
87.5802
88.5976
89.6266
90.6895
91.802
92.9712
94.1979
95.4779
96.8046
98.1684
99.5593
100.964
102.366
103.733
105.008
106.056
106.683
41.7399
48.4463
53.8277
59.2721
64.1602
68.2435
71.5778
74.3232
76.6193
78.5729
80.2602
81.731
83.028
84.1918
85.2656
86.2834
87.2806
88.2858
89.3233
90.4083
91.5487
92.7453
93.9939
95.2867
96.6153
97.9686
99.3359
100.698
102.029
103.269
104.288
104.897
40.9846
47.4899
52.6868
57.9822
62.7987
66.8696
70.2212
72.9965
75.3262
77.3086
79.0163
80.4997
81.8023
82.964
84.0264
85.029
86.0064
86.9911
88.0057
89.0661
90.1793
91.3462
92.5624
93.8214
95.1143
96.4316
97.7608
99.0867
100.381
101.587
102.577
103.17
40.2086
46.5177
51.5245
56.6643
61.4078
65.4722
68.8502
71.6644
74.0367
76.0573
77.7923
79.2935
80.6066
81.7714
82.8274
83.818
84.7809
85.7457
86.7379
87.7733
88.8598
89.9983
91.1849
92.4118
93.6705
94.9505
96.2436
97.5311
98.7896
99.9621
100.924
101.499
39.4332
45.545
50.3533
55.3268
59.9931
64.0572
67.4734
70.3367
72.7559
74.8142
76.579
78.1033
79.432
80.6052
81.6626
82.6461
83.595
84.544
85.5176
86.5317
87.5937
88.7042
89.8597
91.0528
92.2759
93.5207
94.7753
96.0266
97.2489
98.3892
99.3222
99.8827
38.6253
44.542
49.143
53.9387
58.522
62.5895
66.0525
68.9735
71.4504
73.5625
75.3704
76.927
78.2793
79.4671
80.5296
81.5118
82.4545
83.3898
84.3448
85.3365
86.3736
87.4573
88.5836
89.7454
90.9346
92.1413
93.36
94.5723
95.7596
96.8664
97.7723
98.3151
37.8024
43.5199
47.9031
52.5028
56.9896
61.0616
64.5879
67.5893
70.1398
72.3081
74.161
75.7545
77.1346
78.3421
79.4187
80.406
81.3448
82.2705
83.2123
84.187
85.2021
86.2588
87.3543
88.4807
89.6317
90.8017
91.9788
93.154
94.3043
95.3786
96.2551
96.7831
36.9126
42.4361
46.5944
50.9828
55.3612
59.439
63.0376
66.1265
68.7599
71.0092
72.93
74.5759
75.9976
77.236
78.3298
79.3261
80.2687
81.1894
82.1182
83.0729
84.0639
85.0938
86.159
87.2537
88.3697
89.4997
90.6401
91.7739
92.8893
93.9299
94.7782
95.289
35.9602
41.2948
45.2143
49.3629
53.6011
57.6715
61.361
64.5828
67.3437
69.6859
71.6789
73.3853
74.8522
76.1239
77.2467
78.2622
79.2099
80.1281
81.0497
81.9921
82.9639
83.9673
85.0006
86.057
87.1327
88.2231
89.3191
90.4144
91.4916
92.4996
93.3175
93.8141
34.9022
40.0537
43.7247
47.6132
51.6921
55.7522
59.5417
62.8964
65.7852
68.2607
70.3653
72.1536
73.6881
75.0152
76.1728
77.2094
78.1727
79.0959
80.01
80.9347
81.8828
82.8591
83.8609
84.8848
85.9233
86.9714
88.0296
89.0802
90.1211
91.0942
91.8835
92.3623
33.7144
38.6863
42.0903
45.6711
49.5235
53.5229
57.4236
61.001
64.1259
66.7609
68.9878
70.8831
72.495
73.8749
75.0797
76.1545
77.1356
78.0645
78.9784
79.8965
80.8288
81.7786
82.7468
83.7281
84.7218
85.7255
86.7335
87.7428
88.7444
89.6829
90.4399
90.9046
32.3375
37.143
40.2754
43.5279
47.1302
51.0612
55.0718
58.8324
62.1567
65.047
67.4824
69.5135
71.2338
72.7079
73.9766
75.0892
76.101
77.0486
77.9623
78.865
79.7726
80.6938
81.6274
82.5735
83.5266
84.4855
85.4514
86.4111
87.3736
88.2749
89.0002
89.448
30.6774
35.3311
38.1738
41.0188
44.2258
47.9474
52.0524
56.208
60.0078
63.1687
65.8128
68.0454
69.9106
71.4755
72.8173
73.9952
75.0436
76.0065
76.9286
77.8313
78.7272
79.6205
80.5167
81.4132
82.3137
83.2172
84.1265
85.0385
85.9592
86.8225
87.5129
87.9462
28.6171
33.1643
35.7346
38.1772
40.993
44.5055
48.651
52.9443
57.0075
60.76
63.8717
66.3713
68.4316
70.158
71.6154
72.8583
73.9579
74.9594
75.8904
76.7793
77.6466
78.5085
79.364
80.2196
81.0743
81.93
82.7873
83.6423
84.519
85.3413
85.9931
86.4109
25.8622
30.3725
32.6754
34.5796
36.6394
39.5176
43.5951
48.7698
53.9509
58.0838
61.5661
64.468
66.8122
68.7184
70.2984
71.6516
72.818
73.8464
74.7967
75.6944
76.5555
77.3832
78.1936
78.988
79.7746
80.5556
81.3473
82.1424
82.9738
83.7512
84.3646
84.7661
21.9138
26.6231
28.7501
30.2435
31.8095
34.2618
38.1771
42.6402
47.8822
53.8745
58.5416
62.0863
64.8691
67.0793
68.8779
70.3471
71.597
72.6958
73.6669
74.5484
75.3701
76.1638
76.9225
77.6648
78.3987
79.1272
79.8473
80.5723
81.3506
82.0796
82.6425
83.0302
15.6809
21.1175
23.5235
24.5859
24.5608
24.5144
26.6793
35.2724
43.744
49.1124
54.7201
59.2087
62.5846
65.1968
67.2341
68.9026
70.2743
71.4153
72.4212
73.327
74.1524
74.8919
75.5887
76.2479
76.8832
77.5019
78.1392
78.7843
79.5111
80.1816
80.7
81.0696
0.856227
10.4567
11.959
11.9013
5.61453
18.339
19.5315
7.77217
23.6358
40.6987
48.7253
54.9944
59.5822
62.865
65.3578
67.2538
68.7714
70.0413
71.0846
71.9595
72.7171
73.4242
74.0484
74.6354
75.2069
75.7631
76.2928
76.8388
77.4978
78.1062
78.5482
78.9099
5.27356
10.6999
11.1919
10.9205
11.5489
11.6148
10.1598
4.99181
2.46086
18.8596
40.5554
49.5682
55.6663
59.9997
63.033
65.3332
67.0866
68.4203
69.5233
70.4551
71.2376
71.8387
72.3646
72.82
73.2304
73.6077
74.01
74.4423
75.0366
75.5568
75.9498
76.2832
18.0974
22.8907
25.0341
25.9732
25.3755
23.4713
21.2154
16.9351
17.1572
22.0843
20.5868
40.5502
50.0272
56.0433
60.179
62.9716
65.0067
66.5986
67.7674
68.6231
69.2691
69.8423
70.2459
70.5927
70.914
71.21
71.4306
71.6959
72.2006
72.6298
72.8757
73.2331
23.4074
28.2134
30.7477
32.547
33.6036
33.7198
32.4963
30.028
26.3393
22.1119
19.8415
21.2161
41.5644
50.8088
56.3333
60.0883
62.6201
64.286
65.554
66.5381
67.2486
67.6006
67.8268
67.9146
67.9357
67.8863
67.8535
67.9435
68.3447
68.6207
68.838
69.1137
25.208
30.4003
33.4861
36.0389
37.9741
39.2192
39.649
38.887
36.5676
30.9923
27.6956
28.2152
26.5961
42.7739
51.3263
56.1859
59.309
61.563
62.9511
63.7295
64.1479
64.4391
64.3904
64.3112
64.1747
64.0556
63.6347
63.3884
63.6874
63.7808
63.6287
64.0909
26.2802
31.4994
34.6927
37.4103
39.6054
41.2607
42.3712
42.904
42.6364
40.9682
36.5243
30.8216
34.7298
30.5415
44
51.4384
55.6182
57.7837
59.3023
60.3782
60.9088
60.7452
60.3542
59.5993
58.7927
57.8297
56.8506
56.2711
56.2546
56.3359
56.0985
56.3307
25.8166
31.2141
34.5621
37.4537
39.8339
41.7018
43.0965
44.0641
44.6053
44.5022
42.7548
37.5937
30.6856
23.6603
32.8042
43.933
49.525
53.2692
55.017
55.4351
55.3325
54.7786
53.457
52.6389
51.5756
51.3312
49.0694
47.8309
47.801
46.1299
45.9644
46.0458
24.6708
30.2166
33.6208
36.5511
38.9634
40.8729
42.3525
43.4972
44.3837
44.959
44.7502
42.1888
33.4455
28.7218
25.0126
37.0029
43.8166
46.1875
47.719
48.984
48.8137
47.7059
46.0941
42.5343
38.2266
34.0207
38.2795
27.3163
25.3626
33.4142
24.3821
35.3378
23.2721
28.8581
32.2101
35.0701
37.4051
39.2413
40.6659
41.7979
42.7591
43.5683
43.9184
42.7568
37.4903
33.0283
5.00953
16.9675
32.4638
38.1194
41.0048
39.6503
39.2283
34.0585
24.0783
20.9942
20.2363
38.4225
43.4208
33.8556
19.4253
39.4833
24.5917
44.1199
22.2835
27.7304
30.8944
33.5517
35.681
37.3154
38.5518
39.5351
40.4162
41.2229
41.6785
40.9804
37.4204
29.2859
14.9775
25.5546
29.2872
22.9632
15.5153
18.8838
16.257
38.5803
13.7096
25.6751
34.8066
36.29
39.8265
37.8933
33.7094
40.1215
37.38
41.8553
21.7929
27.0735
30.0394
32.4779
34.3721
35.7521
36.7194
37.4552
38.1612
38.8878
39.3417
38.79
36.0534
29.8697
23.2539
24.0034
25.7657
30.1486
18.0841
29.8751
12.6141
26.8598
31.4272
37.1664
34.8123
33.502
36.24
39.2883
38.8425
38.3515
37.9506
37.6654
21.7416
26.9028
29.7263
32.0008
33.7106
34.8806
35.6136
36.1181
36.6533
37.3516
38.0148
38.0441
36.5747
33.0076
28.3313
25.7071
24.7725
33.1706
20.6043
28.4796
31.4112
33.2986
39.8867
43.1627
45.8348
45.7452
47.7661
47.7784
47.4253
47.3671
45.2125
45.8292
21.9618
27.0642
29.8117
31.9945
33.601
34.6539
35.2514
35.6115
36.0276
36.7153
37.6471
38.4919
38.6472
37.4808
34.9398
32.2926
31.4157
32.4961
36.6163
38.7464
40.259
45.6336
48.0922
49.8711
51.2362
51.2119
51.6661
51.0897
50.2655
50.1948
47.5899
47.8833
22.3572
27.443
30.1613
32.3064
33.8736
34.8899
35.4505
35.7702
36.1438
36.8041
37.7983
39.007
40.1954
41.0428
41.349
41.4365
42.0744
43.1058
45.3054
45.9482
46.7893
50.1534
51.3545
52.5359
53.339
53.4775
53.3359
52.6632
51.4811
51.0646
48.3983
48.5926
22.8282
27.9263
30.6458
32.788
34.3561
35.3856
35.9741
36.3299
36.7477
37.4643
38.532
39.8551
41.2993
42.7273
44.0262
45.2282
46.4855
47.7237
48.9866
49.5105
50.218
52.193
52.946
53.6457
54.074
54.0811
53.5873
52.8219
51.3842
50.6289
47.9767
48.2053
23.3041
28.4289
31.1638
33.3192
34.9059
35.9679
36.6059
37.0152
37.4791
38.2416
39.3776
40.8121
42.4233
44.0945
45.7247
47.2608
48.6774
49.8738
50.8103
51.2708
51.7544
52.7808
53.1433
53.4642
53.6504
53.5524
52.9437
52.1164
50.465
49.4691
46.8794
47.1329
23.703
28.8606
31.6139
33.7856
35.3937
36.4883
37.1715
37.6267
38.1115
38.8609
39.962
41.3597
42.9526
44.6413
46.3249
47.9061
49.2928
50.3809
51.1203
51.4704
51.718
52.1915
52.3704
52.5754
52.7432
52.702
52.1477
51.2784
49.4302
48.1898
45.7074
45.8298
23.9148
29.1054
31.8711
34.0521
35.6726
36.7861
37.4911
37.9559
38.4134
39.0819
40.0559
41.295
42.7105
44.2198
45.742
47.1842
48.4386
49.4014
50.0317
50.356
50.5791
50.9627
51.3126
51.7479
52.1621
52.3521
51.9547
51.0391
48.9677
47.3788
44.9362
44.7693
23.8375
29.0558
31.8206
33.9957
35.6103
36.7184
37.4091
37.8298
38.187
38.6845
39.4263
40.3944
41.5174
42.7277
43.9726
45.1966
46.3167
47.2451
47.9571
48.5095
49.0706
49.8407
50.7307
51.6956
52.5546
53.0766
52.8666
51.8819
49.5578
47.4782
44.9246
44.339
22.6842
20.8612
18.6727
16.223
13.6195
11.5703
10.045
1.89876
7.36764
18.8625
24.2207
26.9315
28.7406
30.0636
31.1263
32.0146
32.7753
33.4148
33.8798
34.0622
34.0631
33.9118
33.4688
32.843
32.0922
31.2141
30.165
28.8613
27.0844
24.4383
19.2617
8.10865
1.77591
9.7277
11.5842
13.6011
16.263
18.7672
21.0025
22.8585
27.8852
25.9554
23.6427
21.0375
18.2363
15.9339
13.6535
5.08791
12.1494
23.3876
28.5431
31.3654
33.3238
34.795
35.9918
37.0118
37.9083
38.6895
39.2857
39.5595
39.5658
39.327
38.755
37.987
37.0991
36.0893
34.9062
33.454
31.5269
28.7626
23.7725
12.8793
5.21656
13.3019
15.9353
18.2188
21.0772
23.7362
26.0941
28.0545
30.6051
28.5626
26.1251
23.3775
20.4258
17.9785
14.8473
7.73859
15.6798
26.2553
31.1729
34.0813
36.1737
37.7914
39.1319
40.3013
41.3646
42.3214
43.0811
43.474
43.4867
43.1331
42.3997
41.4557
40.3995
39.2398
37.9122
36.3126
34.2502
31.3933
26.622
16.3455
7.80448
14.4975
17.9678
20.4075
23.4155
26.2175
28.7003
30.7729
32.7299
30.5686
28.0058
25.1224
22.0417
19.46
15.1955
9.75783
19.58
29.0791
33.6205
36.5685
38.7519
40.4833
41.9402
43.2373
44.4518
45.5697
46.4772
46.9769
46.9951
46.5389
45.6597
44.5541
43.3459
42.0568
40.6116
38.8975
36.7426
33.8399
29.4159
20.1927
9.85849
14.8739
19.4293
22.0207
25.1562
28.0944
30.7025
32.893
34.2975
32.0231
29.3421
26.3325
23.1386
20.3527
14.836
11.5494
23.6497
31.6696
35.8293
38.7743
41.0028
42.8101
44.3532
45.7566
47.0981
48.3522
49.3805
49.964
49.9863
49.4499
48.452
47.2104
45.8745
44.4761
42.9434
41.153
38.9517
36.048
31.9746
24.2275
11.8327
14.5526
20.2906
23.1115
26.359
29.4237
32.1499
34.4526
35.3599
32.9725
30.1703
27.0291
23.7096
20.5036
13.7379
15.9808
27.2517
33.8775
37.7516
40.6651
42.9173
44.7789
46.3923
47.8899
49.3385
50.703
51.8235
52.4668
52.4919
51.899
50.8107
49.4594
48.0158
46.5212
44.9173
43.0721
40.8452
37.9705
34.1595
27.75
16.7269
13.5627
20.3837
23.6697
27.0446
30.2418
33.0894
35.5042
35.9906
33.4691
30.516
27.2069
23.6907
19.6737
13.1492
20.5136
30.1606
35.6826
39.3911
42.2637
44.5398
46.4475
48.124
49.7044
51.2407
52.688
53.8708
54.5503
54.577
53.9502
52.8012
51.3684
49.8369
48.2587
46.5911
44.6993
42.4468
39.61
35.9515
30.5726
21.2032
13.2964
19.4879
23.6271
27.207
30.5751
33.5755
36.1241
36.3056
33.593
30.4121
26.8439
22.9522
17.8601
14.8103
24.4705
32.3388
37.1737
40.7901
43.6303
45.9339
47.883
49.6151
51.2638
52.8658
54.3659
55.5805
56.273
56.3003
55.6615
54.4822
52.998
51.4013
49.7547
48.0311
46.0971
43.8156
41.0075
37.4346
32.6868
25.0295
15.2721
17.6689
22.851
26.8239
30.4584
33.6912
36.4325
36.474
33.4707
29.9242
25.9166
21.3504
15.925
18.3068
27.5224
33.9659
38.4638
42.0066
44.8283
47.155
49.1394
50.9159
52.6147
54.2573
55.7796
56.9949
57.6785
57.7054
57.0751
55.8962
54.3915
52.755
51.0587
49.29
47.3194
45.0125
42.2187
38.715
34.2733
27.9657
18.8435
15.8849
21.2102
25.8723
29.9608
33.5677
36.6034
36.6818
33.2671
29.1795
24.4784
19.17
15.9271
21.9959
29.7221
35.3066
39.6324
43.0986
45.9055
48.2445
50.2539
52.0604
53.7884
55.4455
56.959
58.1462
58.8025
58.8282
58.2236
57.0731
55.5789
53.9289
52.2043
50.4035
48.4055
46.0839
43.3011
39.869
35.5865
30.0819
22.4706
16.1618
19.0476
24.4159
29.214
33.3717
36.8234
37.0553
33.1336
28.3843
22.8938
17.759
18.3431
24.9767
31.4226
36.5609
40.7347
44.1173
46.8967
49.2324
51.2526
53.0736
54.8081
56.4534
57.9296
59.0646
59.679
59.7027
59.1375
58.0387
56.5831
54.9463
53.2158
51.3991
49.389
47.0687
44.3102
40.9562
36.8188
31.7303
25.362
18.701
17.7695
22.8461
28.4282
33.2526
37.2123
37.6284
33.187
27.8487
22.004
18.4434
21.3907
27.3306
33.007
37.8374
41.8311
45.1118
47.8392
50.1506
52.1614
53.9777
55.6956
57.3039
58.7186
59.7828
60.3448
60.3661
59.8496
58.8206
57.4271
55.8286
54.1155
52.3032
50.3016
48.0036
45.2941
42.0367
38.0726
33.2776
27.6445
21.7226
18.5941
22.0196
27.9169
33.3204
37.7932
38.3828
33.5096
27.8786
22.4288
20.7077
24.2829
29.537
34.6974
39.2025
42.9794
46.126
48.7707
51.0311
53.0081
54.7974
56.4755
58.024
59.3581
60.3382
60.8412
60.8598
60.3979
59.4512
58.1384
56.6008
54.928
53.1424
51.1734
48.9241
46.2938
43.1655
39.4107
34.9309
29.7941
24.5507
20.8948
22.5058
27.9706
33.6451
38.5354
39.2815
34.1108
28.5395
24.0278
23.6878
27.2209
31.9151
36.5767
40.7065
44.2253
47.1986
49.7267
51.906
53.8225
55.5614
57.1775
58.6465
59.8854
60.773
61.2141
61.2298
60.8251
59.9683
58.7501
57.2923
55.6818
53.9464
52.0364
49.8655
47.3479
44.3874
40.8832
36.7685
32.1178
27.4227
23.8453
24.118
28.6273
34.2212
39.3936
40.3013
35.0008
29.824
26.5075
27.0723
30.3655
34.5186
38.6535
42.3738
45.5976
48.3615
50.7397
52.8078
54.6366
56.3017
57.8352
59.2086
60.3422
61.1332
61.5119
61.5246
61.1773
60.4139
59.2998
57.9374
56.4093
54.7472
52.9231
50.8606
48.4889
45.7323
42.516
38.8019
34.6677
30.5053
27.1799
26.5699
29.8743
35.0573
40.3479
41.4342
36.2374
31.7484
29.58
30.6412
33.6343
37.2688
40.8897
44.1945
47.1031
49.6323
51.8337
53.7643
55.4811
57.0511
58.4846
59.7496
60.7719
61.4654
61.7832
61.793
61.5015
60.832
59.8274
58.5725
57.1441
55.5762
53.862
51.9341
49.7352
47.2083
44.301
40.9952
37.3683
33.7193
30.6987
29.5998
31.745
36.2263
41.4072
42.6263
37.7827
34.1469
32.9084
34.2137
36.911
40.0787
43.2294
46.1357
48.7271
51.009
53.0165
54.7915
56.3819
57.8399
59.1606
60.3084
61.2166
61.8144
62.0742
62.0813
61.8429
61.2653
60.3723
59.2335
57.9168
56.4598
54.8688
53.0936
51.0855
48.8023
46.2081
43.2963
40.1357
36.9514
34.2287
32.8886
34.0952
37.7123
42.5392
43.7986
39.5237
36.7965
36.2833
37.7131
40.1429
42.9045
45.6376
48.1742
50.458
52.4899
54.2938
55.9021
57.3604
58.6952
59.8953
60.9212
61.7155
62.2216
62.4275
62.4321
62.2429
61.7532
60.9714
59.953
58.756
57.4213
55.9611
54.3508
52.544
50.5079
48.2184
45.6734
42.9279
40.1486
37.6938
36.2312
36.7099
39.4145
43.6757
44.932
41.3958
39.5655
39.6223
41.1176
43.3125
45.7252
48.0933
50.2962
52.2929
54.0833
55.6836
57.1204
58.4395
59.6445
60.719
61.6226
62.3056
62.7253
62.8824
62.885
62.7402
62.3331
61.6597
60.7619
59.6895
58.4835
57.1616
55.7211
54.1161
52.3194
50.3147
48.1013
45.7191
43.2876
41.0679
39.542
39.4535
41.2648
44.7952
46.0906
43.395
42.3934
42.892
44.4162
46.4051
48.5176
50.5677
52.4727
54.2053
55.767
57.1727
58.4547
59.6357
60.712
61.6608
62.4453
63.0235
63.3638
63.4783
63.4792
63.3732
63.0417
62.4704
61.6899
60.7418
59.6638
58.4789
57.1914
55.7793
54.21
52.4677
50.5508
48.4855
46.3536
44.3402
42.7871
42.2598
43.2467
45.9422
47.378
45.5345
45.2435
46.0712
47.6012
49.4143
51.2754
53.0567
54.705
56.2046
57.5592
58.7883
59.9249
60.9731
61.9236
62.751
63.4226
63.9044
64.1747
64.2536
64.2533
64.1793
63.9145
63.437
62.7673
61.9395
60.9863
59.9336
58.7909
57.5544
56.1911
54.6812
53.0202
51.2235
49.3429
47.506
45.9489
45.0944
45.3745
47.2258
48.8986
47.7974
48.0561
49.1114
50.6307
52.2987
53.9568
55.5194
56.9552
58.2571
59.4362
60.5241
61.5332
62.4623
63.2963
64.0119
64.5809
64.9769
65.187
65.238
65.2367
65.1876
64.98
64.5857
64.0168
63.2995
62.462
61.528
60.5127
59.4174
58.2295
56.9172
55.4692
53.8921
52.2163
50.5268
48.9832
47.9029
47.6304
48.7338
50.5736
50.0604
50.7207
51.9317
53.4391
54.9988
56.5055
57.9024
59.174
60.3237
61.3772
62.3546
63.2606
64.0882
64.8219
65.4406
65.9213
66.2447
66.4051
66.4345
66.4324
66.4026
66.2419
65.9179
65.4356
64.814
64.0763
63.2436
62.3317
61.3475
60.2863
59.1276
57.8457
56.437
54.9167
53.3411
51.815
50.5812
49.8925
50.365
52.1208
52.1122
53.0879
54.4196
55.9283
57.4202
58.828
60.1135
61.2739
62.3261
63.2985
64.2
65.0308
65.7812
66.4366
66.9788
67.3896
67.6557
67.7772
67.7895
67.7868
67.7721
67.6481
67.3795
66.9655
66.4194
65.7595
65.0039
64.1676
63.26
62.281
61.2215
60.0524
58.7574
57.3392
55.8358
54.3147
52.9688
51.9766
51.9611
53.3638
53.7522
54.9709
56.4058
57.9371
59.4048
60.7657
61.9933
63.0959
64.1055
65.0378
65.8989
66.6849
67.3864
67.9897
68.4797
68.842
69.0675
69.1608
69.1596
69.1565
69.154
69.0565
68.8268
68.4602
67.9656
67.3572
66.6504
65.8588
64.9918
64.0535
63.0372
61.9269
60.6909
59.3215
57.8456
56.3082
54.8719
53.6631
53.2987
54.0824
54.7581
56.155
57.6775
59.249
60.7283
62.0868
63.3061
64.4057
65.4133
66.3413
67.193
67.9637
68.6441
69.222
69.6846
70.0203
70.223
70.2998
70.2898
70.2865
70.2917
70.2096
70.0015
69.6603
69.1922
68.6085
67.9221
67.1455
66.2878
65.3537
64.3396
63.2332
62.006
60.6402
59.1559
57.5863
56.0791
54.7276
54.1412
54.0583
54.8408
56.3248
57.9139
59.5408
61.0676
62.4672
63.7228
64.8571
65.8946
66.8464
67.715
68.496
69.1806
69.7579
70.2168
70.5477
70.7465
70.8221
70.8139
70.8113
70.8152
70.7344
70.5303
70.1941
69.73
69.1474
68.4576
67.6717
66.7981
65.8414
64.7989
63.6595
62.3982
60.9936
59.4643
57.8407
56.2663
54.819
54.1037
53.2063
53.8814
55.3198
56.9072
58.5645
60.1399
61.5966
62.91
64.096
65.1786
66.1684
67.0685
67.8746
68.5794
69.1728
69.6451
69.9883
70.2001
70.2908
70.2978
70.2956
70.2848
70.1892
69.9723
69.624
69.1468
68.5484
67.8389
67.0281
66.1233
65.1285
64.0404
62.8477
61.5252
60.0577
58.4701
56.7993
55.1974
53.7466
53.0578
50.8784
51.3829
52.7266
54.2991
55.9918
57.6361
59.1781
60.5795
61.8376
62.9788
64.0167
64.9563
65.7955
66.5285
67.1467
67.6418
68.0073
68.2422
68.3575
68.3864
68.3857
68.3553
68.237
67.9986
67.6296
67.1311
66.5094
65.7731
64.9302
63.9867
62.9439
61.7959
60.5272
59.1117
57.5508
55.8806
54.1523
52.529
51.1203
50.5266
48.0278
48.2253
49.3208
50.7413
52.3627
53.9973
55.5689
57.0234
58.3409
59.5261
60.5991
61.566
62.428
63.1801
63.8157
64.3272
64.7092
64.9611
65.0932
65.1349
65.133
65.0874
64.9499
64.6922
64.3043
63.7869
63.1454
62.3872
61.5192
60.5457
59.4651
58.2704
56.9402
55.4708
53.8826
52.2302
50.5931
49.1619
48.0756
47.9151
45.5149
45.3402
46.0904
47.2547
48.704
50.241
51.7693
53.2195
54.5558
55.7615
56.8468
57.8216
58.6881
59.4433
60.0811
60.5947
60.9785
61.2315
61.3631
61.4038
61.4048
61.3644
61.2304
60.974
60.5867
60.0697
59.4288
58.6708
57.8015
56.8233
55.7333
54.5197
53.1728
51.7084
50.16
48.5936
47.1023
45.8787
45.0527
45.1379
44.239
43.7618
44.2261
45.1639
46.4465
47.8719
49.3303
50.7415
52.0601
53.2597
54.3367
55.302
56.1579
56.9021
57.5287
58.0304
58.4007
58.6364
58.7435
58.7552
58.7537
58.7352
58.6177
58.3709
57.9893
57.4764
56.8388
56.0834
55.2159
54.2375
53.1454
51.9261
50.5851
49.1499
47.6672
46.2192
44.9208
43.9804
43.5379
44.0711
45.2839
53.1505
59.4401
65.5779
70.8323
75.0644
78.4379
81.1527
83.369
85.2306
86.8649
88.3286
89.6627
90.8983
92.0651
93.1924
94.3097
95.4448
96.6197
97.8497
99.1425
100.499
101.915
103.385
104.897
106.441
108.003
109.563
111.086
112.507
113.683
114.382
44.6441
52.2342
58.331
64.3319
69.5129
73.7077
77.06
79.7636
81.9774
83.8446
85.4824
86.9427
88.2632
89.4807
90.6253
91.7276
92.8185
93.9252
95.0708
96.2702
97.5312
98.8547
100.237
101.67
103.145
104.65
106.173
107.693
109.179
110.563
111.709
112.39
43.9536
51.2999
57.2145
63.0782
68.1842
72.3433
75.6792
78.38
80.6023
82.4835
84.1291
85.5882
86.896
88.096
89.2196
90.2983
91.3632
92.443
93.5599
94.7295
95.9591
97.2495
98.5969
99.9941
101.431
102.898
104.382
105.863
107.309
108.658
109.774
110.436
43.23
50.3535
56.0917
61.8189
66.8517
70.9796
74.306
77.0123
79.2515
81.152
82.8078
84.2672
85.566
86.7521
87.8569
88.9132
89.9539
91.0071
92.0961
93.2362
94.4349
95.6932
97.0071
98.3688
99.7695
101.198
102.643
104.084
105.493
106.806
107.892
108.536
42.4904
49.4002
54.96
60.5463
65.5055
69.6075
72.9337
75.6559
77.9211
79.8467
81.5172
82.9803
84.2758
85.4484
86.5356
87.5717
88.589
89.6179
90.6808
91.7932
92.9624
94.1893
95.4695
96.7963
98.1607
99.5521
100.958
102.361
103.732
105.01
106.068
106.694
41.7362
48.4424
53.8241
59.2688
64.1574
68.2408
71.5746
74.3187
76.613
78.5648
80.2511
81.7217
83.019
84.1833
85.257
86.2746
87.2717
88.2769
89.3144
90.3996
91.5398
92.7363
93.9851
95.278
96.6068
97.9606
99.3297
100.694
102.029
103.271
104.301
104.91
40.9767
47.4812
52.6769
57.971
62.7862
66.8562
70.2077
72.984
75.3155
77.2998
79.0089
80.4926
81.7946
82.9553
84.0174
85.02
85.9974
86.982
87.9966
89.0567
90.17
91.3371
92.5537
93.8124
95.1058
96.4237
97.7543
99.0819
100.38
101.59
102.591
103.183
40.2033
46.5126
51.52
56.6608
61.4054
65.4708
68.849
71.6621
74.0322
76.05
77.7826
79.2828
80.596
81.7618
82.8183
83.8087
84.7715
85.7363
86.7285
87.764
88.8504
89.9887
91.1754
92.4024
93.6612
94.9417
96.2367
97.5255
98.7887
99.9646
100.94
101.515
39.4255
45.5361
50.3427
55.3144
59.9789
64.0413
67.4566
70.3202
72.7415
74.8028
76.5704
78.0963
79.425
80.5967
81.653
82.6366
83.5855
84.5345
85.5079
86.5217
87.5838
88.6947
89.8499
91.043
92.2666
93.512
94.768
96.0211
97.2489
98.3917
99.3397
99.8986
38.6168
44.5341
49.1359
53.9329
58.5181
62.5874
66.0518
68.973
71.448
73.5567
75.3609
76.915
78.2664
79.4556
80.5197
81.5019
82.4445
83.3795
84.3346
85.3266
86.3634
87.4466
88.5733
89.7353
90.9246
92.1318
93.3523
94.566
95.7584
96.8689
97.791
98.3329
37.7955
43.5115
47.8929
52.4906
56.9752
61.0452
64.5697
67.5704
70.122
72.2936
74.1504
75.7468
77.1286
78.3347
79.4088
80.3958
81.3347
82.2606
83.2022
84.1763
85.1915
86.2486
87.3437
88.4696
89.6208
90.7918
91.9708
93.1469
94.3039
95.381
96.2766
96.8024
36.8995
42.4236
46.5824
50.9719
55.352
59.4321
63.033
66.1237
68.7569
71.0033
72.9202
74.5632
75.9822
77.2213
78.3183
79.3154
80.2579
81.1781
82.1068
83.0619
84.0526
85.0818
86.1474
87.2425
88.3593
89.4881
90.6308
91.7664
92.8872
93.9324
94.8024
95.3107
35.9537
41.287
45.2051
49.3521
53.5888
57.6577
61.3457
64.5657
67.326
69.6713
71.668
73.3762
74.8463
76.1184
77.2371
78.251
79.1987
80.1175
81.039
81.9806
82.9523
83.9561
84.9888
86.0442
87.1189
88.2111
89.3094
90.4056
91.4903
92.5008
93.3446
93.8382
34.884
40.0354
43.7062
47.595
51.6748
55.7358
59.5274
62.8856
65.7765
68.249
70.3502
72.139
73.6708
74.996
76.1583
77.1975
78.1609
79.0832
79.9969
80.9223
81.8702
82.8453
83.8478
84.8725
85.9122
86.9586
88.0182
89.0702
90.1186
91.0966
91.9147
92.3896
33.7055
38.6765
42.079
45.6583
49.51
53.51
57.4107
60.9851
64.1088
66.7504
68.983
70.8751
72.4878
73.8712
75.0712
76.1423
77.1227
78.0527
78.9668
79.8837
80.8155
81.7661
82.7333
83.7125
84.7041
85.7099
86.7216
87.7307
88.7411
89.6829
90.4749
90.9353
32.3158
37.1216
40.2545
43.5081
47.111
51.0418
55.0541
58.8229
62.1499
65.0273
67.4526
69.4905
71.2142
72.6838
73.9574
75.0753
76.0885
77.0344
77.9473
78.8507
79.7583
80.6775
81.6123
82.5596
83.5148
84.4701
85.4374
86.3977
87.3694
88.2774
89.0418
89.4834
30.6593
35.3104
38.1476
40.985
44.1862
47.9073
52.0115
56.1537
59.9557
63.1502
65.8192
68.0451
69.9028
71.4734
72.8109
73.982
75.0279
75.9928
76.9153
77.8163
78.711
79.6059
80.5008
81.3941
82.2905
83.1965
84.1107
85.0215
85.9521
86.8204
87.5599
87.9864
28.6061
33.1562
35.7359
38.1952
41.029
44.5474
48.6903
53.0162
57.0776
60.7625
63.8261
66.3313
68.4051
70.1263
71.5882
72.8406
73.9445
74.9435
75.8733
76.7631
77.6307
78.4883
79.3464
80.2032
81.0606
81.9108
82.7708
83.6239
84.512
85.3434
86.051
86.4582
25.8192
30.3219
32.6006
34.4549
36.4354
39.2511
43.3576
48.4912
53.7032
57.9832
61.5635
64.4749
66.8057
68.7194
70.2966
71.6379
72.798
73.8294
74.7803
75.6747
76.5332
77.3659
78.174
78.9643
79.7439
80.5284
81.325
82.118
82.9594
83.7453
84.429
84.8208
22.0595
26.7535
28.906
30.5172
32.379
35.1787
38.8223
43.2106
48.3282
54.01
58.5216
62.0376
64.8316
67.0335
68.8354
70.3219
71.5822
72.6777
73.6477
74.5318
75.3544
76.1371
76.9016
77.6446
78.3823
79.1
79.8275
80.5449
81.3384
82.0805
82.7255
83.0968
15.476
21.0143
23.4262
24.1003
22.8113
18.4532
23.0995
33.688
42.7534
48.7291
54.5961
59.1753
62.5694
65.203
67.2428
68.8903
70.2488
71.3936
72.3987
73.2962
74.1155
74.8699
75.5636
76.2171
76.8384
77.4662
78.1086
78.7471
79.4829
80.1681
80.7919
81.1469
6.27197
9.81112
11.9591
15.802
17.2787
16.1455
13.4871
14.9351
25.3656
41.2471
49.0223
55.0331
59.546
62.7938
65.2832
67.2124
68.7516
70.0194
71.0635
71.9469
72.7076
73.3864
74.0234
74.6107
75.1912
75.7228
76.2669
76.7942
77.4734
78.1068
78.6757
79.0097
4.54463
9.51788
9.73779
8.51568
13.0666
17.0426
17.2902
21.9723
18.0982
18.9523
39.447
49.2389
55.5853
60.0084
63.0658
65.3262
67.0557
68.3922
69.4896
70.3991
71.1671
71.8066
72.3292
72.7744
73.1497
73.5532
73.9739
74.3811
74.9796
75.5246
76.0858
76.4024
18.3686
22.8828
24.7177
25.3018
24.3851
22.7165
20.921
13.4762
4.96948
24.4759
25.4835
40.863
50.0372
55.9188
60.0303
62.8971
64.9733
66.5685
67.7439
68.6224
69.2722
69.7827
70.2172
70.5655
70.9159
71.1554
71.395
71.6088
72.1441
72.636
73.0968
73.3991
23.3651
28.2803
30.9113
32.8087
33.8853
33.9828
32.8968
31.4117
25.6831
28.6643
32.1054
25.8895
41.3471
50.8701
56.4392
60.0869
62.5823
64.2502
65.5005
66.4276
67.1159
67.548
67.7687
67.8354
67.7557
67.7717
67.8357
67.8294
68.2233
68.5364
69.0286
69.3255
25.3249
30.5049
33.5738
36.1022
38.0174
39.2512
39.6649
38.8559
36.8185
31.617
31.4015
7.51912
28.7338
42.3609
50.9754
56.0584
59.2479
61.5152
62.9193
63.7488
64.1292
64.3159
64.3586
64.284
64.2411
63.9885
63.6028
63.165
63.525
63.8307
64.0916
64.4116
26.1942
31.4205
34.616
37.332
39.5181
41.1591
42.2603
42.8107
42.6376
41.1713
37.8073
33.4037
36.0836
32.1589
44.2795
51.3561
55.5615
57.7403
59.2156
60.139
60.7114
60.6739
60.2386
59.4569
58.3165
57.4672
56.9731
55.9689
56.1298
55.7978
56.1612
56.7744
25.6164
31.0107
34.3445
37.215
39.5669
41.4005
42.7583
43.7034
44.2833
44.3579
43.078
38.7044
33.4878
30.9645
32.9033
44.09
49.414
53.1991
54.9439
55.4754
54.9303
54.3706
53.4233
52.52
51.7266
51.0262
49.1778
46.9413
46.6483
47.4528
46.8777
47.0146
24.4525
29.9845
33.3651
36.2641
38.6354
40.4928
41.907
42.9822
43.8241
44.4353
44.431
42.4222
35.0017
33.636
26.0503
35.0155
43.7544
45.9723
47.592
48.4108
49.3324
47.9567
45.6318
42.6932
37.9966
33.525
32.0185
24.919
30.2494
24.1029
17.9714
34.6557
23.1218
28.6802
32.0004
34.8219
37.108
38.8812
40.2231
41.2555
42.1118
42.8227
43.098
42.0082
37.3411
36.4209
23.9374
25.592
30.4396
38.6423
40.5647
39.3478
33.5908
30.7457
24.0153
18.414
6.18747
21.7843
35.0685
22.9851
38.4804
14.8668
19.8822
43.9627
22.2148
27.6342
30.7702
33.3932
35.4775
37.0499
38.2001
39.0725
39.8188
40.452
40.64
39.5799
36.0735
31.251
31.4348
32.6994
27.6479
13.3671
14.6638
12.2524
20.4274
18.2057
31.3783
19.3865
7.5981
30.306
38.4489
34.6983
38.7507
36.0128
29.6152
41.4012
21.7752
27.041
29.9925
32.4118
34.2777
35.6135
36.5132
37.154
37.7377
38.299
38.4575
37.2569
33.1979
25.0443
19.756
30.6553
14.6952
15.8554
25.0119
10.5504
22.3558
28.3834
20.2488
36.5485
33.7447
35.5921
35.6969
40.7757
38.1951
35.5454
41.5208
36.6998
21.7336
26.8933
29.7152
31.9856
33.6867
34.8377
35.534
35.9785
36.4314
37.0272
37.5366
37.222
34.8513
29.1329
20.5982
18.5599
17.6725
20.9548
26.2874
26.6778
33.6561
35.9388
41.0264
42.5993
47.1264
46.3086
46.5874
48.6834
46.9032
43.4641
47.8625
45.2397
21.9404
27.0493
29.8026
31.9915
33.6033
34.6575
35.2462
35.5815
35.9571
36.595
37.4706
38.2528
38.3605
37.2299
34.9134
32.6963
33.1387
34.7904
36.3723
40.5565
41.9883
44.2736
49.4024
49.4945
51.8017
51.0682
51.0616
51.8134
49.9708
46.8455
48.9146
47.4212
22.3079
27.4042
30.1316
32.2875
33.8675
34.8965
35.4649
35.7821
36.145
36.7957
37.7829
38.9705
40.1197
40.9777
41.4592
41.8206
42.6369
43.9705
45.3558
47.3449
47.704
49.1548
52.3168
52.5199
53.7926
53.1272
52.9869
53.2699
51.4015
48.6005
48.9677
48.1435