/*--------------------------------*- C++ -*----------------------------------*\
  =========                 |
  \\      /  F ield         | OpenFOAM: The Open Source CFD Toolbox
   \\    /   O peration     | Website:  https://openfoam.org
    \\  /    A nd           | Version:  6
     \\/     M anipulation  |
\*---------------------------------------------------------------------------*/
FoamFile
{
    version     2.0;
    format      ascii;
    class       volScalarField;
    location    "21";
    object      p;
}
// * * * * * * * * * * * * * * * * * * * * * * * * * * * * * * * * * * * * * //

dimensions      [0 2 -2 0 0 0 0];

internalField   nonuniform List<scalar> 
380496
(
0.0142231
0.0146971
0.0142972
0.0141966
0.0140853
0.0139709
0.0138626
0.013754
0.0136459
0.0135387
0.0134327
0.013328
0.0132248
0.013123
0.0130226
0.0129233
0.0128249
0.0127271
0.0126294
0.0125314
0.0124325
0.0123322
0.0122299
0.0121249
0.0120166
0.0119041
0.011787
0.0116642
0.0115358
0.0114002
0.0112591
0.0111083
0.0109577
0.0107887
0.0106492
0.0141988
0.0146655
0.0142778
0.0141814
0.0140733
0.0139606
0.0138524
0.0137429
0.0136329
0.0135233
0.0134141
0.0133056
0.0131981
0.0130915
0.0129857
0.0128805
0.0127758
0.012671
0.012566
0.0124601
0.0123531
0.0122441
0.0121329
0.0120187
0.0119011
0.0117791
0.0116527
0.0115206
0.0113832
0.0112382
0.0110885
0.0109263
0.0107668
0.0105734
0.0104235
0.0141711
0.0146329
0.0142564
0.0141649
0.0140598
0.0139484
0.0138397
0.0137285
0.013616
0.0135029
0.0133897
0.0132766
0.0131638
0.0130515
0.0129393
0.0128273
0.012715
0.0126022
0.0124885
0.0123734
0.0122566
0.0121374
0.0120154
0.0118899
0.0117607
0.0116268
0.0114883
0.011344
0.0111946
0.0110377
0.0108773
0.0107043
0.0105381
0.0103364
0.0101899
0.0141355
0.0145975
0.0142348
0.0141498
0.0140487
0.0139393
0.0138306
0.0137182
0.0136036
0.0134877
0.0133711
0.0132541
0.013137
0.0130197
0.0129023
0.0127844
0.0126659
0.0125465
0.0124257
0.0123032
0.0121785
0.0120512
0.0119209
0.0117869
0.0116491
0.0115067
0.0113597
0.011207
0.0110495
0.0108846
0.0107167
0.0105355
0.0103625
0.0101502
0.00999788
0.0141031
0.0145598
0.0142135
0.0141355
0.0140386
0.0139307
0.0138217
0.0137078
0.0135906
0.0134715
0.0133511
0.0132298
0.013108
0.0129855
0.0128625
0.0127386
0.0126137
0.0124873
0.0123592
0.012229
0.0120964
0.0119607
0.0118218
0.011679
0.0115323
0.0113809
0.0112249
0.0110634
0.0108975
0.0107244
0.0105491
0.0103608
0.0101827
0.00996484
0.00981205
0.0140575
0.0145194
0.0141919
0.0141226
0.0140306
0.0139247
0.0138155
0.0137001
0.0135805
0.0134585
0.0133346
0.0132095
0.0130834
0.0129563
0.0128283
0.012699
0.0125684
0.012436
0.0123016
0.0121648
0.0120253
0.0118825
0.0117365
0.0115865
0.0114325
0.0112739
0.011111
0.0109427
0.0107704
0.0105911
0.0104103
0.0102165
0.010034
0.00981072
0.00965541
0.0140092
0.014477
0.0141711
0.0141115
0.0140249
0.0139207
0.0138109
0.0136937
0.0135715
0.0134462
0.0133187
0.0131897
0.0130593
0.0129276
0.0127947
0.0126602
0.012524
0.0123858
0.0122453
0.0121021
0.011956
0.0118065
0.0116536
0.0114967
0.0113358
0.0111705
0.011001
0.0108264
0.010648
0.0104631
0.0102774
0.0100789
0.00989312
0.00966625
0.00951057
0.0139508
0.0144337
0.0141522
0.0141034
0.0140223
0.0139195
0.0138089
0.0136897
0.0135648
0.0134364
0.0133055
0.0131727
0.0130384
0.0129025
0.0127651
0.0126259
0.0124848
0.0123414
0.0121954
0.0120467
0.0118948
0.0117396
0.0115807
0.011418
0.0112514
0.0110805
0.0109056
0.0107259
0.0105428
0.0103535
0.010164
0.00996195
0.00977375
0.00954382
0.00938784
0.0138811
0.0143906
0.0141349
0.0140984
0.014023
0.0139211
0.0138094
0.0136879
0.0135603
0.0134288
0.0132947
0.0131585
0.0130205
0.0128809
0.0127394
0.0125961
0.0124506
0.0123026
0.012152
0.0119984
0.0118416
0.0116814
0.0115176
0.0113499
0.0111784
0.0110028
0.0108234
0.0106395
0.0104526
0.0102598
0.0100672
0.00986241
0.00967258
0.00944034
0.0092848
0.0138112
0.0143555
0.0141234
0.0140981
0.0140271
0.0139251
0.0138117
0.013688
0.0135577
0.0134234
0.0132864
0.0131472
0.0130062
0.0128634
0.0127186
0.0125718
0.0124227
0.0122711
0.0121166
0.0119591
0.0117983
0.0116341
0.0114663
0.0112947
0.0111194
0.0109402
0.0107574
0.0105703
0.0103804
0.0101851
0.00999045
0.00978362
0.00959283
0.00935871
0.00920397
0.0137194
0.0143204
0.0141126
0.0141004
0.0140339
0.0139313
0.0138161
0.0136898
0.0135567
0.0134197
0.0132799
0.0131379
0.012994
0.0128483
0.0127006
0.0125507
0.0123984
0.0122435
0.0120857
0.0119248
0.0117605
0.0115929
0.0114216
0.0112467
0.0110682
0.0108859
0.0107001
0.0105104
0.0103182
0.0101208
0.00992456
0.00971617
0.00952488
0.00928921
0.00913591
0.013626
0.0142967
0.0141083
0.0141079
0.0140441
0.0139396
0.0138218
0.0136927
0.0135568
0.0134172
0.0132748
0.0131303
0.012984
0.0128357
0.0126854
0.0125329
0.0123778
0.0122201
0.0120594
0.0118956
0.0117285
0.0115579
0.0113838
0.0112062
0.011025
0.0108402
0.0106521
0.0104603
0.0102663
0.0100673
0.00986994
0.0096604
0.00946898
0.00923192
0.00908045
0.0135019
0.0142772
0.0141055
0.0141188
0.0140573
0.01395
0.0138294
0.0136972
0.0135584
0.0134162
0.0132713
0.0131245
0.0129759
0.0128254
0.0126728
0.0125179
0.0123605
0.0122004
0.0120373
0.011871
0.0117014
0.0115284
0.0113519
0.0111719
0.0109885
0.0108017
0.0106117
0.0104183
0.0102229
0.0100227
0.00982452
0.0096142
0.009423
0.00918493
0.00903588
0.0133721
0.0142739
0.0141091
0.0141344
0.0140726
0.0139613
0.0138373
0.0137019
0.0135604
0.0134157
0.0132687
0.0131199
0.0129693
0.0128168
0.0126623
0.0125055
0.0123461
0.012184
0.0120188
0.0118505
0.0116789
0.0115039
0.0113254
0.0111436
0.0109584
0.0107699
0.0105785
0.0103838
0.0101873
0.00998627
0.00978759
0.00957678
0.00938583
0.0091469
0.00900009
0.0132098
0.0142829
0.0141162
0.014155
0.0140913
0.0139749
0.0138469
0.013708
0.0135637
0.0134166
0.0132675
0.0131168
0.0129645
0.0128103
0.0126542
0.0124957
0.0123347
0.0121709
0.012004
0.0118341
0.0116608
0.0114841
0.0113041
0.0111208
0.0109342
0.0107444
0.0105519
0.0103562
0.0101589
0.00995733
0.00975838
0.00954752
0.00935704
0.00911836
0.00897399
0.013029
0.0143117
0.0141279
0.0141776
0.0141094
0.0139873
0.0138554
0.0137133
0.0135665
0.0134174
0.0132666
0.0131144
0.0129606
0.0128051
0.0126477
0.0124879
0.0123256
0.0121604
0.0119923
0.011821
0.0116464
0.0114685
0.0112872
0.0111027
0.010915
0.0107242
0.0105308
0.0103344
0.0101367
0.00993476
0.00973558
0.00952486
0.00933413
0.00909577
0.00895094
0.0128256
0.0143607
0.0141461
0.0142074
0.0141319
0.0140025
0.013866
0.0137203
0.0135709
0.0134198
0.0132674
0.0131138
0.0129588
0.0128022
0.0126436
0.0124828
0.0123194
0.0121532
0.011984
0.0118117
0.0116361
0.0114572
0.011275
0.0110896
0.0109011
0.0107096
0.0105156
0.0103188
0.0101207
0.00991868
0.00971955
0.00950961
0.00931918
0.00908395
0.00893925
0.0125859
0.0144324
0.0141635
0.0142333
0.0141494
0.014014
0.0138738
0.0137255
0.0135742
0.0134216
0.0132681
0.0131135
0.0129576
0.0128001
0.0126408
0.0124792
0.012315
0.0121481
0.0119782
0.011805
0.0116288
0.0114491
0.0112663
0.0110802
0.0108913
0.0106992
0.0105049
0.0103076
0.0101094
0.0099074
0.00970815
0.00949893
0.00930681
0.00907352
0.0089185
0.0123418
0.0145204
0.0141917
0.0142699
0.0141741
0.0140309
0.0138859
0.0137343
0.0135807
0.0134265
0.0132717
0.0131161
0.0129594
0.0128011
0.0126411
0.0124788
0.0123141
0.0121465
0.0119761
0.0118024
0.0116257
0.0114455
0.0112623
0.0110757
0.0108865
0.010694
0.0104995
0.0103021
0.0101039
0.00990203
0.00970318
0.00949534
0.00930447
0.00907837
0.00892512
0.0120758
0.0146235
0.014215
0.0142987
0.0141918
0.0140431
0.0138949
0.0137411
0.013586
0.0134307
0.013275
0.0131187
0.0129614
0.0128026
0.0126421
0.0124794
0.0123143
0.0121463
0.0119756
0.0118016
0.0116245
0.011444
0.0112606
0.0110738
0.0108844
0.0106917
0.0104972
0.0102996
0.0101014
0.00989971
0.00970083
0.009494
0.00930004
0.00907732
0.00889208
0.011825
0.0147315
0.0142611
0.0143427
0.0142209
0.0140637
0.0139102
0.0137526
0.013595
0.013438
0.013281
0.0131237
0.0129657
0.0128064
0.0126455
0.0124824
0.0123171
0.0121489
0.0119779
0.0118037
0.0116266
0.011446
0.0112626
0.0110756
0.0108862
0.0106936
0.0104991
0.0103015
0.0101036
0.00990197
0.00970375
0.00949778
0.00930899
0.00909349
0.00895537
0.0142263
0.0146899
0.0142973
0.014197
0.0140854
0.013971
0.0138626
0.013754
0.0136459
0.0135387
0.0134327
0.013328
0.0132248
0.013123
0.0130226
0.0129233
0.0128249
0.0127271
0.0126294
0.0125314
0.0124325
0.0123323
0.01223
0.0121249
0.0120166
0.0119041
0.011787
0.0116643
0.0115359
0.0114002
0.0112591
0.0111084
0.0109578
0.0107888
0.0106493
0.0142017
0.0146585
0.0142778
0.0141817
0.0140734
0.0139607
0.0138524
0.0137429
0.0136329
0.0135233
0.0134141
0.0133056
0.0131981
0.0130915
0.0129857
0.0128805
0.0127758
0.0126711
0.012566
0.0124602
0.0123531
0.0122442
0.012133
0.0120188
0.0119011
0.0117792
0.0116528
0.0115207
0.0113833
0.0112383
0.0110886
0.0109265
0.0107669
0.0105735
0.0104236
0.0141739
0.0146261
0.0142565
0.0141652
0.0140599
0.0139484
0.0138397
0.0137285
0.0136159
0.0135029
0.0133897
0.0132766
0.0131638
0.0130515
0.0129393
0.0128273
0.012715
0.0126022
0.0124885
0.0123735
0.0122566
0.0121374
0.0120154
0.0118899
0.0117607
0.0116269
0.0114884
0.0113441
0.0111947
0.0110378
0.0108774
0.0107044
0.0105382
0.0103365
0.01019
0.0141384
0.0145908
0.0142349
0.0141501
0.0140489
0.0139393
0.0138306
0.0137182
0.0136036
0.0134877
0.0133711
0.0132541
0.013137
0.0130197
0.0129023
0.0127844
0.0126659
0.0125465
0.0124257
0.0123032
0.0121786
0.0120513
0.011921
0.011787
0.0116492
0.0115067
0.0113597
0.011207
0.0110496
0.0108847
0.0107168
0.0105356
0.0103626
0.0101503
0.00999798
0.0141056
0.0145532
0.0142135
0.0141358
0.0140387
0.0139308
0.0138217
0.0137078
0.0135906
0.0134715
0.0133511
0.0132298
0.013108
0.0129855
0.0128625
0.0127386
0.0126137
0.0124873
0.0123593
0.0122291
0.0120964
0.0119607
0.0118218
0.011679
0.0115323
0.0113809
0.011225
0.0110635
0.0108976
0.0107245
0.0105492
0.0103609
0.0101828
0.00996497
0.00981214
0.01406
0.0145129
0.014192
0.0141229
0.0140307
0.0139248
0.0138155
0.0137001
0.0135805
0.0134585
0.0133346
0.0132095
0.0130834
0.0129563
0.0128283
0.0126991
0.0125684
0.0124361
0.0123017
0.0121648
0.0120253
0.0118826
0.0117365
0.0115865
0.0114325
0.011274
0.0111111
0.0109428
0.0107705
0.0105912
0.0104104
0.0102166
0.0100341
0.00981086
0.00965551
0.0140116
0.0144707
0.0141711
0.0141118
0.014025
0.0139207
0.013811
0.0136937
0.0135715
0.0134462
0.0133187
0.0131897
0.0130593
0.0129276
0.0127947
0.0126602
0.012524
0.0123858
0.0122453
0.0121021
0.011956
0.0118066
0.0116536
0.0114967
0.0113359
0.0111706
0.0110011
0.0108265
0.0106481
0.0104632
0.0102775
0.010079
0.00989324
0.00966639
0.00951066
0.013953
0.0144277
0.0141522
0.0141037
0.0140224
0.0139195
0.0138089
0.0136897
0.0135648
0.0134364
0.0133055
0.0131727
0.0130384
0.0129026
0.0127651
0.012626
0.0124848
0.0123414
0.0121955
0.0120467
0.0118949
0.0117396
0.0115808
0.0114181
0.0112515
0.0110806
0.0109057
0.010726
0.0105429
0.0103536
0.0101641
0.00996207
0.00977388
0.00954397
0.00938793
0.0138832
0.0143847
0.014135
0.0140987
0.0140231
0.0139211
0.0138094
0.0136879
0.0135603
0.0134288
0.0132947
0.0131585
0.0130205
0.0128809
0.0127395
0.0125961
0.0124506
0.0123027
0.012152
0.0119984
0.0118417
0.0116814
0.0115176
0.01135
0.0111785
0.0110029
0.0108235
0.0106396
0.0104527
0.0102599
0.0100673
0.00986254
0.00967271
0.00944049
0.00928489
0.0138131
0.0143498
0.0141235
0.0140983
0.0140271
0.0139251
0.0138117
0.013688
0.0135576
0.0134234
0.0132864
0.0131472
0.0130062
0.0128634
0.0127186
0.0125719
0.0124227
0.0122711
0.0121166
0.0119591
0.0117984
0.0116341
0.0114663
0.0112948
0.0111195
0.0109403
0.0107574
0.0105704
0.0103805
0.0101852
0.00999057
0.00978375
0.00959296
0.00935886
0.00920406
0.0137212
0.0143149
0.0141127
0.0141006
0.014034
0.0139313
0.0138161
0.0136898
0.0135567
0.0134197
0.0132799
0.0131379
0.012994
0.0128483
0.0127006
0.0125508
0.0123984
0.0122435
0.0120857
0.0119248
0.0117606
0.0115929
0.0114217
0.0112468
0.0110682
0.0108859
0.0107002
0.0105105
0.0103183
0.0101209
0.00992467
0.00971629
0.009525
0.00928936
0.00913599
0.0136275
0.0142914
0.0141083
0.0141081
0.0140442
0.0139396
0.0138218
0.0136927
0.0135568
0.0134172
0.0132748
0.0131303
0.012984
0.0128357
0.0126854
0.0125329
0.0123779
0.0122202
0.0120595
0.0118957
0.0117285
0.011558
0.0113839
0.0112062
0.011025
0.0108402
0.0106522
0.0104604
0.0102664
0.0100674
0.00987006
0.00966052
0.00946911
0.00923207
0.00908053
0.0135034
0.0142722
0.0141055
0.014119
0.0140573
0.01395
0.0138294
0.0136971
0.0135584
0.0134161
0.0132713
0.0131245
0.0129759
0.0128254
0.0126728
0.0125179
0.0123605
0.0122004
0.0120373
0.011871
0.0117014
0.0115284
0.0113519
0.011172
0.0109886
0.0108017
0.0106118
0.0104184
0.010223
0.0100228
0.00982464
0.00961433
0.00942313
0.00918509
0.00903595
0.0133733
0.0142692
0.0141091
0.0141346
0.0140726
0.0139612
0.0138372
0.0137019
0.0135604
0.0134157
0.0132687
0.0131199
0.0129693
0.0128168
0.0126623
0.0125055
0.0123461
0.012184
0.0120188
0.0118506
0.0116789
0.0115039
0.0113255
0.0111437
0.0109585
0.01077
0.0105786
0.0103839
0.0101874
0.00998638
0.00978772
0.00957691
0.00938596
0.00914707
0.00900016
0.0132109
0.0142784
0.0141162
0.0141551
0.0140913
0.0139749
0.0138469
0.013708
0.0135636
0.0134166
0.0132675
0.0131168
0.0129645
0.0128103
0.0126542
0.0124957
0.0123347
0.0121709
0.0120041
0.0118341
0.0116608
0.0114842
0.0113042
0.0111208
0.0109342
0.0107445
0.010552
0.0103563
0.010159
0.00995746
0.00975851
0.00954767
0.00935718
0.00911854
0.00897407
0.0130299
0.0143076
0.0141278
0.0141777
0.0141094
0.0139872
0.0138553
0.0137133
0.0135664
0.0134173
0.0132666
0.0131143
0.0129606
0.0128051
0.0126477
0.0124879
0.0123256
0.0121605
0.0119923
0.011821
0.0116464
0.0114685
0.0112873
0.0111028
0.0109151
0.0107244
0.010531
0.0103346
0.0101368
0.0099349
0.00973573
0.00952503
0.0093343
0.00909598
0.00895102
0.0128262
0.014357
0.0141459
0.0142074
0.0141318
0.0140024
0.0138659
0.0137203
0.0135708
0.0134198
0.0132674
0.0131138
0.0129589
0.0128022
0.0126437
0.0124828
0.0123195
0.0121533
0.0119841
0.0118118
0.0116362
0.0114573
0.0112751
0.0110897
0.0109013
0.0107098
0.0105158
0.0103189
0.0101208
0.00991885
0.00971973
0.0095098
0.00931938
0.00908419
0.00893938
0.0125865
0.0144291
0.0141633
0.0142333
0.0141493
0.0140139
0.0138738
0.0137255
0.0135742
0.0134217
0.0132682
0.0131136
0.0129577
0.0128003
0.0126409
0.0124793
0.0123152
0.0121482
0.0119783
0.0118052
0.0116289
0.0114493
0.0112665
0.0110804
0.0108914
0.0106994
0.010505
0.0103078
0.0101096
0.0099076
0.00970835
0.00949914
0.00930702
0.00907376
0.00891863
0.0123407
0.0145178
0.0141915
0.0142699
0.0141741
0.0140309
0.0138861
0.0137345
0.0135809
0.0134267
0.0132719
0.0131162
0.0129595
0.0128013
0.0126413
0.012479
0.0123143
0.0121467
0.0119762
0.0118025
0.0116258
0.0114456
0.0112625
0.0110759
0.0108866
0.0106942
0.0104997
0.0103022
0.010104
0.00990221
0.00970336
0.00949552
0.00930467
0.00907859
0.00892533
0.0120731
0.0146226
0.0142151
0.0142991
0.0141921
0.0140433
0.0138952
0.0137413
0.0135861
0.0134308
0.0132751
0.0131188
0.0129615
0.0128027
0.0126422
0.0124795
0.0123144
0.0121464
0.0119756
0.0118016
0.0116246
0.0114441
0.0112607
0.0110738
0.0108844
0.0106918
0.0104972
0.0102996
0.0101015
0.00989976
0.00970089
0.00949405
0.00930012
0.00907733
0.00889214
0.0118393
0.0147348
0.0142606
0.0143416
0.0142196
0.0140625
0.0139092
0.0137518
0.0135943
0.0134373
0.0132804
0.0131232
0.0129652
0.012806
0.0126451
0.012482
0.0123167
0.0121485
0.0119776
0.0118034
0.0116262
0.0114456
0.0112622
0.0110753
0.0108859
0.0106932
0.0104987
0.0103011
0.0101032
0.00990158
0.00970334
0.00949737
0.00930857
0.00909305
0.00895472
0.0142347
0.0146845
0.0142972
0.014197
0.0140855
0.013971
0.0138626
0.013754
0.0136459
0.0135387
0.0134327
0.013328
0.0132248
0.013123
0.0130226
0.0129233
0.0128249
0.0127271
0.0126294
0.0125314
0.0124325
0.0123323
0.01223
0.0121249
0.0120166
0.0119041
0.011787
0.0116643
0.0115359
0.0114003
0.0112591
0.0111084
0.0109578
0.0107888
0.0106494
0.0142099
0.0146532
0.0142777
0.0141818
0.0140735
0.0139607
0.0138524
0.0137429
0.0136329
0.0135233
0.0134141
0.0133056
0.0131981
0.0130915
0.0129857
0.0128806
0.0127758
0.0126711
0.012566
0.0124602
0.0123531
0.0122442
0.012133
0.0120188
0.0119012
0.0117793
0.0116528
0.0115207
0.0113833
0.0112384
0.0110887
0.0109265
0.010767
0.0105736
0.0104237
0.014182
0.0146209
0.0142564
0.0141653
0.01406
0.0139484
0.0138397
0.0137285
0.0136159
0.0135029
0.0133896
0.0132766
0.0131638
0.0130515
0.0129393
0.0128273
0.012715
0.0126022
0.0124885
0.0123734
0.0122566
0.0121374
0.0120154
0.0118899
0.0117607
0.0116269
0.0114884
0.0113441
0.0111947
0.0110378
0.0108774
0.0107044
0.0105382
0.0103366
0.01019
0.0141464
0.0145856
0.0142348
0.0141502
0.0140489
0.0139393
0.0138306
0.0137183
0.0136036
0.0134877
0.0133711
0.0132541
0.013137
0.0130197
0.0129023
0.0127844
0.012666
0.0125465
0.0124258
0.0123032
0.0121786
0.0120513
0.011921
0.011787
0.0116492
0.0115068
0.0113598
0.0112071
0.0110496
0.0108847
0.0107169
0.0105357
0.0103627
0.0101504
0.00999808
0.0141135
0.0145482
0.0142134
0.0141358
0.0140387
0.0139308
0.0138218
0.0137078
0.0135906
0.0134715
0.0133511
0.0132298
0.013108
0.0129855
0.0128625
0.0127386
0.0126137
0.0124873
0.0123593
0.0122291
0.0120964
0.0119607
0.0118218
0.0116791
0.0115323
0.0113809
0.011225
0.0110635
0.0108976
0.0107245
0.0105493
0.0103609
0.0101828
0.009965
0.00981222
0.0140677
0.014508
0.0141919
0.014123
0.0140308
0.0139248
0.0138156
0.0137001
0.0135805
0.0134585
0.0133346
0.0132095
0.0130834
0.0129563
0.0128283
0.0126991
0.0125684
0.0124361
0.0123017
0.0121648
0.0120253
0.0118826
0.0117365
0.0115865
0.0114326
0.011274
0.0111111
0.0109429
0.0107705
0.0105913
0.0104105
0.0102167
0.0100342
0.00981091
0.00965562
0.0140191
0.0144659
0.0141711
0.0141118
0.014025
0.0139207
0.013811
0.0136937
0.0135715
0.0134462
0.0133187
0.0131897
0.0130593
0.0129276
0.0127947
0.0126602
0.012524
0.0123858
0.0122453
0.0121021
0.011956
0.0118066
0.0116536
0.0114968
0.0113359
0.0111706
0.0110011
0.0108265
0.0106481
0.0104633
0.0102775
0.0100791
0.0098933
0.00966644
0.00951076
0.0139604
0.014423
0.0141522
0.0141038
0.0140225
0.0139195
0.0138089
0.0136897
0.0135648
0.0134364
0.0133055
0.0131727
0.0130384
0.0129026
0.0127651
0.012626
0.0124848
0.0123414
0.0121955
0.0120467
0.0118949
0.0117396
0.0115808
0.0114181
0.0112515
0.0110806
0.0109057
0.010726
0.0105429
0.0103537
0.0101642
0.00996213
0.00977395
0.00954402
0.00938804
0.0138904
0.0143801
0.0141349
0.0140987
0.0140231
0.0139211
0.0138094
0.0136879
0.0135603
0.0134288
0.0132946
0.0131585
0.0130205
0.0128809
0.0127395
0.0125961
0.0124506
0.0123027
0.012152
0.0119985
0.0118417
0.0116815
0.0115176
0.01135
0.0111785
0.0110029
0.0108235
0.0106397
0.0104527
0.0102599
0.0100674
0.00986259
0.00967277
0.00944054
0.009285
0.01382
0.0143454
0.0141234
0.0140984
0.0140272
0.0139251
0.0138117
0.0136879
0.0135576
0.0134234
0.0132863
0.0131472
0.0130062
0.0128634
0.0127186
0.0125719
0.0124227
0.0122711
0.0121166
0.0119591
0.0117984
0.0116342
0.0114664
0.0112948
0.0111195
0.0109403
0.0107575
0.0105704
0.0103806
0.0101852
0.00999062
0.0097838
0.00959302
0.00935891
0.00920417
0.013728
0.0143106
0.0141126
0.0141007
0.014034
0.0139314
0.0138161
0.0136898
0.0135567
0.0134197
0.0132798
0.0131379
0.012994
0.0128483
0.0127006
0.0125508
0.0123984
0.0122435
0.0120857
0.0119248
0.0117606
0.0115929
0.0114217
0.0112468
0.0110683
0.010886
0.0107002
0.0105105
0.0103184
0.0101209
0.00992472
0.00971635
0.00952507
0.00928941
0.0091361
0.013634
0.0142873
0.0141082
0.0141082
0.0140442
0.0139395
0.0138218
0.0136926
0.0135568
0.0134172
0.0132748
0.0131303
0.0129839
0.0128357
0.0126854
0.0125329
0.0123779
0.0122202
0.0120595
0.0118957
0.0117285
0.011558
0.0113839
0.0112063
0.0110251
0.0108403
0.0106522
0.0104605
0.0102665
0.0100674
0.00987011
0.00966058
0.00946917
0.00923213
0.00908064
0.0135098
0.0142683
0.0141055
0.0141191
0.0140573
0.01395
0.0138293
0.0136971
0.0135584
0.0134161
0.0132713
0.0131245
0.0129759
0.0128254
0.0126728
0.0125179
0.0123605
0.0122004
0.0120373
0.011871
0.0117014
0.0115285
0.011352
0.011172
0.0109886
0.0108018
0.0106119
0.0104184
0.010223
0.0100228
0.00982469
0.00961438
0.0094232
0.00918515
0.00903607
0.0133793
0.0142655
0.014109
0.0141346
0.0140726
0.0139612
0.0138372
0.0137018
0.0135603
0.0134156
0.0132686
0.0131198
0.0129692
0.0128168
0.0126623
0.0125055
0.0123461
0.012184
0.0120188
0.0118506
0.0116789
0.011504
0.0113255
0.0111437
0.0109585
0.0107701
0.0105787
0.0103839
0.0101875
0.00998644
0.00978778
0.00957698
0.00938603
0.00914714
0.00900028
0.0132168
0.0142749
0.0141162
0.0141551
0.0140913
0.0139748
0.0138468
0.0137079
0.0135636
0.0134165
0.0132674
0.0131167
0.0129644
0.0128103
0.0126541
0.0124957
0.0123347
0.0121709
0.0120041
0.0118341
0.0116608
0.0114842
0.0113042
0.0111209
0.0109343
0.0107445
0.010552
0.0103563
0.0101591
0.00995753
0.00975859
0.00954775
0.00935727
0.00911864
0.00897422
0.0130354
0.0143044
0.0141277
0.0141776
0.0141093
0.0139871
0.0138552
0.0137132
0.0135663
0.0134173
0.0132665
0.0131143
0.0129606
0.0128051
0.0126477
0.0124879
0.0123256
0.0121605
0.0119923
0.011821
0.0116465
0.0114686
0.0112873
0.0111028
0.0109152
0.0107244
0.010531
0.0103347
0.0101369
0.00993499
0.00973583
0.00952513
0.0093344
0.00909608
0.00895117
0.0128313
0.014354
0.0141458
0.0142073
0.0141317
0.0140023
0.0138658
0.0137202
0.0135708
0.0134197
0.0132674
0.0131138
0.0129589
0.0128023
0.0126437
0.0124829
0.0123195
0.0121533
0.0119842
0.0118118
0.0116363
0.0114574
0.0112752
0.0110898
0.0109013
0.0107099
0.0105159
0.010319
0.0101209
0.00991897
0.00971985
0.00950992
0.00931951
0.00908433
0.00893958
0.0125913
0.0144264
0.0141631
0.0142332
0.0141492
0.0140138
0.0138738
0.0137255
0.0135742
0.0134217
0.0132682
0.0131136
0.0129578
0.0128003
0.012641
0.0124794
0.0123153
0.0121483
0.0119784
0.0118053
0.011629
0.0114494
0.0112666
0.0110805
0.0108915
0.0106995
0.0105052
0.0103079
0.0101097
0.00990773
0.00970849
0.00949927
0.00930717
0.0090739
0.0089188
0.0123444
0.0145159
0.0141912
0.0142698
0.0141741
0.014031
0.0138862
0.0137346
0.013581
0.0134268
0.013272
0.0131164
0.0129597
0.0128014
0.0126414
0.0124791
0.0123144
0.0121468
0.0119764
0.0118027
0.0116259
0.0114457
0.0112626
0.011076
0.0108867
0.0106943
0.0104998
0.0103024
0.0101042
0.00990232
0.00970348
0.00949563
0.00930481
0.00907871
0.00892554
0.0120751
0.0146227
0.0142154
0.0142996
0.0141926
0.0140436
0.0138954
0.0137414
0.0135862
0.0134309
0.0132752
0.0131188
0.0129615
0.0128027
0.0126422
0.0124795
0.0123144
0.0121464
0.0119756
0.0118016
0.0116246
0.0114441
0.0112607
0.0110738
0.0108844
0.0106918
0.0104972
0.0102996
0.0101015
0.00989975
0.00970088
0.00949403
0.00930012
0.00907727
0.00889201
0.0118475
0.0147369
0.0142606
0.0143411
0.014219
0.014062
0.0139087
0.0137513
0.0135939
0.013437
0.0132801
0.0131229
0.012965
0.0128057
0.0126449
0.0124818
0.0123165
0.0121483
0.0119774
0.0118032
0.0116261
0.0114455
0.011262
0.0110751
0.0108857
0.010693
0.0104985
0.010301
0.010103
0.0099014
0.00970315
0.00949718
0.00930837
0.00909288
0.00895445
0.0142398
0.0146793
0.0142969
0.0141969
0.0140855
0.013971
0.0138626
0.013754
0.0136459
0.0135387
0.0134327
0.013328
0.0132248
0.013123
0.0130226
0.0129233
0.0128249
0.0127271
0.0126294
0.0125314
0.0124325
0.0123322
0.0122299
0.0121249
0.0120166
0.0119041
0.011787
0.0116643
0.0115358
0.0114002
0.0112591
0.0111084
0.0109578
0.0107888
0.0106495
0.0142149
0.0146481
0.0142774
0.0141817
0.0140735
0.0139607
0.0138524
0.0137429
0.0136329
0.0135233
0.0134141
0.0133056
0.0131981
0.0130915
0.0129857
0.0128806
0.0127758
0.0126711
0.012566
0.0124602
0.0123531
0.0122442
0.012133
0.0120188
0.0119012
0.0117793
0.0116528
0.0115208
0.0113834
0.0112384
0.0110887
0.0109266
0.010767
0.0105736
0.0104238
0.0141869
0.0146158
0.0142561
0.0141652
0.01406
0.0139485
0.0138397
0.0137285
0.0136159
0.0135029
0.0133896
0.0132766
0.0131638
0.0130514
0.0129393
0.0128272
0.012715
0.0126022
0.0124885
0.0123734
0.0122566
0.0121374
0.0120154
0.0118899
0.0117607
0.0116269
0.0114884
0.0113441
0.0111947
0.0110378
0.0108774
0.0107044
0.0105382
0.0103366
0.0101901
0.0141513
0.0145806
0.0142345
0.0141501
0.0140489
0.0139393
0.0138307
0.0137183
0.0136036
0.0134877
0.0133711
0.0132541
0.013137
0.0130197
0.0129023
0.0127844
0.012666
0.0125465
0.0124258
0.0123032
0.0121786
0.0120513
0.011921
0.011787
0.0116492
0.0115068
0.0113598
0.0112071
0.0110496
0.0108847
0.0107169
0.0105357
0.0103627
0.0101504
0.00999817
0.0141182
0.0145433
0.0142131
0.0141358
0.0140387
0.0139308
0.0138218
0.0137078
0.0135906
0.0134715
0.0133511
0.0132298
0.013108
0.0129855
0.0128625
0.0127386
0.0126137
0.0124873
0.0123593
0.0122291
0.0120964
0.0119607
0.0118218
0.0116791
0.0115323
0.0113809
0.011225
0.0110635
0.0108976
0.0107245
0.0105493
0.010361
0.0101828
0.00996502
0.0098123
0.0140724
0.0145032
0.0141916
0.0141229
0.0140308
0.0139248
0.0138156
0.0137001
0.0135805
0.0134585
0.0133346
0.0132095
0.0130834
0.0129563
0.0128283
0.0126991
0.0125684
0.0124361
0.0123017
0.0121649
0.0120253
0.0118826
0.0117365
0.0115865
0.0114326
0.011274
0.0111111
0.0109429
0.0107705
0.0105913
0.0104105
0.0102167
0.0100342
0.00981096
0.00965573
0.0140237
0.0144612
0.0141708
0.0141118
0.014025
0.0139208
0.013811
0.0136937
0.0135715
0.0134462
0.0133187
0.0131897
0.0130593
0.0129276
0.0127947
0.0126602
0.012524
0.0123858
0.0122453
0.0121021
0.011956
0.0118066
0.0116536
0.0114968
0.0113359
0.0111706
0.0110011
0.0108265
0.0106481
0.0104633
0.0102775
0.0100791
0.00989331
0.00966648
0.00951087
0.0139649
0.0144184
0.0141519
0.0141037
0.0140225
0.0139196
0.0138089
0.0136897
0.0135648
0.0134364
0.0133055
0.0131727
0.0130384
0.0129025
0.0127651
0.012626
0.0124848
0.0123414
0.0121955
0.0120467
0.0118949
0.0117396
0.0115808
0.0114181
0.0112515
0.0110806
0.0109057
0.010726
0.010543
0.0103537
0.0101642
0.00996216
0.00977396
0.00954407
0.00938817
0.0138948
0.0143756
0.0141347
0.0140987
0.0140231
0.0139211
0.0138094
0.0136879
0.0135603
0.0134288
0.0132946
0.0131584
0.0130205
0.0128809
0.0127394
0.0125961
0.0124506
0.0123027
0.012152
0.0119985
0.0118417
0.0116815
0.0115176
0.01135
0.0111785
0.0110029
0.0108235
0.0106397
0.0104527
0.0102599
0.0100674
0.00986261
0.00967278
0.00944059
0.00928513
0.0138243
0.0143411
0.0141232
0.0140983
0.0140272
0.0139251
0.0138117
0.0136879
0.0135576
0.0134234
0.0132863
0.0131472
0.0130061
0.0128633
0.0127186
0.0125718
0.0124227
0.0122711
0.0121166
0.0119591
0.0117984
0.0116342
0.0114664
0.0112948
0.0111195
0.0109403
0.0107575
0.0105704
0.0103806
0.0101852
0.00999063
0.00978383
0.00959303
0.00935896
0.00920431
0.0137323
0.0143064
0.0141124
0.0141006
0.014034
0.0139314
0.0138161
0.0136897
0.0135567
0.0134197
0.0132798
0.0131379
0.012994
0.0128483
0.0127006
0.0125507
0.0123984
0.0122435
0.0120857
0.0119248
0.0117606
0.0115929
0.0114217
0.0112468
0.0110683
0.010886
0.0107002
0.0105106
0.0103184
0.0101209
0.00992473
0.00971638
0.00952508
0.00928946
0.00913624
0.0136381
0.0142832
0.014108
0.0141081
0.0140442
0.0139395
0.0138218
0.0136926
0.0135568
0.0134171
0.0132747
0.0131303
0.0129839
0.0128357
0.0126854
0.0125329
0.0123778
0.0122201
0.0120594
0.0118957
0.0117285
0.011558
0.0113839
0.0112062
0.011025
0.0108403
0.0106522
0.0104605
0.0102665
0.0100675
0.00987012
0.00966061
0.00946918
0.00923218
0.0090808
0.0135138
0.0142643
0.0141053
0.014119
0.0140573
0.01395
0.0138293
0.0136971
0.0135583
0.0134161
0.0132712
0.0131245
0.0129758
0.0128253
0.0126727
0.0125179
0.0123605
0.0122004
0.0120373
0.011871
0.0117014
0.0115284
0.0113519
0.011172
0.0109886
0.0108018
0.0106119
0.0104184
0.010223
0.0100228
0.0098247
0.00961442
0.00942321
0.00918521
0.00903624
0.0133831
0.0142617
0.0141088
0.0141345
0.0140725
0.0139612
0.0138371
0.0137017
0.0135603
0.0134156
0.0132686
0.0131198
0.0129692
0.0128167
0.0126622
0.0125055
0.0123461
0.012184
0.0120188
0.0118505
0.0116789
0.0115039
0.0113255
0.0111437
0.0109585
0.0107701
0.0105787
0.010384
0.0101875
0.00998646
0.00978779
0.00957701
0.00938605
0.00914721
0.00900047
0.0132204
0.0142714
0.014116
0.014155
0.0140912
0.0139747
0.0138467
0.0137078
0.0135635
0.0134164
0.0132674
0.0131167
0.0129644
0.0128103
0.0126541
0.0124957
0.0123347
0.0121709
0.0120041
0.0118341
0.0116608
0.0114842
0.0113042
0.0111209
0.0109343
0.0107446
0.010552
0.0103564
0.0101591
0.00995756
0.00975861
0.0095478
0.0093573
0.00911871
0.00897442
0.0130388
0.0143011
0.0141276
0.0141775
0.0141092
0.013987
0.0138551
0.0137131
0.0135662
0.0134172
0.0132664
0.0131142
0.0129605
0.0128051
0.0126476
0.0124879
0.0123256
0.0121604
0.0119923
0.011821
0.0116465
0.0114686
0.0112873
0.0111028
0.0109152
0.0107244
0.0105311
0.0103347
0.0101369
0.00993504
0.00973587
0.00952519
0.00933444
0.00909618
0.0089514
0.0128345
0.0143511
0.0141456
0.0142071
0.0141316
0.0140022
0.0138657
0.0137201
0.0135707
0.0134197
0.0132674
0.0131138
0.0129589
0.0128022
0.0126437
0.0124829
0.0123195
0.0121533
0.0119842
0.0118118
0.0116363
0.0114574
0.0112752
0.0110898
0.0109014
0.0107099
0.0105159
0.0103191
0.010121
0.00991904
0.00971992
0.00951
0.00931958
0.00908444
0.00893982
0.0125943
0.0144238
0.014163
0.014233
0.0141491
0.0140137
0.0138737
0.0137255
0.0135742
0.0134217
0.0132682
0.0131137
0.0129578
0.0128004
0.0126411
0.0124794
0.0123153
0.0121483
0.0119785
0.0118053
0.0116291
0.0114494
0.0112667
0.0110806
0.0108916
0.0106996
0.0105052
0.010308
0.0101098
0.00990781
0.00970857
0.00949936
0.00930724
0.009074
0.008919
0.0123468
0.0145144
0.0141913
0.0142698
0.0141742
0.0140311
0.0138863
0.0137347
0.0135811
0.0134269
0.0132721
0.0131165
0.0129597
0.0128015
0.0126415
0.0124791
0.0123144
0.0121468
0.0119764
0.0118027
0.011626
0.0114458
0.0112626
0.011076
0.0108868
0.0106943
0.0104998
0.0103024
0.0101042
0.00990236
0.00970352
0.00949568
0.00930485
0.00907878
0.00892568
0.012077
0.0146233
0.0142158
0.0142998
0.0141927
0.0140437
0.0138954
0.0137415
0.0135862
0.0134309
0.0132752
0.0131188
0.0129615
0.0128027
0.0126422
0.0124795
0.0123143
0.0121464
0.0119756
0.0118016
0.0116245
0.011444
0.0112606
0.0110738
0.0108843
0.0106917
0.0104971
0.0102996
0.0101014
0.0098997
0.00970082
0.00949397
0.00930005
0.00907717
0.00889151
0.0118461
0.0147381
0.0142612
0.0143411
0.0142191
0.0140619
0.0139086
0.0137513
0.0135938
0.0134369
0.0132801
0.0131229
0.0129649
0.0128057
0.0126448
0.0124818
0.0123165
0.0121483
0.0119774
0.0118032
0.0116261
0.0114455