/*--------------------------------*- C++ -*----------------------------------*\
  =========                 |
  \\      /  F ield         | OpenFOAM: The Open Source CFD Toolbox
   \\    /   O peration     | Website:  https://openfoam.org
    \\  /    A nd           | Version:  6
     \\/     M anipulation  |
\*---------------------------------------------------------------------------*/
FoamFile
{
    version     2.0;
    format      ascii;
    class       volVectorField;
    location    "21";
    object      wallShearStress;
}
// * * * * * * * * * * * * * * * * * * * * * * * * * * * * * * * * * * * * * //

dimensions      [0 2 -2 0 0 0 0];

internalField   uniform (0 0 0);

boundaryField
{
    inlet
    {
        type            calculated;
        value           uniform (0 0 0);
    }
    outlet
    {
        type            calculated;
        value           uniform (0 0 0);
    }
    roughCylinder
    {
        type            calculated;
        value           nonuniform List<vector> 
3840
(
(-0.000270538 -0.000396291 -0.000162618)
(-0.000326561 -0.000509562 -2.25824e-05)
(-0.000375598 -0.000631108 4.14436e-05)
(-0.000450636 -0.000734668 0.000123446)
(-0.000538669 -0.000808785 0.000205958)
(-0.000629997 -0.000849198 0.000278119)
(-0.000714927 -0.000859993 0.00033485)
(-0.000788714 -0.00085251 0.000374709)
(-0.000851811 -0.000846091 0.00040199)
(-0.000900453 -0.000844698 0.000416318)
(-0.00093917 -0.000852344 0.000419681)
(-0.000971353 -0.000867485 0.000414239)
(-0.00100008 -0.000888517 0.000402545)
(-0.00102826 -0.000913944 0.000386663)
(-0.00105793 -0.000942822 0.000368026)
(-0.00109021 -0.000974645 0.000347288)
(-0.00112544 -0.0010091 0.000324535)
(-0.00116344 -0.00104583 0.000299452)
(-0.0012037 -0.00108433 0.000271466)
(-0.00124539 -0.00112377 0.000239688)
(-0.00128737 -0.00116294 0.000202746)
(-0.00132762 -0.00119977 0.000158419)
(-0.00136231 -0.00123118 0.000103033)
(-0.0013841 -0.00125104 3.58547e-05)
(-0.000289944 -0.000384006 -0.000155309)
(-0.000349525 -0.000494164 -2.63456e-05)
(-0.000401142 -0.00061524 3.29355e-05)
(-0.000478471 -0.000719994 0.000111417)
(-0.000568407 -0.000796687 0.000191957)
(-0.000661683 -0.000840063 0.000263047)
(-0.00074962 -0.000854966 0.000319749)
(-0.000828335 -0.000853618 0.00036164)
(-0.000896369 -0.000850408 0.00039146)
(-0.000949011 -0.000847807 0.000407309)
(-0.000989708 -0.000854118 0.000411325)
(-0.00102384 -0.000868608 0.000406204)
(-0.00105446 -0.000889429 0.000394742)
(-0.00108455 -0.000914869 0.000379083)
(-0.00111622 -0.000943869 0.000360736)
(-0.00115059 -0.000975817 0.000340376)
(-0.00118801 -0.00101036 0.000318101)
(-0.00122826 -0.00104714 0.000293592)
(-0.00127081 -0.00108562 0.000266269)
(-0.00131476 -0.00112498 0.000235227)
(-0.00135894 -0.00116402 0.000199097)
(-0.00140121 -0.00120067 0.000155667)
(-0.00143757 -0.00123189 0.000101297)
(-0.00146038 -0.00125159 3.52611e-05)
(-0.00030939 -0.000366248 -0.000142426)
(-0.000371745 -0.000473064 -3.07204e-05)
(-0.000425778 -0.00059257 2.36572e-05)
(-0.000504934 -0.000697819 9.81999e-05)
(-0.000596675 -0.000776958 0.000176466)
(-0.000692285 -0.000824049 0.000246609)
(-0.000783928 -0.00084421 0.000303945)
(-0.000867533 -0.000848795 0.000347948)
(-0.000940122 -0.000848515 0.000379653)
(-0.000997468 -0.000845958 0.00039719)
(-0.00104028 -0.00085057 0.000401841)
(-0.00107643 -0.000864199 0.000397058)
(-0.00110904 -0.000884592 0.000385898)
(-0.00114116 -0.000909852 0.000370552)
(-0.0011749 -0.000938749 0.00035257)
(-0.00121141 -0.000970597 0.000332667)
(-0.00125105 -0.001005 0.000310951)
(-0.00129358 -0.00104157 0.000287099)
(-0.0013384 -0.00107977 0.000260519)
(-0.0013846 -0.00111878 0.000230293)
(-0.00143094 -0.00115742 0.00019506)
(-0.00147517 -0.00119363 0.000152618)
(-0.00151318 -0.00122444 9.93735e-05)
(-0.00153695 -0.00124382 3.4604e-05)
(-0.000326873 -0.000344328 -0.0001259)
(-0.000391121 -0.000447124 -3.53075e-05)
(-0.000447006 -0.000564093 1.39631e-05)
(-0.000527401 -0.000669274 8.42259e-05)
(-0.000620841 -0.000750792 0.000159889)
(-0.000719098 -0.000802186 0.00022905)
(-0.000814755 -0.000828219 0.000287225)
(-0.000903197 -0.000838522 0.00033327)
(-0.000980477 -0.000841341 0.000366727)
(-0.0010429 -0.000840116 0.000386118)
(-0.00108851 -0.000842552 0.000391435)
(-0.00112682 -0.000855113 0.000387112)
(-0.00116158 -0.000874891 0.000376337)
(-0.00119579 -0.000899786 0.000361381)
(-0.00123165 -0.000928431 0.000343846)
(-0.00127032 -0.000960019 0.00032448)
(-0.00131215 -0.00099409 0.000303391)
(-0.00135688 -0.00103025 0.000280257)
(-0.0014039 -0.00106795 0.000254479)
(-0.00145222 -0.00110639 0.000225121)
(-0.0015006 -0.0011444 0.000190833)
(-0.00154667 -0.00117996 0.00014943)
(-0.0015862 -0.00121018 9.73642e-05)
(-0.00161084 -0.00122913 3.39194e-05)
(-0.00034108 -0.00031837 -0.000107261)
(-0.000406656 -0.000416668 -3.97476e-05)
(-0.00046371 -0.000530179 4.16287e-06)
(-0.000544744 -0.000634705 6.97714e-05)
(-0.000639832 -0.000718551 0.000142451)
(-0.000741048 -0.000774635 0.000210469)
(-0.000840913 -0.0008067 0.000269403)
(-0.000934112 -0.000822374 0.000317306)
(-0.00101613 -0.000828295 0.000352535)
(-0.00108318 -0.000828575 0.000373498)
(-0.00113333 -0.00082951 0.000379977)
(-0.00117402 -0.000840811 0.000376369)
(-0.00121108 -0.000859691 0.000366082)
(-0.00124748 -0.000884042 0.000351632)
(-0.00128547 -0.000912219 0.000334636)
(-0.00132626 -0.000943328 0.000315882)
(-0.00137021 -0.000976859 0.000295495)
(-0.00141706 -0.00101238 0.000273144)
(-0.00146614 -0.00104936 0.000248224)
(-0.00151643 -0.00108698 0.000219778)
(-0.00156669 -0.00112413 0.000186476)
(-0.00161442 -0.00115881 0.000146148)
(-0.00165532 -0.00118825 9.53007e-05)
(-0.00168072 -0.00120665 3.32186e-05)
(-0.000352346 -0.000290163 -8.79561e-05)
(-0.000418195 -0.000383051 -4.38865e-05)
(-0.000475595 -0.000492298 -5.5125e-06)
(-0.000556653 -0.000595578 5.50845e-05)
(-0.000653188 -0.000681511 0.000124349)
(-0.000757414 -0.000742245 0.000190931)
(-0.000861508 -0.000780071 0.00025036)
(-0.000959491 -0.000800709 0.000299892)
(-0.00104637 -0.000809635 0.000336882)
(-0.00111827 -0.000811496 0.00035933)
(-0.00117416 -0.000812511 0.000367545)
(-0.0012176 -0.000821488 0.00036474)
(-0.00125714 -0.000839255 0.000355112)
(-0.00129582 -0.000862724 0.000341286)
(-0.00133598 -0.000890224 0.000324944)
(-0.00137889 -0.000920654 0.000306898)
(-0.00142489 -0.000953424 0.000287289)
(-0.00147372 -0.00098808 0.000265785)
(-0.00152469 -0.00102408 0.000241775)
(-0.00157677 -0.00106064 0.000214287)
(-0.00162869 -0.00109671 0.000182005)
(-0.00167789 -0.0011303 0.000142786)
(-0.00171999 -0.00115876 9.31912e-05)
(-0.00174601 -0.00117651 3.25051e-05)
(-0.000358744 -0.000259447 -6.85448e-05)
(-0.000424535 -0.000346698 -4.74667e-05)
(-0.000481468 -0.000450847 -1.48657e-05)
(-0.000561801 -0.000552231 4.02535e-05)
(-0.000659481 -0.000639948 0.000105577)
(-0.000766779 -0.000705284 0.000170331)
(-0.000875307 -0.000748687 0.000229936)
(-0.000978238 -0.000773962 0.000280825)
(-0.00107019 -0.000785815 0.000319538)
(-0.00114727 -0.000789334 0.000343631)
(-0.00120866 -0.000791052 0.000353569)
(-0.00125679 -0.00079812 0.000352084)
(-0.00129906 -0.000814131 0.000343351)
(-0.00134025 -0.000836545 0.000330337)
(-0.00138262 -0.000863079 0.000314769)
(-0.00142759 -0.000892588 0.000297527)
(-0.00147556 -0.000924388 0.000278785)
(-0.00152623 -0.000957979 0.000258201)
(-0.00157894 -0.000992818 0.000235164)
(-0.00163259 -0.00102812 0.000208672)
(-0.00168595 -0.00106288 0.000177444)
(-0.00173639 -0.00109518 0.000139359)
(-0.00177949 -0.00112251 9.10474e-05)
(-0.00180598 -0.0011395 3.17827e-05)
(-0.000361722 -0.00022842 -5.00325e-05)
(-0.000425881 -0.00030907 -5.05484e-05)
(-0.00048129 -0.000407345 -2.3688e-05)
(-0.000560005 -0.000505998 2.55731e-05)
(-0.000658238 -0.000594877 8.63583e-05)
(-0.000768271 -0.000664319 0.000148714)
(-0.000881048 -0.000712781 0.000207979)
(-0.000989087 -0.000742421 0.000259902)
(-0.00108647 -0.000757209 0.000300284)
(-0.00116916 -0.000762513 0.00032623)
(-0.00123613 -0.000765033 0.000337945)
(-0.00128992 -0.000771368 0.000338205)
(-0.00133597 -0.00078527 0.00033074)
(-0.00137979 -0.000805811 0.000318692)
(-0.00142448 -0.000831194 0.000304077)
(-0.00147153 -0.000859583 0.000287773)
(-0.00152135 -0.000890202 0.000269992)
(-0.00157368 -0.000922505 0.0002504)
(-0.00162787 -0.000955956 0.000228387)
(-0.00168281 -0.000989841 0.000202939)
(-0.00173733 -0.00102321 0.000172797)
(-0.00178875 -0.00105413 0.000135877)
(-0.00183261 -0.00108024 8.88752e-05)
(-0.00185939 -0.00109647 3.10554e-05)
(-0.000357718 -0.000195752 -3.25033e-05)
(-0.000420515 -0.000269859 -5.26389e-05)
(-0.000473559 -0.000361526 -3.17874e-05)
(-0.000549624 -0.000456634 1.11664e-05)
(-0.000647665 -0.000545953 6.67511e-05)
(-0.000760227 -0.000619144 0.000126022)
(-0.000877499 -0.000672569 0.000184405)
(-0.000990925 -0.000706443 0.000236983)
(-0.00109409 -0.000724162 0.000278907)
(-0.00118273 -0.000731286 0.000306848)
(-0.00125567 -0.00073472 0.000320617)
(-0.00131506 -0.000740804 0.000322788)
(-0.00136598 -0.000753272 0.000317)
(-0.00141363 -0.000772181 0.000306411)
(-0.00146067 -0.000795828 0.000292918)
(-0.00150971 -0.000822776 0.000277673)
(-0.00156127 -0.000852054 0.000260965)
(-0.00161508 -0.000882998 0.000242453)
(-0.00167052 -0.000915042 0.000221535)
(-0.00172639 -0.000947409 0.000197156)
(-0.00178158 -0.000979186 0.000168101)
(-0.00183352 -0.00100854 0.000132351)
(-0.00187779 -0.00103329 8.66788e-05)
(-0.00190449 -0.00104863 3.03213e-05)
(-0.000350901 -0.000164485 -1.68315e-05)
(-0.000409519 -0.000231202 -5.44969e-05)
(-0.000458966 -0.000315564 -3.87449e-05)
(-0.000531232 -0.000405898 -2.42153e-06)
(-0.00062804 -0.000494605 4.71845e-05)
(-0.000742359 -0.000570709 0.000102508)
(-0.000863559 -0.000628402 0.0001592)
(-0.000982483 -0.000666349 0.000211931)
(-0.00109189 -0.000687085 0.000255236)
(-0.00118709 -0.000696165 0.000285298)
(-0.00126633 -0.000700498 0.000301391)
(-0.00133155 -0.000706434 0.000305764)
(-0.00138745 -0.000717851 0.000301926)
(-0.00143883 -0.000735227 0.000292991)
(-0.00148882 -0.000757137 0.000280929)
(-0.00154003 -0.000782498 0.000266979)
(-0.00159308 -0.000810183 0.000251474)
(-0.00164793 -0.000839501 0.00023412)
(-0.00170401 -0.000869851 0.000214336)
(-0.00176024 -0.000900456 0.00019106)
(-0.00181569 -0.00093037 0.000163135)
(-0.0018678 -0.000957986 0.000128618)
(-0.00191213 -0.000981217 8.43523e-05)
(-0.00193853 -0.000995552 2.95456e-05)
(-0.000334041 -0.000133678 -2.96731e-06)
(-0.00039131 -0.000191229 -5.37387e-05)
(-0.00043576 -0.00026827 -4.48729e-05)
(-0.000502824 -0.000353031 -1.52544e-05)
(-0.000596996 -0.00044001 2.7838e-05)
(-0.000712461 -0.000518406 7.82459e-05)
(-0.00083797 -0.00058052 0.000132419)
(-0.000962742 -0.000622666 0.000184726)
(-0.00107884 -0.000646534 0.000229162)
(-0.00118091 -0.000657516 0.000261342)
(-0.00126704 -0.000662782 0.000280035)
(-0.0013385 -0.000668586 0.000286954)
(-0.00139954 -0.000678951 0.000285363)
(-0.00145496 -0.000694815 0.000278363)
(-0.00150788 -0.000714945 0.000267958)
(-0.00156108 -0.000738495 0.000255486)
(-0.00161551 -0.000764375 0.000241345)
(-0.00167117 -0.000791828 0.000225269)
(-0.00172762 -0.000820253 0.000206714)
(-0.00178384 -0.00084886 0.000184604)
(-0.00183924 -0.000876798 0.000157882)
(-0.00189109 -0.000902511 0.000124665)
(-0.00193517 -0.000924119 8.189e-05)
(-0.00196101 -0.00093737 2.87261e-05)
(-0.000312126 -0.000105602 5.22395e-06)
(-0.000369251 -0.000156022 -5.02022e-05)
(-0.00040691 -0.000222326 -4.90452e-05)
(-0.000466609 -0.000300585 -2.65794e-05)
(-0.000556439 -0.000384503 9.32586e-06)
(-0.000671616 -0.000464006 5.3789e-05)
(-0.000799999 -0.000529493 0.000104285)
(-0.000930411 -0.000575711 0.000155368)
(-0.00105357 -0.000602906 0.000200564)
(-0.0011634 -0.000616088 0.00023491)
(-0.00125688 -0.000622191 0.000256401)
(-0.00133504 -0.000627789 0.000266208)
(-0.00140171 -0.000637086 0.000267245)
(-0.00146121 -0.000651231 0.000262452)
(-0.00151718 -0.000669462 0.000253976)
(-0.00157247 -0.000691085 0.000243214)
(-0.00162807 -0.000714949 0.000230596)
(-0.00168425 -0.000740341 0.000215923)
(-0.00174064 -0.000766628 0.000198684)
(-0.00179639 -0.000793064 0.000177809)
(-0.00185117 -0.000818821 0.000152338)
(-0.00190238 -0.000842536 0.000120493)
(-0.00194579 -0.000862419 7.92905e-05)
(-0.00197081 -0.00087453 2.78644e-05)
(-0.000280627 -7.7018e-05 1.24403e-05)
(-0.000339296 -0.00012352 -4.83055e-05)
(-0.000369425 -0.000178591 -5.07311e-05)
(-0.000419681 -0.000248176 -3.52814e-05)
(-0.000502855 -0.000326789 -7.56025e-06)
(-0.000616294 -0.000406103 2.96212e-05)
(-0.000748232 -0.000475373 7.52033e-05)
(-0.000884711 -0.000526051 0.000124107)
(-0.00101547 -0.00055696 0.000169554)
(-0.00113318 -0.000572307 0.00020586)
(-0.00123471 -0.000579331 0.000230347)
(-0.00132009 -0.000584612 0.000243381)
(-0.00139262 -0.000592628 0.000247398)
(-0.00145679 -0.000605026 0.000245229)
(-0.00151592 -0.0006212 0.000238981)
(-0.00157309 -0.000640636 0.000230134)
(-0.00162972 -0.000662325 0.000219227)
(-0.0016861 -0.000685499 0.000206092)
(-0.00174209 -0.000709547 0.000190278)
(-0.00179694 -0.000733707 0.000170705)
(-0.0018508 -0.000757261 0.000146554)
(-0.00190083 -0.000778874 0.00011613)
(-0.00194324 -0.000796996 7.65781e-05)
(-0.00196709 -0.000807937 2.69681e-05)
(-0.000244234 -5.08542e-05 1.84461e-05)
(-0.00030369 -9.45143e-05 -4.73559e-05)
(-0.000327356 -0.000139672 -5.08214e-05)
(-0.000367089 -0.000199362 -4.13439e-05)
(-0.000441517 -0.000270963 -2.2018e-05)
(-0.000551018 -0.000348251 6.81481e-06)
(-0.000683117 -0.000419114 4.58761e-05)
(-0.000824626 -0.000473876 9.12892e-05)
(-0.000962879 -0.000508725 0.000136181)
(-0.00108963 -0.000526951 0.000174297)
(-0.00119971 -0.000534973 0.00020186)
(-0.00129285 -0.00053987 0.000218433)
(-0.00137194 -0.000546557 0.00022587)
(-0.00144072 -0.000556878 0.000226647)
(-0.00150318 -0.000570824 0.000222959)
(-0.00156243 -0.000588005 0.00021632)
(-0.00161984 -0.00060736 0.000207309)
(-0.00167607 -0.000628192 0.000195846)
(-0.00173112 -0.000649871 0.00018154)
(-0.00178449 -0.000671671 0.000163318)
(-0.00183668 -0.000692873 0.000140511)
(-0.00188516 -0.000712408 0.000111576)
(-0.00192604 -0.000728719 7.37452e-05)
(-0.00194845 -0.000738517 2.60372e-05)
(-0.000200055 -2.79714e-05 2.25495e-05)
(-0.000258283 -6.73802e-05 -4.52487e-05)
(-0.000276439 -0.000103518 -4.91101e-05)
(-0.000304496 -0.000151894 -4.41284e-05)
(-0.000366463 -0.000213598 -3.28113e-05)
(-0.000468771 -0.000286429 -1.34073e-05)
(-0.000602821 -0.000359921 1.74083e-05)
(-0.000749868 -0.000419451 5.77016e-05)
(-0.000896457 -0.000459186 0.000101068)
(-0.00103179 -0.000480375 0.000140376)
(-0.00115097 -0.000489747 0.000170992)
(-0.0012524 -0.000494331 0.000191356)
(-0.00133809 -0.000499431 0.00020252)
(-0.00141224 -0.000507695 0.000206708)
(-0.00147818 -0.000519257 0.000205925)
(-0.00153918 -0.000533927 0.000201728)
(-0.0015972 -0.000550863 0.000194824)
(-0.00165292 -0.000569295 0.000185176)
(-0.00170662 -0.000588598 0.000172479)
(-0.00175805 -0.000608068 0.000155665)
(-0.00180839 -0.000627058 0.000134267)
(-0.00185461 -0.000644475 0.000106853)
(-0.00189364 -0.000659043 7.0816e-05)
(-0.00191419 -0.000667718 2.50787e-05)
(-0.000153745 -1.04363e-05 2.44985e-05)
(-0.000210077 -4.4935e-05 -4.25033e-05)
(-0.000225495 -7.39256e-05 -4.68473e-05)
(-0.000243392 -0.000111751 -4.43401e-05)
(-0.000292175 -0.000162462 -3.93722e-05)
(-0.000384248 -0.000228651 -2.98105e-05)
(-0.000510978 -0.000299503 -9.04381e-06)
(-0.000660637 -0.000362759 2.43371e-05)
(-0.00081398 -0.000407338 6.46616e-05)
(-0.000959216 -0.000432911 0.000104563)
(-0.00108794 -0.000444232 0.000137993)
(-0.00119801 -0.000448747 0.000162248)
(-0.00129125 -0.000452511 0.000177534)
(-0.00137053 -0.00045844 0.000185421)
(-0.00144004 -0.000467494 0.000187882)
(-0.00150307 -0.000479681 0.000186455)
(-0.00156138 -0.000494113 0.000181851)
(-0.00161617 -0.000510118 0.000174151)
(-0.00166792 -0.000527046 0.00016314)
(-0.00171665 -0.000544191 0.000147757)
(-0.00176414 -0.000560876 0.000127763)
(-0.00180779 -0.000576321 0.00010194)
(-0.00184435 -0.000589166 6.77649e-05)
(-0.00186277 -0.000596833 2.40861e-05)
(-0.000102207 2.67819e-06 2.43444e-05)
(-0.000151665 -2.38316e-05 -3.72073e-05)
(-0.000165295 -4.56131e-05 -4.26157e-05)
(-0.000173004 -7.20745e-05 -4.11363e-05)
(-0.000203556 -0.000107573 -3.97297e-05)
(-0.000278006 -0.000160708 -3.84716e-05)
(-0.000405026 -0.000235644 -3.00818e-05)
(-0.000557454 -0.000303093 -6.9785e-06)
(-0.000718999 -0.000354539 2.85235e-05)
(-0.00087244 -0.000384792 6.77229e-05)
(-0.00101047 -0.000398827 0.000103374)
(-0.00112951 -0.000403856 0.000131412)
(-0.00122975 -0.000406247 0.000150879)
(-0.00131494 -0.000410111 0.000162847)
(-0.00138815 -0.000416653 0.000168879)
(-0.00145265 -0.000426179 0.000170439)
(-0.00151102 -0.000438126 0.000168344)
(-0.00156445 -0.000451756 0.000162732)
(-0.00161375 -0.000466414 0.000153494)
(-0.00165938 -0.000481411 0.000139589)
(-0.00170401 -0.000496078 0.000121066)
(-0.00174427 -0.000509593 9.68558e-05)
(-0.00177806 -0.000520873 6.46162e-05)
(-0.00179383 -0.000527611 2.30659e-05)
(-5.99849e-05 5.92442e-06 1.64187e-05)
(-0.00010132 -1.50467e-05 -2.78115e-05)
(-0.000115842 -2.67026e-05 -3.77799e-05)
(-0.000128927 -4.98357e-05 -3.59694e-05)
(-0.00014688 -7.02778e-05 -3.47298e-05)
(-0.000254454 -0.000123959 -4.10512e-05)
(-0.000294871 -0.000167102 -4.59559e-05)
(-0.000443427 -0.000240375 -3.45468e-05)
(-0.000608213 -0.000297846 -5.965e-06)
(-0.000770936 -0.000335302 3.11616e-05)
(-0.000918487 -0.000353507 6.79743e-05)
(-0.00104618 -0.000359862 9.92652e-05)
(-0.00115452 -0.000361769 0.000122978)
(-0.001245 -0.000363613 0.000139113)
(-0.00132178 -0.000367725 0.000148961)
(-0.00138812 -0.00037482 0.000153818)
(-0.00144615 -0.000384341 0.000154407)
(-0.00149769 -0.000395682 0.000150992)
(-0.00154388 -0.000408198 0.000143586)
(-0.00158548 -0.000421134 0.000131147)
(-0.00162602 -0.000433746 0.000114066)
(-0.00166255 -0.00044557 9.15409e-05)
(-0.00169289 -0.000455365 6.13171e-05)
(-0.00170577 -0.000461325 2.20025e-05)
(-6.0724e-06 -1.27452e-05 1.28011e-06)
(-2.98519e-05 1.1205e-06 3.77261e-06)
(-5.55827e-05 -2.08222e-06 -3.62054e-05)
(-4.48826e-05 -2.87891e-05 -3.36745e-05)
(-4.78885e-05 -1.80876e-05 -4.41708e-05)
(-6.17587e-05 -0.000156845 -5.65553e-05)
(-0.000197258 -0.00012778 3.01507e-05)
(-0.000324265 -0.000167195 -5.35645e-05)
(-0.00049197 -0.000240958 -3.58992e-05)
(-0.000658115 -0.000284687 -3.09629e-06)
(-0.000813064 -0.000308167 3.31252e-05)
(-0.000949387 -0.000317235 6.66817e-05)
(-0.00106425 -0.000319079 9.41007e-05)
(-0.00116065 -0.000319683 0.000114458)
(-0.00124095 -0.000321703 0.000128281)
(-0.00130811 -0.000326373 0.000136542)
(-0.00136539 -0.000333648 0.000139963)
(-0.00141459 -0.000342901 0.000138853)
(-0.0014571 -0.000353495 0.000133341)
(-0.00149436 -0.000364658 0.000122398)
(-0.00153097 -0.000375589 0.000106822)
(-0.00156311 -0.000385881 8.60198e-05)
(-0.00158979 -0.000394422 5.78956e-05)
(-0.00159922 -0.00039969 2.0901e-05)
(1.36157e-05 9.10546e-06 1.41823e-05)
(1.32023e-06 2.98875e-06 -9.62074e-06)
(-1.91947e-05 -9.873e-06 -3.20896e-05)
(-2.92089e-05 -2.78478e-05 -4.12806e-05)
(-5.63123e-05 -4.66387e-05 -3.59833e-05)
(-1.49668e-05 -3.72034e-05 -3.08445e-05)
(-6.29591e-05 -5.61794e-05 -2.8389e-05)
(-0.000212329 -0.000115222 -4.80898e-05)
(-0.000359498 -0.000174649 -5.46841e-05)
(-0.000532955 -0.000231761 -3.1168e-05)
(-0.000695286 -0.00026206 6.88122e-07)
(-0.000838583 -0.000275214 3.46242e-05)
(-0.000961069 -0.000278779 6.50519e-05)
(-0.00106198 -0.000278708 8.9224e-05)
(-0.00114528 -0.000279143 0.000106984)
(-0.00121376 -0.000281989 0.000118836)
(-0.00126979 -0.000287307 0.000125171)
(-0.00131595 -0.000294693 0.000126411)
(-0.00135405 -0.000303595 0.000122803)
(-0.00138594 -0.000313112 0.000113298)
(-0.00141741 -0.00032239 9.91916e-05)
(-0.00144451 -0.000331336 8.01723e-05)
(-0.00146674 -0.000338695 5.42486e-05)
(-0.00147265 -0.000343436 1.97293e-05)
(1.42785e-05 3.71629e-05 3.38242e-05)
(3.44243e-05 -6.7917e-06 -3.3137e-05)
(2.9933e-05 -8.47427e-06 -3.12607e-06)
(1.11733e-06 3.13558e-06 -1.18421e-05)
(-2.73203e-07 -1.66597e-05 -5.45609e-07)
(-5.66048e-05 5.15712e-05 -1.45148e-05)
(-2.19232e-05 -1.86791e-05 -4.14752e-05)
(-8.26909e-05 -5.51112e-05 -2.56891e-05)
(-0.000252537 -0.000112821 -5.40731e-05)
(-0.000400138 -0.000171858 -5.3531e-05)
(-0.000566649 -0.000214884 -2.7437e-05)
(-0.000717529 -0.000233977 4.68944e-06)
(-0.000844463 -0.000240078 3.6612e-05)
(-0.000950316 -0.000240864 6.39893e-05)
(-0.00103611 -0.000240533 8.54299e-05)
(-0.00110404 -0.000241835 0.000100699)
(-0.00115813 -0.000245605 0.000109928)
(-0.0012008 -0.000251475 0.000113533)
(-0.00123396 -0.000258995 0.000111831)
(-0.0012604 -0.000267189 0.000103767)
(-0.00128691 -0.000275148 9.11852e-05)
(-0.00130903 -0.000283066 7.40423e-05)
(-0.00132707 -0.000289532 5.0432e-05)
(-0.00132882 -0.000293714 1.84957e-05)
(3.83546e-05 7.72147e-06 2.4507e-05)
(5.62941e-05 4.92294e-06 -1.0774e-05)
(5.62723e-05 -3.39885e-06 -1.35588e-05)
(3.99718e-05 -1.91198e-05 -1.24478e-05)
(2.8063e-05 -1.67452e-05 -7.88942e-06)
(-2.63097e-05 -2.0617e-05 -1.4821e-05)
(-1.84338e-05 -8.61641e-06 -2.90641e-05)
(-4.81237e-05 -3.18204e-05 -4.57955e-05)
(-0.00010765 -6.10368e-05 -3.96323e-05)
(-0.000284427 -0.000115822 -5.42286e-05)
(-0.000433451 -0.000163715 -5.07271e-05)
(-0.000585896 -0.000191966 -2.20005e-05)
(-0.000718685 -0.000203008 1.01019e-05)
(-0.000826486 -0.000205568 3.94279e-05)
(-0.000913734 -0.000205535 6.39614e-05)
(-0.000981881 -0.00020639 8.25242e-05)
(-0.00103337 -0.000209171 9.4504e-05)
(-0.00107173 -0.000213861 0.000100371)
(-0.00109921 -0.000220278 0.000100491)
(-0.00111911 -0.000227183 9.37421e-05)
(-0.00113993 -0.000233874 8.26657e-05)
(-0.00115578 -0.00024076 6.74287e-05)
(-0.00116827 -0.000246165 4.62414e-05)
(-0.00116622 -0.000249833 1.71347e-05)
(5.9399e-05 1.54923e-05 3.51235e-05)
(7.49321e-05 8.67602e-06 -1.08794e-05)
(7.95233e-05 1.35794e-06 -1.74037e-05)
(7.63059e-05 -1.00362e-05 -1.93334e-05)
(6.52508e-05 -1.91748e-05 -1.75112e-05)
(4.23559e-05 -2.44118e-05 -1.78012e-05)
(2.24702e-05 -1.94355e-05 -2.38316e-05)
(-1.39477e-05 -1.72084e-05 -3.79575e-05)
(-3.97406e-05 -2.78659e-05 -3.42234e-05)
(-0.000138975 -7.70604e-05 -4.1424e-05)
(-0.000300651 -0.000117059 -5.15576e-05)
(-0.000453394 -0.000149025 -4.23705e-05)
(-0.00058413 -0.000165644 -1.31569e-05)
(-0.000694428 -0.000172395 1.66031e-05)
(-0.000781774 -0.000173856 4.32365e-05)
(-0.000846819 -0.000174694 6.44031e-05)
(-0.000894686 -0.000177115 7.87719e-05)
(-0.000928329 -0.000181061 8.67193e-05)
(-0.000949784 -0.000186685 8.85447e-05)
(-0.000963694 -0.000192531 8.30869e-05)
(-0.000978809 -0.000198077 7.35505e-05)
(-0.000989731 -0.000204403 6.04104e-05)
(-0.000998575 -0.000209212 4.18311e-05)
(-0.00099225 -0.000212126 1.56798e-05)
(6.83118e-05 1.4627e-05 3.77499e-05)
(8.90162e-05 8.5427e-06 -1.12556e-05)
(9.7496e-05 1.47847e-06 -1.96081e-05)
(9.86872e-05 -9.88905e-06 -2.38119e-05)
(9.29329e-05 -2.05781e-05 -2.4616e-05)
(7.94761e-05 -2.92849e-05 -2.36527e-05)
(6.11122e-05 -2.90275e-05 -1.98463e-05)
(2.8765e-05 -2.32917e-05 -1.96364e-05)
(-3.94955e-05 -1.27451e-05 -4.56079e-05)
(-6.98579e-05 -5.08495e-05 -4.29073e-05)
(-0.000164473 -7.33885e-05 -3.91209e-05)
(-0.000313953 -0.000104175 -5.16255e-05)
(-0.000450042 -0.000129434 -3.08927e-05)
(-0.000555685 -0.000139719 -3.45395e-06)
(-0.000641407 -0.000144062 2.38866e-05)
(-0.000705047 -0.000146451 4.70044e-05)
(-0.00074851 -0.000149286 6.32093e-05)
(-0.000776541 -0.000152792 7.28688e-05)
(-0.000791384 -0.000157821 7.61525e-05)
(-0.000798039 -0.000162315 7.17431e-05)
(-0.000807869 -0.000166686 6.37982e-05)
(-0.000811923 -0.00017226 5.27207e-05)
(-0.000813869 -0.000175626 3.67945e-05)
(-0.000803601 -0.000177168 1.39868e-05)
(7.32153e-05 1.31207e-05 3.7965e-05)
(9.72757e-05 7.38592e-06 -1.07283e-05)
(0.00010887 9.05436e-07 -2.04099e-05)
(0.00011323 -1.03532e-05 -2.58253e-05)
(0.000110998 -2.22541e-05 -2.74549e-05)
(0.000102522 -3.21728e-05 -2.57238e-05)
(8.8002e-05 -3.87329e-05 -2.15144e-05)
(6.30622e-05 -3.23087e-05 -1.13725e-05)
(1.53786e-07 -2.74419e-05 -2.35183e-05)
(-3.82347e-05 -1.16495e-05 -3.67423e-05)
(-6.58325e-05 -2.92144e-05 -3.09966e-05)
(-0.000197156 -6.1052e-05 -5.1913e-05)
(-0.0003073 -8.69035e-05 -4.26145e-05)
(-0.000418216 -0.000107962 -1.90038e-05)
(-0.000500585 -0.000115791 6.82242e-06)
(-0.000556219 -0.00011931 3.04782e-05)
(-0.000593861 -0.000123236 4.76374e-05)
(-0.000616238 -0.000126621 5.85078e-05)
(-0.000624601 -0.000131304 6.29488e-05)
(-0.000626331 -0.000134423 5.96064e-05)
(-0.000630274 -0.000137371 5.3207e-05)
(-0.000630323 -0.000142914 4.45264e-05)
(-0.000631444 -0.000145699 3.16217e-05)
(-0.000619817 -0.00014611 1.22354e-05)
(7.19849e-05 1.06228e-05 3.66262e-05)
(9.81194e-05 5.78138e-06 -9.08531e-06)
(0.000110806 5.12245e-07 -1.95263e-05)
(0.000117937 -9.91349e-06 -2.60327e-05)
(0.000118917 -2.22369e-05 -2.86691e-05)
(0.000113916 -3.36888e-05 -2.74411e-05)
(0.000102703 -4.22668e-05 -2.24076e-05)
(8.37994e-05 -4.42409e-05 -1.27353e-05)
(4.41563e-05 -3.73343e-05 1.70334e-06)
(-2.50265e-05 8.50616e-06 -2.12224e-05)
(-1.90505e-05 -5.11291e-06 -2.32796e-05)
(-7.38508e-05 -2.52831e-05 -3.04418e-05)
(-0.000219805 -4.00044e-05 -4.22761e-05)
(-0.00028237 -6.95599e-05 -3.29745e-05)
(-0.000357724 -8.68009e-05 -7.11987e-06)
(-0.000412939 -9.35802e-05 1.60253e-05)
(-0.000444514 -9.92318e-05 3.29896e-05)
(-0.000460423 -0.000102492 4.4306e-05)
(-0.000461934 -0.000106652 4.94387e-05)
(-0.000456212 -0.000107766 4.66859e-05)
(-0.000456295 -0.000108589 4.20631e-05)
(-0.000451288 -0.000114458 3.5563e-05)
(-0.000443402 -0.000115255 2.53208e-05)
(-0.00042294 -0.000112349 9.96855e-06)
(6.53607e-05 7.45876e-06 3.34114e-05)
(9.23621e-05 3.60154e-06 -6.66895e-06)
(0.00010568 -6.58549e-07 -1.67466e-05)
(0.000113935 -9.33629e-06 -2.37184e-05)
(0.000118169 -2.07897e-05 -2.76239e-05)
(0.000117061 -3.26556e-05 -2.79853e-05)
(0.000110351 -4.2496e-05 -2.48329e-05)
(9.63295e-05 -4.77642e-05 -1.85047e-05)
(6.95866e-05 -4.39526e-05 -9.60993e-06)
(1.70576e-05 -3.08907e-05 -1.67072e-05)
(-6.79361e-06 -1.38361e-05 -3.82849e-05)
(-3.23486e-05 -9.96073e-06 -3.3376e-05)
(-9.52428e-05 -4.81832e-05 -3.37832e-05)
(-0.000193429 -3.70201e-05 -2.27171e-05)
(-0.000239503 -5.46202e-05 -1.78311e-05)
(-0.000269627 -6.31811e-05 2.91633e-06)
(-0.000292987 -7.375e-05 1.87833e-05)
(-0.000303095 -7.68826e-05 2.97732e-05)
(-0.000300416 -8.071e-05 3.50739e-05)
(-0.000292936 -7.87597e-05 3.34858e-05)
(-0.000292598 -7.46803e-05 3.01761e-05)
(-0.000280897 -8.47079e-05 2.61256e-05)
(-0.000278051 -8.3098e-05 2.01283e-05)
(-0.000274121 -7.04356e-05 8.43794e-06)
(5.61204e-05 4.45123e-06 2.92829e-05)
(8.25325e-05 1.02693e-06 -4.49571e-06)
(9.58262e-05 -2.63183e-06 -1.3184e-05)
(0.000104723 -9.88158e-06 -1.95303e-05)
(0.000110631 -1.94405e-05 -2.38753e-05)
(0.000113464 -3.0492e-05 -2.56978e-05)
(0.000111805 -4.08258e-05 -2.45896e-05)
(0.000104396 -4.81021e-05 -2.09223e-05)
(8.81349e-05 -4.96429e-05 -1.59176e-05)
(5.69523e-05 -4.31099e-05 -1.6002e-05)
(3.15354e-05 -2.64283e-05 -2.54815e-05)
(-3.37006e-05 -1.87371e-05 -4.50124e-05)
(-5.07995e-05 -3.0499e-05 -4.94803e-05)
(-8.94849e-05 -5.61261e-05 -2.37484e-05)
(-0.000123284 -3.54783e-05 -1.01901e-05)
(-0.000177287 -3.19845e-05 -3.52472e-06)
(-0.000176137 -4.5628e-05 7.77155e-06)
(-0.000180655 -4.73221e-05 1.71941e-05)
(-0.000169159 -5.28493e-05 2.22433e-05)
(-0.00016302 -4.41731e-05 2.00797e-05)
(-0.000169836 -4.46405e-05 1.77558e-05)
(-0.000144703 -5.20622e-05 1.79674e-05)
(-0.000139216 -4.83266e-05 1.27713e-05)
(-0.000129605 -4.54036e-05 4.96901e-06)
(4.66947e-05 2.42551e-06 2.54321e-05)
(7.12418e-05 -1.14752e-06 -3.24023e-06)
(8.37024e-05 -4.81071e-06 -1.02229e-05)
(9.25168e-05 -1.11038e-05 -1.52728e-05)
(9.91971e-05 -1.9166e-05 -1.90701e-05)
(0.00010439 -2.84583e-05 -2.1372e-05)
(0.0001071 -3.80483e-05 -2.17321e-05)
(0.000105565 -4.59451e-05 -2.0235e-05)
(9.7504e-05 -5.0453e-05 -1.72393e-05)
(7.90127e-05 -5.05873e-05 -1.53841e-05)
(5.5076e-05 -3.9433e-05 -1.34468e-05)
(2.11557e-05 -3.08102e-05 -1.14106e-05)
(-4.82679e-05 1.52778e-05 -4.69375e-05)
(-4.43073e-05 -2.95551e-05 -4.75598e-05)
(-5.4817e-05 -2.74058e-05 -2.05958e-05)
(-7.33172e-05 -4.37872e-05 -8.98636e-06)
(-5.9148e-05 -2.06117e-05 2.59074e-06)
(-6.30634e-05 -2.27064e-05 4.05856e-06)
(-4.86382e-05 -1.95172e-05 6.32947e-06)
(-5.41243e-05 -2.55961e-05 3.93886e-06)
(-7.34419e-05 -5.62699e-05 1.05652e-05)
(-6.70607e-05 -3.44127e-05 1.32207e-05)
(-2.48134e-05 -1.62091e-05 1.77257e-06)
(-3.95071e-05 -3.61775e-05 2.75174e-06)
(3.75803e-05 1.23657e-06 2.16965e-05)
(5.96886e-05 -2.75469e-06 -2.80496e-06)
(7.092e-05 -6.8264e-06 -8.22867e-06)
(7.92522e-05 -1.27519e-05 -1.18655e-05)
(8.61842e-05 -1.98494e-05 -1.45859e-05)
(9.25174e-05 -2.76094e-05 -1.65181e-05)
(9.8104e-05 -3.56967e-05 -1.74663e-05)
(0.000100937 -4.29513e-05 -1.73474e-05)
(9.92589e-05 -4.85433e-05 -1.64014e-05)
(8.97359e-05 -5.12548e-05 -1.50402e-05)
(7.13634e-05 -4.80695e-05 -1.39199e-05)
(3.94353e-05 -3.40278e-05 -9.10477e-06)
(-1.34892e-05 -2.06796e-05 -1.56096e-05)
(-3.03341e-05 3.01775e-05 -4.75267e-05)
(-2.69779e-05 -1.33935e-05 -4.19504e-05)
(-3.32841e-05 -3.5073e-05 -2.17891e-05)
(-1.70145e-05 -1.72916e-05 -3.37978e-06)
(-1.64716e-05 -1.77299e-05 -1.39886e-06)
(-2.53701e-05 -3.11611e-05 9.01431e-07)
(-1.45767e-05 -2.60804e-05 1.21978e-07)
(-2.04147e-05 -3.93517e-05 1.03652e-05)
(-4.86721e-06 -1.56243e-05 4.71707e-06)
(-8.56023e-06 -2.06672e-05 5.16498e-06)
(-1.21453e-05 -1.87625e-05 4.10384e-06)
(3.02612e-05 3.50949e-07 1.83394e-05)
(4.9652e-05 -4.23287e-06 -2.86113e-06)
(5.94764e-05 -8.89835e-06 -6.99125e-06)
(6.7096e-05 -1.48166e-05 -9.37186e-06)
(7.39324e-05 -2.13925e-05 -1.09688e-05)
(8.07282e-05 -2.81135e-05 -1.21789e-05)
(8.74443e-05 -3.46417e-05 -1.30794e-05)
(9.28801e-05 -4.07359e-05 -1.36277e-05)
(9.5355e-05 -4.5934e-05 -1.38895e-05)
(9.26844e-05 -5.00468e-05 -1.39509e-05)
(8.17982e-05 -5.08423e-05 -1.37768e-05)
(5.92868e-05 -4.56082e-05 -1.35759e-05)
(1.73518e-05 -3.39336e-05 -1.67075e-05)
(-1.32504e-05 -1.82855e-05 -3.00211e-05)
(-4.46639e-06 -6.31337e-06 -3.42976e-05)
(-1.37639e-05 1.27641e-05 -3.00067e-05)