/*--------------------------------*- C++ -*----------------------------------*\
  =========                 |
  \\      /  F ield         | OpenFOAM: The Open Source CFD Toolbox
   \\    /   O peration     | Website:  https://openfoam.org
    \\  /    A nd           | Version:  6
     \\/     M anipulation  |
\*---------------------------------------------------------------------------*/
FoamFile
{
    version     2.0;
    format      ascii;
    class       volScalarField;
    location    "30";
    object      p;
}
// * * * * * * * * * * * * * * * * * * * * * * * * * * * * * * * * * * * * * //

dimensions      [0 2 -2 0 0 0 0];

internalField   nonuniform List<scalar> 
380496
(
0.014225
0.0146989
0.0142991
0.0141984
0.0140871
0.0139727
0.0138643
0.0137557
0.0136475
0.0135403
0.0134342
0.0133294
0.013226
0.0131241
0.0130236
0.0129241
0.0128256
0.0127276
0.0126297
0.0125315
0.0124325
0.012332
0.0122295
0.0121242
0.0120157
0.011903
0.0117856
0.0116626
0.0115339
0.0113981
0.0112567
0.0111056
0.0109548
0.0107855
0.0106458
0.0142006
0.0146673
0.0142796
0.0141831
0.014075
0.0139623
0.0138541
0.0137445
0.0136345
0.0135247
0.0134154
0.0133069
0.0131993
0.0130925
0.0129866
0.0128813
0.0127764
0.0126715
0.0125662
0.0124602
0.0123529
0.0122438
0.0121324
0.0120179
0.0119001
0.0117779
0.0116513
0.0115189
0.0113812
0.011236
0.0110861
0.0109236
0.0107638
0.0105701
0.01042
0.0141729
0.0146347
0.0142582
0.0141666
0.0140615
0.01395
0.0138413
0.01373
0.0136174
0.0135043
0.0133909
0.0132778
0.0131649
0.0130524
0.0129401
0.0128279
0.0127155
0.0126025
0.0124886
0.0123734
0.0122563
0.0121369
0.0120147
0.011889
0.0117595
0.0116255
0.0114867
0.0113421
0.0111925
0.0110353
0.0108747
0.0107014
0.0105349
0.010333
0.0101862
0.0141372
0.0145992
0.0142365
0.0141514
0.0140504
0.0139408
0.0138321
0.0137197
0.013605
0.013489
0.0133723
0.0132552
0.013138
0.0130206
0.012903
0.012785
0.0126663
0.0125467
0.0124257
0.012303
0.0121782
0.0120506
0.0119201
0.0117859
0.0116479
0.0115052
0.011358
0.011205
0.0110473
0.0108821
0.010714
0.0105325
0.0103593
0.0101467
0.00999415
0.0141048
0.0145614
0.0142151
0.0141371
0.0140401
0.0139323
0.0138232
0.0137092
0.0135919
0.0134727
0.0133522
0.0132309
0.0131089
0.0129863
0.0128631
0.0127391
0.012614
0.0124874
0.0123592
0.0122288
0.0120959
0.01196
0.0118209
0.0116779
0.0115309
0.0113793
0.0112231
0.0110614
0.0108952
0.0107218
0.0105463
0.0103577
0.0101794
0.00996124
0.0098082
0.0140591
0.014521
0.0141935
0.0141241
0.0140322
0.0139262
0.013817
0.0137014
0.0135818
0.0134597
0.0133357
0.0132105
0.0130842
0.012957
0.0128288
0.0126994
0.0125686
0.0124361
0.0123015
0.0121645
0.0120247
0.0118818
0.0117355
0.0115852
0.011431
0.0112722
0.0111091
0.0109406
0.010768
0.0105885
0.0104074
0.0102133
0.0100306
0.00980706
0.00965151
0.0140108
0.0144785
0.0141726
0.014113
0.0140263
0.0139221
0.0138123
0.013695
0.0135727
0.0134474
0.0133198
0.0131906
0.0130601
0.0129283
0.0127952
0.0126605
0.0125242
0.0123858
0.012245
0.0121017
0.0119553
0.0118057
0.0116525
0.0114954
0.0113343
0.0111688
0.010999
0.0108242
0.0106455
0.0104604
0.0102744
0.0100757
0.00988965
0.00966252
0.0095066
0.0139524
0.0144352
0.0141537
0.0141049
0.0140238
0.0139209
0.0138103
0.0136909
0.013566
0.0134375
0.0133065
0.0131736
0.0130391
0.0129031
0.0127655
0.0126262
0.0124849
0.0123413
0.0121951
0.0120462
0.0118941
0.0117387
0.0115796
0.0114167
0.0112498
0.0110787
0.0109035
0.0107236
0.0105403
0.0103508
0.010161
0.00995868
0.00977024
0.00954005
0.00938383
0.0138826
0.0143921
0.0141364
0.0140998
0.0140244
0.0139224
0.0138107
0.0136892
0.0135614
0.0134299
0.0132956
0.0131593
0.0130212
0.0128814
0.0127398
0.0125963
0.0124506
0.0123025
0.0121516
0.0119979
0.0118409
0.0116804
0.0115164
0.0113485
0.0111768
0.0110009
0.0108213
0.0106372
0.01045
0.0102569
0.0100642
0.00985909
0.00966902
0.00943653
0.00928076
0.0138127
0.014357
0.0141248
0.0140995
0.0140284
0.0139264
0.013813
0.0136892
0.0135588
0.0134244
0.0132873
0.013148
0.0130068
0.0128639
0.012719
0.012572
0.0124227
0.0122709
0.0121162
0.0119585
0.0117975
0.0116331
0.011465
0.0112933
0.0111177
0.0109383
0.0107552
0.0105679
0.0103778
0.0101822
0.00998734
0.00978027
0.00958923
0.00935487
0.0091999
0.0137208
0.0143218
0.014114
0.0141018
0.0140353
0.0139326
0.0138174
0.013691
0.0135578
0.0134207
0.0132807
0.0131387
0.0129947
0.0128488
0.0127009
0.0125509
0.0123984
0.0122433
0.0120852
0.0119241
0.0117597
0.0115918
0.0114203
0.0112452
0.0110664
0.0108839
0.0106979
0.010508
0.0103156
0.0101179
0.00992142
0.00971279
0.00952126
0.00928535
0.00913182
0.0136274
0.0142981
0.0141097
0.0141092
0.0140454
0.0139408
0.013823
0.0136938
0.0135579
0.0134182
0.0132757
0.0131311
0.0129846
0.0128362
0.0126857
0.012533
0.0123778
0.0122199
0.012059
0.011895
0.0117276
0.0115568
0.0113825
0.0112046
0.0110232
0.0108382
0.0106499
0.0104579
0.0102636
0.0100644
0.00986677
0.00965699
0.00946534
0.00922804
0.00907635
0.0135033
0.0142786
0.0141068
0.0141202
0.0140586
0.0139513
0.0138306
0.0136983
0.0135595
0.0134171
0.0132722
0.0131252
0.0129764
0.0128258
0.012673
0.012518
0.0123604
0.0122001
0.0120368
0.0118703
0.0117005
0.0115273
0.0113505
0.0111704
0.0109867
0.0107996
0.0106095
0.0104158
0.0102202
0.0100197
0.00982133
0.00961077
0.00941935
0.00918104
0.00903177
0.0133734
0.0142753
0.0141104
0.0141358
0.0140738
0.0139625
0.0138384
0.013703
0.0135614
0.0134166
0.0132695
0.0131206
0.0129698
0.0128172
0.0126625
0.0125056
0.012346
0.0121837
0.0120183
0.0118498
0.0116779
0.0115027
0.0113241
0.011142
0.0109566
0.0107679
0.0105762
0.0103813
0.0101846
0.00998329
0.00978439
0.00957334
0.00938216
0.009143
0.00899597
0.0132111
0.0142842
0.0141176
0.0141563
0.0140926
0.0139762
0.0138481
0.0137091
0.0135647
0.0134175
0.0132683
0.0131175
0.012965
0.0128107
0.0126544
0.0124957
0.0123345
0.0121705
0.0120035
0.0118333
0.0116598
0.011483
0.0113027
0.0111192
0.0109323
0.0107423
0.0105496
0.0103536
0.0101562
0.00995434
0.00975516
0.00954407
0.00935336
0.00911445
0.00896986
0.0130303
0.0143131
0.0141292
0.0141789
0.0141107
0.0139885
0.0138566
0.0137144
0.0135675
0.0134183
0.0132674
0.013115
0.0129611
0.0128055
0.0126478
0.0124879
0.0123254
0.01216
0.0119917
0.0118202
0.0116454
0.0114673
0.0112858
0.011101
0.0109131
0.0107222
0.0105285
0.0103319
0.0101339
0.00993175
0.00973235
0.0095214
0.00933044
0.00909186
0.0089468
0.0128269
0.014362
0.0141474
0.0142087
0.0141332
0.0140038
0.0138671
0.0137214
0.0135719
0.0134207
0.0132682
0.0131144
0.0129593
0.0128025
0.0126438
0.0124828
0.0123192
0.0121528
0.0119834
0.0118109
0.0116351
0.011456
0.0112736
0.0110879
0.0108993
0.0107075
0.0105133
0.0103162
0.0101179
0.00991567
0.0097163
0.00950613
0.00931548
0.00908003
0.00893511
0.0125872
0.0144337
0.0141648
0.0142346
0.0141507
0.0140152
0.013875
0.0137266
0.0135751
0.0134225
0.0132688
0.0131141
0.0129581
0.0128005
0.012641
0.0124792
0.0123148
0.0121477
0.0119776
0.0118042
0.0116278
0.0114479
0.0112649
0.0110786
0.0108894
0.0106971
0.0105025
0.0103051
0.0101066
0.00990438
0.0097049
0.00949546
0.00930311
0.0090696
0.00891435
0.0123431
0.0145217
0.014193
0.0142712
0.0141753
0.0140321
0.0138871
0.0137354
0.0135817
0.0134274
0.0132725
0.0131167
0.0129599
0.0128015
0.0126413
0.0124788
0.0123139
0.0121461
0.0119755
0.0118016
0.0116247
0.0114443
0.0112609
0.0110741
0.0108846
0.0106919
0.0104972
0.0102995
0.0101011
0.00989901
0.00969992
0.00949185
0.00930076
0.00907444
0.00892097
0.0120771
0.0146249
0.0142163
0.0143
0.0141931
0.0140443
0.0138961
0.0137422
0.013587
0.0134315
0.0132758
0.0131193
0.0129619
0.012803
0.0126423
0.0124794
0.0123141
0.012146
0.011975
0.0118008
0.0116235
0.0114428
0.0112592
0.0110721
0.0108825
0.0106896
0.0104948
0.010297
0.0100986
0.00989668
0.00969757
0.00949052
0.00929633
0.00907338
0.00888791
0.0118263
0.0147328
0.0142624
0.014344
0.0142222
0.0140649
0.0139113
0.0137537
0.013596
0.0134388
0.0132818
0.0131244
0.0129662
0.0128067
0.0126457
0.0124824
0.0123169
0.0121485
0.0119773
0.0118029
0.0116256
0.0114448
0.0112611
0.011074
0.0108843
0.0106914
0.0104967
0.0102989
0.0101008
0.00989893
0.00970049
0.00949429
0.00930527
0.00908956
0.00895121
0.0142282
0.0146918
0.0142991
0.0141988
0.0140872
0.0139727
0.0138643
0.0137557
0.0136475
0.0135402
0.0134341
0.0133294
0.013226
0.0131241
0.0130236
0.0129241
0.0128256
0.0127276
0.0126297
0.0125315
0.0124325
0.012332
0.0122295
0.0121243
0.0120157
0.011903
0.0117856
0.0116627
0.011534
0.0113981
0.0112567
0.0111057
0.0109549
0.0107856
0.0106459
0.0142035
0.0146603
0.0142796
0.0141835
0.0140751
0.0139624
0.0138541
0.0137445
0.0136345
0.0135247
0.0134154
0.0133069
0.0131993
0.0130925
0.0129866
0.0128813
0.0127764
0.0126715
0.0125663
0.0124602
0.012353
0.0122438
0.0121324
0.012018
0.0119001
0.011778
0.0116513
0.011519
0.0113813
0.0112361
0.0110862
0.0109237
0.0107639
0.0105702
0.0104201
0.0141757
0.0146278
0.0142582
0.0141669
0.0140616
0.01395
0.0138413
0.01373
0.0136174
0.0135043
0.0133909
0.0132778
0.0131649
0.0130524
0.0129401
0.0128279
0.0127155
0.0126025
0.0124886
0.0123734
0.0122563
0.0121369
0.0120147
0.011889
0.0117596
0.0116255
0.0114867
0.0113422
0.0111926
0.0110354
0.0108747
0.0107015
0.010535
0.0103331
0.0101863
0.0141401
0.0145925
0.0142366
0.0141518
0.0140505
0.0139409
0.0138322
0.0137197
0.013605
0.013489
0.0133723
0.0132552
0.013138
0.0130206
0.012903
0.012785
0.0126663
0.0125467
0.0124258
0.0123031
0.0121782
0.0120507
0.0119202
0.011786
0.0116479
0.0115053
0.011358
0.0112051
0.0110474
0.0108822
0.0107141
0.0105326
0.0103594
0.0101468
0.00999425
0.0141073
0.0145548
0.0142151
0.0141374
0.0140402
0.0139323
0.0138232
0.0137092
0.0135919
0.0134727
0.0133522
0.0132309
0.0131089
0.0129863
0.0128631
0.0127391
0.012614
0.0124874
0.0123592
0.0122288
0.0120959
0.01196
0.0118209
0.0116779
0.011531
0.0113793
0.0112232
0.0110614
0.0108953
0.0107219
0.0105464
0.0103578
0.0101795
0.00996136
0.00980829
0.0140616
0.0145146
0.0141936
0.0141244
0.0140323
0.0139263
0.013817
0.0137014
0.0135818
0.0134597
0.0133357
0.0132105
0.0130842
0.012957
0.0128288
0.0126995
0.0125687
0.0124361
0.0123015
0.0121645
0.0120248
0.0118818
0.0117355
0.0115853
0.0114311
0.0112723
0.0111092
0.0109407
0.0107681
0.0105886
0.0104075
0.0102135
0.0100307
0.0098072
0.00965161
0.0140131
0.0144723
0.0141727
0.0141133
0.0140264
0.0139221
0.0138123
0.013695
0.0135727
0.0134474
0.0133198
0.0131906
0.0130601
0.0129283
0.0127952
0.0126605
0.0125242
0.0123858
0.0122451
0.0121017
0.0119554
0.0118057
0.0116526
0.0114955
0.0113344
0.0111688
0.0109991
0.0108242
0.0106456
0.0104605
0.0102745
0.0100758
0.00988977
0.00966266
0.00950669
0.0139545
0.0144292
0.0141537
0.0141052
0.0140238
0.0139209
0.0138103
0.0136909
0.013566
0.0134375
0.0133065
0.0131736
0.0130391
0.0129031
0.0127656
0.0126262
0.0124849
0.0123413
0.0121952
0.0120462
0.0118942
0.0117387
0.0115797
0.0114167
0.0112499
0.0110788
0.0109036
0.0107237
0.0105404
0.0103509
0.0101611
0.0099588
0.00977036
0.0095402
0.00938393
0.0138847
0.0143862
0.0141364
0.0141001
0.0140245
0.0139225
0.0138107
0.0136892
0.0135614
0.0134299
0.0132956
0.0131593
0.0130212
0.0128814
0.0127398
0.0125963
0.0124506
0.0123025
0.0121517
0.0119979
0.0118409
0.0116805
0.0115164
0.0113486
0.0111769
0.011001
0.0108214
0.0106373
0.0104501
0.010257
0.0100643
0.00985921
0.00966915
0.00943668
0.00928085
0.0138145
0.0143513
0.0141249
0.0140997
0.0140285
0.0139264
0.013813
0.0136892
0.0135588
0.0134244
0.0132873
0.013148
0.0130068
0.0128639
0.012719
0.012572
0.0124227
0.0122709
0.0121162
0.0119585
0.0117975
0.0116331
0.0114651
0.0112933
0.0111178
0.0109383
0.0107553
0.010568
0.0103779
0.0101823
0.00998745
0.0097804
0.00958936
0.00935502
0.00919999
0.0137227
0.0143164
0.0141141
0.014102
0.0140353
0.0139326
0.0138174
0.013691
0.0135578
0.0134207
0.0132807
0.0131387
0.0129947
0.0128488
0.0127009
0.0125509
0.0123984
0.0122433
0.0120853
0.0119241
0.0117597
0.0115918
0.0114204
0.0112453
0.0110665
0.010884
0.010698
0.0105081
0.0103157
0.010118
0.00992153
0.00971291
0.00952138
0.0092855
0.0091319
0.0136289
0.0142928
0.0141097
0.0141095
0.0140455
0.0139408
0.013823
0.0136938
0.0135579
0.0134181
0.0132756
0.0131311
0.0129845
0.0128362
0.0126857
0.012533
0.0123778
0.0122199
0.012059
0.011895
0.0117276
0.0115569
0.0113826
0.0112047
0.0110233
0.0108382
0.01065
0.0104579
0.0102637
0.0100645
0.00986689
0.00965712
0.00946547
0.00922819
0.00907643
0.0135048
0.0142736
0.0141069
0.0141204
0.0140586
0.0139513
0.0138306
0.0136983
0.0135595
0.0134171
0.0132721
0.0131252
0.0129764
0.0128258
0.012673
0.012518
0.0123604
0.0122001
0.0120368
0.0118703
0.0117005
0.0115273
0.0113506
0.0111704
0.0109868
0.0107997
0.0106096
0.0104159
0.0102203
0.0100198
0.00982145
0.0096109
0.00941948
0.0091812
0.00903184
0.0133746
0.0142706
0.0141104
0.0141359
0.0140739
0.0139625
0.0138384
0.013703
0.0135614
0.0134166
0.0132695
0.0131205
0.0129698
0.0128172
0.0126625
0.0125056
0.012346
0.0121837
0.0120183
0.0118498
0.011678
0.0115028
0.0113241
0.0111421
0.0109567
0.010768
0.0105763
0.0103814
0.0101847
0.00998341
0.00978451
0.00957347
0.00938229
0.00914317
0.00899604
0.0132123
0.0142798
0.0141176
0.0141564
0.0140926
0.0139761
0.013848
0.0137091
0.0135647
0.0134175
0.0132683
0.0131175
0.012965
0.0128107
0.0126544
0.0124958
0.0123345
0.0121706
0.0120035
0.0118334
0.0116598
0.011483
0.0113028
0.0111192
0.0109324
0.0107424
0.0105497
0.0103538
0.0101563
0.00995447
0.00975529
0.00954422
0.0093535
0.00911464
0.00896994
0.0130312
0.014309
0.0141291
0.014179
0.0141106
0.0139884
0.0138565
0.0137144
0.0135674
0.0134182
0.0132674
0.013115
0.0129611
0.0128055
0.0126479
0.0124879
0.0123254
0.0121601
0.0119917
0.0118202
0.0116454
0.0114673
0.0112859
0.0111011
0.0109132
0.0107223
0.0105286
0.010332
0.010134
0.0099319
0.0097325
0.00952157
0.00933061
0.00909206
0.00894688
0.0128275
0.0143583
0.0141472
0.0142087
0.0141331
0.0140037
0.013867
0.0137214
0.0135718
0.0134207
0.0132682
0.0131145
0.0129594
0.0128026
0.0126439
0.0124828
0.0123193
0.0121529
0.0119835
0.011811
0.0116352
0.0114561
0.0112737
0.0110881
0.0108994
0.0107077
0.0105135
0.0103164
0.010118
0.00991584
0.00971649
0.00950633
0.00931568
0.00908026
0.00893524
0.0125878
0.0144304
0.0141646
0.0142346
0.0141506
0.0140151
0.013875
0.0137266
0.0135752
0.0134226
0.0132689
0.0131142
0.0129582
0.0128006
0.0126411
0.0124793
0.012315
0.0121478
0.0119777
0.0118044
0.0116279
0.011448
0.0112651
0.0110787
0.0108895
0.0106973
0.0105027
0.0103052
0.0101068
0.00990457
0.0097051
0.00949566
0.00930332
0.00906983
0.00891448
0.0123421
0.0145191
0.0141928
0.0142712
0.0141754
0.0140321
0.0138872
0.0137355
0.0135819
0.0134276
0.0132726
0.0131169
0.01296
0.0128016
0.0126414
0.0124789
0.0123141
0.0121463
0.0119756
0.0118017
0.0116248
0.0114444
0.011261
0.0110742
0.0108847
0.0106921
0.0104974
0.0102997
0.0101012
0.00989918
0.0097001
0.00949203
0.00930096
0.00907466
0.00892118
0.0120744
0.0146239
0.0142164
0.0143003
0.0141934
0.0140445
0.0138963
0.0137424
0.0135871
0.0134317
0.0132759
0.0131194
0.0129619
0.012803
0.0126424
0.0124794
0.0123142
0.012146
0.011975
0.0118008
0.0116236
0.0114429
0.0112592
0.0110722
0.0108825
0.0106896
0.0104949
0.0102971
0.0100987
0.00989673
0.00969763
0.00949056
0.0092964
0.0090734
0.00888798
0.0118406
0.0147361
0.0142619
0.0143429
0.0142209
0.0140637
0.0139103
0.0137528
0.0135953
0.0134382
0.0132812
0.0131238
0.0129657
0.0128063
0.0126452
0.012482
0.0123165
0.0121481
0.011977
0.0118026
0.0116252
0.0114444
0.0112607
0.0110736
0.010884
0.0106911
0.0104964
0.0102986
0.0101004
0.00989854
0.00970008
0.00949388
0.00930486
0.00908912
0.00895057
0.0142366
0.0146864
0.014299
0.0141989
0.0140873
0.0139728
0.0138643
0.0137557
0.0136475
0.0135402
0.0134341
0.0133294
0.013226
0.0131241
0.0130235
0.0129241
0.0128256
0.0127276
0.0126297
0.0125315
0.0124325
0.012332
0.0122295
0.0121243
0.0120157
0.011903
0.0117856
0.0116627
0.011534
0.0113981
0.0112567
0.0111057
0.0109549
0.0107856
0.010646
0.0142118
0.014655
0.0142795
0.0141836
0.0140752
0.0139624
0.0138541
0.0137445
0.0136345
0.0135247
0.0134154
0.0133069
0.0131993
0.0130925
0.0129866
0.0128813
0.0127764
0.0126715
0.0125663
0.0124602
0.012353
0.0122439
0.0121325
0.012018
0.0119002
0.011778
0.0116514
0.011519
0.0113814
0.0112362
0.0110862
0.0109238
0.010764
0.0105703
0.0104202
0.0141838
0.0146226
0.0142581
0.014167
0.0140616
0.0139501
0.0138413
0.01373
0.0136174
0.0135043
0.0133909
0.0132778
0.0131649
0.0130524
0.0129401
0.0128279
0.0127155
0.0126025
0.0124886
0.0123734
0.0122563
0.0121369
0.0120147
0.011889
0.0117596
0.0116255
0.0114868
0.0113422
0.0111926
0.0110354
0.0108747
0.0107015
0.0105351
0.0103331
0.0101864
0.0141481
0.0145873
0.0142365
0.0141518
0.0140505
0.0139409
0.0138322
0.0137197
0.013605
0.013489
0.0133723
0.0132552
0.013138
0.0130206
0.012903
0.012785
0.0126664
0.0125467
0.0124258
0.0123031
0.0121782
0.0120507
0.0119202
0.011786
0.011648
0.0115053
0.0113581
0.0112051
0.0110474
0.0108823
0.0107142
0.0105327
0.0103595
0.0101469
0.00999435
0.0141151
0.0145498
0.014215
0.0141375
0.0140403
0.0139323
0.0138232
0.0137092
0.0135919
0.0134727
0.0133522
0.0132309
0.0131089
0.0129863
0.0128631
0.0127391
0.012614
0.0124874
0.0123592
0.0122288
0.0120959
0.01196
0.0118209
0.0116779
0.011531
0.0113794
0.0112232
0.0110615
0.0108953
0.0107219
0.0105464
0.0103579
0.0101795
0.00996139
0.00980838
0.0140693
0.0145096
0.0141935
0.0141245
0.0140323
0.0139263
0.013817
0.0137014
0.0135818
0.0134597
0.0133357
0.0132105
0.0130842
0.012957
0.0128289
0.0126995
0.0125687
0.0124361
0.0123015
0.0121645
0.0120248
0.0118819
0.0117355
0.0115853
0.0114311
0.0112723
0.0111092
0.0109407
0.0107681
0.0105886
0.0104076
0.0102135
0.0100308
0.00980725
0.00965172
0.0140207
0.0144675
0.0141726
0.0141134
0.0140265
0.0139222
0.0138123
0.013695
0.0135727
0.0134474
0.0133198
0.0131906
0.0130601
0.0129283
0.0127952
0.0126605
0.0125242
0.0123858
0.0122451
0.0121017
0.0119554
0.0118057
0.0116526
0.0114955
0.0113344
0.0111689
0.0109991
0.0108243
0.0106457
0.0104606
0.0102745
0.0100758
0.00988983
0.00966271
0.0095068
0.0139619
0.0144245
0.0141537
0.0141053
0.0140239
0.0139209
0.0138103
0.0136909
0.013566
0.0134375
0.0133065
0.0131736
0.0130391
0.0129031
0.0127656
0.0126262
0.0124849
0.0123413
0.0121952
0.0120462
0.0118942
0.0117387
0.0115797
0.0114168
0.0112499
0.0110788
0.0109037
0.0107237
0.0105404
0.0103509
0.0101611
0.00995885
0.00977043
0.00954025
0.00938404
0.0138919
0.0143816
0.0141364
0.0141002
0.0140245
0.0139225
0.0138107
0.0136892
0.0135614
0.0134299
0.0132956
0.0131593
0.0130212
0.0128814
0.0127398
0.0125963
0.0124506
0.0123025
0.0121517
0.0119979
0.0118409
0.0116805
0.0115165
0.0113486
0.0111769
0.0110011
0.0108214
0.0106373
0.0104501
0.0102571
0.0100643
0.00985927
0.00966921
0.00943673
0.00928096
0.0138215
0.0143469
0.0141248
0.0140998
0.0140285
0.0139264
0.013813
0.0136891
0.0135588
0.0134244
0.0132873
0.013148
0.0130068
0.0128639
0.012719
0.012572
0.0124227
0.0122709
0.0121162
0.0119585
0.0117976
0.0116331
0.0114651
0.0112934
0.0111178
0.0109384
0.0107553
0.010568
0.0103779
0.0101823
0.00998751
0.00978045
0.00958943
0.00935508
0.0092001
0.0137295
0.0143121
0.014114
0.0141021
0.0140354
0.0139327
0.0138174
0.0136909
0.0135578
0.0134207
0.0132807
0.0131387
0.0129946
0.0128488
0.0127009
0.0125509
0.0123984
0.0122433
0.0120853
0.0119242
0.0117597
0.0115918
0.0114204
0.0112453
0.0110665
0.010884
0.010698
0.0105081
0.0103157
0.010118
0.00992158
0.00971296
0.00952145
0.00928555
0.00913201
0.0136355
0.0142887
0.0141096
0.0141095
0.0140455
0.0139408
0.013823
0.0136938
0.0135579
0.0134181
0.0132756
0.013131
0.0129845
0.0128362
0.0126857
0.012533
0.0123778
0.0122199
0.012059
0.011895
0.0117276
0.0115569
0.0113826
0.0112047
0.0110233
0.0108383
0.01065
0.010458
0.0102638
0.0100645
0.00986694
0.00965717
0.00946553
0.00922825
0.00907654
0.0135112
0.0142697
0.0141068
0.0141204
0.0140586
0.0139513
0.0138305
0.0136982
0.0135594
0.0134171
0.0132721
0.0131252
0.0129764
0.0128258
0.012673
0.012518
0.0123604
0.0122001
0.0120368
0.0118703
0.0117005
0.0115273
0.0113506
0.0111704
0.0109868
0.0107997
0.0106096
0.0104159
0.0102203
0.0100199
0.0098215
0.00961096
0.00941954
0.00918126
0.00903196
0.0133807
0.0142668
0.0141104
0.014136
0.0140739
0.0139625
0.0138384
0.0137029
0.0135614
0.0134166
0.0132695
0.0131205
0.0129698
0.0128172
0.0126625
0.0125055
0.012346
0.0121837
0.0120183
0.0118498
0.011678
0.0115028
0.0113241
0.0111421
0.0109567
0.010768
0.0105764
0.0103814
0.0101847
0.00998346
0.00978457
0.00957354
0.00938236
0.00914324
0.00899616
0.0132181
0.0142763
0.0141175
0.0141564
0.0140926
0.013976
0.013848
0.013709
0.0135646
0.0134174
0.0132682
0.0131174
0.0129649
0.0128107
0.0126543
0.0124957
0.0123345
0.0121706
0.0120035
0.0118334
0.0116599
0.011483
0.0113028
0.0111193
0.0109324
0.0107425
0.0105497
0.0103538
0.0101563
0.00995454
0.00975536
0.0095443
0.00935359
0.00911473
0.00897009
0.0130367
0.0143057
0.014129
0.0141789
0.0141106
0.0139883
0.0138564
0.0137143
0.0135673
0.0134182
0.0132673
0.0131149
0.0129611
0.0128055
0.0126478
0.0124879
0.0123254
0.0121601
0.0119918
0.0118203
0.0116455
0.0114674
0.0112859
0.0111012
0.0109133
0.0107223
0.0105287
0.0103321
0.0101341
0.00993199
0.00973259
0.00952166
0.00933071
0.00909217
0.00894704
0.0128327
0.0143554
0.0141471
0.0142086
0.014133
0.0140035
0.0138669
0.0137213
0.0135718
0.0134206
0.0132682
0.0131144
0.0129594
0.0128026
0.0126439
0.0124829
0.0123193
0.0121529
0.0119836
0.011811
0.0116353
0.0114561
0.0112738
0.0110881
0.0108995
0.0107078
0.0105136
0.0103165
0.0101182
0.00991596
0.00971661
0.00950645
0.00931582
0.00908041
0.00893544
0.0125926
0.0144277
0.0141644
0.0142345
0.0141505
0.014015
0.0138749
0.0137266
0.0135752
0.0134226
0.013269
0.0131143
0.0129583
0.0128007
0.0126412
0.0124794
0.0123151
0.0121479
0.0119778
0.0118045
0.011628
0.0114482
0.0112652
0.0110788
0.0108897
0.0106974
0.0105028
0.0103054
0.0101069
0.00990471
0.00970524
0.0094958
0.00930347
0.00906997
0.00891465
0.0123457
0.0145173
0.0141925
0.0142711
0.0141754
0.0140322
0.0138874
0.0137357
0.013582
0.0134277
0.0132728
0.013117
0.0129602
0.0128018
0.0126416
0.0124791
0.0123142
0.0121464
0.0119758
0.0118019
0.0116249
0.0114445
0.0112611
0.0110743
0.0108848
0.0106922
0.0104975
0.0102998
0.0101014
0.00989929
0.00970022
0.00949214
0.0093011
0.00907478
0.00892139
0.0120764
0.0146241
0.0142167
0.0143009
0.0141938
0.0140448
0.0138965
0.0137425
0.0135872
0.0134318
0.013276
0.0131195
0.012962
0.0128031
0.0126424
0.0124795
0.0123142
0.012146
0.011975
0.0118008
0.0116236
0.0114429
0.0112592
0.0110722
0.0108825
0.0106896
0.0104949
0.010297
0.0100987
0.00989672
0.00969762
0.00949055
0.00929641
0.00907333
0.00888785
0.0118489
0.0147382
0.0142619
0.0143424
0.0142203
0.0140632
0.0139098
0.0137524
0.0135949
0.0134378
0.0132809
0.0131235
0.0129655
0.012806
0.012645
0.0124818
0.0123163
0.0121479
0.0119768
0.0118024
0.011625
0.0114442
0.0112606
0.0110734
0.0108838
0.0106909
0.0104962
0.0102984
0.0101002
0.00989837
0.00969989
0.00949369
0.00930466
0.00908894
0.0089503
0.0142416
0.0146812
0.0142987
0.0141988
0.0140873
0.0139728
0.0138643
0.0137557
0.0136475
0.0135402
0.0134341
0.0133294
0.013226
0.0131241
0.0130235
0.0129241
0.0128256
0.0127276
0.0126297
0.0125315
0.0124325
0.012332
0.0122295
0.0121242
0.0120157
0.011903
0.0117856
0.0116627
0.011534
0.0113981
0.0112567
0.0111057
0.0109548
0.0107856
0.010646
0.0142167
0.0146499
0.0142792
0.0141835
0.0140752
0.0139624
0.0138541
0.0137445
0.0136345
0.0135247
0.0134154
0.0133069
0.0131993
0.0130925
0.0129866
0.0128813
0.0127764
0.0126715
0.0125663
0.0124602
0.012353
0.0122439
0.0121325
0.012018
0.0119002
0.011778
0.0116514
0.0115191
0.0113814
0.0112362
0.0110863
0.0109238
0.010764
0.0105703
0.0104203
0.0141887
0.0146176
0.0142578
0.0141669
0.0140617
0.0139501
0.0138413
0.01373
0.0136174
0.0135043
0.0133909
0.0132778
0.0131649
0.0130524
0.0129401
0.0128279
0.0127155
0.0126025
0.0124886
0.0123734
0.0122563
0.0121369
0.0120147
0.011889
0.0117596
0.0116255
0.0114867
0.0113422
0.0111925
0.0110354
0.0108747
0.0107015
0.010535
0.0103331
0.0101864
0.014153
0.0145823
0.0142362
0.0141517
0.0140506
0.0139409
0.0138322
0.0137197
0.013605
0.013489
0.0133723
0.0132552
0.013138
0.0130206
0.012903
0.012785
0.0126664
0.0125467
0.0124258
0.0123031
0.0121782
0.0120507
0.0119202
0.011786
0.011648
0.0115053
0.0113581
0.0112052
0.0110474
0.0108823
0.0107142
0.0105327
0.0103595
0.0101469
0.00999444
0.0141199
0.0145449
0.0142147
0.0141374
0.0140403
0.0139323
0.0138232
0.0137092
0.0135919
0.0134727
0.0133522
0.0132309
0.0131089
0.0129863
0.0128631
0.0127391
0.012614
0.0124874
0.0123592
0.0122288
0.0120959
0.01196
0.0118209
0.0116779
0.011531
0.0113794
0.0112232
0.0110615
0.0108953
0.0107219
0.0105464
0.0103579
0.0101795
0.00996141
0.00980846
0.014074
0.0145048
0.0141932
0.0141244
0.0140323
0.0139263
0.013817
0.0137014
0.0135818
0.0134597
0.0133357
0.0132104
0.0130842
0.012957
0.0128288
0.0126995
0.0125687
0.0124361
0.0123015
0.0121645
0.0120248
0.0118819
0.0117355
0.0115853
0.0114311
0.0112724
0.0111092
0.0109407
0.0107681
0.0105886
0.0104076
0.0102135
0.0100308
0.00980729
0.00965183
0.0140253
0.0144628
0.0141723
0.0141133
0.0140265
0.0139222
0.0138123
0.013695
0.0135727
0.0134474
0.0133198
0.0131906
0.0130601
0.0129283
0.0127952
0.0126605
0.0125242
0.0123858
0.0122451
0.0121017
0.0119554
0.0118057
0.0116526
0.0114955
0.0113344
0.0111689
0.0109991
0.0108243
0.0106457
0.0104606
0.0102745
0.0100759
0.00988984
0.00966274
0.0095069
0.0139664
0.0144199
0.0141534
0.0141052
0.0140239
0.0139209
0.0138103
0.0136909
0.013566
0.0134375
0.0133065
0.0131736
0.0130391
0.0129031
0.0127656
0.0126262
0.0124849
0.0123413
0.0121952
0.0120462
0.0118942
0.0117387
0.0115797
0.0114168
0.0112499
0.0110788
0.0109037
0.0107238
0.0105404
0.0103509
0.0101611
0.00995888
0.00977045
0.0095403
0.00938416
0.0138963
0.0143771
0.0141361
0.0141001
0.0140245
0.0139225
0.0138107
0.0136891
0.0135614
0.0134299
0.0132956
0.0131593
0.0130212
0.0128814
0.0127398
0.0125963
0.0124506
0.0123025
0.0121517
0.0119979
0.0118409
0.0116805
0.0115164
0.0113486
0.0111769
0.0110011
0.0108214
0.0106373
0.0104501
0.0102571
0.0100643
0.00985929
0.00966922
0.00943677
0.00928109
0.0138258
0.0143425
0.0141246
0.0140997
0.0140286
0.0139264
0.013813
0.0136891
0.0135587
0.0134244
0.0132872
0.013148
0.0130068
0.0128638
0.012719
0.012572
0.0124227
0.0122709
0.0121162
0.0119585
0.0117976
0.0116331
0.0114651
0.0112934
0.0111178
0.0109384
0.0107553
0.010568
0.010378
0.0101824
0.00998752
0.00978048
0.00958944
0.00935512
0.00920024
0.0137337
0.0143078
0.0141138
0.014102
0.0140354
0.0139327
0.0138173
0.0136909
0.0135578
0.0134206
0.0132807
0.0131386
0.0129946
0.0128488
0.0127009
0.0125509
0.0123984
0.0122433
0.0120852
0.0119241
0.0117597
0.0115918
0.0114204
0.0112453
0.0110665
0.010884
0.010698
0.0105081
0.0103157
0.010118
0.00992159
0.00971299
0.00952146
0.0092856
0.00913216
0.0136395
0.0142846
0.0141094
0.0141094
0.0140455
0.0139408
0.013823
0.0136938
0.0135578
0.0134181
0.0132756
0.013131
0.0129845
0.0128361
0.0126857
0.012533
0.0123778
0.0122199
0.012059
0.011895
0.0117276
0.0115569
0.0113826
0.0112047
0.0110233
0.0108383
0.01065
0.010458
0.0102638
0.0100645
0.00986695
0.0096572
0.00946554
0.0092283
0.0090767
0.0135151
0.0142657
0.0141067
0.0141203
0.0140586
0.0139512
0.0138305
0.0136982
0.0135594
0.013417
0.0132721
0.0131252
0.0129764
0.0128257
0.012673
0.012518
0.0123604
0.0122001
0.0120368
0.0118703
0.0117005
0.0115273
0.0113506
0.0111704
0.0109868
0.0107997
0.0106096
0.0104159
0.0102203
0.0100199
0.00982151
0.00961099
0.00941955
0.00918132
0.00903212
0.0133845
0.0142631
0.0141102
0.0141359
0.0140738
0.0139624
0.0138383
0.0137029
0.0135613
0.0134165
0.0132694
0.0131204
0.0129697
0.0128171
0.0126625
0.0125055
0.0123459
0.0121836
0.0120183
0.0118498
0.011678
0.0115028
0.0113241
0.0111421
0.0109567
0.010768
0.0105764
0.0103814
0.0101847
0.00998348
0.00978458
0.00957357
0.00938238
0.00914331
0.00899635
0.0132218
0.0142728
0.0141174
0.0141563
0.0140925
0.013976
0.0138479
0.0137089
0.0135645
0.0134173
0.0132682
0.0131174
0.0129649
0.0128106
0.0126543
0.0124957
0.0123345
0.0121705
0.0120035
0.0118333
0.0116598
0.011483
0.0113028
0.0111193
0.0109325
0.0107425
0.0105497
0.0103538
0.0101564
0.00995457
0.00975539
0.00954435
0.00935362
0.0091148
0.00897029
0.0130402
0.0143025
0.0141289
0.0141788
0.0141105
0.0139882
0.0138563
0.0137142
0.0135672
0.0134181
0.0132672
0.0131149
0.012961
0.0128054
0.0126478
0.0124879
0.0123254
0.0121601
0.0119918
0.0118203
0.0116455
0.0114674
0.0112859
0.0111012
0.0109133
0.0107224
0.0105287
0.0103321
0.0101341
0.00993204
0.00973263
0.00952173
0.00933075
0.00909226
0.00894726
0.0128359
0.0143524
0.0141469
0.0142084
0.0141329
0.0140034
0.0138668
0.0137212
0.0135717
0.0134206
0.0132681
0.0131144
0.0129594
0.0128026
0.0126439
0.0124829
0.0123193
0.012153
0.0119836
0.0118111
0.0116353
0.0114562
0.0112738
0.0110882
0.0108995
0.0107078
0.0105136
0.0103165
0.0101182
0.00991603
0.00971668
0.00950653
0.00931588
0.00908052
0.00893568
0.0125956
0.0144252
0.0141643
0.0142343
0.0141504
0.0140149
0.0138748
0.0137266
0.0135752
0.0134226
0.013269
0.0131143
0.0129583
0.0128007
0.0126412
0.0124794
0.0123151
0.012148
0.0119779
0.0118045
0.0116281
0.0114482
0.0112652
0.0110789
0.0108897
0.0106975
0.0105029
0.0103054
0.010107
0.00990478
0.00970532
0.00949588
0.00930354
0.00907008
0.00891485
0.0123481
0.0145158
0.0141926
0.0142711
0.0141754
0.0140323
0.0138874
0.0137358
0.0135821
0.0134278
0.0132729
0.0131171
0.0129602
0.0128018
0.0126416
0.0124791
0.0123142
0.0121464
0.0119758
0.0118019
0.011625
0.0114446
0.0112612
0.0110744
0.0108849
0.0106922
0.0104975
0.0102998
0.0101014
0.00989934
0.00970027
0.00949219
0.00930114
0.00907485
0.00892153
0.0120783
0.0146246
0.0142171
0.014301
0.014194
0.0140449
0.0138966
0.0137425
0.0135872
0.0134318
0.0132759
0.0131194
0.012962
0.012803
0.0126424
0.0124794
0.0123141
0.012146
0.011975
0.0118008
0.0116235
0.0114428
0.0112592
0.0110721
0.0108825
0.0106896
0.0104948
0.010297
0.0100986
0.00989666
0.00969756
0.00949048
0.00929634
0.00907324
0.00888735
0.0118475
0.0147394
0.0142625
0.0143424
0.0142203
0.0140631
0.0139097
0.0137523
0.0135948
0.0134378
0.0132809
0.0131235
0.0129654
0.012806
0.012645
0.0124818
0.0123163
0.0121479
0.0119768
0.0118024
0.011625
0.0114442
0.0112606
0.0110735
0.0108838
0.0106909
0.0104962