/*--------------------------------*- C++ -*----------------------------------*\
  =========                 |
  \\      /  F ield         | OpenFOAM: The Open Source CFD Toolbox
   \\    /   O peration     | Website:  https://openfoam.org
    \\  /    A nd           | Version:  6
     \\/     M anipulation  |
\*---------------------------------------------------------------------------*/
FoamFile
{
    version     2.0;
    format      ascii;
    class       volScalarField;
    location    "30";
    object      yPlus;
}
// * * * * * * * * * * * * * * * * * * * * * * * * * * * * * * * * * * * * * //

dimensions      [0 0 0 0 0 0 0];

internalField   uniform 0;

boundaryField
{
    inlet
    {
        type            calculated;
        value           uniform 0;
    }
    outlet
    {
        type            calculated;
        value           uniform 0;
    }
    roughCylinder
    {
        type            calculated;
        value           nonuniform List<scalar> 
3840
(
45.8423
54.2598
62.1856
69.2111
74.5435
78.5146
81.5447
83.9537
86.0178
87.8356
89.4861
91.0323
92.545
94.0936
95.7314
97.4899
99.3759
101.379
103.477
105.639
107.819
109.937
111.807
113.041
45.0415
53.1808
60.8888
67.8115
73.1085
77.0643
80.0928
82.5129
84.5825
86.3888
88.0163
89.5339
91.015
92.5289
94.1309
95.8507
97.6956
99.6548
101.706
103.819
105.947
108.015
109.838
111.041
44.1845
52.0782
59.5779
66.3938
71.6583
75.6083
78.6484
81.0882
83.1655
84.965
86.5744
88.067
89.5181
90.9999
92.5658
94.2474
96.0515
97.9674
99.9724
102.036
104.115
106.132
107.909
109.08
43.291
50.9379
58.2361
64.9488
70.1889
74.1453
77.2101
79.6807
81.7733
83.5753
85.1682
86.6375
88.0616
89.5119
91.045
92.6906
94.4553
96.3286
98.2881
100.304
102.332
104.299
106.03
107.17
42.3542
49.7744
56.8685
63.4772
68.7034
72.6808
75.783
78.2902
80.4023
82.2102
83.7944
85.2465
86.6463
88.0696
89.5702
91.1805
92.9075
94.7402
96.6555
98.625
100.604
102.523
104.209
105.318
41.4361
48.5788
55.459
61.9649
67.1882
71.2007
74.3507
76.9048
79.046
80.8694
82.453
83.8908
85.2709
86.6678
88.1408
89.7193
91.4101
93.2027
95.0749
96.9979
98.9297
100.799
102.442
103.52
40.4311
47.342
54.0041
60.4098
65.6451
69.7101
72.9219
75.5277
77.7026
79.5437
81.1375
82.5697
83.9342
85.3117
86.7567
88.3037
89.9603
91.7152
93.5463
95.425
97.3101
99.1321
100.732
101.78
39.5184
46.0849
52.4931
58.7855
64.0438
68.1807
71.4661
74.1382
76.3588
78.2333
79.8428
81.2776
82.634
83.9925
85.4167
86.9373
88.5613
90.2792
92.0691
93.9031
95.7414
97.5166
99.073
100.092
38.4044
44.7299
50.8918
57.0798
62.3796
66.6105
69.9928
72.7396
75.0163
76.9253
78.562
80.0107
81.3656
82.7161
84.1187
85.6121
87.2057
88.8885
90.6397
92.431
94.2248
95.9535
97.4689
98.4584
37.4844
43.3763
49.2105
55.2513
60.6001
64.9582
68.4565
71.3044
73.6507
75.6177
77.2895
78.7579
80.1223
81.4662
82.8568
84.3307
85.8955
87.5441
89.2547
91.0019
92.7484
94.4305
95.9027
96.8631
36.162
41.8205
47.3674
53.2719
58.6875
63.1987
66.859
69.8235
72.2657
74.2931
76.0146
77.5171
78.8954
80.2453
81.6238
83.0757
84.6141
86.2291
87.902
89.6078
91.3104
92.9458
94.3779
95.3086
35.087
40.2848
45.4011
51.0816
56.5545
61.282
65.1357
68.2722
70.8235
72.9451
74.7296
76.2729
77.6802
79.035
80.4123
81.8534
83.3671
84.9506
86.5832
88.2434
89.8978
91.4871
92.8745
93.776
33.7672
38.5559
43.1907
48.6161
54.1592
59.1152
63.2625
66.5985
69.3237
71.5507
73.417
75.0226
76.4624
77.8413
79.2173
80.6415
82.1338
83.6854
85.2813
86.9008
88.5128
90.0537
91.4017
92.2735
32.3401
36.7528
40.8106
45.791
51.3126
56.642
61.1257
64.7917
67.7035
70.0893
72.0651
73.742
75.2384
76.6371
78.0252
79.4502
80.9223
82.4451
84.0005
85.5727
87.1333
88.6257
89.927
90.7679
30.3664
34.4217
37.8766
42.4222
47.9825
53.5854
58.6607
62.698
65.9545
68.5347
70.6467
72.428
73.9818
75.4301
76.8321
78.2457
79.7021
81.1948
82.7133
84.245
85.7623
87.2044
88.4662
89.2768
28.1803
32.0439
34.8166
38.4536
43.6141
49.9323
55.5468
60.3161
63.9401
66.8249
69.1357
71.0397
72.6933
74.1816
75.6123
77.0436
78.485
79.9506
81.4269
82.9065
84.3693
85.7564
86.9677
87.744
24.6093
28.1977
30.158
33.0207
38.1853
44.5619
51.7718
57.2653
61.6582
64.9243
67.4889
69.5753
71.3234
72.9001
74.3676
75.7918
77.2241
78.6615
80.0991
81.5369
82.9529
84.2871
85.4565
86.2014
19.2511
24.543
26.2796
27.6327
30.9597
38.935
45.9068
53.4708
58.6979
62.683
65.6445
67.9531
69.8801
71.5276
73.0462
74.5148
75.939
77.3486
78.7393
80.117
81.4717
82.7365
83.8506
84.5566
15.3539
14.5052
14.4427
11.0233
11.155
21.1279
39.4901
47.8759
55.2232
59.9937
63.5043
66.1758
68.2679
70.0716
71.6657
73.1282
74.5503
75.9338
77.282
78.6136
79.9159
81.1237
82.1891
82.8609
7.30858
8.27889
13.2009
16.9988
19.0141
17.3683
17.5258
40.3382
49.559
56.5103
60.9426
64.0636
66.502
68.4336
70.1136
71.6698
73.0951
74.4467
75.7357
76.9926
78.2163
79.3247
80.3318
80.9563
15.6315
18.563
18.3051
16.0313
17.0834
14.0472
24.9397
23.6338
43.3583
51.8139
57.6605
61.6148
64.3851
66.6172
68.4508
69.9937
71.4233
72.7507
73.9906
75.1934
76.3618
77.4089
78.3471
78.9353
23.8389
27.1287
28.3866
27.8486
24.7564
23.078
20.2302
29.7183
27.4056
45.1235
53.3709
58.4164
61.9434
64.4243
66.4134
68.1533
69.6109
70.8949
72.0478
73.1435
74.1849
75.0561
75.9564
76.4736
26.0331
30.0165
32.6477
34.2234
34.2615
31.7917
26.0785
21.4867
27.2864
33.4656
47.1498
54.4069
58.7061
61.8475
64.1698
65.8744
67.3392
68.5994
69.6887
70.7281
71.7213
72.5482
73.2979
73.7926
26.9287
31.057
33.9605
36.1236
37.3768
37.5836
36.2834
29.9403
20.3415
10.1414
38.0344
48.5971
54.7805
58.4439
61.0902
63.2258
64.7793
65.9679
66.9024
67.7351
68.4766
68.8713
69.7563
70.094
26.6655
30.9455
33.9356
36.3143
37.9601
38.8487
38.9336
37.62
29.675
14.8094
19.4961
40.669
48.8846
54.1449
57.5812
59.6264
61.1673
62.3117
63.153
64.0317
64.7123
65.2496
65.6255
66.0086
24.5128
29.1312
32.3624
35.0355
37.0391
38.3855
39.1359
39.0897
36.7821
32.2621
11.1301
26.3446
41.5006
48.0427
52.1677
55.1975
56.9958
57.9922
58.4758
58.6835
58.8115
57.7358
59.5127
59.2705
21.5117
26.5058
29.9361
32.8342
35.1279
36.8458
38.1192
39.0403
39.1062
35.4513
28.8562
32.0364
29.2956
39.0658
45.4928
48.4854
50.0228
50.729
51.1314
52.7573
52.1149
52.8468
52.2711
52.0699
18.4833
23.6591
27.0988
30.0511
32.5052
34.5262
36.2405
37.7862
39.0499
38.8224
33.755
34.2374
27.1416
32.3943
35.405
40.415
42.4419
43.0757
42.0929
39.7808
38.2328
25.0677
41.9958
37.2334
15.8492
20.9493
24.2004
27.0271
29.4869
31.6868
33.7579
35.8334
37.8674
39.2907
38.5738
29.5816
34.4974
36.3917
26.3653
21.8055
29.9937
16.7021
27.5695
33.1559
12.259
32.533
46.8916
15.3058
13.4739
18.4073
21.4071
24.0408
26.4235
28.6901
30.9724
33.3847
35.9664
38.3895
39.7556
37.3347
28.7103
33.1326
11.9141
27.6834
39.7578
15.9505
41.4487
37.2417
24.4139
38.0075
47.3385
27.5697
11.7791
16.4187
19.116
21.5091
23.7526
25.9834
28.314
30.8384
33.6305
36.594
39.1567
39.9226
36.2751
29.1424
26.7492
32.2979
33.5572
22.6882
35.6703
37.6664
35.2204
53.2152
40.249
32.5972
10.795
15.1114
17.5479
19.7321
21.832
23.9621
26.2021
28.6308
31.3381
34.373
37.512
39.8453
39.9099
38.0893
33.936
29.8872
30.5811
34.307
35.9166
33.2201
37.8919
47.4943
38.1841
40.4112
10.3597
14.5279
16.7918
18.8421
20.8337
22.8414
24.911
27.1057
29.5233
32.2856
35.4131
38.4872
40.3903
40.8387
39.2243
37.4316
38.1735
41.4884
42.0393
39.9263
41.9811
41.4526
43.4
43.2868
10.4591
14.5375
16.735
18.7406
20.6779
22.5819
24.4718
26.3987
28.4557
30.7752
33.4931
36.559
39.3659
41.1143
41.058
40.6412
41.172
42.9483
42.8602
42.0185
42.5033
40.3967
44.211
43.2671
10.8856
14.971
17.1943
19.2285
21.1618
23.0003
24.7476
26.4461
28.176
30.0506
32.2185
34.8032
37.6427
40.1123
41.2453
41.5692
41.9593
42.7394
42.3459
42.0972
41.9649
40.3029
43.1713
42.2373
11.5269
15.6912
17.9869
20.0931
22.0632
23.8799
25.5388
27.0777
28.5641
30.0842
31.757
33.7326
36.0807
38.5424
40.3445
41.2662
41.6976
41.8065
41.1742
40.9671
40.5727
39.4624
41.2796
40.5323
12.3311
16.6254
19.0076
21.1992
23.2219
25.0441
26.6609
28.1095
29.4456
30.7282
32.0375
33.4936
35.222
37.2078
39.036
40.2248
40.7014
40.4786
39.7218
39.332
38.818
38.0603
39.2932
38.8217
13.3708
17.714
20.1832
22.4623
24.542
26.3839
27.989
29.3983
30.6595
31.8094
32.8924
33.9852
35.1961
36.5957
38.0388
39.1234
39.5484
39.2044
38.4103
37.7975
37.2377
36.711
37.7293
37.5582
14.4529
18.8869
21.4545
23.823
25.9619
27.8329
29.4472
30.8516
32.0889
33.181
34.1467
35.0243
35.8825
36.797
37.7493
38.5028
38.7569
38.343
37.5257
36.7376
36.1658
35.8208
36.8199
36.9272
15.5604
20.1092
22.7833
25.2424
27.4418
29.3485
30.9863
32.4081
33.6535
34.7344
35.6541
36.4257
37.08
37.6662
38.2044
38.5811
38.5885
38.0712
37.204
36.2946
35.7249
35.534
36.5873
36.9282
16.3788
16.8294
17.2944
17.643
17.9608
18.1958
18.3968
18.5375
18.6446
18.7077
18.7419
18.7413
18.7134
18.6563
18.5735
18.4663
18.3388
18.195
18.0471
17.9299
17.9574
18.0966
18.2532
18.4007
18.5298
18.6378
18.7204
18.7768
18.804
18.8033
18.7678
18.7033
18.5938
18.4488
18.2431
18.001
17.6743
17.3159
16.8403
16.3826
21.044
21.483
21.9576
22.3236
22.6683
22.9385
23.178
23.3636
23.5167
23.6289
23.712
23.7617
23.7819
23.7705
23.7283
23.6551
23.5536
23.4269
23.2857
23.1656
23.1904
23.3288
23.4755
23.6033
23.7044
23.7766
23.8171
23.8267
23.8051
23.7538
23.6694
23.5557
23.3998
23.2103
22.9664
22.6897
22.3372
21.9623
21.4784
21.0321
23.8018
24.262
24.7731
25.1744
25.5649
25.8856
26.1803
26.4262
26.6428
26.8206
26.9696
27.0863
27.1728
27.226
27.2448
27.2274
27.1747
27.0895
26.9823
26.8884
26.9078
27.0176
27.1285
27.2132
27.2641
27.2791
27.2579
27.2026
27.1146
26.9966
26.847
26.6679
26.4492
26.2009
25.9031
25.5774
25.1808
24.7717
24.2523
23.7844
26.3139
26.782
27.3145
27.7368
28.1578
28.5132
28.8476
29.1382
29.4047
29.637
29.8419
30.0156
30.1583
30.2662
30.3373
30.3686
30.3603
30.3148
30.2436
30.1806
30.1943
30.2706
30.3445
30.3883
30.3935
30.3587
30.2845
30.1738
30.0293
29.8546
29.6492
29.4166
29.1497
28.8591
28.523
28.1647
27.7397
27.3116
26.7723
26.2971
28.5351
28.9886
29.5211
29.9447
30.3764
30.7494
31.1101
31.4338
31.7376
32.0118
32.2605
32.4793
32.6667
32.8185
32.9313
33.0018
33.029
33.0152
32.9719
32.9301
32.9399
32.9925
33.0371
33.048
33.0166
32.9416
32.8247
32.6696
32.4798
32.2598
32.0107
31.7369
31.4341
31.1117
30.7521
30.3795
29.9464
29.5195
28.9822
28.523
30.448
30.8745
31.3984
31.8178
32.2575
32.6474
33.0306
33.3835
33.7195
34.0297
34.3159
34.573
34.7985
34.9871
35.1347
35.2374
35.2929
35.3033
35.2795
35.25
35.2578
35.2955
35.319
35.3044
35.2432
35.1349
34.9821
34.7892
34.5609
34.302
34.0153
33.7057
33.3713
33.0209
32.6404
32.2529
31.8154
31.3957
30.8697
30.4397
32.0927
32.4935
33.0126
33.4348
33.8845
34.2919
34.6964
35.0754
35.4399
35.781
36.0993
36.3888
36.6459
36.8651
37.041
37.1689
37.2463
37.2742
37.2631
37.2403
37.2469
37.2758
37.2849
37.2512
37.1668
37.0318
36.8497
36.6255
36.3645
36.0726
35.7534
35.4128
35.0501
34.674
34.2729
33.8696
33.4234
33.0043
32.4862
32.0848
33.5284
33.9073
34.4266
34.8527
35.3125
35.7355
36.1584
36.5595
36.9476
37.314
37.658
37.9735
38.2558
38.4986
38.6963
38.8435
38.9368
38.9771
38.9742
38.955
38.9606
38.9841
38.9833
38.9356
38.8338
38.6784
38.4733
38.2242
37.9373
37.6187
37.2733
36.907
36.5206
36.1226
35.7035
35.2852
34.83
34.4085
33.8928
33.5157
34.789
35.1462
35.6637
36.093
36.5606
36.9962
37.4338
37.8524
38.259
38.6454
39.0093
39.3447
39.6461
39.9069
40.1209
40.2825
40.3879
40.4378
40.4418
40.4261
40.4305
40.4487
40.4394
40.3807
40.2654
40.0944
39.8718
39.6038
39.2968
38.9575
38.5915
38.205
37.7998
37.3841
36.9505
36.5198
36.0573
35.6337
35.1205
34.7673
35.8798
36.2117
36.7245
37.1547
37.6281
38.0739
38.5232
38.9559
39.3773
39.7791
40.1585
40.5091
40.8249
41.0993
41.3257
41.4985
41.6141
41.6734
41.6858
41.6756
41.6784
41.6888
41.6696
41.6003
41.4736
41.2901
41.054
40.7714
40.4491
40.0941
39.7119
39.3094
38.889
38.459
38.0133
37.5726
37.1045
36.6801
36.1723
35.8458
36.7954
37.0954
37.5992
38.0287
38.5064
38.961
39.4211
39.866
40.3001
40.7147
41.1067
41.4692
41.7963
42.0813
42.3177
42.5001
42.6254
42.695
42.7179
42.7155
42.7163
42.7159
42.6846
42.6039
42.4664
42.2722
42.0252
41.7311
41.3967
41.0288
40.6337
40.2177
39.7843
39.3416
38.8851
38.4351
37.9625
37.5387
37.0402
36.7463
37.5323
37.7878
38.2755
38.7018
39.1828
39.6465
40.117
40.5741
41.0201
41.4466
41.8497
42.2226
42.5593
42.8532
43.0983
43.2895
43.4245
43.505
43.5394
43.5453
43.5437
43.5321
43.4875
43.3945
43.2461
43.042
42.7854
42.4815
42.1368
41.7579
41.3511
40.9229
40.4771
40.022
39.5546
39.0953
38.619
38.1978
37.7147
37.4667
38.0931
38.2764
38.7365
39.155
39.6377
40.1103
40.5919
41.0618
41.5203
41.9589
42.3729
42.7558
43.1014
43.4037
43.6568
43.8565
44.0009
44.0919
44.1371
44.1498
44.1462
44.1241
44.0666
43.9616
43.8027
43.5891
43.3235
43.0105
42.6562
42.2671
41.8489
41.4086
40.9501
40.4819
40.0032
39.5344
39.0558
38.6412
38.1851
38.0109
38.4939
38.5535
38.9573
39.3605
39.8404
40.3215
40.8145
41.2982
41.7703
42.2219
42.6476
43.0408
43.3957
43.7062
43.9674
44.1752
44.3284
44.4288
44.4829
44.5008
44.4951
44.4644
44.3957
44.2795
44.1106
43.8877
43.6133
43.2916
42.9277
42.5281
42.0984
41.6452
41.1734
40.6916
40.2014
39.7237
39.2463
38.8453
38.4451
38.3962
38.7468
38.6158
38.9168
39.2828
39.754
40.2405
40.7445
41.2422
41.7289
42.1944
42.6328
43.0375
43.4023
43.7218
43.9911
44.2069
44.3681
44.4765
44.5376
44.5594
44.5518
44.5142
44.4358
44.3098
44.1314
43.8996
43.6164
43.2854
42.9116
42.5009
42.059
41.5926
41.107
40.6118
40.1108
39.6267
39.1567
38.7921
38.4948
38.638
38.8153
38.4441
38.5966
38.8948
39.3411
39.8306
40.3431
40.8546
41.3552
41.8351
42.2867
42.7033
43.0787
43.4073
43.685
43.9085
44.0769
44.1919
44.2583
44.2825
44.2733
44.23
44.144
44.0094
43.8223
43.582
43.2899
42.9496
42.5659
42.1441
41.6903
41.2111
40.7133
40.2062
39.6981
39.2117
38.7669
38.4695
38.3165
38.6911
38.5824
37.9892
37.9862
38.197
38.6013
39.0819
39.6009
40.1219
40.6343
41.1257
41.5887
42.0156
42.4003
42.7372
43.0221
43.2519
43.4259
43.5455
43.6151
43.6407
43.6298
43.5822
43.4903
43.349
43.1549
42.9072
42.6075
42.2591
41.8666
41.4356
40.9723
40.4836
39.9767
39.4625
38.9503
38.4757
38.0751
37.8644
37.8617
38.4439
37.8955
37.1737
37.0684
37.2108
37.5751
38.0402
38.5591
39.0869
39.6058
40.1042
40.5736
41.0064
41.3962
41.7375
42.0259
42.2585
42.4344
42.5552
42.6251
42.6501
42.6375
42.5871
42.4919
42.3469
42.1487
41.8968
41.5925
41.2393
40.842
40.4061
39.9379
39.4447
38.9345
38.4179
37.9121
37.4616
37.111
36.9796
37.0865
37.7961
36.8158
36.083
35.9544
36.0674
36.4077
36.8572
37.3692
37.8959
38.4132
38.9103
39.3781
39.8092
40.1968
40.5355
40.8208
41.0496
41.2212
41.3374
41.4026
41.4239
41.4091
41.358
41.2634
41.1194
40.9223
40.6713
40.3679
40.0156
39.6193
39.1847
38.7186
38.2282
37.7226
37.212
36.7212
36.2989
35.9912
35.918
36.0886
36.8668
36.0151
35.1971
35.0081
35.0722
35.3756
35.7975
36.2899
36.8029
37.3094
37.7971
38.2559
38.6779
39.0561
39.3848
39.6594
39.8769
40.0364
40.1401
40.1938
40.2067
40.1891
40.1412
40.0532
39.917
39.7277
39.4841
39.1879
38.8426
38.4531
38.0252
37.5656
37.082
36.5832
36.0823
35.6056
35.2025
34.9184
34.8726
35.072
35.8877
35.4356
34.6865
34.5331
34.5997
34.8891
35.2854
35.7472
36.2288
36.707
37.1681
37.6017
37.9993
38.3537
38.6593
38.9109
39.1054
39.2416
39.3216
39.3524
39.3482
39.3262
39.2868
39.2134
39.0932
38.9197
38.6918
38.4113
38.082
37.7091
37.2987
36.8578
36.3944
35.9187
35.444
34.9942
34.6164
34.3536
34.3222
34.5223
35.3294
35.3805
34.7516
34.6781
34.7864
35.0877
35.4742
35.9127
36.3625
36.8086
37.237
37.638
38.0034
38.3264
38.6011
38.8229
38.9883
39.0954
39.1454
39.1454
39.1148
39.0861
39.0618
39.0102
38.9116
38.7594
38.5533
38.2954
37.9901
37.6422
37.2581
36.8444
36.4096
35.9634
35.5204
35.0968
34.7339
34.4686
34.4104
34.5546
35.2646
36.4111
35.7497
35.6431
35.6982
35.944
36.2699
36.6497
37.0487
37.4498
37.8375
38.2013
38.5324
38.8238
39.0696
39.2651
39.4062
39.491
39.5196
39.4979
39.4471
39.4179
39.415
39.3879
39.314
39.1878
39.0101
38.7839
38.5136
38.2044
37.8628
37.4957
37.1121
36.7228
36.3433
35.9908
35.7008
35.4969
35.4889
35.6473
36.3655
36.5937
36.1111
36.133
36.2811
36.5863
36.9466
37.3413
37.7422
38.1367
38.5122
38.8605
39.1741
39.4473
39.6748
39.8524
39.977
40.0464
40.0608
40.0258
39.9615
39.9252
39.9278
39.9099
39.8473
39.7343
39.5719
39.3627
39.1113
38.8223
38.502
38.1566
37.7947
37.4256
37.0638
36.7243
36.4399
36.2265
36.1853
36.2766
36.8804
45.8466
54.2581
62.1749
69.1916
74.519
78.4876
81.516
83.924
85.9877
87.8052
89.4552
91.0006
92.5132
94.0617
95.6995
97.458
99.3442
101.347
103.444
105.606
107.784
109.899
111.767
112.996
45.0444
53.18
60.8799
67.7941
73.0854
77.0384
80.0655
82.4846
84.5529
86.3579
87.9846
89.5021
90.9829
92.4968
94.0988
95.8187
97.6634
99.6227
101.673
103.785
105.912
107.976
109.798
110.995
44.1775
52.0702
59.5647
66.3739
71.6333
75.5808
78.6192
81.0578
83.1347
84.934
86.5432
88.0348
89.4857
90.9674
92.5334
94.2151
96.0193
97.9352
99.9393
102.003
104.079
106.093
107.868
109.033
43.2848
50.9303
58.2257
64.9333
70.1679
74.1204
77.1833
79.6531
81.7444
83.5444
85.1359
86.6054
88.0291
89.4794
91.0125
92.6581
94.4228
96.2962
98.255
100.269
102.296
104.26
105.989
107.121
42.3294
49.7531
56.8472
63.4534
68.6763
72.6524
75.7537
78.2594
80.3706
82.1787
83.7632
85.2141
86.6137
88.037
89.5377
91.1481
92.8752
94.7077
96.6222
98.5906
100.568
102.483
104.166
105.268
41.426
48.5706
55.4512
61.9546
67.1728
71.1797
74.3259
76.8787
79.0189
80.8398
82.4207
83.8588
85.2385
86.6352
88.1083
89.687
91.3776
93.1702
95.042
96.9634
98.8932
100.758
102.399
103.469
40.398
47.3151
53.9775
60.3808
65.6139
69.6795
72.8927
75.497
77.6698
79.5113
81.1068
82.5376
83.9018
85.2792
86.7245
88.2716
89.9284
91.683
93.5131
95.3911
97.2739
99.0927
100.688
101.729
39.5163
46.0866
52.4966
58.7875
64.0402
68.1679
71.4449
74.114
76.3347
78.2066
79.8113
81.2461
82.6022
83.9604
85.3844
86.9054
88.5293
90.247
92.0362
93.8691
95.7046
97.4757
99.0295
100.039
38.3733
44.7039
50.8636
57.0461
62.3422
66.576
69.9642
72.7112
74.9834
76.8914
78.5319
79.9796
81.3339
82.6844
84.0874
85.5807
87.1747
88.8574
90.607
92.3976
94.1891
95.9146
97.4235
98.4044
37.4917
43.391
49.2311
55.2737
60.617
64.9598
68.4407
71.2808
73.6291
75.596
77.2604
78.7277
80.0919
81.4351
82.8253
84.3001
85.8647
87.5129
89.2227
90.9692
92.7124
94.3897
95.858
96.8069
36.1401
41.8006
47.3408
53.2337
58.6406
63.1584
66.8329
69.8021
72.2363
74.2575
75.985
77.4879
78.8653
80.2152
81.5949
83.046
84.5848
86.2
87.871
89.5756
91.2754
92.908
94.3308
95.2513
35.1003
40.3117
45.4437
51.136
56.6076
61.3077
65.1267
68.246
70.8016
72.9298
74.7048
76.2448
77.6515
79.0058
80.382
81.8252
83.3388
84.9214
86.553
88.213
89.8637
91.4468
92.8291
93.7163
33.7626
38.5486
43.169
48.5679
54.088
59.0631
63.2437
66.5925
69.304
71.5141
73.3873
74.9959
76.4353
77.814
79.1924
80.6145
82.1072
83.6594
85.2532
86.8709
88.4792
90.0181
91.3526
92.2109
32.3532
36.7883
40.8824
45.9076
51.4531
56.7195
61.1269
64.758
67.6781
70.0824
72.0477
73.7172
75.2119
76.6106
77.9965
79.4257
80.8977
82.4193
83.9727
85.5455
87.1013
88.5876
89.8806
90.7035
30.3963
34.4402
37.8635
42.3368
47.814
53.492
58.6568
62.7218
65.953
68.499
70.6158
72.4042
73.9594
75.4071
76.8131
78.2229
79.6795
81.173
82.689
84.2179
85.7319
87.1728
88.4147
89.2073
28.1868
32.084
34.9203
38.6886
44.0245
50.1495
55.5707
60.2715
63.9127
66.8292
69.1305
71.0211
72.67
74.1592
75.5868
77.0243
78.466
79.9301
81.4031
82.8839
84.3395
85.7216
86.9184
87.6727
24.6645
28.2601
30.2097
32.9572
37.6462
44.3369
51.7994
57.3393
61.6775
64.8934
67.4582
69.5548
71.3075
72.8828
74.3555
75.7754
77.2076
78.6454
80.0797
81.5155
82.9285
84.2631
85.4016
86.1219
20.3152
24.7522
26.3141
27.2892
31.9953
39.3821
45.9903
53.4465
58.7153
62.7175
65.6557
67.9449
69.8624
71.5126
73.0284
74.5033
75.928
77.3365
78.7222
80.0986
81.4442
82.7081
83.7962
84.4734
5.5417
13.6256
13.17
11.5092
8.37827
21.156
39.4548
47.9337
55.1809
59.9383
63.4821
66.1624
68.2619
70.0616
71.6593
73.1218
74.5436
75.9264
77.2691
78.6061
79.9024
81.1145
82.1317
82.7663
10.6726
14.8147
15.5748
15.0587
14.7257
13.2687
18.8149
41.0621
50.0448
56.7532
60.9829
64.0698
66.4923
68.4323
70.115
71.6713
73.0963
74.4473
75.7293
76.9719
78.1953
79.3144
80.2669
80.8531
15.8648
18.8433
19.685
18.192
18.8191
19.9206
12.8147
20.1081
42.411
51.3993
57.6506
61.6208
64.4001
66.6201
68.4466
70.0022
71.4332
72.7575
73.9889
75.2235
76.3626
77.4215
78.2888
78.8115
23.6393
26.8595
28.1108
27.6067
24.8128
24.2916
14.3979
8.54959
30.6454
46.9578
53.5039
58.4454
61.9423
64.4473
66.4556
68.1802
69.6326
70.9162
72.0562
73.0969
74.191
75.1123
75.8645
76.3385
26.0752
30.0446
32.6486
34.1325
34.0037
31.3118
24.8339
22.5786
27.4379
30.4472
47.3057
54.4665
58.7724
61.8879
64.1671
65.9043
67.3803
68.6315
69.7138
70.8541
71.731
72.5733
73.253
73.5992
27.053
31.1593
34.0651
36.1432
37.2516
37.2588
35.6439
29.558
20.79
21.1399
36.3665
48.647
54.782
58.5077
61.2104
63.311
64.8436
66.0285
66.9302
67.61
68.5856
69.1906
69.5715
69.9016
26.8374
31.0889
34.0451
36.3567
37.8988
38.6325
38.4754
36.7304
30.9482
30.4934
27.0987
41.0074
49.0591
54.3263
57.6039
59.6716
61.2764
62.3943
63.2571
64.3515
64.6895
65.1887
65.6401
65.6553
24.7129
29.2954
32.4887
35.1055
37.029
38.2505
38.7709
38.1924
34.5948
36.129
17.0645
27.7041
41.3612
48.0474
52.3893
55.4415
57.1601
58.14
58.5249
58.4395
59.3644
59.3962
58.7974
59.0518
21.6672
26.6323
30.0359
32.8978
35.1422
36.7855
37.9281
38.5865
37.9862
33.5811
29.7557
34.4769
28.7067
39.8773
46.0418
48.2823
50.2853
50.921
51.63
52.8617
51.6577
51.9012
52.2178
51.8289
18.4897
23.6776
27.1143
30.0536
32.4867
34.4774
36.1449
37.6186
38.7267
38.2005
34.2214
33.2865
28.7079
26.8912
34.812
41.0413
43.342
43.4696
42.0939
41.7012
41.3989
42.5959
36.7144
38.4002
15.7469
20.8613
24.112
26.9336
29.3844
31.5707
33.6231
35.6842
37.7285
39.2224
39.0504
31.6939
32.0886
6.57879
23.4721
16.5179
23.6138
16.8909
34.5271
20.9902
18.2623
46.7144
21.0533
42.4844
13.3234
18.2504
21.2397
23.8647
26.24
28.497
30.764
33.161
35.7441
38.2492
39.8615
38.3454
29.855
25.1557
31.6626
22.6465
18.004
24.6752
43.0473
27.439
35.0158
45.8467
31.4042
41.289
11.6134
16.235
18.9178
21.3011
23.5369
25.756
28.0635
30.5538
33.3108
36.2765
38.9568
40.127
37.1174
30.4666
33.6974
17.9516
29.4705
19.9847
38.9695
28.0223
31.2164
38.7957
39.1551
28.8172
10.6551
14.9484
17.3722
19.5501
21.6442
23.7611
25.972
28.3509
30.9907
33.9633
37.0981
39.6129
40.0659
37.7455
31.6352
30.6951
28.942
33.5942
32.1998
33.1403
37.8486
38.7778
37.5379
40.7063
10.2529
14.4043
16.6648
18.7165
20.7064
22.7021
24.7433
26.8872
29.2296
31.896
34.9395
38.039
40.1432
40.4018
38.2884
39.0114
37.6522
41.541
39.223
40.2891
41.6652
43.3327
41.1198
44.4257
10.3887
14.4578
16.6603
18.6732
20.6122
22.507
24.3745
26.2616
28.2554
30.4839
33.09
36.0806
38.9494
40.6541
40.6626
41.4492
41.0839
43.1862
41.3559
42.2623
41.963
43.5624
42.2477
44.4486
10.8489
14.9272
17.1598
19.2035
21.1399
22.9732
24.7064
26.379
28.0656
29.8733
31.9472
34.4297
37.2349
39.699
40.9251
41.8899
42.0412
43.114
41.6671
42.4361
41.3497
42.3598
41.9716
43.0081
11.5266
15.6758
17.9823
20.0964
22.0677
23.8804
25.5309
27.056
28.5185
29.9993
31.6113
33.5064
35.7894
38.2303
40.076
41.3674
41.813
42.2092
40.9465
41.3595
40.0885
40.4036
40.6072
40.8386
12.3212
16.6305
19.0233
21.2194
23.2403
25.0575
26.6685
28.111
29.4373
30.7031
31.9828
33.3923
35.07
37.0287
38.8609
40.2695
40.8463
40.8509
39.6369
39.6975
38.4986
38.3534
38.9311
38.7392
13.3845
17.7351
20.2104
22.49
24.5652
26.4012
28.0016
29.4091
30.669
31.8167
32.8924
33.9674
35.1536
36.5373
37.9734
39.1829
39.7119
39.4945
38.3334
38.0831
37.0643
36.7347
37.5381
37.239
14.4621
18.9092
21.483
23.8508
25.9841
27.8489
29.4594
30.8648
32.1057
33.2037
34.1751
35.054
35.9091
36.8223
37.7729
38.5931
38.9205
38.5443
37.4356
36.9425
36.1065
35.7957
36.7297
36.5263
15.5676
20.1299
22.8088
25.2663
27.4598
29.3609
30.9963
32.4212
33.6732
34.7643
35.6966
36.4799
37.1445
37.7402
38.2845
38.695
38.7418
38.2078
37.1226
36.4468
35.7562
35.5623
36.5698
36.5529
45.8527
44.2076
43.4126
41.7621
40.782
39.2324
38.1514
36.7176
35.7092
34.3803
33.4181
32.2378
31.29
30.3577
29.4488
28.6206
27.8868
27.3887
26.9833
26.557
26.5586
26.9927
27.3923
27.8988
28.5906
29.4484
30.3773
31.3287
32.2642
33.4453
34.41
35.7802
36.7266
38.2244
39.2318
40.8332
41.7359
43.3608
44.1838
45.8466
54.4694
52.9705
52.2005
50.7999
49.8314
48.5277
47.4911
46.3083
45.3408
44.2616
43.3375
42.3734
41.5583
40.7104
39.9676
39.3122
38.7552
38.3181
38.0952
37.8186
37.82
38.1
38.3234
38.767
39.3552
40.0151
40.7247
41.5742
42.3838
43.3653
44.2575
45.4734
46.3118
47.5649
48.5072
49.8965
50.7749
52.1762
52.9739
54.4741
62.5122
61.0903
60.2891
58.9548
58.0197
56.782
55.7991
54.6747
53.7228
52.7109
51.8073
50.9065
50.1061
49.3297
48.6466
48.0423
47.5284
47.112
46.8389
46.655
46.6564
46.8428
47.1176
47.5373
48.0634
48.6667
49.3435
50.1178
50.9176
51.8258
52.7131
53.7703
54.6914
55.8343
56.7901
58.0494
58.9658
60.2974
61.1032
62.5245
69.5243
68.0864
67.1958
65.8413
64.854
63.5996
62.585
61.4446
60.4591
59.4387
58.5194
57.6246
56.8133
56.0572
55.3842
54.7931
54.2951
53.8994
53.6231
53.4715
53.4727
53.6268
53.9052
54.303
54.8041
55.3954
56.0688
56.8249
57.6369
58.5343
59.4511
60.4793
61.4622
62.6061
63.6175
64.8744
65.8603
67.2146
68.1065
69.544
74.8064
73.3142
72.3312
70.9299
69.8718
68.5838
67.5161
66.3509
65.326
64.2889
63.3482
62.4462
61.6263
60.8732
60.2047
59.6231
59.1386
58.7592
58.496
58.357
58.3582
58.4994
58.7646
59.1458
59.6323
60.2148
60.8843
61.6384
62.4594
63.363
64.3043
65.3435
66.3694
67.5358
68.6041
69.8929
70.9518
72.3533
73.3377
74.8298
78.7351
77.1998
76.1465
74.714
73.6005
72.2932
71.1849
70.0074
68.9566
67.9118
66.9591
66.0549
65.2335
64.4848
63.8233
63.252
62.7796
62.4133
62.1613
62.03
62.0311
62.1646
62.4185
62.7866
63.2606
63.8332
64.4959
65.2459
66.0686
66.9743
67.9281
68.9745
70.0265
71.2053
72.3146
73.6227
74.7377
76.1704
77.2253
78.7605
81.731
80.1679
79.0602
77.6136
76.4584
75.1432
74.0069
72.8241
71.7577
70.7098
69.7514
68.8475
68.0273
67.2832
66.6281
66.0648
65.6015
65.2443
64.9998
64.8734
64.8745
65.0029
65.2493
65.6083
66.0732
66.6379
67.2945
68.04
68.8615
69.7669
70.7266
71.776
72.8436
74.0278
75.1652
76.4816
77.6381
79.0853
80.1947
81.7576
84.1071
82.5253
81.3722
79.9201
78.735
77.4169
76.2623
75.0762
74.0001
72.9497
71.9875
71.0834
70.2634
69.5216
68.8694
68.3104
67.8516
67.499
67.2584
67.1342
67.1353
67.2615
67.5039
67.8583
68.3187
68.8793
69.5329
70.2762
71.0977
72.0032
72.9668
74.0186
75.0959
76.2835
77.4392
78.7587
79.945
81.3981
82.5527
84.135
86.1457
84.5465
83.3577
81.8956
80.6873
79.3602
78.1904
76.996
75.9096
74.8524
73.8829
72.9737
72.1491
71.4039
70.7491
70.1883
69.7285
69.3753
69.1343
69.0098
69.0109
69.1374
69.3803
69.7352
70.1967
70.7591
71.4154
72.1621
72.9882
73.8989
74.8697
75.9283
77.0161
78.2119
79.3828
80.7114
81.9208
83.3844
84.5743
86.1747
87.9549
86.3286
85.1171
83.6375
82.4113
81.0708
79.8864
78.6807
77.5819
76.5148
75.5351
74.6172
73.784
73.0314
72.3698
71.803
71.3381
70.9807
70.7365
70.6097
70.6108
70.7397
70.9858
71.3449
71.8115
72.3799
73.0431
73.7972
74.6319
75.5513
76.5323
77.6009
78.701
79.9081
81.0938
82.4358
83.6631
85.1443
86.3569
87.9847
89.6063
87.9508
86.7201
85.2201
83.976
82.6192
81.4184
80.1983
79.0846
78.0041
77.011
76.0807
75.2355
74.4716
73.7995
73.2232
72.7498
72.3855
72.1357
72.0053
72.0064
72.139
72.3906
72.7569
73.2319
73.8099
74.4836
75.249
76.0956
77.0274
78.0218
79.1038
80.2188
81.4404
82.6425
84.0007
85.2461
86.7476
87.9795
89.6366
91.1599
89.4724
88.2257
86.7021
85.4406
84.0645
82.8462
81.6087
80.4784
79.3816
78.3727
77.427
76.567
75.7889
75.1033
74.5144
74.0299
73.6561
73.399
73.2638
73.265
73.4024
73.6614
74.0371
74.5234
75.1138
75.801
76.5806
77.4421
78.3892
79.3996
80.4977
81.6295
82.8684
84.088
85.4656
86.7285
88.2535
89.5016
91.1903
92.6826
90.9618
89.7001
88.1508
86.8713
85.4735
84.2365
82.9795
81.8304
80.7153
79.6883
78.725
77.8477
77.0529
76.3513
75.7475
75.2495
74.8641
74.5982
74.4573
74.4585
74.6017
74.8696
75.2568
75.7567
76.3621
77.0652
77.8615
78.7403
79.705
80.7334
81.85
83.0003
84.2589
85.4972
86.8965
88.1772
89.7281
90.9911
92.7135
94.2422
92.4859
91.2089
89.6315
88.333
86.9115
85.6541
84.3753
83.2058
82.07
81.0229
80.0398
79.143
78.3292
77.6093
76.9881
76.4743
76.0754
75.7991
75.6516
75.6529
75.8026
76.081
76.4818
76.9974
77.6202
78.3417
79.1569
80.0552
81.0397
82.0882
83.2254
84.3962
85.6765
86.9352
88.3584
89.6581
91.237
92.5153
94.2731
95.8922
94.0975
92.8043
91.1962
89.8771
88.4292
87.1496
85.8467
84.6547
83.4961
82.4267
81.4215
80.5029
79.6678
78.9271
78.2863
77.7543
77.3397
77.0512
76.8961
76.8974
77.0548
77.3454
77.7619
78.2958
78.9383
79.6805
80.5171
81.437
82.4436
83.5143
84.6744
85.8678
87.1721
88.453
89.9024
91.2228
92.8324
94.127
95.9231
97.6627
95.8274
94.5159
92.8748
91.5329
90.0564
88.7523
87.4231
86.2062
85.0225
83.9286
82.8991
81.9564
81.0976
80.3337
79.6705
79.1177
78.6848
78.3822
78.2184
78.2197
78.3859
78.6907
79.1255
79.6801
80.345
81.1104
81.9707
82.9147
83.9456
85.0408
86.2259
87.4441
88.7747
90.0802
91.5582
92.9014
94.5441
95.8568
97.6937
99.5611
97.6832
96.3516
94.6753
93.3086
91.8013
90.4706
89.113
87.8693
86.6585
85.538
84.482
83.5132
82.6283
81.8388
81.1505
80.574
80.12
79.8008
79.6269
79.6283
79.8047
80.1261
80.582
81.1604
81.8503
82.6413
83.5276
84.4978
85.5551
86.6768
87.8891
89.134
90.4932
91.8251
93.334
94.7019
96.3798
97.7126
99.5921
101.578
99.6553
98.3023
96.5896
95.1964
93.6571
92.2982
90.9105
89.6384
88.3989
87.2502
86.1661
85.1693
84.2565
83.439
82.7231
82.1198
81.6416
81.3029
81.117
81.1184
81.3069
81.648
82.1282
82.7332
83.4507
84.2697
85.1839
86.1821
87.2675
88.4174
89.6584
90.9317
92.3207
93.6808
95.2217
96.6162
98.3306
99.685
101.608
103.689
101.723
100.348
98.598
97.1781
95.6054
94.218
92.7993
91.4982
90.2291
89.0513
87.9381
86.9121
85.9697
85.1224
84.3765
83.7436
83.2375
82.8756
82.6753
82.6769
82.8799
83.2442
83.7523
84.387
85.1344
85.9832
86.9269
87.9542
89.0688
90.248
91.5182
92.8212
94.241
95.63
97.2038
98.6254
100.377
101.753
103.721
105.865
103.857
102.459
100.673
99.2259
97.621
96.2041
94.7554
93.4243
92.1258
90.9184
89.7758
88.7201
87.7478
86.8697
86.092
85.4265
84.8883
84.4988
84.2808
84.2825
84.5034
84.8955
85.4353
86.1026
86.882
87.7618
88.7354
89.7924
90.9364
92.1447
93.4452
94.7773
96.2275
97.6455