/*--------------------------------*- C++ -*----------------------------------*\
  =========                 |
  \\      /  F ield         | OpenFOAM: The Open Source CFD Toolbox
   \\    /   O peration     | Website:  https://openfoam.org
    \\  /    A nd           | Version:  6
     \\/     M anipulation  |
\*---------------------------------------------------------------------------*/
FoamFile
{
    version     2.0;
    format      ascii;
    class       volVectorField;
    location    "15";
    object      wallShearStress;
}
// * * * * * * * * * * * * * * * * * * * * * * * * * * * * * * * * * * * * * //

dimensions      [0 2 -2 0 0 0 0];

internalField   uniform (0 0 0);

boundaryField
{
    inlet
    {
        type            calculated;
        value           uniform (0 0 0);
    }
    outlet
    {
        type            calculated;
        value           uniform (0 0 0);
    }
    roughCylinder
    {
        type            calculated;
        value           nonuniform List<vector> 
5120
(
(-0.0002511 -0.000357691 -0.000184301)
(-0.000307767 -0.000462162 -4.20578e-05)
(-0.000341391 -0.000556073 -6.14819e-07)
(-0.000387215 -0.00064618 5.42117e-05)
(-0.000444322 -0.000724372 0.000117504)
(-0.000509148 -0.00078618 0.000181094)
(-0.00057822 -0.000828772 0.000240452)
(-0.000646862 -0.000852591 0.000292805)
(-0.000711001 -0.000860122 0.000336068)
(-0.000768573 -0.000856443 0.00036953)
(-0.000819832 -0.000849875 0.000394709)
(-0.000865042 -0.00084598 0.000413469)
(-0.000901271 -0.00084487 0.000424574)
(-0.000931812 -0.00084923 0.000429132)
(-0.000957956 -0.000858287 0.000428184)
(-0.000981054 -0.000871324 0.000422793)
(-0.00100252 -0.000887564 0.000414006)
(-0.00102359 -0.000906352 0.000402725)
(-0.00104521 -0.000927214 0.000389611)
(-0.00106804 -0.000949857 0.000375094)
(-0.0010924 -0.000974097 0.000359372)
(-0.00111844 -0.000999807 0.000342469)
(-0.0011461 -0.00102686 0.00032428)
(-0.00117521 -0.00105509 0.000304618)
(-0.00120552 -0.00108424 0.000283206)
(-0.0012367 -0.00111401 0.000259703)
(-0.0012683 -0.00114391 0.000233596)
(-0.00129976 -0.00117329 0.000204212)
(-0.00133013 -0.00120116 0.00017039)
(-0.00135794 -0.00122612 0.000130563)
(-0.00138031 -0.00124626 8.25347e-05)
(-0.00139312 -0.00125825 2.79102e-05)
(-0.000269736 -0.00034609 -0.000174172)
(-0.000329512 -0.000447799 -4.45413e-05)
(-0.000365718 -0.000540399 -6.38572e-06)
(-0.000413661 -0.000630221 4.50424e-05)
(-0.000472451 -0.000709424 0.000105717)
(-0.000538829 -0.000773019 0.000167523)
(-0.000609299 -0.000817784 0.000225739)
(-0.000679434 -0.000844017 0.00027747)
(-0.000745767 -0.000854608 0.000320738)
(-0.000806764 -0.000855212 0.000355265)
(-0.0008622 -0.000852702 0.000382439)
(-0.000910966 -0.000850378 0.000403055)
(-0.000950012 -0.000847977 0.000415238)
(-0.000982093 -0.000851239 0.000420375)
(-0.00100977 -0.000859582 0.000419741)
(-0.0010343 -0.000872262 0.000414574)
(-0.00105717 -0.000888376 0.000405962)
(-0.00107966 -0.000907177 0.000394848)
(-0.00110275 -0.000928132 0.000381936)
(-0.00112708 -0.000950883 0.000367662)
(-0.00115301 -0.000975226 0.000352235)
(-0.00118066 -0.00100102 0.000335686)
(-0.00120997 -0.00102814 0.000317908)
(-0.00124078 -0.00105639 0.00029871)
(-0.0012728 -0.00108554 0.000277806)
(-0.00130568 -0.00111526 0.000254853)
(-0.00133894 -0.00114507 0.000229335)
(-0.00137202 -0.00117435 0.000200585)
(-0.0014039 -0.00120208 0.00016745)
(-0.00143303 -0.00122689 0.000128365)
(-0.00145645 -0.0012469 8.11568e-05)
(-0.00146988 -0.00125879 2.74371e-05)
(-0.000288157 -0.000329196 -0.000156724)
(-0.000350722 -0.000427929 -4.75365e-05)
(-0.00038933 -0.000518472 -1.28213e-05)
(-0.000438997 -0.000607347 3.49971e-05)
(-0.000499179 -0.000687041 9.27546e-05)
(-0.000566958 -0.000752193 0.000152527)
(-0.000638898 -0.000799298 0.000209522)
(-0.0007109 -0.000828619 0.000260791)
(-0.00077998 -0.000843214 0.000304513)
(-0.000844696 -0.000848435 0.000340479)
(-0.000904046 -0.000849547 0.000369452)
(-0.000956073 -0.000848716 0.000391347)
(-0.000998655 -0.000846305 0.000404813)
(-0.0010324 -0.000848044 0.000410473)
(-0.00106163 -0.000855507 0.000410148)
(-0.00108769 -0.000867647 0.000405248)
(-0.00111206 -0.000883467 0.000396864)
(-0.00113605 -0.000902123 0.00038598)
(-0.00116065 -0.000923001 0.000373325)
(-0.00118654 -0.000945698 0.000359352)
(-0.00121407 -0.000969983 0.000344282)
(-0.00124337 -0.000995692 0.000328149)
(-0.00127436 -0.00102268 0.000310843)
(-0.00130686 -0.00105076 0.000292168)
(-0.00134057 -0.0010797 0.000271833)
(-0.00137514 -0.00110916 0.000249492)
(-0.00141005 -0.00113869 0.000224624)
(-0.00144472 -0.00116765 0.000196572)
(-0.00147806 -0.00119506 0.000164194)
(-0.00150849 -0.00121953 0.000125929)
(-0.00153292 -0.00123926 7.96293e-05)
(-0.00154694 -0.00125097 2.69132e-05)
(-0.000304624 -0.000308481 -0.00013483)
(-0.000369543 -0.000403706 -5.06179e-05)
(-0.000410103 -0.000491452 -1.95039e-05)
(-0.000460903 -0.000578724 2.45239e-05)
(-0.000522027 -0.000658403 7.90935e-05)
(-0.000590987 -0.00072491 0.000136576)
(-0.000664467 -0.000774521 0.000192186)
(-0.000738647 -0.000807418 0.000243)
(-0.000810777 -0.000826519 0.000287315)
(-0.000879177 -0.000836359 0.00032476)
(-0.00094223 -0.000840826 0.000355384)
(-0.000997699 -0.000841692 0.000378489)
(-0.00104399 -0.000840189 0.000393259)
(-0.00108027 -0.000840357 0.000399591)
(-0.00111119 -0.000846836 0.000399703)
(-0.00113892 -0.000858279 0.000395121)
(-0.00116488 -0.000873669 0.000387034)
(-0.00119044 -0.000892053 0.000376446)
(-0.00121662 -0.000912738 0.000364111)
(-0.00124409 -0.000935267 0.000350501)
(-0.00127323 -0.000959366 0.000335845)
(-0.00130415 -0.000984847 0.000320179)
(-0.00133678 -0.00101156 0.000303395)
(-0.00137092 -0.00103932 0.000285289)
(-0.00140626 -0.00106788 0.000265565)
(-0.00144243 -0.00109693 0.000243876)
(-0.00147889 -0.00112599 0.000219693)
(-0.00151505 -0.00115447 0.000192374)
(-0.00154976 -0.00118139 0.000160792)
(-0.00158138 -0.00120539 0.000123385)
(-0.00160674 -0.00122472 7.80354e-05)
(-0.00162131 -0.00123619 2.6367e-05)
(-0.000317913 -0.000284073 -0.000110552)
(-0.00038481 -0.000375269 -5.34099e-05)
(-0.000426839 -0.000459573 -2.60908e-05)
(-0.000478205 -0.000544636 1.39582e-05)
(-0.000539861 -0.000623812 6.50382e-05)
(-0.000609836 -0.000691497 0.000119897)
(-0.00068499 -0.000743787 0.000173895)
(-0.000761655 -0.000780588 0.000224169)
(-0.000837037 -0.000804329 0.000269041)
(-0.000909066 -0.000818571 0.000307841)
(-0.000975704 -0.000826166 0.00033999)
(-0.0010347 -0.000828806 0.000364349)
(-0.00108451 -0.000828397 0.00038022)
(-0.00112464 -0.000828109 0.000387687)
(-0.0011575 -0.000833071 0.000388369)
(-0.00118702 -0.000843599 0.000384207)
(-0.0012147 -0.000858377 0.000376509)
(-0.0012419 -0.000876329 0.000366301)
(-0.00126967 -0.000896663 0.000354354)
(-0.00129872 -0.000918866 0.000341171)
(-0.00132945 -0.000942622 0.000326992)
(-0.00136195 -0.000967722 0.00031185)
(-0.00139616 -0.000993996 0.000295638)
(-0.00143185 -0.00102126 0.000278149)
(-0.00146872 -0.00104927 0.000259077)
(-0.00150637 -0.00107772 0.000238074)
(-0.00154425 -0.00110614 0.000214608)
(-0.00158178 -0.00113398 0.000188051)
(-0.00161772 -0.00116023 0.000157292)
(-0.00165042 -0.0011836 0.000120772)
(-0.00167661 -0.00120241 7.63989e-05)
(-0.00169165 -0.00121356 2.58066e-05)
(-0.000328155 -0.000257529 -8.57231e-05)
(-0.000396498 -0.000344143 -5.57963e-05)
(-0.000439416 -0.000424433 -3.23806e-05)
(-0.000490714 -0.00050669 3.53463e-06)
(-0.000552418 -0.000584849 5.08358e-05)
(-0.000623176 -0.000653443 0.000102724)
(-0.000700003 -0.000708382 0.000154823)
(-0.000779256 -0.000749082 0.000204375)
(-0.000857921 -0.000777241 0.000249645)
(-0.000933517 -0.000795456 0.000289592)
(-0.00100371 -0.000805889 0.000323094)
(-0.00106633 -0.000810306 0.000348729)
(-0.00111989 -0.000811061 0.000365715)
(-0.00116416 -0.000811206 0.000374444)
(-0.00120007 -0.00081454 0.000376)
(-0.00123158 -0.00082394 0.000372453)
(-0.00126111 -0.000837827 0.000365253)
(-0.00129004 -0.000855109 0.00035552)
(-0.00131947 -0.000874931 0.000344063)
(-0.00135013 -0.000896649 0.000331388)
(-0.00138241 -0.000919901 0.000317749)
(-0.00141643 -0.000944451 0.000303193)
(-0.00145213 -0.000970115 0.000287607)
(-0.00148926 -0.000996704 0.00027078)
(-0.00152752 -0.00102398 0.000252399)
(-0.00156651 -0.00105164 0.000232116)
(-0.00160566 -0.00107924 0.000209393)
(-0.00164439 -0.00110625 0.00018362)
(-0.00168143 -0.00113168 0.000153711)
(-0.00171504 -0.00115428 0.0001181)
(-0.00174193 -0.00117244 7.47275e-05)
(-0.00175738 -0.00118323 2.52341e-05)
(-0.00033401 -0.00022905 -6.12566e-05)
(-0.000403305 -0.000310622 -5.75874e-05)
(-0.000446541 -0.00038636 -3.81555e-05)
(-0.000497141 -0.000465229 -6.57127e-06)
(-0.000558355 -0.000541836 3.65936e-05)
(-0.000629575 -0.000611005 8.50778e-05)
(-0.000707996 -0.000668479 0.000134903)
(-0.000789909 -0.00071302 0.000183466)
(-0.000871971 -0.000745414 0.000228909)
(-0.000951278 -0.000767349 0.000269782)
(-0.00102527 -0.00078052 0.000304524)
(-0.00109176 -0.000786783 0.000331467)
(-0.00114929 -0.000788739 0.000349702)
(-0.00119767 -0.000789586 0.000359641)
(-0.00123794 -0.000792452 0.000362515)
(-0.00127189 -0.000799864 0.000359758)
(-0.00130346 -0.00081264 0.000353221)
(-0.00133429 -0.000829085 0.000344098)
(-0.00136541 -0.000848147 0.00033322)
(-0.00139767 -0.000869186 0.000321137)
(-0.00143148 -0.000891762 0.000308121)
(-0.00146697 -0.000915607 0.000294218)
(-0.00150406 -0.00094051 0.000279317)
(-0.00154253 -0.000966274 0.000263203)
(-0.00158204 -0.000992669 0.000245554)
(-0.00162221 -0.0010194 0.000226024)
(-0.00166246 -0.00104604 0.000204071)
(-0.00170223 -0.00107207 0.000179105)
(-0.00174017 -0.00109652 0.000150065)
(-0.00177456 -0.00111821 0.000115385)
(-0.00180203 -0.00113563 7.30304e-05)
(-0.00181778 -0.00114597 2.46528e-05)
(-0.000335649 -0.000199824 -3.81768e-05)
(-0.000405231 -0.00027592 -5.88003e-05)
(-0.000448139 -0.000346639 -4.33204e-05)
(-0.000497325 -0.000421541 -1.61748e-05)
(-0.000557378 -0.000495978 2.25394e-05)
(-0.000628593 -0.000565243 6.71838e-05)
(-0.000708366 -0.000624935 0.000114299)
(-0.000792799 -0.000673012 0.000161489)
(-0.000878179 -0.000709282 0.000206753)
(-0.000961239 -0.000734625 0.000248259)
(-0.00103916 -0.00075037 0.000284052)
(-0.0011097 -0.000758466 0.000312283)
(-0.00117149 -0.000761721 0.000331937)
(-0.00122418 -0.000763329 0.000343245)
(-0.00126868 -0.000766299 0.000347436)
(-0.0013068 -0.000772661 0.00034598)
(-0.00134081 -0.000783599 0.000340322)
(-0.00137366 -0.000798594 0.000331936)
(-0.00140661 -0.000816753 0.0003218)
(-0.00144054 -0.000836951 0.000310421)
(-0.00147586 -0.000858697 0.000298114)
(-0.00151274 -0.000881672 0.000284938)
(-0.0015511 -0.000905653 0.000270783)
(-0.00159074 -0.000930437 0.000255433)
(-0.00163131 -0.000955786 0.000238555)
(-0.00167244 -0.000981428 0.000219809)
(-0.00171357 -0.00100696 0.000198648)
(-0.00175414 -0.00103194 0.00017451)
(-0.00179281 -0.00105536 0.000146364)
(-0.00182776 -0.00107605 0.000112632)
(-0.00185563 -0.00109266 7.1311e-05)
(-0.00187161 -0.00110259 2.40643e-05)
(-0.000331742 -0.000169897 -1.69871e-05)
(-0.000401057 -0.000240208 -5.92569e-05)
(-0.000443047 -0.000305488 -4.76849e-05)
(-0.000490133 -0.000375874 -2.50745e-05)
(-0.000548296 -0.000447482 8.86973e-06)
(-0.000618863 -0.000516209 4.9192e-05)
(-0.000699547 -0.000577615 9.30565e-05)
(-0.000786313 -0.000628887 0.000138361)
(-0.000875056 -0.000668823 0.000183016)
(-0.000962059 -0.000697458 0.000224831)
(-0.00104425 -0.000715803 0.000261517)
(-0.00111931 -0.000725869 0.000291046)
(-0.00118564 -0.000730479 0.000312234)
(-0.00124288 -0.000732887 0.000325134)
(-0.0012917 -0.000735995 0.000330796)
(-0.00133384 -0.000741869 0.000330703)
(-0.00137153 -0.000751552 0.000326301)
(-0.00140738 -0.000765259 0.000319076)
(-0.0014422 -0.000781949 0.000309818)
(-0.00147777 -0.000800965 0.000299249)
(-0.00151456 -0.000821671 0.000287755)
(-0.00155273 -0.000843653 0.000275395)
(-0.00159224 -0.000866639 0.000262063)
(-0.00163287 -0.000890401 0.000247536)
(-0.0016743 -0.000914698 0.000231475)
(-0.0017162 -0.000939261 0.000213548)
(-0.00175792 -0.000963669 0.000193195)
(-0.00179895 -0.000987456 0.000169882)
(-0.00183797 -0.00100969 0.00014263)
(-0.00187326 -0.00102929 0.000109858)
(-0.0019013 -0.00104502 6.95794e-05)
(-0.00191724 -0.00105444 2.34692e-05)
(-0.000322815 -0.000140561 1.64521e-06)
(-0.000390912 -0.000204376 -5.91966e-05)
(-0.000431289 -0.000264145 -5.11929e-05)
(-0.000475506 -0.000329391 -3.30736e-05)
(-0.000530843 -0.000397375 -4.11244e-06)
(-0.000599939 -0.000464776 3.14262e-05)
(-0.000681012 -0.000527307 7.14474e-05)
(-0.000769807 -0.000581333 0.000114262)
(-0.000861734 -0.000624578 0.000157745)
(-0.000952745 -0.00065635 0.000199445)
(-0.00103945 -0.000677268 0.000236783)
(-0.0011192 -0.000689242 0.000267506)
(-0.00119042 -0.000695244 0.000290301)
(-0.0012525 -0.000698473 0.000304986)
(-0.00130597 -0.000701804 0.000312392)
(-0.0013523 -0.000707282 0.000313874)
(-0.00139373 -0.000716129 0.000310935)
(-0.00143253 -0.000728673 0.000305005)
(-0.00146988 -0.000743994 0.0002969)
(-0.00150743 -0.000761764 0.000287387)
(-0.00154573 -0.000781273 0.000276861)
(-0.00158505 -0.000802075 0.000265418)
(-0.00162541 -0.00082387 0.000252974)
(-0.00166663 -0.000846403 0.000239312)
(-0.00170845 -0.000869443 0.000224093)
(-0.00175056 -0.000892711 0.000206995)
(-0.0017924 -0.00091579 0.000187454)
(-0.00183355 -0.00093819 0.000164993)
(-0.00187266 -0.000959106 0.000138685)
(-0.00190796 -0.000977505 0.000106925)
(-0.00193592 -0.000992249 6.7745e-05)
(-0.00195172 -0.00100106 2.28361e-05)
(-0.000305901 -0.000111308 1.73262e-05)
(-0.00037477 -0.000169279 -5.82898e-05)
(-0.000412247 -0.000223086 -5.3802e-05)
(-0.000452859 -0.000282716 -3.994e-05)
(-0.000504512 -0.000346367 -1.60667e-05)
(-0.00057114 -0.000411515 1.42598e-05)
(-0.000651653 -0.000474253 4.97609e-05)
(-0.000741889 -0.000530407 8.93255e-05)
(-0.000836936 -0.000576771 0.000130977)
(-0.000932104 -0.000611661 0.000172063)
(-0.0010236 -0.000635235 0.000209751)
(-0.00110861 -0.000649323 0.000241611)
(-0.00118513 -0.000656733 0.000266059)
(-0.00125243 -0.000660763 0.000282687)
(-0.00131077 -0.000664243 0.000292057)
(-0.00136154 -0.000669335 0.000295387)
(-0.00140677 -0.00067732 0.00029412)
(-0.0014487 -0.000688705 0.000289674)
(-0.00148855 -0.000702691 0.000282894)
(-0.00152799 -0.000719094 0.000274591)
(-0.00156772 -0.000737258 0.000265179)
(-0.00160808 -0.000756707 0.000254778)
(-0.00164912 -0.000777123 0.00024332)
(-0.00169073 -0.000798245 0.000230605)
(-0.00173267 -0.000819828 0.000216286)
(-0.00177474 -0.000841617 0.000200067)
(-0.00181639 -0.000863192 0.000181378)
(-0.00185745 -0.000884104 0.000159818)
(-0.00189633 -0.000903594 0.000134509)
(-0.00193139 -0.000920727 0.000103826)
(-0.00195905 -0.00093444 6.58025e-05)
(-0.0019746 -0.000942579 2.2162e-05)
(-0.000282294 -8.32638e-05 3.00045e-05)
(-0.000352235 -0.000135963 -5.65543e-05)
(-0.000386354 -0.000183351 -5.53906e-05)
(-0.000422138 -0.000236795 -4.54398e-05)
(-0.000468722 -0.000295094 -2.65866e-05)
(-0.000531535 -0.000356811 -1.81337e-06)
(-0.000610633 -0.000418888 2.8474e-05)
(-0.000701854 -0.000476657 6.39388e-05)
(-0.000799591 -0.000525747 0.00010292)
(-0.000898881 -0.000563714 0.000142741)
(-0.000995489 -0.000590133 0.000180392)
(-0.00108596 -0.000606364 0.00021317)
(-0.00116826 -0.00061529 0.000239279)
(-0.00124115 -0.000620069 0.00025797)
(-0.00130486 -0.000623703 0.000269557)
(-0.00136042 -0.000628363 0.000275014)
(-0.00140985 -0.000635508 0.000275722)
(-0.00145504 -0.000645625 0.000272988)
(-0.00149754 -0.000658218 0.000267759)
(-0.00153899 -0.000673191 0.000260862)
(-0.00158013 -0.000689867 0.000252718)
(-0.00162139 -0.000707815 0.000243487)
(-0.00166292 -0.000726696 0.000233123)
(-0.00170464 -0.000746253 0.000221435)
(-0.0017464 -0.000766238 0.000208081)
(-0.00178806 -0.0007864 0.000192786)
(-0.00182916 -0.000806338 0.000174984)
(-0.00186971 -0.000825628 0.000154362)
(-0.00190805 -0.000843604 0.000130109)
(-0.0019425 -0.00085938 0.000100561)
(-0.00196953 -0.00087199 6.37497e-05)
(-0.00198471 -0.000879414 2.14447e-05)
(-0.000251504 -5.73069e-05 3.94525e-05)
(-0.000321835 -0.000104428 -5.38011e-05)
(-0.000353026 -0.000145573 -5.57513e-05)
(-0.000383824 -0.000192759 -4.93154e-05)
(-0.000424718 -0.000245195 -3.52414e-05)
(-0.000482528 -0.000302435 -1.61567e-05)
(-0.000558427 -0.000362366 8.26695e-06)
(-0.000649149 -0.000420576 3.8665e-05)
(-0.000749263 -0.000472136 7.40331e-05)
(-0.000852666 -0.000513229 0.000111811)
(-0.000954381 -0.000542563 0.00014886)
(-0.00105087 -0.000561271 0.000182312)
(-0.0011392 -0.000571749 0.000209985)
(-0.00121823 -0.000577347 0.000230853)
(-0.00128756 -0.000580981 0.000244831)
(-0.00134828 -0.000585103 0.000252694)
(-0.00140201 -0.000591209 0.000255625)
(-0.00145081 -0.0006 0.00025491)
(-0.00149606 -0.000611077 0.000251471)
(-0.00153944 -0.000624421 0.000246161)
(-0.0015819 -0.000639468 0.000239454)
(-0.00162394 -0.000655776 0.000231539)
(-0.00166574 -0.000673003 0.000222385)
(-0.00170731 -0.00069089 0.000211817)
(-0.00174856 -0.000709174 0.000199494)
(-0.00178947 -0.000727627 0.000185178)
(-0.00182969 -0.000745859 0.000168298)
(-0.00186947 -0.000763502 0.00014866)
(-0.00190689 -0.000779899 0.000125511)
(-0.00194047 -0.000794306 9.71586e-05)
(-0.00196661 -0.000805817 6.16059e-05)
(-0.0019813 -0.000812498 2.0689e-05)
(-0.000215576 -3.47368e-05 4.5645e-05)
(-0.0002847 -7.57364e-05 -5.01291e-05)
(-0.00031305 -0.000110806 -5.48924e-05)
(-0.000338043 -0.000151325 -5.13865e-05)
(-0.000371363 -0.000196681 -4.15645e-05)
(-0.000421915 -0.000247751 -2.80029e-05)
(-0.000493514 -0.000304394 -9.93563e-06)
(-0.000583234 -0.000362427 1.43606e-05)
(-0.000684578 -0.000415744 4.48998e-05)
(-0.000791651 -0.000459885 7.96119e-05)
(-0.000898907 -0.000492617 0.000115373)
(-0.00100144 -0.000513997 0.000149013)
(-0.00109658 -0.000526478 0.000178132)
(-0.00118205 -0.000532948 0.00020118)
(-0.00125767 -0.000536693 0.00021777)
(-0.00132391 -0.000540175 0.000228296)
(-0.00138251 -0.000545206 0.000233796)
(-0.001435 -0.000552464 0.00023537)
(-0.00148319 -0.000561914 0.000234)
(-0.00152874 -0.000573571 0.000230538)
(-0.00157253 -0.000586873 0.000225463)
(-0.00161519 -0.000601429 0.000219015)
(-0.00165702 -0.000616908 0.000211191)
(-0.00169807 -0.000633027 0.000201828)
(-0.00173843 -0.000649542 0.000190593)
(-0.00177812 -0.000666213 0.000177287)
(-0.00181698 -0.000682672 0.000161348)
(-0.00185552 -0.000698585 0.000142712)
(-0.00189169 -0.000713407 0.00012072)
(-0.00192394 -0.000726394 9.36168e-05)
(-0.00194879 -0.000736789 5.93654e-05)
(-0.00196285 -0.000742704 1.98894e-05)
(-0.000173487 -1.59223e-05 4.81231e-05)
(-0.000239338 -5.00361e-05 -4.51175e-05)
(-0.000265528 -7.92624e-05 -5.24241e-05)
(-0.000285983 -0.000113505 -5.13742e-05)
(-0.000312903 -0.000152124 -4.51161e-05)
(-0.00035615 -0.000196596 -3.67207e-05)
(-0.000419987 -0.000247582 -2.52788e-05)
(-0.000504962 -0.000303042 -7.90432e-06)
(-0.000606862 -0.000357693 1.66532e-05)
(-0.000717258 -0.000404892 4.71135e-05)
(-0.000829306 -0.00044096 8.0592e-05)
(-0.000938465 -0.000465636 0.000113856)
(-0.00104008 -0.000480175 0.000143993)
(-0.00113257 -0.000487859 0.000169171)
(-0.00121457 -0.000491677 0.000188425)
(-0.00128679 -0.00049453 0.000201864)
(-0.00135026 -0.000498269 0.000210171)
(-0.00140694 -0.000503957 0.00021438)
(-0.0014582 -0.000511626 0.000215355)
(-0.00150573 -0.000521387 0.000213949)
(-0.00155073 -0.00053282 0.000210708)
(-0.00159385 -0.000545541 0.000205891)
(-0.00163545 -0.000559204 0.000199525)
(-0.00167568 -0.000573533 0.000191461)
(-0.00171475 -0.000588266 0.000181374)
(-0.00175288 -0.000603179 0.000169122)
(-0.00179004 -0.00061791 0.000154146)
(-0.00182709 -0.000632156 0.00013655)
(-0.00186154 -0.000645387 0.000115752)
(-0.0018922 -0.000657036 8.9964e-05)
(-0.00191545 -0.000666374 5.70447e-05)
(-0.00192882 -0.000671543 1.90484e-05)
(-0.000129679 -2.11462e-06 4.79268e-05)
(-0.000190316 -2.91701e-05 -3.92238e-05)
(-0.000214757 -5.27238e-05 -4.88747e-05)
(-0.000230216 -8.05051e-05 -4.98871e-05)
(-0.000247426 -0.0001109 -4.6427e-05)
(-0.000277688 -0.000146117 -4.14948e-05)
(-0.000334529 -0.000190931 -3.54974e-05)
(-0.000415965 -0.000243224 -2.60381e-05)
(-0.000515015 -0.000297045 -9.24786e-06)
(-0.000627073 -0.000346785 1.54047e-05)
(-0.000744516 -0.000387086 4.53843e-05)
(-0.000859533 -0.000415308 7.72716e-05)
(-0.000968858 -0.000432994 0.000107983)
(-0.00106838 -0.000442224 0.000134976)
(-0.00115755 -0.00044658 0.000156942)
(-0.00123592 -0.000448862 0.000173418)
(-0.00130495 -0.000451434 0.000184844)
(-0.00136572 -0.000455373 0.000191927)
(-0.0014202 -0.00046118 0.000195536)
(-0.00147004 -0.000469041 0.000196479)
(-0.00151622 -0.00047855 0.000195285)
(-0.00155961 -0.000489378 0.000192265)
(-0.00160068 -0.000501198 0.000187482)
(-0.00163968 -0.000513734 0.000180794)
(-0.00167699 -0.000526709 0.000171901)
(-0.00171296 -0.000539863 0.000160714)
(-0.00174779 -0.000552859 0.000146691)
(-0.00178285 -0.000565447 0.000130145)
(-0.00181527 -0.000577183 0.000110598)
(-0.00184375 -0.000587474 8.61813e-05)
(-0.00186495 -0.000595834 5.46265e-05)
(-0.00187745 -0.00060023 1.8152e-05)
(-8.11512e-05 9.69192e-06 4.43931e-05)
(-0.000132503 -9.63039e-06 -3.13758e-05)
(-0.000154255 -2.76502e-05 -4.21736e-05)
(-0.000166688 -4.97431e-05 -4.39284e-05)
(-0.000181415 -7.36036e-05 -4.03321e-05)
(-0.000212028 -0.00010129 -4.0361e-05)
(-0.000249904 -0.000135718 -4.31947e-05)
(-0.000315732 -0.000181788 -4.00149e-05)
(-0.000413046 -0.000235639 -3.07641e-05)
(-0.000525935 -0.000287392 -1.36065e-05)
(-0.000645927 -0.000331211 1.12721e-05)
(-0.000767696 -0.000364243 4.06578e-05)
(-0.000883015 -0.000385076 7.09122e-05)
(-0.000990181 -0.000396742 9.92652e-05)
(-0.00108607 -0.000401875 0.000123635)
(-0.00117106 -0.000403966 0.000143195)
(-0.00124534 -0.000405341 0.000157833)
(-0.00131082 -0.000407717 0.000168095)
(-0.00136861 -0.000411636 0.000174594)
(-0.00142039 -0.000417447 0.00017808)
(-0.00146759 -0.000424978 0.000179136)
(-0.00151103 -0.00043391 0.000178079)
(-0.00155126 -0.000443916 0.000175008)
(-0.00158862 -0.000454725 0.000169787)
(-0.00162376 -0.00046602 0.000162133)
(-0.00165726 -0.000477567 0.000152048)
(-0.00168954 -0.000488994 0.000138993)
(-0.00172226 -0.000500035 0.000123518)
(-0.00175211 -0.000510323 0.000105258)
(-0.00177826 -0.000519427 8.22982e-05)
(-0.00179699 -0.000526942 5.21246e-05)
(-0.00180868 -0.000530616 1.71991e-05)
(-4.73489e-05 1.04914e-05 4.23515e-05)
(-9.4474e-05 -3.66381e-06 -2.07944e-05)
(-0.000117171 -1.402e-05 -3.16382e-05)
(-0.000128753 -2.84352e-05 -3.86857e-05)
(-0.000129959 -4.33463e-05 -4.70487e-05)
(-0.000127701 -6.87319e-05 -4.11745e-05)
(-0.000164957 -9.17841e-05 -3.34346e-05)
(-0.000226358 -0.000124624 -4.38788e-05)
(-0.000302155 -0.000170083 -4.70008e-05)
(-0.000411275 -0.000224078 -3.77649e-05)
(-0.000535108 -0.000272866 -1.95792e-05)
(-0.00066004 -0.000310292 5.52799e-06)
(-0.000783477 -0.000336407 3.41507e-05)
(-0.000897075 -0.00035097 6.28045e-05)
(-0.00100051 -0.000357974 8.91549e-05)
(-0.00109182 -0.000360296 0.000111556)
(-0.00117212 -0.000361031 0.000129507)
(-0.00124177 -0.000361846 0.000143019)
(-0.00130284 -0.000363964 0.000152609)
(-0.00135693 -0.000367901 0.000158906)
(-0.00140505 -0.000373507 0.000162404)
(-0.00144827 -0.000380588 0.000163459)
(-0.00148729 -0.000388849 0.000162217)
(-0.00152252 -0.000398021 0.000158528)
(-0.00155491 -0.000407743 0.000152133)
(-0.00158515 -0.000417726 0.000143125)
(-0.001614 -0.000427611 0.00013099)
(-0.00164405 -0.000437232 0.000116608)
(-0.00167102 -0.000446231 9.9694e-05)
(-0.00169413 -0.000454163 7.82695e-05)
(-0.00170985 -0.000461006 4.95019e-05)
(-0.00172055 -0.00046388 1.61629e-05)
(-1.92446e-05 1.90744e-05 2.82895e-05)
(-2.56687e-05 1.31514e-06 -3.9687e-05)
(-3.12884e-05 -1.83776e-05 -3.26697e-05)
(-3.2385e-05 -2.37339e-05 -2.38156e-05)
(-4.29012e-05 -2.96441e-05 -2.19471e-05)
(-4.9633e-05 -3.74451e-05 -2.1015e-05)
(-6.77817e-05 -4.32887e-05 -2.03341e-05)
(-0.000123739 -7.45789e-05 -2.99187e-05)
(-0.000205701 -0.000112503 -4.30056e-05)
(-0.000294751 -0.000157994 -5.32292e-05)
(-0.000412119 -0.000210242 -4.38373e-05)
(-0.000543169 -0.000255005 -2.53749e-05)
(-0.000669213 -0.000285447 -6.15042e-07)
(-0.000791031 -0.000305105 2.7114e-05)
(-0.000900746 -0.000314598 5.43723e-05)
(-0.00099864 -0.000318137 7.91456e-05)
(-0.00108386 -0.000318536 0.000100107)
(-0.00115838 -0.000318437 0.000116955)
(-0.00122269 -0.000319026 0.000129745)
(-0.00127839 -0.000321116 0.000138937)
(-0.00132712 -0.000324915 0.00014502)
(-0.00136982 -0.000330275 0.000148321)
(-0.00140723 -0.000336919 0.000149014)
(-0.00143986 -0.000344622 0.000146919)
(-0.00146909 -0.000352957 0.000141805)
(-0.00149593 -0.000361629 0.000133905)
(-0.00152152 -0.000370269 0.000122714)
(-0.00154822 -0.000378551 0.000109413)
(-0.00157188 -0.000386395 9.38943e-05)
(-0.00159188 -0.000393344 7.41286e-05)
(-0.00160418 -0.000399781 4.67742e-05)
(-0.00161411 -0.000401861 1.50352e-05)
(2.39856e-06 1.21147e-05 9.64168e-06)
(1.70301e-06 -3.59895e-06 -1.482e-05)
(9.11539e-07 -1.5055e-06 -1.43042e-05)
(-5.8205e-06 -3.28085e-06 -1.96119e-05)
(-1.47935e-05 -9.84186e-06 -1.46783e-05)
(-2.69204e-05 -8.14243e-06 -2.64531e-05)
(-2.77973e-05 -2.64267e-05 -3.74301e-05)
(-4.0422e-05 -6.47437e-05 -2.37194e-05)
(-7.13827e-05 -5.63795e-05 -3.00286e-06)
(-0.00018838 -9.40527e-05 -3.92143e-05)
(-0.000295081 -0.000142951 -5.79451e-05)
(-0.000413595 -0.000192715 -4.92643e-05)
(-0.000548373 -0.000234025 -3.07484e-05)
(-0.000672212 -0.000257789 -6.44167e-06)
(-0.000788569 -0.000271654 2.06453e-05)
(-0.000892032 -0.000277313 4.68974e-05)
(-0.00098322 -0.000278646 7.04812e-05)
(-0.00106119 -0.000277952 9.0333e-05)
(-0.00112831 -0.000277432 0.000106264)
(-0.00118598 -0.000278163 0.000118467)
(-0.00123507 -0.000280418 0.000127229)
(-0.00127683 -0.000284255 0.000132849)
(-0.00131219 -0.000289469 0.000135551)
(-0.00134164 -0.000295897 0.000135075)
(-0.00136705 -0.000303002 0.00013121)
(-0.00138945 -0.000310407 0.000124334)
(-0.00141038 -0.000317737 0.000113983)
(-0.00143406 -0.000324994 0.00010184)
(-0.00145385 -0.000331792 8.77612e-05)
(-0.00147015 -0.000337779 6.97931e-05)
(-0.00147821 -0.000344047 4.38666e-05)
(-0.00148731 -0.000345159 1.37667e-05)
(2.7828e-05 -9.97254e-07 3.05516e-05)
(1.55467e-05 1.30376e-05 2.63358e-05)
(3.10922e-06 3.15975e-05 1.92522e-06)
(-4.31579e-06 2.61427e-05 -1.94765e-05)
(-5.89059e-06 1.14371e-05 -3.39273e-05)
(-1.78175e-05 -9.17859e-06 -3.99034e-05)
(-1.96513e-05 -2.2779e-05 -3.50935e-05)
(-1.45218e-05 -2.42015e-05 -2.69109e-05)
(-3.24591e-05 -3.02069e-05 -2.4628e-05)
(-4.43331e-05 -2.97822e-05 -1.81746e-05)
(-0.00018331 -8.7356e-05 -4.40359e-05)
(-0.000318033 -0.000139103 -5.88313e-05)
(-0.000409509 -0.000174874 -5.31364e-05)
(-0.000544823 -0.00020972 -3.42924e-05)
(-0.000665728 -0.000228282 -1.02021e-05)
(-0.00077415 -0.000237549 1.61126e-05)
(-0.000868341 -0.000240295 4.12906e-05)
(-0.000950655 -0.000240324 6.37325e-05)
(-0.00102029 -0.000239415 8.25468e-05)
(-0.00107863 -0.000239105 9.75749e-05)
(-0.00112749 -0.000240172 0.000108977)
(-0.0011679 -0.000242814 0.000116927)
(-0.00120074 -0.000246849 0.000121672)
(-0.00122651 -0.000252261 0.000122818)
(-0.00124777 -0.000258388 0.000120175)
(-0.00126604 -0.000264828 0.000114348)
(-0.00128331 -0.000271294 0.000104908)
(-0.00130253 -0.000277437 9.38501e-05)
(-0.00131874 -0.000283462 8.13029e-05)
(-0.00133121 -0.000288556 6.53123e-05)
(-0.00133473 -0.000295076 4.08128e-05)
(-0.00134364 -0.000295123 1.23434e-05)
(2.98646e-05 1.11143e-05 2.80917e-05)
(3.38564e-05 5.17272e-06 -5.94632e-06)
(3.44166e-05 -8.49461e-07 -1.15368e-05)
(3.34296e-05 -8.21926e-06 -1.58314e-05)
(3.30609e-05 -1.4539e-05 -1.65783e-05)
(2.86698e-05 -1.72162e-05 -4.19194e-06)
(5.48815e-06 -1.5268e-06 8.91502e-06)
(-2.41e-05 3.26108e-05 -2.25643e-05)
(-1.10446e-05 -2.41319e-06 -3.7726e-05)
(-3.08531e-05 -2.20235e-05 -5.47579e-05)
(-5.47726e-05 -6.58895e-05 -5.93342e-05)
(-0.00013702 -0.000137814 -4.63137e-05)
(-0.000294507 -0.000131797 -2.97861e-05)
(-0.000408164 -0.00015388 -5.66195e-05)
(-0.000533297 -0.000184131 -3.59977e-05)
(-0.000645825 -0.000197715 -1.12754e-05)
(-0.000745395 -0.000204067 1.40406e-05)
(-0.000829064 -0.000205346 3.80268e-05)
(-0.000900045 -0.00020484 5.91615e-05)
(-0.000959459 -0.000204401 7.67931e-05)
(-0.00100768 -0.000204824 9.06917e-05)
(-0.00104612 -0.000206658 0.000100866)
(-0.0010759 -0.000209793 0.000107615)
(-0.00109734 -0.000214441 0.000110318)
(-0.00111376 -0.000219753 0.000108769)
(-0.00112647 -0.000225109 0.000103815)
(-0.001138 -0.000230436 9.51121e-05)
(-0.00115433 -0.000235993 8.5322e-05)
(-0.00116549 -0.000241094 7.42837e-05)
(-0.00117406 -0.000245197 6.05352e-05)
(-0.00117208 -0.000252283 3.74767e-05)
(-0.00118051 -0.000250819 1.0673e-05)
(4.28706e-05 1.2508e-05 3.93679e-05)
(5.90954e-05 9.76569e-06 -7.96037e-06)
(6.51329e-05 6.5157e-06 -1.57479e-05)
(6.69016e-05 -5.9552e-07 -2.01935e-05)
(6.5353e-05 -9.01711e-06 -2.18262e-05)
(5.97659e-05 -1.61099e-05 -2.09495e-05)
(4.40667e-05 -2.26253e-05 -1.91298e-05)
(2.20207e-05 -2.59691e-05 -2.42644e-05)
(2.45407e-05 -2.17222e-05 -3.16678e-05)
(-2.48505e-05 -2.86617e-05 -4.30616e-05)
(-3.91699e-05 -3.973e-05 -4.79274e-05)
(-6.53497e-05 -4.88354e-05 -4.14968e-05)
(-0.000132892 -6.22565e-05 -3.81845e-05)
(-0.000291528 -0.000102185 -6.18156e-05)
(-0.000402169 -0.000135532 -5.58129e-05)
(-0.000513688 -0.000158228 -3.44337e-05)
(-0.000611339 -0.000167599 -1.00918e-05)
(-0.000697989 -0.00017211 1.42757e-05)
(-0.000769764 -0.000173109 3.68263e-05)
(-0.00082785 -0.00017304 5.63673e-05)
(-0.000874345 -0.00017337 7.23637e-05)
(-0.000910203 -0.000174915 8.45017e-05)
(-0.000936498 -0.000177467 9.31268e-05)
(-0.000953116 -0.000181635 9.72696e-05)
(-0.000964614 -0.000186372 9.66892e-05)
(-0.000973055 -0.000190889 9.2652e-05)
(-0.000981139 -0.000195641 8.48568e-05)
(-0.000992034 -0.000200243 7.6187e-05)
(-0.00100028 -0.000204957 6.68379e-05)
(-0.00100503 -0.000207885 5.55946e-05)
(-0.000996661 -0.000215747 3.39337e-05)
(-0.00100693 -0.00021293 8.75635e-06)
(5.23862e-05 1.24336e-05 4.33446e-05)
(7.37796e-05 9.44641e-06 -7.17715e-06)
(8.36923e-05 5.80528e-06 -1.57888e-05)
(8.92606e-05 -1.45856e-06 -2.12344e-05)