/*--------------------------------*- C++ -*----------------------------------*\
  =========                 |
  \\      /  F ield         | OpenFOAM: The Open Source CFD Toolbox
   \\    /   O peration     | Website:  https://openfoam.org
    \\  /    A nd           | Version:  6
     \\/     M anipulation  |
\*---------------------------------------------------------------------------*/
FoamFile
{
    version     2.0;
    format      ascii;
    class       volScalarField;
    location    "15";
    object      yPlus;
}
// * * * * * * * * * * * * * * * * * * * * * * * * * * * * * * * * * * * * * //

dimensions      [0 0 0 0 0 0 0];

internalField   uniform 0;

boundaryField
{
    inlet
    {
        type            calculated;
        value           uniform 0;
    }
    outlet
    {
        type            calculated;
        value           uniform 0;
    }
    roughCylinder
    {
        type            calculated;
        value           nonuniform List<scalar> 
5120
(
43.5425
51.3643
57.5956
63.7236
69.0127
73.3021
76.7384
79.5156
81.7892
83.6939
85.3494
86.8317
88.1784
89.4235
90.5977
91.7315
92.8556
93.9983
95.183
96.427
97.7396
99.1234
100.575
102.088
103.652
105.254
106.877
108.5
110.082
111.556
112.77
113.49
42.8293
50.3672
56.3996
62.3875
67.6034
71.8579
75.2762
78.0453
80.3187
82.2296
83.8933
85.3793
86.7177
87.9487
89.1048
90.2174
91.3179
92.4356
93.5945
94.8112
96.0951
97.4488
98.8689
100.349
101.877
103.443
105.029
106.614
108.158
109.597
110.78
111.482
42.0461
49.3351
55.1798
61.0277
66.1697
70.392
73.7984
76.568
78.8519
80.7791
82.4569
83.9481
85.2824
86.5027
87.6425
88.7354
89.8141
90.9082
92.0413
93.231
94.4867
95.8107
97.1996
98.6466
100.141
101.671
103.22
104.767
106.274
107.677
108.83
109.512
41.2325
48.2873
53.945
59.6497
64.718
68.913
72.3143
75.0923
77.3953
79.3463
81.043
82.543
83.8789
85.09
86.2166
87.2923
88.3508
89.4221
90.532
91.6966
92.9252
94.2204
95.5789
96.9934
98.4541
99.9481
101.46
102.97
104.44
105.807
106.93
107.594
40.3769
47.2084
52.6773
58.2346
63.2296
67.4037
70.8106
73.6096
75.9434
77.9265
79.6471
81.1602
82.5016
83.7105
84.8275
85.8886
86.9294
87.9814
89.0681
90.2081
91.4109
92.6786
94.0079
95.3914
96.8194
98.2794
99.7561
101.229
102.662
103.995
105.089
105.735
39.5035
46.1141
51.3875
56.791
61.7134
65.8754
69.2989
72.1272
74.4969
76.5157
78.2644
79.796
81.1491
82.361
83.472
84.5224
85.5482
86.5812
87.6488
88.7672
89.9458
91.1872
92.4881
93.8414
95.2369
96.6626
98.104
99.5407
100.938
102.237
103.301
103.93
38.5856
44.9808
50.0526
55.2946
60.1428
64.2992
67.7513
70.623
73.042
75.1055
76.8882
78.4431
79.8113
81.0343
82.1476
83.1919
84.2065
85.2261
86.2744
87.3713
88.527
89.7435
91.0175
92.3419
93.7064
95.1
96.5073
97.9088
99.2708
100.537
101.573
102.184
37.6457
43.8215
48.6791
53.7465
58.518
62.6798
66.1773
69.104
71.5761
73.6881
75.5115
77.099
78.4933
79.7306
80.8514
81.8942
82.9021
83.9084
84.943
86.023
87.1579
88.3508
89.5986
90.8943
92.228
93.5885
94.9614
96.328
97.656
98.8886
99.8957
100.489
36.6382
42.599
47.234
52.1155
56.8041
60.9745
64.5282
67.5279
70.0758
72.2532
74.1266
75.7511
77.1713
78.4331
79.5705
80.6233
81.6299
82.6319
83.6528
84.7153
85.8309
87.0019
88.2251
89.4937
90.798
92.1276
93.4678
94.8001
96.0929
97.2943
98.2745
98.8504
35.5897
41.3238
45.7172
50.3869
54.9788
59.1685
62.8068
65.9026
68.5316
70.7792
72.7149
74.3928
75.8618
77.1536
78.3105
79.3721
80.3851
81.3834
82.398
83.4498
84.5487
85.6991
86.8983
88.1394
89.414
90.7101
92.0157
93.3132
94.5723
95.7405
96.6923
97.2505
34.4049
39.9278
44.0773
48.5241
53.0078
57.2123
60.9386
64.1517
66.9061
69.2605
71.276
73.014
74.5205
75.8522
77.0423
78.1313
79.1555
80.1612
81.1705
82.2105
83.2947
84.426
85.6023
86.8175
88.0627
89.3289
90.6022
91.8647
93.0887
94.2269
95.1518
95.692
33.1286
38.4359
42.3101
46.4847
50.8186
55.039
58.9044
62.2875
65.1771
67.6439
69.7605
71.5832
73.1758
74.5631
75.7905
76.8991
77.9424
78.9523
79.9644
81.0017
82.0741
83.1882
84.3425
85.5311
86.7462
87.9782
89.2145
90.4438
91.6335
92.7382
93.6337
94.1568
31.6108
36.7237
40.3215
44.2153
48.3877
52.6076
56.5877
60.1555
63.2717
65.9322
68.1873
70.1175
71.765
73.2105
74.4914
75.6519
76.7222
77.7554
78.7718
79.8027
80.8656
81.9642
83.0977
84.2615
85.4481
86.6502
87.8568
89.0472
90.2035
91.2782
92.1463
92.6507
29.9352
34.8539
38.1361
41.655
45.5511
49.7255
53.9174
57.7917
61.1405
64.0004
66.4411
68.5084
70.3084
71.8551
73.2046
74.3994
75.5066
76.5526
77.5827
78.6216
79.6787
80.764
81.8778
83.0155
84.1714
85.3371
86.5024
87.6622
88.78
89.8206
90.6584
91.1448
27.7494
32.5072
35.4747
38.6187
42.2567
46.3792
50.6591
54.8085
58.6242
61.8758
64.5731
66.8569
68.7468
70.3816
71.8101
73.0912
74.2459
75.3394
76.3881
77.4267
78.4806
79.5544
80.6498
81.7634
82.8902
84.0266
85.1636
86.2791
87.3665
88.3748
89.1846
89.6509
25.2345
29.9037
32.5688
35.2138
38.2839
42.1008
46.7068
51.4135
55.5752
59.2175
62.3201
64.8486
67.0309
68.8554
70.4148
71.7569
72.9768
74.0932
75.1676
76.2301
77.2868
78.3521
79.4294
80.5169
81.611
82.7067
83.7965
84.8822
85.9229
86.8979
87.6723
88.1203
21.3644
26.0024
28.2597
30.2635
32.8882
36.5957
41.0501
46.2435
51.6696
56.1865
59.7945
62.8154
65.163
67.1441
68.8219
70.3037
71.5987
72.8
73.9167
74.9851
76.0452
77.1037
78.1653
79.2281
80.2915
81.3572
82.4185
83.4527
84.468
85.4033
86.1512
86.5771
17.1673
22.2462
24.6094
26.5696
27.8501
30.4862
35.2645
40.7799
46.0822
51.6469
56.3486
59.8658
62.8704
65.228
67.1784
68.7788
70.1939
71.4335
72.5893
73.7068
74.7832
75.8394
76.8829
77.9182
78.9447
79.9625
80.9684
81.9702
82.9245
83.8293
84.5306
84.9347
7.33735
11.1017
10.5902
4.92876
11.4054
19.3109
12.8998
28.1066
39.4633
46.3695
52.143
57.0261
60.3282
63.0467
65.1925
67.0353
68.5694
69.9555
71.1964
72.3252
73.4114
74.4656
75.4981
76.5065
77.4971
78.4821
79.4558
80.3984
81.3334
82.1858
82.8632
83.2442
7.49503
10.5342
9.12146
15.3884
18.5962
17.9882
11.1809
20.8493
18.0488
36.5451
45.6972
51.4769
56.7041
60.2177
62.9993
65.0941
66.8733
68.3331
69.6322
70.8551
71.9821
73.044
74.0539
75.0302
75.976
76.9002
77.8075
78.7053
79.5573
80.38
80.9934
81.3437
11.9383
17.8386
19.8532
19.737
18.4035
13.3559
6.67884
19.0152
20.5617
14.0099
34.7739
47.1659
52.3792
57.0157
60.1729
62.7776
64.7517
66.4756
67.9422
69.1833
70.3262
71.3898
72.3995
73.3427
74.2405
75.1269
75.9905
76.8196
77.6629
78.4174
79.0048
79.3299
18.9874
23.2904
25.1845
26.2224
26.1822
25.0242
23.0435
15.4301
14.8142
20.8263
22.913
30.3442
45.4762
51.8303
56.7463
59.8614
62.4272
64.3182
65.89
67.3151
68.5486
69.642
70.6109
71.5121
72.3486
73.1461
73.9247
74.6815
75.3964
76.1067
76.6087
76.894
21.8561
26.8447
29.5799
31.6405
32.9325
33.2963
32.407
30.2164
25.3477
22.289
12.7678
18.9847
33.7894
46.1318
51.747
56.4157
59.2583
61.673
63.5794
65.0367
66.2963
67.3903
68.3872
69.2391
69.9978
70.7541
71.4665
72.1284
72.8782
73.5161
73.9667
74.1952
22.8078
27.8985
30.8353
33.2141
34.9975
36.1584
36.6346
36.2214
34.3846
29.952
23.9155
21.341
9.81454
33.8818
45.9244
50.8059
55.4776
58.3281
60.4861
62.3392
63.7961
64.9743
65.8772
66.6642
67.3198
67.9135
68.4982
69.04
69.5272
70.0444
70.3907
70.6163
22.3082
27.5348
30.6281
33.2226
35.2772
36.7811
37.7357
38.1379
37.8968
36.5703
32.8689
28.5219
14.0865
6.25351
32.2258
46.0443
49.9908
53.9932
56.8239
58.7121
60.2252
61.3885
62.3816
63.0786
63.5846
64.1527
64.6414
64.9809
65.7224
66.2287
66.4206
66.4294
20.851
26.2102
29.3911
32.11
34.3382
36.0738
37.3398
38.1787
38.6393
38.6904
37.8508
34.7245
27.3895
18.4776
20.4301
28.5657
42.4338
47.6313
51.3419
54.2514
56.1885
57.5682
58.3138
58.8773
59.1111
59.3144
59.5439
59.7653
59.7044
59.7628
59.8419
60.1706
18.8991
24.348
27.5525
30.3166
32.6306
34.5078
35.9766
37.0943
37.941
38.582
38.9446
38.3977
35.174
31.9885
23.4307
22.2214
29.0792
40.4291
44.6309
47.1913
49.3599
50.6423
51.5643
51.9725
52.1501
52.194
52.4581
52.0868
53.4888
54.071
53.5612
53.1128
16.682
22.1129
25.2443
27.9565
30.2675
32.2146
33.841
35.2043
36.3876
37.4695
38.4568
39.1357
38.6967
35.0397
27.9467
31.4715
21.4734
20.0508
33.274
39.4778
42.3386
43.9855
44.3531
44.4593
41.8593
42.6155
41.8904
43.2002
40.875
39.2483
37.8284
38.5095
14.4461
19.7226
22.6788
25.2387
27.4533
29.3827
31.0859
32.6265
34.079
35.5206
36.9769
38.3328
39.1858
38.4144
33.8042
34.2754
21.5866
20.3395
36.4673
22.6481
22.9927
27.5749
23.5376
23.5524
30.5466
20.2287
26.5872
46.783
28.7643
26.6152
26.281
40.6452
12.4659
17.4684
20.1749
22.5111
24.5611
26.4035
28.108
29.7405
31.3657
33.0478
34.8281
36.6536
38.2961
39.2233
38.4219
33.844
27.8427
28.3882
37.0013
16.876
27.3881
30.561
16.3478
26.3264
35.1673
22.9897
27.4677
46.1037
35.5665
35.5116
33.0328
41.8908
10.9313
15.5876
18.0259
20.1184
21.9779
23.6962
25.3466
26.9898
28.6779
30.4584
32.3773
34.4382
36.5402
38.3817
39.4084
38.5167
36.3707
31.1648
32.5179
25.0342
31.59
22.798
13.903
30.0506
34.5791
33.6868
36.2615
39.8347
41.3725
41.0426
30.6621
30.366
9.79419
14.2058
16.4146
18.3
19.9965
21.5992
23.1752
24.772
26.4264
28.1738
30.0548
32.1068
34.326
36.5785
38.5052
39.5175
39.584
38.0765
34.5525
31.4937
29.6515
28.2864
30.2768
31.6355
34.9832
35.8774
35.8201
37.8981
34.1093
34.8479
38.637
39.3606
9.18196
13.4006
15.4465
17.1953
18.79
20.3164
21.8258
23.3479
24.9058
26.527
28.2496
30.1235
32.1943
34.4535
36.7458
38.6891
39.9445
40.2615
39.5392
38.2464
37.2371
36.1181
39.8485
40.535
42.4162
42.1971
41.4868
43.3018
39.2163
39.3573
43.1509
44.0622
8.99137
13.1183
15.0898
16.7856
18.3474
19.8451
21.3107
22.7584
24.2014
25.6624
27.1775
28.7962
30.5774
32.5715
34.7686
37.0119
38.9902
40.3529
40.8692
40.7024
40.7115
40.1506
42.3736
42.7957
43.9737
43.3466
42.6711
43.7505
42.0497
41.6547
43.8691
44.6196
9.15057
13.2642
15.2339
16.9454
18.5288
20.0367
21.4841
22.8753
24.2192
25.5361
26.858
28.2272
29.697
31.3297
33.1796
35.2409
37.3758
39.3021
40.6273
41.2327
41.6185
41.4012
42.6694
42.9738
43.7097
43.0567
42.3273
42.8302
42.4124
41.8762
43.1886
43.7686
9.56382
13.7166
15.7337
17.5075
19.15
20.6971
22.1526
23.5147
24.791
26.001
27.1735
28.3434
29.552
30.8517
32.3044
33.9647
35.8267
37.7622
39.45
40.6038
41.3285
41.4499
42.0769
42.1593
42.463
41.7995
41.0388
41.1244
41.3157
40.8194
41.5865
42.1015
10.1757
14.3981
16.4867
18.3444
20.0633
21.6646
23.1447
24.5004
25.7406
26.8857
27.9617
28.9966
30.0197
31.0677
32.1898
33.4439
34.8747
36.466
38.0507
39.3632
40.2814
40.6255
40.9144
40.8078
40.7846
40.1176
39.379
39.2154
39.6106
39.2857
39.8051
40.328
10.9337
15.2534
17.4269
19.3764
21.1752
22.8338
24.3451
25.7081
26.9352
28.0494
29.0749
30.0339
30.9451
31.8303
32.7215
33.6619
34.6996
35.8612
37.0911
38.2302
39.1074
39.5232
39.6485
39.4305
39.1907
38.5506
37.8907
37.6227
38.0345
37.9527
38.403
38.9662
11.7517
16.2357
18.5032
20.5458
22.4224
24.1365
25.6811
27.0596
28.2898
29.3972
30.4054
31.3324
32.189
32.9857
33.7392
34.4752
35.2289
36.0322
36.8797
37.6995
38.3647
38.7059
38.7213
38.4375
38.0711
37.4708
36.905
36.6309
37.0145
37.1722
37.6585
38.2631
12.7094
17.3148
19.6758
21.8096
23.7602
25.527
27.1055
28.5049
29.7488
30.8657
31.8785
32.802
33.6417
34.4011
35.0866
35.7093
36.2888
36.8476
37.395
37.9059
38.3075
38.4866
38.3873
38.0428
37.5989
37.0323
36.5493
36.3211
36.6865
37.0442
37.6083
38.2404
13.4335
13.8395
14.3172
14.7044
15.0836
15.3887
15.657
15.8674
16.0384
16.1616
16.2476
16.2947
16.3069
16.2849
16.2329
16.1534
16.0484
15.923
15.7881
15.674
15.6757
15.7911
15.9268
16.0529
16.1586
16.2388
16.2915
16.3142
16.3028
16.2565
16.1711
16.0486
15.878
15.6679
15.3996
15.0941
14.7142
14.3253
13.8456
13.4361
18.163
18.5843
19.0814
19.4862
19.883
20.2088
20.4995
20.7344
20.9311
21.0818
21.196
21.2721
21.3129
21.318
21.2898
21.2297
21.1388
21.0208
20.886
20.7666
20.7685
20.8897
21.0255
21.1442
21.2359
21.2967
21.3257
21.3214
21.2813
21.2059
21.0924
20.9421
20.7456
20.5108
20.2198
19.8932
19.4952
19.0883
18.5886
18.1631
20.5996
21.0463
21.5736
22.0041
22.4291
22.7851
23.11
23.382
23.6189
23.8128
23.9718
24.0944
24.1826
24.2343
24.2499
24.2298
24.1741
24.0851
23.9719
23.8656
23.8676
23.9758
24.0901
24.1801
24.2367
24.2578
24.2431
24.1922
24.1049
23.9831
23.8247
23.6312
23.3945
23.1224
22.7971
22.4402
22.0138
21.5809
21.0508
20.5997
22.7924
23.2593
23.81
24.2604
24.7099
25.093
25.4497
25.7571
26.033
26.2697
26.4733
26.642
26.7773
26.8761
26.9367
26.9582
26.94
26.8837
26.7982
26.7142
26.7161
26.8023
26.8891
26.9466
26.9659
26.9455
26.8859
26.7882
26.6539
26.4861
26.2831
26.0469
25.7711
25.4634
25.1063
24.7221
24.271
23.8181
23.2643
22.7929
24.7824
25.2548
25.8142
26.2716
26.7331
27.1314
27.5081
27.84
28.1439
28.413
28.6526
28.8593
29.0334
29.1711
29.2696
29.3267
29.341
29.3139
29.2547
29.1934
29.1951
29.2589
29.3195
29.3479
29.3349
29.279
29.1818
29.0454
28.8724
28.6666
28.4279
28.1591
27.8553
27.5232
27.1458
26.7462
26.283
25.8228
25.2602
24.7832
26.5707
27.0325
27.5866
28.039
28.5011
28.9046
29.292
29.6407
29.9671
30.2631
30.5328
30.7718
30.979
31.1498
31.2808
31.3685
31.4108
31.4091
31.3725
31.3291
31.3307
31.3766
31.4148
31.4181
31.3772
31.2909
31.1613
30.9917
30.7857
30.5479
30.279
29.9834
29.6572
29.3081
28.9199
28.5149
28.0509
27.5955
27.038
26.5713
28.1581
28.5979
29.139
29.5807
30.0387
30.4446
30.8418
31.2071
31.5545
31.8755
32.1727
32.441
32.678
32.8786
33.0382
33.1527
33.2192
33.2387
33.2201
33.1895
33.191
33.2242
33.2446
33.2267
33.1617
33.0488
32.8905
32.6915
32.4558
32.1887
31.8923
31.5718
31.2246
30.859
30.4608
30.0531
29.593
29.148
28.6032
28.1581
29.5604
29.9738
30.5011
30.9329
31.3894
31.8021
32.211
32.5938
32.9619
33.3067
33.6294
33.9245
34.1884
34.4153
34.6
34.7375
34.8244
34.861
34.8558
34.8336
34.8351
34.8599
34.8669
34.8321
34.7468
34.6109
34.4277
34.2024
33.9399
33.6462
33.3244
32.9801
32.6121
32.2291
31.819
31.4045
30.9457
30.5102
29.9788
29.5595
30.8064
31.1947
31.7116
32.1387
32.5982
33.0201
33.442
33.8419
34.2293
34.596
34.9416
35.2603
35.5476
35.7971
36.003
36.1597
36.2629
36.3127
36.3169
36.2998
36.3013
36.321
36.3187
36.2707
36.1691
36.0142
35.81
35.562
35.2763
34.959
34.6143
34.2483
33.8609
33.4607
33.0376
32.6138
32.1517
31.7207
31.1991
30.8044
31.9268
32.2926
32.8033
33.2298
33.6936
34.1252
34.5594
34.9748
35.3794
35.7649
36.1301
36.4688
36.7756
37.0438
37.267
37.4388
37.5548
37.6143
37.6249
37.6105
37.6122
37.6291
37.6206
37.5629
37.4486
37.2785
37.0571
36.7906
36.4854
36.1482
35.7839
35.399
34.9945
34.5787
34.1432
33.7097
33.2429
32.812
32.2967
31.9237
32.9433
33.2883
33.7946
34.221
34.6892
35.1294
35.5743
36.0028
36.4221
36.8234
37.2047
37.5595
37.882
38.1652
38.4019
38.5856
38.7112
38.7778
38.7927
38.7798
38.7814
38.797
38.7843
38.7196
38.5956
38.4138
38.179
37.8976
37.5766
37.2232
36.8429
36.4423
36.0232
35.594
35.1477
34.7053
34.234
33.8031
33.2914
32.9386
33.8677
34.1903
34.6913
35.1169
35.5886
36.0359
36.4897
36.9295
37.3607
37.7748
38.1693
38.5371
38.8722
39.167
39.4143
39.6071
39.7403
39.8126
39.8311
39.8198
39.8216
39.8357
39.8193
39.7489
39.6176
39.4267
39.1813
38.8883
38.5548
38.1884
37.795
37.3814
36.9503
36.5098
36.0545
35.6047
35.1297
34.699
34.1923
33.8609
34.7024
34.9996
35.4931
35.9167
36.3907
36.844
37.3055
37.7547
38.1959
38.6207
39.0257
39.404
39.749
40.0531
40.3087
40.5088
40.6483
40.7261
40.7491
40.741
40.7428
40.7539
40.7331
40.6574
40.5199
40.3217
40.0681
39.7659
39.4226
39.0456
38.6416
38.2173
37.776
37.326
36.8628
36.4066
35.929
35.4999
35
34.6929
35.4465
35.7138
36.1968
36.6173
37.0926
37.5514
38.0197
38.4772
38.9272
39.361
39.775
40.1617
40.5147
40.8259
41.0882
41.2944
41.4398
41.5234
41.5525
41.5495
41.5514
41.5575
41.5308
41.4495
41.3062
41.102
40.8418
40.5323
40.1811
39.7957
39.3828
38.9494
38.4991
38.0406
37.5701
37.1084
36.6288
36.2023
35.712
35.4337
36.101
36.3306
36.799
37.2146
37.6907
38.1545
38.6294
39.095
39.5531
39.9951
40.4168
40.8107
41.1702
41.4876
41.7554
41.9671
42.1183
42.2084
42.2451
42.2487
42.2506
42.2504
42.2164
42.1287
41.9798
41.7703
41.5045
41.1891
40.8313
40.4387
40.0179
39.5761
39.1175
38.6505
38.1732
37.7058
37.2249
36.8026
36.3259
36.084
36.6676
36.8471
37.2953
37.7037
38.1797
38.6485
39.1303
39.6041
40.0704
40.5202
40.9492
41.3497
41.7151
42.0377
42.3105
42.5274
42.6844
42.7817
42.8267
42.8373
42.8393
42.8323
42.7904
42.6958
42.5413
42.3267
42.056
41.7353
41.3717
40.9723
40.5441
40.0941
39.6271
39.1516
38.667
38.194
37.7123
37.296
36.8381
36.645
37.153
37.2623
37.6805
38.0781
38.5524
39.0263
39.5153
39.9976
40.4725
40.9306
41.3668
41.7737
42.1447
42.4723
42.75
42.972
43.135
43.2394
43.2927
43.3099
43.3121
43.2987
43.2489
43.1474
42.9872
42.7677
42.4923
42.1666
41.7973
41.3914
40.9557
40.4972
40.0212
39.5366
39.0441
38.5652
38.0841
37.6769
37.2476
37.1239
37.5658
37.575
37.9465
38.3289
38.7991
39.2778
39.7741
40.2659
40.7498
41.2167
41.6606
42.0743
42.451
42.7837
43.0662
43.2934
43.4621
43.5736
43.6344
43.6574
43.6597
43.641
43.584
43.4758
43.3101
43.0856
42.8055
42.4747
42.0995
41.6867
41.2429
40.7754
40.2896
39.7951
39.2944
38.8096
38.3314
37.9378
37.554
37.5299
37.9144
37.7874
38.0878
38.4446
38.9083
39.3905
39.8945
40.396
40.89
41.3662
41.8185
42.2394
42.6223
42.9605
43.2481
43.4804
43.6549
43.7729
43.8403
43.8681
43.8706
43.8475
43.7842
43.67
43.4987
43.2693
42.9841
42.6478
42.2662
41.8459
41.3933
40.9159
40.4196
39.9143
39.4048
38.9148
38.4408
38.0712
37.7575
37.8695
38.1981
37.9006
38.1025
38.4179
38.8686
39.3533
39.8641
40.3756
40.8799
41.3662
41.8275
42.2563
42.646
42.9901
43.2831
43.5206
43.7006
43.8243
43.8974
43.9292
43.9319
43.9052
43.8366
43.7169
43.5404
43.3058
43.0153
42.6729
42.2843
41.8558
41.3936
40.9055
40.3979
39.8814
39.3634
38.8684
38.4054
38.0753
37.8581
38.1376
38.3784
37.9006
37.9873
38.2466
38.6754
39.1602
39.6762
40.197
40.7112
41.2075
41.6779
42.1149
42.5115
42.8617
43.1602
43.4028
43.5878
43.7166
43.7944
43.8292
43.8321
43.8026
43.7297
43.6051
43.4236
43.1839
42.8878
42.5391
42.1431
41.7059
41.234
40.7349
40.2164
39.6891
39.1635
38.6664
38.2235
37.9469
37.8431
38.3001
38.3984
37.7611
37.7352
37.9323
38.3316
38.8114
39.3332
39.8618
40.385
40.8902
41.369
41.8134
42.2166
42.5724
42.8758
43.1229
43.312
43.4447
43.5258
43.5629
43.5659
43.5344
43.4582
43.3297
43.1439
42.8994
42.598
42.2433
41.8401
41.3947
40.9136
40.4045
39.8756
39.3387
38.8051
38.3113
37.8961
37.6799
37.6856
38.2963
38.184
37.4514
37.3481
37.4936
37.8646
38.3354
38.8595
39.3925
39.9216
40.4328
40.9173
41.3669
41.7747
42.1343
42.4409
42.6908
42.8824
43.0172
43.0999
43.1381
43.141
43.1082
43.0301
42.8991
42.7104
42.4626
42.1571
41.7975
41.3889
40.937
40.4488
39.932
39.3951
38.8505
38.3128
37.8263
37.4382
37.2736
37.3614
38.0771
37.7806
37.0022
36.8571
36.9675
37.3154
37.7746
38.296
38.8317
39.3628
39.8762
40.3626
40.8137
41.2226
41.583
41.8898
42.1395
42.3306
42.4646
42.5466
42.5843
42.5869
42.5539
42.4756
42.3442
42.1548
41.9058
41.5987
41.2371
40.8258
40.3707
39.8787
39.3576
38.8163
38.2666
37.7293
37.2532
36.8884
36.7613
36.8981
37.6723
37.2537
36.4757
36.324
36.4198
36.7545
37.2035
37.7193
38.2522
38.7802
39.2907
39.7739
40.2217
40.627
40.9834
41.286
41.5314
41.718
41.8474
41.9252
41.9602
41.9621
41.9304
41.8545
41.7258
41.5388
41.292
40.9867
40.6267
40.2166
39.7625
39.2714
38.7506
38.21
37.6606
37.1275
36.6616
36.3139
36.2103
36.3732
37.1813
36.7168
35.9765
35.8457
35.9462
36.2776
36.7192
37.2265
37.7514
38.271
38.7729
39.2473
39.686
40.0821
40.4293
40.7227
40.9586
41.1358
41.2559
41.3252
41.3542
41.3551
41.3268
41.2567
41.1342
40.9535
40.7128
40.4137
40.0595
39.6554
39.2071
38.7218
38.2068
37.6719
37.1283
36.6026
36.1453
35.8047
35.7043
35.8581
36.6462
36.4371
35.7007
35.5743
35.6731
35.9969
36.427
36.9205
37.4305
37.9359
38.4237
38.8841
39.3088
39.6908
40.0241
40.3038
40.5259
40.6891
40.7953
40.8514
40.8715
40.8713
40.8496
40.7895
40.6777
40.5075
40.2772
39.9885
39.6449
39.2514
38.814
38.3395
37.8354
37.3116
36.7794
36.2643
35.8148
35.4759
35.3669
35.4929
36.233
36.3545
35.6599
35.5593
35.6694
35.9912
36.4103
36.8865
37.3762
37.8621
38.3305
38.7717
39.1776
39.5412
39.8567
40.1188
40.324
40.4703
40.5593
40.5986
40.606
40.6052
40.5945
40.5491
40.4522
40.2967
40.0812
39.8076
39.4796
39.102
38.6807
38.2224
37.7346
37.2268
36.7111
36.2089
35.7658
35.4229
35.2955
35.3839
36.0671
36.6687
36.0219
35.9409
36.0439
36.345
36.733
37.174
37.6301
38.0856
38.526
38.9412
39.3229
39.6641
39.9586
40.2015
40.3887
40.518
40.5899
40.6118
40.6048
40.6047
40.6092
40.5819
40.503
40.3652
40.168
39.9135
39.6056
39.2489
38.8493
38.4136
37.9496
37.4669
36.9791
36.5028
36.0816
35.7556
35.6395
35.7339
36.4252
37.034
36.4987
36.4802
36.6037
36.9016
37.269
37.6813
38.108
38.5343
38.9467
39.3353
39.6921
40.0102
40.2838
40.5079
40.6782
40.7923
40.85
40.8576
40.8373
40.8379
40.8583
40.8495
40.7894
40.6715
40.4958
40.2645
39.9815
39.6516
39.2804
38.8744
38.4419
37.9921
37.5389
37.0974
36.7031
36.3893
36.2646
36.3168
36.926
37.8226
37.2335
37.1762
37.259
37.5188
37.8489
38.2297
38.6287
39.0303
39.4199
39.7877
40.1255
40.4265
40.6849
40.8958
41.0549
41.1596
41.2095
41.2101
41.1838
41.1878
41.222
41.2287
41.185
41.0852
40.9291
40.7192
40.4592
40.1535
39.8079
39.4287
39.0236
38.6021
38.1775
37.7649
37.3943
37.0926
36.9662
36.9943
37.5619
38.2319
37.6881
37.6519
37.7365
37.9875
38.3021
38.6661
39.0471
39.4306
39.8028
40.1543
40.4768
40.7638
41.0097
41.2094
41.3591
41.4559
41.4993
41.4945
41.4632
41.4652
41.5031
41.5162
41.4805
41.39
41.2448
41.0471
40.8006
40.51
40.1807
39.8193
39.4337
39.0336
38.6331
38.2477
37.9097
37.6413
37.5483
37.6041
38.1957
43.5409
51.3635
57.5954
63.7238
69.0132
73.3024
76.7386
79.5156
81.7888
83.6931
85.3481
86.8301
88.1765
89.421
90.5947
91.7281
92.8516
93.9936
95.1775
96.4206
97.7322
99.1148
100.566
102.077
103.639
105.239
106.86
108.48
110.06
111.529
112.741
113.457
42.8299
50.3682
56.4006
62.3885
67.6041
71.8583
75.2763
78.0452
80.3184
82.2291
83.8928
85.3784
86.7162
87.9468
89.1023
90.2142
91.3141
92.431
93.5892
94.8049
96.0877
97.4401
98.8586
100.337
101.864
103.428
105.012
106.594
108.136
109.568
110.75
111.447
42.047
49.3363
55.1814
61.0297
66.1716
70.3938
73.7998
76.5691
78.8526
80.7793
82.4564
83.9469
85.2808
86.5007
87.64
88.7323
89.8103
90.9037
92.0358
93.2246
94.4792
95.8019
97.1894
98.6347
100.127
101.655
103.203
104.746
106.25
107.647
108.798
109.476
41.2315
48.2875
53.9458
59.6507
64.719
68.9139
72.3151
75.0929
77.3956
79.3465
81.0431
82.5429
83.8783
85.0887
86.2146
87.2896
88.3473
89.4179
90.5269
91.6904
92.9177
94.2115
95.5684
96.9816
98.4402
99.9325
101.443
102.949
104.416
105.777
106.898
107.557
40.3823
47.2134
52.6826
58.2401
63.2345
67.4079
70.8139
73.6121
75.9455
77.928
79.6478
81.1599
82.5006
83.709
84.8255
85.886
86.926
87.9771
89.0628
90.2017
91.4033
92.6695
93.9972
95.3792
96.8051
98.263
99.7381
101.208
102.638
103.963
105.055
105.696
39.5
46.1125
51.3869
56.7911
61.7139
65.8765
69.3007
72.1293
74.4986
76.5169
78.2653
79.7968
81.1494
82.3604
83.4705
84.5199
85.5451
86.5772
87.6439
88.7612
89.9382
91.1779
92.477
93.8284
95.2222
96.6464
98.0854
99.5184
100.913
102.204
103.267
103.889
38.5966
44.9913
50.0635
55.3055
60.1529
64.3076
67.7574
70.6272
73.0452
75.1084
76.8904
78.4443
79.8115
81.0337
82.1464
83.1901
84.2037
85.2223
86.2693
87.3649
88.5193
89.7341
91.0063
92.3286
93.6914
95.0826
96.4884
97.8867
99.2451
100.502
101.537
102.142
37.6411
43.8188
48.6773
53.7453
58.5174
62.6803
66.1796
69.1084
71.5808
73.6917
75.5139
77.1004
78.4939
79.7304
80.8503
81.8921
82.8993
83.9046
84.9381
86.017
87.1501
88.3411
89.5868
90.8807
92.2127
93.5712
94.9417
96.3043
97.6288
98.8521
99.8583
100.445
36.6535
42.6147
47.2511
52.1333
56.8217
60.9902
64.54
67.5348
70.0794
72.2563
74.1299
75.7543
77.1739
78.4349
79.5711
80.6229
81.628
82.6289
83.6485
84.7089
85.8229
86.992
88.213
89.4795
90.7819
92.1091
93.4478
94.7762
96.0659
97.256
98.2348
98.804
35.5891
41.3242
45.7177
50.3871
54.9781
59.1676
62.808
65.909
68.5418
70.7884
72.721
74.3959
75.8625
77.1528
78.3088
79.3697
80.3824
81.3797
82.3928
83.444
84.5407
85.6886
86.8852
88.1247
89.3971
90.6922
91.9949
93.288
94.5428
95.6998
96.6499
97.2007
34.4213
39.946
44.0984
48.5485
53.0352
57.2408
60.9635
64.1659
66.9102
69.2619
71.2787
73.0186
74.5264
75.858
77.0466
78.1337
79.1553
80.1595
81.1675
82.2042
83.2862
84.4152
85.5887
86.8015
88.0448
89.3084
90.5807
91.8388
93.0598
94.1839
95.1063
95.639
33.1405
38.4481
42.3214
46.4932
50.8216
55.0351
58.8984
62.2925
65.1949
67.6636
69.7751
71.591
73.1775
74.5607
75.7868
76.8953
77.9393
78.9484
79.9585
80.9958
82.0657
83.1764
84.3273
85.5144
86.7277
87.9586
89.1922
90.4167
91.6009
92.6911
93.5854
94.099
31.6272
36.7424
40.3447
44.2454
48.4275
52.6584
56.6422
60.1894
63.2786
65.9284
68.1849
70.1207
71.7735
73.222
74.502
75.6594
76.7252
77.7557
78.771
79.7968
80.8563
81.9517
83.0817
84.2426
85.4275
86.627
87.8336
89.0192
90.1713
91.2282
92.0931
92.5884
29.9705
34.8896
38.1717
41.6862
45.5708
49.7253
53.8979
57.791
61.1718
64.0423
66.4765
68.5285
70.3145
71.8512
73.1967
74.3919
75.502
76.5487
77.5759
78.6154
79.6699
80.7504
81.8591
82.996
84.1499
85.3151
86.477
87.6325
88.7444
89.7635
90.6018
91.077
27.7727
32.5316
35.5032
38.6557
42.306
46.4485
50.7585
54.8739
58.6327
61.8553
64.5465
66.848
68.7537
70.399
71.8305
73.1082
74.2548
75.3427
76.3899
77.4217
78.4702
79.5394
80.6295
81.7399
82.866
83.9998
85.1389
86.2476
87.3286
88.3166
89.1191
89.5751
25.3138
29.9827
32.6503
35.2991
38.3876
42.2128
46.7399
51.4557
55.6585
59.3183
62.4269
64.9081
67.0527
68.853
70.3999
71.741
72.9688
74.0895
75.1612
76.2241
77.2771
78.3355
79.4044
80.4928
81.5849
82.6807
83.7663
84.8499
85.8844
86.8259
87.6034
88.0382
21.4172
26.081
28.3711
30.4084
32.9329
36.4864
41.0844
46.2461
51.6421
56.1196
59.6576
62.7489
65.1506
67.1622
68.8569
70.3387
71.6177
72.8083
73.921
74.9812
76.0335
77.0846
78.1378
79.1975
80.262
81.3259
82.3928
83.417
84.4225
85.3336
86.0695
86.4808
16.7491
21.9669
24.368
26.2341
28.2507
31.574
35.623
41.4827
46.4507
51.9041
56.7335
60.0702
62.9477
65.2402
67.1518
68.7435
70.1803
71.4301
72.5865
73.7022
74.7717
75.8168
76.8453
77.8864
78.9108
79.9295
80.9312
81.9344
82.8807
83.7363
84.4402
84.8325
5.21665
11.9703
13.8404
13.1258
11.1109
7.89261
18.2905
25.486
39.2465
46.3453
51.5613
56.7313
60.2314
63.0451
65.2505
67.1075
68.6038
69.9727
71.2027
72.3223
73.3984
74.4407
75.4587
76.4638
77.4605
78.445
79.428
80.3574
81.2794
82.0967
82.7588
83.1157
6.6726
10.7496
11.4839
11.0461
5.89548
17.0355
20.4031
20.6289
22.5915
37.3486
47.241
52.2251
56.9742
60.28
62.948
65.0172
66.8551
68.3323
69.639
70.8558
71.9673
73.0082
73.9858
74.9843
75.9291
76.8558
77.7614
78.6652
79.5026
80.2588
80.8615
81.2083
11.4808
15.9232
17.3439
18.0795
17.4048
13.9659
17.4508
23.8335
25.9306
22.7908
34.3422
46.1207
51.9582
56.9494
60.2854
62.9203
64.8056
66.5077
67.9517
69.1807
70.3113
71.3569
72.3403
73.2772
74.1934
75.0799
75.9569
76.7732
77.6004
78.2891
78.8623
79.1495
19.6725
24.0204
25.7208
26.2264
25.689
24.241
22.1291
18.9716
21.6383
23.0896
25.3884
33.0743
46.4243
51.9561
56.5825
59.7195
62.425
64.3316
65.9188
67.3305
68.5278
69.5745
70.4606
71.4385
72.2786
73.0834
73.8681
74.6356
75.3222
75.9505
76.4006
76.6911
21.5264
26.4946
29.1291
30.9816
31.8947
31.6438
29.9444
26.8027
24.3606
23.7477
21.2018
12.3793
32.3243
46.2327
52.13
56.6424
59.3114
61.7311
63.6003
65.0335
66.2767
67.3441
68.2943
69.1235
69.9363
70.686
71.4184
72.0858
72.7955
73.2954
73.7285
73.9226
22.4241
27.475
30.339
32.6073
34.2329
35.1712
35.3136
34.3788
31.7776
28.3225
25.3854
15.125
7.64419
32.1771
45.0131
50.7634
55.6388
58.401
60.5689
62.3965
63.7691
64.8287
65.4735
66.5271
67.2086
67.8217
68.4238
68.9803
69.4343
69.8479
70.0501
70.2387
21.9558
27.1566
30.2021
32.7299
34.6977
36.091
36.9099
37.1558
36.7479
35.2561
31.8182
27.5357
20.1739
15.0598
34.186
45.5738
49.8013
54.1046
56.8944
58.7008
60.1843
61.3047
62.2411
62.838
63.5071
64.0214
64.5656
65.046
65.5351
65.7703
65.8963
65.9273
20.619
25.9545
29.1067
31.7915
33.9769
35.6582
36.8508
37.5851
37.8971
37.7705
36.8087
33.3813
29.8093
24.6883
18.8025
31.2672
43.6456
47.974
51.5693
54.4463
56.1893
57.2172
56.9337
58.5382
58.962
59.1995
59.406
59.5866
59.6648
59.5102
59.4076
59.1392
18.7707
24.1988
27.3857
30.1327
32.4277
34.2821
35.7228
36.8017
37.587
38.1251
38.3305
37.6047
34.0879
32.2249
23.139
32.3037
31.1001
40.3962
44.8677
47.0544
49.1716
50.4918
51.9007
51.6314
51.8979
51.7157
52.4296
53.5475
52.398
52.9639
52.2096
51.3521
16.6187
22.0342
25.1551
27.8577
30.1588
32.0937
33.7041
35.0462
36.1979
37.2314
38.1454
38.7198
38.1853
34.8272
26.4613
30.4915
35.3658
25.6217
34.2871
40.3549
42.7727
42.7642
36.0156
41.6202
43.3899
42.6565
40.9786
39.5038
41.0805
36.8075
39.825
32.9656
14.413
19.6797
22.6302
25.1854
27.3955
29.3197
31.0162
32.5476
33.988
35.4109
36.8386
38.1588
39.001
38.4281
34.5843
28.6166
29.7284
11.5999
11.1476
11.0189
20.422
30.7092
35.3396
32.9428
23.157
16.4534
26.6079
39.7925
20.4315
31.937
43.5372
13.1489
12.4559
17.452
20.1555
22.4899
24.5386
26.3797
28.0824
29.7119
31.3331
33.0108
34.7842
36.597
38.2257
39.1813
38.6081
33.9892
28.3465
23.3415
22.1624
9.77919
27.6405
38.8854
36.6171
39.0936
29.2364
6.10549
28.7291
42.2333
23.3311
34.5574
42.3146
4.8801
10.9416
15.5954
18.0333
20.1265
21.9873
23.7068
25.3582
27.0016
28.6891
30.469
32.3859
34.4402
36.5204
38.3056
39.2385
38.2692
34.9149
30.0931
32.6751
20.4631
13.8701
31.0217
41.7677
36.955
33.5948
31.5744
35.1337
34.7644
38.12
34.9256
34.3021
37.1925
9.82076
14.2346
16.446
18.3344
20.0342
21.6397
23.2181
24.8168
26.473
28.2225
30.1062
32.1593
34.3705
36.5861
38.4211
39.2423
38.8369
36.783
33.3574
31.4113
25.8658
24.3593
46.4337
35.2353
31.591
36.9753
36.2454
34.2147
37.4077
38.7744
35.4722
45.7746
9.21619
13.4406
15.4908
17.2438
18.8425
20.3722
21.8844
23.4095
24.9708
26.5965
28.3253
30.2072
32.2842
34.5361
36.7867
38.6202
39.6521
39.7561
38.4529
38.9338
37.6419
38.3207
42.523
40.8502
39.3207
41.9879
41.9891
41.5552
40.8331
41.2428
40.1192
47.1239
9.02638
13.1607
15.1368
16.8368
18.402
19.9025
21.3708
22.8217
24.2691
25.7363
27.26
28.8901
30.6848
32.6905
34.8854
37.0866
38.9589
40.1418
40.4548
41.1528
40.9416
41.4472
42.9583
42.6895
41.454
42.544
42.9784
43.1362
42.0173
41.5348
41.6036
46.0259
9.18249
13.3035
15.2771
16.9916
18.5772
20.0869
21.5364
22.9307
24.2792
25.6025
26.9331
28.3137
29.7978
31.4463
33.3082
35.3615
37.4482
39.2527
40.4726
41.4854
41.7779
42.173
42.4432
42.563
41.7873
42.0685
42.5687
42.7969
41.8729