/*--------------------------------*- C++ -*----------------------------------*\
  =========                 |
  \\      /  F ield         | OpenFOAM: The Open Source CFD Toolbox
   \\    /   O peration     | Website:  https://openfoam.org
    \\  /    A nd           | Version:  6
     \\/     M anipulation  |
\*---------------------------------------------------------------------------*/
FoamFile
{
    version     2.0;
    format      ascii;
    class       volScalarField;
    location    "1.6";
    object      yPlus;
}
// * * * * * * * * * * * * * * * * * * * * * * * * * * * * * * * * * * * * * //

dimensions      [0 0 0 0 0 0 0];

internalField   uniform 0;

boundaryField
{
    inlet
    {
        type            calculated;
        value           uniform 0;
    }
    outlet
    {
        type            calculated;
        value           uniform 0;
    }
    roughCylinder
    {
        type            calculated;
        value           nonuniform List<scalar> 
5120
(
17.911
25.5282
38.3853
41.9157
44.7648
45.8482
46.4992
46.6172
46.7554
46.7682
47.034
47.2672
47.2633
47.0757
46.7265
46.1522
45.5566
45.0577
44.4397
43.4444
42.8478
42.1196
42.5014
43.7942
43.7772
42.6286
42.1382
41.6414
40.6148
40.4901
39.9465
39.6556
12.4255
28.546
37.7335
41.77
44.6578
45.9053
46.6051
46.6879
46.8326
46.9798
47.2821
47.3392
47.3159
47.123
46.846
46.3905
45.911
45.4175
44.7744
43.8039
43.069
42.3654
42.8727
44.196
44.1914
43.0118
42.5137
42.0896
41.1064
41.0054
40.4779
40.2156
18.2256
25.868
37.7794
41.6967
44.5896
45.8388
46.5628
46.8133
47.1253
47.2701
47.4721
47.583
47.512
47.3239
47.0608
46.6621
46.268
45.839
45.1506
44.0638
43.3406
42.9552
43.466
44.6414
44.6507
43.5523
43.0819
42.7149
41.7803
41.6789
41.1634
40.9173
38.9626
27.7418
37.2131
41.4848
44.4693
45.9197
46.7885
47.0555
47.2962
47.4821
47.7764
47.7513
47.659
47.4906
47.3044
47.0158
46.7115
46.2887
45.627
44.6303
43.7751
43.2876
43.8579
45.068
45.136
43.9933
43.5298
43.2356
42.3499
42.2719
41.7789
41.5588
25.6584
27.0055
37.0954
41.4772
44.5148
45.9858
46.8252
47.1996
47.6323
47.8676
47.9992
48.0144
47.9357
47.7951
47.6434
47.4043
47.1525
46.7758
46.0877
45.0224
44.2609
44.0516
44.5413
45.5678
45.6801
44.632
44.204
43.9266
43.087
42.9887
42.5089
42.299
27.912
26.555
36.5027
41.1905
44.3424
46.0105
47.0659
47.5427
47.8801
48.0549
48.319
48.2862
48.1912
48.0758
47.9882
47.8323
47.64
47.2743
46.6609
45.75
44.8632
44.4269
44.9334
46.0283
46.2148
45.1195
44.7205
44.5069
43.724
43.6457
43.1967
43.0136
35.2351
27.6601
36.3215
41.1335
44.4089
46.1525
47.1615
47.669
48.1818
48.4974
48.6123
48.5953
48.5448
48.4635
48.4112
48.2897
48.13
47.8052
47.1734
46.2097
45.4763
45.3333
45.7247
46.5887
46.8001
45.8176
45.4548
45.214
44.4825
44.3712
43.9384
43.7567
33.6965
25.7784
35.4768
40.7266
44.1438
46.0729
47.3408
48.0452
48.5007
48.6792
48.9319
48.9446
48.8917
48.8334
48.8292
48.7657
48.6414
48.3266
47.8009
47.04
46.1869
45.715
46.0977
47.0941
47.3727
46.344
46.028
45.8438
45.1712
45.073
44.6786
44.5286
50.6246
30.1637
35.2908
40.5135
44.1272
46.2207
47.4669
48.1425
48.7328
49.1431
49.3025
49.3054
49.3095
49.2871
49.3054
49.2602
49.1609
48.8939
48.3507
47.5224
46.857
46.7439
47.019
47.7004
47.9607
47.0718
46.782
46.5358
45.9272
45.7926
45.4178
45.2585
52.7745
30.1082
34.3184
39.9346
43.7228
45.9986
47.5322
48.4935
49.1064
49.3353
49.6087
49.7002
49.7109
49.7133
49.7718
49.7685
49.6877
49.4203
48.9974
48.4108
47.6399
47.1068
47.3484
48.2624
48.5715
47.6242
47.3857
47.19
46.6293
46.4959
46.1649
46.0438
60.4084
34.0847
34.1755
39.4426
43.5065
46.0677
47.6415
48.5431
49.2444
49.7795
50.0349
50.0943
50.1692
50.208
50.2778
50.2786
50.2226
50.0195
49.5805
48.8908
48.3126
48.2377
48.4088
48.8654
49.1098
48.3386
48.1066
47.8292
47.3519
47.191
46.8859
46.7441
70.2144
37.1205
33.5086
38.6805
42.9006
45.6428
47.5394
48.8148
49.6405
49.9769
50.305
50.5001
50.5857
50.6495
50.7592
50.8027
50.7599
50.5377
50.2153
49.7984
49.1414
48.5457
48.645
49.4812
49.743
48.8798
48.6963
48.464
48.0063
47.8285
47.5681
47.47
68.3835
41.6379
33.7765
37.8154
42.3448
45.5247
47.5572
48.7705
49.6471
50.3508
50.7471
50.8905
51.0513
51.1583
51.27
51.3036
51.2828
51.1474
50.8149
50.2474
49.7528
49.7377
49.8222
49.9982
50.175
49.5298
49.3182
48.9997
48.6502
48.4643
48.2402
48.1107
75.6556
45.9958
34.464
36.9369
41.4558
44.7816
47.1958
48.8969
50.0146
50.5228
50.9427
51.2669
51.4412
51.5708
51.729
51.8167
51.8145
51.6362
51.3981
51.1268
50.5979
49.9391
49.9031
50.6579
50.7863
49.988
49.8262
49.5438
49.1823
48.9625
48.7809
48.6999
67.2637
49.8592
36.5553
35.8485
40.3902
44.3219
46.9944
48.6561
49.8197
50.7609
51.3461
51.5998
51.8659
52.0573
52.2145
52.2795
52.2882
52.2179
51.9831
51.51
51.0736
51.1368
51.1386
50.9687
51.0531
50.5324
50.3002
49.9521
49.7307
49.5299
49.3979
49.2787
73.2227
51.8298
38.5507
35.3108
39.1313
43.0369
46.1876
48.528
50.0781
50.8506
51.4141
51.8961
52.1773
52.3852
52.601
52.7387
52.7847
52.648
52.4678
52.302
51.8935
51.1512
50.9936
51.6818
51.6069
50.8561
50.7066
50.3713
50.0796
49.8119
49.7059
49.6345
75.1968
53.5629
40.3586
34.3898
37.4222
42.0153
45.5353
47.8647
49.5313
50.8597
51.7201
52.1206
52.514
52.8005
53.0144
53.1206
53.1538
53.1374
52.9801
52.5607
52.1438
52.3112
52.2278
51.6914
51.697
51.2667
50.9277
50.5543
50.4399
50.2315
50.1924
50.0825
76.4413
55.4012
42.4003
34.5
35.7829
39.7866
43.9033
47.2682
49.52
50.7444
51.5791
52.2956
52.7265
53.0245
53.3032
53.4888
53.5848
53.484
53.3335
53.2361
52.9394
52.1024
51.87
52.4546
52.0445
51.3032
51.134
50.7181
50.4476
50.1163
50.0683
50.0043
76.2221
56.6214
43.9846
33.9282
33.3753
37.9268
42.3515
45.6536
48.2679
50.318
51.6767
52.333
52.9194
53.3523
53.6411
53.7909
53.8356
53.8538
53.7535
53.3546
52.9124
53.1752
52.9214
51.9727
51.8999
51.4673
50.8388
50.3239
50.2345
49.9865
50.0169
49.9248
74.2392
56.8633
45.2414
34.6059
31.4957
34.0031
39.0707
44.1719
47.6143
49.7024
51.0973
52.2851
52.9572
53.3951
53.7731
54.0204
54.1765
54.0993
53.9267
53.8432
53.599
52.5948
52.322
52.6821
51.6331
50.7344
50.4154
49.7638
49.3258
48.8231
48.7579
48.7133
71.4341
56.1739
45.4508
33.6684
27.8921
30.7942
35.4911
39.9304
44.7057
48.3194
50.7281
51.9087
52.8844
53.561
53.9669
54.1848
54.2227
54.2419
54.1552
53.6901
53.1451
53.4597
52.7539
51.209
50.9517
50.1453
48.5952
47.4431
47.0297
46.5752
46.5685
46.5437
67.9913
54.8081
45.2412
33.8676
25.7319
22.4317
27.6753
36.8506
42.2694
46.3979
49.1282
51.3714
52.5664
53.2864
53.838
54.1643
54.3909
54.3003
54.0092
53.8745
53.5144
52.0392
51.6634
51.3662
48.6815
46.8945
45.9677
44.28
42.4605
40.8464
40.1163
40.2132
64.4103
52.889
43.8766
30.9468
15.5075
7.69918
14.5196
10.9375
33.412
42.3032
47.6395
50.0768
51.9243
53.1228
53.7585
54.0805
54.0631
54.0239
53.87
53.0324
52.1299
52.2889
50.2196
47.0832
46.2091
43.3984
35.5609
26.8098
17.9671
10.5644
6.05719
9.09109
60.532
50.622
42.3389
29.3397
17.2971
12.2813
12.2234
12.8802
7.65708
35.4134
43.2511
48.4617
50.8672
52.1809
53.1016
53.5653
53.8777
53.627
52.8972
52.5339
51.4999
48.3613
47.3916
44.9985
32.4348
10.0939
20.8687
12.6529
8.25136
5.86952
7.94004
17.9195
56.5685
48.2269
40.056
24.1064
9.66237
6.48426
12.9557
12.9538
5.97007
12.3047
38.6785
44.9966
49.0288
51.3774
52.4394
52.9194
52.6651
52.3609
51.9434
49.7548
47.4842
46.7885
37.6434
10.6874
8.24673
8.903
11.6041
19.921
22.8744
23.8637
20.3347
19.5403
51.81
45.0148
37.1362
20.6305
7.66152
7.85338
15.7056
15.7057
9.85327
6.97157
27.6273
41.1802
46.4407
48.9817
50.6621
51.3007
51.7112
50.8891
48.4384
47.1426
42.8698
25.3305
22.1374
12.3556
16.3629
31.5957
35.2336
36.222
35.5585
33.1893
33.0031
31.4965
47.9774
43.3737
35.7783
13.1905
11.409
25.3744
29.9131
27.7352
15.2523
13.0954
15.1133
32.304
41.7272
46.9417
48.827
49.5071
48.232
46.6064
45.5544
36.3702
18.1179
12.7615
13.885
34.0798
38.2667
39.5076
40.4467
40.1338
38.6156
36.1794
33.231
32.3307
35.5793
40.6386
38.6747
27.2727
16.0335
25.0964
32.4367
35.2003
35.7184
21.8729
9.80425
20.5377
34.7435
40.7166
44.1905
44.76
45.2527
42.6732
27.658
19.0396
16.8498
27.6322
38.4499
40.6209
44.1139
46.4218
47.1209
46.4435
43.8499
39.3775
35.7076
33.4968
9.91202
27.9988
33.1493
31.4172
26.3919
26.8034
31.6831
35.0608
36.9082
32.5992
14.5372
16.0102
10.3305
35.4458
39.9579
40.8681
33.6118
12.2649
16.4366
20.315
33.4908
40.1347
44.7407
49.2532
51.7404
53.1453
53.0986
51.6536
48.3092
42.8314
37.0911
33.7658
2.85034
13.4741
21.7314
25.5445
25.5055
26.1436
29.1259
32.9218
36.876
30.011
18.9138
17.9157
9.87509
14.8786
22.599
15.6501
14.1988
12.1167
8.45878
36.4648
42.3034
48.3804
52.994
56.3998
58.4288
59.3725
59.0483
57.4228
53.9061
48.0716
41.5382
37.0863
7.41588
12.258
19.2024
24.5436
27.4044
29.5874
32.2068
34.998
30.5587
18.9346
16.8667
15.9519
5.61972
11.2514
18.3307
12.4753
13.6792
11.3678
38.2292
43.3571
51.3879
56.3887
60.9681
63.3449
64.5858
65.1324
64.107
61.9371
58.0769
52.1169
45.3658
40.5465
4.59637
6.42029
11.6396
18.6739
22.2061
23.4038
20.9331
14.1655
14.871
18.9542
10.3197
18.1606
4.44984
17.8727
6.6286
11.444
20.6627
37.0782
46.0436
52.6061
59.8012
64.9351
67.5478
69.353
69.5184
69.1051
67.8503
65.4752
61.6072
55.8077
48.9914
43.9846
5.92832
7.01925
7.19574
10.9266
9.87602
12.9746
14.2486
14.691
14.0855
17.1508
20.7549
14.438
7.78902
16.6592
8.21469
28.8057
36.2923
47.341
53.898
62.3232
67.9653
71.3467
73.1465
73.5649
73.1904
72.174
70.2946
67.5484
63.7084
58.3018
51.8783
47.0623
3.58657
12.4713
16.7477
20.0443
22.5646
23.8287
23.4771
21.2214
18.1545
16.508
17.5844
17.0297
18.0942
23.2886
29.8026
39.103
46.4513
55.6108
63.3688
70.7324
74.389
76.5066
77.2229
76.743
75.3791
73.3659
70.6439
67.4617
63.8629
59.2564
53.5335
49.0849
8.23947
17.7444
21.2052
23.9602
25.8562
26.323
24.9543
21.9309
18.9005
18.2842
19.8198
22.3345
26.3212
32.0823
39.0733
47.1106
55.3105
64.4295
71.915
76.7826
79.3873
80.4198
79.6834
77.9525
75.1555
71.821
68.154
64.6492
61.5507
58.202
53.763
50.0337
8.6676
18.3307
22.0237
24.8252
26.5438
26.7661
25.1005
21.6087
17.9169
17.3917
20.6524
25.5448
31.6307
38.6205
46.3953
54.9289
63.9001
72.2357
78.0102
81.6324
83.1421
81.9951
79.4772
75.7604
71.7066
67.3946
63.1237
59.5546
57.0443
55.0461
52.2129
49.5468
8.82037
18.5945
22.3786
25.135
26.7291
26.8071
25.0147
21.4892
18.0623
18.2457
22.4768
28.6333
36.0377
44.1958
53.0254
62.3095
71.1059
78.106
82.8418
85.4148
84.7121
81.307
75.9055
70.5259
66.0404
61.2431
56.9394
53.5886
51.5075
50.4691
49.0763
47.5565
9.43059
19.6303
23.3698
25.8884
27.1927
27.0807
25.3946
22.5187
20.2188
21.301
26.117
33.1182
41.5346
50.7507
60.3085
69.548
77.4458
83.2792
86.7533
86.9425
82.5156
73.13
66.3291
62.9913
58.5952
55.2587
51.4835
47.779
45.6389
45.2938
44.9468
44.3464
10.0837
20.638
24.3577
26.7707
28.0351
28.1495
27.176
25.4534
23.9527
24.9142
29.8261
37.4033
46.514
56.2846
65.8522
74.4605
81.3344
85.9991
87.7207
84.2564
73.8593
67.5272
67.5453
60.3427
55.3845
48.1377
39.5912
32.526
33.9771
38.5333
40.17
40.3441
11.7753
22.8945
26.5836
28.8661
30.1557
30.7627
30.8511
30.3683
29.4043
29.66
34.1699
42.1308
51.6019
61.4785
70.8432
78.972
85.1163
88.3462
86.515
78.4867
70.6031
66.4061
43.3588
27.4359
14.1243
12.4284
24.747
30.8961
15.2273
7.54444
31.5408
35.2712
11.5262
17.2077
13.8975
23.0088
13.7681
9.81266
26.5716
73.94
79.6979
79.4613
75.5077
67.4657
72.1523
67.9833
74.8999
65.7229
66.3513
62.6671
60.5849
60.6202
58.6775
60.7126
62.2303
66.0207
66.6598
73.0618
78.9914
69.8454
79.2101
71.5988
71.9258
74.8019
78.2563
27.0839
8.40264
6.98992
23.5894
13.1841
17.2004
11.4811
23.4092
29.2573
29.7438
18.8409
18.0851
21.8858
47.8304
69.3549
60.2088
64.6375
60.7742
63.5336
63.0244
64.6922
65.0684
63.7796
66.8101
67.0899
67.9076
70.1414
69.4732
67.9528
66.7782
66.3134
63.9289
64.4599
65.6512
62.9964
64.7131
61.1903
64.5046
59.6128
69.7775
47.5359
21.599
18.0838
20.3781
29.183
29.1951
23.3962
27.9036
34.2408
28.7043
23.8868
22.8575
43.5944
59.6186
61.4897
55.9851
59.8042
58.1458
61.4377
62.4147
64.7466
66.3333
68.0784
71.3726
73.1446
74.7602
77.4685
77.1974
74.7153
72.8878
70.9186
67.8714
65.9726
64.547
62.2674
61.4739
58.0943
59.5743
55.8528
61.1142
59.5264
42.9469
20.9661
23.8384
28.4718
34.0601
27.8826
31.3393
37.8097
11.1365
39.9386
60.681
53.4553
60.5489
56.5878
57.5003
58.251
59.9481
62.1251
65.0882
67.6175
69.9857
72.7285
75.9936
78.4018
80.3093
83.0229
82.8897
80.207
78.1608
75.6007
72.3841
69.665
67.2535
64.7781
61.8573
59.659
57.8962
57.3223
56.1511
60.4144
53.3035
60.4973
39.4605
11.9762
37.505
31.3073
34.2116
38.1169
15.6542
54.3169
59.3646
56.7655
59.8464
56.6961
59.6549
59.775
62.9696
64.7027
68.6174
70.9315
73.4927
76.4723
79.6511
82.2641
84.1944
86.6256
86.5425
84.0635
82.0422
79.3048
76.0949
73.1718
70.5717
68.249
64.3392
62.5816
59.3633
59.4299
56.234
59.7559
56.5172
59.4348
53.8432
15.4746
37.7921
34.1382
36.3171
36.935
15.8664
51.062
57.6127
59.2151
60.1179
58.9203
62.3203
62.7172
66.147
67.9264
71.7396
73.7425
76.2001
79.1085
82.1438
84.6412
86.5855
88.7212
88.6549
86.4341
84.4261
81.8228
78.7383
75.8729
73.4184
71.3735
67.5571
65.7367
62.2869
62.0572
58.4865
59.9913
58.9623
57.6423
50.5628
15.4631
36.6642
36.1746
37.4498
35.7041
12.8014
42.6509
56.6805
61.1416
60.7703
62.122
65.0723
65.805
69.1049
70.7926
74.0934
75.66
77.9273
80.6838
83.5194
85.8145
87.7816
89.6039
89.5415
87.6156
85.5975
83.2111
80.3336
77.6046
75.3684
73.7642
70.4598
68.7313
65.3981
64.7918
61.7663
60.5974
60.9927
56.6075
42.2429
12.9698
35.5018
37.2327
37.5072
35.1949
6.84985
20.7855
53.271
61.4594
61.9501
65.1086
67.4262
68.5606
71.4546
73.0597
75.4589
76.7114
78.7265
81.257
83.8858
86.0218
87.9985
89.551
89.485
87.8186
85.8058
83.5852
80.9312
78.4125
76.4537
75.1696
72.7829
71.1363
68.2085
67.1539
64.8415
61.7832
61.446
53.2909
20.1527
19.0737
35.1266
37.231
36.4211
35.2397
10.5485
8.01875
38.338
61.0874
62.2752
67.3667
69.1637
70.5152
73.4697
74.2258
75.9607
76.9628
78.6482
80.9281
83.3709
85.4727
87.4509
88.8371
88.7605
87.2531
85.2544
83.0742
80.6235
78.3468
76.7168
75.7381
73.9744
73.25
70.2241
68.9215
67.1754
62.1617
61.2309
38.4837
8.12081
11.3464
34.9967
36.1233
34.6678
36.0069
10.724
19.1156
1.56217
55.4823
61.6699
68.7287
69.4964
72.5803
74.0033
74.4126
75.6541
76.1652
77.7971
79.7611
82.1714
84.3664
86.3825
87.785
87.6912
86.1562
84.13
81.8677
79.4716
77.5151
75.9596
75.4595
74.2622
73.8204
72.4216
69.3146
68.6288
61.6691
55.7941
3.00247
19.6361
9.0152
35.9249
34.318
35.8309
36.9585
30.3319
21.8357
23.7596
28.8219
63.1345
65.6445
70.5727
72.6465
73.2171
73.9667
73.9327
74.9094
75.9926
78.0291
80.453
82.9543
85.1622
86.8465
86.7275
84.8843
82.6815
80.1306
77.725
75.7563
74.6731
73.8155
73.8023
73.1766
72.5325
70.5172
65.6597
63.3188
29.8796
24.2458
14.0991
29.1218
37.1052
35.5089
43.5248
41.8548
41.4158
19.49
24.483
18.2437
54.6337
62.0898
70.4353
70.1736
72.6016
71.3083
72.1578
72.3932
73.4933
75.6998
78.6079
81.763
84.5596
86.7973
86.6462
84.2039
81.3995
78.2055
75.3487
73.2349
72.2431
72.0094
71.3192
72.4939
70.2938
70.4323
62.1533
55.6289
30.9552
24.7491
17.6854
41.5642
41.6417
43.4637
53.3418
52.7128
48.8613
44.9902
6.26345
27.823
20.1344
61.5214
64.6773
68.5904
68.4127
68.364
68.1671
68.6396
70.3226
73.7641
77.8996
82.1273
85.7543
88.6031
88.4257
85.3296
81.6548
77.3549
73.2625
69.9229
68.4477
68.0617
68.3789
68.5573
68.5724
65.2224
61.5448
23.4824
6.40171
22.2057
44.1771
48.8088
52.6905
53.3178
63.4908
62.7652
60.5802
54.6981
46.8739
26.5803
17.0587
47.455
58.5462
61.3968
63.1417
61.8628
63.0738
64.643
68.9048
74.1336
79.618
84.5557
88.7037
91.946
91.7584
88.254
84.0388
79
73.4914
68.2984
64.1937
62.8968
61.7724
63.4368
61.6633
58.7083
47.7559
17.3401
21.0238
46.6365
54.6031
60.5046
62.7331
63.4693
72.7449
71.9854
69.4752
65.8066
58.9717
48.8759
18.5354
32.735
44.7577
53.4765
52.4157
55.2874
58.4952
63.8512
70.3407
76.6378
82.4079
87.3308
91.689
95.1873
94.9982
91.2391
86.8308
81.8283
75.9882
69.6687
63.161
58.0175
55.0283
52.3883
54.0396
46.2083
26.7618
24.2846
48.5944
58.7951
65.6498
69.4172
71.9206
72.7183
80.3869
78.6618
76.3709
72.7254
68.1326
61.2826
51.8017
16.275
23.1679
29.4266
42.2116
48.6018
57.7105
65.4097
72.9376
79.0599
84.4625
88.993
93.6404
97.3763
97.1892
93.1934
88.5327
83.9563
78.5149
72.3406
64.7579
57.0604
48.0534
42.3416
28.4816
22.7152
6.6748
51.5731
61.1519
67.9047
72.6096
76.2701
78.5814
80.3292
85.3263
82.3237
79.5341
74.9201
71.3075
65.9546
61.4248
52.2787
23.9878
22.537
25.8644
45.7537
57.8631
67.5362
74.777
80.533
85.2761
89.4801
94.5533
98.451
98.2747
94.1289
89.0606
84.8637
80.1041
74.3018
66.9992
57.3194
45.1173
14.3414
13.965
22.6359
51.3972
61.1708
65.8714
71.0863
74.7983
79.4277
82.2048
85.2477
86.2132
82.0292
76.9255
71.6879
66.8325
62.0744
58.9882
57.4416
41.4745
30.438
13.4185
42.3327
58.86
69.2631
75.8255
80.9817
84.9901
89.3478
94.5748
98.396
98.2483
94.216
89.0002
84.6685
80.663
75.4657
68.8734
58.3877
41.7467
16.7472
28.5035
39.7216
57.1603
59.0995
61.7787
66.7876
71.494
76.8219
81.9061
86.0985
82.4064
75.1088
68.6518
59.8605
52.9877
49.3137
45.6048
50.7884
49.4557
21.4777
20.9672
43.7362
62.9927
70.6248
76.7149
80.6314
84.2794
88.4148
93.3602
96.7868
96.6822
93.1103
88.1628
84.0573
80.411
76.4972
70.3314
62.7111
43.3256
15.8022
21.3212
51.3299
52.3496
45.0026
49.5818
52.778
59.699
68.5653
74.9315
82.3574
73.8156
60.7748
49.7094
24.1711
21.4852
19.8156
30.5759
27.068
13.3567
23.8636
39.7033
55.5698
66.0483
71.2836
75.8327
78.7826
82.2126
86.0577
90.3674
93.1921
93.1382
90.248
85.933
82.1297
78.6811
75.7941
71.1647
65.9566
55.677
37.9073
10.4971
8.94489
21.4511
27.5293
22.4716
6.28541
22.1479
49.6663
60.753
73.6969
60.5802
22.597
29.2939
16.1222
12.1249
19.4537
29.0924
35.2028
41.939
51.0446
59.9439
65.6452
70.0347
73.2233
75.984
78.5628
81.5502
84.8874
88.1277
90.1886
90.1764
88.1127
84.8887
81.5904
78.6127
76.0745
73.3175
70.1247
65.8864
59.8692
51.5667
42.5823
34.4595
27.83
18.3562
10.2523
16.488
29.3566
23.189
60.8683
9.4082
16.4624
50.8725
58.0077
59.4038
60.7902
63.7978
66.4881
69.852
72.5025
75.0183
76.8254
78.6324
80.1545
81.918
83.8039
86.0012
88.2424
90.22
91.2341
91.2353
90.2303
88.2737
86.0657
83.8921
82.0373
80.2901
78.7953
77.0082
75.2226
72.7252
70.1198
66.7389
64.0226
61.036
59.6045
58.0917
50.7556
17.3791
16.424
15.0207
35.0315
61.9519
67.5533
73.7875
75.4449
78.1181
79.2529
80.8528
81.7206
82.8772
83.7716
84.9295
86.069
87.4077
88.7781
90.1748
91.4529
92.3947
92.7735
92.7746
92.3904
91.4642
90.206
88.8366
87.4871
86.1749
85.0483
83.9089
83.0191
81.8745
80.9966
79.4092
78.2214
75.5845
73.771
67.6588
61.6976
35.6461
24.1919
16.0668
22.6763
66.7814
69.2393
76.4055
77.6951
80.419
81.1885
82.3669
82.8488
83.7378
84.4305
85.3321
86.2393
87.2499
88.3037
89.2996
90.1079
90.6536
90.8649
90.868
90.6521
90.1194
89.3286
88.3535
87.3168
86.3251
85.4247
84.538
83.8368
82.9614
82.4463
81.3008
80.4319
77.8263
76.2562
69.4358
66.2228
22.4363
15.0036
9.57947
13.7866
67.0321
69.8744
77.4712
78.9999
81.5389
82.418
83.2357
83.5512
83.7678
84.1863
84.4363
85.0295
85.4734
86.176
86.7194
87.2512
87.5903
87.7233
87.7278
87.5989
87.2664
86.7452
86.2072
85.511
85.0698
84.4693
84.2242
83.7765
83.5854
83.1902
82.4771
81.3492
79.2097
76.8844
70.6167
65.1317
20.3395
12.957
13.8373
17.0369
64.2215
69.7008
77.2308
80.0663
82.7353
84.2324
85.2023
85.7869
85.7493
85.7153
85.7576
85.7889
85.9113
86.0671
86.275
86.4917
86.6123
86.6466
86.6503
86.6206
86.4988
86.2758
86.0607
85.8963
85.7622
85.7201
85.6638
85.6901
85.7139
85.112
84.1301
82.6254
79.9113
77.1223
69.3384
64.1477
9.90846
12.4432
31.7914
34.9291
64.9295
69.7611
78.007
80.8016
84.4297
86.0969
87.7934
88.6468
89.1795
89.0598
88.9379
88.9675
88.8772
88.9405
88.9496
88.9978
88.9921
88.9573
88.9609
89.0025
89.0063
88.9504
88.9356
88.859
88.9453
88.8997
89.0262
89.127
88.5851
87.7233
86.0147
84.3488
80.6796
77.9149
69.4941
64.804
33.212
31.8027
11.9873
46.9646
65.5911
71.279
78.5673
81.6212
85.3975
87.2685
89.3452
90.4565
91.4418
91.7317
91.3691
91.5957
91.457
91.549
91.5067
91.5093
91.4571
91.392
91.3944
91.4641
91.5175
91.5134
91.5538
91.4606
91.5965
91.3695
91.738
91.4337
90.4376
89.3257
87.2263
85.3755
81.5249
78.5496
71.0228
65.6019
45.5139
27.9568
26.8377
42.1835
64.009
69.3412
76.6569
80.0088
83.6058
85.8446
87.8264
89.2543
90.2927
90.8744
90.6489
90.8293
90.7611
90.8277
90.7898
90.7641
90.6973
90.6121
90.6129
90.6977
90.7641
90.7906
90.8277
90.7667
90.8293
90.6647
90.8685
90.3005
89.2178
87.8641
85.7389
83.7101
79.7482
76.8943
68.7008
64.5132
40.2444
25.9329
27.8261
28.7586
52.861
64.0977
69.9086
75.3516
78.2155
81.3725
83.0911
84.945
85.981
86.8279
86.8544
86.8452
86.909
86.9129
86.9225
86.8799
86.8222
86.7349
86.7353
86.8206
86.8762
86.9204
86.9075
86.9129
86.8405
86.8687
86.8256
85.9697
84.9313
83.0638
81.3525
78.1416
75.3166
69.7456
63.7754
53.5442
15.8242
26.3311
26.0362
26.2941
24.5531
55.5496
60.8363
67.9712
71.7157
74.9593
77.405
79.2234
80.7247
81.7037
82.2618
81.9255
82.2196
82.1568
82.2548
82.2175
82.1878
82.1127
82.1134
82.1866
82.2137
82.2497
82.1501
82.2129
81.9257
82.2549
81.6555
80.7107
79.1447
77.3992
74.8082
71.7555
67.5929
61.0583
54.4008
24.5356
19.9429
5.47173
18.2548
13.2806
18.0447
37.3983
56.1682
60.3331
67.1627
69.7332
73.2106
74.9434
76.8745
77.9445
78.8009
78.8175
78.9452
79.045
79.1289
79.1523
79.1356
79.0747
79.0733
79.1273
79.1372
79.1009
79.0203
78.8939
78.8029
78.7283
77.8671
76.7527
74.8415
73.0392
69.5801
66.9207
60.0087
55.8531
36.0408
11.1438
24.3011
19.5289
15.5317
25.8705
38.1957
41.8407
44.6338
45.7354
46.4277
46.6155
46.8202
46.8483
47.007
47.0402
46.9957
46.9254
46.7103
46.2415
45.6477
44.985
44.1886
43.6154
43.4625
43.2714
42.9735
43.9728
43.7132
42.6713
42.2854
41.605
40.9936
40.4769
39.9243
39.6565
13.2767
28.6867
37.7283
41.6412
44.5478
45.8342
46.5995
46.7657
46.9574
47.0728
47.2137
47.0584
47.0382
47.0024
46.8756
46.5056
45.971
45.3118
44.5475
43.9612
43.6311
43.4102
43.3423
44.4747
44.0286
43.0394
42.6592
42.033
41.4551
40.971
40.4598
40.2166
19.1146
25.8104
37.603
41.6193
44.506
45.806
46.6048
46.9379
47.2865
47.3661
47.3605
47.2661
47.2405
47.225
47.1212
46.7898
46.298
45.7098
44.9462
44.2072
43.853
43.8701
43.9149
44.9355
44.402
43.5487
43.2246
42.6493
42.0844
41.6284
41.1578
40.9192
29.5113
27.7379
37.1966
41.3904
44.3951
45.905
46.8538
47.2065
47.4655
47.5569
47.639
47.4342
47.409
47.4228
47.3887
47.146
46.7158
46.151
45.4474
44.7394
44.1951
44.0437
44.2915
45.389
44.853
43.9828
43.6638
43.1423
42.6218
42.2077
41.775
41.5608
25.0589
27.3317
37.0361
41.4122
44.4714
45.9909
46.905
47.3507
47.7944
47.933
47.8496
47.7061
47.7129
47.7469
47.7378
47.5306
47.1394
46.637
45.9292
45.1033
44.6093
44.6677
44.935
45.8434
45.3664
44.5871
44.3178
43.8304
43.3086
42.9179
42.5163
42.3018
21.8659
24.5186
36.4
41.1482
44.2992
46.0142
47.1351
47.6826
48.0239
48.0928
48.1651
48.0085
47.9978
48.0503
48.0876
47.9498
47.6166
47.1462
46.5255
45.7885
45.1131
44.8933
45.3003
46.3013
45.9186
45.0803
44.8212
44.3842
43.9148
43.5706
43.2037
43.0167
42.1605
30.79
36.5058
41.1164
44.3986
46.1661
47.2272
47.7857
48.2981
48.528
48.472
48.347
48.3801
48.4495
48.5041
48.3932
48.0995
47.6866
47.0555
46.2255
45.6733
45.6934
46.0318
46.7885
46.5053
45.7386
45.5203
45.1012
44.6219
44.2985
43.9565
43.7619
11.7778
21.7551
35.2942
40.727
44.1293
46.0749
47.3809
48.136
48.5959
48.69
48.7999
48.7346
48.7532
48.8315
48.9151
48.8555
48.6111
48.2269
47.7029
47.0195
46.3026
45.9567
46.3759
47.2907
47.1272
46.2845
46.0847
45.711
45.285
45.0027
44.6929
44.5318
48.5978
31.5231
35.6453
40.5677
44.1487
46.2335
47.5032
48.2095
48.7969
49.1502
49.1954
49.1291
49.1945
49.2889
49.3758
49.332
49.1289
48.8051
48.2649
47.4918
46.9497
46.92
47.2219
47.8163
47.7262
46.9644
46.7939
46.4279
45.9944
45.7309
45.444
45.2653
42.0159
26.7171
34.2363
39.9568
43.7265
45.9948
47.5409
48.5346
49.1594
49.3353
49.5149
49.5562
49.6169
49.7189
49.8307
49.8263
49.6605
49.3515
48.9275
48.3536
47.6683
47.1936
47.5324
48.3883
48.4012
47.5512
47.4004
47.0693
46.6787
46.4399
46.1824
46.0436
58.2263
32.3868
34.1361
39.5533
43.562
46.0857
47.6579
48.5733
49.2701
49.7744
49.9625
49.9814
50.0921
50.2115
50.3186
50.3185
50.1952
49.9592
49.517
48.8344
48.3427
48.2921
48.507
48.9101
48.9444
48.2092
48.0732
47.7453
47.3634
47.1465
46.9158
46.7495
66.586
37.4323
33.6645
38.7044
42.9142
45.6385
47.5298
48.8216
49.6655
49.9765
50.25
50.4079
50.5241
50.6523
50.7892
50.8311
50.7378
50.4944
50.1644
49.724
49.1177
48.5323
48.744
49.5516
49.6433
48.7999
48.6797
48.372
48.0085
47.79
47.5824
47.462
66.4707
38.7442
33.7824
37.9837
42.4384
45.5598
47.5693
48.7827
49.6508
50.3399
50.6982
50.8234
51.0006
51.1556
51.283
51.3165
51.2609
51.1092
50.7649
50.18
49.7475
49.7155
49.826
49.9847
50.0641
49.3882
49.2563
48.9506
48.6229
48.438
48.2656
48.111
77.8613
43.6817
33.5153
36.9451
41.4693
44.7795
47.18
48.8835
50.0221
50.5218
50.9171
51.2105
51.4001
51.5662
51.7352
51.8219
51.7961
51.6099
51.3582
51.0482
50.5442
49.8648
49.9345
50.6831
50.7331
49.9117
49.7924
49.4897
49.1513
48.9432
48.7856
48.6816
67.2377
47.0841
34.9091
35.8761
40.5149
44.38
47.0131
48.6632
49.8098
50.7457
51.3082
51.5589
51.831
52.0456
52.2058
52.2725
52.2702
52.1944
51.9406
51.4402
51.0491
51.0703
51.0653
50.904
50.9677
50.3874
50.2302
49.9397
49.674
49.5214
49.4105
49.2716
78.2434
50.5611
36.0862
34.9369
39.1189
43.0291
46.1665
48.5003
50.0739
50.845
51.4032
51.8612
52.1473
52.373
52.591
52.7288
52.7681
52.6304
52.4334
52.2274
51.8237
51.0456
50.9795
51.6689
51.5673
50.7892
50.6695
50.3519
50.0232
49.8118
49.6935
49.6072
66.7556
51.6874
37.9274
33.6929
37.4921
42.0898
45.5635
47.8702
49.5052
50.834
51.6841
52.0905
52.4863
52.7805
52.9908
53.1007
53.138
53.1221
52.9419
52.4937
52.1099
52.2229
52.0981
51.5862
51.6104
51.1294
50.8706
50.5715
50.3564
50.2374
50.1808
50.0688
74.4631
53.9424
40.3321
33.6495
35.6597
39.7412
43.8596
47.2207
49.5074
50.7333
51.5693
52.2696
52.7015
53.0071
53.2853
53.4715
53.5686
53.4687
53.3009
53.1702
52.8624
51.9863
51.8375
52.4142
51.9956
51.2543
51.1104
50.7251
50.3658
50.1316
50.0289
49.9729
73.5907
54.4727
41.6703
32.6632
33.2679
38.0017
42.3847
45.6547
48.2098
50.2658
51.6316
52.3039
52.892
53.3253
53.6085
53.7634
53.8205
53.8426
53.7187
53.2923
52.878
53.0858
52.7688
51.857
51.8065
51.3389
50.813
50.3604
50.1116
50.0013
49.9636
49.9066
72.2159
54.6476
42.9202
33.2069
31.1484
33.8107
38.9303
44.0528
47.5917
49.6853
51.0786
52.2562
52.9327
53.3752
53.7535
54.0018
54.16
54.0809
53.8939
53.7903
53.5245
52.4929
52.3107
52.6473
51.5641
50.685
50.4306
49.7849
49.2014
48.8334
48.6635
48.6795
70.6057
54.663
43.5557
31.9344
27.2506
30.8387
35.5331
39.9664
44.5719
48.2111
50.6607
51.8695
52.8513
53.5271
53.9279
54.1519
54.2065
54.2323
54.1246
53.6369
53.1189
53.3912
52.6184
51.1402
50.8679
49.9861
48.6179
47.4649
46.8366
46.5695
46.4278
46.5199
68.1216
54.1586
44.1375
32.704
25.3486
21.8504
26.9815
36.2987
42.1988
46.3609
49.0779
51.3278
52.5351
53.2647
53.8203
54.148
54.3728
54.2743
53.9745
53.8347
53.4458
51.9741
51.7243
51.4056
48.6177
46.7799
46.056
44.2567
42.223
40.6764
39.799
40.0998
65.0403
52.9021
43.3671
29.6668
12.1988
13.6656
14.0832
10.6149
32.8241
42.0342
47.5345
50.0103
51.8789
53.0786
53.7135
54.0431
54.0441
54.0144
53.8466
52.999
52.131
52.2597
50.1367
47.1419
46.176
43.003
35.5424
26.3272
17.2925
8.66532
21.5915
7.83442
61.096
50.8792
42.2314
28.6901
16.8109
1.99967
12.3621
12.7514
6.00938
35.1894
43.0775
48.3875
50.8119
52.1526
53.0827
53.549
53.8544
53.5896
52.8547
52.4913
51.4116
48.3446
47.6228
45.2402
32.3719
7.89593
20.7817
7.92865
13.8351
10.164
12.9987
17.9262
57.2206
48.6101
40.0959
22.8625
15.4585
13.038
6.67067
13.1946
5.71781
11.3522
38.5476
44.8514
48.9701
51.3146
52.3861
52.877
52.6413
52.3512
51.9379
49.7719
47.5618
46.8201
37.2247
9.9535
8.62616
2.46002
12.8426
21.748
23.5193
23.3031
21.0187
19.8265
52.2307
45.3356
37.182
19.8154
11.8973
12.0946
6.58956
1.55974
2.66312
12.888
27.1229
41.1096
46.3041
48.9341
50.6286
51.2745
51.6769
50.8355
48.3806
47.0755
42.7882
25.172
18.9389
4.11402
18.4291
31.6036
35.3574
35.7818
35.2338
33.8243
32.8744
31.5308
48.2985
43.7096
36.0709
12.3605
11.9486
25.7118
30.3397
28.5582
16.6386
5.24304
9.38215
31.6697
41.6817
46.8308
48.7592
49.4527
48.1931
46.6016
45.5739
36.4856
16.121
12.5006
15.0919
34.5774
38.1951
39.7832
40.5083
40.4172
38.8586
36.054
33.3353
32.4049
35.4469
40.7002
38.9134
27.2275
16.3044
25.2853
32.5491
35.2507
35.7822
21.3309
17.0228
20.2971
34.2509
40.6039
44.0965
44.7096
45.2194
42.6368
28.1257
19.1827
5.21742
26.8577
38.7949
40.5515
44.1806
46.3601
47.2741
46.4495
43.8159
39.5364
35.6778
33.5336
9.88744
27.7929
33.0886
31.2885
26.3257
26.785
31.6666
35.0101
36.8092
33.0659
16.9433
9.39058
4.33262
35.2064
39.8913
40.7666
33.5915
12.4048
19.7115
13.2259
32.3374
40.4818
44.5574
49.281
51.7275
53.2285
53.1405
51.7481
48.409
42.906
37.1381
33.8496
3.35356
13.1905
21.5351
25.3522
25.3784
26.0331
29.0694
32.9481
36.6211
30.1193
19.881
17.8233
8.72841
14.4027
21.7573
15.427
9.91969
17.7403
5.7876
36.1658
42.1204
48.3198
52.9999
56.3318
58.3831
59.3234
59.1277
57.4825
53.9643
48.1403
41.5932
37.2069
8.18312
11.7726
18.9016
24.3801
27.2788
29.4774
32.0005
34.8612
30.1811
18.7539
16.9362
9.64161
12.4737
17.2969
12.5363
10.3186
4.86683
10.4453
38.0544
43.0937
51.4231
56.3268
60.9448
63.2951
64.5424
65.078
64.1184
61.9424
58.0965
52.1546
45.387
40.6506
6.0338
2.4334
8.90727
18.6887
21.9467
23.0868
20.7021
12.4577
10.2201
16.3846
11.8936
11.4327
18.0856
16.7799
7.88038
16.5619
19.3883
37.0693
45.907
52.5249
59.8381
64.9176
67.5487
69.2979
69.4404
69.0303
67.8452
65.443
61.6078
55.8147
49.0058
44.0917
7.17129
5.76559
5.64396
11.8236
11.0403
13.6706
14.9356
15.3151
14.1461
16.1342
18.9733
11.3392
9.72461
2.77976
9.95396
28.8408
36.0376
47.3211
53.8588
62.3202
68.0269
71.3952
73.1543
73.517
73.1133
72.0568
70.2174
67.4502
63.6615
58.2735
51.8574
47.144
3.93173
12.9286
17.1542
20.3682
22.8509
24.0748
23.6498
21.3201
18.2948
16.8646
18.0678
17.7125
18.1997
23.2903
29.902
39.0581
46.4027
55.5857
63.4007
70.7928
74.5051
76.5839
77.2251
76.6657
75.2579
73.1689
70.4711
67.2777
63.7595
59.1782
53.4744
49.137
8.30584
17.8035
21.2923
24.0765
25.9805
26.4461
25.0673
22.0085
18.8845
18.1905
19.8021
22.4302
26.3981
32.1181
39.0828
47.0816
55.3064
64.448
72.004
76.91
79.5228
80.4899
79.6536
77.8139
74.9642
71.526
67.8838
64.3823
61.3857