/*--------------------------------*- C++ -*----------------------------------*\
  =========                 |
  \\      /  F ield         | OpenFOAM: The Open Source CFD Toolbox
   \\    /   O peration     | Website:  https://openfoam.org
    \\  /    A nd           | Version:  6
     \\/     M anipulation  |
\*---------------------------------------------------------------------------*/
FoamFile
{
    version     2.0;
    format      ascii;
    class       volScalarField;
    location    "23";
    object      yPlus;
}
// * * * * * * * * * * * * * * * * * * * * * * * * * * * * * * * * * * * * * //

dimensions      [0 0 0 0 0 0 0];

internalField   uniform 0;

boundaryField
{
    inlet
    {
        type            calculated;
        value           uniform 0;
    }
    outlet
    {
        type            calculated;
        value           uniform 0;
    }
    roughCylinder
    {
        type            calculated;
        value           nonuniform List<scalar> 
5120
(
42.6459
50.4112
56.5801
62.5894
67.7314
71.8764
75.1852
77.8521
80.0318
81.8603
83.4567
84.8871
86.1895
87.3959
88.5363
89.6403
90.7377
91.8551
93.0147
94.2326
95.5172
96.8703
98.2885
99.7647
101.289
102.848
104.426
105.998
107.526
108.941
110.1
110.778
41.9655
49.4467
55.4194
61.2925
66.3636
70.4739
73.764
76.4225
78.6025
80.438
82.0416
83.4745
84.7675
85.9591
87.0811
88.1639
89.2377
90.3304
91.4648
92.6559
93.9121
95.2355
96.6227
98.0664
99.5564
101.08
102.621
104.157
105.648
107.029
108.158
108.818
41.1941
48.4315
54.2225
59.9629
64.966
69.0478
72.328
74.988
77.1788
79.0303
80.6464
82.083
83.3701
84.5505
85.656
86.7189
87.7713
88.8406
89.9492
91.1138
92.3424
93.6367
94.9933
96.4048
97.861
99.3497
100.855
102.354
103.809
105.155
106.255
106.897
40.4199
47.421
53.0269
58.6276
63.559
67.613
70.8868
73.5545
75.7649
77.6402
79.2737
80.7176
82.0049
83.1754
84.267
85.3129
86.3445
87.3916
88.4775
89.6172
90.8191
92.085
93.4116
94.7916
96.2147
97.6687
99.1376
100.6
102.019
103.332
104.403
105.027
39.5735
46.3555
51.7776
57.2387
62.1039
66.1425
69.4259
72.1172
74.3588
76.2642
77.9192
79.3747
80.6667
81.8329
82.9143
83.9447
84.9593
85.9868
87.0495
88.1651
89.3416
90.5806
91.8786
93.228
94.619
96.0395
97.4736
98.9004
100.284
101.564
102.607
103.214
38.7443
45.3035
50.5328
55.8449
60.6408
64.6664
67.9629
70.6804
72.9565
74.8969
76.5782
78.0503
79.3517
80.5199
81.5946
82.6146
83.6132
84.622
85.6662
86.7602
87.9128
89.1258
90.3958
91.7156
93.0749
94.4618
95.8614
97.2534
98.6014
99.8485
100.864
101.454
37.8325
44.1791
49.2106
54.3683
59.0981
63.1255
66.4572
69.2232
71.5493
73.5318
75.2444
76.7386
78.0549
79.232
80.3071
81.3188
82.3066
83.3015
84.3259
85.3989
86.529
87.7177
88.9614
90.2524
91.5815
92.9364
94.3027
95.6605
96.9748
98.1903
99.1796
99.7513
36.9416
43.0685
47.8909
52.8828
57.5422
61.5745
64.9445
67.7569
70.1313
72.1608
73.912
75.4355
76.7734
77.9638
79.0462
80.0572
81.0366
82.018
83.0293
84.0852
85.1946
86.3599
87.5776
88.841
90.1396
91.4625
92.7953
94.1185
95.3985
96.5826
97.5447
98.0998
35.938
41.8502
46.4506
51.2609
55.8447
59.8946
63.332
66.2277
68.6808
70.7719
72.5703
74.1301
75.4963
76.7096
77.805
78.8216
79.7991
80.7757
81.772
82.8107
83.901
85.0448
86.2387
87.4749
88.7449
90.037
91.3376
92.6279
93.8749
95.0288
95.9649
96.5025
34.9443
40.6327
45.0019
49.6167
54.1179
58.1897
61.6989
64.6709
67.1933
69.3521
71.2095
72.8178
74.2231
75.4627
76.578
77.6063
78.5887
79.5603
80.5515
81.5789
82.6526
83.7757
84.9452
86.1554
87.3955
88.6557
89.9224
91.1782
92.3911
93.5144
94.4234
94.9431
33.7656
39.2378
43.3561
47.7438
52.138
56.2336
59.8509
62.9641
65.6215
67.8811
69.814
71.481
72.9316
74.2125
75.3564
76.4035
77.3952
78.3735
79.3565
80.3722
81.431
82.5356
83.6833
84.8667
86.0785
87.308
88.5423
89.7656
90.9459
92.0398
92.9231
93.4245
32.5489
37.8141
41.6773
45.8255
50.1033
54.2289
57.9634
61.2025
63.9666
66.3345
68.3632
70.1093
71.6273
72.9532
74.1332
75.2067
76.2168
77.1972
78.1853
79.1972
80.2441
81.3309
82.456
83.6145
84.7962
85.9929
87.1927
88.3805
89.5262
90.5885
91.4443
91.9282
31.0481
36.107
39.6732
43.5141
47.6081
51.7321
55.6207
59.1054
62.1246
64.6743
66.8347
68.6808
70.2692
71.6619
72.8927
74.0032
75.036
76.0386
77.0255
78.0309
79.0677
80.1396
81.245
82.3775
83.5315
84.6975
85.8653
87.0201
88.1328
89.167
89.9971
90.4602
29.4288
34.3101
37.5971
41.1307
45.0343
49.1691
53.2312
56.916
60.1011
62.8473
65.1798
67.1609
68.868
70.3378
71.6285
72.7852
73.8551
74.868
75.8731
76.8847
77.9154
78.9729
80.0574
81.1661
82.2891
83.4205
84.5507
85.669
86.7453
87.7465
88.5481
88.9938
27.2966
31.9996
34.9315
38.0141
41.5574
45.5744
49.811
53.9482
57.6763
60.7751
63.3594
65.5312
67.3562
68.935
70.3101
71.5305
72.6405
73.6989
74.7121
75.7231
76.7496
77.7966
78.8639
79.9464
81.0413
82.1415
83.2399
84.3233
85.3657
86.3395
87.1151
87.5362
24.7968
29.4273
32.1088
34.8229
38.0404
41.9972
46.4863
50.8719
54.7959
58.3202
61.2605
63.6849
65.7364
67.456
68.9341
70.231
71.4069
72.4839
73.5327
74.5646
75.5925
76.6287
77.6766
78.7361
79.7977
80.8594
81.9143
82.9587
83.9609
84.8987
85.6419
86.0464
21.0847
25.7217
27.9681
29.9478
32.3904
35.8028
40.2635
45.7205
51.0834
55.3008
58.7783
61.623
63.9006
65.8164
67.439
68.8452
70.0855
71.2459
72.3165
73.354
74.3851
75.4163
76.4491
77.4809
78.5129
79.5415
80.5652
81.571
82.5378
83.448
84.1651
84.5371
15.9877
21.0554
23.6375
25.4615
27.3026
30.5712
35.915
40.8578
45.8119
51.3261
55.6604
59.0371
61.8054
64.0035
65.8239
67.3629
68.7212
69.9087
71.0395
72.1208
73.1636
74.1881
75.2022
76.211
77.2047
78.1879
79.1561
80.1188
81.0369
81.9067
82.5847
82.9417
6.42092
11.1193
11.7787
11.908
11.5796
11.7868
13.6831
28.3724
39.4639
45.6918
51.4838
55.9833
59.2464
61.8684
63.96
65.702
67.1657
68.5065
69.6825
70.7751
71.8308
72.8575
73.8589
74.8362
75.7963
76.7418
77.6808
78.5967
79.4792
80.3178
80.971
81.2814
7.26621
2.94253
4.42408
11.093
14.6517
16.23
16.8086
14.8356
20.4485
37.7009
45.6908
51.5066
56.076
59.3035
61.8378
63.8382
65.5336
66.9109
68.1869
69.3645
70.4481
71.4731
72.4549
73.4077
74.3192
75.2063
76.0664
76.9325
77.7472
78.5409
79.1399
79.4387
11.0844
15.3379
16.096
15.1781
12.4393
11.4624
14.1064
20.995
22.3875
21.7176
36.9106
45.9911
51.6429
56.0666
59.1684
61.6035
63.4844
65.1676
66.5367
67.7309
68.8421
69.8809
70.8519
71.7647
72.6344
73.4745
74.3099
75.1125
75.8973
76.6481
77.2286
77.4533
19.9068
24.288
26.1121
26.7618
26.0983
23.9784
20.993
17.7068
21.5623
16.9539
14.1547
35.5871
45.8177
51.522
55.8933
58.8978
61.3076
63.0364
64.5856
65.9523
67.1226
68.1663
69.1144
69.9985
70.7967
71.551
72.2599
73.0021
73.6701
74.3779
74.8676
75.0879
22.1966
27.1077
29.759
31.653
32.6786
32.6653
31.3519
28.4916
25.2779
20.1909
3.09711
14.4176
35.5922
45.8572
51.2589
55.4219
58.1622
60.5836
62.3324
63.7157
64.9401
66.0243
66.9607
67.7866
68.5238
69.2141
69.9063
70.5489
71.2238
71.8414
72.3442
72.4306
23.0209
28.044
30.9387
33.2364
34.8985
35.9005
36.1801
35.5286
33.2654
28.6933
26.2969
15.2873
5.81008
33.5189
45.1352
50.5724
54.8383
57.2748
59.399
61.1746
62.5291
63.6228
64.5297
65.3132
65.9259
66.458
66.9215
67.484
67.887
68.5177
68.8168
68.9161
22.4871
27.6443
30.7018
33.2357
35.2077
36.6125
37.4589
37.7484
37.3972
35.9278
31.6115
26.374
16.6918
16.3374
34.5982
44.6127
48.9695
53.2918
55.8542
57.5916
59.0564
60.2639
61.1401
61.8318
62.3199
62.7677
63.2113
63.609
64.2218
64.5326
64.9884
64.8364
21.01
26.3057
29.4593
32.1327
34.3007
35.9645
37.1492
37.894
38.2228
38.0463
36.7734
32.6752
32.077
20.7609
16.7399
32.8516
43.6278
47.1539
50.6513
53.4668
55.2076
56.4153
57.238
57.8205
58.0668
58.1135
58.0997
58.339
58.0535
58.8321
58.6405
58.44
19.0238
24.4229
27.6082
30.3364
32.6015
34.4215
35.8286
36.8836
37.6614
38.1968
38.3438
37.4922
33.7789
28.1769
19.1071
16.6803
27.739
40.1397
44.2228
46.3935
48.5836
49.9637
50.7128
51.1346
51.0163
50.9239
50.722
51.1336
52.0117
51.3744
51.7043
51.8802
16.7651
22.1623
25.2832
27.968
30.2391
32.1381
33.7128
35.0252
36.16
37.1882
38.0947
38.6438
37.9889
34.7896
27.4769
21.627
18.2606
22.7695
32.8036
39.8579
42.2456
43.7762
43.7537
44.1852
42.9935
42.2498
40.7515
38.9446
38.2403
39.8572
38.4996
35.4418
14.4878
19.7408
22.6907
25.2292
27.412
29.3038
30.9692
32.4772
33.9056
35.3271
36.7534
38.0586
38.8583
38.3974
34.2223
32.3022
24.0683
22.0747
24.9405
15.2826
23.9779
24.6015
29.1191
24.1908
26.7318
17.8468
7.82148
31.4779
27.07
41.4155
22.8559
27.2679
12.4613
17.443
20.1431
22.461
24.4857
26.3009
27.9813
29.5973
31.2172
32.9026
34.6867
36.5033
38.1214
39.0608
38.3032
33.6929
23.6355
30.0165
34.0288
23.9634
28.7519
24.8731
36.4905
23.926
36.1477
18.5133
10.2287
38.5905
29.9253
37.7398
22.5837
37.0424
10.897
15.5257
17.9532
20.0273
21.8661
23.5657
25.2032
26.8418
28.535
30.3295
32.266
34.3377
36.4244
38.205
39.0889
37.8695
35.1995
29.9202
32.4478
18.8102
34.0649
26.2637
31.4074
29.2805
33.9993
33.7102
29.6085
40.2784
38.0789
31.1375
29.5464
40.5069
9.73898
14.1193
16.3134
18.1803
19.8602
21.451
23.0213
24.6191
26.282
28.0456
29.9499
32.0259
34.2536
36.4665
38.2654
38.9659
38.7415
36.1233
33.5362
30.0915
25.6657
25.6819
33.0641
30.4967
33.3475
35.335
39.284
36.4895
36.6674
39.3223
39.313
38.6778
9.127
13.3099
15.3379
17.0692
18.6508
20.1695
21.6756
23.1982
24.7611
26.3938
28.1358
30.0355
32.1292
34.3861
36.6138
38.3718
39.4137
39.2478
38.9405
38.198
35.3402
36.3998
36.8656
38.6168
40.9334
41.1478
43.5148
41.866
40.7718
43.1577
42.7789
42.7312
8.95529
13.0459
14.9999
16.6811
18.233
19.7243
21.1847
22.6276
24.0675
25.5306
27.0555
28.6917
30.4945
32.5032
34.6855
36.8417
38.6826
39.7743
40.5137
40.5712
39.6234
40.0327
40.2571
41.2677
42.4628
42.2093
43.5053
42.4807
41.7462
43.0397
43.0252
43.4544
9.14722
13.2256
15.1814
16.8826
18.4596
19.9612
21.3999
22.7795
24.1113
25.4193
26.7382
28.1115
29.5912
31.235
33.0853
35.1116
37.171
38.9445
40.3485
41.0226
40.8804
41.0923
41.172
41.788
42.3854
42.033
42.5075
41.7117
41.4101
41.9319
42.1892
42.5495
9.5939
13.712
15.7197
17.4888
19.1291
20.6715
22.1163
23.4618
24.7187
25.9105
27.069
28.2303
29.4356
30.7352
32.1853
33.8265
35.6443
37.4858
39.179
40.309
40.7186
40.9855
41.1103
41.3291
41.3989
40.8818
40.7954
40.1215
40.0095
40.166
40.5639
40.7702
10.236
14.4232
16.5071
18.3654
20.0855
21.6828
23.1506
24.4869
25.704
26.8258
27.881
28.8982
29.9071
30.944
32.0557
33.2928
34.6925
36.2215
37.7744
39.0291
39.7444
40.1238
40.2835
40.2346
39.9465
39.2786
38.8684
38.2747
38.2457
38.2864
38.7756
38.9162
11.021
15.3063
17.4791
19.4328
21.234
22.8876
24.3847
25.7261
26.9282
28.0168
29.0182
29.9545
30.8447
31.7108
32.5843
33.5052
34.5171
35.6349
36.8238
37.9012
38.6482
39.0582
39.1971
38.9874
38.4935
37.7396
37.1728
36.6606
36.6913
36.7667
37.3332
37.5135
11.857
16.3138
18.584
20.632
22.5098
24.2164
25.7444
27.0997
28.3037
29.3846
30.3672
31.2687
32.1004
32.873
33.6037
34.3166
35.0459
35.8163
36.6271
37.3966
37.9789
38.2961
38.3451
38.0275
37.4278
36.6403
36.0157
35.5794
35.6764
35.8571
36.4964
36.7666
12.8405
17.4169
19.7809
21.9186
23.8676
25.6236
27.1829
28.5578
29.775
30.8648
31.8512
32.7476
33.56
34.2921
34.9509
35.5472
36.1017
36.6329
37.1503
37.623
37.97
38.1151
38.0237
37.608
36.9425
36.1426
35.506
35.1369
35.3012
35.6056
36.3076
36.6759
13.3545
13.7736
14.2521
14.6373
15.0083
15.3029
15.5597
15.759
15.9186
16.0316
16.1086
16.147
16.1516
16.1244
16.0691
15.9876
15.8834
15.7624
15.6385
15.5498
15.5947
15.7287
15.8766
16.0141
16.1321
16.2257
16.2932
16.3321
16.3378
16.3094
16.2425
16.1384
15.9864
15.7931
15.5409
15.2483
14.8779
14.4897
14.0078
13.5842
18.0525
18.4875
18.9856
19.3885
19.7773
20.0934
20.3731
20.5974
20.7831
20.924
21.0293
21.0971
21.1303
21.1297
21.0976
21.0351
20.9443
20.8299
20.7051
20.6108
20.6572
20.7977
20.946
21.0766
21.1809
21.2557
21.3
21.3121
21.2892
21.2318
21.1366
21.0046
20.8263
20.6077
20.3323
20.0176
19.6288
19.2225
18.7212
18.2818
20.4835
20.9431
21.4709
21.8991
22.3163
22.6633
22.9782
23.2405
23.4675
23.6522
23.8031
23.9185
23.9996
24.0456
24.0574
24.035
23.9793
23.8936
23.7899
23.7074
23.7515
23.8789
24.0058
24.1077
24.1772
24.2125
24.2135
24.1794
24.1097
24.0062
23.8665
23.6916
23.4732
23.2178
22.9082
22.5634
22.1468
21.7156
21.185
20.7204
22.6667
23.1446
23.6948
24.1424
24.5842
24.9588
25.3059
25.6045
25.8713
26.0993
26.2949
26.4567
26.5854
26.6783
26.7347
26.7537
26.7351
26.6818
26.6056
26.5439
26.5821
26.6875
26.7872
26.8569
26.8896
26.8839
26.8406
26.7605
26.6446
26.496
26.3127
26.096
25.8395
25.5497
25.2093
24.8385
24.3988
23.9495
23.3977
22.915
24.6414
25.1224
25.6799
26.1339
26.5875
26.9776
27.3451
27.6684
27.9641
28.2254
28.4573
28.657
28.8244
28.956
29.0498
29.1037
29.1171
29.0928
29.0424
29.0016
29.0337
29.1166
29.1905
29.2317
29.2323
29.1918
29.1114
28.9931
28.8394
28.6538
28.4354
28.1873
27.9038
27.5909
27.2318
26.8472
26.3971
25.9432
25.3854
24.9001
26.4091
26.8773
27.4284
27.8771
28.3317
28.7278
29.1069
29.4486
29.7675
30.0564
30.3187
30.5505
30.7507
30.915
31.0405
31.1243
31.1651
31.1654
31.1369
31.1119
31.1397
31.2041
31.256
31.2722
31.2452
31.1746
31.0622
30.9112
30.7249
30.5075
30.2595
29.9851
29.6797
29.3508
28.9818
28.5931
28.1437
27.6966
27.1462
26.6744
27.9733
28.418
28.9557
29.394
29.8458
30.2468
30.6375
30.9966
31.3373
31.6514
31.9411
32.2018
32.4313
32.6247
32.778
32.8877
32.9517
32.9723
32.9607
32.9466
32.9715
33.0225
33.0566
33.0518
33.001
32.9037
32.763
32.5826
32.3666
32.1202
31.8448
31.5455
31.2193
30.8738
30.4953
30.1046
29.6597
29.2245
28.6879
28.2399
29.3529
29.7711
30.2956
30.7256
31.1781
31.587
31.9907
32.3677
32.7293
33.0669
33.3819
33.6687
33.9243
34.1431
34.3206
34.4523
34.5358
34.5724
34.5729
34.5656
34.5887
34.6306
34.6514
34.6295
34.5583
34.4383
34.2725
34.0658
33.8232
33.55
33.2491
32.926
32.579
32.2161
31.8256
31.4282
30.9852
30.5602
30.0372
29.6161
30.5788
30.9726
31.4882
31.9156
32.3718
32.7906
33.2076
33.6017
33.9823
34.3414
34.6786
34.9883
35.2663
35.5068
35.7045
35.8544
35.9532
36.0019
36.0106
36.0072
36.0292
36.0655
36.0764
36.0411
35.9535
35.8143
35.6274
35.3981
35.1321
34.8353
34.5116
34.1666
33.8
33.4201
33.0163
32.61
32.1636
31.7438
31.2305
30.8343
31.6817
32.0544
32.5652
32.9925
33.4537
33.8821
34.3111
34.7205
35.1179
35.4951
35.8511
36.1798
36.4765
36.7348
36.9489
37.1129
37.2235
37.2811
37.2951
37.2932
37.3144
37.3475
37.3516
37.3061
37.2055
37.0508
36.8465
36.5985
36.3129
35.9961
35.6527
35.2888
34.9051
34.5096
34.0934
33.6776
33.2267
32.8074
32.3005
31.9264
32.6833
33.0357
33.5426
33.9698
34.4354
34.8721
35.3116
35.7336
36.1448
36.5371
36.9084
37.2525
37.5641
37.8366
38.0632
38.2384
38.3578
38.4217
38.4392
38.4381
38.4586
38.4892
38.4882
38.4351
38.3243
38.1574
37.9392
37.676
37.3745
37.0413
36.6817
36.302
35.9037
35.4949
35.0682
34.6439
34.1888
33.7698
33.2676
32.9144
33.592
33.9234
34.4248
34.8514
35.3199
35.7633
36.2112
36.6439
37.0663
37.4707
37.8542
38.2107
38.534
38.8172
39.0537
39.2373
39.3637
39.4328
39.4536
39.4537
39.4731
39.5007
39.495
39.4353
39.3163
39.1398
38.9106
38.6354
38.321
37.9747
37.6019
37.2092
36.7988
36.379
35.9435
35.512
35.0539
34.6362
34.1395
33.8086
34.4098
34.7169
35.211
35.6354
36.1058
36.5548
37.0097
37.451
37.8828
38.2971
38.6905
39.0564
39.3888
39.6805
39.9247
40.1151
40.2475
40.3217
40.3472
40.3501
40.3677
40.3904
40.3788
40.3127
40.1866
40.002
39.7641
39.4794
39.1549
38.7978
38.4142
38.0108
37.5905
37.1613
36.7183
36.2812
35.8209
35.4057
34.9169
34.6114
35.1361
35.4138
35.8975
36.3184
36.79
37.2438
37.7048
38.1538
38.5938
39.0163
39.4178
39.7915
40.1311
40.4294
40.6797
40.8758
41.0139
41.0942
41.1259
41.1335
41.1488
41.1641
41.145
41.0719
40.9391
40.7478
40.5026
40.21
39.8772
39.5115
39.1188
38.7064
38.2773
37.84
37.3904
36.9484
36.4871
36.0757
35.5977
35.3229
35.7691
36.011
36.4802
36.8961
37.3681
37.8263
38.2936
38.7499
39.1973
39.6273
40.036
40.4162
40.7618
41.0657
41.3212
41.5226
41.6663
41.7533
41.7927
41.8059
41.8187
41.8252
41.797
41.7162
41.5766
41.3789
41.1275
40.8283
40.4886
40.1153
39.715
39.2944
38.8573
38.4123
37.9566
37.5101
37.0489
36.643
36.1803
35.9438
36.3116
36.506
36.9543
37.3629
37.8342
38.2971
38.7707
39.2346
39.6896
40.127
40.5423
40.9286
41.2796
41.5883
41.8485
42.0548
42.2044
42.2986
42.346
42.3648
42.375
42.3724
42.3344
42.2453
42.0989
41.8951
41.6379
41.333
40.987
40.607
40.1994
39.7711
39.3263
38.8738
38.4122
37.9616
37.5014
37.1036
36.6614
36.4757
36.7665
36.8944
37.3136
37.7113
38.1806
38.648
39.1282
39.6003
40.0633
40.5084
40.9305
41.3228
41.679
41.9924
42.2571
42.4683
42.6236
42.7247
42.7795
42.8031
42.8109
42.8
42.7524
42.6549
42.5014
42.2918
42.029
41.7186
41.3667
40.9803
40.5656
40.1299
39.6774
39.2174
38.7499
38.2957
37.8387
37.4526
37.0419
36.9274
37.1414
37.1746
37.5489
37.931
38.3957
38.8674
39.3545
39.8355
40.3072
40.7606
41.1902
41.5888
41.9503
42.2685
42.5378
42.7537
42.9145
43.0218
43.083
43.1103
43.1159
43.0976
43.0412
42.9356
42.7753
42.5596
42.2914
41.9754
41.6178
41.225
40.8033
40.3597
39.8996
39.432
38.9591
38.5026
38.0521
37.683
37.3211
37.3067
37.4422
37.3462
37.6525
38.0097
38.4666
38.9411
39.4352
39.9256
40.407
40.8694
41.307
41.7126
42.0801
42.4034
42.6773
42.8978
43.0637
43.1766
43.243
43.273
43.2765
43.2518
43.1874
43.0742
42.9072
42.6855
42.4117
42.0901
41.7264
41.3269
40.898
40.4467
39.9787
39.5038
39.0263
38.5694
38.1285
37.788
37.499
37.6199
37.6666
37.4071
37.6183
37.9359
38.3796
38.855
39.3553
39.8552
40.3466
40.8189
41.2653
41.6785
42.0524
42.3813
42.66
42.8852
43.0557
43.1733
43.2437
43.2755
43.2769
43.2467
43.1754
43.0552
42.8816
42.6538
42.3741
42.0465
41.6765
41.2703
40.8339
40.3747
39.8993
39.418
38.9376
38.4826
38.0591
37.7627
37.5719
37.8573
37.7762
37.3414
37.4391
37.7016
38.1232
38.5984
39.1036
39.6124
40.1137
40.5958
41.0512
41.4724
41.8531
42.1876
42.4712
42.7008
42.8754
42.9967
43.07
43.1027
43.1021
43.0671
42.9896
42.8628
42.6829
42.4491
42.1634
41.8297
41.4532
41.0399
40.5964
40.13
39.648
39.1614
38.6805
38.2306
37.8339
37.5964
37.5205
37.9789
37.736
37.1328
37.1119
37.309
37.6994
38.1684
38.6779
39.1942
39.7041
40.1952
40.6589
41.0875
41.4744
41.8142
42.1021
42.3353
42.5128
42.6366
42.7115
42.7443
42.7415
42.7022
42.6193
42.4867
42.3009
42.0612
41.7697
41.43
41.0474
40.6277
40.1776
39.7049
39.2174
38.7275
38.2462
37.8071
37.4453
37.2754
37.3159
37.9336
37.4533
36.7372
36.6269
36.767
37.1266
37.5854
38.0966
38.617
39.1327
39.6298
40.0994
40.5331
40.9244
41.2675
41.5579
41.7929
41.9715
42.0957
42.1704
42.202
42.1967
42.1536
42.066
41.9285
41.7376
41.4929
41.1961
40.8513
40.4634
40.0385
39.5834
39.1061
38.6151
38.1234
37.644
37.2198
36.8957
36.7919
36.9356
37.6878
36.9686
36.181
36.0126
36.1099
36.4421
36.8875
37.3954
37.9186
38.4367
38.9363
39.4079
39.8432
40.2353
40.5784
40.8681
41.1016
41.2782
41.3999
41.4716
41.5001
41.4916
41.4452
41.3542
41.2131
41.0184
40.7699
40.4695
40.121
39.7295
39.301
38.8426
38.3622
37.8689
37.3745
36.8991
36.4898
36.1963
36.1406
36.3493
37.1812
36.2754
35.4885
35.3148
35.3989
35.7184
36.1543
36.657
37.1781
37.6934
38.19
38.6582
39.0895
39.477
39.8149
40.099
40.3261
40.4958
40.6104
40.6753
40.6981
40.6854
40.6361
40.5432
40.4002
40.2038
39.9535
39.6514
39.3013
38.9084
38.4788
38.0194
37.538
37.044
36.5483
36.0763
35.6778
35.4027
35.3733
35.6092
36.474
35.6637
34.8709
34.6933
34.7676
35.0757
35.5
35.9923
36.5045
37.011
37.4987
37.9575
38.379
38.7562
39.0833
39.3557
39.5707
39.7279
39.8298
39.8829
39.8964
39.8786
39.8278
39.7351
39.5931
39.3976
39.1481
38.847
38.4978
38.106
37.6775
37.2191
36.7383
36.244
35.7487
35.2797
34.8869
34.6178
34.593
34.8241
35.6802
35.2391
34.4597
34.2907
34.3613
34.6596
35.0691
35.5448
36.04
36.5304
37.0022
37.4449
37.8499
38.2103
38.5202
38.775
38.972
39.1105
39.1935
39.2289
39.2292
39.2057
39.1559
39.0674
38.93
38.7392
38.4946
38.1983
37.8544
37.4681
37.0455
36.593
36.1188
35.6312
35.1433
34.6821
34.2963
34.0305
34.004
34.2217
35.0577
35.0522
34.3312
34.198
34.2821
34.5786
34.9751
35.431
35.9029
36.3709
36.8202
37.2405
37.6232
37.9611
38.2485
38.4809
38.655
38.7703
38.8294
38.8416
38.8245
38.7963
38.7521
38.6727
38.5447
38.3633
38.128
37.8419
37.509
37.1345
36.7244
36.2858
35.8264
35.3557
34.8858
34.44
34.0646
33.8014
33.7655
33.9567
34.7477
35.2579
34.5898
34.4868
34.5777
34.8667
35.2445
35.6758
36.1205
36.5618
36.9848
37.3792
37.7363
38.0491
38.312
38.5203
38.6708
38.7622
38.7967
38.7836
38.746
38.7146
38.6812
38.615
38.5
38.3316
38.1105
37.8397
37.5239
37.1685
36.7796
36.3642
35.9309
35.4894
35.054
34.6417
34.2952
34.0521
34.0246
34.2038
34.9662
35.7209
35.1243
35.0618
35.1633
35.4453
35.8023
36.2052
36.6211
37.0334
37.4281
37.7948
38.125
38.4124
38.651
38.8364
38.9653
39.0359
39.0496
39.0149
38.9582
38.9258
38.905
38.8525
38.751
38.5971
38.3919
38.139
37.843
37.5093
37.1438
36.7534
36.3466
35.9329
35.5269
35.1437
34.8187
34.5828
34.5427
34.6828
35.3748
36.28
35.7382
35.7095
35.8198
36.0962
36.4366
36.8189
37.2118
37.6007
37.9716
38.3149
38.6228
38.8887
39.1072
39.274
39.3858
39.4407
39.4396
39.3902
39.3189
39.284
39.2714
39.2283
39.1373
38.9954
38.8042
38.5674
38.2895
37.9759
37.6328
37.2668
36.8866
36.5018
36.1276
35.78
35.4925
35.288
35.2727
35.4211
36.1134
36.8677
36.2932
36.2366
36.3175
36.5672
36.8817
37.2428
37.6174
37.9901
38.3466
38.6769
38.973
39.2284
39.4375
39.5961
39.7006
39.7494
39.7432
39.6895
39.6154
39.5834
39.5775
39.542
39.4594
39.3272
39.1472
38.9228
38.6588
38.3604
38.0335
37.6848
37.3226
36.9562
36.6003
36.2699
35.9981
35.802
35.7843
35.9098
36.5578
42.5793
50.3441
56.5103
62.5168
67.656
71.7987
75.106
77.7719
79.9509
81.7789
83.3748
84.8048
86.1072
87.3139
88.4546
89.559
90.657
91.7757
92.9367
94.1563
95.443
96.7984
98.2193
99.6986
101.226
102.789
104.37
105.946
107.476
108.893
110.052
110.734
41.8907
49.3744
55.3467
61.2191
66.289
70.3979
73.6866
76.3435
78.5218
80.3561
81.9587
83.3908
84.6832
85.8746
86.9969
88.0805
89.1554
90.2493
91.3852
92.5781
93.8365
95.1625
96.5525
97.9993
99.4931
101.02
102.565
104.104
105.598
106.98
108.109
108.775
41.1237
48.3607
54.1487
59.8858
64.8856
68.9648
72.2432
74.9023
77.0926
78.9436
80.5594
81.9961
83.2835
84.4645
85.5706
86.6341
87.6871
88.7579
89.8683
91.0347
92.2657
93.5627
94.9222
96.3372
97.7974
99.2899
100.799
102.301
103.759
105.107
106.207
106.855
40.3413
47.3446
52.9497
58.5496
63.4801
67.5332
70.8058
73.4721
75.6808
77.5546
79.187
80.6301
81.917
83.0871
84.1789
85.2258
86.2592
87.3075
88.3952
89.5371
90.7414
92.0102
93.3401
94.7234
96.1503
97.6086
99.0811
100.548
101.969
103.283
104.354
104.985
39.4988
46.2801
51.6991
57.1564
62.018
66.0535
69.3348
72.0253
74.2666
76.172
77.827
79.283
80.5755
81.743
82.8257
83.857
84.8721
85.9013
86.9662
88.0837
89.263
90.5051
91.8063
93.1596
94.5548
95.979
97.4177
98.8485
100.235
101.516
102.559
103.172
38.6599
45.2209
50.4493
55.7606
60.5561
64.5815
67.8777
70.5941
72.8684
74.8072
76.4874
77.9587
79.2599
80.4276
81.5025
82.5236
83.5249
84.5352
85.5814
86.6782
87.8334
89.0496
90.3234
91.6468
93.0105
94.4019
95.8055
97.2014
98.5533
99.8006
100.815
101.413
37.7519
44.0976
49.1255
54.2793
59.0052
63.0289
66.3581
69.1231
71.4497
73.433
75.1463
76.6416
77.9589
79.138
80.2152
81.2286
82.2164
83.2134
84.2403
85.3155
86.4487
87.641
88.8881
90.1837
91.5171
92.8766
94.2477
95.6095
96.9275
98.144
99.1316
99.7121
36.8485
42.9767
47.7979
52.789
57.4487
61.4822
64.8536
67.6661
70.0387
72.0661
73.8163
75.3387
76.6767
77.8671
78.9497
79.9616
80.9451
81.9285
82.942
84.0013
85.1138
86.2825
87.5047
88.7721
90.0756
91.4035
92.7407
94.0686
95.3528
96.5358
97.4962
98.0613
35.8487
41.7596
46.3561
51.1623
55.7419
59.7877
63.2216
66.116
68.5709
70.6647
72.4647
74.0274
75.3954
76.6111
77.7094
78.7292
79.7061
80.6848
81.6845
82.7254
83.8194
84.9673
86.1649
87.4064
88.6811
89.9785
91.2842
92.5797
93.8308
94.9849
95.9179
96.4663
34.8374
40.5264
44.8936
49.5078
54.0103
58.0856
61.5994
64.5743
67.0952
69.2511
71.1074
72.7136
74.1192
75.3598
76.4761
77.5048
78.4933
79.4681
80.4614
81.4933
82.5706
83.6977
84.8726
86.087
87.3328
88.5986
89.8707
91.1316
92.3494
93.4698
94.3754
94.9087
33.662
39.1327
43.2469
47.6305
52.02
56.1106
59.7227
62.8335
65.4953
67.7619
69.6982
71.3715
72.826
74.1099
75.2568
76.3092
77.2993
78.2795
79.2673
80.2853
81.3482
82.4578
83.6097
84.7994
86.0166
87.2519
88.4926
89.7213
90.9064
91.9987
92.8778
93.394
32.4188
37.6841
41.5441
45.6912
49.9716
54.1045
57.8506
61.0994
63.8623
66.2244
68.2532
69.9951
71.5122
72.8399
74.0239
75.0969
76.1161
77.1019
78.092
79.1099
80.1613
81.2528
82.3843
83.5477
84.7362
85.9393
87.1452
88.3389
89.4903
90.5479
91.3974
91.8991
30.9208
35.9795
39.5417
43.378
47.4662
51.5822
55.4603
58.9373
61.9677
64.5362
66.7031
68.5619
70.1591
71.5571
72.7886
73.9075
74.9372
75.9409
76.9345
77.9422
78.9839
80.0619
81.1723
82.3123
83.4724
84.6453
85.8195
86.9815
88.1003
89.1302
89.9531
90.4386
29.2571
34.1387
37.4197
40.9497
44.8571
49.0074
53.0977
56.8137
59.9957
62.7227
65.0574
67.0313
68.7354
70.2062
71.5074
72.6632
73.7464
74.7685
75.7751
76.7951
77.8319
78.895
79.9876
81.1018
82.2332
83.372
84.5099
85.6343
86.7175
87.7105
88.5019
88.9712
27.1296
31.8376
34.7674
37.8452
41.3777
45.3759
49.5824
53.6834
57.4444
60.6028
63.2021
65.3989
67.2409
68.832
70.2024
71.4345
72.5391
73.5963
74.6195
75.6324
76.6648
77.7194
78.7926
79.8844
80.9863
82.0949
83.1999
84.2932
85.3433
86.3089
87.0712
87.5261
24.5359
29.1708
31.8417
34.5458
37.7725
41.7636
46.3223
50.8246
54.7227
58.1694
61.1136
63.5239
65.5725
67.2898
68.7924
70.0893
71.2854
72.3784
73.4278
74.4719
75.5083
76.5517
77.6097
78.6756
79.748
80.818
81.8836
82.9341
83.9453
84.8697
85.596
86.0333
20.8453
25.5073
27.763
29.7373
32.1203
35.4793
39.8868
45.1308
50.6389
55.064
58.5764
61.4786
63.7818
65.7253
67.3307
68.7522
69.9825
71.1367
72.2227
73.2609
74.2989
75.3398
76.3801
77.4236
78.4635
79.5028
80.5323
81.5528
82.5293
83.426
84.1185
84.5442
15.4374
20.5685
23.1171
24.9472
26.9621
30.313
35.533
41.1079
45.807
51.0527
55.4396
58.7814
61.5711
63.7659
65.6417
67.1856
68.5776
69.7937
70.9226
72.0229
73.0784
74.1124
75.1401
76.1561
77.1646
78.1563
79.141
80.1083
81.0394
81.886
82.5367
82.9415
6.28932
10.8513
11.4256
11.2593
9.4086
8.18542
15.4342
26.1822
39.1392
45.6044
51.2298
55.8866
59.1503
61.8158
63.8593
65.6207
67.0634
68.3869
69.5889
70.6791
71.7429
72.7822
73.7936
74.7856
75.7549
76.7147
77.6567
78.5973
79.4905
80.3111
80.9151
81.3146
7.15068
7.04527
6.77016
4.54554
7.05067
8.14257
12.7638
21.5575
16.0204
35.959
45.1306
50.8078
55.6138
58.9006
61.5731
63.5894
65.3472
66.7795
68.0466
69.257
70.3612
71.3995
72.4002
73.3611
74.2945
75.189
76.0766
76.9424
77.7792
78.5298
79.0845
79.4577
11.7503
16.0419
17.1042
16.873
15.6487
15.406
15.2181
15.6244
10.2553
17.3799
35.4179
46.4357
51.7447
56.1377
59.0894
61.5556
63.3886
65.0283
66.4482
67.6307
68.7513
69.8066
70.7924
71.7238
72.6049
73.4635
74.2967
75.1459
75.9368
76.6713
77.1486
77.5287
19.7775
24.1858
26.0281
26.6724
25.9766
24.0068
21.7634
18.8222
21.8115
22.2856
22.7618
32.235
44.7104
50.7257
55.4688
58.4956
61.0316
62.8755
64.3919
65.8231
67.031
68.0958
69.0717
69.964
70.7982
71.5573
72.3142
73.04
73.7577
74.3712
74.7904
75.1383
21.576
26.5237
29.1914
31.1146
32.1821
32.2097
30.8874
28.0895
23.23
21.4551
25.2278
17.0842
35.4972
46.4049
51.2053
55.4505
58.0802
60.3949
62.2707
63.6111
64.8459
65.9482
66.9125
67.7604
68.5144
69.2241
69.9093
70.6508
71.2975
71.943
72.2062
72.5796
22.2215
27.256
30.1337
32.4174
34.0718
35.074
35.3569
34.6996
32.5175
27.4738
25.9419
15.5952
11.2187
30.6645
44.3494
49.8209
54.3499
57.0535
59.0582
60.9874
62.4237
63.5587
64.51
65.2991
65.9801
66.5155
67.0586
67.5539
68.1122
68.4754
68.6695
69.0305
21.5484
26.7172
29.7547
32.275
34.2449
35.6589
36.5209
36.8251
36.4779
35.0401
31.1055
25.1572
21.1593
24.1117
33.2221
44.6945
48.9221
52.9664
55.9332
57.5009
58.9579
60.1743
61.1237
61.8261
62.351
62.7992
63.2742
63.887
64.2739
64.9301
64.7377
65.1
20.1049
25.401
28.5299
31.1869
33.3521
35.0293
36.2444
37.0399
37.458
37.4484
36.4603
32.9102
25.2703
23.8911
22.9127
30.8657
42.3053
46.6965
49.8056
53.0578
55.0604
56.3581
57.2644
57.848
58.2554
58.3169
58.3832
58.4042
58.7617
58.4165
58.1737
58.7814
18.2413
23.6164
26.7674
29.472
31.7289
33.5568
34.9877
36.08
36.9119
37.5399
37.8639
37.22
33.5759
27.2273
29.4564
17.8516
27.7177
39.2092
45.0301
46.6533
48.3512
49.8165
50.8623
51.1457
51.06
51.1755
51.241
51.6604
51.426
53.2264
52.4
51.6596
16.1243
21.473
24.5491
27.2016
29.4561
31.3544
32.9423
34.2793
35.4501
36.5347
37.5399
38.2352
37.7702
33.494
26.3575
21.1161
30.9585
26.1817
32.4095
38.4201
41.7768
43.5376
43.9477
44.2966
44.058
42.3686
41.7065
40.2713
40.0775
37.5081
32.4356
37.5503
13.9729
19.1654
22.0675
24.5699
26.7301
28.6115
30.2756
31.7881
33.2265
34.6693
36.1444
37.5475
38.5141
37.9443
34.2284
26.4643
27.0001
33.288
35.0869
22.8743
21.2936
24.0774
27.7741
23.4916
21.9622
26.1204
19.1651
16.3076
28.7226
28.3815
31.8935
20.224
12.064
16.9832
19.638
21.9201
23.9188
25.7151
27.3808
28.9839
30.5929
32.273
34.0653
35.9158
37.6197
38.7041
38.5073
34.7989
28.3838
24.6458
28.5008
26.4551
21.9064
17.8607
32.6868
23.3071
16.8749
33.4239
22.7644
17.5628
41.879
31.6796
37.7134
17.5854
10.5819
15.1579
17.5479
19.5912
21.4043
23.0806
24.6947
26.3087
27.9767
29.747
31.6647
33.7305
35.843
37.7111
38.8993
38.5016
36.2448
29.6959
25.6974
31.8733
21.9272
20.2672
29.8597
26.5486
27.7269
35.4577
34.702
31.5811
37.0034
33.4578
26.0501
30.4691
9.49203
13.8264
15.9917
17.8341
19.4915
21.0592
22.6045
24.1745
25.8064
27.535
29.3996
31.435
33.6339
35.8647
37.8123
38.9116
38.8885
37.2998
31.9633
28.3901
26.9769
26.9512
26.0078
30.0168
31.3249
32.5505
34.7461
38.1295
38.3911
34.3942
36.2255
41.2496
8.91888
13.0673
15.0769
16.7918
18.357
19.8578
21.344
22.844
24.3795
25.9769
27.6733
29.5167
31.5481
33.7556
35.9987
37.9154
39.1226
39.3167
37.493
36.1948
36.5404
37.2081
37.1245
39.3471
39.0954
40.3602
40.6875
42.7564
42.8055
39.9552
41.5082
43.6444
8.7625
12.8277
14.7715
16.4435
17.9857
19.4669
20.9168
22.3476
23.7706
25.2081
26.6953
28.2796
30.0163
31.951
34.0765
36.2443
38.1604
39.4292
39.4494
39.5148
39.785
40.3947
40.5
41.6464
41.13
42.1454
41.9992
43.0665
42.9783
41.492
42.4078
43.4896
8.94992
13.0102
14.9608
16.6577
18.2302
19.7285
21.1655
22.5438
23.8713
25.1679
26.4648
27.8031
29.2327
30.8115
32.5905
34.5651
36.6165
38.4495
39.5804
40.3569
40.6925
41.1953
41.2474
41.9557
41.4884
42.0556
41.9013
42.262
42.052
41.2539