/*--------------------------------*- C++ -*----------------------------------*\
  =========                 |
  \\      /  F ield         | OpenFOAM: The Open Source CFD Toolbox
   \\    /   O peration     | Website:  https://openfoam.org
    \\  /    A nd           | Version:  6
     \\/     M anipulation  |
\*---------------------------------------------------------------------------*/
FoamFile
{
    version     2.0;
    format      ascii;
    class       volScalarField;
    location    "2";
    object      omega;
}
// * * * * * * * * * * * * * * * * * * * * * * * * * * * * * * * * * * * * * //

dimensions      [0 0 -1 0 0 0 0];

internalField   nonuniform List<scalar> 
63280
(
843.917
843.917
843.917
843.917
843.917
843.917
843.917
843.917
843.917
843.917
843.917
843.917
843.917
843.917
843.917
843.917
843.917
843.917
843.917
843.917
843.917
843.917
843.917
843.917
843.917
843.917
843.917
843.917
843.917
843.917
843.917
843.917
843.917
843.917
843.917
843.917
843.917
843.917
843.917
843.917
843.917
843.917
843.917
843.917
843.917
843.917
843.917
843.917
843.917
843.917
843.917
843.917
843.917
843.917
843.917
843.917
843.917
843.917
843.917
843.917
843.917
843.917
843.917
843.917
843.917
843.917
843.917
843.917
843.917
843.917
843.917
843.917
843.917
843.917
843.917
843.917
843.917
843.917
843.917
843.917
843.917
843.917
843.917
843.917
843.917
843.917
843.917
843.917
843.917
843.917
843.917
843.917
843.917
843.917
843.917
843.917
843.917
843.917
843.917
843.917
843.917
843.917
843.917
843.917
843.917
843.917
843.917
843.917
843.917
843.917
843.917
843.917
843.917
843.917
843.917
843.917
843.917
843.917
843.917
843.917
843.917
843.917
843.917
843.917
843.917
843.917
843.917
843.917
843.917
843.917
843.917
843.917
843.917
843.917
843.917
843.917
843.917
843.917
843.917
843.917
843.917
843.917
843.917
843.917
843.917
843.917
843.917
843.917
843.917
843.917
843.917
843.917
843.917
843.917
843.917
843.917
843.917
843.917
843.917
843.917
843.917
843.917
843.917
843.917
843.917
843.917
843.917
843.917
843.917
843.917
843.917
843.917
843.917
843.917
843.917
843.917
843.917
843.917
843.917
843.917
843.917
843.917
843.917
843.917
843.917
843.917
843.917
843.917
843.917
843.917
843.917
843.917
843.917
843.917
843.917
843.917
843.917
843.917
843.917
843.917
843.917
843.917
843.917
843.917
843.917
843.917
843.917
843.917
843.917
843.917
843.917
843.917
843.917
843.917
843.917
843.917
843.917
843.917
843.917
843.917
843.917
843.917
843.917
843.917
843.917
843.917
843.917
843.917
843.917
843.917
843.917
843.917
843.917
843.917
843.917
843.917
843.917
843.917
843.917
843.917
843.917
843.917
843.917
843.917
843.917
843.917
843.917
843.917
843.917
843.917
843.917
843.917
843.917
843.917
843.917
843.917
843.917
843.917
843.917
843.917
843.917
843.917
843.917
843.917
843.917
843.917
843.917
843.917
843.917
843.917
843.917
843.917
843.917
843.917
843.917
843.917
843.917
843.917
843.917
843.917
843.917
843.917
843.917
843.917
843.917
843.917
843.917
843.917
843.917
843.917
843.917
843.917
843.917
843.917
843.917
843.917
843.917
843.917
843.917
843.917
843.917
843.917
843.917
843.917
843.917
843.917
843.917
843.917
843.917
843.917
843.917
843.917
843.917
843.917
843.917
843.917
843.917
843.917
843.917
843.917
843.917
843.917
843.917
843.917
843.917
843.917
843.917
843.917
843.917
843.917
843.917
843.917
843.917
843.917
843.917
843.917
843.917
843.917
843.917
843.917
843.917
843.917
425.746
425.826
425.862
425.882
425.927
425.927
426.04
425.971
426.003
425.943
425.884
425.795
425.668
425.619
425.583
425.554
425.523
425.5
266.719
266.858
266.991
267.121
267.239
267.344
267.429
267.501
267.563
267.613
267.641
267.65
267.641
267.617
267.582
267.515
267.43
266.665
266.816
266.964
267.111
267.251
267.373
267.475
267.552
267.611
267.638
267.646
267.623
267.586
267.524
267.453
267.356
267.253
266.414
266.568
266.716
266.863
266.998
267.115
267.214
267.285
267.343
267.369
267.377
267.354
267.315
267.252
267.171
267.07
266.948
265.988
266.127
266.263
266.393
266.516
266.617
266.699
266.753
266.793
266.815
266.821
266.808
266.774
266.729
266.66
266.584
266.475
265.426
265.547
265.666
265.772
265.876
265.958
266.026
266.073
266.106
266.139
266.153
266.163
266.139
266.105
266.043
265.985
265.899
264.673
264.788
264.893
264.996
265.094
265.192
265.267
265.33
265.358
265.387
265.401
265.424
265.422
265.411
265.356
265.298
265.21
263.792
263.897
263.99
264.081
264.164
264.252
264.321
264.385
264.419
264.453
264.476
264.52
264.552
264.584
264.566
264.525
264.437
262.763
262.85
262.926
262.987
263.051
263.113
263.183
263.256
263.314
263.372
263.414
263.472
263.52
263.573
263.574
263.547
263.455
261.596
261.679
261.747
261.803
261.852
261.908
261.976
262.068
262.157
262.251
262.32
262.399
262.46
262.532
262.557
262.555
262.472
260.397
260.464
260.514
260.548
260.574
260.615
260.677
260.783
260.898
261.019
261.104
261.186
261.241
261.311
261.345
261.364
261.304
259.045
259.097
259.129
259.159
259.18
259.228
259.294
259.405
259.532
259.67
259.775
259.868
259.923
259.989
260.03
260.077
260.055
257.589
257.622
257.636
257.647
257.662
257.709
257.789
257.913
258.051
258.191
258.286
258.355
258.374
258.404
258.426
258.487
258.515
255.99
256.014
256.015
256.017
256.021
256.067
256.141
256.254
256.363
256.465
256.528
256.578
256.594
256.633
256.665
256.743
256.802
254.221
254.234
254.231
254.228
254.227
254.254
254.305
254.385
254.468
254.55
254.606
254.67
254.712
254.783
254.839
254.93
254.996
252.176
252.17
252.161
252.145
252.101
252.048
251.986
251.95
251.929
251.947
251.987
252.067
252.15
252.263
252.355
252.473
252.558
249.455
249.436
249.438
249.427
249.357
249.232
249.083
248.976
248.945
249.015
249.157
249.352
249.542
249.727
249.854
249.971
250.034
245.718
245.68
245.659
245.611
245.501
245.334
245.161
245.045
245.034
245.143
245.343
245.601
245.847
246.082
246.248
246.388
246.472
240.675
240.66
240.625
240.58
240.521
240.447
240.381
240.347
240.393
240.555
240.82
241.156
241.489
241.784
241.991
242.15
242.245
235.329
235.211
235.024
234.812
234.627
234.449
234.209
233.885
233.471
233.059
232.762
232.664
232.784
233.044
233.358
233.655
233.944
234.19
225.93
225.726
225.469
225.211
224.898
224.47
223.767
222.923
221.859
220.801
219.987
219.303
218.999
218.901
218.872
218.979
219.187
219.334
14.3652
14.6123
14.771
14.8561
14.9064
14.8941
14.8792
14.844
14.7976
14.7321
14.6185
14.4857
14.2863
14.1
13.9253
13.7594
13.572
13.3995
130.272
130.562
130.851
131.135
131.404
131.649
131.864
132.044
132.18
132.274
132.313
132.316
132.267
132.203
132.093
131.976
131.813
129.754
129.981
130.21
130.435
130.651
130.852
131.026
131.176
131.287
131.375
131.422
131.45
131.44
131.416
131.359
131.29
131.192
129.159
129.348
129.54
129.731
129.918
130.093
130.25
130.388
130.499
130.588
130.648
130.686
130.699
130.693
130.665
130.618
130.554
128.488
128.649
128.812
128.978
129.142
129.3
129.442
129.569
129.677
129.77
129.845
129.9
129.935
129.949
129.95
129.927
129.892
127.822
127.96
128.098
128.237
128.374
128.506
128.626
128.735
128.835
128.929
129.017
129.09
129.15
129.186
129.21
129.213
129.208
127.078
127.198
127.321
127.444
127.573
127.699
127.822
127.932
128.031
128.12
128.208
128.29
128.366
128.421
128.459
128.471
128.477
126.296
126.403
126.512
126.619
126.73
126.839
126.947
127.047
127.141
127.228
127.322
127.419
127.52
127.606
127.669
127.697
127.706
125.448
125.537
125.623
125.704
125.786
125.873
125.969
126.072
126.18
126.287
126.4
126.515
126.633
126.736
126.813
126.845
126.845
124.53
124.609
124.685
124.753
124.821
124.894
124.984
125.09
125.212
125.338
125.468
125.598
125.732
125.855
125.956
126.01
126.02
123.63
123.695
123.75
123.793
123.834
123.884
123.961
124.071
124.21
124.361
124.513
124.656
124.796
124.924
125.034
125.102
125.125
122.631
122.685
122.729
122.764
122.802
122.854
122.934
123.043
123.181
123.33
123.478
123.615
123.748
123.876
124.001
124.1
124.163
121.591
121.63
121.656
121.674
121.699
121.744
121.823
121.935
122.073
122.214
122.347
122.463
122.571
122.681
122.806
122.932
123.044
120.448
120.481
120.5
120.512
120.532
120.577
120.657
120.767
120.892
121.01
121.113
121.199
121.282
121.375
121.492
121.626
121.766
119.211
119.242
119.261
119.272
119.283
119.307
119.353
119.424
119.514
119.606
119.697
119.784
119.876
119.976
120.094
120.224
120.364
117.772
117.816
117.855
117.874
117.863
117.825
117.781
117.752
117.754
117.789
117.859
117.957
118.078
118.209
118.347
118.485
118.625
115.887
115.948
116.009
116.03
115.979
115.854
115.699
115.573
115.526
115.577
115.717
115.914
116.136
116.35
116.542
116.704
116.842
113.286
113.347
113.403
113.4
113.307
113.129
112.929
112.778
112.734
112.813
113.003
113.26
113.54
113.805
114.036
114.223
114.38
109.903
109.948
109.967
109.937
109.847
109.696
109.516
109.357
109.285
109.35
109.556
109.867
110.226
110.57
110.866
111.103
111.296
106.325
106.3
106.23
106.14
106.044
105.927
105.716
105.389
104.968
104.541
104.229
104.11
104.188
104.414
104.698
104.979
105.249
105.511
99.3521
99.3007
99.2823
99.3247
99.3926
99.3547
99.0945
98.6053
97.9101
97.173
96.5729
96.1786
96.0222
96.0347
96.1122
96.2298
96.3887
96.5623
17.0502
17.3333
17.541
17.6543
17.7158
17.7045
17.6874
17.6392
17.5842
17.5105
17.3786
17.2287
17.0246
16.8052
16.5859
16.3766
16.1377
15.9142
77.8153
78.0351
78.2659
78.5014
78.7393
78.9702
79.1879
79.3903
79.5657
79.7182
79.828
79.9179
79.9596
79.997
79.9834
79.9778
79.9151
77.4471
77.6201
77.8028
77.9914
78.1801
78.3701
78.5448
78.7144
78.8553
78.9892
79.0889
79.1844
79.2441
79.3033
79.3269
79.3503
79.3387
77.009
77.1517
77.3063
77.4667
77.6316
77.7972
77.9538
78.1064
78.2394
78.3655
78.4685
78.5633
78.636
78.6991
78.744
78.7748
78.7943
76.5218
76.6457
76.7765
76.9162
77.0588
77.2059
77.3464
77.4834
77.6089
77.727
77.835
77.9306
78.0176
78.0867
78.1512
78.1919
78.2323
76.0427
76.1519
76.263
76.3836
76.5035
76.6271
76.7468
76.8617
76.9764
77.084
77.1968
77.297
77.3985
77.4801
77.5626
77.6204
77.6821
75.4979
75.5905
75.6934
75.799
75.9137
76.0274
76.1481
76.2588
76.3739
76.4781
76.5914
76.6949
76.8041
76.8925
76.9822
77.044
77.1133
74.9377
75.0215
75.1141
75.2061
75.3061
75.4025
75.5062
75.6013
75.7037
75.8
75.9119
76.0224
76.1469
76.2531
76.356
76.4237
76.4907
74.3284
74.4001
74.4721
74.5465
74.6203
74.6995
74.7877
74.8816
74.991
75.1024
75.2316
75.3601
75.5018
75.6244
75.738
75.8053
75.8583
73.6693
73.7314
73.7951
73.8552
73.9174
73.9822
74.0624
74.1523
74.2646
74.3821
74.5197
74.6564
74.8102
74.9489
75.0836
75.1704
75.2339
73.0248
73.0773
73.1243
73.1632
73.202
73.2443
73.3101
73.3965
73.519
73.6561
73.8162
73.9725
74.1413
74.2918
74.4382
74.5363
74.6085
72.3052
72.3511
72.3949
72.4266
72.4647
72.5067
72.575
72.6622
72.7791
72.9059
73.0501
73.1888
73.3437
73.4899
73.6479
73.7717
73.8809
71.5593
71.5974
71.6274
71.6466
71.67
71.7038
71.7648
71.8482
71.9589
72.0746
72.2022
72.3212
72.4587
72.5984
72.7676
72.9238
73.0798
70.7257
70.7597
70.7877
70.8029
70.8269
70.8601
70.925
71.0114
71.1215
71.2285
71.3368
71.4277
71.533
71.6417
71.7904
71.9447
72.1206
69.8205
69.8572
69.8876
69.9059
69.9212
69.9361
69.967
70.0137
70.0841
70.16
70.2499
70.3326
70.4351
70.5384
70.6755
70.8163
70.9857
68.7294
68.7913
68.8538
68.8937
68.9075
68.8838
68.8502
68.8185
68.8189
68.8467
68.917
69.0081
69.1356
69.2662
69.4221
69.5654
69.7283
67.3096
67.4017
67.4932
67.5419
67.5205
67.4187
67.2751
67.1372
67.0641
67.0734
67.1766
67.3391
67.5519
67.7636
67.9824
68.1652
68.3451
65.3386
65.4369
65.5346
65.5805
65.5379
65.3988
65.2108
65.0416
64.9578
64.9825
65.1256
65.3429
65.615
65.8804
66.1393
66.3502
66.5462
62.9297
62.9766
63.017
63.0196
62.9627
62.8273
62.6307
62.4158
62.2545
62.2082
62.3115
62.5369
62.8527
63.1842
63.5056
63.7724
64.0123
60.348
60.3562
60.339
60.3219
60.3109
60.2934
60.1996
59.9853
59.6581
59.2868
58.9805
58.8293
58.845
59.0052
59.2306
59.4676
59.6839
59.9057
56.126
56.0776
56.1153
56.251
56.5039
56.7034
56.7699
56.596
56.1781
55.6626
55.1434
54.816
54.686
54.6939
54.7771
54.8997
54.9993
55.1233
19.2535
19.5617
19.8148
19.9653
20.0616
20.0645
20.0508
19.9906
19.9158
19.8294
19.6799
19.5126
19.2975
19.0533
18.7948
18.5496
18.2663
17.9987
51.812
51.9537
52.1113
52.2782
52.4552
52.6376
52.8173
52.9978
53.1641
53.3274
53.4613
53.5951
53.6878
53.7927
53.8467
53.9254
53.9417
51.572
51.6866
51.8128
51.9522
52.0943
52.2496
52.3955
52.5512
52.6858
52.8279
52.9421
53.0657
53.1579
53.263
53.3343
53.4184
53.4674
51.2728
51.3676
51.4768
51.596
51.7224
51.8589
51.9906
52.13
52.2553
52.3849
52.4978
52.613
52.7118
52.8092
52.8941
52.9704
53.0427
50.9378
51.0219
51.1143
51.2187
51.3271
51.4461
51.5634
51.6847
51.8012
51.9154
52.0271
52.132
52.238
52.3305
52.428
52.5027
52.5882
50.5966
50.6726
50.7516
50.8434
50.937
51.0373
51.1401
51.2398
51.3467
51.446
51.5574
51.6586
51.7711
51.8674
51.9767
52.0615
52.1613
50.2002
50.2629
50.3388
50.4188
50.5113
50.6019
50.7056
50.8002
50.9069
51.0038
51.116
51.2185
51.3354
51.4322
51.5432
51.627
51.7307
49.7956
49.8528
49.9225
49.9923
50.0738
50.1498
50.2378
50.3163
50.4079
50.4931
50.5992
50.7022
50.8274
50.9351
51.0523
51.1359
51.2325
49.3453
49.3971
49.4501
49.5095
49.5696
49.6327
49.7067
49.7814
49.8761
49.9715
50.0919
50.2116
50.3542
50.4787
50.6084
50.6935
50.7768
48.8623
48.906
48.9538
49
49.0503
49.0998
49.1642
49.2315
49.3234
49.418
49.541
49.6634
49.8131
49.949
50.0957
50.1982
50.2923
48.3812
48.4194
48.4561
48.4862
48.5186
48.5483
48.5983
48.6585
48.7542
48.8625
49.0053
49.1488
49.3183
49.4713
49.6345
49.7502
49.8544
47.8448
47.8795
47.9182
47.9438
47.9764
48.0059
48.0573
48.1191
48.2098
48.3069
48.4311
48.5516
48.7014
48.843
49.0107
49.1438
49.2794
47.2839
47.3159
47.345
47.3626
47.3824
47.4037
47.4461
47.5016
47.5846
47.6696
47.7771
47.878
48.0109
48.1467
48.3264
48.4918
48.6739
46.6498
46.6791
46.7092
46.7244
46.7465
46.7681
46.8143
46.8742
46.9612
47.0463
47.1453
47.226
47.3299
47.4321
47.5837
47.7378
47.929
45.9488
45.9832
46.017
46.0387
46.0567
46.0662
46.0847
46.1086
46.1565
46.2065
46.281
46.346
46.4404
46.5309
46.6652
46.7989
46.9747
45.0711
45.1312
45.2018
45.255
45.2902
45.2851
45.2634
45.2282
45.2172
45.2237
45.2762
45.3446
45.4605
45.5777
45.7339
45.873
46.0427
43.9491
44.0418
44.1464
44.222
44.2423
44.1829
44.0685
43.9302
43.8299
43.7871
43.8356
43.9417
44.119
44.3052
44.5235
44.7087
44.9065
42.4495
42.5466
42.6578
42.7403
42.7553
42.6771
42.5286
42.3586
42.2367
42.1928
42.2632
42.4114
42.6413
42.8812
43.1401
43.3546
43.5666
40.8185
40.8483
40.8838
40.9028
40.8841
40.8003
40.6468
40.4427
40.2465
40.1168
40.1112
40.2222
40.4473
40.715
41.0078
41.2595
41.5002
39.0518
39.0751
39.076
39.0823
39.1104
39.1627
39.1905
39.1306
38.9578
38.7065
38.4521
38.2881
38.2437
38.3248
38.4742
38.6502
38.803
38.9594
37.3125
37.2399
37.2453
37.346
37.6162
37.9042
38.1564
38.2247
38.0489
37.7357
37.3213
37.0157
36.8673
36.8325
36.8722
36.9706
37.0289
37.0949
21.2016
21.5248
21.8143
22.0038
22.1484
22.1779
22.1758
22.1071
22.0071
21.9025
21.7331
21.5464
21.3196
21.057
20.7623
20.4851
20.1615
19.852
36.8552
36.9363
37.0331
37.1408
37.2593
37.3895
37.521
37.6624
37.7958
37.9399
38.062
38.2012
38.3044
38.4366
38.5192
38.6432
38.7032
36.6904
36.7589
36.8365
36.9317
37.0283
37.1447
37.2531
37.3803
37.49
37.6174
37.7202
37.8433
37.9375
38.0563
38.1433
38.2547
38.3343
36.484
36.5407
36.6097
36.6916
36.7791
36.8825
36.9816
37.0957
37.1987
37.3129
37.4143
37.5253
37.6249
37.7293
37.8272
37.9203
38.0173
36.2498
36.3008
36.359
36.4308
36.5062
36.5944
36.683
36.7788
36.8745
36.9707
37.0696
37.1645
37.2677
37.3605
37.4669
37.5517
37.6569
35.9954
36.0424
36.0925
36.1558
36.2236
36.2976
36.3791
36.4567
36.546
36.6272
36.7242
36.8122
36.9176
37.0084
37.1212
37.211
37.3259
35.699
35.736
35.7867
35.8407
35.9106
35.9769
36.0602
36.1337
36.2226
36.3012
36.3991
36.4872
36.5972
36.6867
36.7994
36.8851
37.0007
35.3961
35.4299
35.4776
35.5246
35.5866
35.6419
35.7125
35.7722
35.847
35.9127
36.0018
36.0858
36.1989
36.2961
36.4128
36.4961
36.6033
35.0472
35.0808
35.1156
35.1576
35.2036
35.2493
35.3088
35.364
35.4398
35.5122
35.612
35.71
35.839
35.9531
36.0847
36.1747
36.2733
34.6808
34.7084
34.7412
34.773
34.8109
34.8445
34.8936
34.9393
35.0097
35.0779
35.1771
35.2744
35.4062
35.5267
35.671
35.7767
35.8855
34.3042
34.3285
34.3553
34.3757
34.4013
34.4191
34.4551
34.4922
34.5621
34.6383
34.7528
34.8684
35.0201
35.1598
35.324
35.4464
35.5696
33.8887
33.9113
33.9428
33.9619
33.9883
34.0069
34.0428
34.0816
34.1483
34.2156
34.3148
34.4083
34.5386
34.6607
34.8217
34.9516
35.0996
33.4456
33.4691
33.4947
33.5094
33.526
33.5374
33.5654
33.5977
33.6576
33.7147
33.7993
33.8745
33.9865
34.0981
34.2639
34.4187
34.6091
32.9446
32.9667
32.995
33.0086
33.0277
33.0402
33.0712
33.1073
33.1714
33.2316
33.3144
33.378
33.4692
33.5522
33.6889
33.8261
34.0152
32.3771
32.4044
32.4365
32.4586
32.4788
32.4867
32.4999
32.5082
32.5386
32.5638
32.6186
32.6612
32.7385
32.808
32.9262
33.041
33.2071
31.6518
31.6987
31.7643
31.8214
31.8714
31.8859
31.8815
31.8502
31.8318
31.8154
31.8434
31.8808
31.9723
32.0651
32.2076
32.3331
32.4973
30.7598
30.8332
30.9306
31.0189
31.0755
31.0653
30.9964
30.8793
30.7707
30.6864
30.6798
30.7217
30.8461
30.9885
31.1829
31.3522
31.5476
29.6711
29.7473
29.8462
29.94
29.9959
29.9785
29.8869
29.7435
29.6087
29.5115
29.508
29.5742
29.7354
29.9237
30.1541
30.3513
30.5584
28.6823
28.6977
28.7181
28.7362
28.7401
28.7064
28.6185
28.471
28.2979
28.1408
28.0632
28.0735
28.1951
28.3727
28.5994
28.8042
29.0112
27.6193
27.6506
27.6584
27.6636
27.6961
27.7728
27.8769
27.9461
27.9268
27.8176
27.6526
27.5109
27.4346
27.4502
27.5273
27.6408
27.738
27.8325
27.7774
27.6968
27.6639
27.6918
27.8956
28.1665
28.4828
28.6993
28.712
28.5758
28.2835
28.0091
27.8376
27.7541
27.7363
27.7923
27.82
27.8415
22.9941
23.3252
23.6392
23.8588
24.0558
24.1221
24.1412
24.0728
23.946
23.8184
23.6257
23.4157
23.1754
22.9007
22.5738
22.2681
21.9087
21.5601
27.3977
27.4377
27.49
27.5536
27.6252
27.711
27.798
27.8994
27.9936
28.107
28.2002
28.3222
28.4102
28.5408
28.6227
28.7597
28.8338
27.2734
27.3096
27.3503
27.4107
27.4697
27.5516
27.6244
27.7206
27.8001
27.9033
27.9828
28.0898
28.1682
28.2795
28.3606
28.4739
28.5602
27.1259
27.1557
27.1933
27.2457
27.3
27.3735
27.4414
27.5277
27.6043
27.6957
27.776
27.8698
27.9554
28.0496
28.1423
28.2325
28.3331
26.9552
26.982
27.0134
27.0587
27.1067
27.1677
27.2299
27.2993
27.3714
27.4448
27.5243
27.6001
27.6886
27.7678
27.8674
27.9461
28.0529
26.7553
26.78
26.8075
26.8461
26.8918
26.9417
27.003
27.0585
27.128
27.1885
27.2664
27.3351
27.4249
27.4993
27.6014
27.6812
27.7942
26.5261
26.5435
26.574
26.6052
26.6546
26.6993
26.7632
26.8166
26.8862
26.9438
27.0222
27.0897
27.1845
27.2588
27.3613
27.4364
27.5481
26.2898
26.3056
26.3352
26.3622
26.4064
26.4432
26.4978
26.5409
26.5994
26.645
26.7139
26.7742
26.8681
26.9475
27.0547
27.1285
27.2336
26.0081
26.0265
26.0468
26.0719
26.1054
26.135
26.1813
26.22
26.2786
26.3287
26.4053
26.4762
26.5831
26.6779
26.8008
26.8864
26.9895
25.7203
25.7348
25.7558
25.7745
25.8021
25.8217
25.8578
25.886
25.938
25.9823
26.0567
26.1253
26.2319
26.3293
26.4603
26.5597
26.672
25.414
25.4264
25.4448
25.4562
25.4761
25.4846
25.5097
25.5293
25.5782
25.6261
25.7108
25.7933
25.9166
26.0313
26.1822
26.3003
26.431
25.0823
25.0938
25.1174
25.1303
25.1514
25.1618
25.1864
25.2068
25.254
25.2959
25.3706
25.4358
25.5403
25.6349
25.7769
25.8932
26.0409
24.72
24.7341
24.7547
24.7659
24.7803
24.7852
24.8038
24.8187
24.8608
24.8957
24.9598
25.0103
25.0972
25.1765
25.3136
25.4417
25.6222
24.3143
24.3286
24.3527
24.3643
24.3808
24.3871
24.4081
24.426
24.4712
24.5084
24.573
24.6177
24.6918
24.7509
24.8629
24.9717
25.1433
23.8467
23.8647
23.8918
23.9117
23.9331
23.9414
23.9548
23.9555
23.976
23.9832
24.0198
24.0411
24.0983
24.1439
24.2391
24.3278
24.4727
23.254
23.284
23.3363
23.3878
23.4432
23.4733
23.4883
23.4692
23.4531
23.4221
23.4277
23.4338
23.4941
23.5551
23.6719
23.7751
23.9223
22.5749
22.6226
22.6984
22.7812
22.8563
22.8865
22.8673
22.7885
22.695
22.5931
22.5458
22.5304
22.5957
22.6835
22.8358
22.9736
23.1482
21.8625
21.9155
21.9892
22.072
22.1428
22.1682
22.1331
22.035
21.9165
21.7976
21.7402
21.7333
21.8166
21.9367
22.1145
22.2751
22.4569
21.3879
21.3989
21.4071
21.4163
21.4257
21.4235
21.3931
21.3147
21.1982
21.0628
20.9614
20.9099
20.9452
21.035
21.1815
21.325
21.4788
20.9265
20.9622
20.976
20.9743
20.9951
21.0615
21.1883
21.3312
21.4258
21.4435
21.3806
21.2877
21.2103
21.1847
21.2046
21.2615
21.3147
21.3594
22.4135
22.3412
22.2906
22.2566
22.3716
22.5698
22.8671
23.1489
23.2917
23.3036
23.1394
22.9171
22.7358
22.6101
22.5342
22.5368
22.5344
22.5215
24.6674
25.004
25.332
25.5657
25.8078
25.9157
25.9647
25.9096
25.7606
25.6069
25.3876
25.1491
24.8897
24.6077
24.2541
23.9239
23.5349
23.153
21.0145
21.0294
21.052
21.0856
21.1237
21.1763
21.2283
21.2963
21.3555
21.4382
21.4994
21.5958
21.6577
21.7703
21.8349
21.9623
22.0307
20.9123
20.9282
20.9434
20.9788
21.0097
21.0644
21.1085
21.1774
21.229
21.3073
21.3615
21.4467
21.5029
21.5957
21.6598
21.7589
21.8364
20.8016
20.8147
20.8301
20.861
20.8902
20.9396
20.9821
21.0436
21.0957
21.164
21.2219
21.2941
21.3601
21.4354
21.5133
21.589
21.6797
20.6709
20.682
20.6945
20.72
20.7475
20.7868
20.8282
20.8751
20.926
20.9776
21.037
21.092
21.1617
21.2212
21.3057
21.3692
21.4659
20.5071
20.5163
20.5282
20.5474
20.5759
20.606
20.6502
20.6873
20.7387
20.7803
20.8395
20.8882
20.9601
21.0147
21.0996
21.1616
21.2617
20.3238
20.3278
20.3442
20.3577
20.3901
20.4169
20.464
20.501
20.554
20.5927
20.6522
20.698
20.7744
20.8304
20.9173
20.976
21.0742
20.1327
20.136
20.1528
20.1641
20.1935
20.215
20.2557
20.2854
20.331
20.3602
20.411
20.4487
20.5209
20.5793
20.6717
20.7313
20.827
19.8987
19.9055
19.916
19.927
19.95
19.9661
20.0008
20.0265
20.0717
20.1041
20.1604
20.2057
20.2874
20.3581
20.465
20.5393
20.639
19.666
19.6707
19.6831
19.6915
19.7111
19.7201
19.746
19.7612
19.7993
19.8254
19.8786
19.921
20.0009
20.0716
20.1819
20.2679
20.3756
19.4113
19.4142
19.4262
19.4303
19.4455
19.4476
19.4653
19.4728
19.5066
19.5331
19.5926
19.6445
19.7365
19.8204
19.9473
20.051
20.178
19.1411
19.1442
19.1602
19.1675
19.1843
19.1892
19.2069
19.2144
19.2471
19.2696
19.3238
19.3643
19.4429
19.508
19.6234
19.7185
19.8546
18.8408
18.8466
18.8615
18.869
18.8819
18.8829
18.8966
18.9
18.9292
18.9478
18.9956
19.0263
19.0909
19.1397
19.2432
19.3363
19.4917
18.5102
18.5175
18.5362
18.5455
18.5601
18.563
18.5786
18.5846
18.6161
18.6356
18.6834
18.7108
18.7678
18.8041
18.8889
18.9643
19.1071
18.1299
18.1389
18.1592
18.1753
18.1962
18.205
18.2213
18.2204
18.2375
18.2352
18.2587
18.2634
18.3018
18.3249
18.395
18.455
18.5722
17.6677
17.6833
17.7195
17.7593
17.8108
17.8483
17.8793
17.8765
17.8712
17.8381
17.8295
17.8115
17.8407
17.8684
17.9519
18.0261
18.147
17.1988
17.2252
17.2755
17.3399
17.4136
17.4657
17.4862
17.4504
17.3883
17.2936
17.2274
17.173
17.1855
17.219
17.3193
17.4156
17.5552
16.8197
16.8565
16.9056
16.9668
17.0312
17.0754
17.0812
17.0308
16.9471
16.8372
16.7555
16.7
16.7156
16.7674
16.8807
16.9924
17.1329
16.7371
16.7516
16.7552
16.7571
16.7622
16.7716
16.7763
16.7542
16.6989
16.6107
16.5225
16.4504
16.4314
16.4546
16.5272
16.611
16.7066
16.7754
16.8127
16.8337
16.8283
16.8358
16.8758
16.9848
17.1454
17.3003
17.4085
17.4391
17.4079
17.354
17.3118
17.2939
17.3031
17.3216
17.3276
19.1697
19.1122
19.0642
18.9943
19.0319
19.1395
19.3666
19.6466
19.8607
19.9858
19.9461
19.7965
19.6274
19.4742
19.347
19.2896
19.2522
19.2073
26.221
26.5652
26.9032
27.1346
27.4045
27.5511
27.6329
27.6063
27.447
27.2689
27.0219
26.7501
26.4619
26.1729
25.7984
25.4475
25.0355
24.6296
16.4948
16.4963
16.5009
16.5159
16.5321
16.5621
16.5896
16.6334
16.6658
16.7234
16.7576
16.8292
16.8649
16.9535
16.9955
17.1011
17.1537
16.4063
16.4109
16.4104
16.429
16.4408
16.4758
16.4992
16.5469
16.5767
16.6338
16.6662
16.7306
16.7658
16.8368
16.8816
16.9592
17.0204
16.3189
16.3228
16.3243
16.341
16.3529
16.3844
16.4083
16.4502
16.4829
16.5316
16.5703
16.6221
16.6691
16.7236
16.7837
16.8404
16.9148
16.214
16.2161
16.217
16.2288
16.2421
16.2655
16.2919
16.3221
16.3564
16.3902
16.4327
16.4692
16.5213
16.5609
16.6274
16.6729
16.7536
16.0764
16.0759
16.0785
16.0841
16.1002
16.1154
16.1459
16.1693
16.2063
16.2329
16.2765
16.3079
16.3632
16.3995
16.4662
16.509
16.5911
15.9255
15.9214
15.9293
15.9308
15.9502
15.9633
15.9965
16.0207
16.0611
16.0856
16.1297
16.1571
16.2152
16.2535
16.3237
16.3652
16.4462
15.7666
15.7623
15.771
15.7719
15.79
15.7998
15.8289
15.8481
15.8843
15.9023
15.9397
15.9596
16.0117
16.0493
16.1247
16.1689
16.2514
15.5699
15.5685
15.5733
15.5743
15.5891
15.5951
15.6197
15.6354
15.6707
15.691
15.7325
15.7578
15.8164
15.8627
15.9494
16.0083
16.0987
15.378
15.3758
15.3829
15.3838
15.3977
15.3996
15.418
15.4243
15.4524
15.4664
15.5043
15.5267
15.5827
15.6278
15.7141
15.7819
15.8788
15.1649
15.1614
15.1687
15.1676
15.1791
15.1772
15.1903
15.1905
15.2141
15.2267
15.2678
15.2961
15.36
15.4139
15.5116
15.5936
15.7073
14.9437
14.9411
14.951
14.9537
14.9669
14.9684
14.9825
14.9822
15.0051
15.0146
15.0532
15.0751
15.1315
15.1706
15.2573
15.3272
15.443
14.697
14.6965
14.7062
14.71
14.7215
14.7205
14.7322
14.7294
14.7498
14.7575
14.7931
14.8096
14.8572
14.8827
14.9557
15.0139
15.1357
14.4315
14.4336
14.4469
14.4537
14.4669
14.468
14.4814
14.481
14.5035
14.5115
14.546
14.56
14.6022
14.6202
14.6804
14.7243
14.8331
14.1358
14.1383
14.1518
14.1631
14.1819
14.1904
14.2092
14.2101
14.2274
14.2231
14.2392
14.234
14.2574
14.2625
14.3089
14.342
14.4294
13.805
13.8119
13.8343
13.861
13.9023
13.9385
13.9778
13.9895
13.9985
13.9737
13.9612
13.9303
13.9349
13.9339
13.9826
14.0253
14.1141
13.5378
13.5522
13.582
13.6247
13.6835
13.7383
13.7805
13.78
13.7529
13.6824
13.6177
13.5467
13.5218
13.5111
13.5601
13.6127
13.7091
13.4364
13.4652
13.4973
13.5377
13.5854
13.6291
13.6552
13.6417
13.5956
13.5133
13.433
13.358
13.3279
13.326
13.3773
13.4385
13.5297
13.6403
13.6612
13.6667
13.6668
13.666
13.674
13.6908
13.7015
13.6923
13.6539
13.597
13.5344
13.4926
13.4768
13.4932
13.5287
13.5713
14.0831
14.1199
14.1484
14.1442
14.1439
14.1573
14.2281
14.3644
14.5282
14.6808
14.7812
14.8114
14.7966
14.7596
14.7243
14.6968
14.6881
14.6624
17.1162
17.0727
17.0384
16.9569
16.9426
16.9687
17.1016
17.3288
17.5548
17.7472
17.815
17.7517
17.6201
17.4615
17.2976
17.1798
17.1009
17.0203
27.6389
27.995
28.346
28.5672
28.843
29.018
29.1268
29.1396
28.988
28.794
28.5239
28.2185
27.8901
27.5884
27.196
26.8262
26.3958
25.9763
13.174
13.1696
13.1649
13.1693
13.1728
13.1886
13.2003
13.2284
13.2429
13.2825
13.2975
13.3491
13.3646
13.4303
13.4523
13.5327
13.5675
13.0958
13.0952
13.0866
13.0951
13.095
13.1166
13.1262
13.1591
13.1737
13.2147
13.2313
13.2786
13.2978
13.3491
13.3774
13.4331
13.4772
13.0238
13.0236
13.0176
13.0257
13.027
13.0461
13.0577
13.0855
13.1045
13.1381
13.1627
13.1981
13.23
13.2663
13.31
13.3484
13.4055
12.9365
12.9342
12.9295
12.9327
12.937
12.9494
12.9657
12.9844
13.0075
13.0285
13.0584
13.0807
13.1187
13.1421
13.1919
13.2206
13.2839
12.8199
12.8139
12.8121
12.8094
12.8173
12.8223
12.8424
12.8563
12.8829
12.8989
12.931
12.9492
12.991
13.013
13.0638
13.09
13.1538
12.6931
12.6846
12.6881
12.6831
12.6936
12.6973
12.7194
12.734
12.765
12.78
12.8134
12.8276
12.8702
12.8935
12.9483
12.975
13.0391
12.5589
12.5505
12.555
12.5501
12.5606
12.5624
12.5822
12.5932
12.6224
12.6336
12.6625
12.671
12.7074
12.7273
12.7856
12.8155
12.8836
12.3938
12.3871
12.3894
12.3844
12.3936
12.3929
12.4095
12.4174
12.445
12.4575
12.4895
12.5019
12.5427
12.5683
12.6341
12.6764
12.7536
12.2345
12.2281
12.2322
12.2286
12.2386
12.2363
12.2495
12.2502
12.2713
12.2778
12.3059
12.3156
12.3535
12.3777
12.4405
12.4884
12.5704
12.0581
12.0509
12.0552
12.051
12.0597
12.0557
12.0661
12.0624
12.0796
12.0838
12.1128
12.1259
12.1686
12.1981
12.2673
12.3246
12.4185
11.8789
11.8736
11.8793
11.8785
11.8889
11.8881
11.9004
11.8966
11.9132
11.9149
11.9426
11.9521
11.9918
12.0114
12.0721
12.1172
12.208
11.6827
11.6785
11.6842
11.685
11.695
11.6931
11.7041
11.699
11.7138
11.7147
11.7413
11.7487
11.7841
11.7947
11.8441
11.8743
11.9612
11.4785
11.4775
11.4863
11.4906
11.5025
11.5028
11.5154
11.5128
11.5297
11.5315
11.5565
11.5615
11.5922
11.5977
11.6384
11.6574
11.7334
11.2676
11.2665
11.2749
11.2818
11.2975
11.3045
11.3237
11.3271
11.3453
11.3435
11.3569
11.348
11.3613
11.3544
11.3813
11.3921
11.4511
11.065
11.069
11.0826
11.0984
11.1275
11.1564
11.1954
11.2157
11.2363
11.225
11.2165
11.1842
11.1738
11.1531
11.1713
11.1852
11.2405
10.9791
10.9898
11.0075
11.0329
11.0727
11.1174
11.1635
11.1838
11.1845
11.1438
11.0936
11.0254
10.9811
10.9425
10.949
10.9633
11.0157
11.0946
11.1207
11.1437
11.1701
11.2008
11.2343
11.2633
11.2706
11.2532
11.203
11.139
11.0674
11.0157
10.9815
10.9843
11.0031
11.0458
11.5025
11.5287
11.5388
11.5423
11.539
11.5413
11.5545
11.5749
11.5882
11.5864
11.5618
11.5238
11.4823
11.453
11.4341
11.437
11.4368
12.2675
12.3025
12.3373
12.3375
12.3361
12.3321
12.3623
12.4518
12.5852
12.7355
12.8706
12.948
12.9775
12.9621
12.93
12.8797
12.8512
12.7985
15.7865
15.7532
15.7347
15.6573
15.6165
15.5866
15.6269
15.7709
15.9554
16.1584
16.2972
16.3176
16.2435
16.1059
15.9292
15.76
15.6361
15.5133
28.909
29.2792
29.6495
29.8652
30.1286
30.3194
30.4417
30.4949
30.3694
30.1735
29.8914
29.5608
29.1849
28.8592
28.4481
28.058
27.6085
27.183
10.6606
10.6547
10.6463
10.6457
10.6425
10.6503
10.6528
10.6713
10.6753
10.7031
10.7063
10.7437
10.7465
10.7939
10.8021
10.8596
10.8799
10.5916
10.5892
10.5777
10.5809
10.5746
10.5874
10.5887
10.6116
10.6169
10.6466
10.6533
10.6877
10.697
10.7328
10.7497
10.7872
10.8173
10.5304
10.5288
10.5201
10.5236
10.5194
10.5304
10.5345
10.5529
10.5632
10.5861
10.6015
10.6251
10.6465
10.6693
10.7001
10.7239
10.766
10.4562
10.4523
10.4459
10.4447
10.4442
10.4493
10.4589
10.4704
10.4863
10.4991
10.5205
10.5333
10.5613
10.5735
10.6098
10.6255
10.6731
10.3576
10.3489
10.3458
10.3394
10.3425
10.3415
10.3539
10.3613
10.3809
10.39
10.4143
10.4239
10.4554
10.4676
10.506
10.5202
10.5683
10.2501
10.2397
10.2413
10.234
10.2393
10.2373
10.2513
10.2585
10.2827
10.2916
10.3181
10.3246
10.3555
10.3678
10.4097
10.4253
10.4748
10.1366
10.1265
10.129
10.1221
10.1281
10.1253
10.1384
10.1429
10.1662
10.1734
10.1974