/*--------------------------------*- C++ -*----------------------------------*\
  =========                 |
  \\      /  F ield         | OpenFOAM: The Open Source CFD Toolbox
   \\    /   O peration     | Website:  https://openfoam.org
    \\  /    A nd           | Version:  6
     \\/     M anipulation  |
\*---------------------------------------------------------------------------*/
FoamFile
{
    version     2.0;
    format      ascii;
    class       surfaceScalarField;
    location    "2";
    object      phi;
}
// * * * * * * * * * * * * * * * * * * * * * * * * * * * * * * * * * * * * * //

dimensions      [0 3 -1 0 0 0 0];

internalField   nonuniform List<scalar> 
183697
(
9.49829e-07
-8.36112e-08
-4.03521e-09
8.91009e-08
9.49217e-07
-6.6772e-08
-3.76664e-09
7.11502e-08
9.4932e-07
-5.00595e-08
-3.33611e-09
5.32931e-08
9.50009e-07
-3.34405e-08
-2.74091e-09
3.54919e-08
9.51202e-07
-1.68743e-08
-2.00552e-09
1.76875e-08
9.52837e-07
-3.2603e-10
-1.18219e-09
-1.27238e-10
9.54908e-07
1.62608e-08
-3.27245e-10
-1.80041e-08
9.57318e-07
3.2959e-08
6.19929e-10
-3.59891e-08
9.60094e-07
4.97826e-08
1.50728e-09
-5.40662e-08
9.63259e-07
6.68002e-08
2.23046e-09
-7.21954e-08
9.6705e-07
8.39874e-08
2.60676e-09
-9.03852e-08
9.7149e-07
1.01482e-07
2.81707e-09
-1.0874e-07
9.7673e-07
1.19209e-07
2.83768e-09
-1.27286e-07
9.82724e-07
1.37371e-07
2.86932e-09
-1.46234e-07
9.89646e-07
1.55809e-07
2.76538e-09
-1.65496e-07
9.97591e-07
1.74754e-07
2.66129e-09
-1.85361e-07
1.93951e-07
2.4139e-09
-2.05495e-07
9.29278e-07
-7.81698e-08
-2.58672e-09
9.27267e-07
-6.24444e-08
-2.31674e-09
9.26063e-07
-4.68643e-08
-1.99075e-09
9.25561e-07
-3.13942e-08
-1.54496e-09
9.25777e-07
-1.60021e-08
-1.08795e-09
9.26664e-07
-6.37745e-10
-5.75022e-10
9.28264e-07
1.47406e-08
-7.93866e-11
9.30554e-07
3.02071e-08
4.61921e-10
9.33644e-07
4.57786e-08
9.13767e-10
9.37575e-07
6.15503e-08
1.31906e-09
9.42437e-07
7.75157e-08
1.60996e-09
9.48252e-07
9.37975e-08
1.86902e-09
9.55054e-07
1.10355e-07
2.0523e-09
9.62877e-07
1.27313e-07
2.23424e-09
9.71718e-07
1.44607e-07
2.36111e-09
9.81661e-07
1.62321e-07
2.49137e-09
1.80388e-07
2.59179e-09
9.10418e-07
-7.23789e-08
-1.90323e-09
9.07532e-07
-5.78395e-08
-1.71832e-09
9.05606e-07
-4.34463e-08
-1.49222e-09
9.04571e-07
-2.91631e-08
-1.1966e-09
9.04437e-07
-1.49593e-08
-9.08563e-10
9.05153e-07
-7.78952e-10
-5.74884e-10
9.06736e-07
1.34192e-08
-2.61087e-10
9.09147e-07
2.77084e-08
8.74121e-11
9.12421e-07
4.21187e-08
3.85918e-10
9.16611e-07
5.67186e-08
6.4177e-10
9.21759e-07
7.1527e-08
8.40086e-10
9.27933e-07
8.66045e-08
1.01999e-09
9.3514e-07
1.01969e-07
1.17909e-09
9.43487e-07
1.17648e-07
1.31719e-09
9.52964e-07
1.33674e-07
1.45543e-09
9.63711e-07
1.50013e-07
1.55972e-09
1.66735e-07
1.70322e-09
8.89683e-07
-6.65715e-08
-1.42276e-09
8.86428e-07
-5.3269e-08
-1.3157e-09
8.84268e-07
-4.01019e-08
-1.18371e-09
8.83153e-07
-2.70412e-08
-1.00698e-09
8.83077e-07
-1.40555e-08
-8.28351e-10
8.84036e-07
-1.08802e-09
-6.49872e-10
8.86027e-07
1.1915e-08
-4.86372e-10
8.89041e-07
2.50225e-08
-3.28861e-10
8.93024e-07
3.82871e-08
-1.51409e-10
8.97981e-07
5.17494e-08
1.28443e-11
9.03867e-07
6.54533e-08
1.8758e-10
9.10734e-07
7.94061e-08
3.31444e-10
9.18549e-07
9.36592e-08
4.94124e-10
9.27391e-07
1.08175e-07
6.31816e-10
9.37248e-07
1.23017e-07
7.99752e-10
9.48251e-07
1.38091e-07
9.18528e-10
1.53497e-07
1.06183e-09
8.69238e-07
-6.07868e-08
-1.19144e-09
8.65827e-07
-4.87156e-08
-1.1421e-09
8.63573e-07
-3.67687e-08
-1.07883e-09
8.62459e-07
-2.49232e-08
-1.00408e-09
8.62459e-07
-1.31474e-08
-9.07903e-10
8.63604e-07
-1.39436e-09
-8.39253e-10
8.65852e-07
1.04072e-08
-7.3996e-10
8.69228e-07
2.23208e-08
-6.74448e-10
8.73653e-07
3.44169e-08
-5.54719e-10
8.79124e-07
4.67179e-08
-4.39044e-10
8.85592e-07
5.92769e-08
-2.91821e-10
8.93078e-07
7.20772e-08
-1.57223e-10
9.01567e-07
8.51787e-08
-8.5077e-12
9.11086e-07
9.85276e-08
1.28154e-10
9.21601e-07
1.12188e-07
3.14105e-10
9.3315e-07
1.26046e-07
4.96313e-10
1.40186e-07
7.28986e-10
8.50459e-07
-5.50651e-08
-1.00021e-09
8.46928e-07
-4.42103e-08
-9.73571e-10
8.44563e-07
-3.34735e-08
-9.30349e-10
8.43347e-07
-2.28303e-08
-8.77022e-10
8.43233e-07
-1.22533e-08
-7.80216e-10
8.44237e-07
-1.69178e-09
-7.06277e-10
8.46347e-07
8.92372e-09
-6.27089e-10
8.49603e-07
1.966e-08
-5.94846e-10
8.53992e-07
3.05932e-08
-5.65342e-10
8.59487e-07
4.17415e-08
-5.18452e-10
8.66041e-07
5.3145e-08
-4.22209e-10
8.73648e-07
6.477e-08
-3.00135e-10
8.82311e-07
7.66656e-08
-1.50006e-10
8.92098e-07
8.87841e-08
-4.35928e-11
9.03009e-07
1.01197e-07
8.0673e-11
9.15066e-07
1.13805e-07
1.85097e-10
1.2668e-07
3.63616e-10
8.30438e-07
-4.93435e-08
-8.03047e-10
8.26751e-07
-3.9732e-08
-7.91658e-10
8.24288e-07
-3.02362e-08
-7.73866e-10
8.2306e-07
-2.08314e-08
-7.70923e-10
8.23038e-07
-1.14844e-08
-7.46746e-10
8.24229e-07
-2.13531e-09
-7.4794e-10
8.26607e-07
7.29374e-09
-7.47905e-10
8.30166e-07
1.68814e-08
-7.80124e-10
8.34868e-07
2.67016e-08
-8.11e-10
8.40656e-07
3.67654e-08
-8.11904e-10
8.47437e-07
4.70834e-08
-7.19097e-10
8.55168e-07
5.75907e-08
-5.51575e-10
8.63838e-07
6.82987e-08
-3.02742e-10
8.73544e-07
7.91543e-08
-7.63592e-11
8.84392e-07
9.024e-08
1.08618e-10
8.96501e-07
1.01505e-07
1.9097e-10
1.13048e-07
2.83946e-10
8.09067e-07
-4.37099e-08
-6.5159e-10
8.05351e-07
-3.53611e-08
-6.54803e-10
8.02949e-07
-2.71265e-08
-7.08127e-10
8.01867e-07
-1.89726e-08
-7.76539e-10
8.02066e-07
-1.0848e-08
-8.3547e-10
8.03529e-07
-2.6807e-09
-9.17949e-10
8.06156e-07
5.61399e-09
-9.46963e-10
8.09926e-07
1.41111e-08
-9.99849e-10
8.14764e-07
2.28751e-08
-1.01142e-09
8.20634e-07
3.19025e-08
-1.00651e-09
8.27445e-07
4.11788e-08
-9.06825e-10
8.35151e-07
5.06081e-08
-7.23135e-10
8.43724e-07
6.01598e-08
-4.34644e-10
8.53269e-07
6.97549e-08
-1.4509e-10
8.63938e-07
7.94674e-08
1.03734e-10
8.75953e-07
8.92819e-08
2.07917e-10
9.93464e-08
2.46826e-10
6.90938e-07
-3.88572e-08
-4.44262e-10
6.87656e-07
-3.16337e-08
-4.46052e-10
6.85551e-07
-2.45274e-08
-4.93406e-10
6.84657e-07
-1.74904e-08
-5.88706e-10
6.84961e-07
-1.04506e-08
-7.00983e-10
6.8643e-07
-3.31844e-09
-8.31836e-10
6.88957e-07
4.00116e-09
-9.14301e-10
6.92471e-07
1.15791e-08
-9.81445e-10
6.96878e-07
1.94636e-08
-9.96077e-10
7.02138e-07
2.76322e-08
-9.8944e-10
7.08174e-07
3.60486e-08
-9.0564e-10
7.14934e-07
4.45974e-08
-7.49542e-10
7.22364e-07
5.32165e-08
-4.86458e-10
7.30507e-07
6.17981e-08
-1.8637e-10
7.39481e-07
7.03836e-08
1.10587e-10
7.49519e-07
7.89596e-08
2.83949e-10
8.76899e-08
3.46554e-10
6.46577e-07
-3.43032e-08
-3.08991e-10
6.43451e-07
-2.81665e-08
-3.40344e-10
6.41505e-07
-2.2148e-08
-4.33682e-10
6.40792e-07
-1.61797e-08
-5.97699e-10
6.41285e-07
-1.0164e-08
-7.80235e-10
6.42933e-07
-3.98871e-09
-9.76864e-10
6.45582e-07
2.44986e-09
-1.09814e-09
6.49115e-07
9.20913e-09
-1.16274e-09
6.53423e-07
1.63051e-08
-1.14928e-09
6.58473e-07
2.3687e-08
-1.1057e-09
6.64228e-07
3.12924e-08
-9.98787e-10
6.70665e-07
3.89987e-08
-8.37823e-10
6.77729e-07
4.67292e-08
-5.76382e-10
6.85426e-07
5.43661e-08
-2.65753e-10
6.93813e-07
6.19219e-08
7.52906e-11
7.03083e-07
6.93708e-08
3.18523e-10
7.68689e-08
4.5883e-10
6.04697e-07
-2.99838e-08
-2.44088e-10
6.01678e-07
-2.48676e-08
-2.80473e-10
5.99757e-07
-1.98689e-08
-3.58027e-10
5.98975e-07
-1.4899e-08
-4.98785e-10
5.99312e-07
-9.84234e-09
-6.58808e-10
6.00712e-07
-4.57364e-09
-8.1453e-10
6.03081e-07
1.00609e-09
-9.25458e-10
6.06321e-07
6.94259e-09
-9.73375e-10
6.10353e-07
1.32285e-08
-9.55644e-10
6.15164e-07
1.97983e-08
-9.2222e-10
6.20726e-07
2.65816e-08
-8.50889e-10
6.27032e-07
3.34653e-08
-7.72501e-10
6.33998e-07
4.03776e-08
-6.14922e-10
6.41564e-07
4.71992e-08
-3.98597e-10
6.49664e-07
5.39114e-08
-8.97693e-11
6.58392e-07
6.04528e-08
1.90261e-10
6.69353e-08
4.36071e-10
5.64108e-07
-2.59188e-08
-1.73388e-10
5.61233e-07
-2.17632e-08
-2.29332e-10
5.59422e-07
-1.77198e-08
-3.37859e-10
5.58697e-07
-1.36791e-08
-4.95527e-10
5.59027e-07
-9.50716e-09
-6.64801e-10
5.60339e-07
-5.07126e-09
-8.14184e-10
5.6252e-07
-2.79893e-10
-8.95574e-10
5.65492e-07
4.88794e-09
-9.17262e-10
5.69198e-07
1.03983e-08
-8.7591e-10
5.73682e-07
1.61711e-08
-8.56802e-10
5.78967e-07
2.21383e-08
-8.41824e-10
5.85084e-07
2.82111e-08
-8.62086e-10
5.91956e-07
3.43407e-08
-8.35266e-10
5.99467e-07
4.0421e-08
-7.33265e-10
6.07441e-07
4.64091e-08
-4.71286e-10
6.15816e-07
5.22036e-08
-1.26176e-10
5.78524e-08
2.7983e-10
5.25437e-07
-2.21074e-08
-1.2006e-10
5.22678e-07
-1.88304e-08
-1.73111e-10
5.20877e-07
-1.56528e-08
-2.66901e-10
5.2006e-07
-1.24507e-08
-4.10648e-10
5.20182e-07
-9.07391e-09
-5.5591e-10
5.21168e-07
-5.38262e-09
-6.73886e-10
5.22925e-07
-1.29942e-09
-7.37653e-10
5.25397e-07
3.16605e-09
-7.49876e-10
5.28576e-07
7.94029e-09
-7.20968e-10
5.32532e-07
1.29194e-08
-7.04675e-10
5.37323e-07
1.80344e-08
-6.86624e-10
5.43017e-07
2.32277e-08
-7.10817e-10
5.49575e-07
2.84951e-08
-7.12508e-10
5.56901e-07
3.37723e-08
-6.77746e-10
5.648e-07
3.9028e-08
-5.17652e-10
5.73113e-07
4.41464e-08
-2.55702e-10
4.91227e-08
1.1066e-10
4.879e-07
-1.845e-08
-9.46865e-11
4.85133e-07
-1.59428e-08
-1.20562e-10
4.83185e-07
-1.35385e-08
-1.66278e-10
4.82095e-07
-1.11149e-08
-2.45572e-10
4.81875e-07
-8.5103e-09
-3.43882e-10
4.82509e-07
-5.56598e-09
-4.50286e-10
4.83934e-07
-2.19753e-09
-5.27622e-10
4.86103e-07
1.56994e-09
-5.72942e-10
4.88983e-07
5.63308e-09
-5.72477e-10
4.92629e-07
9.85806e-09
-5.84511e-10
4.9707e-07
1.41623e-08
-5.68871e-10
5.02377e-07
1.84999e-08
-5.79563e-10
5.0855e-07
2.28924e-08
-5.70371e-10
5.15559e-07
2.73187e-08
-5.55441e-10
5.23289e-07
3.17795e-08
-4.81295e-10
5.31612e-07
3.61827e-08
-3.595e-10
4.05105e-08
-1.50919e-10
4.50658e-07
-1.47728e-08
-6.02366e-11
4.47621e-07
-1.29172e-08
1.14729e-11
4.45185e-07
-1.12095e-08
1.06257e-10
4.4347e-07
-9.54506e-09
1.4497e-10
4.42601e-07
-7.73851e-09
9.78891e-11
4.42682e-07
-5.58657e-09
-6.03912e-11
4.43731e-07
-2.96461e-09
-2.81757e-10
4.45712e-07
1.13761e-10
-5.25401e-10
4.48552e-07
3.51781e-09
-7.24123e-10
4.5219e-07
7.07878e-09
-8.59367e-10
4.56574e-07
1.06758e-08
-8.97193e-10
4.61713e-07
1.42516e-08
-8.91252e-10
4.67595e-07
1.78301e-08
-8.18972e-10
4.74239e-07
2.14157e-08
-7.41819e-10
4.81611e-07
2.50327e-08
-6.24775e-10
4.89678e-07
2.86257e-08
-5.09976e-10
3.21874e-08
-3.50147e-10
4.11364e-07
-1.10621e-08
2.35261e-11
4.08066e-07
-9.85846e-09
2.38907e-10
4.05273e-07
-8.89971e-09
4.83516e-10
4.03194e-07
-8.06871e-09
6.03271e-10
4.02082e-07
-7.1267e-09
4.99431e-10
4.02136e-07
-5.79668e-09
1.56752e-10
4.0338e-07
-3.90196e-09
-3.07067e-10
4.057e-07
-1.44525e-09
-7.60582e-10
4.08887e-07
1.40368e-09
-1.07296e-09
4.12753e-07
4.43657e-09
-1.22371e-09
4.17153e-07
7.48107e-09
-1.20527e-09
4.22061e-07
1.04499e-08
-1.10612e-09
4.27464e-07
1.33603e-08
-9.33763e-10
4.33436e-07
1.62254e-08
-7.81508e-10
4.40003e-07
1.90817e-08
-6.15547e-10
4.47211e-07
2.19033e-08
-4.85566e-10
2.4686e-08
-3.39904e-10
3.6802e-07
-7.84471e-09
2.28745e-10
3.65052e-07
-7.33086e-09
4.40996e-10
3.62648e-07
-7.11031e-09
6.14277e-10
3.61001e-07
-7.01e-09
5.88679e-10
3.6033e-07
-6.75421e-09
2.97849e-10
3.60771e-07
-6.00898e-09
-2.2889e-10
3.62304e-07
-4.60508e-09
-8.29165e-10
3.64777e-07
-2.5881e-09
-1.33036e-09
3.67974e-07
-1.88367e-10
-1.60511e-09
3.71733e-07
2.35535e-09
-1.67789e-09
3.7591e-07
4.85847e-09
-1.55385e-09
3.80488e-07
7.23522e-09
-1.36325e-09
3.85462e-07
9.49997e-09
-1.11425e-09
3.90888e-07
1.16796e-08
-8.79738e-10
3.96807e-07
1.38206e-08
-6.57689e-10
4.03266e-07
1.59199e-08
-4.75922e-10
1.7972e-08
-2.82318e-10
3.21371e-07
-5.58071e-09
5.40375e-10
3.19238e-07
-5.77026e-09
5.72266e-10
3.17819e-07
-6.14582e-09
4.54831e-10
3.17124e-07
-6.47987e-09
1.65269e-10
3.17172e-07
-6.5508e-09
-2.51247e-10
3.17972e-07
-6.08076e-09
-7.28402e-10
3.19537e-07
-5.03818e-09
-1.13204e-09
3.21861e-07
-3.47765e-09
-1.43445e-09
3.24848e-07
-1.5988e-09
-1.57672e-09
3.28377e-07
4.09629e-10
-1.58331e-09
3.323e-07
2.40016e-09
-1.46489e-09
3.3654e-07
4.28836e-09
-1.29262e-09
3.41064e-07
6.03056e-09
-1.05528e-09
3.45918e-07
7.65772e-09
-8.31175e-10
3.51135e-07
9.20887e-09
-6.05305e-10
3.56765e-07
1.06877e-08
-3.98122e-10
1.20844e-08
-1.73548e-10
2.81012e-07
-3.17543e-09
6.97201e-10
2.78415e-07
-3.66333e-09
6.79269e-10
2.7647e-07
-4.30151e-09
4.76248e-10
2.75074e-07
-4.89757e-09
1.48203e-10
2.74004e-07
-5.2428e-09
-1.67339e-10
2.73102e-07
-5.2538e-09
-3.94826e-10
2.72356e-07
-4.79155e-09
-5.43284e-10
2.71923e-07
-4.00429e-09
-6.00322e-10
2.72105e-07
-2.9755e-09
-6.84826e-10
2.73153e-07
-1.85244e-09
-7.93613e-10
2.75177e-07
-7.14214e-10
-9.00295e-10
2.78101e-07
4.54484e-10
-9.78707e-10
2.81753e-07
1.64678e-09
-1.01026e-09
2.85952e-07
2.76894e-09
-9.37211e-10
2.90591e-07
3.8484e-09
-8.30313e-10
2.95585e-07
4.90025e-09
-6.85346e-10
3.00881e-07
5.90026e-09
-5.07871e-10
6.80934e-09
-2.93619e-10
2.44015e-07
-2.19564e-11
-5.21391e-10
2.41567e-07
-4.76188e-10
-7.39453e-10
2.38995e-07
-9.64327e-10
-7.653e-10
2.36138e-07
-1.4494e-09
-5.91141e-10
2.32808e-07
-1.80251e-09
-1.10198e-10
2.29134e-07
-1.88232e-09
3.02936e-10
2.25359e-07
-1.56258e-09
5.45807e-10
2.21659e-07
-9.08543e-10
6.04263e-10
2.18677e-07
-1.62435e-10
1.68526e-10
2.16572e-07
4.12146e-10
-1.59007e-10
2.15683e-07
7.7216e-10
-5.98016e-10
2.1612e-07
1.10036e-09
-1.08275e-09
2.17452e-07
1.48985e-09
-1.17474e-09
2.19615e-07
1.92594e-09
-1.31983e-09
2.22488e-07
2.41344e-09
-1.43799e-09
2.25733e-07
2.95209e-09
-1.29696e-09
2.29331e-07
3.51988e-09
-1.21808e-09
4.08885e-09
-1.29663e-09
2.75283e-07
3.87501e-10
2.74436e-07
3.70593e-10
2.72657e-07
8.14527e-10
2.70143e-07
1.06509e-09
2.67483e-07
8.56804e-10
2.65454e-07
1.46901e-10
2.64555e-07
-6.63636e-10
2.6476e-07
-1.11382e-09
2.65667e-07
-1.06863e-09
2.66855e-07
-7.76139e-10
2.68267e-07
-6.39874e-10
2.69961e-07
-5.94042e-10
2.72128e-07
-6.77292e-10
2.75095e-07
-1.04038e-09
2.78956e-07
-1.44827e-09
2.8363e-07
-1.72181e-09
2.89081e-07
-1.93096e-09
-2.03905e-09
1.79808e-06
-1.52586e-07
-1.9172e-09
1.60063e-07
1.79065e-06
-1.17918e-07
-1.82195e-09
1.23406e-07
1.78536e-06
-8.37901e-08
-1.66321e-09
8.74091e-08
1.78218e-06
-5.01465e-08
-1.41284e-09
5.19987e-08
1.78112e-06
-1.69041e-08
-1.11413e-09
1.70644e-08
1.7822e-06
1.60335e-08
-7.83903e-10
-1.75042e-08
1.78544e-06
4.87901e-08
-4.89105e-10
-5.18699e-08
1.79091e-06
8.15221e-08
-1.72755e-10
-8.61964e-08
1.79868e-06
1.14342e-07
3.36515e-11
-1.20643e-07
1.80879e-06
1.474e-07
6.70052e-11
-1.55344e-07
1.82127e-06
1.80767e-07
-2.37328e-10
-1.90404e-07
1.83608e-06
2.14607e-07
-6.61041e-10
-2.25939e-07
1.85319e-06
2.48943e-07
-1.22165e-09
-2.61998e-07
1.87254e-06
2.83962e-07
-1.63943e-09
-2.98799e-07
1.8941e-06
3.19636e-07
-2.06511e-09
-3.36369e-07
1.91788e-06
3.56119e-07
-2.3152e-09
-3.7492e-07
3.93286e-07
-2.61722e-09
-4.14255e-07
1.78631e-06
-1.4422e-07
-1.24941e-09
1.77886e-06
-1.11616e-07
-1.16085e-09
1.77363e-06
-7.94759e-08
-1.07794e-09
1.77058e-06
-4.77505e-08
-8.94474e-10
1.7697e-06
-1.6379e-08
-7.31659e-10
1.77097e-06
1.47268e-08
-5.32106e-10
1.7744e-06
4.56554e-08
-3.75397e-10
1.78003e-06
7.65432e-08
-1.91717e-10
1.7879e-06
1.07481e-07
-9.98895e-11
1.79806e-06
1.3862e-07
-5.44881e-11
1.81053e-06
1.70035e-07
-1.27652e-10
1.82534e-06
2.01881e-07
-2.16027e-10
1.8425e-06
2.34205e-07
-3.71584e-10
1.86203e-06
2.67135e-07
-4.67578e-10
1.88391e-06
3.00687e-07
-5.67356e-10
1.90817e-06
3.34926e-07
-5.79322e-10
3.69834e-07
-5.55318e-10
1.77279e-06
-1.35226e-07
-8.5544e-10
1.76507e-06
-1.04799e-07
-8.22179e-10
1.75967e-06
-7.47733e-08
-7.89744e-10
1.75651e-06
-4.51056e-08
-6.87416e-10
1.7556e-06
-1.57524e-08
-6.19401e-10
1.75688e-06
1.33676e-08
-5.01905e-10
1.76037e-06
4.23312e-08
-4.19945e-10
1.76606e-06
7.12587e-08
-3.26355e-10
1.77399e-06
1.00241e-07
-3.00805e-10
1.78418e-06
1.29397e-07
-3.24461e-10
1.79665e-06
1.58811e-07
-4.07786e-10
1.81146e-06
1.88588e-07
-4.91728e-10
1.82861e-06
2.18804e-07
-5.70827e-10
1.84817e-06
2.49522e-07
-6.31355e-10
1.87014e-06
2.80807e-07
-6.37699e-10
1.89461e-06
3.12655e-07
-6.34989e-10
3.4512e-07
-5.34641e-10
1.75498e-06
-1.25637e-07
-7.30994e-10
1.74711e-06
-9.75134e-08
-7.33727e-10
1.74163e-06
-6.97401e-08
-7.39057e-10
1.7385e-06
-4.22836e-08
-6.98176e-10
1.73769e-06
-1.51116e-08
-6.539e-10
1.73918e-06
1.18437e-08
-6.13718e-10
1.74296e-06
3.86667e-08
-6.04772e-10
1.74906e-06
6.54721e-08
-6.40276e-10
1.75745e-06
9.23752e-08
-6.79885e-10
1.76814e-06
1.19473e-07
-7.53747e-10
1.7811e-06
1.46861e-07
-8.25336e-10
1.79636e-06
1.74596e-07
-9.29058e-10
1.81389e-06
2.02761e-07
-9.99097e-10
1.83375e-06
2.31367e-07
-1.0732e-09
1.85594e-06
2.60482e-07
-1.06348e-09
1.88052e-06
2.90057e-07
-1.0683e-09
3.20151e-07
-9.91258e-10
1.73502e-06
-1.15895e-07
-5.37899e-10
1.72708e-06
-9.01223e-08
-5.93666e-10
1.72157e-06
-6.4656e-08
-6.56173e-10
1.71849e-06
-3.94747e-08
-7.28993e-10
1.7178e-06
-1.45514e-08
-7.73967e-10
1.7195e-06
1.01647e-08
-8.63635e-10
1.72358e-06
3.47717e-08
-9.21317e-10
1.73004e-06
5.93824e-08
-1.04783e-09
1.73887e-06
8.4131e-08
-1.14352e-09
1.75005e-06
1.09105e-07
-1.2515e-09
1.76355e-06
1.344e-07
-1.32333e-09
1.77933e-06
1.60043e-07
-1.3922e-09
1.7974e-06
1.8611e-07
-1.42655e-09
1.81778e-06
2.1259e-07
-1.47189e-09
1.84046e-06
2.39545e-07
-1.42836e-09
1.86546e-06
2.66901e-07
-1.35213e-09
2.94693e-07
-1.15015e-09
1.71465e-06
-1.05854e-07
-5.91438e-10
1.70667e-06
-8.24613e-08
-6.45586e-10
1.70112e-06
-5.93425e-08
-6.99173e-10
1.69802e-06
-3.6479e-08
-7.69133e-10
1.69732e-06
-1.38492e-08
-7.82296e-10
1.699e-06
8.59146e-09
-8.17329e-10
1.70305e-06
3.09343e-08
-8.39157e-10
1.70948e-06
5.32973e-08
-9.3373e-10
1.71829e-06
7.58271e-08
-1.07854e-09
1.7295e-06
9.86188e-08
-1.24456e-09
1.74309e-06
1.21757e-07
-1.36358e-09
1.75903e-06
1.45242e-07
-1.4374e-09
1.77729e-06
1.69122e-07
-1.42761e-09
1.79791e-06
1.93377e-07
-1.44802e-09
1.8209e-06
2.18071e-07
-1.43524e-09
1.84629e-06
2.43142e-07
-1.44945e-09
2.68623e-07
-1.34463e-09
1.69163e-06
-9.56953e-08
-3.47443e-10
1.68352e-06
-7.4747e-08
-3.90841e-10
1.6779e-06
-5.40592e-08
-4.41843e-10
1.67481e-06
-3.36111e-08
-5.43554e-10
1.67422e-06
-1.33769e-08
-6.34126e-10
1.67614e-06
6.69986e-09
-7.68883e-10
1.68051e-06
2.67214e-08
-9.07705e-10
1.6873e-06
4.68219e-08
-1.09795e-09
1.69648e-06
6.71587e-08
-1.32303e-09
1.70802e-06
8.78292e-08
-1.55984e-09
1.72186e-06
1.08894e-07
-1.699e-09
1.73797e-06
1.30308e-07
-1.7268e-09
1.75632e-06
1.52048e-07
-1.5785e-09
1.77695e-06
1.74051e-07
-1.37501e-09
1.79991e-06
1.9637e-07
-1.15981e-09
1.82534e-06
2.18989e-07
-1.07789e-09
2.41998e-07
-9.979e-10
1.66587e-06
-8.54251e-08
-2.38902e-10
1.65774e-06
-6.6979e-08
-2.90146e-10
1.65218e-06
-4.87941e-08
-4.14454e-10
1.64923e-06
-3.08373e-08
-6.0297e-10
1.64888e-06
-1.30558e-08
-7.97972e-10
1.65109e-06
4.63287e-09
-1.06377e-09
1.65578e-06
2.23501e-08
-1.2696e-09
1.66288e-06
4.02362e-08
-1.50984e-09
1.6723e-06
5.84462e-08
-1.71662e-09
1.68398e-06
7.70642e-08
-1.93026e-09
1.69789e-06
9.61231e-08
-2.04575e-09
1.714e-06
1.15528e-07
-2.04421e-09
1.73226e-06
1.35184e-07
-1.83803e-09
1.75275e-06
1.5495e-07
-1.52897e-09
1.77556e-06
1.74833e-07
-1.16821e-09
1.80087e-06
1.94835e-07
-9.50599e-10
2.15113e-07
-8.29242e-10
1.43713e-06
-7.6445e-08
-3.85106e-11
1.43001e-06
-6.0244e-08
-5.39268e-11
1.42517e-06
-4.43222e-08
-1.29914e-10
1.42267e-06
-2.86286e-08
-2.98418e-10
1.42251e-06
-1.30742e-08
-5.2482e-10
1.42469e-06
2.46589e-09
-8.35835e-10
1.4291e-06
1.81498e-08
-1.12748e-09
1.43565e-06
3.41295e-08
-1.42244e-09
1.4442e-06
5.05428e-08
-1.64844e-09
1.45468e-06
6.74424e-08
-1.84242e-09
1.467e-06
8.48249e-08
-1.93212e-09
1.48114e-06
1.0256e-07
-1.91567e-09
1.49705e-06
1.20501e-07
-1.71388e-09
1.51476e-06
1.38445e-07
-1.3931e-09
1.53436e-06
1.56327e-07
-9.81255e-10
1.55602e-06
1.74115e-07
-6.58342e-10
1.91971e-07
-4.68931e-10
1.35897e-06
-6.7857e-08
1.28418e-10
1.35215e-06
-5.38396e-08
7.12651e-11
1.34759e-06
-4.01267e-08
-6.96611e-11
1.34535e-06
-2.66409e-08
-3.41024e-10
1.34542e-06
-1.32453e-08
-6.84636e-10
1.34778e-06
2.41604e-10
-1.11254e-09
1.3523e-06
1.4022e-08
-1.49059e-09
1.35882e-06
2.82553e-08
-1.8111e-09
1.36719e-06
4.30418e-08
-2.01089e-09
1.37729e-06
5.83787e-08
-2.14501e-09
1.38908e-06
7.42052e-08
-2.17255e-09
1.40256e-06
9.03581e-08
-2.11325e-09
1.41771e-06
1.06661e-07
-1.88587e-09
1.43454e-06
1.22884e-07
-1.54057e-09
1.45311e-06
1.38907e-07
-1.06838e-09
1.47353e-06
1.54654e-07
-6.43853e-10
1.70261e-07
-3.16601e-10
1.28409e-06
-5.96064e-08
1.86546e-10
1.2775e-06
-4.76683e-08
1.35903e-10
1.27306e-06
-3.6062e-08
2.19531e-11
1.2708e-06
-2.46778e-08
-2.05228e-10
1.27074e-06
-1.33351e-08
-5.08121e-10
1.27284e-06
-1.8063e-09
-8.63955e-10
1.27701e-06
1.01337e-08
-1.2122e-09
1.28316e-06
2.2643e-08
-1.50632e-09
1.29114e-06
3.5788e-08
-1.68958e-09
1.30089e-06
4.95235e-08
-1.81518e-09
1.31234e-06
6.3754e-08
-1.84416e-09
1.32545e-06
7.83101e-08
-1.83765e-09
1.34018e-06
9.30225e-08
-1.70806e-09
1.35649e-06
1.07664e-07
-1.48593e-09
1.37433e-06
1.22081e-07
-1.09968e-09
1.39374e-06
1.36132e-07
-7.03438e-10
1.49878e-07
-2.94489e-10
1.21132e-06
-5.17394e-08
2.79652e-10
1.20501e-06
-4.17842e-08
1.98872e-10
1.20076e-06
-3.21828e-08
3.05862e-11
1.19862e-06
-2.2789e-08
-2.44638e-10
1.19859e-06
-1.33736e-08
-5.91311e-10
1.2006e-06
-3.66798e-09
-9.69141e-10
1.20456e-06
6.56822e-09
-1.28765e-09
1.21035e-06
1.74656e-08
-1.5302e-09
1.21787e-06
2.90373e-08
-1.64385e-09
1.22709e-06
4.11876e-08
-1.73494e-09
1.23798e-06
5.3799e-08
-1.78486e-09
1.25057e-06
6.67262e-08
-1.86472e-09
1.2648e-06
7.98503e-08
-1.89401e-09
1.2806e-06
9.29904e-08
-1.85614e-09
1.29783e-06
1.05985e-07
-1.60654e-09
1.31643e-06
1.18629e-07
-1.22319e-09
1.30867e-07
-6.71006e-10
1.14137e-06
-4.42566e-08
3.35735e-10
1.1353e-06
-3.61539e-08
2.68354e-10
1.13114e-06
-2.84135e-08
1.2417e-10
1.12893e-06
-2.08608e-08
-1.27325e-10
1.12866e-06
-1.32227e-08
-4.39104e-10
1.13028e-06
-5.1883e-09
-7.66433e-10
1.13366e-06
3.49238e-09
-1.049e-09
1.13873e-06
1.29151e-08
-1.26795e-09
1.14543e-06
2.3018e-08
-1.39733e-09
1.15379e-06
3.36318e-08
-1.50899e-09
1.16387e-06
4.45999e-08
-1.5722e-09
1.17574e-06
5.58018e-08
-1.65956e-09
1.18939e-06
6.71961e-08
-1.70545e-09
1.20472e-06
7.86953e-08
-1.71446e-09
1.22156e-06
9.01945e-08
-1.56357e-09
1.23973e-06
1.01484e-07
-1.27567e-09
1.12424e-07
-7.94686e-10
1.07325e-06
-3.70816e-08
3.9746e-10
1.06726e-06
-3.06226e-08
3.28799e-10
1.06301e-06
-2.45371e-08
2.11674e-10
1.06054e-06
-1.86618e-08
2.69653e-11
1.05989e-06
-1.27097e-08
-2.09742e-10
1.06107e-06
-6.32659e-09
-4.87161e-10
1.06399e-06
7.77082e-10
-7.35418e-10
1.06858e-06
8.69812e-09
-9.42641e-10
1.07476e-06
1.733e-08
-1.06573e-09
1.08256e-06
2.64368e-08
-1.19369e-09
1.09205e-06
3.5811e-08
-1.26503e-09
1.10329e-06
4.53269e-08
-1.34887e-09
1.11632e-06
5.49779e-08
-1.38146e-09
1.1311e-06
6.47471e-08
-1.38271e-09
1.14749e-06
7.46021e-08
-1.28375e-09
1.16534e-06
8.43882e-08
-1.11348e-09
9.39687e-08
-8.17485e-10
1.00572e-06
-2.98394e-08
3.83944e-10
9.99458e-07
-2.47594e-08
4.09188e-10
9.94666e-07
-2.01053e-08
4.66034e-10
9.91459e-07
-1.57865e-08
4.7674e-10
9.89979e-07
-1.15278e-08
3.96352e-10
9.90343e-07
-6.91172e-09
1.60869e-10
9.9258e-07
-1.53984e-09
-2.0158e-10
9.96655e-07
4.77338e-09
-6.75676e-10
1.00249e-06
1.19302e-08
-1.16186e-09
1.01004e-06
1.96427e-08
-1.60956e-09
1.01924e-06
2.76167e-08
-1.90562e-09
1.0301e-06
3.56617e-08
-2.08453e-09
1.0426e-06
4.37424e-08
-2.08453e-09
1.05673e-06
5.1857e-08
-1.98622e-09
1.07246e-06
6.00113e-08
-1.75599e-09
1.0897e-06
6.81163e-08
-1.48674e-09
7.60857e-08
-1.14696e-09
9.35206e-07
-2.25636e-08
5.42719e-10
9.28712e-07
-1.87572e-08
7.31286e-10
9.23609e-07
-1.55281e-08
1.00892e-09
9.20079e-07
-1.28603e-08
1.20666e-09
9.1835e-07
-1.04647e-08
1.16562e-09
9.18627e-07
-7.79801e-09
7.65902e-10
9.2098e-07
-4.28312e-09
8.32679e-11
9.25333e-07
4.06237e-10
-7.46089e-10
9.31503e-07
6.19577e-09
-1.50847e-09
9.39286e-07
1.27391e-08
-2.10334e-09
9.48494e-07
1.96229e-08
-2.41963e-09
9.59033e-07
2.65409e-08
-2.52437e-09
9.70852e-07
3.33833e-08
-2.39308e-09
9.83969e-07
4.01196e-08
-2.16171e-09
9.98415e-07
4.67636e-08
-1.81365e-09
1.01424e-06
5.32791e-08
-1.46904e-09
5.96259e-08
-1.09696e-09
8.58787e-07
-1.58314e-08
8.354e-10
8.52771e-07
-1.3441e-08
1.14055e-09
8.48192e-07
-1.1757e-08
1.4229e-09
8.45213e-07
-1.07545e-08
1.46196e-09
8.44022e-07
-1.01002e-08
1.1243e-09
8.44743e-07
-9.10731e-09
3.59323e-10
8.47375e-07
-7.06692e-09
-6.78023e-10
8.51822e-07
-3.59232e-09
-1.77824e-09
8.57906e-07
1.1937e-09
-2.68757e-09
8.65454e-07
6.83767e-09
-3.32444e-09
8.7428e-07
1.28073e-08
-3.5643e-09
8.8428e-07
1.87077e-08
-3.53018e-09
8.95398e-07
2.43691e-08
-3.2179e-09
9.07631e-07
2.97557e-08
-2.74884e-09
9.21006e-07
3.4913e-08
-2.18198e-09
9.35582e-07
3.98725e-08
-1.64524e-09
4.46451e-08
-1.10819e-09
7.7683e-07
-1.08948e-08
1.82284e-09
7.72036e-07
-1.01571e-08
2.08173e-09
7.68779e-07
-1.00645e-08
2.01971e-09
7.67092e-07
-1.04472e-08
1.54483e-09
7.66953e-07
-1.09426e-08
7.3074e-10
7.68318e-07
-1.08709e-08
-3.30613e-10
7.71181e-07
-9.69071e-09
-1.37046e-09
7.75562e-07
-7.12393e-09
-2.28434e-09
7.81424e-07
-3.3097e-09
-2.93517e-09
7.88664e-07
1.34246e-09
-3.32801e-09
7.9711e-07
6.3464e-09
-3.44969e-09
8.06592e-07
1.13032e-08
-3.37017e-09
8.16986e-07
1.59314e-08
-3.01142e-09
8.28259e-07
2.01517e-08
-2.50022e-09
8.40444e-07
2.40253e-08
-1.90299e-09
8.53617e-07
2.76306e-08
-1.32876e-09
3.10023e-08
-7.57377e-10
7.05155e-07
-5.94279e-09
1.60405e-09
6.99125e-07
-6.05801e-09
1.87233e-09
6.94374e-07
-6.70361e-09
1.77442e-09
6.90893e-07
-7.69579e-09
1.25989e-09
6.88468e-07
-8.71342e-09
5.23926e-10
6.86832e-07
-9.46975e-09
-2.316e-10
6.85882e-07
-9.48398e-09
-9.80304e-10
6.85724e-07
-8.57583e-09
-1.55747e-09
6.86737e-07
-6.71875e-09
-2.10225e-09
6.89359e-07
-4.14401e-09
-2.58146e-09
6.93904e-07
-1.18263e-09
-2.92059e-09
7.0043e-07
1.94735e-09
-3.10511e-09
7.08709e-07
5.11126e-09
-3.09761e-09
7.18386e-07
8.08056e-09
-2.76305e-09
7.29184e-07
1.08089e-08
-2.28624e-09
7.40933e-07
1.33752e-08
-1.78381e-09
7.53523e-07
1.58273e-08
-1.29485e-09
1.81259e-08
-8.11269e-10
6.30354e-07
6.13501e-10
-6.97044e-10
6.24448e-07
6.24014e-11
-9.53364e-10
6.18769e-07
-7.01999e-10
-1.0883e-09
6.13142e-07
-1.65989e-09
-9.99576e-10
6.07358e-07
-2.6084e-09
-4.3122e-10
6.01412e-07
-3.25675e-09
3.58434e-11
5.95613e-07
-3.25787e-09
1.18185e-10
5.90184e-07
-2.5056e-09
-3.6906e-11
5.85836e-07
-1.27523e-09
-9.2691e-10
5.83187e-07
-2.80635e-11
-1.62578e-09
5.82688e-07
9.71041e-10
-2.25246e-09
5.84656e-07
1.8383e-09
-2.94199e-09
5.8882e-07
2.72313e-09
-2.95004e-09
5.94741e-07
3.63188e-09
-2.79247e-09
6.02238e-07
4.57517e-09
-2.70105e-09
6.10993e-07
5.59931e-09
-2.2761e-09
6.2068e-07
6.71005e-09
-1.78855e-09
7.85857e-09
-1.60936e-09
4.50608e-07
1.73269e-09
4.49575e-07
1.46633e-09
4.47472e-07
2.21463e-09
4.44179e-07
2.69876e-09
4.40373e-07
2.05399e-09
4.37204e-07
5.98218e-11
4.35538e-07
-2.25582e-09
4.35535e-07
-3.6162e-09
4.3674e-07
-3.54932e-09
4.38515e-07
-2.57942e-09
4.40637e-07
-1.79037e-09
4.4325e-07
-1.36896e-09
4.46529e-07
-1.23265e-09
4.50683e-07
-1.56285e-09
4.55871e-07
-2.06145e-09
4.62104e-07
-2.35539e-09
4.69348e-07
-2.4642e-09
-2.35506e-09
2.52723e-06
-2.10322e-07
6.66955e-10
2.20703e-07
2.51739e-06
-1.59776e-07
6.69122e-10
1.67121e-07
2.51064e-06
-1.09981e-07
6.35006e-10
1.14439e-07
2.5069e-06
-6.08904e-08
6.15897e-10
6.25977e-08
2.50617e-06
-1.24266e-08
5.52857e-10
1.14917e-08
2.50843e-06
3.55118e-08
4.44406e-10
-3.8996e-08
2.51369e-06
8.30571e-08
2.37614e-10
-8.9043e-08
2.52199e-06
1.30387e-07
-2.07355e-11
-1.38839e-07
2.53342e-06
1.77642e-07
-4.66698e-10
-1.88573e-07
2.54803e-06
2.2501e-07
-1.12863e-09
-2.38426e-07
2.56587e-06
2.72597e-07
-2.14229e-09
-2.88537e-07
2.58692e-06
3.20602e-07
-3.25733e-09
-3.39055e-07
2.61116e-06
3.69076e-07
-4.48772e-09
-3.90045e-07
2.63852e-06
4.18235e-07
-5.4871e-09
-4.41753e-07
2.669e-06
4.68088e-07
-6.38966e-09
-4.94239e-07
2.7026e-06
5.18814e-07
-6.96086e-09
-5.47774e-07
5.70325e-07
-7.47539e-09
-6.02206e-07
2.51078e-06
-1.9873e-07
5.41362e-10
2.50063e-06
-1.51282e-07
4.93467e-10
2.49368e-06
-1.04479e-07
3.70631e-10
2.48987e-06
-5.82819e-08
3.09331e-10
2.48915e-06
-1.26335e-08
1.92256e-10
2.49149e-06
3.25497e-08
9.06482e-11
2.49688e-06
7.73627e-08
-6.80573e-11
2.50534e-06
1.21959e-07
-2.23067e-10
2.51692e-06
1.66455e-07
-4.95063e-10
2.53168e-06
2.11034e-07
-8.34273e-10
2.54966e-06
2.55808e-07
-1.31817e-09
2.5709e-06
3.00968e-07
-1.82114e-09
2.59541e-06
3.466e-07
-2.40763e-09
2.62322e-06
3.9286e-07
-2.90659e-09
2.65432e-06
4.398e-07
-3.37954e-09
2.68876e-06
4.87499e-07
-3.70312e-09
5.35965e-07
-3.93264e-09
2.49231e-06
-1.86409e-07
7.83748e-10
2.4817e-06
-1.42186e-07
6.93155e-10
2.4744e-06
-9.85189e-08
5.47128e-10
2.47035e-06
-5.53698e-08
4.51414e-10
2.4695e-06
-1.27021e-08
2.97617e-10
2.4718e-06
2.95603e-08
1.84175e-10
2.47723e-06
7.14955e-08
2.23355e-11
2.48578e-06
1.13235e-07
-1.56222e-10
2.49748e-06
1.54892e-07
-4.28788e-10
2.51234e-06
1.96615e-07
-7.68665e-10
2.5304e-06
2.38522e-07
-1.18607e-09
2.55173e-06
2.8075e-07
-1.60181e-09
2.57635e-06
3.23414e-07
-2.00352e-09
2.60433e-06
3.66607e-07
-2.36076e-09
2.63569e-06
4.10424e-07
-2.6237e-09
2.67052e-06
4.54882e-07
-2.83826e-09
5.00045e-07
-2.91846e-09
2.46883e-06
-1.73247e-07
4.50485e-10
2.45793e-06
-1.32386e-07
3.6045e-10
2.45046e-06
-9.20077e-08
2.23023e-10
2.44636e-06
-5.20817e-08
1.10819e-10
2.44559e-06
-1.25844e-08
3.81188e-12
2.4481e-06
2.65376e-08
-1.02248e-10
2.45387e-06
6.53669e-08
-2.42911e-10
2.4629e-06
1.04028e-07
-4.66944e-10
2.47519e-06
1.42665e-07
-7.40288e-10
2.49072e-06
1.81411e-07
-1.07991e-09
2.50946e-06
2.20395e-07
-1.4381e-09
2.53141e-06
2.59706e-07
-1.8394e-09
2.55658e-06
2.99454e-07
-2.2103e-09
2.58502e-06
3.39678e-07
-2.58092e-09
2.61674e-06
3.80469e-07
-2.83285e-09
2.65183e-06
4.21796e-07
-3.06552e-09
4.63723e-07
-3.16992e-09
2.44314e-06
-1.59921e-07
6.91462e-10
2.43208e-06
-1.22467e-07
5.46058e-10
2.42449e-06
-8.54347e-08
3.63574e-10
2.42035e-06
-4.88032e-08
1.29674e-10
2.41963e-06
-1.25564e-08
-7.99318e-11
2.42231e-06
2.334e-08
-3.44522e-10
2.42835e-06
5.89743e-08
-5.73421e-10
2.43776e-06
9.44683e-08
-8.94541e-10
2.45053e-06
1.29987e-07
-1.23495e-09
2.46664e-06
1.65665e-07
-1.61643e-09
2.48605e-06
2.01636e-07
-1.97323e-09
2.50871e-06
2.37964e-07
-2.31574e-09
2.5346e-06
2.74741e-07
-2.59665e-09
2.56371e-06
3.11981e-07
-2.88885e-09
2.59608e-06
3.49755e-07
-3.08067e-09
2.63173e-06
3.88014e-07
-3.22534e-09
4.26788e-07
-3.19245e-09
2.41689e-06
-1.4615e-07
3.16022e-10