/*--------------------------------*- C++ -*----------------------------------*\
  =========                 |
  \\      /  F ield         | OpenFOAM: The Open Source CFD Toolbox
   \\    /   O peration     | Website:  https://openfoam.org
    \\  /    A nd           | Version:  6
     \\/     M anipulation  |
\*---------------------------------------------------------------------------*/
FoamFile
{
    version     2.0;
    format      ascii;
    class       volVectorField;
    location    "44";
    object      wallShearStress;
}
// * * * * * * * * * * * * * * * * * * * * * * * * * * * * * * * * * * * * * //

dimensions      [0 2 -2 0 0 0 0];

internalField   uniform (0 0 0);

boundaryField
{
    inlet
    {
        type            calculated;
        value           uniform (0 0 0);
    }
    outlet
    {
        type            calculated;
        value           uniform (0 0 0);
    }
    roughCylinder
    {
        type            calculated;
        value           nonuniform List<vector> 
3840
(
(-0.000415336 -0.000599958 -0.000254279)
(-0.000329736 -0.000503021 -1.71511e-05)
(-0.000364982 -0.000578728 4.10219e-05)
(-0.000451895 -0.000683718 0.00010998)
(-0.000544105 -0.000755007 0.000175834)
(-0.000635016 -0.000794588 0.00023151)
(-0.000717557 -0.000807967 0.000274021)
(-0.000789568 -0.000809005 0.000303817)
(-0.000851156 -0.000812037 0.000323492)
(-0.000899824 -0.000820561 0.000332794)
(-0.000940033 -0.000836606 0.000333625)
(-0.000974143 -0.000858685 0.000328557)
(-0.0010057 -0.000885135 0.000319808)
(-0.00103766 -0.000914766 0.000308845)
(-0.00107169 -0.000946928 0.000296279)
(-0.00110839 -0.000981337 0.000282218)
(-0.00114787 -0.00101791 0.000266553)
(-0.00118978 -0.00105631 0.000248979)
(-0.00123358 -0.00109597 0.000228921)
(-0.0012784 -0.00113601 0.000205367)
(-0.00132284 -0.00117505 0.000176486)
(-0.00136469 -0.00121105 0.000139683)
(-0.00139959 -0.001241 9.09972e-05)
(-0.00142059 -0.0012595 3.13669e-05)
(-0.000451655 -0.000595718 -0.000253816)
(-0.000354472 -0.000495042 -2.17745e-05)
(-0.000383637 -0.000561993 3.3137e-05)
(-0.000472698 -0.000666955 9.89969e-05)
(-0.00056738 -0.000740494 0.000163107)
(-0.000661269 -0.000783383 0.000217949)
(-0.000747773 -0.000801272 0.000260637)
(-0.00082506 -0.000807294 0.000292061)
(-0.000891917 -0.000812169 0.00031378)
(-0.000943191 -0.000818692 0.0003238)
(-0.000985189 -0.000833472 0.000324923)
(-0.00102127 -0.000854826 0.000320075)
(-0.00105474 -0.000880856 0.000311504)
(-0.00108849 -0.000910085 0.000300715)
(-0.00112433 -0.000941858 0.000288405)
(-0.00116306 -0.00097599 0.000274745)
(-0.00120456 -0.00101218 0.000259569)
(-0.00124856 -0.00105014 0.000242579)
(-0.00129445 -0.00108929 0.000223182)
(-0.00134132 -0.00112877 0.000200368)
(-0.00138774 -0.00116724 0.000172315)
(-0.00143138 -0.00120271 0.000136458)
(-0.00146777 -0.00123221 8.89142e-05)
(-0.00148966 -0.0012504 3.06423e-05)
(-0.000475737 -0.000566735 -0.000238376)
(-0.000375733 -0.00047757 -2.66859e-05)
(-0.000401138 -0.000539485 2.46095e-05)
(-0.000491654 -0.000643614 8.70598e-05)
(-0.000588683 -0.000719299 0.000149304)
(-0.000685475 -0.000765633 0.000203428)
(-0.000776545 -0.00078877 0.000246779)
(-0.000859165 -0.00079984 0.000279791)
(-0.000930576 -0.000806892 0.000302914)
(-0.000985219 -0.000811612 0.000313635)
(-0.00102945 -0.000825194 0.000315316)
(-0.00106753 -0.000845527 0.000310729)
(-0.00110282 -0.000870753 0.000302373)
(-0.0011385 -0.000899437 0.000291862)
(-0.00117632 -0.000930727 0.00027992)
(-0.00121686 -0.000964165 0.000266676)
(-0.00126031 -0.000999674 0.000252042)
(-0.00130629 -0.00103689 0.000235686)
(-0.00135419 -0.00107527 0.000217016)
(-0.00140303 -0.00111392 0.000195004)
(-0.00145132 -0.00115156 0.00016784)
(-0.00149665 -0.00118624 0.000132999)
(-0.00153445 -0.00121509 8.66814e-05)
(-0.00155715 -0.00123287 2.98666e-05)
(-0.000509504 -0.000546665 -0.000222367)
(-0.000397608 -0.000458128 -3.22877e-05)
(-0.000414252 -0.000511136 1.55998e-05)
(-0.000505769 -0.000613986 7.43613e-05)
(-0.000605119 -0.000691924 0.00013452)
(-0.000705657 -0.000742885 0.000188069)
(-0.000801312 -0.000771426 0.000232152)
(-0.000888787 -0.000787013 0.000266565)
(-0.000964261 -0.000795893 0.000290654)
(-0.00102424 -0.000801078 0.000302763)
(-0.00107052 -0.000812589 0.00030494)
(-0.00111072 -0.000831653 0.000300698)
(-0.00114813 -0.000856051 0.000292718)
(-0.00118565 -0.000883903 0.000282541)
(-0.0012252 -0.000914343 0.000270983)
(-0.00126776 -0.000947119 0.000258285)
(-0.00131314 -0.000981803 0.000244259)
(-0.00136105 -0.00101812 0.000228601)
(-0.0014108 -0.00105548 0.00021069)
(-0.00146144 -0.00109309 0.000189514)
(-0.00151142 -0.00112966 0.000163269)
(-0.00155828 -0.00116334 0.000129468)
(-0.00159733 -0.00119137 8.44053e-05)
(-0.00162075 -0.0012086 2.90772e-05)
(-0.000533262 -0.000514489 -0.000197052)
(-0.000416644 -0.000432372 -3.83099e-05)
(-0.000423773 -0.00047933 6.5182e-06)
(-0.000514827 -0.000579408 6.12217e-05)
(-0.000616485 -0.000659593 0.000119029)
(-0.000719982 -0.000714376 0.000171587)
(-0.00082023 -0.000748345 0.000216274)
(-0.000912716 -0.000768486 0.00025205)
(-0.000993181 -0.000779938 0.000277349)
(-0.00105757 -0.000785698 0.000290628)
(-0.0011076 -0.000795299 0.000293692)
(-0.00115016 -0.000813006 0.000290035)
(-0.00118954 -0.000836061 0.000282471)
(-0.00122909 -0.00086297 0.000272773)
(-0.0012707 -0.000892606 0.000261769)
(-0.00131488 -0.000924259 0.00024961)
(-0.001362 -0.000957855 0.000236242)
(-0.0014116 -0.000992981 0.000221316)
(-0.00146309 -0.00102914 0.00020422)
(-0.00151537 -0.00106546 0.000183916)
(-0.00156687 -0.00110076 0.000158619)
(-0.00161511 -0.00113324 0.000125883)
(-0.00165527 -0.00116026 8.20977e-05)
(-0.00167933 -0.00117687 2.82783e-05)
(-0.000483848 -0.00041642 -0.000149979)
(-0.000422603 -0.000396009 -4.30069e-05)
(-0.000426982 -0.000442141 -2.32059e-06)
(-0.00051729 -0.000539912 4.76673e-05)
(-0.00062067 -0.000621844 0.000102627)
(-0.000728332 -0.000681579 0.000154154)
(-0.00083322 -0.00072072 0.000199221)
(-0.000930353 -0.000744772 0.000236108)
(-0.00101485 -0.000757928 0.000262408)
(-0.00108503 -0.00076567 0.000277177)
(-0.00113998 -0.000774268 0.000281469)
(-0.00118505 -0.000789538 0.000278533)
(-0.00122698 -0.000811373 0.000271663)
(-0.00126851 -0.000836983 0.00026254)
(-0.00131171 -0.000865256 0.000252093)
(-0.00135791 -0.000895887 0.000240655)
(-0.00140679 -0.000928256 0.000228032)
(-0.00145812 -0.000962078 0.000213916)
(-0.00151111 -0.000996762 0.000197664)
(-0.00156483 -0.00103158 0.000178259)
(-0.00161767 -0.00106538 0.000153929)
(-0.00166708 -0.00109644 0.000122271)
(-0.0017082 -0.00112229 7.97766e-05)
(-0.00173278 -0.00113817 2.74761e-05)
(-0.00059947 -0.00045605 -0.000158276)
(-0.000432795 -0.000369004 -4.72069e-05)
(-0.000426328 -0.00040361 -1.09886e-05)
(-0.000513095 -0.000497292 3.389e-05)
(-0.000618493 -0.000581283 8.56522e-05)
(-0.000728585 -0.000644153 0.000135464)
(-0.000837865 -0.00068795 0.000180526)
(-0.000940031 -0.000715913 0.000218385)
(-0.00103063 -0.000732162 0.000246222)
(-0.00110497 -0.000740558 0.000262111)
(-0.00116551 -0.000749409 0.000267886)
(-0.0012152 -0.000762972 0.000266208)
(-0.0012594 -0.000782356 0.000260109)
(-0.0013032 -0.000806447 0.000251768)
(-0.00134871 -0.000833595 0.000242139)
(-0.00139633 -0.000862632 0.000231406)
(-0.00144672 -0.000893489 0.000219581)
(-0.00149942 -0.000925681 0.000206305)
(-0.00155384 -0.000958758 0.00019096)
(-0.00160882 -0.000991897 0.000172497)
(-0.0016628 -0.00102402 0.000149163)
(-0.00171323 -0.00105352 0.000118607)
(-0.00175519 -0.00107807 7.74266e-05)
(-0.00178017 -0.00109313 2.6666e-05)
(-0.000534041 -0.000359531 -0.000119089)
(-0.000425413 -0.000328552 -4.92085e-05)
(-0.000417062 -0.00036112 -1.94977e-05)
(-0.000500335 -0.000451116 1.99825e-05)
(-0.000605827 -0.00053544 6.77357e-05)
(-0.000720187 -0.000603032 0.00011561)
(-0.000834297 -0.000651525 0.000160336)
(-0.000941698 -0.000683175 0.000198923)
(-0.00103628 -0.00070082 0.000227752)
(-0.00111746 -0.000711513 0.000245526)
(-0.00118313 -0.000720438 0.000252805)
(-0.0012375 -0.000732855 0.000252539)
(-0.00128614 -0.000750686 0.000247817)
(-0.00133248 -0.000772781 0.00024048)
(-0.00137945 -0.000797822 0.000231644)
(-0.0014292 -0.000825421 0.000221857)
(-0.00148124 -0.000854654 0.000210944)
(-0.00153546 -0.000885189 0.000198609)
(-0.00159101 -0.000916406 0.000184199)
(-0.00164701 -0.000947655 0.0001667)
(-0.00170189 -0.000977898 0.000144377)
(-0.00175311 -0.00100561 0.000114928)
(-0.00179571 -0.00102867 7.50692e-05)
(-0.00182097 -0.00104288 2.58554e-05)
(-0.000534715 -0.000319991 -9.38041e-05)
(-0.000426162 -0.000293614 -5.37405e-05)
(-0.00040194 -0.000318981 -2.72893e-05)
(-0.000478842 -0.00040252 6.41203e-06)
(-0.000585823 -0.000488331 4.95787e-05)
(-0.000701335 -0.000557929 9.44792e-05)
(-0.000819516 -0.000610343 0.000138185)
(-0.000932112 -0.000645451 0.000177113)
(-0.00103462 -0.000666954 0.000207642)
(-0.00112033 -0.000678167 0.000226896)
(-0.00119203 -0.000687584 0.000236099)
(-0.00125186 -0.000699474 0.000237624)
(-0.0013041 -0.000715598 0.000234313)
(-0.00135368 -0.000735879 0.000228274)
(-0.00140381 -0.000759471 0.000220694)
(-0.00145495 -0.000784988 0.00021188)
(-0.00150835 -0.000812302 0.000201963)
(-0.00156359 -0.000840823 0.00019061)
(-0.00162022 -0.000870126 0.000177221)
(-0.00167709 -0.000899398 0.000160746)
(-0.00173271 -0.000927682 0.000139477)
(-0.00178464 -0.000953572 0.000111176)
(-0.0018278 -0.00097514 7.26766e-05)
(-0.00185314 -0.000988417 2.50348e-05)
(-0.000463015 -0.00024332 -6.40083e-05)
(-0.000403601 -0.000248846 -5.51745e-05)
(-0.000378241 -0.000275019 -3.40029e-05)
(-0.000447714 -0.000351853 -6.7238e-06)
(-0.000551439 -0.000435379 3.08256e-05)
(-0.000671022 -0.000509291 7.22295e-05)
(-0.000794199 -0.000566146 0.000114371)
(-0.000913227 -0.000605327 0.000153421)
(-0.00101951 -0.000627754 0.000184668)
(-0.00111364 -0.000641623 0.000206227)
(-0.00119141 -0.000651287 0.000217576)
(-0.00125615 -0.000662194 0.000221057)
(-0.00131336 -0.000677229 0.000219622)
(-0.00136627 -0.000695751 0.000215102)
(-0.00141798 -0.000717022 0.000208726)
(-0.00147165 -0.000740984 0.000201234)
(-0.00152669 -0.000766475 0.000192495)
(-0.00158327 -0.000793133 0.000182284)
(-0.00164058 -0.000820313 0.000169969)
(-0.00169795 -0.000847466 0.000154567)
(-0.00175395 -0.000873702 0.000134396)
(-0.00180622 -0.0008977 0.000107284)
(-0.00184963 -0.000917696 7.01952e-05)
(-0.0018749 -0.000929972 2.41851e-05)
(-0.000444511 -0.000204272 -4.78533e-05)
(-0.000386459 -0.000212369 -5.68844e-05)
(-0.000347431 -0.000231387 -3.98978e-05)
(-0.000405342 -0.000298995 -1.87549e-05)
(-0.000509854 -0.000383281 1.24619e-05)
(-0.000628454 -0.000457554 4.90848e-05)
(-0.000755204 -0.000517811 8.86583e-05)
(-0.000879176 -0.000560084 0.000127009)
(-0.000996074 -0.000587567 0.000159883)
(-0.00109533 -0.000601797 0.000183153)
(-0.00118004 -0.000611878 0.000197007)
(-0.00125147 -0.00062247 0.000203031)
(-0.00131258 -0.000635639 0.00020356)
(-0.00136897 -0.000652296 0.000200821)
(-0.00142445 -0.000672173 0.000196166)
(-0.00147916 -0.000693723 0.00018994)
(-0.00153518 -0.00071698 0.000182437)
(-0.00159224 -0.000741305 0.000173396)
(-0.00165014 -0.000766335 0.000162267)
(-0.00170777 -0.000791301 0.000148019)
(-0.00176383 -0.000815395 0.000129014)
(-0.00181616 -0.00083745 0.000103161)
(-0.00185959 -0.000855836 6.75678e-05)
(-0.00188461 -0.000867062 2.32866e-05)
(-0.000431935 -0.000171502 -3.19423e-05)
(-0.000356057 -0.000173631 -5.83405e-05)
(-0.000308686 -0.000188709 -4.38631e-05)
(-0.000354766 -0.000247023 -2.90056e-05)
(-0.000449716 -0.000324299 -5.14533e-06)
(-0.000571971 -0.000402323 2.56006e-05)
(-0.000703491 -0.000466892 6.16141e-05)
(-0.000835775 -0.000514417 9.89882e-05)
(-0.000955572 -0.000542282 0.000131975)
(-0.00106529 -0.000559753 0.000157764)
(-0.00115752 -0.000570232 0.000174382)
(-0.00123437 -0.000579561 0.000183025)
(-0.00130163 -0.000591684 0.000186174)
(-0.00136201 -0.000606486 0.000185548)
(-0.00141871 -0.000623593 0.000182472)
(-0.00147629 -0.000643453 0.000177942)
(-0.00153396 -0.000664704 0.000171903)
(-0.00159219 -0.000686995 0.000164227)
(-0.00165021 -0.000709667 0.000154328)
(-0.00170769 -0.000732318 0.000141277)
(-0.00176347 -0.000754191 0.000123474)
(-0.00181547 -0.000774224 9.89112e-05)
(-0.0018586 -0.000790923 6.48581e-05)
(-0.0018832 -0.000801064 2.23618e-05)
(-0.000355273 -0.000119576 -1.96064e-05)
(-0.000310139 -0.000136799 -5.571e-05)
(-0.000261578 -0.00014689 -4.56708e-05)
(-0.000288907 -0.000191481 -3.58632e-05)
(-0.000385157 -0.000268966 -2.0861e-05)
(-0.000502386 -0.000344562 2.59988e-06)
(-0.000636683 -0.000412346 3.3652e-05)
(-0.000772472 -0.000462566 6.85405e-05)
(-0.000906696 -0.00049772 0.000102524)
(-0.00102203 -0.000515706 0.000130007)
(-0.00112214 -0.000526588 0.000149574)
(-0.00120738 -0.000535774 0.000161532)
(-0.00127891 -0.00054569 0.000167325)
(-0.00134318 -0.000558355 0.000169075)
(-0.00140476 -0.000574101 0.000168279)
(-0.00146304 -0.000591184 0.000165346)
(-0.00152126 -0.000609892 0.000160795)
(-0.00157938 -0.000629587 0.000154481)
(-0.00163753 -0.00064996 0.000145937)
(-0.00169465 -0.000670282 0.000134166)
(-0.00174982 -0.000689907 0.000117631)
(-0.00180123 -0.000707903 9.4427e-05)
(-0.00184385 -0.000722913 6.20015e-05)
(-0.00186785 -0.000731959 2.13891e-05)
(-0.000278238 -7.94118e-05 -8.97537e-06)
(-0.000256328 -0.000102084 -5.14725e-05)
(-0.000209318 -0.000108669 -4.50775e-05)
(-0.000223434 -0.000142133 -3.98406e-05)
(-0.000296569 -0.000203413 -3.22885e-05)
(-0.000418322 -0.000283139 -1.81786e-05)
(-0.00055584 -0.000354822 6.02146e-06)
(-0.000702643 -0.000412701 3.76784e-05)
(-0.000837102 -0.000447626 7.05336e-05)
(-0.000965177 -0.000470245 0.000100207)
(-0.00107447 -0.000482181 0.000122887)
(-0.0011654 -0.000489895 0.000138012)
(-0.00124453 -0.000498847 0.000147158)
(-0.00131366 -0.000509556 0.000151667)
(-0.00137582 -0.000522023 0.000152858)
(-0.00143758 -0.000537336 0.000152044)
(-0.00149764 -0.000553961 0.000149272)
(-0.00155688 -0.000571554 0.000144564)
(-0.00161457 -0.000589449 0.000137406)
(-0.00167088 -0.000607372 0.000126946)
(-0.00172505 -0.000624725 0.000111696)
(-0.00177546 -0.000640645 8.98648e-05)
(-0.00181721 -0.000653929 5.90934e-05)
(-0.00184044 -0.000661888 2.04014e-05)
(-0.000189556 -4.59817e-05 1.5879e-07)
(-0.000195577 -7.06985e-05 -4.67205e-05)
(-0.000153893 -7.5272e-05 -4.17179e-05)
(-0.00013077 -8.09426e-05 -3.2386e-05)
(-0.000216347 -0.000147162 -3.9281e-05)
(-0.000321634 -0.000217926 -3.49821e-05)
(-0.000460671 -0.000293508 -1.94495e-05)
(-0.000607036 -0.0003533 6.62309e-06)
(-0.000761391 -0.0003998 3.83343e-05)
(-0.000894592 -0.000423728 6.89094e-05)
(-0.00101216 -0.00043672 9.44382e-05)
(-0.00111336 -0.000445015 0.000113325)
(-0.00119681 -0.000451603 0.000125641)
(-0.00127008 -0.000459975 0.000133058)
(-0.00133872 -0.000471252 0.000137104)
(-0.00140065 -0.000483476 0.000138217)
(-0.00146071 -0.000497312 0.000137186)
(-0.00151908 -0.000512118 0.000134024)
(-0.00157644 -0.00052769 0.000128388)
(-0.00163176 -0.000543297 0.000119325)
(-0.00168459 -0.000558417 0.000105428)
(-0.00173375 -0.00057233 8.50415e-05)
(-0.00177446 -0.000583943 5.60223e-05)
(-0.00179672 -0.000590841 1.93601e-05)
(-7.65677e-05 -1.51204e-05 8.01028e-06)
(-0.000115789 -3.77703e-05 -3.66808e-05)
(-9.73079e-05 -4.54949e-05 -3.70031e-05)
(-7.11795e-05 -4.44884e-05 -2.61801e-05)
(-7.46765e-05 -5.22305e-05 -2.142e-05)
(-0.000211898 -0.000146708 -4.15678e-05)
(-0.000350536 -0.000225757 -3.91758e-05)
(-0.000513352 -0.000299001 -2.21257e-05)
(-0.000661159 -0.000344129 6.15194e-06)
(-0.00080962 -0.000375817 3.71184e-05)
(-0.000937633 -0.000391659 6.50855e-05)
(-0.00104386 -0.000398933 8.70722e-05)
(-0.00113636 -0.000405204 0.000103085)
(-0.00121538 -0.000411844 0.000113723)
(-0.0012833 -0.000419402 0.000120059)
(-0.00134956 -0.000429963 0.00012369)
(-0.00141182 -0.000441784 0.00012475)
(-0.00147154 -0.000454605 0.00012344)
(-0.00152777 -0.00046771 0.000119335)
(-0.00158156 -0.000480995 0.000111681)
(-0.00163263 -0.000493943 9.91392e-05)
(-0.00168008 -0.000505872 8.01893e-05)
(-0.00171934 -0.000515828 5.2929e-05)
(-0.00174048 -0.000521713 1.83142e-05)
(-7.16498e-06 5.28277e-07 8.97991e-06)
(-2.48109e-05 -6.98744e-06 -1.2124e-05)
(-3.23876e-05 -1.5304e-05 -2.10666e-05)
(-5.09526e-05 -3.59425e-05 -3.15168e-05)
(-4.99262e-05 -3.94786e-05 -2.29426e-05)
(-0.00010084 -7.39778e-05 -3.17173e-05)
(-0.000236539 -0.000154152 -4.86357e-05)
(-0.000384993 -0.000226483 -4.43563e-05)
(-0.000562148 -0.000292577 -2.29996e-05)
(-0.000712098 -0.000326754 6.29915e-06)
(-0.000847435 -0.000345577 3.55323e-05)
(-0.000965622 -0.000355436 6.05914e-05)
(-0.00106156 -0.000359877 7.96695e-05)
(-0.00114439 -0.000364418 9.33684e-05)
(-0.00122099 -0.000371427 0.000102968)
(-0.00128647 -0.000378751 0.000108765)
(-0.00134791 -0.000387707 0.000111763)
(-0.00140562 -0.000397665 0.000112138)
(-0.0014611 -0.000408617 0.000109709)
(-0.0015132 -0.000419759 0.000103554)
(-0.00156218 -0.000430673 9.24336e-05)
(-0.00160767 -0.000440768 7.5006e-05)
(-0.00164535 -0.000449204 4.96261e-05)
(-0.00166516 -0.000454143 1.71983e-05)
(6.60352e-06 6.40221e-06 1.54581e-05)
(4.66555e-06 6.78438e-07 -7.53289e-06)
(-4.28174e-06 -8.04662e-06 -2.05073e-05)
(-1.69515e-05 -2.29138e-05 -2.77143e-05)
(-3.48986e-05 -3.74899e-05 -3.01579e-05)
(-4.41523e-05 -3.66751e-05 -2.3223e-05)
(-0.000132324 -8.97672e-05 -4.48481e-05)
(-0.000278101 -0.00016472 -5.71643e-05)
(-0.000430798 -0.000225649 -4.53443e-05)
(-0.000601463 -0.000275276 -2.12317e-05)
(-0.000747348 -0.000300295 7.38292e-06)
(-0.000867865 -0.000310649 3.39675e-05)
(-0.00097395 -0.000316576 5.60014e-05)
(-0.00106327 -0.000320423 7.27895e-05)
(-0.00113651 -0.000323586 8.46567e-05)
(-0.00120741 -0.000329755 9.32065e-05)
(-0.00127154 -0.000337039 9.85241e-05)
(-0.00133118 -0.000345411 0.000100978)
(-0.00138471 -0.000354095 0.000100189)
(-0.00143447 -0.000363182 9.55152e-05)
(-0.0014809 -0.000372209 8.57935e-05)
(-0.00152395 -0.000380575 6.9855e-05)
(-0.00155955 -0.000387544 4.6335e-05)
(-0.00157791 -0.000391636 1.60891e-05)
(1.26501e-05 1.11718e-05 2.207e-05)
(2.50671e-05 8.07473e-06 -7.73819e-06)
(2.84904e-05 -2.05282e-07 -1.9168e-05)
(1.22197e-05 -9.40444e-06 -1.58341e-05)
(-1.18144e-06 -2.42343e-05 -2.41104e-05)
(-2.89969e-05 -3.36211e-05 -2.93914e-05)
(-6.92929e-05 -5.27183e-05 -3.80051e-05)
(-8.15572e-05 -4.89319e-05 -2.58821e-05)
(-0.000322079 -0.000168298 -5.92804e-05)
(-0.000480191 -0.000220526 -4.31996e-05)
(-0.000631511 -0.000252686 -1.76403e-05)
(-0.000765583 -0.000269414 8.97548e-06)
(-0.000872506 -0.000275036 3.26366e-05)
(-0.00096393 -0.000277803 5.17839e-05)
(-0.00104887 -0.000281952 6.68184e-05)
(-0.00111714 -0.00028512 7.7512e-05)
(-0.00117908 -0.000289766 8.48107e-05)
(-0.00123479 -0.000295383 8.89618e-05)
(-0.00128715 -0.000302321 8.99547e-05)
(-0.00133449 -0.000309664 8.6841e-05)
(-0.00137798 -0.000317037 7.85862e-05)
(-0.00141836 -0.000323912 6.42434e-05)
(-0.00145188 -0.000329642 4.27486e-05)
(-0.00146853 -0.00033297 1.48789e-05)
(2.30274e-05 1.32768e-05 2.35964e-05)
(3.79077e-05 1.02827e-05 -9.23232e-06)
(4.80766e-05 3.4807e-06 -1.7768e-05)
(4.70483e-05 -9.755e-06 -2.05402e-05)
(1.78778e-05 -1.24987e-05 -1.06444e-05)
(3.47703e-06 -2.47316e-05 -1.77486e-05)
(-2.00086e-05 -1.97854e-05 -1.70758e-05)
(-5.23705e-05 -3.26852e-05 -2.43227e-05)
(-0.000144236 -7.44097e-05 -4.01982e-05)
(-0.000353925 -0.000162825 -5.54459e-05)
(-0.000510686 -0.000205369 -3.76774e-05)
(-0.000641757 -0.000225054 -1.33088e-05)
(-0.000759801 -0.000235528 1.06016e-05)
(-0.000858296 -0.000239872 3.15227e-05)
(-0.000934708 -0.000240489 4.81703e-05)
(-0.00100968 -0.000243742 6.14299e-05)
(-0.00107489 -0.000247564 7.10402e-05)
(-0.00113376 -0.000252437 7.74012e-05)
(-0.00118306 -0.000257546 8.00514e-05)
(-0.00122715 -0.000263308 7.84344e-05)
(-0.00126725 -0.000269261 7.15857e-05)
(-0.00130443 -0.000274824 5.87649e-05)
(-0.00133524 -0.000279414 3.92304e-05)
(-0.00135016 -0.000282114 1.3694e-05)
(3.28667e-05 1.42158e-05 2.5099e-05)
(7.4068e-05 1.63568e-05 -1.39286e-05)
(8.317e-05 6.27396e-06 -2.39179e-05)
(6.31286e-05 -7.68985e-06 -2.02051e-05)
(3.31448e-05 -1.29208e-05 -1.04198e-05)
(2.01619e-05 -1.7526e-05 -5.8657e-06)
(4.07975e-07 -2.02445e-05 -7.52536e-06)
(-4.33947e-05 -3.01334e-05 -2.75707e-05)
(-0.000107885 -5.68909e-05 -4.33577e-05)
(-0.000205366 -9.50193e-05 -4.85066e-05)
(-0.000377326 -0.000153571 -4.8914e-05)
(-0.000523358 -0.000185211 -3.1535e-05)
(-0.000636401 -0.000197259 -9.08908e-06)
(-0.000733057 -0.000202272 1.21879e-05)
(-0.000825778 -0.000206859 3.08665e-05)
(-0.000894627 -0.000207831 4.57457e-05)
(-0.000955256 -0.000209686 5.70388e-05)
(-0.0010068 -0.000212123 6.48358e-05)
(-0.00105448 -0.000216213 6.92346e-05)
(-0.00109532 -0.000220842 6.91476e-05)
(-0.0011316 -0.000225692 6.37647e-05)
(-0.00116538 -0.000230253 5.26087e-05)
(-0.00119364 -0.000234004 3.52711e-05)
(-0.00120651 -0.000236161 1.23538e-05)
(3.91251e-05 1.4463e-05 2.69462e-05)
(9.20946e-05 1.91129e-05 -1.25949e-05)
(0.000111936 9.79594e-06 -2.71285e-05)
(0.000112362 -7.08137e-06 -3.20057e-05)
(8.20381e-05 -2.17965e-05 -2.37677e-05)
(5.40912e-05 -3.00368e-05 -1.26619e-05)
(1.64052e-05 -1.82244e-05 -1.50915e-06)
(-4.42955e-06 -1.34369e-05 -3.89392e-06)
(-4.01878e-05 -2.35218e-05 -2.04818e-05)
(-8.19124e-05 -3.86131e-05 -2.73858e-05)
(-0.000241862 -9.99102e-05 -4.8395e-05)
(-0.000377755 -0.000137272 -4.16492e-05)
(-0.000505738 -0.000159516 -2.47754e-05)
(-0.000610455 -0.000169667 -4.91927e-06)
(-0.000684666 -0.000170977 1.38861e-05)
(-0.00076207 -0.000174369 3.02904e-05)
(-0.000826613 -0.000176967 4.33752e-05)
(-0.000883792 -0.000180186 5.32676e-05)
(-0.000926996 -0.000183157 5.91598e-05)
(-0.000963558 -0.00018686 6.04642e-05)
(-0.000995665 -0.000190896 5.64268e-05)
(-0.00102553 -0.000194665 4.67943e-05)
(-0.00105046 -0.000197681 3.15029e-05)
(-0.00106143 -0.000199447 1.10797e-05)
(4.46535e-05 1.47181e-05 2.94674e-05)
(0.000102516 2.15317e-05 -1.04508e-05)
(0.000128977 1.50231e-05 -2.82096e-05)
(0.000133842 -1.31055e-06 -3.62423e-05)
(0.000121399 -2.11031e-05 -3.52138e-05)
(8.20056e-05 -3.21813e-05 -2.2326e-05)
(4.26011e-05 -3.14166e-05 -7.24496e-06)
(1.18654e-05 -1.84952e-05 1.57209e-06)
(-1.4354e-05 -1.85436e-05 -6.19132e-06)
(-5.31272e-05 -2.64884e-05 -2.32679e-05)
(-9.08121e-05 -3.86561e-05 -2.63454e-05)
(-0.000260698 -9.65897e-05 -4.54043e-05)
(-0.000372084 -0.000121431 -3.5349e-05)
(-0.000466372 -0.000133719 -1.83736e-05)
(-0.000566046 -0.000144181 -6.12813e-07)
(-0.00063065 -0.000146053 1.61655e-05)
(-0.000686462 -0.000147634 3.00418e-05)
(-0.000730241 -0.000148742 4.05927e-05)
(-0.000771079 -0.000151672 4.78736e-05)
(-0.000803585 -0.000155008 5.04873e-05)
(-0.000830976 -0.000158535 4.78246e-05)
(-0.00085679 -0.000161847 3.99221e-05)
(-0.000878792 -0.000164472 2.70348e-05)
(-0.000887494 -0.000165896 9.55301e-06)
(4.89214e-05 1.50805e-05 3.30856e-05)
(0.000101324 2.19013e-05 -7.39173e-06)
(0.000130134 1.90426e-05 -2.65773e-05)
(0.000142861 5.99603e-06 -3.7754e-05)
(0.000136975 -1.33705e-05 -4.00135e-05)
(0.000116936 -3.20427e-05 -3.40656e-05)
(7.10708e-05 -3.64827e-05 -1.73263e-05)
(3.56481e-05 -3.27917e-05 -3.12063e-06)
(1.1913e-05 -3.01518e-05 4.73035e-06)
(-1.51534e-05 -1.15901e-05 -6.86241e-06)
(-7.82193e-05 -3.69595e-05 -3.2394e-05)
(-7.50153e-05 -2.86708e-05 -1.96516e-05)
(-0.00023069 -7.95237e-05 -3.66013e-05)
(-0.000342698 -0.000103235 -2.78787e-05)
(-0.000403077 -0.000108327 -1.19414e-05)
(-0.000481279 -0.000116522 3.62613e-06)
(-0.000543148 -0.000121437 1.78141e-05)
(-0.00059732 -0.000125673 2.98288e-05)
(-0.000632269 -0.000128311 3.81204e-05)
(-0.000659375 -0.000131371 4.18063e-05)
(-0.000682052 -0.000134628 4.03157e-05)
(-0.000703404 -0.000137646 3.38715e-05)
(-0.000721593 -0.00013992 2.30572e-05)
(-0.000728433 -0.000141123 8.19451e-06)
(4.96404e-05 1.44074e-05 3.54847e-05)
(9.61377e-05 2.1254e-05 -4.29626e-06)
(0.000124747 2.08604e-05 -2.33798e-05)
(0.000137808 1.15452e-05 -3.51475e-05)
(0.000139711 -4.67697e-06 -4.06045e-05)
(0.000127349 -2.32452e-05 -3.81431e-05)
(0.000106654 -3.91317e-05 -2.97354e-05)
(5.87898e-05 -3.63342e-05 -1.2282e-05)
(2.31184e-05 -2.43286e-05 -9.08256e-07)
(5.9401e-06 -2.83547e-05 -6.45922e-07)
(-2.82431e-05 -1.87027e-05 -1.61716e-05)
(-8.21215e-05 -3.66904e-05 -3.26062e-05)
(-0.000115102 -4.20116e-05 -2.81864e-05)
(-0.000185042 -5.97081e-05 -2.62156e-05)
(-0.000298608 -8.486e-05 -2.05992e-05)
(-0.000350243 -9.07208e-05 -6.40118e-06)
(-0.000393147 -9.46574e-05 6.86515e-06)
(-0.000424744 -9.66416e-05 1.79691e-05)
(-0.000456553 -0.000100153 2.65902e-05)
(-0.000478917 -0.00010346 3.09563e-05)
(-0.00049627 -0.000106548 3.0581e-05)
(-0.000513171 -0.000109647 2.59566e-05)
(-0.000528226 -0.000111868 1.78311e-05)
(-0.000532449 -0.000112601 6.37461e-06)
(4.96452e-05 1.42147e-05 3.88901e-05)
(8.80818e-05 2.05338e-05 -1.91045e-06)
(0.000115359 2.1686e-05 -2.01501e-05)
(0.000128375 1.47458e-05 -3.13946e-05)
(0.000131661 2.12841e-06 -3.7531e-05)
(0.000127964 -1.43285e-05 -3.85478e-05)
(0.000113503 -3.02572e-05 -3.31506e-05)
(9.64033e-05 -4.29919e-05 -2.51979e-05)
(4.98716e-05 -3.44575e-05 -1.06394e-05)
(3.14719e-05 -3.8871e-05 -4.94655e-06)
(-1.00575e-06 -1.4417e-05 -5.9509e-06)
(-3.76814e-05 -2.30042e-05 -2.5646e-05)
(-8.23306e-05 -3.48564e-05 -3.27349e-05)
(-0.000102475 -3.6917e-05 -2.38706e-05)
(-8.91448e-05 -2.70535e-05 -1.14297e-05)
(-0.000195908 -5.54271e-05 -1.1108e-05)
(-0.00026011 -6.78343e-05 -1.25836e-06)
(-0.000306005 -7.60844e-05 9.42209e-06)
(-0.000331402 -8.03676e-05 1.8232e-05)
(-0.000347323 -8.31978e-05 2.30944e-05)
(-0.000360388 -8.65911e-05 2.35198e-05)
(-0.0003706 -8.88728e-05 2.01279e-05)
(-0.000381745 -9.08947e-05 1.39042e-05)
(-0.000386626 -9.17128e-05 5.02305e-06)
(4.80983e-05 1.51596e-05 4.29052e-05)
(7.87439e-05 2.07455e-05 -8.5824e-07)
(0.000101877 2.21062e-05 -1.73696e-05)
(0.000113214 1.6567e-05 -2.67088e-05)
(0.000117863 6.37456e-06 -3.24925e-05)
(0.000117393 -7.04748e-06 -3.47958e-05)
(0.000113531 -2.26104e-05 -3.33419e-05)
(0.000101623 -3.53158e-05 -2.76914e-05)
(8.98686e-05 -4.53622e-05 -2.25973e-05)
(4.5119e-05 -3.32104e-05 -1.1296e-05)
(1.96656e-05 -2.75824e-05 -9.90816e-06)
(-4.96876e-06 -1.36357e-05 -1.31456e-05)
(-2.88348e-05 -1.74615e-05 -2.14448e-05)
(-7.23876e-05 -3.17457e-05 -3.03986e-05)
(-9.95167e-05 -3.8543e-05 -2.38313e-05)
(-6.40323e-05 -2.17907e-05 -7.81349e-06)
(-7.2857e-05 -2.27054e-05 -3.09273e-06)
(-9.76863e-05 -2.71121e-05 1.12425e-06)
(-0.000121671 -3.47068e-05 5.80619e-06)
(-0.000138336 -3.86585e-05 9.36065e-06)
(-0.000143048 -4.15027e-05 1.01079e-05)
(-0.000161887 -4.52138e-05 9.65441e-06)
(-0.000170696 -4.7507e-05 6.74531e-06)
(-0.000162771 -4.61463e-05 2.28216e-06)
(4.4262e-05 1.71975e-05 4.66814e-05)
(6.47762e-05 2.05478e-05 -7.84739e-07)
(8.21711e-05 2.12122e-05 -1.42099e-05)
(9.14799e-05 1.66097e-05 -2.07755e-05)
(9.68397e-05 8.60187e-06 -2.52034e-05)
(9.99433e-05 -2.44335e-06 -2.81077e-05)
(0.000101119 -1.59905e-05 -2.84832e-05)
(0.000102463 -2.98078e-05 -2.72127e-05)
(9.43035e-05 -3.83676e-05 -2.39809e-05)
(8.32457e-05 -4.52585e-05 -2.26022e-05)
(3.90305e-05 -3.06663e-05 -1.45101e-05)
(9.39555e-06 -1.45641e-05 -1.04408e-05)
(-7.87161e-06 -1.44969e-05 -2.27815e-05)
(-2.57002e-05 -1.64913e-05 -2.46586e-05)
(-4.15041e-05 -2.16298e-05 -2.08786e-05)
(-3.83041e-05 -1.69232e-05 -1.02777e-05)
(-6.87151e-05 -2.87484e-05 -8.85429e-06)
(-0.000106933 -4.15261e-05 -3.46423e-06)
(-8.97448e-05 -3.38276e-05 2.80631e-06)
(-5.67399e-05 -2.21898e-05 3.76819e-06)
(-9.99156e-05 -3.91396e-05 7.83218e-06)
(-0.000129665 -5.14973e-05 8.55572e-06)
(-0.00013406 -5.25796e-05 5.9089e-06)
(-6.03005e-05 -2.45337e-05 9.42468e-07)
(3.81197e-05 1.95641e-05 4.89252e-05)
(5.16161e-05 2.05763e-05 -1.31613e-06)
(6.05451e-05 1.89436e-05 -1.12468e-05)
(6.55985e-05 1.43932e-05 -1.46162e-05)
(7.04848e-05 8.18761e-06 -1.70744e-05)
(7.59573e-05 -7.03693e-07 -1.9377e-05)
(8.3447e-05 -1.23811e-05 -2.10831e-05)
(9.07401e-05 -2.42393e-05 -2.18341e-05)
(9.67676e-05 -3.46057e-05 -2.30172e-05)
(8.84935e-05 -3.93903e-05 -2.3015e-05)
(7.47192e-05 -4.30771e-05 -2.53275e-05)
(3.38249e-05 -2.84811e-05 -2.01027e-05)
(9.76449e-06 -1.70806e-05 -2.01881e-05)
(-3.63386e-06 -1.08589e-05 -2.25028e-05)
(-1.86434e-05 -1.60177e-05 -2.88578e-05)
(-3.40462e-05 -2.18946e-05 -2.58359e-05)
(-2.43757e-05 -1.40027e-05 -9.79883e-06)
(-4.40365e-05 -2.57619e-05 -7.42903e-06)
(-6.17357e-05 -3.29275e-05 -1.49979e-06)
(-4.98196e-05 -2.93419e-05 2.74797e-06)
(-6.58124e-05 -3.74752e-05 5.84551e-06)
(-3.09475e-05 -1.92662e-05 2.35832e-06)
(-3.2022e-05 -1.9678e-05 1.72393e-06)
(-5.97322e-05 -3.65874e-05 1.22396e-06)
(3.06224e-05 2.15341e-05 4.89208e-05)
(4.06103e-05 2.09029e-05 -2.33283e-06)
(4.33458e-05 1.66317e-05 -9.75537e-06)
(4.40621e-05 1.12959e-05 -1.06703e-05)
(4.63583e-05 5.70152e-06 -1.10879e-05)
(5.29066e-05 -1.87171e-06 -1.21219e-05)
(6.37278e-05 -1.18386e-05 -1.33798e-05)
(7.75547e-05 -2.19377e-05 -1.54579e-05)
(8.66328e-05 -2.99115e-05 -1.79671e-05)
(9.15056e-05 -3.69075e-05 -2.15775e-05)
(8.16526e-05 -3.91283e-05 -2.45526e-05)
(6.6376e-05 -4.02649e-05 -3.04104e-05)
(3.13004e-05 -2.68279e-05 -2.79447e-05)
(1.11109e-05 -1.66795e-05 -2.729e-05)
(4.43837e-07 -1.087e-05 -2.51347e-05)
(-7.86888e-06 -1.73542e-05 -3.82313e-05)
(-7.07629e-06 -9.7374e-06 -1.48706e-05)
(-1.3623e-05 -1.58832e-05 -1.40685e-05)
(-9.87216e-06 -1.22682e-05 -4.90243e-06)
(-1.79371e-05 -2.26554e-05 -3.0555e-06)
(-9.32813e-06 -1.36572e-05 -1.55224e-07)
(-1.96214e-05 -2.92778e-05 8.58162e-07)
(-1.32375e-05 -1.95006e-05 5.09433e-07)
(-1.05485e-05 -1.4414e-05 2.59302e-07)
(2.29961e-05 2.2589e-05 4.62554e-05)
(3.04428e-05 2.04123e-05 -3.85872e-06)
(3.15205e-05 1.47322e-05 -9.81924e-06)
(3.15677e-05 8.90096e-06 -9.84916e-06)
(3.27861e-05 2.60512e-06 -9.14589e-06)
(3.95225e-05 -5.57267e-06 -8.78391e-06)
(5.20209e-05 -1.51227e-05 -8.73539e-06)
(6.54692e-05 -2.29686e-05 -9.89602e-06)
(7.81641e-05 -2.92842e-05 -1.3162e-05)
(8.33901e-05 -3.36361e-05 -1.70957e-05)
(8.48541e-05 -3.7836e-05 -2.2556e-05)
(7.49525e-05 -3.84115e-05 -2.88348e-05)
(6.03842e-05 -3.79603e-05 -3.84287e-05)
(3.43605e-05 -2.82319e-05 -3.99367e-05)
(1.26468e-05 -1.56172e-05 -2.94613e-05)
(5.28959e-06 -1.12897e-05 -2.54626e-05)