/*--------------------------------*- C++ -*----------------------------------*\
  =========                 |
  \\      /  F ield         | OpenFOAM: The Open Source CFD Toolbox
   \\    /   O peration     | Website:  https://openfoam.org
    \\  /    A nd           | Version:  6
     \\/     M anipulation  |
\*---------------------------------------------------------------------------*/
FoamFile
{
    version     2.0;
    format      ascii;
    class       volScalarField;
    location    "44";
    object      yPlus;
}
// * * * * * * * * * * * * * * * * * * * * * * * * * * * * * * * * * * * * * //

dimensions      [0 0 0 0 0 0 0];

internalField   uniform 0;

boundaryField
{
    inlet
    {
        type            calculated;
        value           uniform 0;
    }
    outlet
    {
        type            calculated;
        value           uniform 0;
    }
    roughCylinder
    {
        type            calculated;
        value           nonuniform List<scalar> 
3840
(
71.5866
50.2906
53.6885
62.0064
68.4266
73.537
77.653
81.1149
84.173
86.9535
89.5824
92.1028
94.6147
97.2137
99.9563
102.863
105.949
109.193
112.563
115.991
119.373
122.535
125.164
126.769
72.2882
50.1152
52.2462
60.3295
66.6913
71.79
75.8865
79.3323
82.3643
85.12
87.6578
90.0988
92.528
95.0272
97.6636
100.477
103.456
106.591
109.843
113.155
116.422
119.477
122.019
123.568
70.6054
49.4464
50.8296
58.6505
64.949
69.9971
74.1122
77.5823
80.6162
83.2849
85.7778
88.1396
90.4742
92.8871
95.4365
98.1362
101.008
104.029
107.169
110.366
113.519
116.47
118.923
120.418
71.2678
49.2472
49.3209
56.8975
63.1539
68.2445
72.3767
75.8456
78.8425
81.5242
83.9348
86.2233
88.4886
90.8088
93.2523
95.8689
98.6403
101.558
104.586
107.669
110.712
113.56
115.927
117.369
70.9898
48.9885
47.9301
55.1527
61.3891
66.4336
70.6049
74.1202
77.1606
79.7588
82.1444
84.3742
86.5518
88.7969
91.1712
93.6778
96.3477
99.1575
102.081
105.057
107.993
110.741
113.027
114.416
60.3341
47.6109
46.3349
53.2972
59.4945
64.6467
68.8744
72.4109
75.3972
78.0588
80.3872
82.5559
84.6869
86.8529
89.1229
91.5637
94.1456
96.8646
99.6827
102.553
105.385
108.037
110.243
111.581
75.0219
47.7075
44.9401
51.4248
57.6741
62.7744
67.0525
70.6493
73.7497
76.3264
78.6625
80.8056
82.8597
84.9651
87.1911
89.5247
92.0123
94.6286
97.3525
100.123
102.857
105.417
107.546
108.836
64.5467
46.2515
43.2445
49.3857
55.5665
60.8682
65.2572
68.9232
71.9408
74.6394
76.9506
79.0529
81.0951
83.1414
85.2621
87.5516
89.9657
92.5056
95.1316
97.8046
100.442
102.912
104.967
106.208
65.2306
46.5301
41.69
47.2211
53.5931
58.8371
63.2991
67.035
70.2798
72.8938
75.2384
77.3609
79.3415
81.3457
83.458
85.6422
87.9679
90.4084
92.9497
95.5314
98.0773
100.463
102.447
103.642
56.6703
44.758
39.9122
44.8475
51.0412
56.6495
61.3163
65.2266
68.3412
71.1576
73.5198
75.6114
77.6233
79.5958
81.5975
83.7659
86.0364
88.4173
90.8669
93.357
95.8123
98.1136
100.028
101.176
57.6874
44.6462
38.0634
42.0354
48.7007
54.2624
59.0743
63.0603
66.5943
69.3312
71.7566
73.9284
75.8845
77.8309
79.8723
81.933
84.1171
86.3986
88.7728
91.1779
93.5471
95.7686
97.6163
98.7189
62.1747
43.7614
35.9627
39.0362
45.211
51.4827
56.6789
61.0701
64.3905
67.4534
69.9646
72.1123
74.1573
76.1056
78.0177
80.0974
82.2498
84.4915
86.7782
89.0959
91.3785
93.5187
95.2974
96.3546
57.9618
42.1316
33.383
34.6122
42.0154
48.279
53.8601
58.3373
62.4448
65.4446
68.0586
70.3775
72.3712
74.3096
76.3308
78.2941
80.3566
82.4943
84.7152
86.9542
89.1543
91.2183
92.9336
93.9458
55.2803
40.6305
30.5266
30.3881
36.1213
44.1901
50.5612
55.9921
59.7303
63.2793
66.0972
68.3958
70.5627
72.5514
74.406
76.4378
78.5023
80.6275
82.764
84.9184
87.0342
89.0176
90.665
91.6323
50.4893
39.4849
27.4677
20.3579
30.9115
38.7735
46.4374
52.0431
57.3903
60.9157
63.9049
66.5227
68.6384
70.6346
72.7065
74.602
76.5652
78.5724
80.6544
82.7359
84.7718
86.6813
88.2675
89.1896
32.177
33.362
23.3808
13.9741
9.79531
30.3442
40.6628
48.9436
53.6144
58.2047
61.6218
64.2203
66.6434
68.7636
70.5951
72.6343
74.6483
76.6874
78.6841
80.6812
82.6333
84.4618
85.9779
86.8548
3.84441
12.7371
7.78548
16.2427
4.53511
17.8751
33.0015
41.9053
50.515
55.1308
58.8843
62.0785
64.4425
66.5857
68.816
70.6772
72.5659
74.4505
76.4091
78.3382
80.2104
81.9656
83.4229
84.2517
5.38137
11.8769
14.2748
16.3763
17.6281
7.63047
23.7726
36.4718
43.9771
51.3336
55.9977
59.1723
62.0863
64.4857
66.3277
68.4568
70.4719
72.4694
74.3333
76.1747
77.9603
79.6305
81.0126
81.795
6.85553
12.0097
15.7391
9.99366
19.0489
19.2927
19.5969
10.9257
39.2955
46.5579
52.1594
56.5387
59.376
61.8039
64.3803
66.2451
68.0872
69.8464
71.6994
73.4774
75.1801
76.7748
78.0996
78.8285
5.82454
12.2689
16.0199
20.1557
3.08288
21.5882
10.4401
11.5442
20.4424
40.4073
47.9436
52.3909
56.3191
59.2865
61.1655
63.5295
65.6299
67.663
69.3972
71.0784
72.6872
74.1889
75.4279
76.1075
11.4337
20.5376
23.0018
18.5657
10.6337
12.5251
18.106
22.7147
23.1695
28.392
41.6295
48.828
52.6139
55.6068
58.9337
60.8511
62.6833
64.2886
66.0602
67.6844
69.2023
70.6234
71.8081
72.4242
11.5753
21.843
26.6136
29.1987
24.4333
21.6883
1.75334
11.4342
14.9166
14.2523
32.7654
41.4602
48.0487
52.3182
54.2244
57.151
59.5089
61.7477
63.3602
64.8684
66.2812
67.5956
68.6755
69.2378
11.652
22.1986
27.9559
31.0645
32.0022
25.6811
18.4128
7.71169
18.8242
16.6414
14.8838
35.7281
42.1045
46.3557
51.5841
53.6163
55.4981
56.8594
58.5922
60.0635
61.3692
62.5974
63.6328
64.1132
11.8439
20.4049
26.8082
31.3978
33.2901
32.9725
24.0018
18.1553
23.9149
9.00107
23.4537
10.7445
32.314
41.4176
43.1175
47.6807
50.8384
53.7136
55.2474
56.5617
57.7497
58.8468
59.7478
60.1729
11.1605
18.5772
25.0336
29.7327
32.8036
33.478
32.7786
21.5824
13.3851
28.4648
18.9697
23.6486
20.8262
27.4717
40.2266
42.3362
44.1655
45.1418
46.9946
48.3473
49.4044
50.4366
51.3288
51.6063
8.67207
16.7655
23.0902
27.7901
30.9576
32.7893
32.2544
31.8134
20.0083
27.0261
16.5051
24.5771
25.0955
20.7541
13.2083
29.284
36.5726
41.1286
42.7224
43.8439
44.7415
45.4885
46.1999
46.5923
7.44095
15.3415
20.9667
25.1893
28.3647
30.3247
31.3646
30.3262
31.3532
20.4757
22.5991
17.3428
17.569
25.8925
25.263
4.72354
9.034
14.8714
18.4564
20.7467
21.2719
24.0439
25.0871
23.4919
5.05312
13.4573
17.9949
21.5363
24.439
26.7079
27.9353
29.3011
29.053
31.5858
21.1509
13.0118
22.9503
19.5604
18.2987
9.12778
19.1143
28.2597
21.2832
8.36352
22.9941
30.7739
31.0712
11.3551
4.97509
12.2344
14.7423
16.8766
19.1713
21.4353
23.6564
25.4127
28.2841
29.0821
32.1148
22.2399
18.5934
16.7087
22.7551
26.5429
12.561
20.9141
28.9966
21.6515
30.2379
11.5641
7.82747
25.0825
3.8903
11.7897
12.5011
13.0684
14.1784
16.2727
18.8423
22.0107
24.5933
28.3476
29.7596
32.5243
23.5317
18.2737
14.7972
27.2841
8.38556
19.0063
2.84356
24.4392
3.28979
30.7381
17.188
12.2606
3.30445
11.5268
11.6811
11.8928
12.3584
14.0935
16.7207
19.2607
22.5279
25.0839
28.8455
30.5748
32.6564
26.2034
14.8527
7.3831
18.4181
14.0298
27.7744
28.0213
28.1759
11.3777
24.2706
12.4402
3.01901
11.5225
11.6269
11.7529
12.3729
14.6004
17.0137
19.2889
21.133
23.8193
26.0159
29.4585
31.3061
32.4774
29.9084
19.4937
30.6279
21.4008
18.0095
20.9362
29.3137
32.3996
11.7091
30.4715
1.98581
9.46108
11.5506
11.7063
12.6556
15.4396
18.0131
19.9569
21.7906
23.0976
25.1004
26.9691
29.9859
31.8403
32.3031
32.1692
28.58
22.7852
17.1375
13.5755
14.0591
13.1382
11.6992
12.5063
2.38952
10.1048
11.3795
11.8929
14.1943
17.1662
19.4598
21.2872
22.6375
23.9825
24.8219
26.2126
27.8404
30.2243
32.1958
31.9836
31.2153
30.8458
30.4999
30.2647
29.8305
29.6039
29.5683
29.6924
3.30929
11.4133
11.808
13.2668
16.3579
19.0101
21.0995
22.7332
24.119
25.0373
25.8671
26.2802
27.1508
28.5562
30.2735
31.6987
31.4706
30.4265
28.807
27.1129
25.6832
24.8008
24.5961
24.7806
3.50456
11.3784
12.921
15.9063
18.7022
21.0096
22.8797
24.4303
25.644
26.6367
27.1443
27.4747
27.5278
27.9335
29.0523
29.9984
30.2649
29.8845
28.8941
27.6329
26.4076
25.7517
25.7679
26.039
3.94143
12.0021
15.5887
18.4077
20.8177
22.8952
24.6636
26.1559
27.4157
28.2978
28.8761
28.978
28.8519
28.6145
28.6129
29.1204
29.3004
28.7876
27.4099
25.4751
23.6255
22.6341
22.6893
23.1721
5.80366
14.9008
18.0931
20.5792
22.7871
24.7438
26.4574
27.9586
29.2027
30.1683
30.6982
30.8591
30.5794
30.0482
29.53
29.1205
28.7981
28.2094
27.0425
25.4353
23.886
23.1519
23.4364
24.0459
7.93836
16.9507
20.0577
22.418
24.5445
26.4728
28.2086
29.7525
31.0763
32.0627
32.6888
32.8563
32.6091
31.9752
31.0868
30.203
29.3307
28.3249
26.9069
25.0727
23.3164
22.4807
22.8419
23.5887
10.3492
18.8095
21.7489
24.065
26.1969
28.1503
29.9413
31.562
32.9445
34.0255
34.7041
34.9746
34.7741
34.1297
33.1357
31.8976
30.5703
29.1673
27.5694
25.7834
24.2023
23.5545
24.0449
24.8511
11.5254
13.1462
15.1181
16.4326
17.374
17.7355
17.7089
17.289
16.6749
15.896
15.0976
14.2817
13.5323
12.8477
12.2695
11.8163
11.6381
11.4617
11.0994
10.8998
10.8984
11.0929
11.4349
11.5587
11.805
12.2582
12.8336
13.5152
14.2613
15.0737
15.8682
16.6439
17.2546
17.6729
17.6978
17.338
16.397
15.0907
13.1059
11.5426
20.0596
20.8642
21.4504
21.7403
21.9255
21.9319
21.9052
21.7905
21.6806
21.5376
21.4157
21.2862
21.1744
21.0667
20.9755
20.8951
20.8298
20.779
20.7452
20.7266
20.7261
20.7439
20.7766
20.8265
20.8911
20.9707
21.0611
21.168
21.279
21.4078
21.5286
21.6709
21.7796
21.8935
21.9189
21.912
21.7255
21.4364
20.8469
20.0483
22.8639
23.3885
23.7941
24.0233
24.2085
24.2887
24.3551
24.3608
24.3592
24.3239
24.2884
24.2422
24.2
24.1572
24.1197
24.0873
24.0602
24.0398
24.0249
24.0158
24.0153
24.0234
24.0374
24.0568
24.0831
24.1146
24.1513
24.1934
24.2348
24.2803
24.3151
24.3499
24.3509
24.3448
24.2779
24.1973
24.0117
23.7822
23.3757
22.8514
25.1692
25.6401
26.0655
26.3338
26.5747
26.7221
26.8566
26.9432
27.0237
27.0768
27.1258
27.1624
27.1975
27.2277
27.2554
27.2803
27.3006
27.3167
27.3265
27.3297
27.3291
27.325
27.3142
27.2972
27.2759
27.2502
27.2217
27.1907
27.1548
27.1174
27.0678
27.014
26.9329
26.8459
26.7109
26.5631
26.3219
26.0533
25.6273
25.1565
27.3204
27.7647
28.2176
28.5138
28.8132
29.0267
29.241
29.4077
29.5748
29.7149
29.8522
29.9749
30.0927
30.2004
30.2989
30.3859
30.4584
30.5148
30.5518
30.5679
30.5674
30.5502
30.5122
30.455
30.3814
30.2935
30.1942
30.0858
29.9671
29.8437
29.7057
29.5649
29.3973
29.23
29.0152
28.8012
28.5015
28.2049
27.7516
27.3071
29.3179
29.7505
30.2507
30.5893
30.9595
31.2392
31.5335
31.7785
32.0286
32.2513
32.4718
32.6753
32.8705
33.0504
33.2148
33.359
33.4795
33.5723
33.6337
33.6611
33.6605
33.6321
33.5696
33.4759
33.3545
33.2095
33.0442
32.8636
32.6676
32.4633
32.2422
32.0187
31.768
31.5226
31.2278
30.9475
30.5769
30.2379
29.7374
29.3043
31.1772
31.6105
32.1692
32.5454
32.9796
33.3169
33.6792
33.9911
34.3108
34.603
34.8924
35.1626
35.4213
35.6599
35.8773
36.0673
36.2255
36.3466
36.4265
36.4619
36.4613
36.425
36.3441
36.2221
36.063
35.8721
35.6539
35.4145
35.155
34.884
34.594
34.3012
33.9808
33.6683
33.3057
32.9678
32.5332
32.1566
31.5976
31.1639
32.8674
33.3029
33.9092
34.316
34.7996
35.1833
35.5977
35.9625
36.3356
36.6817
37.0233
37.3441
37.6501
37.9322
38.188
38.411
38.5959
38.7369
38.8295
38.8701
38.8696
38.828
38.7345
38.5926
38.4069
38.1831
37.9264
37.6435
37.3368
37.0152
36.673
36.3263
35.9526
35.5872
35.1723
34.7883
34.3043
33.8971
33.2905
32.8548
34.3235
34.7482
35.3988
35.8254
36.3489
36.7672
37.222
37.6267
38.0403
38.4262
38.806
39.1633
39.5026
39.8146
40.0967
40.3414
40.5437
40.6974
40.798
40.8421
40.8416
40.7966
40.6952
40.5406
40.3376
40.092
39.8092
39.4964
39.1564
38.7985
38.4179
38.0313
37.6172
37.212
36.7568
36.3381
35.8143
35.3872
34.7366
34.3114
35.4541
35.8844
36.5672
37.0176
37.5726
38.0225
38.5098
38.9478
39.3933
39.8106
40.2192
40.6033
40.9663
41.2992
41.5985
41.8573
42.0703
42.2317
42.3371
42.3831
42.3826
42.3358
42.2296
42.0675
41.8537
41.5942
41.2941
40.9606
40.5969
40.2121
39.8028
39.3849
38.939
38.5004
38.0128
37.5625
37.0072
36.5565
35.8737
35.4431
36.2191
36.6498
37.3806
37.8543
38.4469
38.9278
39.4485
39.9177
40.3928
40.8377
41.2711
41.6773
42.0591
42.4077
42.7197
42.9884
43.2086
43.3751
43.4835
43.531
43.5306
43.4824
43.3732
43.2061
42.9851
42.7158
42.4031
42.0539
41.6714
41.2646
40.8307
40.3852
39.9096
39.4399
38.9189
38.4376
37.845
37.3709
36.6403
36.2093
36.5594
37.0284
37.8083
38.3241
38.9582
39.4787
40.0358
40.5394
41.0451
41.5178
41.9751
42.4021
42.8009
43.1634
43.486
43.7628
43.9888
44.1592
44.2703
44.3192
44.3188
44.2693
44.1576
43.9866
43.7599
43.4826
43.1592
42.7962
42.3968
41.9693
41.5115
41.0383
40.5321
40.0282
39.4707
38.9499
38.3159
37.7999
37.0201
36.5514
36.456
36.9826
37.8328
38.4047
39.0916
39.6606
40.2604
40.8031
41.3426
41.8451
42.3275
42.7757
43.1915
43.5675
43.9005
44.185
44.4165
44.5909
44.7046
44.755
44.7547
44.7036
44.5895
44.4146
44.1826
43.8975
43.564
43.1875
42.7711
42.3226
41.8397
41.3366
40.7968
40.2537
39.6538
39.0845
38.3978
37.8257
36.9761
36.4496
35.8791
36.4724
37.4117
38.0583
38.81
39.437
40.0867
40.674
41.2514
41.7869
42.2967
42.7675
43.2017
43.5922
43.9363
44.229
44.4666
44.6453
44.7619
44.8143
44.8141
44.7612
44.6442
44.4651
44.227
43.9338
43.5893
43.1983
42.7638
42.2925
41.7824
41.2465
40.6688
40.0813
39.4314
38.8045
38.0528
37.4066
36.4676
35.8748
34.8444
35.4873
36.4908
37.23
38.0547
38.7509
39.4553
40.0934
40.7126
41.285
41.8251
42.3216
42.7764
43.1834
43.5405
43.8433
44.0884
44.2725
44.3929
44.4477
44.4475
44.3923
44.2716
44.0872
43.8418
43.5387
43.1814
42.7739
42.3188
41.822
41.2816
40.709
40.0896
39.4513
38.7468
38.0508
37.2265
36.4877
35.4848
34.8418
33.4615
34.0553
35.0744
35.8743
36.7689
37.5402
38.3023
38.9944
39.6578
40.2702
40.8436
41.3688
41.8472
42.2739
42.6467
42.9618
43.2164
43.4076
43.5331
43.5909
43.5908
43.5327
43.4072
43.2158
42.961
42.6457
42.2727
41.8458
41.3672
40.8418
40.2683
39.6558
38.9922
38.3002
37.5383
36.7673
35.8733
35.0739
34.0547
33.461
31.849
32.2851
33.2331
34.027
34.9498
35.7765
36.5935
37.3344
38.0399
38.6907
39.2974
39.8522
40.356
40.8042
41.1949
41.5247
41.7909
41.9908
42.1224
42.184
42.1839
42.1223
41.9908
41.7909
41.5247
41.1949
40.8042
40.3559
39.8521
39.2973
38.6906
38.0397
37.3345
36.5938
35.7773
34.9513
34.0289
33.2351
32.2869
31.849
30.0996
30.3077
31.1006
31.8096
32.6964
33.5274
34.3696
35.1446
35.8794
36.5591
37.1925
37.7723
38.2985
38.7669
39.175
39.5195
39.7978
40.007
40.1451
40.2107
40.2107
40.1453
40.0075
39.7985
39.5206
39.1764
38.7684
38.3001
37.774
37.1944
36.5612
35.8817
35.1473
34.3732
33.5316
32.7012
31.8145
31.105
30.3104
30.0985
28.2095
28.222
28.8339
29.4133
30.2118
30.994
31.817
32.5932
33.3341
34.0238
34.6689
35.262
35.8016
36.2833
36.7036
37.0591
37.3465
37.5632
37.7068
37.7758
37.776
37.7075
37.5644
37.3483
37.0614
36.7064
36.2865
35.8052
35.2659
34.6732
34.0286
33.3396
32.5995
31.8242
31.0019
30.22
29.421
28.84
28.2253
28.2074
26.2162
26.1569
26.624
27.098
27.7981
28.5106
29.2838
30.0311
30.7568
31.4368
32.0772
32.6689
33.2098
33.694
34.1178
34.4771
34.7683
34.9883
35.1346
35.2055
35.2059
35.1358
34.9904
34.7712
34.4808
34.1224
33.6992
33.2155
32.6753
32.0842
31.4446
30.7653
30.0407
29.2944
28.5219
27.8093
27.1085
26.6322
26.1619
26.2147
24.5054
24.5037
24.8887
25.3274
25.955
26.6151
27.3333
28.0385
28.7281
29.3821
30.0019
30.5778
31.1061
31.5806
31.9967
32.3503
32.6373
32.8544
32.999
33.0695
33.07
33.0006
32.857
32.6409
32.3549
32.0024
31.587
31.1133
30.5858
30.0106
29.3916
28.7383
28.0497
27.3453
26.6274
25.9669
25.3385
24.897
24.5092
24.5046
23.8079
23.8933
24.2409
24.6774
25.2501
25.8645
26.5193
27.1674
27.8049
28.4172
28.9998
29.5438
30.0437
30.4936
30.8889
31.225
31.4981
31.7049
31.8427
31.9098
31.9104
31.8444
31.7078
31.5022
31.2302
30.8951
30.5007
30.0516
29.5523
29.0091
28.427
27.8152
27.1783
26.5307
25.8764
25.2614
24.6883
24.249
23.8994
23.8075
24.3305
24.4384
24.7711
25.1814
25.703
26.2577
26.8434
27.4288
28.0098
28.5712
29.1069
29.6082
30.0696
30.4856
30.8512
31.1623
31.4152
31.6066
31.7341
31.796
31.7964
31.7357
31.6093
31.4189
31.1669
30.8567
30.4918
30.0767
29.6157
29.1148
28.5796
28.0183
27.4376
26.8523
26.267
25.7118
25.1904
24.7772
24.4453
24.329
25.1914
25.2886
25.6128
25.9933
26.4802
26.9911
27.5359
28.0816
28.6252
29.1509
29.6531
30.1235
30.5568
30.9475
31.2913
31.5838
31.8216
32.0016
32.1214
32.1792
32.1796
32.123
32.0043
31.8254
31.5886
31.2969
30.954
30.564
30.1312
29.6613
29.1593
28.6339
28.0903
27.5445
26.9994
26.4882
26.0005
25.6184
25.2921
25.1901
71.7315
50.5437
53.7062
62.0108
68.4323
73.5438
77.6565
81.1187
84.1785
86.9592
89.5886
92.1093
94.62
97.2196
99.9623
102.869
105.955
109.199
112.569
115.998
119.379
122.542
125.17
126.776
71.0424
49.9036
52.2382
60.3331
66.6902
71.7901
75.8904
79.3382
82.3683
85.1243
87.6621
90.1032
92.5345
95.0333
97.6699
100.483
103.462
106.597
109.85
113.162
116.428
119.485
122.025
123.575
70.8992
49.7173
50.8424
58.6556
64.9568
70.0076
74.1174
77.5855
80.6219
83.2913
85.7849
88.1472
90.4795
92.8933
95.4427
98.143
101.014
104.035
107.176
110.372
113.526
116.477
118.931
120.426
70.0113
48.9817
49.3375
56.9051
63.1547
68.2414
72.379
75.8526
78.8471
81.5285
83.9389
86.2271
88.4957
90.8151
93.2589
95.8756
98.6473
101.566
104.593
107.677
110.719
113.567
115.935
117.376
69.9318
48.8875
47.9115
55.1538
61.3954
66.4481
70.613
74.1228
77.1663
79.7657
82.1523
84.3831
86.557
88.8033
91.1775
93.6842
96.3538
99.1638
102.088
105.064
108
110.748
113.035
114.424
68.0196
47.9944
46.3913
53.3088
59.4991
64.6396
68.8736
72.4189
75.4024
78.0634
80.3913
82.5589
84.6948
86.8595
89.1298
91.5708
94.1535
96.8722
99.6897
102.561
105.393
108.045
110.25
111.589
68.1574
48.0505
44.9202
51.4136
57.6706
62.791
67.064
70.651
73.7551
76.3336
78.6706
80.8159
82.8647
84.9718
87.1975
89.5311
92.0178
94.6349
97.3599
100.131
102.865
105.425
107.554
108.844
66.5509
46.9155
43.281
49.4029
55.5815
60.8578
65.2522
68.9326
71.9469
74.6442
76.9551
79.0551
81.1036
83.1484
85.2694
87.5592
89.9747
92.5137
95.1386
97.8122
100.449
102.92
104.974
106.216
57.3286
46.1241
41.724
47.2001
53.5725
58.8554
63.3155
67.0353
70.2846
72.9014
75.2466
77.3726
79.3466
81.3526
83.4645
85.6487
87.973
90.4147
92.9576
95.5394
98.0856
100.471
102.456
103.651
67.5326
45.0717
39.9027
44.875
51.0766
56.6368
61.3051
65.238
68.3491
71.1626
73.5249
75.6128
77.6322
79.6032
81.6054
83.774
86.0463
88.4265
90.8743
93.3651
95.8202
98.1221
100.036
101.184
59.3077
44.4745
37.963
41.9977
48.656
54.2855
59.1015
63.0601
66.5978
69.3396
71.7652
73.9418
75.8901
77.8379
79.8789
81.9394
84.122
86.4042
88.7811
91.1865
93.5558
95.7775
97.6251
98.728
61.0977
43.3992
35.8501
39.0486
45.2722
51.4591
56.6501
61.0811
64.4014
67.4587
69.9703
72.1125
74.1661
76.1137
78.0262
80.1062
82.2604
84.5023
86.7861
89.105
91.3873
93.5281
95.3059
96.3637
61.453
42.2269
33.3212
34.6121
41.9376
48.3309
53.9226
58.3444
62.447
65.4542
68.068
70.3939
72.3786
74.3167
76.3377
78.3008
80.3621
82.4989
84.7242
86.9633
89.164
91.2278
92.9433
93.9559
53.2939
41.1737
30.7236
30.2908
36.2765
44.1089
50.4748
55.989
59.7444
63.2851
66.1037
68.3931
70.5697
72.5605
74.4153
76.4472
78.5132
80.6409
82.7724
84.9281
87.0436
89.0281
90.6744
91.6424
51.3591
39.9916
27.6664
21.4228
30.624
38.9419
46.5883
52.0853
57.394
60.9275
63.9153
66.5456
68.6506
70.6417
72.7136
74.6095
76.5712
78.5755
80.6646
82.7459
84.7827
86.6924
88.2784
89.2007
32.4836
33.4803
23.6194
18.8613
11.2634
30.4573
40.6395
48.9063
53.6297
58.2112
61.63
64.2098
66.6448
68.7741
70.6057
72.6442
74.661
76.7044
78.6934
80.6923
82.6435
84.4736
85.9889
86.8661
14.0501
12.9725
12.163
5.24322
7.67873
8.17403
32.0978
41.8999
50.5206
55.1458
58.8967
62.1171
64.4661
66.5937
68.8232
70.686
72.5704
74.452
76.4209
78.3498
80.2234
81.9785
83.4354
84.2646
9.6875
11.9115
7.34207
16.6928
17.7134
18.9377
15.3025
36.7092
44.0199
51.3473
56.0055
59.1403
62.0739
64.4971
66.3408
68.4676
70.491
72.4909
74.344
76.1878
77.972
79.6445
81.0254
81.808
9.55703
11.6106
15.6039
10.3323
9.64161
8.06829
11.5868
11.0246
39.3341
46.5743
52.1853
56.62
59.4255
61.8151
64.3869
66.2545
68.0834
69.8461
71.7136
73.4916
75.1962
76.7907
78.1143
78.8442
5.31703
11.6849
10.6147
15.5242
14.4905
21.8478
21.5571
20.9675
19.8124
40.3638
47.9498
52.2885
56.2695
59.2966
61.1835
63.5463
65.6682
67.692
69.4104
71.0946
72.7013
74.2065
75.4443
76.1235
11.4955
20.5873
22.8067
18.491
24.1407
6.35084
18.4538
22.8583
13.9455
29.1633
41.6084
49.054
52.737
55.6279
58.9385
60.8521
62.6545
64.2819
66.078
67.7028
69.2238
70.644
71.8258
72.4438
11.9004
21.9156
26.76
29.2405
25.4348
27.4337
13.2352
10.4047
16.1895
4.027
33.3498
41.0742
47.8996
52.3204
54.252
57.1946
59.5878
61.7997
63.3776
64.8899
66.2983
67.6196
68.6981
69.2594
11.4752
22.2632
28.0606
31.2251
32.0606
26.9116
11.1508
9.47978
11.3316
21.9919
8.40827
36.6387
42.2707
46.3929
51.5833
53.5766
55.4369
56.8172
58.6168
60.0898
61.4026
62.6255
63.6572
64.1407
11.394
20.4872
26.9048
31.4916
33.4225
33.0263
24.6372
13.1182
19.0369
25.2698
14.432
26.7423
33.0938
41.4692
43.1794
47.8066
50.9208
53.8539
55.2738
56.592
57.7684
58.8853
59.779
60.1999
11.408
18.6695
25.1365
29.8507
32.9147
33.6107
32.79
21.7078
17.391
18.6577
10.7977
12.8159
10.3117
27.4984
40.1605
42.2537
44.2497
44.9419
47.0294
48.4096
49.4748
50.4796
51.3709
51.6748
8.89689
16.837
23.1634
27.873
31.0569
32.8803
32.3976
31.9635
19.6913
13.7326
10.8869
18.7983
24.5252
13.5258
14.0981
28.8127
36.2038
41.616
42.8
43.7784
44.7494
45.5683
46.3291
46.5761
7.25842
15.3504
21.0185
25.2627
28.447
30.4189
31.433
30.3741
31.5176
20.3634
27.2365
11.1378
18.1337
19.1045
25.1443
18.2637
10.5616
12.0255
18.884
22.4169
21.6302
24.1792
23.6871
23.5602
5.33595
13.5015
18.0368
21.5924
24.5108
26.7849
28.0271
29.4058
29.0808
31.658
21.459
7.65259
11.2627
13.1159
2.73859
26.8569
26.22
4.49827
6.50092
29.3881
22.9611
30.8328
24.3264
24.619
4.7853
12.1786
14.7389
16.9107
19.2263
21.5053
23.7283
25.4782
28.3918
29.18
32.1787
22.3895
25.1997
13.7584
22.8124
20.6833
12.4778
27.9899
21.2823
11.5871
30.8296
9.4291
31.1646
31.4377
3.92883
12.1509
12.5108
13.0837
14.2133
16.3248
18.9066
22.089
24.6482
28.4056
29.8224
32.5802
23.754
8.84674
16.8631
13.2495
11.4219
17.5931
24.3637
8.23122
18.1694
26.4301
3.67916
31.6329
3.31637
11.2503
11.6794
11.8966
12.378
14.1282
16.7586
19.2968
22.5897
25.1527
28.9136
30.6418
32.6774
26.7879
10.6234
20.1662
12.5841
28.0271
31.2834
31.0825
23.8117
28.9905
32.2788
20.0677
3.04343
11.2109
11.633
11.7638
12.4053
14.6356
17.0436
19.3223
21.1588
23.8525
26.0619
29.517
31.343
32.5582
30.311
19.3619
31.198
15.7935
31.0481
15.4639
12.086
17.1157
14.4237
31.2045
2.01642
9.53067
11.5311
11.6928
12.6879
15.4718
18.0387
19.9752
21.8156
23.1265
25.134
27.0105
30.0431
31.8797
32.3299
32.3263
28.9195
22.8493
18.2816
14.3662
12.7637
11.6066
12.0301
12.8799
2.40873
10.1429
11.5052
11.7044
14.2324
17.193
19.4807
21.3076
22.6523
23.9963
24.8386
26.2372
27.8673
30.2932
32.2212
31.9886
31.3472
30.9712
30.5931
30.3222
30.0816
29.7066
29.6285
29.7241
3.32742
11.4463
11.5544
13.2809
16.383
19.0312
21.1172
22.7473
24.1341
25.0521
25.8812
26.2942
27.1707
28.5809
30.314
31.763
31.4851
30.5017
28.8966
27.2353
25.7225
24.9059
24.7264
24.9026
3.51623
11.4045
12.9619
15.9366
18.7237
21.0273
22.8952
24.445
25.6557
26.6467
27.1532
27.4838
27.5378
27.9506
29.0697
30.031
30.3125
29.959
28.9908
27.7056
26.5168
25.8245
25.8229
26.102
3.95332
12.0218
15.6057
18.4234
20.8335
22.9104
24.6777
26.1682
27.4276
28.3086
28.8854
28.9854
28.8584
28.6229
28.6251
29.1408
29.33
28.838
27.4621
25.544
23.6644
22.6894
22.7523
23.227
5.81784
14.9166
18.1095
20.5953
22.8024
24.7582
26.471
27.9715
29.2138
30.1779
30.7062
30.8658
30.5848
30.0529
29.5347
29.1331
28.8146
28.2433
27.0869
25.4693
23.9277
23.1818
23.4492
24.0683
7.95468
16.9652
20.0711
22.4311
24.5581
26.4865
28.222
29.7648
31.0878
32.0732
32.6978
32.8633
32.6145
31.9791
31.0903
30.2064
29.3398
28.3424
26.9276
25.0959
23.3322
22.4978
22.861
23.6057
10.3562
18.8225
21.7623
24.0788
26.2108
28.1641
29.9547
31.5749
32.9561
34.0359
34.7131
34.982
34.7798
34.1337
33.1378
31.9001
30.5726
29.1745
27.5806
25.7921
24.211
23.5599
24.0441
24.8561
70.4762
68.7079
72.4446
60.3516
75.6449
66.0208
64.8062
59.5552
51.2953
22.9555
38.1242
32.1599
16.7221
14.9072
16.4867
15.0831
13.7754
14.1393
13.5208
13.4099
13.4066
13.5433
14.1091
13.3942
16.9459
11.1556
22.1733
16.3276
34.8171
34.5789
47.7616
53.4421
54.9423
58.266
57.6616
62.3813
65.4148
59.5032
74.238
70.8348
49.9263
47.6919
46.5039
44.5384
43.2701
40.8377
39.7508
37.4498
36.194
34.8821
34.2235
33.0983
33.2003
32.1071
31.7059
31.2353
30.9288
30.5705
30.3981
30.2731
30.2732
30.3942
30.5775
30.9545
31.0867
31.9781
31.9217
32.9877
33.4114
33.9587
34.7876
37.0744
37.8398
40.3895
40.7796
43.4589
44.4242
46.8332
47.4342
50.0876
54.2399
52.6968
52.2265
50.7626
50.198
48.8792
48.2894
47.1502
46.5532
45.5444
44.8943
44.0804
43.4664
42.9131
42.4225
41.9763
41.6335
41.3796
41.1876
41.0858
41.0855
41.1885
41.3776
41.6246
42.0053
42.3903
42.9079
43.5163
44.0606
44.9087
45.5168
46.4596
47.1028
48.2431
48.8711
50.19
50.7501
52.2338
52.6791
54.2595
62.6735
61.175
60.658
59.2183
58.5673
57.2465
56.5374
55.379
54.6733
53.7093
53.0232
52.2288
51.6381
51.0218
50.5328
50.1009
49.7582
49.4879
49.3066
49.2039
49.2037
49.3058
49.488
49.7594
50.093
50.5388
51.0222
51.6293
52.2343
53.013
53.684
54.6665
55.3797
56.5405
57.2483
58.5631
59.2152
60.6518
61.1711
62.6701
69.0793
67.5362
66.9364
65.4769
64.7555
63.4391
62.6625
61.5201
60.742
59.7844
59.05
58.2682
57.6277
57.0246
56.5163
56.0754
55.7243
55.4552
55.2683
55.1671
55.167
55.2681
55.4543
55.7223
56.0773
56.5134
57.021
57.6287
58.2654
59.043
59.7759
60.7334
61.5145
62.6586
63.4352
64.7537
65.4725
66.9354
67.5315
69.0801
74.1754
72.5904
71.9151
70.4441
69.6498
68.3428
67.4984
66.3715
65.5401
64.5911
63.8244
63.0437
62.3881
61.7735
61.2575
60.813
60.4558
60.1814
59.9943
59.8924
59.8922
59.9937
60.1809
60.4554
60.8107
61.2565
61.7723
62.3854
63.0408
63.8199
64.5853
65.5351
66.3688
67.4951
68.3405
69.646
70.4406
71.9113
72.5855
74.173
78.2443
76.6414
75.8887
74.4254
73.5661
72.2759
71.3813
70.266
69.4008
68.4541
67.669
66.8864
66.2191
65.6027
65.0794
64.6307
64.2701
63.9941
63.8046
63.7027
63.7026
63.8042
63.9933
64.2689
64.6301
65.0777
65.6005
66.2169
66.8838
67.6654
68.4502
69.3969
70.2624
71.3777
72.2725
73.5621
74.4221
75.8843
76.6383
78.2398
81.6666
80.0545
79.2434
77.7861
76.882
75.5983
74.6727
73.5584
72.6728
71.723
70.9241
70.1374
69.4604
68.8385
68.309
67.8561
67.4906
67.2107
67.019
66.9151
66.9149
67.0185
67.21
67.4898
67.8546
68.3074
68.8368
69.4582
70.1348
70.921
71.7196
72.6693
73.555
74.6692
75.5947
76.8784
77.7823
79.2392
80.0504
81.6616
84.7097
83.069
82.2271
80.7577
79.8292
78.5384
77.5932
76.4728
75.571
74.6151
73.8032
73.01
72.3231
71.6948
71.1576
70.6985
70.3276
70.043
69.8469
69.7398
69.7397
69.8465
70.0422
70.3265
70.6973
71.156
71.6929
72.3209
73.0075
73.8003
74.612
75.5677
76.4695
77.5896
78.5347
79.8254
80.7533
82.2231
83.064
84.7057
87.5272
85.83
84.9813
83.4845
82.5411
81.2357
80.2732
79.1425
78.2244
77.2591
76.4335
75.6311
74.9331
74.2962
73.7504
73.284
72.9062
72.6157
72.4147
72.3033
72.3031
72.4142
72.615
72.9052
73.2827
73.7488
74.2944
74.931
75.6287
76.4308
77.2561
78.2211
79.1392
80.2694
81.232
82.5369
83.4804
84.9768
85.8251
87.5226
90.1731
88.4376
87.5713
86.052
85.0887
83.7673
82.7857
81.6413
80.7061
79.728
78.8878
78.0737
77.3635
76.7164
76.1606
75.6858
75.3004
75.0034
74.7966
74.6802
74.68
74.7961
75.0026
75.2994
75.6845
76.1591
76.7146
77.3614
78.0714
78.8852
79.7251
80.703
81.6379
82.782
83.7635
85.0845
86.0476
87.5668
88.4323
90.1686
92.7422
90.9424
90.081
88.52
87.5497
86.2004
85.2057
84.0409
83.0906
82.0965
81.2416
80.4143
79.6912
79.0331
78.4669
77.9832
77.5898
77.286
77.0733
76.9515
76.9514
77.0728
77.2852
77.5888
77.9819
78.4653
79.0312
79.6891
80.4119
81.239
82.0936
83.0875
84.0375
85.202
86.1964
87.5455
88.5154
90.0764
90.937
92.7373
95.3102
93.4428
92.5878
90.9847
90.0053
88.6291
87.6182
86.4341
85.4662
84.4564
83.5853
82.7446
82.0079
81.3384
80.7614
80.2686
79.8672
79.5565
79.3379
79.2109
79.2107
79.3374
79.5557
79.8662
80.2673
80.7599
81.3365
82.0058
82.7422
83.5827
84.4536
85.463
86.4307
87.6144
88.6251
90.0009
90.9802
92.5827
93.4378
95.3044
97.9581
96.0296
95.1748
93.5321
92.5397
91.1365
90.1074
88.9026
87.9159
86.8889
86.0008
85.1453
84.3944
83.7126
83.1245
82.6221
82.2123
81.8946
81.6702
81.538
81.5378
81.6697
81.8939
82.2113
82.6208
83.1229
83.7108
84.3923
85.143
85.9982
86.886
87.9127
88.8991
90.1036
91.1324
92.5353
93.5274
95.1698
96.0244
97.9524
100.752
98.7575
97.9029
96.2161
95.21
93.7764
92.7274
91.4992
90.4923
89.4456
88.5393
87.6671
86.9008
86.2055
85.6053
85.0925
84.6739
84.349
84.1185
83.9812
83.981
84.118
84.3482
84.6729
85.0912
85.6037
86.2037
86.8987
87.6649
88.5366
89.4429
90.4891
91.4956
92.7237
93.7723
95.2053
96.2113
97.8976
98.7521
100.746
103.723
101.651
100.8
99.0626
98.0423
96.5734
95.5033
94.2484
93.2191
92.1508
91.2237
90.3336
89.5502
88.8399
88.2263
87.7021
87.274
86.9414
86.705
86.5623
86.5623
86.7042
86.9405
87.2732
87.7009
88.2247
88.8382
89.5476
90.331
91.2211
92.1478
93.2156
94.2449
95.4997
96.5694
98.0378
99.0575
100.795
101.645
103.717
106.867
104.719
103.865
102.077
101.037
99.5329
98.4369
97.1543
96.0993
95.0075
94.0575
93.1476
92.345
91.6185
90.9903
90.4542
90.0159
89.6749
89.4317
89.2842
89.2842
89.4313
89.6741
90.0147
90.453
90.9891
91.6168
92.3429
93.1451
94.0546
95.0046
96.0959
97.1509
98.4331
99.5289
101.032
102.072
103.86
104.714
106.861
110.173
107.945
107.086
105.245
104.183
102.641
101.517
100.204
99.1214
98.0041
97.0298
96.0982
95.2752
94.5314
93.8878
93.3386
92.8893
92.5397
92.2899
92.1372
92.1372
92.2891
92.5389
92.8881
93.3371
93.8862
94.5299
95.2732
96.0958
97.0269
98.0013
99.1181
100.2
101.513
102.637
104.178
105.241
107.08
107.94
110.167
113.602
111.295
110.426
108.534
107.446
105.866
104.711
103.368
102.255
101.111
100.11
99.1565
98.3122
97.55
96.8898
96.327
95.8662
95.5073
95.2508
95.0934
95.0934
95.2505
95.5066
95.8651
96.3255
96.8882
97.5481
98.3099
99.1542
100.108
101.109
102.251
103.364
104.707
105.862
107.441
108.529
110.421
111.29
113.596
117.092
114.706
113.826
111.882
110.766
109.149
107.962
106.587
105.444
104.273
103.245
102.268
101.401
100.62
99.9435
99.3661
98.8936
98.5256
98.2624
98.0999
98.0999
98.2617
98.5249
98.8925
99.3646
99.9416
100.618
101.399
102.265
103.242
104.27
105.44