/*--------------------------------*- C++ -*----------------------------------*\
  =========                 |
  \\      /  F ield         | OpenFOAM: The Open Source CFD Toolbox
   \\    /   O peration     | Website:  https://openfoam.org
    \\  /    A nd           | Version:  6
     \\/     M anipulation  |
\*---------------------------------------------------------------------------*/
FoamFile
{
    version     2.0;
    format      ascii;
    class       volScalarField;
    location    "24";
    object      omega;
}
// * * * * * * * * * * * * * * * * * * * * * * * * * * * * * * * * * * * * * //

dimensions      [0 0 -1 0 0 0 0];

internalField   nonuniform List<scalar> 
380496
(
843.917
843.917
843.917
843.917
843.917
843.917
843.917
843.917
843.917
843.917
843.917
843.917
843.917
843.917
843.917
843.917
843.917
843.917
843.917
843.917
843.917
843.917
843.917
843.917
843.917
843.917
843.917
843.917
843.917
843.917
843.917
843.917
843.917
843.917
843.917
843.917
843.917
843.917
843.917
843.917
843.917
843.917
843.917
843.917
843.917
843.917
843.917
843.917
843.917
843.917
843.917
843.917
843.917
843.917
843.917
843.917
843.917
843.917
843.917
843.917
843.917
843.917
843.917
843.917
843.917
843.917
843.917
843.917
843.917
843.917
843.917
843.917
843.917
843.917
843.917
843.917
843.917
843.917
843.917
843.917
843.917
843.917
843.917
843.917
843.917
843.917
843.917
843.917
843.917
843.917
843.917
843.917
843.917
843.917
843.917
843.917
843.917
843.917
843.917
843.917
843.917
843.917
843.917
843.917
843.917
843.917
843.917
843.917
843.917
843.917
843.917
843.917
843.917
843.917
843.917
843.917
843.917
843.917
843.917
843.917
843.917
843.917
843.917
843.917
843.917
843.917
843.917
843.917
843.917
843.917
843.917
843.917
843.917
843.917
843.917
843.917
843.917
843.917
843.917
843.917
843.917
843.917
843.917
843.917
843.917
843.917
843.917
843.917
843.917
843.917
843.917
843.917
843.917
843.917
843.917
843.917
843.917
843.917
843.917
843.917
843.917
843.917
843.917
843.917
843.917
843.917
843.917
843.917
843.917
843.917
843.917
843.917
843.917
843.917
843.917
843.917
843.917
843.917
843.917
843.917
843.917
843.917
843.917
843.917
843.917
843.917
843.917
843.917
843.917
843.917
843.917
843.917
843.917
843.917
843.917
843.917
843.917
843.917
843.917
843.917
843.917
843.917
843.917
843.917
843.917
843.917
843.917
843.917
843.917
843.917
843.917
843.917
843.917
843.917
843.917
843.917
843.917
843.917
843.917
843.917
843.917
843.917
843.917
843.917
843.917
843.917
843.917
843.917
843.917
843.917
843.917
843.917
843.917
843.917
843.917
843.917
843.917
843.917
843.917
843.917
843.917
843.917
843.917
843.917
843.917
843.917
843.917
843.917
843.917
843.917
843.917
843.917
843.917
843.917
843.917
843.917
843.917
843.917
843.917
843.917
843.917
843.917
843.917
843.917
843.917
843.917
843.917
843.917
843.917
843.917
843.917
843.917
843.917
843.917
843.917
843.917
843.917
843.917
843.917
843.917
843.917
843.917
843.917
843.917
843.917
843.917
843.917
843.917
843.917
843.917
843.917
843.917
843.917
843.917
843.917
843.917
843.917
843.917
843.917
843.917
843.917
843.917
843.917
843.917
843.917
843.917
843.917
843.917
843.917
843.917
843.917
843.917
843.917
843.917
843.917
843.917
843.917
843.917
843.917
843.917
843.917
843.917
843.917
843.917
843.917
843.917
843.917
843.917
843.917
843.917
843.917
843.917
843.917
843.917
843.917
843.917
843.917
843.917
843.917
843.917
843.917
843.917
843.917
843.917
843.917
843.917
843.917
843.917
843.917
843.917
843.917
843.917
843.917
843.917
843.917
843.917
843.917
843.917
843.917
843.917
843.917
843.917
843.917
843.917
843.917
843.917
843.917
843.917
843.917
843.917
843.917
843.917
843.917
843.917
843.917
843.917
843.917
843.917
843.917
843.917
843.917
843.917
843.917
843.917
843.917
843.917
843.917
843.917
843.917
843.917
843.917
843.917
843.917
843.917
843.917
843.917
843.917
843.917
843.917
843.917
843.917
843.917
843.917
843.917
843.917
843.917
843.917
843.917
843.917
843.917
843.917
843.917
843.917
843.917
843.917
843.917
843.917
843.917
843.917
843.917
843.917
843.917
843.917
843.917
843.917
843.917
843.917
843.917
843.917
843.917
843.917
843.917
843.917
843.917
843.917
843.917
843.917
843.917
843.917
843.917
843.917
843.917
843.917
843.917
843.917
843.917
843.917
843.917
843.917
843.917
843.917
843.917
843.917
843.917
843.917
843.917
843.917
843.917
843.917
843.917
843.917
843.917
843.917
843.917
843.917
843.917
843.917
843.917
843.917
843.917
843.917
843.917
843.917
843.917
843.917
843.917
843.917
843.917
843.917
843.917
843.917
843.917
843.917
843.917
843.917
843.917
843.917
843.917
843.917
843.917
843.917
843.917
843.917
843.917
843.917
843.917
843.917
843.917
843.917
843.917
843.917
843.917
843.917
843.917
843.917
843.917
843.917
843.917
843.917
843.917
843.917
843.917
843.917
843.917
843.917
843.917
843.917
843.917
843.917
843.917
843.917
843.917
843.917
843.917
843.917
843.917
843.917
843.917
843.917
843.917
843.917
843.917
843.917
843.917
843.917
843.917
843.917
843.917
843.917
843.917
843.917
843.917
843.917
843.917
843.917
843.917
843.917
843.917
843.917
843.917
843.917
843.917
843.917
843.917
843.917
843.917
843.917
843.917
843.917
843.917
843.917
843.917
843.917
843.917
843.917
843.917
843.917
843.917
843.917
843.917
843.917
843.917
843.917
843.917
843.917
843.917
843.917
843.917
843.917
843.917
843.917
843.917
843.917
843.917
843.917
843.917
843.917
843.917
843.917
843.917
843.917
843.917
843.917
843.917
843.917
843.917
843.917
843.917
843.917
843.917
843.917
843.917
843.917
843.917
843.917
843.917
843.917
843.917
843.917
843.917
843.917
843.917
843.917
843.917
843.917
843.917
843.917
843.917
843.917
843.917
843.917
843.917
843.917
843.917
843.917
843.917
843.917
843.917
843.917
843.917
843.917
843.917
843.917
843.917
843.917
843.917
843.917
843.917
843.917
843.917
843.917
843.917
843.917
843.917
843.917
843.917
843.917
843.917
843.917
843.917
843.917
843.917
843.917
843.917
843.917
843.917
843.917
843.917
843.917
843.917
843.917
843.917
843.917
843.917
843.917
843.917
843.917
843.917
843.917
843.917
843.917
843.917
843.917
843.917
843.917
843.917
843.917
843.917
843.917
843.917
843.917
843.917
843.917
843.917
843.917
843.917
843.917
843.917
843.917
843.917
843.917
843.917
843.917
843.917
843.917
843.917
843.917
843.917
843.917
843.917
423.923
423.923
423.923
423.923
423.923
423.923
423.923
423.923
423.923
423.923
423.923
423.923
423.923
423.923
423.923
423.923
423.923
423.923
423.923
423.923
423.923
423.923
423.923
423.923
423.923
423.923
423.923
423.923
423.923
423.923
423.923
423.923
423.923
423.923
423.923
281.628
267.586
268.725
269.806
269.901
269.743
269.631
269.562
269.528
269.501
269.49
269.479
269.48
269.478
269.486
269.49
269.502
269.51
269.525
269.539
269.556
269.575
269.594
269.62
269.64
269.674
269.694
269.738
269.757
269.813
269.826
269.895
269.894
269.985
269.946
281.467
267.571
268.648
269.682
269.751
269.588
269.469
269.402
269.363
269.342
269.328
269.326
269.323
269.333
269.336
269.355
269.362
269.387
269.397
269.429
269.442
269.48
269.496
269.541
269.561
269.612
269.637
269.693
269.723
269.782
269.814
269.877
269.894
269.98
269.894
281.132
267.396
268.473
269.473
269.516
269.346
269.223
269.158
269.119
269.104
269.093
269.098
269.101
269.119
269.129
269.157
269.173
269.209
269.229
269.274
269.298
269.351
269.379
269.441
269.474
269.546
269.582
269.664
269.701
269.795
269.827
269.936
269.944
270.094
269.994
280.564
267.017
268.175
269.149
269.158
268.974
268.847
268.784
268.749
268.74
268.735
268.75
268.759
268.789
268.807
268.848
268.873
268.923
268.953
269.012
269.048
269.116
269.159
269.236
269.285
269.372
269.426
269.524
269.581
269.691
269.744
269.87
269.896
270.069
269.978
280.147
266.78
267.827
268.732
268.721
268.533
268.405
268.343
268.31
268.305
268.306
268.326
268.344
268.381
268.409
268.459
268.495
268.556
268.599
268.671
268.721
268.804
268.861
268.956
269.02
269.128
269.197
269.319
269.392
269.527
269.597
269.751
269.796
270.003
269.924
279.34
266.189
267.272
268.131
268.087
267.888
267.762
267.705
267.68
267.685
267.697
267.729
267.759
267.809
267.85
267.913
267.964
268.038
268.097
268.184
268.25
268.351
268.425
268.539
268.62
268.749
268.837
268.98
269.073
269.231
269.321
269.501
269.563
269.805
269.731
278.499
265.57
266.59
267.379
267.307
267.101
266.976
266.924
266.908
266.921
266.944
266.986
267.029
267.09
267.145
267.22
267.285
267.374
267.448
267.551
267.634
267.752
267.844
267.977
268.078
268.227
268.336
268.501
268.615
268.797
268.909
269.115
269.198
269.474
269.41
277.443
264.752
265.705
266.418
266.317
266.106
265.986
265.941
265.936
265.96
265.995
266.05
266.106
266.18
266.249
266.338
266.418
266.522
266.612
266.731
266.832
266.967
267.078
267.23
267.351
267.52
267.65
267.837
267.972
268.177
268.311
268.542
268.645
268.953
268.897
276.189
263.732
264.627
265.26
265.128
264.914
264.802
264.77
264.779
264.818
264.87
264.94
265.012
265.1
265.185
265.289
265.385
265.504
265.612
265.747
265.866
266.019
266.149
266.319
266.46
266.649
266.799
267.007
267.162
267.39
267.544
267.8
267.922
268.261
268.211
274.955
262.704
263.449
263.992
263.839
263.626
263.524
263.501
263.522
263.571
263.636
263.716
263.801
263.9
263.999
264.115
264.225
264.357
264.48
264.629
264.764
264.932
265.079
265.266
265.425
265.632
265.8
266.027
266.201
266.448
266.621
266.898
267.037
267.402
267.358
273.278
261.259
261.953
262.417
262.235
262.028
261.944
261.943
261.987
262.058
262.143
262.242
262.345
262.462
262.577
262.709
262.837
262.984
263.124
263.29
263.442
263.627
263.793
263.998
264.175
264.4
264.587
264.833
265.026
265.293
265.484
265.782
265.937
266.328
266.288
271.661
259.85
260.311
260.67
260.473
260.275
260.205
260.216
260.273
260.357
260.455
260.565
260.682
260.81
260.939
261.082
261.224
261.385
261.54
261.72
261.888
262.089
262.271
262.492
262.687
262.93
263.135
263.398
263.61
263.895
264.105
264.421
264.593
265.007
264.971
269.373
257.804
258.185
258.465
258.25
258.072
258.036
258.081
258.17
258.282
258.406
258.539
258.678
258.825
258.973
259.135
259.295
259.473
259.646
259.843
260.031
260.248
260.45
260.689
260.903
261.164
261.389
261.671
261.902
262.206
262.434
262.77
262.958
263.395
263.363
267.103
255.734
255.823
255.996
255.774
255.618
255.606
255.673
255.782
255.913
256.054
256.204
256.358
256.52
256.685
256.86
257.037
257.229
257.42
257.631
257.837
258.071
258.291
258.547
258.78
259.059
259.303
259.603
259.853
260.175
260.422
260.776
260.98
261.44
261.41
264.032
252.897
252.813
252.909
252.689
252.577
252.614
252.727
252.875
253.04
253.211
253.387
253.565
253.748
253.934
254.129
254.326
254.536
254.747
254.976
255.202
255.453
255.695
255.969
256.223
256.52
256.785
257.104
257.374
257.715
257.981
258.354
258.576
259.057
259.03
260.551
249.612
249.238
249.26
249.057
248.997
249.082
249.241
249.426
249.626
249.824
250.027
250.227
250.432
250.637
250.85
251.065
251.293
251.522
251.768
252.014
252.282
252.544
252.834
253.11
253.424
253.711
254.047
254.339
254.698
254.984
255.374
255.614
256.116
256.091
256.377
245.606
244.853
244.794
244.62
244.629
244.773
244.983
245.203
245.436
245.657
245.883
246.1
246.325
246.544
246.774
247.003
247.246
247.491
247.752
248.016
248.299
248.58
248.886
249.183
249.514
249.822
250.176
250.489
250.866
251.174
251.585
251.847
252.37
252.356
249.996
239.623
238.821
238.813
238.702
238.807
239.037
239.322
239.597
239.88
240.134
240.393
240.629
240.877
241.108
241.358
241.598
241.859
242.115
242.395
242.672
242.975
243.274
243.602
243.921
244.278
244.612
244.997
245.338
245.749
246.084
246.526
246.819
247.36
247.388
240.797
231.459
230.484
230.645
230.707
230.945
231.246
231.563
231.846
232.125
232.367
232.617
232.839
233.082
233.305
233.556
233.793
234.062
234.319
234.612
234.894
235.214
235.538
235.907
236.267
236.664
237.048
237.47
237.868
238.311
238.707
239.183
239.544
240.106
240.251
214.293
212.124
212.376
213.293
213.917
214.643
215.356
216.021
216.613
217.174
217.681
218.181
218.644
219.116
219.558
220.021
220.459
220.923
221.365
221.838
222.291
222.776
223.241
223.738
224.215
224.721
225.208
225.717
226.212
226.716
227.212
227.7
228.191
228.613
229.267
9.02119
7.66221
7.58938
7.55608
7.60829
7.67985
7.77143
7.86328
7.9647
8.05742
8.15502
8.24132
8.3322
8.41167
8.49722
8.57179
8.65437
8.72598
8.80778
8.87766
8.96059
9.02905
9.11469
9.18079
9.27089
9.3324
9.42952
9.48237
9.59042
9.62769
9.75319
9.76229
9.91661
9.86888
10.0714
135.248
128.88
128.553
129.046
129.24
129.231
129.175
129.121
129.08
129.048
129.025
129.007
128.995
128.988
128.983
128.982
128.984
128.988
128.994
129.002
129.012
129.024
129.039
129.055
129.076
129.096
129.124
129.148
129.187
129.213
129.267
129.296
129.368
129.399
129.5
135.076
128.679
128.313
128.782
128.965
128.95
128.89
128.835
128.792
128.76
128.737
128.721
128.711
128.706
128.705
128.707
128.712
128.72
128.731
128.743
128.759
128.775
128.796
128.816
128.844
128.869
128.903
128.935
128.976
129.015
129.063
129.115
129.157
129.245
129.231
134.794
128.386
128.005
128.46
128.633
128.613
128.55
128.494
128.452
128.422
128.401
128.389
128.382
128.381
128.385
128.392
128.404
128.417
128.435
128.454
128.477
128.501
128.531
128.56
128.598
128.631
128.678
128.715
128.773
128.815
128.886
128.934
129.009
129.084
129.122
134.361
127.975
127.614
128.064
128.226
128.199
128.133
128.076
128.035
128.008
127.99
127.982
127.981
127.985
127.994
128.008
128.025
128.046
128.07
128.096
128.127
128.158
128.196
128.233
128.278
128.321
128.375
128.423
128.487
128.54
128.615
128.675
128.751
128.84
128.873
134.043
127.651
127.239
127.653
127.798
127.763
127.693
127.634
127.592
127.565
127.549
127.543
127.544
127.553
127.566
127.584
127.606
127.631
127.661
127.693
127.731
127.769
127.814
127.858
127.911
127.961
128.025
128.08
128.154
128.215
128.3
128.369
128.452
128.556
128.59
133.489
127.122
126.721
127.122
127.252
127.208
127.134
127.075
127.035
127.012
127.001
127.001
127.008
127.022
127.041
127.066
127.095
127.128
127.164
127.204
127.249
127.295
127.348
127.4
127.462
127.52
127.591
127.656
127.738
127.807
127.899
127.977
128.067
128.178
128.216
132.924
126.585
126.16
126.528
126.638
126.584
126.505
126.445
126.406
126.385
126.378
126.382
126.394
126.413
126.438
126.469
126.504
126.543
126.586
126.633
126.684
126.738
126.798
126.859
126.928
126.995
127.073
127.146
127.236
127.314
127.414
127.501
127.596
127.72
127.758
132.247
125.943
125.496
125.83
125.918
125.852
125.769
125.708
125.67
125.653
125.65
125.659
125.677
125.702
125.733
125.77
125.811
125.857
125.907
125.961
126.019
126.08
126.148
126.216
126.292
126.367
126.454
126.534
126.632
126.718
126.824
126.92
127.019
127.155
127.191
131.463
125.209
124.747
125.045
125.107
125.028
124.94
124.88
124.847
124.835
124.838
124.854
124.878
124.911
124.948
124.992
125.04
125.093
125.15
125.211
125.276
125.345
125.419
125.495
125.579
125.662
125.755
125.844
125.948
126.043
126.155
126.26
126.363
126.51
126.545
130.701
124.496
123.979
124.224
124.259
124.169
124.078
124.018
123.987
123.979
123.986
124.007
124.036
124.074
124.117
124.166
124.219
124.278
124.341
124.408
124.479
124.554
124.635
124.717
124.808
124.897
124.997
125.093
125.204
125.305
125.423
125.535
125.642
125.798
125.831
129.711
123.569
123.042
123.252
123.258
123.155
123.063
123.007
122.983
122.983
123
123.029
123.067
123.112
123.163
123.22
123.281
123.346
123.416
123.49
123.569
123.651
123.739
123.829
123.926
124.023
124.13
124.233
124.35
124.459
124.583
124.702
124.813
124.979
125.01
128.745
122.677
122.06
122.197
122.17
122.054
121.96
121.905
121.885
121.89
121.912
121.947
121.99
122.042
122.098
122.161
122.227
122.299
122.374
122.455
122.54
122.628
122.722
122.819
122.923
123.027
123.14
123.25
123.374
123.489
123.619
123.747
123.86
124.037
124.064
127.449
121.461
120.82
120.914
120.856
120.729
120.637
120.592
120.584
120.601
120.635
120.68
120.734
120.795
120.861
120.932
121.007
121.086
121.17
121.258
121.35
121.447
121.548
121.653
121.764
121.876
121.997
122.115
122.245
122.369
122.505
122.64
122.758
122.945
122.969
126.136
120.248
119.484
119.489
119.391
119.253
119.163
119.124
119.123
119.149
119.191
119.245
119.307
119.376
119.449
119.527
119.609
119.696
119.787
119.882
119.982
120.086
120.195
120.307
120.425
120.545
120.673
120.799
120.937
121.068
121.21
121.354
121.476
121.674
121.694
124.43
118.648
117.809
117.75
117.618
117.474
117.393
117.368
117.384
117.425
117.482
117.55
117.624
117.703
117.787
117.875
117.966
118.062
118.162
118.266
118.374
118.486
118.604
118.725
118.851
118.98
119.116
119.251
119.396
119.536
119.685
119.838
119.964
120.175
120.191
122.481
116.821
115.841
115.697
115.526
115.379
115.308
115.3
115.332
115.39
115.462
115.543
115.629
115.72
115.814
115.911
116.012
116.116
116.224
116.337
116.453
116.574
116.699
116.828
116.964
117.101
117.245
117.388
117.542
117.69
117.848
118.009
118.141
118.363
118.375
120.129
114.623
113.442
113.181
112.963
112.816
112.762
112.775
112.824
112.899
112.983
113.076
113.172
113.272
113.373
113.478
113.585
113.696
113.811
113.931
114.054
114.183
114.316
114.453
114.596
114.742
114.895
115.048
115.21
115.368
115.535
115.706
115.849
116.085
116.098
116.507
111.184
110.002
109.753
109.534
109.404
109.372
109.409
109.477
109.569
109.665
109.769
109.871
109.98
110.087
110.2
110.313
110.433
110.555
110.683
110.816
110.954
111.098
111.247
111.403
111.562
111.731
111.9
112.08
112.254
112.44
112.627
112.79
113.037
113.071
111.045
106.317
104.831
104.491
104.256
104.15
104.142
104.202
104.287
104.398
104.509
104.635
104.755
104.889
105.018
105.16
105.299
105.452
105.602
105.766
105.929
106.104
106.282
106.466
106.653
106.845
107.043
107.243
107.452
107.657
107.872
108.088
108.291
108.554
108.665
95.7362
95.7794
94.6573
94.3611
94.1478
94.1154
94.223
94.4135
94.6394
94.8912
95.1454
95.4091
95.6671
95.9313
96.1884
96.4517
96.7084
96.9716
97.2294
97.4941
97.7546
98.0222
98.287
98.5584
98.8277
99.1023
99.3753
99.6522
99.9271
100.204
100.479
100.747
101.033
101.255
101.631
11.4418
9.87447
9.83918
9.88304
9.99842
10.1208
10.2559
10.3828
10.5158
10.6344
10.7565
10.8629
10.9736
11.0695
11.1719
11.2603
11.3579
11.4417
11.5374
11.6184
11.7146
11.7934
11.8922
11.9679
12.0712
12.1416
12.2524
12.3131
12.4358
12.4795
12.6209
12.6355
12.806
12.7689
12.9778
79.7825
77.2363
76.6746
76.7668
76.8913
76.9328
76.9232
76.8971
76.8675
76.842
76.8191
76.8017
76.7865
76.7762
76.7672
76.7622
76.7581
76.757
76.7567
76.7584
76.7616
76.7652
76.7723
76.7769
76.7888
76.7934
76.8121
76.8154
76.8433
76.8437
76.8846
76.8803
76.9392
76.926
77.0184
79.595
77.0489
76.4707
76.5477
76.6639
76.6998
76.6872
76.6579
76.6273
76.5998
76.5777
76.5592
76.5464
76.5354
76.5301
76.5245
76.5251
76.5234
76.5287
76.5297
76.5392
76.5424
76.5558
76.5611
76.5782
76.5861
76.6069
76.6183
76.6423
76.6591
76.6842
76.7116
76.7289
76.7803
76.7732
79.3539
76.8068
76.2188
76.2867
76.3972
76.4287
76.4136
76.3823
76.351
76.3231
76.3017
76.284
76.2729
76.2636
76.2607
76.2575
76.2612
76.2623
76.2715
76.2756
76.2898
76.2962
76.3154
76.3234
76.3483
76.3573
76.389
76.3982
76.4385
76.4473
76.4971
76.5078
76.5618
76.5855
76.6322
79.0384
76.4932
75.9093
75.9765
76.0832
76.1104
76.0919
76.0585
76.0265
75.9986
75.9785
75.9623
75.9537
75.9466
75.947
75.9465
75.954
75.9582
75.9714
75.9793
75.9976
76.0083
76.0316
76.0445
76.0734
76.088
76.1234
76.139
76.1823
76.1983
76.2499
76.2684
76.3222
76.3532
76.3985
78.7525
76.218
75.6167
75.6643
75.7577
75.7769
75.753
75.7161
75.6817
75.6526
75.6319
75.616
75.6081
75.6024
75.6043
75.6059
75.6155
75.6223
75.6382
75.6489
75.6707
75.6842
75.7118
75.7276
75.7615
75.7788
75.82
75.8382
75.8876
75.9067
75.9638
75.9873
76.0441
76.0847
76.1279
78.3535
75.8243
75.2273
75.2709
75.3571
75.3695
75.3409
75.3012
75.2658
75.2371
75.2176
75.2037
75.1981
75.1953
75.2001
75.2051
75.2179
75.2285
75.248
75.2626
75.2883
75.3059
75.3377
75.3576
75.3959
75.4175
75.4632
75.4855
75.5398
75.5624
75.6251
75.6506
75.714
75.7539
75.8061
77.9279
75.4143
74.8119
74.8411
74.9138
74.9165
74.8813
74.8377
74.8002
74.7709
74.7518
74.7393
74.7353
74.7349
74.742
74.7499
74.7655
74.7793
74.8019
74.82
74.8489
74.8703
74.9056
74.9295
74.9716
74.9971
75.0468
75.0732
75.1315
75.1583
75.2247
75.2548
75.321
75.3662
75.4202
77.4332
74.9365
74.3313
74.3457
74.4035
74.3951
74.3525
74.3049
74.2653
74.2359
74.2175
74.2067
74.2047
74.2069
74.2167
74.2276
74.2462
74.2634
74.2892
74.3109
74.3433
74.3684
74.4074
74.435
74.4809
74.5104
74.564
74.5942
74.6565
74.687
74.7571
74.791
74.86
74.9092
74.9647
76.8736
74.4024
73.799
73.7992
73.8405
73.8193
73.7687
73.7169
73.6759
73.647
73.6301
73.6218
73.6225
73.6279
73.6408
73.6552
73.677
73.6978
73.727
73.7524
73.7882
73.8171
73.8596
73.8911
73.9406
73.9739
74.0313
74.0653
74.1313
74.1655
74.239
74.2767
74.3483
74.4018
74.4587
76.3104
73.8744
73.2591
73.2342
73.2544
73.2193
73.1606
73.1046
73.0618
73.0328
73.0169
73.0103
73.0131
73.021
73.0364
73.0537
73.0782
73.1021
73.1341
73.1627
73.2015
73.2336
73.2792
73.3141
73.3669
73.4035
73.4643
73.5016
73.5709
73.6085
73.6851
73.7262
73.7999
73.8573
73.9148
75.627
73.2229
72.6144
72.5761
72.5782
72.5288
72.4616
72.4022
72.3591
72.3319
72.3187
72.3157
72.322
72.3339
72.3529
72.3742
72.4023
72.43
72.4655
72.4979
72.5401
72.5761
72.6251
72.6637
72.7201
72.7604
72.8247
72.8657
72.9385
72.9796
73.0594
73.1042
73.1801
73.2418
73.2999
74.9228
72.5725
71.9397
71.8629
71.8353
71.7678
71.6913
71.6278
71.5835
71.5571
71.5457
71.5452
71.5543
71.5693
71.5913
71.6159
71.647
71.6781
71.7166
71.7525
71.7979
71.8374
71.8897
71.9319
71.9916
72.0356
72.1034
72.1479
72.2243
72.2689
72.3519
72.4004
72.4785
72.5446
72.6029
74.0388
71.7346
71.1052
71.01
70.9594
70.8752
70.7905
70.7248
70.6819
70.659
70.6519
70.6563
70.6701
70.69
70.7165
70.7457
70.781
70.8165
70.859
70.8991
70.9484
70.9921
71.0483
71.0947
71.1583
71.2064
71.2781
71.3267
71.407
71.4555
71.5422
71.5947
71.6754
71.7464
71.8051
73.1016
70.871
70.2034
70.0569
69.9681
69.8623
69.7681
69.6994
69.6573
69.6372
69.6339
69.6426
69.6608
69.6852
69.7159
69.7496
69.7889
69.8288
69.8751
69.9196
69.9726
70.0207
70.0807
70.1315
70.199
70.2514
70.3272
70.38
70.4644
70.517
70.6076
70.6643
70.7478
70.824
70.8826
71.9316
69.7754
69.0904
68.9084
68.7863
68.6605
68.5587
68.4896
68.4511
68.4364
68.4391
68.4539
68.478
68.5082
68.5442
68.5833
68.6273
68.6723
68.7229
68.7723
68.8295
68.8825
68.9466
69.0023
69.074
69.1312
69.2113
69.2688
69.3577
69.4147
69.5097
69.5709
69.6578
69.7398
69.7991
70.5749
68.5118
67.7783
67.5405
67.3762
67.2278
67.1179
67.0486
67.0142
67.0051
67.0144
67.0356
67.066
67.102
67.1434
67.1876
67.2362
67.2859
67.3406
67.3947
67.4555
67.5133
67.5811
67.6417
67.7172
67.7794
67.8637
67.926
68.0194
68.0809
68.1807
68.2463
68.3373
68.4247
68.4848
68.9304
66.9871
66.1751
65.855
65.6329
65.4571
65.3395
65.2709
65.2409
65.2367
65.251
65.2762
65.3104
65.3492
65.3934
65.4399
65.4908
65.5429
65.6
65.6573
65.721
65.7828
65.8537
65.919
65.9982
66.0656
66.1542
66.2219
66.3205
66.3873
66.4936
66.5636
66.6625
66.7556
66.8219
66.5752
64.6695
63.8502
63.5254
63.2839
63.0932
62.9677
62.8942
62.8611
62.8534
62.8652
62.8872
62.9196
62.9564
63.0008
63.0475
63.1009
63.1556
63.2169
63.2787
63.348
63.4162
63.494
63.567
63.6547
63.7302
63.8293
63.9049
64.0157
64.0893
64.2099
64.2851
64.4003
64.4969
64.5806
63.0741
61.5354
60.4575
59.9504
59.5977
59.3499
59.1972
59.1122
59.0778
59.0752
59.098
59.1345
59.1858
59.2431
59.3116
59.3824
59.4632
59.5443
59.6349
59.7248
59.8238
59.9222
60.0302
60.1314
60.2425
60.3446
60.4618
60.5649
60.6912
60.7923
60.9292
61.0266
61.1667
61.2742
61.4022
55.4841
57.219
56.1476
55.3577
54.7555
54.3409
54.099
53.9717
53.9311
53.9385
53.9879
54.0544
54.1449
54.2392
54.3504
54.4589
54.5819
54.6987
54.8291
54.9515
55.0873
55.214
55.3541
55.4854
55.6288
55.765
55.9106
56.0513
56.1981
56.3415
56.4914
56.628
56.7971
56.8976
57.135
13.0133
11.4056
11.4181
11.5462
11.7296
11.9016
12.0747
12.2283
12.3827
12.5163
12.6514
12.7667
12.886
12.9872
13.0955
13.1872
13.2891
13.3747
13.4737
13.5556
13.6545
13.7336
13.8346
13.9103
14.0157
14.0859
14.1986
14.2594
14.3835
14.4285
14.5701
14.5891
14.7561
14.7339
14.9281
52.8625
51.861
51.4546
51.3871
51.4236
51.4571
51.4651
51.4577
51.4411
51.4241
51.4061
51.3915
51.3773
51.3668
51.3567
51.35
51.3436
51.3396
51.3365
51.3343
51.3341
51.3326
51.3358
51.3338
51.341
51.3372
51.3499
51.3426
51.3627
51.3502
51.3805
51.3604
51.4056
51.3729
51.4443
52.6912
51.6999
51.2906
51.2156
51.2472
51.2758
51.2816
51.2707
51.2534
51.2337
51.2165
51.1995
51.1876
51.1749
51.1683
51.1593
51.1574
51.1511
51.153
51.1485
51.1536
51.1504
51.1583
51.1561
51.1662
51.1655
51.1771
51.1785
51.1909
51.1959
51.2072
51.2189
51.2245
51.2466
51.2459
52.4925
51.5063
51.0941
51.0141
51.0421
51.0673
51.0709
51.0576
51.0392
51.0181
51.0006
50.9832
50.9716
50.9592
50.9536
50.9453
50.9449
50.9394
50.9435
50.9398
50.948
50.9452
50.9573
50.9545
50.971
50.9674
50.989
50.9836
51.0113
51.0036
51.0378
51.0293
51.0675
51.0614
51.1044
52.255
51.2694
50.8588
50.7787
50.8057
50.8287
50.83
50.8144
50.7946
50.7723
50.7548
50.7372
50.7266
50.7146
50.7107
50.7033
50.705
50.7008
50.7072
50.7054
50.7158
50.7154
50.7297
50.7299
50.7483
50.7483
50.7716
50.7703
50.7995
50.7963
50.8316
50.8274
50.8667
50.8627
50.9086
52.0124
51.0413
50.6283
50.5401
50.5588
50.5753
50.5715
50.5523
50.5296
50.5055
50.4866
50.4684
50.4574
50.4457
50.4421
50.4354
50.438
50.4348
50.4426
50.4418
50.4543
50.4547
50.4717
50.4725
50.4944
50.4947
50.5218
50.5212
50.554
50.5525
50.5901
50.5902
50.6285
50.6342
50.6731
51.7113
50.7438
50.3346
50.2462
50.262
50.2745
50.2667
50.2444
50.2195
50.1941
50.1746
50.1565
50.1459
50.1351
50.1325
50.1273
50.1313
50.13
50.1395
50.1406
50.1551
50.1576
50.177
50.1798
50.2042
50.2066
50.2367
50.2377
50.2741
50.2734
50.3159
50.3149
50.3603
50.3613
50.4112
51.3809
50.4247
50.0177
49.9247
49.9334
49.9389
49.9253
49.8987
49.8706
49.8434
49.8227
49.8043
49.7938
49.7836
49.7817
49.7777
49.7828
49.783
49.7939
49.7967
49.8128
49.8171
49.8383
49.843
49.8694
49.8737
49.906
49.9089
49.9477
49.949
49.9938
49.995
50.0423
50.046
50.0974
51.0013
50.0571
49.6541
49.5571
49.5581
49.5557
49.5353
49.5038
49.4723
49.443
49.4212
49.4026
49.3922
49.3829
49.3819
49.3792
49.3857
49.3874
49.4
49.4045
49.4225
49.4286
49.4518
49.4584
49.4871
49.4932
49.5279
49.5326
49.574
49.577
49.6244
49.6272
49.677
49.6819
49.7356
50.5804
49.6502
49.2545
49.1548
49.1475
49.1363
49.1082
49.0714
49.0362
49.0052
48.9823
48.9639
48.9539
48.9457
48.9458
48.9446
48.9524
48.956
48.9701
48.9765
48.9962
49.0042
49.0293
49.0378
49.0685
49.0765
49.1134
49.1199
49.1637
49.1683
49.2182
49.2225
49.2746
49.281
49.3369
50.1474
49.2386
48.8462
48.7379
48.7184
48.6961
48.6596
48.6173
48.5785
48.5456
48.5218
48.5034
48.4938
48.4866
48.4876
48.4879
48.497
48.5022
48.5177
48.5259
48.5471
48.557
48.5837
48.594
48.6266
48.6364
48.6754
48.6836
48.7295
48.7357
48.7878
48.7937
48.8477
48.8556
48.9132
49.6403
48.7496
48.3685
48.2592
48.231
48.1984
48.1533
48.1051
48.0626
48.0281
48.0037
47.9859
47.977
47.9713
47.9736
47.9757
47.9863
47.9935
48.0106
48.0208
48.0438
48.0556
48.0842
48.0964
48.131
48.1427
48.1838
48.1938
48.242
48.2499
48.3042
48.3119
48.3679
48.3775
48.4367
49.0985
48.2405
47.8594
47.7345
47.6873
47.6391
47.5834
47.5288
47.4827
47.4467
47.4219
47.4048
47.3969
47.3928
47.3965
47.4006
47.4128
47.422
47.4409
47.4531
47.4779
47.4918
47.5223
47.5366
47.5732
47.5868
47.6302
47.6421
47.6927
47.7025
47.7591
47.7686
47.8266
47.838
47.8989
48.4419
47.6137
47.2458
47.1181
47.0587
46.9971
46.9311
46.87
46.8203
46.7831
46.7582
46.7423
46.7356
46.7334
46.7389
46.7453
46.7593
46.7708
46.7915
46.8061
46.8328
46.849
46.8816
46.8982
46.937
46.9529
46.9986
47.0127
47.0658
47.0775
47.1368
47.1482
47.2085
47.222
47.2847
47.7237
46.9425
46.5703
46.4198
46.3345
46.2528
46.1743
46.1063
46.0534
46.0155
45.9912
45.977
45.9721
45.9725
45.9801
45.9892
46.0054
46.0197
46.0425
46.0598
46.0886
46.1075
46.1422
46.1614
46.2026
46.221
46.2693
46.2856
46.3415
46.3555
46.4176
46.4311
46.4939
46.5096
46.5742
46.846
46.1178
45.7535
45.5903
45.4835
45.3827
45.2914
45.2162
45.1601
45.1215
45.0978
45.0851
45.0821
45.0848
45.0943
45.106
45.124
45.141
45.1656
45.1857
45.2162
45.2379
45.2745
45.2965
45.3397
45.3608
45.4115
45.4304
45.489
45.5051
45.5703
45.5859
45.6517
45.6696
45.7371
45.8227
45.1591
44.7872
44.5967
44.459
44.3339
44.228
44.1445
44.0851
44.0455
44.0227
44.0116
44.0104
44.0153
44.0266
44.0406
44.0601
44.0794
44.1052
44.1278
44.1593
44.1837
44.2215
44.2463
44.2911
44.315
44.3676
44.3891
44.4504
44.4688
44.5372
44.5546
44.624
44.6435
44.7145
44.58
44.0027
43.6102
43.3746
43.1918
43.0345
42.9109
42.8172
42.7534
42.7107
42.6869
42.6742
42.6724
42.6759
42.6865
42.6996
42.7183
42.7375
42.7627
42.7863
42.8177
42.8441
42.8823
42.9099
42.9557
42.9828
43.0373
43.0622
43.1262
43.1478
43.2202
43.2403
43.315
43.3371
43.4147
43.0293
42.4149
41.9899
41.7327
41.5218
41.3364
41.1909
41.0775
40.9993
40.942
40.9081
40.8843
40.8757
40.8716
40.8787
40.8877
40.9057
40.924
40.9507
40.976
41.0101
41.0405
41.0821
41.1154
41.1655
41.1992
41.2588
41.2904
41.3601
41.3877
41.467
41.4921
41.5752
41.601
41.6888
40.8417
40.528
39.9117
39.4669
39.1185
38.8421
38.6426
38.4949
38.4001
38.333
38.3002
38.2786
38.2807
38.2854
38.3085
38.3297
38.3667
38.3993
38.446
38.4871
38.5408
38.5891
38.6501
38.7018
38.7655
38.8171
38.8849
38.9355
39.0104
39.0577
39.1419
39.1843
39.2759
39.3154
39.4169
37.8607
40.6885
39.8758
38.9229
38.1198
37.5017
37.0632
36.7489
36.5406
36.3923
36.3044
36.2416
36.2171
36.2
36.2111
36.22
36.2523
36.2772
36.3229
36.3582
36.4126
36.4554
36.5156
36.565
36.6291
36.6848
36.7511
36.8128
36.8806
36.9461
37.0186
37.0792
37.1704
37.2066
37.3493
14.2723
12.6896
12.7678
12.9784
13.2282
13.4462
13.6529
13.8279
13.9984
14.1413
14.2842
14.4028
14.5258
14.6272
14.737
14.8272
14.9291
15.0122
15.1104
15.1891
15.2866
15.362
15.4612
15.5331
15.6364
15.703
15.8131
15.8711
15.9916
16.0357
16.1716
16.194
16.3505
16.3411
16.5173
37.6239
37.2102
36.9821
36.8892
36.8744
36.8851
36.8923
36.8927
36.8848
36.8752
36.8626
36.8517
36.84
36.8308
36.8215
36.8144
36.8077
36.8024
36.7983
36.7939
36.7925
36.788
36.7896
36.7839
36.7892
36.7809
36.7908
36.7785
36.7943