/*--------------------------------*- C++ -*----------------------------------*\
  =========                 |
  \\      /  F ield         | OpenFOAM: The Open Source CFD Toolbox
   \\    /   O peration     | Website:  https://openfoam.org
    \\  /    A nd           | Version:  6
     \\/     M anipulation  |
\*---------------------------------------------------------------------------*/
FoamFile
{
    version     2.0;
    format      ascii;
    class       volScalarField;
    location    "24";
    object      p;
}
// * * * * * * * * * * * * * * * * * * * * * * * * * * * * * * * * * * * * * //

dimensions      [0 2 -2 0 0 0 0];

internalField   nonuniform List<scalar> 
380496
(
0.0125346
0.0128855
0.0126397
0.0125634
0.0125054
0.0124423
0.0123802
0.0123156
0.0122479
0.0121779
0.0121057
0.0120316
0.0119558
0.0118784
0.0117995
0.011719
0.0116367
0.0115524
0.0114658
0.0113764
0.0112838
0.0111875
0.0110869
0.0109814
0.0108705
0.0107533
0.0106295
0.010498
0.0103589
0.0102109
0.0100551
0.00988855
0.00971835
0.00953172
0.00936125
0.0125032
0.012845
0.0126102
0.0125391
0.0124846
0.0124237
0.0123623
0.012297
0.0122278
0.0121553
0.0120799
0.0120018
0.0119214
0.0118388
0.0117542
0.0116674
0.0115783
0.0114866
0.0113923
0.0112946
0.0111936
0.0110883
0.0109787
0.010864
0.0107438
0.0106173
0.0104845
0.0103442
0.0101968
0.0100405
0.00987719
0.00970143
0.00952395
0.00931754
0.00913979
0.0124684
0.0128037
0.0125793
0.012514
0.0124634
0.0124046
0.0123436
0.0122773
0.012206
0.0121304
0.012051
0.0119683
0.0118825
0.011794
0.0117027
0.0116086
0.0115118
0.0114117
0.0113084
0.0112013
0.0110902
0.0109745
0.010854
0.010728
0.0105962
0.010458
0.0103134
0.0101613
0.0100023
0.00983454
0.00966105
0.0094751
0.00929114
0.00907755
0.00890273
0.0124268
0.0127592
0.0125473
0.0124894
0.0124437
0.0123878
0.0123277
0.012261
0.0121879
0.0121097
0.012027
0.0119402
0.0118498
0.0117561
0.0116591
0.0115589
0.0114554
0.0113483
0.0112376
0.0111227
0.0110036
0.0108796
0.0107507
0.0106162
0.010476
0.0103294
0.0101766
0.0100167
0.00985029
0.00967549
0.00949567
0.00930312
0.00911409
0.00889223
0.00871442
0.0123884
0.0127118
0.0125153
0.0124658
0.0124251
0.0123722
0.012313
0.0122455
0.0121707
0.0120896
0.0120032
0.0119122
0.011817
0.0117179
0.0116151
0.0115085
0.0113983
0.0112841
0.0111658
0.0110431
0.0109158
0.0107834
0.0106459
0.0105027
0.0103538
0.0101986
0.0100373
0.00986912
0.00969494
0.00951275
0.00932642
0.00912775
0.00893474
0.00870828
0.00853213
0.0123384
0.0126612
0.0124823
0.0124427
0.0124083
0.0123589
0.0123009
0.0122329
0.0121563
0.0120726
0.0119829
0.0118879
0.0117883
0.0116843
0.0115762
0.011464
0.0113477
0.0112271
0.0111023
0.0109727
0.0108384
0.0106988
0.0105542
0.0104038
0.0102479
0.0100858
0.00991803
0.00974366
0.0095638
0.00937638
0.00918561
0.00898269
0.00878699
0.00855642
0.00838077
0.0122873
0.0126076
0.0124494
0.012421
0.0123936
0.0123479
0.012291
0.0122224
0.012144
0.0120576
0.0119644
0.0118655
0.0117615
0.0116527
0.0115394
0.0114217
0.0112996
0.011173
0.0110418
0.0109057
0.0107647
0.0106184
0.010467
0.0103099
0.0101474
0.00997898
0.00980508
0.00962498
0.00943988
0.00924769
0.00905295
0.00884643
0.0086488
0.00841548
0.00824193
0.0122283
0.0125512
0.0124172
0.0124016
0.0123817
0.0123398
0.012284
0.0122147
0.0121345
0.0120454
0.011949
0.0118463
0.0117381
0.0116249
0.0115069
0.0113841
0.0112568
0.0111247
0.0109879
0.010846
0.0106992
0.0105471
0.0103898
0.0102271
0.0100591
0.00988544
0.00970666
0.00952207
0.00933301
0.00913731
0.00893983
0.00873083
0.0085322
0.00829685
0.0081256
0.0121622
0.0124939
0.0123864
0.0123849
0.0123733
0.0123352
0.0122803
0.0122103
0.0121282
0.0120365
0.011937
0.0118309
0.011719
0.0116017
0.0114795
0.0113523
0.0112204
0.0110835
0.0109418
0.010795
0.0106432
0.0104861
0.010324
0.0101564
0.00998385
0.00980588
0.00962311
0.00943489
0.00924265
0.0090442
0.00884465
0.00863382
0.00843468
0.00819786
0.008029
0.0120985
0.0124421
0.0123612
0.0123732
0.0123689
0.0123338
0.0122795
0.0122085
0.0121245
0.0120304
0.0119282
0.011819
0.0117039
0.0115832
0.0114574
0.0113265
0.0111907
0.01105
0.0109042
0.0107534
0.0105975
0.0104365
0.0102704
0.0100991
0.00992297
0.00974169
0.00955591
0.00936503
0.00917056
0.00897023
0.0087694
0.00855744
0.00835829
0.00812049
0.007954
0.0120194
0.0123882
0.0123362
0.0123635
0.0123673
0.0123352
0.0122813
0.0122093
0.0121233
0.0120268
0.0119219
0.0118099
0.0116917
0.0115679
0.0114389
0.0113047
0.0111655
0.0110212
0.010872
0.0107176
0.0105582
0.0103937
0.0102243
0.0100498
0.00987064
0.00968659
0.00949835
0.00930532
0.00910908
0.00890734
0.00870561
0.0084929
0.008294
0.00805555
0.00789142
0.0119426
0.0123401
0.0123165
0.0123586
0.0123694
0.0123393
0.0122851
0.0122117
0.0121238
0.0120249
0.0119175
0.0118028
0.011682
0.0115554
0.0114235
0.0112864
0.0111443
0.010997
0.0108447
0.0106873
0.010525
0.0103576
0.0101854
0.0100083
0.00982669
0.00964044
0.00945026
0.0092556
0.00905811
0.00885541
0.0086532
0.00844013
0.00824174
0.00800293
0.00784112
0.0118451
0.0122922
0.0122978
0.0123566
0.0123748
0.0123463
0.0122917
0.0122166
0.0121265
0.0120253
0.0119153
0.0117982
0.0116748
0.0115457
0.0114113
0.0112716
0.0111268
0.010977
0.0108221
0.0106621
0.0104973
0.0103274
0.0101528
0.00997353
0.00978992
0.00960187
0.00941016
0.00921425
0.00901584
0.00881252
0.00861013
0.008397
0.0081993
0.00796045
0.00780087
0.0117482
0.0122522
0.0122841
0.0123587
0.0123827
0.0123548
0.0122992
0.0122223
0.01213
0.0120265
0.0119144
0.011795
0.0116694
0.0115381
0.0114015
0.0112596
0.0111126
0.0109606
0.0108035
0.0106414
0.0104744
0.0103025
0.0101261
0.00994498
0.00975976
0.00957031
0.00937743
0.00918062
0.00898161
0.00877799
0.00857566
0.00836277
0.00816586
0.00792724
0.0077696
0.0116314
0.0122177
0.012274
0.0123658
0.012395
0.0123667
0.0123095
0.0122303
0.0121356
0.0120298
0.0119154
0.0117939
0.0116662
0.0115329
0.0113943
0.0112505
0.0111016
0.0109477
0.0107888
0.0106249
0.0104561
0.0102826
0.0101045
0.00992201
0.00973549
0.00954495
0.00935117
0.00915374
0.00895437
0.00875069
0.00854864
0.00833628
0.00814029
0.00790253
0.00774674
0.0115075
0.012192
0.0122662
0.0123742
0.0124073
0.0123783
0.0123193
0.0122379
0.0121409
0.012033
0.0119167
0.0117934
0.011664
0.0115291
0.0113888
0.0112435
0.0110931
0.0109376
0.0107772
0.0106119
0.0104417
0.0102669
0.0100876
0.00990394
0.00971643
0.00952507
0.00933066
0.00913282
0.0089333
0.00872976
0.0085281
0.00831652
0.00812129
0.00788465
0.00772952
0.0113734
0.012179
0.0122664
0.0123907
0.0124252
0.0123936
0.012332
0.0122477
0.0121482
0.0120381
0.0119198
0.0117948
0.0116638
0.0115273
0.0113857
0.011239
0.0110873
0.0109306
0.010769
0.0106025
0.0104312
0.0102553
0.0100751
0.00989054
0.00970227
0.00951031
0.00931545
0.00911739
0.00891784
0.00871463
0.0085135
0.00830308
0.00810881
0.00787487
0.00772039
0.0112218
0.0121736
0.012263
0.0124039
0.0124397
0.0124061
0.0123422
0.0122555
0.012154
0.0120421
0.0119223
0.0117959
0.0116638
0.0115262
0.0113836
0.0112359
0.0110832
0.0109256
0.0107631
0.0105958
0.0104237
0.0102471
0.0100661
0.00988103
0.00969225
0.00949991
0.00930477
0.00910663
0.00890714
0.00870436
0.0085037
0.00829463
0.00810053
0.00786939
0.00771037
0.0110755
0.012189
0.0122732
0.0124269
0.0124597
0.0124223
0.0123551
0.0122656
0.0121618
0.0120481
0.0119268
0.0117991
0.0116659
0.0115273
0.0113838
0.0112353
0.0110819
0.0109235
0.0107604
0.0105924
0.0104199
0.0102427
0.0100613
0.00987573
0.0096866
0.009494
0.00929871
0.00910059
0.00890124
0.00869892
0.00849892
0.00829146
0.00809871
0.00787357
0.00771208
0.0109211
0.0121965
0.0122726
0.0124427
0.0124736
0.0124337
0.0123642
0.0122727
0.0121675
0.0120526
0.0119305
0.011802
0.0116682
0.0115291
0.0113851
0.011236
0.0110822
0.0109234
0.0107599
0.0105916
0.0104187
0.0102411
0.0100595
0.0098737
0.0096844
0.00949168
0.0092963
0.00909823
0.00889896
0.00869712
0.0084974
0.00829174
0.0080984
0.00787927
0.00770502
0.0108439
0.0122215
0.012284
0.0124627
0.0124901
0.0124477
0.0123758
0.0122825
0.0121757
0.0120596
0.0119365
0.0118073
0.0116727
0.0115331
0.0113886
0.0112392
0.011085
0.0109259
0.0107622
0.0105936
0.0104205
0.0102428
0.0100611
0.00987521
0.00968588
0.00949313
0.00929782
0.00909979
0.00890074
0.00869908
0.00850007
0.00829525
0.00810635
0.00789179
0.0077521
0.0125339
0.0128841
0.0126397
0.0125635
0.0125054
0.0124423
0.0123802
0.0123155
0.0122479
0.0121779
0.0121057
0.0120316
0.0119558
0.0118784
0.0117995
0.011719
0.0116367
0.0115524
0.0114658
0.0113764
0.0112838
0.0111875
0.0110869
0.0109814
0.0108705
0.0107533
0.0106295
0.0104981
0.010359
0.010211
0.0100552
0.00988871
0.00971852
0.00953196
0.00936151
0.0125023
0.0128436
0.0126101
0.0125391
0.0124846
0.0124237
0.0123623
0.012297
0.0122278
0.0121553
0.0120798
0.0120018
0.0119214
0.0118388
0.0117542
0.0116674
0.0115783
0.0114867
0.0113923
0.0112947
0.0111936
0.0110884
0.0109788
0.010864
0.0107438
0.0106174
0.0104845
0.0103443
0.0101969
0.0100406
0.00987733
0.00970161
0.00952414
0.00931779
0.00914009
0.0124674
0.0128023
0.0125792
0.0125141
0.0124634
0.0124046
0.0123436
0.0122773
0.012206
0.0121304
0.012051
0.0119683
0.0118825
0.011794
0.0117027
0.0116086
0.0115118
0.0114117
0.0113084
0.0112013
0.0110902
0.0109745
0.010854
0.010728
0.0105963
0.0104581
0.0103134
0.0101613
0.0100024
0.00983466
0.00966117
0.00947526
0.00929129
0.00907778
0.00890297
0.0124259
0.0127579
0.0125472
0.0124895
0.0124437
0.0123878
0.0123277
0.0122609
0.0121879
0.0121097
0.012027
0.0119402
0.0118498
0.0117561
0.0116591
0.0115589
0.0114554
0.0113483
0.0112376
0.0111227
0.0110036
0.0108797
0.0107507
0.0106162
0.010476
0.0103295
0.0101767
0.0100168
0.00985038
0.00967561
0.00949579
0.00930328
0.00911425
0.00889246
0.00871466
0.0123873
0.0127105
0.0125152
0.0124658
0.0124252
0.0123722
0.012313
0.0122455
0.0121707
0.0120896
0.0120032
0.0119122
0.011817
0.0117179
0.0116151
0.0115086
0.0113983
0.0112841
0.0111658
0.0110431
0.0109158
0.0107834
0.0106459
0.0105027
0.0103538
0.0101986
0.0100374
0.00986919
0.00969502
0.00951285
0.00932653
0.0091279
0.00893488
0.00870848
0.00853234
0.0123374
0.0126599
0.0124823
0.0124427
0.0124084
0.0123589
0.0123009
0.0122329
0.0121563
0.0120726
0.0119829
0.0118879
0.0117883
0.0116843
0.0115762
0.011464
0.0113477
0.0112271
0.0111023
0.0109727
0.0108384
0.0106989
0.0105542
0.0104038
0.0102479
0.0100859
0.00991809
0.00974373
0.00956388
0.00937648
0.00918571
0.00898283
0.00878711
0.00855661
0.00838095
0.0122862
0.0126063
0.0124493
0.012421
0.0123936
0.0123479
0.012291
0.0122224
0.012144
0.0120576
0.0119644
0.0118655
0.0117615
0.0116527
0.0115394
0.0114217
0.0112996
0.011173
0.0110418
0.0109057
0.0107647
0.0106185
0.010467
0.01031
0.0101474
0.00997903
0.00980514
0.00962504
0.00943995
0.00924777
0.00905304
0.00884655
0.0086489
0.00841565
0.00824209
0.0122272
0.01255
0.0124171
0.0124016
0.0123818
0.0123398
0.012284
0.0122147
0.0121345
0.0120454
0.011949
0.0118463
0.0117381
0.0116249
0.0115069
0.0113841
0.0112568
0.0111247
0.0109879
0.010846
0.0106992
0.0105471
0.0103899
0.0102271
0.0100591
0.00988549
0.00970671
0.00952213
0.00933307
0.00913738
0.0089399
0.00873094
0.00853229
0.008297
0.00812573
0.012161
0.0124927
0.0123864
0.0123849
0.0123733
0.0123352
0.0122803
0.0122103
0.0121282
0.0120365
0.011937
0.0118309
0.011719
0.0116017
0.0114795
0.0113523
0.0112204
0.0110835
0.0109418
0.010795
0.0106432
0.0104861
0.010324
0.0101565
0.00998389
0.00980592
0.00962315
0.00943494
0.00924271
0.00904427
0.00884472
0.00863391
0.00843475
0.00819799
0.00802912
0.0120973
0.012441
0.0123612
0.0123732
0.0123689
0.0123338
0.0122795
0.0122085
0.0121245
0.0120304
0.0119282
0.011819
0.0117039
0.0115832
0.0114574
0.0113265
0.0111908
0.01105
0.0109042
0.0107534
0.0105975
0.0104365
0.0102704
0.0100991
0.009923
0.00974173
0.00955595
0.00936508
0.00917061
0.0089703
0.00876946
0.00855752
0.00835835
0.00812061
0.0079541
0.0120183
0.0123871
0.0123361
0.0123635
0.0123673
0.0123352
0.0122813
0.0122093
0.0121233
0.0120268
0.0119219
0.0118099
0.0116917
0.0115679
0.0114389
0.0113047
0.0111655
0.0110212
0.010872
0.0107176
0.0105582
0.0103937
0.0102243
0.0100498
0.00987066
0.00968663
0.00949838
0.00930536
0.00910913
0.00890739
0.00870566
0.00849297
0.00829405
0.00805565
0.0078915
0.0119414
0.0123391
0.0123164
0.0123587
0.0123695
0.0123393
0.0122851
0.0122117
0.0121238
0.0120249
0.0119175
0.0118028
0.011682
0.0115554
0.0114235
0.0112864
0.0111443
0.010997
0.0108447
0.0106874
0.010525
0.0103576
0.0101854
0.0100083
0.00982671
0.00964047
0.00945029
0.00925564
0.00905814
0.00885545
0.00865324
0.00844019
0.00824179
0.00800302
0.00784119
0.011844
0.0122912
0.0122978
0.0123566
0.0123748
0.0123463
0.0122917
0.0122166
0.0121265
0.0120253
0.0119153
0.0117982
0.0116748
0.0115457
0.0114113
0.0112716
0.0111269
0.010977
0.0108221
0.0106621
0.0104973
0.0103274
0.0101529
0.00997355
0.00978994
0.0096019
0.00941019
0.00921429
0.00901587
0.00881257
0.00861017
0.00839706
0.00819934
0.00796054
0.00780094
0.011747
0.0122513
0.0122841
0.0123587
0.0123827
0.0123548
0.0122992
0.0122223
0.01213
0.0120265
0.0119143
0.011795
0.0116694
0.0115381
0.0114015
0.0112596
0.0111126
0.0109606
0.0108035
0.0106414
0.0104744
0.0103026
0.0101261
0.009945
0.00975977
0.00957033
0.00937745
0.00918065
0.00898164
0.00877803
0.0085757
0.00836282
0.00816589
0.00792732
0.00776965
0.0116303
0.0122169
0.012274
0.0123658
0.012395
0.0123667
0.0123095
0.0122303
0.0121355
0.0120298
0.0119154
0.0117939
0.0116662
0.0115329
0.0113943
0.0112505
0.0111017
0.0109477
0.0107888
0.0106249
0.0104562
0.0102826
0.0101046
0.00992203
0.00973551
0.00954497
0.0093512
0.00915376
0.0089544
0.00875073
0.00854867
0.00833632
0.00814032
0.0079026
0.00774679
0.0115064
0.0121913
0.0122661
0.0123742
0.0124073
0.0123782
0.0123193
0.0122379
0.0121409
0.012033
0.0119167
0.0117934
0.011664
0.0115291
0.0113888
0.0112435
0.0110931
0.0109376
0.0107772
0.0106119
0.0104417
0.0102669
0.0100876
0.00990396
0.00971645
0.00952509
0.00933068
0.00913285
0.00893332
0.0087298
0.00852813
0.00831656
0.00812132
0.00788472
0.00772956
0.0113724
0.0121784
0.0122664
0.0123907
0.0124252
0.0123936
0.012332
0.0122477
0.0121482
0.0120381
0.0119198
0.0117948
0.0116638
0.0115273
0.0113857
0.011239
0.0110873
0.0109306
0.010769
0.0106025
0.0104312
0.0102553
0.0100751
0.00989056
0.00970229
0.00951033
0.00931547
0.00911742
0.00891787
0.00871467
0.00851353
0.00830312
0.00810884
0.00787494
0.00772044
0.011221
0.0121731
0.012263
0.0124039
0.0124397
0.0124061
0.0123422
0.0122555
0.012154
0.0120421
0.0119223
0.0117959
0.0116638
0.0115262
0.0113836
0.0112359
0.0110832
0.0109256
0.0107631
0.0105958
0.0104237
0.0102471
0.0100662
0.00988105
0.00969228
0.00949994
0.0093048
0.00910667
0.00890718
0.0087044
0.00850374
0.00829468
0.00810056
0.00786946
0.00771042
0.0110746
0.0121887
0.0122732
0.0124269
0.0124596
0.0124223
0.0123551
0.0122656
0.0121618
0.0120481
0.0119268
0.0117991
0.0116659
0.0115273
0.0113838
0.0112353
0.0110819
0.0109236
0.0107604
0.0105925
0.0104199
0.0102427
0.0100613
0.00987576
0.00968663
0.00949404
0.00929875
0.00910063
0.00890128
0.00869897
0.00849897
0.00829151
0.00809875
0.00787364
0.00771211
0.0109201
0.0121965
0.0122727
0.0124428
0.0124737
0.0124338
0.0123643
0.0122728
0.0121676
0.0120527
0.0119306
0.0118021
0.0116682
0.0115291
0.0113851
0.0112361
0.0110823
0.0109235
0.01076
0.0105916
0.0104187
0.0102412
0.0100595
0.00987374
0.00968444
0.00949172
0.00929634
0.00909828
0.00889901
0.00869716
0.00849745
0.00829179
0.00809845
0.00787931
0.007705
0.0108451
0.012222
0.0122842
0.0124627
0.0124901
0.0124477
0.0123758
0.0122824
0.0121756
0.0120596
0.0119364
0.0118072
0.0116727
0.011533
0.0113885
0.0112391
0.0110849
0.0109259
0.0107621
0.0105935
0.0104204
0.0102428
0.010061
0.00987515
0.00968582
0.00949307
0.00929776
0.00909973
0.00890067
0.00869902
0.0085
0.00829519
0.00810627
0.00789175
0.00775211
0.0125364
0.0128814
0.0126395
0.0125635
0.0125055
0.0124423
0.0123802
0.0123155
0.0122479
0.0121779
0.0121056
0.0120316
0.0119557
0.0118784
0.0117995
0.011719
0.0116367
0.0115524
0.0114658
0.0113764
0.0112838
0.0111875
0.0110869
0.0109814
0.0108705
0.0107533
0.0106295
0.0104981
0.010359
0.010211
0.0100552
0.00988873
0.00971852
0.00953199
0.00936162
0.0125048
0.0128411
0.01261
0.0125392
0.0124847
0.0124237
0.0123623
0.012297
0.0122278
0.0121553
0.0120798
0.0120018
0.0119214
0.0118388
0.0117542
0.0116674
0.0115783
0.0114867
0.0113923
0.0112947
0.0111936
0.0110884
0.0109788
0.010864
0.0107438
0.0106174
0.0104846
0.0103443
0.0101969
0.0100406
0.00987737
0.00970165
0.00952419
0.00931784
0.00914016
0.0124699
0.0127999
0.012579
0.0125142
0.0124635
0.0124046
0.0123436
0.0122773
0.012206
0.0121304
0.012051
0.0119683
0.0118825
0.011794
0.0117027
0.0116086
0.0115118
0.0114117
0.0113084
0.0112013
0.0110902
0.0109745
0.010854
0.010728
0.0105963
0.0104581
0.0103134
0.0101613
0.0100024
0.00983467
0.00966117
0.00947528
0.0092913
0.00907781
0.00890302
0.0124283
0.0127554
0.0125471
0.0124896
0.0124438
0.0123878
0.0123277
0.0122609
0.0121879
0.0121097
0.012027
0.0119402
0.0118498
0.0117561
0.0116591
0.0115589
0.0114554
0.0113484
0.0112376
0.0111228
0.0110036
0.0108797
0.0107508
0.0106162
0.0104761
0.0103295
0.0101767
0.0100168
0.0098504
0.00967565
0.00949582
0.00930332
0.00911428
0.00889252
0.00871473
0.0123897
0.0127081
0.0125151
0.0124659
0.0124252
0.0123722
0.012313
0.0122455
0.0121706
0.0120896
0.0120032
0.0119122
0.011817
0.0117179
0.0116151
0.0115085
0.0113983
0.0112841
0.0111658
0.0110431
0.0109158
0.0107834
0.0106459
0.0105027
0.0103539
0.0101987
0.0100374
0.00986921
0.00969503
0.00951288
0.00932654
0.00912793
0.0089349
0.00870853
0.00853242
0.0123398
0.0126576
0.0124821
0.0124428
0.0124084
0.0123589
0.0123009
0.0122329
0.0121563
0.0120726
0.0119829
0.0118879
0.0117883
0.0116843
0.0115762
0.011464
0.0113477
0.0112272
0.0111023
0.0109727
0.0108384
0.0106989
0.0105542
0.0104039
0.0102479
0.0100859
0.00991811
0.00974376
0.0095639
0.00937651
0.00918574
0.00898287
0.00878714
0.00855667
0.00838104
0.0122885
0.0126041
0.0124491
0.0124211
0.0123936
0.0123479
0.012291
0.0122224
0.012144
0.0120576
0.0119644
0.0118655
0.0117615
0.0116527
0.0115394
0.0114217
0.0112996
0.011173
0.0110418
0.0109057
0.0107647
0.0106185
0.010467
0.01031
0.0101475
0.00997905
0.00980515
0.00962507
0.00943997
0.00924781
0.00905306
0.00884659
0.00864892
0.00841571
0.00824218
0.0122294
0.0125479
0.012417
0.0124017
0.0123818
0.0123398
0.012284
0.0122147
0.0121344
0.0120454
0.011949
0.0118463
0.0117381
0.0116249
0.0115069
0.0113841
0.0112568
0.0111247
0.0109879
0.010846
0.0106992
0.0105471
0.0103899
0.0102271
0.0100591
0.00988551
0.00970673
0.00952216
0.00933309
0.00913742
0.00893993
0.00873098
0.00853232
0.00829707
0.00812584
0.0121632
0.0124907
0.0123862
0.012385
0.0123733
0.0123352
0.0122803
0.0122103
0.0121282
0.0120365
0.011937
0.0118309
0.011719
0.0116017
0.0114795
0.0113523
0.0112204
0.0110835
0.0109418
0.010795
0.0106432
0.0104861
0.010324
0.0101565
0.0099839
0.00980594
0.00962317
0.00943497
0.00924273
0.00904431
0.00884475
0.00863396
0.00843478
0.00819807
0.00802923
0.0120993
0.0124391
0.012361
0.0123733
0.012369
0.0123338
0.0122794
0.0122085
0.0121245
0.0120304
0.0119282
0.011819
0.0117039
0.0115832
0.0114574
0.0113265
0.0111908
0.01105
0.0109042
0.0107534
0.0105975
0.0104365
0.0102704
0.0100992
0.00992302
0.00974175
0.00955597
0.00936511
0.00917063
0.00897033
0.00876948
0.00855757
0.00835838
0.00812069
0.00795421
0.0120204
0.0123853
0.012336
0.0123636
0.0123674
0.0123352
0.0122813
0.0122093
0.0121233
0.0120268
0.0119219
0.0118099
0.0116917
0.0115679
0.0114389
0.0113047
0.0111655
0.0110212
0.010872
0.0107176
0.0105582
0.0103937
0.0102243
0.0100498
0.00987068
0.00968665
0.0094984
0.00930539
0.00910915
0.00890743
0.00870568
0.00849301
0.00829408
0.00805573
0.00789162
0.0119433
0.0123374
0.0123163
0.0123587
0.0123695
0.0123393
0.0122851
0.0122117
0.0121238
0.0120249
0.0119175
0.0118028
0.011682
0.0115554
0.0114235
0.0112864
0.0111443
0.010997
0.0108447
0.0106874
0.010525
0.0103576
0.0101854
0.0100083
0.00982673
0.00964049
0.00945031
0.00925567
0.00905817
0.00885549
0.00865327
0.00844024
0.00824181
0.00800311
0.00784131
0.0118459
0.0122896
0.0122977
0.0123567
0.0123748
0.0123463
0.0122917
0.0122166
0.0121264
0.0120252
0.0119153
0.0117982
0.0116748
0.0115457
0.0114113
0.0112716
0.0111269
0.010977
0.0108221
0.0106621
0.0104973
0.0103274
0.0101529
0.00997357
0.00978995
0.00960192
0.0094102
0.00921432
0.0090159
0.0088126
0.00861019
0.0083971
0.00819937
0.00796063
0.00780105
0.0117486
0.0122498
0.0122839
0.0123587
0.0123827
0.0123548
0.0122992
0.0122223
0.01213
0.0120265
0.0119143
0.011795
0.0116694
0.0115381
0.0114014
0.0112596
0.0111126
0.0109606
0.0108035
0.0106414
0.0104744
0.0103026
0.0101261
0.00994501
0.00975979
0.00957035
0.00937747
0.00918068
0.00898166
0.00877807
0.00857572
0.00836286
0.00816591
0.00792741
0.00776977
0.0116319
0.0122156
0.0122739
0.0123658
0.012395
0.0123667
0.0123095
0.0122303
0.0121355
0.0120297
0.0119153
0.0117938
0.0116662
0.0115329
0.0113943
0.0112505
0.0111016
0.0109477
0.0107888
0.0106249
0.0104562
0.0102826
0.0101046
0.00992205
0.00973552
0.00954499
0.00935121
0.00915379
0.00895442
0.00875077
0.00854869
0.00833637
0.00814035
0.00790269
0.00774691
0.0115078
0.0121901
0.0122661
0.0123742
0.0124073
0.0123782
0.0123193
0.0122379
0.0121409
0.012033
0.0119166
0.0117933
0.011664
0.011529
0.0113888
0.0112435
0.0110931
0.0109376
0.0107772
0.0106119
0.0104417
0.0102669
0.0100876
0.00990397
0.00971646
0.00952511
0.0093307
0.00913288
0.00893334
0.00872984
0.00852815
0.00831661
0.00812134
0.00788482
0.00772968
0.0113736
0.0121775
0.0122664
0.0123907
0.0124251
0.0123936
0.0123319
0.0122477
0.0121482
0.0120381
0.0119198
0.0117947
0.0116638
0.0115273
0.0113857
0.011239
0.0110873
0.0109306
0.010769
0.0106025
0.0104312
0.0102553
0.0100751
0.00989058
0.00970231
0.00951036
0.0093155
0.00911746
0.0089179
0.00871472
0.00851357
0.00830318
0.00810887
0.00787505
0.00772057
0.0112222
0.0121722
0.0122629
0.0124039
0.0124397
0.0124061
0.0123421
0.0122555
0.0121539
0.0120421
0.0119223
0.0117959
0.0116637
0.0115262
0.0113836
0.0112359
0.0110832
0.0109256
0.0107631
0.0105958
0.0104238
0.0102471
0.0100662
0.00988109
0.00969232
0.00949998
0.00930484
0.00910672
0.00890722
0.00870446
0.00850379
0.00829475
0.00810061
0.00786958
0.00771054
0.0110755
0.0121882
0.0122732
0.0124269
0.0124596
0.0124223
0.0123551
0.0122656
0.0121618
0.0120481
0.0119268
0.0117991
0.0116659
0.0115273
0.0113839
0.0112353
0.011082
0.0109236
0.0107605
0.0105925
0.0104199
0.0102428
0.0100614
0.00987582
0.00968669
0.0094941
0.00929881
0.0091007
0.00890134
0.00869904
0.00849903
0.0082916
0.00809881
0.00787375
0.0077122
0.0109207
0.0121963
0.0122729
0.012443
0.0124739
0.012434
0.0123645
0.012273
0.0121677
0.0120528
0.0119307
0.0118022
0.0116683
0.0115292
0.0113852
0.0112362
0.0110824
0.0109235
0.01076
0.0105917
0.0104188
0.0102412
0.0100596
0.00987379
0.00968449
0.00949177
0.00929639
0.00909833
0.00889906
0.00869721
0.00849751
0.00829184
0.00809851
0.0078793
0.00770454
0.0108462
0.0122223
0.0122844
0.0124627
0.0124901
0.0124476
0.0123757
0.0122823
0.0121755
0.0120595
0.0119364
0.0118071
0.0116726
0.0115329
0.0113885
0.011239
0.0110849
0.0109258
0.010762
0.0105934
0.0104204
0.0102427
0.0100609
0.00987508
0.00968575
0.009493
0.00929768
0.00909966
0.0089006
0.00869895
0.00849992
0.00829512
0.00810618
0.00789174
0.00775236
0.0125399
0.0128779
0.0126393
0.0125636
0.0125056
0.0124423
0.0123802
0.0123155
0.0122479
0.0121779
0.0121056
0.0120316
0.0119557
0.0118784
0.0117995
0.011719
0.0116367
0.0115524
0.0114658
0.0113764
0.0112838
0.0111875
0.0110869
0.0109814
0.0108705
0.0107533
0.0106295
0.0104981
0.010359
0.010211
0.0100552
0.00988875
0.00971854
0.00953206
0.00936186
0.0125081
0.0128377
0.0126097
0.0125393
0.0124848
0.0124237
0.0123623
0.012297
0.0122278
0.0121553
0.0120798
0.0120018
0.0119214
0.0118388
0.0117542
0.0116674
0.0115783
0.0114867
0.0113923
0.0112947
0.0111936
0.0110884
0.0109788
0.010864
0.0107439
0.0106175
0.0104846
0.0103444
0.0101969
0.0100407
0.00987743
0.00970172
0.00952427
0.00931794
0.00914033
0.0124732
0.0127965
0.0125788
0.0125142
0.0124635
0.0124046
0.0123436
0.0122773
0.012206
0.0121304
0.012051
0.0119682
0.0118825
0.0117939
0.0117027
0.0116086
0.0115118
0.0114117
0.0113084
0.0112013
0.0110902
0.0109745
0.010854
0.010728
0.0105963
0.0104581
0.0103134
0.0101614
0.0100024
0.0098347
0.00966119
0.00947533
0.00929133
0.00907789
0.00890316
0.0124316
0.0127521
0.0125468
0.0124896
0.0124438
0.0123878
0.0123277
0.0122609
0.0121879
0.0121097
0.012027
0.0119402
0.0118498
0.0117561
0.0116591
0.0115589
0.0114554
0.0113484
0.0112376
0.0111228
0.0110036
0.0108797
0.0107508
0.0106163
0.0104761
0.0103296
0.0101767
0.0100168
0.00985043
0.00967569
0.00949586
0.00930339
0.00911433
0.00889262
0.00871491
0.0123929
0.0127049
0.0125148
0.0124659
0.0124253
0.0123722
0.012313
0.0122455
0.0121706
0.0120896
0.0120032
0.0119122
0.011817
0.0117179
0.0116151
0.0115085
0.0113983
0.0112841
0.0111658
0.0110431
0.0109158
0.0107834
0.0106459
0.0105027
0.0103539
0.0101987
0.0100374
0.00986924
0.00969505
0.00951291
0.00932657
0.00912798
0.00893494
0.00870862
0.0085326
0.0123429
0.0126544
0.0124819
0.0124428
0.0124085
0.0123589
0.0123009
0.0122329
0.0121563
0.0120726
0.0119829
0.0118879
0.0117882
0.0116843
0.0115762
0.011464
0.0113477
0.0112272
0.0111023
0.0109727
0.0108384
0.0106989
0.0105542
0.0104039
0.010248
0.0100859
0.00991813
0.00974379
0.00956393
0.00937656
0.00918577
0.00898293
0.00878718
0.00855678
0.00838124
0.0122915
0.012601
0.0124489
0.0124211
0.0123937
0.0123479
0.0122909
0.0122224
0.012144
0.0120576
0.0119644
0.0118655
0.0117615
0.0116527
0.0115394
0.0114217
0.0112996
0.011173
0.0110418
0.0109057
0.0107647
0.0106185
0.010467
0.01031
0.0101475
0.00997907
0.00980517
0.0096251
0.00943999
0.00924785
0.00905309
0.00884665
0.00864896
0.00841581
0.00824239
0.0122323
0.0125449
0.0124168
0.0124017
0.0123818
0.0123398
0.012284
0.0122147
0.0121344
0.0120453
0.0119489
0.0118463
0.0117381
0.0116249
0.0115069
0.0113841
0.0112568
0.0111247
0.0109879
0.010846
0.0106992
0.0105471
0.0103899
0.0102272
0.0100592
0.00988553
0.00970675
0.00952219
0.00933312
0.00913746
0.00893996
0.00873104
0.00853236
0.00829718
0.00812607
0.012166
0.0124878
0.012386
0.012385
0.0123733
0.0123352
0.0122803
0.0122103
0.0121282
0.0120365
0.011937
0.0118309
0.011719
0.0116017
0.0114795
0.0113523
0.0112204
0.0110835
0.0109418
0.010795
0.0106432
0.0104862
0.010324
0.0101565
0.00998391
0.00980596
0.00962318
0.00943499
0.00924275
0.00904435
0.00884477
0.00863401
0.00843481
0.00819817
0.00802945
0.012102
0.0124364
0.0123609
0.0123733
0.012369
0.0123338
0.0122794
0.0122085
0.0121245
0.0120304
0.0119282
0.011819
0.0117038
0.0115832
0.0114574
0.0113265
0.0111908
0.01105
0.0109042
0.0107534
0.0105975
0.0104365
0.0102704
0.0100992
0.00992303
0.00974177
0.00955599
0.00936514
0.00917065
0.00897037
0.00876951
0.00855762
0.00835841
0.0081208
0.00795444
0.012023
0.0123827
0.0123358
0.0123636
0.0123674
0.0123352
0.0122813
0.0122092
0.0121233
0.0120268
0.0119219
0.0118099
0.0116917
0.0115679
0.0114389
0.0113047
0.0111655
0.0110212
0.010872
0.0107176
0.0105582
0.0103937
0.0102243
0.0100498
0.00987068
0.00968666
0.00949841
0.00930541
0.00910917
0.00890746
0.0087057
0.00849307
0.0082941
0.00805584
0.00789186
0.0119457
0.0123349
0.0123161
0.0123587
0.0123695
0.0123393
0.0122851
0.0122117
0.0121237
0.0120249
0.0119175
0.0118028
0.0116819
0.0115554
0.0114235
0.0112864
0.0111443
0.010997
0.0108447
0.0106874
0.010525
0.0103576
0.0101854
0.0100083
0.00982673
0.0096405
0.00945032
0.00925569
0.00905818
0.00885552
0.00865329
0.00844029
0.00824184
0.00800321
0.00784156
0.0118482
0.0122873
0.0122975
0.0123567
0.0123749
0.0123463
0.0122916
0.0122166
0.0121264
0.0120252
0.0119153
0.0117982
0.0116748
0.0115457
0.0114113
0.0112716
0.0111268
0.010977
0.0108221
0.0106621
0.0104973
0.0103274
0.0101529
0.00997357
0.00978996
0.00960194
0.00941021
0.00921434
0.00901591
0.00881263
0.00861021
0.00839715
0.00819939
0.00796073
0.0078013
0.0117507
0.0122477
0.0122838
0.0123587
0.0123827
0.0123548
0.0122992
0.0122223
0.0121299
0.0120265
0.0119143
0.011795
0.0116694
0.0115381
0.0114014
0.0112596
0.0111126
0.0109606
0.0108035
0.0106414
0.0104744
0.0103026
0.0101261
0.00994501
0.00975979
0.00957036
0.00937747
0.0091807
0.00898168
0.0087781
0.00857574
0.00836291
0.00816593
0.00792752
0.00777002
0.0116339
0.0122136
0.0122739
0.0123658
0.012395
0.0123667
0.0123095
0.0122303
0.0121355
0.0120297
0.0119153
0.0117938
0.0116662
0.0115329
0.0113943
0.0112505
0.0111016
0.0109477
0.0107888
0.0106249
0.0104561
0.0102826
0.0101046
0.00992205
0.00973553
0.009545
0.00935122
0.00915381
0.00895443
0.0087508
0.00854871
0.00833642
0.00814037
0.0079028
0.00774716
0.0115096
0.0121884
0.012266
0.0123742
0.0124073
0.0123782
0.0123193
0.0122378
0.0121408
0.012033
0.0119166
0.0117933
0.0116639
0.011529
0.0113888
0.0112435
0.011093
0.0109376
0.0107772
0.0106119
0.0104417
0.0102669
0.0100876
0.00990398
0.00971646
0.00952512
0.00933071
0.0091329
0.00893336
0.00872987
0.00852817
0.00831666
0.00812136
0.00788494
0.00772994
0.0113751
0.0121761
0.0122664
0.0123907
0.0124252
0.0123936
0.0123319
0.0122477
0.0121482
0.0120381
0.0119198
0.0117947
0.0116637
0.0115273
0.0113857
0.011239
0.0110873
0.0109306
0.010769
0.0106025
0.0104312
0.0102553
0.0100751
0.00989059
0.00970232
0.00951038
0.00931552
0.00911749
0.00891793
0.00871476
0.00851359
0.00830324
0.0081089
0.00787518
0.00772083
0.0112235
0.012171
0.012263
0.012404
0.0124397
0.0124061
0.0123421
0.0122555
0.0121539
0.012042
0.0119223
0.0117959
0.0116637
0.0115262
0.0113836
0.0112359
0.0110832
0.0109256
0.0107631
0.0105958
0.0104238
0.0102471
0.0100662
0.00988112
0.00969234
0.00950002
0.00930487
0.00910677
0.00890726
0.00870452
0.00850383
0.00829482
0.00810065
0.0078697
0.00771076
0.0110768
0.0121875
0.0122733
0.0124269
0.0124597
0.0124223
0.012355
0.0122656
0.0121618
0.0120481
0.0119268
0.0117991
0.0116659
0.0115274
0.0113839
0.0112353
0.011082
0.0109236
0.0107605
0.0105926
0.01042
0.0102428
0.0100614
0.00987587
0.00968675
0.00949416
0.00929887
0.00910076
0.0089014
0.00869911
0.00849908
0.00829168
0.00809885
0.00787387
0.00771239
0.0109227
0.0121958
0.0122732
0.0124433
0.0124742
0.0124342
0.0123646
0.0122731
0.0121678
0.012053
0.0119308
0.0118023