/*--------------------------------*- C++ -*----------------------------------*\
  =========                 |
  \\      /  F ield         | OpenFOAM: The Open Source CFD Toolbox
   \\    /   O peration     | Website:  https://openfoam.org
    \\  /    A nd           | Version:  6
     \\/     M anipulation  |
\*---------------------------------------------------------------------------*/
FoamFile
{
    version     2.0;
    format      ascii;
    class       volScalarField;
    location    "24";
    object      yPlus;
}
// * * * * * * * * * * * * * * * * * * * * * * * * * * * * * * * * * * * * * //

dimensions      [0 0 0 0 0 0 0];

internalField   uniform 0;

boundaryField
{
    inlet
    {
        type            calculated;
        value           uniform 0;
    }
    outlet
    {
        type            calculated;
        value           uniform 0;
    }
    roughCylinder
    {
        type            calculated;
        value           nonuniform List<scalar> 
3840
(
14.2357
28.2861
39.7635
42.7997
45.5853
45.9593
46.534
46.043
46.1626
46.0319
46.1344
45.7194
45.6256
45.3334
43.8411
43.4123
42.179
44.3468
43.5563
41.6578
42.0065
41.2329
41.1743
40.5706
17.0356
27.9581
39.3175
42.5312
45.3849
45.7787
46.3756
46.1243
46.0852
45.943
45.9537
45.6669
45.547
45.1925
43.8663
43.5727
42.5627
44.7017
44.0792
42.3023
42.492
41.7148
41.5846
41.0233
12.2921
27.2992
38.8477
42.2098
45.0211
45.5684
46.2442
45.8669
46.1379
46.1652
46.351
45.9635
45.7776
45.3623
44.1915
43.839
42.8635
44.8381
44.3053
42.6002
42.8013
42.231
42.1652
41.7053
6.5938
26.6501
38.3155
41.8766
44.8173
45.4402
46.1298
46.091
46.264
46.2028
46.238
45.9678
45.8481
45.3621
44.3684
44.0666
43.395
45.2443
44.8488
43.2857
43.4054
42.8058
42.6645
42.2333
10.8404
26.0253
37.748
41.5292
44.4373
45.2511
46.1254
45.9685
46.395
46.5213
46.6935
46.3681
46.2205
45.7008
44.8512
44.4746
43.8851
45.4692
45.0966
43.6184
43.7973
43.3622
43.2937
42.9494
10.0946
25.0881
37.0726
41.1111
44.2219
45.1821
46.0415
46.2611
46.6436
46.6114
46.6248
46.4246
46.4019
45.8112
45.1128
44.7836
44.5061
45.9317
45.6368
44.3277
44.4994
44.0035
43.8623
43.526
11.6782
24.4778
36.3573
40.7108
43.8266
44.9872
46.1165
46.2283
46.7711
46.9522
47.1208
46.9033
46.8328
46.2391
45.6731
45.3159
45.0858
46.2373
45.9068
44.6785
44.9373
44.5706
44.5133
44.255
11.0111
23.2268
35.4635
40.1446
43.565
44.9558
46.0368
46.5132
47.0642
47.0405
47.0778
46.9799
47.0376
46.3912
45.9626
45.6693
45.6864
46.7401
46.4623
45.4074
45.6992
45.2555
45.1324
44.861
13.3495
22.2981
34.5117
39.6238
43.1115
44.7095
46.1281
46.5124
47.1263
47.3659
47.5891
47.4954
47.4632
46.8572
46.5618
46.2741
46.271
47.1056
46.7714
45.7666
46.1444
45.81
45.7767
45.5827
12.4874
20.9764
33.2902
38.7745
42.7195
44.6527
45.9968
46.7161
47.4089
47.4205
47.5401
47.5466
47.642
47.0246
46.8465
46.6118
46.7821
47.6142
47.3488
46.5017
46.9177
46.5061
46.4131
46.1851
13.9015
19.5701
31.9948
38.0197
42.0893
44.2551
46.0173
46.6796
47.3558
47.705
48.0381
48.0598
48.0384
47.5061
47.4461
47.2242
47.3285
47.9897
47.6739
46.8379
47.3137
47.005
47.0047
46.8623
16.36
18.4342
30.214
36.6309
41.4017
44.0541
45.7422
46.7281
47.5879
47.6919
47.9367
48.0479
48.1709
47.6683
47.6785
47.4871
47.7204
48.4491
48.2402
47.5533
48.048
47.6711
47.6099
47.4139
18.4331
17.1872
28.5712
35.4661
40.3499
43.3166
45.5772
46.5858
47.3644
47.8992
48.3859
48.5236
48.527
48.1365
48.2312
48.062
48.2176
48.7701
48.5138
47.8127
48.3175
48.043
48.0785
47.98
20.1674
16.1613
25.786
33.0669
39.0665
42.7622
44.9998
46.3842
47.5123
47.7609
48.1527
48.3901
48.5723
48.2385
48.3473
48.1944
48.4574
49.1069
48.9935
48.4612
48.949
48.6258
48.5943
48.4306
23.1917
14.9451
23.9755
31.2665
37.0773
41.3039
44.4531
46.0293
47.0384
47.8579
48.528
48.7738
48.8398
48.6244
48.7921
48.6867
48.8837
49.3167
49.147
48.5918
49.0434
48.8251
48.9019
48.842
25.8463
15.6629
19.6896
26.9637
34.677
39.979
43.2341
45.365
47.0278
47.5202
48.0873
48.4761
48.7446
48.5865
48.7379
48.6583
48.9593
49.4984
49.5019
49.164
49.5597
49.3081
49.275
49.1469
27.9001
13.6289
17.6016
24.207
30.4562
36.8808
41.8578
44.5517
46.0723
47.4341
48.3741
48.7383
48.8989
48.8585
49.0683
49.0683
49.3129
49.5437
49.4178
49.0665
49.3231
49.179
49.2901
49.2686
29.2472
16.2752
11.8867
14.6973
25.4549
33.678
39.1425
42.8897
45.705
46.6355
47.4909
48.1293
48.5468
48.5849
48.7554
48.7598
49.0771
49.4376
49.5321
49.4821
49.647
49.4919
49.3816
49.2876
29.7488
12.93
12.547
5.50901
13.1694
25.3649
35.5103
41.0216
43.6804
46.1457
47.5942
48.1339
48.4537
48.6195
48.8916
49.0239
49.2767
49.1777
48.9572
48.8098
48.6069
48.5147
48.62
48.6155
28.9189
14.8098
12.9254
7.17344
6.90598
16.8193
28.2961
36.7543
42.5529
44.2823
45.6628
46.7941
47.485
47.7584
47.9448
47.9836
48.2058
48.2927
48.3953
48.6979
48.4101
48.3563
47.9447
47.8869
27.9373
11.4644
8.81013
7.84567
7.45031
5.75982
17.9407
32.3109
37.7996
42.8872
45.3882
46.1536
46.726
47.1409
47.5215
47.7957
47.9225
47.2157
46.5655
46.347
45.0154
44.7666
44.7422
44.5849
25.8388
11.7929
5.36026
10.2223
9.63701
13.4873
13.9487
18.7086
35.3123
38.2643
40.562
42.9042
44.1488
44.7042
44.7821
44.5755
44.2243
43.8724
43.8263
44.45
43.2604
43.2245
41.5164
41.5036
23.1844
10.0014
10.4693
8.89301
11.6549
10.093
6.6832
15.5503
20.8784
33.9059
39.692
40.4901
41.4204
42.0979
42.5775
42.9697
42.5406
39.6935
36.9917
33.9294
25.804
20.1071
16.2299
7.39746
18.7053
6.2261
8.39113
6.13281
11.503
11.3659
12.508
14.6769
15.9942
15.6021
14.5852
28.097
32.1807
33.0288
31.3921
27.3313
18.6157
17.934
14.015
5.08867
18.6737
9.36055
18.0041
17.2766
11.8212
7.5666
9.21037
13.401
20.6581
22.4051
18.746
15.5062
12.6493
15.3455
14.9345
7.07313
7.07555
16.4192
6.78085
14.0599
17.6988
8.03296
9.82755
9.88105
18.4307
12.4785
14.5458
16.0505
8.24292
11.1952
10.9257
13.9836
22.7084
27.2683
28.1391
26.4052
15.4701
17.4224
16.795
8.01557
5.90965
3.62058
8.48332
17.5738
15.7969
8.79411
13.02
11.4435
16.945
20.6763
22.5405
23.7633
11.3804
14.4507
12.2203
12.7626
21.1046
27.2
29.7863
28.1968
24.8657
23.4269
21.4179
16.4897
11.0228
19.0627
9.48103
14.4995
19.1583
22.1893
24.5038
27.1055
27.3045
27.2976
27.1399
26.9666
12.6182
18.3945
17.7397
16.7668
21.3944
26.6885
29.5881
28.7227
25.6137
24.0096
24.9283
26.2006
26.2237
26.1201
25.8896
26.3124
26.3992
26.797
27.0115
27.7
27.9991
27.9653
27.5721
27.187
11.97
19.9154
21.6802
21.8716
23.8808
27.0102
28.6038
27.2076
23.2702
21.7176
23.0549
25.6729
26.1886
26.0814
26.2515
26.5865
26.756
27.02
27.0662
27.3095
26.0045
24.7498
23.338
22.2103
11.021
19.7458
22.7535
24.17
25.341
26.5258
26.2536
22.6178
12.291
10.7895
4.66524
19.6333
24.0243
25.3265
25.2658
24.6066
23.5987
22.9835
22.2786
22.1874
21.2875
20.7259
20.1739
19.8237
7.64277
17.4339
21.4375
23.7529
24.9397
25.1843
23.8191
19.418
12.7739
12.9978
14.79
12.4003
16.2075
18.9999
19.8117
19.8473
19.932
20.387
20.9185
21.3626
21.3166
20.9312
20.3252
19.881
4.13493
13.3501
18.1848
21.4113
23.0534
23.1993
21.5122
17.213
12.346
11.2651
11.5304
16.9372
18.7731
19.6759
20.2122
20.4907
20.5904
20.6176
20.5635
20.513
20.1339
19.7825
19.4037
19.1541
2.8805
10.9993
13.5921
17.1285
19.2491
19.4579
17.4602
13.461
11.4884
11.5294
13.7074
14.6533
16.9903
18.6864
19.3062
19.3622
19.4025
19.5869
19.8014
20.0033
19.927
19.6958
19.4002
19.2063
2.25313
7.51108
10.2725
11.5274
12.9257
13.2513
12.4188
11.3302
11.457
11.6819
13.1516
15.6476
17.2789
18.3778
18.9741
19.2297
19.3874
19.5808
19.8733
20.184
20.3155
20.2744
20.1075
19.975
2.73367
8.12014
10.0191
11.2972
11.8429
12.9072
13.3458
12.2275
11.609
12.9964
14.9742
16.2999
17.5159
18.4817
19.1097
19.5273
19.8939
20.27
20.673
21.0331
21.2104
21.1776
21.0189
20.885
2.82873
8.26505
10.5655
11.9613
13.4916
14.2404
13.5081
11.9401
12.6
14.2644
15.7468
17.2042
18.4267
19.3411
19.9685
20.4253
20.8304
21.2412
21.686
22.0905
22.3354
22.3476
22.2096
22.0748
2.49798
7.54923
9.81289
11.5962
12.9162
13.1965
12.1521
12.3562
13.9741
15.675
17.1897
18.4293
19.465
20.3108
20.9712
21.5156
22.0282
22.5342
23.0379
23.4694
23.7412
23.7706
23.6361
23.4903
2.33265
7.35702
9.47679
11.3603
12.0538
11.9702
12.0983
13.6775
15.5309
17.1176
18.4782
19.6883
20.7398
21.604
22.3039
22.9109
23.5003
24.0916
24.6674
25.1465
25.452
25.4919
25.3507
25.1855
2.22383
7.58083
9.51834
10.9408
11.526
11.7539
13.3769
15.3823
17.1327
18.6547
20.0039
21.1887
22.2147
23.0992
23.8678
24.5695
25.2544
25.9334
26.5767
27.0976
27.4298
27.4764
27.3222
27.1338
2.14604
7.91653
9.77792
10.7208
11.5898
13.2523
15.2701
17.1206
18.7709
20.2571
21.5893
22.7858
23.8544
24.8008
25.6498
26.4452
27.2258
27.9941
28.7093
29.2795
29.6401
29.6934
29.5241
29.3112
2.14987
2.45976
2.82411
2.87521
2.93473
2.99747
3.14391
3.47254
4.06852
4.62251
5.11208
5.49932
5.81345
6.08294
6.2511
6.34283
6.42391
6.51573
6.62725
6.76197
6.92101
7.0864
7.20887
7.32239
7.42678
7.506
7.53892
7.50368
7.37403
7.1385
6.77888
6.31791
5.78117
5.09141
4.50586
4.08753
3.75894
3.48889
3.13417
2.64545
9.37577
10.1805
11.0278
11.3544
11.549
11.6131
11.4387
11.6493
12.1597
12.6351
13.0126
13.2612
13.4334
13.554
13.6624
13.7705
13.8701
13.9579
14.0334
14.0964
14.1464
14.1846
14.2217
14.2495
14.2468
14.2097
14.1378
14.0288
13.8752
13.6762
13.4191
13.088
12.7579
12.184
11.6244
11.5233
11.5074
11.3599
10.9762
9.6642
11.3946
11.4703
11.525
12.1683
12.8287
13.462
14.0683
14.6325
15.1428
15.5261
15.8294
16.0695
16.2716
16.4352
16.5896
16.7396
16.8734
16.9851
17.073
17.1368
17.1764
17.1949
17.2032
17.1892
17.1438
17.0638
16.9443
16.7784
16.5655
16.3022
15.9882
15.6076
15.1897
14.666
14.0624
13.4574
12.8737
12.1074
11.5538
11.2114
11.8723
12.5348
13.3957
14.285
15.1315
15.8636
16.5024
17.0462
17.4934
17.866
18.1945
18.5008
18.7902
19.0493
19.2826
19.4874
19.6615
19.8012
19.9054
19.9745
20.0091
20.01
19.9766
19.9059
19.8032
19.6654
19.4871
19.2626
18.9896
18.6618
18.28
17.834
17.3333
16.7545
16.0987
15.3641
14.5577
13.6372
12.5964
11.794
13.8028
14.7961
15.7995
16.6853
17.4671
18.1498
18.7225
19.2199
19.6516
20.0534
20.435
20.7882
21.1205
21.4224
21.6954
21.934
22.1345
22.2926
22.4065
22.4765
22.504
22.4901
22.4341
22.3342
22.1894
21.999
21.764
21.4849
21.1594
20.7827
20.3526
19.8627
19.3144
18.6952
18.0092
17.2324
16.3855
15.4011
14.3334
13.1121
16.2466
17.2549
18.106
18.9203
19.5774
20.191
20.697
21.1755
21.6213
22.0472
22.454
22.8356
23.1972
23.53
23.8325
24.0976
24.3193
24.4917
24.6124
24.6819
24.7025
24.6755
24.6003
24.4753
24.3
24.0745
23.7993
23.475
23.1021
22.6816
22.2116
21.6875
21.1073
20.465
19.7602
18.9812
18.1285
17.1879
16.0996
15.0296
18.6046
19.3794
20.1483
20.8396
21.4115
21.9637
22.4452
22.9268
23.3812
23.8211
24.2465
24.6522
25.0393
25.3996
25.7282
26.0166
26.2564
26.4403
26.5655
26.6339
26.6491
26.6131
26.5242
26.3808
26.1822
25.9293
25.6239
25.2678
24.8626
24.4091
23.9069
23.3555
22.7526
22.0958
21.3805
20.6084
19.765
18.8701
17.8395
16.842
20.5651
21.1531
21.8882
22.4556
22.9996
23.5127
23.9967
24.474
24.9357
25.3879
25.8302
26.2576
26.6677
27.0523
27.4038
27.7121
27.9665
28.1575
28.2828
28.3483
28.3602
28.3211
28.227
28.0744
27.8624
27.5923
27.2667
26.8888
26.4612
25.9861
25.4643
24.8961
24.2797
23.6156
22.8974
22.134
21.3053
20.448
19.4788
18.5511
22.126
22.6483
23.3327
23.8395
24.3789
24.8678
25.3539
25.8284
26.2987
26.7629
27.2213
27.6683
28.0991
28.5052
28.8769
29.2016
29.4651
29.6548
29.7726
29.8319
29.8434
29.8095
29.7216
29.5721
29.3585
29.0826
28.7478
28.3587
27.9187
27.4315
26.8986
26.3217
25.6995
25.0342
24.3185
23.5652
22.7511
21.9274
20.9971
20.1487
23.3882
23.891
24.5434
25.0339
25.563
26.043
26.532
27.0098
27.4904
27.9679
28.4426
28.9082
29.3589
29.7849
30.1747
30.5123
30.7779
30.9566
31.0623
31.1145
31.1257
31.1003
31.0314
30.899
30.6971
30.4271
30.0938
29.7031
29.2598
28.7683
28.2312
27.6512
27.0275
26.3633
25.6511
24.9055
24.1015
23.302
22.3966
21.6097
24.4366
24.9147
25.5665
26.0521
26.5814
27.0644
27.5614
28.0494
28.5436
29.0369
29.5294
30.0144
30.485
30.931
31.3385
31.688
31.9529
32.1208
32.2158
32.2622
32.2739
32.2567
32.2078
32.1021
31.9221
31.6676
31.3444
30.9596
30.5194
30.0289
29.492
28.9116
28.2876
27.6235
26.9117
26.1681
25.3666
24.5785
23.6833
22.939
25.2834
25.7721
26.4328
26.9358
27.4745
27.9733
28.4846
28.99
29.502
30.0146
30.5271
31.0329
31.5246
31.9914
32.4184
32.7827
33.0536
33.2167
33.3041
33.3461
33.359
33.3497
33.3177
33.242
33.0891
32.8555
32.5474
32.173
31.7393
31.2524
30.7166
30.1352
29.5087
28.8404
28.1228
27.3726
26.5633
25.7723
24.8722
24.1474
25.984
26.5128
27.1942
27.7324
28.2929
28.8166
29.3496
29.8779
30.4118
30.9467
31.4811
32.0088
32.5227
33.0114
33.46
33.845
34.1339
34.3035
34.3886
34.4277
34.4417
34.4399
34.423
34.3743
34.2479
34.0367
33.7455
33.3826
32.9559
32.4718
31.9354
31.35
30.7161
30.0371
29.3053
28.5377
27.7085
26.8977
25.9769
25.2452
26.6224
27.1796
27.9043
28.4851
29.0816
29.6361
30.1971
30.7516
31.3102
31.8685
32.4255
32.9753
33.5106
34.0211
34.4922
34.9021
35.22
35.4123
35.5038
35.5422
35.557
35.5614
35.5575
35.5305
35.4276
35.2371
34.9617
34.6094
34.1881
33.7047
33.164
32.5699
31.9228
31.2256
30.4708
29.6749
28.8134
27.9667
27.0078
26.2461
27.2303
27.8164
28.5933
29.2242
29.8653
30.4563
31.0484
31.631
32.2147
32.796
33.3742
33.944
34.4987
35.0288
35.5207
35.9558
36.3063
36.5388
36.6498
36.6928
36.7089
36.7179
36.7249
36.7145
36.6304
36.4571
36.1949
35.851
35.4328
34.9473
34.3992
33.7923
33.127
32.4061
31.6218
30.7896
29.8865
28.9925
27.9816
27.1723
27.8124
28.435
29.2649
29.9504
30.641
31.2726
31.897
32.5078
33.1155
33.7178
34.3147
34.9014
35.4722
36.0182
36.5277
36.9847
37.3664
37.6446
37.7959
37.8552
37.876
37.8892
37.9048
37.9049
37.8336
37.6728
37.4207
37.083
36.6666
36.1776
35.6207
34.9997
34.3149
33.5685
32.7529
31.8822
30.9347
29.9896
28.9214
28.0559
28.3492
29.0115
29.8924
30.6325
31.3749
32.0496
32.707
33.345
33.9751
34.596
35.2085
35.8089
36.392
36.9501
37.4732
37.9479
38.3559
38.6745
38.8834
38.9813
39.019
39.0401
39.0621
39.0636
38.9971
38.8432
38.5981
38.2656
37.851
37.3597
36.7957
36.1626
35.4607
34.6918
33.8486
32.9437
31.9558
30.964
29.8421
28.9222
28.8024
29.4996
30.4257
31.216
32.009
32.7289
33.4197
34.0837
34.7346
35.3722
35.998
36.6092
37.2017
37.7689
38.3023
38.7907
39.2197
39.5716
39.8298
39.9932
40.0777
40.1219
40.1492
40.1405
40.069
39.9161
39.6755
39.3479
38.9366
38.4458
37.8786
37.238
36.5242
35.7393
34.8754
33.9444
32.9254
31.8963
30.7305
29.7656
29.1296
29.8503
30.8097
31.6416
32.4805
33.246
33.9716
34.6611
35.3318
35.9846
36.622
37.2423
37.8424
38.4169
38.9586
39.4586
39.9055
40.2856
40.584
40.7943
40.9311
41.0147
41.0554
41.0495
40.9784
40.8284
40.593
40.2716
39.8661
39.3789
38.8126
38.1694
37.4494
36.6544
35.7771
34.8282
33.7877
32.7322
31.5355
30.5386
29.2775
30.0086
30.9885
31.852
32.7293
33.5396
34.3032
35.0201
35.7102
36.3781
37.0265
37.6551
38.2618
38.8422
39.3907
39.9002
40.3619
40.7659
41.1011
41.3589
41.5403
41.6566
41.7178
41.7224
41.6577
41.5137
41.2857
40.972
40.5735
40.0915
39.5279
38.8842
38.1606
37.3588
36.4723
35.511
34.4561
33.3822
32.1653
31.148
29.1603
29.9017
30.8992
31.792
32.7051
33.5606
34.3694
35.1202
35.833
36.5169
37.1766
37.8128
38.4247
39.0091
39.5615
40.0763
40.5468
40.9656
41.3251
41.6198
41.8495
42.0115
42.1013
42.1173
42.0566
41.9159
41.6924
41.3848
40.9926
40.5163
39.9568
39.315
38.5911
37.7866
36.896
35.9288
34.867
33.7839
32.5575
31.5307
28.8052
29.5443
30.5472
31.459
32.3984
33.291
34.144
34.9355
35.6756
36.3776
37.0498
37.6944
38.3116
38.8997
39.4551
39.9732
40.4482
40.8738
41.2435
41.5517
41.7979
41.9794
42.0899
42.1248
42.0803
41.9535
41.7425
41.446
41.0638
40.5958
40.0426
39.4045
38.6818
37.8761
36.9827
36.0108
34.9446
33.8542
32.6233
31.5913
28.281
29.0141
30.0167
30.9414
31.8991
32.8191
33.7065
34.5367
35.3074
36.028
36.7122
37.364
37.9851
38.5749
39.1307
39.6487
40.124
40.5508
40.9233
41.2358
41.4876
41.6759
41.7948
41.8393
41.8055
41.6899
41.4901
41.2045
40.8322
40.3731
39.8268
39.1942
38.4752
37.6716
36.7798
35.8094
34.7462
33.6585
32.4347
31.4101
27.8651
28.5958
29.5964
30.5267
31.4926
32.4254
33.3292
34.1798
34.9697
35.7019
36.3917
37.0459
37.6669
38.2548
38.8077
39.3225
39.7947
40.219
40.5899
40.9022
41.1543
41.3439
41.4653
41.5135
41.4844
41.3742
41.1804
40.9011
40.5349
40.0812
39.54
38.9114
38.1959
37.3952
36.5068
35.5401
34.483
33.402
32.1897
31.1774
7.60088
27.9525
39.1348
42.1447
44.927
45.3497
46.138
46.1315
46.3354
45.9474
45.7585
45.8045
45.6095
45.1922
43.8498
42.9324
41.8061
41.8486
43.0372
42.4574
41.5876
41.4968
40.9899
40.1467
15.634
27.0774
38.6786
41.9021
44.7357
45.319
46.2134
46.0184
46.2526
45.866
45.6529
45.7581
45.6606
45.241
43.9083
43.3735
42.1717
42.439
43.6273
42.5619
41.9847
41.8174
41.3563
40.5801
15.5759
26.713
38.23
41.6652
44.5598
45.2088
45.9461
45.9423
46.139
45.8488
45.8724
45.9476
45.8462
45.3358
43.9847
43.611
42.3695
42.8884
44.054
42.6956
42.555
42.3877
41.9859
41.2796
11.3067
25.6815
37.6279
41.3357
44.2697
45.0379
46.0237
45.9215
46.2229
45.9863
45.8927
45.9463
45.8669
45.4283
44.2265
44.0554
42.8564
43.5006
44.5566
42.8855
43.0553
42.7702
42.4283
41.7905
13.8773
24.7981
37.0599
41.0077
44.0165
44.9646
45.7602
45.9153
46.2456
46.0288
46.1489
46.1897
46.0765
45.5969
44.4696
44.3033
43.1866
43.9621
44.935
43.1738
43.723
43.406
43.1227
42.5503
13.829
23.9101
36.2502
40.5508
43.676
44.6971
45.8725
45.9989
46.426
46.3203
46.298
46.261
46.1476
45.7905
44.8772
44.7695
43.7746
44.5724
45.3965
43.4937
44.2716
43.8393
43.6151
43.1092
11.3991
22.2833
35.4332
40.0981
43.3372
44.7028
45.6588
46.0397
46.5256
46.3727
46.5473
46.5503
46.4311
46.07
45.2455
45.0445
44.1911
45.0272
45.7689
43.942
44.9792
44.5246
44.3482
43.9036
6.34618
21.8028
34.3601
39.4527
42.9777
44.3503
45.7753
46.1675
46.7106
46.7402
46.7942
46.6981
46.5911
46.375
45.7617
45.5432
44.8354
45.6351
46.2289
44.3912
45.53
44.9928
44.8638
44.4825
13.4006
18.9188
33.0899
38.7582
42.4424
44.3749
45.5646
46.1858
46.8228
46.7575
46.9794
46.9953
46.939
46.7367
46.1782
45.8395
45.2896
46.0783
46.6185
44.9691
46.2335
45.7041
45.6058
45.2817
10.7008
18.7772
31.589
37.7229
41.9826
43.8533
45.6
46.2704
46.9271
47.1218
47.2779
47.1905
47.1546
47.0917
46.7097
46.355
45.9461
46.6737
47.0727
45.4998
46.7372
46.1672
46.1003
45.8356
11.2509
14.2734
29.5517
36.5231
40.965
43.7233
45.2612
46.1735
46.9895
47.0534
47.3423
47.437
47.5002
47.442
47.0712
46.6365
46.3797
47.0712
47.4514
46.1416
47.3902
46.8611
46.81
46.5974
12.5872
14.7764
27.262
34.6667
40.1979
42.8347
45.1083
46.1236
46.9305
47.3393
47.6445
47.637
47.7036
47.7551
47.5295
47.1399
47.0029
47.6215
47.8568
46.6751
47.7853
47.2501
47.2153
47.0579
13.4251
6.87479
24.0126
32.5352
38.1187
42.2635
44.3939
45.784
46.8857
47.1282
47.521
47.7565
47.9602
47.9972
47.7559
47.3565
47.3435
47.9041
48.1535
47.2843
48.3251
47.8574
47.8298
47.7186
14.0873
12.9353
20.3463
28.9109
36.6653
40.5239
43.8882
45.4696
46.5619
47.2776
47.7871
47.9003
48.0658
48.1787
48.0743
47.7985
47.8718
48.348
48.4418
47.7053
48.559
48.1062
48.0912
48.0328
15.3057
4.96661
14.6771
25.17
32.0119
39.011
42.2486
44.6141
46.3084
46.8648
47.419
47.8271
48.1531
48.2378
48.1079
47.8817
48.055
48.4656
48.6132
48.2195
48.9697
48.6003
48.5895
48.5702
15.6091
10.3128
2.38338
15.6211
29.2084
34.9024
41.0011
43.7446
45.472
46.7693
47.6162
47.8925
48.1352
48.2692
48.2891
48.2479
48.4775
48.7875
48.7435
48.4348
48.9331
48.5876
48.5847
48.6115
14.4675
8.55737
11.3291
12.3393
11.1416
30.668
36.7128
41.6751
44.7563
45.9297
46.8325
47.511
47.9797
48.1148
48.1103
48.1193
48.3895
48.5862
48.6391
48.6976
49.1189
48.8657
48.8655
48.9228
11.5539
11.7298
10.9081
11.3727
12.7828
14.563
33.6025
39.4299
42.763
45.311
46.793
47.3412
47.7031
47.8909
48.0681
48.2853
48.6062
48.6909
48.4976
48.4346
48.4986
48.2153
48.1968
48.2756
11.2588
4.30169
11.5164
7.70557
12.4601
13.0706
12.0035
33.9236
41.0588
43.4649
45.0708
46.2773
47.0246
47.3125
47.441
47.5928
47.8281
47.6623
47.6039
47.9571
48.0552
47.8841
47.868
47.9597
10.9179
2.97493
11.3733
5.31709
10.1812
13.2104
15.527
27.7529
35.9348
41.6771
44.4582
45.4421
46.0554
46.4151
46.7778
47.1302
47.4454
47.1688
46.7506
46.3936
45.76
45.3321
45.1591
45.1546
9.5036
8.6202
12.8107
11.708
8.61573
10.5414
5.80216
2.01814
33.2409
37.1408
40.0731
42.5695
43.9941
44.6833
44.8363
44.732
44.5656
43.5227
43.2176
43.5889
43.3056
43.0699
42.8835
42.8372
11.1674
9.80537
9.57039
5.06103
5.56346
8.11596
9.72537
6.82137
11.1398
31.3857
38.2416
39.7839
40.897
41.5741
42.106
42.2209
42.282
41.2412
40.141
36.7372
32.544
29.5325
27.0412
24.8029
5.95531
4.10272
6.95203
15.7292
22.6117
18.8932
8.37197
10.9328
6.72054
17.2171
11.696
27.7664
33.0517
35.3971
34.289
30.9012
26.0609
15.3296
3.26165
7.01498
12.9351
16.6939
19.2449
18.4284
4.58046
8.43592
10.5291
13.6496
19.801
23.8526
24.579
13.9758
16.0257
14.7788
14.7841
7.21597
7.24887
19.1856
7.73598
15.1938
18.4092
17.4661
5.87561
9.4624
15.2396
12.4289
12.5535
7.45662
10.6493
16.1003
16.6796
17.3233
20.1727
23.5078
24.0964
23.9773
17.7485
13.6969
6.38214
17.0668
7.74934
11.603
15.9581
17.2924
12.8169
15.587
11.7747
13.6856
11.7685
17.1967
19.5439
20.8866
13.3438
21.1077
23.6009
24.8646
25.949
27.0696
27.3355
25.6999
24.1307
24.3925
24.4959
21.1875
13.9129
10.037
10.7303
13.2536
17.5863
20.9902
24.1357
25.6871
27.849
27.9643
27.6977
27.5833
12.1708
21.3106
25.0031
27.2897
28.4331
28.7592
28.1362
26.4749
24.535
25.3541
26.8634
27.5699
27.4554
26.6078
26.2403
27.0889
27.3899
27.7737
27.6664
28.1941
27.9604
27.8354
27.5807
27.3917
9.67044
19.4044
23.6042
26.3682
27.7553
27.7121
26.0657
21.9846
18.1386
20.6134
24.4364
26.6744
26.8008
26.7651
26.7789
26.4823
26.7987
27.2225
27.1635
27.4606
26.8348
25.7088
24.4836
23.6652
6.74064
16.0379
20.4037
23.3007
24.6462
23.9904
20.4929
11.7332
9.41251
7.29371
8.33183
17.706
22.94
24.9355
25.1663
24.865
23.9211
22.9581
21.8955
22.043
21.2582
20.2025
19.5169
19.0355
4.9646
12.9616
16.8883
19.4684
20.4587
19.2381
14.7725
9.14892
10.0534
13.0493
16.1142
13.8073
14.2649
17.3559
18.9654
18.9661
18.9904
19.3464
20.1021
20.8479
21.1029
20.918
20.5022
20.1749
4.50567
11.8277
15.1196
17.3139
18.1427
17.3235
15.0098
13.3077
12.4295
11.8069
12.9487
18.2895
20.377
20.2108
20.2569
20.623
20.7626
20.6918
20.4755
20.4421
19.927
19.2454
18.7688
18.3614
4.34876
11.6295
14.9511
17.2874
18.4825
18.4707
17.1575
14.3631
12.1846
12.8096
13.5044
12.5109
14.8474
17.7616
18.922
18.9498
18.6862
18.5105
18.7182
19.0415
19.0541
18.9228
18.6929
18.4893
4.18872
11.5366
14.9331
17.4686
18.8786
18.8157
16.5249
12.8562
12.4197
13.2338
15.1635
17.2627
17.8007
17.8495
18.1956
18.5742
18.866
19.1537
19.3328
19.4469
19.3288
19.1104
18.8636
18.5984
4.2895
11.5465
14.6684
17.217
18.4584
17.9233
14.9117
12.9923
13.379
14.543
14.923
15.3118
16.8668
18.228
18.8784
19.0901
19.1631
19.2719
19.5119
19.7498
19.7653
19.656
19.4405
19.2172
4.19754
10.9645
13.7399
15.9879
16.5199
15.0919
12.1045
12.5739
14.1423
15.2717
16.763
17.966
18.3381
18.7175
19.183
19.5646
19.8834
20.1781
20.4147
20.5757
20.5127
20.3382
20.0709
19.8038
4.46239
11.6022
13.539
14.3292
13.1116
11.4691
11.9966
13.8723
15.2817
16.588
17.35
18.0243
19.0334
19.8214
20.3173
20.6313
20.8553
21.0595
21.2859
21.4582
21.407
21.2262
20.9315
20.6531
3.50843
10.9003
11.6746
11.5321
11.34
11.8529
13.6382
15.0256
16.5659
17.8446
18.9936
19.821
20.2897
20.7768
21.2559
21.6564
21.9963
22.2963
22.5414
22.6891
22.6055
22.376
22.0231
21.7095
2.01666
8.67613
11.4783
11.8045
11.8243
12.3392
13.9118
16.1306
17.9247
19.2458
20.152
20.8994
21.6357
22.2236
22.6991
23.1041
23.4516
23.7456
23.9878
24.1238
24.0218
23.7528
23.3485
23.0057
1.46037
7.80763
11.3353
11.561
11.556
13.2026
15.8032
17.8495
19.4247
20.6973
21.7351
22.5189
23.1036
23.6503
24.1668
24.6376
25.0563
25.4105
25.6764
25.8062
25.6885
25.3788
24.9217
24.5475
1.82077
8.95602
11.5245
11.5552
12.6289
14.9897
17.2428
19.2318
20.9002
22.2113
23.2058
24.0247
24.729
25.3298
25.8788
26.3958
26.8672
27.263
27.5536
27.6872
27.5633
27.2225
26.7222
26.3215
5.17823
13.0418
16.4838
8.04317
5.82419
13.808
13.412
11.7611
11.77
11.952
12.2849
9.93842
9.46808
5.41024
4.41162
3.77869
3.0584
6.38449
1.4554
5.65312
0.927013
6.08113
2.45563
7.04959
4.60361
8.12078
8.7797
9.45987
5.01419
5.75517
8.63112
13.0248
6.11561
13.2309
13.0216
9.96907
7.0497
11.9807
15.3184
9.99623
27.6052
25.7469
25.1887
23.1466
22.5024
20.2087
19.744
17.1766
16.6518
14.4986
14.1363
12.4887
12.2494
11.4673
11.3359
11.3235
10.1252
9.19024
8.32699
6.97079
8.0746
8.55402
9.09274
10.8849
11.2524
11.5715
11.5611
12.5433
12.8581
14.2854
14.8762
16.8044
17.4452
19.7873
20.4536
22.8847
23.4364
25.6066
26.1339
28.4543
39.0004
37.5365
36.7674
35.3961
34.6058
33.3492
32.416
31.2677
30.2115
29.2025
28.1182
27.3735
26.2486
25.734
24.8131
24.5631
24.1124
23.8547
23.8147
23.5141
23.4985
23.6492
23.9608
24.1199
24.7767
25.4341
25.9871
26.6734
27.4757
28.3917
29.2722
30.2507
31.1524
32.3343
33.3259
34.6618
35.6681
37.1285
38.0672
39.5709
41.7314
40.1755
39.165
37.7599
36.8351
35.5571
34.6291
33.3915
32.4062
31.304
30.3851
29.5316
28.7713
28.2063
27.631
27.2828
26.8145
26.3106
26.1657
25.9904
26.1189
26.3396
26.5695
26.9596
27.6586
28.0813
28.425
29.1364
29.8253
30.7621
31.4532
32.462
33.2642
34.5312
35.5209
37.0323
38.1117
39.7333
40.8048
42.4506
44.405
42.8873
41.773
40.4325
39.4777
38.3409
37.3913
36.3238
35.2362
34.2716
33.1881
32.4547
31.4988
31.0397
30.3767
30.1738
29.7664
29.3134
29.1845
29.0977
29.1959
29.3626
29.57
29.8383
30.5115
30.7941
31.3032
32.0025
32.8846
33.7779
34.5379
35.401
36.2368
37.3966
38.4708
39.8782
41.0402
42.5536
43.682
45.2327
44.779
43.1574
41.984
40.5857
39.5981
38.5343
37.6167
36.6907
35.6355
34.76
33.7316
33.0093
32.1835
31.6779
31.1333
30.9059
30.5791
30.0327
29.8469
29.9237
30.0712
30.228
30.3315
30.5876
31.2343
31.4048
31.8891
32.6638
33.5934
34.4336
35.107
35.8527
36.6724
37.7854
38.8929
40.268
41.4543
42.8934
44.0634
45.5126
45.627
44.0281
42.7505
41.3905
40.2224
39.2458
38.2451
37.4873
36.4397
35.6784
34.654
33.9885
33.1786
32.7405
32.1427
32.0235
31.7194
31.2146
30.9472
31.1008
31.2712
31.3279
31.3366
31.5052
32.1183
32.0814
32.734
33.5299
34.5619
35.343
35.9883
36.7025
37.5642
38.6736
39.8244
41.1379
42.2934
43.6409
44.7469
46.1102
45.5296
44.1814
42.7883
41.5225
40.1664
39.1354
38.0297
37.3351
36.3848
35.718
34.7605
34.0967
33.4066
33.0194
32.4382
32.3117
32.0755
31.5489
31.1921
31.4039
31.5788
31.5288
31.3919
31.5307
32.016
31.9019
32.6136
33.3957
34.5047
35.1477
35.8664
36.578
37.5592
38.6703
39.8433
41.0599
42.1531
43.3968
44.3898
45.7553
45.8927
44.6785
43.4474
42.2303
40.8386
39.6311
38.3214
37.5448
36.6799
36.1154
35.2036
34.4795
33.8162
33.5866
32.9947
32.9321
32.7116
32.2922
31.8284
31.9231
32.0549
31.8277
31.6422
31.7667
32.1499
32.153
32.8009
33.5259
34.5914
35.095
35.9945
36.737
37.9537
38.9642
40.2182
41.1918
42.373
43.3141
44.5111
45.5806
45.3781
44.2953
43.0518
42.0929
40.788
39.7746
38.4064
37.5293
36.6083
36.1116
35.2485
34.3639
33.5341
33.3614
32.8824
32.8369
32.7207
32.5014
31.9877
31.8698
31.8311
31.5202
31.4965
31.6605
32.0569
32.4038
32.6871
33.3634
34.2323
34.6309
35.53
36.292
37.6224
38.5973
39.8939
40.8057
42.0054
42.9407
44.216
45.3014
44.9405
43.8317
42.4492
41.5308
40.3623
39.5767
38.4978
37.7011
36.7626
36.2971
35.5428
34.712
33.6116
33.2479
32.6482
32.5027
32.3303
32.602
32.0274
31.7798
31.4276
31.4913
31.6593
31.6653
32.5092
32.5067
32.8816
33.3781
33.9096
34.4427
35.3636
36.1839
37.4389
38.2806
39.5665
40.3334
41.6799
42.5591
44.0879
45.1494
44.995
43.734
42.3181
41.2431
40.0593
39.2317
38.1981
37.3997
36.3523
35.7884
35.1192
34.6915
33.7784
33.1114
32.3274
31.805
31.5591
31.5768
31.4221
31.0603
30.488
31.2202
31.0505
31.0724
31.7333
31.6901
32.4013
33.1633
34.0838
34.889
35.6691
36.4312
37.3581
38.2077
39.1929
40.0268
41.1805
42.2101
43.6307
44.8469
44.7165
43.2615
41.6764
40.4088
39.1197
38.3199
37.4805
36.993
36.2075
35.5034
34.3288
33.367
32.4124
32.2099
31.7076
31.2923
30.9744
29.8699
30.1693
29.6685
29.7127
30.6448
30.4479
30.7192
31.0918
30.8348
31.9364
32.7322
33.6603
34.5067
35.5233
36.259
37.3355
38.212
39.2434
40.0774
41.2789
42.3128
43.7137
44.8686
44.4431
43.0554
41.5991
40.3642
39.0812
38.1499
37.076
36.1851
34.9837
34.0361
32.798
31.989
31.2445
30.9064
30.6336
30.173
30.2125
30.2406
30.0096
30.0495
29.3458
29.2525
29.5762
29.8413
29.5975
29.8239
31.3204
31.9227
32.7608
33.3387
34.0734
34.7588
35.77
36.6773
37.9018
39.0776
40.6104
41.917
43.4302
44.6382
43.2861
42.1172
40.9054
39.8003
38.5997
37.5748
36.4833
35.4871
34.29
33.5292
32.8282
32.2812
31.2612
30.698
29.8421
29.3911
29.1333
28.8567
30.0294
29.2377
29.4415
29.7618
29.3106
29.2286
29.3671
30.2088
30.873
30.6457
31.5497
32.2977
33.2595
34.0992
35.0939
36.0907
37.3482
38.4417
39.7278
40.7475
42.0441
43.0992
42.0822
40.5394
39.1603
37.8731
36.7169
35.6848
34.6384
33.6968
32.6123
31.7128
30.9418
30.5984
29.696
29.3798
29.0843
28.4683
27.8723
27.6735
27.0279
27.3397
28.5367
28.0829
28.0563
27.8366
28.7755
29.0643
29.3107
29.9088
30.5292
31.6605
32.7237
33.6143
34.5333
35.4818
36.5432
37.5921
38.7846
39.9695
41.3169
42.6271
41.1146
39.7449
38.4441
37.1485
35.9183
34.7534
33.6481
32.6787
31.7621
31.105
30.4505
29.9299
29.2208
28.8327
28.1907
28.0431
27.1871
26.3131
25.3539
25.6862
26.1221
26.3657
27.0321
27.3128
27.8671
28.1129
29.0606
29.6576
30.2913
31.0138
31.8882
32.8193
33.7291
34.6411
35.5695
36.5898
37.7061
38.8999
40.1615
41.4755
40.8417
39.2604
37.7462
36.3747
35.0747
34.0156
32.9977
32.2771
31.4711
30.8819
29.9998
29.3349
28.5022
27.9854
27.1652
26.9898
26.8362
26.9176
25.2222
24.9168
26.2176
26.8808
27.2249
27.2685
27.7859
28.3486
29.0142
29.5271
30.2884
31.1838
32.1494
33.0984
34.077
35.1886
36.3798
37.7532
39.1204
40.6429
42.0571
43.6239
41.9078
40.0672
38.2739
36.5532
34.947
33.5284
32.26
31.217
30.2891
29.5743
28.9003
28.3137
27.5294
26.7856
26.1996
25.9054
25.6903
26.0209
25.787
24.9843
25.2302
25.4455
25.7913
26.0542
26.98
27.4242
28.0031
28.4565
29.0932
29.7067
30.5172
31.5253
32.6937
34.0509
35.3667
36.8335
38.156
39.6925
41.0777
42.7271
41.7892
40.5456
39.1756
37.9161
36.5511
35.3306
34.0482
32.8877
31.681
30.6113
29.5583
28.695
27.8872
27.2583
26.6239
26.1692
25.7177
25.4859
25.1228
25.1125
24.7274
24.399
25.2155
25.1233
25.8498
25.966
26.9227
27.3852
28.2447
28.8265
29.8747
30.8207
31.9243
32.9698
34.0323
35.2068
36.3848
37.8037
39.167
40.7982
40.5517
39.2313