/*--------------------------------*- C++ -*----------------------------------*\
  =========                 |
  \\      /  F ield         | OpenFOAM: The Open Source CFD Toolbox
   \\    /   O peration     | Website:  https://openfoam.org
    \\  /    A nd           | Version:  6
     \\/     M anipulation  |
\*---------------------------------------------------------------------------*/
FoamFile
{
    version     2.0;
    format      ascii;
    class       volScalarField;
    location    "0.2";
    object      k;
}
// * * * * * * * * * * * * * * * * * * * * * * * * * * * * * * * * * * * * * //

dimensions      [0 2 -2 0 0 0 0];

internalField   nonuniform List<scalar> 
63552
(
0.00322607
0.00509632
0.00353044
0.0035396
0.00332888
0.00557406
0.00477225
0.0052258
0.00538835
0.00385109
0.00378551
0.00452486
0.00505068
0.0050626
0.00432734
0.00275873
0.00336285
0.00334749
0.00355155
0.00406524
0.00502769
0.00497165
0.00459218
0.00511961
0.00647675
0.00499191
0.00462504
0.00566911
0.00536617
0.00437104
0.00167505
0.00198724
0.00366202
0.00487527
0.00469651
0.00454034
0.0041741
0.00344097
0.00552838
0.00584851
0.00445652
0.00889356
0.00577334
0.00491676
0.00147535
0.00195734
0.0025378
0.00394136
0.00321479
0.00491831
0.00400798
0.00364845
0.00381821
0.00386501
0.00403756
0.00356643
0.0060185
0.0054033
0.00088779
0.00106474
0.00139577
0.00293887
0.0032916
0.00374858
0.00370432
0.00504812
0.00613048
0.00407616
0.00527466
0.00819512
0.00525919
0.000669578
0.000861094
0.00121245
0.00182424
0.00315162
0.00467609
0.00486186
0.00504622
0.00378675
0.00411124
0.00522443
0.00391526
0.00622595
0.000401145
0.000453995
0.000554805
0.000746761
0.00154295
0.00424373
0.0035147
0.00424103
0.00500049
0.0044501
0.00522427
0.00404857
0.00535417
0.000307513
0.000386004
0.000555122
0.000807277
0.00144191
0.00347889
0.00383679
0.00492157
0.00428816
0.00481146
0.00405875
0.00358376
0.000203587
0.000237565
0.000302437
0.000483792
0.000964421
0.00214256
0.00401201
0.00483472
0.00509961
0.00577794
0.00427627
0.00482394
0.000148621
0.000168113
0.000210548
0.00030184
0.000559062
0.00143934
0.00394463
0.00415385
0.00437495
0.0034638
0.00429211
0.00371934
0.000113869
0.000125338
0.000149871
0.000205427
0.000349709
0.000781444
0.00206383
0.00432245
0.00497895
0.0037996
0.0036109
0.00319514
0.000100673
0.000117317
0.000154007
0.000244654
0.000490159
0.00115501
0.00301634
0.00500968
0.00375722
0.00396686
0.000442264
8.4895e-05
9.74537e-05
0.000124259
0.000188958
0.000365326
0.000831395
0.00192621
0.00415037
0.00385607
0.0052327
0.000488208
7.56078e-05
8.52221e-05
0.000106478
0.0001554
0.00027706
0.000557419
0.00114304
0.00203768
0.00401271
0.00270987
0.000765882
6.86218e-05
7.71773e-05
9.54539e-05
0.000136315
0.000235744
0.000458353
0.000898875
0.00138918
0.00132942
0.000672121
0.000514028
6.43892e-05
7.20254e-05
8.85029e-05
0.000124353
0.000208508
0.000389285
0.000750928
0.0012599
0.00191129
0.00164899
0.000142803
6.14156e-05
6.86682e-05
8.42089e-05
0.000117195
0.000192657
0.000347761
0.000635267
0.000956818
0.00123837
0.00092785
0.000306954
5.96954e-05
6.6684e-05
8.18075e-05
0.000113193
0.000183707
0.000325401
0.000583157
0.000872512
0.00117116
0.000939388
0.00019199
6.57592e-05
8.08192e-05
0.000111441
0.000179303
0.000312994
0.000549492
0.000801743
0.00106155
0.000852567
0.000186911
6.56236e-05
8.07657e-05
0.000111205
0.000178136
0.000308442
0.00053524
0.000771604
0.00101768
0.000819861
0.000175917
0.00104471
0.00125193
0.00130209
0.0013313
0.00130302
0.00139889
0.0014674
0.00151154
0.00154651
0.0016984
0.00191904
0.00222422
0.00292975
0.00318815
0.00163072
0.00104747
0.00106165
0.00116801
0.00118306
0.00128061
0.00133126
0.00146396
0.00158822
0.00155731
0.00176518
0.00206001
0.00236292
0.00306767
0.00329283
0.00148397
0.000900917
0.000872492
0.0010042
0.0011597
0.00124973
0.00136083
0.00146382
0.00152915
0.00171823
0.00204776
0.00240153
0.00319716
0.00338138
0.00138011
0.000923181
0.000967336
0.000999831
0.0010726
0.00112245
0.00126484
0.00142445
0.00156476
0.0017295
0.00208261
0.00247306
0.00324686
0.00340966
0.00125568
0.000839553
0.0008241
0.000831205
0.000921341
0.00114572
0.00134275
0.00156327
0.00177345
0.00215629
0.00256291
0.00339112
0.00347687
0.0011254
0.000854522
0.000876229
0.000905075
0.000968711
0.000995028
0.00125519
0.00158694
0.00182327
0.00216175
0.00264152
0.00347621
0.00344731
0.000964451
0.000838985
0.000830365
0.000834658
0.000837587
0.000956003
0.00118037
0.00146004
0.00184985
0.00224085
0.00270944
0.0035495
0.00344049
0.000867256
0.000831324
0.000851557
0.00089697
0.000926357
0.00101543
0.00138212
0.00180454
0.00231576
0.00277872
0.00357133
0.00347026
0.000801457
0.000835057
0.00084936
0.000871367
0.000937179
0.00105116
0.00125525
0.00174428
0.00235991
0.00281416
0.00359963
0.00347253
0.000738372
0.000843271
0.000858061
0.000889969
0.000946329
0.00105648
0.00131437
0.00172231
0.00234066
0.00290641
0.00356734
0.00349165
0.00074495
0.000845473
0.000864311
0.000897446
0.000961417
0.00107574
0.0013062
0.00167952
0.0023738
0.00288849
0.00362373
0.00345469
0.00073995
0.000874113
0.000910924
0.000979182
0.00110068
0.00133919
0.00168085
0.00231728
0.00296249
0.00362478
0.00347638
0.000819829
0.000880822
0.000923479
0.000997459
0.00112615
0.00137369
0.00173598
0.00234737
0.00290542
0.00361578
0.00344661
0.000692174
0.00089676
0.00093824
0.00101639
0.00115198
0.00140522
0.00176491
0.00235409
0.00282221
0.00360255
0.00328141
0.000665151
0.000902645
0.000950288
0.00103463
0.001177
0.00143787
0.00180819
0.00239574
0.00283429
0.00345184
0.00320437
0.000715231
0.000914743
0.00096402
0.00105265
0.00120074
0.0014674
0.00184382
0.00242684
0.00285771
0.00350543
0.00320886
0.000694278
0.000923735
0.000976128
0.00106943
0.00122258
0.00149433
0.00187627
0.00245134
0.00285732
0.00345686
0.00315485
0.000651042
0.000933569
0.000987839
0.001085
0.00124216
0.00151771
0.00190376
0.00247263
0.00286775
0.00345198
0.00313741
0.000643925
0.00099874
0.00109867
0.00125863
0.00153654
0.00192474
0.00248647
0.00287036
0.00343715
0.00311681
0.000624505
0.00100614
0.00110846
0.00126992
0.00154911
0.00193796
0.00249378
0.0028701
0.00342515
0.00310098
0.000617146
0.00112755
0.00115703
0.00118458
0.00120424
0.00122918
0.00127325
0.00134487
0.00143325
0.00156434
0.00177819
0.00209341
0.00245709
0.00311362
0.00423283
0.00190265
0.00113481
0.0011466
0.00116842
0.00118613
0.00123692
0.00128883
0.00137677
0.00148692
0.00163963
0.00187664
0.00222123
0.00260602
0.00328168
0.00430764
0.00181412
0.00112987
0.00114324
0.00117751
0.00122166
0.0012852
0.00137446
0.00148773
0.00166603
0.00191099
0.00227255
0.00267111
0.00335438
0.00437336
0.00177513
0.00114516
0.00117079
0.00120159
0.00124056
0.00129343
0.00138635
0.00152494
0.00172765
0.00199746
0.00238011
0.0027984
0.00350748
0.00442052
0.00169529
0.00116433
0.00118783
0.00122541
0.00129078
0.00139447
0.0015388
0.00175929
0.00203514
0.00243518
0.00286584
0.00357483
0.00445313
0.0016452
0.00118117
0.00121809
0.00126357
0.00133223
0.00141627
0.0015663
0.00180814
0.00210483
0.00252402
0.00296639
0.00369927
0.00446681
0.00157695
0.00119895
0.00122797
0.00127181
0.00133353
0.00144238
0.0015923
0.0018289
0.00214113
0.00257027
0.00301574
0.0037543
0.00446479
0.00152018
0.00124333
0.00129785
0.00137535
0.00147284
0.00162055
0.00186784
0.00218854
0.00264099
0.00308449
0.00383695
0.00446184
0.00145759
0.00126963
0.00132421
0.00139679
0.00150642
0.00166234
0.00189671
0.00221671
0.00267886
0.00310652
0.0038711
0.00444969
0.00139991
0.00128934
0.00134778
0.00142762
0.00154009
0.00170048
0.00194812
0.00225745
0.00272277
0.00315592
0.0039106
0.0044269
0.00134767
0.00130795
0.00137063
0.00145482
0.00157422
0.00174058
0.00198715
0.00229502
0.00275463
0.00317103
0.00392524
0.00439502
0.00130495
0.00139468
0.00148337
0.00160798
0.00177967
0.00203087
0.00233139
0.00278092
0.00320065
0.00394533
0.00435425
0.00127554
0.00141515
0.00151003
0.00164068
0.00181758
0.00207218
0.00237565
0.00281953
0.00320905
0.00394864
0.00430582
0.00128184
0.00144175
0.00153812
0.00167261
0.00185373
0.00211113
0.00241237
0.00284912
0.00321993
0.00395116
0.00425114
0.00127352
0.00145858
0.00156082
0.00170197
0.00188747
0.00214781
0.00245012
0.0028839
0.00324178
0.00394125
0.00421178
0.0012456
0.00147961
0.00158534
0.00173066
0.0019193
0.00218182
0.00248408
0.00291369
0.00326394
0.00396163
0.00419563
0.00123597
0.00149668
0.00160662
0.00175675
0.00194859
0.00221308
0.00251539
0.00294018
0.00327978
0.0039589
0.00416412
0.00121301
0.0015132
0.00162706
0.00178102
0.00197542
0.00224122
0.00254283
0.00296212
0.00329437
0.00396105
0.00414624
0.00118051
0.00164553
0.00180238
0.00199854
0.00226479
0.00256476
0.00297775
0.00330324
0.00395699
0.00413121
0.00116398
0.00165771
0.00181749
0.00201465
0.00228075
0.00257884
0.00298636
0.00330724
0.00395051
0.0041184
0.00115329
0.00119803
0.00121137
0.00122933
0.00125067
0.00128136
0.00132531
0.00138854
0.00147498
0.00159189
0.00177243
0.00196759
0.0022962
0.00243614
0.00462881
0.00213159
0.00120845
0.00122245
0.00124157
0.0012653
0.00130325
0.00135425
0.00142841
0.00152706
0.00166083
0.00185623
0.00206671
0.00239928
0.00262169
0.00474488
0.00206156
0.00122796
0.00124774
0.00127565
0.0013133
0.00136617
0.0014415
0.00154215
0.00168218
0.00188389
0.00210205
0.00245502
0.0026862
0.00480273
0.00203469
0.00124251
0.00126655
0.00129825
0.00133864
0.00139255
0.00147296
0.00158521
0.00174021
0.00195668
0.0021914
0.00254964
0.00286267
0.00486817
0.0019737
0.00127884
0.0013098
0.00135068
0.00140934
0.00149245
0.00160644
0.00176717
0.00198791
0.00223027
0.00260502
0.00293774
0.00489194
0.00193615
0.00129411
0.00133105
0.00137717
0.00144011
0.00152538
0.00164365
0.00181463
0.00204694
0.00230683
0.00268485
0.00309101
0.00491414
0.00188482
0.00131423
0.00134912
0.0013961
0.00145989
0.00155119
0.00167154
0.00184057
0.00207471
0.00234231
0.00272918
0.00316313
0.00491271
0.0018475
0.00136445
0.00141813
0.00148888
0.00158158
0.00170529
0.00188176
0.00211688
0.00239912
0.00278548
0.00327875
0.00490418
0.00181093
0.00138822
0.00144346
0.00151391
0.00161063
0.00173807
0.00191353
0.00214548
0.00242647
0.00280773
0.0033329
0.0048862
0.00178455
0.00140556
0.00146375
0.00153841
0.00163886
0.00176976
0.00195123
0.00218109
0.00246941
0.00283972
0.00339708
0.00485347
0.00176316
0.00142389
0.00148464
0.00156247
0.00166706
0.00180209
0.00198496
0.00221414
0.00249981
0.00286196
0.00342199
0.00480911
0.00174931
0.00150493
0.00158599
0.0016942
0.00183244
0.00201874
0.00224513
0.00253297
0.00288727
0.00347013
0.00476435
0.00173865
0.00152304
0.00160821
0.0017203
0.00186203
0.00205081
0.00227754
0.002566
0.00290834
0.00349766
0.00472524
0.00173161
0.00154386
0.00163094
0.00174545
0.00189001
0.00208127
0.00230698
0.0025963
0.00292941
0.00353078
0.00469021
0.00173352
0.0015591
0.00164942
0.00176821
0.00191621
0.00211012
0.00233584
0.00262671
0.00295162
0.00355553
0.00466053
0.00174629
0.00157574
0.00166896
0.00179071
0.00194133
0.00213747
0.00236299
0.00265475
0.00297338
0.00358237
0.00463616
0.00174272
0.00158986
0.00168595
0.00181115
0.0019647
0.0021632
0.00238875
0.00268054
0.00299278
0.00360288
0.00461494
0.00172354
0.0016031
0.0017023
0.00183054
0.00198668
0.0021872
0.00241244
0.00270272
0.0030093
0.00361703
0.00459826
0.00169492
0.00171687
0.00184775
0.00200606
0.00220799
0.0024324
0.00271976
0.0030213
0.00362408
0.00458598
0.00167722
0.00172647
0.00185983
0.00201976
0.00222249
0.00244588
0.00273007
0.00302799
0.00362453
0.00457482
0.00166644
0.00123332
0.00124394
0.00125895
0.00127916
0.00130686
0.00134371
0.00139465
0.00146308
0.00155099
0.00168198
0.00179013
0.00210783
0.00192847
0.0049769
0.0024563
0.00124352
0.00125657
0.00127455
0.00129748
0.00132943
0.00137148
0.00143008
0.00150574
0.0016037
0.00174186
0.00186394
0.00217449
0.0021163
0.00509157
0.00240857
0.00126477
0.001283
0.0013075
0.00134071
0.00138391
0.00144318
0.00151958
0.00161959
0.00176099
0.00188552
0.00221618
0.00216072
0.00512229
0.00239558
0.00127709
0.00129816
0.00132601
0.00136204
0.00140855
0.00147329
0.00155616
0.00166506
0.00181321
0.00195292
0.00227592
0.00233814
0.00517764
0.00234792
0.00131074
0.00133878
0.00137521
0.00142334
0.00149015
0.00157426
0.00168578
0.00183633
0.00197953
0.00231801
0.00240762
0.00518568
0.00231874
0.00132302
0.00135436
0.00139428
0.001446
0.00151708
0.00160623
0.001725
0.00188075
0.00203932
0.00237031
0.00256325
0.0051994
0.00227212
0.00133926
0.00137038
0.00141116
0.00146421
0.00153648
0.00162622
0.0017466
0.00190329
0.00206644
0.00240674
0.00263772
0.00518925
0.00223746
0.00138285
0.0014275
0.0014841
0.0015592
0.00165115
0.00177711
0.00193689
0.00211484
0.00244751
0.00275952
0.00517465
0.00219805
0.00140033
0.00144678
0.00150415
0.00158062
0.00167379
0.00179955
0.00195601
0.00213802
0.00247235
0.00282037
0.00514672
0.00217042
0.00141392
0.00146195
0.00152146
0.00160043
0.00169544
0.00182456
0.00197993
0.00216858
0.00249143
0.00289245
0.00510569
0.00214547
0.00142838
0.00147807
0.0015394
0.00162064
0.00171766
0.00184791
0.00200159
0.00219259
0.00250701
0.00292397
0.00506019
0.0021322
0.00149278
0.00155612
0.00163942
0.00173798
0.00187019
0.00202211
0.00221763
0.00252478
0.0029805
0.00502188
0.00212315
0.00150627
0.00157211
0.00165755
0.00175783
0.00189167
0.00204279
0.00224136
0.00254071
0.00301691
0.0049869
0.00212097
0.00152056
0.00158794
0.00167466
0.00177642
0.00191179
0.00206209
0.00226403
0.00255682
0.00305867
0.00495716
0.00212183
0.00153223
0.00160117
0.00169001
0.00179373
0.00193088
0.00208107
0.00228573
0.00257302
0.00309333
0.00493054
0.00212205
0.00154365
0.0016145
0.00170507
0.00181045
0.00194908
0.00209917
0.00230629
0.0025891
0.00312454
0.00490838
0.00212842
0.00155369
0.00162623
0.00171866
0.00182594
0.00196618
0.00211659
0.00232512
0.00260379
0.00315116
0.00489043
0.00212222
0.00156284
0.00163728
0.00173153
0.00184063
0.00198225
0.00213287
0.00234148
0.00261653
0.00316987
0.00487531
0.00209018
0.00164696
0.00174281
0.00185354
0.00199617
0.00214677
0.00235412
0.00262602
0.00318082
0.00486362
0.00207398
0.00165333
0.00175061
0.00186259
0.00200588
0.00215626
0.00236193
0.00263149
0.00318401
0.00485203
0.00206208
0.00124446
0.00125395
0.00126719
0.00128522
0.00130965
0.00134056
0.00138377
0.00143802
0.00151036
0.00161245
0.00168602
0.0020276
0.00175831
0.00553361
0.00277565
0.00125273
0.00126441
0.00128056
0.00130103
0.00132854
0.00136336
0.0014118
0.00147056
0.00155001
0.00165435
0.00174557
0.00207024
0.00196381
0.005619
0.00273156
0.00127109
0.00128701
0.00130813
0.00133671
0.00137195
0.00142102
0.00147972
0.00156055
0.00166648
0.00175869
0.00209858
0.00199688
0.00560924
0.00272781
0.00128065
0.00129871
0.00132233
0.00135344
0.00139146
0.00144476
0.00150729
0.00159451
0.00170239
0.00181247
0.00213193
0.00218386
0.00563525
0.00268108
0.00130818
0.0013318
0.00136319
0.00140194
0.00145655
0.00151945
0.00160859
0.00171768
0.00183114
0.00216215
0.00224828
0.00561765
0.00266173
0.00131735
0.00134316
0.00137682
0.00141879
0.00147724
0.00154341
0.00163819
0.00174852
0.00187927
0.00219127
0.002407
0.00561151
0.0026174
0.00132919
0.0013552
0.00138939
0.00143167
0.00149108
0.00155713
0.0016531
0.00176383
0.00189921
0.00221802
0.00248187
0.00558425
0.0025943
0.00136425
0.00140062
0.00144527
0.00150636
0.00157476
0.00167578
0.00178721
0.0019389
0.00224256
0.00260505
0.00555663
0.00256023
0.00137633
0.00141428
0.00145945
0.0015213
0.00158887
0.00169063
0.00180168
0.00195816
0.00226243
0.00267018
0.00551384
0.00254264
0.00138627
0.00142489
0.00147107
0.00153406
0.00160281
0.00170644
0.00181468
0.00198364
0.00227477
0.00274482
0.00546635
0.00252245
0.00139659
0.00143638
0.00148344
0.00154775
0.00161706
0.00172156
0.00182853
0.0019994
0.00228146
0.0027801
0.00542308
0.00251356
0.00144636
0.00149456
0.00155986
0.00162981
0.00173543
0.00184028
0.00201852
0.00229172
0.00283615
0.00538608
0.00250575
0.00145556
0.00150526
0.0015717
0.00164234
0.00174891
0.00185296
0.00203459
0.00230147
0.00287565
0.00535241
0.0025043
0.00146499
0.00151566
0.00158264
0.00165387
0.00176127
0.00186435
0.00205095
0.00231116
0.00291734
0.00532387
0.00250357
0.00147311
0.00152453
0.00159234
0.0016645
0.00177288
0.00187589
0.00206546
0.0023216
0.00295338
0.00529855
0.00250538
0.00148054
0.00153305
0.00160173
0.00167479
0.00178388
0.00188673
0.00207936
0.00233177
0.00298414
0.00527687
0.00250079
0.0014872
0.00154064
0.00161012
0.00168418
0.00179397
0.00189713
0.0020915
0.00234108
0.00300998
0.00525876
0.00249172
0.00149314
0.00154761
0.00161792
0.00169301
0.00180328
0.00190669
0.00210168
0.00234901
0.00302819
0.00524319
0.00246261
0.00155358
0.00162457
0.00170056
0.00181106
0.0019146
0.00210904
0.00235468
0.00303869
0.00523014
0.00244616
0.00155744
0.00162903
0.00170565
0.0018163
0.00191983
0.00211337
0.00235781
0.00304153
0.00521681
0.00243356
0.00124307
0.00125214
0.00126447
0.00128113
0.00130398
0.00133172
0.00137242
0.00141907
0.00148979
0.00158086
0.00165937
0.00203851
0.00184167
0.00624676
0.0031683
0.00124957
0.00126042
0.00127538
0.00129413
0.00131948
0.00135024
0.00139489
0.00144461
0.00152198
0.00161305
0.0017155
0.00206927
0.0020848
0.00630277
0.00311931
0.00126513
0.00127976
0.00129858
0.00132456
0.00135514
0.00140048
0.00144935
0.00152838
0.00161957
0.00172426
0.00208683
0.00211914
0.00626602
0.00311921
0.00127243
0.00128861
0.00130952
0.00133757
0.00137033
0.00141902
0.00147018
0.00155516
0.00164571
0.00177349
0.00210567
0.00233066
0.00626897
0.00306622
0.00129514
0.00131603
0.0013442
0.00137702
0.00142673
0.00147751
0.0015646
0.00165544
0.0017882
0.00212858
0.00239939
0.00623449
0.0030492
0.001302
0.00132426
0.00135452
0.00138978
0.00144274
0.00149545
0.00158782
0.00167756
0.00183141
0.00214507
0.00257005
0.00621395
0.00300018
0.00131035
0.00133296
0.00136319
0.0013989
0.00145242
0.00150446
0.00159807
0.00168784
0.00184756
0.0021663
0.00265036
0.00617362
0.00297847
0.00133919
0.00137096
0.00140808
0.00146377
0.00151716
0.00161542
0.00170427
0.00188255
0.00218213
0.00277661
0.00613397
0.00294138
0.00134766
0.00138057
0.0014182
0.00147356
0.0015271
0.00162639
0.00171506
0.00189939
0.00219846
0.00284599
0.00607999
0.00292375
0.00135467
0.00138794
0.0014258
0.00148215
0.00153562
0.00163704
0.00172418
0.00192223
0.00220717
0.0029199
0.00603414
0.00290182
0.00136192
0.00139596
0.00143439
0.00149126
0.00154532
0.00164729
0.00173268
0.00193422
0.00221178
0.00296188
0.00598966
0.00289105
0.00140274
0.0014417
0.00149926
0.00155339
0.00165633
0.00174047
0.00194976
0.00221826
0.00301804
0.00595181
0.00288083
0.00140892
0.00144893
0.001507
0.00156167
0.00166528
0.00174862
0.00196218
0.0022261
0.00306093
0.0059169
0.00287534
0.00141524
0.00145584
0.00151419
0.0015691
0.00167315
0.00175616
0.00197491
0.00223325
0.00310367
0.0058867
0.00287051
0.0014208
0.00146182
0.00152041
0.00157592
0.00168058
0.00176372
0.00198564
0.00224165
0.0031409
0.00585978
0.00286453
0.00142572
0.00146739
0.00152641
0.00158257
0.00168748
0.00177077
0.00199576
0.00224939
0.00317232
0.00583618
0.00285595
0.00143017
0.0014724
0.00153173
0.00158852
0.00169358
0.00177734
0.00200403
0.00225637
0.00319804
0.00581571
0.00283552
0.00143408
0.00147692
0.00153657
0.00159402
0.001699
0.00178309
0.00201047
0.00226194
0.00321622
0.0057978
0.00280658
0.00148064
0.00154051
0.00159847
0.00170318
0.00178745
0.00201452
0.00226555
0.00322644
0.00578215
0.00278826
0.00148299
0.00154304
0.00160127
0.00170578
0.00179009
0.00201657
0.00226728
0.00322849
0.00576625
0.00277474
0.00123545
0.00124467
0.00125708
0.00127356
0.00129663
0.00132369
0.00136608
0.00141016
0.00148954
0.00157916
0.00169268
0.00209906
0.00214252
0.0070239
0.00355531
0.00124081
0.00125156
0.0012663
0.00128466
0.00131
0.0013395
0.00138542
0.001432
0.00151871
0.00160797
0.00175175
0.00213078
0.00243031
0.00706073
0.00349465
0.00125468
0.00126903
0.00128712
0.00131278
0.00134174
0.00138845
0.00143343
0.00152245
0.00161033
0.00175905
0.00214035
0.00247649
0.00701298
0.00349533
0.00126042
0.00127604
0.00129584
0.00132339
0.0013541
0.0014038
0.00145031
0.0015457
0.00163217
0.00180848
0.0021575
0.0027141
0.00700499
0.00343413
0.00128047
0.00130024
0.00132777
0.00135813
0.00140888
0.0014545
0.00155257
0.00163881
0.00182215
0.00217857
0.00279599
0.00696479
0.00342023
0.00128576
0.0013067
0.00133591
0.00136823
0.00142193
0.0014688
0.00157236
0.00165684
0.00186392
0.00219437
0.00297797
0.00693784
0.00336771
0.00129176
0.00131281
0.00134223
0.00137469
0.00142892
0.00147495
0.00158013
0.00166484
0.00187905
0.00221619
0.00306852
0.00689078
0.00334988
0.00131727
0.00134765
0.00138161
0.00143772
0.00148471
0.00159444
0.00167809
0.0019117
0.00223286
0.00319548
0.0068424
0.00331168
0.00132337
0.0013548
0.00138876
0.00144511
0.0014923
0.00160318
0.00168741
0.00192779
0.00225046
0.00326828
0.00679115
0.00329642
0.00132845
0.00135993
0.00139417
0.0014508
0.00149824
0.00161179
0.00169519
0.00194865
0.00226094
0.00333701
0.00674537
0.00327298
0.00133363
0.00136579
0.00140023
0.00145739
0.00150545
0.00161903
0.00170191
0.00196023
0.00226712
0.00338927
0.00670181
0.00326227
0.00137049
0.00140537
0.00146293
0.00151103
0.00162599
0.00170838
0.00197351
0.00227626
0.00344645
0.00666348
0.00324954
0.00137485
0.00141049
0.00146833
0.00151727
0.0016325
0.00171494
0.00198484
0.00228602
0.00349402
0.00662791
0.00324127
0.00137929
0.0014154
0.00147342
0.00152261
0.00163829
0.00172135
0.00199577
0.00229555
0.00353941
0.00659622
0.00323137
0.00138325
0.00141969
0.00147773
0.00152763
0.00164372
0.00172752
0.00200509
0.0023058
0.00357896
0.00656736
0.0032197
0.00138672
0.00142363
0.00148191
0.00153254
0.00164868
0.00173332
0.00201353
0.00231506
0.00361238
0.00654127
0.00320041
0.00138987
0.00142721
0.00148562
0.00153689
0.00165294
0.00173846
0.00202013
0.00232313
0.00363928
0.0065178
0.00316759
0.00139261
0.0014304
0.0014889
0.00154079
0.00165652
0.00174268
0.00202489
0.00232931
0.00365836
0.00649682
0.00314372
0.00143288
0.00149142
0.00154372
0.00165898
0.0017455
0.00202745
0.00233313
0.0036689
0.00647796
0.00312164
0.00143438
0.00149295
0.00154541
0.00166032
0.00174695
0.00202843
0.00233471
0.00367003
0.00645891
0.00310727
0.00122399
0.00123387
0.00124715
0.00126445
0.00128917
0.00131735
0.0013645
0.00140973
0.00150517
0.00159931
0.00177335
0.00219513
0.00265851
0.00781062
0.00392625
0.00122883
0.00124004
0.00125543
0.00127454
0.00130152
0.00133194
0.00138264
0.00143053
0.0015343
0.00162976
0.00183816
0.00224302
0.00298915
0.00783872
0.00385277
0.00124195
0.00125696
0.0012756
0.0013027
0.00133232
0.00138397
0.00142967
0.00153645
0.00162943
0.00184563
0.00224939
0.00305681
0.00779133
0.00385437
0.00124684
0.00126288
0.00128298
0.00131194
0.00134311
0.00139766
0.00144481
0.00155846
0.00165134
0.00189661
0.00227922
0.00331167
0.00778082
0.00378554
0.0012659
0.00128596
0.00131485
0.00134545
0.00140122
0.00144733
0.00156423
0.00165717
0.00191114
0.00230527
0.00341343
0.00774113
0.00377463
0.00127038
0.0012913
0.00132167
0.00135395
0.0014126
0.00145988
0.00158237
0.00167488
0.00195237
0.00233272
0.00359827
0.0077107
0.00371814
0.00127468
0.00129589
0.00132646
0.00135874
0.00141809
0.0014647
0.00158917
0.00168301
0.00196842
0.00236199
0.00369968
0.00765853
0.00370259
0.00129915
0.00133075
0.00136429
0.00142547
0.00147305
0.0016019
0.00169617
0.00199964
0.00238844
0.00382042
0.00761333
0.00366231
0.00130389
0.00133617
0.00137
0.00143153
0.00147949
0.00160971
0.00170593
0.00201631
0.00241242
0.00389161
0.00756365
0.00364723
0.00130767
0.0013401
0.001374
0.00143568
0.00148459
0.00161738
0.00171432
0.0020359
0.00242913
0.00395912
0.00751929
0.00362232
0.00131165
0.00134452
0.00137868
0.00144089
0.00149052
0.00162324
0.00172154
0.0020473
0.00244158
0.00402172
0.00747742
0.00361003
0.00134802
0.00138263
0.00144503
0.00149521
0.00162942
0.00172845
0.00206011
0.00245867
0.00408126
0.0074391
0.00359418
0.00135134
0.00138656
0.00144927
0.00150057
0.00163489
0.00173539
0.00207141
0.00247435
0.00413441
0.00740332
0.00358211
0.00135468
0.00139041
0.00145323
0.00150512
0.00163995
0.00174228
0.00208197
0.00249057
0.00418329
0.00737031
0.00356673
0.00135771
0.00139381
0.00145661
0.00150951
0.00164464
0.00174872
0.00209122
0.00250623
0.00422589
0.00733946
0.00354746
0.00136039
0.00139692
0.00145989
0.00151375
0.0016489
0.00175474
0.00209933
0.00252042
0.00426182
0.00731071
0.00351796
0.00136282
0.00139978
0.00146281
0.0015175
0.0016525
0.00175983
0.00210561
0.00253252
0.00429034
0.00728411
0.00347887
0.00136493
0.00140228
0.00146533
0.00152072
0.00165533
0.00176376
0.00210993
0.00254178
0.00431043
0.00725982
0.00345362
0.00140408
0.00146709
0.00152295
0.00165706
0.00176613
0.00211208
0.00254762
0.00432108
0.00723747
0.00342971
0.00140511
0.0014681
0.00152412
0.00165785
0.00176715
0.00211274
0.00254988
0.00432063
0.00721496
0.00341398
0.00120924
0.0012202
0.00123491
0.00125378
0.00128125
0.00131205
0.00136616
0.00141615
0.00153291
0.0016396
0.00189316
0.00234606
0.00338853
0.00858692
0.00426396
0.00121397
0.00122613
0.00124281
0.00126356
0.00129334
0.00132654
0.00138447
0.00143796
0.00156402
0.00167618
0.00196508
0.0024291
0.00375303
0.00861353
0.00417958
0.00122713
0.00124348
0.00126363
0.00129347
0.00132569
0.00138468
0.0014357
0.0015652
0.00167482
0.00197327
0.00244023
0.0038481
0.00857298
0.00418448
0.00123156
0.00124881
0.00127033
0.00130201
0.00133579
0.00139775
0.0014508
0.00158734
0.00170045
0.00202594
0.002498
0.00410592
0.00856374
0.00411012
0.00125093
0.0012724
0.00130405
0.00133724
0.00140058
0.00145285
0.00159301
0.00170767
0.00204291
0.00253747
0.00422816
0.00852671
0.00410336
0.00125494
0.00127712
0.00131013
0.00134494
0.0014111
0.00146506
0.00161055
0.00172808
0.00208403
0.00258755
0.00440441
0.00849239
0.00404389
0.00125821
0.00128073
0.001314
0.00134888
0.00141592
0.00146979
0.00161747
0.00173845
0.00210286
0.00263084
0.00451054
0.00844293
0.00403186
0.00128339
0.00131771
0.00135379
0.00142258
0.00147794
0.00162957
0.00175394
0.00213363
0.00267313
0.00461542
0.00839893
0.00399026
0.00128723
0.00132218
0.00135872
0.00142794
0.00148424
0.00163736
0.0017658
0.00215213
0.00270676
0.00468576
0.00835215
0.00397799
0.00129031
0.00132545
0.00136197
0.00143163
0.00148943
0.00164483
0.0017764
0.00217109
0.00273205
0.004763
0.00831051
0.00395218
0.00129357
0.001329
0.00136603
0.0014361
0.00149497
0.0016507
0.00178505
0.00218308
0.00275813
0.00483184
0.00827029
0.00394008
0.00133189
0.00136939
0.00143965
0.00149978
0.00165686
0.00179388
0.00219754
0.00278598
0.00489648
0.00823267
0.00392207
0.00133463
0.00137278
0.00144344
0.00150502
0.00166239
0.00180245
0.00220992
0.0028121
0.00495503
0.00819683
0.00390688
0.00133739
0.00137616
0.00144693
0.00150961
0.0016676
0.00181086
0.00222181
0.00283831
0.00500785
0.00816267
0.00388565
0.00133994
0.00137918
0.00145
0.00151405
0.00167242
0.00181862
0.00223236
0.00286256
0.00505364
0.00812982
0.00385703
0.00134222
0.00138196
0.00145296
0.00151826
0.00167679
0.0018257
0.00224152
0.00288443
0.00509192
0.00809835
0.00381205
0.00134429
0.0013845
0.00145559
0.00152196
0.00168042
0.00183154
0.0022487
0.00290288
0.00512178
0.00806861
0.00378241
0.00134608
0.00138669
0.00145776
0.00152499
0.00168315
0.00183586
0.00225369
0.00291707
0.00514231
0.00804085
0.00374982
0.00138812
0.00145915
0.00152692
0.00168467
0.00183833
0.00225631
0.00292609
0.00515221
0.00801476
0.00372651
0.00138888
0.00145987
0.00152786
0.00168529
0.00183928
0.0022572
0.00292919
0.00514913
0.00798841
0.00370878
0.00119102
0.00120337
0.00121994
0.00124105
0.00127211
0.00130707
0.00136988
0.00142906
0.00157088
0.00170389
0.00204714
0.00260006
0.00431824
0.00936148
0.00457754
0.0011959
0.0012094
0.00122786
0.00125099
0.00128456
0.00132236
0.00138944
0.00145367
0.00160572
0.00175077
0.00212865
0.0027391
0.00470054
0.00939012
0.00448553
0.0012097
0.0012279
0.00125039
0.00128401
0.00132076
0.00138892
0.00145081
0.00160635
0.00175026
0.00213812
0.00276548
0.00482111
0.00935963
0.00449637
0.00121392
0.00123301
0.00125684
0.00129232
0.00133085
0.00140211
0.00146717
0.00162969
0.00178244
0.00219399
0.00286314
0.00506645
0.00935236
0.00441838
0.00123456
0.0012584
0.00129395
0.00133204
0.00140484
0.00146985
0.00163618
0.00179318
0.00221591
0.00292419
0.0052006
0.00931828
0.00441665
0.00123834
0.00126285
0.00129969
0.00133951
0.00141509
0.00148279
0.00165407
0.00181843
0.00225899
0.00300229
0.00535634
0.00927952
0.00435563
0.00124102
0.00126591
0.0013031
0.00134323
0.00141992
0.00148843
0.00166217
0.00183287
0.00228328
0.00306316
0.00545319
0.00923461
0.0043487
0.00126835
0.00130658
0.00134804
0.00142644
0.00149728
0.00167462
0.00185233
0.0023157
0.00312112
0.00554844
0.00919305
0.00430782
0.00127163
0.00131063
0.00135273
0.00143171
0.00150424
0.00168338
0.00186746
0.00233745
0.00316375
0.00563364
0.0091515
0.00429893
0.00127443
0.00131359
0.00135585
0.00143546
0.00151015
0.00169153
0.00188083
0.00235682
0.00320434
0.00571615
0.00911261
0.00427339
0.00127729
0.00131676
0.00135973
0.00143981
0.00151616
0.00169842
0.00189167
0.00237356
0.00324733
0.00579222
0.00907485
0.00426192
0.0013194
0.00136296
0.00144341
0.00152169
0.00170548
0.00190363
0.00239157
0.00328874
0.00586252
0.0090385
0.00424217
0.0013219
0.00136628
0.00144726
0.00152744
0.00171206
0.00191464
0.00240754
0.00332877
0.0059262
0.00900289
0.00422379
0.00132446
0.00136958
0.00145082
0.00153264
0.00171825
0.00192537
0.00242312
0.00336721
0.00598287
0.00896782
0.00419586
0.00132683
0.00137258
0.00145405
0.00153763
0.001724
0.00193518
0.00243707
0.0034024
0.00603151
0.00893311
0.00415429
0.00132899
0.00137536
0.0014571
0.00154225
0.00172916
0.00194393
0.00244928
0.00343373
0.00607151
0.0088991
0.00410995
0.00133095
0.00137786
0.00145979
0.00154627
0.00173341
0.00195103
0.00245911
0.00345996
0.00610196
0.00886625
0.00407567
0.0013326
0.00137995
0.00146193
0.00154941
0.00173652
0.00195618
0.00246621
0.00347998
0.00612191
0.00883482
0.00404335
0.00138121
0.00146318
0.0015513
0.00173823
0.00195912
0.00247037
0.00349248
0.00612989
0.00880469
0.00401779
0.00138182
0.00146377
0.00155217
0.00173889
0.0019602
0.002472
0.00349588
0.00612296
0.00877402
0.0039985
0.00116887
0.0011829
0.00120173
0.00122574
0.00126122
0.00130217
0.00137534
0.0014494
0.00161959
0.00179924
0.00223735
0.00302422
0.0054075