/*--------------------------------*- C++ -*----------------------------------*\
  =========                 |
  \\      /  F ield         | OpenFOAM: The Open Source CFD Toolbox
   \\    /   O peration     | Website:  https://openfoam.org
    \\  /    A nd           | Version:  6
     \\/     M anipulation  |
\*---------------------------------------------------------------------------*/
FoamFile
{
    version     2.0;
    format      ascii;
    class       volScalarField;
    location    "20";
    object      epsilon;
}
// * * * * * * * * * * * * * * * * * * * * * * * * * * * * * * * * * * * * * //

dimensions      [0 2 -3 0 0 0 0];

internalField   nonuniform List<scalar> 
2880
(
0.00241641
0.00241642
0.00241641
0.0117056
0.0117056
0.0117056
0.014311
0.014311
0.0143109
0.0162595
0.0162595
0.0162595
0.0178495
0.0178495
0.0178494
0.0191946
0.0191946
0.0191945
0.0203727
0.0203727
0.0203727
0.0214421
0.0214421
0.021442
0.0224426
0.0224425
0.0224425
0.0233907
0.0233907
0.0233906
0.0242764
0.0242764
0.0242763
0.0250657
0.0250657
0.0250656
0.0257133
0.0257133
0.0257132
0.0261793
0.0261793
0.0261792
0.0264347
0.0264347
0.0264346
0.0264346
0.0264346
0.0264345
0.026179
0.026179
0.026179
0.0257129
0.0257129
0.0257128
0.0250652
0.0250652
0.0250651
0.0242758
0.0242758
0.0242758
0.0233902
0.0233902
0.0233902
0.0224421
0.0224421
0.0224421
0.0214417
0.0214417
0.0214416
0.0203723
0.0203723
0.0203723
0.0191942
0.0191942
0.0191942
0.0178492
0.0178492
0.0178491
0.0162592
0.0162592
0.0162592
0.0143107
0.0143107
0.0143107
0.0117053
0.0117053
0.0117053
0.00241638
0.00241638
0.00241638
0.000174395
0.000174395
0.000174395
0.0102982
0.0102982
0.0102982
0.0130377
0.0130378
0.0130377
0.0149561
0.0149561
0.0149561
0.01646
0.0164601
0.01646
0.0177017
0.0177017
0.0177017
0.0187711
0.0187711
0.0187711
0.0197301
0.0197302
0.0197301
0.0206197
0.0206198
0.0206197
0.021458
0.021458
0.0214579
0.0222381
0.0222381
0.0222381
0.0229317
0.0229317
0.0229316
0.0234999
0.0234999
0.0234999
0.0239085
0.0239085
0.0239084
0.0241321
0.0241321
0.0241321
0.024132
0.024132
0.024132
0.0239082
0.0239082
0.0239082
0.0234995
0.0234996
0.0234995
0.0229312
0.0229312
0.0229312
0.0222376
0.0222376
0.0222376
0.0214576
0.0214576
0.0214576
0.0206194
0.0206194
0.0206194
0.0197298
0.0197298
0.0197298
0.0187708
0.0187708
0.0187707
0.0177014
0.0177014
0.0177014
0.0164597
0.0164598
0.0164597
0.0149558
0.0149558
0.0149558
0.0130375
0.0130375
0.0130375
0.0102979
0.0102979
0.0102979
0.000174391
0.000174392
0.000174391
0.000220788
0.000220788
0.000220787
0.00726463
0.00726463
0.00726463
0.00920324
0.00920325
0.00920324
0.0106043
0.0106043
0.0106043
0.0117087
0.0117087
0.0117086
0.0126217
0.0126217
0.0126217
0.0134083
0.0134084
0.0134083
0.0141141
0.0141141
0.0141141
0.0147692
0.0147692
0.0147692
0.0153871
0.0153871
0.0153871
0.015963
0.015963
0.015963
0.0164757
0.0164757
0.0164757
0.0168964
0.0168964
0.0168964
0.0171992
0.0171992
0.0171991
0.017365
0.0173651
0.017365
0.017365
0.017365
0.0173649
0.017199
0.017199
0.017199
0.0168961
0.0168961
0.0168961
0.0164754
0.0164754
0.0164754
0.0159626
0.0159627
0.0159626
0.0153868
0.0153869
0.0153868
0.0147689
0.0147689
0.0147689
0.0141138
0.0141139
0.0141138
0.0134081
0.0134081
0.0134081
0.0126214
0.0126215
0.0126214
0.0117084
0.0117084
0.0117084
0.0106041
0.0106041
0.0106041
0.00920304
0.00920305
0.00920304
0.00726444
0.00726445
0.00726445
0.000220784
0.000220784
0.000220784
0.000272505
0.000272505
0.000272505
0.00546177
0.00546178
0.00546177
0.00686217
0.00686218
0.00686218
0.00792614
0.00792615
0.00792614
0.00877283
0.00877285
0.00877283
0.00947406
0.00947408
0.00947405
0.010078
0.010078
0.010078
0.0106194
0.0106194
0.0106194
0.0111217
0.0111217
0.0111217
0.0115956
0.0115956
0.0115956
0.0120374
0.0120374
0.0120374
0.012431
0.012431
0.012431
0.0127542
0.0127543
0.0127542
0.012987
0.012987
0.012987
0.0131146
0.0131146
0.0131146
0.0131145
0.0131146
0.0131145
0.0129869
0.0129869
0.0129869
0.012754
0.0127541
0.012754
0.0124308
0.0124308
0.0124308
0.0120371
0.0120371
0.0120371
0.0115954
0.0115954
0.0115953
0.0111215
0.0111215
0.0111215
0.0106192
0.0106192
0.0106192
0.0100778
0.0100778
0.0100778
0.00947388
0.0094739
0.00947387
0.00877266
0.00877268
0.00877265
0.00792597
0.00792599
0.00792597
0.00686202
0.00686203
0.00686203
0.00546163
0.00546164
0.00546164
0.0002725
0.000272501
0.0002725
0.0003299
0.0003299
0.0003299
0.00430588
0.00430588
0.00430588
0.00532547
0.00532547
0.00532547
0.00615454
0.00615455
0.00615454
0.00682479
0.00682481
0.00682479
0.00738183
0.00738185
0.00738183
0.00786145
0.00786146
0.00786144
0.00829083
0.00829084
0.00829082
0.00868875
0.00868876
0.00868873
0.00906388
0.00906389
0.00906386
0.00941362
0.00941363
0.0094136
0.00972532
0.00972534
0.00972531
0.00998136
0.00998138
0.00998135
0.0101658
0.0101659
0.0101658
0.010267
0.010267
0.010267
0.0102669
0.0102669
0.0102669
0.0101657
0.0101657
0.0101657
0.0099812
0.00998121
0.00998118
0.00972512
0.00972514
0.00972511
0.0094134
0.00941341
0.00941339
0.00906371
0.00906372
0.00906369
0.00868859
0.0086886
0.00868857
0.00829068
0.00829069
0.00829066
0.0078613
0.00786131
0.00786129
0.00738169
0.0073817
0.00738168
0.00682465
0.00682467
0.00682465
0.00615441
0.00615442
0.00615441
0.00532535
0.00532536
0.00532535
0.00430577
0.00430578
0.00430577
0.000329894
0.000329895
0.000329894
0.000393295
0.000393296
0.000393295
0.00351708
0.00351708
0.00351708
0.00425521
0.00425521
0.00425521
0.00490976
0.00490977
0.00490976
0.00545156
0.00545157
0.00545155
0.00590477
0.00590478
0.00590477
0.00629522
0.00629523
0.00629521
0.00664427
0.00664428
0.00664426
0.00696722
0.00696723
0.00696721
0.00727134
0.00727135
0.00727132
0.00755474
0.00755475
0.00755472
0.0078073
0.00780731
0.00780729
0.00801481
0.00801482
0.00801479
0.00816435
0.00816436
0.00816434
0.00824636
0.00824637
0.00824634
0.00824632
0.00824633
0.00824631
0.00816426
0.00816427
0.00816425
0.00801467
0.00801468
0.00801466
0.00780714
0.00780715
0.00780713
0.00755456
0.00755457
0.00755455
0.0072712
0.00727121
0.00727119
0.00696709
0.0069671
0.00696708
0.00664415
0.00664415
0.00664413
0.0062951
0.00629511
0.00629509
0.00590465
0.00590467
0.00590465
0.00545144
0.00545145
0.00545144
0.00490966
0.00490966
0.00490966
0.00425511
0.00425512
0.00425512
0.00351699
0.003517
0.00351699
0.000393289
0.00039329
0.000393289
0.000462929
0.000462929
0.000462928
0.00295275
0.00295276
0.00295276
0.00347732
0.00347732
0.00347732
0.00399568
0.00399568
0.00399568
0.00443908
0.00443909
0.00443908
0.004814
0.00481401
0.004814
0.00513771
0.00513772
0.00513771
0.00542679
0.0054268
0.00542678
0.00569375
0.00569376
0.00569374
0.00594478
0.00594478
0.00594477
0.00617851
0.00617851
0.0061785
0.00638675
0.00638676
0.00638674
0.00655784
0.00655785
0.00655783
0.00668117
0.00668117
0.00668116
0.0067488
0.00674881
0.00674879
0.00674877
0.00674878
0.00674876
0.00668109
0.0066811
0.00668108
0.00655773
0.00655774
0.00655772
0.00638662
0.00638663
0.00638661
0.00617836
0.00617837
0.00617835
0.00594466
0.00594467
0.00594465
0.00569364
0.00569365
0.00569363
0.00542669
0.00542669
0.00542668
0.00513761
0.00513762
0.0051376
0.0048139
0.00481391
0.0048139
0.00443899
0.004439
0.00443899
0.00399559
0.0039956
0.00399559
0.00347724
0.00347725
0.00347725
0.00295269
0.00295269
0.00295269
0.000462922
0.000462922
0.000462921
0.000538892
0.000538893
0.000538892
0.00253368
0.00253369
0.00253368
0.00289411
0.00289411
0.00289411
0.00330236
0.00330236
0.00330236
0.00366721
0.00366722
0.00366721
0.00398075
0.00398076
0.00398075
0.00425276
0.00425276
0.00425275
0.0044956
0.00449561
0.00449559
0.00471945
0.00471945
0.00471944
0.00492957
0.00492957
0.00492956
0.00512499
0.00512499
0.00512498
0.00529902
0.00529902
0.00529901
0.00544197
0.00544198
0.00544196
0.00554503
0.00554503
0.00554502
0.00560155
0.00560155
0.00560154
0.00560153
0.00560153
0.00560152
0.00554496
0.00554497
0.00554495
0.00544188
0.00544189
0.00544187
0.00529891
0.00529891
0.0052989
0.00512487
0.00512488
0.00512486
0.00492947
0.00492947
0.00492946
0.00471936
0.00471936
0.00471935
0.00449551
0.00449552
0.0044955
0.00425267
0.00425268
0.00425266
0.00398067
0.00398067
0.00398066
0.00366713
0.00366714
0.00366713
0.00330229
0.00330229
0.00330229
0.00289405
0.00289405
0.00289405
0.00253363
0.00253363
0.00253363
0.000538884
0.000538885
0.000538883
0.000621063
0.000621064
0.000621063
0.00221267
0.00221267
0.00221267
0.00244658
0.00244658
0.00244658
0.0027637
0.00276371
0.0027637
0.00306369
0.00306369
0.00306368
0.00332749
0.00332749
0.00332748
0.00355823
0.00355823
0.00355822
0.00376448
0.00376448
0.00376447
0.0039543
0.0039543
0.00395429
0.00413214
0.00413215
0.00413213
0.00429733
0.00429733
0.00429732
0.00444431
0.00444432
0.0044443
0.00456502
0.00456503
0.00456501
0.00465204
0.00465204
0.00465203
0.00469977
0.00469977
0.00469976
0.00469975
0.00469975
0.00469974
0.00465199
0.00465199
0.00465198
0.00456495
0.00456495
0.00456494
0.00444422
0.00444422
0.00444421
0.00429723
0.00429723
0.00429722
0.00413206
0.00413206
0.00413205
0.00395422
0.00395423
0.00395422
0.0037644
0.0037644
0.0037644
0.00355816
0.00355816
0.00355815
0.00332741
0.00332742
0.00332741
0.00306362
0.00306362
0.00306362
0.00276364
0.00276365
0.00276364
0.00244653
0.00244653
0.00244653
0.00221262
0.00221263
0.00221262
0.000621054
0.000621055
0.000621053
0.000709035
0.000709036
0.000709035
0.00196006
0.00196007
0.00196006
0.00209689
0.0020969
0.00209689
0.00233758
0.00233759
0.00233758
0.00258257
0.00258257
0.00258257
0.00280487
0.00280487
0.00280486
0.00300181
0.00300181
0.0030018
0.00317843
0.00317843
0.00317842
0.00334085
0.00334085
0.00334085
0.00349274
0.00349274
0.00349273
0.00363359
0.00363359
0.00363358
0.00375881
0.00375881
0.0037588
0.0038616
0.0038616
0.00386159
0.00393568
0.00393568
0.00393567
0.00397633
0.00397633
0.00397632
0.00397631
0.00397631
0.0039763
0.00393564
0.00393564
0.00393563
0.00386153
0.00386153
0.00386152
0.00375873
0.00375873
0.00375872
0.00363351
0.00363351
0.0036335
0.00349267
0.00349267
0.00349266
0.00334079
0.00334079
0.00334078
0.00317837
0.00317837
0.00317836
0.00300174
0.00300175
0.00300174
0.0028048
0.00280481
0.0028048
0.00258251
0.00258252
0.00258251
0.00233753
0.00233753
0.00233753
0.00209685
0.00209685
0.00209685
0.00196003
0.00196003
0.00196002
0.000709025
0.000709026
0.000709024
0.00080205
0.000802051
0.000802049
0.00175649
0.00175649
0.00175649
0.00181957
0.00181957
0.00181956
0.00199583
0.00199583
0.00199583
0.00219328
0.00219328
0.00219328
0.00238005
0.00238005
0.00238005
0.00254863
0.00254863
0.00254863
0.00270078
0.00270078
0.00270077
0.00284075
0.00284075
0.00284074
0.00297142
0.00297142
0.00297141
0.00309239
0.00309239
0.00309238
0.00319982
0.00319982
0.00319981
0.00328795
0.00328795
0.00328794
0.00335146
0.00335146
0.00335145
0.0033863
0.0033863
0.00338629
0.00338628
0.00338628
0.00338628
0.00335142
0.00335142
0.00335141
0.0032879
0.0032879
0.00328789
0.00319976
0.00319976
0.00319975
0.00309232
0.00309232
0.00309232
0.00297135
0.00297135
0.00297135
0.00284069
0.00284069
0.00284068
0.00270072
0.00270072
0.00270072
0.00254858
0.00254858
0.00254857
0.00238
0.00238
0.00238
0.00219323
0.00219323
0.00219323
0.00199578
0.00199579
0.00199578
0.00181953
0.00181953
0.00181953
0.00175646
0.00175646
0.00175646
0.000802038
0.000802039
0.000802037
0.000898958
0.000898959
0.000898957
0.00158891
0.00158891
0.00158891
0.00159673
0.00159673
0.00159673
0.0017188
0.0017188
0.00171879
0.00187466
0.00187466
0.00187465
0.00203037
0.00203037
0.00203036
0.0021746
0.0021746
0.0021746
0.00230614
0.00230614
0.00230614
0.00242742
0.00242742
0.00242741
0.00254051
0.00254051
0.00254051
0.00264505
0.00264505
0.00264504
0.00273775
0.00273775
0.00273774
0.00281374
0.00281374
0.00281373
0.00286848
0.00286848
0.00286847
0.00289851
0.0028985
0.0028985
0.00289849
0.00289849
0.00289849
0.00286845
0.00286845
0.00286844
0.00281369
0.00281369
0.00281369
0.0027377
0.0027377
0.00273769
0.00264499
0.00264499
0.00264498
0.00254046
0.00254046
0.00254046
0.00242737
0.00242737
0.00242736
0.00230609
0.00230609
0.00230609
0.00217455
0.00217456
0.00217455
0.00203032
0.00203032
0.00203032
0.00187461
0.00187461
0.00187461
0.00171876
0.00171876
0.00171876
0.0015967
0.0015967
0.00159669
0.00158888
0.00158889
0.00158888
0.000898945
0.000898946
0.000898944
0.000998219
0.00099822
0.000998217
0.00144838
0.00144838
0.00144838
0.00141543
0.00141543
0.00141543
0.00149229
0.00149229
0.00149229
0.00161156
0.00161156
0.00161155
0.00173965
0.00173965
0.00173964
0.00186255
0.00186255
0.00186255
0.00197641
0.00197641
0.0019764
0.0020819
0.0020819
0.00208189
0.00218026
0.00218026
0.00218026
0.00227104
0.00227104
0.00227103
0.00235143
0.00235143
0.00235142
0.00241725
0.00241725
0.00241725
0.00246465
0.00246464
0.00246464
0.00249064
0.00249064
0.00249063
0.00249063
0.00249063
0.00249062
0.00246462
0.00246462
0.00246461
0.00241721
0.00241721
0.00241721
0.00235138
0.00235138
0.00235137
0.00227099
0.00227099
0.00227098
0.00218022
0.00218022
0.00218021
0.00208185
0.00208185
0.00208185
0.00197637
0.00197637
0.00197636
0.00186251
0.00186251
0.0018625
0.00173961
0.00173961
0.0017396
0.00161152
0.00161152
0.00161152
0.00149226
0.00149226
0.00149226
0.0014154
0.00141541
0.0014154
0.00144835
0.00144836
0.00144835
0.000998204
0.000998205
0.000998202
0.00109796
0.00109796
0.00109796
0.00132867
0.00132867
0.00132867
0.00126604
0.00126605
0.00126604
0.0013057
0.00130571
0.0013057
0.00139281
0.00139281
0.00139281
0.00149606
0.00149606
0.00149605
0.00159991
0.00159991
0.00159991
0.00169832
0.00169832
0.00169832
0.00179028
0.00179028
0.00179028
0.00187615
0.00187615
0.00187615
0.00195531
0.00195531
0.00195531
0.00202531
0.0020253
0.0020253
0.00208255
0.00208255
0.00208254
0.00212374
0.00212373
0.00212373
0.00214632
0.00214632
0.00214631
0.00214631
0.00214631
0.0021463
0.00212371
0.00212371
0.0021237
0.00208252
0.00208251
0.00208251
0.00202527
0.00202527
0.00202526
0.00195527
0.00195527
0.00195527
0.00187612
0.00187611
0.00187611
0.00179024
0.00179024
0.00179024
0.00169829
0.00169829
0.00169828
0.00159987
0.00159987
0.00159987
0.00149602
0.00149602
0.00149602
0.00139278
0.00139278
0.00139278
0.00130568
0.00130568
0.00130568
0.00126602
0.00126602
0.00126602
0.00132865
0.00132865
0.00132865
0.00109794
0.00109794
0.00109794
0.00119609
0.00119609
0.00119609
0.00122543
0.00122543
0.00122543
0.00114126
0.00114127
0.00114126
0.0011509
0.0011509
0.0011509
0.00120995
0.00120995
0.00120995
0.00129071
0.00129071
0.00129071
0.00137729
0.00137729
0.00137729
0.00146196
0.00146196
0.00146196
0.00154215
0.00154215
0.00154214
0.00161732
0.00161731
0.00161731
0.00168658
0.00168657
0.00168657
0.00174773
0.00174772
0.00174772
0.00179766
0.00179766
0.00179766
0.00183356
0.00183356
0.00183355
0.00185324
0.00185323
0.00185323
0.00185323
0.00185323
0.00185322
0.00183354
0.00183354
0.00183353
0.00179764
0.00179763
0.00179763
0.0017477
0.00174769
0.00174769
0.00168654
0.00168654
0.00168654
0.00161728
0.00161728
0.00161728
0.00154212
0.00154212
0.00154211
0.00146193
0.00146193
0.00146193
0.00137726
0.00137726
0.00137725
0.00129068
0.00129068
0.00129068
0.00120993
0.00120993
0.00120992
0.00115088
0.00115088
0.00115088
0.00114125
0.00114125
0.00114124
0.00122542
0.00122542
0.00122541
0.00119607
0.00119607
0.00119607
0.00129053
0.00129053
0.00129052
0.00113557
0.00113558
0.00113557
0.00103547
0.00103548
0.00103547
0.00102148
0.00102148
0.00102148
0.00105637
0.00105637
0.00105637
0.0011168
0.00111679
0.00111679
0.00118752
0.00118752
0.00118751
0.00125975
0.00125975
0.00125975
0.00132955
0.00132954
0.00132954
0.00139543
0.00139543
0.00139542
0.00145619
0.00145619
0.00145618
0.00150976
0.00150976
0.00150975
0.00155344
0.00155343
0.00155343
0.0015848
0.00158479
0.00158479
0.00160197
0.00160197
0.00160197
0.00160197
0.00160196
0.00160196
0.00158478
0.00158477
0.00158477
0.00155341
0.00155341
0.00155341
0.00150973
0.00150973
0.00150973
0.00145616
0.00145616
0.00145616
0.0013954
0.0013954
0.0013954
0.00132952
0.00132952
0.00132952
0.00125973
0.00125972
0.00125972
0.00118749
0.00118749
0.00118749
0.00111677
0.00111677
0.00111677
0.00105635
0.00105635
0.00105635
0.00102146
0.00102146
0.00102146
0.00103546
0.00103546
0.00103546
0.00113556
0.00113556
0.00113556
0.00129051
0.00129051
0.0012905
0.00137939
0.0013794
0.00137939
0.00105689
0.00105689
0.00105689
0.00094433
0.000944333
0.000944329
0.000912303
0.000912305
0.000912302
0.000926797
0.000926797
0.000926795
0.000968942
0.000968942
0.00096894
0.00102502
0.00102502
0.00102502
0.00108583
0.00108583
0.00108583
0.0011463
0.0011463
0.00114629
0.00120404
0.00120403
0.00120403
0.00125743
0.00125742
0.00125742
0.00130446
0.00130446
0.00130446
0.00134274
0.00134273
0.00134273
0.00137018
0.00137017
0.00137017
0.0013852
0.00138519
0.00138519
0.00138519
0.00138519
0.00138518
0.00137016
0.00137016
0.00137015
0.00134272
0.00134271
0.00134271
0.00130444
0.00130444
0.00130443
0.0012574
0.0012574
0.0012574
0.00120401
0.00120401
0.00120401
0.00114628
0.00114627
0.00114627
0.00108581
0.00108581
0.0010858
0.001025
0.001025
0.001025
0.000968921
0.00096892
0.000968919
0.000926778
0.000926778
0.000926776
0.000912287
0.000912289
0.000912286
0.000944315
0.000944318
0.000944314
0.00105688
0.00105688
0.00105688
0.00137937
0.00137937
0.00137937
0.00146129
0.00146129
0.00146128
0.000987779
0.000987782
0.000987778
0.000864479
0.000864483
0.000864479
0.000819205
0.000819207
0.000819205
0.000816914
0.000816914
0.000816913
0.000842845
0.000842845
0.000842844
0.000885396
0.000885396
0.000885394
0.000935577
0.000935575
0.000935574
0.00098754
0.000987538
0.000987536
0.00103804
0.00103803
0.00103803
0.00108498
0.00108498
0.00108498
0.00112634
0.00112634
0.00112634
0.00115993
0.00115993
0.00115992
0.00118396
0.00118396
0.00118396
0.0011971
0.0011971
0.0011971
0.0011971
0.0011971
0.00119709
0.00118395
0.00118395
0.00118394
0.00115991
0.00115991
0.00115991
0.00112632
0.00112632
0.00112632
0.00108497
0.00108497
0.00108496
0.00103802
0.00103801
0.00103801
0.000987522
0.00098752
0.000987518
0.000935559
0.000935557
0.000935556
0.000885378
0.000885377
0.000885376
0.000842827
0.000842827
0.000842826
0.000816898
0.000816899
0.000816897
0.000819192
0.000819194
0.000819191
0.000864466
0.00086447
0.000864466
0.00098777
0.000987774
0.000987769
0.00146126
0.00146126
0.00146126
0.00153544
0.00153544
0.00153543
0.000927047
0.000927051
0.000927047
0.000793372
0.000793375
0.000793372
0.000738773
0.000738775
0.000738773
0.000723132
0.000723133
0.000723132
0.000734958
0.000734959
0.000734958
0.000765084
0.000765084
0.000765083
0.00080531
0.000805309
0.000805308
0.0008494
0.000849399
0.000849398
0.000893366
0.000893364
0.000893363
0.000934623
0.000934621
0.000934619
0.000971009
0.000971007
0.000971005
0.00100051
0.0010005
0.0010005
0.00102157
0.00102156
0.00102156
0.00103306
0.00103306
0.00103306
0.00103306
0.00103306
0.00103305
0.00102155
0.00102155
0.00102155
0.00100049
0.00100049
0.00100049
0.000970995
0.000970993
0.000970991
0.000934609
0.000934607
0.000934606
0.000893349
0.000893347
0.000893346
0.000849386
0.000849384
0.000849383
0.000805295
0.000805294
0.000805293
0.000765069
0.000765069
0.000765068
0.000734944
0.000734944
0.000734943
0.000723119
0.00072312
0.000723119
0.000738762
0.000738764
0.000738762
0.00079336
0.000793364
0.00079336
0.00092704
0.000927044
0.000927039
0.00153541
0.00153541
0.00153541
0.00160181
0.00160181
0.00160181
0.000873811
0.000873816
0.000873811
0.000729117
0.00072912
0.000729117
0.000668221
0.000668223
0.000668222
0.00064242
0.000642421
0.000642421
0.000642303
0.000642304
0.000642303
0.000661164
0.000661164
0.000661164
0.000692052
0.000692052
0.000692051
0.000728763
0.000728762
0.000728761
0.000766747
0.000766747
0.000766746
0.000802915
0.000802914
0.000802913
0.000834917
0.000834916
0.000834914
0.000860819
0.000860817
0.000860815
0.000879261
0.000879259
0.000879257
0.000889312
0.000889309
0.000889307
0.000889308
0.000889306
0.000889304
0.000879252
0.00087925
0.000879248
0.000860807
0.000860806
0.000860804
0.000834906
0.000834905
0.000834903
0.000802905
0.000802904
0.000802902
0.000766733
0.000766732
0.000766731
0.000728751
0.00072875
0.000728749
0.00069204
0.00069204
0.000692039
0.000661152
0.000661152
0.000661152
0.000642291
0.000642292
0.000642292
0.00064241
0.000642411
0.000642411
0.000668211
0.000668214
0.000668212
0.000729107
0.00072911
0.000729107
0.000873806
0.00087381
0.000873806
0.00160179
0.00160179
0.00160178
0.00166106
0.00166106
0.00166105
0.000827426
0.00082743
0.000827426
0.000670379
0.000670382
0.00067038
0.000605304
0.000605306
0.000605305
0.0005722
0.000572202
0.000572202
0.000562326
0.000562328
0.000562328
0.000571185
0.000571187
0.000571186
0.000593363
0.000593364
0.000593364
0.000623097
0.000623097
0.000623097
0.000655519
0.00065552
0.000655519
0.000687073
0.000687073
0.000687072
0.000715167
0.000715167
0.000715166
0.000737885
0.000737884
0.000737883
0.000754012
0.000754011
0.000754009
0.00076278
0.000762779
0.000762778
0.000762778
0.000762776
0.000762775
0.000754004
0.000754003
0.000754002
0.000737875
0.000737875
0.000737873
0.000715158
0.000715158
0.000715157
0.000687065
0.000687065
0.000687064
0.000655507
0.000655508
0.000655507
0.000623087
0.000623088
0.000623087
0.000593354
0.000593355
0.000593355
0.000571176
0.000571177
0.000571177
0.000562318
0.00056232
0.000562319
0.000572192
0.000572195
0.000572194
0.000605296
0.000605298
0.000605297
0.00067037
0.000670373
0.000670371
0.000827421
0.000827425
0.000827421
0.00166103
0.00166103
0.00166102
0.00171432
0.00171432
0.00171432
0.000787448
0.000787452
0.000787449
0.000616286
0.000616289
0.000616288
0.000548259
0.000548262
0.000548261
0.000510288
0.000510291
0.00051029
0.000492815
0.000492818
0.000492817
0.000493053
0.000493055
0.000493055
0.000507217
0.000507219
0.000507219
0.000530337
0.000530339
0.000530338
0.000557512
0.000557513
0.000557513
0.000584813
0.000584815
0.000584814
0.000609381
0.000609382
0.000609381
0.000629253
0.000629254
0.000629253
0.000643317
0.000643317
0.000643316
0.000650942
0.000650942
0.000650941
0.000650939
0.000650939
0.000650938
0.00064331
0.000643311
0.000643309
0.000629245
0.000629246
0.000629245
0.000609374
0.000609375
0.000609374
0.000584808
0.000584809
0.000584808
0.000557501
0.000557503
0.000557502
0.000530329
0.000530331
0.000530331
0.000507211
0.000507213
0.000507212
0.000493046
0.000493049
0.000493048
0.000492809
0.000492812
0.000492811
0.000510283
0.000510286
0.000510285
0.000548253
0.000548256
0.000548255
0.000616278
0.000616281
0.00061628
0.000787444
0.000787448
0.000787444
0.00171429
0.00171429
0.00171429
0.00176302
0.00176302
0.00176301
0.000753613
0.000753616
0.000753614
0.000566347
0.00056635
0.000566349
0.000495766
0.00049577
0.000495769
0.000454859
0.000454863
0.000454862
0.000431842
0.000431845
0.000431845
0.000424947
0.000424951
0.00042495
0.000431909
0.000431912
0.000431912
0.000448788
0.000448791
0.000448791
0.000470957
0.00047096
0.000470959
0.00049427
0.000494273
0.000494272
0.000515603
0.000515606
0.000515605
0.000532903
0.000532906
0.000532905
0.000545111
0.000545113
0.000545112
0.000551708
0.00055171
0.000551709
0.000551706
0.000551708
0.000551707
0.000545105
0.000545107
0.000545106
0.000532897
0.000532899
0.000532899
0.000515598
0.000515601
0.0005156
0.000494266
0.000494269
0.000494269
0.000470948
0.000470951
0.000470951
0.000448783
0.000448786
0.000448785
0.000431905
0.000431908
0.000431908
0.000424943
0.000424947
0.000424946
0.000431838
0.000431842
0.000431841
0.000454856
0.00045486
0.000454859
0.000495762
0.000495765
0.000495765
0.00056634
0.000566343
0.000566342
0.000753609
0.000753612
0.00075361
0.00176299
0.00176299
0.00176298
0.00180854
0.00180854
0.00180854
0.0007258
0.000725803
0.000725802
0.000520364
0.000520367
0.000520366
0.000446909
0.000446913
0.000446912
0.000404437
0.000404441
0.000404441
0.000377745
0.000377749
0.000377749
0.00036528
0.000365285
0.000365284
0.000365991
0.000365996
0.000365995
0.000377065
0.00037707
0.00037707
0.000394428
0.000394433
0.000394433
0.00041393
0.000413935
0.000413935
0.00043224
0.000432244
0.000432244
0.000447178
0.000447182
0.000447182
0.000457697
0.000457701
0.0004577
0.000463363
0.000463367
0.000463366
0.000463361
0.000463365
0.000463364
0.000457693
0.000457696
0.000457696
0.000447173
0.000447177
0.000447177
0.000432236
0.000432241
0.00043224
0.000413929
0.000413933
0.000413933
0.000394421
0.000394426
0.000394425
0.000377061
0.000377066
0.000377066
0.000365988
0.000365993
0.000365993
0.000365278
0.000365283
0.000365283
0.000377743
0.000377748
0.000377747
0.000404436
0.00040444
0.00040444
0.000446907
0.00044691
0.000446909
0.000520359
0.000520362
0.000520361
0.000725796
0.000725799
0.000725797
0.00180851
0.00180851
0.0018085
0.00185202
0.00185202
0.00185201
0.000703988
0.000703991
0.00070399
0.000478352
0.000478355
0.000478354
0.000401134
0.000401138
0.000401137
0.000357896
0.0003579
0.0003579
0.000329134
0.000329139
0.000329139
0.000312681
0.000312687
0.000312687
0.000308238
0.000308244
0.000308244
0.000314049
0.000314056
0.000314056
0.000326807
0.000326813
0.000326813
0.000342605
0.000342611
0.000342611
0.00035802
0.000358026
0.000358026
0.000370747
0.000370753
0.000370753
0.000379709
0.000379715
0.000379715
0.000384522
0.000384528
0.000384528
0.000384521
0.000384526
0.000384526
0.000379706
0.000379711
0.000379711
0.000370743
0.000370749
0.000370749
0.000358018
0.000358024
0.000358024
0.000342604
0.000342611
0.000342611
0.0003268
0.000326807
0.000326807
0.000314047
0.000314053
0.000314053
0.000308237
0.000308243
0.000308243
0.000312681
0.000312687
0.000312687
0.000329135
0.00032914
0.00032914
0.000357896
0.0003579
0.0003579
0.000401133
0.000401137
0.000401136
0.000478348
0.000478351
0.00047835
0.000703983
0.000703986
0.000703984
0.00185198
0.00185199
0.00185198
0.00189413
0.00189413
0.00189412
0.000688193
0.000688196
0.000688194
0.000440461
0.000440464
0.000440463
0.000358205
0.000358209
0.000358209
0.000314469
0.000314474
0.000314474
0.000284926
0.000284932
0.000284932
0.000266019
0.000266025
0.000266025
0.000257644
0.000257651
0.000257651
0.000258873
0.000258881
0.000258881
0.000267266
0.000267275
0.000267275
0.000279419
0.000279428
0.000279428
0.000291996
0.000292004
0.000292004
0.000302603
0.000302611
0.000302611
0.000310105
0.000310112
0.000310112
0.000314128
0.000314135
0.000314135
0.000314127
0.000314134
0.000314134
0.000310102
0.00031011
0.00031011
0.0003026
0.000302608
0.000302608
0.000291994
0.000292002
0.000292003
0.00027942
0.000279428
0.000279428
0.000267261
0.000267269
0.000267269
0.000258872
0.00025888
0.00025888
0.000257644
0.000257652
0.000257652
0.00026602
0.000266027
0.000266027
0.000284929
0.000284934
0.000284934
0.000314472
0.000314476
0.000314476
0.000358206
0.000358209
0.000358209
0.000440457
0.00044046
0.000440459
0.000688187
0.00068819
0.000688187
0.00189409
0.00189409
0.00189409
0.00193501
0.00193501
0.001935
0.000678393
0.000678396
0.000678394
0.000406916
0.000406919
0.000406918
0.000318162
0.000318166
0.000318165
0.000273776
0.000273781
0.000273781
0.000244399
0.000244405
0.000244405
0.000224454
0.000224461
0.000224461
0.000213447
0.000213455
0.000213455
0.000210925
0.000210935
0.000210935
0.000215286
0.000215296
0.000215296
0.000223841
0.000223851
0.000223851
0.000233574
0.000233584
0.000233584
0.000242098
0.000242108
0.000242108
0.000248203
0.000248213
0.000248213
0.000251486
0.000251496
0.000251496
0.000251485
0.000251495
0.000251495
0.000248201
0.000248211
0.000248211
0.000242096
0.000242106
0.000242106
0.000233573
0.000233583
0.000233583
0.000223843
0.000223853
0.000223853
0.000215281
0.00021529
0.000215291
0.000210925
0.000210934
0.000210934
0.000213448
0.000213457
0.000213457
0.000224457
0.000224464
0.000224464
0.000244403
0.000244409
0.000244409
0.00027378
0.000273784
0.000273784
0.000318164
0.000318167
0.000318167
0.000406913
0.000406916
0.000406915
0.000678385
0.000678388
0.000678385
0.00193497
0.00193497
0.00193496
0.00197422
0.00197422
0.00197422
0.000674425
0.000674427
0.000674425
0.000377985
0.000377988
0.000377987
0.000281298
0.000281302
0.000281301
0.000235857
0.000235861
0.000235861
0.000207281
0.000207287
0.000207287
0.000187532
0.00018754
0.00018754
0.000175189
0.000175198
0.000175198
0.000169878
0.000169888
0.000169888
0.000170673
0.000170684
0.000170684
0.000175727
0.000175739
0.000175739
0.000182587
0.000182599
0.000182599
0.000189027
0.000189039
0.000189039
0.000193778
0.00019379
0.00019379
0.000196361
0.000196373
0.000196373
0.000196361
0.000196372
0.000196372
0.000193776
0.000193788
0.000193788
0.000189026
0.000189038
0.000189038
0.000182587
0.000182599
0.000182599
0.00017573
0.000175741
0.000175741
0.000170668
0.000170679
0.000170679
0.000169878
0.000169888
0.000169888
0.000175191
0.000175201
0.000175201
0.000187536
0.000187544
0.000187544
0.000207286
0.000207292
0.000207292
0.000235862
0.000235866
0.000235866
0.000281301
0.000281304
0.000281304
0.000377982
0.000377984
0.000377984
0.000674415
0.000674417
0.000674415
0.00197418
0.00197418
0.00197417
0.00201075
0.00201075
0.00201074
0.0006758
0.000675802
0.0006758
0.000353967
0.000353969
0.000353968
0.000248195
0.000248198
0.000248197
0.000201254
0.000201258
0.000201258
0.00017387
0.000173877
0.000173877
0.000155297
0.000155305
0.000155305
0.000142796
0.000142806
0.000142806
0.000135714
0.000135725
0.000135725
0.000133575
0.000133587
0.000133587
0.000135365
0.000135378
0.000135378
0.000139384
0.000139397
0.000139397
0.00014375
0.000143764
0.000143764
0.00014719
0.000147203
0.000147203
0.000149117
0.00014913
0.000149131
0.000149117
0.00014913
0.00014913
0.000147188
0.000147201
0.000147202
0.000143749
0.000143762
0.000143762
0.000139384
0.000139396
0.000139397
0.000135368
0.00013538
0.00013538
0.000133571
0.000133583
0.000133583
0.000135714
0.000135725
0.000135725
0.000142799
0.000142809
0.000142809
0.000155302
0.00015531
0.00015531
0.000173876
0.000173883
0.000173883
0.00020126
0.000201264
0.000201264
0.000248198
0.000248201
0.000248201
0.000353964
0.000353965
0.000353964
0.000675787
0.000675789
0.000675786
0.0020107
0.0020107
0.0020107
0.00204295
0.00204295
0.00204294
0.000681391
0.000681392
0.00068139
0.000335198
0.000335199
0.000335198
0.000219847
0.000219849