/*--------------------------------*- C++ -*----------------------------------*\
  =========                 |
  \\      /  F ield         | OpenFOAM: The Open Source CFD Toolbox
   \\    /   O peration     | Website:  https://openfoam.org
    \\  /    A nd           | Version:  6
     \\/     M anipulation  |
\*---------------------------------------------------------------------------*/
FoamFile
{
    version     2.0;
    format      ascii;
    class       volScalarField;
    location    "20";
    object      k;
}
// * * * * * * * * * * * * * * * * * * * * * * * * * * * * * * * * * * * * * //

dimensions      [0 2 -2 0 0 0 0];

internalField   nonuniform List<scalar> 
2880
(
0.000128671
0.000128672
0.000128671
0.000318293
0.000318293
0.000318292
0.000389135
0.000389135
0.000389135
0.000442119
0.000442119
0.000442118
0.000485352
0.000485352
0.00048535
0.000521926
0.000521927
0.000521925
0.00055396
0.00055396
0.000553958
0.000583038
0.000583038
0.000583036
0.000610241
0.00061024
0.000610238
0.000636021
0.000636021
0.000636018
0.000660104
0.000660104
0.000660101
0.000681565
0.000681565
0.000681563
0.000699174
0.000699174
0.000699172
0.000711846
0.000711847
0.000711844
0.000718789
0.000718789
0.000718787
0.000718787
0.000718787
0.000718784
0.000711839
0.000711839
0.000711837
0.000699163
0.000699164
0.000699161
0.000681553
0.000681553
0.00068155
0.00066009
0.00066009
0.000660087
0.000636009
0.000636009
0.000636007
0.000610229
0.000610229
0.000610227
0.000583027
0.000583027
0.000583025
0.00055395
0.00055395
0.000553948
0.000521916
0.000521917
0.000521915
0.000485342
0.000485342
0.000485341
0.000442111
0.000442111
0.00044211
0.000389128
0.000389128
0.000389127
0.000318285
0.000318285
0.000318285
0.00012867
0.00012867
0.000128669
0.000185397
0.000185397
0.000185397
0.000893482
0.000893482
0.000893481
0.00104379
0.00104379
0.00104379
0.00114866
0.00114866
0.00114866
0.00123062
0.00123062
0.00123061
0.00129791
0.00129791
0.00129791
0.00135553
0.00135553
0.00135553
0.0014069
0.00140691
0.0014069
0.00145425
0.00145425
0.00145425
0.00149855
0.00149855
0.00149855
0.00153948
0.00153948
0.00153947
0.00157561
0.00157561
0.00157561
0.00160503
0.00160503
0.00160503
0.00162608
0.00162608
0.00162608
0.00163757
0.00163757
0.00163757
0.00163757
0.00163757
0.00163757
0.00162607
0.00162607
0.00162607
0.00160501
0.00160501
0.00160501
0.00157559
0.00157559
0.00157558
0.00153945
0.00153945
0.00153945
0.00149853
0.00149853
0.00149853
0.00145423
0.00145423
0.00145423
0.00140689
0.00140689
0.00140688
0.00135551
0.00135552
0.00135551
0.00129789
0.00129789
0.00129789
0.0012306
0.0012306
0.0012306
0.00114865
0.00114865
0.00114865
0.00104377
0.00104377
0.00104377
0.000893466
0.000893466
0.000893465
0.000185395
0.000185395
0.000185395
0.000216969
0.000216969
0.000216969
0.000981976
0.000981976
0.000981976
0.00113032
0.00113032
0.00113032
0.00123885
0.00123885
0.00123884
0.00132501
0.00132501
0.001325
0.0013963
0.0013963
0.0013963
0.00145762
0.00145762
0.00145762
0.00151245
0.00151245
0.00151244
0.00156308
0.00156308
0.00156307
0.00161051
0.00161051
0.0016105
0.00165436
0.00165436
0.00165436
0.0016931
0.0016931
0.0016931
0.00172465
0.00172465
0.00172465
0.00174723
0.00174723
0.00174723
0.00175956
0.00175956
0.00175956
0.00175956
0.00175956
0.00175955
0.00174722
0.00174722
0.00174722
0.00172463
0.00172463
0.00172463
0.00169308
0.00169308
0.00169307
0.00165434
0.00165434
0.00165433
0.00161049
0.00161049
0.00161048
0.00156306
0.00156306
0.00156305
0.00151243
0.00151243
0.00151242
0.0014576
0.0014576
0.0014576
0.00139628
0.00139628
0.00139628
0.00132499
0.00132499
0.00132499
0.00123883
0.00123883
0.00123883
0.0011303
0.0011303
0.0011303
0.000981959
0.000981959
0.000981958
0.000216966
0.000216966
0.000216966
0.000249649
0.000249649
0.000249649
0.00102704
0.00102704
0.00102704
0.00116637
0.00116637
0.00116636
0.0012738
0.0012738
0.00127379
0.0013606
0.0013606
0.0013606
0.00143301
0.00143301
0.001433
0.00149558
0.00149558
0.00149557
0.00155168
0.00155168
0.00155167
0.00160357
0.00160357
0.00160357
0.00165224
0.00165224
0.00165223
0.00169726
0.00169726
0.00169726
0.00173704
0.00173704
0.00173704
0.00176945
0.00176945
0.00176944
0.00179264
0.00179264
0.00179264
0.0018053
0.0018053
0.0018053
0.0018053
0.0018053
0.00180529
0.00179263
0.00179263
0.00179262
0.00176943
0.00176943
0.00176942
0.00173702
0.00173702
0.00173702
0.00169724
0.00169724
0.00169723
0.00165222
0.00165222
0.00165221
0.00160355
0.00160355
0.00160355
0.00155166
0.00155166
0.00155165
0.00149556
0.00149556
0.00149555
0.00143299
0.00143299
0.00143298
0.00136058
0.00136058
0.00136058
0.00127378
0.00127378
0.00127378
0.00116635
0.00116635
0.00116635
0.00102702
0.00102702
0.00102702
0.000249646
0.000249647
0.000249646
0.000283576
0.000283576
0.000283575
0.00105861
0.00105861
0.00105861
0.00118591
0.00118591
0.00118591
0.00128998
0.00128997
0.00128997
0.00137588
0.00137588
0.00137588
0.00144827
0.00144827
0.00144827
0.00151118
0.00151118
0.00151118
0.00156779
0.00156779
0.00156778
0.00162025
0.00162025
0.00162024
0.0016695
0.0016695
0.0016695
0.0017151
0.00171509
0.00171509
0.00175539
0.00175539
0.00175538
0.00178821
0.00178821
0.0017882
0.0018117
0.0018117
0.00181169
0.00182452
0.00182452
0.00182452
0.00182452
0.00182452
0.00182451
0.00181168
0.00181168
0.00181168
0.00178819
0.00178819
0.00178818
0.00175536
0.00175536
0.00175536
0.00171507
0.00171507
0.00171506
0.00166948
0.00166948
0.00166947
0.00162023
0.00162023
0.00162022
0.00156776
0.00156776
0.00156776
0.00151116
0.00151116
0.00151116
0.00144825
0.00144825
0.00144825
0.00137586
0.00137586
0.00137586
0.00128996
0.00128996
0.00128996
0.00118589
0.00118589
0.00118589
0.00105859
0.00105859
0.00105859
0.000283572
0.000283573
0.000283572
0.000318831
0.000318831
0.00031883
0.00108464
0.00108464
0.00108464
0.00119856
0.00119856
0.00119856
0.00129766
0.00129766
0.00129765
0.00138162
0.00138162
0.00138162
0.0014533
0.0014533
0.0014533
0.00151606
0.00151606
0.00151605
0.00157276
0.00157276
0.00157276
0.00162546
0.00162546
0.00162546
0.001675
0.001675
0.001675
0.00172089
0.00172089
0.00172089
0.00176145
0.00176145
0.00176145
0.00179449
0.00179449
0.00179449
0.00181814
0.00181814
0.00181813
0.00183105
0.00183105
0.00183104
0.00183104
0.00183104
0.00183104
0.00181812
0.00181812
0.00181812
0.00179447
0.00179447
0.00179447
0.00176143
0.00176143
0.00176142
0.00172087
0.00172087
0.00172086
0.00167498
0.00167498
0.00167497
0.00162544
0.00162544
0.00162543
0.00157274
0.00157274
0.00157274
0.00151603
0.00151603
0.00151603
0.00145328
0.00145328
0.00145328
0.0013816
0.0013816
0.0013816
0.00129764
0.00129764
0.00129764
0.00119855
0.00119855
0.00119855
0.00108462
0.00108462
0.00108462
0.000318827
0.000318827
0.000318827
0.000355432
0.000355433
0.000355432
0.00110783
0.00110783
0.00110782
0.00120813
0.00120813
0.00120813
0.00130092
0.00130092
0.00130092
0.00138203
0.00138203
0.00138202
0.00145242
0.00145242
0.00145242
0.00151465
0.00151465
0.00151464
0.0015712
0.0015712
0.00157119
0.00162393
0.00162393
0.00162392
0.00167359
0.00167359
0.00167358
0.00171962
0.00171962
0.00171962
0.00176032
0.00176032
0.00176031
0.00179347
0.00179347
0.00179347
0.0018172
0.00181719
0.00181719
0.00183015
0.00183015
0.00183014
0.00183015
0.00183014
0.00183014
0.00181718
0.00181718
0.00181718
0.00179345
0.00179345
0.00179345
0.0017603
0.0017603
0.00176029
0.0017196
0.0017196
0.00171959
0.00167356
0.00167356
0.00167356
0.0016239
0.0016239
0.0016239
0.00157118
0.00157118
0.00157117
0.00151462
0.00151462
0.00151462
0.0014524
0.0014524
0.0014524
0.00138201
0.00138201
0.00138201
0.0013009
0.0013009
0.0013009
0.00120811
0.00120811
0.00120811
0.00110781
0.00110781
0.00110781
0.000355429
0.000355429
0.000355428
0.000393323
0.000393323
0.000393322
0.00112903
0.00112903
0.00112903
0.00121638
0.00121638
0.00121638
0.00130175
0.00130175
0.00130175
0.0013791
0.0013791
0.0013791
0.00144764
0.00144764
0.00144764
0.00150899
0.00150899
0.00150898
0.00156517
0.00156516
0.00156516
0.00161777
0.00161777
0.00161777
0.00166743
0.00166743
0.00166743
0.00171352
0.00171352
0.00171351
0.00175428
0.00175428
0.00175427
0.00178747
0.00178747
0.00178747
0.00181123
0.00181122
0.00181122
0.0018242
0.00182419
0.00182419
0.00182419
0.00182419
0.00182418
0.00181121
0.00181121
0.00181121
0.00178745
0.00178745
0.00178745
0.00175426
0.00175425
0.00175425
0.0017135
0.00171349
0.00171349
0.00166741
0.00166741
0.00166741
0.00161775
0.00161775
0.00161774
0.00156514
0.00156514
0.00156514
0.00150897
0.00150897
0.00150896
0.00144762
0.00144762
0.00144762
0.00137908
0.00137908
0.00137908
0.00130173
0.00130173
0.00130173
0.00121637
0.00121637
0.00121636
0.00112901
0.00112901
0.00112901
0.000393319
0.000393319
0.000393318
0.000432353
0.000432353
0.000432353
0.00114834
0.00114834
0.00114833
0.0012242
0.0012242
0.0012242
0.00130125
0.00130125
0.00130124
0.00137394
0.00137393
0.00137393
0.00144001
0.00144001
0.00144001
0.00150012
0.00150011
0.00150011
0.0015557
0.0015557
0.00155569
0.00160805
0.00160805
0.00160804
0.00165762
0.00165762
0.00165761
0.00170368
0.00170368
0.00170367
0.00174444
0.00174444
0.00174443
0.00177763
0.00177763
0.00177762
0.00180138
0.00180138
0.00180137
0.00181435
0.00181435
0.00181434
0.00181434
0.00181434
0.00181434
0.00180137
0.00180137
0.00180136
0.00177761
0.00177761
0.00177761
0.00174442
0.00174441
0.00174441
0.00170366
0.00170366
0.00170365
0.0016576
0.00165759
0.00165759
0.00160803
0.00160802
0.00160802
0.00155568
0.00155567
0.00155567
0.00150009
0.00150009
0.00150009
0.00143999
0.00143999
0.00143999
0.00137392
0.00137392
0.00137391
0.00130123
0.00130123
0.00130123
0.00122419
0.00122418
0.00122418
0.00114832
0.00114832
0.00114832
0.000432349
0.000432349
0.000432348
0.000472273
0.000472274
0.000472273
0.00116545
0.00116545
0.00116545
0.00123197
0.00123197
0.00123197
0.00130008
0.00130008
0.00130008
0.0013672
0.00136719
0.00136719
0.00143015
0.00143014
0.00143014
0.00148859
0.00148859
0.00148858
0.00154333
0.00154333
0.00154333
0.00159529
0.00159528
0.00159528
0.00164468
0.00164467
0.00164467
0.00169066
0.00169065
0.00169065
0.00173137
0.00173136
0.00173136
0.00176452
0.00176452
0.00176451
0.00178824
0.00178824
0.00178823
0.00180119
0.00180118
0.00180118
0.00180118
0.00180118
0.00180117
0.00178822
0.00178822
0.00178822
0.0017645
0.0017645
0.0017645
0.00173135
0.00173134
0.00173134
0.00169063
0.00169063
0.00169063
0.00164465
0.00164465
0.00164465
0.00159526
0.00159526
0.00159526
0.00154331
0.00154331
0.0015433
0.00148856
0.00148856
0.00148856
0.00143013
0.00143012
0.00143012
0.00136718
0.00136718
0.00136717
0.00130007
0.00130007
0.00130006
0.00123196
0.00123196
0.00123195
0.00116544
0.00116544
0.00116543
0.000472269
0.000472269
0.000472268
0.000512723
0.000512723
0.000512722
0.00117991
0.00117991
0.00117991
0.00123976
0.00123976
0.00123976
0.00129867
0.00129867
0.00129867
0.00135933
0.00135933
0.00135932
0.00141842
0.00141842
0.00141841
0.00147472
0.00147472
0.00147471
0.00152835
0.00152835
0.00152834
0.00157974
0.00157974
0.00157974
0.00162886
0.00162886
0.00162885
0.0016747
0.0016747
0.0016747
0.00171532
0.00171532
0.00171531
0.00174841
0.0017484
0.0017484
0.00177207
0.00177206
0.00177206
0.00178498
0.00178498
0.00178497
0.00178498
0.00178498
0.00178497
0.00177205
0.00177205
0.00177205
0.00174839
0.00174839
0.00174838
0.0017153
0.0017153
0.0017153
0.00167468
0.00167468
0.00167467
0.00162884
0.00162884
0.00162883
0.00157972
0.00157972
0.00157971
0.00152833
0.00152832
0.00152832
0.0014747
0.0014747
0.00147469
0.0014184
0.0014184
0.00141839
0.00135931
0.00135931
0.00135931
0.00129866
0.00129865
0.00129865
0.00123975
0.00123975
0.00123975
0.00117989
0.00117989
0.00117989
0.000512718
0.000512718
0.000512717
0.000553233
0.000553234
0.000553233
0.00119116
0.00119116
0.00119115
0.0012474
0.0012474
0.0012474
0.00129724
0.00129724
0.00129723
0.00135065
0.00135065
0.00135064
0.00140508
0.00140508
0.00140508
0.00145869
0.00145869
0.00145869
0.00151087
0.00151087
0.00151087
0.00156153
0.00156152
0.00156152
0.00161027
0.00161027
0.00161026
0.00165591
0.00165591
0.0016559
0.0016964
0.00169639
0.00169639
0.00172937
0.00172937
0.00172937
0.00175296
0.00175295
0.00175295
0.00176583
0.00176582
0.00176582
0.00176582
0.00176582
0.00176581
0.00175294
0.00175294
0.00175293
0.00172936
0.00172936
0.00172935
0.00169638
0.00169637
0.00169637
0.00165589
0.00165588
0.00165588
0.00161025
0.00161025
0.00161024
0.0015615
0.0015615
0.0015615
0.00151085
0.00151085
0.00151084
0.00145867
0.00145867
0.00145867
0.00140506
0.00140506
0.00140506
0.00135063
0.00135063
0.00135063
0.00129722
0.00129722
0.00129722
0.00124739
0.00124739
0.00124739
0.00119114
0.00119114
0.00119114
0.000553228
0.000553228
0.000553227
0.000593243
0.000593244
0.000593243
0.00119867
0.00119867
0.00119866
0.00125452
0.00125452
0.00125451
0.00129586
0.00129586
0.00129585
0.00134138
0.00134138
0.00134137
0.00139033
0.00139033
0.00139033
0.00144062
0.00144062
0.00144061
0.00149095
0.00149095
0.00149094
0.00154063
0.00154063
0.00154062
0.00158888
0.00158888
0.00158887
0.00163424
0.00163424
0.00163424
0.00167455
0.00167455
0.00167454
0.0017074
0.00170739
0.00170739
0.00173087
0.00173087
0.00173086
0.00174369
0.00174368
0.00174368
0.00174368
0.00174368
0.00174367
0.00173086
0.00173086
0.00173085
0.00170738
0.00170738
0.00170737
0.00167454
0.00167453
0.00167453
0.00163423
0.00163422
0.00163422
0.00158886
0.00158886
0.00158885
0.00154061
0.00154061
0.0015406
0.00149093
0.00149092
0.00149092
0.0014406
0.0014406
0.00144059
0.00139032
0.00139031
0.00139031
0.00134136
0.00134136
0.00134136
0.00129584
0.00129584
0.00129584
0.0012545
0.0012545
0.0012545
0.00119865
0.00119865
0.00119865
0.000593237
0.000593238
0.000593237
0.000632129
0.00063213
0.000632129
0.00120197
0.00120197
0.00120197
0.00126056
0.00126056
0.00126055
0.00129444
0.00129444
0.00129443
0.00133165
0.00133165
0.00133165
0.00137431
0.0013743
0.0013743
0.00142055
0.00142055
0.00142055
0.00146856
0.00146856
0.00146855
0.001517
0.001517
0.00151699
0.0015646
0.0015646
0.00156459
0.00160961
0.00160961
0.0016096
0.00164969
0.00164969
0.00164968
0.00168236
0.00168235
0.00168234
0.0017057
0.0017057
0.00170569
0.00171844
0.00171844
0.00171843
0.00171844
0.00171843
0.00171842
0.00170569
0.00170569
0.00170568
0.00168234
0.00168234
0.00168233
0.00164967
0.00164967
0.00164966
0.00160959
0.00160959
0.00160958
0.00156458
0.00156458
0.00156457
0.00151698
0.00151698
0.00151697
0.00146854
0.00146854
0.00146853
0.00142053
0.00142053
0.00142052
0.00137429
0.00137429
0.00137428
0.00133164
0.00133164
0.00133163
0.00129443
0.00129443
0.00129442
0.00126055
0.00126055
0.00126054
0.00120196
0.00120196
0.00120195
0.000632123
0.000632123
0.000632122
0.000669256
0.000669256
0.000669255
0.00120073
0.00120073
0.00120072
0.00126484
0.00126484
0.00126484
0.00129273
0.00129273
0.00129273
0.00132151
0.00132151
0.00132151
0.0013571
0.0013571
0.00135709
0.00139853
0.00139853
0.00139852
0.00144366
0.00144365
0.00144365
0.00149052
0.00149051
0.00149051
0.00153728
0.00153728
0.00153727
0.00158184
0.00158183
0.00158183
0.00162163
0.00162162
0.00162161
0.00165407
0.00165407
0.00165406
0.00167726
0.00167726
0.00167725
0.00168991
0.0016899
0.0016899
0.0016899
0.0016899
0.00168989
0.00167725
0.00167725
0.00167724
0.00165406
0.00165406
0.00165405
0.00162161
0.00162161
0.0016216
0.00158182
0.00158182
0.00158181
0.00153726
0.00153726
0.00153725
0.0014905
0.00149049
0.00149049
0.00144364
0.00144363
0.00144363
0.00139851
0.00139851
0.0013985
0.00135708
0.00135708
0.00135708
0.0013215
0.0013215
0.00132149
0.00129272
0.00129272
0.00129272
0.00126483
0.00126483
0.00126483
0.00120071
0.00120071
0.00120071
0.000669249
0.000669249
0.000669248
0.000704035
0.000704035
0.000704034
0.00119473
0.00119473
0.00119473
0.00126658
0.00126658
0.00126658
0.00129031
0.00129031
0.00129031
0.00131089
0.00131089
0.00131089
0.00133877
0.00133877
0.00133876
0.00137457
0.00137457
0.00137456
0.00141617
0.00141617
0.00141616
0.00146104
0.00146104
0.00146103
0.00150674
0.00150674
0.00150673
0.00155071
0.00155071
0.0015507
0.00159014
0.00159014
0.00159013
0.00162232
0.00162232
0.00162231
0.00164531
0.00164531
0.0016453
0.00165785
0.00165784
0.00165784
0.00165784
0.00165784
0.00165783
0.0016453
0.0016453
0.00164529
0.00162231
0.0016223
0.0016223
0.00159012
0.00159012
0.00159011
0.0015507
0.00155069
0.00155069
0.00150673
0.00150672
0.00150672
0.00146102
0.00146102
0.00146101
0.00141615
0.00141615
0.00141614
0.00137455
0.00137455
0.00137454
0.00133876
0.00133875
0.00133875
0.00131088
0.00131088
0.00131087
0.0012903
0.0012903
0.0012903
0.00126657
0.00126657
0.00126657
0.00119471
0.00119471
0.00119471
0.000704027
0.000704028
0.000704027
0.000735995
0.000735996
0.000735994
0.00118396
0.00118396
0.00118395
0.00126494
0.00126494
0.00126494
0.00128659
0.00128659
0.00128658
0.00129959
0.00129959
0.00129959
0.00131932
0.00131932
0.00131931
0.00134867
0.00134867
0.00134866
0.00138601
0.00138601
0.001386
0.00142841
0.0014284
0.0014284
0.00147276
0.00147276
0.00147275
0.00151599
0.00151599
0.00151598
0.00155496
0.00155495
0.00155495
0.00158681
0.00158681
0.0015868
0.00160957
0.00160956
0.00160955
0.00162197
0.00162197
0.00162196
0.00162196
0.00162196
0.00162195
0.00160956
0.00160955
0.00160954
0.0015868
0.0015868
0.00158679
0.00155494
0.00155494
0.00155493
0.00151597
0.00151597
0.00151596
0.00147274
0.00147274
0.00147273
0.00142839
0.00142838
0.00142838
0.00138599
0.00138599
0.00138598
0.00134865
0.00134865
0.00134864
0.0013193
0.0013193
0.00131929
0.00129958
0.00129958
0.00129958
0.00128658
0.00128658
0.00128657
0.00126493
0.00126493
0.00126493
0.00118394
0.00118394
0.00118394
0.000735988
0.000735988
0.000735987
0.000764844
0.000764845
0.000764843
0.00116857
0.00116857
0.00116857
0.00125908
0.00125908
0.00125907
0.00128079
0.00128079
0.00128078
0.00128726
0.00128726
0.00128725
0.00129865
0.00129865
0.00129865
0.0013208
0.0013208
0.00132079
0.0013531
0.00135309
0.00135309
0.00139243
0.00139242
0.00139242
0.00143508
0.00143507
0.00143507
0.00147737
0.00147737
0.00147736
0.00151577
0.00151576
0.00151576
0.00154722
0.00154722
0.00154721
0.00156969
0.00156969
0.00156968
0.00158193
0.00158193
0.00158192
0.00158193
0.00158193
0.00158192
0.00156968
0.00156968
0.00156967
0.00154721
0.00154721
0.0015472
0.00151576
0.00151575
0.00151574
0.00147735
0.00147735
0.00147734
0.00143506
0.00143506
0.00143505
0.00139241
0.00139241
0.0013924
0.00135308
0.00135308
0.00135307
0.00132078
0.00132078
0.00132077
0.00129864
0.00129864
0.00129863
0.00128725
0.00128725
0.00128724
0.00128078
0.00128078
0.00128078
0.00125907
0.00125907
0.00125906
0.00116856
0.00116856
0.00116856
0.000764836
0.000764837
0.000764835
0.000790505
0.000790505
0.000790503
0.00114894
0.00114894
0.00114893
0.00124822
0.00124822
0.00124821
0.00127202
0.00127202
0.00127202
0.00127335
0.00127335
0.00127334
0.00127659
0.00127659
0.00127658
0.0012909
0.0012909
0.00129089
0.00131733
0.00131732
0.00131732
0.00135292
0.00135292
0.00135291
0.00139343
0.00139343
0.00139342
0.00143453
0.00143453
0.00143452
0.00147222
0.00147221
0.0014722
0.00150318
0.00150318
0.00150317
0.00152531
0.0015253
0.00152529
0.00153735
0.00153735
0.00153734
0.00153735
0.00153735
0.00153734
0.0015253
0.00152529
0.00152528
0.00150317
0.00150317
0.00150316
0.0014722
0.0014722
0.00147219
0.00143452
0.00143451
0.00143451
0.00139342
0.00139341
0.0013934
0.0013529
0.0013529
0.00135289
0.00131731
0.00131731
0.0013173
0.00129089
0.00129089
0.00129088
0.00127658
0.00127657
0.00127657
0.00127334
0.00127334
0.00127333
0.00127202
0.00127202
0.00127201
0.00124821
0.00124821
0.0012482
0.00114893
0.00114893
0.00114892
0.000790496
0.000790496
0.000790495
0.000813125
0.000813126
0.000813124
0.00112559
0.00112559
0.00112558
0.00123173
0.00123173
0.00123172
0.00125929
0.00125929
0.00125928
0.00125715
0.00125715
0.00125714
0.00125278
0.00125278
0.00125277
0.00125886
0.00125886
0.00125885
0.0012786
0.0012786
0.00127859
0.0013097
0.00130969
0.00130969
0.00134754
0.00134753
0.00134753
0.00138713
0.00138712
0.00138712
0.00142391
0.00142391
0.0014239
0.00145428
0.00145427
0.00145427
0.00147599
0.00147598
0.00147597
0.0014878
0.0014878
0.00148779
0.0014878
0.0014878
0.00148779
0.00147598
0.00147597
0.00147596
0.00145427
0.00145426
0.00145426
0.0014239
0.0014239
0.00142389
0.00138712
0.00138711
0.0013871
0.00134752
0.00134752
0.00134751
0.00130968
0.00130968
0.00130967
0.00127859
0.00127858
0.00127858
0.00125885
0.00125885
0.00125884
0.00125277
0.00125277
0.00125276
0.00125714
0.00125714
0.00125713
0.00125929
0.00125929
0.00125928
0.00123172
0.00123172
0.00123171
0.00112558
0.00112558
0.00112557
0.000813116
0.000813117
0.000813115
0.000833052
0.000833053
0.000833051
0.00109922
0.00109922
0.00109922
0.00120918
0.00120918
0.00120917
0.00124156
0.00124156
0.00124155
0.00123776
0.00123776
0.00123775
0.00122674
0.00122674
0.00122673
0.00122448
0.00122448
0.00122447
0.00123681
0.00123681
0.0012368
0.00126259
0.00126259
0.00126258
0.00129712
0.00129712
0.00129711
0.0013348
0.0013348
0.00133479
0.00137045
0.00137044
0.00137043
0.00140007
0.00140006
0.00140005
0.00142127
0.00142127
0.00142126
0.00143281
0.00143281
0.0014328
0.00143281
0.00143281
0.0014328
0.00142126
0.00142126
0.00142125
0.00140006
0.00140005
0.00140004
0.00137044
0.00137043
0.00137043
0.00133479
0.00133479
0.00133478
0.00129711
0.00129711
0.0012971
0.00126258
0.00126257
0.00126257
0.0012368
0.0012368
0.00123679
0.00122447
0.00122447
0.00122446
0.00122673
0.00122673
0.00122672
0.00123775
0.00123775
0.00123774
0.00124156
0.00124156
0.00124155
0.00120917
0.00120917
0.00120916
0.00109921
0.00109921
0.00109921
0.000833043
0.000833044
0.000833042
0.000850767
0.000850768
0.000850765
0.00107067
0.00107067
0.00107066
0.0011804
0.0011804
0.00118039
0.00121786
0.00121786
0.00121785
0.00121414
0.00121414
0.00121413
0.00119779
0.00119779
0.00119778
0.00118747
0.00118747
0.00118746
0.00119184
0.00119184
0.00119183
0.00121145
0.00121145
0.00121144
0.00124194
0.00124193
0.00124193
0.00127719
0.00127719
0.00127718
0.00131139
0.00131138
0.00131137
0.00134008
0.00134008
0.00134007
0.00136067
0.00136067
0.00136066
0.00137188
0.00137188
0.00137187
0.00137188
0.00137188
0.00137187
0.00136066
0.00136066
0.00136065
0.00134007
0.00134007
0.00134006
0.00131138
0.00131138
0.00131137
0.00127718
0.00127718
0.00127717
0.00124193
0.00124193
0.00124192
0.00121144
0.00121144
0.00121143
0.00119183
0.00119183
0.00119182
0.00118746
0.00118746
0.00118745
0.00119778
0.00119778
0.00119777
0.00121414
0.00121414
0.00121413
0.00121785
0.00121785
0.00121785
0.00118039
0.00118039
0.00118039
0.00107066
0.00107066
0.00107065
0.000850758
0.000850758
0.000850756
0.000866803
0.000866804
0.000866801
0.00104084
0.00104084
0.00104083
0.00114551
0.00114551
0.0011455
0.00118734
0.00118734
0.00118733
0.00118518
0.00118518
0.00118517
0.00116507
0.00116507
0.00116506
0.00114741
0.0011474
0.0011474
0.00114356
0.00114356
0.00114355
0.00115621
0.0011562
0.0011562
0.00118179
0.00118179
0.00118178
0.00121398
0.00121398
0.00121397
0.00124633
0.00124633
0.00124632
0.00127385
0.00127385
0.00127384
0.0012937
0.0012937
0.00129369
0.00130451
0.00130451
0.0013045
0.00130451
0.00130451
0.0013045
0.00129369
0.00129369
0.00129368
0.00127385
0.00127385
0.00127384
0.00124632
0.00124632
0.00124631
0.00121397
0.00121397
0.00121396
0.00118178
0.00118178
0.00118177
0.0011562
0.0011562
0.00115619
0.00114355
0.00114355
0.00114354
0.0011474
0.0011474
0.00114739
0.00116507
0.00116507
0.00116506
0.00118518
0.00118518
0.00118517
0.00118734
0.00118734
0.00118733
0.00114551
0.00114551
0.0011455
0.00104083
0.00104083
0.00104082
0.000866794
0.000866794
0.000866792
0.000881661
0.000881662
0.000881659
0.00101066
0.00101066
0.00101066
0.00110495
0.00110495
0.00110494
0.00114943
0.00114943
0.00114942
0.00114977
0.00114977
0.00114976
0.00112763
0.00112763
0.00112762
0.00110377
0.00110377
0.00110376
0.00109184
0.00109184
0.00109183
0.00109686
0.00109685
0.00109685
0.00111661
0.00111661
0.0011166
0.00114495
0.00114495
0.00114494
0.00117493
0.00117492
0.00117491
0.00120098
0.00120097
0.00120096
0.0012199
0.0012199
0.00121989
0.00123023
0.00123023
0.00123022
0.00123023
0.00123023
0.00123022
0.00121989
0.00121989
0.00121988
0.00120097
0.00120097
0.00120096
0.00117492
0.00117492
0.00117491
0.00114495
0.00114495
0.00114494
0.00111661
0.00111661
0.0011166
0.00109685
0.00109685
0.00109684
0.00109184
0.00109184
0.00109183
0.00110377
0.00110377
0.00110376
0.00112763
0.00112763
0.00112762
0.00114977
0.00114977
0.00114976
0.00114943
0.00114943
0.00114942
0.00110495
0.00110495
0.00110494
0.00101066
0.00101065
0.00101065
0.000881651
0.000881652
0.000881649
0.000895735
0.000895736
0.000895733
0.000981088
0.000981088
0.00098108
0.00105945
0.00105945
0.00105944
0.00110388
0.00110388
0.00110387
0.00110699
0.00110699
0.00110698
0.00108449
0.00108449
0.00108448
0.001056
0.001056
0.00105599
0.00103661
0.00103661
0.0010366
0.00103358
0.00103358
0.00103357
0.00104656
0.00104656
0.00104655
0.0010701
0.0010701
0.00107009
0.00109701
0.001097
0.00109699
0.00112116
0.00112116
0.00112115
0.00113894
0.00113894
0.00113893
0.0011487
0.0011487
0.00114869
0.0011487
0.0011487
0.00114869
0.00113894
0.00113894
0.00113893
0.00112116
0.00112116
0.00112115
0.001097
0.001097
0.00109699
0.00107009
0.00107009
0.00107008
0.00104655
0.00104655
0.00104654
0.00103358
0.00103358
0.00103357
0.00103661
0.00103661
0.0010366
0.001056
0.001056
0.00105599
0.00108449
0.00108449
0.00108448
0.00110699
0.00110699
0.00110698
0.00110388
0.00110388
0.00110387
0.00105945
0.00105945
0.00105944
0.00098108
0.00098108
0.000981072
0.000895724
0.000895725
0.000895722
0.000909262
0.000909262
0.00090926
0.000953018
0.000953017
0.00095301
0.00101002
0.00101002
0.00101001
0.00105088
0.00105088
0.00105087
0.00105623
0.00105623
0.00105622
0.00103482
0.00103482
0.00103481
0.00100362
0.00100362
0.00100361
0.000977932
0.00097793
0.000977921
0.00096684
0.000966839
0.00096683
0.000972143
0.000972142
0.000972133
0.000989765
0.000989764
0.000989756
0.00101273
0.00101273
0.00101272
0.00103445
0.00103445
0.00103444
0.00105081
0.0010508
0.0010508
0.00105986
0.00105986
0.00105985
0.00105986
0.00105986
0.00105985
0.0010508
0.0010508
0.00105079
0.00103445
0.00103445
0.00103444
0.00101273
0.00101273
0.00101272
0.000989762
0.000989761
0.000989752
0.000972143
0.000972142
0.000972133
0.000966841
0.00096684
0.000966831
0.000977934
0.000977933
0.000977924
0.00100362
0.00100362
0.00100361
0.00103483
0.00103483
0.00103482
0.00105624
0.00105624
0.00105623
0.00105088
0.00105088
0.00105087
0.00101002
0.00101002
0.00101001
0.00095301
0.000953009
0.000953002
0.00090925
0.000909251
0.000909248
0.000922298
0.000922298
0.000922296
0.000927336
0.000927336
0.000927328
0.000958017
0.000958016
0.000958007
0.000991219
0.000991218
0.000991208
0.000997518
0.000997518
0.000997507
0.000978294
0.000978293
0.000978283
0.00094649
0.000946488
0.000946479
0.000916238
0.000916236
0.000916227
0.000897589
0.000897588
0.000897579
0.000894517
0.000894516
0.000894508
0.00090499
0.000904989
0.000904981
0.000922911
0.00092291
0.000922901
0.000941496
0.000941496
0.000941487
0.000956055
0.000956054
0.000956046
0.000964257
0.000964256
0.000964248
0.000964256
0.000964255
0.000964247
0.000956051
0.00095605
0.000956042
0.000941494
0.000941493
0.000941485
0.00092291
0.000922909
0.000922901
0.000904988
0.000904987
0.000904979
0.00089452
0.000894519
0.000894511
0.000897594
0.000897593
0.000897584
0.000916243
0.000916242
0.000916232
0.000946496
0.000946495
0.000946485
0.0009783
0.000978299
0.000978289
0.000997524
0.000997523
0.000997513
0.000991223
0.000991222
0.000991212
0.000958018
0.000958017
0.000958008
0.000927327
0.000927326
0.00092732
0.000922286
0.000922286
0.000922284
0.000934716
0.000934716
0.000934714
0.000904911
0.00090491
0.000904904
0.00090516
0.00090516
0.000905151
0.000926454
0.000926454
0.000926444
0.000931835
0.000931834
0.000931824
0.000915492
0.000915491
0.000915481
0.00088526
0.000885259
0.000885249
0.000852652
0.000852651
0.000852641
0.000827565
0.000827565
0.000827555
0.00081581
0.000815809
0.0008158
0.000817925
0.000817925
0.000817916
0.000829532
0.000829532
0.000829524
0.000844113
0.000844113
0.000844105
0.000856434
0.000856433
0.000856425
0.000863611
0.000863611
0.000863602
0.00086361
0.000863609
0.000863601
0.000856431
0.00085643
0.000856422
0.000844112
0.000844111
0.000844103
0.000829533
0.000829532
0.000829524
0.000817925
0.000817925
0.000817916
0.000815816
0.000815816
0.000815807
0.000827574
0.000827573
0.000827564
0.00085266
0.000852659
0.000852649
0.000885268
0.000885267
0.000885257
0.000915499
0.000915498
0.000915488
0.000931841
0.00093184
0.00093183
0.000926458
0.000926457
0.000926447
0.00090516
0.00090516
0.000905151
0.0009049
0.000904899
0.000904893
0.000934703
0.000934703
0.000934701
0.000946209
0.00094621
0.000946208
0.000886566
0.000886566
0.00088656
0.000853757
0.000853757
0.000853749
0.000859295
0.000859295
0.000859285
0.000861728
0.000861728
0.000861718
0.000848626
0.000848625
0.000848615
0.000822001
0.000822
0.00082199
0.00078949
0.000789489
0.000789479
0.000759674
0.000759673
0.000759663
0.000739556
0.000739555
0.000739545
0.000732451
0.000732451
0.000732441
0.000736516
0.000736516
0.000736506
0.000746169
0.000746168
0.000746159
0.000755773
0.000755772
0.000755764
0.000761747
0.000761747
0.000761738
0.000761746
0.000761746
0.000761737
0.000755771
0.000755771
0.000755762
0.000746168
0.000746168
0.000746159
0.000736516
0.000736516
0.000736507
0.000732452
0.000732452
0.000732442
0.000739567
0.000739567
0.000739557
0.000759687
0.000759686
0.000759675
0.000789501
0.0007895
0.000789489
0.00082201
0.000822009
0.000821998
0.000848634
0.000848633
0.000848622
0.000861734
0.000861733
0.000861723
0.000859297
0.000859296
0.000859287
0.000853755
0.000853755
0.000853746
0.000886554
0.000886553
0.000886548
0.000946196
0.000946196
0.000946195
0.000956284
0.000956285
0.000956283
0.000872959
0.000872959
0.000872954
0.000806982
0.000806982
0.000806975
0.00079427
0.00079427
0.000794261
0.000792176
0.000792176
0.000792166
0.00078245
0.000782449
0.000782439
0.000760992
0.000760991
0.00076098
0.000730814
0.000730813
0.000730801
0.000698323
0.000698323
0.00069831
0.000670992