/*--------------------------------*- C++ -*----------------------------------*\
  =========                 |
  \\      /  F ield         | OpenFOAM: The Open Source CFD Toolbox
   \\    /   O peration     | Website:  https://openfoam.org
    \\  /    A nd           | Version:  6
     \\/     M anipulation  |
\*---------------------------------------------------------------------------*/
FoamFile
{
    version     2.0;
    format      ascii;
    class       volScalarField;
    location    "20";
    object      nut;
}
// * * * * * * * * * * * * * * * * * * * * * * * * * * * * * * * * * * * * * //

dimensions      [0 2 -1 0 0 0 0];

internalField   nonuniform List<scalar> 
2880
(
6.16645e-07
6.16646e-07
6.16645e-07
7.78938e-07
7.78938e-07
7.78937e-07
9.52304e-07
9.52303e-07
9.52302e-07
1.08196e-06
1.08196e-06
1.08196e-06
1.18776e-06
1.18776e-06
1.18776e-06
1.27727e-06
1.27727e-06
1.27726e-06
1.35566e-06
1.35566e-06
1.35566e-06
1.42682e-06
1.42682e-06
1.42681e-06
1.49339e-06
1.49339e-06
1.49338e-06
1.55648e-06
1.55648e-06
1.55647e-06
1.61541e-06
1.61541e-06
1.61541e-06
1.66793e-06
1.66793e-06
1.66793e-06
1.71102e-06
1.71102e-06
1.71102e-06
1.74203e-06
1.74203e-06
1.74203e-06
1.75902e-06
1.75902e-06
1.75902e-06
1.75902e-06
1.75902e-06
1.75901e-06
1.74202e-06
1.74202e-06
1.74201e-06
1.711e-06
1.711e-06
1.71099e-06
1.6679e-06
1.6679e-06
1.6679e-06
1.61538e-06
1.61538e-06
1.61537e-06
1.55645e-06
1.55645e-06
1.55644e-06
1.49336e-06
1.49336e-06
1.49335e-06
1.42679e-06
1.42679e-06
1.42678e-06
1.35563e-06
1.35563e-06
1.35563e-06
1.27724e-06
1.27724e-06
1.27724e-06
1.18774e-06
1.18774e-06
1.18774e-06
1.08194e-06
1.08194e-06
1.08194e-06
9.52285e-07
9.52285e-07
9.52283e-07
7.78919e-07
7.78919e-07
7.78918e-07
6.16636e-07
6.16637e-07
6.16636e-07
1.77385e-05
1.77385e-05
1.77385e-05
6.97675e-06
6.97675e-06
6.97674e-06
7.52082e-06
7.52081e-06
7.52081e-06
7.9398e-06
7.9398e-06
7.93979e-06
8.2805e-06
8.2805e-06
8.28049e-06
8.56477e-06
8.56477e-06
8.56475e-06
8.80995e-06
8.80994e-06
8.80993e-06
9.02905e-06
9.02904e-06
9.02902e-06
9.23076e-06
9.23075e-06
9.23074e-06
9.4188e-06
9.41879e-06
9.41878e-06
9.59161e-06
9.5916e-06
9.59158e-06
9.74325e-06
9.74325e-06
9.74323e-06
9.86603e-06
9.86602e-06
9.866e-06
9.95349e-06
9.95349e-06
9.95347e-06
1.00011e-05
1.00011e-05
1.00011e-05
1.00011e-05
1.00011e-05
1.00011e-05
9.95345e-06
9.95344e-06
9.95342e-06
9.86596e-06
9.86595e-06
9.86593e-06
9.74317e-06
9.74316e-06
9.74314e-06
9.59151e-06
9.59151e-06
9.59149e-06
9.41872e-06
9.41871e-06
9.41869e-06
9.23067e-06
9.23067e-06
9.23065e-06
9.02896e-06
9.02895e-06
9.02894e-06
8.80986e-06
8.80986e-06
8.80984e-06
8.56469e-06
8.56468e-06
8.56467e-06
8.28043e-06
8.28042e-06
8.28041e-06
7.93973e-06
7.93973e-06
7.93972e-06
7.52075e-06
7.52075e-06
7.52074e-06
6.97667e-06
6.97667e-06
6.97666e-06
1.77383e-05
1.77384e-05
1.77383e-05
1.91894e-05
1.91894e-05
1.91894e-05
1.19462e-05
1.19462e-05
1.19462e-05
1.24941e-05
1.24941e-05
1.24941e-05
1.30255e-05
1.30255e-05
1.30254e-05
1.3495e-05
1.34949e-05
1.34949e-05
1.39021e-05
1.39021e-05
1.39021e-05
1.42612e-05
1.42612e-05
1.42612e-05
1.45865e-05
1.45865e-05
1.45864e-05
1.48884e-05
1.48883e-05
1.48883e-05
1.51709e-05
1.51708e-05
1.51708e-05
1.54309e-05
1.54308e-05
1.54308e-05
1.5659e-05
1.5659e-05
1.56589e-05
1.58435e-05
1.58435e-05
1.58434e-05
1.59748e-05
1.59748e-05
1.59748e-05
1.60463e-05
1.60463e-05
1.60463e-05
1.60463e-05
1.60463e-05
1.60462e-05
1.59748e-05
1.59747e-05
1.59747e-05
1.58434e-05
1.58434e-05
1.58433e-05
1.56589e-05
1.56588e-05
1.56588e-05
1.54307e-05
1.54307e-05
1.54307e-05
1.51707e-05
1.51707e-05
1.51707e-05
1.48882e-05
1.48882e-05
1.48882e-05
1.45864e-05
1.45863e-05
1.45863e-05
1.42611e-05
1.42611e-05
1.4261e-05
1.3902e-05
1.3902e-05
1.3902e-05
1.34949e-05
1.34948e-05
1.34948e-05
1.30254e-05
1.30254e-05
1.30253e-05
1.2494e-05
1.2494e-05
1.2494e-05
1.19461e-05
1.19461e-05
1.19461e-05
1.91893e-05
1.91893e-05
1.91893e-05
2.05839e-05
2.05839e-05
2.05839e-05
1.73813e-05
1.73813e-05
1.73813e-05
1.78423e-05
1.78423e-05
1.78422e-05
1.84239e-05
1.84238e-05
1.84238e-05
1.89917e-05
1.89916e-05
1.89916e-05
1.95076e-05
1.95075e-05
1.95075e-05
1.9975e-05
1.99749e-05
1.99749e-05
2.04054e-05
2.04054e-05
2.04053e-05
2.08088e-05
2.08088e-05
2.08087e-05
2.11883e-05
2.11882e-05
2.11882e-05
2.15382e-05
2.15381e-05
2.15381e-05
2.18452e-05
2.18452e-05
2.18452e-05
2.20934e-05
2.20934e-05
2.20933e-05
2.227e-05
2.22699e-05
2.22699e-05
2.2366e-05
2.2366e-05
2.23659e-05
2.2366e-05
2.23659e-05
2.23659e-05
2.22699e-05
2.22698e-05
2.22698e-05
2.20933e-05
2.20933e-05
2.20932e-05
2.18451e-05
2.18451e-05
2.1845e-05
2.1538e-05
2.1538e-05
2.15379e-05
2.11881e-05
2.11881e-05
2.1188e-05
2.08086e-05
2.08086e-05
2.08086e-05
2.04052e-05
2.04052e-05
2.04052e-05
1.99748e-05
1.99747e-05
1.99747e-05
1.95074e-05
1.95074e-05
1.95073e-05
1.89915e-05
1.89915e-05
1.89915e-05
1.84238e-05
1.84237e-05
1.84237e-05
1.78422e-05
1.78422e-05
1.78421e-05
1.73811e-05
1.73811e-05
1.73811e-05
2.05838e-05
2.05838e-05
2.05838e-05
2.1938e-05
2.19381e-05
2.1938e-05
2.34236e-05
2.34235e-05
2.34235e-05
2.37677e-05
2.37677e-05
2.37677e-05
2.43338e-05
2.43337e-05
2.43337e-05
2.4964e-05
2.49639e-05
2.49639e-05
2.55728e-05
2.55727e-05
2.55727e-05
2.61442e-05
2.61441e-05
2.61441e-05
2.6682e-05
2.66819e-05
2.66819e-05
2.71924e-05
2.71924e-05
2.71923e-05
2.76759e-05
2.76759e-05
2.76758e-05
2.8123e-05
2.8123e-05
2.81229e-05
2.85157e-05
2.85156e-05
2.85156e-05
2.88329e-05
2.88328e-05
2.88328e-05
2.90583e-05
2.90583e-05
2.90582e-05
2.9181e-05
2.91809e-05
2.91808e-05
2.91809e-05
2.91809e-05
2.91808e-05
2.90582e-05
2.90582e-05
2.90581e-05
2.88327e-05
2.88327e-05
2.88326e-05
2.85155e-05
2.85155e-05
2.85154e-05
2.81228e-05
2.81228e-05
2.81227e-05
2.76757e-05
2.76757e-05
2.76756e-05
2.71922e-05
2.71921e-05
2.71921e-05
2.66817e-05
2.66817e-05
2.66816e-05
2.61439e-05
2.61439e-05
2.61438e-05
2.55726e-05
2.55725e-05
2.55725e-05
2.49638e-05
2.49638e-05
2.49637e-05
2.43337e-05
2.43336e-05
2.43336e-05
2.37676e-05
2.37676e-05
2.37675e-05
2.34234e-05
2.34233e-05
2.34233e-05
2.19379e-05
2.19379e-05
2.19379e-05
2.32618e-05
2.32618e-05
2.32618e-05
3.01046e-05
3.01046e-05
3.01045e-05
3.0384e-05
3.03839e-05
3.03838e-05
3.08675e-05
3.08675e-05
3.08674e-05
3.15137e-05
3.15136e-05
3.15135e-05
3.21921e-05
3.2192e-05
3.2192e-05
3.28596e-05
3.28595e-05
3.28594e-05
3.3506e-05
3.35059e-05
3.35058e-05
3.413e-05
3.41299e-05
3.41298e-05
3.47263e-05
3.47263e-05
3.47262e-05
3.52801e-05
3.52801e-05
3.528e-05
3.5767e-05
3.5767e-05
3.57669e-05
3.61603e-05
3.61602e-05
3.61601e-05
3.64396e-05
3.64395e-05
3.64395e-05
3.65915e-05
3.65914e-05
3.65913e-05
3.65915e-05
3.65914e-05
3.65913e-05
3.64395e-05
3.64394e-05
3.64393e-05
3.61601e-05
3.616e-05
3.616e-05
3.57669e-05
3.57668e-05
3.57667e-05
3.52799e-05
3.52798e-05
3.52797e-05
3.47261e-05
3.4726e-05
3.47259e-05
3.41297e-05
3.41296e-05
3.41295e-05
3.35057e-05
3.35056e-05
3.35055e-05
3.28593e-05
3.28592e-05
3.28592e-05
3.21919e-05
3.21918e-05
3.21917e-05
3.15135e-05
3.15134e-05
3.15133e-05
3.08674e-05
3.08673e-05
3.08673e-05
3.03838e-05
3.03838e-05
3.03837e-05
3.01044e-05
3.01043e-05
3.01043e-05
2.32617e-05
2.32617e-05
2.32617e-05
2.45608e-05
2.45608e-05
2.45608e-05
3.74074e-05
3.74074e-05
3.74073e-05
3.77767e-05
3.77767e-05
3.77766e-05
3.81201e-05
3.812e-05
3.81199e-05
3.87242e-05
3.87241e-05
3.8724e-05
3.94385e-05
3.94384e-05
3.94383e-05
4.01879e-05
4.01878e-05
4.01877e-05
4.09413e-05
4.09412e-05
4.09411e-05
4.16848e-05
4.16846e-05
4.16845e-05
4.24037e-05
4.24036e-05
4.24034e-05
4.30749e-05
4.30748e-05
4.30747e-05
4.36663e-05
4.36662e-05
4.36661e-05
4.41439e-05
4.41438e-05
4.41437e-05
4.44829e-05
4.44828e-05
4.44827e-05
4.46673e-05
4.46671e-05
4.4667e-05
4.46672e-05
4.46671e-05
4.4667e-05
4.44828e-05
4.44827e-05
4.44826e-05
4.41437e-05
4.41436e-05
4.41435e-05
4.36661e-05
4.3666e-05
4.36659e-05
4.30747e-05
4.30746e-05
4.30745e-05
4.24034e-05
4.24033e-05
4.24031e-05
4.16844e-05
4.16843e-05
4.16842e-05
4.0941e-05
4.09409e-05
4.09407e-05
4.01875e-05
4.01874e-05
4.01873e-05
3.94382e-05
3.94382e-05
3.9438e-05
3.8724e-05
3.87239e-05
3.87238e-05
3.812e-05
3.81199e-05
3.81198e-05
3.77766e-05
3.77766e-05
3.77765e-05
3.74071e-05
3.74071e-05
3.7407e-05
2.45607e-05
2.45607e-05
2.45607e-05
2.58368e-05
2.58368e-05
2.58368e-05
4.52794e-05
4.52793e-05
4.52792e-05
4.60115e-05
4.60115e-05
4.60113e-05
4.61821e-05
4.6182e-05
4.61818e-05
4.66766e-05
4.66765e-05
4.66763e-05
4.73804e-05
4.73803e-05
4.73802e-05
4.81885e-05
4.81884e-05
4.81883e-05
4.90429e-05
4.90427e-05
4.90426e-05
4.99099e-05
4.99098e-05
4.99096e-05
5.07612e-05
5.0761e-05
5.07609e-05
5.15618e-05
5.15616e-05
5.15614e-05
5.22689e-05
5.22688e-05
5.22686e-05
5.28402e-05
5.28401e-05
5.28399e-05
5.32456e-05
5.32455e-05
5.32453e-05
5.34659e-05
5.34658e-05
5.34656e-05
5.34659e-05
5.34657e-05
5.34656e-05
5.32455e-05
5.32453e-05
5.32452e-05
5.284e-05
5.28399e-05
5.28397e-05
5.22687e-05
5.22686e-05
5.22684e-05
5.15615e-05
5.15614e-05
5.15612e-05
5.07608e-05
5.07607e-05
5.07605e-05
4.99095e-05
4.99094e-05
4.99092e-05
4.90424e-05
4.90423e-05
4.90421e-05
4.81881e-05
4.8188e-05
4.81878e-05
4.73801e-05
4.738e-05
4.73798e-05
4.66764e-05
4.66762e-05
4.66761e-05
4.61819e-05
4.61818e-05
4.61817e-05
4.60114e-05
4.60114e-05
4.60112e-05
4.5279e-05
4.52789e-05
4.52788e-05
2.58367e-05
2.58367e-05
2.58366e-05
2.70884e-05
2.70884e-05
2.70884e-05
5.36369e-05
5.36368e-05
5.36367e-05
5.51299e-05
5.51298e-05
5.51296e-05
5.51405e-05
5.51404e-05
5.51402e-05
5.54537e-05
5.54536e-05
5.54534e-05
5.60866e-05
5.60865e-05
5.60863e-05
5.6919e-05
5.69189e-05
5.69187e-05
5.78613e-05
5.78612e-05
5.7861e-05
5.88533e-05
5.88532e-05
5.8853e-05
5.98461e-05
5.98459e-05
5.98457e-05
6.07884e-05
6.07883e-05
6.0788e-05
6.16238e-05
6.16237e-05
6.16234e-05
6.22993e-05
6.22991e-05
6.22989e-05
6.27784e-05
6.27782e-05
6.2778e-05
6.30386e-05
6.30385e-05
6.30382e-05
6.30386e-05
6.30384e-05
6.30382e-05
6.27782e-05
6.2778e-05
6.27778e-05
6.22991e-05
6.22989e-05
6.22987e-05
6.16236e-05
6.16235e-05
6.16232e-05
6.07882e-05
6.0788e-05
6.07878e-05
5.98457e-05
5.98455e-05
5.98453e-05
5.88528e-05
5.88526e-05
5.88524e-05
5.78608e-05
5.78606e-05
5.78604e-05
5.69186e-05
5.69184e-05
5.69182e-05
5.60863e-05
5.60861e-05
5.60859e-05
5.54535e-05
5.54533e-05
5.54532e-05
5.51404e-05
5.51403e-05
5.51401e-05
5.51298e-05
5.51297e-05
5.51295e-05
5.36364e-05
5.36363e-05
5.36363e-05
2.70883e-05
2.70883e-05
2.70883e-05
2.83114e-05
2.83114e-05
2.83114e-05
6.2368e-05
6.23679e-05
6.23678e-05
6.51429e-05
6.51428e-05
6.51426e-05
6.50755e-05
6.50754e-05
6.50751e-05
6.51406e-05
6.51404e-05
6.51402e-05
6.56282e-05
6.56281e-05
6.56278e-05
6.64367e-05
6.64365e-05
6.64362e-05
6.74449e-05
6.74447e-05
6.74444e-05
6.85586e-05
6.85584e-05
6.85581e-05
6.97007e-05
6.97005e-05
6.97002e-05
7.07975e-05
7.07973e-05
7.0797e-05
7.17744e-05
7.17742e-05
7.17739e-05
7.25653e-05
7.25651e-05
7.25648e-05
7.31262e-05
7.3126e-05
7.31257e-05
7.34307e-05
7.34305e-05
7.34302e-05
7.34306e-05
7.34304e-05
7.34301e-05
7.3126e-05
7.31258e-05
7.31255e-05
7.25651e-05
7.25649e-05
7.25646e-05
7.17742e-05
7.1774e-05
7.17737e-05
7.07972e-05
7.0797e-05
7.07967e-05
6.97002e-05
6.97e-05
6.96997e-05
6.8558e-05
6.85578e-05
6.85575e-05
6.74443e-05
6.74441e-05
6.74438e-05
6.64361e-05
6.6436e-05
6.64357e-05
6.56278e-05
6.56277e-05
6.56274e-05
6.51404e-05
6.51402e-05
6.514e-05
6.50754e-05
6.50753e-05
6.5075e-05
6.51428e-05
6.51427e-05
6.51425e-05
6.23674e-05
6.23673e-05
6.23672e-05
2.83113e-05
2.83113e-05
2.83113e-05
2.94989e-05
2.9499e-05
2.94989e-05
7.13334e-05
7.13333e-05
7.13332e-05
7.60244e-05
7.60242e-05
7.6024e-05
7.60531e-05
7.60529e-05
7.60526e-05
7.58224e-05
7.58223e-05
7.58219e-05
7.60787e-05
7.60786e-05
7.60782e-05
7.67987e-05
7.67985e-05
7.67982e-05
7.78391e-05
7.78389e-05
7.78386e-05
7.90649e-05
7.90647e-05
7.90643e-05
8.03615e-05
8.03613e-05
8.03609e-05
8.16252e-05
8.16249e-05
8.16245e-05
8.27577e-05
8.27575e-05
8.27571e-05
8.36762e-05
8.36759e-05
8.36755e-05
8.43274e-05
8.43272e-05
8.43268e-05
8.4681e-05
8.46807e-05
8.46804e-05
8.46809e-05
8.46807e-05
8.46803e-05
8.43272e-05
8.4327e-05
8.43266e-05
8.36759e-05
8.36757e-05
8.36753e-05
8.27575e-05
8.27573e-05
8.27569e-05
8.16248e-05
8.16246e-05
8.16242e-05
8.0361e-05
8.03608e-05
8.03604e-05
7.90642e-05
7.9064e-05
7.90636e-05
7.78384e-05
7.78382e-05
7.78379e-05
7.67982e-05
7.6798e-05
7.67976e-05
7.60783e-05
7.60782e-05
7.60778e-05
7.58223e-05
7.58221e-05
7.58218e-05
7.60531e-05
7.60529e-05
7.60526e-05
7.60243e-05
7.60242e-05
7.60239e-05
7.13327e-05
7.13326e-05
7.13325e-05
2.94988e-05
2.94988e-05
2.94988e-05
3.06422e-05
3.06422e-05
3.06422e-05
8.03676e-05
8.03675e-05
8.03674e-05
8.77053e-05
8.77052e-05
8.77049e-05
8.81165e-05
8.81163e-05
8.81159e-05
8.75804e-05
8.75802e-05
8.75798e-05
8.75129e-05
8.75127e-05
8.75123e-05
8.80626e-05
8.80623e-05
8.80619e-05
8.90866e-05
8.90864e-05
8.90859e-05
9.04059e-05
9.04056e-05
9.04052e-05
9.18583e-05
9.1858e-05
9.18575e-05
9.33001e-05
9.32998e-05
9.32993e-05
9.46025e-05
9.46022e-05
9.46017e-05
9.56614e-05
9.56611e-05
9.56606e-05
9.64124e-05
9.64121e-05
9.64116e-05
9.68199e-05
9.68197e-05
9.68192e-05
9.68198e-05
9.68195e-05
9.68191e-05
9.64121e-05
9.64119e-05
9.64114e-05
9.56611e-05
9.56608e-05
9.56604e-05
9.46023e-05
9.4602e-05
9.46015e-05
9.32997e-05
9.32994e-05
9.32989e-05
9.18577e-05
9.18574e-05
9.1857e-05
9.04052e-05
9.04049e-05
9.04044e-05
8.90859e-05
8.90856e-05
8.90852e-05
8.80619e-05
8.80617e-05
8.80613e-05
8.75125e-05
8.75123e-05
8.75119e-05
8.75803e-05
8.75801e-05
8.75797e-05
8.81165e-05
8.81164e-05
8.8116e-05
8.77053e-05
8.77052e-05
8.77049e-05
8.03668e-05
8.03666e-05
8.03665e-05
3.0642e-05
3.0642e-05
3.0642e-05
3.17309e-05
3.17309e-05
3.17309e-05
8.92808e-05
8.92806e-05
8.92805e-05
0.000100071
0.00010007
0.00010007
0.000101275
0.000101275
0.000101275
0.000100485
0.000100485
0.000100484
0.000100005
0.000100004
0.000100004
0.000100284
0.000100284
0.000100283
0.000101226
0.000101225
0.000101225
0.000102608
0.000102608
0.000102607
0.000104212
0.000104211
0.000104211
0.000105841
0.00010584
0.00010584
0.000107327
0.000107327
0.000107326
0.00010854
0.000108539
0.000108539
0.0001094
0.0001094
0.000109399
0.000109867
0.000109867
0.000109866
0.000109867
0.000109867
0.000109866
0.0001094
0.0001094
0.000109399
0.000108539
0.000108539
0.000108539
0.000107327
0.000107327
0.000107326
0.00010584
0.00010584
0.000105839
0.000104211
0.000104211
0.00010421
0.000102607
0.000102607
0.000102606
0.000101225
0.000101225
0.000101224
0.000100284
0.000100283
0.000100283
0.000100004
0.000100004
0.000100003
0.000100485
0.000100485
0.000100484
0.000101275
0.000101275
0.000101275
0.000100071
0.00010007
0.00010007
8.92798e-05
8.92796e-05
8.92795e-05
3.17307e-05
3.17307e-05
3.17307e-05
3.27544e-05
3.27544e-05
3.27543e-05
9.78622e-05
9.7862e-05
9.78618e-05
0.000112958
0.000112958
0.000112958
0.000115494
0.000115494
0.000115493
0.000114586
0.000114586
0.000114585
0.000113622
0.000113621
0.000113621
0.000113517
0.000113517
0.000113516
0.000114289
0.000114289
0.000114288
0.000115689
0.000115689
0.000115688
0.00011743
0.00011743
0.000117429
0.000119252
0.000119252
0.000119251
0.000120936
0.000120936
0.000120935
0.000122316
0.000122315
0.000122315
0.000123296
0.000123295
0.000123295
0.000123827
0.000123827
0.000123826
0.000123827
0.000123827
0.000123826
0.000123295
0.000123295
0.000123294
0.000122315
0.000122315
0.000122314
0.000120936
0.000120935
0.000120935
0.000119252
0.000119252
0.000119251
0.00011743
0.000117429
0.000117429
0.000115688
0.000115688
0.000115687
0.000114288
0.000114288
0.000114287
0.000113517
0.000113516
0.000113516
0.000113621
0.000113621
0.00011362
0.000114586
0.000114586
0.000114585
0.000115495
0.000115494
0.000115494
0.000112958
0.000112958
0.000112958
9.78611e-05
9.78608e-05
9.78607e-05
3.27542e-05
3.27542e-05
3.27542e-05
3.37025e-05
3.37025e-05
3.37025e-05
0.000105887
0.000105887
0.000105886
0.000126162
0.000126161
0.000126161
0.000130684
0.000130683
0.000130683
0.000129902
0.000129902
0.000129901
0.000128421
0.000128421
0.00012842
0.000127809
0.000127809
0.000127808
0.000128302
0.000128302
0.000128301
0.000129655
0.000129655
0.000129654
0.000131509
0.000131509
0.000131508
0.000133524
0.000133524
0.000133523
0.000135416
0.000135416
0.000135415
0.000136976
0.000136976
0.000136975
0.000138085
0.000138085
0.000138084
0.000138687
0.000138687
0.000138686
0.000138687
0.000138687
0.000138686
0.000138085
0.000138085
0.000138084
0.000136976
0.000136975
0.000136974
0.000135416
0.000135416
0.000135415
0.000133524
0.000133523
0.000133522
0.000131508
0.000131508
0.000131507
0.000129654
0.000129654
0.000129653
0.000128301
0.000128301
0.0001283
0.000127808
0.000127808
0.000127807
0.000128421
0.000128421
0.00012842
0.000129902
0.000129902
0.000129901
0.000130684
0.000130684
0.000130683
0.000126162
0.000126162
0.000126161
0.000105886
0.000105885
0.000105885
3.37024e-05
3.37024e-05
3.37023e-05
3.45671e-05
3.45672e-05
3.45671e-05
0.000113127
0.000113127
0.000113126
0.000139435
0.000139434
0.000139434
0.000146691
0.000146691
0.00014669
0.000146406
0.000146406
0.000146405
0.000144438
0.000144438
0.000144437
0.000143198
0.000143197
0.000143196
0.000143281
0.00014328
0.000143279
0.000144499
0.000144498
0.000144497
0.000146424
0.000146424
0.000146423
0.000148624
0.000148624
0.000148622
0.000150732
0.000150731
0.00015073
0.000152483
0.000152483
0.000152482
0.000153732
0.000153732
0.000153731
0.00015441
0.00015441
0.000154409
0.00015441
0.00015441
0.000154409
0.000153732
0.000153732
0.000153731
0.000152483
0.000152483
0.000152482
0.000150732
0.000150731
0.00015073
0.000148623
0.000148623
0.000148622
0.000146424
0.000146423
0.000146422
0.000144498
0.000144497
0.000144496
0.00014328
0.000143279
0.000143278
0.000143197
0.000143197
0.000143196
0.000144438
0.000144438
0.000144437
0.000146407
0.000146406
0.000146405
0.000146692
0.000146691
0.00014669
0.000139435
0.000139434
0.000139434
0.000113126
0.000113125
0.000113125
3.4567e-05
3.4567e-05
3.4567e-05
3.53431e-05
3.53431e-05
3.5343e-05
0.000119367
0.000119366
0.000119366
0.000152497
0.000152496
0.000152495
0.000163298
0.000163298
0.000163297
0.000164011
0.000164011
0.000164009
0.000161675
0.000161675
0.000161673
0.000159705
0.000159705
0.000159703
0.000159226
0.000159226
0.000159225
0.000160195
0.000160194
0.000160193
0.000162131
0.000162131
0.000162129
0.000164495
0.000164494
0.000164493
0.00016682
0.00016682
0.000166818
0.000168773
0.000168773
0.000168772
0.00017017
0.00017017
0.000170169
0.000170929
0.000170929
0.000170928
0.000170929
0.000170929
0.000170927
0.00017017
0.00017017
0.000170168
0.000168773
0.000168773
0.000168771
0.00016682
0.00016682
0.000166818
0.000164494
0.000164494
0.000164493
0.000162131
0.00016213
0.000162129
0.000160193
0.000160193
0.000160192
0.000159225
0.000159225
0.000159224
0.000159705
0.000159704
0.000159703
0.000161675
0.000161675
0.000161673
0.000164012
0.000164012
0.00016401
0.000163299
0.000163299
0.000163297
0.000152497
0.000152497
0.000152496
0.000119365
0.000119365
0.000119365
3.53429e-05
3.53429e-05
3.53429e-05
3.60291e-05
3.60291e-05
3.60291e-05
0.000124421
0.000124421
0.000124421
0.000165041
0.000165041
0.00016504
0.000180221
0.000180221
0.000180219
0.000182557
0.000182556
0.000182554
0.000180087
0.000180086
0.000180085
0.000177328
0.000177328
0.000177326
0.000176125
0.000176124
0.000176123
0.000176699
0.000176698
0.000176696
0.000178559
0.000178558
0.000178557
0.000181049
0.000181049
0.000181047
0.000183585
0.000183585
0.000183583
0.000185745
0.000185745
0.000185743
0.000187298
0.000187298
0.000187296
0.000188142
0.000188142
0.00018814
0.000188142
0.000188142
0.00018814
0.000187298
0.000187297
0.000187296
0.000185745
0.000185745
0.000185743
0.000183585
0.000183585
0.000183583
0.000181049
0.000181048
0.000181047
0.000178558
0.000178558
0.000178556
0.000176697
0.000176697
0.000176695
0.000176124
0.000176123
0.000176122
0.000177328
0.000177327
0.000177326
0.000180087
0.000180087
0.000180085
0.000182557
0.000182557
0.000182555
0.000180222
0.000180222
0.00018022
0.000165042
0.000165041
0.00016504
0.00012442
0.000124419
0.000124419
3.60289e-05
3.60289e-05
3.60289e-05
3.66285e-05
3.66285e-05
3.66284e-05
0.000128155
0.000128154
0.000128154
0.000176745
0.000176744
0.000176743
0.000197116
0.000197116
0.000197114
0.0002018
0.000201799
0.000201797
0.000199563
0.000199563
0.00019956
0.000196029
0.000196029
0.000196027
0.000193939
0.000193939
0.000193937
0.000193943
0.000193943
0.000193941
0.000195607
0.000195606
0.000195604
0.000198165
0.000198164
0.000198162
0.000200892
0.000200891
0.000200889
0.000203257
0.000203257
0.000203255
0.00020497
0.00020497
0.000204968
0.000205903
0.000205903
0.000205901
0.000205903
0.000205903
0.000205901
0.00020497
0.000204969
0.000204967
0.000203257
0.000203257
0.000203255
0.000200892
0.000200891
0.000200889
0.000198164
0.000198163
0.000198161
0.000195606
0.000195606
0.000195604
0.000193942
0.000193941
0.000193939
0.000193938
0.000193938
0.000193936
0.000196029
0.000196028
0.000196026
0.000199564
0.000199563
0.000199561
0.0002018
0.0002018
0.000201798
0.000197117
0.000197117
0.000197115
0.000176745
0.000176745
0.000176743
0.000128153
0.000128152
0.000128152
3.66283e-05
3.66283e-05
3.66283e-05
3.71488e-05
3.71489e-05
3.71488e-05
0.000130492
0.000130491
0.000130491
0.000187272
0.000187272
0.00018727
0.000213587
0.000213586
0.000213584
0.00022141
0.000221409
0.000221406
0.000219915
0.000219914
0.000219911
0.00021572
0.000215719
0.000215717
0.000212605
0.000212604
0.000212602
0.000211835
0.000211835
0.000211832
0.000213143
0.000213143
0.00021314
0.000215678
0.000215677
0.000215675
0.000218557
0.000218557
0.000218554
0.000221119
0.000221118
0.000221116
0.000222992
0.000222991
0.000222989
0.000224016
0.000224016
0.000224014
0.000224016
0.000224016
0.000224013
0.000222991
0.000222991
0.000222989
0.000221119
0.000221118
0.000221116
0.000218558
0.000218557
0.000218555
0.000215677
0.000215677
0.000215674
0.000213143
0.000213143
0.00021314
0.000211834
0.000211834
0.000211831
0.000212604
0.000212603
0.000212601
0.00021572
0.000215719
0.000215716
0.000219915
0.000219914
0.000219912
0.000221411
0.00022141
0.000221407
0.000213588
0.000213587
0.000213585
0.000187273
0.000187273
0.000187271
0.00013049
0.00013049
0.000130489
3.71487e-05
3.71487e-05
3.71486e-05
3.76013e-05
3.76013e-05
3.76013e-05
0.000131427
0.000131426
0.000131426
0.000196292
0.000196291
0.000196288
0.000229195
0.000229194
0.000229191
0.000240972
0.000240971
0.000240967
0.000240858
0.000240856
0.000240853
0.00023625
0.000236249
0.000236246
0.000232022
0.000232021
0.000232018
0.000230256
0.000230255
0.000230252
0.000231004
0.000231003
0.000231
0.000233384
0.000233383
0.00023338
0.000236351
0.00023635
0.000236348
0.000239084
0.000239083
0.000239081
0.000241111
0.000241111
0.000241108
0.000242226
0.000242226
0.000242223
0.000242226
0.000242226
0.000242223
0.000241111
0.00024111
0.000241108
0.000239084
0.000239083
0.000239081
0.000236352
0.000236351
0.000236348
0.000233383
0.000233382
0.000233379
0.000231004
0.000231003
0.000231
0.000230255
0.000230254
0.000230251
0.000232021
0.00023202
0.000232017
0.00023625
0.000236249
0.000236246
0.000240859
0.000240857
0.000240854
0.000240973
0.000240972
0.000240969
0.000229197
0.000229196
0.000229193
0.000196293
0.000196292
0.00019629
0.000131425
0.000131425
0.000131424
3.76011e-05
3.76011e-05
3.76011e-05
3.7999e-05
3.7999e-05
3.79989e-05
0.000131018
0.000131017
0.000131016
0.000203477
0.000203476
0.000203474
0.000243472
0.000243471
0.000243468
0.000259995
0.000259993
0.000259989
0.00026201
0.000262008
0.000262004
0.000257392
0.00025739
0.000257386
0.000252049
0.000252047
0.000252044
0.000249061
0.000249059
0.000249056
0.000248993
0.000248992
0.000248989
0.000251035
0.000251034
0.00025103
0.000253989
0.000253988
0.000253985
0.000256849
0.000256848
0.000256845
0.000259015
0.000259014
0.00025901
0.000260216
0.000260215
0.000260212
0.000260216
0.000260215
0.000260212
0.000259015
0.000259013
0.00025901
0.000256849
0.000256848
0.000256845
0.00025399
0.000253988
0.000253985
0.000251034
0.000251032
0.000251029
0.000248994
0.000248992
0.000248989
0.00024906
0.000249058
0.000249055
0.000252048
0.000252047
0.000252043
0.000257392
0.00025739
0.000257386
0.000262011
0.000262009
0.000262005
0.000259996
0.000259995
0.000259991
0.000243474
0.000243473
0.000243469
0.000203479
0.000203478
0.000203475
0.000131017
0.000131016
0.000131015
3.79988e-05
3.79988e-05
3.79988e-05
3.83554e-05
3.83554e-05
3.83554e-05
0.000129377
0.000129377
0.000129375
0.000208525
0.000208524
0.000208521
0.000255928
0.000255927
0.000255923
0.000277928
0.000277926
0.000277921
0.000282894
0.000282891
0.000282887
0.000278831
0.000278828
0.000278824
0.000272501
0.000272498
0.000272494
0.000268085
0.000268082
0.000268078
0.000266896
0.000266894
0.00026689
0.000268349
0.000268347
0.000268343
0.000271138
0.000271136
0.000271132
0.000274053
0.00027405
0.000274047
0.000276328
0.000276326
0.000276322
0.000277606
0.000277605
0.000277601
0.000277606
0.000277604
0.000277601
0.000276327
0.000276326
0.000276322
0.000274053
0.000274051
0.000274047
0.000271139
0.000271137
0.000271133
0.000268348
0.000268346
0.000268342
0.000266898
0.000266895
0.000266891
0.000268084
0.000268082
0.000268078
0.000272501
0.000272498
0.000272494
0.000278831
0.000278828
0.000278824
0.000282895
0.000282892
0.000282888
0.000277929
0.000277927
0.000277923
0.00025593
0.000255929
0.000255925
0.000208527
0.000208526
0.000208523
0.000129376
0.000129375
0.000129374
3.83552e-05
3.83552e-05
3.83552e-05
3.86828e-05
3.86828e-05
3.86827e-05
0.00012666
0.000126659
0.000126657
0.000211165
0.000211164
0.00021116
0.000266066
0.000266064
0.00026606
0.000294182
0.000294179
0.000294174
0.000302956
0.000302952
0.000302947
0.000300176
0.000300171
0.000300166
0.000293152
0.000293147
0.000293143
0.000287161
0.000287156
0.000287152
0.000284499
0.000284495
0.000284491
0.000285031
0.000285027
0.000285022
0.000287434
0.000287431
0.000287426
0.000290289
0.000290285
0.000290281
0.000292625
0.000292622
0.000292618
0.000293965
0.000293962
0.000293957
0.000293965
0.000293962
0.000293957
0.000292625
0.000292622
0.000292617
0.000290289
0.000290286
0.000290281
0.000287435
0.000287431
0.000287427
0.000285029
0.000285025
0.000285021
0.000284502
0.000284497
0.000284493
0.000287161
0.000287157
0.000287152
0.000293152
0.000293147
0.000293143
0.000300176
0.000300172
0.000300167
0.000302957
0.000302953
0.000302948
0.000294183
0.00029418
0.000294175
0.000266068
0.000266066
0.000266062
0.000211167
0.000211166
0.000211162
0.000126658
0.000126658
0.000126656
3.86826e-05
3.86826e-05
3.86825e-05
3.89903e-05
3.89903e-05
3.89902e-05
0.000123053
0.000123053
0.000123051
0.00021118
0.000211179
0.000211175
0.000273397
0.000273394
0.000273389
0.000308158
0.000308154
0.000308148
0.000321602
0.000321596
0.000321591
0.000320975
0.000320969
0.000320963
0.000313752
0.000313745
0.000313739
0.000306148
0.000306141
0.000306136
0.000301632
0.000301626
0.000301621
0.000300812
0.000300806
0.000300801
0.000302519
0.000302513
0.000302508
0.000305143
0.000305137
0.000305132
0.000307466
0.00030746
0.000307455
0.00030884
0.000308835
0.00030883
0.00030884
0.000308835
0.00030883
0.000307466
0.00030746
0.000307455
0.000305144
0.000305138
0.000305133
0.00030252
0.000302514
0.000302509
0.00030081
0.000300803
0.000300799
0.000301637
0.00030163
0.000301625
0.00030615
0.000306142
0.000306137
0.000313752
0.000313745
0.00031374
0.000320976
0.000320969
0.000320964
0.000321602
0.000321597
0.000321591
0.000308159
0.000308155
0.000308149
0.000273399
0.000273396
0.000273391
0.000211182
0.000211181
0.000211177
0.000123052
0.000123051
0.00012305
3.89901e-05
3.89901e-05
3.899e-05
3.92836e-05
3.92836e-05
3.92835e-05
0.000118778
0.000118777
0.000118775
0.000208448
0.000208446
0.000208443
0.00027747
0.000277467
0.000277462
0.000319289
0.000319284
0.000319278
0.000338253
0.000338246
0.000338239
0.000340776
0.000340767
0.000340761
0.000334072
0.000334061
0.000334055
0.000324986
0.000324975
0.000324969
0.000318243
0.000318232
0.000318227
0.000315537
0.000315527
0.000315522
0.000316121
0.000316111
0.000316106
0.000318267
0.000318258
0.000318253
0.000320464
0.000320455
0.00032045
0.000321835
0.000321826
0.000321821
0.000321835
0.000321826
0.000321821
0.000320464
0.000320455
0.00032045
0.000318268
0.000318259
0.000318254
0.000316121
0.000316112
0.000316106
0.000315534
0.000315524
0.000315519
0.00031825
0.000318239
0.000318233
0.000324989
0.000324978
0.000324972
0.000334073
0.000334062
0.000334056
0.000340776
0.000340767
0.000340761
0.000338253
0.000338246
0.000338239
0.00031929
0.000319285
0.000319279
0.000277471
0.000277468
0.000277463
0.00020845
0.000208449
0.000208445
0.000118777
0.000118776
0.000118774
3.92833e-05
3.92834e-05
3.92833e-05
3.95641e-05
3.95642e-05
3.95641e-05
0.000114087
0.000114086
0.000114085
0.000202994
0.000202993
0.000202989
0.000277929
0.000277925
0.00027792
0.000327106
0.0003271
0.000327094
0.000352438
0.000352428
0.000352421
0.000359209
0.000359196
0.000359189
0.000353972
0.000353958
0.00035395
0.000343771
0.000343755
0.000343748
0.000334506
0.00033449
0.000334484
0.000329298
0.000329283
0.000329277
0.000328199
0.000328185
0.000328179
0.000329525
0.000329511
0.000329505
0.000331437
0.000331423
0.000331417
0.000332747
0.000332734
0.000332728
0.000332747
0.000332734
0.000332728
0.000331437
0.000331423
0.000331418
0.000329526
0.000329512
0.000329506
0.0003282
0.000328185
0.000328179
0.000329295
0.000329279
0.000329273
0.000334517
0.000334501
0.000334494
0.000343776
0.00034376
0.000343753
0.000353974
0.000353959
0.000353952
0.000359209
0.000359196
0.000359189
0.000352436
0.000352427
0.00035242
0.000327105
0.000327099
0.000327093
0.000277929
0.000277926
0.000277921
0.000202996
0.000202995
0.000202991
0.000114086
0.000114085
0.000114084
3.95639e-05
3.95639e-05
3.95639e-05
3.98296e-05
3.98296e-05
3.98296e-05
0.000109275
0.000109274
0.000109273
0.000195083
0.000195081
0.000195078
0.000274615
0.000274611
0.000274605
0.000331338
0.000331331
0.000331324
0.000363909
0.000363897
0.000363889
0.000376105
0.000376088
0.00037608
0.00037349
0.000373469
0.00037346
0.000362836
0.000362813
0.000362805
0.000350959
0.000350935
0.000350927
0.000342634
0.000342611
0.000342604