/*--------------------------------*- C++ -*----------------------------------*\
  =========                 |
  \\      /  F ield         | OpenFOAM: The Open Source CFD Toolbox
   \\    /   O peration     | Website:  https://openfoam.org
    \\  /    A nd           | Version:  6
     \\/     M anipulation  |
\*---------------------------------------------------------------------------*/
FoamFile
{
    version     2.0;
    format      ascii;
    class       volScalarField;
    location    "20";
    object      p;
}
// * * * * * * * * * * * * * * * * * * * * * * * * * * * * * * * * * * * * * //

dimensions      [0 2 -2 0 0 0 0];

internalField   nonuniform List<scalar> 
2880
(
2.73582e-15
1.62251e-08
1.37412e-08
-3.6636e-11
1.62307e-08
1.3721e-08
-5.80741e-11
1.62287e-08
1.37209e-08
-6.97207e-11
1.6215e-08
1.37272e-08
-7.70349e-11
1.61818e-08
1.37585e-08
-8.53491e-11
1.6126e-08
1.3812e-08
-6.05582e-11
1.60019e-08
1.38944e-08
-2.56662e-11
1.58121e-08
1.40292e-08
-4.58497e-12
1.56392e-08
1.41702e-08
2.53829e-11
1.53463e-08
1.44253e-08
-1.52271e-11
1.50437e-08
1.47528e-08
2.26527e-10
1.48495e-08
1.47346e-08
1.8748e-10
1.46068e-08
1.50033e-08
1.93425e-10
1.44447e-08
1.51498e-08
2.07743e-10
1.43677e-08
1.52061e-08
2.05437e-10
1.43613e-08
1.52085e-08
1.93112e-10
1.44197e-08
1.51546e-08
2.3267e-10
1.45504e-08
1.49838e-08
4.65708e-10
1.47117e-08
1.46072e-08
-3.94366e-10
1.50862e-08
1.50038e-08
-2.43615e-10
1.53295e-08
1.46173e-08
1.5844e-10
1.54168e-08
1.41775e-08
-1.85135e-11
1.56681e-08
1.40837e-08
-9.6644e-11
1.58506e-08
1.39716e-08
-1.32692e-10
1.59722e-08
1.38824e-08
-1.30145e-10
1.60302e-08
1.38204e-08
-1.36745e-10
1.60691e-08
1.37869e-08
-1.46106e-10
1.60859e-08
1.3779e-08
-1.47335e-10
1.60889e-08
1.37775e-08
-1.61378e-10
1.60838e-08
1.37973e-08
-2.73739e-12
1.62251e-08
1.37414e-08
-3.73048e-11
1.62308e-08
1.37214e-08
-5.87502e-11
1.62288e-08
1.37214e-08
-7.02593e-11
1.6215e-08
1.37276e-08
-7.75924e-11
1.61819e-08
1.3759e-08
-8.59738e-11
1.6126e-08
1.38126e-08
-6.13991e-11
1.6002e-08
1.38951e-08
-2.67908e-11
1.58127e-08
1.40297e-08
-5.86932e-12
1.56398e-08
1.41709e-08
2.38158e-11
1.53473e-08
1.44258e-08
-1.61843e-11
1.5045e-08
1.47526e-08
2.24139e-10
1.48505e-08
1.47359e-08
1.85847e-10
1.46078e-08
1.50039e-08
1.91864e-10
1.44456e-08
1.51504e-08
2.06188e-10
1.43685e-08
1.52069e-08
2.03875e-10
1.43621e-08
1.52092e-08
1.91562e-10
1.44206e-08
1.51553e-08
2.31024e-10
1.45514e-08
1.49845e-08
4.61458e-10
1.47133e-08
1.46096e-08
-3.93165e-10
1.50868e-08
1.50023e-08
-2.43757e-10
1.53301e-08
1.4617e-08
1.55524e-10
1.54181e-08
1.41789e-08
-1.96097e-11
1.56686e-08
1.40843e-08
-9.74674e-11
1.58508e-08
1.39722e-08
-1.33278e-10
1.59723e-08
1.3883e-08
-1.30685e-10
1.60303e-08
1.38208e-08
-1.37255e-10
1.60692e-08
1.37874e-08
-1.46674e-10
1.6086e-08
1.37796e-08
-1.47798e-10
1.60889e-08
1.37779e-08
-1.61618e-10
1.60837e-08
1.37975e-08
-8.61522e-12
1.62249e-08
1.37418e-08
-3.8521e-11
1.62307e-08
1.37222e-08
-5.9795e-11
1.62286e-08
1.37224e-08
-7.10842e-11
1.62148e-08
1.37285e-08
-7.84944e-11
1.61817e-08
1.37599e-08
-8.69545e-11
1.61256e-08
1.38138e-08
-6.27122e-11
1.6002e-08
1.38964e-08
-2.85556e-11
1.58135e-08
1.40308e-08
-7.77519e-12
1.56403e-08
1.41725e-08
2.14659e-11
1.53487e-08
1.44269e-08
-1.70009e-11
1.5047e-08
1.47518e-08
2.19979e-10
1.48516e-08
1.47388e-08
1.83376e-10
1.46092e-08
1.5005e-08
1.89498e-10
1.44468e-08
1.51516e-08
2.03789e-10
1.43695e-08
1.52083e-08
2.01461e-10
1.4363e-08
1.52107e-08
1.89224e-10
1.44217e-08
1.51565e-08
2.28531e-10
1.45527e-08
1.49857e-08
4.52965e-10
1.47158e-08
1.46151e-08
-3.88953e-10
1.5087e-08
1.49985e-08
-2.42769e-10
1.53303e-08
1.46163e-08
1.49805e-10
1.54204e-08
1.41819e-08
-2.12994e-11
1.56693e-08
1.40853e-08
-9.87466e-11
1.5851e-08
1.39733e-08
-1.34176e-10
1.5972e-08
1.38841e-08
-1.31558e-10
1.60303e-08
1.38217e-08
-1.38011e-10
1.60691e-08
1.37883e-08
-1.47484e-10
1.60858e-08
1.37806e-08
-1.48437e-10
1.60889e-08
1.37787e-08
-1.61795e-10
1.60836e-08
1.37979e-08
-1.63441e-11
1.62246e-08
1.37421e-08
-4.01398e-11
1.62302e-08
1.37233e-08
-6.08701e-11
1.6228e-08
1.37237e-08
-7.18374e-11
1.62142e-08
1.37298e-08
-7.93802e-11
1.6181e-08
1.37613e-08
-8.78174e-11
1.61244e-08
1.38156e-08
-6.39159e-11
1.60013e-08
1.38983e-08
-3.02563e-11
1.58139e-08
1.40323e-08
-9.44835e-12
1.56397e-08
1.41749e-08
1.93197e-11
1.53493e-08
1.44286e-08
-1.65952e-11
1.50488e-08
1.47501e-08
2.15111e-10
1.48518e-08
1.47431e-08
1.81112e-10
1.46099e-08
1.50066e-08
1.87352e-10
1.44474e-08
1.51532e-08
2.01546e-10
1.43698e-08
1.52102e-08
1.99193e-10
1.43633e-08
1.52126e-08
1.87122e-10
1.44223e-08
1.51581e-08
2.26236e-10
1.45533e-08
1.49873e-08
4.41244e-10
1.47181e-08
1.46236e-08
-3.80562e-10
1.50861e-08
1.49921e-08
-2.39582e-10
1.5329e-08
1.46151e-08
1.42016e-10
1.5423e-08
1.41864e-08
-2.28737e-11
1.56695e-08
1.40867e-08
-9.98929e-11
1.58506e-08
1.39749e-08
-1.34907e-10
1.59712e-08
1.38858e-08
-1.32411e-10
1.60299e-08
1.3823e-08
-1.38632e-10
1.60685e-08
1.37896e-08
-1.48141e-10
1.60853e-08
1.37818e-08
-1.48947e-10
1.60884e-08
1.37797e-08
-1.61756e-10
1.60834e-08
1.37983e-08
-2.46788e-11
1.6224e-08
1.37425e-08
-4.21571e-11
1.62293e-08
1.37245e-08
-6.19517e-11
1.6227e-08
1.37252e-08
-7.24928e-11
1.6213e-08
1.37314e-08
-8.02632e-11
1.61797e-08
1.37632e-08
-8.86088e-11
1.61224e-08
1.38181e-08
-6.50742e-11
1.59998e-08
1.39008e-08
-3.19738e-11
1.5814e-08
1.40343e-08
-1.10006e-11
1.56381e-08
1.41783e-08
1.72486e-11
1.53494e-08
1.44308e-08
-1.51511e-11
1.50505e-08
1.47478e-08
2.09426e-10
1.48511e-08
1.47491e-08
1.78917e-10
1.46102e-08
1.50086e-08
1.85296e-10
1.44475e-08
1.51552e-08
1.99334e-10
1.43695e-08
1.52128e-08
1.96949e-10
1.43629e-08
1.52152e-08
1.8513e-10
1.44222e-08
1.51602e-08
2.24003e-10
1.45535e-08
1.49894e-08
4.26282e-10
1.47203e-08
1.46351e-08
-3.68288e-10
1.50841e-08
1.49834e-08
-2.34406e-10
1.53264e-08
1.46135e-08
1.3215e-10
1.54259e-08
1.41925e-08
-2.44255e-11
1.56692e-08
1.40886e-08
-1.00968e-10
1.58497e-08
1.39769e-08
-1.35519e-10
1.59697e-08
1.3888e-08
-1.33247e-10
1.6029e-08
1.38249e-08
-1.39091e-10
1.60675e-08
1.37912e-08
-1.48605e-10
1.60844e-08
1.37833e-08
-1.4933e-10
1.60877e-08
1.3781e-08
-1.61653e-10
1.6083e-08
1.37987e-08
-3.32095e-11
1.62233e-08
1.3743e-08
-4.4638e-11
1.6228e-08
1.37261e-08
-6.30789e-11
1.62255e-08
1.3727e-08
-7.30509e-11
1.62113e-08
1.37334e-08
-8.11597e-11
1.61778e-08
1.37656e-08
-8.93847e-11
1.61197e-08
1.38212e-08
-6.62697e-11
1.59977e-08
1.3904e-08
-3.38102e-11
1.58137e-08
1.40368e-08
-1.25805e-11
1.56357e-08
1.41827e-08
1.50872e-11
1.5349e-08
1.44336e-08
-1.29883e-11
1.50522e-08
1.4745e-08
2.02849e-10
1.48497e-08
1.47566e-08
1.76613e-10
1.461e-08
1.50111e-08
1.83159e-10
1.44471e-08
1.51578e-08
1.96993e-10
1.43685e-08
1.52161e-08
1.94565e-10
1.43619e-08
1.52185e-08
1.83077e-10
1.44216e-08
1.51629e-08
2.21647e-10
1.45531e-08
1.49921e-08
4.08311e-10
1.47224e-08
1.46495e-08
-3.52805e-10
1.50811e-08
1.49727e-08
-2.27652e-10
1.53227e-08
1.46117e-08
1.2036e-10
1.5429e-08
1.42001e-08
-2.60766e-11
1.56685e-08
1.4091e-08
-1.0205e-10
1.58483e-08
1.39795e-08
-1.36067e-10
1.59675e-08
1.38909e-08
-1.34069e-10
1.60276e-08
1.38272e-08
-1.39381e-10
1.60659e-08
1.37932e-08
-1.48887e-10
1.60829e-08
1.37852e-08
-1.49643e-10
1.60866e-08
1.37825e-08
-1.61546e-10
1.60824e-08
1.37993e-08
-4.13053e-11
1.62224e-08
1.37436e-08
-4.75479e-11
1.62263e-08
1.3728e-08
-6.4267e-11
1.62234e-08
1.37292e-08
-7.34726e-11
1.6209e-08
1.37358e-08
-8.20094e-11
1.61752e-08
1.37686e-08
-9.01101e-11
1.61161e-08
1.3825e-08
-6.74807e-11
1.59949e-08
1.39079e-08
-3.57427e-11
1.58129e-08
1.40401e-08
-1.41957e-11
1.56324e-08
1.41881e-08
1.28393e-11
1.53481e-08
1.44372e-08
-1.02159e-11
1.50537e-08
1.47419e-08
1.95467e-10
1.48476e-08
1.47655e-08
1.74197e-10
1.46093e-08
1.50143e-08
1.80946e-10
1.44462e-08
1.5161e-08
1.94529e-10
1.43669e-08
1.52202e-08
1.92051e-10
1.43602e-08
1.52227e-08
1.80963e-10
1.44204e-08
1.51662e-08
2.19158e-10
1.45522e-08
1.49955e-08
3.87671e-10
1.47243e-08
1.46665e-08
-3.34515e-10
1.50772e-08
1.49605e-08
-2.19523e-10
1.5318e-08
1.46097e-08
1.06912e-10
1.54323e-08
1.4209e-08
-2.78367e-11
1.56674e-08
1.4094e-08
-1.03115e-10
1.58463e-08
1.39827e-08
-1.36523e-10
1.59647e-08
1.38943e-08
-1.34795e-10
1.60256e-08
1.38301e-08
-1.39456e-10
1.60638e-08
1.37955e-08
-1.4899e-10
1.6081e-08
1.37874e-08
-1.49901e-10
1.60851e-08
1.37844e-08
-1.61442e-10
1.60818e-08
1.38e-08
-4.89171e-11
1.62215e-08
1.37444e-08
-5.0831e-11
1.62243e-08
1.37302e-08
-6.55452e-11
1.62208e-08
1.37318e-08
-7.37521e-11
1.62059e-08
1.37387e-08
-8.27086e-11
1.61718e-08
1.37721e-08
-9.07067e-11
1.61117e-08
1.38294e-08
-6.86321e-11
1.59913e-08
1.39126e-08
-3.76891e-11
1.58115e-08
1.4044e-08
-1.57902e-11
1.56282e-08
1.41944e-08
1.05849e-11
1.53465e-08
1.44415e-08
-6.90204e-12
1.50549e-08
1.47387e-08
1.8748e-10
1.48447e-08
1.47758e-08
1.71747e-10
1.4608e-08
1.50182e-08
1.7874e-10
1.44447e-08
1.51649e-08
1.92034e-10
1.43645e-08
1.52251e-08
1.89498e-10
1.43577e-08
1.52276e-08
1.78877e-10
1.44186e-08
1.51702e-08
2.16598e-10
1.45507e-08
1.49995e-08
3.64905e-10
1.47259e-08
1.46857e-08
-3.13873e-10
1.50723e-08
1.49471e-08
-2.10209e-10
1.53122e-08
1.46078e-08
9.2209e-11
1.54353e-08
1.42193e-08
-2.96632e-11
1.56657e-08
1.40976e-08
-1.04082e-10
1.58437e-08
1.39864e-08
-1.36815e-10
1.59612e-08
1.38983e-08
-1.35326e-10
1.6023e-08
1.38335e-08
-1.39301e-10
1.60611e-08
1.37983e-08
-1.48931e-10
1.60786e-08
1.379e-08
-1.50107e-10
1.60834e-08
1.37866e-08
-1.61347e-10
1.60811e-08
1.38008e-08
-5.59906e-11
1.62204e-08
1.37453e-08
-5.43878e-11
1.6222e-08
1.37326e-08
-6.68915e-11
1.62176e-08
1.37347e-08
-7.3929e-11
1.62022e-08
1.3742e-08
-8.31659e-11
1.61676e-08
1.37761e-08
-9.10849e-11
1.61064e-08
1.38344e-08
-6.96213e-11
1.59868e-08
1.39179e-08
-3.95487e-11
1.58093e-08
1.40487e-08
-1.72928e-11
1.56231e-08
1.42017e-08
8.42355e-12
1.53442e-08
1.44465e-08
-3.09959e-12
1.50556e-08
1.47356e-08
1.79112e-10
1.48409e-08
1.47874e-08
1.69369e-10
1.4606e-08
1.50228e-08
1.76672e-10
1.44423e-08
1.51694e-08
1.89649e-10
1.43612e-08
1.52308e-08
1.8705e-10
1.43543e-08
1.52334e-08
1.76945e-10
1.44159e-08
1.51749e-08
2.14053e-10
1.45484e-08
1.50044e-08
3.40581e-10
1.4727e-08
1.47069e-08
-2.91319e-10
1.50663e-08
1.49331e-08
-1.99881e-10
1.53054e-08
1.4606e-08
7.66791e-11
1.5438e-08
1.42306e-08
-3.15038e-11
1.56634e-08
1.41018e-08
-1.04842e-10
1.58403e-08
1.39907e-08
-1.36859e-10
1.5957e-08
1.39028e-08
-1.35617e-10
1.60196e-08
1.38373e-08
-1.38939e-10
1.60577e-08
1.38016e-08
-1.48684e-10
1.60757e-08
1.3793e-08
-1.50242e-10
1.60813e-08
1.37891e-08
-1.61261e-10
1.60803e-08
1.38018e-08
-6.25025e-11
1.62192e-08
1.37463e-08
-5.80846e-11
1.62195e-08
1.37351e-08
-6.83329e-11
1.62139e-08
1.37379e-08
-7.40026e-11
1.61978e-08
1.37457e-08
-8.33654e-11
1.61626e-08
1.37805e-08
-9.11398e-11
1.61002e-08
1.384e-08
-7.03242e-11
1.59814e-08
1.39239e-08
-4.12045e-11
1.58061e-08
1.40542e-08
-1.86201e-11
1.5617e-08
1.42098e-08
6.46927e-12
1.5341e-08
1.44522e-08
1.1576e-12
1.50556e-08
1.4733e-08
1.70612e-10
1.48362e-08
1.48e-08
1.67214e-10
1.4603e-08
1.50281e-08
1.74899e-10
1.4439e-08
1.51747e-08
1.87538e-10
1.43568e-08
1.52373e-08
1.84873e-10
1.43498e-08
1.52399e-08
1.75328e-10
1.44122e-08
1.51802e-08
2.11651e-10
1.45451e-08
1.501e-08
3.15283e-10
1.47273e-08
1.47297e-08
-2.67256e-10
1.50593e-08
1.49187e-08
-1.88681e-10
1.52976e-08
1.46045e-08
6.07513e-11
1.54401e-08
1.4243e-08
-3.32965e-11
1.56604e-08
1.41066e-08
-1.05265e-10
1.5836e-08
1.39955e-08
-1.36561e-10
1.5952e-08
1.39078e-08
-1.35646e-10
1.60155e-08
1.38417e-08
-1.3835e-10
1.60538e-08
1.38052e-08
-1.48288e-10
1.60723e-08
1.37963e-08
-1.50269e-10
1.60791e-08
1.37917e-08
-1.61193e-10
1.60794e-08
1.38029e-08
-6.84467e-11
1.62179e-08
1.37474e-08
-6.17937e-11
1.62167e-08
1.37377e-08
-6.98694e-11
1.62098e-08
1.37415e-08
-7.39643e-11
1.61928e-08
1.37497e-08
-8.33075e-11
1.61568e-08
1.37854e-08
-9.07508e-11
1.60931e-08
1.3846e-08
-7.0606e-11
1.59749e-08
1.39305e-08
-4.25118e-11
1.58019e-08
1.40604e-08
-1.96709e-11
1.56099e-08
1.42187e-08
4.8572e-12
1.53368e-08
1.44588e-08
5.86688e-12
1.50547e-08
1.47308e-08
1.62282e-10
1.48304e-08
1.48135e-08
1.65453e-10
1.45989e-08
1.50341e-08
1.73591e-10
1.44346e-08
1.51805e-08
1.85872e-10
1.43512e-08
1.52446e-08
1.83139e-10
1.4344e-08
1.52473e-08
1.74194e-10
1.44074e-08
1.51863e-08
2.09532e-10
1.45408e-08
1.50164e-08
2.8964e-10
1.47267e-08
1.47537e-08
-2.42039e-10
1.50511e-08
1.49046e-08
-1.76719e-10
1.52887e-08
1.46034e-08
4.48693e-11
1.54412e-08
1.42562e-08
-3.49532e-11
1.56566e-08
1.41122e-08
-1.05217e-10
1.58309e-08
1.40009e-08
-1.35798e-10
1.59461e-08
1.39132e-08
-1.35275e-10
1.60108e-08
1.38464e-08
-1.37519e-10
1.60493e-08
1.38092e-08
-1.47768e-10
1.60685e-08
1.37999e-08
-1.50155e-10
1.60766e-08
1.37943e-08
-1.6114e-10
1.60784e-08
1.38041e-08
-7.38253e-11
1.62165e-08
1.37486e-08
-6.53945e-11
1.62137e-08
1.37403e-08
-7.14439e-11
1.62053e-08
1.37452e-08
-7.37554e-11
1.61872e-08
1.37541e-08
-8.28267e-11
1.61502e-08
1.37906e-08
-8.97734e-11
1.6085e-08
1.38523e-08
-7.03223e-11
1.59674e-08
1.39376e-08
-4.33035e-11
1.57964e-08
1.40674e-08
-2.03109e-11
1.56017e-08
1.42284e-08
3.75972e-12
1.53314e-08
1.4466e-08
1.10906e-11
1.50526e-08
1.47294e-08
1.54442e-10
1.48234e-08
1.48277e-08
1.64254e-10
1.45936e-08
1.50408e-08
1.72928e-10
1.44289e-08
1.51871e-08
1.84841e-10
1.43442e-08
1.52525e-08
1.8204e-10
1.43369e-08
1.52553e-08
1.73725e-10
1.44013e-08
1.51929e-08
2.07828e-10
1.45351e-08
1.50237e-08
2.64289e-10
1.47249e-08
1.47786e-08
-2.15938e-10
1.50415e-08
1.48909e-08
-1.64052e-10
1.52787e-08
1.46026e-08
2.95011e-11
1.54412e-08
1.427e-08
-3.63706e-11
1.56518e-08
1.41185e-08
-1.0455e-10
1.58247e-08
1.40066e-08
-1.34428e-10
1.59394e-08
1.39188e-08
-1.34404e-10
1.60053e-08
1.38513e-08
-1.36381e-10
1.60443e-08
1.38135e-08
-1.47095e-10
1.60644e-08
1.38037e-08
-1.49872e-10
1.6074e-08
1.3797e-08
-1.61096e-10
1.60773e-08
1.38055e-08
-7.86596e-11
1.62149e-08
1.375e-08
-6.87785e-11
1.62106e-08
1.37429e-08
-7.2975e-11
1.62004e-08
1.37491e-08
-7.33093e-11
1.6181e-08
1.37586e-08
-8.18248e-11
1.61428e-08
1.3796e-08
-8.80437e-11
1.60758e-08
1.38589e-08
-6.93178e-11
1.59586e-08
1.39452e-08
-4.34001e-11
1.57895e-08
1.40751e-08
-2.03525e-11
1.55924e-08
1.42387e-08
3.41611e-12
1.53248e-08
1.44737e-08
1.69373e-11
1.50491e-08
1.47287e-08
1.47414e-10
1.48151e-08
1.48425e-08
1.63812e-10
1.45869e-08
1.50482e-08
1.73131e-10
1.44219e-08
1.5194e-08
1.84681e-10
1.43359e-08
1.52611e-08
1.81816e-10
1.43284e-08
1.52639e-08
1.74141e-10
1.43938e-08
1.52001e-08
2.06693e-10
1.45282e-08
1.50317e-08
2.3986e-10
1.47217e-08
1.48039e-08
-1.89167e-10
1.50306e-08
1.48779e-08
-1.50657e-10
1.52676e-08
1.46023e-08
1.51523e-11
1.54398e-08
1.42843e-08
-3.74327e-11
1.56459e-08
1.41254e-08
-1.03115e-10
1.58173e-08
1.40128e-08
-1.32289e-10
1.59317e-08
1.39247e-08
-1.32942e-10
1.5999e-08
1.38565e-08
-1.34866e-10
1.60387e-08
1.38179e-08
-1.46209e-10
1.606e-08
1.38075e-08
-1.49389e-10
1.60713e-08
1.37996e-08
-1.61038e-10
1.6076e-08
1.38069e-08
-8.2923e-11
1.62132e-08
1.37515e-08
-7.18381e-11
1.62073e-08
1.37454e-08
-7.43633e-11
1.61952e-08
1.3753e-08
-7.25571e-11
1.61742e-08
1.37633e-08
-8.02209e-11
1.61345e-08
1.38016e-08
-8.53804e-11
1.60655e-08
1.38658e-08
-6.74186e-11
1.59486e-08
1.39531e-08
-4.25879e-11
1.57812e-08
1.40833e-08
-1.9565e-11
1.5582e-08
1.42493e-08
4.10206e-12
1.5317e-08
1.44818e-08
2.35194e-11
1.50442e-08
1.47287e-08
1.41548e-10
1.48055e-08
1.48574e-08
1.64368e-10
1.45787e-08
1.50559e-08
1.74469e-10
1.44136e-08
1.52013e-08
1.8568e-10
1.43261e-08
1.52698e-08
1.82755e-10
1.43184e-08
1.52728e-08
1.75715e-10
1.43849e-08
1.52075e-08
2.06322e-10
1.45199e-08
1.50402e-08
2.17001e-10
1.47171e-08
1.48292e-08
-1.61931e-10
1.50183e-08
1.48658e-08
-1.3646e-10
1.52554e-08
1.46023e-08
2.34941e-12
1.5437e-08
1.42986e-08
-3.79771e-11
1.5639e-08
1.4133e-08
-1.00745e-10
1.58087e-08
1.40193e-08
-1.29199e-10
1.59229e-08
1.39307e-08
-1.30812e-10
1.5992e-08
1.38617e-08
-1.32906e-10
1.60327e-08
1.38224e-08
-1.45049e-10
1.60554e-08
1.38114e-08
-1.4867e-10
1.60684e-08
1.38022e-08
-1.60931e-10
1.60746e-08
1.38085e-08
-8.66496e-11
1.62114e-08
1.37531e-08
-7.44736e-11
1.62038e-08
1.37479e-08
-7.55081e-11
1.61897e-08
1.3757e-08
-7.14143e-11
1.61668e-08
1.3768e-08
-7.79614e-11
1.61253e-08
1.38073e-08
-8.15802e-11
1.6054e-08
1.38727e-08
-6.44162e-11
1.59373e-08
1.39612e-08
-4.06053e-11
1.57716e-08
1.40917e-08
-1.76908e-11
1.55705e-08
1.42598e-08
6.10263e-12
1.53078e-08
1.44899e-08
3.09654e-11
1.50378e-08
1.47293e-08
1.37193e-10
1.47947e-08
1.48721e-08
1.66169e-10
1.45693e-08
1.50638e-08
1.77224e-10
1.44038e-08
1.52085e-08
1.88146e-10
1.4315e-08
1.52785e-08
1.85169e-10
1.43071e-08
1.52816e-08
1.78728e-10
1.43746e-08
1.52148e-08
2.06919e-10
1.45104e-08
1.50491e-08
1.96354e-10
1.4711e-08
1.48539e-08
-1.34402e-10
1.50048e-08
1.48546e-08
-1.21362e-10
1.52423e-08
1.46022e-08
-8.38688e-12
1.54326e-08
1.43125e-08
-3.77757e-11
1.5631e-08
1.41407e-08
-9.72448e-11
1.57991e-08
1.40257e-08
-1.24958e-10
1.5913e-08
1.39368e-08
-1.27966e-10
1.59841e-08
1.38671e-08
-1.30427e-10
1.60261e-08
1.38269e-08
-1.43586e-10
1.60504e-08
1.38154e-08
-1.47662e-10
1.60653e-08
1.38046e-08
-1.60721e-10
1.60732e-08
1.38101e-08
-8.99224e-11
1.62094e-08
1.3755e-08
-7.66112e-11
1.62e-08
1.37504e-08
-7.63262e-11
1.61838e-08
1.37611e-08
-6.97608e-11
1.61587e-08
1.37728e-08
-7.50391e-11
1.61153e-08
1.38133e-08
-7.64042e-11
1.60413e-08
1.38794e-08
-6.00708e-11
1.5925e-08
1.3969e-08
-3.71642e-11
1.57606e-08
1.40998e-08
-1.4412e-11
1.55581e-08
1.42699e-08
9.79397e-12
1.52975e-08
1.44975e-08
3.94689e-11
1.503e-08
1.47302e-08
1.34668e-10
1.47829e-08
1.4886e-08
1.69381e-10
1.45586e-08
1.50714e-08
1.81611e-10
1.43929e-08
1.52152e-08
1.92327e-10
1.43027e-08
1.52866e-08
1.89308e-10
1.42945e-08
1.52898e-08
1.83394e-10
1.43631e-08
1.52217e-08
2.08607e-10
1.44997e-08
1.50579e-08
1.78514e-10
1.47036e-08
1.48772e-08
-1.06693e-10
1.49902e-08
1.48442e-08
-1.05158e-10
1.52282e-08
1.4602e-08
-1.65228e-11
1.54268e-08
1.43255e-08
-3.65596e-11
1.5622e-08
1.41484e-08
-9.23942e-11
1.57883e-08
1.40319e-08
-1.19327e-10
1.59019e-08
1.39425e-08
-1.24404e-10
1.59754e-08
1.38726e-08
-1.27324e-10
1.60189e-08
1.38314e-08
-1.41814e-10
1.60451e-08
1.38194e-08
-1.46315e-10
1.60619e-08
1.3807e-08
-1.60471e-10
1.60715e-08
1.38118e-08
-9.29376e-11
1.6207e-08
1.37573e-08
-7.83352e-11
1.61957e-08
1.37532e-08
-7.66548e-11
1.61772e-08
1.37654e-08
-6.73711e-11
1.61497e-08
1.37777e-08
-7.11988e-11
1.61042e-08
1.38193e-08
-6.95635e-11
1.60274e-08
1.38856e-08
-5.41046e-11
1.59116e-08
1.39763e-08
-3.19075e-11
1.57485e-08
1.41073e-08
-9.23758e-12
1.55446e-08
1.42791e-08
1.57014e-11
1.52857e-08
1.45044e-08
4.9441e-11
1.50205e-08
1.47312e-08
1.34399e-10
1.47702e-08
1.48988e-08
1.74104e-10
1.4547e-08
1.50784e-08
1.87737e-10
1.43812e-08
1.52211e-08
1.98352e-10
1.42895e-08
1.52938e-08
1.95304e-10
1.42811e-08
1.52972e-08
1.89816e-10
1.43507e-08
1.52277e-08
2.11453e-10
1.44883e-08
1.50662e-08
1.64162e-10
1.46948e-08
1.48986e-08
-7.86637e-11
1.49744e-08
1.48344e-08
-8.74655e-11
1.5213e-08
1.46013e-08
-2.13816e-11
1.54193e-08
1.43369e-08
-3.39852e-11
1.56122e-08
1.41555e-08
-8.59529e-11
1.57766e-08
1.40375e-08
-1.1202e-10
1.58898e-08
1.39478e-08
-1.19866e-10
1.59657e-08
1.38782e-08
-1.23396e-10
1.60108e-08
1.3836e-08
-1.39703e-10
1.60391e-08
1.38237e-08
-1.44693e-10
1.60581e-08
1.38096e-08
-1.60295e-10
1.60695e-08
1.38139e-08
-9.54479e-11
1.62043e-08
1.37596e-08
-7.98816e-11
1.61908e-08
1.37568e-08
-7.61811e-11
1.61696e-08
1.37701e-08
-6.37759e-11
1.61392e-08
1.37828e-08
-6.52568e-11
1.60916e-08
1.38246e-08
-6.06931e-11
1.60125e-08
1.38909e-08
-4.60871e-11
1.58971e-08
1.39826e-08
-2.43101e-11
1.5735e-08
1.41138e-08
-1.61902e-12
1.55299e-08
1.42871e-08
2.43406e-11
1.52723e-08
1.45103e-08
6.13547e-11
1.50091e-08
1.47322e-08
1.37041e-10
1.47561e-08
1.49099e-08
1.80832e-10
1.45344e-08
1.50844e-08
1.95877e-10
1.43686e-08
1.52257e-08
2.06395e-10
1.42757e-08
1.52996e-08
2.03328e-10
1.42671e-08
1.53031e-08
1.98264e-10
1.43376e-08
1.52325e-08
2.1595e-10
1.44759e-08
1.50738e-08
1.54176e-10
1.46842e-08
1.49176e-08
-5.00643e-11
1.49572e-08
1.48254e-08
-6.78838e-11
1.51965e-08
1.45999e-08
-2.22565e-11
1.54099e-08
1.43466e-08
-2.94801e-11
1.56013e-08
1.41619e-08
-7.75676e-11
1.57639e-08
1.40422e-08
-1.02695e-10
1.58766e-08
1.3952e-08
-1.13196e-10
1.59547e-08
1.3883e-08
-1.18217e-10
1.60015e-08
1.38405e-08
-1.37029e-10
1.60321e-08
1.38284e-08
-1.42994e-10
1.60536e-08
1.38128e-08
-1.59778e-10
1.60671e-08
1.38161e-08
-9.72682e-11
1.62015e-08
1.37618e-08
-8.12288e-11
1.61848e-08
1.37614e-08
-7.43341e-11
1.61601e-08
1.37755e-08
-5.82557e-11
1.61268e-08
1.3788e-08
-5.60321e-11
1.60771e-08
1.38287e-08
-4.93238e-11
1.59962e-08
1.38951e-08
-3.53334e-11
1.58812e-08
1.39877e-08
-1.3834e-11
1.57197e-08
1.41191e-08
8.75891e-12
1.55136e-08
1.42939e-08
3.59677e-11
1.52569e-08
1.45151e-08
7.54094e-11
1.49954e-08
1.47331e-08
1.4307e-10
1.47405e-08
1.49195e-08
1.90152e-10
1.45204e-08
1.50892e-08
2.06543e-10
1.43551e-08
1.52289e-08
2.16948e-10
1.42611e-08
1.53036e-08
2.13873e-10
1.42523e-08
1.53073e-08
2.09239e-10
1.43235e-08
1.52357e-08
2.22682e-10
1.44622e-08
1.50806e-08
1.4921e-10
1.46715e-08
1.4934e-08
-2.0883e-11
1.49385e-08
1.4817e-08
-4.62439e-11
1.51785e-08
1.45979e-08
-1.87652e-11
1.53983e-08
1.43543e-08
-2.24037e-11
1.55887e-08
1.41672e-08
-6.66028e-11
1.57498e-08
1.40457e-08
-9.09071e-11
1.5862e-08
1.39552e-08
-1.03288e-10
1.59417e-08
1.38865e-08
-1.11105e-10
1.59903e-08
1.38451e-08
-1.33215e-10
1.60235e-08
1.38337e-08
-1.41183e-10
1.60481e-08
1.38169e-08
-1.5877e-10
1.60645e-08
1.3818e-08
-9.84718e-11
1.6198e-08
1.37643e-08
-8.18983e-11
1.61774e-08
1.3767e-08
-7.00992e-11
1.6148e-08
1.37812e-08
-5.02749e-11
1.61118e-08
1.37933e-08
-4.38791e-11
1.606e-08
1.38325e-08
-3.48566e-11
1.59776e-08
1.38986e-08
-2.12447e-11
1.5863e-08
1.39916e-08
-1.4314e-13
1.5702e-08
1.41235e-08
2.20287e-11
1.54953e-08
1.42997e-08
5.06198e-11
1.52391e-08
1.45193e-08
9.16083e-11
1.49791e-08
1.47344e-08
1.52598e-10
1.47227e-08
1.49277e-08
2.02197e-10
1.45043e-08
1.50933e-08
2.20043e-10
1.43399e-08
1.52309e-08
2.30431e-10
1.42452e-08
1.53061e-08
2.27364e-10
1.42361e-08
1.53099e-08
2.2304e-10
1.43077e-08
1.52377e-08
2.31773e-10
1.44466e-08
1.50867e-08
1.4949e-10
1.46562e-08
1.49481e-08
8.74306e-12
1.49177e-08
1.48101e-08
-2.25692e-11
1.51584e-08
1.45958e-08
-1.07909e-11
1.53839e-08
1.43604e-08
-1.23225e-11
1.5574e-08
1.41718e-08
-5.24604e-11
1.57336e-08
1.40481e-08
-7.60649e-11
1.58453e-08
1.39574e-08
-9.0466e-11
1.59261e-08
1.38897e-08
-1.01556e-10
1.59766e-08
1.38497e-08
-1.27331e-10
1.60127e-08
1.38391e-08
-1.39173e-10
1.60413e-08
1.38221e-08
-1.57468e-10
1.60614e-08
1.38202e-08
-9.87572e-11
1.61933e-08
1.3767e-08
-8.01413e-11
1.61681e-08
1.37724e-08
-6.2615e-11
1.61332e-08
1.37866e-08
-3.99407e-11
1.60939e-08
1.37992e-08
-2.891e-11
1.60397e-08
1.38366e-08
-1.69913e-11
1.59559e-08
1.39018e-08
-3.69173e-12
1.58417e-08
1.39952e-08
1.68977e-11
1.5681e-08
1.41279e-08
3.92701e-11
1.54729e-08
1.43057e-08
6.95458e-11
1.52165e-08
1.4524e-08
1.11337e-10
1.49575e-08
1.47373e-08
1.66996e-10
1.47004e-08
1.49358e-08
2.18201e-10
1.44842e-08
1.50976e-08
2.37498e-10
1.4321e-08
1.52325e-08
2.47925e-10
1.4226e-08
1.53078e-08
2.44884e-10
1.42167e-08
1.53118e-08
2.40771e-10
1.42883e-08
1.52394e-08
2.44494e-10
1.4427e-08
1.50933e-08
1.56432e-10
1.46357e-08
1.49608e-08
4.01057e-11
1.48925e-08
1.48057e-08
4.35646e-12
1.51338e-08
1.45948e-08
2.66682e-12
1.53649e-08
1.43659e-08
1.02004e-12
1.5556e-08
1.41763e-08
-3.50087e-11
1.57143e-08
1.40502e-08
-5.7835e-11
1.58256e-08
1.39594e-08
-7.48316e-11
1.59076e-08
1.3893e-08
-8.95631e-11
1.59601e-08
1.38547e-08
-1.18707e-10
1.5999e-08
1.38446e-08
-1.36344e-10
1.60326e-08
1.38283e-08
-1.55441e-10
1.60572e-08
1.38227e-08
-9.7691e-11
1.61871e-08
1.37701e-08
-7.50202e-11
1.61565e-08
1.37768e-08
-5.1674e-11
1.61154e-08
1.37917e-08
-2.7271e-11
1.60725e-08
1.38063e-08
-1.10495e-11
1.60158e-08
1.38416e-08
4.13852e-12
1.59301e-08
1.39059e-08
1.76917e-11
1.58155e-08
1.4e-08
3.81157e-11
1.56542e-08
1.41339e-08
6.55577e-11
1.54394e-08
1.43137e-08
9.90235e-11
1.51808e-08
1.45312e-08
1.41533e-10
1.49219e-08
1.47437e-08
1.93009e-10
1.46647e-08
1.49456e-08
2.44421e-10
1.44516e-08
1.51039e-08
2.64584e-10
1.42908e-08
1.52359e-08
2.74743e-10
1.41962e-08
1.53109e-08
2.71741e-10
1.41866e-08
1.5315e-08
2.68083e-10
1.42576e-08
1.52428e-08
2.67173e-10
1.43951e-08
1.51021e-08
1.76752e-10
1.46014e-08
1.49742e-08
8.00543e-11
1.48541e-08
1.48056e-08
4.08177e-11
1.50964e-08
1.45969e-08
2.66185e-11
1.5334e-08
1.43729e-08
1.86705e-11
1.55321e-08
1.41825e-08
-1.38886e-11
1.56903e-08
1.40534e-08
-3.63318e-11
1.58018e-08
1.39621e-08
-5.63546e-11
1.58853e-08
1.38972e-08
-7.54168e-11
1.59402e-08
1.38608e-08
-1.07199e-10
1.59823e-08
1.38502e-08
-1.30692e-10
1.60217e-08
1.3834e-08
-1.52207e-10
1.60514e-08
1.38256e-08
-9.50528e-11
1.6179e-08
1.37736e-08
-6.76116e-11
1.61427e-08
1.37813e-08
-3.78091e-11
1.60946e-08
1.37971e-08
-1.08023e-11
1.60471e-08
1.38138e-08
1.01167e-11
1.5987e-08
1.38482e-08
2.89237e-11
1.58988e-08
1.39119e-08
4.54743e-11
1.57794e-08
1.40082e-08
6.80674e-11
1.56138e-08
1.41445e-08
1.02993e-10
1.53899e-08
1.43263e-08
1.41242e-10
1.51277e-08
1.45431e-08
1.84681e-10
1.48681e-08
1.47552e-08
2.33063e-10
1.46113e-08
1.49592e-08
2.8332e-10
1.4402e-08
1.51147e-08
3.03632e-10
1.42444e-08
1.52434e-08
3.13109e-10
1.41508e-08
1.53178e-08
3.10152e-10
1.41411e-08
1.53221e-08
3.07277e-10
1.42107e-08
1.52505e-08
3.0239e-10
1.43461e-08
1.51154e-08
2.12764e-10
1.45486e-08
1.49905e-08
1.3109e-10
1.47982e-08
1.48118e-08
8.90716e-11
1.5042e-08
1.46042e-08
6.30209e-11
1.52867e-08
1.4384e-08
4.53767e-11
1.54946e-08
1.41931e-08
1.34341e-11
1.56566e-08
1.40601e-08
-1.12419e-11
1.57725e-08
1.39667e-08
-3.47694e-11
1.58585e-08
1.39029e-08
-5.94389e-11
1.59167e-08
1.38688e-08
-9.311e-11
1.59628e-08
1.3856e-08
-1.21591e-10
1.60085e-08
1.38385e-08
-1.47298e-10
1.60438e-08
1.38288e-08
-9.07653e-11
1.61688e-08
1.37776e-08
-5.83226e-11
1.61267e-08
1.37863e-08
-2.23444e-11
1.60708e-08
1.38039e-08
9.98502e-12
1.60172e-08
1.38217e-08
3.53551e-11
1.59524e-08
1.38567e-08
5.91725e-11
1.58578e-08
1.3922e-08
8.09558e-11
1.5729e-08
1.4023e-08
1.08753e-10
1.55552e-08
1.41627e-08
1.48738e-10
1.53248e-08
1.43463e-08
1.92432e-10
1.50581e-08
1.45623e-08
2.36777e-10
1.47974e-08
1.47745e-08
2.83257e-10
1.45411e-08
1.49793e-08
3.31733e-10
1.43358e-08
1.51324e-08
3.51996e-10
1.41817e-08
1.52578e-08
3.60763e-10
1.40897e-08
1.53313e-08
3.5784e-10
1.40797e-08
1.53358e-08
3.55697e-10
1.41478e-08
1.52649e-08
3.47145e-10
1.42806e-08
1.51356e-08
2.60446e-10
1.44787e-08
1.50124e-08
1.89407e-10
1.47261e-08
1.48267e-08
1.45428e-10
1.49715e-08
1.46194e-08
1.08694e-10
1.52232e-08
1.4402e-08
8.32729e-11
1.54387e-08
1.42111e-08
4.82594e-11
1.56087e-08
1.40733e-08
1.91027e-11
1.57339e-08
1.39753e-08
-9.40505e-12
1.5826e-08
1.39106e-08
-4.00473e-11
1.58888e-08
1.38776e-08
-7.74883e-11
1.59406e-08
1.3863e-08
-1.10643e-10
1.59931e-08
1.38433e-08
-1.40661e-10
1.60339e-08
1.38324e-08
-8.07448e-11
1.61518e-08
1.37826e-08
-4.67379e-11
1.61073e-08
1.37923e-08
-6.7065e-12
1.60444e-08
1.38132e-08
3.31309e-11
1.59824e-08
1.38322e-08
6.55185e-11
1.59093e-08
1.38688e-08
9.56249e-11
1.58035e-08
1.39393e-08
1.23089e-10
1.56629e-08
1.40467e-08
1.57662e-10
1.54779e-08
1.41912e-08
2.03449e-10
1.52395e-08
1.43772e-08
2.53113e-10
1.49671e-08
1.45934e-08
2.9811e-10
1.47049e-08
1.48063e-08
3.43984e-10
1.4449e-08
1.5011e-08
3.9053e-10
1.4248e-08
1.51613e-08
4.1063e-10
1.40981e-08
1.5283e-08
4.1887e-10
1.4008e-08
1.53548e-08
4.1597e-10
1.39978e-08
1.53595e-08
4.14339e-10
1.40638e-08
1.52901e-08
4.0238e-10
1.41935e-08
1.51669e-08
3.19997e-10
1.43866e-08
1.50448e-08
2.55601e-10
1.46327e-08
1.48548e-08
2.10259e-10
1.48797e-08
1.46472e-08
1.63952e-10
1.51393e-08
1.4431e-08
1.29732e-10
1.53639e-08
1.42393e-08
8.95573e-11
1.55452e-08
1.40957e-08
5.53387e-11
1.56821e-08
1.39911e-08
2.07446e-11
1.57852e-08
1.39216e-08
-1.61325e-11
1.58565e-08
1.38865e-08
-6.15144e-11
1.59161e-08
1.38719e-08
-9.78214e-11
1.5975e-08
1.38491e-08
-1.28344e-10
1.60176e-08
1.38369e-08
-6.25112e-11
1.61254e-08
1.37888e-08
-3.22854e-11
1.60834e-08
1.38e-08
8.29718e-12
1.6016e-08
1.38252e-08
5.74447e-11
1.59429e-08
1.38463e-08
9.96062e-11
1.58558e-08
1.38874e-08
1.37201e-10
1.57358e-08
1.39649e-08
1.71456e-10
1.55801e-08
1.40809e-08
2.14804e-10
1.53786e-08
1.42334e-08
2.68432e-10
1.5127e-08
1.44252e-08
3.24684e-10
1.48458e-08
1.46439e-08
3.69606e-10
1.45819e-08
1.48583e-08
4.16235e-10
1.43261e-08
1.50619e-08
4.6112e-10
1.413e-08
1.52085e-08
4.8061e-10
1.39852e-08
1.53259e-08
4.88121e-10
1.38979e-08
1.53957e-08
4.85654e-10
1.38874e-08
1.54002e-08
4.83882e-10
1.39508e-08
1.53334e-08
4.69329e-10
1.40763e-08
1.52167e-08
3.92164e-10
1.42633e-08
1.50958e-08
3.30434e-10
1.45094e-08
1.49042e-08
2.85189e-10
1.4758e-08
1.46948e-08
2.30163e-10
1.50278e-08
1.44767e-08
1.84909e-10
1.52668e-08
1.42812e-08
1.37019e-10
1.54648e-08
1.41287e-08
9.66177e-11
1.56168e-08
1.40153e-08
5.45442e-11
1.57344e-08
1.3939e-08
9.27387e-12
1.58202e-08
1.38979e-08
-4.40539e-11
1.58902e-08
1.38808e-08
-8.24162e-11
1.5953e-08
1.3856e-08
-1.07984e-10
1.59918e-08
1.38426e-08
-3.94275e-11
1.60924e-08
1.37969e-08
-1.54641e-11
1.60554e-08
1.38095e-08
2.49062e-11
1.59866e-08
1.38366e-08
8.18794e-11
1.59014e-08
1.38624e-08
1.31798e-10
1.57969e-08
1.39133e-08
1.78231e-10
1.56592e-08
1.39998e-08
2.23339e-10
1.54793e-08
1.41295e-08
2.79046e-10
1.5251e-08
1.42968e-08
3.42861e-10
1.4977e-08
1.45011e-08
4.07144e-10
1.4681e-08
1.47268e-08
4.5215e-10
1.44143e-08
1.49437e-08
5.00667e-10
1.41614e-08
1.51424e-08
5.43955e-10
1.39712e-08
1.52845e-08
5.62877e-10
1.38323e-08
1.53966e-08
5.68938e-10
1.37485e-08
1.54643e-08
5.67619e-10
1.37378e-08
1.54679e-08
5.6479e-10
1.37979e-08
1.54053e-08
5.49176e-10
1.3918e-08
1.52946e-08
4.76687e-10
1.40983e-08
1.51765e-08
4.15196e-10
1.43418e-08
1.49877e-08
3.70925e-10
1.45931e-08
1.47747e-08
3.06395e-10
1.48785e-08
1.45501e-08
2.47932e-10
1.5141e-08
1.4344e-08
1.88383e-10
1.53657e-08
1.41765e-08
1.38066e-10
1.55425e-08
1.40482e-08
8.6426e-11
1.56781e-08
1.39637e-08
3.4856e-11
1.57816e-08
1.39114e-08
-2.60382e-11
1.58649e-08
1.38885e-08
-6.58603e-11
1.59283e-08
1.38645e-08