/*--------------------------------*- C++ -*----------------------------------*\
  =========                 |
  \\      /  F ield         | OpenFOAM: The Open Source CFD Toolbox
   \\    /   O peration     | Website:  https://openfoam.org
    \\  /    A nd           | Version:  6
     \\/     M anipulation  |
\*---------------------------------------------------------------------------*/
FoamFile
{
    version     2.0;
    format      ascii;
    class       volVectorField;
    location    "20";
    object      U;
}
// * * * * * * * * * * * * * * * * * * * * * * * * * * * * * * * * * * * * * //

dimensions      [0 1 -1 0 0 0 0];

internalField   nonuniform List<vector> 
2880
(
(0.0618719 7.29116e-11 -3.05953e-11)
(0.061872 -2.16903e-10 1.24363e-12)
(0.0618719 2.7816e-10 5.87345e-12)
(0.0761497 3.13027e-10 -1.74784e-11)
(0.0761497 -2.85943e-10 8.761e-12)
(0.0761496 4.29507e-11 1.06294e-11)
(0.0885754 6.39425e-10 -2.39574e-11)
(0.0885754 -1.8458e-10 1.27807e-11)
(0.0885753 -4.44146e-10 1.05809e-11)
(0.0969824 6.04653e-10 -2.21151e-11)
(0.0969825 3.36964e-11 1.50468e-11)
(0.0969823 -6.39926e-10 6.95342e-12)
(0.103515 1.4767e-10 -2.39982e-11)
(0.103515 4.36972e-10 1.72977e-11)
(0.103515 -5.82549e-10 6.15617e-12)
(0.108878 -8.18525e-10 -2.95871e-11)
(0.108878 1.13071e-09 1.81762e-11)
(0.108877 -2.93645e-10 1.07296e-11)
(0.113473 -1.80875e-09 -3.62971e-11)
(0.113473 2.05904e-09 2.42783e-11)
(0.113473 -2.13931e-10 1.18324e-11)
(0.117575 -2.56634e-09 -4.36874e-11)
(0.117575 2.827e-09 3.62813e-11)
(0.117575 -2.32149e-10 8.04739e-12)
(0.12136 -2.90198e-09 -5.04437e-11)
(0.12136 3.24356e-09 4.09042e-11)
(0.121359 -3.41022e-10 9.98855e-12)
(0.124905 -2.72898e-09 -5.81378e-11)
(0.124905 3.13651e-09 5.07832e-11)
(0.124905 -4.28312e-10 7.68776e-12)
(0.128184 -1.98067e-09 -6.00468e-11)
(0.128184 2.34792e-09 5.64179e-11)
(0.128184 -3.99121e-10 4.22839e-12)
(0.131082 -1.18354e-09 -6.36465e-11)
(0.131082 1.43302e-09 5.03102e-11)
(0.131082 -2.86942e-10 1.31285e-11)
(0.133444 -5.75347e-10 -5.90901e-11)
(0.133444 7.03154e-10 4.84647e-11)
(0.133444 -1.60932e-10 1.06771e-11)
(0.135135 -1.2333e-10 -5.68948e-11)
(0.135135 1.47341e-10 4.52668e-11)
(0.135135 -6.23372e-11 1.16864e-11)
(0.136058 -1.2369e-11 -5.53687e-11)
(0.136059 -1.16406e-11 4.30418e-11)
(0.136058 -1.24695e-11 1.22621e-11)
(0.136058 -1.84872e-11 -5.54225e-11)
(0.136058 6.05504e-12 4.29769e-11)
(0.136058 -2.92194e-12 1.23309e-11)
(0.135134 1.16083e-10 -5.67684e-11)
(0.135134 -1.65005e-10 4.5101e-11)
(0.135134 4.40958e-11 1.16365e-11)
(0.133442 5.3344e-10 -5.91058e-11)
(0.133442 -6.9093e-10 4.84018e-11)
(0.133442 1.5559e-10 1.06937e-11)
(0.13108 1.20959e-09 -6.94569e-11)
(0.13108 -1.44706e-09 5.21036e-11)
(0.13108 2.42531e-10 1.65896e-11)
(0.128182 1.94931e-09 -5.33463e-11)
(0.128182 -2.31109e-09 5.37227e-11)
(0.128182 3.73463e-10 4.44133e-13)
(0.124903 2.57916e-09 -5.3692e-11)
(0.124903 -2.9723e-09 4.77295e-11)
(0.124903 3.99492e-10 6.56149e-12)
(0.121358 2.88464e-09 -5.67354e-11)
(0.121358 -3.17452e-09 4.67868e-11)
(0.121358 3.00558e-10 9.28248e-12)
(0.117573 2.62549e-09 -4.31427e-11)
(0.117573 -2.84703e-09 3.46318e-11)
(0.117573 2.39171e-10 8.58337e-12)
(0.113472 1.86705e-09 -3.57885e-11)
(0.113472 -2.06581e-09 2.49139e-11)
(0.113472 2.13545e-10 1.09777e-11)
(0.108876 8.44892e-10 -2.88415e-11)
(0.108876 -1.1485e-09 1.86385e-11)
(0.108876 3.12468e-10 1.03638e-11)
(0.103514 -9.80199e-11 -2.32787e-11)
(0.103514 -4.76567e-10 1.79988e-11)
(0.103514 5.7951e-10 5.42065e-12)
(0.0969812 -5.25301e-10 -2.26379e-11)
(0.0969812 -7.45649e-11 1.51467e-11)
(0.0969811 6.02099e-10 7.59158e-12)
(0.0885742 -5.67593e-10 -2.29838e-11)
(0.0885742 1.49562e-10 1.27222e-11)
(0.0885741 4.19089e-10 1.03587e-11)
(0.0761484 -2.27072e-10 -1.94681e-11)
(0.0761484 2.77565e-10 9.08657e-12)
(0.0761484 -4.91782e-11 1.04805e-11)
(0.0618709 5.15143e-11 -6.92243e-12)
(0.061871 2.1797e-10 7.08227e-13)
(0.061871 -2.6851e-10 6.33586e-12)
(0.075392 5.25231e-11 -2.68887e-11)
(0.0753921 -2.58843e-10 8.62244e-13)
(0.0753921 3.18838e-10 1.18757e-11)
(0.110357 3.88381e-10 -3.88408e-11)
(0.110357 -4.04529e-10 2.04006e-11)
(0.110357 2.69075e-11 2.545e-11)
(0.125651 8.69468e-10 -5.53305e-11)
(0.125651 -2.70655e-10 2.88246e-11)
(0.125651 -6.24243e-10 2.72638e-11)
(0.135559 8.25719e-10 -5.46435e-11)
(0.135559 1.35622e-11 3.51089e-11)
(0.135559 -8.64124e-10 1.97286e-11)
(0.143089 2.0019e-10 -6.02944e-11)
(0.143089 5.43328e-10 4.13692e-11)
(0.143089 -7.53304e-10 1.83055e-11)
(0.149188 -1.09535e-09 -7.55522e-11)
(0.149188 1.44065e-09 4.80839e-11)
(0.149188 -3.34994e-10 2.68416e-11)
(0.154368 -2.41315e-09 -9.00878e-11)
(0.154368 2.63607e-09 6.19531e-11)
(0.154368 -1.92154e-10 2.78976e-11)
(0.158959 -3.42198e-09 -1.05739e-10)
(0.158959 3.65707e-09 8.44695e-11)
(0.158959 -2.09983e-10 2.16635e-11)
(0.163175 -3.85694e-09 -1.20659e-10)
(0.163175 4.18607e-09 1.01608e-10)
(0.163174 -3.34414e-10 1.95236e-11)
(0.167107 -3.61521e-09 -1.36877e-10)
(0.167107 4.00098e-09 1.18759e-10)
(0.167107 -4.17713e-10 1.83049e-11)
(0.170733 -2.59609e-09 -1.42471e-10)
(0.170733 2.99053e-09 1.26388e-10)
(0.170733 -4.36625e-10 1.6663e-11)
(0.173929 -1.53586e-09 -1.47401e-10)
(0.173929 1.80433e-09 1.20768e-10)
(0.173929 -3.17087e-10 2.6209e-11)
(0.176528 -7.52071e-10 -1.39037e-10)
(0.176528 8.49737e-10 1.13203e-10)
(0.176528 -1.4395e-10 2.58512e-11)
(0.178387 -1.57782e-10 -1.34542e-10)
(0.178387 1.55074e-10 1.06832e-10)
(0.178387 -4.99002e-11 2.77176e-11)
(0.179401 -1.51987e-11 -1.31268e-10)
(0.179401 -2.74875e-11 1.03017e-10)
(0.179401 -6.93389e-12 2.81207e-11)
(0.179401 -2.5913e-11 -1.31344e-10)
(0.179401 1.58177e-11 1.02951e-10)
(0.1794 -1.16634e-11 2.82068e-11)
(0.178386 1.50028e-10 -1.34395e-10)
(0.178386 -1.84355e-10 1.06752e-10)
(0.178386 2.64971e-11 2.75807e-11)
(0.176527 7.12263e-10 -1.38998e-10)
(0.176527 -8.44963e-10 1.13354e-10)
(0.176527 1.30073e-10 2.56618e-11)
(0.173927 1.53182e-09 -1.55448e-10)
(0.173927 -1.81644e-09 1.23434e-10)
(0.173927 2.84408e-10 3.08577e-11)
(0.170731 2.51255e-09 -1.33749e-10)
(0.170731 -2.93487e-09 1.22899e-10)
(0.17073 4.30188e-10 1.19544e-11)
(0.167105 3.475e-09 -1.31148e-10)
(0.167105 -3.8359e-09 1.16284e-10)
(0.167105 3.74687e-10 1.55285e-11)
(0.163173 3.85925e-09 -1.29168e-10)
(0.163173 -4.11485e-09 1.05686e-10)
(0.163173 2.72115e-10 2.25317e-11)
(0.158958 3.46999e-09 -1.04637e-10)
(0.158958 -3.66566e-09 8.33344e-11)
(0.158958 2.14605e-10 2.14087e-11)
(0.154366 2.47914e-09 -8.92019e-11)
(0.154366 -2.65397e-09 6.18013e-11)
(0.154366 1.91948e-10 2.75066e-11)
(0.149187 1.12326e-09 -7.43342e-11)
(0.149187 -1.46512e-09 4.80856e-11)
(0.149187 3.52063e-10 2.64164e-11)
(0.143088 -1.45e-10 -5.84075e-11)
(0.143088 -5.91706e-10 4.18105e-11)
(0.143088 7.42495e-10 1.67228e-11)
(0.135558 -7.42367e-10 -5.59664e-11)
(0.135558 -6.26652e-11 3.50265e-11)
(0.135558 8.07588e-10 2.10164e-11)
(0.125649 -8.09859e-10 -5.49173e-11)
(0.125649 2.25785e-10 2.84067e-11)
(0.125649 5.8541e-10 2.65343e-11)
(0.110356 -3.52926e-10 -4.53229e-11)
(0.110356 3.94195e-10 2.04193e-11)
(0.110356 -3.88726e-11 2.49247e-11)
(0.0753909 4.86187e-11 -1.23855e-11)
(0.075391 2.61e-10 4.48836e-14)
(0.075391 -3.08049e-10 1.24747e-11)
(0.0829002 8.9908e-11 -4.51931e-11)
(0.0829003 -2.82212e-10 1.04148e-12)
(0.0829003 3.33513e-10 1.92185e-11)
(0.127798 5.15013e-10 -7.00083e-11)
(0.127798 -4.62596e-10 2.92648e-11)
(0.127798 5.06392e-12 4.97708e-11)
(0.144887 1.01951e-09 -9.51857e-11)
(0.144887 -3.08096e-10 4.01643e-11)
(0.144887 -7.17909e-10 5.58048e-11)
(0.155758 9.5049e-10 -9.22448e-11)
(0.155758 1.29748e-11 4.90315e-11)
(0.155758 -9.80148e-10 4.32174e-11)
(0.163923 2.31489e-10 -9.92363e-11)
(0.163923 6.00845e-10 5.77748e-11)
(0.163922 -8.39083e-10 4.0263e-11)
(0.170488 -1.22516e-09 -1.229e-10)
(0.170489 1.60937e-09 6.77865e-11)
(0.170488 -3.6784e-10 5.37239e-11)
(0.176038 -2.70997e-09 -1.47864e-10)
(0.176038 2.9653e-09 9.14453e-11)
(0.176038 -2.13569e-10 5.59813e-11)
(0.180941 -3.84685e-09 -1.74907e-10)
(0.180941 4.09569e-09 1.30697e-10)
(0.18094 -2.16306e-10 4.5339e-11)
(0.185431 -4.33683e-09 -2.01067e-10)
(0.185431 4.68641e-09 1.58376e-10)
(0.18543 -3.55154e-10 4.37739e-11)
(0.189612 -4.06944e-09 -2.28715e-10)
(0.189612 4.49786e-09 1.88694e-10)
(0.189612 -4.65748e-10 4.06311e-11)
(0.193463 -2.90681e-09 -2.41457e-10)
(0.193463 3.34579e-09 2.03108e-10)
(0.193463 -4.86085e-10 3.90007e-11)
(0.196854 -1.7091e-09 -2.42504e-10)
(0.196854 2.01505e-09 1.90177e-10)
(0.196854 -3.59845e-10 5.218e-11)
(0.19961 -8.40738e-10 -2.31023e-10)
(0.19961 9.61723e-10 1.78368e-10)
(0.19961 -1.7355e-10 5.27413e-11)
(0.20158 -1.71428e-10 -2.23016e-10)
(0.20158 1.79797e-10 1.67125e-10)
(0.201579 -6.70735e-11 5.5969e-11)
(0.202654 -1.39733e-11 -2.16962e-10)
(0.202654 -2.82505e-11 1.59986e-10)
(0.202654 -1.30914e-11 5.67725e-11)
(0.202653 -3.07439e-11 -2.171e-10)
(0.202653 1.58422e-11 1.59855e-10)
(0.202653 -9.21157e-12 5.69552e-11)
(0.201578 1.6653e-10 -2.2278e-10)
(0.201579 -2.11901e-10 1.66889e-10)
(0.201578 3.73104e-11 5.57499e-11)
(0.199608 8.09684e-10 -2.30799e-10)
(0.199608 -9.59049e-10 1.78478e-10)
(0.199608 1.48862e-10 5.23679e-11)
(0.196852 1.68102e-09 -2.4773e-10)
(0.196852 -2.02107e-09 1.91894e-10)
(0.196851 3.36653e-10 5.51031e-11)
(0.193461 2.78857e-09 -2.36004e-10)
(0.193461 -3.2783e-09 1.997e-10)
(0.19346 4.95235e-10 3.68045e-11)
(0.189611 3.95316e-09 -2.25195e-10)
(0.189611 -4.30653e-09 1.85143e-10)
(0.18961 3.74496e-10 4.04511e-11)
(0.185429 4.36152e-09 -2.08996e-10)
(0.185429 -4.60872e-09 1.65965e-10)
(0.185429 2.68968e-10 4.22325e-11)
(0.180939 3.88702e-09 -1.73128e-10)
(0.180939 -4.11196e-09 1.28336e-10)
(0.180939 2.45185e-10 4.50123e-11)
(0.176036 2.78029e-09 -1.46426e-10)
(0.176036 -2.97692e-09 9.15423e-11)
(0.176036 2.16087e-10 5.51087e-11)
(0.170487 1.25882e-09 -1.20821e-10)
(0.170487 -1.63622e-09 6.80557e-11)
(0.170487 3.89397e-10 5.31151e-11)
(0.163921 -1.65278e-10 -9.64686e-11)
(0.163921 -6.57988e-10 5.86662e-11)
(0.163921 8.2984e-10 3.80839e-11)
(0.155757 -8.4543e-10 -9.35989e-11)
(0.155757 -7.13536e-11 4.87239e-11)
(0.155757 9.19572e-10 4.50621e-11)
(0.144886 -9.2969e-10 -9.34431e-11)
(0.144886 2.56877e-10 3.91431e-11)
(0.144886 6.74289e-10 5.43941e-11)
(0.127796 -4.26879e-10 -7.70882e-11)
(0.127796 4.4927e-10 2.87192e-11)
(0.127796 -2.0043e-11 4.84627e-11)
(0.0828991 4.01319e-11 -1.97671e-11)
(0.0828991 2.83675e-10 -1.42064e-13)
(0.0828991 -3.22145e-10 2.01288e-11)
(0.0906608 1.14847e-10 -5.2274e-11)
(0.0906609 -3.02905e-10 2.20593e-12)
(0.0906609 3.3726e-10 3.11259e-11)
(0.140812 6.19262e-10 -1.07742e-10)
(0.140812 -5.01903e-10 3.71728e-11)
(0.140812 -2.40885e-11 8.47592e-11)
(0.159459 1.13148e-09 -1.44702e-10)
(0.159459 -3.35667e-10 4.91532e-11)
(0.159459 -7.8823e-10 9.85458e-11)
(0.17119 1.04391e-09 -1.40794e-10)
(0.17119 6.44534e-12 6.07148e-11)
(0.17119 -1.06184e-09 8.04483e-11)
(0.179908 2.59336e-10 -1.49921e-10)
(0.179908 6.27918e-10 7.20609e-11)
(0.179908 -8.9299e-10 7.62804e-11)
(0.186872 -1.30702e-09 -1.8464e-10)
(0.186872 1.70754e-09 8.81906e-11)
(0.186872 -3.81393e-10 9.45585e-11)
(0.192731 -2.91212e-09 -2.23883e-10)
(0.192731 3.17338e-09 1.25007e-10)
(0.192731 -2.13738e-10 9.82417e-11)
(0.197891 -4.14473e-09 -2.66503e-10)
(0.197891 4.38282e-09 1.84145e-10)
(0.197891 -2.02011e-10 8.37748e-11)
(0.202605 -4.67678e-09 -3.08288e-10)
(0.202605 5.01795e-09 2.30527e-10)
(0.202605 -3.4785e-10 7.93431e-11)
(0.206989 -4.38983e-09 -3.51371e-10)
(0.206989 4.82565e-09 2.76058e-10)
(0.206989 -4.7706e-10 7.60966e-11)
(0.211022 -3.13027e-09 -3.71481e-10)
(0.211022 3.57897e-09 2.96322e-10)
(0.211021 -5.00027e-10 7.59018e-11)
(0.21457 -1.83334e-09 -3.71268e-10)
(0.21457 2.1492e-09 2.78797e-10)
(0.21457 -3.7431e-10 9.22465e-11)
(0.217453 -8.98085e-10 -3.53542e-10)
(0.217454 1.02727e-09 2.58504e-10)
(0.217453 -1.86284e-10 9.51325e-11)
(0.219513 -1.77899e-10 -3.40701e-10)
(0.219513 1.89335e-10 2.40832e-10)
(0.219513 -7.48396e-11 9.99377e-11)
(0.220636 -1.20619e-11 -3.30899e-10)
(0.220636 -3.16172e-11 2.29568e-10)
(0.220636 -1.60962e-11 1.01003e-10)
(0.220636 -3.52865e-11 -3.31124e-10)
(0.220636 1.77535e-11 2.29414e-10)
(0.220635 -8.55838e-12 1.01255e-10)
(0.219512 1.74054e-10 -3.40406e-10)
(0.219512 -2.24176e-10 2.40542e-10)
(0.219512 4.14451e-11 9.96263e-11)
(0.217452 8.68497e-10 -3.53197e-10)
(0.217452 -1.02567e-09 2.58784e-10)
(0.217451 1.57164e-10 9.44857e-11)
(0.214568 1.79857e-09 -3.77489e-10)
(0.214568 -2.15488e-09 2.80846e-10)
(0.214568 3.52005e-10 9.56885e-11)
(0.211019 2.99891e-09 -3.65164e-10)
(0.211019 -3.50742e-09 2.91666e-10)
(0.211019 5.13774e-10 7.39922e-11)
(0.206987 4.27487e-09 -3.47814e-10)
(0.206987 -4.61559e-09 2.72428e-10)
(0.206987 3.64842e-10 7.57254e-11)
(0.202603 4.70869e-09 -3.18098e-10)
(0.202603 -4.93518e-09 2.38872e-10)
(0.202603 2.50775e-10 7.82743e-11)
(0.197889 4.185e-09 -2.64147e-10)
(0.197889 -4.40539e-09 1.81856e-10)
(0.197889 2.42135e-10 8.25913e-11)
(0.192729 2.986e-09 -2.21914e-10)
(0.19273 -3.18152e-09 1.24462e-10)
(0.192729 2.1671e-10 9.77496e-11)
(0.186871 1.34406e-09 -1.81753e-10)
(0.186871 -1.73612e-09 8.81858e-11)
(0.18687 4.053e-10 9.40545e-11)
(0.179906 -1.86664e-10 -1.46234e-10)
(0.179906 -6.90909e-10 7.29088e-11)
(0.179906 8.84701e-10 7.37124e-11)
(0.171188 -9.24506e-10 -1.42234e-10)
(0.171188 -7.08982e-11 5.9748e-11)
(0.171188 9.98386e-10 8.27289e-11)
(0.159457 -1.01979e-09 -1.42877e-10)
(0.159457 2.80606e-10 4.69164e-11)
(0.159457 7.40737e-10 9.603e-11)
(0.14081 -4.8998e-10 -1.17236e-10)
(0.14081 4.86048e-10 3.51618e-11)
(0.14081 6.0527e-12 8.21401e-11)
(0.0906595 2.41508e-11 -3.22665e-11)
(0.0906596 3.03587e-10 6.23693e-14)
(0.0906596 -3.25939e-10 3.24634e-11)
(0.0987013 1.31298e-10 -8.1885e-11)
(0.0987013 -3.20786e-10 2.66447e-12)
(0.0987013 3.29398e-10 4.66019e-11)
(0.151491 6.96456e-10 -1.51191e-10)
(0.151491 -5.30507e-10 3.97584e-11)
(0.151491 -5.92108e-11 1.29567e-10)
(0.171498 1.21717e-09 -1.99629e-10)
(0.171499 -3.58829e-10 5.10805e-11)
(0.171498 -8.45837e-10 1.5396e-10)
(0.184038 1.1191e-09 -1.96013e-10)
(0.184039 -7.26638e-12 6.51339e-11)
(0.184038 -1.12309e-09 1.31664e-10)
(0.193276 2.87631e-10 -2.08529e-10)
(0.193276 6.31627e-10 7.90835e-11)
(0.193276 -9.26843e-10 1.2732e-10)
(0.200606 -1.35717e-09 -2.55979e-10)
(0.200607 1.75562e-09 1.0222e-10)
(0.200606 -3.80369e-10 1.50997e-10)
(0.206745 -3.05522e-09 -3.12388e-10)
(0.206745 3.29858e-09 1.55484e-10)
(0.206745 -1.95333e-10 1.55994e-10)
(0.212133 -4.36583e-09 -3.73508e-10)
(0.212133 4.57176e-09 2.39019e-10)
(0.212132 -1.70118e-10 1.36596e-10)
(0.217044 -4.93314e-09 -4.3391e-10)
(0.217044 5.24125e-09 3.05579e-10)
(0.217044 -3.17061e-10 1.30689e-10)
(0.221604 -4.63063e-09 -4.9514e-10)
(0.221604 5.04237e-09 3.70002e-10)
(0.221604 -4.56533e-10 1.26319e-10)
(0.225795 -3.29979e-09 -5.247e-10)
(0.225795 3.73248e-09 3.9837e-10)
(0.225795 -4.87903e-10 1.27189e-10)
(0.229481 -1.92598e-09 -5.21187e-10)
(0.229481 2.23196e-09 3.73041e-10)
(0.22948 -3.68512e-10 1.48007e-10)
(0.232474 -9.36401e-10 -4.96731e-10)
(0.232474 1.05887e-09 3.43645e-10)
(0.232474 -1.83371e-10 1.53222e-10)
(0.234612 -1.79564e-10 -4.77981e-10)
(0.234612 1.86096e-10 3.18167e-10)
(0.234612 -7.40502e-11 1.59912e-10)
(0.235778 -9.55083e-12 -4.63663e-10)
(0.235778 -3.78872e-11 3.01654e-10)
(0.235777 -1.6257e-11 1.61532e-10)
(0.235777 -3.99637e-11 -4.63996e-10)
(0.235777 2.16902e-11 3.0145e-10)
(0.235777 -9.76482e-12 1.61887e-10)
(0.234611 1.75927e-10 -4.77593e-10)
(0.234611 -2.24309e-10 3.17724e-10)
(0.234611 3.86926e-11 1.5951e-10)
(0.232472 9.05728e-10 -4.96222e-10)
(0.232472 -1.05898e-09 3.44043e-10)
(0.232472 1.52808e-10 1.52275e-10)
(0.229478 1.89064e-09 -5.2663e-10)
(0.229478 -2.23999e-09 3.74773e-10)
(0.229478 3.44719e-10 1.50948e-10)
(0.225792 3.16351e-09 -5.19443e-10)
(0.225792 -3.66071e-09 3.92608e-10)
(0.225792 5.02685e-10 1.26987e-10)
(0.221602 4.51001e-09 -4.92948e-10)
(0.221602 -4.82346e-09 3.6582e-10)
(0.221602 3.38602e-10 1.27261e-10)
(0.217042 4.96593e-09 -4.44527e-10)
(0.217042 -5.15646e-09 3.16525e-10)
(0.217042 2.1592e-10 1.27067e-10)
(0.212131 4.40736e-09 -3.70511e-10)
(0.212131 -4.5979e-09 2.36218e-10)
(0.21213 2.13383e-10 1.34704e-10)
(0.206743 3.1308e-09 -3.09761e-10)
(0.206743 -3.30595e-09 1.54496e-10)
(0.206743 1.97386e-10 1.55681e-10)
(0.200605 1.39505e-09 -2.52042e-10)
(0.200605 -1.78557e-09 1.02068e-10)
(0.200605 4.0445e-10 1.50675e-10)
(0.193274 -2.12967e-10 -2.03937e-10)
(0.193274 -6.97989e-10 8.00121e-11)
(0.193274 9.18388e-10 1.24495e-10)
(0.184037 -9.93234e-10 -1.97021e-10)
(0.184037 -6.03349e-11 6.32235e-11)
(0.184037 1.05667e-09 1.34152e-10)
(0.171497 -1.0949e-09 -1.97193e-10)
(0.171497 3.01968e-10 4.72007e-11)
(0.171497 7.94509e-10 1.50091e-10)
(0.151489 -5.48701e-10 -1.61002e-10)
(0.151489 5.12693e-10 3.58264e-11)
(0.151489 3.78715e-11 1.25246e-10)
(0.0986999 2.3096e-13 -4.74569e-11)
(0.0987 3.20489e-10 -5.38799e-13)
(0.0987 -3.18741e-10 4.84013e-11)
(0.107033 1.48793e-10 -1.05323e-10)
(0.107033 -3.362e-10 3.08609e-12)
(0.107033 3.09727e-10 6.60977e-11)
(0.160743 7.56442e-10 -1.97458e-10)
(0.160743 -5.53289e-10 3.59608e-11)
(0.160743 -9.78704e-11 1.83783e-10)
(0.181924 1.28798e-09 -2.56887e-10)
(0.181924 -3.80469e-10 4.40837e-11)
(0.181924 -8.95704e-10 2.21425e-10)
(0.195241 1.18438e-09 -2.55737e-10)
(0.195241 -2.72945e-11 6.02014e-11)
(0.195241 -1.17115e-09 1.96965e-10)
(0.204982 3.18525e-10 -2.74273e-10)
(0.204982 6.17535e-10 7.66853e-11)
(0.204982 -9.47452e-10 1.94949e-10)
(0.212665 -1.38224e-09 -3.36882e-10)
(0.212665 1.76688e-09 1.09305e-10)
(0.212665 -3.7017e-10 2.23942e-10)
(0.219067 -3.15436e-09 -4.13398e-10)
(0.219068 3.36526e-09 1.82167e-10)
(0.219067 -1.65841e-10 2.30021e-10)
(0.224666 -4.53108e-09 -4.95943e-10)
(0.224667 4.69111e-09 2.92917e-10)
(0.224666 -1.27128e-10 2.05766e-10)
(0.229758 -5.1295e-09 -5.78056e-10)
(0.229758 5.38827e-09 3.83552e-10)
(0.229758 -2.70977e-10 1.9767e-10)
(0.234478 -4.81492e-09 -6.60068e-10)
(0.234478 5.18207e-09 4.68989e-10)
(0.234478 -4.15491e-10 1.92627e-10)
(0.238812 -3.42959e-09 -6.99659e-10)
(0.238812 3.82973e-09 5.0571e-10)
(0.238811 -4.59023e-10 1.94965e-10)
(0.242621 -1.99438e-09 -6.93284e-10)
(0.242621 2.27787e-09 4.72366e-10)
(0.242621 -3.49706e-10 2.20766e-10)
(0.245714 -9.60715e-10 -6.60409e-10)
(0.245714 1.06643e-09 4.31726e-10)
(0.245714 -1.69996e-10 2.28847e-10)
(0.247922 -1.77228e-10 -6.3467e-10)
(0.247922 1.73524e-10 3.97081e-10)
(0.247922 -6.75422e-11 2.37696e-10)
(0.249126 -6.33386e-12 -6.15047e-10)
(0.249126 -4.63706e-11 3.74477e-10)
(0.249126 -1.45412e-11 2.3992e-10)
(0.249126 -4.49778e-11 -6.15496e-10)
(0.249126 2.71725e-11 3.74224e-10)
(0.249125 -1.21836e-11 2.40376e-10)
(0.247921 1.73488e-10 -6.34183e-10)
(0.247921 -2.15663e-10 3.96494e-10)
(0.247921 3.12032e-11 2.37189e-10)
(0.245712 9.28405e-10 -6.59769e-10)
(0.245712 -1.06912e-09 4.32331e-10)
(0.245712 1.39363e-10 2.27554e-10)
(0.242618 1.96052e-09 -6.99112e-10)
(0.242619 -2.28955e-09 4.74135e-10)
(0.242618 3.24144e-10 2.23912e-10)
(0.238809 3.29167e-09 -6.9406e-10)
(0.238809 -3.76003e-09 4.9825e-10)
(0.238809 4.74015e-10 1.95798e-10)
(0.234476 4.68787e-09 -6.58522e-10)
(0.234476 -4.96157e-09 4.64382e-10)
(0.234476 2.99027e-10 1.94142e-10)
(0.229756 5.16079e-09 -5.9062e-10)
(0.229756 -5.30417e-09 3.96769e-10)
(0.229756 1.69198e-10 1.92807e-10)
(0.224665 4.57287e-09 -4.92355e-10)
(0.224665 -4.71922e-09 2.89885e-10)
(0.224664 1.69848e-10 2.02985e-10)
(0.219065 3.22972e-09 -4.10009e-10)
(0.219066 -3.37319e-09 1.8042e-10)
(0.219065 1.66243e-10 2.30132e-10)
(0.212663 1.41906e-09 -3.31734e-10)
(0.212663 -1.79786e-09 1.08592e-10)
(0.212663 3.93048e-10 2.24076e-10)
(0.20498 -2.45059e-10 -2.68627e-10)
(0.204981 -6.85667e-10 7.73631e-11)
(0.20498 9.38273e-10 1.92024e-10)
(0.195239 -1.05709e-09 -2.55867e-10)
(0.195239 -4.15588e-11 5.69419e-11)
(0.195239 1.10178e-09 1.99388e-10)
(0.181922 -1.16219e-09 -2.53776e-10)
(0.181922 3.23199e-10 3.80486e-11)
(0.181922 8.40558e-10 2.15857e-10)
(0.160741 -6.05227e-10 -2.07014e-10)
(0.160741 5.33517e-10 2.94961e-11)
(0.160741 7.32794e-11 1.77586e-10)
(0.107031 -3.19767e-11 -6.62453e-11)
(0.107031 3.34393e-10 -1.59431e-12)
(0.107031 -3.00306e-10 6.83243e-11)
(0.115651 1.68572e-10 -1.39513e-10)
(0.115651 -3.49086e-10 2.66838e-12)
(0.115651 2.77921e-10 9.17578e-11)
(0.169064 8.03714e-10 -2.47275e-10)
(0.169064 -5.71907e-10 2.47294e-11)
(0.169064 -1.39441e-10 2.486e-10)
(0.191231 1.3503e-09 -3.16074e-10)
(0.191231 -4.032e-10 2.65868e-11)
(0.191231 -9.40606e-10 3.01515e-10)
(0.205298 1.24464e-09 -3.18742e-10)
(0.205298 -5.43309e-11 4.40045e-11)
(0.205298 -1.20981e-09 2.7689e-10)
(0.215539 3.53309e-10 -3.47304e-10)
(0.215539 5.87969e-10 6.30394e-11)
(0.215539 -9.58212e-10 2.81017e-10)
(0.22357 -1.38515e-09 -4.28179e-10)
(0.22357 1.74682e-09 1.07741e-10)
(0.22357 -3.53073e-10 3.15769e-10)
(0.230229 -3.21664e-09 -5.28331e-10)
(0.230229 3.38385e-09 2.03991e-10)
(0.230229 -1.281e-10 3.22773e-10)
(0.23603 -4.6506e-09 -6.35641e-10)
(0.23603 4.75404e-09 3.45708e-10)
(0.23603 -7.57235e-11 2.93426e-10)
(0.241291 -5.27732e-09 -7.42954e-10)
(0.241291 5.47392e-09 4.63637e-10)
(0.241291 -2.13001e-10 2.83421e-10)
(0.24616 -4.95358e-09 -8.48689e-10)
(0.24616 5.25986e-09 5.7308e-10)
(0.24616 -3.58306e-10 2.77607e-10)
(0.250626 -3.5268e-09 -8.99657e-10)
(0.250626 3.88123e-09 6.19365e-10)
(0.250625 -4.16901e-10 2.81491e-10)
(0.254549 -2.04239e-09 -8.89612e-10)
(0.254549 2.29317e-09 5.7624e-10)
(0.254549 -3.20433e-10 3.13232e-10)
(0.257733 -9.73123e-10 -8.46972e-10)
(0.257733 1.05354e-09 5.22622e-10)
(0.257733 -1.47829e-10 3.24552e-10)
(0.260007 -1.7118e-10 -8.12931e-10)
(0.260007 1.52557e-10 4.77139e-10)
(0.260007 -5.60956e-11 3.35927e-10)
(0.261246 -2.37493e-12 -7.87189e-10)
(0.261246 -5.70018e-11 4.47301e-10)
(0.261246 -1.11733e-11 3.3903e-10)
(0.261246 -5.04582e-11 -7.8777e-10)
(0.261246 3.41522e-11 4.46992e-10)
(0.261246 -1.56839e-11 3.39599e-10)
(0.260006 1.67128e-10 -8.12321e-10)
(0.260006 -1.99211e-10 4.76352e-10)
(0.260005 1.95717e-11 3.35312e-10)
(0.257731 9.39037e-10 -8.46214e-10)
(0.257731 -1.05977e-09 5.23461e-10)
(0.257731 1.18093e-10 3.22877e-10)
(0.254546 2.01106e-09 -8.95644e-10)
(0.254546 -2.30952e-09 5.77934e-10)
(0.254546 2.93272e-10 3.16497e-10)
(0.250623 3.3892e-09 -8.93798e-10)
(0.250623 -3.81547e-09 6.09941e-10)
(0.250623 4.31959e-10 2.83624e-10)
(0.246158 4.8206e-09 -8.4803e-10)
(0.246158 -5.04401e-09 5.67911e-10)
(0.246158 2.48338e-10 2.79967e-10)
(0.241289 5.30564e-09 -7.57627e-10)
(0.241289 -5.39301e-09 4.79687e-10)
(0.241289 1.13089e-10 2.76794e-10)
(0.236028 4.69121e-09 -6.31466e-10)
(0.236028 -4.78292e-09 3.42318e-10)
(0.236028 1.15423e-10 2.89776e-10)
(0.230227 3.28996e-09 -5.24021e-10)
(0.230227 -3.39334e-09 2.01362e-10)
(0.230227 1.26251e-10 3.23356e-10)
(0.223568 1.4194e-09 -4.21536e-10)
(0.223568 -1.77879e-09 1.06137e-10)
(0.223568 3.73644e-10 3.16602e-10)
(0.215537 -2.83748e-10 -3.4001e-10)
(0.215537 -6.56706e-10 6.31452e-11)
(0.215537 9.47941e-10 2.7785e-10)
(0.205296 -1.11995e-09 -3.17466e-10)
(0.205296 -1.43774e-11 3.89829e-11)
(0.205296 1.1374e-09 2.7909e-10)
(0.191229 -1.22658e-09 -3.11639e-10)
(0.191229 3.46503e-10 1.79279e-11)
(0.191229 8.81626e-10 2.93876e-10)
(0.169062 -6.60553e-10 -2.55647e-10)
(0.169062 5.5006e-10 1.52493e-11)
(0.169062 1.1173e-10 2.40455e-10)
(0.115649 -7.26585e-11 -8.99875e-11)
(0.115649 3.45153e-10 -3.83492e-12)
(0.115649 -2.70363e-10 9.44244e-11)
(0.124536 1.91524e-10 -1.79341e-10)
(0.124536 -3.59477e-10 1.55271e-12)
(0.124536 2.34106e-10 1.25367e-10)
(0.176764 8.41107e-10 -3.01363e-10)
(0.176764 -5.87365e-10 5.59532e-12)
(0.176764 -1.83439e-10 3.24985e-10)
(0.199723 1.40202e-09 -3.75613e-10)
(0.199723 -4.28027e-10 -2.6807e-12)
(0.199723 -9.76814e-10 3.93842e-10)
(0.21451 1.30357e-09 -3.84077e-10)
(0.21451 -8.92864e-11 1.49069e-11)
(0.21451 -1.24143e-09 3.72113e-10)
(0.225254 3.9311e-10 -4.26981e-10)
(0.225254 5.44035e-10 3.65819e-11)
(0.225254 -9.61213e-10 3.86508e-10)
(0.233636 -1.36896e-09 -5.30655e-10)
(0.233636 1.70018e-09 9.6706e-11)
(0.233636 -3.30513e-10 4.28137e-10)
(0.240551 -3.24546e-09 -6.58423e-10)
(0.240551 3.36016e-09 2.2026e-10)
(0.240551 -8.41266e-11 4.36192e-10)
(0.24655 -4.72954e-09 -7.94346e-10)
(0.24655 4.76785e-09 3.96857e-10)
(0.246549 -1.78779e-11 4.01799e-10)
(0.251974 -5.38254e-09 -9.309e-10)
(0.251974 5.5066e-09 5.46053e-10)
(0.251973 -1.45578e-10 3.89963e-10)
(0.256983 -5.05225e-09 -1.06366e-09)
(0.256984 5.28444e-09 6.82647e-10)
(0.256983 -2.88131e-10 3.83501e-10)
(0.261573 -3.59504e-09 -1.1273e-09)
(0.261574 3.89285e-09 7.39454e-10)
(0.261573 -3.63848e-10 3.89262e-10)
(0.265604 -2.07187e-09 -1.11291e-09)
(0.265604 2.28121e-09 6.85011e-10)
(0.265603 -2.82247e-10 4.27759e-10)
(0.268874 -9.74545e-10 -1.05882e-09)
(0.268874 1.02215e-09 6.16162e-10)
(0.268874 -1.17961e-10 4.42906e-10)
(0.271209 -1.61473e-10 -1.01503e-09)
(0.271209 1.23619e-10 5.57897e-10)
(0.271209 -4.01524e-11 4.57289e-10)
(0.272481 2.36497e-12 -9.82144e-10)
(0.272481 -6.97836e-11 5.19603e-10)
(0.272481 -6.25753e-12 4.61451e-10)
(0.272481 -5.64947e-11 -9.82861e-10)
(0.272481 4.2634e-11 5.19223e-10)
(0.27248 -2.02067e-11 4.62144e-10)
(0.271207 1.56944e-10 -1.01428e-09)
(0.271208 -1.75401e-10 5.56892e-10)
(0.271207 4.15051e-12 4.56545e-10)
(0.268872 9.38702e-10 -1.05799e-09)
(0.268872 -1.03285e-09 6.17308e-10)
(0.268872 8.99095e-11 4.40803e-10)
(0.265601 2.04374e-09 -1.11923e-09)
(0.265601 -2.30317e-09 6.86621e-10)
(0.265601 2.53833e-10 4.31217e-10)
(0.26157 3.45915e-09 -1.12098e-09)
(0.261571 -3.83275e-09 7.27768e-10)
(0.26157 3.7913e-10 3.92748e-10)
(0.256981 4.91427e-09 -1.06393e-09)
(0.256981 -5.07867e-09 6.76836e-10)
(0.256981 1.88486e-10 3.86779e-10)
(0.251971 5.40684e-09 -9.4805e-10)
(0.251972 -5.43121e-09 5.65189e-10)
(0.251971 4.95649e-11 3.81585e-10)
(0.246547 4.76741e-09 -7.89604e-10)
(0.246548 -4.79666e-09 3.93016e-10)
(0.246547 5.27975e-11 3.97331e-10)
(0.240549 3.31502e-09 -6.53006e-10)
(0.240549 -3.37195e-09 2.1652e-10)
(0.240548 7.95038e-11 4.37364e-10)
(0.233634 1.39937e-09 -5.22174e-10)
(0.233634 -1.73327e-09 9.37379e-11)
(0.233634 3.4787e-10 4.29945e-10)
(0.225252 -3.2988e-10 -4.17262e-10)
(0.225252 -6.12532e-10 3.56147e-11)
(0.225252 9.49642e-10 3.8289e-10)
(0.214508 -1.18468e-09 -3.80923e-10)
(0.214508 2.17628e-11 7.6704e-12)
(0.214508 1.16591e-09 3.73997e-10)
(0.199721 -1.28534e-09 -3.6911e-10)
(0.199721 3.725e-10 -1.44536e-11)
(0.199721 9.1432e-10 3.83799e-10)
(0.176761 -7.15157e-10 -3.0749e-10)
(0.176761 5.63297e-10 -7.39814e-12)
(0.176761 1.52719e-10 3.14943e-10)
(0.124534 -1.21689e-10 -1.20428e-10)
(0.124535 3.52863e-10 -7.43499e-12)
(0.124535 -2.29193e-10 1.28573e-10)
(0.133654 2.18404e-10 -2.26421e-10)
(0.133654 -3.67294e-10 -3.88993e-13)
(0.133654 1.78811e-10 1.69097e-10)
(0.184054 8.71687e-10 -3.60216e-10)
(0.184054 -6.00428e-10 -2.1689e-11)
(0.184054 -2.29948e-10 4.13724e-10)
(0.207609 1.44547e-09 -4.35719e-10)
(0.207609 -4.55579e-10 -4.46453e-11)
(0.207609 -1.00535e-09 4.99226e-10)
(0.223076 1.3563e-09 -4.4974e-10)
(0.223077 -1.32675e-10 -2.84988e-11)
(0.223076 -1.26037e-09 4.81958e-10)
(0.234326 4.39036e-10 -5.12341e-10)
(0.234326 4.86242e-10 -3.94532e-12)
(0.234326 -9.57879e-10 5.11649e-10)
(0.243067 -1.33556e-09 -6.44725e-10)
(0.243067 1.63011e-09 7.5316e-11)
(0.243067 -3.03553e-10 5.6237e-10)
(0.250242 -3.24227e-09 -8.04442e-10)
(0.250242 3.29756e-09 2.29973e-10)
(0.250242 -3.56133e-11 5.72032e-10)
(0.256438 -4.77025e-09 -9.73513e-10)
(0.256438 4.73685e-09 4.45665e-10)
(0.256438 4.46573e-11 5.32982e-10)
(0.262022 -5.44809e-09 -1.1439e-09)
(0.262022 5.49139e-09 6.30679e-10)
(0.262021 -7.08635e-11 5.19422e-10)
(0.267168 -5.11374e-09 -1.30733e-09)
(0.267168 5.26119e-09 7.9781e-10)
(0.267168 -2.07583e-10 5.12546e-10)
(0.271876 -3.636e-09 -1.38509e-09)
(0.271877 3.86806e-09 8.66186e-10)
(0.271876 -3.01711e-10 5.20537e-10)
(0.276008 -2.08355e-09 -1.36552e-09)
(0.276009 2.24389e-09 7.98731e-10)
(0.276008 -2.36358e-10 5.66654e-10)
(0.27936 -9.65297e-10 -1.29798e-09)
(0.279361 9.73365e-10 7.11971e-10)
(0.27936 -8.12445e-11 5.86297e-10)
(0.281753 -1.48032e-10 -1.24251e-09)
(0.281753 8.69374e-11 6.38509e-10)
(0.281753 -2.00534e-11 6.04205e-10)
(0.283057 7.9395e-12 -1.20141e-09)
(0.283057 -8.47268e-11 5.90261e-10)
(0.283057 1.25703e-13 6.09787e-10)
(0.283057 -6.31682e-11 -1.20227e-09)
(0.283057 5.26352e-11 5.89802e-10)
(0.283057 -2.56967e-11 6.10608e-10)
(0.281752 1.42885e-10 -1.24161e-09)
(0.281752 -1.44458e-10 6.3724e-10)
(0.281752 -1.47745e-11 6.03322e-10)
(0.279358 9.27835e-10 -1.29714e-09)
(0.279358 -9.89513e-10 7.13517e-10)
(0.279358 5.5539e-11 5.83733e-10)
(0.276006 2.05903e-09 -1.37224e-09)
(0.276006 -2.27233e-09 8.00239e-10)
(0.276006 2.07158e-10 5.70381e-10)
(0.271873 3.50283e-09 -1.37805e-09)
(0.271874 -3.81525e-09 8.5193e-10)
(0.271873 3.17582e-10 5.25417e-10)
(0.267165 4.97201e-09 -1.3086e-09)
(0.267166 -5.07032e-09 7.91323e-10)
(0.267165 1.21194e-10 5.16786e-10)
(0.262019 5.46756e-09 -1.16386e-09)
(0.26202 -5.42368e-09 6.53043e-10)
(0.262019 -1.95623e-11 5.09388e-10)
(0.256436 4.80374e-09 -9.68223e-10)
(0.256436 -4.76502e-09 4.413e-10)
(0.256436 -1.57184e-11 5.27786e-10)
(0.250239 3.30639e-09 -7.9766e-10)
(0.25024 -3.31222e-09 2.24811e-10)
(0.250239 2.77561e-11 5.73934e-10)
(0.243065 1.36102e-09 -6.34011e-10)
(0.243065 -1.6645e-09 7.04565e-11)
(0.243065 3.16935e-10 5.65402e-10)
(0.234323 -3.84288e-10 -4.99871e-10)
(0.234324 -5.53877e-10 -6.56598e-12)
(0.234323 9.45063e-10 5.07949e-10)
(0.223074 -1.24639e-09 -4.44146e-10)
(0.223074 6.70514e-11 -3.84692e-11)
(0.223074 1.18215e-09 4.83529e-10)
(0.207606 -1.33996e-09 -4.26089e-10)
(0.207606 4.01688e-10 -6.00078e-11)
(0.207606 9.39656e-10 4.86407e-10)
(0.184051 -7.70097e-10 -3.63282e-10)
(0.184052 5.73991e-10 -3.86289e-11)
(0.184052 1.9654e-10 4.01967e-10)
(0.133652 -1.7854e-10 -1.59472e-10)
(0.133652 3.56103e-10 -1.23024e-11)
(0.133652 -1.75951e-10 1.72573e-10)
(0.142957 2.49925e-10 -2.81946e-10)
(0.142957 -3.71233e-10 -2.46672e-12)
(0.142957 1.11941e-10 2.24647e-10)
(0.191087 8.98335e-10 -4.25116e-10)
(0.191087 -6.11809e-10 -5.70572e-11)
(0.191087 -2.79085e-10 5.15453e-10)
(0.215039 1.48248e-09 -4.96514e-10)
(0.215039 -4.86542e-10 -9.96396e-11)
(0.215039 -1.02672e-09 6.17858e-10)
(0.231136 1.40442e-09 -5.16091e-10)
(0.231136 -1.84941e-10 -8.69349e-11)
(0.231136 -1.26734e-09 6.0743e-10)