/*--------------------------------*- C++ -*----------------------------------*\
  =========                 |
  \\      /  F ield         | OpenFOAM: The Open Source CFD Toolbox
   \\    /   O peration     | Website:  https://openfoam.org
    \\  /    A nd           | Version:  6
     \\/     M anipulation  |
\*---------------------------------------------------------------------------*/
FoamFile
{
    version     2.0;
    format      ascii;
    class       volVectorField;
    location    "1.8";
    object      wallShearStress;
}
// * * * * * * * * * * * * * * * * * * * * * * * * * * * * * * * * * * * * * //

dimensions      [0 2 -2 0 0 0 0];

internalField   uniform (0 0 0);

boundaryField
{
    inlet
    {
        type            calculated;
        value           uniform (0 0 0);
    }
    outlet
    {
        type            calculated;
        value           uniform (0 0 0);
    }
    roughCylinder
    {
        type            calculated;
        value           nonuniform List<vector> 
5120
(
(-0.000632055 -0.000891128 -0.000477938)
(-0.00045535 -0.000659737 -3.43849e-05)
(-0.000419207 -0.000634053 1.31825e-05)
(-0.00046954 -0.000706372 6.81536e-05)
(-0.000547288 -0.000786208 0.000128646)
(-0.000626674 -0.000843232 0.000183382)
(-0.000703841 -0.000876809 0.000229293)
(-0.00077428 -0.000890631 0.000265656)
(-0.000836874 -0.000891394 0.000292618)
(-0.000893496 -0.000891057 0.000313409)
(-0.000942059 -0.000891032 0.000328294)
(-0.000982435 -0.000894618 0.000336992)
(-0.00101645 -0.000902806 0.000340267)
(-0.00104488 -0.000915323 0.000339326)
(-0.00106922 -0.000931323 0.000335331)
(-0.00109121 -0.000949866 0.00032932)
(-0.00111247 -0.000970204 0.000322029)
(-0.0011342 -0.000991843 0.000313847)
(-0.00115706 -0.00101456 0.000304909)
(-0.00118131 -0.00103828 0.000295209)
(-0.00120703 -0.001063 0.000284674)
(-0.00123413 -0.0010887 0.000273187)
(-0.00126252 -0.00111529 0.000260596)
(-0.00129203 -0.00114265 0.000246697)
(-0.00132251 -0.00117058 0.000231187)
(-0.00135364 -0.00119879 0.000213651)
(-0.00138503 -0.00122686 0.000193501)
(-0.00141605 -0.00125421 0.000169975)
(-0.00144566 -0.00127994 0.000141985)
(-0.00147237 -0.00130278 0.000108493)
(-0.00149333 -0.00132099 6.79301e-05)
(-0.00150501 -0.00133179 2.26803e-05)
(-0.000625461 -0.000807815 -0.000430481)
(-0.000504081 -0.000663456 -3.96713e-05)
(-0.000452104 -0.000629041 6.40326e-06)
(-0.000499047 -0.000694153 5.91105e-05)
(-0.000578827 -0.000774377 0.000118183)
(-0.000660594 -0.000833074 0.00017224)
(-0.000740328 -0.000868655 0.000217803)
(-0.00081417 -0.000885587 0.000254189)
(-0.000881407 -0.000891238 0.000282344)
(-0.000942176 -0.000893855 0.000304704)
(-0.000994242 -0.000894123 0.000320992)
(-0.00103595 -0.000896039 0.000330248)
(-0.00107116 -0.000903061 0.000333761)
(-0.00110076 -0.000914712 0.00033296)
(-0.00112621 -0.000930081 0.000329009)
(-0.00114927 -0.000948175 0.000323002)
(-0.00117156 -0.000968132 0.000315703)
(-0.00119433 -0.000989443 0.000307545)
(-0.00121824 -0.00101184 0.000298682)
(-0.0012436 -0.00103522 0.00028911)
(-0.00127044 -0.00105958 0.000278756)
(-0.00129872 -0.00108487 0.000267498)
(-0.0013283 -0.00111103 0.000255174)
(-0.00135904 -0.00113792 0.000241578)
(-0.00139076 -0.00116536 0.000226401)
(-0.00142316 -0.00119308 0.000209232)
(-0.00145583 -0.00122067 0.000189491)
(-0.00148812 -0.00124756 0.000166435)
(-0.00151896 -0.00127287 0.000138999)
(-0.00154677 -0.00129536 0.000106182)
(-0.00156862 -0.0013133 6.64475e-05)
(-0.00158083 -0.00132393 2.21672e-05)
(-0.00057678 -0.000677882 -0.000344606)
(-0.0005376 -0.000633552 -4.55189e-05)
(-0.000484601 -0.000615652 -9.40862e-07)
(-0.000528183 -0.000675296 4.93541e-05)
(-0.000609708 -0.000755415 0.000106917)
(-0.000693951 -0.000815841 0.000160274)
(-0.000776585 -0.000854072 0.000205668)
(-0.000854363 -0.000874893 0.000242595)
(-0.000926196 -0.000885093 0.00027211)
(-0.000990976 -0.000890453 0.000295766)
(-0.00104646 -0.000891856 0.000313236)
(-0.00108986 -0.000892097 0.000322966)
(-0.00112607 -0.000897808 0.000326664)
(-0.00115675 -0.000908412 0.000325961)
(-0.00118326 -0.000923001 0.000322069)
(-0.00120733 -0.000940457 0.000316088)
(-0.00123066 -0.000959889 0.000308821)
(-0.00125441 -0.000980693 0.000300715)
(-0.00127932 -0.00100257 0.000291948)
(-0.00130569 -0.00102542 0.000282527)
(-0.00133357 -0.00104921 0.000272377)
(-0.00136292 -0.0010739 0.000261374)
(-0.00139361 -0.00109942 0.000249346)
(-0.00142548 -0.00112565 0.000236078)
(-0.00145834 -0.00115241 0.000221262)
(-0.00149192 -0.00117944 0.000204487)
(-0.00152578 -0.00120635 0.000185183)
(-0.00155926 -0.00123259 0.00016263)
(-0.00159125 -0.00125732 0.000135791)
(-0.00162011 -0.0012793 0.000103699)
(-0.00164282 -0.00129685 6.48573e-05)
(-0.00165552 -0.00130724 2.16177e-05)
(-0.000760419 -0.000793196 -0.000395161)
(-0.000578047 -0.000624244 -5.01364e-05)
(-0.000516982 -0.000596293 -8.30451e-06)
(-0.000554704 -0.000650568 3.8951e-05)
(-0.00063717 -0.000730338 9.48652e-05)
(-0.000724112 -0.000792586 0.000147495)
(-0.000810073 -0.000833988 0.000192809)
(-0.000892005 -0.000859095 0.000230485)
(-0.000968244 -0.000873518 0.000261405)
(-0.00103692 -0.000881449 0.000286338)
(-0.00109546 -0.00088405 0.00030472)
(-0.00114157 -0.000883431 0.000315165)
(-0.00117885 -0.000887767 0.000319163)
(-0.00121059 -0.000897213 0.000318546)
(-0.0012381 -0.000910878 0.000314731)
(-0.0012632 -0.000927595 0.000308815)
(-0.00128747 -0.000946361 0.000301605)
(-0.00131219 -0.00096656 0.000293593)
(-0.00133807 -0.000987838 0.000284966)
(-0.00136542 -0.00101006 0.000275737)
(-0.00139429 -0.00103318 0.000265827)
(-0.00142462 -0.00105715 0.000255107)
(-0.0014563 -0.0010819 0.000243395)
(-0.00148917 -0.00110732 0.000230472)
(-0.00152305 -0.00113324 0.000216026)
(-0.00155765 -0.00115941 0.000199651)
(-0.00159255 -0.00118549 0.000180791)
(-0.00162709 -0.00121093 0.000158747)
(-0.00166012 -0.00123493 0.000132514)
(-0.00168992 -0.00125626 0.00010116)
(-0.00171339 -0.00127332 6.32303e-05)
(-0.00172654 -0.00128342 2.10558e-05)
(-0.000694458 -0.000649052 -0.000304759)
(-0.000608033 -0.000591155 -5.40621e-05)
(-0.000545583 -0.000570723 -1.63478e-05)
(-0.000578006 -0.000620743 2.82574e-05)
(-0.000661239 -0.000699917 8.23645e-05)
(-0.000750828 -0.000764041 0.00013411)
(-0.00084017 -0.000808675 0.000179286)
(-0.000926164 -0.000837906 0.000217704)
(-0.00100658 -0.000856151 0.000249966)
(-0.00107897 -0.000866408 0.00027615)
(-0.00114065 -0.000870199 0.000295353)
(-0.00119034 -0.000870039 0.000306834)
(-0.0012288 -0.000872437 0.000311194)
(-0.00126159 -0.000880589 0.000310721)
(-0.00129018 -0.000893224 0.000307049)
(-0.00131623 -0.000909043 0.000301232)
(-0.00134146 -0.000927048 0.000294141)
(-0.00136706 -0.0009465 0.000286262)
(-0.00139378 -0.000967017 0.000277805)
(-0.00142194 -0.000988446 0.000268791)
(-0.00145163 -0.00101072 0.000259145)
(-0.00148279 -0.00103381 0.000248729)
(-0.0015153 -0.00105763 0.000237355)
(-0.00154901 -0.00108209 0.000224791)
(-0.00158374 -0.00110702 0.000210725)
(-0.00161923 -0.0011322 0.000194758)
(-0.00165504 -0.00115729 0.000176345)
(-0.00169051 -0.00118178 0.000154814)
(-0.00172446 -0.0012049 0.000129191)
(-0.00175512 -0.00122548 9.85863e-05)
(-0.0017793 -0.00124195 6.15816e-05)
(-0.00179285 -0.00125171 2.04873e-05)
(-0.000874377 -0.000726977 -0.000319154)
(-0.000648911 -0.000568083 -5.88593e-05)
(-0.000573388 -0.000542015 -2.39319e-05)
(-0.000598071 -0.000586993 1.74082e-05)
(-0.000680875 -0.000664797 6.93854e-05)
(-0.000773037 -0.000730678 0.000120075)
(-0.000865961 -0.000778645 0.000165083)
(-0.000956118 -0.000811832 0.000204221)
(-0.00104055 -0.000833412 0.000237716)
(-0.00111654 -0.000845704 0.000265092)
(-0.00118161 -0.000850671 0.000285187)
(-0.00123453 -0.000851179 0.000297542)
(-0.00127544 -0.000851975 0.000302534)
(-0.00130932 -0.0008587 0.000302395)
(-0.00133892 -0.000870013 0.000298895)
(-0.00136599 -0.00088482 0.000293267)
(-0.00139211 -0.000901897 0.000286345)
(-0.00141857 -0.000920493 0.000278664)
(-0.00144613 -0.000940181 0.000270443)
(-0.0014751 -0.000960749 0.000261706)
(-0.00150556 -0.000982105 0.000252372)
(-0.00153745 -0.0010042 0.000242294)
(-0.00157065 -0.00102698 0.000231279)
(-0.00160504 -0.00105033 0.000219088)
(-0.00164045 -0.00107412 0.000205408)
(-0.00167664 -0.00109815 0.000189846)
(-0.00171319 -0.0011221 0.000171876)
(-0.00174942 -0.0011455 0.000150853)
(-0.00178416 -0.0011676 0.000125841)
(-0.00181556 -0.00118728 9.59874e-05)
(-0.00184035 -0.00120307 5.99163e-05)
(-0.00185424 -0.00121241 1.99132e-05)
(-0.000827829 -0.000610693 -0.000246888)
(-0.000681453 -0.000534749 -6.23736e-05)
(-0.00059624 -0.000508678 -3.17609e-05)
(-0.000613612 -0.000549663 6.5726e-06)
(-0.000696013 -0.000626353 5.61362e-05)
(-0.000790575 -0.000693857 0.000105542)
(-0.000886798 -0.000744749 0.000150229)
(-0.000980765 -0.000781265 0.00018993)
(-0.00106912 -0.000805723 0.000224515)
(-0.00114887 -0.000819947 0.000253053)
(-0.00121743 -0.000825967 0.000274099)
(-0.00127383 -0.000827234 0.000287268)
(-0.00131828 -0.000827578 0.000293204)
(-0.00135344 -0.00083217 0.000293518)
(-0.00138428 -0.000842148 0.000290327)
(-0.00141234 -0.000855681 0.000284951)
(-0.00143936 -0.000871698 0.000278283)
(-0.0014666 -0.000889286 0.000270853)
(-0.00149482 -0.000907953 0.000262902)
(-0.00152437 -0.000927473 0.00025447)
(-0.00155539 -0.000947745 0.000245475)
(-0.0015878 -0.000968708 0.000235764)
(-0.00162151 -0.000990304 0.00022513)
(-0.00165639 -0.00101245 0.000213326)
(-0.00169231 -0.001035 0.000200039)
(-0.00172903 -0.00105777 0.000184886)
(-0.00176617 -0.00108047 0.00016736)
(-0.00180305 -0.00110266 0.000146847)
(-0.00183846 -0.00112364 0.000122448)
(-0.00187052 -0.00114234 9.33535e-05)
(-0.00189586 -0.00115737 5.82307e-05)
(-0.00191005 -0.00116627 1.93332e-05)
(-0.000743217 -0.000488702 -0.000169018)
(-0.000696004 -0.000480835 -6.68311e-05)
(-0.000615525 -0.000473453 -3.90952e-05)
(-0.000625027 -0.000510313 -3.91151e-06)
(-0.000705097 -0.000584356 4.2757e-05)
(-0.000801442 -0.000652983 9.04752e-05)
(-0.000900908 -0.000706646 0.000134601)
(-0.000998921 -0.0007464 0.000174719)
(-0.00109135 -0.000773517 0.000210247)
(-0.00117481 -0.000789402 0.000239826)
(-0.00124713 -0.000796532 0.000261925)
(-0.00130699 -0.000798323 0.000275956)
(-0.00135505 -0.000798814 0.000282813)
(-0.0013929 -0.000801696 0.000283879)
(-0.00142484 -0.000809695 0.000281128)
(-0.00145404 -0.000821888 0.000276139)
(-0.001482 -0.000836674 0.000269816)
(-0.00151006 -0.000853166 0.000262736)
(-0.00153901 -0.0008708 0.000255158)
(-0.00156921 -0.000889265 0.000247116)
(-0.00160073 -0.000908426 0.000238522)
(-0.00163357 -0.000928206 0.000229217)
(-0.00166761 -0.00094855 0.000218987)
(-0.00170277 -0.000969367 0.000207579)
(-0.00173896 -0.000990562 0.000194681)
(-0.001776 -0.00101196 0.000179928)
(-0.00181352 -0.0010333 0.000162835)
(-0.00185085 -0.00105417 0.000142821)
(-0.00188678 -0.00107392 0.000119031)
(-0.00191937 -0.00109153 9.06965e-05)
(-0.00194514 -0.0011057 5.65291e-05)
(-0.00195955 -0.00111412 1.87482e-05)
(-0.000910955 -0.000519686 -0.000163735)
(-0.000712785 -0.000443516 -6.83726e-05)
(-0.000627373 -0.000432134 -4.53822e-05)
(-0.000629926 -0.000467583 -1.42981e-05)
(-0.000707911 -0.000539995 2.9136e-05)
(-0.000805894 -0.000609518 7.49203e-05)
(-0.000908259 -0.000665445 0.000118252)
(-0.00100976 -0.000707702 0.000158488)
(-0.00110594 -0.000736942 0.000194705)
(-0.00119353 -0.000754566 0.000225292)
(-0.00126971 -0.000762723 0.000248466)
(-0.00133351 -0.000765169 0.000263581)
(-0.001385 -0.000765681 0.000271334)
(-0.00142633 -0.000767801 0.000273336)
(-0.00146062 -0.000774011 0.000271351)
(-0.00149098 -0.000784243 0.000266873)
(-0.00151987 -0.000797614 0.000261023)
(-0.00154863 -0.000812827 0.000254376)
(-0.00157803 -0.000829197 0.000247215)
(-0.00160854 -0.000846405 0.000239598)
(-0.00164029 -0.000864288 0.000231439)
(-0.00167326 -0.000882752 0.000222571)
(-0.00170739 -0.000901789 0.000212773)
(-0.00174261 -0.000921321 0.000201781)
(-0.00177887 -0.000941187 0.000189282)
(-0.00181602 -0.000961221 0.000174929)
(-0.00185373 -0.000981177 0.000158264)
(-0.00189138 -0.00100068 0.000138747)
(-0.0019277 -0.00101912 0.000115566)
(-0.00196073 -0.00103555 8.79999e-05)
(-0.00198689 -0.00104882 5.48053e-05)
(-0.00200147 -0.00105678 1.81577e-05)
(-0.000807995 -0.000402042 -0.000107247)
(-0.000719542 -0.000396209 -6.85506e-05)
(-0.000638041 -0.00039191 -5.19398e-05)
(-0.000630947 -0.000424617 -2.44454e-05)
(-0.000703533 -0.000493227 1.55014e-05)
(-0.000801795 -0.000562734 5.88943e-05)
(-0.000906523 -0.000620447 0.000101019)
(-0.00101167 -0.000665129 0.000141087)
(-0.00111227 -0.000696691 0.000177855)
(-0.00120386 -0.000715752 0.000209272)
(-0.0012842 -0.000724966 0.000233545)
(-0.00135183 -0.00072787 0.000249821)
(-0.00140728 -0.000728566 0.000258723)
(-0.00145196 -0.000730189 0.000261711)
(-0.00148886 -0.000735012 0.00026058)
(-0.00152138 -0.000743623 0.000256945)
(-0.00155141 -0.000755299 0.000251763)
(-0.00158098 -0.000769075 0.000245691)
(-0.00161105 -0.000784234 0.000239099)
(-0.00164197 -0.000800276 0.000232026)
(-0.00167392 -0.000816981 0.000224386)
(-0.00170692 -0.000834229 0.000216009)
(-0.00174083 -0.000851919 0.000206652)
(-0.00177562 -0.000870007 0.000196045)
(-0.00181146 -0.000888398 0.000183907)
(-0.0018483 -0.000906939 0.000169918)
(-0.00188588 -0.000925418 0.000153656)
(-0.00192357 -0.000943469 0.00013462)
(-0.00196014 -0.000960546 0.000112046)
(-0.0019935 -0.000975752 8.52588e-05)
(-0.00201993 -0.000988063 5.30558e-05)
(-0.00203448 -0.000995477 1.75593e-05)
(-0.000962684 -0.000412663 -8.53067e-05)
(-0.000737107 -0.000355969 -7.21611e-05)
(-0.000638194 -0.000348338 -5.70577e-05)
(-0.000622931 -0.000378967 -3.36786e-05)
(-0.00069108 -0.000444714 2.21636e-06)
(-0.000789283 -0.00051392 4.27005e-05)
(-0.000896174 -0.000573121 8.31734e-05)
(-0.00100465 -0.000619804 0.000122636)
(-0.00110875 -0.000652926 0.000159509)
(-0.00120485 -0.000673544 0.000191656)
(-0.00128965 -0.000683799 0.000217009)
(-0.00136177 -0.000687348 0.000234614)
(-0.00142092 -0.000687942 0.000244779)
(-0.0014692 -0.000689148 0.000248971)
(-0.0015093 -0.000693127 0.000248946)
(-0.00154407 -0.000700461 0.000246271)
(-0.00157549 -0.000710487 0.000241901)
(-0.00160585 -0.000722697 0.000236559)
(-0.0016361 -0.00073633 0.000230609)
(-0.00166689 -0.000750936 0.000224125)
(-0.00169846 -0.000766234 0.000217026)
(-0.00173089 -0.000782061 0.000209139)
(-0.00176418 -0.000798275 0.000200227)
(-0.00179834 -0.000814834 0.000190025)
(-0.00183355 -0.000831657 0.00017826)
(-0.00186987 -0.000848627 0.000164646)
(-0.00190706 -0.000865536 0.000148796)
(-0.0019446 -0.00088208 0.00013026)
(-0.00198119 -0.000897743 0.000108325)
(-0.0020148 -0.000911726 8.23638e-05)
(-0.00204143 -0.000923079 5.12116e-05)
(-0.00205592 -0.000929898 1.69298e-05)
(-0.000825183 -0.000302616 -4.08838e-05)
(-0.000734171 -0.000306508 -7.2202e-05)
(-0.000638895 -0.00030758 -6.24912e-05)
(-0.00061104 -0.000334462 -4.24567e-05)
(-0.000670455 -0.000395215 -1.0639e-05)
(-0.000766937 -0.000463127 2.64122e-05)
(-0.000874799 -0.000522993 6.46142e-05)
(-0.000985866 -0.000571149 0.00010291)
(-0.00109472 -0.000606453 0.000139669)
(-0.00119547 -0.000628562 0.000172322)
(-0.00128488 -0.000639742 0.000198676)
(-0.00136141 -0.00064368 0.000217603)
(-0.00142524 -0.000644458 0.000229313)
(-0.00147718 -0.000645122 0.000234911)
(-0.00152005 -0.000647999 0.00023611)
(-0.00155684 -0.000653927 0.000234508)
(-0.00158991 -0.000662493 0.000231142)
(-0.00162131 -0.000673258 0.000226723)
(-0.00165217 -0.000685512 0.000221615)
(-0.00168302 -0.000698709 0.000215867)
(-0.00171423 -0.000712573 0.00020941)
(-0.00174601 -0.000726919 0.000202075)
(-0.00177842 -0.000741584 0.000193631)
(-0.00181151 -0.000756482 0.000183826)
(-0.00184574 -0.000771653 0.00017243)
(-0.0018812 -0.000786957 0.000159182)
(-0.00191779 -0.000802259 0.000143748)
(-0.00195496 -0.000817245 0.000125722)
(-0.00199148 -0.000831478 0.000104449)
(-0.00202509 -0.000844182 7.93435e-05)
(-0.00205173 -0.000854489 4.92861e-05)
(-0.00206606 -0.000860668 1.62733e-05)
(-0.00090796 -0.000277815 -1.1345e-05)
(-0.000730593 -0.000260777 -7.39608e-05)
(-0.000627622 -0.000264188 -6.6202e-05)
(-0.000590105 -0.000289044 -5.00432e-05)
(-0.000640091 -0.000344954 -2.26984e-05)
(-0.00073329 -0.000410681 1.0326e-05)
(-0.000841973 -0.000471033 4.56214e-05)
(-0.000956621 -0.000521117 8.22439e-05)
(-0.00106887 -0.000557748 0.000118261)
(-0.00117417 -0.000581201 0.000151102)
(-0.00126905 -0.000593575 0.000178425)
(-0.00135085 -0.000598087 0.000198787)
(-0.00141884 -0.000598549 0.000212052)
(-0.00147507 -0.000598714 0.000219327)
(-0.00152155 -0.000600685 0.000222097)
(-0.00156109 -0.000605369 0.000221882)
(-0.00159564 -0.00061234 0.000219683)
(-0.00162769 -0.000621437 0.000216296)
(-0.00165842 -0.000631969 0.000212078)
(-0.00168876 -0.000643523 0.000207127)
(-0.00171911 -0.000655763 0.000201364)
(-0.00174977 -0.000668495 0.000194618)
(-0.00178099 -0.000681564 0.000186682)
(-0.00181299 -0.00069489 0.000177324)
(-0.00184602 -0.00070841 0.00016631)
(-0.00188043 -0.00072207 0.00015344)
(-0.00191612 -0.000735712 0.000138425)
(-0.00195269 -0.000749109 0.000120927)
(-0.00198879 -0.000761824 0.000100342)
(-0.00202233 -0.000773236 7.61456e-05)
(-0.00204899 -0.000782536 4.7253e-05)
(-0.00206315 -0.000788055 1.55826e-05)
(-0.000754297 -0.000187221 1.40422e-05)
(-0.000700784 -0.000211537 -7.23867e-05)
(-0.000609873 -0.000221996 -6.93746e-05)
(-0.000562466 -0.000245157 -5.64246e-05)
(-0.000600925 -0.000295517 -3.34846e-05)
(-0.000689945 -0.000358517 -5.09485e-06)
(-0.000797872 -0.000418387 2.64898e-05)
(-0.000912908 -0.000468665 6.04913e-05)
(-0.00102959 -0.000507211 9.52818e-05)
(-0.00114078 -0.00053261 0.000128059)
(-0.00124069 -0.000545843 0.000156071)
(-0.00132782 -0.000550752 0.000177818)
(-0.00140164 -0.000551334 0.000192956)
(-0.00146204 -0.000550661 0.000202064)
(-0.00151193 -0.000551395 0.000206603)
(-0.00155365 -0.000554434 0.000207947)
(-0.00159012 -0.00055986 0.000207221)
(-0.00162334 -0.000567415 0.000205148)
(-0.00165468 -0.000576477 0.000202096)
(-0.00168482 -0.000586521 0.000198126)
(-0.00171442 -0.000597247 0.000193181)
(-0.00174391 -0.000608442 0.000187101)
(-0.00177354 -0.000619897 0.000179678)
(-0.00180363 -0.00063148 0.000170714)
(-0.00183505 -0.00064333 0.00016006)
(-0.00186803 -0.000655321 0.000147542)
(-0.00190267 -0.000667337 0.000132942)
(-0.0019385 -0.000679167 0.000115975)
(-0.00197434 -0.000690457 9.61077e-05)
(-0.00200764 -0.000700552 7.2844e-05)
(-0.00203406 -0.000708757 4.51533e-05)
(-0.00204796 -0.000713607 1.48707e-05)
(-0.000756392 -0.000146017 3.73402e-05)
(-0.000664523 -0.000165724 -7.08544e-05)
(-0.000582074 -0.000180625 -7.10304e-05)
(-0.000528112 -0.000203125 -6.15692e-05)
(-0.000551377 -0.000246907 -4.27954e-05)
(-0.000631654 -0.000304975 -1.94523e-05)
(-0.000737539 -0.000363634 7.53815e-06)
(-0.000856722 -0.00041599 3.82172e-05)
(-0.000977431 -0.000456222 7.09985e-05)
(-0.00109255 -0.000482693 0.000102997)
(-0.00119937 -0.000497564 0.000131619)
(-0.00129269 -0.000503059 0.000154753)
(-0.00137131 -0.000503098 0.000171684)
(-0.00143724 -0.000501807 0.000182991)
(-0.00149124 -0.000501277 0.000189651)
(-0.00153655 -0.000502938 0.000193026)
(-0.00157481 -0.000506622 0.000194024)
(-0.00160861 -0.000512345 0.000193432)
(-0.00163946 -0.000519543 0.000191614)
(-0.0016686 -0.000527852 0.000188695)
(-0.00169671 -0.000536914 0.00018461)
(-0.00172437 -0.000546482 0.000179212)
(-0.00175226 -0.000556422 0.000172347)
(-0.00178088 -0.000566584 0.000163852)
(-0.0018105 -0.000576869 0.000153557)
(-0.00184188 -0.000587271 0.00014139)
(-0.00187513 -0.000597666 0.000127194)
(-0.00190989 -0.00060789 0.000110762)
(-0.0019448 -0.000617602 9.16183e-05)
(-0.00197773 -0.000626369 6.93453e-05)
(-0.002004 -0.000633535 4.29374e-05)
(-0.00201761 -0.000637728 1.41224e-05)
(-0.000632102 -8.70469e-05 4.2095e-05)
(-0.00060593 -0.000125707 -6.50692e-05)
(-0.000537561 -0.000139565 -7.05334e-05)
(-0.000482727 -0.000162669 -6.46331e-05)
(-0.000493327 -0.000200983 -4.99794e-05)
(-0.000566173 -0.000254699 -3.21537e-05)
(-0.000669432 -0.000311727 -1.05449e-05)
(-0.000785315 -0.000362626 1.56618e-05)
(-0.000908229 -0.000403894 4.54734e-05)
(-0.00103122 -0.000433279 7.63338e-05)
(-0.0011432 -0.000449071 0.000104965)
(-0.0012433 -0.000455279 0.000129371)
(-0.00132941 -0.000455577 0.000148442)
(-0.00139995 -0.000453068 0.000162023)
(-0.00145851 -0.000451137 0.000171137)
(-0.00150622 -0.000450802 0.00017671)
(-0.00154666 -0.000452733 0.000179797)
(-0.0015818 -0.00045679 0.00018105)
(-0.00161324 -0.00046249 0.000180818)
(-0.00164191 -0.000469316 0.000179177)
(-0.00166879 -0.000476932 0.000176088)
(-0.00169468 -0.000485083 0.00017144)
(-0.00172005 -0.000493475 0.000165082)
(-0.00174571 -0.00050197 0.000156921)
(-0.00177301 -0.000510719 0.000146935)
(-0.00180239 -0.000519579 0.000135076)
(-0.00183415 -0.000528462 0.000121276)
(-0.00186794 -0.000537209 0.00010539)
(-0.00190256 -0.000545598 8.70197e-05)
(-0.00193516 -0.000553087 6.57627e-05)
(-0.00196103 -0.000559162 4.06678e-05)
(-0.0019743 -0.000562695 1.33583e-05)
(-0.000563086 -5.32586e-05 5.40208e-05)
(-0.000554493 -8.73128e-05 -6.31425e-05)
(-0.000490631 -0.0001055 -6.99057e-05)
(-0.000431905 -0.000126796 -6.58673e-05)
(-0.00042589 -0.000157838 -5.43692e-05)
(-0.000482349 -0.000203302 -4.18634e-05)
(-0.000577363 -0.00025599 -2.65521e-05)
(-0.000697542 -0.000308888 -6.14781e-06)
(-0.000826769 -0.00035308 1.95776e-05)
(-0.000951744 -0.000383107 4.80464e-05)
(-0.00107292 -0.000401565 7.6425e-05)
(-0.00118006 -0.000408603 0.000101835)
(-0.00127162 -0.000408348 0.00012281)
(-0.00134969 -0.000405387 0.000139151)
(-0.00141277 -0.000401843 0.000151004)
(-0.0014651 -0.000399991 0.000159381)
(-0.00150769 -0.000400019 0.00016489)
(-0.0015433 -0.000402133 0.000168181)
(-0.00157374 -0.000405923 0.000169587)
(-0.0016007 -0.000411046 0.000169257)
(-0.0016253 -0.000417113 0.00016717)
(-0.00164854 -0.000423818 0.000163256)
(-0.00167175 -0.000430992 0.000157474)
(-0.00169564 -0.000438395 0.000149769)
(-0.00172061 -0.000445825 0.000140084)
(-0.00174786 -0.000453292 0.000128517)
(-0.00177776 -0.000460709 0.000115088)
(-0.00181 -0.000467935 9.97342e-05)
(-0.00184311 -0.000474737 8.21217e-05)
(-0.00187492 -0.000480876 6.1939e-05)
(-0.00190045 -0.000485919 3.82554e-05)
(-0.00191333 -0.00048882 1.2549e-05)
(-0.000476955 -2.39936e-05 5.39434e-05)
(-0.000472643 -5.63259e-05 -5.71279e-05)
(-0.00042512 -7.4767e-05 -6.59701e-05)
(-0.000371558 -9.47961e-05 -6.455e-05)
(-0.000352297 -0.000119398 -5.55766e-05)
(-0.000397244 -0.000158349 -4.83956e-05)
(-0.000487957 -0.000208227 -4.02282e-05)
(-0.00059918 -0.000257402 -2.64307e-05)
(-0.000724189 -0.000300438 -6.07393e-06)
(-0.000860476 -0.000335183 1.91744e-05)
(-0.00098569 -0.000354602 4.61808e-05)
(-0.00110174 -0.000363286 7.23183e-05)
(-0.0012031 -0.000363889 9.54639e-05)
(-0.00128579 -0.000359514 0.00011443)
(-0.00135503 -0.000354684 0.00012949)
(-0.00140994 -0.00035065 0.000140802)
(-0.00145483 -0.000348783 0.000149093)
(-0.00149174 -0.000349202 0.000154813)
(-0.00152262 -0.000351574 0.000158246)
(-0.0015488 -0.000355409 0.00015948)
(-0.00157162 -0.000360287 0.000158531)
(-0.00159233 -0.000365845 0.000155389)
(-0.00161171 -0.000371678 0.000150015)
(-0.00163142 -0.000377644 0.00014252)
(-0.00165326 -0.0003838 0.000133044)
(-0.00167801 -0.000389983 0.000121721)
(-0.00170603 -0.000396087 0.000108658)
(-0.00173718 -0.000402029 9.38727e-05)
(-0.00177015 -0.000407677 7.71059e-05)
(-0.00180181 -0.000412669 5.80458e-05)
(-0.00182693 -0.000416701 3.58023e-05)
(-0.0018395 -0.000419016 1.17289e-05)
(-0.000405423 -4.80353e-06 4.91455e-05)
(-0.000400481 -3.57553e-05 -5.19111e-05)
(-0.000359035 -5.13941e-05 -6.21671e-05)
(-0.000306603 -6.86939e-05 -6.14713e-05)
(-0.00027363 -8.60023e-05 -5.32026e-05)
(-0.000292203 -0.000112278 -4.86112e-05)
(-0.00036258 -0.000152213 -4.67343e-05)
(-0.000476429 -0.000202377 -4.20514e-05)
(-0.000613779 -0.000251168 -2.98529e-05)
(-0.000746213 -0.000285219 -9.60001e-06)
(-0.000885127 -0.000309629 1.5231e-05)
(-0.00100858 -0.00031977 4.13116e-05)
(-0.00111577 -0.000320288 6.61097e-05)
(-0.00120891 -0.000316281 8.82051e-05)
(-0.00128257 -0.000309792 0.000106549)
(-0.00134297 -0.000304363 0.000121415)
(-0.00139022 -0.000300676 0.000132833)
(-0.00142728 -0.000299253 0.000141145)
(-0.00145638 -0.000299887 0.00014658)
(-0.00147977 -0.000302236 0.000149305)
(-0.00149923 -0.000305857 0.000149407)
(-0.00151647 -0.00031035 0.000146974)
(-0.00153361 -0.000315474 0.00014216)
(-0.00155128 -0.00032077 0.000135047)
(-0.00157043 -0.000325996 0.000125785)
(-0.00159254 -0.000331077 0.000114671)
(-0.00161835 -0.000335967 0.000101945)
(-0.00164745 -0.000340543 8.76932e-05)
(-0.00167838 -0.000344704 7.17353e-05)
(-0.00170861 -0.000348358 5.38457e-05)
(-0.00173304 -0.000351383 3.31612e-05)
(-0.00174496 -0.000353085 1.08473e-05)
(-0.000259022 4.05025e-06 3.75626e-05)
(-0.000295602 -1.70366e-05 -4.49412e-05)
(-0.000278197 -3.39409e-05 -5.7078e-05)
(-0.000238412 -4.89504e-05 -5.71898e-05)
(-0.000193271 -5.84575e-05 -4.63864e-05)
(-0.000195355 -7.42647e-05 -4.29262e-05)
(-0.000261247 -0.000109945 -4.98113e-05)
(-0.000358313 -0.000153626 -5.38142e-05)
(-0.000474563 -0.000195863 -4.88184e-05)
(-0.000627806 -0.000239451 -3.64699e-05)
(-0.000765462 -0.00026416 -1.54945e-05)
(-0.000901246 -0.000278027 9.79475e-06)
(-0.00102113 -0.000280835 3.6109e-05)
(-0.00111788 -0.000275704 6.08788e-05)
(-0.00119978 -0.000268732 8.29717e-05)
(-0.00126253 -0.000261418 0.000101383)
(-0.00131171 -0.00025607 0.000116158)
(-0.00134966 -0.000253231 0.000127362)
(-0.00137875 -0.000252783 0.000135137)
(-0.00140093 -0.000254273 0.0001396)
(-0.00141804 -0.000257168 0.000140873)
(-0.0014317 -0.00026092 0.000139102)
(-0.0014431 -0.000264974 0.000134451)
(-0.00145551 -0.000269229 0.000127371)
(-0.00147058 -0.000273502 0.000118164)
(-0.0014898 -0.000277639 0.000107222)
(-0.00151341 -0.000281494 9.48444e-05)
(-0.0015415 -0.000285052 8.12156e-05)
(-0.00157244 -0.000288256 6.62014e-05)
(-0.00160301 -0.000290996 4.958e-05)
(-0.00162734 -0.000293183 3.04953e-05)
(-0.00163933 -0.000294441 9.96394e-06)
(-0.00011711 4.81251e-06 2.02789e-05)
(-0.000177165 -8.55078e-06 -3.41003e-05)
(-0.000182317 -2.11506e-05 -4.88218e-05)
(-0.000161102 -3.32093e-05 -4.98947e-05)
(-0.00011882 -3.6911e-05 -3.73367e-05)
(-7.1679e-05 -2.88009e-05 -2.195e-05)
(-9.4201e-05 -4.23325e-05 -2.66598e-05)
(-0.000196727 -8.90396e-05 -4.65517e-05)
(-0.000346903 -0.000147551 -6.20237e-05)
(-0.000473847 -0.000184393 -5.75338e-05)
(-0.000638015 -0.000220822 -4.38003e-05)
(-0.000779481 -0.000237109 -2.09343e-05)
(-0.00090538 -0.000241311 6.02433e-06)
(-0.00101637 -0.000238461 3.35186e-05)
(-0.0011011 -0.00023042 5.89798e-05)
(-0.00116971 -0.000222503 8.12963e-05)
(-0.00122097 -0.000215981 9.95859e-05)
(-0.00125815 -0.000211848 0.000113654)
(-0.00128423 -0.000210191 0.000123543)
(-0.00130207 -0.000210675 0.000129438)
(-0.00131434 -0.000212787 0.000131599)
(-0.00132399 -0.00021604 0.000130398)
(-0.00133391 -0.000220045 0.00012626)
(-0.00134385 -0.000224037 0.000119404)
(-0.00135626 -0.000227835 0.000110319)
(-0.00137247 -0.000231207 9.95036e-05)
(-0.00139362 -0.000234148 8.74506e-05)
(-0.00141916 -0.000236569 7.43858e-05)
(-0.00144767 -0.000238514 6.02729e-05)
(-0.00147605 -0.000240025 4.49463e-05)
(-0.001499 -0.000241274 2.75859e-05)
(-0.0015095 -0.000241897 8.99302e-06)
(-2.10304e-05 7.07044e-07 5.63185e-06)
(-7.00661e-05 -7.16929e-06 -1.7266e-05)
(-8.63242e-05 -1.2055e-05 -3.47967e-05)
(-8.44363e-05 -1.96422e-05 -4.11171e-05)
(-4.47983e-05 -1.64695e-05 -2.41669e-05)
(-6.26421e-05 -3.2963e-05 -3.32395e-05)
(-7.47246e-05 -4.39074e-05 -3.30746e-05)
(-7.64611e-05 -4.05535e-05 -2.77144e-05)
(-0.00014623 -6.74639e-05 -4.23758e-05)
(-0.000345988 -0.000138428 -7.2327e-05)
(-0.000483892 -0.00017032 -6.62979e-05)
(-0.000647549 -0.000196744 -4.83807e-05)
(-0.000788649 -0.000205807 -2.22451e-05)
(-0.000900455 -0.000203041 7.23162e-06)
(-0.000996216 -0.000196549 3.61096e-05)
(-0.00106606 -0.000187906 6.1934e-05)
(-0.00111795 -0.000180656 8.35831e-05)
(-0.00115508 -0.000175957 0.000100538)
(-0.00118033 -0.000173967 0.000112699)
(-0.00119647 -0.000174305 0.00012021)
(-0.00120601 -0.000176338 0.000123359)
(-0.00121049 -0.000179273 0.000122471)
(-0.00121188 -0.000182434 0.000118026)
(-0.00121604 -0.000185831 0.000111)
(-0.00122337 -0.000188968 0.000101789)
(-0.00123646 -0.000191726 9.11062e-05)
(-0.00125533 -0.00019395 7.94465e-05)
(-0.00128012 -0.000195688 6.71246e-05)
(-0.00130875 -0.000196949 5.41047e-05)
(-0.0013379 -0.000197833 4.0233e-05)
(-0.00136139 -0.00019854 2.46708e-05)
(-0.00137339 -0.000198999 8.03971e-06)
(5.96171e-06 -4.41811e-06 4.51698e-06)
(-1.64436e-06 -5.99722e-06 -1.13968e-06)
(-8.10506e-06 -6.02741e-06 -1.2001e-05)
(-1.89885e-05 -1.29288e-05 -2.73999e-05)
(-2.58156e-05 -2.18444e-05 -3.49242e-05)
(-3.08569e-05 -3.07351e-05 -3.64282e-05)
(-3.71527e-05 -3.66579e-05 -3.56548e-05)
(-5.42848e-05 -4.21345e-05 -3.82032e-05)
(-5.81784e-05 -3.29395e-05 -2.85615e-05)
(-9.08196e-05 -3.9261e-05 -3.09114e-05)
(-0.000348172 -0.000123696 -7.93694e-05)
(-0.000499538 -0.000152092 -6.96068e-05)
(-0.000650151 -0.000167555 -4.56966e-05)
(-0.000781215 -0.00017064 -1.59932e-05)
(-0.000875086 -0.000164496 1.52109e-05)
(-0.000950045 -0.000157036 4.41337e-05)
(-0.00100304 -0.000150098 6.87606e-05)
(-0.00103758 -0.000145254 8.80821e-05)
(-0.00105786 -0.000142984 0.000101844)
(-0.00106761 -0.000143033 0.000110235)
(-0.00107044 -0.000144827 0.000113726)
(-0.00107135 -0.000147887 0.000113139)
(-0.00107355 -0.000151668 0.000109197)
(-0.00107478 -0.000155066 0.000102173)
(-0.00108001 -0.000158096 9.30373e-05)
(-0.00109008 -0.000160388 8.24628e-05)
(-0.00110631 -0.000161986 7.11821e-05)
(-0.00112805 -0.000162887 5.95214e-05)
(-0.00115385 -0.000163224 4.7551e-05)
(-0.00118036 -0.000163191 3.51469e-05)
(-0.0012014 -0.000163136 2.14782e-05)
(-0.00120966 -0.000162866 6.96442e-06)
(1.36899e-05 -3.41174e-06 7.40967e-06)
(2.7444e-05 -7.63096e-06 -5.05768e-07)
(3.53509e-05 -1.09375e-05 -1.25287e-05)
(2.6792e-05 -1.45311e-05 -1.76144e-05)
(1.91814e-05 -1.80708e-05 -2.17423e-05)
(9.30676e-06 -2.01521e-05 -2.49446e-05)