/*--------------------------------*- C++ -*----------------------------------*\
  =========                 |
  \\      /  F ield         | OpenFOAM: The Open Source CFD Toolbox
   \\    /   O peration     | Website:  https://openfoam.org
    \\  /    A nd           | Version:  6
     \\/     M anipulation  |
\*---------------------------------------------------------------------------*/
FoamFile
{
    version     2.0;
    format      ascii;
    class       volVectorField;
    location    "36";
    object      wallShearStress;
}
// * * * * * * * * * * * * * * * * * * * * * * * * * * * * * * * * * * * * * //

dimensions      [0 2 -2 0 0 0 0];

internalField   uniform (0 0 0);

boundaryField
{
    inlet
    {
        type            calculated;
        value           uniform (0 0 0);
    }
    outlet
    {
        type            calculated;
        value           uniform (0 0 0);
    }
    roughCylinder
    {
        type            calculated;
        value           nonuniform List<vector> 
5120
(
(-0.000250295 -0.000356484 -0.000183597)
(-0.000306785 -0.00046074 -4.20979e-05)
(-0.00034026 -0.000554447 -7.94224e-07)
(-0.000385887 -0.000644406 5.38776e-05)
(-0.000442794 -0.000722521 0.000117041)
(-0.000507435 -0.000784326 0.000180536)
(-0.000576354 -0.000826984 0.000239843)
(-0.0006449 -0.000850921 0.000292196)
(-0.000708996 -0.000858594 0.000335499)
(-0.000766557 -0.00085504 0.000369026)
(-0.000817809 -0.000848486 0.000394242)
(-0.000863069 -0.000844635 0.000413058)
(-0.000899338 -0.000843504 0.000424213)
(-0.000929912 -0.000847847 0.000428821)
(-0.000956095 -0.000856887 0.000427917)
(-0.00097922 -0.000869912 0.000422559)
(-0.00100072 -0.000886146 0.000413799)
(-0.00102181 -0.000904932 0.000402533)
(-0.00104347 -0.000925798 0.000389431)
(-0.00106631 -0.000948447 0.000374912)
(-0.00109071 -0.000972704 0.000359188)
(-0.00111678 -0.000998434 0.000342274)
(-0.00114447 -0.00102552 0.000324075)
(-0.00117363 -0.00105379 0.000304401)
(-0.00120401 -0.001083 0.000282981)
(-0.00123527 -0.00111283 0.00025947)
(-0.00126697 -0.00114279 0.000233363)
(-0.00129852 -0.00117226 0.000203997)
(-0.00132897 -0.0012002 0.000170177)
(-0.00135693 -0.00122528 0.000130433)
(-0.00137926 -0.00124539 8.25025e-05)
(-0.00139203 -0.00125737 2.78887e-05)
(-0.000268762 -0.000344778 -0.000173421)
(-0.000328357 -0.000446276 -4.45644e-05)
(-0.00036441 -0.00053867 -6.55368e-06)
(-0.000412151 -0.00062834 4.47142e-05)
(-0.000470733 -0.000707467 0.000105247)
(-0.000536924 -0.000771066 0.000166947)
(-0.000607241 -0.000815911 0.000225106)
(-0.000677277 -0.000842279 0.000276835)
(-0.00074356 -0.000853008 0.000320141)
(-0.000804522 -0.000853712 0.000354713)
(-0.000859954 -0.000851237 0.000381922)
(-0.000908746 -0.000848967 0.000402581)
(-0.000947874 -0.000846572 0.000414833)
(-0.000979998 -0.000849815 0.000420025)
(-0.00100771 -0.000858141 0.000419438)
(-0.00103228 -0.000870805 0.000414311)
(-0.00105519 -0.000886911 0.000405728)
(-0.00107771 -0.000905708 0.000394631)
(-0.00110082 -0.000926664 0.000381729)
(-0.00112518 -0.000949422 0.000367455)
(-0.00115115 -0.000973785 0.000352026)
(-0.00117883 -0.000999606 0.000335468)
(-0.00120819 -0.00102675 0.000317678)
(-0.00123905 -0.00105504 0.000298466)
(-0.00127114 -0.00108425 0.000277553)
(-0.00130411 -0.00111403 0.000254593)
(-0.00133749 -0.00114393 0.000229076)
(-0.00137067 -0.00117329 0.000200349)
(-0.00140265 -0.0012011 0.000167213)
(-0.00143195 -0.00122603 0.000128223)
(-0.00145531 -0.001246 8.1129e-05)
(-0.00146869 -0.00125787 2.74177e-05)
(-0.0002871 -0.000327923 -0.000156014)
(-0.000349459 -0.000426426 -4.75483e-05)
(-0.000387896 -0.000516751 -1.29716e-05)
(-0.00043735 -0.000605458 3.46797e-05)
(-0.000497306 -0.000685064 9.22853e-05)
(-0.000564884 -0.000750209 0.000151951)
(-0.00063666 -0.000797376 0.000208874)
(-0.000708534 -0.000826809 0.000260123)
(-0.000777531 -0.00084152 0.000303865)
(-0.000842186 -0.000846817 0.000339858)
(-0.00090152 -0.000847991 0.000368862)
(-0.000953588 -0.000847241 0.000390813)
(-0.000996295 -0.000844901 0.000404369)
(-0.0010301 -0.000846599 0.000410086)
(-0.00105937 -0.000854034 0.000409813)
(-0.00108547 -0.000866159 0.000404954)
(-0.00110989 -0.000881966 0.0003966)
(-0.00113391 -0.00090062 0.000385738)
(-0.00115854 -0.000921494 0.000373092)
(-0.00118446 -0.0009442 0.00035912)
(-0.00121203 -0.000968504 0.000344048)
(-0.00124136 -0.000994234 0.000327904)
(-0.0012724 -0.00102125 0.000310586)
(-0.00130497 -0.00104938 0.000291897)
(-0.00133876 -0.00107838 0.000271553)
(-0.00137343 -0.00110791 0.000249205)
(-0.00140846 -0.00113752 0.000224339)
(-0.00144324 -0.00116657 0.000196312)
(-0.0014767 -0.00119405 0.000163931)
(-0.00150732 -0.00121866 0.000125776)
(-0.00153169 -0.00123835 7.96087e-05)
(-0.00154563 -0.00125003 2.68971e-05)
(-0.000303353 -0.000307118 -0.000134111)
(-0.000368062 -0.000402115 -5.06026e-05)
(-0.000408446 -0.000489633 -1.96399e-05)
(-0.000459023 -0.000576736 2.42136e-05)
(-0.000519916 -0.000656319 7.86226e-05)
(-0.000588662 -0.000722815 0.000135974)
(-0.000661973 -0.000772496 0.000191504)
(-0.000736023 -0.000805507 0.000242287)
(-0.00080806 -0.000824728 0.000286608)
(-0.00087641 -0.000834672 0.000324082)
(-0.000939454 -0.000839218 0.000354746)
(-0.000994964 -0.000840169 0.000377901)
(-0.00104133 -0.000838749 0.000392747)
(-0.00107773 -0.00083889 0.000399156)
(-0.0011087 -0.000845345 0.000399326)
(-0.00113648 -0.000856764 0.000394789)
(-0.0011625 -0.00087214 0.000386739)
(-0.00118809 -0.000890512 0.000376172)
(-0.00121431 -0.000911201 0.00036385)
(-0.00124182 -0.000933737 0.000350242)
(-0.00127099 -0.000957849 0.000335583)
(-0.00130196 -0.000983356 0.000319907)
(-0.00133465 -0.0010101 0.000303109)
(-0.00136885 -0.00103791 0.000284987)
(-0.00140429 -0.00106653 0.000265254)
(-0.00144056 -0.00109564 0.000243555)
(-0.00147717 -0.0011248 0.000219378)
(-0.00151345 -0.00115337 0.000192089)
(-0.00154829 -0.00118037 0.000160499)
(-0.00158014 -0.00120452 0.000123218)
(-0.00160542 -0.0012238 7.80239e-05)
(-0.00161989 -0.00123523 2.63557e-05)
(-0.000316554 -0.000282775 -0.000109902)
(-0.000383212 -0.000373725 -5.33802e-05)
(-0.000425048 -0.000457792 -2.62072e-05)
(-0.00047617 -0.000542665 1.36647e-05)
(-0.000537576 -0.00062173 6.45734e-05)
(-0.000607325 -0.000689395 0.000119293)
(-0.000682287 -0.000741741 0.000173199)
(-0.000758796 -0.000778632 0.000223428)
(-0.000834055 -0.000802464 0.000268283)
(-0.000905992 -0.000816789 0.000307091)
(-0.000972599 -0.000824466 0.000339271)
(-0.00103164 -0.000827207 0.000363687)
(-0.00108154 -0.000826898 0.000379635)
(-0.00112185 -0.000826672 0.000387208)
(-0.00115478 -0.000831575 0.000387951)
(-0.00118436 -0.000842078 0.000383837)
(-0.00121208 -0.000856828 0.000376177)
(-0.00123934 -0.000874775 0.000365994)
(-0.00126714 -0.000895104 0.000354063)
(-0.00129624 -0.000917314 0.000340885)
(-0.001327 -0.000941084 0.000326699)
(-0.00135955 -0.000966207 0.000311548)
(-0.00139382 -0.000992519 0.000295321)
(-0.0014296 -0.00101983 0.000277815)
(-0.00146656 -0.0010479 0.000258733)
(-0.00150434 -0.00107643 0.000237721)
(-0.00154239 -0.00110495 0.000214263)
(-0.00158004 -0.00113286 0.000187738)
(-0.00161615 -0.00115921 0.000156966)
(-0.0016491 -0.00118273 0.00012059)
(-0.00167519 -0.00120148 7.63992e-05)
(-0.00169009 -0.00121258 2.58016e-05)
(-0.000326549 -0.000256169 -8.50921e-05)
(-0.000394649 -0.000342538 -5.57419e-05)
(-0.000437366 -0.000422584 -3.2471e-05)
(-0.000488418 -0.000504645 3.26129e-06)
(-0.000549864 -0.00058268 5.03764e-05)
(-0.000620372 -0.000651235 0.000102101)
(-0.00069698 -0.000706213 0.000154087)
(-0.000776054 -0.000746994 0.000203577)
(-0.000854596 -0.000775257 0.000248818)
(-0.00093013 -0.000793599 0.000288771)
(-0.00100033 -0.000804163 0.000322315)
(-0.001063 -0.000808704 0.000348013)
(-0.00111664 -0.000809556 0.000365079)
(-0.00116104 -0.000809768 0.000373897)
(-0.00119707 -0.000813089 0.000375535)
(-0.00122865 -0.000822422 0.000372043)
(-0.00125825 -0.000836282 0.000364885)
(-0.00128723 -0.000853552 0.000355181)
(-0.0013167 -0.000873362 0.000343741)
(-0.0013474 -0.00089509 0.000331071)
(-0.00137973 -0.000918352 0.000317428)
(-0.00141381 -0.000942927 0.00030286)
(-0.00144957 -0.000968627 0.000287256)
(-0.0014868 -0.000995264 0.000270409)
(-0.00152518 -0.0010226 0.000252018)
(-0.0015643 -0.00105033 0.000231722)
(-0.00160364 -0.00107804 0.000209011)
(-0.00164251 -0.00110514 0.000183278)
(-0.00167973 -0.00113066 0.000153346)
(-0.00171366 -0.00115343 0.000117902)
(-0.00174043 -0.00117152 7.47437e-05)
(-0.00175568 -0.00118224 2.52382e-05)
(-0.000332292 -0.000227759 -6.07014e-05)
(-0.000401308 -0.000309075 -5.75184e-05)
(-0.000444315 -0.00038455 -3.82237e-05)
(-0.00049464 -0.000463197 -6.82409e-06)
(-0.000555568 -0.000539659 3.61446e-05)
(-0.00062652 -0.000608773 8.44579e-05)
(-0.000704719 -0.000666283 0.000134156)
(-0.000786451 -0.000710905 0.000182638)
(-0.000868373 -0.000743402 0.000228035)
(-0.000947575 -0.000765437 0.000268894)
(-0.0010215 -0.00077871 0.000303648)
(-0.001088 -0.00078509 0.000330651)
(-0.00114563 -0.000787161 0.000348977)
(-0.00119416 -0.000788116 0.000359016)
(-0.00123457 -0.000791008 0.000361978)
(-0.00126868 -0.000798408 0.0003593)
(-0.00130032 -0.000811117 0.000352812)
(-0.00133121 -0.000827541 0.000343723)
(-0.00136239 -0.000846601 0.000332866)
(-0.00139469 -0.000867631 0.000320788)
(-0.00142856 -0.000890223 0.000307767)
(-0.00146411 -0.000914088 0.00029385)
(-0.00150128 -0.000939028 0.00027893)
(-0.00153985 -0.000964842 0.000262793)
(-0.0015795 -0.000991308 0.000245133)
(-0.00161983 -0.00101812 0.000225592)
(-0.0016603 -0.00104486 0.000203653)
(-0.0017002 -0.00107096 0.00017873)
(-0.00173836 -0.00109552 0.000149658)
(-0.0017731 -0.00111737 0.000115167)
(-0.00180042 -0.00113473 7.30666e-05)
(-0.00181593 -0.00114499 2.4669e-05)
(-0.000333679 -0.000198528 -3.76748e-05)
(-0.000402981 -0.000274362 -5.86934e-05)
(-0.00044567 -0.000344824 -4.33573e-05)
(-0.000494592 -0.000419511 -1.64019e-05)
(-0.000554355 -0.000493801 2.21116e-05)
(-0.00062528 -0.000562989 6.65725e-05)
(-0.000704775 -0.00062267 0.000113535)
(-0.000788971 -0.000670789 0.00016061)
(-0.000874175 -0.000707153 0.000205803)
(-0.000957142 -0.00073263 0.000247288)
(-0.00103506 -0.000748539 0.000283109)
(-0.00110567 -0.00075681 0.000311413)
(-0.00116756 -0.000760194 0.000331163)
(-0.00122034 -0.000761876 0.000342564)
(-0.00126495 -0.000764863 0.000346837)
(-0.00130321 -0.000771239 0.000345455)
(-0.00133737 -0.000782151 0.000339867)
(-0.0013703 -0.000797098 0.00033152)
(-0.0014033 -0.00081522 0.000321403)
(-0.00143729 -0.00083542 0.000310036)
(-0.00147267 -0.000857176 0.000297724)
(-0.00150961 -0.000880171 0.000284533)
(-0.00154806 -0.000904189 0.000270357)
(-0.00158781 -0.000929021 0.000254978)
(-0.00162855 -0.000954435 0.000238089)
(-0.00166984 -0.000980147 0.000219326)
(-0.00171121 -0.00100581 0.000198186)
(-0.00175196 -0.00103088 0.000174101)
(-0.00179086 -0.0010544 0.000145907)
(-0.00182626 -0.00107527 0.000112395)
(-0.00185394 -0.0010918 7.13739e-05)
(-0.00186958 -0.00110165 2.40968e-05)
(-0.000329608 -0.000168667 -1.65718e-05)
(-0.000398592 -0.000238694 -5.91298e-05)
(-0.000440315 -0.000303689 -4.7688e-05)
(-0.000487072 -0.000373806 -2.5263e-05)
(-0.000544881 -0.000445198 8.46916e-06)
(-0.000615119 -0.000513816 4.85815e-05)
(-0.000695545 -0.000575227 9.22734e-05)
(-0.000782118 -0.000626589 0.000137447)
(-0.000870718 -0.00066666 0.00018202)
(-0.000957616 -0.000695435 0.000223796)
(-0.00103974 -0.000713917 0.000260484)
(-0.00111476 -0.000724107 0.000290057)
(-0.00118116 -0.000728842 0.00031133)
(-0.00123853 -0.000731366 0.000324343)
(-0.00128753 -0.000734546 0.000330111)
(-0.00132984 -0.000740465 0.00033011)
(-0.00136769 -0.000750162 0.000325784)
(-0.00140366 -0.000763839 0.000318607)
(-0.00143859 -0.000780517 0.000309389)
(-0.00147421 -0.000799516 0.000298832)
(-0.00151107 -0.000820226 0.000287332)
(-0.00154932 -0.000842227 0.000274954)
(-0.00158893 -0.000865246 0.000261595)
(-0.00162969 -0.000889053 0.000247034)
(-0.00167131 -0.000913418 0.000230963)
(-0.00171342 -0.000938057 0.00021302)
(-0.0017554 -0.000962572 0.000192688)
(-0.00179656 -0.000986422 0.000169431)
(-0.00183586 -0.00100876 0.000142114)
(-0.00187166 -0.00102853 0.000109593)
(-0.00189948 -0.00104419 6.96729e-05)
(-0.00191496 -0.0010535 2.35226e-05)
(-0.000320425 -0.000139383 1.96893e-06)
(-0.000388283 -0.000202947 -5.90425e-05)
(-0.000428412 -0.00026246 -5.1165e-05)
(-0.000472367 -0.000327479 -3.32198e-05)
(-0.000527404 -0.000395289 -4.4678e-06)
(-0.000596175 -0.000462581 3.086e-05)
(-0.000676904 -0.000525051 7.06931e-05)
(-0.000765369 -0.000579064 0.000113341)
(-0.000857034 -0.000622372 0.000156703)
(-0.00094789 -0.000654266 0.000198338)
(-0.00103455 -0.000675369 0.000235675)
(-0.00111437 -0.000687547 0.000266465)
(-0.00118571 -0.000693715 0.000289359)
(-0.00124788 -0.000697037 0.000304146)
(-0.00130145 -0.000700407 0.000311646)
(-0.0013479 -0.00070591 0.000313213)
(-0.00138946 -0.000714773 0.00031035)
(-0.00142839 -0.000727306 0.000304477)
(-0.00146584 -0.000742624 0.000296411)
(-0.00150347 -0.000760384 0.000286914)
(-0.00154184 -0.000779892 0.000276383)
(-0.00158125 -0.000800711 0.000264922)
(-0.00162172 -0.000822534 0.000252447)
(-0.0016631 -0.000845115 0.000238746)
(-0.00170514 -0.000868214 0.000223517)
(-0.00174745 -0.000891534 0.000206395)
(-0.0017896 -0.000914694 0.000186886)
(-0.00183095 -0.000937176 0.000164496)
(-0.00187038 -0.000958186 0.0001381)
(-0.00190635 -0.000976791 0.000106632)
(-0.001934 -0.000991445 6.78773e-05)
(-0.0019492 -0.00100015 2.29172e-05)
(-0.000303261 -0.00011018 1.75473e-05)
(-0.000371846 -0.000167913 -5.80947e-05)
(-0.000408979 -0.000221384 -5.37145e-05)
(-0.000449177 -0.000280674 -4.00151e-05)
(-0.00050037 -0.000344013 -1.63619e-05)
(-0.00056656 -0.000408949 1.37206e-05)
(-0.000646756 -0.000471642 4.89915e-05)
(-0.0007368 -0.000527896 8.83666e-05)
(-0.000831713 -0.000574427 0.000129884)
(-0.000926794 -0.000609511 0.000170891)
(-0.00101822 -0.000633277 0.000208559)
(-0.00110319 -0.000647518 0.000240449)
(-0.00117972 -0.000655063 0.000264969)
(-0.00124714 -0.000659215 0.000281705)
(-0.00130567 -0.000662803 0.000291196)
(-0.00135666 -0.000667979 0.000294639)
(-0.00140206 -0.000676005 0.000293465)
(-0.00144413 -0.00068739 0.000289082)
(-0.0014841 -0.000701383 0.000282345)
(-0.00152359 -0.000717771 0.000274056)
(-0.00156341 -0.000735934 0.000264641)
(-0.00160386 -0.000755395 0.000254218)
(-0.00164503 -0.000775836 0.000242728)
(-0.00168682 -0.000796997 0.000229964)
(-0.00172905 -0.000818647 0.000215641)
(-0.0017714 -0.000840507 0.000199398)
(-0.00181347 -0.000862166 0.000180757)
(-0.00185465 -0.000883122 0.000159274)
(-0.00189391 -0.000902714 0.000133849)
(-0.0019297 -0.000920019 0.000103493)
(-0.00195703 -0.000933647 6.59812e-05)
(-0.00197178 -0.000941673 2.22783e-05)
(-0.000279496 -8.22753e-05 3.01089e-05)
(-0.000349184 -0.000134744 -5.63355e-05)
(-0.000383108 -0.000181886 -5.52854e-05)
(-0.000418676 -0.000235117 -4.54837e-05)
(-0.000465011 -0.000293249 -2.68221e-05)
(-0.000527502 -0.000354832 -2.26483e-06)
(-0.000606162 -0.000416775 2.77938e-05)
(-0.000696901 -0.00047445 6.30442e-05)
(-0.00079425 -0.000523541 0.000101849)
(-0.000893274 -0.000561607 0.000141549)
(-0.000989752 -0.000588197 0.000179154)
(-0.00108025 -0.000604647 0.000211964)
(-0.00116265 -0.000613766 0.00023816)
(-0.00123566 -0.000618676 0.000256954)
(-0.00129944 -0.000622374 0.000268638)
(-0.0013551 -0.000627066 0.000274192)
(-0.00140466 -0.000634236 0.000274987)
(-0.00144997 -0.000644357 0.000272321)
(-0.00149258 -0.000656957 0.000267136)
(-0.00153413 -0.000671925 0.000260261)
(-0.00157535 -0.000688599 0.000252114)
(-0.00161673 -0.000706554 0.000242859)
(-0.0016584 -0.000725461 0.000232456)
(-0.00170034 -0.000745059 0.000220712)
(-0.00174242 -0.000765103 0.000207355)
(-0.00178434 -0.000785302 0.000192027)
(-0.00182593 -0.000805308 0.000174289)
(-0.00186668 -0.000824672 0.000153767)
(-0.00190543 -0.000842734 0.000129357)
(-0.00194088 -0.00085873 0.000100188)
(-0.00196745 -0.000871218 6.39865e-05)
(-0.00198161 -0.000878537 2.1608e-05)
(-0.000248536 -5.64593e-05 3.94012e-05)
(-0.000318477 -0.000103319 -5.35239e-05)
(-0.000349316 -0.000144126 -5.55539e-05)
(-0.000379589 -0.000190902 -4.9233e-05)
(-0.000419827 -0.000242881 -3.53431e-05)
(-0.000476996 -0.000299732 -1.64982e-05)
(-0.000552514 -0.000359526 7.65097e-06)
(-0.000643063 -0.00041783 3.7781e-05)
(-0.000743059 -0.000469592 7.29358e-05)
(-0.000846388 -0.000510934 0.000110576)
(-0.000948045 -0.000540516 0.000147557)
(-0.00104447 -0.000559427 0.000181001)
(-0.0011328 -0.000570079 0.000208725)
(-0.00121189 -0.000575814 0.000229682)
(-0.00128142 -0.00057959 0.000243782)
(-0.00134239 -0.000583834 0.000251772)
(-0.00139632 -0.000590004 0.000254811)
(-0.00144527 -0.00059881 0.00025417)
(-0.00149064 -0.000609903 0.000250784)
(-0.00153408 -0.00062322 0.000245491)
(-0.00157665 -0.000638267 0.000238781)
(-0.0016188 -0.000654587 0.000230838)
(-0.00166077 -0.000671836 0.00022164)
(-0.00170258 -0.000689756 0.000211003)
(-0.00174422 -0.0007081 0.000198683)
(-0.00178553 -0.000726621 0.000184335)
(-0.00182638 -0.000744926 0.000167548)
(-0.00186623 -0.000762586 0.000148012)
(-0.00190418 -0.000779082 0.000124662)
(-0.00193881 -0.000793648 9.67284e-05)
(-0.00196451 -0.000805055 6.19132e-05)
(-0.00197782 -0.000811634 2.09125e-05)
(-0.000212407 -3.40881e-05 4.53557e-05)
(-0.000281142 -7.48005e-05 -4.98062e-05)
(-0.000309384 -0.000109647 -5.46681e-05)
(-0.000334332 -0.000149987 -5.12876e-05)
(-0.000367641 -0.000195247 -4.16249e-05)
(-0.000418069 -0.000246242 -2.82718e-05)
(-0.000489051 -0.00030262 -1.04457e-05)
(-0.000577984 -0.00036038 1.36089e-05)
(-0.000678706 -0.000413584 4.39194e-05)
(-0.000785321 -0.000457754 7.84434e-05)
(-0.000892327 -0.00049064 0.000114087)
(-0.000994811 -0.000512258 0.000147696)
(-0.00108998 -0.000524959 0.000176856)
(-0.00117558 -0.000531626 0.000199997)
(-0.00125125 -0.000535461 0.000216679)
(-0.00131753 -0.000538991 0.000227296)
(-0.00137623 -0.000544056 0.000232887)
(-0.00142887 -0.000551339 0.00023454)
(-0.00147717 -0.000560793 0.000233225)
(-0.00152284 -0.000572452 0.000229792)
(-0.00156673 -0.000585753 0.000224715)
(-0.00160951 -0.000600321 0.000218236)
(-0.00165152 -0.000615814 0.000210358)
(-0.00169289 -0.000631968 0.000200912)
(-0.00173369 -0.00064853 0.000189683)
(-0.00177376 -0.000665225 0.000176332)
(-0.00181334 -0.000681742 0.000160513)
(-0.00185204 -0.000697718 0.000142009)
(-0.00188875 -0.000712593 0.000119749)
(-0.00192245 -0.000725802 9.31262e-05)
(-0.00194669 -0.000736018 5.97575e-05)
(-0.00195902 -0.000741904 2.0192e-05)
(-0.000170479 -1.55833e-05 4.75924e-05)
(-0.000235875 -4.94456e-05 -4.47786e-05)
(-0.000261763 -7.83501e-05 -5.21605e-05)
(-0.000281583 -0.000112122 -5.11832e-05)
(-0.000307413 -0.00015006 -4.50361e-05)
(-0.000349352 -0.000193757 -3.67023e-05)
(-0.000412937 -0.000244566 -2.54005e-05)
(-0.000497988 -0.000300153 -8.36487e-06)
(-0.000599816 -0.000354992 1.58313e-05)
(-0.000710142 -0.00040246 4.60105e-05)
(-0.000822044 -0.000438783 7.93063e-05)
(-0.000931075 -0.00046371 0.000112488)
(-0.00103267 -0.000478499 0.000142629)
(-0.00112513 -0.000486361 0.000167854)
(-0.00120731 -0.000490382 0.000187213)
(-0.0012798 -0.000493402 0.000200773)
(-0.00134348 -0.000497229 0.000209187)
(-0.00140029 -0.00050295 0.000213474)
(-0.00145169 -0.000510643 0.000214513)
(-0.00149927 -0.000520378 0.000213128)
(-0.00154436 -0.000531812 0.000209884)
(-0.00158761 -0.000544536 0.000205032)
(-0.00162942 -0.00055822 0.000198597)
(-0.00167 -0.000572574 0.000190429)
(-0.00170962 -0.000587355 0.000180358)
(-0.00174829 -0.000602313 0.000168065)
(-0.00178635 -0.000617096 0.000153248)
(-0.00182336 -0.000631349 0.000135788)
(-0.00185857 -0.000644651 0.000114653)
(-0.00189072 -0.000656417 8.93851e-05)
(-0.00191348 -0.000665607 5.75426e-05)
(-0.00192449 -0.000670789 1.9453e-05)
(-0.000125975 -1.87125e-06 4.66198e-05)
(-0.00018582 -2.8563e-05 -3.87058e-05)
(-0.000210202 -5.18558e-05 -4.83169e-05)
(-0.000226014 -7.94912e-05 -4.93456e-05)
(-0.000244302 -0.000110036 -4.58232e-05)
(-0.000276535 -0.000145584 -4.13376e-05)
(-0.000331564 -0.00018959 -3.592e-05)
(-0.00041075 -0.000241415 -2.65456e-05)
(-0.000508556 -0.000294818 -9.89671e-06)
(-0.000619853 -0.000344386 1.44806e-05)
(-0.000737142 -0.000384931 4.42108e-05)
(-0.000852043 -0.000413434 7.59562e-05)
(-0.00096125 -0.000431392 0.00010664)
(-0.00106088 -0.00044093 0.000133689)
(-0.00114999 -0.000445444 0.000155712)
(-0.00122832 -0.000447811 0.00017225)
(-0.00129742 -0.000450452 0.000183753)
(-0.00135834 -0.000454443 0.000190916)
(-0.00141292 -0.000460264 0.000194586)
(-0.00146292 -0.000468151 0.000195572)
(-0.00150922 -0.000477665 0.00019438)
(-0.00155275 -0.000488498 0.000191318)
(-0.00159403 -0.00050034 0.000186447)
(-0.00163345 -0.000512894 0.000179632)
(-0.00167139 -0.000525885 0.000170761)
(-0.0017079 -0.000539054 0.00015952)
(-0.00174384 -0.000552094 0.000145707)
(-0.00177888 -0.000564715 0.000129324)
(-0.00181203 -0.000576442 0.000109336)
(-0.00184261 -0.000586915 8.55058e-05)
(-0.00186306 -0.000594994 5.52465e-05)
(-0.00187267 -0.00059958 1.86904e-05)
(-7.90418e-05 7.8281e-06 4.26281e-05)
(-0.00013036 -1.10952e-05 -3.09067e-05)
(-0.000152298 -2.82302e-05 -4.22984e-05)
(-0.000164055 -4.94384e-05 -4.46469e-05)
(-0.000175713 -7.24373e-05 -4.25875e-05)
(-0.000198067 -9.86752e-05 -4.07174e-05)
(-0.000240116 -0.0001322 -4.01894e-05)
(-0.000308645 -0.000176949 -3.81875e-05)
(-0.000405937 -0.000232359 -3.06504e-05)
(-0.000518908 -0.00028477 -1.44704e-05)
(-0.000637985 -0.000328586 1.00521e-05)
(-0.000759558 -0.000362034 3.93701e-05)
(-0.000874845 -0.000383293 6.9605e-05)
(-0.000981698 -0.000395214 9.79463e-05)
(-0.00107768 -0.000400668 0.000122354)
(-0.00116292 -0.000403019 0.000141979)
(-0.00123738 -0.000404539 0.000156686)
(-0.00130297 -0.000406971 0.000167015)
(-0.0013609 -0.000410931 0.000173585)
(-0.00141266 -0.000416723 0.000177099)
(-0.00145993 -0.000424251 0.000178148)
(-0.00150351 -0.00043319 0.000177043)
(-0.00154397 -0.000443218 0.00017386)
(-0.00158183 -0.000454025 0.000168476)
(-0.00161774 -0.000465333 0.000160861)
(-0.00165194 -0.000476891 0.000150723)
(-0.00168547 -0.000488328 0.00013793)
(-0.00171799 -0.000499378 0.000122631)
(-0.00174894 -0.000509675 0.000103829)
(-0.00177719 -0.000518813 8.14811e-05)
(-0.00179554 -0.000526059 5.28979e-05)
(-0.00180325 -0.000530053 1.79097e-05)
(-3.92763e-05 1.04016e-05 3.66695e-05)
(-7.86719e-05 -1.21164e-06 -2.14746e-05)
(-0.000103981 -1.49555e-05 -3.13533e-05)
(-0.000117237 -2.95365e-05 -3.56582e-05)
(-0.000123589 -4.43798e-05 -3.7185e-05)
(-0.000136847 -6.33346e-05 -3.75055e-05)
(-0.000175778 -8.85176e-05 -3.92689e-05)
(-0.000262965 -0.000133506 -4.48182e-05)
(-0.000296525 -0.000165004 -4.65796e-05)
(-0.000401462 -0.000219961 -3.81001e-05)
(-0.000527803 -0.00027032 -2.04087e-05)
(-0.000652319 -0.000307839 4.28586e-06)
(-0.000774968 -0.000334367 3.29832e-05)
(-0.00088857 -0.000349532 6.16594e-05)
(-0.000991722 -0.000356825 8.79288e-05)
(-0.0010828 -0.000359328 0.000110275)
(-0.00116314 -0.000360222 0.000128238)
(-0.00123298 -0.000361155 0.000141811)
(-0.00129413 -0.000363315 0.000151472)
(-0.00134842 -0.000367315 0.00015783)
(-0.00139667 -0.000372955 0.00016133)
(-0.00144002 -0.000380045 0.000162333)
(-0.00147925 -0.000388329 0.000160941)
(-0.0015151 -0.000397485 0.000157043)
(-0.00154838 -0.000407181 0.000150704)
(-0.00157939 -0.000417148 0.00014164)
(-0.00160994 -0.000427069 0.000129858)
(-0.00163956 -0.000436683 0.000115659)
(-0.00166754 -0.000445552 9.80487e-05)
(-0.00169361 -0.000453585 7.72911e-05)
(-0.00170861 -0.000459888 5.04432e-05)
(-0.00171456 -0.000463484 1.7099e-05)
(-1.54666e-05 1.12878e-05 2.9578e-05)
(-2.82685e-05 6.06195e-06 -1.9349e-05)
(-3.04493e-05 -5.3565e-06 -3.08938e-05)
(-3.19721e-05 -1.61222e-05 -2.21995e-05)
(-3.73386e-05 -1.94625e-05 -1.96753e-05)
(-4.28201e-05 -2.21237e-05 -2.6704e-05)
(-5.94104e-05 -3.83961e-05 -6.0088e-05)
(-8.29511e-05 -0.000155122 -4.66382e-05)
(-0.00020749 -0.00013047 3.24602e-05)
(-0.000295507 -0.000148278 -5.09413e-05)
(-0.000403086 -0.000205266 -4.67045e-05)
(-0.000535247 -0.000252172 -2.60876e-05)
(-0.00066143 -0.000283167 -1.20525e-06)
(-0.000781717 -0.000303258 2.62609e-05)
(-0.000891241 -0.000313337 5.32725e-05)
(-0.00098943 -0.000317333 7.78953e-05)
(-0.0010748 -0.000317979 9.88121e-05)
(-0.00114932 -0.000317981 0.000115686)
(-0.00121378 -0.000318648 0.00012857)
(-0.0012693 -0.000320732 0.000137797)
(-0.001318 -0.000324548 0.000143864)
(-0.00136082 -0.000329918 0.000147107)
(-0.00139845 -0.000336617 0.000147606)
(-0.00143181 -0.000344264 0.000145237)
(-0.00146214 -0.000352534 0.000140211)
(-0.00148989 -0.00036118 0.000132258)
(-0.00151705 -0.000369762 0.000121479)
(-0.00154338 -0.000378088 0.000108391)
(-0.00156864 -0.000385802 9.20356e-05)
(-0.00159151 -0.00039267 7.29148e-05)
(-0.0016039 -0.000398458 4.79272e-05)
(-0.00160724 -0.000401605 1.62619e-05)
(9.46366e-06 1.45146e-05 2.28705e-05)
(-3.49523e-06 3.79222e-06 -1.91757e-05)
(-6.81214e-06 -5.24374e-06 -1.9994e-05)
(-9.25557e-06 -5.32308e-06 -1.89503e-05)
(-1.43714e-05 -7.71449e-06 -2.85264e-05)
(-3.30546e-05 -2.80374e-05 -4.19881e-05)
(-5.45616e-05 -5.42757e-05 -4.29581e-05)
(-3.49761e-05 -5.25498e-05 -3.27676e-05)
(-6.42304e-05 -6.44071e-05 -2.14815e-05)
(-0.00017377 -9.88708e-05 -2.61867e-05)
(-0.000297948 -0.000139299 -5.46751e-05)
(-0.000408881 -0.000189786 -5.13964e-05)
(-0.000538987 -0.000231761 -3.06641e-05)
(-0.000662548 -0.000255925 -6.43523e-06)
(-0.000778335 -0.00027015 1.9735e-05)
(-0.000881374 -0.000276209 4.5566e-05)
(-0.000972609 -0.000277876 6.90141e-05)
(-0.00105091 -0.000277422 8.88937e-05)
(-0.00111808 -0.000277007 0.000104939)
(-0.00117599 -0.000277887 0.000117242)
(-0.00122521 -0.000280233 0.000125994)
(-0.00126708 -0.000284085 0.000131559)
(-0.00130253 -0.000289378 0.000133992)
(-0.00133291 -0.000295712 0.000133158)
(-0.00135959 -0.000302685 0.000129421)
(-0.00138302 -0.000310042 0.000122511)
(-0.00140648 -0.000317487 0.00011273)
(-0.00142903 -0.000324659 0.000100749)
(-0.0014503 -0.000331114 8.56289e-05)
(-0.00147057 -0.000337136 6.83005e-05)
(-0.00147844 -0.000342157 4.52367e-05)
(-0.0014798 -0.000345162 1.53744e-05)
(2.42359e-05 6.36776e-06 2.4127e-05)
(3.06856e-05 2.39845e-06 6.63361e-06)
(1.71561e-05 1.21043e-05 5.83984e-06)
(7.20724e-06 1.35597e-05 -1.41309e-05)
(3.4953e-06 2.85218e-06 -2.24021e-05)
(-9.58737e-07 -6.38997e-06 -1.76721e-05)
(-9.73416e-06 -1.03947e-05 -6.741e-06)
(-4.42294e-05 1.0944e-05 -2.31789e-05)
(-4.42835e-05 -2.52974e-05 -5.3657e-05)
(-5.86363e-05 -4.01977e-05 -2.81146e-05)
(-0.000151045 -8.7068e-05 -4.23163e-05)
(-0.00028606 -0.000130878 -5.21244e-05)
(-0.000398197 -0.000168529 -4.99305e-05)
(-0.000532904 -0.000206662 -3.35687e-05)
(-0.000654552 -0.00022636 -1.0969e-05)
(-0.00076403 -0.000236596 1.47438e-05)
(-0.000858548 -0.000239873 3.97617e-05)
(-0.000940745 -0.000240057 6.22265e-05)
(-0.00101046 -0.000239284 8.12299e-05)
(-0.00106824 -0.000238993 9.63288e-05)
(-0.00111689 -0.000240138 0.000107672)
(-0.00115738 -0.000242786 0.000115577)
(-0.00119028 -0.000247003 0.000119972)
(-0.00121716 -0.000252239 0.000120633)
(-0.00124003 -0.000258163 0.000118191)
(-0.00125954 -0.000264581 0.00011237)
(-0.00127851 -0.000270976 0.000103527)
(-0.00129715 -0.000277195 9.26766e-05)
(-0.00131557 -0.000282807 7.89101e-05)
(-0.00133178 -0.000287782 6.34147e-05)
(-0.00133678 -0.00029259 4.24519e-05)
(-0.00133485 -0.000295296 1.44406e-05)
(3.62529e-05 1.21551e-05 3.68698e-05)
(4.64525e-05 9.72986e-06 -7.11147e-06)
(4.44562e-05 2.07733e-06 -1.20095e-05)
(4.20638e-05 -7.10215e-06 -1.46114e-05)
(3.89503e-05 -1.46952e-05 -1.35056e-05)
(3.02543e-05 -1.88579e-05 -7.41753e-06)
(1.0266e-05 -1.30004e-05 -1.94782e-06)
(-2.02494e-05 -1.06855e-05 8.24369e-07)
(-3.18225e-05 1.80135e-05 -2.53508e-05)
(-2.18897e-05 -1.423e-05 -3.4796e-05)
(-4.73682e-05 -4.09385e-05 -2.66045e-05)
(-0.00014904 -7.63173e-05 -2.89385e-05)
(-0.000316622 -0.000109115 -5.02722e-05)
(-0.000399195 -0.00014755 -6.01992e-05)
(-0.000520685 -0.000180951 -3.80701e-05)
(-0.000633438 -0.000195958 -1.31253e-05)
(-0.000733222 -0.000202957 1.22093e-05)
(-0.00081752 -0.000204673 3.6293e-05)
(-0.000888572 -0.000204412 5.77097e-05)
(-0.000948186 -0.000204262 7.55227e-05)
(-0.000996468 -0.000204907 8.93396e-05)
(-0.001035 -0.000206727 9.94958e-05)
(-0.00106445 -0.000210147 0.000105757)
(-0.00108736 -0.000214544 0.00010781)
(-0.00110554 -0.000219492 0.000106543)
(-0.00111936 -0.000224791 0.000101652)
(-0.00113458 -0.000230556 9.38121e-05)
(-0.00114877 -0.000235881 8.40654e-05)
(-0.0011623 -0.000240304 7.15911e-05)
(-0.00117578 -0.000244557 5.81559e-05)
(-0.00117527 -0.000248617 3.93608e-05)
(-0.00117126 -0.000251431 1.3412e-05)
(4.60675e-05 1.4124e-05 4.38023e-05)
(6.29034e-05 1.11629e-05 -7.8294e-06)
(6.93188e-05 7.07935e-06 -1.52616e-05)
(7.12603e-05 -8.5304e-07 -1.91674e-05)
(6.91915e-05 -1.01536e-05 -1.99695e-05)
(6.26781e-05 -1.87937e-05 -1.7946e-05)
(4.97492e-05 -2.49332e-05 -1.39321e-05)
(3.08571e-05 -2.55642e-05 -1.13318e-05)
(5.82589e-06 -1.94071e-05 -1.38686e-05)
(-6.1744e-06 -8.99685e-06 -2.45626e-05)
(-2.80965e-05 -1.15921e-05 -3.30263e-05)
(-5.63227e-05 -1.75588e-05 -4.81075e-05)
(-0.000117866 -0.000105463 -5.78269e-05)
(-0.000290813 -0.00011571 -3.25783e-05)
(-0.000390097 -0.000125097 -5.48681e-05)
(-0.000503672 -0.000155548 -3.73304e-05)
(-0.000602136 -0.00016694 -1.2288e-05)
(-0.000688231 -0.000171661 1.24165e-05)
(-0.000759803 -0.000172916 3.5472e-05)
(-0.000816577 -0.000172882 5.51914e-05)
(-0.000862499 -0.000173476 7.09742e-05)
(-0.000898445 -0.000174907 8.31478e-05)
(-0.000924281 -0.000178056 9.11495e-05)
(-0.000942697 -0.000181814 9.43969e-05)
(-0.000956685 -0.000186057 9.42859e-05)
(-0.00096705 -0.000190803 9.04713e-05)
(-0.000976168 -0.000195627 8.34183e-05)
(-0.000986191 -0.000200225 7.48251e-05)
(-0.000997339 -0.00020401 6.38545e-05)
(-0.00100643 -0.00020714 5.2504e-05)
(-0.00100295 -0.000210855 3.6107e-05)
(-0.000995661 -0.000213729 1.23084e-05)
(5.41327e-05 1.34295e-05 4.59087e-05)
(7.59075e-05 1.04841e-05 -7.08459e-06)
(8.60433e-05 6.78305e-06 -1.5782e-05)
(9.16121e-05 -8.41364e-07 -2.12451e-05)