/*--------------------------------*- C++ -*----------------------------------*\
  =========                 |
  \\      /  F ield         | OpenFOAM: The Open Source CFD Toolbox
   \\    /   O peration     | Website:  https://openfoam.org
    \\  /    A nd           | Version:  6
     \\/     M anipulation  |
\*---------------------------------------------------------------------------*/
FoamFile
{
    version     2.0;
    format      ascii;
    class       volScalarField;
    location    "36";
    object      yPlus;
}
// * * * * * * * * * * * * * * * * * * * * * * * * * * * * * * * * * * * * * //

dimensions      [0 0 0 0 0 0 0];

internalField   uniform 0;

boundaryField
{
    inlet
    {
        type            calculated;
        value           uniform 0;
    }
    outlet
    {
        type            calculated;
        value           uniform 0;
    }
    roughCylinder
    {
        type            calculated;
        value           nonuniform List<scalar> 
5120
(
43.4869
51.3066
57.5347
63.6609
68.9499
73.2402
76.6779
79.4566
81.7316
83.6375
85.2936
86.7765
88.1234
89.3685
90.5426
91.6763
92.8003
93.9428
95.1272
96.3709
97.6833
99.0668
100.518
102.031
103.595
105.197
106.821
108.444
110.025
111.498
112.708
113.423
42.776
50.3107
56.3393
62.3249
67.5403
71.7954
75.2151
77.9858
80.2608
82.1728
83.8368
85.323
86.6613
87.8923
89.0486
90.1612
91.2617
92.3791
93.5379
94.7544
96.0381
97.3916
98.8115
100.291
101.82
103.386
104.972
106.557
108.101
109.537
110.717
111.413
41.9858
49.2727
55.1142
60.9605
66.1027
70.3266
73.7348
76.5061
78.7911
80.7191
82.3977
83.8898
85.2249
86.4456
87.5855
88.6783
89.7569
90.8509
91.9838
93.1733
94.4288
95.7526
97.1413
98.5883
100.083
101.614
103.163
104.71
106.215
107.616
108.765
109.442
41.1765
48.2278
53.8817
59.5841
64.6516
68.8469
72.2491
75.0284
77.3332
79.2857
80.9832
82.4837
83.8198
85.0309
86.1578
87.2338
88.2925
89.3638
90.4735
91.638
92.8664
94.1615
95.52
96.9347
98.3954
99.8898
101.402
102.913
104.381
105.747
106.865
107.523
40.3112
47.14
52.6052
58.1605
63.1558
67.3322
70.742
73.5434
75.8786
77.8621
79.5835
81.0979
82.4406
83.6508
84.7681
85.8292
86.87
87.922
89.0087
90.1484
91.3512
92.6187
93.948
95.3319
96.7599
98.2207
99.6978
101.171
102.603
103.933
105.022
105.661
39.4437
46.0509
51.3206
56.7217
61.6434
65.8055
69.2291
72.0577
74.4289
76.4499
78.2003
79.7328
81.0863
82.2984
83.4099
84.4609
85.4873
86.5204
87.588
88.7065
89.8849
91.1263
92.4273
93.7806
95.1765
96.6022
98.0441
99.4817
100.878
102.175
103.234
103.854
38.5131
44.9046
49.9713
55.2097
60.0577
64.2167
67.6733
70.5496
72.9712
75.0356
76.8189
78.3756
79.7459
80.9708
82.085
83.1296
84.1443
85.164
86.2126
87.3092
88.465
89.6814
90.9555
92.2802
93.6452
95.0397
96.4475
97.8493
99.2104
100.473
101.504
102.106
37.5806
43.753
48.6071
53.6728
58.4444
62.6066
66.1032
69.0288
71.5014
73.616
75.4422
77.0307
78.4254
79.663
80.7847
81.8288
82.8377
83.8445
84.8791
85.9596
87.0944
88.2875
89.5354
90.8313
92.1655
93.526
94.8993
96.2677
97.5936
98.8248
99.8255
100.41
36.5565
42.5119
47.1392
52.014
56.7002
60.8732
64.4337
67.4418
69.9953
72.1748
74.0493
75.6767
77.1004
78.3649
79.5036
80.5572
81.5642
82.5665
83.5881
84.6502
85.766
86.9369
88.1604
89.4292
90.7345
92.0655
93.4061
94.7389
96.0308
97.2284
98.2022
98.767
35.5159
41.2474
45.6385
50.3082
54.9021
59.0934
62.73
65.8221
68.4499
70.7002
72.6397
74.3187
75.7871
77.0791
78.2373
79.301
80.3156
81.315
82.3299
83.3828
84.4818
85.6324
86.8316
88.0734
89.3482
90.6444
91.9504
93.2505
94.5075
95.6749
96.6179
97.1639
34.31
39.8256
43.9632
48.3977
52.8737
57.0791
60.816
64.0442
66.81
69.1692
71.1865
72.929
74.442
75.7783
76.9704
78.0604
79.0851
80.0913
81.1019
82.1411
83.2256
84.357
85.5338
86.7492
87.9953
89.2634
90.5376
91.801
93.0246
94.1574
95.0747
95.6007
33.04
38.3463
42.22
46.3982
50.7389
54.9642
58.8264
62.2013
65.0865
67.5563
69.6788
71.5033
73.0931
74.4791
75.7084
76.8198
77.8657
78.8777
79.8902
80.9294
82.0023
83.1167
84.2711
85.4605
86.6764
87.9076
89.1458
90.3772
91.5653
92.67
93.5535
94.0603
31.5003
36.6042
40.1845
44.0555
48.2079
52.4219
56.4183
60.013
63.151
65.8214
68.0794
70.0155
71.6743
73.1288
74.4133
75.5755
76.6466
77.6797
78.6981
79.7277
80.7907
81.8895
83.0238
84.188
85.3757
86.5805
87.7877
88.9815
90.1362
91.2034
92.0627
92.5477
29.8169
34.7358
38.0195
41.5485
45.4635
49.6535
53.8374
57.6956
61.035
63.899
66.3516
68.4239
70.218
71.7594
73.1099
74.3081
75.419
76.4695
77.5002
78.5423
79.6005
80.6862
81.8001
82.9389
84.0956
85.2605
86.4293
87.5913
88.7084
89.7494
90.5698
91.0354
27.6221
32.3743
35.3215
38.4288
42.0179
46.105
50.4122
54.6091
58.4663
61.7363
64.4316
66.7229
68.633
70.2868
71.7236
73.0088
74.1648
75.2567
76.3075
77.3442
78.398
79.4725
80.5685
81.6828
82.8114
83.9506
85.0879
86.2101
87.2941
88.2942
89.0923
89.5316
25.0405
29.7075
32.3691
35.0235
38.1455
42.0398
46.6247
51.3025
55.4342
59.0816
62.2291
64.7687
66.9378
68.7466
70.3027
71.6469
72.8724
73.9975
75.0741
76.1415
77.1999
78.2655
79.343
80.4318
81.5271
82.622
83.718
84.8062
85.8471
86.8221
87.5723
87.9919
21.2132
25.9002
28.1728
30.1899
32.6941
36.2022
40.6876
45.9215
51.4666
56.0296
59.5669
62.6048
64.9988
67.0226
68.7229
70.2157
71.5129
72.7093
73.8271
74.8923
75.9522
77.0119
78.074
79.1377
80.204
81.2719
82.3332
83.3797
84.3898
85.3167
86.0486
86.4333
16.1842
21.3673
23.7765
25.52
27.3352
30.3944
35.3017
40.8834
45.8617
51.3523
56.3248
59.8391
62.793
65.1087
67.039
68.6366
70.0617
71.3177
72.4805
73.6056
74.6841
75.7399
76.7842
77.8213
78.8493
79.8658
80.8829
81.8883
82.8425
83.7474
84.4119
84.7801
6.23943
11.4352
12.2781
11.3626
8.7616
5.34263
14.8405
25.1053
39.126
46.4668
51.5568
56.5824
60.039
62.8595
65.0727
66.9444
68.4813
69.8575
71.0953
72.2181
73.304
74.361
75.3928
76.402
77.3988
78.3857
79.3576
80.3197
81.2511
82.0917
82.7487
83.063
5.14524
11.0154
13.9456
14.1881
12.8199
15.9728
22.5549
24.5546
21.5166
35.5855
46.5039
51.7885
56.7282
60.1066
62.8063
64.8919
66.6916
68.1823
69.4992
70.736
71.8652
72.9244
73.9363
74.9156
75.8627
76.78
77.7091
78.6162
79.4625
80.2902
80.842
81.1472
12.2989
16.5404
17.3758
17.5285
16.2759
13.3119
11.8274
19.2929
24.458
19.8115
32.1872
45.8084
51.6535
56.6403
60.0204
62.6811
64.6672
66.3746
67.8288
69.0552
70.1974
71.2681
72.2724
73.217
74.1305
75.0243
75.8758
76.7352
77.5792
78.3104
78.8718
79.0898
20.1507
24.61
26.4634
27.1396
26.5388
24.4441
21.6948
20.4901
20.8927
11.5571
16.6399
33.3099
46.646
51.8235
56.3815
59.5537
62.1547
64.102
65.7139
67.1688
68.4036
69.4879
70.4627
71.368
72.2027
72.9673
73.8014
74.5813
75.2841
76.0155
76.4084
76.616
22.2796
27.258
29.9609
31.9382
33.0802
33.2011
31.9301
29.1167
25.3206
20.8591
18.8941
18.7265
27.9526
45.1092
51.6574
56.2505
59.1769
61.5828
63.4595
64.875
66.1303
67.2416
68.2207
69.0759
69.8823
70.6771
71.3246
72.0411
72.7774
73.3707
73.7746
73.8592
23.0854
28.1769
31.1113
33.4619
35.1803
36.2387
36.5873
36.0517
34.1947
30.0148
24.5589
24.2466
27.5247
31.3637
44.6068
50.4856
55.0784
57.9886
60.2274
62.1476
63.6029
64.7578
65.6717
66.4641
67.1075
67.5713
68.3227
68.918
69.4167
69.9839
70.1426
70.1389
22.5112
27.743
30.8415
33.4305
35.464
36.9271
37.818
38.1312
37.7833
36.2918
31.991
25.0045
32.0999
33.2875
34.3425
44.757
49.8026
53.9542
56.7393
58.4969
59.9797
61.1855
62.1271
62.8268
63.4892
64.2252
64.4206
64.8962
65.4869
65.9658
66.0124
65.8898
21.0188
26.3879
29.5785
32.3011
34.5247
36.2443
37.4783
38.2592
38.6091
38.4324
37.1419
32.795
28.5874
31.8036
36.5479
32.6433
42.2701
47.2123
50.9035
53.9753
55.9018
57.2334
57.9801
58.5537
58.7721
58.4737
59.2538
59.5397
59.7324
59.8364
59.7405
59.0067
19.0199
24.4823
27.6971
30.4669
32.7824
34.6566
36.1155
37.211
38.0148
38.572
38.7605
37.9
33.8398
30.8973
35.7522
28.6021
28.9243
39.5509
44.8778
46.8899
48.8939
50.2743
51.0377
51.3668
51.9446
53.0633
51.7343
51.6461
52.0342
53.4375
52.1142
51.5917
16.7595
22.2014
25.3391
28.0537
30.3643
32.3087
33.9294
35.2808
36.4434
37.4929
38.4275
39.0084
38.3344
34.3712
33.8249
25.2111
32.671
27.4096
30.9854
39.3944
41.7071
43.7679
43.7001
43.7337
42.8261
40.5677
41.4246
41.2071
41.2999
38.678
39.8967
34.403
14.4873
19.7705
22.7283
25.2865
27.4974
29.4221
31.1203
32.6563
34.1049
35.5458
37.0065
38.3778
39.2883
38.8358
35.0977
28.594
30.4629
29.6347
27.1705
18.3115
23.3379
25.2717
20.5141
19.8389
21.5892
23.6866
15.7752
8.27589
13.9907
30.6728
44.155
13.9839
12.4752
17.4788
20.1819
22.5115
24.5531
26.3866
28.0834
29.7117
31.3407
33.0366
34.8452
36.7209
38.4578
39.6212
39.3787
36.496
27.4975
31.3358
20.6793
11.6704
31.4616
9.37091
17.3319
28.9097
22.2329
27.788
12.9863
10.9384
16.2967
36.5219
40.6529
27.325
10.9106
15.5605
17.9903
20.0718
21.9194
23.6261
25.2671
26.9058
28.5985
30.3954
32.3431
34.4508
36.6263
38.5937
39.8557
39.6913
36.8143
30.8381
21.2006
27.9552
26.845
26.5688
15.7908
24.6515
32.389
24.7553
33.5647
34.1506
35.3987
37.5022
29.8693
35.025
9.75026
14.149
16.3455
18.2174
19.9015
21.4938
23.063
24.6581
26.3177
28.079
29.9837
32.0713
34.3414
36.6713
38.7251
39.9478
39.8156
36.7886
33.4377
31.2183
28.2974
27.9075
31.2644
33.1597
34.481
35.8668
37.8293
39.0751
38.1964
36.4952
38.5508
43.54
9.12768
13.3297
15.3618
17.098
18.6834
20.2048
21.7136
23.2394
24.8047
26.437
28.1754
30.0708
32.1704
34.4689
36.8179
38.8316
39.9946
39.5613
38.867
36.924
37.468
36.2629
40.3853
41.2386
41.0713
41.9702
42.5408
43.4151
41.6099
41.8689
42.5796
45.4875
8.9409
13.0514
15.0113
16.6989
18.2576
19.7578
21.2301
22.6872
24.1401
25.611
27.1362
28.7656
30.5585
32.5663
34.7807
37.0343
38.9536
39.9465
40.4106
40.0083
40.604
40.3115
42.6616
42.9292
42.5289
43.1671
42.955
43.552
42.213
43.0967
42.9732
44.9982
9.11438
13.2144
15.1777
16.8879
18.4764
19.9945
21.4553
22.8602
24.216
25.5422
26.8707
28.2442
29.7154
31.3459
33.1886
35.2313
37.3144
39.0569
40.3627
40.901
41.5211
41.5545
42.8792
42.9318
42.3787
42.8166
42.255
42.6739
41.7464
42.5741
42.3284
43.4525
9.54812
13.6908
15.707
17.487
19.1425
20.7071
22.1813
23.5605
24.8501
26.0693
27.247
28.4183
29.6241
30.9153
32.3515
33.9816
35.7926
37.6221
39.2987
40.4523
41.2634
41.5173
42.1989
42.0536
41.3567
41.4751
40.7634
41.0285
40.4503
40.9837
40.8736
41.3767
10.1866
14.4023
16.4951
18.3651
20.1025
21.7255
23.227
24.6013
25.8557
27.0105
28.092
29.1282
30.1479
31.1866
32.2912
33.5165
34.9029
36.4247
37.9863
39.2975
40.2305
40.6182
40.9625
40.6914
39.9122
39.7555
38.989
39.1273
38.8038
39.0902
39.2493
39.4524
10.9767
15.2933
17.4751
19.4408
21.2608
22.9422
24.4751
25.8562
27.0973
28.2212
29.2528
30.214
31.1231
32.0008
32.8775
33.7941
34.7969
35.9089
37.1061
38.2251
39.0803
39.4863
39.6499
39.323
38.5512
38.1913
37.4483
37.4832
37.3579
37.5405
37.9519
38.0881
11.826
16.3136
18.5924
20.653
22.551
24.287
25.8517
27.2469
28.49
29.6068
30.6212
31.5512
32.4071
33.1984
33.9408
34.6586
35.3856
36.1519
36.9644
37.7512
38.377
38.6816
38.7084
38.3484
37.6172
37.1307
36.4459
36.4093
36.4406
36.6348
37.237
37.4297
12.8199
17.4306
19.804
21.9555
23.9264
25.7132
27.3097
28.7239
29.9794
31.105
32.1238
33.0504
33.8902
34.6456
35.3224
35.9311
36.49
37.0198
37.5344
38.0079
38.3644
38.495
38.3812
37.9704
37.2691
36.7071
36.0862
36.0071
36.1574
36.4229
37.1532
37.4454
13.6553
14.0801
14.568
14.9597
15.3377
15.6375
15.8985
16.1002
16.2615
16.3743
16.4499
16.4865
16.4881
16.4561
16.3947
16.3063
16.1934
16.0613
15.9216
15.8053
15.8068
15.9225
16.0594
16.1877
16.2966
16.3807
16.438
16.4659
16.46
16.4193
16.3398
16.2228
16.0573
15.8511
15.5854
15.28
14.8967
14.499
14.0054
13.5758
18.4009
18.8419
19.3496
19.7595
20.1556
20.4769
20.7609
20.9875
21.1746
21.3152
21.4188
21.4843
21.5142
21.5088
21.4704
21.4008
21.3012
21.1757
21.0351
20.9123
20.9123
21.0325
21.169
21.2896
21.3842
21.4489
21.4826
21.4834
21.4489
21.3793
21.2717
21.127
20.9356
20.7045
20.4159
20.0889
19.6871
19.2709
18.7567
18.3098
20.8566
21.3229
21.8605
22.2959
22.7205
23.0725
23.3912
23.6553
23.8831
24.0672
24.2157
24.3277
24.4048
24.4457
24.4506
24.4202
24.3551
24.2578
24.1379
24.0272
24.0261
24.1329
24.2473
24.3388
24.3981
24.4228
24.4127
24.367
24.2852
24.1691
24.0165
23.8286
23.5968
23.3285
23.0054
22.648
22.2178
21.776
21.2317
20.759
23.071
23.5562
24.1165
24.5714
25.0205
25.4001
25.7509
26.0509
26.3181
26.5452
26.7383
26.8964
27.0204
27.1078
27.1572
27.1679
27.1396
27.0741
26.9812
26.8917
26.8897
26.9738
27.0602
27.1188
27.1405
27.1237
27.0685
26.9759
26.8471
26.685
26.4879
26.2571
25.9864
25.6826
25.3278
24.9433
24.4891
24.0279
23.461
22.9691
25.081
25.5701
26.138
26.5993
27.0603
27.4553
27.8265
28.1512
28.4466
28.7065
28.9357
29.1316
29.2942
29.4201
29.5068
29.5525
29.556
29.5193
29.4521
29.3844
29.3816
29.4427
29.5026
29.5318
29.521
29.4685
29.3756
29.2441
29.0767
28.8768
28.6439
28.3807
28.0821
27.7541
27.3795
26.9803
26.5147
26.0476
25.4735
24.9778
26.8858
27.3626
27.9242
28.38
28.8415
29.2419
29.624
29.9662
30.2845
30.5715
30.8308
31.0588
31.2543
31.4131
31.5318
31.6076
31.6386
31.6266
31.5814
31.5312
31.5278
31.5706
31.6076
31.6115
31.5725
31.4895
31.3642
31.1997
30.9994
30.7673
30.5043
30.2145
29.8935
29.5489
29.1639
28.7601
28.2948
27.834
27.2668
26.7836
28.4858
28.9392
29.487
29.9318
30.3895
30.7928
31.1855
31.5446
31.8844
32.1964
32.4834
32.7406
32.9656
33.1537
33.3007
33.4028
33.4575
33.4663
33.4385
33.4007
33.3969
33.4265
33.4455
33.4279
33.3647
33.255
33.1011
32.9071
32.6769
32.4157
32.1252
31.8105
31.4686
31.1076
30.713
30.3073
29.8469
29.3979
28.8453
28.386
29.8976
30.3238
30.8576
31.2928
31.7494
32.16
32.5649
32.9417
33.3022
33.6382
33.9508
34.2345
34.4862
34.7004
34.872
34.9967
35.0713
35.0968
35.0821
35.0524
35.0481
35.069
35.0744
35.0395
34.9561
34.8233
34.6444
34.4241
34.1672
33.8792
33.5634
33.2249
32.8623
32.4841
32.0779
31.6657
31.2075
30.7693
30.2316
29.8001
31.1511
31.5519
32.0756
32.5064
32.9665
33.3865
33.8045
34.1985
34.5785
34.9363
35.2716
35.5788
35.8536
36.0901
36.2827
36.4262
36.517
36.5553
36.5497
36.5247
36.5202
36.5358
36.5314
36.4834
36.3833
36.2315
36.0313
35.7883
35.5081
35.1965
34.8579
34.4977
34.1158
33.7205
33.3016
32.8807
32.4198
31.9871
31.4605
31.0551
32.2777
32.6563
33.1739
33.6042
34.0688
34.4985
34.9289
35.3383
35.7355
36.112
36.4667
36.7936
37.0878
37.3428
37.5524
37.7109
37.8141
37.862
37.8625
37.84
37.8353
37.8479
37.8371
37.779
37.6661
37.4989
37.2815
37.0199
36.7201
36.3887
36.0303
35.6514
35.2525
34.8418
34.4108
33.9806
33.5157
33.084
32.5645
32.1821
33.2991
33.6569
34.1705
34.6005
35.0694
35.5076
35.9485
36.3711
36.7827
37.1747
37.5455
37.8884
38.1983
38.468
38.691
38.8611
38.9739
39.0287
39.0335
39.0125
39.0075
39.0182
39.0028
38.9374
38.8148
38.6356
38.4046
38.1279
37.8123
37.4646
37.0903
36.6956
36.2824
35.8586
35.4172
34.9787
34.5096
34.0786
33.5637
33.2022
34.2265
34.5622
35.0704
35.4995
35.9716
36.4166
36.8664
37.2999
37.7233
38.1281
38.5118
38.8676
39.1899
39.4711
39.7047
39.884
40.0043
40.065
40.0736
40.0543
40.0491
40.0578
40.0382
39.9668
39.8363
39.6478
39.406
39.1175
38.7894
38.4286
38.0412
37.6337
37.2086
36.774
36.3238
35.8783
35.4062
34.9763
34.4667
34.1275
35.0609
35.3717
35.8726
36.2997
36.7739
37.2248
37.6819
38.1246
38.5577
38.973
39.3671
39.7333
40.0654
40.3559
40.5977
40.7845
40.9114
40.9778
40.9914
40.9755
40.9701
40.975
40.9503
40.873
40.7357
40.5396
40.2893
39.9914
39.6532
39.282
38.8839
38.4659
38.0309
37.587
37.1294
36.6782
36.2039
35.776
35.2741
34.9594
35.8012
36.0831
36.5738
36.9976
37.4731
37.9291
38.3926
38.8434
39.2852
39.7092
40.112
40.4866
40.8266
41.1244
41.3731
41.5662
41.6992
41.7719
41.792
41.7814
41.7758
41.775
41.7437
41.6599
41.5165
41.3139
41.0566
40.7512
40.405
40.0252
39.6184
39.1914
38.7476
38.2956
37.8314
37.3751
36.8996
36.4748
35.9828
35.697
36.4473
36.6932
37.1697
37.5889
38.0649
38.5257
38.9955
39.4541
39.9037
40.3357
40.7462
41.1279
41.4744
41.7784
42.0329
42.2317
42.371
42.4506
42.4786
42.4747
42.4689
42.4611
42.4217
42.3309
42.1812
41.9727
41.7096
41.398
41.0451
40.6579
40.2434
39.8083
39.3566
38.8966
38.426
37.9647
37.4884
37.0681
36.5899
36.3398
37.001
37.1991
37.6559
38.068
38.5436
39.0093
39.4857
39.9521
40.4096
40.8494
41.2669
41.6552
42.0076
42.317
42.5768
42.7811
42.9266
43.0137
43.0502
43.0534
43.0474
43.0324
42.9842
42.8859
42.7298
42.5158
42.2473
41.9302
41.5712
41.1776
40.7558
40.3129
39.8531
39.3852
38.9079
38.4415
37.9652
37.5514
37.092
36.8894
37.4665
37.5979
38.0262
38.4276
38.9017
39.3721
39.8554
40.3301
40.7958
41.2435
41.6682
42.0629
42.4209
42.7356
43.0003
43.2101
43.3618
43.4565
43.5014
43.5109
43.5048
43.483
43.4263
43.3204
43.1581
42.9387
42.665
42.3428
41.9781
41.5781
41.149
40.6981
40.23
39.7536
39.2693
38.7978
38.3227
37.9187
37.4872
37.3515
37.852
37.8877
38.2715
38.6584
39.1283
39.603
40.0934
40.577
41.0515
41.5077
41.94
42.3412
42.7051
43.0249
43.2947
43.5098
43.6677
43.7694
43.8219
43.8368
43.8306
43.8031
43.7387
43.6255
43.4571
43.2323
42.9537
42.6262
42.2558
41.8491
41.4125
40.9532
40.4762
39.9907
39.499
39.0227
38.5511
38.1605
37.7733
37.7337
38.1654
38.0697
38.3855
38.7476
39.2105
39.6884
40.1857
40.6786
41.1627
41.6279
42.0683
42.4767
42.8467
43.172
43.447
43.6674
43.831
43.9394
43.9983
44.0178
44.0113
43.9791
43.9081
43.7882
43.6139
43.3838
43.1001
42.7671
42.3907
41.977
41.5323
41.0639
40.5774
40.0825
39.5834
39.1032
38.637
38.2702
37.9513
38.0444
38.4045
38.1426
38.3629
38.6853
39.1351
39.6144
40.1179
40.62
41.1138
41.5887
42.0377
42.4537
42.8304
43.1616
43.4419
43.6677
43.8369
43.951
44.0153
44.0384
44.0318
43.9957
43.9189
43.7933
43.6134
43.3779
43.0889
42.7503
42.3672
41.946
41.4929
41.0149
40.5187
40.0143
39.5085
39.0253
38.5711
38.243
38.0186
38.2762
38.5336
38.0911
38.1971
38.4639
38.8919
39.3708
39.8789
40.3897
40.8929
41.3771
41.8349
42.2588
42.6423
42.9796
43.2653
43.4962
43.6705
43.7896
43.8583
43.8841
43.8773
43.8381
43.7568
43.6259
43.4409
43.2003
42.9059
42.5614
42.1718
41.7429
41.2812
40.794
40.2886
39.7755
39.2648
38.7814
38.3479
38.0734
37.9609
38.3937
38.4884
37.8844
37.877
38.0813
38.48
38.9534
39.4664
39.9844
40.4959
40.9887
41.4545
41.8856
42.2756
42.6184
42.9092
43.1445
43.3231
43.4461
43.518
43.5458
43.5387
43.4971
43.4121
43.2772
43.0879
42.8428
42.5435
42.1934
41.7976
41.3618
40.8924
40.397
39.8834
39.3632
38.8474
38.3696
37.9658
37.7528
37.7505
38.3373
38.1974
37.4878
37.3969
37.5475
37.9169
38.3815
38.8965
39.419
39.9363
40.435
40.9067
41.3432
41.7379
42.085
42.3793
42.6179
42.7991
42.9243
42.9981
43.0268
43.0194
42.9762
42.8891
42.7516
42.5592
42.3111
42.0082
41.6542
41.2538
40.8129
40.3381
39.8372
39.3184
38.7944
38.2777
37.8111
37.4397
37.2854
37.3754
38.0822
37.6631
36.9045
36.7701
36.8866
37.2342
37.6888
38.2029
38.7295
39.25
39.752
40.2264
40.6652
41.0619
41.4104
41.7058
41.945
42.1264
42.2516
42.3249
42.3533
42.3454
42.3017
42.2142
42.0763
41.8834
41.6344
41.3304
40.975
40.573
40.1301
39.6533
39.1501
38.6296
38.1037
37.5916
37.1402
36.7981
36.6887
36.836
37.6088
37.011
36.2292
36.0754
36.1724
36.5052
36.9505
37.4607
37.9871
38.5066
39.0077
39.4808
39.9181
40.3128
40.6591
40.9519
41.1881
41.3663
41.488
41.5582
41.5842
41.5757
41.5332
41.448
41.3129
41.1229
40.8766
40.5753
40.2225
39.8229
39.3826
38.9083
38.4077
37.8901
37.367
36.8613
36.4212
36.0944
36.0015
36.1563
36.9258
36.3741
35.5963
35.4411
35.5283
35.8494
36.2831
36.7839
37.3031
37.8157
38.3102
38.7764
39.2071
39.5949
39.934
40.2195
40.4482
40.6187
40.7325
40.7952
40.8161
40.8064
40.7668
40.6872
40.5586
40.3751
40.1353
39.8404
39.4939
39.1007
38.6667
38.1988
37.7048
37.1945
36.6794
36.1843
35.7577
35.4461
35.3697
35.538
36.3272
35.9753
35.1861
35.021
35.0938
35.3992
35.8164
36.301
36.8054
37.3048
37.7867
38.2409
38.6593
39.035
39.3619
39.6352
39.8515
40.0092
40.1102
40.1607
40.1727
40.1612
40.1276
40.0582
39.9407
39.7685
39.54
39.2564
38.9215
38.5401
38.1183
37.6628
37.1816
36.6844
36.1832
35.701
35.2842
34.9753
34.89
35.0295
35.7687
35.8024
35.0602
34.9199
34.9945
35.2898
35.6879
36.1496
36.6293
37.1065
37.5671
38.001
38.3997
38.7563
39.0647
39.3199
39.5183
39.6582
39.7408
39.7733
39.771
39.756
39.7309
39.6749
39.5714
39.4129
39.1979
38.9282
38.6075
38.2408
37.8343
37.3948
36.9308
36.4522
35.9727
35.5126
35.1167
34.827
34.7584
34.9119
35.6666
35.8487
35.196
35.1105
35.2101
35.5099
35.8981
36.3406
36.7961
37.2494
37.686
38.0964
38.472
38.806
39.0927
39.3269
39.5051
39.625
39.6875
39.6993
39.679
39.6606
39.6484
39.6092
39.5225
39.3806
39.1829
38.9317
38.6309
38.2858
37.9026
37.4886
37.0523
36.6043
36.1596
35.7347
35.3705
35.1026
35.0435
35.1818
35.8976
36.2216
35.6312
35.5868
35.7066
36.0092
36.3866
36.8104
37.2449
37.6757
38.0894
38.4764
38.8289
39.1405
39.4054
39.6191
39.7778
39.8791
39.9233
39.9163
39.8784
39.8564
39.857
39.8328
39.7604
39.6332
39.4511
39.2168
38.9344
38.6089
38.2463
37.8535
37.4389
37.0124
36.5884
36.1829
35.8304
35.5618
35.485
35.5852
36.2407
36.8451
36.2674
36.2309
36.3486
36.6418
37.0028
37.4055
37.8191
38.229
38.6219
38.9885
39.3213
39.6138
39.8609
40.0579
40.2014
40.289
40.3207
40.3019
40.2537
40.2316
40.2431
40.231
40.1714
40.0585
39.8928
39.677
39.4153
39.113
38.7758
38.4109
38.0266
37.6333
37.2457
36.8799
36.5703
36.3376
36.2898
36.394
37.0408
37.3972
36.8308
36.7986
36.9066
37.1848
37.5258
37.9092
38.304
38.6958
39.0715
39.4219
39.7393
40.0176
40.2518
40.4372
40.5704
40.6492
40.6735
40.6487
40.5961
40.5743
40.591
40.5856
40.5342
40.4308
40.2759
40.0724
39.8244
39.5368
39.2152
38.8663
38.4981
38.1202
37.7467
37.3919
37.0882
36.851
36.7837
36.8468
37.4254
43.484
51.3046
57.5331
63.6592
68.9478
73.2376
76.675
79.4534
81.7283
83.6338
85.2897
86.7723
88.1192
89.3642
90.5383
91.6722
92.7963
93.9389
95.1236
96.3675
97.6802
99.0639
100.516
102.029
103.593
105.195
106.818
108.441
110.023
111.495
112.709
113.422
42.776
50.3112
56.3402
62.3259
67.5408
71.795
75.2136
77.9831
80.2573
82.1688
83.8328
85.319
86.6574
87.8885
89.0447
90.1573
91.2578
92.3754
93.5344
94.7511
96.035
97.3887
98.8091
100.289
101.818
103.384
104.97
106.554
108.099
109.535
110.718
111.413
41.9827
49.2708
55.1126
60.9585
66.1001
70.3234
73.7314
76.5029
78.7882
80.7163
82.3946
83.8862
85.2209
86.4414
87.5812
88.6742
89.753
90.8472
91.9803
93.1701
94.4259
95.75
97.1394
98.5864
100.081
101.611
103.161
104.707
106.214
107.614
108.767
109.442
41.1785
48.2305
53.885
59.5874
64.6545
68.849
72.25
75.0276
77.3305
79.2819
80.9792
82.4798
83.8161
85.0274
86.1544
87.2303
88.2889
89.3603
90.4703
91.635
92.8636
94.159
95.5178
96.9329
98.3935
99.888
101.401
102.909
104.379
105.744
106.867
107.523
40.3088
47.1388
52.6043
58.1592
63.1535
67.3287
70.7379
73.5397
75.876
77.8606
79.5821
81.0957
82.4377
83.6471
84.764
85.8253
86.8664
87.9186
89.0055
90.1455
91.3486
92.6165
93.946
95.33
96.758
98.2185
99.6956
101.168
102.601
103.932
105.025
105.662
39.448
46.056
51.3263
56.7278
61.6492
65.8108
69.2334
72.0601
74.4283
76.4465
78.1956
79.7282
81.0823
82.2951
83.4071
84.4581
85.4842
86.5173
87.5851
88.7039
89.8825
91.1241
92.4254
93.7792
95.1751
96.6013
98.0428
99.4791
100.876
102.173
103.237
103.855
38.5125
44.9054
49.9725
55.2106
60.0572
64.2143
67.6694
70.5455
72.969
75.0359
76.8206
78.3765
79.7452
80.9688
82.0818
83.1261
84.141
85.1611
86.2098
87.3068
88.4629
89.6798
90.9541
92.2789
93.6438
95.0379
96.4457
97.8459
99.2091
100.472
101.508
102.107
37.587
43.7606
48.6156
53.6817
58.4532
62.615
66.1112
69.035
71.5037
73.6135
75.4363
77.0245
78.4204
79.659
80.7821
81.8269
82.8356
83.842
84.8768
85.9575
87.0926
88.2858
89.5342
90.8305
92.165
93.5255
94.8984
96.2647
97.5923
98.8227
99.8305
100.411
36.5595
42.5164
47.1445
52.0193
56.7039
60.8742
64.432
67.4388
69.994
72.1776
74.0553
75.6822
77.1034
78.3665
79.5028
80.5546
81.5614
82.5644
83.5862
84.6486
85.7646
86.9361
88.1598
89.4289
90.7341
92.0637
93.4048
94.7355
96.03
97.2272
98.2084
98.7695
35.5251
41.2581
45.6506
50.321
54.915
59.1061
62.742
65.8322
68.4554
70.699
72.6326
74.3105
75.781
77.0733
78.2338
79.2996
80.3148
81.3137
82.3284
83.3816
84.4809
85.6316
86.8314
88.0736
89.3486
90.6457
91.9513
93.248
94.5063
95.6729
96.6253
97.1659
34.3185
39.8355
43.9739
48.4084
52.8822
57.0838
60.8172
64.0441
66.8117
69.1757
71.1978
72.9401
74.449
75.7848
76.9742
78.0602
79.0835
80.0904
81.1015
82.1408
83.2253
84.3575
85.5344
86.7502
87.9966
89.2629
90.5368
91.7972
93.0242
94.157
95.0834
95.6044
33.0533
38.362
42.2389
46.4206
50.7645
54.991
58.8505
62.2191
65.0963
67.557
69.6719
71.4943
73.0879
74.4723
75.7027
76.8186
77.8666
78.878
79.8897
80.9295
82.0029
83.1173
84.2724
85.4625
86.6785
87.9115
89.1484
90.3751
91.5649
92.668
93.5645
94.0636
31.5161
36.6201
40.1996
44.0664
48.2103
52.4151
56.4096
60.0108
63.1561
65.8326
68.0949
70.0307
71.6831
73.1393
74.4234
75.5793
76.6468
77.6804
78.7
79.7292
80.7921
81.8918
83.0262
84.1907
85.379
86.5811
87.7877
88.9769
90.1362
91.2042
92.0754
92.5538
29.8356
34.7595
38.0524
41.5973
45.5331
49.7383
53.9141
57.7435
61.058
63.9062
66.3505
68.4202
70.2191
71.7555
73.1027
74.3071
75.4221
76.472
77.5008
78.544
79.6032
80.6887
81.8033
82.9433
84.1003
85.2677
86.4349
87.5892
88.7084
89.7469
90.5866
91.0403
27.6482
32.3964
35.3349
38.4182
41.9649
46.013
50.3265
54.5704
58.4627
61.7493
64.447
66.735
68.6378
70.297
71.7392
73.0168
74.1673
75.2595
76.313
77.3485
78.4016
79.477
80.5734
81.6878
82.8173
83.9532
85.0895
86.2041
87.2941
88.2971
89.11
89.5398
25.0517
29.7267
32.4117
35.1243
38.3476
42.3295
46.8945
51.4622
55.5109
59.1089
62.2445
64.7862
66.9575
68.7548
70.2991
71.6492
72.8794
74.0033
75.0761
76.1454
77.2052
78.2706
79.3486
80.4399
81.5354
82.6338
83.7261
84.8036
85.8475
86.8183
87.5976
87.9993
21.2608
25.9539
28.2081
30.1605
32.4951
35.846
40.3293
45.708
51.3953
56.0481
59.5852
62.5982
64.9869
67.0238
68.7385
70.2242
71.5164
72.7144
73.8376
74.9009
75.959
77.0196
78.0823
79.1462
80.2136
81.2784
82.3398
83.3714
84.3883
85.323
86.0733
86.4433
15.8699
20.9955
23.5792
25.2983
27.3163
30.4944
35.5268
41.4859
46.1636
51.3474
56.3198
59.8956
62.8519
65.1445
67.0517
68.6529
70.0787
71.3304
72.4851
73.6121
74.6927
75.7481
76.7928
77.8344
78.8628
79.8843
80.8905
81.8838
82.8429
83.7391
84.4508
84.7903
6.87601
11.2103
11.7826
12.6248
11.4625
10.0398
15.8557
24.0769
38.7775
46.8866
51.7526
56.5697
60.0035
62.8445
65.0784
66.9418
68.4789
69.8618
71.1108
72.2332
73.3159
74.3736
75.4057
76.416
77.4127
78.3972
79.3778
80.3074
81.2459
82.1035
82.7828
83.0736
4.85301
8.03415
8.23626
6.58902
9.49191
11.1076
10.3285
14.7568
19.5518
32.8531
45.7109
51.7325
56.7962
60.1804
62.8578
64.9438
66.7341
68.212
69.5123
70.7464
71.8777
72.9362
73.9489
74.9361
75.8847
76.8135
77.7079
78.6063
79.4608
80.2753
80.9048
81.1592
11.6945
16.1126
17.1951
16.8498
14.5187
15.2663
9.12595
14.0441
11.8001
19.7433
33.5527
46.1861
51.7952
56.6568
60.0097
62.6521
64.6432
66.3672
67.8464
69.0805
70.2178
71.2887
72.2921
73.2404
74.1469
75.0343
75.9281
76.7154
77.5659
78.3282
78.9195
79.0986
20.0733
24.5286
26.4217
27.1621
26.6369
24.6146
21.7762
16.0245
18.5601
19.8296
15.5946
31.8219
45.8922
51.8388
56.5033
59.6585
62.2475
64.1734
65.7473
67.186
68.4203
69.5023
70.4807
71.4016
72.2423
73.0465
73.7726
74.5572
75.2716
75.9918
76.5141
76.6257
22.015
26.9922
29.6777
31.63
32.715
32.7252
31.4051
28.4582
23.3851
23.2034
4.79288
16.8395
31.7648
45.7546
51.6511
56.214
59.1087
61.5328
63.478
64.9193
66.1666
67.2781
68.2518
69.1181
69.8886
70.6478
71.4479
72.0092
72.7467
73.3927
73.8469
73.8601
22.7696
27.8416
30.7482
33.0795
34.7953
35.8707
36.2449
35.7248
33.7447
29.5079
19.253
18.7502
23.2046
30.1116
44.4839
50.404
55.2062
58.1604
60.2931
62.1752
63.622
64.7675
65.6981
66.5279
67.1894
67.8001
68.2312
68.8499
69.3607
69.9452
70.3225
70.1282
22.2274
27.4454
30.5242
33.1004
35.1339
36.6161
37.5542
37.9524
37.7331
36.4493
32.8747
27.658
29.8492
30.4255
34.3821
45.5658
49.7331
53.7445
56.7826
58.5845
60.0486
61.2529
62.1948
62.9226
63.4352
64.0058
64.7025
64.8555
65.4074
65.9898
66.1183
65.9013
20.8239
26.1768
29.3531
32.07
34.301
36.0463
37.3308
38.1978
38.6927
38.7829
38.0217
34.4479
29.7944
24.7771
6.80212
26.5356
41.8749
47.6365
50.9605
53.9991
55.9088
57.1948
58.0154
58.7151
58.9822
59.2324
59.0247
59.2985
59.4817
59.7521
59.9418
58.9595
18.8885
24.3373
27.5426
30.3104
32.6339
34.5292
36.0267
37.1853
38.0899
38.8096
39.2757
38.9123
35.8639
30.2298
17.289
19.841
28.6059
39.2169
45.1794
47.1312
49.0053
50.4005
51.3727
51.6932
51.8033
51.8101
52.4211
51.7637
51.7679
53.5527
52.0664
52.53
16.653
22.0849
25.2162
27.9294
30.2455
32.204
33.8498
35.2411
36.4647
37.6096
38.6987
39.5375
39.4338
36.4145
28.2237
29.9254
19.5858
22.7638
31.4807
38.8796
41.9246
43.1419
43.8842
44.4627
43.102
43.132
41.3949
40.0226
39.7257
37.5933
37.2401
33.7491
14.3875
19.6599
22.6107
25.1658
27.3788
29.3116
31.0249
32.5835
34.0643
35.5523
37.0871
38.583
39.7039
39.5995
36.1605
27.611
24.3404
28.1856
19.1275
17.7846
20.2512
24.3232
25.203
23.382
29.749
19.4225
16.7245
14.4036
34.489
31.3262
19.0056
34.6
12.3938
17.3827
20.0767
22.4009
24.442
26.2799
27.9856
29.6263
31.2693
32.9808
34.8103
36.7212
38.5246
39.7772
39.5989
35.664
28.9718
27.9052
19.3506
29.327
17.7149
29.4952
26.6626
24.1219
35.0384
20.1575
13.9286
21.2764
34.5839
35.8097
36.3332
41.0283
10.8599
15.4965
17.9181
19.9954
21.8434
23.5544
25.2026
26.8492
28.5476
30.3461
32.2916
34.3957
36.5758
38.5673
39.8553
39.5682
36.5806
30.3385
23.9794
23.8403
26.2502
14.8365
32.3236
27.6189
37.1593
33.1544
24.181
36.3899
32.1865
30.6973
31.9529
33.3982
9.73652
14.1274
16.3206
18.193
19.8812
21.48
23.0563
24.6569
26.3186
28.0765
29.9719
32.0456
34.3038
36.6367
38.7231
40.0241
39.9696
38.1492
34.2539
31.8217
30.4835
28.7672
32.1145
32.3627
30.728
35.2222
38.0731
38.4716
41.1505
38.5354
42.0098
39.5
9.14561
13.3479
15.383
17.1253
18.7189
20.2487
21.7641
23.2934
24.8584
26.486
28.2151
30.0974
32.1833
34.4776
36.8516
38.9543
40.266
40.5076
39.3584
38.6711
38.0206
38.5809
37.1876
39.2021
39.7914
41.0845
43.0102
42.705
44.1953
43.5945
44.9447
44.2426
8.98295
13.1003
15.0681
16.7658
18.3347
19.8431
21.3207
22.7793
24.2307
25.6975
27.2164
28.8371
30.6201
32.6218
34.8469
37.1562
39.1807
40.4925
40.7724
40.9233
40.9447
41.283
40.5332
41.509
42.3885
42.4794
43.6781
43.0343
43.7616
44.0593
44.6314
44.859
9.17333
13.2843
15.2579
16.9795
18.5778
20.1026
21.5664
22.9715
24.3256
25.6489
26.9736
28.3423
29.808
31.4341
33.2793
35.3449
37.4785
39.3502
40.5527
41.335
41.7049
41.9611
41.42
41.9034
42.6093
42.4255
43.0593
42.3588
42.4443