/*--------------------------------*- C++ -*----------------------------------*\
  =========                 |
  \\      /  F ield         | OpenFOAM: The Open Source CFD Toolbox
   \\    /   O peration     | Website:  https://openfoam.org
    \\  /    A nd           | Version:  6
     \\/     M anipulation  |
\*---------------------------------------------------------------------------*/
FoamFile
{
    version     2.0;
    format      ascii;
    class       volScalarField;
    location    "36";
    object      yPlus;
}
// * * * * * * * * * * * * * * * * * * * * * * * * * * * * * * * * * * * * * //

dimensions      [0 0 0 0 0 0 0];

internalField   uniform 0;

boundaryField
{
    inlet
    {
        type            calculated;
        value           uniform 0;
    }
    outlet
    {
        type            calculated;
        value           uniform 0;
    }
    roughCylinder
    {
        type            calculated;
        value           nonuniform List<scalar> 
5120
(
43.5315
51.3537
57.5847
63.7127
69.0026
73.2929
76.7304
79.5084
81.7825
83.6876
85.3433
86.826
88.1728
89.4177
90.5915
91.7251
92.8488
93.9909
95.175
96.4183
97.7299
99.1126
100.563
102.074
103.636
105.237
106.859
108.482
110.066
111.541
112.76
113.481
42.8293
50.3645
56.3946
62.3809
67.596
71.8503
75.2689
78.0387
80.3129
82.2245
83.8884
85.3743
86.7122
87.943
89.0989
90.2112
91.3113
92.4285
93.5868
94.8026
96.0855
97.438
98.8567
100.335
101.862
103.426
105.011
106.595
108.141
109.581
110.771
111.473
42.0331
49.323
55.1676
61.0158
66.1588
70.3827
73.7908
76.5615
78.8458
80.773
82.4508
83.9423
85.277
86.4973
87.6368
88.7293
89.8076
90.9011
92.0334
93.2224
94.4772
95.7999
97.1875
98.6328
100.126
101.653
103.202
104.748
106.257
107.66
108.821
109.504
41.2363
48.2882
53.9438
59.6468
64.7138
68.9078
72.3083
75.0861
77.3895
79.3414
81.0387
82.5385
83.874
85.0845
86.2109
87.2864
88.3443
89.4153
90.5245
91.6881
92.9156
94.2095
95.5665
96.9792
98.4383
99.9307
101.442
102.95
104.422
105.791
106.922
107.586
40.3621
47.1946
52.6632
58.2207
63.2166
67.3928
70.8023
73.6033
75.9381
77.9209
79.6411
81.1543
82.4964
83.7056
84.8223
85.8828
86.9232
87.9744
89.0603
90.1995
91.4012
92.6676
93.9953
95.3768
96.8028
98.2612
99.7364
101.209
102.644
103.978
105.08
105.727
39.5123
46.1205
51.3923
56.7943
61.7153
65.8754
69.2966
72.1226
74.4913
76.5108
78.2603
79.792
81.1444
82.3556
83.4662
84.5164
85.5418
86.5743
87.6413
88.7587
89.936
91.176
92.4752
93.8266
95.2199
96.6437
98.0836
99.5189
100.919
102.22
103.294
103.922
38.5694
44.9653
50.036
55.2769
60.1254
64.2838
67.7398
70.6157
73.0371
75.1008
76.8828
78.4379
79.8068
81.03
82.1431
83.1865
84.2005
85.2193
86.2665
87.3624
88.5171
89.7321
91.0044
92.3267
93.6887
95.0799
96.4858
97.8867
99.2511
100.519
101.565
102.177
37.6615
43.8358
48.693
53.7602
58.531
62.6903
66.1831
69.1042
71.5726
73.6841
75.5081
77.0948
78.4882
79.7247
80.8451
81.8881
82.8955
83.9012
84.9352
86.0142
87.1477
88.339
89.585
90.8785
92.21
93.5677
94.9391
96.303
97.6335
98.8693
99.8895
100.482
36.6212
42.5818
47.2137
52.0914
56.7776
60.949
64.5081
67.5157
70.0695
72.2484
74.1215
75.7474
77.1687
78.4306
79.5671
80.6185
81.6242
82.6254
83.645
84.7061
85.8205
86.9898
88.2111
89.4771
90.7788
92.1051
93.4434
94.7753
96.071
97.2743
98.2674
98.8442
35.615
41.3499
45.7462
50.4194
55.0135
59.2015
62.8319
65.916
68.5357
70.7799
72.7147
74.3892
75.8553
77.146
78.3029
79.3654
80.3781
81.3757
82.3896
83.4406
84.538
85.6865
86.8834
88.1222
89.3936
90.6874
91.9902
93.2838
94.5462
95.719
96.687
97.2444
34.3891
39.9097
44.0518
48.4884
52.9626
57.1637
60.8972
64.1251
66.8923
69.2515
71.2682
73.0112
74.5215
75.8534
77.0416
78.1275
79.15
80.1548
81.1628
82.2007
83.2834
84.4129
85.587
86.799
88.0408
89.3022
90.573
91.8358
93.0632
94.2038
95.1448
95.6863
33.167
38.4789
42.3625
46.5502
50.8965
55.121
58.9742
62.3331
65.2015
67.6589
69.7713
71.584
73.1682
74.5526
75.7807
76.8914
77.9351
78.9438
79.9547
80.9917
82.0625
83.1744
84.3259
85.5116
86.7231
87.9512
89.1853
90.4069
91.6022
92.7126
93.6296
94.1511
31.6025
36.7094
40.2922
44.1609
48.3042
52.5058
56.4954
60.0936
63.2375
65.909
68.1683
70.1111
71.7699
73.218
74.495
75.6504
76.7174
77.7491
78.7643
79.7922
80.8531
81.9495
83.0806
84.2404
85.4223
86.618
87.8203
89.0129
90.1717
91.2497
92.1401
92.6459
29.9892
34.9168
38.2201
41.775
45.7162
49.9205
54.0916
57.9106
61.2101
64.0488
66.4786
68.5243
70.3028
71.8407
73.1921
74.39
75.4982
76.5435
77.5715
78.6105
79.6661
80.7489
81.8591
82.9932
84.1442
85.3054
86.4684
87.6163
88.7415
89.7892
90.6568
91.1403
27.7613
32.5098
35.4511
38.5391
42.0899
46.1359
50.4329
54.6604
58.5459
61.8206
64.5281
66.8363
68.7531
70.3982
71.8192
73.0931
74.2431
75.3335
76.3807
77.4154
78.4667
79.5381
80.6303
81.7388
82.8595
83.9861
85.117
86.2361
87.3248
88.3399
89.1784
89.6472
25.2913
29.969
32.6689
35.3924
38.6157
42.5916
47.1686
51.7298
55.7502
59.3401
62.4136
64.9006
67.037
68.8378
70.4016
71.7465
72.9661
74.0829
75.1552
76.218
77.2731
78.3354
79.4082
80.4907
81.5779
82.6679
83.7544
84.824
85.8734
86.8569
87.6764
88.1178
21.4015
26.0675
28.3154
30.2832
32.6559
36.0254
40.4072
45.7699
51.4608
56.0521
59.696
62.7634
65.1654
67.1721
68.8358
70.3082
71.6003
72.7954
73.9093
74.9728
76.0298
77.0858
78.1429
79.1993
80.2545
81.3052
82.3584
83.3965
84.4121
85.3615
86.1449
86.5754
16.4043
21.5789
24.1455
25.8903
27.7484
30.8444
36.4307
42.0711
46.6716
51.9839
56.5683
59.9933
62.9044
65.215
67.1707
68.7719
70.1794
71.4202
72.5754
73.6938
74.7679
75.8202
76.8591
77.8869
78.9019
79.9123
80.9126
81.8941
82.8573
83.7716
84.5451
84.9364
6.05854
11.0753
11.9531
12.493
12.0603
12.5246
14.1612
24.039
38.3887
45.9058
51.9176
56.921
60.3378
63.0851
65.2079
67.0372
68.5757
69.9547
71.1896
72.3117
73.3951
74.4475
75.4719
76.4723
77.4534
78.4147
79.3779
80.3239
81.2566
82.133
82.8561
83.2452
2.75367
7.71766
7.59142
4.09794
5.51083
10.0022
18.7332
15.7394
20.0191
37.6583
46.1631
51.7874
56.7619
60.2344
63.0118
65.1022
66.8558
68.3133
69.6146
70.841
71.9642
73.0204
74.0272
74.9916
75.9158
76.8304
77.7263
78.5983
79.4587
80.297
81.0255
81.3541
11.7288
16.101
17.3101
17.2387
15.4958
13.9175
3.94789
10.7386
20.7171
10.9434
35.8587
46.95
52.5767
57.0898
60.189
62.7602
64.7585
66.4814
67.9402
69.169
70.3095
71.3752
72.3683
73.3012
74.1906
75.0364
75.8859
76.7239
77.5489
78.3422
78.9981
79.3357
20.0174
24.4099
26.2061
26.8309
26.2721
24.8011
23.2064
18.7288
11.4734
21.885
11.6976
32.8137
45.3765
51.8931
56.7848
59.9161
62.4133
64.2872
65.861
67.2988
68.5258
69.6099
70.582
71.463
72.2547
73.0407
73.7969
74.5113
75.2443
75.9877
76.6734
76.9169
22.2116
27.1923
29.8914
31.8601
32.9718
33.0374
31.8608
29.4174
24.3548
20.9931
10.2561
14.9682
35.9319
46.7674
51.8606
56.2939
59.234
61.6832
63.5953
65.0249
66.2795
67.3875
68.3478
69.1855
69.9427
70.623
71.3101
72.0188
72.6694
73.3837
73.9637
74.2246
22.9868
28.0629
30.9729
33.3032
35.0172
36.0963
36.4807
35.9823
34.0651
29.2839
24.9676
18.257
11.0752
31.6728
45.6686
51.103
55.5254
58.2845
60.4267
62.314
63.7628
64.9279
65.8565
66.5979
67.1567
67.7366
68.2814
68.7187
69.2855
69.8682
70.5269
70.6363
22.4356
27.6465
30.7196
33.2859
35.3077
36.7819
37.7245
38.1522
37.988
36.7633
33.3005
26.0005
23.6969
27.7424
32.2405
44.6227
49.6532
53.9616
56.8987
58.7169
60.197
61.4147
62.3285
62.9942
63.5142
63.9383
64.3766
64.9164
65.2065
65.9469
66.445
66.5573
20.981
26.3244
29.4904
32.1921
34.4025
36.1238
37.3847
38.2361
38.7321
38.8276
38
34.8516
28.4093
29.3146
33.2463
33.4713
43.2419
47.6638
51.1879
54.177
56.125
57.5043
58.367
58.7861
58.8301
58.9705
59.1684
58.9485
59.3548
59.461
60.1591
60.0075
19.05
24.4886
27.686
30.4425
32.7476
34.6154
36.0769
37.1938
38.0496
38.7063
39.0642
38.4439
34.7933
28.6183
31.4201
14.8158
26.8815
39.6047
44.8644
47.327
49.1801
50.7328
51.5638
51.7319
51.7571
51.8181
52.5317
52.2573
51.6933
53.4732
53.9972
53.6116
16.8498
22.2805
25.414
28.126
30.4324
32.3689
33.9775
35.3171
36.4724
37.5246
38.4819
39.1339
38.6503
34.9577
27.3972
21.2781
11.2325
19.767
32.2104
39.1141
42.1144
44.0515
45.3444
44.2131
42.9828
41.4559
40.2858
39.0681
41.2843
37.311
38.4643
37.225
14.6056
19.8928
22.8587
25.425
27.6397
29.5604
31.2444
32.7551
34.1679
35.5597
36.9554
38.2521
39.1035
38.5808
34.5908
32.2092
23.0008
23.7088
15.7819
17.156
20.3343
26.1476
26.4116
22.6474
32.9154
22.9726
43.0369
24.7156
45.1261
30.1078
30.2655
28.8988
12.5965
17.6155
20.3356
22.6824
24.7368
26.5753
28.2666
29.876
31.4692
33.1113
34.8408
36.606
38.2008
39.1852
38.7001
35.1141
27.9073
26.9549
12.2782
24.1551
27.9484
9.67025
22.4724
20.786
41.1394
27.6569
43.4237
25.3707
36.2696
35.7129
38.3117
35.262
11.0361
15.7051
18.1556
20.2586
22.1246
23.844
25.4899
27.1229
28.7953
30.5543
32.4437
34.4666
36.5298
38.3593
39.4772
39.0021
36.8334
31.2293
22.319
28.2133
8.52454
14.4964
32.8328
18.5539
38.2249
34.0323
35.6491
34.5334
32.4255
29.5942
42.045
29.753
9.8705
14.2929
16.5116
18.406
20.1101
21.7188
23.2993
24.8992
26.555
28.3011
30.1769
32.2185
34.426
36.6825
38.6677
39.8648
40.1189
38.5484
35.3367
31.5514
29.6524
26.3687
27.102
33.0883
34.0899
37.2213
36.2615
38.6741
40.0124
37.6628
36.7471
39.0703
9.24055
13.4659
15.518
17.2742
18.8776
20.4145
21.9357
23.4706
25.0413
26.6743
28.4072
30.2899
32.3703
34.6483
36.993
39.0592
40.4908
40.8543
40.226
38.7449
39.02
37.4408
35.4257
41.0662
41.5022
42.245
42.7748
42.8295
43.4816
42.5871
40.2974
43.5538
9.0454
13.177
15.1532
16.8568
18.4296
19.9417
21.424
22.8893
24.3494
25.8268
27.3575
28.9913
30.7882
32.8031
35.0388
37.3578
39.4484
40.8619
41.3999
41.2557
41.6114
41.0214
40.3778
42.9355
43.0324
42.7937
43.6976
43.2306
43.4274
43.3948
41.6647
44.1238
9.21489
13.3335
15.309
17.0305
18.6286
20.1544
21.6213
23.0314
24.3925
25.7248
27.0607
28.4428
29.9243
31.5687
33.4345
35.5244
37.7067
39.6608
41.0234
41.6869
42.2074
42.0098
41.7762
42.9979
42.9496
42.2182
42.9419
42.4548
42.4952
42.7206
41.2642
43.2381
9.64761
13.8066
15.8323
17.6204
19.2821
20.851
22.328
23.7093
25.0014
26.2241
27.4069
28.5849
29.7993
31.1017
32.5539
34.2118
36.0743
38.0074
39.7249
40.9502
41.7467
41.8648
41.7782
42.2567
41.9627
40.9219
41.2417
40.7913
40.8676
41.141
40.0149
41.4901
10.2852
14.5151
16.6158
18.4922
20.2345
21.8605
23.3634
24.7382
25.9931
27.1488
28.2323
29.2717
30.296
31.3408
32.4542
33.6926
35.1021
36.6702
38.2618
39.6277
40.5962
40.9328
40.9112
40.9947
40.5101
39.3392
39.2783
38.8756
39.0343
39.3418
38.5341
39.6231
11.0741
15.4031
17.5919
19.5637
21.3885
23.073
24.6073
25.9887
27.2295
28.3528
29.3842
30.3458
31.256
32.1357
33.0152
33.9363
34.9471
36.0773
37.293
38.4514
39.3563
39.7645
39.7724
39.6499
39.0667
37.9385
37.603
37.2534
37.4747
37.8474
37.3712
38.1792
11.9229
16.4216
18.7073
20.7744
22.6778
24.4176
25.9844
27.3802
28.6229
29.7384
30.7516
31.6802
32.5348
33.3252
34.0669
34.7841
35.5116
36.2829
37.1039
37.9142
38.5806
38.9073
38.8817
38.6349
38.0187
37.0035
36.5185
36.2276
36.4849
36.9416
36.7562
37.4077
12.9189
17.5392
19.9197
22.0783
24.0553
25.8467
27.446
28.8614
30.1166
31.2407
32.2577
33.1822
34.0195
34.7725
35.4465
36.0517
36.6071
37.1358
37.6517
38.1355
38.5166
38.6679
38.5425
38.1917
37.5585
36.6571
36.1123
35.8815
36.161
36.6943
36.7442
37.3248
13.5487
13.971
14.4585
14.8513
15.2315
15.5347
15.7998
16.0062
16.1724
16.2909
16.3725
16.4152
16.4229
16.3976
16.343
16.2615
16.1561
16.0329
15.9059
15.815
15.8635
15.9992
16.1469
16.2828
16.3976
16.487
16.5488
16.5807
16.5777
16.5397
16.4621
16.3462
16.1809
15.9736
15.7058
15.3973
15.0103
14.6083
14.1106
13.6774
18.2844
18.7235
19.2315
19.6428
20.0415
20.3666
20.655
20.8866
21.0792
21.2256
21.3356
21.4078
21.4444
21.446
21.415
21.353
21.2615
21.1454
21.0184
20.9236
20.9757
21.1179
21.2655
21.3939
21.4946
21.5645
21.6026
21.6072
21.5754
21.5084
21.4023
21.2584
21.0667
20.8343
20.5434
20.2133
19.8079
19.3875
18.8699
18.4203
20.7321
21.1968
21.7352
22.1726
22.6003
22.9567
23.2803
23.5502
23.7841
23.9747
24.1303
24.2499
24.3345
24.3832
24.3962
24.3743
24.3181
24.231
24.1254
24.0429
24.0929
24.2221
24.3482
24.4478
24.5137
24.544
24.5385
24.4967
24.418
24.3048
24.1539
23.9668
23.7349
23.4653
23.1402
22.7797
22.346
21.9
21.3522
20.8767
22.939
23.4233
23.9852
24.4428
24.8957
25.2801
25.6366
25.9432
26.2172
26.4517
26.6526
26.819
26.9515
27.0475
27.1059
27.1258
27.1072
27.0529
26.9754
26.9142
26.9576
27.0646
27.1636
27.2309
27.2598
27.2488
27.1987
27.1103
26.9852
26.8263
26.6311
26.4016
26.131
25.8262
25.4696
25.0825
24.6248
24.1596
23.5892
23.0942
24.9439
25.4328
26.0029
26.4677
26.933
27.3335
27.7108
28.0426
28.3457
28.6138
28.8515
29.0563
29.2281
29.3633
29.4596
29.515
29.5291
29.5043
29.4533
29.4134
29.4496
29.534
29.6073
29.6458
29.6423
29.5961
29.5086
29.3818
29.2184
29.022
28.7913
28.5301
28.2319
27.9034
27.5274
27.1258
26.657
26.1861
25.6085
25.1095
26.7466
27.2237
27.788
28.2478
28.7141
29.1204
29.5091
29.859
30.1856
30.4812
30.7496
30.9871
31.1921
31.3607
31.4893
31.5752
31.6171
31.6176
31.5892
31.5658
31.5968
31.6623
31.7131
31.7265
31.6951
31.6185
31.4987
31.3389
31.1427
30.9143
30.654
30.3663
30.0464
29.702
29.3161
28.9102
28.4419
27.9774
27.4069
26.9203
28.3475
28.8014
29.3521
29.801
30.2638
30.6739
31.0735
31.4407
31.7889
32.11
32.4063
32.6731
32.908
33.106
33.2631
33.3754
33.4412
33.4627
33.4519
33.4396
33.4673
33.5189
33.5516
33.5436
33.488
33.3846
33.2361
33.0466
32.8207
32.563
32.2755
31.9629
31.6224
31.262
30.8672
30.4599
29.9967
29.5446
28.9885
28.5259
29.7623
30.1891
30.7257
31.1652
31.6272
32.0447
32.4569
32.8419
33.2112
33.5564
33.8784
34.1719
34.4334
34.6576
34.8394
34.9744
35.06
35.0982
35.0999
35.0949
35.1205
35.1627
35.1816
35.1561
35.0798
34.9531
34.7793
34.5635
34.3105
34.0259
33.7128
33.3766
33.0155
32.6381
32.2319
31.8188
31.3587
30.9177
30.3765
29.9417
31.0202
31.4216
31.9479
32.3833
32.8488
33.2756
33.7011
34.1035
34.4924
34.8594
35.2043
35.5212
35.8059
36.0525
36.2551
36.4087
36.5101
36.5608
36.5713
36.5705
36.5949
36.6311
36.6398
36.6006
36.5074
36.3612
36.1659
35.9271
35.6505
35.3423
35.0062
34.6482
34.2677
33.8733
33.4543
33.0328
32.57
32.1352
31.6052
31.1967
32.1519
32.5308
33.051
33.4859
33.956
34.3927
34.8306
35.2486
35.6546
36.0405
36.4048
36.7414
37.0454
37.3102
37.5296
37.698
37.8118
37.8714
37.8876
37.8888
37.9125
37.9452
37.9467
37.897
37.7905
37.6285
37.4155
37.1576
36.8613
36.5328
36.177
35.8
35.4025
34.9926
34.5617
34.1307
33.664
33.2303
32.7075
32.322
33.1794
33.5371
34.0528
34.4877
34.962
35.4073
35.8559
36.2871
36.7076
37.109
37.4894
37.842
38.1615
38.4409
38.6734
38.8531
38.9759
39.0421
39.0619
39.064
39.0872
39.1173
39.1138
39.0562
38.9393
38.7649
38.5378
38.2646
37.952
37.607
37.2349
36.842
36.43
36.0069
35.5654
35.1263
34.6555
34.2224
33.7044
33.3403
34.1129
34.4482
34.9585
35.3923
35.87
36.3225
36.7799
37.2222
37.6545
38.0687
38.4619
38.8274
39.159
39.4498
39.6924
39.8809
40.0109
40.0824
40.1054
40.1088
40.131
40.1585
40.1501
40.0859
39.9607
39.7763
39.5381
39.2525
38.927
38.5686
38.1832
37.7773
37.3531
36.9191
36.4688
36.0227
35.5489
35.117
34.6047
34.2631
34.954
35.2643
35.7671
36.1989
36.6788
37.1372
37.6021
38.0536
38.4959
38.9205
39.324
39.6997
40.041
40.3406
40.5914
40.7869
40.9228
40.9997
41.0271
41.033
41.0538
41.0768
41.0628
40.9921
40.8596
40.6671
40.4197
40.1244
39.7884
39.4191
39.0227
38.6061
38.1719
37.7285
37.2708
36.8189
36.343
35.9134
35.4086
35.0921
35.7019
35.9828
36.475
36.9037
37.385
37.8486
38.3203
38.7799
39.2308
39.6643
40.0765
40.4603
40.8092
41.1158
41.373
41.5744
41.7161
41.7987
41.8322
41.8422
41.8609
41.8773
41.856
41.7785
41.6393
41.4397
41.1849
40.8816
40.5372
40.159
39.7535
39.3276
38.8845
38.4329
37.9685
37.5114
37.0343
36.6081
36.1135
35.8262
36.356
36.6005
37.0784
37.5024
37.9843
38.453
38.9312
39.3989
39.8576
40.299
40.7187
41.1094
41.4647
41.7771
42.0396
42.2462
42.3937
42.4829
42.5237
42.539
42.5552
42.5633
42.5334
42.4484
42.3024
42.0965
41.8352
41.5251
41.1735
40.7877
40.374
39.9398
39.4887
39.0291
38.5581
38.0962
37.6184
37.1968
36.7162
36.4653
36.9185
37.115
37.5724
37.9896
38.4714
38.9452
39.43
39.9057
40.3725
40.8215
41.2482
41.6453
42.006
42.3234
42.5907
42.8025
42.9556
43.0519
43.1005
43.1212
43.1347
43.134
43.0949
43.0018
42.8489
42.6369
42.3697
42.0536
41.6955
41.3026
40.8814
40.4391
39.9798
39.5121
39.0345
38.5675
38.0897
37.6745
37.2125
37.0101
37.3926
37.522
37.951
38.3577
38.8382
39.3169
39.809
40.2932
40.7684
41.2254
41.659
42.0622
42.4282
42.7503
43.0221
43.2387
43.3976
43.5007
43.5568
43.5822
43.5931
43.5842
43.5356
43.4343
43.2746
43.0565
42.7836
42.4617
42.0973
41.6976
41.2689
40.8184
40.3506
39.8743
39.3897
38.9177
38.441
38.0353
37.6013
37.4669
37.7854
37.8202
38.2051
38.5974
39.074
39.5575
40.0569
40.5502
41.0343
41.4998
41.9408
42.3503
42.7217
43.0485
43.3246
43.5459
43.7103
43.8199
43.8824
43.9114
43.92
43.9037
43.8464
43.7371
43.5705
43.3463
43.0677
42.74
42.3694
41.9626
41.526
41.0667
40.59
40.1046
39.6128
39.1359
38.6629
38.2707
37.8817
37.8449
38.1033
38.0094
38.3279
38.6965
39.1662
39.6531
40.1597
40.6626
41.1563
41.6308
42.0798
42.496
42.8731
43.2048
43.4855
43.7113
43.8807
43.9958
44.0637
44.0954
44.1018
44.0791
44.0141
43.8972
43.7239
43.4936
43.2091
42.8753
42.4979
42.0836
41.6388
41.1703
40.6838
40.189
39.6896
39.2087
38.7405
38.3727
38.0533
38.1522
38.3397
38.0871
38.314
38.6446
39.1023
39.5903
40.1033
40.6154
41.1189
41.6029
42.0603
42.4839
42.8671
43.2038
43.4892
43.7194
43.8934
44.0132
44.0853
44.1189
44.1233
44.0951
44.0231
43.8994
43.7194
43.4829
43.1923
42.852
42.4676
42.0454
41.5916
41.1134
40.617
40.1124
39.606
39.1212
38.665
38.3373
38.1153
38.385
38.4649
38.0405
38.1572
38.4344
38.871
39.3588
39.8765
40.3972
40.91
41.4033
41.8693
42.3001
42.6896
43.0316
43.3215
43.5558
43.7338
43.8575
43.9324
43.9673
43.9698
43.9369
43.8589
43.7289
43.5428
43.3001
43.0033
42.6563
42.2645
41.8341
41.3713
40.8834
40.3775
39.8637
39.3512
38.8658
38.4315
38.1602
38.0562
38.5122
38.4267
37.847
37.8531
38.0689
38.4761
38.9581
39.4789
40.0061
40.5266
41.0279
41.5013
41.9388
42.3339
42.6806
42.9744
43.2121
43.393
43.5192
43.5961
43.6315
43.6321
43.5955
43.5126
43.3772
43.1855
42.9372
42.6344
42.281
41.8823
41.4443
40.9733
40.4769
39.9621
39.4409
38.9224
38.4428
38.0396
37.8338
37.8468
38.467
38.18
37.4849
37.4019
37.561
37.9367
38.4075
38.9283
39.4583
39.9834
40.4896
40.968
41.4098
41.8086
42.1582
42.4542
42.6937
42.8759
43.003
43.0802
43.1151
43.1142
43.0747
42.9882
42.8488
42.6529
42.4001
42.0926
41.7341
41.3299
40.8859
40.4086
39.9055
39.3842
38.8562
38.3362
37.8687
37.5004
37.3574
37.468
38.2113
37.7071
36.9569
36.8241
36.9439
37.2932
37.75
38.2658
38.795
39.3203
39.8272
40.3062
40.7486
41.1475
41.4969
41.7921
42.0303
42.211
42.3363
42.4118
42.4451
42.4428
42.4017
42.3137
42.1724
41.9746
41.7197
41.4098
41.0489
40.642
40.1951
39.7148
39.2085
38.6845
38.1534
37.6371
37.1852
36.8489
36.7571
36.9364
37.7651
37.1293
36.3579
36.2029
36.2963
36.6235
37.0635
37.5685
38.0911
38.6106
39.1125
39.5868
40.0247
40.4188
40.7633
41.0534
41.2862
41.4613
41.5813
41.652
41.6822
41.6787
41.638
41.551
41.4111
41.2145
40.9608
40.652
40.2922
39.8865
39.4408
38.9616
38.4561
37.933
37.4033
36.8936
36.4554
36.1393
36.0726
36.2728
37.1202
36.5782
35.8025
35.6424
35.7209
36.0315
36.4543
36.944
37.4535
37.961
38.4518
38.9154
39.3427
39.7265
40.0606
40.3402
40.5626
40.7272
40.8369
40.8989
40.9239
40.9197
40.8823
40.8004
40.666
40.4749
40.2269
39.9241
39.5704
39.1709
38.7315
38.2586
37.7592
37.2412
36.7173
36.2142
35.7814
35.4639
35.3839
35.5427
36.3186
36.0642
35.3491
35.2228
35.3116
35.619
36.0303
36.505
36.998
37.4896
37.9648
38.4129
38.8249
39.1934
39.5123
39.7768
39.9838
40.133
40.2275
40.2761
40.293
40.289
40.2579
40.1849
40.0599
39.8782
39.6396
39.3462
39.0023
38.6128
38.1835
37.7206
37.2312
36.7231
36.2085
35.7129
35.2844
34.9656
34.8757
35.0159
35.7699
35.914
35.2556
35.1593
35.2512
35.5479
35.9383
36.388
36.8549
37.3221
37.7739
38.1994
38.5894
38.9365
39.2345
39.4786
39.6655
39.7944
39.8686
39.8983
39.9035
39.9012
39.8811
39.8216
39.71
39.5421
39.3175
39.0393
38.7114
38.3392
37.9284
37.4857
37.0184
36.5351
36.0471
35.5758
35.1667
34.8578
34.7656
34.8824
35.5958
36.213
35.518
35.4003
35.4758
35.7551
36.1255
36.5529
36.9993
37.4462
37.8778
38.283
38.6527
38.9795
39.2574
39.4816
39.6487
39.7575
39.8108
39.8195
39.8102
39.8109
39.804
39.7588
39.661
39.5067
39.2969
39.0342
38.7235
38.3699
37.9794
37.559
37.1165
36.6612
36.2064
35.7686
35.3906
35.1088
35.0377
35.1664
35.8854
36.6134
36.0242
35.9659
36.0564
36.3283
36.6748
37.0725
37.4876
37.9032
38.3038
38.679
39.0199
39.3194
39.5715
39.7717
39.9162
40.0035
40.0353
40.0224
39.9963
39.9993
40.0045
39.9716
39.8864
39.7457
39.551
39.3054
39.0136
38.6811
38.3139
37.9189
37.5047
37.0808
36.6621
36.2638
35.9235
35.6723
35.6239
35.7573
36.4659
36.9565
36.4564
36.4599
36.589
36.8788
37.2285
37.6204
38.0236
38.4237
38.8067
39.1631
39.4847
39.7653
39.9991
40.1819
40.31
40.3819
40.3992
40.3716
40.3331
40.3371
40.3493
40.324
40.2469
40.1157
39.9315
39.6979
39.4193
39.1006
38.7478
38.3672
37.9667
37.5554
37.1463
36.7536
36.4083
36.1366
36.0439
36.1035
36.6913
37.4917
36.9551
36.9332
37.0377
37.3055
37.6354
38.0114
38.4007
38.7884
39.1601
39.506
39.818
40.0895
40.3149
40.49
40.6113
40.6772
40.689
40.6567
40.615
40.6216
40.6391
40.6198
40.5495
40.4261
40.2509
40.0275
39.7599
39.4534
39.1135
38.747
38.3617
37.9666
37.5752
37.2019
36.8775
36.6242
36.5495
36.6241
37.2382
43.4776
51.2993
57.5287
63.6557
68.9448
73.235
76.6725
79.4511
81.7258
83.6312
85.2868
86.7692
88.1157
89.3603
90.5341
91.6676
92.7913
93.9335
95.1177
96.3611
97.6732
99.0564
100.507
102.02
103.582
105.182
106.804
108.423
110.003
111.469
112.68
113.394
42.7703
50.3062
56.3359
62.3222
67.5373
71.7915
75.2098
77.9792
80.2532
82.1647
83.8286
85.3148
86.6531
87.8842
89.0402
90.1524
91.2526
92.3697
93.5282
94.7445
96.0278
97.3809
98.8002
100.279
101.807
103.371
104.955
106.536
108.078
109.508
110.688
111.383
41.975
49.2641
55.1068
60.9536
66.0958
70.3195
73.7278
76.4996
78.785
80.713
82.3911
83.8825
85.2169
86.437
87.5765
88.669
89.7475
90.8413
91.9739
93.1631
94.4184
95.7419
97.1302
98.5763
100.07
101.598
103.145
104.688
106.192
107.586
108.736
109.411
41.1728
48.2253
53.8804
59.5834
64.651
68.8454
72.2461
75.0234
77.3262
79.2776
80.9747
82.475
83.8113
85.0225
86.1491
87.2249
88.2831
89.3541
90.4636
91.6278
92.856
94.1507
95.5087
96.9224
98.3819
99.8742
101.384
102.89
104.357
105.715
106.834
107.491
40.2989
47.1299
52.5961
58.1517
63.1465
67.3224
70.7324
73.5348
75.8714
77.8559
79.5772
81.091
82.4328
83.6419
84.7589
85.8196
86.8603
87.9121
88.9986
90.1382
91.3407
92.6081
93.9368
95.3197
96.7469
98.2048
99.6799
101.149
102.578
103.901
104.991
105.628
39.4427
46.0511
51.3223
56.7247
61.6469
65.8085
69.2306
72.0566
74.4245
76.4429
78.192
79.7239
81.0776
82.29
83.4012
84.452
85.4779
86.5107
87.5781
88.6964
89.8746
91.1155
92.4161
93.7686
95.1628
96.5869
98.0259
99.4576
100.853
102.141
103.2
103.82
38.4994
44.893
49.9603
55.1986
60.0455
64.2033
67.6596
70.5373
72.9618
75.0287
76.8131
78.3696
79.7387
80.9621
82.0759
83.1201
84.1346
85.1542
86.2025
87.2991
88.4548
89.6711
90.9447
92.2683
93.6325
95.0236
96.429
97.8263
99.1843
100.438
101.47
102.071
37.5823
43.7564
48.6128
53.6808
58.4538
62.6164
66.112
69.0343
71.5016
73.6112
75.4344
77.0215
78.4165
79.655
80.7764
81.8202
82.8287
83.835
84.8695
85.9497
87.0844
88.277
89.5246
90.8196
92.1515
93.5109
94.881
96.2414
97.5668
98.7875
99.7894
100.373
36.5425
42.4994
47.1267
52.0004
56.6842
60.8544
64.4135
67.4233
69.9817
72.1667
74.0442
75.6724
77.0945
78.3569
79.495
80.5482
81.5548
82.5571
83.5784
84.6405
85.7562
86.9273
88.1503
89.4187
90.7233
92.0491
93.387
94.7149
96.0034
97.19
98.1654
98.7297
35.5201
41.2541
45.6488
50.3227
54.9204
59.1143
62.7509
65.8389
68.4581
70.6992
72.6325
74.3082
75.7773
77.0713
78.2296
79.2927
80.3071
81.3063
82.3209
83.3736
84.4727
85.6228
86.8219
88.0624
89.3344
90.6299
91.9331
93.2224
94.4798
95.6334
96.5784
97.1246
34.2983
39.8142
43.9502
48.3814
52.8522
57.0516
60.7846
64.0146
66.7887
69.1579
71.182
72.9283
74.4395
75.7717
76.9625
78.0522
79.0766
80.0826
81.0929
82.1324
83.2167
84.3487
85.5252
86.7406
87.9873
89.2481
90.5178
91.7768
92.9949
94.1156
95.0341
95.5603
33.0454
38.3553
42.235
46.4216
50.7711
55.0035
58.8684
62.2377
65.1091
67.5633
69.6744
71.4902
73.0801
74.4705
75.7011
76.8121
77.858
78.87
79.8824
80.9216
81.9948
83.1087
84.2631
85.451
86.6623
87.8945
89.1299
90.3467
91.5373
92.6225
93.5096
94.0172
31.4953
36.5983
40.1751
44.0388
48.1801
52.3815
56.3679
59.9651
63.1163
65.802
68.0714
70.0192
71.6783
73.1259
74.4071
75.5685
76.6391
77.672
78.6901
79.7201
80.7831
81.8831
83.0175
84.1823
85.3719
86.5664
87.7671
88.9561
90.1031
91.1567
92.0173
92.5041
29.8228
34.7461
38.0381
41.5809
45.5123
49.7164
53.9142
57.7641
61.081
63.9234
66.359
68.4103
70.1985
71.7467
73.1017
74.3009
75.4122
76.463
77.4939
78.5362
79.5954
80.6806
81.7944
82.9319
84.0822
85.249
86.4155
87.5569
88.6799
89.6934
90.5197
90.9876
27.6397
32.3903
35.3341
38.4344
42.0151
46.0917
50.348
54.5372
58.4124
61.6969
64.4068
66.7249
68.646
70.2919
71.7214
73.0036
74.1587
75.2501
76.3007
77.3382
78.3918
79.468
80.5653
81.681
82.8126
83.9388
85.0666
86.1845
87.2562
88.2405
89.0391
89.484
25.0564
29.7212
32.3823
35.0278
38.111
41.9478
46.6933
51.4198
55.5242
59.1527
62.2715
64.7678
66.9128
68.7257
70.2908
71.6398
72.8667
73.9927
75.0702
76.1377
77.1981
78.2638
79.341
80.4291
81.5167
82.6125
83.7054
84.7653
85.8183
86.753
87.5129
87.9373
21.3662
26.0483
28.3484
30.4795
33.258
37.1432
40.9575
45.8563
51.3718
55.9174
59.4943
62.5832
65.0109
67.0369
68.727
70.2122
71.5072
72.7033
73.8208
74.8882
75.9478
77.0093
78.075
79.1415
80.2105
81.2637
82.3131
83.3536
84.3442
85.2541
85.9832
86.3811
16.3614
21.4135
23.7371
25.1117
26.0028
27.0928
34.3443
41.1279
46.1502
51.6234
56.4414
59.8772
62.7852
65.0843
67.0244
68.6325
70.0606
71.3166
72.4807
73.6046
74.6865
75.7447
76.788
77.826
78.846
79.8597
80.8691
81.8384
82.8129
83.6555
84.34
84.7138
7.38175
11.8553
13.1779
14.1869
13.8678
10.3482
15.8621
26.003
38.9374
46.0233
51.3954
56.4904
59.9915
62.8621
65.0742
66.9361
68.4689
69.8482
71.0868
72.216
73.3028
74.36
75.3993
76.4145
77.4111
78.3806
79.341
80.2916
81.1924
82.019
82.6595
83.0071
3.7183
7.70389
8.77379
10.7676
11.7536
11.9012
11.7062
12.4743
18.1368
36.2721
46.5887
51.8446
56.8213
60.1284
62.8239
64.9077
66.7108
68.1922
69.5077
70.7394
71.8721
72.9396
73.9503
74.9334
75.8735
76.785
77.6921
78.555
79.4294
80.159
80.7534
81.057
11.1858
15.6365
16.7097
16.234
15.014
15.3328
16.3525
17.1592
16.9947
16.9066
31.0279
45.397
51.3186
56.5291
59.9386
62.6387
64.6197
66.3466
67.8116
69.0538
70.2025
71.2697
72.2868
73.2445
74.1507
75.0119
75.8636
76.7028
77.5029
78.2229
78.7363
79.0349
19.8244
24.2309
26.0926
26.8566
26.3267
24.3901
21.2652
17.645
20.124
21.1068
19.9226
33.0075
46.8723
52.1123
56.6661
59.6607
62.2435
64.147
65.7365
67.1792
68.4149
69.5182
70.497
71.4116
72.2426
73.0122
73.7792
74.5
75.2244
75.8152
76.2872
76.4793
21.9483
26.9299
29.6217
31.5836
32.6966
32.7723
31.4897
28.2008
22.5038
26.3178
20.572
5.98135
29.4678
44.7817
50.9789
56.0451
59.0073
61.4798
63.418
64.8708
66.1491
67.2519
68.2467
69.1361
69.9123
70.6122
71.3145
72.0179
72.7039
73.2431
73.5554
73.8086
22.7928
27.875
30.7922
33.1318
34.8471
35.8982
36.2009
35.5362
33.2927
28.6696
24.2304
12.4081
10.642
33.1984
46.692
50.9352
55.3632
58.1402
60.2653
62.1674
63.6193
64.8098
65.7565
66.5648
67.2182
67.7485
68.2935
68.7703
69.2253
69.6661
69.9159
69.919
22.274
27.5028
30.593
33.1794
35.2182
36.6923
37.5939
37.9033
37.5243
35.9895
32.2211
23.4404
24.7873
18.0645
28.3201
43.8132
49.1859
53.5379
56.6261
58.4731
60.0283
61.2201
62.1822
62.9827
63.526
63.9532
64.3946
64.9964
65.5571
65.6663
65.6601
65.8372
20.8646
26.2262
29.4101
32.132
34.3619
36.0937
37.3418
38.1337
38.4921
38.3607
37.3194
33.7693
29.7375
20.8912
19.9112
31.1082
43.2418
47.7323
50.8825
53.9855
55.9328
57.3174
58.2181
58.8047
59.0999
59.065
59.2238
59.0813
58.953
59.3496
59.0806
58.666
18.9329
24.3879
27.5989
30.3706
32.6932
34.5792
36.0516
37.1582
37.9644
38.5124
38.6978
37.8966
33.8705
25.2794
29.9393
18.6075
28.0613
38.2297
44.5898
46.8221
48.9687
50.3875
51.2371
51.9841
51.8736
52.1062
51.5367
52.9067
53.5729
51.8147
52.3677
51.349
16.7185
22.1549
25.291
28.0077
30.3239
32.2764
33.9059
35.2636
36.4244
37.459
38.3629
38.9001
38.2389
34.6771
27.1372
21.5996
27.9651
21.8226
30.246
38.8926
42.132
43.7717
44.7735
44.1999
43.8941
40.928
41.5248
38.5897
37.9355
38.2945
35.4556
35.2909
14.4693
19.7499
22.7081
25.2692
27.4851
29.4159
31.1197
32.6576
34.1001
35.521
36.9435
38.259
39.1066
38.7053
34.5818
25.561
25.4031
29.7124
20.272
14.2273
21.4333
24.8394
25.4041
28.6557
21.5671
28.7914
9.00485
23.6553
24.1485
20.8632
37.9505
12.2601
12.4754
17.4779
20.1823
22.5149
24.5609
26.3993
28.1
29.7293
31.3526
33.0315
34.8071
36.6318
38.2959
39.3356
38.7322
34.854
29.6051
30.9675
23.4694
20.3734
8.72001
12.136
16.834
36.3389
11.7342
34.0703
4.80323
29.8745
34.5383
18.9086
41.4347
27.5734
10.9231
15.5747
18.0077
20.0935
21.9461
23.6577
25.3027
26.943
28.6322
30.4183
32.3436
34.4151
36.5385
38.4238
39.4983
39.1291
35.5632
30.3914
27.1111
26.3352
23.0388
23.6075
29.4216
32.434
27.449
37.1364
32.9655
32.4307
29.3939
32.3083
29.9887
31.8882
9.77138
14.1753
16.3773
18.2551
19.9451
21.5428
23.1165
24.7145
26.3744
28.1322
30.0274
32.0972
34.3402
36.6317
38.6181
39.776
39.3337
38.0395
34.7615
31.4628
28.7981
27.9962
28.8939
30.1825
34.4284
35.8013
39.164
38.0378
34.3005
39.2058
38.0847
39.6233
9.15314
13.3626
15.4018
17.1448
18.7364
20.2632
21.7765
23.3062
24.8748
26.5097
28.249
30.1426
32.2376
34.5321
36.8812
38.9277
40.0822
40.5748
39.9109
38.7107
37.6112
36.6351
36.6143
39.1832
41.1495
41.9499
43.4016
42.7979
41.1016
42.0596
42.9404
42.5791
8.96553
13.0839
15.0509
16.745
18.309
19.8135
21.2898
22.7512
24.2094
25.6865
27.2185
28.8553
30.6574
32.6805
34.9247
37.2472
39.2658
40.7466
41.24
41.0231
40.5808
39.9719
40.3079
41.8508
42.6135
43.1067
43.4037
43.0353
42.7556
41.984
43.3388
43.0539
9.13478
13.2419
15.2108
16.9256
18.5173
20.0379
21.5013
22.91
24.2714
25.6052
26.9433
28.3283
29.8141
31.4658
33.3433
35.4493
37.6272
39.6072
40.8972
41.3968
41.4047
41.0732
41.4514
42.1926
42.4789
42.7478
42.4486
41.9996
42.5143
41.231
42.2634