/*--------------------------------*- C++ -*----------------------------------*\
  =========                 |
  \\      /  F ield         | OpenFOAM: The Open Source CFD Toolbox
   \\    /   O peration     | Website:  https://openfoam.org
    \\  /    A nd           | Version:  6
     \\/     M anipulation  |
\*---------------------------------------------------------------------------*/
FoamFile
{
    version     2.0;
    format      ascii;
    class       volScalarField;
    location    "0";
    object      epsilon;
}
// * * * * * * * * * * * * * * * * * * * * * * * * * * * * * * * * * * * * * //

dimensions      [0 2 -3 0 0 0 0];

internalField   nonuniform List<scalar> 
1800
(
0.00141526
0.00141531
0.00141523
0.00779541
0.00779566
0.00779542
0.00946186
0.00946207
0.00946185
0.0106579
0.0106581
0.0106579
0.0116219
0.0116221
0.0116219
0.0124311
0.0124312
0.0124311
0.013136
0.0131362
0.013136
0.0137737
0.0137738
0.0137737
0.0143689
0.014369
0.0143689
0.0149318
0.0149319
0.0149319
0.015457
0.0154571
0.015457
0.0159245
0.0159245
0.0159244
0.0163068
0.0163068
0.0163068
0.0165804
0.0165803
0.0165803
0.0167294
0.0167293
0.0167292
0.0167293
0.0167292
0.0167292
0.0165801
0.0165801
0.01658
0.0163064
0.0163064
0.0163064
0.0159239
0.015924
0.0159239
0.0154565
0.0154565
0.0154565
0.0149313
0.0149314
0.0149314
0.0143683
0.0143684
0.0143684
0.013773
0.0137732
0.0137731
0.0131353
0.0131354
0.0131353
0.0124302
0.0124304
0.0124302
0.011621
0.0116212
0.011621
0.010657
0.0106571
0.0106569
0.00946085
0.00946107
0.00946084
0.00779452
0.00779477
0.00779453
0.00141508
0.00141515
0.00141507
0.000336877
0.000336872
0.000336871
0.00527312
0.00527309
0.00527308
0.00655112
0.00655108
0.00655109
0.00747949
0.00747943
0.00747946
0.00821115
0.00821108
0.00821112
0.00881167
0.00881159
0.00881166
0.00932479
0.00932471
0.00932479
0.00978165
0.00978159
0.00978165
0.010203
0.0102029
0.010203
0.0105985
0.0105984
0.0105985
0.0109659
0.0109657
0.0109659
0.0112923
0.0112922
0.0112923
0.0115594
0.0115593
0.0115594
0.0117508
0.0117507
0.0117508
0.0118552
0.0118551
0.0118552
0.0118552
0.011855
0.0118551
0.0117506
0.0117505
0.0117506
0.0115591
0.011559
0.0115591
0.011292
0.0112918
0.011292
0.0109655
0.0109654
0.0109655
0.0105981
0.010598
0.0105981
0.0102026
0.0102026
0.0102026
0.00978126
0.0097812
0.00978125
0.00932433
0.00932428
0.00932433
0.00881116
0.0088111
0.00881115
0.00821063
0.00821055
0.00821061
0.00747897
0.0074789
0.00747894
0.00655062
0.00655058
0.00655059
0.00527268
0.00527267
0.00527265
0.00033683
0.000336825
0.000336825
0.000391525
0.000391525
0.000391519
0.00374364
0.00374366
0.00374362
0.00456712
0.00456713
0.0045671
0.0052275
0.00522751
0.00522748
0.00576287
0.00576288
0.00576286
0.00620611
0.00620612
0.0062061
0.0065854
0.0065854
0.0065854
0.00692276
0.00692276
0.00692276
0.00723353
0.00723353
0.00723353
0.00752509
0.00752509
0.0075251
0.00779608
0.00779606
0.00779608
0.00803706
0.00803705
0.00803706
0.00823441
0.0082344
0.00823441
0.00837592
0.00837589
0.0083759
0.00845315
0.00845312
0.00845313
0.00845312
0.00845307
0.00845309
0.00837578
0.00837576
0.00837577
0.00823422
0.0082342
0.00823421
0.00803682
0.00803681
0.00803682
0.0077958
0.00779579
0.0077958
0.00752484
0.00752483
0.00752484
0.00723327
0.00723328
0.00723327
0.00692247
0.00692248
0.00692247
0.00658507
0.00658508
0.00658506
0.00620575
0.00620576
0.00620575
0.0057625
0.00576251
0.00576249
0.00522713
0.00522713
0.00522711
0.00456677
0.00456678
0.00456674
0.00374332
0.00374335
0.0037433
0.000391469
0.00039147
0.000391464
0.000513875
0.000513859
0.000513869
0.00282702
0.00282707
0.002827
0.00336647
0.00336651
0.00336645
0.00383678
0.00383681
0.00383676
0.00423667
0.00423672
0.00423666
0.00457348
0.00457353
0.00457347
0.00486299
0.00486304
0.00486298
0.00512028
0.00512034
0.00512028
0.00535679
0.00535685
0.00535679
0.00557829
0.00557834
0.00557829
0.00578397
0.00578403
0.00578398
0.00596687
0.00596692
0.00596687
0.00611668
0.00611673
0.00611668
0.00622411
0.00622415
0.0062241
0.00628273
0.00628277
0.00628272
0.0062827
0.00628274
0.00628268
0.006224
0.00622405
0.00622399
0.00611653
0.00611658
0.00611653
0.00596669
0.00596674
0.00596669
0.00578377
0.00578382
0.00578377
0.00557809
0.00557815
0.0055781
0.00535659
0.00535665
0.00535659
0.00512007
0.00512012
0.00512006
0.00486274
0.00486279
0.00486274
0.00457321
0.00457326
0.00457321
0.0042364
0.00423644
0.00423638
0.0038365
0.00383654
0.00383648
0.00336619
0.00336623
0.00336617
0.00282677
0.00282682
0.00282675
0.000513802
0.000513787
0.000513796
0.000653039
0.000653043
0.000653032
0.00204487
0.00204487
0.00204486
0.00228022
0.0022802
0.0022802
0.0025539
0.00255388
0.00255389
0.00281505
0.00281502
0.00281504
0.00304601
0.00304598
0.003046
0.00324825
0.00324821
0.00324824
0.00342867
0.00342863
0.00342866
0.00359414
0.00359411
0.00359414
0.00374863
0.00374859
0.00374863
0.00389176
0.00389172
0.00389176
0.00401891
0.00401886
0.00401891
0.00412305
0.004123
0.00412305
0.0041978
0.00419774
0.0041978
0.00423864
0.00423858
0.00423863
0.00423862
0.00423856
0.00423861
0.00419773
0.00419767
0.00419773
0.00412295
0.0041229
0.00412295
0.00401878
0.00401873
0.00401878
0.00389162
0.00389157
0.00389162
0.00374849
0.00374846
0.00374849
0.00359401
0.00359398
0.00359401
0.00342851
0.00342848
0.00342851
0.00324808
0.00324805
0.00324807
0.00304582
0.00304579
0.00304581
0.00281486
0.00281483
0.00281484
0.00255371
0.00255368
0.00255369
0.00228002
0.00228
0.00228
0.00204467
0.00204467
0.00204466
0.000652941
0.000652947
0.000652935
0.000749029
0.000749042
0.000749022
0.00172922
0.00172922
0.0017292
0.00181608
0.00181608
0.00181606
0.00199362
0.00199362
0.00199361
0.00218476
0.00218476
0.00218475
0.00236316
0.00236316
0.00236315
0.00252317
0.00252317
0.00252316
0.00266706
0.00266706
0.00266705
0.00279907
0.00279908
0.00279907
0.00292208
0.00292208
0.00292208
0.0030358
0.0030358
0.00303581
0.00313669
0.00313669
0.00313669
0.00321923
0.00321923
0.00321923
0.00327843
0.00327843
0.00327843
0.00331077
0.00331076
0.00331076
0.00331075
0.00331074
0.00331074
0.00327838
0.00327837
0.00327838
0.00321915
0.00321915
0.00321915
0.00313659
0.00313658
0.00313659
0.00303569
0.00303568
0.00303569
0.00292197
0.00292197
0.00292197
0.00279897
0.00279897
0.00279896
0.00266694
0.00266694
0.00266693
0.00252303
0.00252303
0.00252302
0.00236301
0.00236301
0.002363
0.00218461
0.00218461
0.0021846
0.00199346
0.00199346
0.00199345
0.00181591
0.00181591
0.0018159
0.00172904
0.00172904
0.00172902
0.000748912
0.000748927
0.000748907
0.000888566
0.000888575
0.00088856
0.00149625
0.00149626
0.00149624
0.0015255
0.0015255
0.00152548
0.00163372
0.00163372
0.0016337
0.00177263
0.00177263
0.00177262
0.00191247
0.00191246
0.00191246
0.00204263
0.00204263
0.00204263
0.00216157
0.00216157
0.00216156
0.00227115
0.00227116
0.00227115
0.00237316
0.00237317
0.00237316
0.00246729
0.00246729
0.00246729
0.00255063
0.00255063
0.00255063
0.00261877
0.00261876
0.00261877
0.0026676
0.0026676
0.0026676
0.00269427
0.00269427
0.00269427
0.00269426
0.00269425
0.00269425
0.00266756
0.00266755
0.00266756
0.0026187
0.00261869
0.0026187
0.00255054
0.00255054
0.00255055
0.00246719
0.00246719
0.00246719
0.00237307
0.00237308
0.00237307
0.00227106
0.00227107
0.00227105
0.00216146
0.00216146
0.00216146
0.00204252
0.00204251
0.00204251
0.00191234
0.00191234
0.00191233
0.0017725
0.0017725
0.00177249
0.00163358
0.00163358
0.00163357
0.00152535
0.00152535
0.00152533
0.00149608
0.00149609
0.00149607
0.000888427
0.000888437
0.000888422
0.00102561
0.00102561
0.0010256
0.00130987
0.00130989
0.00130986
0.00128528
0.00128529
0.00128526
0.00133473
0.00133474
0.00133472
0.00142565
0.00142567
0.00142564
0.0015291
0.00152911
0.00152909
0.00163141
0.00163143
0.00163141
0.00172767
0.00172769
0.00172766
0.00181733
0.00181736
0.00181732
0.00190093
0.00190096
0.00190093
0.00197794
0.00197797
0.00197794
0.00204598
0.00204601
0.00204598
0.00210151
0.00210153
0.00210151
0.00214126
0.00214128
0.00214126
0.00216294
0.00216297
0.00216293
0.00216293
0.00216295
0.00216292
0.00214122
0.00214125
0.00214122
0.00210145
0.00210148
0.00210145
0.00204591
0.00204594
0.00204591
0.00197786
0.00197789
0.00197786
0.00190085
0.00190089
0.00190085
0.00181725
0.00181728
0.00181724
0.00172758
0.0017276
0.00172757
0.00163131
0.00163133
0.00163131
0.00152899
0.00152901
0.00152898
0.00142554
0.00142555
0.00142553
0.00133461
0.00133462
0.0013346
0.00128515
0.00128516
0.00128513
0.00130972
0.00130974
0.0013097
0.00102545
0.00102545
0.00102544
0.00120114
0.00120119
0.00120113
0.00111953
0.00111951
0.00111952
0.00102829
0.00102826
0.00102828
0.00101866
0.00101862
0.00101865
0.00105526
0.00105522
0.00105525
0.00111514
0.00111509
0.00111513
0.0011841
0.00118405
0.0011841
0.00125415
0.0012541
0.00125414
0.00132172
0.00132167
0.00132172
0.00138547
0.00138542
0.00138547
0.00144425
0.00144419
0.00144426
0.00149607
0.001496
0.00149607
0.00153826
0.00153819
0.00153826
0.00156846
0.00156838
0.00156846
0.00158496
0.00158489
0.00158495
0.00158495
0.00158488
0.00158494
0.00156843
0.00156836
0.00156843
0.00153821
0.00153815
0.00153822
0.00149601
0.00149595
0.00149601
0.00144419
0.00144413
0.00144419
0.00138541
0.00138536
0.00138541
0.00132166
0.00132161
0.00132165
0.00125407
0.00125402
0.00125406
0.00118402
0.00118397
0.00118401
0.00111505
0.00111501
0.00111504
0.00105516
0.00105512
0.00105515
0.00101856
0.00101852
0.00101855
0.00102818
0.00102815
0.00102817
0.00111939
0.00111936
0.00111937
0.00120094
0.001201
0.00120094
0.00132033
0.00132038
0.00132033
0.00101697
0.00101696
0.00101696
0.000895439
0.000895422
0.000895427
0.000858797
0.000858779
0.000858786
0.000866313
0.000866294
0.000866304
0.000900361
0.00090034
0.000900351
0.000948594
0.000948572
0.000948585
0.00100242
0.0010024
0.00100241
0.00105678
0.00105676
0.00105677
0.00110905
0.00110903
0.00110905
0.00115749
0.00115747
0.0011575
0.00120015
0.00120012
0.00120015
0.00123478
0.00123475
0.00123478
0.00125948
0.00125946
0.00125949
0.00127295
0.00127293
0.00127295
0.00127294
0.00127292
0.00127295
0.00125946
0.00125944
0.00125946
0.00123474
0.00123472
0.00123474
0.0012001
0.00120007
0.00120011
0.00115744
0.00115741
0.00115744
0.001109
0.00110897
0.001109
0.00105672
0.0010567
0.00105672
0.00100236
0.00100233
0.00100235
0.000948523
0.000948501
0.000948514
0.000900285
0.000900264
0.000900276
0.000866232
0.000866212
0.000866222
0.000858707
0.000858689
0.000858696
0.000895334
0.000895317
0.000895321
0.00101684
0.00101682
0.00101682
0.00132012
0.00132017
0.00132012
0.00143372
0.00143376
0.00143372
0.000928399
0.000928389
0.000928387
0.000789173
0.000789164
0.000789161
0.000736033
0.000736024
0.000736022
0.000722558
0.000722549
0.000722548
0.000735844
0.000735836
0.000735835
0.000766399
0.000766392
0.00076639
0.000806212
0.000806205
0.000806204
0.000849421
0.000849415
0.000849416
0.000892345
0.000892342
0.000892344
0.000932581
0.000932579
0.000932584
0.000968051
0.000968049
0.000968055
0.000996761
0.000996759
0.000996765
0.00101717
0.00101717
0.00101717
0.00102825
0.00102826
0.00102826
0.00102825
0.00102825
0.00102825
0.00101715
0.00101715
0.00101715
0.000996731
0.000996729
0.000996735
0.000968011
0.000968009
0.000968015
0.000932534
0.000932532
0.000932536
0.000892299
0.000892296
0.000892298
0.000849373
0.000849368
0.000849368
0.000806157
0.00080615
0.000806149
0.000766338
0.00076633
0.000766329
0.000735777
0.000735768
0.000735768
0.000722484
0.000722476
0.000722474
0.00073595
0.000735942
0.000735939
0.000789076
0.000789068
0.000789064
0.000928266
0.000928258
0.000928255
0.00143349
0.00143352
0.00143349
0.00152964
0.00152968
0.00152964
0.00085627
0.000856264
0.00085626
0.000703654
0.000703648
0.000703644
0.000641232
0.000641224
0.000641221
0.000613766
0.000613759
0.000613757
0.000611213
0.000611206
0.000611204
0.000627088
0.000627081
0.000627079
0.00065482
0.000654815
0.000654812
0.000688506
0.000688503
0.000688501
0.000723732
0.000723733
0.000723731
0.000757445
0.000757445
0.000757447
0.00078731
0.000787312
0.000787314
0.000811432
0.000811436
0.000811438
0.000828512
0.000828514
0.000828516
0.00083777
0.000837772
0.000837776
0.000837765
0.000837767
0.00083777
0.000828495
0.000828498
0.0008285
0.000811407
0.000811411
0.000811412
0.000787276
0.000787279
0.000787281
0.000757404
0.000757405
0.000757406
0.000723692
0.000723692
0.000723691
0.000688464
0.000688461
0.000688458
0.000654772
0.000654767
0.000654764
0.000627034
0.000627027
0.000627024
0.000611153
0.000611145
0.000611143
0.0006137
0.000613692
0.00061369
0.000641156
0.000641149
0.000641145
0.000703564
0.000703558
0.000703552
0.000856143
0.000856138
0.000856132
0.0015294
0.00152943
0.0015294
0.00156902
0.00156909
0.00156902
0.000830516
0.000830476
0.000830507
0.000633688
0.000633678
0.000633678
0.000563097
0.000563089
0.000563087
0.000526473
0.000526465
0.000526463
0.000511921
0.000511913
0.000511911
0.000515281
0.000515274
0.000515272
0.000531933
0.000531928
0.000531925
0.000556696
0.000556693
0.000556691
0.00058489
0.000584891
0.00058489
0.000612895
0.000612897
0.000612898
0.000638015
0.00063802
0.00063802
0.000658314
0.00065832
0.000658321
0.000672634
0.000672639
0.000672641
0.000680371
0.000680376
0.000680377
0.000680366
0.000680372
0.000680373
0.000672621
0.000672626
0.000672627
0.000658293
0.000658299
0.0006583
0.000637987
0.000637992
0.000637992
0.000612861
0.000612863
0.000612863
0.000584855
0.000584856
0.000584854
0.000556659
0.000556656
0.000556654
0.000531892
0.000531886
0.000531884
0.000515233
0.000515226
0.000515224
0.000511867
0.000511859
0.000511856
0.000526413
0.000526404
0.000526402
0.000563027
0.000563019
0.000563017
0.000633602
0.000633591
0.000633591
0.000830388
0.000830349
0.000830378
0.00156877
0.00156885
0.00156877
0.00159957
0.00159972
0.00159957
0.000813752
0.000813652
0.000813745
0.00056989
0.000569875
0.00056988
0.000492049
0.000492043
0.000492038
0.000449892
0.000449887
0.000449881
0.000426827
0.000426822
0.000426816
0.000419932
0.000419929
0.000419922
0.000426533
0.000426534
0.000426525
0.000442695
0.0004427
0.00044269
0.000464019
0.00046403
0.000464019
0.000486575
0.000486587
0.000486577
0.000507301
0.000507317
0.000507307
0.000524122
0.00052414
0.00052413
0.000535941
0.000535959
0.000535949
0.000542295
0.000542313
0.000542302
0.000542291
0.000542309
0.000542299
0.00053593
0.000535949
0.000535938
0.000524105
0.000524123
0.000524112
0.000507279
0.000507294
0.000507284
0.000486546
0.000486559
0.000486549
0.000463989
0.000463999
0.000463988
0.000442664
0.000442668
0.000442659
0.000426498
0.000426498
0.000426489
0.00041989
0.000419888
0.00041988
0.000426778
0.000426774
0.000426767
0.000449837
0.000449831
0.000449825
0.000491983
0.000491977
0.000491972
0.000569807
0.000569792
0.000569796
0.000813622
0.000813523
0.000813615
0.00159931
0.00159947
0.00159932
0.0016268
0.00162706
0.0016268
0.000804
0.000803825
0.000803995
0.00051298
0.00051296
0.000512971
0.000427296
0.000427296
0.000427286
0.000382152
0.000382154
0.00038214
0.00035399
0.000353993
0.000353978
0.00033963
0.000339636
0.000339619
0.000337824
0.000337834
0.000337815
0.000346065
0.000346082
0.00034606
0.000360738
0.000360762
0.000360738
0.000378011
0.000378039
0.000378014
0.000394593
0.000394627
0.0003946
0.000408217
0.000408253
0.000408225
0.000417764
0.000417802
0.000417773
0.000422863
0.000422901
0.000422871
0.00042286
0.000422898
0.000422869
0.000417755
0.000417793
0.000417764
0.000408204
0.00040824
0.000408211
0.000394575
0.000394608
0.000394581
0.000377987
0.000378016
0.00037799
0.000360712
0.000360736
0.000360712
0.000346038
0.000346056
0.000346033
0.000337794
0.000337805
0.000337786
0.000339594
0.0003396
0.000339584
0.000353947
0.00035395
0.000353936
0.000382101
0.000382103
0.000382089
0.000427235
0.000427234
0.000427224
0.0005129
0.000512879
0.00051289
0.00080387
0.000803695
0.000803864
0.00162655
0.00162681
0.00162655
0.00167181
0.00167229
0.00167182
0.000798155
0.000797866
0.00079815
0.000441025
0.000440944
0.000441016
0.000340312
0.000340262
0.000340301
0.000292954
0.000292908
0.000292942
0.000262742
0.000262696
0.00026273
0.00024329
0.000243243
0.000243279
0.000233739
0.00023369
0.000233731
0.000233155
0.000233105
0.000233151
0.000239482
0.000239432
0.000239482
0.000249814
0.000249761
0.000249817
0.000261071
0.000261017
0.000261077
0.000270826
0.000270771
0.000270833
0.000277813
0.000277757
0.000277822
0.000281584
0.000281526
0.000281593
0.000281582
0.000281525
0.000281591
0.000277808
0.000277752
0.000277817
0.000270816
0.000270762
0.000270824
0.000261058
0.000261004
0.000261064
0.000249797
0.000249745
0.0002498
0.000239464
0.000239413
0.000239464
0.000233137
0.000233088
0.000233133
0.000233719
0.00023367
0.00023371
0.000243264
0.000243216
0.000243253
0.000262708
0.000262662
0.000262695
0.000292912
0.000292865
0.000292899
0.000340256
0.000340205
0.000340244
0.000440947
0.000440866
0.000440937
0.000798023
0.000797736
0.000798018
0.00167156
0.00167204
0.00167156
0.00170398
0.00170454
0.00170398
0.000804556
0.000804221
0.00080455
0.000403656
0.000403568
0.000403646
0.000289764
0.000289718
0.000289751
0.000240276
0.000240238
0.000240263
0.00021043
0.000210395
0.000210418
0.000190342
0.000190307
0.000190331
0.000178112
0.000178078
0.000178104
0.000173104
0.000173072
0.0001731
0.000174211
0.000174178
0.00017421
0.000179558
0.000179526
0.000179561
0.000186747
0.000186715
0.000186753
0.000193531
0.000193499
0.000193539
0.00019856
0.000198527
0.000198569
0.000201303
0.000201269
0.000201312
0.000201302
0.000201268
0.000201311
0.000198556
0.000198523
0.000198565
0.000193525
0.000193492
0.000193532
0.000186738
0.000186706
0.000186743
0.000179547
0.000179515
0.00017955
0.000174199
0.000174167
0.000174198
0.000173093
0.000173061
0.000173089
0.000178098
0.000178064
0.00017809
0.000190322
0.000190287
0.00019031
0.000210402
0.000210366
0.000210389
0.000240237
0.000240199
0.000240224
0.00028971
0.000289663
0.000289697
0.000403578
0.000403491
0.000403567
0.000804423
0.000804088
0.000804419
0.00170372
0.00170429
0.00170373
0.00174816
0.00174873
0.00174817
0.000809651
0.000809317
0.000809647
0.000374261
0.000374173
0.000374249
0.000246618
0.000246576
0.000246604
0.000194493
0.000194462
0.000194479
0.000165919
0.000165892
0.000165905
0.000147172
0.000147147
0.000147161
0.000134585
0.000134562
0.000134576
0.00012715
0.000127129
0.000127145
0.00012431
0.000124292
0.000124309
0.00012522
0.000125204
0.000125222
0.000128473
0.000128458
0.000128478
0.000132349
0.000132334
0.000132355
0.000135522
0.000135507
0.000135529
0.00013733
0.000137315
0.000137338
0.000137329
0.000137315
0.000137338
0.00013552
0.000135505
0.000135527
0.000132344
0.00013233
0.000132351
0.000128468
0.000128453
0.000128473
0.000125215
0.000125199
0.000125217
0.000124306
0.000124288
0.000124305
0.000127146
0.000127126
0.000127141
0.000134577
0.000134554
0.000134568
0.000147158
0.000147132
0.000147145
0.000165895
0.000165867
0.000165881
0.000194458
0.000194425
0.000194442
0.000246564
0.000246521
0.000246549
0.000374182
0.000374094
0.00037417
0.000809517
0.000809183
0.000809512
0.0017479
0.00174847
0.0017479
0.00181641
0.00181682
0.00181641
0.000801413
0.000801159
0.000801407
0.000350372
0.000350302
0.000350359
0.000211911
0.000211875
0.000211895
0.00015754
0.000157514
0.000157524
0.000130734
0.000130712
0.000130719
0.000114404
0.000114385
0.000114391
0.000103001
0.000102985
0.000102991
9.48362e-05
9.48238e-05
9.48296e-05
8.95437e-05
8.95349e-05
8.95413e-05
8.7049e-05
8.70434e-05
8.70505e-05
8.69454e-05
8.69413e-05
8.69491e-05
8.82453e-05
8.82425e-05
8.82508e-05
8.98034e-05
8.98013e-05
8.981e-05
9.08267e-05
9.08248e-05
9.0834e-05
9.08264e-05
9.08246e-05
9.08336e-05
8.98026e-05
8.98003e-05
8.9809e-05
8.82441e-05
8.82412e-05
8.82495e-05
8.69449e-05
8.6941e-05
8.69487e-05
8.70508e-05
8.7045e-05
8.70522e-05
8.9548e-05
8.95393e-05
8.95457e-05
9.48399e-05
9.48273e-05
9.48331e-05
0.000102999
0.000102983
0.000102988
0.000114394
0.000114375
0.000114381
0.000130713
0.000130691
0.000130698
0.000157504
0.000157477
0.000157488
0.000211854
0.000211818
0.000211838
0.000350291
0.00035022
0.000350278
0.00080128
0.000801027
0.000801275
0.00181612
0.00181654
0.00181613
0.00193623
0.00193634
0.00193622
0.000750385
0.000750311
0.000750377
0.000325932
0.000325903
0.000325918
0.000187321
0.000187298
0.000187303
0.000133379
0.000133358
0.000133361
0.000108683
0.000108664
0.000108666
9.46905e-05
9.46747e-05
9.46756e-05
8.47744e-05
8.47613e-05
8.47623e-05
7.67875e-05
7.67782e-05
7.67791e-05
7.04188e-05
7.04139e-05
7.04149e-05
6.60233e-05
6.60224e-05
6.60236e-05
6.38497e-05
6.38516e-05
6.38529e-05
6.3493e-05
6.34969e-05
6.34981e-05
6.40129e-05
6.40183e-05
6.40195e-05
6.45424e-05
6.45486e-05
6.455e-05
6.45424e-05
6.45485e-05
6.45499e-05
6.40129e-05
6.40182e-05
6.40195e-05
6.34938e-05
6.34977e-05
6.3499e-05
6.38527e-05
6.38548e-05
6.3856e-05
6.603e-05
6.60291e-05
6.60303e-05
7.04291e-05
7.04242e-05
7.04252e-05
7.67958e-05
7.67863e-05
7.67873e-05
8.47757e-05
8.47625e-05
8.47634e-05
9.46824e-05
9.46663e-05
9.46673e-05
0.000108662
0.000108644
0.000108645
0.000133341
0.00013332
0.000133323
0.000187261
0.000187237
0.000187243
0.000325849
0.00032582
0.000325835
0.000750264
0.00075019
0.000750257
0.00193592
0.00193602
0.00193592
)
;

boundaryField
{
    freeSurface
    {
        type            slip;
    }
    inlet
    {
        type            cyclic;
    }
    outlet
    {
        type            cyclic;
    }
    sidewalls
    {
        type            epsilonWallFunction;
        Cmu             0.09;
        kappa           0.41;
        E               9.8;
        value           nonuniform List<scalar> 
120
(
0.00174461
0.000292548
0.000363111
0.000443725
0.000636445
0.00074772
0.000866865
0.000990934
0.00123734
0.00135076
0.00145297
0.00154261
0.00162041
0.00168872
0.00175059
0.00186453
0.00191791
0.00196691
0.00200766
0.00203344
0.00174461
0.00029255
0.000363114
0.00044373
0.000636455
0.000747733
0.000866882
0.000990953
0.00123737
0.00135079
0.001453
0.00154264
0.00162043
0.00168874
0.00175061
0.00186454
0.00191792
0.00196692
0.00200766
0.00203345
0.00174458
0.000292543
0.000363105
0.000443719
0.000636439
0.000747713
0.000866859
0.000990927
0.00123734
0.00135076
0.00145297
0.00154261
0.00162041
0.00168872
0.0017506
0.00186454
0.00191791
0.00196692
0.00200766
0.00203344
0.0017444
0.000292505
0.000363057
0.000443659
0.000636348
0.000747603
0.000866728
0.000990774
0.00123714
0.00135054
0.00145273
0.00154236
0.00162015
0.00168845
0.00175032
0.00186425
0.00191762
0.00196661
0.00200734
0.00203312
0.00174441
0.000292507
0.000363061
0.000443665
0.000636359
0.000747618
0.000866746
0.000990796
0.00123717
0.00135057
0.00145276
0.00154239
0.00162018
0.00168848
0.00175034
0.00186427
0.00191763
0.00196662
0.00200735
0.00203312
0.00174438
0.0002925
0.000363052
0.000443654
0.000636342
0.000747598
0.000866723
0.00099077
0.00123714
0.00135054
0.00145273
0.00154236
0.00162015
0.00168846
0.00175033
0.00186426
0.00191763
0.00196662
0.00200735
0.00203312
)
;
    }
    noSlipWalls
    {
        type            epsilonWallFunction;
        Cmu             0.09;
        kappa           0.41;
        E               9.8;
        value           nonuniform List<scalar> 
90
(
0.00174461
0.00812926
0.00973289
0.0109293
0.0119065
0.0127343
0.0134603
0.0141203
0.0147387
0.0153251
0.0158731
0.0163612
0.0167605
0.0170463
0.017202
0.0172019
0.017046
0.0167601
0.0163606
0.0158725
0.0153246
0.0147381
0.0141196
0.0134595
0.0127334
0.0119055
0.0109282
0.00973176
0.00812824
0.0017444
0.00174461
0.00812951
0.0097331
0.0109295
0.0119067
0.0127344
0.0134604
0.0141204
0.0147388
0.0153252
0.0158731
0.0163611
0.0167604
0.0170461
0.0172018
0.0172017
0.0170459
0.01676
0.0163606
0.0158725
0.0153246
0.0147382
0.0141198
0.0134596
0.0127335
0.0119057
0.0109284
0.00973198
0.0081285
0.00174441
0.00174458
0.00812929
0.00973289
0.0109293
0.0119065
0.0127343
0.0134603
0.0141204
0.0147387
0.0153252
0.0158731
0.0163611
0.0167605
0.0170462
0.0172018
0.0172017
0.0170459
0.0167601
0.0163606
0.0158725
0.0153247
0.0147382
0.0141197
0.0134595
0.0127334
0.0119055
0.0109282
0.00973176
0.00812828
0.00174438
)
;
    }
}


// ************************************************************************* //
