/*--------------------------------*- C++ -*----------------------------------*\
  =========                 |
  \\      /  F ield         | OpenFOAM: The Open Source CFD Toolbox
   \\    /   O peration     | Website:  https://openfoam.org
    \\  /    A nd           | Version:  6
     \\/     M anipulation  |
\*---------------------------------------------------------------------------*/
FoamFile
{
    version     2.0;
    format      ascii;
    class       volScalarField;
    location    "0";
    object      k;
}
// * * * * * * * * * * * * * * * * * * * * * * * * * * * * * * * * * * * * * //

dimensions      [0 2 -2 0 0 0 0];

internalField   nonuniform List<scalar> 
1800
(
0.000178091
0.000178089
0.000178089
0.000514862
0.000514855
0.000514864
0.000607542
0.00060753
0.000607542
0.000674435
0.000674421
0.000674435
0.000728266
0.000728249
0.000728266
0.000773409
0.000773391
0.000773411
0.000812698
0.000812679
0.0008127
0.000848194
0.000848173
0.000848196
0.000881273
0.000881248
0.000881275
0.000912504
0.000912475
0.000912505
0.00094158
0.00094155
0.00094158
0.000967404
0.000967373
0.000967404
0.000988505
0.000988467
0.000988498
0.0010036
0.00100356
0.00100359
0.00101182
0.00101179
0.00101182
0.00101182
0.00101178
0.00101181
0.00100358
0.00100354
0.00100358
0.000988483
0.000988448
0.00098848
0.000967378
0.000967344
0.000967377
0.000941548
0.000941518
0.000941548
0.000912476
0.000912447
0.000912479
0.000881244
0.000881219
0.000881246
0.000848158
0.000848136
0.000848162
0.000812655
0.000812635
0.000812659
0.000773362
0.000773341
0.000773363
0.000728213
0.000728196
0.000728213
0.000674376
0.000674365
0.000674376
0.000607482
0.00060747
0.000607482
0.000514807
0.000514801
0.000514809
0.000178071
0.000178069
0.000178069
0.0002652
0.000265201
0.000265197
0.000952135
0.000952159
0.000952139
0.00108617
0.00108619
0.00108617
0.00118162
0.00118163
0.00118162
0.00125808
0.0012581
0.00125809
0.00132171
0.00132172
0.00132172
0.00137666
0.00137668
0.00137666
0.00142596
0.00142597
0.00142596
0.00147161
0.00147162
0.00147161
0.00151446
0.00151446
0.00151446
0.00155415
0.00155415
0.00155415
0.00158923
0.00158923
0.00158922
0.00161776
0.00161775
0.00161775
0.00163808
0.00163807
0.00163807
0.00164911
0.0016491
0.0016491
0.0016491
0.00164909
0.00164909
0.00163806
0.00163805
0.00163805
0.00161773
0.00161773
0.00161772
0.00158919
0.00158919
0.00158919
0.00155411
0.0015541
0.00155411
0.00151442
0.00151442
0.00151442
0.00147157
0.00147158
0.00147157
0.0014259
0.00142592
0.00142591
0.0013766
0.00137662
0.00137661
0.00132164
0.00132166
0.00132165
0.00125801
0.00125802
0.00125801
0.00118153
0.00118155
0.00118153
0.00108608
0.00108611
0.00108609
0.00095205
0.000952074
0.000952054
0.000265174
0.000265174
0.000265171
0.00030862
0.000308621
0.000308617
0.00100995
0.00100998
0.00100996
0.00112977
0.00112979
0.00112977
0.00122222
0.00122223
0.00122222
0.0012988
0.00129881
0.0012988
0.00136366
0.00136367
0.00136366
0.00142027
0.00142029
0.00142028
0.0014714
0.00147141
0.0014714
0.00151896
0.00151896
0.00151896
0.00156372
0.00156372
0.00156372
0.00160524
0.00160524
0.00160524
0.00164196
0.00164196
0.00164196
0.00167183
0.00167182
0.00167182
0.00169309
0.00169308
0.00169308
0.00170465
0.00170463
0.00170463
0.00170464
0.00170463
0.00170463
0.00169307
0.00169306
0.00169306
0.0016718
0.00167179
0.00167179
0.00164192
0.00164192
0.00164192
0.0016052
0.00160519
0.0016052
0.00156368
0.00156368
0.00156368
0.00151892
0.00151892
0.00151892
0.00147134
0.00147135
0.00147135
0.00142021
0.00142022
0.00142021
0.00136358
0.0013636
0.00136359
0.00129871
0.00129873
0.00129872
0.00122212
0.00122214
0.00122212
0.00112967
0.00112969
0.00112967
0.00100985
0.00100988
0.00100986
0.00030859
0.000308591
0.000308587
0.000369312
0.000369309
0.00036931
0.00104054
0.00104057
0.00104055
0.00114945
0.00114947
0.00114945
0.00123376
0.00123378
0.00123376
0.00130681
0.00130683
0.00130681
0.00137033
0.00137034
0.00137033
0.00142667
0.00142669
0.00142668
0.00147808
0.00147809
0.00147808
0.0015262
0.00152621
0.0015262
0.00157166
0.00157166
0.00157166
0.0016139
0.0016139
0.0016139
0.00165129
0.00165128
0.00165129
0.0016817
0.00168169
0.00168169
0.00170336
0.00170334
0.00170334
0.00171511
0.0017151
0.00171509
0.0017151
0.00171509
0.00171509
0.00170334
0.00170332
0.00170332
0.00168167
0.00168166
0.00168166
0.00165125
0.00165124
0.00165124
0.00161386
0.00161385
0.00161386
0.00157162
0.00157162
0.00157163
0.00152616
0.00152616
0.00152616
0.00147802
0.00147803
0.00147803
0.0014266
0.00142662
0.00142661
0.00137025
0.00137026
0.00137025
0.00130672
0.00130674
0.00130672
0.00123366
0.00123368
0.00123366
0.00114933
0.00114936
0.00114934
0.00104043
0.00104046
0.00104044
0.000369276
0.000369272
0.000369273
0.000447147
0.00044715
0.000447144
0.00108525
0.00108529
0.00108526
0.00116962
0.00116965
0.00116962
0.00123814
0.00123817
0.00123815
0.00130247
0.00130249
0.00130247
0.00136152
0.00136153
0.00136152
0.00141579
0.0014158
0.00141579
0.00146644
0.00146645
0.00146644
0.00151451
0.00151452
0.00151452
0.00156028
0.00156028
0.00156029
0.00160297
0.00160297
0.00160297
0.00164081
0.0016408
0.0016408
0.00167159
0.00167158
0.00167158
0.00169349
0.00169347
0.00169347
0.00170538
0.00170536
0.00170536
0.00170537
0.00170535
0.00170535
0.00169347
0.00169345
0.00169345
0.00167156
0.00167155
0.00167155
0.00164076
0.00164076
0.00164076
0.00160292
0.00160292
0.00160292
0.00156025
0.00156025
0.00156025
0.00151447
0.00151448
0.00151448
0.00146638
0.00146639
0.00146639
0.00141571
0.00141573
0.00141572
0.00136144
0.00136145
0.00136144
0.00130237
0.00130239
0.00130237
0.00123803
0.00123805
0.00123803
0.0011695
0.00116953
0.0011695
0.00108513
0.00108516
0.00108513
0.000447101
0.000447104
0.000447098
0.000490123
0.000490129
0.000490121
0.00112037
0.00112041
0.00112038
0.00118147
0.0011815
0.00118147
0.00123769
0.00123772
0.00123769
0.00129397
0.001294
0.00129398
0.00134835
0.00134837
0.00134836
0.00140012
0.00140014
0.00140013
0.00144957
0.00144958
0.00144957
0.00149715
0.00149716
0.00149716
0.00154281
0.00154281
0.00154281
0.00158556
0.00158556
0.00158556
0.0016235
0.00162349
0.00162349
0.00165437
0.00165435
0.00165436
0.00167631
0.00167629
0.00167629
0.00168821
0.00168819
0.00168819
0.0016882
0.00168818
0.00168818
0.00167629
0.00167627
0.00167627
0.00165434
0.00165432
0.00165432
0.00162345
0.00162345
0.00162345
0.00158551
0.00158551
0.00158551
0.00154277
0.00154277
0.00154278
0.00149711
0.00149712
0.00149711
0.0014495
0.00144952
0.00144951
0.00140004
0.00140006
0.00140005
0.00134826
0.00134828
0.00134827
0.00129387
0.00129389
0.00129387
0.00123757
0.00123759
0.00123757
0.00118133
0.00118136
0.00118133
0.00112023
0.00112027
0.00112024
0.000490072
0.000490079
0.00049007
0.000556843
0.000556845
0.000556841
0.00112408
0.00112412
0.00112409
0.00119169
0.00119173
0.00119169
0.00123644
0.00123646
0.00123644
0.00128322
0.00128324
0.00128322
0.00133138
0.0013314
0.00133139
0.00137956
0.00137957
0.00137956
0.0014271
0.00142712
0.00142711
0.00147379
0.0014738
0.0014738
0.00151908
0.00151908
0.00151908
0.00156171
0.0015617
0.00156171
0.00159962
0.00159961
0.00159961
0.00163047
0.00163046
0.00163046
0.0016524
0.00165238
0.00165239
0.00166429
0.00166427
0.00166427
0.00166428
0.00166426
0.00166426
0.00165238
0.00165236
0.00165237
0.00163044
0.00163043
0.00163043
0.00159957
0.00159956
0.00159957
0.00156165
0.00156165
0.00156165
0.00151904
0.00151904
0.00151904
0.00147374
0.00147375
0.00147375
0.00142704
0.00142705
0.00142704
0.00137947
0.00137949
0.00137948
0.00133128
0.0013313
0.00133129
0.0012831
0.00128313
0.0012831
0.0012363
0.00123633
0.0012363
0.00119154
0.00119158
0.00119154
0.00112394
0.00112398
0.00112395
0.000556783
0.000556786
0.000556782
0.00062093
0.00062092
0.000620928
0.00112779
0.00112784
0.0011278
0.00120137
0.00120141
0.00120137
0.00123518
0.00123521
0.00123518
0.00127068
0.0012707
0.00127068
0.00131054
0.00131056
0.00131054
0.00135349
0.00135351
0.0013535
0.00139811
0.00139813
0.00139812
0.00144331
0.00144332
0.00144332
0.00148791
0.00148792
0.00148792
0.00153024
0.00153024
0.00153024
0.001568
0.001568
0.001568
0.00159877
0.00159875
0.00159876
0.00162062
0.0016206
0.0016206
0.00163245
0.00163243
0.00163243
0.00163244
0.00163243
0.00163242
0.00162059
0.00162058
0.00162058
0.00159874
0.00159872
0.00159872
0.00156796
0.00156795
0.00156795
0.00153019
0.00153018
0.00153019
0.00148787
0.00148788
0.00148787
0.00144326
0.00144327
0.00144327
0.00139804
0.00139806
0.00139805
0.0013534
0.00135342
0.00135341
0.00131043
0.00131045
0.00131044
0.00127055
0.00127058
0.00127055
0.00123503
0.00123506
0.00123503
0.00120121
0.00120125
0.00120121
0.00112764
0.00112769
0.00112765
0.000620861
0.000620853
0.00062086
0.00069716
0.000697162
0.000697159
0.00112893
0.00112899
0.00112894
0.00120957
0.00120961
0.00120957
0.00123232
0.00123235
0.00123232
0.00125115
0.00125117
0.00125115
0.00127649
0.0012765
0.00127649
0.00130929
0.0013093
0.00130929
0.00134779
0.0013478
0.0013478
0.00138972
0.00138972
0.00138972
0.00143274
0.00143273
0.00143274
0.00147434
0.00147433
0.00147434
0.00151174
0.00151173
0.00151174
0.00154228
0.00154226
0.00154227
0.00156397
0.00156394
0.00156394
0.00157571
0.00157567
0.00157568
0.0015757
0.00157566
0.00157567
0.00156394
0.00156392
0.00156392
0.00154225
0.00154222
0.00154224
0.0015117
0.00151169
0.00151169
0.00147428
0.00147427
0.00147428
0.00143269
0.00143269
0.0014327
0.00138967
0.00138967
0.00138967
0.00134772
0.00134773
0.00134772
0.00130919
0.0013092
0.00130919
0.00127637
0.00127638
0.00127637
0.00125101
0.00125103
0.00125101
0.00123217
0.0012322
0.00123216
0.0012094
0.00120943
0.0012094
0.00112878
0.00112883
0.00112879
0.000697082
0.000697085
0.000697082
0.000740466
0.000740467
0.000740465
0.00112175
0.0011218
0.00112176
0.00120904
0.00120907
0.00120904
0.00122812
0.00122815
0.00122811
0.00123619
0.00123622
0.00123619
0.00125004
0.00125005
0.00125003
0.00127371
0.00127372
0.00127371
0.00130617
0.00130619
0.00130618
0.00134461
0.00134462
0.00134462
0.00138581
0.0013858
0.00138581
0.00142649
0.00142647
0.00142648
0.00146339
0.00146337
0.00146338
0.00149359
0.00149357
0.00149358
0.00151503
0.001515
0.00151501
0.00152662
0.00152659
0.00152659
0.00152661
0.00152658
0.00152659
0.001515
0.00151498
0.00151498
0.00149356
0.00149353
0.00149354
0.00146334
0.00146333
0.00146334
0.00142643
0.00142642
0.00142643
0.00138576
0.00138576
0.00138576
0.00134456
0.00134457
0.00134456
0.0013061
0.00130611
0.0013061
0.0012736
0.00127361
0.0012736
0.00124991
0.00124992
0.00124991
0.00123604
0.00123606
0.00123604
0.00122794
0.00122797
0.00122794
0.00120885
0.00120888
0.00120885
0.00112159
0.00112164
0.0011216
0.000740383
0.000740385
0.000740383
0.000770874
0.000770881
0.000770874
0.00111007
0.0011101
0.00111008
0.0012018
0.00120184
0.00120181
0.00122047
0.0012205
0.00122046
0.00121984
0.00121987
0.00121984
0.00122227
0.00122228
0.00122226
0.00123574
0.00123575
0.00123574
0.00126088
0.0012609
0.00126089
0.00129484
0.00129485
0.00129484
0.00133357
0.00133357
0.00133357
0.00137297
0.00137296
0.00137297
0.00140917
0.00140916
0.00140916
0.0014389
0.00143888
0.00143889
0.00146001
0.00145999
0.00145999
0.00147141
0.00147138
0.00147139
0.0014714
0.00147138
0.00147138
0.00145999
0.00145997
0.00145997
0.00143887
0.00143885
0.00143886
0.00140912
0.00140911
0.00140911
0.00137291
0.0013729
0.00137291
0.00133352
0.00133352
0.00133352
0.00129478
0.00129479
0.00129478
0.0012608
0.00126081
0.0012608
0.00123562
0.00123563
0.00123562
0.00122212
0.00122214
0.00122212
0.00121968
0.0012197
0.00121967
0.00122028
0.00122031
0.00122028
0.00120161
0.00120164
0.00120161
0.0011099
0.00110994
0.00110991
0.000770789
0.000770796
0.000770789
0.000797932
0.00079794
0.000797931
0.00108774
0.00108777
0.00108774
0.00118521
0.00118524
0.00118521
0.00120716
0.00120719
0.00120715
0.00120105
0.00120107
0.00120104
0.0011932
0.00119322
0.0011932
0.00119598
0.00119599
0.00119598
0.00121261
0.00121263
0.00121261
0.00124095
0.00124096
0.00124095
0.00127642
0.00127643
0.00127642
0.00131407
0.00131406
0.00131407
0.00134929
0.00134928
0.00134928
0.00137841
0.00137839
0.0013784
0.00139909
0.00139907
0.00139907
0.00141026
0.00141023
0.00141023
0.00141025
0.00141022
0.00141023
0.00139907
0.00139905
0.00139905
0.00137838
0.00137836
0.00137836
0.00134924
0.00134923
0.00134923
0.00131401
0.001314
0.00131401
0.00127638
0.00127638
0.00127638
0.00124089
0.0012409
0.00124089
0.00121252
0.00121253
0.00121252
0.00119585
0.00119586
0.00119585
0.00119305
0.00119307
0.00119304
0.00120087
0.00120089
0.00120086
0.00120696
0.00120699
0.00120695
0.001185
0.00118504
0.00118501
0.00108756
0.0010876
0.00108757
0.000797845
0.000797854
0.000797845
0.000834607
0.000834602
0.000834607
0.00104941
0.00104945
0.00104942
0.00115333
0.00115336
0.00115333
0.00118294
0.00118297
0.00118294
0.00117597
0.001176
0.00117597
0.00116015
0.00116017
0.00116015
0.00115208
0.0011521
0.00115208
0.00115864
0.00115866
0.00115864
0.00117952
0.00117953
0.00117952
0.00121028
0.00121028
0.00121028
0.00124522
0.00124521
0.00124522
0.00127891
0.0012789
0.00127891
0.00130711
0.0013071
0.0013071
0.0013272
0.00132718
0.00132718
0.00133805
0.00133802
0.00133802
0.00133804
0.00133802
0.00133802
0.00132718
0.00132716
0.00132716
0.00130707
0.00130706
0.00130706
0.00127886
0.00127885
0.00127885
0.00124516
0.00124515
0.00124515
0.00121023
0.00121023
0.00121023
0.00117946
0.00117947
0.00117946
0.00115854
0.00115856
0.00115854
0.00115194
0.00115196
0.00115194
0.00115998
0.00116
0.00115998
0.00117578
0.0011758
0.00117577
0.00118272
0.00118276
0.00118272
0.00115311
0.00115315
0.00115312
0.00104924
0.00104928
0.00104925
0.000834514
0.00083451
0.000834515
0.000861563
0.000861541
0.000861563
0.00101249
0.00101253
0.00101249
0.00111086
0.00111091
0.00111087
0.00114676
0.0011468
0.00114676
0.00114157
0.00114161
0.00114157
0.00112027
0.00112029
0.00112026
0.0011021
0.00110211
0.0011021
0.00109768
0.00109769
0.00109767
0.00110937
0.00110938
0.00110937
0.00113372
0.00113374
0.00113372
0.0011647
0.00116471
0.00116469
0.00119607
0.00119608
0.00119607
0.00122288
0.00122287
0.00122287
0.0012421
0.0012421
0.00124208
0.00125249
0.00125248
0.00125246
0.00125248
0.00125248
0.00125246
0.00124208
0.00124207
0.00124206
0.00122284
0.00122284
0.00122283
0.00119602
0.00119603
0.00119601
0.00116464
0.00116465
0.00116463
0.00113367
0.00113368
0.00113367
0.0011093
0.00110932
0.0011093
0.00109757
0.00109759
0.00109756
0.00110195
0.00110196
0.00110194
0.00112008
0.00112011
0.00112008
0.00114137
0.0011414
0.00114136
0.00114654
0.00114658
0.00114654
0.00111065
0.0011107
0.00111065
0.00101232
0.00101236
0.00101233
0.000861464
0.000861445
0.000861467
0.000881231
0.000881202
0.000881232
0.0009768
0.000976842
0.000976807
0.00105854
0.0010586
0.00105855
0.00109685
0.0010969
0.00109685
0.00109496
0.00109501
0.00109496
0.00107121
0.00107124
0.0010712
0.00104496
0.00104499
0.00104496
0.00102968
0.00102971
0.00102967
0.00103082
0.00103085
0.00103082
0.00104686
0.00104689
0.00104685
0.00107219
0.00107222
0.00107218
0.00110006
0.00110009
0.00110006
0.00112475
0.00112478
0.00112475
0.0011427
0.00114272
0.00114268
0.00115244
0.00115246
0.00115242
0.00115243
0.00115245
0.00115241
0.00114268
0.0011427
0.00114266
0.00112472
0.00112475
0.00112471
0.00110001
0.00110004
0.0011
0.00107212
0.00107216
0.00107212
0.0010468
0.00104684
0.0010468
0.00103075
0.00103078
0.00103075
0.00102957
0.00102959
0.00102956
0.0010448
0.00104482
0.00104479
0.001071
0.00107104
0.001071
0.00109474
0.00109478
0.00109473
0.00109661
0.00109666
0.00109661
0.00105832
0.00105838
0.00105833
0.000976633
0.000976678
0.000976643
0.00088113
0.000881103
0.000881134
0.000897887
0.000897899
0.000897891
0.00092729
0.00092729
0.000927302
0.000966091
0.000966088
0.000966101
0.000995993
0.000995986
0.000995995
0.000998237
0.000998223
0.000998234
0.000976482
0.000976455
0.000976472
0.00094494
0.000944899
0.000944925
0.000917736
0.000917683
0.000917719
0.000903801
0.00090374
0.000903787
0.000905464
0.000905398
0.000905458
0.000919612
0.00091954
0.000919611
0.000940094
0.000940019
0.000940095
0.000960454
0.00096037
0.000960454
0.000976115
0.000976023
0.000976108
0.000984851
0.000984755
0.000984838
0.000984844
0.000984748
0.000984831
0.000976096
0.000976003
0.000976089
0.000960424
0.000960339
0.000960419
0.000940049
0.000939974
0.00094005
0.000919561
0.00091949
0.00091956
0.000905419
0.000905352
0.000905412
0.000903728
0.000903666
0.000903713
0.000917605
0.000917551
0.000917586
0.000944749
0.000944707
0.000944732
0.000976248
0.00097622
0.000976237
0.00099798
0.000997967
0.000997978
0.000995735
0.000995728
0.000995737
0.000965863
0.00096586
0.000965874
0.000927128
0.000927131
0.000927142
0.000897786
0.000897799
0.000897791
0.000909431
0.000909457
0.000909436
0.00089763
0.00089763
0.000897643
0.000899178
0.00089917
0.000899188
0.000914075
0.000914068
0.000914078
0.000915561
0.000915545
0.000915555
0.000897064
0.000897036
0.000897049
0.000866303
0.000866263
0.00086628
0.00083467
0.000834621
0.000834645
0.000811507
0.000811453
0.000811486
0.000801621
0.000801565
0.000801609
0.000804872
0.000804816
0.000804872
0.000817095
0.000817037
0.000817099
0.00083221
0.000832146
0.000832213
0.000844968
0.0008449
0.000844968
0.000852389
0.000852317
0.000852386
0.000852384
0.000852312
0.000852381
0.000844951
0.000844883
0.000844951
0.000832181
0.000832118
0.000832185
0.000817059
0.000817001
0.000817063
0.000804835
0.000804779
0.000804834
0.000801586
0.00080153
0.000801574
0.000811435
0.000811379
0.000811412
0.000834528
0.000834477
0.000834501
0.000866091
0.000866051
0.000866068
0.000896804
0.000896776
0.000896788
0.000915278
0.000915262
0.000915271
0.000913797
0.000913791
0.000913801
0.000898943
0.000898937
0.000898956
0.000897473
0.000897475
0.000897489
0.00090933
0.000909356
0.000909335
0.000920038
0.000920075
0.000920042
0.000873781
0.000873784
0.000873794
0.000834753
0.000834743
0.000834763
0.000828047
0.000828038
0.000828048
0.000824944
0.000824926
0.000824932
0.000810219
0.00081019
0.000810197
0.00078385
0.000783812
0.000783819
0.000752191
0.000752146
0.000752156
0.000722891
0.000722844
0.00072286
0.000702157
0.000702114
0.000702139
0.000693138
0.0006931
0.000693136
0.000694941
0.000694908
0.000694951
0.000703084
0.000703049
0.000703096
0.000712013
0.000711975
0.000712023
0.000717768
0.000717727
0.000717776
0.000717764
0.000717723
0.000717773
0.000711999
0.000711962
0.00071201
0.000703064
0.000703029
0.000703076
0.000694921
0.000694888
0.000694931
0.000693122
0.000693084
0.00069312
0.000702139
0.000702096
0.000702121
0.000722819
0.000722771
0.000722787
0.000752034
0.000751988
0.000751997
0.000783613
0.000783574
0.00078358
0.000809926
0.000809897
0.000809903
0.000824626
0.000824609
0.000824614
0.000827742
0.000827736
0.000827745
0.000834508
0.000834501
0.000834522
0.000873629
0.000873634
0.000873646
0.000919936
0.000919974
0.000919941
0.000931391
0.000931424
0.000931394
0.000857064
0.000857073
0.000857077
0.000778835
0.000778828
0.000778843
0.000748139
0.00074813
0.000748135
0.000737993
0.000737973
0.000737975
0.000726947
0.000726916
0.000726915
0.000707272
0.000707234
0.000707231
0.000679237
0.000679194
0.000679191
0.00064743
0.000647389
0.000647389
0.00061826
0.000618228
0.000618235
0.000597631
0.000597612
0.000597629
0.000588408
0.000588399
0.000588424
0.000588736
0.000588731
0.00058876
0.000593357
0.000593351
0.000593381
0.000597296
0.000597289
0.00059732
0.000597294
0.000597287
0.000597317
0.000593348
0.000593342
0.000593372
0.000588727
0.000588722
0.00058875
0.000588411
0.000588402
0.000588426
0.000597643
0.000597623
0.000597639
0.000618261
0.000618229
0.000618235
0.000647358
0.000647315
0.000647314
0.000679062
0.000679017
0.000679013
0.000707003
0.000706963
0.00070696
0.000726612
0.000726582
0.00072658
0.000737632
0.000737614
0.000737614
0.000747801
0.000747794
0.000747799
0.000778577
0.000778573
0.000778589
0.000856919
0.00085693
0.000856936
0.000931288
0.000931323
0.000931292
0.000945425
0.000945435
0.000945426
0.000848542
0.000848556
0.000848556
0.000739298
0.000739304
0.000739304
0.000691214
0.000691209
0.000691205
0.000675708
0.00067569
0.000675683
0.00066788
0.00066785
0.000667842
0.000654368
0.00065433
0.000654318
0.0006307
0.000630657
0.000630645
0.000598835
0.000598798
0.000598785
0.00056488
0.000564856
0.000564848
0.000536404
0.000536399
0.000536401
0.000519056
0.000519068
0.000519078
0.00051337
0.000513389
0.000513404
0.00051466
0.000514681
0.000514697
0.000517229
0.000517249
0.000517265
0.000517227
0.000517247
0.000517264
0.000514655
0.000514676
0.000514692
0.000513371
0.00051339
0.000513404
0.00051908
0.000519091
0.000519101
0.000536438
0.000536431
0.000536433
0.000564896
0.000564871
0.000564863
0.00059876
0.000598721
0.000598708
0.000630506
0.000630462
0.000630448
0.000654068
0.000654029
0.000654017
0.000667507
0.000667477
0.000667468
0.000675306
0.000675289
0.000675282
0.000690843
0.000690841
0.000690837
0.000739027
0.000739036
0.000739036
0.000848408
0.000848424
0.000848425
0.000945322
0.000945334
0.000945324
)
;

boundaryField
{
    freeSurface
    {
        type            slip;
    }
    inlet
    {
        type            cyclic;
    }
    outlet
    {
        type            cyclic;
    }
    sidewalls
    {
        type            kqRWallFunction;
        value           nonuniform List<scalar> 
120
(
0.000158824
0.000261736
0.000302291
0.000345521
0.000439446
0.00048928
0.000539966
0.00059033
0.000684529
0.000725746
0.000761911
0.000792936
0.000819377
0.000842247
0.000862698
0.000899737
0.000916826
0.000932379
0.00094521
0.000953286
0.000158825
0.000261737
0.000302292
0.000345524
0.000439451
0.000489286
0.000539973
0.000590338
0.000684539
0.000725756
0.000761921
0.000792945
0.000819385
0.000842254
0.000862703
0.000899741
0.00091683
0.000932381
0.000945212
0.000953287
0.000158822
0.000261733
0.000302288
0.000345518
0.000439443
0.000489278
0.000539963
0.000590328
0.000684527
0.000725745
0.00076191
0.000792935
0.000819377
0.000842247
0.000862699
0.000899739
0.000916829
0.00093238
0.000945211
0.000953286
0.000158806
0.00026171
0.000302261
0.000345487
0.000439401
0.000489229
0.000539908
0.000590266
0.000684454
0.000725666
0.000761828
0.00079285
0.000819289
0.000842158
0.000862608
0.000899646
0.000916735
0.000932284
0.000945112
0.000953185
0.000158806
0.000261711
0.000302263
0.00034549
0.000439407
0.000489236
0.000539916
0.000590276
0.000684465
0.000725677
0.000761838
0.00079286
0.000819298
0.000842166
0.000862615
0.000899651
0.000916739
0.000932288
0.000945115
0.000953187
0.000158804
0.000261707
0.000302258
0.000345484
0.000439399
0.000489227
0.000539906
0.000590265
0.000684453
0.000725666
0.000761828
0.00079285
0.00081929
0.000842159
0.00086261
0.000899649
0.000916738
0.000932287
0.000945114
0.000953186
)
;
    }
    noSlipWalls
    {
        type            kqRWallFunction;
        value           nonuniform List<scalar> 
90
(
0.000158824
0.000385304
0.000461313
0.000518023
0.000564342
0.000603576
0.000637987
0.000669271
0.000698581
0.000726379
0.000752353
0.000775486
0.000794417
0.00080796
0.000815339
0.000815334
0.000807948
0.000794398
0.000775461
0.000752325
0.000726355
0.000698556
0.00066924
0.000637949
0.000603533
0.000564294
0.000517971
0.00046126
0.000385256
0.000158806
0.000158825
0.000385316
0.000461324
0.000518032
0.000564349
0.000603583
0.000637993
0.000669277
0.000698585
0.000726379
0.000752352
0.000775483
0.000794411
0.000807953
0.000815331
0.000815327
0.000807941
0.000794392
0.000775458
0.000752323
0.000726355
0.00069856
0.000669245
0.000637955
0.00060354
0.000564302
0.000517981
0.000461271
0.000385268
0.000158806
0.000158822
0.000385306
0.000461314
0.000518023
0.000564342
0.000603578
0.000637989
0.000669274
0.000698583
0.00072638
0.000752353
0.000775485
0.000794412
0.000807954
0.000815331
0.000815327
0.000807942
0.000794394
0.00077546
0.000752325
0.000726356
0.000698558
0.000669242
0.000637951
0.000603535
0.000564295
0.000517971
0.00046126
0.000385258
0.000158804
)
;
    }
}


// ************************************************************************* //
