/*--------------------------------*- C++ -*----------------------------------*\
  =========                 |
  \\      /  F ield         | OpenFOAM: The Open Source CFD Toolbox
   \\    /   O peration     | Website:  https://openfoam.org
    \\  /    A nd           | Version:  6
     \\/     M anipulation  |
\*---------------------------------------------------------------------------*/
FoamFile
{
    version     2.0;
    format      ascii;
    class       volScalarField;
    location    "0";
    object      nut;
}
// * * * * * * * * * * * * * * * * * * * * * * * * * * * * * * * * * * * * * //

dimensions      [0 2 -1 0 0 0 0];

internalField   nonuniform List<scalar> 
1800
(
6.04832e-06
6.04761e-06
6.04828e-06
3.85435e-06
3.85413e-06
3.85439e-06
4.2793e-06
4.27906e-06
4.27933e-06
4.60222e-06
4.60194e-06
4.60225e-06
4.86928e-06
4.86898e-06
4.86929e-06
5.09675e-06
5.09641e-06
5.09675e-06
5.29658e-06
5.29626e-06
5.29662e-06
5.47817e-06
5.4778e-06
5.47818e-06
5.6478e-06
5.6474e-06
5.64781e-06
5.80798e-06
5.80756e-06
5.80798e-06
5.95686e-06
5.95643e-06
5.95686e-06
6.08881e-06
6.08835e-06
6.08879e-06
6.19641e-06
6.19593e-06
6.19636e-06
6.27335e-06
6.27284e-06
6.27328e-06
6.31532e-06
6.31483e-06
6.31527e-06
6.3153e-06
6.31479e-06
6.31523e-06
6.27326e-06
6.27277e-06
6.27322e-06
6.19629e-06
6.19582e-06
6.19625e-06
6.08866e-06
6.08821e-06
6.08865e-06
5.9567e-06
5.95626e-06
5.9567e-06
5.80785e-06
5.80743e-06
5.80786e-06
5.64764e-06
5.64727e-06
5.64768e-06
5.47796e-06
5.4776e-06
5.47799e-06
5.29636e-06
5.29601e-06
5.29637e-06
5.09648e-06
5.09614e-06
5.09649e-06
4.86898e-06
4.86867e-06
4.86898e-06
4.60188e-06
4.60159e-06
4.60188e-06
4.27893e-06
4.27865e-06
4.27895e-06
3.85397e-06
3.85378e-06
3.85402e-06
6.04794e-06
6.04725e-06
6.0479e-06
2.08417e-05
2.08418e-05
2.08416e-05
1.64475e-05
1.64482e-05
1.64477e-05
1.70467e-05
1.70474e-05
1.70469e-05
1.76317e-05
1.76322e-05
1.76318e-05
1.8181e-05
1.81814e-05
1.81811e-05
1.86822e-05
1.86825e-05
1.86823e-05
1.91412e-05
1.91416e-05
1.91413e-05
1.95692e-05
1.95696e-05
1.95693e-05
1.99753e-05
1.99755e-05
1.99754e-05
2.03611e-05
2.03612e-05
2.03611e-05
2.07194e-05
2.07195e-05
2.07194e-05
2.10351e-05
2.10351e-05
2.10351e-05
2.12904e-05
2.12903e-05
2.12903e-05
2.14708e-05
2.14708e-05
2.14706e-05
2.15683e-05
2.15682e-05
2.1568e-05
2.15682e-05
2.15681e-05
2.15679e-05
2.14706e-05
2.14706e-05
2.14704e-05
2.12901e-05
2.12901e-05
2.129e-05
2.10348e-05
2.10348e-05
2.10347e-05
2.0719e-05
2.0719e-05
2.0719e-05
2.03608e-05
2.03609e-05
2.03608e-05
1.9975e-05
1.99752e-05
1.9975e-05
1.95687e-05
1.9569e-05
1.95688e-05
1.91405e-05
1.91409e-05
1.91406e-05
1.86813e-05
1.86818e-05
1.86814e-05
1.81799e-05
1.81804e-05
1.818e-05
1.76304e-05
1.76309e-05
1.76305e-05
1.70452e-05
1.70458e-05
1.70453e-05
1.64459e-05
1.64467e-05
1.64461e-05
2.08406e-05
2.08407e-05
2.08405e-05
2.26815e-05
2.26816e-05
2.26814e-05
2.50502e-05
2.50512e-05
2.50505e-05
2.56302e-05
2.56311e-05
2.56304e-05
2.61908e-05
2.61915e-05
2.61909e-05
2.68133e-05
2.68138e-05
2.68135e-05
2.74368e-05
2.74373e-05
2.7437e-05
2.80411e-05
2.80416e-05
2.80413e-05
2.86252e-05
2.86256e-05
2.86254e-05
2.91916e-05
2.91918e-05
2.91917e-05
2.97365e-05
2.97364e-05
2.97365e-05
3.02454e-05
3.02452e-05
3.02454e-05
3.06944e-05
3.06942e-05
3.06943e-05
3.10574e-05
3.10571e-05
3.10571e-05
3.13137e-05
3.13132e-05
3.13132e-05
3.14518e-05
3.14514e-05
3.14514e-05
3.14517e-05
3.14513e-05
3.14513e-05
3.13134e-05
3.1313e-05
3.1313e-05
3.1057e-05
3.10567e-05
3.10568e-05
3.06939e-05
3.06937e-05
3.06937e-05
3.02448e-05
3.02446e-05
3.02447e-05
2.97361e-05
2.9736e-05
2.97361e-05
2.91911e-05
2.91913e-05
2.91912e-05
2.86244e-05
2.86247e-05
2.86245e-05
2.804e-05
2.80404e-05
2.80402e-05
2.74355e-05
2.7436e-05
2.74356e-05
2.68116e-05
2.68121e-05
2.68117e-05
2.61886e-05
2.61894e-05
2.61888e-05
2.56275e-05
2.56285e-05
2.56278e-05
2.50474e-05
2.50485e-05
2.50478e-05
2.26803e-05
2.26804e-05
2.26803e-05
2.47179e-05
2.47179e-05
2.47178e-05
3.55974e-05
3.55986e-05
3.5598e-05
3.64826e-05
3.64833e-05
3.64829e-05
3.68696e-05
3.68701e-05
3.68698e-05
3.74291e-05
3.74294e-05
3.74294e-05
3.80993e-05
3.80995e-05
3.80996e-05
3.8821e-05
3.8821e-05
3.88213e-05
3.95645e-05
3.95644e-05
3.95648e-05
4.03136e-05
4.03133e-05
4.03138e-05
4.10495e-05
4.10487e-05
4.10495e-05
4.17437e-05
4.17428e-05
4.17436e-05
4.23586e-05
4.23575e-05
4.23584e-05
4.2856e-05
4.28548e-05
4.28556e-05
4.3207e-05
4.32056e-05
4.32063e-05
4.33962e-05
4.33948e-05
4.33955e-05
4.3396e-05
4.33946e-05
4.33954e-05
4.32066e-05
4.32053e-05
4.3206e-05
4.28555e-05
4.28542e-05
4.2855e-05
4.23578e-05
4.23568e-05
4.23576e-05
4.17428e-05
4.17419e-05
4.17427e-05
4.10489e-05
4.10481e-05
4.1049e-05
4.03129e-05
4.03125e-05
4.03131e-05
3.95632e-05
3.95632e-05
3.95635e-05
3.88193e-05
3.88192e-05
3.88195e-05
3.80972e-05
3.80974e-05
3.80975e-05
3.74264e-05
3.74267e-05
3.74267e-05
3.6866e-05
3.68666e-05
3.68663e-05
3.64782e-05
3.64791e-05
3.64785e-05
3.55931e-05
3.55944e-05
3.55938e-05
2.47166e-05
2.47166e-05
2.47165e-05
2.76576e-05
2.76577e-05
2.76575e-05
5.24802e-05
5.24836e-05
5.24811e-05
5.48519e-05
5.48549e-05
5.48525e-05
5.49352e-05
5.49377e-05
5.49356e-05
5.51413e-05
5.51433e-05
5.51417e-05
5.56637e-05
5.56654e-05
5.56641e-05
5.64241e-05
5.64256e-05
5.64247e-05
5.73366e-05
5.73379e-05
5.73371e-05
5.83347e-05
5.83356e-05
5.83351e-05
5.93587e-05
5.9359e-05
5.93589e-05
6.03455e-05
6.03455e-05
6.03454e-05
6.12266e-05
6.12265e-05
6.12262e-05
6.19401e-05
6.19396e-05
6.19393e-05
6.24416e-05
6.24409e-05
6.24405e-05
6.27107e-05
6.27099e-05
6.27094e-05
6.27105e-05
6.27097e-05
6.27093e-05
6.24411e-05
6.24404e-05
6.244e-05
6.19393e-05
6.19388e-05
6.19385e-05
6.12254e-05
6.12252e-05
6.1225e-05
6.03441e-05
6.03441e-05
6.0344e-05
5.9358e-05
5.93582e-05
5.93581e-05
5.83335e-05
5.83345e-05
5.83339e-05
5.73345e-05
5.73358e-05
5.73349e-05
5.64212e-05
5.64227e-05
5.64217e-05
5.566e-05
5.56618e-05
5.56604e-05
5.51366e-05
5.51386e-05
5.51369e-05
5.4929e-05
5.49316e-05
5.49294e-05
5.48443e-05
5.48475e-05
5.4845e-05
5.24732e-05
5.24768e-05
5.24743e-05
2.76561e-05
2.76562e-05
2.7656e-05
2.88653e-05
2.88655e-05
2.88653e-05
6.53638e-05
6.53677e-05
6.53651e-05
6.92271e-05
6.92308e-05
6.92279e-05
6.92141e-05
6.9217e-05
6.92146e-05
6.90336e-05
6.90359e-05
6.90342e-05
6.92973e-05
6.92992e-05
6.9298e-05
6.99814e-05
6.9983e-05
6.99822e-05
7.09635e-05
7.09648e-05
7.09642e-05
7.21278e-05
7.21286e-05
7.21284e-05
7.33697e-05
7.33696e-05
7.33699e-05
7.45887e-05
7.45882e-05
7.45886e-05
7.56855e-05
7.56848e-05
7.5685e-05
7.65756e-05
7.65744e-05
7.65745e-05
7.72007e-05
7.71992e-05
7.71992e-05
7.75359e-05
7.75343e-05
7.75341e-05
7.75357e-05
7.7534e-05
7.75339e-05
7.72001e-05
7.71986e-05
7.71986e-05
7.65746e-05
7.65734e-05
7.65735e-05
7.56839e-05
7.56832e-05
7.56834e-05
7.45868e-05
7.45864e-05
7.45867e-05
7.33688e-05
7.33687e-05
7.33689e-05
7.21264e-05
7.21272e-05
7.21269e-05
7.09607e-05
7.0962e-05
7.09613e-05
6.99774e-05
6.9979e-05
6.99781e-05
6.92923e-05
6.92942e-05
6.92929e-05
6.90271e-05
6.90295e-05
6.90276e-05
6.92055e-05
6.92085e-05
6.9206e-05
6.92168e-05
6.92207e-05
6.92177e-05
6.53547e-05
6.53588e-05
6.53562e-05
2.88638e-05
2.8864e-05
2.88638e-05
3.14815e-05
3.14814e-05
3.14815e-05
7.64619e-05
7.64668e-05
7.64634e-05
8.45231e-05
8.45276e-05
8.45242e-05
8.51118e-05
8.51154e-05
8.51125e-05
8.45329e-05
8.45357e-05
8.45337e-05
8.43366e-05
8.43387e-05
8.43373e-05
8.47597e-05
8.47615e-05
8.47606e-05
8.56956e-05
8.5697e-05
8.56965e-05
8.69735e-05
8.69742e-05
8.69743e-05
8.84237e-05
8.84233e-05
8.84239e-05
8.98885e-05
8.98875e-05
8.98884e-05
9.12229e-05
9.12217e-05
9.12223e-05
9.23107e-05
9.23087e-05
9.23092e-05
9.30748e-05
9.30726e-05
9.30729e-05
9.34843e-05
9.34818e-05
9.3482e-05
9.3484e-05
9.34814e-05
9.34816e-05
9.3074e-05
9.30718e-05
9.30721e-05
9.23093e-05
9.23074e-05
9.23079e-05
9.12209e-05
9.12196e-05
9.12202e-05
8.98861e-05
8.98852e-05
8.9886e-05
8.84226e-05
8.8422e-05
8.84227e-05
8.69718e-05
8.69724e-05
8.69723e-05
8.56918e-05
8.56934e-05
8.56927e-05
8.47543e-05
8.4756e-05
8.47551e-05
8.43297e-05
8.43318e-05
8.43304e-05
8.45241e-05
8.45269e-05
8.45246e-05
8.51001e-05
8.51038e-05
8.51009e-05
8.45097e-05
8.45145e-05
8.45109e-05
7.64509e-05
7.64561e-05
7.64527e-05
3.14796e-05
3.14796e-05
3.14797e-05
3.41884e-05
3.41873e-05
3.41884e-05
8.82057e-05
8.82115e-05
8.82076e-05
0.000102157
0.000102162
0.000102159
0.000104281
0.000104284
0.000104282
0.00010346
0.000103462
0.000103461
0.000102629
0.00010263
0.00010263
0.000102578
0.000102579
0.000102579
0.000103327
0.000103327
0.000103328
0.000104663
0.000104662
0.000104664
0.000106329
0.000106327
0.000106329
0.000108082
0.000108079
0.000108082
0.000109708
0.000109705
0.000109707
0.000111043
0.000111038
0.000111041
0.000111982
0.000111978
0.00011198
0.000112486
0.000112481
0.000112483
0.000112485
0.00011248
0.000112482
0.000111981
0.000111976
0.000111978
0.000111041
0.000111037
0.000111039
0.000109705
0.000109702
0.000109704
0.000108079
0.000108076
0.000108079
0.000106327
0.000106325
0.000106328
0.000104661
0.00010466
0.000104661
0.000103322
0.000103323
0.000103323
0.000102571
0.000102571
0.000102572
0.00010262
0.000102621
0.00010262
0.000103448
0.00010345
0.000103448
0.000104265
0.000104268
0.000104266
0.00010214
0.000102145
0.000102142
8.81927e-05
8.81987e-05
8.81949e-05
3.41862e-05
3.41851e-05
3.41862e-05
3.76066e-05
3.76045e-05
3.76067e-05
0.000104143
0.000104153
0.000104145
0.00012902
0.000129031
0.000129022
0.000135501
0.000135511
0.000135502
0.000135108
0.000135118
0.00013511
0.000133203
0.00013321
0.000133204
0.000131985
0.000131992
0.000131987
0.000132022
0.000132029
0.000132024
0.000133157
0.000133162
0.000133158
0.000134995
0.000134998
0.000134995
0.00013712
0.000137122
0.00013712
0.00013917
0.000139171
0.000139169
0.000140877
0.000140877
0.000140874
0.000142078
0.000142078
0.000142074
0.000142719
0.000142718
0.000142714
0.000142718
0.000142718
0.000142713
0.000142077
0.000142076
0.000142073
0.000140874
0.000140875
0.000140872
0.000139167
0.000139168
0.000139165
0.000137116
0.000137118
0.000137116
0.000134993
0.000134996
0.000134993
0.000133153
0.000133159
0.000133155
0.000132015
0.000132021
0.000132016
0.000131974
0.000131981
0.000131975
0.000133188
0.000133195
0.000133189
0.00013509
0.000135099
0.000135091
0.000135478
0.000135489
0.000135479
0.000128996
0.000129008
0.000128998
0.000104127
0.000104138
0.000104129
3.7604e-05
3.76019e-05
3.76041e-05
3.8894e-05
3.88919e-05
3.88941e-05
0.000113657
0.000113666
0.000113659
0.000147719
0.00014773
0.000147721
0.000159065
0.000159075
0.000159066
0.000160029
0.000160038
0.000160031
0.000157603
0.000157609
0.000157604
0.000155353
0.000155359
0.000155355
0.000154588
0.000154594
0.000154591
0.000155369
0.000155372
0.00015537
0.000157233
0.000157234
0.000157233
0.000159614
0.000159614
0.000159613
0.000162003
0.000162002
0.000162002
0.000164025
0.000164022
0.000164021
0.000165457
0.000165453
0.000165452
0.000166221
0.000166218
0.000166215
0.000166221
0.000166217
0.000166215
0.000165455
0.000165452
0.00016545
0.000164022
0.00016402
0.000164019
0.000161999
0.000161998
0.000161997
0.000159608
0.000159609
0.000159608
0.00015723
0.000157232
0.00015723
0.000155364
0.000155368
0.000155365
0.000154579
0.000154585
0.000154581
0.000155338
0.000155344
0.00015534
0.000157583
0.00015759
0.000157584
0.000160004
0.000160014
0.000160005
0.000159036
0.000159047
0.000159037
0.00014769
0.000147702
0.000147693
0.000113639
0.000113649
0.000113642
3.88913e-05
3.88892e-05
3.88914e-05
3.84469e-05
3.84462e-05
3.8447e-05
0.000121436
0.000121445
0.000121439
0.000165201
0.000165212
0.000165204
0.000182634
0.000182645
0.000182636
0.000185988
0.000185997
0.00018599
0.000183467
0.000183474
0.000183469
0.000180104
0.00018011
0.000180106
0.000178252
0.000178257
0.000178255
0.000178405
0.000178409
0.000178407
0.00018012
0.00018012
0.00018012
0.000182672
0.00018267
0.000182671
0.000185374
0.000185371
0.000185371
0.000187711
0.000187706
0.000187706
0.000189379
0.000189373
0.000189373
0.000190272
0.000190266
0.000190265
0.000190272
0.000190265
0.000190265
0.000189377
0.000189371
0.000189371
0.000187707
0.000187703
0.000187703
0.000185368
0.000185365
0.000185366
0.000182665
0.000182664
0.000182664
0.000180117
0.000180117
0.000180117
0.0001784
0.000178404
0.000178401
0.00017824
0.000178245
0.000178242
0.000180084
0.00018009
0.000180086
0.000183441
0.000183448
0.000183443
0.000185956
0.000185965
0.000185957
0.000182598
0.000182609
0.000182601
0.000165167
0.000165179
0.00016517
0.000121416
0.000121425
0.000121419
3.84444e-05
3.84438e-05
3.84444e-05
3.82626e-05
3.82625e-05
3.82626e-05
0.000125953
0.000125962
0.000125957
0.000179997
0.000180009
0.000180001
0.000204789
0.000204801
0.000204792
0.00021185
0.00021186
0.000211852
0.000210038
0.000210046
0.00021004
0.000205715
0.000205722
0.000205717
0.000202534
0.00020254
0.000202537
0.000201726
0.00020173
0.000201728
0.000203028
0.000203028
0.000203028
0.000205593
0.000205591
0.000205592
0.000208534
0.00020853
0.000208531
0.00021116
0.000211154
0.000211154
0.000213057
0.00021305
0.00021305
0.000214078
0.00021407
0.000214069
0.000214077
0.000214069
0.000214068
0.000213055
0.000213047
0.000213047
0.000211156
0.00021115
0.00021115
0.000208527
0.000208523
0.000208524
0.000205585
0.000205583
0.000205584
0.000203024
0.000203024
0.000203024
0.000201719
0.000201723
0.000201721
0.000202518
0.000202523
0.00020252
0.000205689
0.000205695
0.000205691
0.000210004
0.000210012
0.000210006
0.000211809
0.00021182
0.000211811
0.000204745
0.000204758
0.000204748
0.000179958
0.000179971
0.000179962
0.000125932
0.000125941
0.000125936
3.82602e-05
3.82603e-05
3.82603e-05
4.29767e-05
4.2972e-05
4.29768e-05
0.000125701
0.000125711
0.000125704
0.000190272
0.000190286
0.000190276
0.000224491
0.000224505
0.000224495
0.000237391
0.000237403
0.000237395
0.000237866
0.000237876
0.000237869
0.000233243
0.000233251
0.000233246
0.000228621
0.000228626
0.000228623
0.000226403
0.000226407
0.000226405
0.000226847
0.000226848
0.000226847
0.000229128
0.000229126
0.000229127
0.000232159
0.000232154
0.000232155
0.000235023
0.000235015
0.000235016
0.000237142
0.000237133
0.000237133
0.000238293
0.000238283
0.000238283
0.000238292
0.000238282
0.000238282
0.000237139
0.000237129
0.00023713
0.000235018
0.000235009
0.000235011
0.000232151
0.000232145
0.000232147
0.000229119
0.000229116
0.000229117
0.000226843
0.000226842
0.000226843
0.000226394
0.000226397
0.000226396
0.000228598
0.000228604
0.000228601
0.000233208
0.000233215
0.000233211
0.000237821
0.000237831
0.000237824
0.000237339
0.000237352
0.000237343
0.000224438
0.000224453
0.000224442
0.000190228
0.000190244
0.000190233
0.000125679
0.000125689
0.000125683
4.29734e-05
4.29687e-05
4.29737e-05
4.66445e-05
4.66321e-05
4.66448e-05
0.000124256
0.000124268
0.000124259
0.000197517
0.000197535
0.000197522
0.000241869
0.000241885
0.000241874
0.000262108
0.000262121
0.000262113
0.000266401
0.000266412
0.000266407
0.000262448
0.000262455
0.000262452
0.000256564
0.000256568
0.000256567
0.000252571
0.000252572
0.000252572
0.000251639
0.000251636
0.000251639
0.000253216
0.00025321
0.000253213
0.00025609
0.000256081
0.000256085
0.000259086
0.000259074
0.000259077
0.000261397
0.000261383
0.000261386
0.000262676
0.000262661
0.000262663
0.000262675
0.00026266
0.000262662
0.000261393
0.000261379
0.000261382
0.000259079
0.000259067
0.000259071
0.000256079
0.00025607
0.000256075
0.000253204
0.000253198
0.000253202
0.000251633
0.000251629
0.000251633
0.000252559
0.000252559
0.00025256
0.000256534
0.000256538
0.000256537
0.000262401
0.000262408
0.000262405
0.000266343
0.000266353
0.000266347
0.000262043
0.000262057
0.000262049
0.000241806
0.000241823
0.000241812
0.000197469
0.000197487
0.000197475
0.000124233
0.000124245
0.000124238
4.66404e-05
4.66281e-05
4.66409e-05
4.91961e-05
4.91755e-05
4.91966e-05
0.000121499
0.000121511
0.000121502
0.000200843
0.000200864
0.000200849
0.000255302
0.000255323
0.00025531
0.000284133
0.000284149
0.000284141
0.000293916
0.000293926
0.000293923
0.000292049
0.000292053
0.000292054
0.00028553
0.000285529
0.000285533
0.000279567
0.000279562
0.000279568
0.000276631
0.000276623
0.00027663
0.000276857
0.000276846
0.000276854
0.000279127
0.000279113
0.000279121
0.000282024
0.000282006
0.000282014
0.000284438
0.000284418
0.000284425
0.00028582
0.000285799
0.000285805
0.000285818
0.000285797
0.000285803
0.000284433
0.000284413
0.00028442
0.000282016
0.000281999
0.000282006
0.000279115
0.000279101
0.000279109
0.000276844
0.000276833
0.00027684
0.000276624
0.000276616
0.000276623
0.00027955
0.000279545
0.00027955
0.00028549
0.000285488
0.000285492
0.000291986
0.00029199
0.00029199
0.000293839
0.000293849
0.000293845
0.000284052
0.000284069
0.00028406
0.000255229
0.00025525
0.000255236
0.00020079
0.000200812
0.000200797
0.000121476
0.000121488
0.00012148
4.91916e-05
4.91709e-05
4.91921e-05
5.01316e-05
5.01057e-05
5.01324e-05
0.000115238
0.000115241
0.000115242
0.000197859
0.000197878
0.000197868
0.000265267
0.000265297
0.000265278
0.000308216
0.000308251
0.000308228
0.000328923
0.000328957
0.000328932
0.00033317
0.0003332
0.000333174
0.000327761
0.000327785
0.00032776
0.000319206
0.000319224
0.000319202
0.000312165
0.000312177
0.000312161
0.000308691
0.000308698
0.000308686
0.0003086
0.000308604
0.000308593
0.000310438
0.000310438
0.000310428
0.000312552
0.000312549
0.000312537
0.000313908
0.000313904
0.000313891
0.000313906
0.000313902
0.000313889
0.000312547
0.000312543
0.000312531
0.000310429
0.000310428
0.000310417
0.000308586
0.00030859
0.000308579
0.000308677
0.000308685
0.000308672
0.000312158
0.00031217
0.000312153
0.000319178
0.000319195
0.000319173
0.000327695
0.000327719
0.000327693
0.00033307
0.000333101
0.000333073
0.000328806
0.000328841
0.000328815
0.000308101
0.000308137
0.000308113
0.000265172
0.000265203
0.000265183
0.000197799
0.000197819
0.000197809
0.000115214
0.000115218
0.00011522
5.01269e-05
5.01011e-05
5.01278e-05
5.0528e-05
5.05001e-05
5.05289e-05
0.000109409
0.000109411
0.000109413
0.000189895
0.000189912
0.000189905
0.000263559
0.000263588
0.000263573
0.000316444
0.000316478
0.000316458
0.00034658
0.000346612
0.00034659
0.000357679
0.000357706
0.000357682
0.000355453
0.000355471
0.000355448
0.000346377
0.000346387
0.000346367
0.000336317
0.000336321
0.000336307
0.000329152
0.000329153
0.000329145
0.000326175
0.000326174
0.000326169
0.000326455
0.000326449
0.000326445
0.000328003
0.000327994
0.00032799
0.000329246
0.000329235
0.00032923
0.000329245
0.000329233
0.000329228
0.000327997
0.000327988
0.000327983
0.000326444
0.000326438
0.000326434
0.000326163
0.000326161
0.000326157
0.000329142
0.000329143
0.000329135
0.00033631
0.000336314
0.0003363
0.000346335
0.000346344
0.000346324
0.000355358
0.000355375
0.000355352
0.000357541
0.000357567
0.000357543
0.000346424
0.000346457
0.000346434
0.000316298
0.000316332
0.000316312
0.000263447
0.000263477
0.000263461
0.00018983
0.000189848
0.000189842
0.000109386
0.000109389
0.000109392
5.05233e-05
5.04955e-05
5.05243e-05
4.99498e-05
4.99245e-05
4.99507e-05
0.000103368
0.000103371
0.000103373
0.000178635
0.000178648
0.000178646
0.000255539
0.000255566
0.000255555
0.000317801
0.000317833
0.000317816
0.000358467
0.000358496
0.000358477
0.000378275
0.000378296
0.000378275
0.000381315
0.000381326
0.000381304
0.000373389
0.00037339
0.00037337
0.00036096
0.000360957
0.000360944
0.000349661
0.000349657
0.000349653
0.000342821
0.000342817
0.000342818
0.000340714
0.000340708
0.000340711
0.00034128
0.000341269
0.000341273
0.000342278
0.000342264
0.000342267
0.000342276
0.000342263
0.000342266
0.000341273
0.000341262
0.000341266
0.000340705
0.000340698
0.0003407
0.000342814
0.00034281
0.000342811
0.000349658
0.000349654
0.000349649
0.000360951
0.000360947
0.000360934
0.000373322
0.000373322
0.000373303
0.000381175
0.000381186
0.000381164
0.000378082
0.000378103
0.000378081
0.000358257
0.000358286
0.000358267
0.000317613
0.000317646
0.000317629
0.000255405
0.000255434
0.000255422
0.000178565
0.000178579
0.000178577
0.000103346
0.00010335
0.000103352
4.99453e-05
4.99202e-05
4.99464e-05
4.81449e-05
4.81281e-05
4.81456e-05
9.80769e-05
9.8081e-05
9.80816e-05
0.000166366
0.000166377
0.000166376
0.000243663
0.000243686
0.000243679
0.000314159
0.000314189
0.000314177
0.000365707
0.000365734
0.000365717
0.000395177
0.000395195
0.000395176
0.000404859
0.000404866
0.000404844
0.000399795
0.000399792
0.000399771
0.000386593
0.000386586
0.000386572
0.000372076
0.000372071
0.000372067
0.000361493
0.000361492
0.000361497
0.000356781
0.000356779
0.000356788
0.000356216
0.00035621
0.000356219
0.000356937
0.000356927
0.000356937
0.000356936
0.000356926
0.000356936
0.000356209
0.000356203
0.000356212
0.000356775
0.000356772
0.000356781
0.000361498
0.000361497
0.000361502
0.000372081
0.000372076
0.000372072
0.000386574
0.000386566
0.000386551
0.000399688
0.000399684
0.000399663
0.000404656
0.000404663
0.00040464
0.00039491
0.000394929
0.000394908
0.000365427
0.000365455
0.000365438
0.000313921
0.000313953
0.00031394
0.000243505
0.000243531
0.000243523
0.000166291
0.000166303
0.000166303
9.80571e-05
9.80618e-05
9.80626e-05
4.8141e-05
4.81243e-05
4.81419e-05
4.40979e-05
4.40941e-05
4.40982e-05
9.48833e-05
9.48876e-05
9.48876e-05
0.00015683
0.00015684
0.000156839
0.000233261
0.000233283
0.000233277
0.000309894
0.000309922
0.000309913
0.000370197
0.000370224
0.000370211
0.000407426
0.000407445
0.000407428
0.00042263
0.000422639
0.000422616
0.00042063
0.00042063
0.000420607
0.000408195
0.000408189
0.000408174
0.000392682
0.00039268
0.000392676
0.000380309
0.000380314
0.000380322
0.000374178
0.000374182
0.000374196
0.000373038
0.000373036
0.000373053
0.00037369
0.000373683
0.0003737
0.000373689
0.000373682
0.000373699
0.000373031
0.000373028
0.000373045
0.000374175
0.000374178
0.000374193
0.000380325
0.000380328
0.000380337
0.00039269
0.000392688
0.000392683
0.000408158
0.000408151
0.000408134
0.000420479
0.000420476
0.000420453
0.000422364
0.000422372
0.000422349
0.000407087
0.000407107
0.000407089
0.000369851
0.00036988
0.000369866
0.00030961
0.000309643
0.000309632
0.000233083
0.000233108
0.000233102
0.000156753
0.000156765
0.000156764
9.4867e-05
9.48717e-05
9.4872e-05
4.4095e-05
4.40913e-05
4.40954e-05
)
;

boundaryField
{
    freeSurface
    {
        type            slip;
    }
    inlet
    {
        type            cyclic;
    }
    outlet
    {
        type            cyclic;
    }
    sidewalls
    {
        type            nutkWallFunction;
        Cmu             0.09;
        kappa           0.41;
        E               9.8;
        value           nonuniform List<scalar> 
120
(
1.74895e-06
2.38724e-06
2.59856e-06
2.80686e-06
3.21357e-06
3.40952e-06
3.59762e-06
3.77492e-06
4.08501e-06
4.21312e-06
4.32221e-06
4.4135e-06
4.48973e-06
4.55456e-06
4.6117e-06
4.71329e-06
4.75937e-06
4.80089e-06
4.83486e-06
4.8561e-06
1.74895e-06
2.38725e-06
2.59857e-06
2.80687e-06
3.21359e-06
3.40955e-06
3.59764e-06
3.77495e-06
4.08504e-06
4.21315e-06
4.32224e-06
4.41352e-06
4.48975e-06
4.55458e-06
4.61172e-06
4.7133e-06
4.75938e-06
4.8009e-06
4.83486e-06
4.8561e-06
1.74893e-06
2.38723e-06
2.59854e-06
2.80684e-06
3.21356e-06
3.40951e-06
3.59761e-06
3.77491e-06
4.085e-06
4.21312e-06
4.32221e-06
4.4135e-06
4.48973e-06
4.55456e-06
4.6117e-06
4.71329e-06
4.75938e-06
4.8009e-06
4.83486e-06
4.8561e-06
1.74881e-06
2.3871e-06
2.59841e-06
2.8067e-06
3.21338e-06
3.40933e-06
3.59741e-06
3.7747e-06
4.08477e-06
4.21288e-06
4.32196e-06
4.41325e-06
4.48948e-06
4.55431e-06
4.61145e-06
4.71304e-06
4.75913e-06
4.80064e-06
4.8346e-06
4.85583e-06
1.74882e-06
2.38711e-06
2.59842e-06
2.80671e-06
3.21341e-06
3.40935e-06
3.59744e-06
3.77473e-06
4.0848e-06
4.21291e-06
4.32199e-06
4.41328e-06
4.4895e-06
4.55433e-06
4.61147e-06
4.71306e-06
4.75914e-06
4.80065e-06
4.83461e-06
4.85584e-06
1.7488e-06
2.38709e-06
2.5984e-06
2.80668e-06
3.21338e-06
3.40932e-06
3.5974e-06
3.7747e-06
4.08477e-06
4.21288e-06
4.32196e-06
4.41325e-06
4.48948e-06
4.55431e-06
4.61146e-06
4.71305e-06
4.75913e-06
4.80065e-06
4.8346e-06
4.85584e-06
)
;
    }
    noSlipWalls
    {
        type            nutkWallFunction;
        Cmu             0.09;
        kappa           0.41;
        E               9.8;
        value           uniform 0;
    }
}


// ************************************************************************* //
