/*--------------------------------*- C++ -*----------------------------------*\
  =========                 |
  \\      /  F ield         | OpenFOAM: The Open Source CFD Toolbox
   \\    /   O peration     | Website:  https://openfoam.org
    \\  /    A nd           | Version:  6
     \\/     M anipulation  |
\*---------------------------------------------------------------------------*/
FoamFile
{
    version     2.0;
    format      ascii;
    class       volVectorField;
    location    "0";
    object      U;
}
// * * * * * * * * * * * * * * * * * * * * * * * * * * * * * * * * * * * * * //

dimensions      [0 1 -1 0 0 0 0];

internalField   nonuniform List<vector> 
1800
(
(0.0786607 1.70886e-09 -2.6923e-10)
(0.0786601 -3.18765e-10 1.66978e-10)
(0.0786604 -1.36663e-09 6.81122e-11)
(0.104119 6.94869e-10 -3.66824e-10)
(0.104119 -1.19408e-09 9.24747e-11)
(0.104119 5.565e-10 2.75482e-10)
(0.119874 -1.57141e-09 -3.81895e-10)
(0.119873 -2.25036e-09 8.22143e-11)
(0.119874 3.89155e-09 2.98929e-10)
(0.130426 -1.88393e-09 -3.67291e-10)
(0.130425 -1.68383e-09 6.34504e-11)
(0.130426 3.62137e-09 3.03881e-10)
(0.138544 -1.037e-09 -3.06709e-10)
(0.138544 -2.19455e-09 3.41835e-11)
(0.138544 3.28267e-09 2.72896e-10)
(0.14518 6.47691e-10 -2.29056e-10)
(0.145179 -2.66204e-09 -2.21686e-11)
(0.14518 2.05218e-09 2.51406e-10)
(0.150856 1.67155e-09 -1.68137e-10)
(0.150855 -2.68885e-09 -7.09416e-11)
(0.150857 1.05069e-09 2.39371e-10)
(0.15592 1.43169e-09 -1.19693e-10)
(0.155919 -1.55453e-09 -1.05881e-10)
(0.15592 1.51564e-10 2.25743e-10)
(0.160592 3.65816e-10 -7.19049e-11)
(0.160591 -8.57815e-11 -9.16348e-11)
(0.160592 -2.54561e-10 1.63737e-10)
(0.164968 3.81304e-10 -7.28104e-12)
(0.164967 -3.09751e-10 -3.96122e-11)
(0.164968 -5.16258e-11 4.72877e-11)
(0.169018 2.03588e-09 2.66816e-11)
(0.169016 -1.50683e-09 7.24656e-12)
(0.169018 -5.24943e-10 -3.34619e-11)
(0.172596 3.50351e-09 3.74135e-11)
(0.172594 -2.18063e-09 5.65278e-11)
(0.172596 -1.31745e-09 -9.37288e-11)
(0.175508 3.48032e-09 6.02956e-11)
(0.175506 -2.06933e-09 1.2385e-10)
(0.175508 -1.41408e-09 -1.83489e-10)
(0.177585 2.41351e-09 5.07854e-11)
(0.177583 -1.25398e-09 1.92859e-10)
(0.177584 -1.1671e-09 -2.43602e-10)
(0.178715 7.28229e-10 3.92318e-11)
(0.178713 -3.26973e-10 2.34282e-10)
(0.178714 -4.004e-10 -2.73632e-10)
(0.178714 -1.04023e-09 3.9042e-11)
(0.178712 5.51461e-10 2.34261e-10)
(0.178713 4.87469e-10 -2.73641e-10)
(0.177583 -2.76677e-09 5.13741e-11)
(0.177581 1.5118e-09 1.90666e-10)
(0.177583 1.26466e-09 -2.42077e-10)
(0.175505 -3.88213e-09 5.81775e-11)
(0.175503 2.31663e-09 1.2349e-10)
(0.175505 1.56913e-09 -1.8172e-10)
(0.172592 -3.89455e-09 3.6544e-11)
(0.17259 2.40261e-09 5.6229e-11)
(0.172592 1.49728e-09 -9.27983e-11)
(0.169013 -2.33286e-09 2.41539e-11)
(0.169011 1.61271e-09 1.21561e-11)
(0.169013 7.25542e-10 -3.62414e-11)
(0.164964 -6.13951e-10 -9.45494e-12)
(0.164963 2.44023e-10 -3.66265e-11)
(0.164964 3.66866e-10 4.61229e-11)
(0.160588 -5.40549e-10 -7.33443e-11)
(0.160587 -7.60528e-11 -8.87842e-11)
(0.160588 6.10956e-10 1.62239e-10)
(0.155915 -1.53972e-09 -1.2228e-10)
(0.155914 1.47603e-09 -1.01363e-10)
(0.155915 5.8571e-11 2.23649e-10)
(0.150851 -1.60954e-09 -1.73254e-10)
(0.150849 2.67371e-09 -6.15224e-11)
(0.150851 -1.07e-09 2.3476e-10)
(0.145173 -2.88491e-10 -2.40297e-10)
(0.145172 2.58335e-09 -1.28193e-11)
(0.145174 -2.29899e-09 2.53046e-10)
(0.138537 1.5979e-09 -3.22893e-10)
(0.138537 2.21228e-09 4.12395e-11)
(0.138537 -3.81476e-09 2.81578e-10)
(0.130418 2.35677e-09 -3.84329e-10)
(0.130417 1.94363e-09 6.39272e-11)
(0.130418 -4.30216e-09 3.20266e-10)
(0.119866 1.72993e-09 -3.95506e-10)
(0.119865 2.83831e-09 7.8571e-11)
(0.119866 -4.5693e-09 3.1689e-10)
(0.104112 -7.22237e-10 -3.79164e-10)
(0.104112 1.54707e-09 8.71494e-11)
(0.104112 -8.25255e-10 2.91822e-10)
(0.078657 -1.75579e-09 -2.52254e-10)
(0.0786564 3.27187e-10 1.77383e-10)
(0.0786567 1.43025e-09 7.49029e-11)
(0.0978787 2.03252e-09 -5.26167e-10)
(0.0978788 -4.98868e-10 3.62175e-10)
(0.0978784 -1.54036e-09 1.42141e-10)
(0.141502 9.50887e-10 -9.49012e-10)
(0.141503 -1.55466e-09 2.71407e-10)
(0.141502 6.17536e-10 6.79135e-10)
(0.160701 -1.75742e-09 -9.83756e-10)
(0.160702 -2.80689e-09 2.46705e-10)
(0.160701 4.63067e-09 7.34859e-10)
(0.173019 -2.10942e-09 -9.54691e-10)
(0.17302 -2.16531e-09 1.774e-10)
(0.173018 4.33288e-09 7.77434e-10)
(0.182253 -1.03391e-09 -7.96756e-10)
(0.182254 -2.80536e-09 9.18959e-11)
(0.182253 3.89862e-09 7.0551e-10)
(0.189671 1.02647e-09 -5.99405e-10)
(0.189672 -3.36898e-09 -6.0269e-11)
(0.189671 2.38696e-09 6.60186e-10)
(0.195941 2.27111e-09 -4.44859e-10)
(0.195942 -3.38031e-09 -1.9017e-10)
(0.195941 1.14893e-09 6.35455e-10)
(0.201486 1.93227e-09 -3.23164e-10)
(0.201487 -1.95681e-09 -2.80356e-10)
(0.201487 5.88062e-11 6.03737e-10)
(0.20657 5.95446e-10 -1.97296e-10)
(0.20657 -1.39483e-10 -2.45444e-10)
(0.20657 -4.2633e-10 4.4298e-10)
(0.211311 5.9844e-10 -1.99807e-11)
(0.211311 -4.13233e-10 -1.06576e-10)
(0.211311 -1.61352e-10 1.27111e-10)
(0.215683 2.57906e-09 7.05177e-11)
(0.215683 -1.86777e-09 2.56409e-11)
(0.215683 -7.0627e-10 -9.56719e-11)
(0.219539 4.37137e-09 1.01803e-10)
(0.219539 -2.69108e-09 1.54301e-10)
(0.219539 -1.6747e-09 -2.55938e-10)
(0.222672 4.31311e-09 1.55354e-10)
(0.222672 -2.53487e-09 3.46861e-10)
(0.222672 -1.78221e-09 -5.01637e-10)
(0.224903 2.98328e-09 1.32806e-10)
(0.224903 -1.53716e-09 5.29319e-10)
(0.224902 -1.45588e-09 -6.62154e-10)
(0.226115 8.98234e-10 9.74878e-11)
(0.226115 -3.94128e-10 6.47458e-10)
(0.226115 -5.03758e-10 -7.45007e-10)
(0.226115 -1.28312e-09 9.7269e-11)
(0.226115 6.77228e-10 6.47627e-10)
(0.226114 6.04083e-10 -7.45182e-10)
(0.224901 -3.41747e-09 1.3384e-10)
(0.224901 1.85995e-09 5.2415e-10)
(0.2249 1.5691e-09 -6.58009e-10)
(0.222669 -4.80949e-09 1.52146e-10)
(0.222669 2.8501e-09 3.45079e-10)
(0.222669 1.96407e-09 -4.97221e-10)
(0.219535 -4.85441e-09 9.78079e-11)
(0.219535 2.97212e-09 1.56838e-10)
(0.219535 1.8895e-09 -2.54674e-10)
(0.215678 -2.952e-09 6.71533e-11)
(0.215678 2.0053e-09 3.50524e-11)
(0.215678 9.54092e-10 -1.02027e-10)
(0.211306 -8.96137e-10 -2.48008e-11)
(0.211306 3.51362e-10 -9.93487e-11)
(0.211306 5.41427e-10 1.2431e-10)
(0.206565 -8.16854e-10 -2.00863e-10)
(0.206566 -5.03309e-11 -2.34491e-10)
(0.206565 8.60764e-10 4.35468e-10)
(0.201481 -2.0695e-09 -3.29349e-10)
(0.201482 1.8575e-09 -2.6761e-10)
(0.201482 2.06361e-10 5.96942e-10)
(0.195935 -2.19779e-09 -4.57123e-10)
(0.195936 3.35778e-09 -1.6582e-10)
(0.195935 -1.1668e-09 6.22912e-10)
(0.189664 -5.94185e-10 -6.26723e-10)
(0.189665 3.27235e-09 -3.72885e-11)
(0.189665 -2.68304e-09 6.63951e-10)
(0.182245 1.72345e-09 -8.38471e-10)
(0.182247 2.82168e-09 1.11718e-10)
(0.182245 -4.55076e-09 7.26643e-10)
(0.173011 2.68821e-09 -9.98067e-10)
(0.173012 2.48001e-09 1.79909e-10)
(0.173011 -5.17046e-09 8.17942e-10)
(0.160693 1.94326e-09 -1.01978e-09)
(0.160694 3.52008e-09 2.41144e-10)
(0.160693 -5.46471e-09 7.78588e-10)
(0.141495 -1.03575e-09 -9.78702e-10)
(0.141496 1.99135e-09 2.5973e-10)
(0.141495 -9.56334e-10 7.1869e-10)
(0.0978749 -2.12587e-09 -5.40209e-10)
(0.0978752 5.17214e-10 3.84564e-10)
(0.0978747 1.61046e-09 1.55745e-10)
(0.108274 2.16784e-09 -8.2828e-10)
(0.108274 -6.22077e-10 5.84266e-10)
(0.108274 -1.55358e-09 2.32935e-10)
(0.1569 1.12548e-09 -1.36532e-09)
(0.156901 -1.67033e-09 4.89203e-10)
(0.1569 5.70337e-10 8.76868e-10)
(0.177751 -1.65385e-09 -1.41243e-09)
(0.177752 -2.9763e-09 4.33809e-10)
(0.177751 4.70415e-09 9.75033e-10)
(0.191116 -2.01464e-09 -1.40135e-09)
(0.191116 -2.36604e-09 3.09219e-10)
(0.191115 4.44456e-09 1.09244e-09)
(0.201031 -8.80899e-10 -1.18101e-09)
(0.201031 -3.06223e-09 1.72907e-10)
(0.201031 4.00758e-09 1.00911e-09)
(0.208928 1.26613e-09 -8.93817e-10)
(0.208928 -3.64789e-09 -6.81987e-11)
(0.208928 2.43013e-09 9.62922e-10)
(0.215557 2.56486e-09 -6.60949e-10)
(0.215557 -3.64557e-09 -2.75979e-10)
(0.215557 1.12384e-09 9.37567e-10)
(0.221389 2.17139e-09 -4.81488e-10)
(0.221389 -2.11377e-09 -4.18254e-10)
(0.221389 -2.04742e-11 9.00075e-10)
(0.226717 7.3753e-10 -3.06114e-10)
(0.226717 -1.79161e-10 -3.65867e-10)
(0.226717 -5.263e-10 6.72352e-10)
(0.231672 7.41025e-10 -5.49982e-11)
(0.231672 -4.80215e-10 -1.55206e-10)
(0.231672 -2.35604e-10 2.11041e-10)
(0.236236 2.80592e-09 8.03158e-11)
(0.236236 -2.00696e-09 4.87391e-11)
(0.236236 -7.93994e-10 -1.28436e-10)
(0.240257 4.70735e-09 1.42206e-10)
(0.240257 -2.89167e-09 2.2965e-10)
(0.240257 -1.80964e-09 -3.71674e-10)
(0.243522 4.6228e-09 2.32752e-10)
(0.243522 -2.71102e-09 5.08545e-10)
(0.243522 -1.9162e-09 -7.40644e-10)
(0.245847 3.19482e-09 2.06427e-10)
(0.245847 -1.64144e-09 7.77022e-10)
(0.245847 -1.56316e-09 -9.83598e-10)
(0.247111 9.64434e-10 1.54496e-10)
(0.24711 -4.20089e-10 9.54667e-10)
(0.24711 -5.43271e-10 -1.10916e-09)
(0.24711 -1.37319e-09 1.54253e-10)
(0.247109 7.24233e-10 9.54901e-10)
(0.247109 6.46598e-10 -1.1095e-09)
(0.245845 -3.65587e-09 2.07646e-10)
(0.245844 1.98786e-09 7.69686e-10)
(0.245844 1.68043e-09 -9.77367e-10)
(0.243519 -5.14918e-09 2.2859e-10)
(0.243518 3.04826e-09 5.05946e-10)
(0.243518 2.1058e-09 -7.34494e-10)
(0.240253 -5.22057e-09 1.36326e-10)
(0.240253 3.1955e-09 2.34596e-10)
(0.240253 2.03273e-09 -3.70964e-10)
(0.236231 -3.20913e-09 7.6555e-11)
(0.236231 2.15602e-09 6.23591e-11)
(0.236231 1.06095e-09 -1.38611e-10)
(0.231668 -1.05865e-09 -6.19415e-11)
(0.231668 4.14659e-10 -1.43459e-10)
(0.231668 6.40411e-10 2.057e-10)
(0.226712 -9.72161e-10 -3.11173e-10)
(0.226713 -2.00701e-11 -3.494e-10)
(0.226712 9.85263e-10 6.6072e-10)
(0.221384 -2.31793e-09 -4.90175e-10)
(0.221384 2.01167e-09 -4.00915e-10)
(0.221384 3.00023e-10 8.91061e-10)
(0.215551 -2.48856e-09 -6.78745e-10)
(0.215551 3.6242e-09 -2.41572e-10)
(0.215551 -1.14309e-09 9.20267e-10)
(0.208921 -8.16112e-10 -9.33546e-10)
(0.208921 3.55054e-09 -3.59776e-11)
(0.208921 -2.73983e-09 9.69428e-10)
(0.201023 1.60955e-09 -1.24218e-09)
(0.201024 3.0797e-09 2.01873e-10)
(0.201023 -4.69542e-09 1.04014e-09)
(0.191108 2.62497e-09 -1.4616e-09)
(0.191108 2.6968e-09 3.11442e-10)
(0.191108 -5.32432e-09 1.14984e-09)
(0.177744 1.85801e-09 -1.46334e-09)
(0.177744 3.71551e-09 4.31045e-10)
(0.177743 -5.57515e-09 1.03223e-09)
(0.156893 -1.19748e-09 -1.40942e-09)
(0.156894 2.12492e-09 4.83787e-10)
(0.156893 -9.28282e-10 9.25233e-10)
(0.10827 -2.26724e-09 -8.74488e-10)
(0.10827 6.46941e-10 6.23446e-10)
(0.10827 1.62215e-09 2.5122e-10)
(0.120931 2.19591e-09 -1.27256e-09)
(0.120931 -7.94697e-10 8.72077e-10)
(0.120931 -1.42574e-09 3.89201e-10)
(0.169413 1.23237e-09 -1.7712e-09)
(0.169412 -1.73789e-09 7.8804e-10)
(0.169412 5.26321e-10 9.80633e-10)
(0.191954 -1.40048e-09 -1.83195e-09)
(0.191954 -3.03809e-09 6.79561e-10)
(0.191954 4.50937e-09 1.14718e-09)
(0.206442 -1.75489e-09 -1.86832e-09)
(0.206441 -2.55313e-09 4.83663e-10)
(0.206442 4.37162e-09 1.38507e-09)
(0.2171 -6.08849e-10 -1.5984e-09)
(0.217099 -3.28014e-09 2.83221e-10)
(0.2171 3.95415e-09 1.31666e-09)
(0.225509 1.52742e-09 -1.22184e-09)
(0.225508 -3.86552e-09 -6.6933e-11)
(0.225509 2.38777e-09 1.29021e-09)
(0.232511 2.82933e-09 -9.0182e-10)
(0.232511 -3.83842e-09 -3.71509e-10)
(0.232511 1.05349e-09 1.27428e-09)
(0.238631 2.38276e-09 -6.6091e-10)
(0.238631 -2.22764e-09 -5.76891e-10)
(0.238631 -1.16966e-10 1.23834e-09)
(0.244195 8.9488e-10 -4.40809e-10)
(0.244195 -2.18527e-10 -5.01182e-10)
(0.244195 -6.43631e-10 9.42587e-10)
(0.249353 8.93802e-10 -1.19093e-10)
(0.249353 -5.18021e-10 -2.03244e-10)
(0.249353 -3.50197e-10 3.23592e-10)
(0.254095 2.96607e-09 6.83703e-11)
(0.254094 -2.06293e-09 8.93501e-11)
(0.254095 -8.98339e-10 -1.56884e-10)
(0.258269 4.91016e-09 1.75576e-10)
(0.258268 -2.99218e-09 3.23925e-10)
(0.258269 -1.9121e-09 -4.99254e-10)
(0.261657 4.80325e-09 3.15832e-10)
(0.261656 -2.79593e-09 6.93875e-10)
(0.261656 -2.01142e-09 -1.00891e-09)
(0.26407 3.32294e-09 2.88989e-10)
(0.264069 -1.68991e-09 1.06009e-09)
(0.26407 -1.64127e-09 -1.34931e-09)
(0.265382 1.00487e-09 2.17782e-10)
(0.265381 -4.26718e-10 1.307e-09)
(0.265382 -5.75476e-10 -1.52486e-09)
(0.265382 -1.43105e-09 2.17571e-10)
(0.26538 7.50364e-10 1.30731e-09)
(0.265381 6.78177e-10 -1.52534e-09)
(0.264068 -3.80263e-09 2.90148e-10)
(0.264067 2.05686e-09 1.05054e-09)
(0.264068 1.75856e-09 -1.34078e-09)
(0.261653 -5.35013e-09 3.10727e-10)
(0.261653 3.15345e-09 6.90441e-10)
(0.261653 2.2017e-09 -1.0011e-09)
(0.258265 -5.444e-09 1.67929e-10)
(0.258263 3.31605e-09 3.31906e-10)
(0.258264 2.13592e-09 -4.99913e-10)
(0.25409 -3.38846e-09 6.41404e-11)
(0.254089 2.22302e-09 1.08088e-10)
(0.25409 1.17371e-09 -1.71766e-10)
(0.249349 -1.22756e-09 -1.28472e-10)
(0.249349 4.55409e-10 -1.85255e-10)
(0.249349 7.68641e-10 3.14235e-10)
(0.244191 -1.13873e-09 -4.47485e-10)
(0.24419 1.81561e-11 -4.78838e-10)
(0.244191 1.11342e-09 9.26541e-10)
(0.238626 -2.53471e-09 -6.72157e-10)
(0.238626 2.12426e-09 -5.5545e-10)
(0.238626 4.03993e-10 1.22759e-09)
(0.232505 -2.75152e-09 -9.26086e-10)
(0.232505 3.81609e-09 -3.27486e-10)
(0.232505 -1.0723e-09 1.2535e-09)
(0.225502 -1.07109e-09 -1.27562e-09)
(0.225501 3.77299e-09 -2.51551e-11)
(0.225502 -2.70759e-09 1.30065e-09)
(0.217092 1.34764e-09 -1.68085e-09)
(0.217092 3.3013e-09 3.21052e-10)
(0.217092 -4.65537e-09 1.35954e-09)
(0.206434 2.36874e-09 -1.94386e-09)
(0.206434 2.89061e-09 4.85241e-10)
(0.206434 -5.26216e-09 1.45813e-09)
(0.191947 1.61391e-09 -1.89674e-09)
(0.191946 3.7635e-09 6.84339e-10)
(0.191947 -5.37924e-09 1.21224e-09)
(0.169406 -1.29757e-09 -1.83093e-09)
(0.169406 2.19074e-09 8.00955e-10)
(0.169406 -8.94081e-10 1.02939e-09)
(0.120927 -2.31341e-09 -1.34621e-09)
(0.120927 8.37255e-10 9.3294e-10)
(0.120927 1.47789e-09 4.1349e-10)
(0.138983 2.09507e-09 -2.02936e-09)
(0.138983 -1.01691e-09 1.3328e-09)
(0.138983 -1.12816e-09 6.8897e-10)
(0.185691 1.31318e-09 -2.25949e-09)
(0.185692 -1.77391e-09 1.26456e-09)
(0.185691 4.61116e-10 9.85472e-10)
(0.209537 -9.82845e-10 -2.30101e-09)
(0.209537 -3.07385e-09 1.05657e-09)
(0.209536 4.11462e-09 1.23587e-09)
(0.225416 -1.24701e-09 -2.44658e-09)
(0.225416 -2.78106e-09 7.46108e-10)
(0.225415 4.08508e-09 1.70076e-09)
(0.237095 -1.07744e-10 -2.14108e-09)
(0.237095 -3.56417e-09 4.50333e-10)
(0.237095 3.73385e-09 1.69286e-09)
(0.246223 1.94926e-09 -1.66171e-09)
(0.246224 -4.14205e-09 -6.43944e-11)
(0.246223 2.24126e-09 1.72836e-09)
(0.25374 3.20161e-09 -1.22391e-09)
(0.253741 -4.07528e-09 -5.14822e-10)
(0.25374 9.17575e-10 1.74019e-09)
(0.260245 2.6598e-09 -9.06694e-10)
(0.260246 -2.35079e-09 -8.13276e-10)
(0.260245 -2.71423e-10 1.72083e-09)
(0.266114 1.11055e-09 -6.45774e-10)
(0.266114 -2.41005e-10 -6.92751e-10)
(0.266114 -8.37703e-10 1.33949e-09)
(0.271528 1.09487e-09 -2.47908e-10)
(0.271529 -5.1996e-10 -2.51978e-10)
(0.271528 -5.49786e-10 5.0186e-10)
(0.27649 3.10263e-09 1.04783e-11)
(0.276491 -2.05303e-09 1.78388e-10)
(0.27649 -1.04538e-09 -1.87616e-10)
(0.280852 5.05667e-09 1.93867e-10)
(0.280852 -3.02752e-09 4.77492e-10)
(0.280852 -2.02384e-09 -6.71028e-10)
(0.28439 4.92588e-09 4.14851e-10)
(0.284391 -2.82005e-09 9.65177e-10)
(0.28439 -2.10873e-09 -1.37901e-09)
(0.286909 3.41796e-09 3.90499e-10)
(0.286909 -1.69523e-09 1.46912e-09)
(0.286909 -1.72756e-09 -1.86003e-09)
(0.288278 1.03462e-09 2.90278e-10)
(0.288278 -4.13351e-10 1.82123e-09)
(0.288278 -6.15617e-10 -2.11153e-09)
(0.288277 -1.47925e-09 2.90078e-10)
(0.288277 7.62751e-10 1.82156e-09)
(0.288277 7.14068e-10 -2.1122e-09)
(0.286907 -3.91653e-09 3.91315e-10)
(0.286907 2.08845e-09 1.45696e-09)
(0.286907 1.84108e-09 -1.8484e-09)
(0.284386 -5.49259e-09 4.08874e-10)
(0.284387 3.20424e-09 9.60697e-10)
(0.284386 2.29341e-09 -1.36943e-09)
(0.280848 -5.60948e-09 1.84272e-10)
(0.280848 3.37826e-09 4.90401e-10)
(0.280848 2.23947e-09 -6.74802e-10)
(0.276485 -3.5465e-09 6.07834e-12)
(0.276486 2.2293e-09 2.05071e-10)
(0.276485 1.32597e-09 -2.10383e-10)
(0.271523 -1.44542e-09 -2.60877e-10)
(0.271524 4.66137e-10 -2.23479e-10)
(0.271523 9.76127e-10 4.85223e-10)
(0.266109 -1.36231e-09 -6.54855e-10)
(0.266109 4.42811e-11 -6.62229e-10)
(0.266109 1.31094e-09 1.31741e-09)
(0.26024 -2.81714e-09 -9.21206e-10)
(0.260241 2.24754e-09 -7.87522e-10)
(0.26024 5.6321e-10 1.70872e-09)
(0.253734 -3.12594e-09 -1.25828e-09)
(0.253735 4.05244e-09 -4.59395e-10)
(0.253734 -9.34311e-10 1.71757e-09)
(0.246216 -1.49631e-09 -1.73864e-09)
(0.246217 4.06128e-09 -1.03281e-11)
(0.246216 -2.57077e-09 1.74882e-09)
(0.237088 8.36501e-10 -2.25285e-09)
(0.237088 3.58968e-09 4.98482e-10)
(0.237088 -4.43276e-09 1.75395e-09)
(0.225408 1.84636e-09 -2.53673e-09)
(0.225409 3.11476e-09 7.45683e-10)
(0.225408 -4.96411e-09 1.7903e-09)
(0.20953 1.20052e-09 -2.37855e-09)
(0.20953 3.75875e-09 1.07857e-09)
(0.209529 -4.96134e-09 1.2997e-09)
(0.185685 -1.37564e-09 -2.33914e-09)
(0.185685 2.21152e-09 1.31724e-09)
(0.185685 -8.36898e-10 1.02104e-09)
(0.138979 -2.23111e-09 -2.15026e-09)
(0.138979 1.08044e-09 1.42818e-09)
(0.138979 1.15231e-09 7.22415e-10)
(0.150776 1.91371e-09 -2.65061e-09)
(0.150777 -1.13029e-09 1.67999e-09)
(0.150776 -8.46541e-10 9.67735e-10)
(0.196148 1.30621e-09 -2.50396e-09)
(0.196148 -1.74877e-09 1.60683e-09)
(0.196148 4.25165e-10 8.80688e-10)
(0.220155 -6.93989e-10 -2.50082e-09)
(0.220155 -3.07362e-09 1.31324e-09)
(0.220155 3.81392e-09 1.17562e-09)
(0.236804 -8.31107e-10 -2.75577e-09)
(0.236804 -2.91395e-09 9.16346e-10)
(0.236804 3.79464e-09 1.83923e-09)
(0.249153 2.99507e-10 -2.45134e-09)
(0.249153 -3.74903e-09 5.58637e-10)
(0.249153 3.50719e-09 1.89508e-09)
(0.258785 2.27772e-09 -1.92331e-09)
(0.258785 -4.32721e-09 -7.11938e-11)
(0.258785 2.09549e-09 1.99739e-09)
(0.266669 3.46442e-09 -1.41437e-09)
(0.266669 -4.23272e-09 -6.22168e-10)
(0.266669 8.10633e-10 2.03841e-09)
(0.273445 2.83618e-09 -1.05817e-09)
(0.273445 -2.41554e-09 -9.83241e-10)
(0.273445 -3.84511e-10 2.04254e-09)
(0.279524 1.2467e-09 -7.90953e-10)
(0.279524 -2.25685e-10 -8.2105e-10)
(0.279524 -9.90753e-10 1.61328e-09)
(0.285112 1.21756e-09 -3.62845e-10)
(0.285112 -4.83028e-10 -2.65007e-10)
(0.285112 -7.10262e-10 6.30399e-10)
(0.290222 3.15359e-09 -6.08731e-11)
(0.290222 -1.98773e-09 2.67427e-10)
(0.290222 -1.16226e-09 -2.04948e-10)
(0.294708 5.08561e-09 1.79834e-10)
(0.294708 -2.98522e-09 5.97635e-10)
(0.294708 -2.09562e-09 -7.77071e-10)
(0.298346 4.93967e-09 4.62066e-10)
(0.298345 -2.77849e-09 1.15481e-09)
(0.298345 -2.16284e-09 -1.61573e-09)
(0.300934 3.4377e-09 4.40379e-10)
(0.300934 -1.65904e-09 1.75541e-09)
(0.300934 -1.78067e-09 -2.19643e-09)
(0.302341 1.04006e-09 3.18679e-10)
(0.302341 -3.90191e-10 2.17588e-09)
(0.302341 -6.41853e-10 -2.49453e-09)
(0.30234 -1.49433e-09 3.18459e-10)
(0.30234 7.5509e-10 2.17617e-09)
(0.30234 7.36974e-10 -2.49533e-09)
(0.300932 -3.94587e-09 4.40804e-10)
(0.300931 2.06886e-09 1.74184e-09)
(0.300931 1.89006e-09 -2.18285e-09)
(0.298342 -5.51547e-09 4.55848e-10)
(0.298342 3.17969e-09 1.14971e-09)
(0.298342 2.34073e-09 -1.60538e-09)
(0.294704 -5.64596e-09 1.69348e-10)
(0.294704 3.3542e-09 6.14181e-10)
(0.294704 2.30007e-09 -7.83703e-10)
(0.290217 -3.60481e-09 -6.5276e-11)
(0.290217 2.17602e-09 3.00134e-10)
(0.290217 1.43793e-09 -2.33892e-10)
(0.285107 -1.57554e-09 -3.78448e-10)
(0.285107 4.36997e-10 -2.28101e-10)
(0.285107 1.13573e-09 6.07699e-10)
(0.279519 -1.49996e-09 -8.01746e-10)
(0.279519 3.35476e-11 -7.85109e-10)
(0.279519 1.45953e-09 1.58728e-09)
(0.273439 -2.99634e-09 -1.07443e-09)
(0.27344 2.31363e-09 -9.55955e-10)
(0.273439 6.76546e-10 2.03039e-09)
(0.266663 -3.39293e-09 -1.45635e-09)
(0.266663 4.21054e-09 -5.60864e-10)
(0.266663 -8.25353e-10 2.01709e-09)
(0.258778 -1.84016e-09 -2.016e-09)
(0.258778 4.2611e-09 -1.00034e-11)
(0.258778 -2.42669e-09 2.02585e-09)
(0.249146 4.07928e-10 -2.58344e-09)
(0.249146 3.77737e-09 6.12924e-10)
(0.249146 -4.19187e-09 1.96987e-09)
(0.236796 1.41282e-09 -2.84942e-09)
(0.236797 3.23724e-09 9.13003e-10)
(0.236796 -4.65306e-09 1.9354e-09)
(0.220149 9.12126e-10 -2.58081e-09)
(0.220149 3.72161e-09 1.35108e-09)
(0.220148 -4.63599e-09 1.22926e-09)
(0.196142 -1.36628e-09 -2.59316e-09)
(0.196142 2.17011e-09 1.69607e-09)
(0.196142 -8.04956e-10 8.95916e-10)
(0.150772 -2.05128e-09 -2.80902e-09)
(0.150772 1.20259e-09 1.80052e-09)
(0.150772 8.50307e-10 1.0089e-09)
(0.163985 1.57514e-09 -3.32422e-09)
(0.163985 -1.1974e-09 2.02488e-09)
(0.163985 -4.41966e-10 1.30423e-09)
(0.204747 1.14322e-09 -2.65353e-09)
(0.204748 -1.70011e-09 1.91748e-09)
(0.204747 5.25234e-10 7.12614e-10)
(0.22912 -3.63062e-10 -2.55309e-09)
(0.22912 -2.96741e-09 1.52772e-09)
(0.22912 3.36219e-09 1.00914e-09)
(0.246474 -3.39024e-10 -2.89292e-09)
(0.246474 -3.04487e-09 1.04252e-09)
(0.246474 3.42483e-09 1.84895e-09)
(0.259507 7.71341e-10 -2.63995e-09)
(0.259507 -3.90467e-09 6.21781e-10)
(0.259507 3.18495e-09 2.02071e-09)
(0.269683 2.60704e-09 -2.1e-09)
(0.269682 -4.48557e-09 -9.69744e-11)
(0.269683 1.92122e-09 2.20024e-09)
(0.277966 3.67868e-09 -1.55268e-09)
(0.277966 -4.34477e-09 -7.32833e-10)
(0.277966 7.05953e-10 2.28779e-09)
(0.285031 2.97035e-09 -1.17458e-09)
(0.285031 -2.4575e-09 -1.13792e-09)
(0.285031 -4.78848e-10 2.31398e-09)
(0.291325 1.3968e-09 -9.28984e-10)
(0.291325 -2.27206e-10 -9.25914e-10)
(0.291325 -1.14143e-09 1.85647e-09)
(0.29708 1.34734e-09 -5.06212e-10)
(0.29708 -4.21938e-10 -2.47786e-10)
(0.29708 -9.02441e-10 7.57201e-10)
(0.302327 3.178e-09 -1.70764e-10)
(0.302327 -1.83832e-09 3.85284e-10)
(0.302327 -1.33654e-09 -2.12569e-10)
(0.306926 5.04987e-09 1.31418e-10)
(0.306926 -2.84894e-09 7.37031e-10)
(0.306926 -2.19695e-09 -8.68047e-10)
(0.310653 4.8918e-09 4.73564e-10)
(0.310653 -2.66434e-09 1.34265e-09)
(0.310653 -2.22788e-09 -1.81493e-09)
(0.313307 3.41715e-09 4.57455e-10)
(0.313306 -1.58088e-09 2.01834e-09)
(0.313307 -1.83527e-09 -2.47662e-09)
(0.314749 1.03276e-09 3.15087e-10)
(0.314749 -3.55928e-10 2.50835e-09)
(0.314749 -6.66644e-10 -2.82333e-09)
(0.314749 -1.49409e-09 3.1489e-10)
(0.314748 7.31543e-10 2.50844e-09)
(0.314748 7.60668e-10 -2.82409e-09)
(0.313305 -3.93197e-09 4.57166e-10)
(0.313304 2.00106e-09 2.0042e-09)
(0.313304 1.94368e-09 -2.4616e-09)
(0.31065 -5.47246e-09 4.67604e-10)
(0.310649 3.07856e-09 1.33726e-09)
(0.310649 2.39887e-09 -1.80463e-09)
(0.306922 -5.61264e-09 1.20725e-10)
(0.306922 3.2324e-09 7.57039e-10)
(0.306922 2.3886e-09 -8.78019e-10)
(0.302322 -3.63514e-09 -1.75238e-10)
(0.302322 2.03624e-09 4.23859e-10)
(0.302322 1.60804e-09 -2.47372e-10)
(0.297075 -1.70682e-09 -5.24226e-10)
(0.297075 3.85035e-10 -2.0164e-10)
(0.297075 1.31934e-09 7.27379e-10)
(0.29132 -1.64664e-09 -9.40992e-10)
(0.29132 4.57444e-11 -8.85125e-10)
(0.29132 1.59437e-09 1.82666e-09)
(0.285025 -3.12863e-09 -1.19261e-09)
(0.285026 2.35781e-09 -1.11021e-09)
(0.285025 7.64915e-10 2.30288e-09)
(0.277959 -3.60827e-09 -1.60188e-09)
(0.27796 4.32011e-09 -6.70779e-10)
(0.27796 -7.19342e-10 2.27253e-09)
(0.269676 -2.20156e-09 -2.20493e-09)
(0.269675 4.4425e-09 -3.49597e-11)
(0.269676 -2.24656e-09 2.23961e-09)
(0.2595 -1.11228e-10 -2.7867e-09)
(0.2595 3.94218e-09 6.76863e-10)
(0.2595 -3.83736e-09 2.10922e-09)
(0.246467 8.92384e-10 -2.98699e-09)
(0.246467 3.35071e-09 1.0394e-09)
(0.246467 -4.24608e-09 1.94634e-09)
(0.229114 5.84868e-10 -2.62794e-09)
(0.229114 3.54734e-09 1.58595e-09)
(0.229113 -4.13452e-09 1.04146e-09)
(0.204742 -1.18525e-09 -2.75163e-09)
(0.204742 2.09435e-09 2.0494e-09)
(0.204741 -9.10269e-10 7.00789e-10)
(0.16398 -1.69403e-09 -3.51643e-09)
(0.16398 1.29276e-09 2.16776e-09)
(0.16398 4.0276e-10 1.34912e-09)
(0.177753 1.10995e-09 -4.07855e-09)
(0.177751 -1.19793e-09 2.39922e-09)
(0.177753 3.04481e-11 1.69448e-09)
(0.214344 8.74385e-10 -2.75343e-09)
(0.214344 -1.60784e-09 2.23435e-09)
(0.214344 6.92185e-10 4.88357e-10)
(0.238588 -4.36213e-11 -2.48715e-09)
(0.238587 -2.83322e-09 1.72939e-09)
(0.238588 2.89461e-09 7.35945e-10)
(0.256478 2.2852e-10 -2.90421e-09)
(0.256477 -3.14668e-09 1.14036e-09)
(0.256478 2.94959e-09 1.76012e-09)
(0.270188 1.34624e-09 -2.73341e-09)
(0.270187 -4.08667e-09 6.48874e-10)
(0.270188 2.78499e-09 2.08671e-09)
(0.280963 3.0201e-09 -2.20769e-09)
(0.280962 -4.67259e-09 -1.62294e-10)
(0.280963 1.69101e-09 2.37362e-09)
(0.28971 3.93035e-09 -1.63695e-09)
(0.289709 -4.48786e-09 -8.7839e-10)
(0.28971 5.94238e-10 2.51816e-09)
(0.297117 3.11277e-09 -1.25748e-09)
(0.297116 -2.49494e-09 -1.30973e-09)
(0.297117 -5.86632e-10 2.569e-09)
(0.303664 1.55137e-09 -1.07122e-09)
(0.303662 -1.99932e-10 -1.02288e-09)
(0.303664 -1.32589e-09 2.09612e-09)
(0.309612 1.47807e-09 -6.88922e-10)
(0.309611 -3.10593e-10 -1.94214e-10)
(0.309612 -1.14659e-09 8.87023e-10)
(0.315014 3.19646e-09 -3.32031e-10)
(0.315013 -1.60878e-09 5.53357e-10)
(0.315014 -1.58527e-09 -2.18954e-10)
(0.319739 4.99171e-09 4.13816e-11)
(0.319738 -2.62638e-09 9.13136e-10)
(0.319739 -2.36222e-09 -9.54097e-10)
(0.323566 4.81502e-09 4.52914e-10)
(0.323565 -2.48234e-09 1.55083e-09)
(0.323566 -2.33169e-09 -2.00243e-09)
(0.326291 3.37513e-09 4.42356e-10)
(0.326289 -1.46295e-09 2.30854e-09)
(0.326291 -1.90815e-09 -2.75205e-09)
(0.327772 1.01675e-09 2.75571e-10)
(0.327771 -3.08792e-10 2.87406e-09)
(0.327772 -6.95591e-10 -3.1494e-09)
(0.327772 -1.4847e-09 2.75423e-10)
(0.32777 6.92351e-10 2.87382e-09)
(0.327771 7.90892e-10 -3.15009e-09)
(0.326289 -3.89599e-09 4.41123e-10)
(0.326287 1.88998e-09 2.29426e-09)
(0.326289 2.01847e-09 -2.7357e-09)
(0.323563 -5.39943e-09 4.47676e-10)
(0.323561 2.90622e-09 1.54514e-09)
(0.323562 2.49808e-09 -1.99254e-09)
(0.319735 -5.55623e-09 3.131e-11)
(0.319734 3.02213e-09 9.36173e-10)
(0.319735 2.54243e-09 -9.67827e-10)
(0.315009 -3.65956e-09 -3.3685e-10)
(0.315008 1.81477e-09 5.98739e-10)
(0.315009 1.85396e-09 -2.60356e-10)
(0.309607 -1.8357e-09 -7.0999e-10)
(0.309606 2.82847e-10 -1.3666e-10)
(0.309607 1.55112e-09 8.48523e-10)
(0.303659 -1.79623e-09 -1.08445e-09)
(0.303658 3.06719e-11 -9.76798e-10)
(0.303659 1.75949e-09 2.06194e-09)
(0.297112 -3.26591e-09 -1.278e-09)
(0.297111 2.39473e-09 -1.28318e-09)
(0.297112 8.65744e-10 2.56124e-09)
(0.289704 -3.86602e-09 -1.6937e-09)
(0.289703 4.4555e-09 -8.18109e-10)
(0.289704 -5.96696e-10 2.51168e-09)
(0.280956 -2.64829e-09 -2.32759e-09)
(0.280955 4.62198e-09 -9.93772e-11)
(0.280956 -1.97914e-09 2.42665e-09)
(0.270181 -7.48374e-10 -2.89307e-09)
(0.270181 4.13236e-09 7.02318e-10)
(0.270181 -3.39011e-09 2.1899e-09)
(0.256471 2.86205e-10 -2.99594e-09)
(0.25647 3.42478e-09 1.13826e-09)
(0.256471 -3.71395e-09 1.85617e-09)
(0.238581 2.74836e-10 -2.55384e-09)
(0.238581 3.34191e-09 1.81442e-09)
(0.238581 -3.61913e-09 7.38803e-10)
(0.214338 -8.8757e-10 -2.8591e-09)
(0.214338 1.97288e-09 2.41869e-09)
(0.214338 -1.08652e-09 4.38514e-10)
(0.177747 -1.19837e-09 -4.31201e-09)
(0.177746 1.31706e-09 2.56935e-09)
(0.177747 -1.17317e-10 1.74313e-09)
(0.196578 2.81348e-10 -5.12741e-09)
(0.196579 -1.08734e-09 2.8949e-09)
(0.196578 7.70071e-10 2.26416e-09)
(0.22909 3.01663e-10 -2.78275e-09)
(0.229092 -1.40059e-09 2.63377e-09)
(0.22909 1.05752e-09 1.09942e-10)
(0.252388 2.96904e-10 -2.11621e-09)
(0.25239 -2.61786e-09 1.92384e-09)
(0.252388 2.3245e-09 1.61374e-10)
(0.270551 1.03724e-09 -2.57719e-09)
(0.270553 -3.24301e-09 1.14645e-09)
(0.270552 2.22477e-09 1.42263e-09)
(0.285004 2.2184e-09 -2.57052e-09)
(0.285006 -4.31159e-09 5.46762e-10)
(0.285004 2.1276e-09 2.02482e-09)
(0.296579 3.66619e-09 -2.14498e-09)
(0.296581 -4.91434e-09 -3.67797e-10)
(0.296579 1.28018e-09 2.51655e-09)
(0.306005 4.36214e-09 -1.59322e-09)
(0.306006 -4.70071e-09 -1.15786e-09)
(0.306005 3.70272e-10 2.75445e-09)
(0.313924 3.29919e-09 -1.28796e-09)
(0.313926 -2.47894e-09 -1.56392e-09)
(0.313924 -7.93412e-10 2.85413e-09)
(0.320843 1.76242e-09 -1.25477e-09)
(0.320845 -7.35134e-11 -1.10477e-09)
(0.320843 -1.6675e-09 2.36215e-09)
(0.327066 1.65133e-09 -1.00998e-09)
(0.327068 -2.20033e-11 -3.18272e-11)
(0.327066 -1.61165e-09 1.04692e-09)
(0.332677 3.21484e-09 -6.53455e-10)
(0.332679 -1.14303e-09 8.85255e-10)
(0.332677 -2.0703e-09 -2.28695e-10)
(0.337567 4.87392e-09 -1.66049e-10)
(0.337569 -2.16353e-09 1.23095e-09)
(0.337567 -2.70846e-09 -1.06446e-09)
(0.341519 4.66258e-09 3.53275e-10)
(0.341521 -2.113e-09 1.8761e-09)
(0.341519 -2.54681e-09 -2.22803e-09)
(0.344329 3.28612e-09 3.49989e-10)
(0.344331 -1.23768e-09 2.73738e-09)
(0.344329 -2.04083e-09 -3.08901e-09)
(0.345856 9.81493e-10 1.45925e-10)
(0.345858 -2.25788e-10 3.40692e-09)
(0.345856 -7.40916e-10 -3.55217e-09)
(0.345855 -1.45776e-09 1.45925e-10)
(0.345857 6.12297e-10 3.40609e-09)
(0.345855 8.44422e-10 -3.5528e-09)
(0.344327 -3.81404e-09 3.47202e-10)
(0.344329 1.665e-09 2.72376e-09)
(0.344327 2.16087e-09 -3.07128e-09)
(0.341515 -5.2489e-09 3.49965e-10)
(0.341518 2.54028e-09 1.86928e-09)
(0.341515 2.71312e-09 -2.21883e-09)
(0.337563 -5.43777e-09 -1.73354e-10)
(0.337565 2.56715e-09 1.25662e-09)
(0.337562 2.87872e-09 -1.08369e-09)
(0.332672 -3.68315e-09 -6.59281e-10)
(0.332674 1.35325e-09 9.41201e-10)
(0.332672 2.33871e-09 -2.79817e-10)
(0.327061 -2.00331e-09 -1.03636e-09)
(0.327063 2.83616e-13 4.45724e-11)
(0.327061 2.00225e-09 9.9441e-10)
(0.320838 -2.00248e-09 -1.27294e-09)
(0.32084 -8.15503e-11 -1.05028e-09)
(0.320838 2.07887e-09 2.32418e-09)
(0.313919 -3.43538e-09 -1.31732e-09)
(0.313921 2.36454e-09 -1.54055e-09)
(0.313919 1.06598e-09 2.85798e-09)
(0.305999 -4.31715e-09 -1.66813e-09)
(0.306 4.66129e-09 -1.10991e-09)
(0.305999 -3.50787e-10 2.77782e-09)
(0.296573 -3.34123e-09 -2.28085e-09)
(0.296575 4.86053e-09 -3.20038e-10)
(0.296573 -1.52437e-09 2.60042e-09)
(0.284998 -1.72775e-09 -2.73252e-09)
(0.285 4.36907e-09 5.86691e-10)
(0.284998 -2.64697e-09 2.14469e-09)
(0.270545 -6.09623e-10 -2.64721e-09)
(0.270547 3.4823e-09 1.1503e-09)
(0.270545 -2.87532e-09 1.49489e-09)
(0.252382 -5.97537e-11 -2.168e-09)
(0.252384 3.03033e-09 2.0585e-09)
(0.252382 -2.97312e-09 1.08733e-10)
(0.229084 -2.56651e-10 -2.89765e-09)
(0.229086 1.7225e-09 2.90065e-09)
(0.229084 -1.46732e-09 -5.62304e-12)
(0.196572 -3.07071e-10 -5.41564e-09)
(0.196573 1.23674e-09 3.10949e-09)
(0.196572 -9.28575e-10 2.30711e-09)
(0.208994 -3.8769e-10 -5.78052e-09)
(0.208995 -9.63707e-10 3.17022e-09)
(0.208995 1.33645e-09 2.65283e-09)
(0.239651 -2.41177e-10 -2.68062e-09)
(0.239652 -1.21233e-09 2.83884e-09)
(0.239651 1.42183e-09 -2.01538e-10)
(0.262089 3.84894e-10 -1.64042e-09)
(0.262089 -2.43196e-09 1.95715e-09)
(0.262089 2.04634e-09 -3.53709e-10)
(0.280173 1.52345e-09 -2.06186e-09)
(0.280173 -3.24946e-09 1.02291e-09)
(0.280173 1.73869e-09 1.02731e-09)