/*--------------------------------*- C++ -*----------------------------------*\
  =========                 |
  \\      /  F ield         | OpenFOAM: The Open Source CFD Toolbox
   \\    /   O peration     | Website:  https://openfoam.org
    \\  /    A nd           | Version:  6
     \\/     M anipulation  |
\*---------------------------------------------------------------------------*/
FoamFile
{
    version     2.0;
    format      ascii;
    class       volVectorField;
    location    "49";
    object      wallShearStress;
}
// * * * * * * * * * * * * * * * * * * * * * * * * * * * * * * * * * * * * * //

dimensions      [0 2 -2 0 0 0 0];

internalField   uniform (0 0 0);

boundaryField
{
    inlet
    {
        type            calculated;
        value           uniform (0 0 0);
    }
    outlet
    {
        type            calculated;
        value           uniform (0 0 0);
    }
    roughCylinder
    {
        type            calculated;
        value           nonuniform List<vector> 
3840
(
(-0.000469958 -0.000679092 -0.000285484)
(-0.00033396 -0.00050767 -1.80864e-05)
(-0.000365086 -0.000579032 4.11639e-05)
(-0.000451896 -0.000683723 0.000109992)
(-0.000544151 -0.000755 0.000175858)
(-0.000635054 -0.000794587 0.00023153)
(-0.00071758 -0.000807972 0.00027403)
(-0.000789581 -0.000809009 0.000303819)
(-0.000851161 -0.000812041 0.000323489)
(-0.00089983 -0.000820563 0.00033279)
(-0.000940039 -0.000836612 0.000333621)
(-0.00097415 -0.000858691 0.000328554)
(-0.0010057 -0.000885142 0.000319805)
(-0.00103766 -0.000914773 0.000308842)
(-0.0010717 -0.000946935 0.000296277)
(-0.0011084 -0.000981346 0.000282216)
(-0.00114788 -0.00101792 0.000266552)
(-0.00118979 -0.00105632 0.000248978)
(-0.0012336 -0.00109599 0.000228921)
(-0.00127841 -0.00113602 0.000205368)
(-0.00132286 -0.00117506 0.000176487)
(-0.0013647 -0.00121107 0.000139683)
(-0.00139961 -0.00124101 9.09968e-05)
(-0.00142061 -0.00125951 3.13684e-05)
(-0.000508215 -0.000669257 -0.000284079)
(-0.000356303 -0.000497131 -2.2572e-05)
(-0.000383711 -0.000561929 3.33091e-05)
(-0.0004727 -0.000667029 9.90496e-05)
(-0.000567409 -0.000740504 0.000163162)
(-0.0006613 -0.000783375 0.000217981)
(-0.000747792 -0.000801268 0.000260652)
(-0.000825074 -0.000807294 0.000292067)
(-0.000891926 -0.000812169 0.000313777)
(-0.000943199 -0.0008187 0.000323796)
(-0.000985195 -0.000833478 0.000324917)
(-0.00102127 -0.00085483 0.000320071)
(-0.00105474 -0.00088086 0.0003115)
(-0.0010885 -0.000910095 0.000300712)
(-0.00112434 -0.000941867 0.000288402)
(-0.00116306 -0.000976002 0.000274744)
(-0.00120457 -0.00101218 0.000259568)
(-0.00124857 -0.00105014 0.000242578)
(-0.00129446 -0.0010893 0.000223182)
(-0.00134134 -0.00112878 0.000200369)
(-0.00138775 -0.00116725 0.000172316)
(-0.00143139 -0.00120272 0.000136458)
(-0.00146779 -0.00123222 8.89136e-05)
(-0.00148967 -0.00125041 3.06438e-05)
(-0.000550626 -0.000654691 -0.000274225)
(-0.00038075 -0.000483528 -2.76719e-05)
(-0.000401449 -0.000539676 2.47883e-05)
(-0.00049162 -0.000643657 8.70737e-05)
(-0.00058869 -0.00071929 0.000149337)
(-0.000685495 -0.000765625 0.000203443)
(-0.000776557 -0.000788763 0.000246784)
(-0.000859171 -0.000799837 0.00027979)
(-0.000930583 -0.000806895 0.000302913)
(-0.000985225 -0.000811614 0.000313631)
(-0.00102945 -0.000825199 0.000315312)
(-0.00106755 -0.000845539 0.000310725)
(-0.00110283 -0.000870761 0.000302369)
(-0.00113851 -0.000899444 0.000291859)
(-0.00117633 -0.000930736 0.000279918)
(-0.00121687 -0.000964174 0.000266674)
(-0.00126033 -0.000999688 0.000252041)
(-0.0013063 -0.0010369 0.000235685)
(-0.00135421 -0.00107528 0.000217016)
(-0.00140305 -0.00111394 0.000195004)
(-0.00145133 -0.00115158 0.000167842)
(-0.00149666 -0.00118625 0.000132999)
(-0.00153446 -0.0012151 8.66805e-05)
(-0.00155716 -0.00123288 2.98683e-05)
(-0.000575075 -0.000615089 -0.000250297)
(-0.000398086 -0.00045923 -3.25874e-05)
(-0.000414613 -0.000511031 1.58571e-05)
(-0.000505783 -0.000614017 7.43206e-05)
(-0.000605138 -0.000691941 0.000134509)
(-0.000705666 -0.000742877 0.000188054)
(-0.000801322 -0.000771431 0.000232142)
(-0.000888798 -0.000787021 0.000266557)
(-0.000964264 -0.000795898 0.000290646)
(-0.00102425 -0.000801088 0.000302755)
(-0.00107053 -0.000812597 0.000304935)
(-0.00111072 -0.000831653 0.000300691)
(-0.00114814 -0.000856058 0.000292714)
(-0.00118567 -0.000883911 0.000282538)
(-0.00122521 -0.000914349 0.000270981)
(-0.00126777 -0.000947127 0.000258282)
(-0.00131315 -0.000981812 0.000244258)
(-0.00136106 -0.00101813 0.000228599)
(-0.00141081 -0.0010555 0.000210691)
(-0.00146145 -0.0010931 0.000189514)
(-0.00151143 -0.00112967 0.00016327)
(-0.0015583 -0.00116335 0.000129468)
(-0.00159735 -0.00119138 8.44043e-05)
(-0.00162077 -0.00120862 2.90792e-05)
(-0.000601473 -0.00057647 -0.000225416)
(-0.000417052 -0.000436098 -3.78818e-05)
(-0.000424158 -0.00047887 6.8166e-06)
(-0.00051482 -0.00057941 6.11239e-05)
(-0.000616443 -0.000659602 0.00011896)
(-0.000719974 -0.000714389 0.000171546)
(-0.000820215 -0.000748349 0.000216244)
(-0.000912702 -0.000768485 0.000252029)
(-0.000993183 -0.000779946 0.000277338)
(-0.00105758 -0.000785705 0.000290619)
(-0.00110761 -0.000795306 0.000293686)
(-0.00115018 -0.000813022 0.000290033)
(-0.00118955 -0.00083607 0.000282467)
(-0.0012291 -0.000862979 0.00027277)
(-0.00127071 -0.000892615 0.000261766)
(-0.00131488 -0.000924267 0.000249607)
(-0.00136201 -0.000957864 0.00023624)
(-0.00141161 -0.00099299 0.000221315)
(-0.0014631 -0.00102915 0.00020422)
(-0.00151538 -0.00106547 0.000183916)
(-0.00156689 -0.00110077 0.00015862)
(-0.00161511 -0.00113325 0.000125882)
(-0.00165529 -0.00116028 8.20966e-05)
(-0.00167934 -0.00117688 2.82805e-05)
(-0.000605503 -0.000517678 -0.000192694)
(-0.00042429 -0.000401524 -4.24924e-05)
(-0.000427519 -0.000441991 -2.1412e-06)
(-0.000517305 -0.000540058 4.75867e-05)
(-0.000620682 -0.000621978 0.000102568)
(-0.000728319 -0.000681631 0.000154113)
(-0.000833229 -0.000720762 0.000199197)
(-0.000930377 -0.000744813 0.000236096)
(-0.00101484 -0.000757936 0.000262393)
(-0.00108503 -0.000765683 0.000277169)
(-0.00113998 -0.000774278 0.000281464)
(-0.00118504 -0.000789535 0.000278524)
(-0.00122698 -0.00081138 0.000271658)
(-0.00126852 -0.000836992 0.000262536)
(-0.00131172 -0.000865265 0.00025209)
(-0.00135793 -0.000895896 0.000240652)
(-0.00140681 -0.000928268 0.000228031)
(-0.00145813 -0.000962086 0.000213914)
(-0.00151113 -0.000996772 0.000197664)
(-0.00156485 -0.00103159 0.00017826)
(-0.00161768 -0.00106539 0.000153931)
(-0.00166709 -0.00109645 0.00012227)
(-0.00170823 -0.0011223 7.97746e-05)
(-0.0017328 -0.00113818 2.74787e-05)
(-0.000622116 -0.000473584 -0.000164753)
(-0.000437305 -0.000373083 -4.78453e-05)
(-0.000426349 -0.000403664 -1.0966e-05)
(-0.000512971 -0.00049734 3.38444e-05)
(-0.000618365 -0.000581275 8.55962e-05)
(-0.000728534 -0.00064418 0.000135428)
(-0.000837803 -0.000687948 0.000180492)
(-0.000939954 -0.000715886 0.000218352)
(-0.00103062 -0.000732179 0.000246211)
(-0.00110496 -0.000740564 0.0002621)
(-0.0011655 -0.000749416 0.000267877)
(-0.00121522 -0.000762991 0.000266207)
(-0.00125941 -0.000782364 0.000260104)
(-0.00130321 -0.000806455 0.000251764)
(-0.00134872 -0.000833602 0.000242136)
(-0.00139634 -0.00086264 0.000231403)
(-0.00144673 -0.000893492 0.000219578)
(-0.00149944 -0.000925691 0.000206303)
(-0.00155385 -0.000958773 0.00019096)
(-0.00160884 -0.000991908 0.000172498)
(-0.00166282 -0.00102403 0.000149166)
(-0.00171324 -0.00105353 0.000118606)
(-0.00175521 -0.00107808 7.74243e-05)
(-0.00178019 -0.00109314 2.66686e-05)
(-0.000612617 -0.000412589 -0.00013477)
(-0.000429283 -0.000330928 -5.06048e-05)
(-0.000416889 -0.000361285 -1.92284e-05)
(-0.00050029 -0.000451223 1.99987e-05)
(-0.000605862 -0.000535566 6.772e-05)
(-0.000720163 -0.000603084 0.000115591)
(-0.000834318 -0.000651591 0.000160324)
(-0.000941784 -0.000683269 0.000198927)
(-0.00103626 -0.000700828 0.000227737)
(-0.00111747 -0.000711527 0.000245516)
(-0.00118314 -0.000720454 0.0002528)
(-0.00123748 -0.000732851 0.000252529)
(-0.00128614 -0.000750694 0.000247812)
(-0.00133248 -0.000772788 0.000240476)
(-0.00137947 -0.000797832 0.00023164)
(-0.00142922 -0.000825431 0.000221854)
(-0.00148127 -0.000854673 0.000210943)
(-0.00153547 -0.0008852 0.000198607)
(-0.00159102 -0.000916416 0.000184199)
(-0.00164703 -0.000947665 0.000166701)
(-0.00170191 -0.000977909 0.000144379)
(-0.00175312 -0.00100561 0.000114926)
(-0.00179573 -0.00102868 7.50666e-05)
(-0.00182098 -0.00104289 2.58584e-05)
(-0.000497456 -0.000296259 -8.8859e-05)
(-0.000422301 -0.000292459 -5.33228e-05)
(-0.000402055 -0.000319041 -2.7106e-05)
(-0.000478635 -0.000402473 6.34604e-06)
(-0.000585585 -0.00048826 4.95286e-05)
(-0.000701224 -0.000557928 9.44499e-05)
(-0.000819393 -0.000610303 0.000138149)
(-0.000931906 -0.000645344 0.00017706)
(-0.0010346 -0.000666964 0.000207626)
(-0.00112032 -0.000678175 0.000226883)
(-0.00119201 -0.000687581 0.000236087)
(-0.00125188 -0.000699493 0.000237623)
(-0.00130411 -0.000715603 0.000234308)
(-0.00135369 -0.000735882 0.000228269)
(-0.00140382 -0.00075948 0.000220689)
(-0.00145496 -0.000784995 0.000211875)
(-0.00150835 -0.000812299 0.000201957)
(-0.0015636 -0.000840831 0.000190608)
(-0.00162024 -0.000870134 0.000177222)
(-0.00167711 -0.000899408 0.000160747)
(-0.00173272 -0.000927693 0.00013948)
(-0.00178464 -0.000953579 0.000111174)
(-0.00182782 -0.000975151 7.26738e-05)
(-0.00185317 -0.000988425 2.50383e-05)
(-0.00052222 -0.000273819 -7.22127e-05)
(-0.000404686 -0.000249832 -5.56255e-05)
(-0.00037785 -0.000274757 -3.39299e-05)
(-0.00044764 -0.000351872 -6.75367e-06)
(-0.000551481 -0.000435511 3.07969e-05)
(-0.000670991 -0.000509342 7.2206e-05)
(-0.000794245 -0.000566231 0.000114357)
(-0.000913453 -0.000605511 0.000153442)
(-0.0010195 -0.000627773 0.000184653)
(-0.00111363 -0.000641632 0.000206216)
(-0.00119144 -0.00065131 0.000217572)
(-0.00125613 -0.000662189 0.000221045)
(-0.00131336 -0.000677236 0.000219615)
(-0.00136628 -0.00069576 0.000215096)
(-0.001418 -0.000717031 0.000208721)
(-0.00147167 -0.000740997 0.00020123)
(-0.00152674 -0.000766498 0.000192495)
(-0.00158329 -0.000793141 0.000182282)
(-0.0016406 -0.000820321 0.00016997)
(-0.00169797 -0.000847477 0.000154568)
(-0.00175397 -0.000873709 0.000134399)
(-0.00180622 -0.000897707 0.000107281)
(-0.00184966 -0.000917713 7.0192e-05)
(-0.00187491 -0.000929983 2.4189e-05)
(-0.000503091 -0.000229641 -5.72289e-05)
(-0.000386604 -0.000214621 -5.66577e-05)
(-0.000346862 -0.000230848 -3.95375e-05)
(-0.000405173 -0.000298948 -1.87963e-05)
(-0.000509636 -0.000383222 1.24012e-05)
(-0.000628334 -0.000457539 4.90404e-05)
(-0.000755039 -0.000517751 8.86124e-05)
(-0.000878772 -0.000559862 0.000126931)
(-0.000996008 -0.000587552 0.000159855)
(-0.00109531 -0.000601803 0.000183137)
(-0.00117999 -0.000611865 0.000196989)
(-0.00125149 -0.000622489 0.000203027)
(-0.00131259 -0.000635647 0.000203555)
(-0.00136898 -0.000652301 0.000200814)
(-0.00142446 -0.00067218 0.000196159)
(-0.00147917 -0.000693728 0.000189934)
(-0.00153517 -0.000716969 0.00018243)
(-0.00159226 -0.000741315 0.000173395)
(-0.00165017 -0.000766345 0.000162269)
(-0.00170778 -0.000791307 0.00014802)
(-0.00176385 -0.000815406 0.000129018)
(-0.00181616 -0.00083746 0.000103159)
(-0.00185962 -0.000855848 6.75641e-05)
(-0.00188463 -0.00086707 2.3291e-05)
(-0.000398 -0.000157718 -3.30297e-05)
(-0.000353723 -0.000174437 -5.67373e-05)
(-0.000308643 -0.000188364 -4.37588e-05)
(-0.00035438 -0.000246806 -2.90401e-05)
(-0.000449605 -0.000324295 -5.18464e-06)
(-0.000571925 -0.000402348 2.55734e-05)
(-0.00070355 -0.000466972 6.1596e-05)
(-0.000836206 -0.000514708 9.90172e-05)
(-0.000955624 -0.000542332 0.000131962)
(-0.00106528 -0.000559767 0.000157749)
(-0.00115757 -0.000570265 0.000174379)
(-0.00123434 -0.000579558 0.000183012)
(-0.00130162 -0.000591683 0.000186164)
(-0.00136202 -0.000606491 0.00018554)
(-0.00141873 -0.000623604 0.000182466)
(-0.00147632 -0.000643462 0.000177937)
(-0.00153402 -0.000664728 0.000171902)
(-0.00159222 -0.000687005 0.000164225)
(-0.00165023 -0.000709678 0.00015433)
(-0.00170771 -0.000732324 0.000141279)
(-0.00176348 -0.000754197 0.000123479)
(-0.00181547 -0.000774224 9.89078e-05)
(-0.00185864 -0.000790933 6.48533e-05)
(-0.00188322 -0.00080107 2.23667e-05)
(-0.000356022 -0.000120596 -1.91357e-05)
(-0.000311546 -0.000137015 -5.57758e-05)
(-0.00026221 -0.000147237 -4.56398e-05)
(-0.000289748 -0.000191985 -3.59609e-05)
(-0.000385385 -0.00026912 -2.09203e-05)
(-0.000502356 -0.000344575 2.57366e-06)
(-0.000636528 -0.000412283 3.36221e-05)
(-0.00077186 -0.000462228 6.84664e-05)
(-0.000906556 -0.000497663 0.00010249)
(-0.001022 -0.000515705 0.000129989)
(-0.00112206 -0.00052656 0.000149552)
(-0.00120742 -0.000535795 0.000161527)
(-0.00127896 -0.000545711 0.000167321)
(-0.00134319 -0.00055836 0.000169067)
(-0.00140477 -0.000574105 0.00016827)
(-0.00146306 -0.000591188 0.000165338)
(-0.00152126 -0.000609888 0.000160786)
(-0.00157941 -0.000629593 0.000154479)
(-0.00163756 -0.000649967 0.00014594)
(-0.00169468 -0.000670288 0.00013417)
(-0.00174984 -0.000689913 0.000117637)
(-0.00180123 -0.000707906 9.44227e-05)
(-0.00184389 -0.000722923 6.1996e-05)
(-0.00186788 -0.000731965 2.13946e-05)
(-0.00027238 -7.78689e-05 -9.14656e-06)
(-0.000258367 -0.000103022 -5.15127e-05)
(-0.000211043 -0.000109432 -4.53871e-05)
(-0.000221807 -0.000141168 -3.96465e-05)
(-0.00029572 -0.000202923 -3.21584e-05)
(-0.000418135 -0.000283036 -1.81733e-05)
(-0.000555857 -0.00035486 6.00057e-06)
(-0.000703232 -0.000413064 3.76858e-05)
(-0.000837224 -0.000447709 7.05213e-05)
(-0.000965179 -0.000470258 0.000100192)
(-0.00107456 -0.000482227 0.000122885)
(-0.00116534 -0.000489875 0.000137995)
(-0.00124446 -0.00049882 0.000147139)
(-0.00131368 -0.000509562 0.000151658)
(-0.00137584 -0.000522028 0.000152849)
(-0.00143761 -0.000537345 0.000152037)
(-0.00149769 -0.000553975 0.00014927)
(-0.00155694 -0.000571565 0.000144563)
(-0.0016146 -0.000589452 0.000137409)
(-0.00167091 -0.000607377 0.000126949)
(-0.00172506 -0.00062473 0.000111703)
(-0.00177545 -0.000640648 8.98598e-05)
(-0.00181726 -0.000653939 5.9087e-05)
(-0.00184046 -0.000661895 2.04075e-05)
(-0.000191859 -4.67166e-05 1.88012e-07)
(-0.000197915 -7.13248e-05 -4.69111e-05)
(-0.000155492 -7.58209e-05 -4.25429e-05)
(-0.000135205 -8.41794e-05 -3.36433e-05)
(-0.000216914 -0.000147634 -3.89966e-05)
(-0.00032159 -0.000217851 -3.50806e-05)
(-0.000460515 -0.000293439 -1.94808e-05)
(-0.000606368 -0.000352932 6.58931e-06)
(-0.000761213 -0.00039972 3.8306e-05)
(-0.000894566 -0.000423723 6.88922e-05)
(-0.00101204 -0.000436675 9.44167e-05)
(-0.00111346 -0.000445059 0.000113326)
(-0.00119696 -0.000451658 0.000125646)
(-0.00127009 -0.000459978 0.000133046)
(-0.00133874 -0.000471257 0.000137093)
(-0.00140068 -0.00048348 0.000138209)
(-0.00146073 -0.000497312 0.000137178)
(-0.00151911 -0.000512118 0.00013402)
(-0.00157649 -0.000527696 0.000128393)
(-0.00163179 -0.000543302 0.00011933)
(-0.00168461 -0.000558425 0.000105437)
(-0.00173374 -0.000572333 8.50355e-05)
(-0.00177451 -0.000583953 5.60149e-05)
(-0.00179674 -0.000590842 1.9367e-05)
(-7.8939e-05 -1.58393e-05 8.00381e-06)
(-0.000116985 -3.7934e-05 -3.68338e-05)
(-9.85457e-05 -4.62257e-05 -3.73848e-05)
(-8.04706e-05 -5.02187e-05 -2.93134e-05)
(-7.45467e-05 -5.19825e-05 -2.14198e-05)
(-0.000212036 -0.000146736 -4.18171e-05)
(-0.000350532 -0.000225758 -3.92228e-05)
(-0.000513702 -0.000299221 -2.21778e-05)
(-0.000661247 -0.000344187 6.128e-06)
(-0.000809609 -0.000375819 3.71052e-05)
(-0.000937765 -0.000391716 6.50855e-05)
(-0.00104371 -0.000398881 8.70501e-05)
(-0.00113613 -0.000405128 0.000103053)
(-0.00121539 -0.000411851 0.00011371)
(-0.00128332 -0.000419407 0.000120047)
(-0.00134958 -0.000429964 0.00012368)
(-0.00141186 -0.00044179 0.000124743)
(-0.00147161 -0.000454616 0.00012344)
(-0.00152781 -0.000467714 0.00011934)
(-0.00158158 -0.000481 0.000111688)
(-0.00163264 -0.000493948 9.9149e-05)
(-0.00168006 -0.000505873 8.01822e-05)
(-0.00171939 -0.000515834 5.292e-05)
(-0.00174051 -0.00052172 1.83218e-05)
(-8.58432e-06 3.76666e-07 9.86089e-06)
(-2.66504e-05 -7.61577e-06 -1.26712e-05)
(-3.24005e-05 -1.52902e-05 -2.08154e-05)
(-5.13824e-05 -3.56646e-05 -3.16902e-05)
(-4.98875e-05 -3.94279e-05 -2.32388e-05)
(-0.000100735 -7.39529e-05 -3.169e-05)
(-0.000236514 -0.00015413 -4.86448e-05)
(-0.000384994 -0.000226447 -4.4389e-05)
(-0.00056216 -0.000292576 -2.30408e-05)
(-0.000712139 -0.000326773 6.28888e-06)
(-0.000847286 -0.000345517 3.55212e-05)
(-0.000965833 -0.000355517 6.05975e-05)
(-0.00106189 -0.000359988 7.96808e-05)
(-0.0011444 -0.000364424 9.33532e-05)
(-0.00122101 -0.000371432 0.000102955)
(-0.00128653 -0.000378761 0.000108756)
(-0.00134795 -0.000387708 0.000111755)
(-0.00140565 -0.000397664 0.000112134)
(-0.00146115 -0.000408622 0.000109716)
(-0.00151323 -0.000419765 0.000103562)
(-0.00156219 -0.00043068 9.24454e-05)
(-0.00160765 -0.000440772 7.49982e-05)
(-0.00164541 -0.000449208 4.96157e-05)
(-0.00166518 -0.000454142 1.72068e-05)
(6.65986e-06 6.17529e-06 1.53588e-05)
(4.84454e-06 8.86733e-07 -7.67828e-06)
(-4.46689e-06 -8.17561e-06 -2.10461e-05)
(-1.72087e-05 -2.32103e-05 -2.77262e-05)
(-3.48001e-05 -3.74774e-05 -3.01832e-05)
(-4.40998e-05 -3.66777e-05 -2.32508e-05)
(-0.000132176 -8.97856e-05 -4.48453e-05)
(-0.00027747 -0.000164319 -5.70113e-05)
(-0.000430625 -0.000225553 -4.53448e-05)
(-0.000601369 -0.00027523 -2.12244e-05)
(-0.000747553 -0.000300382 7.38575e-06)
(-0.000867557 -0.000310549 3.39517e-05)
(-0.000973549 -0.000316455 5.59649e-05)
(-0.00106327 -0.000320424 7.27704e-05)
(-0.00113653 -0.000323588 8.46401e-05)
(-0.00120742 -0.000329752 9.3193e-05)
(-0.0012716 -0.000337046 9.85159e-05)
(-0.00133123 -0.000345413 0.000100975)
(-0.00138476 -0.000354096 0.000100197)
(-0.00143451 -0.000363185 9.5525e-05)
(-0.00148091 -0.000372212 8.5807e-05)
(-0.00152391 -0.000380576 6.98447e-05)
(-0.00155963 -0.000387549 4.63231e-05)
(-0.00157795 -0.000391641 1.60986e-05)
(1.31177e-05 1.13563e-05 2.15252e-05)
(2.37372e-05 7.216e-06 -7.74087e-06)
(2.1928e-05 -2.83479e-07 -1.4583e-05)
(1.25598e-05 -9.3437e-06 -1.59123e-05)
(-8.29549e-07 -2.49401e-05 -2.44942e-05)
(-2.90669e-05 -3.36897e-05 -2.93461e-05)
(-6.90829e-05 -5.27113e-05 -3.80814e-05)
(-8.16287e-05 -4.89733e-05 -2.58478e-05)
(-0.000322255 -0.000168377 -5.93047e-05)
(-0.00048037 -0.000220588 -4.31958e-05)
(-0.00063102 -0.000252474 -1.76157e-05)
(-0.000765964 -0.000269547 8.97814e-06)
(-0.000872914 -0.000275166 3.26313e-05)
(-0.000963952 -0.000277813 5.17626e-05)
(-0.0010489 -0.000281958 6.67999e-05)
(-0.0011172 -0.000285126 7.75003e-05)
(-0.00117907 -0.000289755 8.47966e-05)
(-0.00123491 -0.000295394 8.8962e-05)
(-0.00128722 -0.000302323 8.99657e-05)
(-0.00133453 -0.000309668 8.68535e-05)
(-0.00137799 -0.00031704 7.86021e-05)
(-0.00141833 -0.000323918 6.42323e-05)
(-0.00145194 -0.000329641 4.27344e-05)
(-0.00146854 -0.000332967 1.48891e-05)
(2.30314e-05 1.32873e-05 2.37492e-05)
(3.62769e-05 9.86119e-06 -8.84888e-06)
(4.65629e-05 3.10947e-06 -1.77109e-05)
(3.67256e-05 -8.00493e-06 -1.60344e-05)
(2.20211e-05 -1.49958e-05 -1.2705e-05)
(4.11147e-06 -2.55302e-05 -1.84013e-05)
(-2.03173e-05 -1.9584e-05 -1.69897e-05)
(-5.31639e-05 -3.32686e-05 -2.49995e-05)
(-0.000144455 -7.46637e-05 -4.01418e-05)
(-0.000353705 -0.000162695 -5.53509e-05)
(-0.00051217 -0.000205842 -3.77382e-05)
(-0.00064123 -0.000224873 -1.33119e-05)
(-0.000759394 -0.000235412 1.05778e-05)
(-0.000858293 -0.000239873 3.14952e-05)
(-0.000934729 -0.000240493 4.81485e-05)
(-0.00100975 -0.000243748 6.14176e-05)
(-0.00107515 -0.00024761 7.10417e-05)
(-0.00113375 -0.000252415 7.73902e-05)
(-0.00118313 -0.000257545 8.00648e-05)
(-0.00122718 -0.000263309 7.84487e-05)
(-0.00126727 -0.000269268 7.16041e-05)
(-0.00130436 -0.000274826 5.87508e-05)
(-0.00133534 -0.000279415 3.92154e-05)
(-0.00135022 -0.00028212 1.37059e-05)
(3.28459e-05 1.40736e-05 2.5007e-05)
(7.40133e-05 1.6247e-05 -1.3766e-05)
(8.30344e-05 6.03765e-06 -2.32706e-05)
(6.10787e-05 -7.11945e-06 -1.91329e-05)
(6.1508e-05 -2.36735e-05 -1.93735e-05)
(2.5397e-05 -2.22503e-05 -7.12753e-06)
(1.65215e-06 -2.50074e-05 -1.0237e-05)
(-4.34237e-05 -3.05595e-05 -2.77243e-05)
(-0.000107517 -5.679e-05 -4.30044e-05)
(-0.000205837 -9.51347e-05 -4.87124e-05)
(-0.000374539 -0.000152747 -4.85538e-05)
(-0.000523718 -0.000185252 -3.14112e-05)
(-0.000636728 -0.000197356 -9.13444e-06)
(-0.000733067 -0.000202283 1.21534e-05)
(-0.000825816 -0.000206868 3.08418e-05)
(-0.000894597 -0.000207815 4.57261e-05)
(-0.000954806 -0.000209584 5.69966e-05)
(-0.00100703 -0.000212146 6.48399e-05)
(-0.00105456 -0.000216212 6.92509e-05)
(-0.00109537 -0.000220849 6.91661e-05)
(-0.00113159 -0.000225696 6.37841e-05)
(-0.00116533 -0.000230257 5.25938e-05)
(-0.0011937 -0.000233992 3.5253e-05)
(-0.0012065 -0.000236152 1.2366e-05)
(3.98517e-05 1.47573e-05 2.7458e-05)
(9.19776e-05 1.91131e-05 -1.25949e-05)
(0.000111734 9.78075e-06 -2.71482e-05)
(0.000112035 -7.03506e-06 -3.19666e-05)
(8.46869e-05 -2.21661e-05 -2.42956e-05)
(6.81265e-05 -3.70823e-05 -1.59244e-05)
(2.40324e-05 -2.83236e-05 -2.5037e-06)
(-6.38361e-06 -1.98677e-05 -4.95612e-06)
(-4.04021e-05 -2.30047e-05 -2.02639e-05)
(-8.30064e-05 -3.89305e-05 -2.80629e-05)
(-0.000245134 -0.000102398 -4.92856e-05)
(-0.000378956 -0.000137603 -4.13848e-05)
(-0.000505367 -0.000159448 -2.47762e-05)
(-0.000610441 -0.000169678 -4.94673e-06)
(-0.000684686 -0.000170986 1.38606e-05)
(-0.000762323 -0.000174408 3.02874e-05)
(-0.000827789 -0.000177183 4.34191e-05)
(-0.000883812 -0.000180168 5.32528e-05)
(-0.000927085 -0.000183154 5.91789e-05)
(-0.000963583 -0.000186864 6.04842e-05)
(-0.000995681 -0.000190907 5.64501e-05)
(-0.00102544 -0.000194661 4.67749e-05)
(-0.00105059 -0.000197671 3.14839e-05)
(-0.00106153 -0.000199455 1.10944e-05)
(4.53034e-05 1.49706e-05 2.9929e-05)
(0.000102409 2.15426e-05 -1.04929e-05)
(0.000128849 1.50475e-05 -2.82696e-05)
(0.000133717 -1.36469e-06 -3.6358e-05)
(0.000121133 -2.07646e-05 -3.53626e-05)
(8.57481e-05 -3.3656e-05 -2.33201e-05)
(2.96576e-05 -2.17222e-05 -4.63376e-06)
(1.17782e-05 -1.84297e-05 1.91809e-06)
(-1.74739e-05 -2.28182e-05 -8.25558e-06)
(-4.67828e-05 -2.36426e-05 -2.08704e-05)
(-0.000125736 -5.35115e-05 -3.66896e-05)
(-0.000255699 -9.66777e-05 -4.49711e-05)
(-0.000371528 -0.00012139 -3.48484e-05)
(-0.000466447 -0.000133809 -1.84254e-05)
(-0.000566083 -0.0001442 -6.41333e-07)
(-0.000630422 -0.000145995 1.61356e-05)
(-0.000684516 -0.000147267 2.99391e-05)
(-0.000730246 -0.00014872 4.05862e-05)
(-0.000771194 -0.000151675 4.78981e-05)
(-0.000803636 -0.00015502 5.05121e-05)
(-0.000830938 -0.000158546 4.78457e-05)
(-0.00085673 -0.000161838 3.99023e-05)
(-0.000878878 -0.000164445 2.70128e-05)
(-0.000887439 -0.000165873 9.56698e-06)
(4.7934e-05 1.48016e-05 3.24393e-05)
(0.000101319 2.19177e-05 -7.41869e-06)
(0.000130134 1.90626e-05 -2.66121e-05)
(0.000142856 6.01877e-06 -3.77963e-05)
(0.000136987 -1.3413e-05 -4.00544e-05)
(0.000116762 -3.171e-05 -3.39431e-05)
(7.25593e-05 -3.71665e-05 -1.77063e-05)
(2.5066e-05 -2.28208e-05 -2.23044e-06)
(1.06237e-05 -2.82298e-05 3.92976e-06)
(-2.13517e-05 -1.68887e-05 -9.29159e-06)
(-5.73177e-05 -2.60156e-05 -2.33799e-05)
(-0.000131395 -5.11927e-05 -3.48196e-05)
(-0.000234655 -8.01292e-05 -3.66726e-05)
(-0.000341592 -0.00010289 -2.80377e-05)
(-0.000403142 -0.000108379 -1.19908e-05)
(-0.000481678 -0.000116562 3.63668e-06)
(-0.000545721 -0.000121718 1.78927e-05)
(-0.00059802 -0.000125784 2.98284e-05)
(-0.000632374 -0.000128343 3.81443e-05)
(-0.000659387 -0.000131369 4.18322e-05)
(-0.000682079 -0.00013469 4.03405e-05)
(-0.000703323 -0.000137627 3.38481e-05)
(-0.000721744 -0.000139875 2.30369e-05)
(-0.000728564 -0.000141091 8.2123e-06)
(4.96403e-05 1.44205e-05 3.54971e-05)
(9.6158e-05 2.12729e-05 -4.30509e-06)
(0.000124743 2.08832e-05 -2.33995e-05)
(0.00013782 1.15817e-05 -3.51767e-05)
(0.000139745 -4.61211e-06 -4.06438e-05)
(0.000127442 -2.32183e-05 -3.82087e-05)
(0.000106589 -3.89019e-05 -2.97732e-05)
(6.04126e-05 -3.71618e-05 -1.26885e-05)
(4.59945e-05 -4.73515e-05 -1.35191e-06)
(5.47644e-06 -2.65753e-05 3.90622e-08)
(-3.48149e-05 -2.28437e-05 -2.04484e-05)
(-6.36048e-05 -2.76513e-05 -2.54576e-05)
(-8.06709e-05 -2.99938e-05 -1.99158e-05)
(-0.000190233 -6.04907e-05 -2.66542e-05)
(-0.000298431 -8.49127e-05 -2.08418e-05)
(-0.000350303 -9.06457e-05 -6.40386e-06)
(-0.000393273 -9.4445e-05 6.81218e-06)
(-0.000423349 -9.63562e-05 1.78875e-05)
(-0.000456647 -0.000100331 2.66298e-05)
(-0.00047917 -0.000103494 3.09907e-05)
(-0.000496159 -0.000106768 3.0605e-05)
(-0.000512819 -0.000109406 2.59222e-05)
(-0.000528154 -0.000111631 1.78018e-05)
(-0.000532639 -0.00011254 6.38839e-06)
(4.9656e-05 1.4226e-05 3.89088e-05)
(8.80805e-05 2.05456e-05 -1.91673e-06)
(0.000115377 2.17055e-05 -2.01651e-05)
(0.000128395 1.47723e-05 -3.14131e-05)
(0.00013169 2.1732e-06 -3.75566e-05)
(0.000128008 -1.42518e-05 -3.85921e-05)
(0.000113629 -3.02319e-05 -3.32532e-05)
(9.65833e-05 -4.27932e-05 -2.5356e-05)
(5.25189e-05 -3.6092e-05 -1.1261e-05)
(2.39672e-05 -2.96535e-05 -4.03696e-06)
(-1.32572e-06 -1.71028e-05 -7.03067e-06)
(-2.10941e-05 -1.26149e-05 -1.3786e-05)
(-6.06844e-05 -2.59953e-05 -2.41429e-05)
(-0.000121375 -4.40931e-05 -2.83756e-05)
(-9.05296e-05 -2.75298e-05 -1.16535e-05)
(-0.00019542 -5.53388e-05 -1.14087e-05)
(-0.000250674 -6.78513e-05 -1.34347e-06)
(-0.000309343 -7.67465e-05 9.8685e-06)
(-0.000329775 -8.00069e-05 1.82109e-05)
(-0.000347615 -8.36009e-05 2.30954e-05)
(-0.000358366 -8.62404e-05 2.35328e-05)
(-0.000372427 -8.89048e-05 2.01325e-05)
(-0.000383614 -9.08328e-05 1.3899e-05)
(-0.000387156 -9.20131e-05 5.02179e-06)
(4.81097e-05 1.51679e-05 4.29223e-05)
(7.87502e-05 2.07566e-05 -8.6091e-07)
(0.000101884 2.21185e-05 -1.73741e-05)
(0.000113227 1.65849e-05 -2.6714e-05)
(0.000117889 6.4025e-06 -3.25035e-05)
(0.000117437 -7.00583e-06 -3.48179e-05)
(0.000113588 -2.25551e-05 -3.33768e-05)
(0.000101722 -3.53085e-05 -2.77364e-05)
(8.99607e-05 -4.51295e-05 -2.25663e-05)
(4.44732e-05 -3.27741e-05 -1.10957e-05)
(1.5236e-05 -2.02744e-05 -7.17501e-06)
(-5.03115e-06 -1.35712e-05 -1.28658e-05)
(-3.87189e-05 -2.21969e-05 -2.96065e-05)
(-3.7616e-05 -1.70688e-05 -1.60146e-05)
(-9.73526e-05 -3.70669e-05 -2.32362e-05)
(-6.40851e-05 -2.20064e-05 -7.8611e-06)
(-0.000134944 -4.10792e-05 -5.50441e-06)
(-7.9487e-05 -2.24677e-05 9.47441e-07)
(-0.000131886 -3.60997e-05 6.33517e-06)
(-0.000136535 -3.91894e-05 9.28433e-06)
(-0.000152827 -4.25541e-05 1.08043e-05)
(-0.000153449 -4.36305e-05 8.91357e-06)
(-0.000163762 -4.62536e-05 6.43455e-06)
(-0.000160732 -4.66768e-05 2.28347e-06)
(4.42721e-05 1.72088e-05 4.66956e-05)
(6.47821e-05 2.05536e-05 -7.91283e-07)
(8.21642e-05 2.12174e-05 -1.42082e-05)
(9.1472e-05 1.6619e-05 -2.07729e-05)
(9.6837e-05 8.61775e-06 -2.52033e-05)
(9.99593e-05 -2.41999e-06 -2.81172e-05)
(0.000101161 -1.5959e-05 -2.85069e-05)
(0.000102522 -2.9768e-05 -2.72504e-05)
(9.43754e-05 -3.83437e-05 -2.40169e-05)
(8.3371e-05 -4.51963e-05 -2.27459e-05)
(3.91007e-05 -3.10587e-05 -1.48204e-05)
(1.61631e-05 -2.70511e-05 -1.87847e-05)
(-7.58756e-06 -1.39609e-05 -2.10049e-05)
(-3.11917e-05 -1.86396e-05 -3.00559e-05)
(-2.8588e-05 -1.47096e-05 -1.46547e-05)
(-5.90873e-05 -2.6086e-05 -1.55225e-05)
(-9.48262e-05 -3.72248e-05 -1.19793e-05)
(-5.19447e-05 -1.9789e-05 -1.80336e-06)
(-0.000114139 -4.31173e-05 3.50549e-06)
(-9.51923e-05 -3.64109e-05 6.49186e-06)
(-0.000124544 -4.89946e-05 9.41605e-06)
(-5.85026e-05 -2.37621e-05 3.77874e-06)
(-6.01432e-05 -2.43415e-05 2.70585e-06)
(-0.000111867 -4.42601e-05 1.91467e-06)
(3.81191e-05 1.95694e-05 4.8938e-05)
(5.16121e-05 2.05884e-05 -1.32114e-06)
(6.05204e-05 1.89357e-05 -1.12526e-05)
(6.5572e-05 1.43882e-05 -1.46093e-05)
(7.04659e-05 8.18825e-06 -1.70696e-05)
(7.59465e-05 -6.99675e-07 -1.93754e-05)
(8.34534e-05 -1.23725e-05 -2.10892e-05)
(9.07673e-05 -2.42258e-05 -2.18517e-05)
(9.68057e-05 -3.45928e-05 -2.30394e-05)
(8.85318e-05 -3.9409e-05 -2.30304e-05)
(7.48122e-05 -4.31391e-05 -2.51753e-05)
(3.43907e-05 -2.86873e-05 -2.01465e-05)
(1.53522e-05 -2.45033e-05 -2.97428e-05)
(-5.19311e-06 -1.67299e-05 -3.4159e-05)
(-1.05223e-05 -9.46798e-06 -1.68619e-05)
(-1.75997e-05 -1.13055e-05 -1.34625e-05)
(-3.66722e-05 -2.2848e-05 -1.43216e-05)
(-5.57581e-05 -3.09416e-05 -9.4525e-06)
(-2.936e-05 -1.70213e-05 -6.88996e-07)
(-6.38055e-05 -3.50951e-05 3.74935e-06)
(-3.02947e-05 -1.85116e-05 2.54269e-06)
(-5.51394e-05 -3.27608e-05 4.32385e-06)
(-5.85943e-05 -3.5653e-05 3.23207e-06)
(-7.47245e-05 -4.41742e-05 1.65523e-06)
(3.06375e-05 2.15343e-05 4.8918e-05)
(4.09682e-05 2.11064e-05 -2.35825e-06)
(4.33438e-05 1.66361e-05 -9.75829e-06)
(4.40479e-05 1.12866e-05 -1.06747e-05)
(4.6348e-05 5.69183e-06 -1.10861e-05)
(5.29109e-05 -1.88199e-06 -1.21218e-05)
(6.37414e-05 -1.18463e-05 -1.33809e-05)
(7.75717e-05 -2.19394e-05 -1.54627e-05)
(8.66584e-05 -2.99111e-05 -1.79754e-05)
(9.1523e-05 -3.69049e-05 -2.15798e-05)
(8.16798e-05 -3.91175e-05 -2.45667e-05)
(6.59518e-05 -4.02026e-05 -3.06383e-05)
(3.18711e-05 -2.77037e-05 -2.89567e-05)
(1.45858e-05 -2.27585e-05 -3.61659e-05)
(4.74207e-07 -8.86966e-06 -2.06039e-05)
(-6.911e-06 -1.40558e-05 -3.00967e-05)
(-6.44135e-06 -9.54066e-06 -1.48984e-05)
(-1.34357e-05 -1.65798e-05 -1.3585e-05)
(-9.60882e-06 -1.14939e-05 -4.62591e-06)
(-9.71225e-06 -1.29837e-05 -1.69905e-06)
(-1.96535e-05 -2.92223e-05 -2.18735e-07)
(-2.16857e-05 -3.12724e-05 7.23321e-07)
(-1.03271e-05 -1.39228e-05 3.98007e-07)
(-1.9146e-05 -2.8019e-05 2.29256e-07)
(2.30223e-05 2.25901e-05 4.62301e-05)
(3.04099e-05 2.03871e-05 -3.86226e-06)
(3.15008e-05 1.47347e-05 -9.80106e-06)
(3.15583e-05 8.89168e-06 -9.86028e-06)
(3.27906e-05 2.59066e-06 -9.14902e-06)
(3.95383e-05 -5.5901e-06 -8.78587e-06)
(5.20433e-05 -1.5139e-05 -8.736e-06)
(6.54931e-05 -2.29794e-05 -9.89761e-06)
(7.81823e-05 -2.92883e-05 -1.31646e-05)
(8.34094e-05 -3.36375e-05 -1.71009e-05)
(8.48566e-05 -3.78214e-05 -2.25765e-05)
(7.49294e-05 -3.84365e-05 -2.89453e-05)
(6.0665e-05 -3.79018e-05 -3.84032e-05)
(3.53969e-05 -2.84036e-05 -4.06877e-05)
(2.34827e-05 -2.88257e-05 -5.33125e-05)
(6.71348e-06 -1.4467e-05 -3.27295e-05)
(3.4874e-06 -1.49982e-05 -3.40554e-05)
(2.72265e-06 -2.19978e-05 -3.98202e-05)