/*--------------------------------*- C++ -*----------------------------------*\
  =========                 |
  \\      /  F ield         | OpenFOAM: The Open Source CFD Toolbox
   \\    /   O peration     | Website:  https://openfoam.org
    \\  /    A nd           | Version:  6
     \\/     M anipulation  |
\*---------------------------------------------------------------------------*/
FoamFile
{
    version     2.0;
    format      ascii;
    class       volScalarField;
    location    "13";
    object      yPlus;
}
// * * * * * * * * * * * * * * * * * * * * * * * * * * * * * * * * * * * * * //

dimensions      [0 0 0 0 0 0 0];

internalField   uniform 0;

boundaryField
{
    inlet
    {
        type            calculated;
        value           uniform 0;
    }
    outlet
    {
        type            calculated;
        value           uniform 0;
    }
    roughCylinder
    {
        type            calculated;
        value           nonuniform List<scalar> 
3840
(
74.327
50.0063
53.7153
62.0437
68.4653
73.5743
77.6871
81.1474
84.2066
86.9875
89.6176
92.1398
94.653
97.254
99.9988
102.909
105.997
109.244
112.618
116.05
119.435
122.601
125.232
126.839
61.0987
49.4027
52.2981
60.3706
66.7293
71.8233
75.9204
79.3674
82.3984
85.1552
87.6938
90.1353
92.5667
95.0677
97.7066
100.522
103.504
106.642
109.898
113.214
116.484
119.543
122.087
123.638
77.7353
48.8889
50.8177
58.6932
64.9898
70.0377
74.1493
77.6159
80.6507
83.3196
85.8135
88.1773
90.5123
92.9275
95.4789
98.1819
101.056
104.079
107.224
110.424
113.581
116.535
118.991
120.488
71.6281
48.7814
49.411
56.9461
63.1957
68.2784
72.4107
75.8825
78.8776
81.5598
83.971
86.2594
88.5278
90.8492
93.2953
95.9143
98.6887
101.61
104.64
107.727
110.773
113.624
115.995
117.437
60.963
47.6413
47.8283
55.1925
61.4277
66.4766
70.6452
74.1543
77.1964
79.7943
82.1807
84.4129
86.5896
88.8374
91.2133
93.7229
96.3955
99.2079
102.135
105.114
108.054
110.805
113.094
114.484
74.9641
47.6609
46.4552
53.3485
59.5391
64.6803
68.9074
72.4502
75.4331
78.0952
80.424
82.5916
84.7269
86.8935
89.1663
91.6088
94.1937
96.9162
99.7364
102.61
105.446
108.101
110.309
111.648
65.66
46.8872
44.7684
51.4544
57.7062
62.8186
67.0965
70.683
73.7866
76.3629
78.6992
80.8455
82.8975
85.0058
87.2331
89.5699
92.0595
94.6789
97.4065
100.181
102.918
105.481
107.613
108.903
74.6115
46.7926
43.297
49.4345
55.6151
60.9015
65.2878
68.9656
71.9782
74.6769
76.9889
79.0891
81.1361
83.1825
85.3062
87.5974
90.0152
92.5576
95.1852
97.8618
100.503
102.976
105.032
106.275
65.4397
46.0115
41.6071
47.2489
53.6208
58.8832
63.3487
67.0684
70.3175
72.9315
75.2749
77.4011
79.3798
81.3871
83.5002
85.6877
88.0145
90.4586
93.0047
95.5895
98.1389
100.527
102.514
103.71
58.7371
44.9009
39.8274
44.888
51.0917
56.6826
61.3433
65.2717
68.381
71.1965
73.5612
75.6507
77.6656
79.6379
81.6432
83.813
86.0884
88.471
90.9215
93.4153
95.8741
98.1783
100.094
101.243
65.6631
44.1496
37.8384
42.0416
48.7319
54.3116
59.1322
63.0962
66.6326
69.3701
71.7915
73.9657
75.9237
77.8735
79.9152
81.9792
84.163
86.4493
88.829
91.2378
93.6104
95.8349
97.6842
98.7876
61.7954
43.266
35.7361
39.0579
45.2456
51.5131
56.6986
61.1124
64.4325
67.4943
70.0113
72.1593
74.2013
76.1492
78.0654
80.1467
82.3063
84.5478
86.8343
89.1561
91.4422
93.585
95.3649
96.4225
61.6116
42.6074
33.3782
34.6125
42.0689
48.3321
53.9319
58.3843
62.4856
65.4844
68.0905
70.4078
72.4117
74.3538
76.375
78.3416
80.4005
82.5458
84.774
87.0162
89.2202
91.2869
93.0038
94.0161
57.6444
41.0945
30.563
30.3846
36.1327
44.2252
50.5638
56.0193
59.7707
63.3222
66.15
68.4547
70.6086
72.5971
74.4565
76.49
78.567
80.6879
82.8222
84.9806
87.1004
89.0869
90.7343
91.7016
50.6046
39.6489
27.6276
20.8099
30.9254
38.7853
46.516
52.1158
57.4383
60.9572
63.9348
66.5444
68.6814
70.6808
72.7525
74.6519
76.6035
78.6251
80.7169
82.8014
84.8415
86.7542
88.3416
89.2624
32.2456
33.3589
23.4888
7.09685
9.81489
30.4606
40.7995
48.9544
53.6485
58.2474
61.678
64.2897
66.6898
68.8122
70.6498
72.6905
74.7288
76.7537
78.7454
80.7468
82.7033
84.5349
86.0506
86.9267
9.39055
12.5487
4.55877
15.7708
4.77934
17.8359
32.0763
41.8898
50.5639
55.1769
58.9169
62.0987
64.4927
66.6354
68.864
70.7306
72.5917
74.5052
76.4767
78.4092
80.2864
82.0449
83.5029
84.3292
5.30076
7.27726
14.7247
16.4203
17.7277
9.08474
14.9173
36.7976
44.0358
51.371
56.0519
59.2408
62.1269
64.5374
66.3894
68.5189
70.5804
72.5437
74.3988
76.245
78.0359
79.7094
81.089
81.8704
6.84769
12.7558
10.7642
10.7997
19.1125
19.3676
20.1129
9.7881
39.3061
46.6182
52.1967
56.572
59.4471
61.8604
64.4302
66.3026
68.0894
69.9043
71.7749
73.5568
75.2656
76.8642
78.1893
78.9126
6.27973
11.9271
14.6349
20.0296
20.6178
22.0683
11.8576
11.7345
20.48
40.4034
48.0068
52.446
56.3319
59.3404
61.2396
63.6039
65.786
67.7506
69.4692
71.1554
72.7713
74.2762
75.509
76.1879
11.5334
20.6027
22.8963
18.8787
14.8386
19.5323
24.5501
22.4491
23.2054
28.5109
41.6101
48.89
52.7557
55.6799
58.9853
60.9096
62.6451
64.3472
66.1478
67.7772
69.3034
70.7295
71.9144
72.5184
11.6112
21.8648
26.6731
29.2284
24.5064
14.7771
15.78
19.4251
14.9614
14.3825
33.0247
41.4619
47.9566
52.3658
54.3215
57.2541
59.7397
61.8682
63.4421
64.9558
66.3782
67.6954
68.7613
69.3249
11.6209
22.1863
27.9959
31.1738
32.1247
26.0969
11.1291
21.9988
26.7038
15.1944
13.4734
35.9744
42.3477
46.4842
51.6383
53.6724
55.4243
56.8944
58.7017
60.1803
61.4997
62.735
63.7721
64.2266
11.9008
20.3544
26.7808
31.4003
33.367
33.1096
24.9744
5.45073
22.7944
17.7918
15.4887
9.2826
33.0148
41.3994
43.274
47.8318
51.0843
53.943
55.3448
56.6647
57.8673
58.9706
59.8359
60.2625
11.3502
18.5266
24.9959
29.7215
32.8205
33.5647
32.7934
22.5542
13.8599
27.8602
24.9708
14.5551
9.96941
28.5153
40.2595
42.4568
44.4118
45.0422
47.1655
48.5335
49.6179
50.6327
51.5381
51.7887
8.55894
16.6923
23.0192
27.7262
30.9234
32.7799
32.3547
31.9328
20.434
19.5561
19.4289
25.303
5.67717
25.3589
14.1728
29.3038
35.8387
41.7657
42.7668
43.9346
44.8101
45.7904
46.3876
46.6074
7.39521
15.2371
20.8377
25.0647
28.2644
30.2659
31.3226
30.3597
31.4092
20.3003
15.6783
17.7092
25.4365
5.16402
24.6851
9.16412
15.1157
12.4093
20.7938
21.1579
23.6587
23.3097
24.4397
23.8452
4.94878
13.3136
17.7862
21.3142
24.2497
26.569
27.8783
29.3188
29.1551
31.6738
21.34
4.15691
21.1236
25.5251
6.11141
19.7227
18.7304
5.96469
28.4854
22.336
30.2087
11.0647
11.6714
24.6274
4.92504
12.1054
14.5433
16.6265
18.9412
21.275
23.575
25.4164
28.32
29.1636
32.1618
22.7163
29.7926
11.4373
26.1372
13.3092
21.8024
28.0442
10.5421
30.2399
11.768
24.576
23.0946
31.6221
3.83769
11.486
12.3959
12.9348
14.068
16.2275
18.8499
22.0449
24.6554
28.3906
29.8042
32.5072
24.3653
29.5472
26.9903
12.5552
13.7602
17.8233
30.7714
19.1526
30.8676
17.5356
26.8868
5.14165
3.329
11.2715
11.6624
11.8718
12.4208
14.2228
16.82
19.3264
22.561
25.1195
28.8767
30.5877
32.5709
27.4416
30.3986
4.22901
17.2343
27.9729
28.3904
12.7283
18.3328
23.2158
23.8827
33.4753
3.01919
11.5313
11.5901
11.7066
12.4734
14.7562
17.1335
19.362
21.1758
23.8234
26.0123
29.4779
31.3011
32.3557
30.9824
18.3943
22.1532
16.1171
26.153
18.761
22.5672
30.9828
31.237
27.2021
2.10425
9.70266
11.5499
11.6572
12.8461
15.6243
18.1283
20.025
21.8154
23.0929
25.0707
26.9353
30.0023
31.8797
32.1433
32.2739
27.6748
22.3772
16.8063
13.771
11.8075
12.3554
11.8263
11.4059
2.52727
10.3408
11.4029
11.5413
14.4076
17.327
19.5614
21.3486
22.669
23.9757
24.7829
26.1626
27.7894
30.2617
32.2113
31.9184
31.3354
30.9093
30.5212
30.2997
29.9946
29.5331
29.593
29.7855
3.31537
11.4797
11.5408
13.6509
16.6017
19.1485
21.1867
22.7885
24.1431
25.0344
25.8345
26.2193
27.094
28.5126
30.2593
31.7211
31.4998
30.4315
28.78
27.1368
25.7215
24.9678
24.7546
24.8811
3.52532
11.7377
13.2501
16.1158
18.8399
21.1103
22.9529
24.4799
25.6715
26.6369
27.1178
27.4262
27.4585
27.878
29.0112
29.9664
30.2855
29.9258
28.9349
27.706
26.5731
25.908
25.921
26.1726
4.08074
12.2616
15.8212
18.5929
20.9487
22.9849
24.7281
26.2018
27.4412
28.3026
28.8584
28.9363
28.7957
28.5486
28.5517
29.0899
29.298
28.7979
27.412
25.5109
23.7381
22.8391
22.8965
23.3287
5.96284
15.0773
18.2519
20.6944
22.8705
24.8117
26.5133
28.0014
29.2303
30.1773
30.6877
30.8299
30.5305
29.9895
29.4708
29.0661
28.7713
28.2113
27.0527
25.483
24.0219
23.3538
23.6356
24.2163
8.13891
17.1115
20.1938
22.5216
24.6248
26.537
28.2609
29.7937
31.104
32.0757
32.6861
32.8357
32.5734
31.9253
31.029
30.1501
29.293
28.3053
26.9008
25.1016
23.4388
22.7161
23.0858
23.7936
10.5236
18.9263
21.8403
24.1348
26.255
28.2036
29.9893
31.6019
32.9739
34.0424
34.7077
34.9642
34.7481
34.0909
33.088
31.8457
30.5253
29.1424
27.5646
25.8255
24.3431
23.7958
24.297
25.0715
11.8011
13.5133
15.4183
16.7699
17.6799
18.0289
17.9675
17.5196
16.8727
16.0646
15.2387
14.3974
13.628
12.9246
12.3306
11.856
11.7032
11.4892
11.1401
10.9308
10.9273
11.126
11.4912
11.5212
11.8291
12.2997
12.8846
13.5778
14.3363
15.165
15.9776
16.772
17.405
17.8422
17.8925
17.543
16.6269
15.2972
13.3739
11.5473
20.2217
21.0156
21.5788
21.8586
22.0292
22.0239
21.9881
21.8643
21.75
21.6018
21.4782
21.3454
21.233
21.1236
21.0319
20.9505
20.8849
20.8331
20.7981
20.7785
20.7767
20.7929
20.8243
20.8724
20.9352
21.0134
21.1022
21.2085
21.3182
21.4477
21.5686
21.7131
21.8243
21.9438
21.9757
21.9768
21.8016
21.5196
20.9505
20.1554
22.9949
23.4871
23.8912
24.1048
24.2889
24.3609
24.427
24.4279
24.4263
24.3886
24.3538
24.3066
24.2647
24.2214
24.184
24.1511
24.1237
24.1026
24.0868
24.0766
24.0746
24.0808
24.0927
24.11
24.1338
24.1632
24.1974
24.2376
24.2768
24.3211
24.3538
24.3888
24.389
24.3853
24.3185
24.2432
24.0594
23.8409
23.4391
22.9375
25.2777
25.7255
26.153
26.4103
26.6528
26.7953
26.9315
27.0163
27.098
27.1507
27.2009
27.2381
27.2744
27.3053
27.3337
27.3591
27.3798
27.3957
27.4049
27.4068
27.4046
27.3982
27.3847
27.3646
27.34
27.3109
27.2789
27.2447
27.2054
27.1654
27.1127
27.0575
26.974
26.887
26.7499
26.6049
26.3628
26.1022
25.6768
25.2232
27.4179
27.8491
28.3034
28.5941
28.8951
29.1069
29.323
29.49
29.6588
29.8
29.9393
30.0636
30.1834
30.2927
30.3928
30.481
30.5544
30.6109
30.6475
30.6626
30.66
30.6401
30.5986
30.5376
30.4597
30.3675
30.2637
30.1509
30.0279
29.9008
29.7589
29.6154
29.4446
29.2759
29.0586
28.8453
28.5438
28.2516
27.7978
27.3646
29.4094
29.8357
30.3363
30.6728
31.044
31.3238
31.6198
31.8661
32.1183
32.3429
32.5659
32.7715
32.9693
33.1514
33.3178
33.4637
33.5853
33.6785
33.7395
33.7657
33.7629
33.7313
33.6651
33.5669
33.4406
33.2905
33.1199
32.9344
32.7333
32.5246
32.2991
32.0723
31.8181
31.5704
31.2731
30.9923
30.6205
30.2836
29.7831
29.3565
31.2631
31.6937
32.2527
32.6281
33.0636
33.4018
33.7661
34.0798
34.402
34.6966
34.9887
35.2616
35.5232
35.7644
35.984
36.176
36.3355
36.4572
36.5367
36.5707
36.5677
36.528
36.443
36.3161
36.1517
35.9553
35.7314
35.4864
35.2215
34.9455
34.6508
34.3539
34.0299
33.7147
33.3494
33.0105
32.5745
32.1991
31.6404
31.2104
32.9463
33.3807
33.9881
34.3954
34.8806
35.2658
35.6824
36.0495
36.4255
36.7744
37.1191
37.443
37.752
38.0368
38.2952
38.5202
38.7064
38.848
38.9401
38.9793
38.9764
38.9313
38.8336
38.6867
38.4954
38.2658
38.0031
37.7144
37.402
37.0749
36.7276
36.3765
35.9986
35.6301
35.2123
34.8266
34.341
33.9342
33.3274
32.894
34.3928
34.8188
35.4712
35.8993
36.4253
36.8457
37.3033
37.7108
38.1276
38.5168
38.8999
39.2604
39.6029
39.9178
40.2024
40.4491
40.6527
40.8069
40.9071
40.9496
40.9466
40.8983
40.7926
40.6331
40.4246
40.173
39.8842
39.5653
39.2193
38.8556
38.4697
38.0782
37.6596
37.2507
36.7922
36.3713
35.8452
35.4176
34.7659
34.3415
35.5131
35.9464
36.6327
37.0858
37.6441
38.0971
38.5876
39.029
39.4779
39.8988
40.3109
40.6985
41.0647
41.4004
41.7021
41.9629
42.1771
42.3389
42.4437
42.4882
42.4853
42.4352
42.325
42.158
41.9389
41.6735
41.3674
41.0277
40.6579
40.2672
39.8522
39.4291
38.9783
38.5356
38.0439
37.5905
37.0323
36.5798
35.8947
35.4631
36.267
36.703
37.4391
37.9168
38.5137
38.9984
39.5232
39.9962
40.4752
40.9237
41.3608
41.7705
42.1554
42.5069
42.8213
43.0917
43.313
43.4797
43.5876
43.6335
43.6307
43.5794
43.4664
43.2946
43.0685
42.7935
42.4749
42.1195
41.7309
41.318
40.8783
40.4273
39.9465
39.4721
38.9465
38.4614
37.8648
37.3877
36.6528
36.2189
36.5947
37.0725
37.8594
38.3811
39.0204
39.5456
40.1072
40.615
41.125
41.6017
42.0627
42.4931
42.8951
43.2603
43.5852
43.8636
44.0906
44.2613
44.3716
44.419
44.4164
44.3639
44.2485
44.0731
43.8414
43.5586
43.2295
42.8604
42.4549
42.0213
41.5575
41.0786
40.5669
40.0577
39.4952
38.9697
38.3306
37.8098
37.0246
36.5489
36.4773
37.0154
37.8756
38.4551
39.1486
39.7232
40.3282
40.8757
41.4195
41.9263
42.4126
42.8642
43.2832
43.6619
43.9971
44.283
44.5155
44.69
44.8029
44.8519
44.8494
44.7956
44.6779
44.4988
44.2619
43.9716
43.6324
43.25
42.8275
42.3728
41.884
41.3749
40.8293
40.2805
39.6747
39.1001
38.407
37.8287
36.9704
36.4353
35.8849
36.4921
37.4439
38.1005
38.8605
39.4942
40.1499
40.7425
41.3248
41.8648
42.3785
42.8531
43.2904
43.6837
44.03
44.3242
44.5628
44.7415
44.8575
44.9085
44.9061
44.8505
44.73
44.5469
44.3041
44.0058
43.6557
43.2589
42.8182
42.3407
41.8243
41.2823
40.6984
40.1046
39.4483
38.8146
38.0554
37.4006
36.4514
35.8478
34.8339
35.493
36.5098
37.2616
38.0967
38.8013
39.513
40.1572
40.782
41.3593
41.9039
42.4043
42.8627
43.2727
43.6321
43.9365
44.1825
44.3668
44.4867
44.5402
44.5379
44.4801
44.356
44.1676
43.9175
43.6093
43.2462
42.8328
42.3714
41.8682
41.3213
40.7419
40.1158
39.4705
38.7585
38.0546
37.2211
36.4719
35.4586
34.8037
33.4386
34.0467
35.0806
35.8938
36.801
37.5831
38.3541
39.0537
39.7238
40.3421
40.9207
41.4505
41.933
42.363
42.7385
43.0556
43.3115
43.5031
43.6281
43.6848
43.6827
43.622
43.4931
43.2975
43.038
42.7173
42.3384
41.9052
41.4199
40.8875
40.3068
39.6868
39.0156
38.3154
37.545
36.7644
35.8601
35.0502
34.0205
33.4173
31.8183
32.2666
33.2293
34.037
34.9737
35.8132
36.6417
37.3922
38.106
38.7642
39.3773
39.9378
40.4465
40.8989
41.2929
41.6252
41.8931
42.0939
42.2253
42.2859
42.2839
42.2196
42.0846
41.8804
41.6091
41.2736
40.8764
40.4212
39.9101
39.3474
38.7325
38.0731
37.3588
36.6088
35.7822
34.9458
34.0126
33.2093
32.2515
31.8082
30.0668
30.2875
31.0941
31.8181
32.7199
33.5656
34.422
35.2095
35.9551
36.6443
37.2858
37.8729
38.4054
38.8791
39.2915
39.6394
39.9199
40.1305
40.2691
40.3339
40.3322
40.2639
40.1223
39.9088
39.6253
39.2747
38.8597
38.3836
37.8492
37.2605
36.6179
35.9284
35.1836
34.3984
33.5457
32.704
31.807
31.0881
30.2869
30.0706
28.1881
28.2152
28.8414
29.438
30.2538
31.0534
31.8932
32.6849
33.4402
34.1421
34.7978
35.4001
35.9478
36.4362
36.8621
37.2219
37.5127
37.7315
37.8761
37.9449
37.9434
37.8719
37.7248
37.5037
37.2107
36.8486
36.4209
35.9308
35.3819
34.779
34.1232
33.4225
32.6702
31.8821
31.0468
30.2519
29.4409
28.8493
28.2262
28.2023
26.2389
26.1993
26.6813
27.1764
27.8962
28.6297
29.4226
30.1887
30.9312
31.626
32.279
32.8818
33.4322
33.9245
34.3551
34.7197
35.0149
35.2378
35.3857
35.4572
35.456
35.3826
35.233
35.0085
34.7117
34.3457
33.914
33.4208
32.87
32.2672
31.6152
30.9224
30.184
29.4227
28.6349
27.9061
27.191
26.6989
26.2187
26.2572
24.6334
24.653
25.0512
25.5129
26.1595
26.8418
27.5798
28.3044
29.011
29.6804
30.3133
30.9008
31.4387
31.9215
32.3447
32.7037
32.9951
33.2154
33.3622
33.4341
33.4331
33.3601
33.2124
32.991
32.6989
32.3391
31.9154
31.4323
30.8943
30.3075
29.676
29.0091
28.3067
27.5869
26.8534
26.1755
25.5317
25.0725
24.6726
24.6518
24.0544
24.1518
24.5182
24.9724
25.5652
26.1991
26.8732
27.5391
28.1922
28.8183
29.413
29.9673
30.4761
30.9337
31.3352
31.6764
31.9537
32.1636
32.3039
32.3728
32.3721
32.3023
32.1617
31.9513
31.6737
31.3321
30.9302
30.4725
29.9638
29.4099
28.8163
28.1918
27.5414
26.8799
26.2106
25.5807
24.9916
24.5389
24.1728
24.0742
24.5932
24.7133
25.0695
25.5
26.0453
26.6222
27.2298
27.8337
28.4313
29.0072
29.5556
30.0677
30.5386
30.9624
31.3348
31.6514
31.9088
32.1039
32.2343
32.2985
32.2979
32.2337
32.1033
31.9083
31.651
31.3344
30.9622
30.5386
30.0681
29.5565
29.009
28.4344
27.8389
27.2378
26.635
26.0622
25.5216
25.0923
24.7394
24.6137
25.4186
25.5329
25.8877
26.2923
26.808
27.3438
27.9118
28.4773
29.039
29.5803
30.0964
30.5786
31.0221
31.4215
31.7725
32.0713
32.3141
32.4982
32.6213
32.6817
32.6812
32.621
32.4985
32.3148
32.0724
31.7741
31.4237
31.0247
30.5818
30.1004
29.5854
29.0454
28.4857
27.9225
27.3579
26.8262
26.3156
25.9136
25.562
25.4448
82.3392
50.3282
53.7349
62.0586
68.4773
73.5852
77.6963
81.1569
84.2166
86.9982
89.6281
92.15
94.6627
97.264
100.009
102.919
106.007
109.255
112.628
116.061
119.447
122.612
125.244
126.851
84.5735
50.5448
52.318
60.376
66.7345
71.8315
75.9299
79.3775
82.4077
85.1638
87.7026
90.1448
92.5769
95.0778
97.7167
100.533
103.515
106.652
109.909
113.225
116.496
119.555
122.098
123.65
81.3945
49.5549
50.8807
58.7084
65.0047
70.0511
74.1596
77.6257
80.6613
83.3312
85.825
88.1882
90.5225
92.938
95.4894
98.192
101.066
104.09
107.235
110.435
113.593
116.547
119.003
120.501
83.9568
49.528
49.3956
56.9495
63.1993
68.2854
72.4205
75.8938
78.8881
81.569
83.9803
86.2695
88.5385
90.8599
93.3059
95.9253
98.6998
101.621
104.652
107.739
110.785
113.636
116.007
117.45
79.5041
48.6299
47.9667
55.2115
61.4474
66.4938
70.6577
74.1653
77.2074
79.8068
82.1932
84.4245
86.6007
88.8484
91.2245
93.7338
96.4061
99.2196
102.147
105.126
108.066
110.818
113.107
114.498
67.3889
48.2895
46.4566
53.3547
59.5447
64.6871
68.9182
72.4625
75.4454
78.1054
80.4338
82.6023
84.738
86.9048
89.1774
91.6204
94.2057
96.9275
99.7486
102.623
105.459
108.114
110.322
111.662
77.5753
47.6737
44.9418
51.4798
57.7292
62.8403
67.1118
70.6959
73.7984
76.3767
78.7131
80.8583
82.9097
85.0176
87.2451
89.5815
92.0709
94.691
97.4192
100.193
102.931
105.495
107.627
108.918
68.7258
47.2758
43.3668
49.4482
55.6283
60.9088
65.3
68.9796
71.9925
74.6882
76.9991
79.1
81.1476
83.1945
85.3178
87.6095
90.0276
92.5697
95.1983
97.875
100.516
102.989
105.046
106.29
56.0827
45.7247
41.7864
47.2795
53.6379
58.9089
63.3675
67.0825
70.3305
72.9469
75.2913
77.4165
79.3934
81.3997
83.5132
85.7002
88.0273
90.4721
93.0178
95.6035
98.1534
100.542
102.529
103.726
70.3389
45.1866
39.8167
44.905
51.1218
56.6902
61.3544
65.2892
68.3979
71.2092
73.571
75.6597
77.6778
79.651
81.6555
83.8259
86.1008
88.4839
90.9351
93.4298
95.889
98.1933
100.109
101.259
56.5666
44.6461
38.1571
42.0915
48.7338
54.3452
59.1609
63.1103
66.6465
69.388
71.8126
73.9885
75.9393
77.8873
79.9296
81.993
84.1783
86.4638
88.8439
91.2527
93.6267
95.8512
97.7009
98.8054
60.5718
43.2843
35.8963
39.0779
45.2991
51.5125
56.7019
61.1368
64.4547
67.5087
70.0192
72.1614
74.2142
76.1638
78.079
80.1606
82.3176
84.5618
86.8494
89.172
91.4586
93.6014
95.3814
96.4404
56.9742
42.222
33.5443
34.7516
42.0774
48.4078
53.9802
58.398
62.499
65.5061
68.1189
70.445
72.4307
74.3692
76.3909
78.3571
80.4209
82.5621
84.7904
87.0335
89.2388
91.3051
93.0228
94.0369
59.0334
41.7214
30.8785
30.3516
36.2128
44.1495
50.5662
56.0592
59.8038
63.3395
66.1561
68.4441
70.6215
72.6137
74.4719
76.5056
78.5745
80.7034
82.8392
84.9989
87.1188
89.1053
90.7531
91.7223
51.2231
39.9457
27.8007
20.9372
30.7368
39.0394
46.5851
52.1173
57.4488
60.9844
63.9714
66.6014
68.7058
70.6986
72.7703
74.6693
76.6338
78.6439
80.7357
82.8212
84.8633
86.7754
88.364
89.2875
32.7743
33.5878
23.8927
11.3723
14.6401
30.693
40.7512
49.0357
53.7037
58.2704
61.6843
64.2672
66.7034
68.8314
70.6677
72.7082
74.7277
76.7709
78.765
80.7684
82.7247
84.5558
86.0721
86.9502
10.1214
13.499
15.9994
15.9859
7.71894
7.28151
32.9109
41.9618
50.5737
55.2116
58.9655
62.1717
64.5219
66.6566
68.8851
70.7513
72.6393
74.5281
76.4993
78.4329
80.313
82.0705
83.5296
84.3601
10.5459
7.84395
7.6511
16.6498
17.7054
18.3398
5.71288
36.5806
44.1116
51.4113
56.0582
59.2198
62.1485
64.5611
66.4104
68.5386
70.5638
72.5627
74.4222
76.2713
78.0614
79.7336
81.1145
81.8976
9.87786
6.8494
10.3613
9.91108
9.22265
8.60335
8.15417
14.5683
39.4504
46.6592
52.2548
56.6499
59.4726
61.8856
64.4564
66.3304
68.1638
69.934
71.803
73.5865
75.2998
76.8965
78.2225
78.953
1.38147
11.6937
7.70108
19.408
20.9911
21.9276
20.7816
21.2004
20.0231
40.4341
48.1083
52.4519
56.3821
59.3725
61.2655
63.6232
65.7473
67.7708
69.4975
71.1886
72.8024
74.3049
75.54
76.2199
11.5299
20.6124
22.9476
18.712
18.2853
20.1322
23.9787
22.5852
14.5463
29.2916
41.3139
48.9337
52.7527
55.7113
59.0186
60.9511
62.7551
64.3893
66.1853
67.8169
69.3504
70.7723
71.958
72.5751
11.5222
21.9275
26.8345
29.331
24.7115
24.5872
27.2196
18.8456
13.782
5.11548
34.5851
41.647
48.1173
52.4135
54.3599
57.2758
59.683
61.8876
63.4775
64.9992
66.4171
67.731
68.7996
69.3625
11.5787
22.2562
28.0515
31.2492
32.1367
26.5173
4.57733
6.09503
20.3849
22.5908
25.9216
35.8194
42.1276
46.5226
51.6768
53.7177
55.5413
56.9625
58.7579
60.2394
61.571
62.7944
63.8351
64.3142
11.6022
20.4608
26.9059
31.519
33.488
33.1348
25.1883
30.009
17.8376
6.65853
12.2877
9.51988
33.9335
41.5575
43.356
47.9216
51.146
53.9504
55.3896
56.7278
57.9171
59.0201
59.8808
60.3062
11.1675
18.6283
25.1101
29.8472
32.9435
33.674
32.9501
23.0202
17.7722
17.0568
19.3269
23.0624
2.84878
27.7286
40.3136
42.4005
44.1331
45.1962
47.267
48.6276
49.7506
50.7228
51.6684
51.9568
8.74535
16.7895
23.1261
27.8431
31.0476
32.9109
32.4407
31.991
20.2687
30.0687
9.30238
24.0227
14.821
21.217
13.758
29.5373
37.1611
41.6731
42.8981
44.0858
44.8744
45.8779
46.3021
46.5615
7.33496
15.2961
20.9313
25.1752
28.3831
30.3832
31.4487
30.4791
31.5377
21.3573
18.8603
6.7142
24.7201
25.8239
17.3111
15.391
11.0667
13.3866
19.5827
21.7582
24.1365
23.5593
26.2672
26.1195
5.08671
13.3861
17.8661
21.4062
24.3525
26.6804
27.9903
29.436
29.2534
31.7253
21.2814
29.1529
10.0773
18.6105
26.8003
9.90033
27.1148
19.7055
21.5413
9.60604
29.9084
11.5182
31.2366
31.5365
4.92076
12.1668
14.5793
16.6778
19.0122
21.3581
23.6677
25.5163
28.4373
29.2804
32.2611
22.7828
10.7561
28.4672
20.4179
27.9807
20.0273
7.32009
28.8297
21.9045
6.7422
24.7157
7.26616
7.4968
3.91063
11.9438
12.4344
12.9395
14.0878
16.2736
18.9116
22.1198
24.7325
28.4743
29.8881
32.6382
23.3398
23.5381
24.5695
23.7343
10.1236
24.7831
29.2267
25.418
17.595
17.288
16.5401
16.8392
3.34152
11.5859
11.6997
11.8766
12.4369
14.2531
16.8577
19.3716
22.6231
25.1946
28.9614
30.6863
32.7229
26.3692
8.84277
26.4067
17.8175
13.7787
10.0624
20.5243
1.15852
23.4229
23.7716
24.0055
3.03978
11.188
11.5835
11.6988
12.5011
14.7987
17.1716
19.3953
21.2088
23.864
26.069
29.5552
31.3865
32.5329
30.4894
18.9003
7.74018
9.18598
31.1211
10.9056
9.00056
25.736
25.9493
26.1719
2.09085
9.67701
11.4093
11.4846
12.8846
15.6692
18.1669
20.06
21.8481
23.1274
25.1095
26.9929
30.0704
31.9404
32.276
32.3816
28.4698
22.7922
17.5901
13.1323
12.5534
11.3403
11.1882
11.8821
2.54054
10.3646
11.5159
11.5915
14.463
17.3747
19.601
21.3818
22.6996
24.0033
24.8115
26.195
27.8403
30.3212
32.2588
31.9799
31.3884
30.9656
30.6199
30.4565
30.1036
29.6831
29.6672
29.8294
3.3293
11.5126
11.7361
13.7125
16.6567
19.1953
21.2266
22.8244
24.175
25.0643
25.8615
26.2467
27.1212
28.5542
30.3074
31.8019
31.5113
30.487
28.8423
27.1927
25.8354
25.0225
24.8856
25.0268
3.55666
11.5322
13.2985
16.1806
18.8951
21.1574
22.9944
24.5171
25.7063
26.6683
27.1466
27.4512
27.4826
27.9
29.0388
30.0162
30.3221
29.9649
29.0055
27.8025
26.6692
25.9871
25.9907
26.2596
4.12956
12.3526
15.8934
18.6502
20.9994
23.0315
24.7711
26.2419
27.4783
28.3374
28.8901
28.9653
28.8196
28.569
28.5685
29.1125
29.3163
28.8143
27.4342
25.5486
23.7938
22.8715
22.9535
23.3831
6.01262
15.1294
18.3022
20.7455
22.9214
24.86
26.5589
28.0444
29.2715
30.2159
30.7237
30.862
30.559
30.0118
29.4859
29.0805
28.776
28.2126
27.0669
25.5046
24.0494
23.3718
23.6408
24.2232
8.21472
17.181
20.2557
22.5771
24.6766
26.5866
28.3088
29.8401
31.1485
32.1184
32.7263
32.8729
32.606
31.9527
31.0488
30.1618
29.2963
28.299
26.8923
25.0973
23.4378
22.7074
23.0847
23.7852
10.5988
18.9833
21.8895
24.1841
26.3063
28.2551
30.0401
31.6517
33.0225
34.0892
34.7525
35.0058
34.7862
34.1233
33.1129
31.8622
30.5303
29.1349
27.5536
25.813
24.3352
23.7849
24.2762
25.0481
81.6032
76.3872
58.6584
69.0877
72.7808
67.6626
66.9616
63.3142
52.0113
47.6586
48.1186
25.5674
19.5105
21.9622
11.324
15.9904
14.3042
13.8573
13.6099
13.424
13.4259
13.5707
14.0904
13.6299
16.1217
15.3404
10.6404
23.6059
20.6963
14.037
41.398
64.4523
60.5212
59.7271
58.2151
61.3615
75.0057
69.0114
60.0054
78.464
50.2865
47.6551
46.628
44.8901
43.321
40.8012
40.1385
37.8545
36.6728
34.6257
34.5407
33.1471
33.1344
31.9413
31.9988
31.1971
30.9066
30.6315
30.4155
30.2991
30.2986
30.4185
30.6069
30.9622
31.1775
31.7916
32.3726
32.6942
33.5327
34.4564
34.7197
36.9783
38.3567
40.4003
40.9661
43.533
44.8425
46.6775
47.7351
49.7211
54.3113
52.7254
52.2745
50.7874
50.2465
48.9194
48.3212
47.1758
46.5488
45.5627
44.8807
44.1224
43.524
42.9477
42.4079
42.0219
41.664
41.3951
41.2143
41.1092
41.109
41.2122
41.4002
41.651
42.0174
42.4408
42.8921
43.549
44.0978
44.9343
45.5546
46.501
47.1099
48.2681
48.8829
50.2184
50.786
52.2604
52.7243
54.294
62.7146
61.2167
60.6934
59.2535
58.6001
57.2798
56.5706
55.4116
54.7003
53.7261
53.0439
52.2543
51.6614
51.0442
50.5678
50.1208
49.7802
49.5144
49.3292
49.2273
49.227
49.3289
49.5114
49.7821
50.1179
50.5585
51.0505
51.6496
52.2665
53.0471
53.7166
54.6899
55.4065
56.57
57.2801
58.6002
59.2495
60.6874
61.2048
62.7067
69.1217
67.5768
66.9744
65.5129
64.7906
63.4725
62.695
61.5502
60.7686
59.8077
59.0718
58.2935
57.6548
57.0484
56.5368
56.1017
55.7478
55.4767
55.2914
55.1895
55.1893
55.2905
55.4766
55.7448
56.0996
56.5373
57.0436
57.6527
58.2919
59.0714
59.8022
60.7594
61.5408
62.6854
63.4642
64.7826
65.5052
66.9666
67.5672
69.1146
74.2139
72.6281
71.9498
70.4782
69.6819
68.3743
67.5284
66.4007
65.5669
64.6161
63.8482
63.0675
62.4115
61.797
61.2817
60.8343
60.4779
60.2039
60.0157
59.914
59.9137
60.0151
60.2024
60.4771
60.8325
61.2786
61.7949
62.4086
63.0654
63.8452
64.6104
65.5604
66.3944
67.5225
68.3685
69.6756
70.4714
71.9421
72.6193
74.2052
78.2815
76.6777
75.9227
74.4584
73.5974
72.306
71.4102
70.2936
69.427
68.479
67.693
66.9102
66.2425
65.6252
65.1012
64.6533
64.2916
64.015
63.8258
63.7236
63.7234
63.8251
64.0142
64.2898
64.6513
65.0994
65.6226
66.2394
66.9069
67.6892
68.4742
69.4215
70.2876
71.404
72.2993
73.5903
74.4508
75.9148
76.6693
78.2725
81.7036
80.0896
79.2773
77.8185
76.9132
75.6282
74.7014
73.586
72.6991
71.7483
70.9485
70.1611
69.4836
68.8613
68.3314
67.8776
67.5122
67.2321
67.0399
66.936
66.9358
67.0393
67.2309
67.5109
67.8758
68.329
68.8587
69.4805
70.1577
70.9445
71.7436
72.6938
73.5802
74.6954
75.6216
76.9065
77.811
79.2696
80.0812
81.6947
84.747
83.1045
82.2612
80.7905
79.8606
78.5688
77.6222
76.5008
75.5979
74.641
73.8283
73.0344
72.3468
71.7179
71.1803
70.721
70.3495
70.0646
69.8685
69.7612
69.761
69.8677
70.0636
70.348
70.7191
71.178
71.7152
72.3437
73.0308
73.8242
74.6364
75.5928
76.4952
77.6164
78.5621
79.8539
80.7827
82.2537
83.0955
84.7385
87.565
85.8664
85.016
83.5182
82.5732
81.2667
80.3029
79.1712
78.2521
77.2859
76.4594
75.6564
74.9577
74.3202
73.7738
73.307
72.9289
72.6382
72.4368
72.3253
72.3251
72.4362
72.637
72.9274
73.3051
73.7715
74.3174
74.9545
75.6527
76.4554
77.2813
78.2471
79.1657
80.297
81.2601
82.5665
83.5103
85.0086
85.8571
87.5568
90.2123
88.4748
87.6072
86.0865
85.122
83.7993
82.8166
81.671
80.7349
79.7558
78.9148
78.0999
77.389
76.7413
76.185
75.7098
75.324
75.0266
74.8197
74.7031
74.7028
74.819
75.0255
75.3224
75.7078
76.1826
76.7385
77.3858
78.0962
78.9106
79.7512
80.7298
81.6654
82.8106
83.7927
85.115
86.0787
87.5996
88.4656
90.2038
92.7825
90.9807
90.1182
88.5555
87.5842
86.2334
85.2377
84.0717
83.1205
82.1254
81.2696
80.4415
79.7178
79.059
78.4923
78.0082
77.6144
77.3102
77.0973
76.9755
76.9752
77.0966
77.3091
77.6129
78.0062
78.4899
79.0562
79.7145
80.4378
81.2655
82.1208
83.1153
84.0661
85.2315
86.2268
87.5771
88.5479
90.1102
90.9718
92.7735
95.3519
93.4827
92.6264
91.0218
90.0412
88.6635
87.6516
86.4663
85.4975
84.4867
83.6147
82.7732
82.0359
81.3656
80.7882
80.2949
79.8931
79.5821
79.3633
79.2361
79.2359
79.3625
79.5809
79.8915
80.2929
80.7858
81.3628
82.0325
82.7695
83.6105
84.482
85.4923
86.4608
87.6454
88.6571
90.0339
91.0143
92.618
93.4742
95.3423
98.0018
96.0714
95.2154
93.571
92.5774
91.1728
90.1426
88.9366
87.9489
86.9209
86.032
85.1756
84.4241
83.7416
83.1529
82.65
82.2399
81.9219
81.6972
81.5648
81.5646
81.6964
81.9207
82.2383
82.648
83.1505
83.7387
84.4207
85.1719
86.0277
86.9162
87.9437
88.9309
90.1364
91.1661
92.5702
93.5632
95.2071
96.0626
97.9923
100.798
98.8017
97.9458
96.2571
95.2499
93.8145
92.7649
91.535
90.5272
89.4798
88.5723
87.6994
86.9325
86.2364
85.6356
85.1224
84.7034
84.3781
84.1474
84.01
84.0097
84.1466
84.3769
84.7018
85.1204
85.6332
86.2335
86.929
87.6955
88.5679
89.4749
90.5218
91.5296
92.7585
93.808
95.2424
96.2495
97.9371
98.7929
100.788
103.772
101.697
100.845
99.1061
98.0842
96.6144
95.5428
94.2867
93.2561
92.187
91.2592
90.3679
89.5839
88.873
88.2588
87.7345
87.3058
86.9727
86.7359
86.5936
86.5931
86.735
86.9714
87.3042
87.7324
88.2563
88.87
89.5805
90.3641
91.2549
92.1823
93.2509
94.281
95.5366
96.6077
98.077
99.0982
100.837
101.689
103.762
106.919
104.769
103.913
102.124
101.082
99.5766
98.4792
97.1953
96.1389
95.046
94.0953
93.1842
92.3813
91.6542
91.0254
90.4887
90.05
89.7085
89.4652
89.3177
89.3173
89.4645
89.7073
90.0484
90.4867
91.023
91.6513
92.3776
93.1805
94.0907
95.0414
96.1334
97.1893
98.4732
99.5696
101.075
102.116
103.905
104.76
106.909
110.228
107.998
107.137
105.295
104.231
102.687
101.562
100.248
99.1639
98.0459
97.0699
96.1376
95.3143
94.5696
93.9253
93.3756
92.9258
92.5761
92.3259
92.1735
92.1731
92.3251
92.5745
92.9242
93.3737
93.923
94.5668
95.3108
96.134
97.0659
98.041
99.1586
100.242
101.556
102.681
104.223
105.287
107.128
107.989
110.218
113.661
111.351
110.481
108.587
107.497
105.916
104.76
103.415
102.301
101.156
100.154
99.199
98.354
97.5911
96.9303
96.3667
95.9057
95.5467
95.2898
95.1323
95.1319
95.2891
95.5452
95.9038
96.3648
96.9277
97.5881
98.3505
99.1951
100.15
101.151
102.295
103.409
104.753
105.909
107.489
108.579
110.472
111.342
113.651
117.155
114.766
113.884
111.938
110.821
109.202
108.014
106.637
105.493
104.321
103.292
102.313
101.446
100.665
99.9868
99.4089
98.9362
98.5678
98.3042
98.1416
98.1413
98.3034
98.5667
98.9344
99.4067
99.9843
100.661
101.443
102.31
103.287
104.316
105.487
106.631
108.007
109.195