/*--------------------------------*- C++ -*----------------------------------*\
  =========                 |
  \\      /  F ield         | OpenFOAM: The Open Source CFD Toolbox
   \\    /   O peration     | Website:  https://openfoam.org
    \\  /    A nd           | Version:  6
     \\/     M anipulation  |
\*---------------------------------------------------------------------------*/
FoamFile
{
    version     2.0;
    format      ascii;
    class       volScalarField;
    location    "48";
    object      omega;
}
// * * * * * * * * * * * * * * * * * * * * * * * * * * * * * * * * * * * * * //

dimensions      [0 0 -1 0 0 0 0];

internalField   nonuniform List<scalar> 
380496
(
843.917
843.917
843.917
843.917
843.917
843.917
843.917
843.917
843.917
843.917
843.917
843.917
843.917
843.917
843.917
843.917
843.917
843.917
843.917
843.917
843.917
843.917
843.917
843.917
843.917
843.917
843.917
843.917
843.917
843.917
843.917
843.917
843.917
843.917
843.917
843.917
843.917
843.917
843.917
843.917
843.917
843.917
843.917
843.917
843.917
843.917
843.917
843.917
843.917
843.917
843.917
843.917
843.917
843.917
843.917
843.917
843.917
843.917
843.917
843.917
843.917
843.917
843.917
843.917
843.917
843.917
843.917
843.917
843.917
843.917
843.917
843.917
843.917
843.917
843.917
843.917
843.917
843.917
843.917
843.917
843.917
843.917
843.917
843.917
843.917
843.917
843.917
843.917
843.917
843.917
843.917
843.917
843.917
843.917
843.917
843.917
843.917
843.917
843.917
843.917
843.917
843.917
843.917
843.917
843.917
843.917
843.917
843.917
843.917
843.917
843.917
843.917
843.917
843.917
843.917
843.917
843.917
843.917
843.917
843.917
843.917
843.917
843.917
843.917
843.917
843.917
843.917
843.917
843.917
843.917
843.917
843.917
843.917
843.917
843.917
843.917
843.917
843.917
843.917
843.917
843.917
843.917
843.917
843.917
843.917
843.917
843.917
843.917
843.917
843.917
843.917
843.917
843.917
843.917
843.917
843.917
843.917
843.917
843.917
843.917
843.917
843.917
843.917
843.917
843.917
843.917
843.917
843.917
843.917
843.917
843.917
843.917
843.917
843.917
843.917
843.917
843.917
843.917
843.917
843.917
843.917
843.917
843.917
843.917
843.917
843.917
843.917
843.917
843.917
843.917
843.917
843.917
843.917
843.917
843.917
843.917
843.917
843.917
843.917
843.917
843.917
843.917
843.917
843.917
843.917
843.917
843.917
843.917
843.917
843.917
843.917
843.917
843.917
843.917
843.917
843.917
843.917
843.917
843.917
843.917
843.917
843.917
843.917
843.917
843.917
843.917
843.917
843.917
843.917
843.917
843.917
843.917
843.917
843.917
843.917
843.917
843.917
843.917
843.917
843.917
843.917
843.917
843.917
843.917
843.917
843.917
843.917
843.917
843.917
843.917
843.917
843.917
843.917
843.917
843.917
843.917
843.917
843.917
843.917
843.917
843.917
843.917
843.917
843.917
843.917
843.917
843.917
843.917
843.917
843.917
843.917
843.917
843.917
843.917
843.917
843.917
843.917
843.917
843.917
843.917
843.917
843.917
843.917
843.917
843.917
843.917
843.917
843.917
843.917
843.917
843.917
843.917
843.917
843.917
843.917
843.917
843.917
843.917
843.917
843.917
843.917
843.917
843.917
843.917
843.917
843.917
843.917
843.917
843.917
843.917
843.917
843.917
843.917
843.917
843.917
843.917
843.917
843.917
843.917
843.917
843.917
843.917
843.917
843.917
843.917
843.917
843.917
843.917
843.917
843.917
843.917
843.917
843.917
843.917
843.917
843.917
843.917
843.917
843.917
843.917
843.917
843.917
843.917
843.917
843.917
843.917
843.917
843.917
843.917
843.917
843.917
843.917
843.917
843.917
843.917
843.917
843.917
843.917
843.917
843.917
843.917
843.917
843.917
843.917
843.917
843.917
843.917
843.917
843.917
843.917
843.917
843.917
843.917
843.917
843.917
843.917
843.917
843.917
843.917
843.917
843.917
843.917
843.917
843.917
843.917
843.917
843.917
843.917
843.917
843.917
843.917
843.917
843.917
843.917
843.917
843.917
843.917
843.917
843.917
843.917
843.917
843.917
843.917
843.917
843.917
843.917
843.917
843.917
843.917
843.917
843.917
843.917
843.917
843.917
843.917
843.917
843.917
843.917
843.917
843.917
843.917
843.917
843.917
843.917
843.917
843.917
843.917
843.917
843.917
843.917
843.917
843.917
843.917
843.917
843.917
843.917
843.917
843.917
843.917
843.917
843.917
843.917
843.917
843.917
843.917
843.917
843.917
843.917
843.917
843.917
843.917
843.917
843.917
843.917
843.917
843.917
843.917
843.917
843.917
843.917
843.917
843.917
843.917
843.917
843.917
843.917
843.917
843.917
843.917
843.917
843.917
843.917
843.917
843.917
843.917
843.917
843.917
843.917
843.917
843.917
843.917
843.917
843.917
843.917
843.917
843.917
843.917
843.917
843.917
843.917
843.917
843.917
843.917
843.917
843.917
843.917
843.917
843.917
843.917
843.917
843.917
843.917
843.917
843.917
843.917
843.917
843.917
843.917
843.917
843.917
843.917
843.917
843.917
843.917
843.917
843.917
843.917
843.917
843.917
843.917
843.917
843.917
843.917
843.917
843.917
843.917
843.917
843.917
843.917
843.917
843.917
843.917
843.917
843.917
843.917
843.917
843.917
843.917
843.917
843.917
843.917
843.917
843.917
843.917
843.917
843.917
843.917
843.917
843.917
843.917
843.917
843.917
843.917
843.917
843.917
843.917
843.917
843.917
843.917
843.917
843.917
843.917
843.917
843.917
843.917
843.917
843.917
843.917
843.917
843.917
843.917
843.917
843.917
843.917
843.917
843.917
843.917
843.917
843.917
843.917
843.917
843.917
843.917
843.917
843.917
843.917
843.917
843.917
843.917
843.917
843.917
843.917
843.917
843.917
843.917
843.917
843.917
843.917
843.917
843.917
843.917
843.917
843.917
843.917
843.917
843.917
843.917
843.917
843.917
843.917
843.917
843.917
843.917
843.917
843.917
843.917
843.917
843.917
843.917
843.917
843.917
843.917
843.917
843.917
843.917
843.917
843.917
843.917
843.917
843.917
843.917
843.917
843.917
843.917
843.917
843.917
843.917
843.917
843.917
843.917
843.917
843.917
843.917
843.917
843.917
843.917
843.917
843.917
843.917
843.917
843.917
843.917
843.917
843.917
843.917
843.917
843.917
843.917
843.917
843.917
843.917
843.917
843.917
843.917
843.917
843.917
843.917
843.917
843.917
843.917
843.917
843.917
843.917
843.917
843.917
843.917
843.917
843.917
843.917
843.917
843.917
843.917
843.917
843.917
843.917
843.917
843.917
843.917
843.917
843.917
843.917
843.917
843.917
843.917
843.917
843.917
843.917
843.917
843.917
843.917
423.923
423.923
423.923
423.923
423.923
424.288
424.29
424.295
424.272
424.295
424.32
424.34
424.363
424.382
424.405
424.425
424.45
424.471
424.498
424.521
424.551
424.576
424.609
424.636
424.673
424.702
424.743
424.772
424.819
424.846
424.901
424.921
424.989
424.99
425.072
275.638
262.144
263.673
264.573
264.559
264.419
264.334
264.29
264.266
264.255
264.249
264.25
264.252
264.261
264.266
264.28
264.289
264.307
264.319
264.342
264.359
264.387
264.409
264.445
264.473
264.517
264.553
264.605
264.65
264.712
264.766
264.838
264.895
264.986
265.022
275.379
261.96
263.393
264.253
264.226
264.084
263.996
263.955
263.93
263.923
263.918
263.925
263.928
263.943
263.952
263.972
263.985
264.01
264.028
264.059
264.082
264.119
264.149
264.194
264.231
264.284
264.329
264.393
264.445
264.519
264.575
264.663
264.711
264.833
264.788
274.938
261.625
263.023
263.851
263.811
263.668
263.58
263.542
263.52
263.519
263.519
263.533
263.544
263.566
263.583
263.612
263.634
263.669
263.697
263.74
263.774
263.825
263.866
263.927
263.976
264.047
264.105
264.186
264.253
264.346
264.419
264.525
264.591
264.737
264.711
274.255
261.102
262.54
263.341
263.28
263.131
263.045
263.012
262.997
263.003
263.012
263.035
263.053
263.086
263.11
263.151
263.18
263.229
263.264
263.322
263.363
263.431
263.48
263.558
263.617
263.704
263.774
263.872
263.951
264.06
264.145
264.268
264.342
264.51
264.483
273.787
260.732
262.024
262.77
262.702
262.553
262.469
262.438
262.427
262.438
262.451
262.48
262.504
262.544
262.576
262.624
262.663
262.719
262.767
262.832
262.889
262.964
263.031
263.117
263.194
263.293
263.379
263.492
263.585
263.713
263.81
263.956
264.039
264.238
264.208
272.915
260.038
261.328
262.034
261.947
261.796
261.717
261.695
261.693
261.715
261.739
261.779
261.814
261.864
261.907
261.966
262.016
262.085
262.143
262.222
262.29
262.381
262.458
262.562
262.649
262.766
262.864
262.994
263.101
263.245
263.357
263.519
263.615
263.835
263.807
272.061
259.34
260.531
261.18
261.08
260.93
260.857
260.842
260.85
260.881
260.914
260.962
261.007
261.067
261.12
261.189
261.25
261.33
261.4
261.491
261.572
261.676
261.767
261.885
261.987
262.118
262.231
262.377
262.499
262.659
262.786
262.966
263.075
263.319
263.291
271.026
258.479
259.567
260.157
260.044
259.896
259.832
259.828
259.847
259.889
259.933
259.992
260.047
260.117
260.18
260.26
260.333
260.424
260.506
260.609
260.703
260.82
260.925
261.056
261.172
261.319
261.446
261.607
261.743
261.919
262.059
262.257
262.375
262.644
262.612
269.807
257.456
258.457
258.985
258.857
258.716
258.666
258.677
258.712
258.768
258.826
258.897
258.964
259.045
259.121
259.212
259.296
259.399
259.494
259.61
259.716
259.846
259.964
260.11
260.24
260.401
260.541
260.718
260.867
261.059
261.212
261.426
261.554
261.845
261.811
268.657
256.454
257.277
257.74
257.61
257.478
257.442
257.466
257.513
257.579
257.647
257.727
257.804
257.894
257.979
258.079
258.174
258.286
258.392
258.519
258.636
258.779
258.909
259.067
259.209
259.383
259.536
259.726
259.888
260.094
260.257
260.487
260.624
260.933
260.896
267.087
255.101
255.846
256.251
256.111
255.995
255.985
256.033
256.102
256.188
256.273
256.369
256.46
256.563
256.661
256.774
256.881
257.006
257.124
257.264
257.394
257.549
257.692
257.863
258.018
258.206
258.372
258.576
258.749
258.969
259.145
259.389
259.534
259.863
259.821
265.666
253.803
254.279
254.616
254.485
254.389
254.4
254.465
254.549
254.645
254.742
254.847
254.949
255.061
255.169
255.291
255.409
255.545
255.674
255.825
255.967
256.134
256.29
256.474
256.642
256.843
257.021
257.239
257.425
257.658
257.845
258.104
258.257
258.605
258.558
263.602
251.962
252.321
252.61
252.487
252.426
252.479
252.58
252.695
252.817
252.936
253.06
253.179
253.306
253.43
253.566
253.698
253.846
253.99
254.154
254.31
254.491
254.66
254.858
255.039
255.254
255.446
255.678
255.877
256.125
256.323
256.597
256.759
257.127
257.072
261.657
250.111
250.128
250.362
250.265
250.245
250.335
250.462
250.599
250.738
250.874
251.01
251.143
251.282
251.419
251.566
251.712
251.872
252.029
252.205
252.375
252.569
252.752
252.963
253.158
253.388
253.593
253.839
254.051
254.314
254.524
254.813
254.984
255.372
255.308
258.961
247.586
247.37
247.584
247.529
247.576
247.73
247.906
248.083
248.253
248.415
248.572
248.725
248.88
249.034
249.195
249.355
249.528
249.699
249.888
250.072
250.278
250.476
250.701
250.91
251.153
251.372
251.633
251.858
252.136
252.359
252.664
252.845
253.254
253.181
255.939
244.637
244.052
244.272
244.29
244.421
244.642
244.868
245.083
245.283
245.469
245.645
245.815
245.983
246.149
246.32
246.492
246.674
246.857
247.055
247.252
247.469
247.68
247.916
248.141
248.397
248.632
248.907
249.148
249.442
249.68
250.002
250.196
250.626
250.548
252.317
240.988
239.927
240.186
240.311
240.557
240.862
241.145
241.394
241.616
241.813
241.995
242.167
242.336
242.504
242.676
242.852
243.038
243.229
243.434
243.643
243.871
244.098
244.35
244.593
244.867
245.124
245.419
245.682
245.997
246.258
246.602
246.82
247.274
247.211
246.448
235.384
234.178
234.679
234.989
235.387
235.784
236.121
236.391
236.625
236.818
237.002
237.169
237.342
237.513
237.698
237.887
238.093
238.306
238.538
238.776
239.035
239.296
239.581
239.861
240.17
240.465
240.795
241.098
241.448
241.747
242.122
242.383
242.857
242.842
238.155
227.579
225.862
226.733
227.334
227.911
228.379
228.738
229.006
229.248
229.452
229.667
229.865
230.089
230.304
230.55
230.789
231.06
231.326
231.622
231.915
232.237
232.555
232.9
233.24
233.605
233.96
234.343
234.708
235.106
235.469
235.887
236.219
236.72
236.84
218.095
211.367
210.037
211.657
212.786
213.68
214.361
214.897
215.336
215.74
216.089
216.438
216.75
217.081
217.384
217.72
218.033
218.387
218.722
219.104
219.465
219.87
220.258
220.688
221.103
221.552
221.988
222.449
222.9
223.367
223.821
224.284
224.719
225.121
225.374
9.50423
8.83565
9.16122
9.29923
9.37672
9.42571
9.47218
9.507
9.53639
9.57159
9.61552
9.64927
9.69256
9.72571
9.77092
9.80581
9.8546
9.89242
9.94555
9.98665
10.0444
10.0887
10.1517
10.1986
10.2679
10.3156
10.3928
10.4379
10.5261
10.5626
10.6676
10.6849
10.8161
10.7938
10.9557
133.591
127.215
127.094
127.665
127.852
127.834
127.782
127.738
127.708
127.688
127.675
127.669
127.666
127.667
127.67
127.675
127.683
127.692
127.704
127.717
127.733
127.75
127.771
127.793
127.819
127.847
127.882
127.917
127.96
128.003
128.057
128.112
128.175
128.25
128.324
133.311
126.951
126.79
127.334
127.509
127.487
127.432
127.389
127.358
127.339
127.328
127.324
127.323
127.327
127.333
127.343
127.354
127.368
127.384
127.402
127.422
127.445
127.472
127.499
127.533
127.566
127.608
127.648
127.7
127.745
127.81
127.862
127.935
128.009
128.052
132.938
126.595
126.417
126.944
127.109
127.085
127.028
126.985
126.956
126.941
126.933
126.933
126.936
126.945
126.957
126.972
126.989
127.009
127.031
127.056
127.085
127.115
127.15
127.186
127.229
127.271
127.323
127.373
127.434
127.491
127.565
127.631
127.711
127.804
127.851
132.435
126.122
125.96
126.48
126.635
126.605
126.547
126.505
126.479
126.468
126.465
126.47
126.479
126.494
126.511
126.533
126.556
126.583
126.612
126.644
126.679
126.717
126.76
126.804
126.854
126.905
126.964
127.022
127.092
127.157
127.238
127.312
127.395
127.497
127.544
132.014
125.739
125.522
126
126.14
126.104
126.044
126.002
125.977
125.967
125.966
125.975
125.987
126.006
126.027
126.053
126.081
126.113
126.147
126.185
126.227
126.271
126.321
126.372
126.429
126.488
126.555
126.621
126.699
126.771
126.861
126.942
127.035
127.143
127.2
131.387
125.155
124.944
125.405
125.53
125.487
125.426
125.386
125.366
125.362
125.367
125.382
125.4
125.426
125.453
125.485
125.52
125.559
125.6
125.645
125.694
125.746
125.802
125.861
125.926
125.992
126.067
126.141
126.226
126.306
126.401
126.491
126.586
126.706
126.76
130.746
124.568
124.324
124.747
124.852
124.801
124.739
124.701
124.684
124.685
124.695
124.715
124.739
124.77
124.803
124.841
124.881
124.926
124.973
125.025
125.08
125.139
125.202
125.269
125.341
125.415
125.496
125.578
125.67
125.758
125.859
125.957
126.057
126.186
126.242
129.997
123.88
123.603
123.985
124.068
124.01
123.947
123.913
123.9
123.907
123.923
123.949
123.979
124.016
124.054
124.099
124.145
124.196
124.249
124.308
124.369
124.435
124.505
124.579
124.658
124.739
124.828
124.916
125.015
125.11
125.217
125.322
125.425
125.563
125.618
129.152
123.104
122.799
123.139
123.199
123.132
123.07
123.041
123.036
123.051
123.075
123.108
123.145
123.189
123.234
123.285
123.338
123.396
123.455
123.521
123.589
123.661
123.738
123.819
123.904
123.993
124.088
124.183
124.289
124.391
124.504
124.616
124.723
124.869
124.924
128.333
122.355
121.978
122.26
122.296
122.222
122.163
122.139
122.141
122.161
122.191
122.23
122.273
122.322
122.373
122.429
122.487
122.55
122.616
122.687
122.76
122.839
122.922
123.008
123.1
123.195
123.296
123.398
123.509
123.617
123.735
123.854
123.964
124.118
124.171
127.304
121.401
120.996
121.234
121.245
121.165
121.112
121.098
121.111
121.143
121.184
121.232
121.284
121.341
121.399
121.463
121.528
121.598
121.67
121.748
121.828
121.914
122.003
122.096
122.195
122.296
122.404
122.512
122.629
122.744
122.868
122.992
123.106
123.269
123.32
126.312
120.489
119.958
120.117
120.1
120.017
119.971
119.966
119.988
120.028
120.076
120.132
120.19
120.253
120.317
120.386
120.457
120.533
120.611
120.695
120.781
120.873
120.968
121.068
121.173
121.281
121.395
121.51
121.633
121.754
121.883
122.015
122.132
122.303
122.351
125.004
119.264
118.671
118.778
118.737
118.654
118.621
118.634
118.674
118.729
118.792
118.859
118.928
119.001
119.074
119.152
119.231
119.315
119.4
119.491
119.585
119.684
119.787
119.894
120.006
120.121
120.242
120.364
120.494
120.622
120.757
120.895
121.016
121.197
121.241
123.705
118.045
117.265
117.276
117.207
117.129
117.114
117.143
117.198
117.266
117.34
117.418
117.496
117.577
117.658
117.743
117.829
117.92
118.013
118.111
118.212
118.318
118.428
118.542
118.661
118.783
118.911
119.04
119.177
119.311
119.453
119.599
119.723
119.915
119.954
122.019
116.445
115.512
115.453
115.364
115.301
115.313
115.371
115.45
115.54
115.631
115.723
115.814
115.906
115.998
116.092
116.186
116.285
116.386
116.492
116.6
116.713
116.83
116.952
117.078
117.208
117.343
117.48
117.623
117.765
117.914
118.067
118.197
118.4
118.434
120.108
114.604
113.423
113.275
113.175
113.137
113.185
113.274
113.38
113.491
113.601
113.707
113.811
113.913
114.013
114.115
114.217
114.322
114.429
114.541
114.656
114.776
114.9
115.029
115.162
115.299
115.442
115.586
115.737
115.887
116.044
116.205
116.341
116.556
116.585
117.825
112.372
110.841
110.583
110.476
110.478
110.574
110.704
110.84
110.973
111.097
111.214
111.325
111.432
111.537
111.642
111.748
111.857
111.968
112.085
112.205
112.332
112.462
112.599
112.741
112.887
113.039
113.194
113.356
113.517
113.685
113.858
114.007
114.237
114.273
114.184
108.832
107.096
106.874
106.837
106.924
107.089
107.27
107.438
107.594
107.729
107.855
107.968
108.079
108.186
108.297
108.408
108.525
108.647
108.775
108.909
109.05
109.197
109.351
109.51
109.675
109.846
110.02
110.202
110.383
110.571
110.762
110.932
111.176
111.229
108.727
103.939
101.682
101.432
101.489
101.683
101.915
102.133
102.312
102.478
102.619
102.763
102.894
103.036
103.171
103.32
103.465
103.623
103.781
103.95
104.121
104.302
104.486
104.678
104.873
105.075
105.281
105.491
105.706
105.921
106.142
106.364
106.574
106.845
106.965
94.0524
94.1823
91.3701
90.7409
90.7687
91.0939
91.5102
91.9159
92.2902
92.6447
92.9661
93.2734
93.5517
93.8232
94.0721
94.3216
94.556
94.7973
95.028
95.2653
95.4928
95.7292
95.9615
96.2038
96.4443
96.6932
96.9414
97.1949
97.4498
97.7038
97.9664
98.2059
98.49
98.6502
98.9524
11.5219
10.7696
11.096
11.221
11.3001
11.3518
11.4004
11.4366
11.4739
11.5061
11.5486
11.5799
11.623
11.6546
11.7005
11.7343
11.7844
11.8214
11.8762
11.9166
11.9762
12.0198
12.0848
12.1307
12.202
12.2482
12.3275
12.3703
12.4609
12.4939
12.6015
12.6144
12.7479
12.7216
12.8853
79.3735
76.7492
76.2134
76.3798
76.5396
76.5868
76.5787
76.5549
76.5315
76.5121
76.4978
76.487
76.4804
76.4757
76.4745
76.4738
76.4766
76.4786
76.4847
76.489
76.4982
76.5044
76.5169
76.5253
76.5413
76.5523
76.5722
76.5866
76.611
76.6297
76.6592
76.6842
76.7198
76.7523
76.8034
79.1304
76.5262
75.9807
76.1315
76.2815
76.3233
76.3122
76.2864
76.2623
76.2425
76.2291
76.2189
76.2141
76.2105
76.2117
76.2126
76.2183
76.2224
76.2317
76.2385
76.2512
76.2604
76.2769
76.2883
76.3092
76.3225
76.3493
76.3636
76.3985
76.4126
76.4577
76.4716
76.5243
76.544
76.5966
78.8429
76.2491
75.6996
75.841
75.9838
76.0211
76.0075
75.9805
75.9563
75.9371
75.925
75.9165
75.9139
75.9128
75.9167
75.9206
75.9295
75.937
75.9502
75.9605
75.9779
75.9907
76.0127
76.0278
76.0548
76.0723
76.1052
76.125
76.1651
76.1868
76.2353
76.2606
76.3131
76.352
76.3976
78.4941
75.9018
75.3598
75.5004
75.6382
75.6707
75.654
75.6257
75.6018
75.5838
75.5738
75.5678
75.5683
75.5701
75.5779
75.5848
75.5983
75.6085
75.627
75.6401
75.6634
75.679
75.7071
75.7256
75.7587
75.7801
75.819
75.8431
75.8889
75.9154
75.9684
75.9989
76.0541
76.0973
76.1449
78.1501
75.5902
75.0361
75.1538
75.2761
75.3
75.2787
75.248
75.2232
75.2053
75.1961
75.1914
75.1936
75.1974
75.2073
75.2169
75.2325
75.2464
75.2669
75.2845
75.3096
75.3306
75.3608
75.3847
75.4209
75.4472
75.4906
75.5183
75.5705
75.5988
75.6607
75.6906
75.7576
75.7978
75.8602
77.7112
75.162
74.6156
74.7272
74.8399
74.8565
74.8309
74.7989
74.7744
74.7584
74.7516
74.75
74.7554
74.7629
74.7764
74.7897
74.8093
74.8269
74.8518
74.8729
74.9031
74.9273
74.9631
74.9902
75.0323
75.0619
75.111
75.1425
75.1997
75.2327
75.298
75.3339
75.4018
75.4491
75.5107
77.2391
74.7181
74.1676
74.2598
74.3559
74.3621
74.331
74.297
74.2726
74.2579
74.2532
74.2544
74.2626
74.2732
74.2897
74.3064
74.3292
74.3504
74.3787
74.4037
74.4375
74.4658
74.5054
74.5368
74.5827
74.617
74.6699
74.7063
74.7672
74.8051
74.8741
74.9146
74.9865
75.0371
75.104
76.6972
74.2067
73.6529
73.7238
73.8012
73.7957
73.7589
73.7231
73.6992
73.6865
73.6845
73.6888
73.7004
73.7144
73.7345
73.7548
73.7811
73.806
73.838
73.8668
73.9044
73.9368
73.9804
74.016
74.0661
74.1044
74.1619
74.2019
74.2679
74.3087
74.3831
74.426
74.5028
74.5555
74.6264
76.0999
73.6405
73.0851
73.1342
73.1911
73.1723
73.1295
73.0926
73.0703
73.0607
73.0625
73.0709
73.0864
73.1047
73.1286
73.1529
73.1832
73.212
73.2479
73.2805
73.3222
73.3584
73.4062
73.4457
73.5003
73.5423
73.6044
73.6481
73.7185
73.7631
73.8415
73.8884
73.9682
74.0252
74.0983
75.4988
73.0835
72.509
72.5232
72.5547
72.5223
72.4742
72.4367
72.4161
72.4095
72.4145
72.4265
72.4455
72.4672
72.4946
72.5223
72.5559
72.5881
72.6274
72.6636
72.7087
72.7485
72.8
72.843
72.9014
72.9471
73.0131
73.0604
73.1348
73.1827
73.265
73.315
73.3981
73.4583
73.5336
74.7877
72.4069
71.8275
71.8171
71.8252
71.7785
71.7255
71.6888
71.6718
71.6702
71.6806
71.698
71.7221
71.7489
71.7809
71.8132
71.851
71.8875
71.9309
71.9712
72.0204
72.0643
72.1199
72.1669
72.2295
72.2791
72.3494
72.4003
72.479
72.5305
72.6168
72.6703
72.7567
72.8208
72.8979
74.0535
71.7341
71.1101
71.0453
71.0185
70.9556
70.8985
70.8635
70.8504
70.8536
70.8689
70.8911
70.9197
70.9509
70.9869
71.0232
71.0649
71.1053
71.1524
71.1966
71.2496
71.2974
71.357
71.4079
71.4746
71.528
71.6025
71.6572
71.7402
71.7952
71.8857
71.9428
72.0324
72.1007
72.1789
73.1494
70.8786
70.2307
70.1295
70.0732
69.9955
69.936
69.9051
69.8989
69.91
69.933
69.9626
69.9978
70.0353
70.077
70.119
70.1657
70.2112
70.2631
70.3121
70.3698
70.4221
70.4863
70.5417
70.613
70.6707
70.75
70.8088
70.8965
70.9554
71.0505
71.1115
71.2046
71.2779
71.3571
72.1923
69.9974
69.2694
69.0937
68.9939
68.8996
68.8397
68.8149
68.8169
68.8365
68.8674
68.9043
68.9461
68.9898
69.037
69.0843
69.1359
69.1864
69.2428
69.2965
69.3586
69.4155
69.4841
69.5439
69.6199
69.6819
69.766
69.8288
69.9217
69.9843
70.0844
70.1493
70.2462
70.3247
70.4043
71.0025
68.881
68.0803
67.8421
67.7033
67.5955
67.539
67.5244
67.5385
67.57
67.6115
67.658
67.7081
67.7594
67.8132
67.8669
67.924
67.9801
68.0415
68.1004
68.1672
68.2291
68.3025
68.3671
68.448
68.5146
68.604
68.6711
68.7695
68.8361
68.942
69.0109
69.1129
69.1973
69.2786
69.6099
67.5791
66.6556
66.3306
66.147
66.0288
65.9803
65.9794
66.008
66.0528
66.106
66.1626
66.2211
66.2798
66.3398
66.3994
66.4614
66.5227
66.5884
66.6522
66.7234
66.7902
66.868
66.9376
67.0233
67.0947
67.1894
67.2613
67.3658
67.4368
67.5494
67.6226
67.7308
67.8206
67.9044
67.9186
65.9889
64.882
64.4394
64.1988
64.0706
64.0341
64.0508
64.0961
64.1549
64.2191
64.2844
64.3498
64.4142
64.479
64.5433
64.6093
64.675
64.7445
64.8131
64.8882
64.9605
65.0429
65.1186
65.2098
65.288
65.389
65.4679
65.5798
65.6576
65.7791
65.8585
65.9774
66.0748
66.1699
65.3965
63.5126
62.2588
61.7692
61.5195
61.409
61.3991
61.4407
61.5061
61.5805
61.6562
61.73
61.8019
61.8718
61.9416
62.0112
62.0829
62.1555
62.2322
62.3098
62.3936
62.4768
62.5692
62.6575
62.7595
62.8513
62.9641
63.057
63.1815
63.2728
63.4083
63.4991
63.6346
63.7398
63.8518
61.5623
60.0531
58.4392
57.7749
57.4766
57.38
57.4013
57.4699
57.558
57.651
57.7469
57.841
57.9374
58.0321
58.1308
58.2283
58.3308
58.4323
58.5395
58.6459
58.7586
58.8701
58.9887
59.1049
59.2304
59.3499
59.4835
59.6037
59.7469
59.8645
60.0184
60.1327
60.2916
60.415
60.5696
52.9315
55.1642
53.2042
51.9869
51.3897
51.1883
51.2128
51.3257
51.487
51.6576
51.8419
52.0159
52.1957
52.3589
52.5281
52.6794
52.84
52.9833
53.1376
53.274
53.4219
53.5542
53.6991
53.8324
53.9772
54.114
54.2597
54.3992
54.5483
54.685
54.8461
54.9619
55.1604
55.2056
55.4717
13.0788
12.358
12.7412
12.8832
12.967
13.0168
13.0623
13.0938
13.1306
13.1574
13.1966
13.2235
13.265
13.2934
13.3389
13.3703
13.4208
13.4559
13.5117
13.5505
13.6117
13.6539
13.7208
13.7654
13.8388
13.8836
13.9653
14.0063
14.0994
14.1305
14.2407
14.2516
14.387
14.3611
14.5244
52.7832
51.7579
51.3203
51.2782
51.3467
51.3941
51.408
51.4019
51.3893
51.3747
51.3626
51.3512
51.3437
51.3361
51.3327
51.3281
51.328
51.3254
51.3282
51.3269
51.3321
51.3317
51.3392
51.3397
51.3492
51.3507
51.3622
51.3649
51.3786
51.3827
51.3992
51.4052
51.4262
51.4319
51.4668
52.5868
51.5748
51.1396
51.0912
51.1538
51.196
51.2073
51.1983
51.185
51.1689
51.1573
51.1453
51.1391
51.1314
51.13
51.1256
51.1278
51.1258
51.131
51.1307
51.1386
51.1394
51.15
51.1513
51.1654
51.1661
51.185
51.1838
51.2092
51.2047
51.238
51.2296
51.2706
51.2577
51.3099
52.3671
51.3604
50.9262
50.874
50.9323
50.9704
50.979
50.9678
50.9534
50.9365
50.925
50.9131
50.9077
50.901
50.9007
50.8977
50.9015
50.901
50.9085
50.9093
50.9204
50.9221
50.9366
50.9388
50.9569
50.9593
50.9815
50.9835
51.0109
51.0119
51.0451
51.0461
51.083
51.0872
51.1281
52.1144
51.1047
50.674
50.6226
50.6789
50.714
50.7196
50.7064
50.6907
50.6734
50.6623
50.651
50.6472
50.6412
50.6436
50.6412
50.6487
50.6483
50.6603
50.6613
50.6772
50.6793
50.6985
50.7019
50.7244
50.7286
50.7549
50.7594
50.7904
50.7947
50.8304
50.8354
50.8737
50.8811
50.9233
51.844
50.8526
50.4247
50.3646
50.4106
50.4379
50.4382
50.4215
50.4039
50.3855
50.3742
50.3629
50.3598
50.3547
50.3579
50.3573
50.3652
50.3678
50.3796
50.3845
50.3998
50.4063
50.4255
50.4326
50.4565
50.4631
50.4929
50.4979
50.5348
50.5373
50.5818
50.5825
50.6323
50.6339
50.689
51.5236
50.5345
50.1128
50.0522
50.0935
50.1153
50.1109
50.0912
50.0719
50.0531
50.042
50.0317
50.0297
50.0264
50.0314
50.0325
50.0429
50.0471
50.062
50.0681
50.0873
50.0946
50.1182
50.126
50.1545
50.1623
50.1962
50.2032
50.2433
50.249
50.2952
50.3007
50.3504
50.3573
50.4119
51.1696
50.1936
49.7765
49.7091
49.7402
49.753
49.7423
49.7188
49.6974
49.6779
49.6669
49.6576
49.6567
49.6549
49.6613
49.6644
49.6765
49.6827
49.6995
49.7077
49.729
49.7386
49.7643
49.7748
49.8053
49.8159
49.8519
49.862
49.9042
49.9129
49.9618
49.9693
50.0229
50.0304
50.0906
50.7657
49.8042
49.3929
49.318
49.3373
49.3398
49.3217
49.294
49.2704
49.2504
49.2398
49.2316
49.2321
49.232
49.2404
49.2455
49.2596
49.268
49.287
49.2975
49.321
49.3331
49.3612
49.3741
49.4074
49.4202
49.4596
49.4712
49.5176
49.5271
49.5807
49.5885
49.647
49.6544
49.7189
50.3251
49.3784
48.9731
48.8904
48.8966
48.8874
48.8612
48.829
48.8034
48.7832
48.7734
48.7668
48.7691
48.7712
48.7817
48.7889
48.8053
48.8159
48.8373
48.85
48.8761
48.8902
48.9212
48.936
48.9724
48.9871
49.0297
49.0432
49.0929
49.1044
49.1611
49.171
49.2322
49.2417
49.309
49.8716
48.9497
48.5449
48.4466
48.4346
48.4115
48.3768
48.3406
48.3134
48.2935
48.2847
48.2798
48.284
48.2881
48.3007
48.3101
48.3286
48.3414
48.3649
48.3798
48.4081
48.4244
48.4578
48.4747
48.5138
48.5304
48.5759
48.5913
48.644
48.6572
48.7172
48.7285
48.7929
48.8036
48.8739
49.3498
48.4479
48.0479
47.9395
47.9116
47.8746
47.8309
47.7902
47.7616
47.7422
47.7349
47.7323
47.7388
47.7456
47.7607
47.7728
47.7938
47.8091
47.8351
47.8525
47.8834
47.9021
47.9382
47.9574
47.9994
48.0182
48.0668
48.0842
48.1401
48.1552
48.2184
48.2316
48.2989
48.3115
48.3844
48.7893
47.9266
47.5169
47.3802
47.3246
47.2688
47.2153
47.171
47.1419
47.1242
47.1193
47.1196
47.1289
47.1387
47.1564
47.1714
47.195
47.2129
47.2415
47.2614
47.295
47.3161
47.3549
47.3765
47.4213
47.4425
47.4941
47.5136
47.5728
47.5899
47.6564
47.6715
47.7418
47.7564
47.8318
48.1201
47.293
46.8805
46.7253
46.6467
46.5732
46.5096
46.4614
46.4319
46.4162
46.4139
46.4177
46.4303
46.4437
46.4647
46.4831
46.5098
46.531
46.5625
46.5855
46.622
46.646
46.6879
46.7122
46.7603
46.7839
46.839
46.8609
46.9237
46.9428
47.0131
47.0303
47.1039
47.1208
47.1988
47.384
46.6132
46.1743
45.9756
45.8588
45.7621
45.6882
45.638
45.6101
45.5985
45.6003
45.609
45.6257
45.6435
45.6681
45.6904
45.7203
45.7449
45.7795
45.8056
45.8451
45.872
45.917
45.944
45.9954
46.0215
46.0802
46.1043
46.1711
46.1921
46.2665
46.2857
46.3629
46.3823
46.4629
46.4841
45.7767
45.3134
45.0764
44.9236
44.8041
44.72
44.6679
44.642
44.6348
44.6411
44.6549
44.6758
44.6983
44.7265
44.7529
44.7859
44.8143
44.8518
44.8814
44.9239
44.954
45.0022
45.0321
45.0871
45.1159
45.1787
45.205
45.2764
45.2994
45.3787
45.3998
45.4818
45.5038
45.5886
45.4148
44.7866
44.275
43.9805
43.7816
43.6367
43.5436
43.4914
43.4691
43.4673
43.4787
43.4978
43.5228
43.55
43.5813
43.6118
43.6474
43.6796
43.7195
43.7528
43.7978
43.8316
43.8827
43.9163
43.9746
44.0068
44.0736
44.103
44.1792
44.2048
44.2897
44.313
44.4009
44.425
44.5152
44.1001
43.5679
42.9759
42.5983
42.3372
42.1594
42.0547
42.0009
41.9817
41.984
41.9998
42.0233
42.052
42.0833
42.1176
42.1524
42.1908
42.2277
42.2702
42.3086
42.3563
42.3956
42.4497
42.489
42.551
42.5889
42.6601
42.695
42.7768
42.8071
42.899
42.9262
43.0228
43.0506
43.152
42.3715
41.8215
41.1163
40.6655
40.3556
40.1518
40.0391
39.9835
39.9685
39.9749
39.9975
40.026
40.0615
40.098
40.1388
40.1794
40.224
40.2678
40.3166
40.3633
40.4172
40.4662
40.5265
40.5766
40.6448
40.6942
40.772
40.8182
40.9073
40.9482
41.0488
41.0844
41.1924
41.2253
41.3405
39.7933
39.442
38.4703
37.8254
37.4174
37.1809
37.0766
37.0385
37.051
37.0791
37.1297
37.1786
37.2415
37.2976
37.3652
37.4249
37.495
37.5575
37.6293
37.6943
37.768
37.8354
37.9116
37.9807
38.0607
38.1301
38.2158
38.2831
38.377
38.439
38.5436
38.5985
38.7135
38.763
38.8938
35.627
38.2627
37.0517
35.8411
35.0303
34.5623
34.3387
34.2392
34.229
34.2504
34.3132
34.3751
34.4635
34.5376
34.6339
34.7097
34.8069
34.8808
34.9759
35.047
35.1379
35.2071
35.294
35.3639
35.448
35.5203
35.6027
35.677
35.7608
35.832
35.9262
35.9801
36.1044
36.1157
36.287
14.3882
13.784
14.2555
14.4353
14.5281
14.5734
14.6112
14.6326
14.663
14.6811
14.7143
14.7342
14.7719
14.7948
14.8382
14.8653
14.9149
14.9465
15.0022
15.038
15.0998
15.1394
15.2073
15.2495
15.3243
15.3667
15.45
15.4889
15.5837
15.6128
15.7243
15.7346
15.8695
15.8469
16.0058
37.6296
37.2291
36.9732
36.8768
36.8772
36.8994
36.9145
36.917
36.9127
36.9038
36.8954
36.8855
36.8788
36.8705
36.8665
36.8599
36.8586
36.8534
36.8543
36.8499
36.8528
36.8488
36.8535
36.8497
36.8557
36.8521
36.8595
36.8558
36.8646
36.8606
36.8716
36.8664
36.882