/*--------------------------------*- C++ -*----------------------------------*\
  =========                 |
  \\      /  F ield         | OpenFOAM: The Open Source CFD Toolbox
   \\    /   O peration     | Website:  https://openfoam.org
    \\  /    A nd           | Version:  6
     \\/     M anipulation  |
\*---------------------------------------------------------------------------*/
FoamFile
{
    version     2.0;
    format      ascii;
    class       volScalarField;
    location    "7";
    object      yPlus;
}
// * * * * * * * * * * * * * * * * * * * * * * * * * * * * * * * * * * * * * //

dimensions      [0 0 0 0 0 0 0];

internalField   uniform 0;

boundaryField
{
    inlet
    {
        type            calculated;
        value           uniform 0;
    }
    outlet
    {
        type            calculated;
        value           uniform 0;
    }
    roughCylinder
    {
        type            calculated;
        value           nonuniform List<scalar> 
5120
(
42.9212
50.7007
56.8866
62.9048
68.0474
72.1881
75.4905
78.15
80.3224
82.1453
83.7391
85.1666
86.4668
87.6711
88.8092
89.9105
91.0052
92.1197
93.2767
94.4916
95.7726
97.1212
98.5342
100.004
101.521
103.073
104.643
106.209
107.732
109.144
110.301
110.983
42.2495
49.7458
55.7358
61.6178
66.6891
70.7948
74.0786
76.73
78.903
80.7333
82.3338
83.7629
85.0526
86.2408
87.3595
88.4393
89.5102
90.6002
91.7312
92.9187
94.1709
95.4897
96.8712
98.3082
99.791
101.307
102.84
104.369
105.855
107.233
108.362
109.025
41.4921
48.7456
54.5549
60.3051
65.3085
69.385
72.6574
75.3086
77.4909
79.3361
80.948
82.3799
83.6624
84.8393
85.9414
87.0008
88.0496
89.115
90.2204
91.3813
92.6056
93.8946
95.245
96.6494
98.0978
99.5787
101.076
102.567
104.017
105.361
106.461
107.108
40.7312
47.7492
53.3739
58.9842
63.9149
67.9623
71.2277
73.8875
76.0909
77.9605
79.5888
81.0269
82.3081
83.4734
84.56
85.6015
86.6293
87.673
88.7547
89.8898
91.0867
92.3473
93.6674
95.0398
96.4547
97.9
99.3608
100.816
102.23
103.54
104.612
105.241
39.9012
46.7024
52.1459
57.6186
62.4842
66.5161
69.79
72.4709
74.7024
76.5994
78.2471
79.6952
80.9802
82.1398
83.2163
84.2419
85.2517
86.2738
87.3324
88.4436
89.6149
90.8476
92.1384
93.4798
94.8623
96.2735
97.6992
99.1187
100.497
101.774
102.818
103.431
39.093
45.6723
50.9238
56.2472
61.0413
65.0571
68.342
71.0494
73.3173
75.2504
76.9239
78.3875
79.6802
80.8397
81.9068
82.9203
83.9136
84.9183
85.957
87.0453
88.1918
89.3984
90.6608
91.9719
93.3219
94.6993
96.09
97.4742
98.8179
100.063
101.08
101.676
38.2015
44.5721
49.6299
54.803
59.5339
63.5527
66.8722
69.6246
71.9366
73.9063
75.6078
77.091
78.397
79.5642
80.6307
81.6357
82.6172
83.6046
84.6237
85.6913
86.8153
87.9964
89.2315
90.5134
91.8325
93.1774
94.5348
95.8849
97.1944
98.4076
99.3977
99.9779
37.3451
43.4965
48.3464
53.3531
58.0099
62.0274
65.3792
68.1762
70.5392
72.5583
74.298
75.8095
77.1353
78.3139
79.3839
80.3857
81.3573
82.3334
83.3377
84.3862
85.4879
86.6456
87.8546
89.1078
90.3961
91.7084
93.0315
94.3469
95.6231
96.8049
97.7694
98.3325
36.3669
42.3095
46.944
51.7761
56.3634
60.4026
63.8228
66.6985
69.1293
71.1995
72.9809
74.5255
75.8773
77.0759
78.1589
79.1651
80.1345
81.1001
82.0895
83.1215
84.2046
85.339
86.5224
87.7481
89.0065
90.2871
91.5776
92.8602
94.1038
95.2553
96.1938
96.7423
35.4314
41.1505
45.5545
50.1903
54.6889
58.7381
62.2164
65.1612
67.6654
69.8097
71.6501
73.241
74.6291
75.8531
76.9519
77.9675
78.939
79.902
80.8839
81.9018
82.9656
84.0794
85.2389
86.4366
87.6648
88.9128
90.1692
91.4172
92.6279
93.7483
94.6617
95.1926
34.2855
39.7947
43.9573
48.3787
52.7836
56.8679
60.4611
63.5429
66.1618
68.384
70.2892
71.934
73.3653
74.6253
75.7526
76.7854
77.7661
78.7285
79.7027
80.7098
81.7596
82.8524
83.9869
85.1577
86.3558
87.5719
88.7956
90.0103
91.1878
92.2789
93.1666
93.6837
33.1791
38.4768
42.3848
46.564
50.8413
54.932
58.6111
61.7977
64.5294
66.8772
68.8811
70.6012
72.0925
73.3973
74.5555
75.6125
76.607
77.577
78.5527
79.5518
80.5857
81.6608
82.7734
83.9166
85.0841
86.2666
87.4552
88.6346
89.7788
90.8394
91.7021
92.2
31.7078
36.8062
40.4319
44.3286
48.4532
52.5751
56.4363
59.8724
62.8201
65.2949
67.4037
69.213
70.7753
72.1388
73.3476
74.4383
75.4558
76.4357
77.4109
78.4055
79.4308
80.4875
81.5759
82.6926
83.83
84.98
86.1349
87.2806
88.3917
89.4233
90.2603
90.7466
30.3106
35.2226
38.5695
42.1534
46.0645
50.1448
54.1005
57.6757
60.7986
63.517
65.8124
67.754
69.4168
70.8562
72.1163
73.2507
74.2987
75.3004
76.2887
77.2827
78.2957
79.3379
80.4069
81.496
82.6016
83.7162
84.8343
85.9427
87.0193
88.0195
88.8315
89.2958
28.1933
32.9251
35.9303
39.1066
42.7286
46.7876
51.0256
55.0991
58.6808
61.6115
64.0833
66.1803
67.9656
69.501
70.8475
72.0402
73.1292
74.1543
75.1512
76.1486
77.1603
78.1867
79.2313
80.2937
81.3681
82.4483
83.5311
84.6047
85.6479
86.619
87.4039
87.8596
26.2119
30.8454
33.5979
36.3991
39.6629
43.5313
47.7714
51.8984
55.7015
59.1949
62.0782
64.4421
66.4124
68.084
69.5131
70.7776
71.9218
72.989
74.0161
75.0227
76.0259
77.042
78.0698
79.1032
80.1431
81.1843
82.2267
83.2592
84.2643
85.2014
85.9618
86.3913
22.529
27.1035
29.4455
31.5743
34.1487
37.7359
42.4188
47.8437
52.8341
56.6114
59.8065
62.4676
64.6736
66.5132
68.0971
69.4632
70.6753
71.784
72.83
73.8505
74.8621
75.8647
76.8664
77.8716
78.8776
79.8807
80.8845
81.8796
82.8505
83.7583
84.488
84.9122
18.9363
23.8341
26.1641
28.1079
30.4465
33.7973
38.2296
42.3466
47.0853
52.6055
56.8299
60.1063
62.6964
64.8117
66.5396
68.0253
69.3341
70.5174
71.6208
72.6643
73.6713
74.6683
75.6562
76.6288
77.5949
78.5521
79.5088
80.456
81.3818
82.2506
82.9564
83.348
8.67375
15.5778
17.8616
18.455
17.4701
17.4231
20.5477
33.5371
43.0579
48.127
53.1947
57.1923
60.3283
62.7785
64.8135
66.4909
67.9154
69.1684
70.3029
71.3746
72.4043
73.3894
74.3461
75.287
76.2135
77.1252
78.0372
78.9426
79.8336
80.6716
81.3413
81.7313
8.14133
4.9298
8.76933
10.2766
11.7756
12.3009
9.53032
17.7238
27.4928
41.1458
47.8686
53.3467
57.363
60.4568
62.7849
64.6847
66.2888
67.6768
68.9198
70.0368
71.0648
72.0507
72.9974
73.897
74.773
75.6265
76.4785
77.3229
78.1542
78.945
79.5907
79.9399
6.66542
11.3637
11.5689
11.4325
10.4069
10.536
16.1778
10.0044
22.2221
22.2147
40.1564
47.922
53.5219
57.3854
60.3937
62.6968
64.5213
66.0341
67.3231
68.4917
69.5669
70.5401
71.4437
72.3035
73.1286
73.9211
74.7182
75.5134
76.3116
77.067
77.6696
78.0181
17.7487
21.9459
23.3014
23.2028
21.8217
19.4447
15.8867
9.73396
16.7859
25.7702
22.4207
39.4536
47.7283
53.525
57.3078
60.0974
62.2913
64.0715
65.5817
66.8376
67.9125
68.8971
69.7973
70.5967
71.3483
72.0587
72.7682
73.4762
74.1805
74.8778
75.4511
75.7544
21.3949
26.2104
28.6772
30.2602
30.7976
30.0957
28.0098
24.2404
20.3721
20.4568
16.4851
23.8016
40.0319
47.8436
53.3189
57.1097
59.8052
61.8364
63.408
64.7629
65.9345
66.9005
67.7274
68.4675
69.1448
69.7593
70.3954
71.045
71.73
72.3709
72.906
73.1839
22.5099
27.5121
30.3384
32.5441
34.0963
34.9613
35.0307
33.9769
30.8692
24.6955
25.7907
28.0021
27.1527
40.607
47.861
52.7133
56.2161
58.8431
60.9284
62.4621
63.6271
64.6245
65.4656
66.0979
66.6477
67.1244
67.6084
68.1026
68.6034
69.1904
69.6544
69.9284
22.3931
27.5084
30.509
32.973
34.8741
36.2186
37.025
37.2799
36.7851
34.807
29.1575
30.0583
15.1608
17.7077
38.7862
47.2289
52.1884
55.3826
57.4941
59.2351
60.6148
61.572
62.2468
62.7697
63.1839
63.4851
63.8511
64.3324
64.8532
65.2731
65.8221
65.8835
21.09
26.3507
29.4735
32.1165
34.2592
35.9145
37.1152
37.8999
38.2732
38.0618
36.4665
31.4277
26.6282
17.4934
23.5644
38.1694
45.2349
49.9412
53.4773
55.5918
56.9179
57.95
58.702
58.9664
59.1236
59.1137
59.1705
59.1523
59.3012
59.8296
60.005
60.4307
19.1808
24.5565
27.7307
30.4535
32.7194
34.5498
35.9888
37.1015
37.9523
38.5283
38.5323
36.9734
31.5728
32.453
24.7385
27.68
37.3348
43.8685
46.9125
49.6536
51.4786
52.4042
52.5771
52.5884
52.409
51.9783
51.7308
52.8529
52.5084
52.2249
53.5459
52.4952
16.9389
22.3373
25.4727
28.1797
30.4771
32.4028
34.0038
35.3476
36.5139
37.5527
38.381
38.5655
36.9948
32.5326
31.0907
32.3808
28.2225
31.9288
40.4186
43.1947
45.0311
46.4394
46.6024
45.986
44.847
43.9521
42.8898
39.5403
40.668
41.3719
41.237
42.0437
14.6979
19.9687
22.9513
25.5317
27.7583
29.6888
31.3795
32.8931
34.3073
35.681
36.9975
38.0784
38.3893
36.4648
32.5302
31.864
23.6554
21.3584
20.0965
32.4153
31.3202
31.3993
31.1838
26.9155
29.6871
18.9859
14.5044
30.1804
17.425
31.6617
24.7736
34.3241
12.7158
17.7395
20.493
22.8713
24.9519
26.8084
28.504
30.0981
31.6561
33.2454
34.8827
36.4903
37.8008
38.1516
36.2279
28.9384
29.2199
33.6163
23.6192
36.0164
30.5822
32.313
19.6194
24.83
38.0993
19.8416
3.76045
34.2743
22.9339
44.1675
32.9334
44.2192
11.1906
15.8942
18.3965
20.5442
22.4409
24.1708
25.8012
27.3866
28.9776
30.6346
32.4027
34.2865
36.1594
37.6516
38.0469
36.1036
29.8678
28.4135
20.8604
29.1032
23.3758
36.7302
21.5379
26.2109
33.6484
31.0184
30.9693
35.802
33.9696
40.4514
37.5526
41.7618
9.9966
14.4759
16.7568
18.6965
20.4188
22.0135
23.5459
25.0635
26.6052
28.2177
29.955
31.8757
33.9733
36.0495
37.6329
38.0195
35.4143
31.3822
25.4497
19.1031
28.3745
31.9722
25.2349
29.63
33.0617
36.5668
38.4697
37.2996
39.5207
40.2816
36.6647
39.5545
9.22959
13.506
15.6085
17.3861
18.972
20.452
21.8837
23.3051
24.7465
26.2437
27.8509
29.6446
31.688
33.9377
36.1066
37.6668
37.7433
36.6888
34.3887
31.7772
31.874
31.6773
36.1534
39.7077
41.2839
42.958
43.8495
43.3645
44.2634
45.1351
42.0104
44.6075
8.77918
12.9251
14.9139
16.5914
18.0927
19.4952
20.8452
22.171
23.4961
24.8507
26.2839
27.8688
29.693
31.8112
34.1287
36.2841
37.6441
38.1767
37.9705
37.4922
37.5563
38.1233
40.2302
42.0494
42.9308
44.0041
44.5172
44.6305
44.9243
45.6671
43.9341
45.4206
8.60817
12.6835
14.614
16.2453
17.7091
19.0718
20.3678
21.6177
22.8404
24.0628
25.3253
26.6876
28.2315
30.0478
32.1728
34.4648
36.491
37.9182
38.7121
38.9885
39.2703
39.9036
41.108
42.3007
42.8409
43.7481
44.1023
44.4493
44.5788
45.1044
44.3998
45.1699
8.64891
12.7067
14.6265
16.2573
17.7226
19.0777
20.3478
21.5491
22.6987
23.8197
24.9439
26.1162
27.4007
28.8826
30.6458
32.6993
34.8516
36.767
38.1922
38.9918
39.5726
40.1288
40.8708
41.5533
41.8535
42.5712
42.8589
43.3003
43.4468
43.8472
43.7522
44.2571
8.86702
12.9451
14.8868
16.5485
18.0426
19.4143
20.6834
21.8633
22.9699
24.024
25.0511
26.084
27.1684
28.3693
29.7673
31.4277
33.3192
35.2523
36.9435
38.1064
38.9124
39.4332
39.9017
40.2686
40.4388
41.0319
41.3409
41.8598
42.1182
42.4932
42.7246
43.1642
9.22585
13.3515
15.3367
17.0505
18.5925
19.9996
21.2871
22.4673
23.5565
24.5749
25.5445
26.4893
27.4398
28.4402
29.5513
30.8409
32.3418
33.9893
35.5922
36.8598
37.7763
38.312
38.6754
38.9246
39.0976
39.6541
40.0592
40.6751
41.0894
41.5229
41.9265
42.3563
9.69543
13.8906
15.9352
17.7157
19.3185
20.773
22.0915
23.2871
24.3781
25.3857
26.3307
27.2309
28.1057
28.9823
29.901
30.914
32.0661
33.3539
34.6821
35.8441
36.7458
37.3042
37.6693
37.9441
38.2126
38.8074
39.3482
40.0749
40.6515
41.1887
41.6908
42.1199
10.2383
14.5323
16.6531
18.5121
20.1835
21.6914
23.0475
24.2675
25.3732
26.3881
27.3323
28.2202
29.0634
29.8772
30.6857
31.5229
32.4268
33.4153
34.4522
35.4179
36.2242
36.7831
37.1902
37.551
37.9511
38.6256
39.3103
40.1495
40.8763
41.5321
42.1037
42.5359
10.7001
10.8854
11.2037
11.4665
11.7419
12.0485
12.3372
12.5921
12.8247
13.0192
13.1837
13.3114
13.4062
13.4656
13.4899
13.4808
13.4386
13.3645
13.2647
13.1585
13.1228
13.1971
13.2806
13.3438
13.3778
13.3803
13.351
13.2886
13.1921
13.064
12.9012
12.71
12.4816
12.236
11.9524
11.6582
11.3917
11.1367
10.825
10.6459
15.0899
15.2773
15.6103
15.8979
16.2366
16.5509
16.861
17.1383
17.3946
17.6154
17.8073
17.9639
18.0877
18.1758
18.2264
18.2392
18.2132
18.148
18.0483
17.9347
17.8957
17.9745
18.0572
18.1112
18.1289
18.1094
18.054
17.9629
17.8373
17.6805
17.4904
17.2732
17.0216
16.7528
16.4497
16.1462
15.8178
15.5394
15.2136
15.0327
17.2741
17.4815
17.8447
18.1598
18.528
18.8657
19.2046
19.5122
19.8019
20.0593
20.2905
20.4891
20.6564
20.789
20.8831
20.9362
20.9461
20.9107
20.8335
20.7339
20.6969
20.7615
20.8213
20.8451
20.8266
20.7665
20.6672
20.5311
20.3613
20.1619
19.9319
19.6773
19.3921
19.0917
18.7606
18.4328
18.075
17.7701
17.4153
17.2158
19.1903
19.4203
19.8114
20.1501
20.5429
20.9037
21.2691
21.6059
21.9277
22.2212
22.4914
22.7319
22.9424
23.1193
23.2577
23.3526
23.4004
23.398
23.3482
23.2704
23.2386
23.2812
23.3128
23.3032
23.2464
23.1443
23.0003
22.8191
22.6053
22.3634
22.0933
21.8017
21.4835
21.1527
20.7946
20.443
20.0602
19.7321
19.3504
19.1299
20.9078
21.1521
21.5594
21.9111
22.3175
22.6924
23.0744
23.4309
23.7755
24.0959
24.3959
24.6703
24.9171
25.1311
25.3069
25.4377
25.5185
25.5455
25.5213
25.4652
25.4385
25.4601
25.4654
25.4261
25.3361
25.1979
25.0163
24.7974
24.5469
24.2701
23.969
23.6494
23.3074
22.9556
22.58
22.2134
21.8165
21.4755
21.0781
20.8444
22.4479
22.6936
23.1049
23.4589
23.8687
24.2492
24.6394
25.008
25.3686
25.7102
26.0358
26.3392
26.6173
26.8636
27.0716
27.2335
27.3429
27.3955
27.3934
27.355
27.332
27.3373
27.3205
27.2558
27.1373
26.9682
26.7543
26.503
26.2209
25.9145
25.587
25.2447
24.8854
24.52
24.1352
23.762
23.361
23.0173
22.6163
22.3818
23.8231
24.0591
24.466
24.816
25.2239
25.6062
26.0015
26.3808
26.7571
27.1192
27.4688
27.799
28.1053
28.3807
28.6172
28.8064
28.9406
29.0146
29.0304
29.005
28.9842
28.9786
28.9446
28.8587
28.716
28.5201
28.2779
27.9979
27.6874
27.3539
27.002
26.6383
26.2621
25.8842
25.493
25.1167
24.717
24.3767
23.9801
23.7554
25.0524
25.2721
25.6715
26.0159
26.4215
26.8067
27.209
27.6014
27.9942
28.3768
28.749
29.1038
29.4359
29.7368
29.9983
30.2105
30.3654
30.4567
30.486
30.4694
30.4502
30.4374
30.391
30.2887
30.126
29.9078
29.6414
29.3359
29.0002
28.6421
28.2672
27.8827
27.4891
27.0972
26.6972
26.3167
25.9184
25.5829
25.1935
24.9849
26.1615
26.3622
26.7545
27.0949
27.5006
27.8917
28.3038
28.7101
29.1194
29.521
29.9138
30.2904
30.6444
30.9672
31.2493
31.4805
31.6515
31.7561
31.7949
31.7834
31.7652
31.7487
31.6941
31.5798
31.4021
31.1657
30.8795
30.5529
30.1954
29.8158
29.4203
29.0166
28.6061
28.1995
27.789
27.4009
27.0013
26.6688
26.286
26.0957
27.1757
27.3567
27.7435
28.0822
28.4902
28.8893
29.3114
29.7312
30.1555
30.5739
30.9845
31.3792
31.7515
32.0918
32.3901
32.6357
32.8187
32.9326
32.9772
32.9681
32.9502
32.9329
32.8741
32.7521
32.5634
32.3137
32.012
31.6687
31.2937
30.896
30.4831
30.0624
29.6367
29.2162
28.7949
28.3981
27.9946
27.6627
27.2849
27.1133
28.1143
28.2746
28.6565
28.9948
29.4066
29.8135
30.2452
30.6771
31.1143
31.547
31.9721
32.3815
32.7679
33.1214
33.4316
33.6875
33.8788
33.9982
34.0456
34.0367
34.019
34.0029
33.9431
33.8171
33.6217
33.363
33.0504
32.6945
32.3059
31.8942
31.4669
31.032
30.5931
30.1603
29.7289
29.3237
28.9157
28.5834
28.2099
28.0576
28.9898
29.1266
29.5029
29.8409
30.2563
30.6706
31.1112
31.5537
32.002
32.4464
32.883
33.3037
33.7007
34.0635
34.3819
34.6443
34.8404
34.9626
35.0108
35.0007
34.9832
34.9697
34.9111
34.784
34.5854
34.3214
34.0017
33.6374
33.239
32.8164
32.3779
31.9314
31.4814
31.0376
30.5971
30.184
29.7718
29.4392
29.0705
28.94
29.8099
29.9173
30.2858
30.6231
31.0417
31.4633
31.9119
32.364
32.8221
33.2763
33.7221
34.1513
34.5555
34.9246
35.2478
35.5136
35.7119
35.8352
35.883
35.8717
35.8545
35.8438
35.7875
35.6613
35.4621
35.1959
34.8727
34.5032
34.0981
33.6677
33.2203
32.7643
32.3046
31.8511
31.4021
30.9814
30.5655
30.2329
29.871
29.7675
30.5827
30.6502
31.0063
31.3422
31.7639
32.1925
32.6494
33.1106
33.5777
34.0403
34.4935
34.929
35.3382
35.711
36.0365
36.3037
36.5024
36.6256
36.6732
36.6616
36.6451
36.6365
36.5823
36.458
36.26
35.994
35.6696
35.2975
34.8884
34.4522
33.9978
33.5336
33.0651
32.6024
32.1451
31.7168
31.2973
30.9656
30.6144
30.5478
31.3207
31.3299
31.6649
31.997
32.4228
32.8591
33.3249
33.7955
34.2713
34.7417
35.2014
35.6418
36.0544
36.429
36.7552
37.0221
37.2203
37.3431
37.391
37.3809
37.3655
37.3575
37.3049
37.1827
36.9869
36.7227
36.399
36.0261
35.6145
35.174
34.7136
34.242
33.7649
33.2928
32.8267
32.3906
31.9679
31.6386
31.3062
31.2929
32.0457
31.9686
32.2669
32.59
33.0191
33.4639
33.9394
34.4203
34.9052
35.3836
35.8495
36.2943
36.7093
37.0847
37.4104
37.6762
37.8733
37.9957
38.0447
38.0375
38.0238
38.0151
37.963
37.8429
37.65
37.3884
37.0665
36.6939
36.2807
35.8367
35.3707
34.8914
34.4052
33.923
33.4472
33.0027
32.5763
32.2546
31.9556
32.0218
32.7826
32.5808
32.8178
33.1219
33.551
34.0069
34.4933
34.9862
35.4813
35.9684
36.4407
36.8897
37.307
37.6829
38.0078
38.2722
38.468
38.5902
38.641
38.6373
38.6254
38.6154
38.5633
38.4451
38.255
37.9964
37.6766
37.3047
36.8903
36.4427
35.9708
35.4833
34.9871
34.4936
34.0071
33.5531
33.1262
32.8211
32.5779
32.7599
33.55
33.1834
33.3301
33.6008
34.0237
34.4902
34.9886
35.4948
36.0015
36.4984
36.978
37.4319
37.8516
38.2281
38.5524
38.8154
39.0101
39.1323
39.185
39.1851
39.1749
39.1633
39.111
38.9945
38.8071
38.5514
38.2337
37.8623
37.4463
36.9947
36.5161
36.0192
35.512
35.0055
34.5076
34.0437
33.6225
33.3482
33.1897
33.5271
34.333
33.7791
33.8116
34.034
34.4419
34.9161
35.4296
35.9504
36.4703
36.978
37.4659
37.9254
38.3483
38.726
39.0498
39.3119
39.5057
39.6279
39.6823
39.6856
39.677
39.6643
39.6119
39.4969
39.3121
39.0588
38.7428
38.3713
37.9531
37.4967
37.0105
36.5034
35.9838
35.4639
34.9537
34.4826
34.0754
33.8471
33.7983
34.3167
35.0754
34.3503
34.2675
34.4357
34.8236
35.3023
35.8295
36.3649
36.8984
37.4174
37.9139
38.3794
38.8058
39.185
39.5089
39.7701
39.963
40.0852
40.1406
40.1464
40.1388
40.1256
40.0736
39.9604
39.778
39.5269
39.2121
38.8403
38.4196
37.9579
37.4638
36.9461
36.4139
35.8804
35.358
34.8837
34.4971
34.3227
34.3875
35.0743
35.6982
34.8624
34.6952
34.8191
35.189
35.67
36.2092
36.7596
37.3057
37.8352
38.3396
38.8105
39.2399
39.6201
39.9437
40.2038
40.3956
40.517
40.5726
40.5795
40.5725
40.5596
40.5091
40.3982
40.2183
39.9697
39.6564
39.2846
38.8617
38.3956
37.8946
37.3677
36.8247
36.2797
35.7478
35.2736
34.908
34.7824
34.9383
35.7484
36.1858
35.3119
35.1105
35.2139
35.5754
36.0591
36.6073
37.1692
37.7247
38.2616
38.771
39.2448
39.6752
40.055
40.3769
40.6348
40.8242
40.9436
40.9979
41.0044
40.9975
40.986
40.9384
40.8309
40.6549
40.4097
40.0992
39.7292
39.3063
38.8382
38.3332
37.8005
37.2499
36.6967
36.1582
35.6835
35.3293
35.228
35.4234
36.2789
36.6124
35.7535
35.5621
35.6685
36.0317
36.5186
37.0715
37.6388
38.1976
38.7364
39.2459
39.7183
40.1461
40.5221
40.8398
41.0933
41.2783
41.3938
41.4448
41.4489
41.4415
41.4329
41.39
41.2881
41.1178
40.8784
40.5734
40.208
39.7888
39.3231
38.819
38.2853
37.7326
37.1755
36.6336
36.1571
35.8024
35.6996
35.8865
36.726
37.0575
36.2573
36.1077
36.234
36.6059
37.0951
37.6471
38.2122
38.7673
39.3012
39.8048
40.2703
40.6907
41.059
41.3689
41.6149
41.7931
41.9024
41.9478
41.9475
41.9389
41.935
41.8995
41.8053
41.6434
41.4129
41.1169
40.7605
40.3499
39.8922
39.395
38.8674
38.3194
37.7656
37.2252
36.7467
36.3826
36.2589
36.4015
37.1797
37.6219
36.8948
36.7962
36.9478
37.3293
37.8177
38.3636
38.9194
39.4646
39.9877
40.4799
40.9338
41.3424
41.699
41.9979
42.2338
42.4027
42.5038
42.5416
42.5351
42.5249
42.5274
42.501
42.4168
42.2656
42.0467
41.763
41.4193
41.0215
40.5763
40.0912
39.5745
39.0364
38.4906
37.9541
37.4725
37.093
36.9355
37.0159
37.7057
38.3577
37.7017
37.6497
37.8229
38.2103
38.6939
39.2289
39.7704
40.3013
40.8097
41.2871
41.7261
42.12
42.4626
42.7482
42.972
43.1302
43.2218
43.2512
43.2375
43.225
43.2349
43.2185
43.1453
43.0061
42.8004
42.5309
42.2022
41.8197
41.39
40.9198
40.4176
39.8929
39.3594
38.8321
38.3537
37.9675
37.789
37.8286
38.4625
39.2093
38.6231
38.6171
38.814
39.2095
39.6902
40.2153
40.7428
41.2593
41.7527
42.2152
42.639
43.0179
43.346
43.6181
43.8296
43.9769
44.0591
44.0804
44.06
44.0455
44.0622
44.0552
43.9922
43.8648
43.6721
43.4168
43.103
42.7357
42.3211
41.8655
41.3769
40.8641
40.3401
39.8193
39.3392
38.9392
38.7297
38.7147
39.2683
40.1171
39.5973
39.6362
39.8599
40.2677
40.7506
41.2705
41.7897
42.2962
42.7782
43.2283
43.6392
44.005
44.3203
44.58
44.7801
44.9175
44.9913
45.0057
44.98
44.9635
44.985
44.985
44.9307
44.8131
44.6317
44.3886
44.0878
43.7337
43.3319
42.8886
42.4112
41.9083
41.3924
40.8772
40.3965
39.9863
39.7542
39.7002
40.1982
41.0519
40.5954
40.6783
40.9255
41.3447
41.8293
42.3448
42.8574
43.3557
43.8286
44.2684
44.6685
45.0233
45.3275
45.5767
45.767
45.8958
45.9623
45.971
45.9416
45.9238
45.9476
45.9521
45.9036
45.7935
45.6205
45.3865
45.0951
44.7504
44.3574
43.922
43.451
42.9525
42.438
41.9208
41.4301
40.999
40.7313
40.6225
41.0441
41.6719
41.3212
41.4873
41.7998
42.264
42.7784
43.3119
43.8345
44.3368
44.8093
45.2459
45.6407
45.9887
46.2854
46.5267
46.7093
46.8308
46.891
46.8948
46.8624
46.8431
46.8671
46.8737
46.8288
46.7234
46.5558
46.3278
46.0424
45.7035
45.3157
44.8843
44.4158
43.9179
43.401
42.8775
42.3736
41.9192
41.6149
41.4528
41.8024
42.2936
41.9861
42.1943
42.5396
43.0279
43.5578
44.0999
44.6272
45.1311
45.603
46.0373
46.4285
46.7721
47.0638
47.2998
47.4771
47.5935
47.6493
47.6495
47.6149
47.5941
47.6173
47.624
47.58
47.476
47.3102
47.084
46.8001
46.4621
46.0746
45.6425
45.1717
44.6697
44.1467
43.6143
43.097
42.6243
42.2967
42.1063
42.4251
42.5362
42.3343
42.609
42.9962
43.5078
44.05
44.5973
45.1254
45.6274
46.0958
46.5254
46.9114
47.2495
47.5355
47.7661
47.9381
48.0497
48.101
48.0973
48.0595
48.0362
48.0573
48.0627
48.0181
47.9137
47.7478
47.5215
47.2375
46.8994
46.5115
46.0788
45.6072
45.1042
44.58
44.0469
43.5288
43.0547
42.7257
42.5355
42.8583
42.95
50.729
56.915
62.9333
68.0758
72.2164
75.519
78.1789
80.352
82.1756
83.7697
85.1972
86.4971
87.701
88.8386
89.9396
91.0338
92.1478
93.3041
94.5182
95.7979
97.145
98.5562
100.024
101.538
103.087
104.653
106.214
107.73
109.137
110.287
110.964
42.2737
49.7714
55.7632
61.6469
66.7195
70.8262
74.1107
76.7621
78.9345
80.7641
82.3641
83.7931
85.0829
86.2712
87.3899
88.4695
89.5398
90.6292
91.7593
92.9458
94.1968
95.5141
96.8938
98.3284
99.8081
101.321
102.85
104.374
105.853
107.225
108.346
109.005
41.5246
48.7773
54.5868
60.3368
65.3398
69.4156
72.6875
75.3387
77.5218
79.3682
80.981
82.4132
83.6953
84.8714
85.9729
87.0316
88.0797
89.1446
90.2492
91.4092
92.632
93.9195
95.2679
96.67
98.1156
99.5924
101.085
102.572
104.014
105.352
106.444
107.086
40.756
47.7761
53.403
59.0153
63.9478
67.9968
71.2635
73.9237
76.1265
77.9946
79.6216
81.0588
82.3397
83.5054
84.592
85.6334
86.6606
87.7036
88.7841
89.9181
91.1138
92.3728
93.6909
95.0607
96.4723
97.9141
99.37
100.82
102.226
103.53
104.593
105.217
39.9385
46.7388
52.1827
57.655
62.5197
66.5502
69.8225
72.5025
74.7343
76.633
78.2825
79.7314
81.0163
82.1748
83.25
84.2745
85.2836
86.3049
87.3628
88.4729
89.6427
90.8736
92.1622
93.501
94.8801
96.2875
97.7083
99.1228
100.492
101.764
102.798
103.406
39.1196
45.7013
50.9553
56.281
61.0772
65.095
68.382
71.0908
73.3584
75.2894
76.9601
78.4217
79.7132
80.8729
81.9404
82.954
83.9467
84.9505
85.988
87.0749
88.2201
89.4249
90.6852
91.9936
93.3401
94.714
96.099
97.4778
98.8126
100.051
101.057
101.648
38.245
44.615
49.6733
54.846
59.5755
63.5918
66.9083
69.6581
71.9694
73.941
75.6453
77.1303
78.4368
79.6029
80.6674
81.6706
82.6509
83.6373
84.6556
85.7221
86.8443
88.0234
89.2562
90.5353
91.8511
93.192
94.5433
95.888
97.1879
98.3947
99.3738
99.9486
37.3744
43.5288
48.3815
53.3907
58.0498
62.0698
65.4246
68.2242
70.5877
72.604
74.3391
75.8468
77.1702
78.3485
79.419
80.4211
81.3923
82.3675
83.3703
84.4171
85.5176
86.6733
87.88
89.1303
90.4147
91.7229
93.0399
94.3491
95.6153
96.7907
97.7414
98.2996
36.4198
42.362
46.9973
51.829
56.414
60.4493
63.8643
66.7348
69.163
71.2351
73.0207
74.5683
75.9217
77.1191
78.1994
79.203
80.1706
81.1347
82.1231
83.1541
84.2349
85.3672
86.5481
87.7706
89.0255
90.3019
91.586
92.8628
94.0947
95.2391
96.1647
96.7066
35.4635
41.1862
45.5938
50.2332
54.7352
58.7879
62.2702
65.2192
67.7248
69.8649
71.6979
73.2829
74.6664
75.8893
76.9886
78.0051
78.9761
79.9382
80.9184
81.9341
82.9967
84.1085
85.265
86.4599
87.6838
88.9274
90.1771
91.4181
92.6159
93.7305
94.6265
95.1521
34.3563
39.8651
44.0285
48.4486
52.8487
56.9254
60.5092
63.5817
66.1951
68.4198
70.332
71.9815
73.4158
74.6746
75.7981
76.827
77.8053
78.7655
79.7383
80.7445
81.7915
82.8817
84.0137
85.1808
86.375
87.5863
88.8027
90.0116
91.1749
92.2586
93.1306
93.6396
33.211
38.5124
42.4251
46.6107
50.8959
54.9952
58.6826
61.8756
64.6091
66.9482
68.9382
70.6488
72.1328
73.4354
74.5946
75.653
76.6469
77.6159
78.5897
79.5859
80.6185
81.6914
82.8005
83.9407
85.1035
86.2811
87.4618
88.6333
89.7617
90.8171
91.6565
92.1501
31.8157
36.9145
40.5426
44.4356
48.5475
52.649
56.4873
59.906
62.8444
65.3264
67.4502
69.2673
70.8343
72.1966
73.3998
74.4846
75.499
76.476
77.4493
78.4429
79.4645
80.518
81.6039
82.7165
83.8492
84.994
86.1409
87.2806
88.3742
89.3968
90.2152
90.6909
30.3334
35.246
38.595
42.189
46.1228
50.2346
54.2201
57.8076
60.929
63.6229
65.8855
67.8092
69.4605
70.8963
72.1586
73.2957
74.3425
75.3427
76.3289
77.3189
78.3308
79.3707
80.4352
81.521
82.6212
83.7306
84.8392
85.9383
86.9945
87.9912
88.7716
89.2325
28.38
33.1187
36.1396
39.3181
42.9061
46.8937
51.05
55.0855
58.6567
61.6167
64.1313
66.2461
68.0388
69.5723
70.9092
72.0923
73.1773
74.199
75.193
76.1894
77.1962
78.2187
79.2608
80.3185
81.3873
82.4619
83.5354
84.6028
85.6244
86.5838
87.3454
87.788
26.2274
30.8438
33.5663
36.3499
39.6641
43.6661
48.0628
52.2186
55.9955
59.4011
62.1884
64.5091
66.459
68.1243
69.5591
70.83
71.9721
73.0364
74.0605
75.0618
76.0641
77.0775
78.0994
79.1292
80.163
81.1986
82.2295
83.2508
84.2282
85.1659
85.8814
86.3088
22.8647
27.4448
29.8846
32.1506
34.7172
38.0147
42.2463
47.5812
52.5915
56.5025
59.8412
62.5525
64.7726
66.6097
68.1746
69.5224
70.7292
71.8342
72.8765
73.8959
74.9009
75.8986
76.8978
77.8976
78.8968
79.8937
80.8865
81.8754
82.8188
83.7114
84.4105
84.8193
19.5273
24.3692
26.3781
27.7952
29.8766
33.706
39.1366
43.3289
47.9562
53.1193
57.0331
60.1982
62.7471
64.8478
66.5896
68.0906
69.3952
70.5727
71.6713
72.7072
73.714
74.7076
75.6873
76.6563
77.615
78.5664
79.5091
80.4423
81.3286
82.2057
82.8456
83.2365
8.42911
13.1526
17.1163
20.2606
21.5682
21.8914
20.4946
33.1655
42.3904
47.7477
53.2193
57.3173
60.4741
62.9256
64.9211
66.559
67.9762
69.2256
70.3557
71.4265
72.4463
73.4257
74.3801
75.3145
76.2325
77.1377
78.036
78.9353
79.7901
80.6074
81.233
81.6088
7.38761
10.0985
10.8224
10.4852
12.0708
13.9418
13.8417
14.6704
27.344
41.9247
48.1804
53.518
57.4543
60.4883
62.8391
64.7757
66.3705
67.7461
68.9799
70.0847
71.1149
72.0956
73.0296
73.9269
74.7933
75.6404
76.4762
77.3022
78.0741
78.8878
79.431
79.7821
8.17537
14.2795
13.9411
14.5251
15.551
17.4522
17.3968
15.9039
18.2504
22.8822
40.2657
47.9684
53.6645
57.6158
60.5645
62.7768
64.5901
66.1007
67.3849
68.5533
69.612
70.5801
71.4815
72.3331
73.147
73.9338
74.7125
75.5009
76.2492
76.9754
77.507
77.853
15.9334
20.1237
21.7421
22.1726
22.0801
21.3365
15.6882
15.9568
18.0847
19.4996
25.553
41.3933
48.4318
53.6602
57.3648
60.2432
62.4172
64.1681
65.6586
66.8931
67.9775
68.9521
69.8288
70.6306
71.3698
72.0721
72.7637
73.4468
74.0568
74.8044
75.2091
75.5111
20.984
25.7014
28.0321
29.3824
29.638
29.009
27.1926
22.6852
15.8668
23.224
6.65293
17.4485
39.3943
48.1084
53.6627
57.2164
59.8835
61.916
63.484
64.84
65.9791
66.946
67.7719
68.5011
69.1608
69.7738
70.3853
71.0193
71.6248
72.2316
72.6325
72.9603
22.1655
27.1757
29.9971
32.199
33.7422
34.5839
34.6304
33.5191
30.3296
25.3599
17.7658
8.85937
24.6562
40.6569
47.7468
52.9487
56.4399
58.9983
61.0383
62.5272
63.7285
64.7021
65.4868
66.1396
66.6732
67.1407
67.6024
68.0673
68.4145
69.0931
69.2604
69.4901
22.3546
27.4569
30.4401
32.8823
34.7614
36.0872
36.8688
37.0726
36.4929
34.251
28.6388
27.3531
8.81603
20.4817
39.3689
47.4395
52.3256
55.4918
57.5941
59.3414
60.6356
61.6251
62.3117
62.809
63.1967
63.5006
63.8533
64.2387
64.5958
65.0572
65.2865
65.6078
21.0932
26.3488
29.4634
32.0951
34.2254
35.8701
37.0638
37.8452
38.2179
38.0322
36.5861
31.7122
25.3179
26.463
28.0126
39.0193
45.598
50.2068
53.6644
55.6614
57.1283
58.0925
58.6557
59.035
59.1479
59.1657
59.1618
59.2019
59.0982
59.6268
59.3322
59.4072
19.1936
24.5599
27.7234
30.4321
32.682
34.4956
35.9206
37.0276
37.89
38.5159
38.6652
37.2628
32.0494
32.2566
14.3785
25.6046
38.4109
44.1505
47.0418
49.7976
51.3418
52.386
52.8136
52.6012
52.417
52.0958
51.9021
51.9504
51.4346
52.3717
53.0571
52.4049
16.952
22.342
25.4686
28.1648
30.4489
32.3588
33.9432
35.2752
36.44
37.502
38.4079
38.7428
37.1566
30.4587
27.578
31.2654
23.8528
32.323
40.7633
43.5298
45.3858
46.7922
46.1878
46.0383
45.1785
43.6803
43.0886
41.716
41.1111
38.0979
36.5914
38.7272
14.7277
19.9914
22.9681
25.541
27.7576
29.6749
31.3498
32.8493
34.2565
35.6397
37.0064
38.2209
38.7378
37.0202
31.8997
27.2806
31.0209
17.7165
21.3931
28.1046
32.2685
31.3595
32.4127
28.0138
24.0552
26.6305
19.0045
18.6774
6.33774
29.8078
38.3208
19.1772
12.7595
17.7816
20.5344
22.9109
24.9874
26.8364
28.5209
30.1012
31.6472
33.2302
34.8798
36.5447
37.9764
38.4752
36.2331
28.6142
28.9886
27.0988
10.508
27.76
15.3023
26.2706
35.7735
14.0821
23.6227
35.4933
19.4638
25.899
6.62746
23.3205
41.6909
19.8758
11.2399
15.9477
18.454
20.6052
22.5034
24.2324
25.8586
27.4361
29.0173
30.6647
32.4289
34.327
36.2449
37.8139
38.1149
35.8319
28.9169
21.0419
20.3265
30.1414
16.7888
29.2569
37.3571
21.8943
28.9683
34.7245
33.8455
34.6371
35.3236
32.2394
36.7278
31.2724
10.0469
14.5345
16.8218
18.7675
20.4946
22.0924
23.6256
25.1412
26.6779
28.2838
30.0163
31.9402
34.0534
36.1558
37.7201
38.0058
35.0506
30.58
23.1446
25.181
27.6612
27.976
32.5723
29.4849
32.8248
34.7531
36.4111
37.8664
39.0237
40.6631
35.9493
42.2565
9.27541
13.5611
15.67
17.4538
19.045
20.5297
21.9649
23.3882
24.8298
26.3258
27.9324
29.7302
31.787
34.0575
36.2301
37.7563
37.6876
36.642
33.7251
31.6765
31.7816
32.228
35.615
39.7939
41.079
41.9719
42.2727
43.4412
42.8809
45.1106
42.9208
45.6757
8.82011
12.9747
14.9685
16.6506
18.156
19.5624
20.916
22.245
23.5729
24.9303
26.3679
27.9609
29.8002
31.9423
34.2822
36.4407
37.7387
38.2113
37.7238
37.5245
37.4035
38.1558
40.333
42.0555
42.8059
43.3556
43.4898
44.4031
43.6078
45.5124
45.0008
46.022
8.64541
12.7281
14.6616
16.2954
17.7615
19.1265
20.425
21.6776
22.9035
24.1302
25.3992
26.7719
28.3332
30.1773
32.3383
34.6623
36.6849
38.0801
38.6571
39.0326
39.1784
39.889
41.3713
42.356
42.8932
43.3071
43.5385
44.1695
43.6141
44.95
45.0974
45.2535
8.68506
12.7489