/*--------------------------------*- C++ -*----------------------------------*\
  =========                 |
  \\      /  F ield         | OpenFOAM: The Open Source CFD Toolbox
   \\    /   O peration     | Website:  https://openfoam.org
    \\  /    A nd           | Version:  6
     \\/     M anipulation  |
\*---------------------------------------------------------------------------*/
FoamFile
{
    version     2.0;
    format      ascii;
    class       volScalarField;
    location    "20";
    object      omega;
}
// * * * * * * * * * * * * * * * * * * * * * * * * * * * * * * * * * * * * * //

dimensions      [0 0 -1 0 0 0 0];

internalField   nonuniform List<scalar> 
380496
(
843.917
843.917
843.917
843.917
843.917
843.917
843.917
843.917
843.917
843.917
843.917
843.917
843.917
843.917
843.917
843.917
843.917
843.917
843.917
843.917
843.917
843.917
843.917
843.917
843.917
843.917
843.917
843.917
843.917
843.917
843.917
843.917
843.917
843.917
843.917
843.917
843.917
843.917
843.917
843.917
843.917
843.917
843.917
843.917
843.917
843.917
843.917
843.917
843.917
843.917
843.917
843.917
843.917
843.917
843.917
843.917
843.917
843.917
843.917
843.917
843.917
843.917
843.917
843.917
843.917
843.917
843.917
843.917
843.917
843.917
843.917
843.917
843.917
843.917
843.917
843.917
843.917
843.917
843.917
843.917
843.917
843.917
843.917
843.917
843.917
843.917
843.917
843.917
843.917
843.917
843.917
843.917
843.917
843.917
843.917
843.917
843.917
843.917
843.917
843.917
843.917
843.917
843.917
843.917
843.917
843.917
843.917
843.917
843.917
843.917
843.917
843.917
843.917
843.917
843.917
843.917
843.917
843.917
843.917
843.917
843.917
843.917
843.917
843.917
843.917
843.917
843.917
843.917
843.917
843.917
843.917
843.917
843.917
843.917
843.917
843.917
843.917
843.917
843.917
843.917
843.917
843.917
843.917
843.917
843.917
843.917
843.917
843.917
843.917
843.917
843.917
843.917
843.917
843.917
843.917
843.917
843.917
843.917
843.917
843.917
843.917
843.917
843.917
843.917
843.917
843.917
843.917
843.917
843.917
843.917
843.917
843.917
843.917
843.917
843.917
843.917
843.917
843.917
843.917
843.917
843.917
843.917
843.917
843.917
843.917
843.917
843.917
843.917
843.917
843.917
843.917
843.917
843.917
843.917
843.917
843.917
843.917
843.917
843.917
843.917
843.917
843.917
843.917
843.917
843.917
843.917
843.917
843.917
843.917
843.917
843.917
843.917
843.917
843.917
843.917
843.917
843.917
843.917
843.917
843.917
843.917
843.917
843.917
843.917
843.917
843.917
843.917
843.917
843.917
843.917
843.917
843.917
843.917
843.917
843.917
843.917
843.917
843.917
843.917
843.917
843.917
843.917
843.917
843.917
843.917
843.917
843.917
843.917
843.917
843.917
843.917
843.917
843.917
843.917
843.917
843.917
843.917
843.917
843.917
843.917
843.917
843.917
843.917
843.917
843.917
843.917
843.917
843.917
843.917
843.917
843.917
843.917
843.917
843.917
843.917
843.917
843.917
843.917
843.917
843.917
843.917
843.917
843.917
843.917
843.917
843.917
843.917
843.917
843.917
843.917
843.917
843.917
843.917
843.917
843.917
843.917
843.917
843.917
843.917
843.917
843.917
843.917
843.917
843.917
843.917
843.917
843.917
843.917
843.917
843.917
843.917
843.917
843.917
843.917
843.917
843.917
843.917
843.917
843.917
843.917
843.917
843.917
843.917
843.917
843.917
843.917
843.917
843.917
843.917
843.917
843.917
843.917
843.917
843.917
843.917
843.917
843.917
843.917
843.917
843.917
843.917
843.917
843.917
843.917
843.917
843.917
843.917
843.917
843.917
843.917
843.917
843.917
843.917
843.917
843.917
843.917
843.917
843.917
843.917
843.917
843.917
843.917
843.917
843.917
843.917
843.917
843.917
843.917
843.917
843.917
843.917
843.917
843.917
843.917
843.917
843.917
843.917
843.917
843.917
843.917
843.917
843.917
843.917
843.917
843.917
843.917
843.917
843.917
843.917
843.917
843.917
843.917
843.917
843.917
843.917
843.917
843.917
843.917
843.917
843.917
843.917
843.917
843.917
843.917
843.917
843.917
843.917
843.917
843.917
843.917
843.917
843.917
843.917
843.917
843.917
843.917
843.917
843.917
843.917
843.917
843.917
843.917
843.917
843.917
843.917
843.917
843.917
843.917
843.917
843.917
843.917
843.917
843.917
843.917
843.917
843.917
843.917
843.917
843.917
843.917
843.917
843.917
843.917
843.917
843.917
843.917
843.917
843.917
843.917
843.917
843.917
843.917
843.917
843.917
843.917
843.917
843.917
843.917
843.917
843.917
843.917
843.917
843.917
843.917
843.917
843.917
843.917
843.917
843.917
843.917
843.917
843.917
843.917
843.917
843.917
843.917
843.917
843.917
843.917
843.917
843.917
843.917
843.917
843.917
843.917
843.917
843.917
843.917
843.917
843.917
843.917
843.917
843.917
843.917
843.917
843.917
843.917
843.917
843.917
843.917
843.917
843.917
843.917
843.917
843.917
843.917
843.917
843.917
843.917
843.917
843.917
843.917
843.917
843.917
843.917
843.917
843.917
843.917
843.917
843.917
843.917
843.917
843.917
843.917
843.917
843.917
843.917
843.917
843.917
843.917
843.917
843.917
843.917
843.917
843.917
843.917
843.917
843.917
843.917
843.917
843.917
843.917
843.917
843.917
843.917
843.917
843.917
843.917
843.917
843.917
843.917
843.917
843.917
843.917
843.917
843.917
843.917
843.917
843.917
843.917
843.917
843.917
843.917
843.917
843.917
843.917
843.917
843.917
843.917
843.917
843.917
843.917
843.917
843.917
843.917
843.917
843.917
843.917
843.917
843.917
843.917
843.917
843.917
843.917
843.917
843.917
843.917
843.917
843.917
843.917
843.917
843.917
843.917
843.917
843.917
843.917
843.917
843.917
843.917
843.917
843.917
843.917
843.917
843.917
843.917
843.917
843.917
843.917
843.917
843.917
843.917
843.917
843.917
843.917
843.917
843.917
843.917
843.917
843.917
843.917
843.917
843.917
843.917
843.917
843.917
843.917
843.917
843.917
843.917
843.917
843.917
843.917
843.917
843.917
843.917
843.917
843.917
843.917
843.917
843.917
843.917
843.917
843.917
843.917
843.917
843.917
843.917
843.917
843.917
843.917
843.917
843.917
843.917
843.917
843.917
843.917
843.917
843.917
843.917
843.917
843.917
843.917
843.917
843.917
843.917
843.917
843.917
843.917
843.917
843.917
843.917
843.917
843.917
843.917
843.917
843.917
843.917
843.917
843.917
843.917
843.917
843.917
843.917
843.917
843.917
843.917
843.917
843.917
843.917
843.917
843.917
843.917
843.917
843.917
843.917
843.917
843.917
843.917
843.917
843.917
423.923
423.923
423.923
423.923
423.923
423.923
423.923
423.923
423.923
423.923
423.923
423.923
423.923
423.923
423.923
423.923
423.923
423.923
423.923
423.923
423.923
423.923
423.923
423.923
423.923
423.923
423.923
423.923
423.923
423.923
423.923
423.923
423.923
423.923
423.923
281.629
267.585
268.725
269.807
269.907
269.752
269.646
269.581
269.554
269.531
269.526
269.52
269.525
269.528
269.538
269.548
269.562
269.577
269.594
269.613
269.635
269.658
269.685
269.712
269.745
269.775
269.816
269.849
269.895
269.931
269.981
270.019
270.065
270.113
270.133
281.467
267.569
268.647
269.683
269.757
269.599
269.486
269.424
269.392
269.375
269.367
269.369
269.372
269.385
269.394
269.415
269.428
269.456
269.473
269.507
269.528
269.569
269.593
269.642
269.67
269.727
269.757
269.823
269.853
269.928
269.953
270.037
270.037
270.151
270.038
281.133
267.395
268.473
269.476
269.524
269.359
269.242
269.183
269.15
269.141
269.135
269.147
269.153
269.178
269.192
269.227
269.245
269.289
269.313
269.364
269.394
269.453
269.489
269.555
269.599
269.671
269.724
269.8
269.861
269.94
270.004
270.086
270.136
270.245
270.198
280.565
267.016
268.176
269.153
269.168
268.989
268.869
268.812
268.783
268.78
268.782
268.802
268.818
268.852
268.877
268.922
268.954
269.009
269.046
269.111
269.154
269.229
269.279
269.364
269.42
269.517
269.576
269.685
269.745
269.867
269.921
270.058
270.084
270.265
270.172
280.148
266.78
267.828
268.737
268.732
268.549
268.429
268.373
268.347
268.349
268.357
268.384
268.408
268.451
268.486
268.542
268.584
268.652
268.702
268.781
268.839
268.93
268.995
269.099
269.172
269.288
269.368
269.496
269.58
269.721
269.801
269.959
270.012
270.221
270.149
279.34
266.188
267.273
268.137
268.1
267.907
267.788
267.738
267.721
267.733
267.752
267.791
267.829
267.885
267.934
268.003
268.061
268.144
268.21
268.306
268.381
268.49
268.574
268.697
268.789
268.928
269.026
269.18
269.281
269.45
269.548
269.737
269.805
270.054
269.986
278.498
265.57
266.592
267.386
267.321
267.122
267.005
266.961
266.952
266.973
267.004
267.054
267.104
267.173
267.235
267.319
267.392
267.489
267.573
267.685
267.778
267.906
268.009
268.153
268.265
268.426
268.546
268.723
268.847
269.041
269.163
269.38
269.471
269.756
269.699
277.443
264.751
265.708
266.426
266.332
266.129
266.017
265.981
265.984
266.016
266.06
266.123
266.188
266.27
266.347
266.445
266.534
266.648
266.748
266.878
266.99
267.137
267.259
267.424
267.557
267.74
267.882
268.082
268.23
268.447
268.594
268.836
268.951
269.268
269.224
276.189
263.732
264.63
265.269
265.145
264.939
264.836
264.813
264.831
264.879
264.94
265.018
265.099
265.196
265.291
265.404
265.511
265.64
265.759
265.906
266.037
266.203
266.346
266.531
266.685
266.889
267.053
267.276
267.446
267.688
267.856
268.126
268.26
268.611
268.574
274.955
262.704
263.452
264.002
263.857
263.653
263.56
263.546
263.577
263.636
263.709
263.799
263.893
264.003
264.111
264.237
264.359
264.502
264.637
264.8
264.948
265.13
265.292
265.495
265.668
265.891
266.075
266.318
266.508
266.771
266.959
267.252
267.405
267.784
267.755
273.277
261.259
261.957
262.428
262.255
262.057
261.983
261.991
262.045
262.126
262.221
262.33
262.443
262.57
262.696
262.839
262.979
263.139
263.292
263.472
263.639
263.84
264.021
264.242
264.436
264.679
264.883
265.146
265.356
265.641
265.849
266.164
266.336
266.742
266.72
271.661
259.85
260.315
260.682
260.494
260.306
260.246
260.267
260.335
260.428
260.536
260.657
260.784
260.923
261.064
261.22
261.374
261.549
261.718
261.913
262.098
262.315
262.514
262.753
262.966
263.227
263.451
263.733
263.964
264.268
264.496
264.832
265.021
265.453
265.436
269.373
257.804
258.19
258.478
258.273
258.105
258.079
258.135
258.235
258.357
258.492
258.636
258.785
258.944
259.105
259.279
259.454
259.646
259.835
260.048
260.253
260.488
260.708
260.966
261.2
261.481
261.725
262.028
262.279
262.604
262.851
263.208
263.416
263.873
263.861
267.102
255.735
255.828
256.009
255.797
255.652
255.651
255.73
255.85
255.991
256.144
256.305
256.471
256.645
256.823
257.012
257.204
257.412
257.619
257.848
258.072
258.325
258.564
258.841
259.095
259.395
259.66
259.982
260.253
260.598
260.866
261.243
261.468
261.949
261.941
264.032
252.898
252.819
252.924
252.715
252.614
252.662
252.786
252.945
253.121
253.304
253.492
253.683
253.879
254.079
254.288
254.501
254.728
254.957
255.205
255.451
255.722
255.984
256.28
256.556
256.876
257.163
257.505
257.799
258.164
258.452
258.85
259.094
259.599
259.596
260.551
249.613
249.244
249.276
249.084
249.035
249.132
249.303
249.499
249.71
249.921
250.136
250.349
250.568
250.789
251.017
251.25
251.495
251.744
252.01
252.276
252.566
252.85
253.163
253.463
253.801
254.111
254.473
254.789
255.173
255.484
255.901
256.165
256.692
256.694
256.376
245.607
244.86
244.811
244.649
244.67
244.826
245.047
245.279
245.524
245.758
245.998
246.229
246.468
246.704
246.951
247.198
247.461
247.726
248.009
248.294
248.6
248.905
249.236
249.558
249.914
250.248
250.629
250.969
251.374
251.708
252.151
252.437
252.991
253.004
249.996
239.625
238.829
238.832
238.733
238.851
239.092
239.39
239.677
239.972
240.24
240.514
240.765
241.029
241.278
241.546
241.806
242.088
242.366
242.669
242.97
243.298
243.623
243.979
244.324
244.711
245.074
245.489
245.859
246.3
246.665
247.137
247.46
248.032
248.09
240.798
231.461
230.493
230.665
230.738
230.988
231.301
231.63
231.925
232.217
232.472
232.737
232.975
233.234
233.475
233.745
234.001
234.291
234.57
234.885
235.193
235.554
235.914
236.314
236.704
237.133
237.548
238.002
238.432
238.91
239.337
239.851
240.248
240.845
241.025
214.295
212.131
212.391
213.32
213.957
214.696
215.422
216.1
216.706
217.283
217.806
218.324
218.806
219.298
219.761
220.246
220.707
221.196
221.664
222.165
222.645
223.16
223.654
224.182
224.69
225.228
225.748
226.29
226.819
227.357
227.887
228.41
228.935
229.394
230.075
9.02151
7.66342
7.59122
7.55874
7.6119
7.68447
7.77719
7.8703
7.97316
8.06748
8.1669
8.2552
8.34831
8.43023
8.51844
8.59589
8.68157
8.75647
8.84181
8.91544
9.00231
9.07491
9.16482
9.23546
9.33016
9.39664
9.49861
9.55686
9.66997
9.71309
9.84382
9.85936
10.0189
9.97891
10.1861
135.248
128.879
128.553
129.047
129.245
129.239
129.186
129.136
129.098
129.069
129.048
129.033
129.023
129.018
129.016
129.018
129.021
129.028
129.037
129.048
129.062
129.078
129.096
129.118
129.141
129.17
129.198
129.235
129.27
129.317
129.359
129.42
129.467
129.547
129.606
135.076
128.679
128.314
128.783
128.969
128.958
128.901
128.849
128.81
128.781
128.761
128.748
128.74
128.737
128.738
128.743
128.751
128.761
128.775
128.791
128.81
128.83
128.856
128.881
128.914
128.943
128.985
129.019
129.072
129.11
129.176
129.219
129.29
129.355
129.39
134.794
128.386
128.006
128.461
128.637
128.621
128.562
128.51
128.471
128.444
128.426
128.416
128.413
128.415
128.421
128.431
128.445
128.462
128.483
128.506
128.533
128.562
128.596
128.63
128.672
128.713
128.762
128.812
128.868
128.929
128.99
129.067
129.122
129.241
129.242
134.361
127.975
127.614
128.066
128.231
128.207
128.145
128.092
128.054
128.03
128.016
128.011
128.012
128.02
128.032
128.049
128.069
128.093
128.121
128.151
128.186
128.222
128.265
128.307
128.358
128.406
128.467
128.52
128.594
128.651
128.737
128.8
128.889
128.98
129.028
134.043
127.65
127.239
127.655
127.803
127.772
127.706
127.65
127.612
127.588
127.576
127.573
127.577
127.589
127.605
127.626
127.652
127.681
127.715
127.751
127.793
127.836
127.886
127.936
127.996
128.052
128.122
128.185
128.265
128.334
128.426
128.504
128.595
128.706
128.75
133.489
127.122
126.721
127.124
127.257
127.217
127.147
127.092
127.056
127.036
127.028
127.032
127.042
127.06
127.082
127.111
127.143
127.18
127.221
127.265
127.314
127.366
127.424
127.483
127.551
127.616
127.694
127.765
127.855
127.932
128.033
128.117
128.216
128.335
128.382
132.924
126.585
126.16
126.531
126.644
126.593
126.519
126.462
126.427
126.41
126.406
126.414
126.429
126.453
126.481
126.515
126.554
126.597
126.645
126.697
126.753
126.813
126.879
126.946
127.022
127.095
127.182
127.262
127.36
127.446
127.554
127.649
127.753
127.884
127.933
132.247
125.942
125.497
125.833
125.923
125.861
125.782
125.726
125.692
125.679
125.68
125.693
125.714
125.743
125.778
125.818
125.864
125.914
125.969
126.028
126.092
126.159
126.232
126.307
126.391
126.473
126.567
126.656
126.762
126.856
126.971
127.076
127.184
127.327
127.373
131.463
125.209
124.748
125.048
125.113
125.038
124.955
124.899
124.869
124.862
124.869
124.889
124.917
124.953
124.994
125.042
125.095
125.152
125.214
125.281
125.352
125.427
125.508
125.591
125.682
125.773
125.875
125.972
126.085
126.188
126.309
126.422
126.536
126.69
126.736
130.701
124.495
123.979
124.227
124.265
124.179
124.092
124.037
124.01
124.006
124.017
124.042
124.075
124.117
124.164
124.218
124.276
124.339
124.407
124.48
124.558
124.64
124.727
124.817
124.916
125.013
125.122
125.226
125.346
125.456
125.584
125.705
125.821
125.986
126.029
129.711
123.569
123.043
123.255
123.265
123.166
123.078
123.026
123.007
123.011
123.032
123.065
123.107
123.157
123.212
123.273
123.339
123.41
123.485
123.566
123.651
123.74
123.835
123.933
124.038
124.144
124.26
124.372
124.498
124.616
124.75
124.879
124.999
125.175
125.216
128.745
122.677
122.061
122.2
122.177
122.065
121.975
121.925
121.909
121.919
121.945
121.984
122.031
122.087
122.148
122.215
122.287
122.364
122.446
122.533
122.625
122.721
122.823
122.928
123.04
123.153
123.276
123.395
123.528
123.653
123.793
123.93
124.054
124.24
124.279
127.448
121.46
120.821
120.917
120.863
120.741
120.653
120.613
120.609
120.63
120.668
120.718
120.776
120.842
120.912
120.988
121.069
121.154
121.244
121.339
121.439
121.543
121.653
121.766
121.886
122.007
122.138
122.266
122.406
122.539
122.686
122.831
122.96
123.157
123.193
126.136
120.247
119.484
119.492
119.399
119.265
119.179
119.145
119.148
119.178
119.225
119.284
119.35
119.423
119.502
119.585
119.673
119.766
119.864
119.966
120.074
120.186
120.304
120.425
120.553
120.682
120.82
120.956
121.104
121.246
121.399
121.553
121.686
121.894
121.927
124.43
118.648
117.81
117.754
117.626
117.486
117.41
117.39
117.41
117.456
117.517
117.589
117.668
117.752
117.841
117.935
118.033
118.135
118.242
118.354
118.47
118.591
118.718
118.848
118.985
119.123
119.27
119.415
119.571
119.722
119.883
120.046
120.184
120.405
120.434
122.481
116.821
115.842
115.701
115.535
115.392
115.326
115.322
115.359
115.421
115.497
115.583
115.674
115.77
115.87
115.973
116.081
116.192
116.308
116.428
116.553
116.683
116.818
116.958
117.103
117.251
117.406
117.561
117.726
117.885
118.055
118.227
118.372
118.605
118.63
120.129
114.623
113.443
113.185
112.972
112.829
112.78
112.797
112.852
112.931
113.02
113.118
113.219
113.324
113.432
113.543
113.657
113.776
113.899
114.027
114.16
114.299
114.442
114.59
114.744
114.901
115.066
115.23
115.405
115.575
115.755
115.938
116.095
116.343
116.371
116.507
111.184
110.004
109.758
109.544
109.418
109.391
109.433
109.506
109.602
109.703
109.813
109.921
110.035
110.149
110.269
110.39
110.518
110.649
110.787
110.93
111.079
111.234
111.395
111.562
111.735
111.917
112.098
112.292
112.48
112.679
112.879
113.056
113.317
113.366
111.046
106.318
104.833
104.497
104.267
104.166
104.164
104.229
104.319
104.436
104.553
104.684
104.812
104.953
105.089
105.24
105.388
105.55
105.711
105.885
106.061
106.245
106.433
106.629
106.828
107.034
107.246
107.46
107.684
107.904
108.134
108.365
108.585
108.865
108.992
95.7372
95.7819
94.6622
94.3704
94.1624
94.1353
94.2482
94.4442
94.6758
94.9336
95.1944
95.4654
95.7312
96.0039
96.2701
96.5432
96.8103
97.0847
97.3543
97.6315
97.9052
98.1867
98.4658
98.752
99.0365
99.3268
99.6157
99.9089
100.2
100.494
100.786
101.071
101.375
101.614
102.009
11.4421
9.87587
9.84131
9.88611
10.0026
10.1262
10.2626
10.3909
10.5255
10.646
10.7701
10.8788
10.992
11.0906
11.196
11.2877
11.3887
11.4763
11.5759
11.6611
11.7616
11.845
11.9485
12.0292
12.1376
12.2134
12.3295
12.3961
12.5242
12.5743
12.7212
12.7429
12.9188
12.8901
13.1038
79.7825
77.2362
76.6745
76.7673
76.893
76.9363
76.9284
76.9042
76.8761
76.8519
76.8302
76.8137
76.7996
76.7899
76.782
76.7776
76.7746
76.7742
76.7751
76.7783
76.7821
76.7888
76.7951
76.8057
76.8139
76.8291
76.8393
76.8598
76.8722
76.8991
76.9143
76.9492
76.9691
77.0109
77.0486
79.595
77.0488
76.4704
76.548
76.6655
76.7032
76.6925
76.6652
76.636
76.6101
76.589
76.5718
76.5595
76.5497
76.5447
76.5405
76.5415
76.5413
76.5473
76.5501
76.5607
76.566
76.5813
76.5883
76.609
76.6172
76.6445
76.6531
76.6887
76.697
76.742
76.7514
76.801
76.8204
76.8627
79.3539
76.8066
76.2185
76.287
76.3988
76.4322
76.419
76.3894
76.3599
76.3333
76.3133
76.2965
76.2867
76.2781
76.2766
76.274
76.2791
76.2811
76.2918
76.2976
76.3129
76.3223
76.3418
76.3551
76.3782
76.3961
76.4224
76.4462
76.4748
76.507
76.5353
76.582
76.6006
76.6772
76.6704
79.0384
76.493
75.9089
75.9767
76.0847
76.1138
76.0972
76.0657
76.0354
76.0091
75.9902
75.9752
75.9675
75.9617
75.963
75.9638
75.9722
75.978
75.9925
76.002
76.0223
76.0348
76.0609
76.0756
76.1082
76.1245
76.1648
76.1816
76.2312
76.2478
76.3071
76.3255
76.3883
76.4193
76.4734
78.7525
76.2178
75.6163
75.6644
75.7592
75.7802
75.7583
75.7233
75.6906
75.6631
75.6438
75.6291
75.6223
75.6178
75.6208
75.6237
75.6344
75.6427
75.6601
75.6727
75.6963
75.7123
75.742
75.7609
75.7972
75.8184
75.862
75.8849
75.9369
75.9612
76.0216
76.0497
76.1117
76.1551
76.207
78.3535
75.8241
75.2268
75.271
75.3586
75.3729
75.3462
75.3084
75.2747
75.2476
75.2295
75.2169
75.2125
75.211
75.217
75.2234
75.2375
75.2496
75.2708
75.2873
75.315
75.3351
75.3693
75.3921
75.4336
75.4583
75.5079
75.5336
75.5923
75.6184
75.686
75.7154
75.7837
75.8284
75.8848
77.928
75.414
74.8114
74.8411
74.9152
74.9198
74.8865
74.8449
74.8091
74.7815
74.7638
74.7526
74.75
74.7508
74.7593
74.7685
74.7855
74.8009
74.8253
74.8454
74.8766
74.9004
74.9385
74.9652
75.0108
75.0396
75.0934
75.1232
75.1862
75.2165
75.2883
75.3217
75.3941
75.4425
75.5033
77.4333
74.9363
74.3307
74.3457
74.4049
74.3983
74.3578
74.312
74.2743
74.2464
74.2295
74.2201
74.2196
74.223
74.2342
74.2465
74.2668
74.2854
74.3133
74.3369
74.3718
74.3994
74.4414
74.4721
74.5215
74.5546
74.6121
74.6465
74.7128
74.748
74.8221
74.8613
74.9343
74.9894
75.0487
76.8736
74.4021
73.7983
73.7991
73.8419
73.8226
73.7739
73.7241
73.6848
73.6575
73.6422
73.6353
73.6374
73.6442
73.6585
73.6744
73.6979
73.7204
73.7516
73.7791
73.8175
73.8491
73.8947
73.9294
73.9827
74.0196
74.0812
74.1192
74.1899
74.2283
74.307
74.3488
74.4261
74.4836
74.5466
76.3105
73.8741
73.2585
73.2341
73.2558
73.2226
73.1658
73.1118
73.0707
73.0434
73.029
73.0239
73.0281
73.0374
73.0543
73.0731
73.0994
73.125
73.1591
73.19
73.2315
73.2665
73.3154
73.3537
73.4103
73.4508
73.5159
73.5574
73.6314
73.6734
73.755
73.8008
73.8797
73.9419
74.0048
75.627
73.2226
72.6137
72.5761
72.5797
72.5321
72.4669
72.4094
72.3679
72.3424
72.3307
72.3292
72.3371
72.3504
72.371
72.3938
72.4237
72.4534
72.4911
72.5259
72.571
72.61
72.6624
72.7046
72.7649
72.8093
72.8781
72.9234
73.0011
73.0467
73.1317
73.1811
73.2625
73.3289
73.3927
74.9229
72.5722
71.9391
71.8629
71.8367
71.7711
71.6966
71.6349
71.5924
71.5676
71.5577
71.5588
71.5693
71.5858
71.6094
71.6357
71.6687
71.7018
71.7428
71.7812
71.8296
71.8723
71.9282
71.9742
72.038
72.0862
72.1586
72.2077
72.289
72.3383
72.4266
72.4799
72.5635
72.6345
72.6986
74.0388
71.7343
71.1046
71.01
70.9609
70.8787
70.7959
70.732
70.6907
70.6694
70.6639
70.6698
70.6852
70.7066
70.7347
70.7658
70.803
70.8408
70.8858
70.9287
70.9811
71.0283
71.0882
71.1385
71.2064
71.2589
71.3354
71.3886
71.474
71.5274
71.6195
71.677
71.7633
71.8393
71.904
73.1016
70.8708
70.2028
70.0569
69.9697
69.8658
69.7735
69.7066
69.6662
69.6476
69.6459
69.6561
69.6758
69.7019
69.7343
69.7699
69.8114
69.8537
69.9027
69.9501
70.0065
70.0582
70.1221
70.177
70.249
70.306
70.3867
70.4444
70.5341
70.5917
70.6879
70.7497
70.839
70.9205
70.9853
71.9317
69.7751
69.0898
68.9085
68.788
68.6641
68.5642
68.4969
68.46
68.4468
68.451
68.4674
68.4931
68.525
68.5629
68.604
68.6503
68.6979
68.7515
68.8041
68.8648
68.9216
68.9899
69.0499
69.1263
69.1883
69.2736
69.3361
69.4304
69.4927
69.5935
69.6601
69.7531
69.8405
69.9063
70.575
68.5116
67.7777
67.5407
67.378
67.2315
67.1236
67.056
67.0231
67.0155
67.0263
67.0491
67.0811
67.119
67.1624
67.2089
67.26
67.3126
67.3704
67.428
67.4927
67.5545
67.6268
67.6919
67.7725
67.8397
67.9294
67.997
68.0961
68.1633
68.2691
68.3405
68.4378
68.5309
68.5979
68.9305
66.9869
66.1746
65.8553
65.6349
65.461
65.3453
65.2784
65.2499
65.2471
65.263
65.2899
65.3259
65.3667
65.4132
65.4623
65.516
65.5713
65.6319
65.693
65.7609
65.8271
65.9028
65.9731
66.0576
66.1304
66.2248
66.2982
66.4032
66.4751
66.5891
66.6632
66.7705
66.8685
66.9422
66.5753
64.6694
63.85
63.526
63.2862
63.0974
62.9737
62.9018
62.8702
62.8641
62.8776
62.9015
62.9361
62.9753
63.0224
63.072
63.1285
63.1868
63.252
63.318
63.392
63.4649
63.5482
63.6259
63.7196
63.8003
63.9055
63.987
64.1045
64.1844
64.312
64.3938
64.5161
64.6196
64.711
63.0743
61.5353
60.4576
59.9518
59.6011
59.3555
59.2049
59.1219
59.0893
59.0888
59.1138
59.1528
59.2069
59.2673
59.3391
59.4137
59.4986
59.584
59.6798
59.7742
59.8805
59.9824
60.0934
60.1987
60.3153
60.4235
60.5476
60.6572
60.7913
60.8982
61.0438
61.1474
61.2948
61.41
61.546
55.4845
57.2195
56.1485
55.3602
54.7599
54.3472
54.1071
53.9813
53.9424
53.9516
54.0033
54.0724
54.1659
54.2634
54.3782
54.4908
54.618
54.7395
54.8749
55.0026
55.144
55.2769
55.4234
55.5616
55.712
55.8557
56.0087
56.1575
56.312
56.4639
56.6221
56.7671
56.9456
57.0531
57.3039
13.0136
11.407
11.4202
11.5492
11.7337
11.9069
12.0813
12.2362
12.3922
12.5277
12.6648
12.7823
12.9041
13.008
13.1193
13.2142
13.3195
13.4088
13.5116
13.5977
13.7008
13.7845
13.8901
13.9708
14.0811
14.1568
14.2746
14.3413
14.4707
14.522
14.669
14.6951
14.8671
14.8534
15.0519
52.8625
51.861
51.4543
51.3869
51.4239
51.4582
51.4671
51.4607
51.4447
51.4284
51.4108
51.3963
51.3824
51.3718
51.3621
51.3551
51.3491
51.3451
51.3419
51.3407
51.3393
51.3409
51.3405
51.3449
51.3451
51.3523
51.3529
51.363
51.3642
51.3772
51.3799
51.3952
51.4029
51.4163
51.44
52.6912
51.6999
51.2902
51.2154
51.2473
51.2769
51.2835
51.2738
51.2571
51.2383
51.2211
51.2049
51.1925
51.1805
51.1733
51.165
51.1625
51.1569
51.1585
51.1547
51.16
51.1573
51.1662
51.1639
51.1768
51.1739
51.1916
51.1872
51.2106
51.2042
51.2335
51.2261
51.2589
51.2522
51.2892
52.4925
51.5062
51.0937
51.0137
51.0422
51.0683
51.0729
51.0605
51.0429
51.0223
51.0055
50.9881
50.977
50.9644
50.9593
50.9507
50.9508
50.9454
50.9496
50.9469
50.9544
50.9541
50.9641
50.9665
50.978
50.9836
50.9957
51.0056
51.0172
51.0333
51.0418
51.0684
51.0689
51.1112
51.1033
52.255
51.2694
50.8583
50.7783
50.8057
50.8296
50.8318
50.8173
50.7982
50.7767
50.7594
50.7424
50.7318
50.7202
50.7162
50.7092
50.7109
50.7072
50.7138
50.7124
50.7236
50.7235
50.7392
50.7396
50.7602
50.7601
50.7865
50.7847
50.8178
50.814
50.8535
50.8493
50.8918
50.8903
50.9359
52.0124
51.0412
50.6278
50.5396
50.5587
50.576
50.5732
50.555
50.5332
50.5097
50.4913
50.4735
50.4627
50.4513
50.4477
50.4414
50.4441
50.4414
50.4494
50.4493
50.4621
50.4636
50.4812
50.4836
50.506
50.5085
50.5362
50.5382
50.5719
50.5729
50.6124
50.6138
50.6566
50.6603
50.7088
51.7113
50.7437
50.3341
50.2456
50.2619
50.2752
50.2684
50.247
50.2229
50.1982
50.1791
50.1614
50.1511
50.1406
50.1382
50.1333
50.1375
50.1366
50.1465
50.1483
50.1634
50.1668
50.1871
50.1911
50.2169
50.2205
50.2526
50.2549
50.2937
50.2945
50.3395
50.3406
50.3879
50.3924
50.4427
51.3809
50.4246
50.0171
49.924
49.9332
49.9396
49.9269
49.9012
49.874
49.8473
49.8271
49.8091
49.7989
49.789
49.7874
49.7837
49.7891
49.7896
49.801
49.8044
49.8213
49.8264
49.8488
49.8545
49.8827
49.8881
49.9227
49.9269
49.9684
49.9708
50.0189
50.0212
50.0723
50.0769
50.1325
51.0013
50.057
49.6535
49.5564
49.5578
49.5563
49.5368
49.5062
49.4755
49.4469
49.4255
49.4073
49.3973
49.3882
49.3876
49.3851
49.3919
49.394
49.4072
49.4122
49.4312
49.4381
49.4626
49.4704
49.5006
49.5084
49.5449
49.5518
49.5948
49.6005
49.6495
49.6556
49.7067
49.7155
49.7702
50.5805
49.6501
49.2539
49.154
49.1472
49.1368
49.1097
49.0737
49.0393
49.0088
48.9865
48.9684
48.9588
48.9509
48.9513
48.9504
48.9586
48.9626
48.9773
48.9844
49.005
49.014
49.0403
49.0502
49.0826
49.0922
49.1313
49.1395
49.1858
49.1922
49.245
49.2511
49.3064
49.3146
49.3741
50.1474
49.2385
48.8455
48.7371
48.718
48.6965
48.661
48.6195
48.5815
48.5491
48.5258
48.5078
48.4985
48.4916
48.493
48.4936
48.5031
48.5087
48.5249
48.5338
48.5561
48.5669
48.5951
48.6068
48.6412
48.6526
48.6938
48.7039
48.7523
48.7606
48.8153
48.8235
48.8803
48.8906
48.951
49.6404
48.7495
48.3678
48.2584
48.2306
48.1988
48.1547
48.1073
48.0655
48.0315
48.0075
47.9901
47.9815
47.9761
47.9788
47.9813
47.9923
48
48.0179
48.0288
48.0529
48.0658
48.0959
48.1097
48.1461
48.1596
48.2029
48.215
48.2656
48.2758
48.3328
48.3427
48.4016
48.4135
48.4759
49.0986
48.2403
47.8587
47.7337
47.6869
47.6395
47.5847
47.5309
47.4855
47.45
47.4256
47.4089
47.4013
47.3975
47.4016
47.4061
47.4188
47.4285
47.4482
47.4613
47.4872
47.5024
47.5344
47.5504
47.5889
47.6045
47.6501
47.6642
47.7173
47.7293
47.7887
47.8005
47.8615
47.8754
47.9394
48.442
47.6136
47.2451
47.1173
47.0584
46.9976
46.9324
46.8721
46.823
46.7862
46.7617
46.7461
46.7398
46.7379
46.7438
46.7506
46.7652
46.7774
46.799
46.8146
46.8425
46.8601
46.8943
46.9126
46.9535
46.9714
47.0195
47.0357
47.0914
47.1056
47.1676
47.1815
47.2448
47.2608
47.3268
47.7238
46.9424
46.5696
46.419
46.3342
46.2533
46.1756
46.1083
46.056
46.0185
45.9946
45.9806
45.9762
45.9769
45.985
45.9946
46.0114
46.0264
46.0502
46.0687
46.0988
46.1192
46.1556
46.1767
46.22
46.2405
46.2913
46.31
46.3685
46.3849
46.4499
46.466
46.5319
46.5503
46.6181
46.8461
46.1177
45.7528
45.5895
45.4833
45.3832
45.2928
45.2182
45.1626
45.1243
45.1009
45.0886
45.0859
45.089
45.0991
45.1114
45.1302
45.1481
45.1737
45.1951
45.2271
45.2504
45.2889
45.3129
45.3584
45.3817
45.435
45.4563
45.5178
45.5365
45.6047
45.623
45.692
45.7127
45.7836
45.8228
45.159
44.7866
44.596
44.4587
44.3345
44.2294
44.1465
44.0875
44.0482
44.0257
44.0149
44.0141
44.0195
44.0315
44.0462
44.0666
44.087
44.1141
44.1381
44.1713
44.1975
44.2373
44.2643
44.3114
44.3377
44.3932
44.4173
44.4815
44.5028
44.5743
44.5947
44.6674
44.69
44.7646
44.5801
44.0026
43.6096
43.374
43.1916
43.0352
42.9123
42.8191
42.7557
42.7133
42.6898
42.6775
42.6762
42.6804
42.6918
42.7058
42.7257
42.7462
42.7729
42.798
42.8314
42.8598
42.9002
42.9302
42.9786
43.0084
43.0658
43.0936
43.161
43.1851
43.2617
43.2839
43.3628
43.3878
43.4689
43.0294
42.4148
41.9893
41.7321
41.5218
41.3372
41.1924
41.0795
41.0015
40.9446
40.911
40.8878
40.8799
40.8767
40.8849
40.895
40.9144
40.9343
40.9626
40.9897
41.026
41.0586
41.1029
41.1384
41.1914
41.2276
41.2902
41.3246
41.3978
41.4285
41.5116
41.5399
41.6269
41.6562
41.7481
40.8418
40.5277
39.911
39.4666
39.1189
38.8435
38.6448
38.4976
38.4032
38.3366
38.3043
38.2836
38.2867
38.2926
38.3171
38.3399
38.3787
38.4131
38.4622
38.5052
38.5625
38.6129
38.6751
38.7283
38.7942
38.8485
38.9195
38.9732
39.052
39.1021
39.1907
39.2363
39.3314
39.3743
39.4798
37.8608
40.688
39.8752
38.9228
38.1206
37.5031
37.0649
36.7506
36.5423
36.3942
36.3067
36.2446
36.221
36.205
36.2172
36.2275
36.2613
36.2877
36.3352
36.3723
36.4288
36.4739
36.5366
36.5889
36.6558
36.7148
36.784
36.8494
36.9204
36.9897
37.0658
37.1301
37.2258
37.2645
37.4137
14.2726
12.6909
12.7698
12.9813
13.2321
13.4512
13.6591
13.8354
14.0074
14.152
14.2968
14.4176
14.543
14.647
14.7596
14.8528
14.958
15.0446
15.1464
15.229
15.3306
15.4104
15.5139
15.5906
15.6985
15.7704
15.8853
15.9491
16.0745
16.1249
16.2656
16.295
16.4561
16.4548
16.635
37.6239
37.2103
36.9818
36.889
36.8741
36.8852
36.8928
36.8937
36.8862
36.8768
36.8644
36.8534
36.8418
36.8322
36.8229
36.8154
36.8085
36.8032
36.7982
36.795
36.7911
36.7902
36.7867
36.7878
36.7844
36.7873
36.784
36.7881
36.7853