/*--------------------------------*- C++ -*----------------------------------*\
  =========                 |
  \\      /  F ield         | OpenFOAM: The Open Source CFD Toolbox
   \\    /   O peration     | Website:  https://openfoam.org
    \\  /    A nd           | Version:  6
     \\/     M anipulation  |
\*---------------------------------------------------------------------------*/
FoamFile
{
    version     2.0;
    format      ascii;
    class       volScalarField;
    location    "2";
    object      nut;
}
// * * * * * * * * * * * * * * * * * * * * * * * * * * * * * * * * * * * * * //

dimensions      [0 2 -1 0 0 0 0];

internalField   nonuniform List<scalar> 
63432
(
8.38093e-07
6.85065e-07
6.39911e-07
6.45252e-07
6.49487e-07
6.44435e-07
6.38907e-07
6.36046e-07
6.23665e-07
5.89983e-07
5.5749e-07
5.2315e-07
5.7319e-07
5.56451e-07
5.65101e-07
5.82222e-07
5.94878e-07
5.98562e-07
5.95499e-07
5.91793e-07
5.89698e-07
5.76602e-07
5.58177e-07
5.30405e-07
4.84145e-07
4.77712e-07
4.83189e-07
4.93314e-07
5.0715e-07
5.22384e-07
5.35928e-07
5.43585e-07
5.44052e-07
5.44615e-07
5.38758e-07
5.32636e-07
5.19226e-07
4.03612e-07
4.09054e-07
4.15038e-07
4.22624e-07
4.34005e-07
4.49011e-07
4.66247e-07
4.83495e-07
4.93629e-07
5.00954e-07
5.00506e-07
4.9922e-07
4.97606e-07
3.39715e-07
3.4612e-07
3.53192e-07
3.61456e-07
3.72202e-07
3.86275e-07
4.02887e-07
4.23047e-07
4.40651e-07
4.56725e-07
4.65252e-07
4.6877e-07
4.74483e-07
2.73565e-07
2.79842e-07
2.87706e-07
2.97053e-07
3.07521e-07
3.19209e-07
3.3307e-07
3.48528e-07
3.67813e-07
3.87297e-07
4.084e-07
4.25578e-07
4.36551e-07
4.50361e-07
2.20499e-07
2.27426e-07
2.36354e-07
2.47135e-07
2.59262e-07
2.72364e-07
2.87106e-07
3.02399e-07
3.20739e-07
3.39562e-07
3.61042e-07
3.82689e-07
3.99115e-07
4.21966e-07
1.75405e-07
1.82882e-07
1.92089e-07
2.03143e-07
2.15983e-07
2.29874e-07
2.45755e-07
2.61849e-07
2.80226e-07
2.99038e-07
3.19333e-07
3.42248e-07
3.60046e-07
3.88987e-07
1.32028e-07
1.37944e-07
1.45409e-07
1.54485e-07
1.65066e-07
1.77761e-07
1.91642e-07
2.07818e-07
2.24839e-07
2.43632e-07
2.63544e-07
2.83541e-07
3.07145e-07
3.24896e-07
3.55722e-07
1.00595e-07
1.06503e-07
1.13664e-07
1.22406e-07
1.32428e-07
1.44449e-07
1.57925e-07
1.73546e-07
1.90852e-07
2.09805e-07
2.30792e-07
2.51582e-07
2.7636e-07
2.95261e-07
3.26241e-07
7.52741e-08
8.06e-08
8.72126e-08
9.53413e-08
1.04775e-07
1.15959e-07
1.28774e-07
1.43561e-07
1.60422e-07
1.79086e-07
2.00392e-07
2.21999e-07
2.4801e-07
2.69151e-07
3.00907e-07
5.57944e-08
6.00667e-08
6.58076e-08
7.31264e-08
8.18574e-08
9.22744e-08
1.04376e-07
1.18375e-07
1.34562e-07
1.52602e-07
1.73635e-07
1.95383e-07
2.2203e-07
2.45027e-07
2.78141e-07
4.17032e-08
4.27744e-08
4.56886e-08
5.02258e-08
5.64783e-08
6.43404e-08
7.39413e-08
8.53861e-08
9.86851e-08
1.14331e-07
1.31751e-07
1.52379e-07
1.73841e-07
2.00492e-07
2.24406e-07
2.58074e-07
3.92571e-08
3.88531e-08
4.02542e-08
4.33927e-08
4.83174e-08
5.50861e-08
6.37202e-08
7.44751e-08
8.71496e-08
1.02382e-07
1.19382e-07
1.39715e-07
1.60955e-07
1.87307e-07
2.11864e-07
2.44564e-07
5.87907e-08
5.57796e-08
5.45452e-08
5.51815e-08
5.77748e-08
6.25304e-08
6.9426e-08
7.88102e-08
9.03906e-08
1.04858e-07
1.21327e-07
1.41322e-07
1.62553e-07
1.88602e-07
2.14238e-07
2.45056e-07
1.32961e-07
1.24253e-07
1.16858e-07
1.11419e-07
1.08305e-07
1.07927e-07
1.10317e-07
1.15953e-07
1.2447e-07
1.36592e-07
1.51281e-07
1.69953e-07
1.90403e-07
2.15489e-07
2.41658e-07
2.69919e-07
3.07597e-07
2.95683e-07
2.81602e-07
2.6672e-07
2.52757e-07
2.41377e-07
2.33252e-07
2.29284e-07
2.29064e-07
2.33478e-07
2.41248e-07
2.53803e-07
2.68657e-07
2.88379e-07
3.10221e-07
3.32354e-07
5.50214e-07
5.67202e-07
5.78482e-07
5.78485e-07
5.66646e-07
5.46729e-07
5.23005e-07
4.99695e-07
4.78402e-07
4.61487e-07
4.48172e-07
4.40641e-07
4.36202e-07
4.3798e-07
4.42716e-07
4.48708e-07
7.64417e-07
8.4938e-07
9.44701e-07
1.02472e-06
1.06859e-06
1.07131e-06
1.04065e-06
9.89976e-07
9.29944e-07
8.69417e-07
8.11427e-07
7.60457e-07
7.14299e-07
6.77573e-07
6.45601e-07
6.20206e-07
8.72721e-07
1.01505e-06
1.19686e-06
1.37694e-06
1.5061e-06
1.55763e-06
1.53548e-06
1.46266e-06
1.36319e-06
1.25634e-06
1.15129e-06
1.05538e-06
9.67081e-07
8.91684e-07
8.23538e-07
7.68109e-07
4.70837e-06
4.67818e-06
4.68903e-06
4.66563e-06
4.59799e-06
4.52697e-06
4.4716e-06
4.43035e-06
4.38983e-06
4.33697e-06
4.28921e-06
4.22725e-06
4.70911e-06
4.71362e-06
4.69153e-06
4.64054e-06
4.57465e-06
4.51098e-06
4.45479e-06
4.40892e-06
4.37308e-06
4.32806e-06
4.2905e-06
4.2354e-06
4.74892e-06
4.74692e-06
4.70648e-06
4.6472e-06
4.58563e-06
4.52755e-06
4.47671e-06
4.43028e-06
4.38345e-06
4.34932e-06
4.30557e-06
4.27626e-06
4.23388e-06
4.7736e-06
4.72566e-06
4.65732e-06
4.58708e-06
4.52672e-06
4.47559e-06
4.43119e-06
4.39651e-06
4.3559e-06
4.32705e-06
4.28639e-06
4.25763e-06
4.22676e-06
4.72972e-06
4.659e-06
4.58834e-06
4.52237e-06
4.46482e-06
4.41812e-06
4.37563e-06
4.34721e-06
4.31474e-06
4.29422e-06
4.26234e-06
4.23588e-06
4.2143e-06
4.70127e-06
4.62814e-06
4.55962e-06
4.49837e-06
4.44325e-06
4.39215e-06
4.35058e-06
4.31087e-06
4.2859e-06
4.25838e-06
4.24517e-06
4.22391e-06
4.20382e-06
4.19474e-06
4.56654e-06
4.49678e-06
4.43705e-06
4.38638e-06
4.34236e-06
4.30109e-06
4.26857e-06
4.23461e-06
4.21499e-06
4.19162e-06
4.18233e-06
4.17082e-06
4.15536e-06
4.16268e-06
4.38741e-06
4.33018e-06
4.28151e-06
4.24194e-06
4.21114e-06
4.18153e-06
4.16292e-06
4.13964e-06
4.12893e-06
4.11437e-06
4.10805e-06
4.10668e-06
4.09268e-06
4.11576e-06
4.21756e-06
4.16462e-06
4.12204e-06
4.08865e-06
4.06098e-06
4.04578e-06
4.0299e-06
4.0263e-06
4.01916e-06
4.01997e-06
4.02044e-06
4.02031e-06
4.03135e-06
4.02008e-06
4.05602e-06
3.91173e-06
3.88019e-06
3.85673e-06
3.8448e-06
3.83556e-06
3.83863e-06
3.84212e-06
3.8546e-06
3.86771e-06
3.88329e-06
3.90256e-06
3.91428e-06
3.94065e-06
3.93718e-06
3.98526e-06
3.54793e-06
3.5345e-06
3.53302e-06
3.54497e-06
3.5607e-06
3.58576e-06
3.61325e-06
3.646e-06
3.68171e-06
3.71652e-06
3.757e-06
3.78571e-06
3.83085e-06
3.84067e-06
3.90317e-06
3.15253e-06
3.14379e-06
3.15882e-06
3.19381e-06
3.23696e-06
3.28924e-06
3.34484e-06
3.40334e-06
3.46511e-06
3.52275e-06
3.58718e-06
3.63572e-06
3.7025e-06
3.72921e-06
3.80934e-06
2.90551e-06
2.81159e-06
2.77906e-06
2.78853e-06
2.83211e-06
2.89496e-06
2.97132e-06
3.05544e-06
3.14087e-06
3.23145e-06
3.3136e-06
3.404e-06
3.47348e-06
3.56284e-06
3.60802e-06
3.70605e-06
2.89321e-06
2.72231e-06
2.62428e-06
2.58723e-06
2.60037e-06
2.65138e-06
2.72712e-06
2.82262e-06
2.92267e-06
3.03307e-06
3.13338e-06
3.24367e-06
3.3302e-06
3.43613e-06
3.49846e-06
3.606e-06
3.63106e-06
3.32745e-06
3.09165e-06
2.92538e-06
2.82409e-06
2.78296e-06
2.78712e-06
2.83177e-06
2.89683e-06
2.98603e-06
3.07454e-06
3.17909e-06
3.26629e-06
3.37131e-06
3.44331e-06
3.54419e-06
5.37757e-06
4.86634e-06
4.4143e-06
4.03683e-06
3.73723e-06
3.51604e-06
3.36336e-06
3.27637e-06
3.23541e-06
3.23963e-06
3.26402e-06
3.3171e-06
3.37006e-06
3.44297e-06
3.50215e-06
3.57451e-06
7.6648e-06
6.87777e-06
6.1621e-06
5.5442e-06
5.03387e-06
4.62874e-06
4.31589e-06
4.08555e-06
3.9192e-06
3.81104e-06
3.74019e-06
3.70672e-06
3.68959e-06
3.69633e-06
3.70867e-06
3.72993e-06
9.48856e-06
8.47158e-06
7.56271e-06
6.78048e-06
6.13172e-06
5.6095e-06
5.19857e-06
4.88045e-06
4.63559e-06
4.44966e-06
4.30726e-06
4.20135e-06
4.11999e-06
4.06139e-06
4.01738e-06
3.98381e-06
1.07187e-05
9.54545e-06
8.52022e-06
7.64753e-06
6.92218e-06
6.3288e-06
5.85013e-06
5.46675e-06
5.16322e-06
4.92427e-06
4.73832e-06
4.59373e-06
4.48042e-06
4.39049e-06
4.31464e-06
4.24965e-06
1.13851e-05
1.01514e-05
9.07974e-06
8.16975e-06
7.40843e-06
6.77407e-06
6.24684e-06
5.81159e-06
5.45767e-06
5.17609e-06
4.95681e-06
4.79021e-06
4.66222e-06
4.56438e-06
4.48018e-06
4.4085e-06
1.0774e-05
1.06827e-05
1.06644e-05
1.06236e-05
1.04894e-05
1.03155e-05
1.01539e-05
1.00132e-05
9.87081e-06
9.70939e-06
9.5798e-06
9.41376e-06
1.07725e-05
1.07439e-05
1.07109e-05
1.06376e-05
1.05054e-05
1.03412e-05
1.01702e-05
1.00165e-05
9.88969e-06
9.7446e-06
9.63822e-06
9.47704e-06
1.08815e-05
1.08574e-05
1.0797e-05
1.07039e-05
1.05916e-05
1.0459e-05
1.03184e-05
1.01706e-05
1.00106e-05
9.88581e-06
9.73612e-06
9.64482e-06
9.50852e-06
1.09471e-05
1.08957e-05
1.07936e-05
1.06601e-05
1.05254e-05
1.03934e-05
1.02625e-05
1.0146e-05
1.00009e-05
9.88759e-06
9.73818e-06
9.64007e-06
9.52384e-06
1.09774e-05
1.08823e-05
1.07568e-05
1.06109e-05
1.04631e-05
1.033e-05
1.01951e-05
1.00914e-05
9.96422e-06
9.87015e-06
9.73809e-06
9.63875e-06
9.53467e-06
1.10165e-05
1.09199e-05
1.08027e-05
1.06739e-05
1.05376e-05
1.03924e-05
1.02622e-05
1.01239e-05
1.0021e-05
9.89909e-06
9.81825e-06
9.70678e-06
9.6173e-06
9.53568e-06
1.0946e-05
1.08205e-05
1.06915e-05
1.0563e-05
1.04364e-05
1.0301e-05
1.01811e-05
1.00448e-05
9.94461e-06
9.82262e-06
9.74217e-06
9.64629e-06
9.55784e-06
9.50911e-06
1.08015e-05
1.06702e-05
1.0538e-05
1.04105e-05
1.02941e-05
1.01669e-05
1.00643e-05
9.93859e-06
9.84682e-06
9.73517e-06
9.64952e-06
9.56953e-06
9.47079e-06
9.45011e-06
1.07485e-05
1.06137e-05
1.04809e-05
1.03524e-05
1.02208e-05
1.01124e-05
9.98986e-06
9.89821e-06
9.79008e-06
9.70636e-06
9.61722e-06
9.53158e-06
9.47215e-06
9.36685e-06
9.36592e-06
1.04877e-05
1.03565e-05
1.02244e-05
1.01062e-05
9.97842e-06
9.87586e-06
9.76474e-06
9.67785e-06
9.58989e-06
9.5142e-06
9.44985e-06
9.37307e-06
9.33754e-06
9.23719e-06
9.25641e-06
1.02094e-05
1.00553e-05
9.91356e-06
9.79558e-06
9.67538e-06
9.57605e-06
9.4786e-06
9.39827e-06
9.32839e-06
9.26473e-06
9.2238e-06
9.16245e-06
9.15388e-06
9.06748e-06
9.1128e-06
9.98885e-06
9.75435e-06
9.56697e-06
9.42646e-06
9.30341e-06
9.20692e-06
9.12259e-06
9.05461e-06
9.00491e-06
8.95736e-06
8.94211e-06
8.89888e-06
8.92073e-06
8.85315e-06
8.92932e-06
1.05897e-05
1.00366e-05
9.62025e-06
9.30408e-06
9.07963e-06
8.91275e-06
8.7947e-06
8.71198e-06
8.65091e-06
8.62334e-06
8.59342e-06
8.6089e-06
8.58685e-06
8.64268e-06
8.59926e-06
8.70614e-06
1.16897e-05
1.07951e-05
1.0061e-05
9.4822e-06
9.05094e-06
8.74272e-06
8.52769e-06
8.39524e-06
8.30526e-06
8.27637e-06
8.2492e-06
8.28328e-06
8.27752e-06
8.35656e-06
8.34018e-06
8.46257e-06
1.46762e-05
1.33529e-05
1.21381e-05
1.10827e-05
1.02092e-05
9.52675e-06
9.00779e-06
8.64669e-06
8.38853e-06
8.24639e-06
8.14508e-06
8.13328e-06
8.10839e-06
8.17034e-06
8.17097e-06
8.27393e-06
2.01161e-05
1.82796e-05
1.64538e-05
1.47384e-05
1.32056e-05
1.19052e-05
1.08414e-05
1.0021e-05
9.39518e-06
8.96141e-06
8.64524e-06
8.46521e-06
8.33297e-06
8.29671e-06
8.26081e-06
8.28715e-06
2.66595e-05
2.41862e-05
2.17073e-05
1.93384e-05
1.71777e-05
1.52854e-05
1.36841e-05
1.23769e-05
1.13325e-05
1.05314e-05
9.91499e-06
9.46675e-06
9.12697e-06
8.89536e-06
8.72893e-06
8.61218e-06
3.18214e-05
2.87957e-05
2.58437e-05
2.30587e-05
2.05269e-05
1.82938e-05
1.63817e-05
1.47721e-05
1.34446e-05
1.23582e-05
1.14852e-05
1.0785e-05
1.0235e-05
9.79841e-06
9.46892e-06
9.19731e-06
3.58761e-05
3.23407e-05
2.89897e-05
2.58898e-05
2.30983e-05
2.0634e-05
1.85021e-05
1.66734e-05
1.51322e-05
1.38365e-05
1.27753e-05
1.19039e-05
1.12122e-05
1.0652e-05
1.02114e-05
9.84557e-06
3.84456e-05
3.46147e-05
3.10192e-05
2.77117e-05
2.47337e-05
2.20949e-05
1.97879e-05
1.77894e-05
1.60832e-05
1.46463e-05
1.34629e-05
1.25048e-05
1.17416e-05
1.11388e-05
1.06519e-05
1.02584e-05
1.80367e-05
1.79435e-05
1.79306e-05
1.79252e-05
1.77979e-05
1.75824e-05
1.73482e-05
1.71051e-05
1.68278e-05
1.65179e-05
1.62771e-05
1.59763e-05
1.80772e-05
1.80455e-05
1.80355e-05
1.8006e-05
1.78917e-05
1.76929e-05
1.74373e-05
1.7174e-05
1.69326e-05
1.66486e-05
1.64521e-05
1.6134e-05
1.82364e-05
1.82274e-05
1.819e-05
1.81241e-05
1.80387e-05
1.79082e-05
1.77369e-05
1.75163e-05
1.72384e-05
1.70037e-05
1.67046e-05
1.65354e-05
1.62484e-05
1.83282e-05
1.83338e-05
1.82786e-05
1.81651e-05
1.80341e-05
1.78859e-05
1.77155e-05
1.75468e-05
1.72934e-05
1.70823e-05
1.67765e-05
1.65898e-05
1.63281e-05
1.84413e-05
1.84181e-05
1.83406e-05
1.82041e-05
1.80357e-05
1.78701e-05
1.76772e-05
1.75257e-05
1.73021e-05
1.71287e-05
1.68514e-05
1.66591e-05
1.64052e-05
1.84625e-05
1.84562e-05
1.84078e-05
1.83198e-05
1.81931e-05
1.80192e-05
1.78505e-05
1.76409e-05
1.7484e-05
1.72643e-05
1.71162e-05
1.68733e-05
1.66993e-05
1.64752e-05
1.84958e-05
1.84431e-05
1.8364e-05
1.8261e-05
1.81402e-05
1.79743e-05
1.78178e-05
1.76034e-05
1.74453e-05
1.72172e-05
1.70667e-05
1.68474e-05
1.66716e-05
1.65002e-05
1.84258e-05
1.83525e-05
1.82546e-05
1.8139e-05
1.80251e-05
1.78644e-05
1.77325e-05
1.75303e-05
1.73816e-05
1.71655e-05
1.69987e-05
1.68032e-05
1.66004e-05
1.64703e-05
1.83879e-05
1.8318e-05
1.82267e-05
1.81207e-05
1.79826e-05
1.78686e-05
1.77023e-05
1.75783e-05
1.73974e-05
1.72538e-05
1.70714e-05
1.68963e-05
1.67319e-05
1.65098e-05
1.64034e-05
1.81962e-05
1.8117e-05
1.8013e-05
1.79128e-05
1.77674e-05
1.76489e-05
1.74873e-05
1.73555e-05
1.71958e-05
1.70513e-05
1.69014e-05
1.67303e-05
1.65994e-05
1.63774e-05
1.62983e-05
1.80431e-05
1.79049e-05
1.77661e-05
1.76495e-05
1.75001e-05
1.73674e-05
1.72097e-05
1.70666e-05
1.69173e-05
1.67713e-05
1.66433e-05
1.64806e-05
1.63834e-05
1.61705e-05
1.61313e-05
1.80768e-05
1.77821e-05
1.7542e-05
1.73612e-05
1.7182e-05
1.70265e-05
1.6864e-05
1.67125e-05
1.65691e-05
1.64211e-05
1.63106e-05
1.61517e-05
1.60872e-05
1.58827e-05
1.58876e-05
1.95839e-05
1.87645e-05
1.81333e-05
1.76331e-05
1.72594e-05
1.69533e-05
1.6708e-05
1.64974e-05
1.63085e-05
1.61582e-05
1.5997e-05
1.5903e-05
1.57442e-05
1.57123e-05
1.55204e-05
1.55646e-05
2.23182e-05
2.0932e-05
1.97364e-05
1.87331e-05
1.79287e-05
1.72927e-05
1.67901e-05
1.64071e-05
1.60869e-05
1.58635e-05
1.56426e-05
1.55282e-05
1.53497e-05
1.53218e-05
1.51423e-05
1.51936e-05
2.84468e-05
2.64375e-05
2.44728e-05
2.26433e-05
2.10133e-05
1.96243e-05
1.84647e-05
1.75476e-05
1.68008e-05
1.62574e-05
1.57997e-05
1.55147e-05
1.52304e-05
1.5114e-05
1.49214e-05
1.49061e-05
3.85191e-05
3.58711e-05
3.30641e-05
3.02405e-05
2.75307e-05
2.50436e-05
2.28388e-05
2.09718e-05
1.94157e-05
1.81938e-05
1.72111e-05
1.64976e-05
1.5921e-05
1.55401e-05
1.52198e-05
1.50111e-05
5.02928e-05
4.67985e-05
4.30998e-05
3.93434e-05
3.56864e-05
3.22434e-05
2.91099e-05
2.6336e-05
2.39483e-05
2.19422e-05
2.02877e-05
1.89456e-05
1.78675e-05
1.70028e-05
1.63449e-05
1.5778e-05
6.00289e-05
5.57732e-05
5.13962e-05
4.70216e-05
4.27966e-05
3.88098e-05
3.51583e-05
3.18452e-05
2.89196e-05
2.63246e-05
2.41042e-05
2.2165e-05
2.05666e-05
1.91792e-05
1.80995e-05
1.71331e-05
6.92171e-05
6.39306e-05
5.87035e-05
5.36342e-05
4.88304e-05
4.43425e-05
4.02287e-05
3.64654e-05
3.30906e-05
3.00427e-05
2.73844e-05
2.5027e-05
2.30508e-05
2.13276e-05
1.99321e-05
1.87057e-05
7.5735e-05
6.96363e-05
6.37386e-05
5.81113e-05
5.2824e-05
4.79079e-05
4.33853e-05
3.92447e-05
3.55023e-05
3.21452e-05
2.92016e-05
2.66453e-05
2.44788e-05
2.26451e-05
2.11024e-05
1.97921e-05
2.59217e-05
2.59187e-05
2.59846e-05
2.60841e-05
2.60595e-05
2.59008e-05
2.56842e-05
2.54015e-05
2.5013e-05
2.45513e-05
2.41815e-05
2.3739e-05
2.60154e-05
2.60663e-05
2.61405e-05
2.62206e-05
2.62228e-05
2.61005e-05
2.58569e-05
2.55518e-05
2.52277e-05
2.48081e-05
2.45177e-05
2.40119e-05
2.61376e-05
2.62445e-05
2.63055e-05
2.6335e-05
2.63538e-05
2.63231e-05
2.62309e-05
2.60366e-05
2.57111e-05
2.54062e-05
2.49604e-05
2.47253e-05
2.42503e-05
2.62376e-05
2.63898e-05
2.64714e-05
2.64713e-05
2.64416e-05
2.6378e-05
2.62701e-05
2.61467e-05
2.58563e-05
2.55976e-05
2.51377e-05
2.48794e-05
2.44348e-05
2.6418e-05
2.6564e-05
2.66437e-05
2.66296e-05
2.6549e-05
2.64532e-05
2.62945e-05
2.61857e-05
2.59339e-05
2.57407e-05
2.53259e-05
2.50627e-05
2.46184e-05
2.6278e-05
2.64717e-05
2.66125e-05
2.66933e-05
2.67049e-05
2.66195e-05
2.65192e-05
2.63266e-05
2.62017e-05
2.59461e-05
2.57958e-05
2.54344e-05
2.5209e-05
2.48026e-05
2.64017e-05
2.65507e-05
2.66559e-05
2.67122e-05
2.67304e-05
2.66532e-05
2.65708e-05
2.63655e-05
2.6235e-05
2.59561e-05
2.58017e-05
2.54737e-05
2.52503e-05
2.49233e-05
2.63915e-05
2.65225e-05
2.66042e-05
2.66387e-05
2.66635e-05
2.659e-05
2.65449e-05
2.63563e-05
2.62404e-05
2.59753e-05
2.57926e-05
2.54982e-05
2.52311e-05
2.49625e-05
2.62395e-05
2.63874e-05
2.64878e-05
2.6552e-05
2.65441e-05
2.65602e-05
2.6469e-05
2.643e-05
2.62688e-05
2.61583e-05
2.59428e-05
2.57448e-05
2.54954e-05
2.51978e-05
2.49561e-05
2.61354e-05
2.62603e-05
2.63353e-05
2.64044e-05
2.63803e-05
2.63835e-05
2.62922e-05
2.62339e-05
2.60979e-05
2.59797e-05
2.58087e-05
2.56135e-05
2.54099e-05
2.51119e-05
2.49051e-05
2.61684e-05
2.6182e-05
2.61886e-05
2.62227e-05
2.61853e-05
2.61584e-05
2.60639e-05
2.59771e-05
2.58447e-05
2.57116e-05
2.55616e-05
2.53693e-05
2.52079e-05
2.49158e-05
2.47665e-05
2.6506e-05
2.62768e-05
2.61223e-05
2.60503e-05
2.59618e-05
2.58928e-05
2.57824e-05
2.56717e-05
2.55341e-05
2.53816e-05
2.52395e-05
2.50334e-05
2.49053e-05
2.46058e-05
2.45146e-05
2.88449e-05
2.78865e-05
2.71799e-05
2.66425e-05
2.62738e-05
2.59801e-05
2.57573e-05
2.55525e-05
2.53616e-05
2.51876e-05
2.49875e-05
2.48431e-05
2.46072e-05
2.45038e-05
2.41948e-05
2.41461e-05
3.30668e-05
3.14091e-05
2.99697e-05
2.87492e-05
2.77687e-05
2.69838e-05
2.63584e-05
2.5864e-05
2.54374e-05
2.51117e-05
2.47777e-05
2.45597e-05
2.42513e-05
2.41144e-05
2.37857e-05
2.37171e-05
4.19689e-05
3.96492e-05
3.73112e-05
3.50624e-05
3.29971e-05
3.11738e-05
2.95969e-05
2.82881e-05
2.71748e-05
2.62988e-05
2.55301e-05
2.49706e-05
2.44264e-05
2.40809e-05
2.36742e-05
2.34493e-05
5.62475e-05
5.33732e-05
5.01759e-05
4.6809e-05
4.34348e-05
4.01905e-05
3.71822e-05
3.44973e-05
3.21515e-05
3.01822e-05
2.8526e-05
2.71985e-05
2.6101e-05
2.52328e-05
2.45393e-05
2.39148e-05
7.30877e-05
6.94028e-05
6.53105e-05
6.09527e-05
5.65135e-05
5.21223e-05
4.79369e-05
4.40206e-05
4.04864e-05
3.73168e-05
3.45852e-05
3.21804e-05
3.01879e-05
2.84015e-05
2.70347e-05
2.56757e-05
8.7861e-05
8.34991e-05
7.87574e-05
7.37615e-05
6.86995e-05
6.36703e-05
5.88445e-05
5.42134e-05
4.99289e-05
4.58686e-05
4.22349e-05
3.87995e-05
3.58643e-05
3.30698e-05
3.08542e-05
2.86606e-05
0.000104498
9.85347e-05
9.24017e-05
8.62209e-05
8.01449e-05
7.42373e-05
6.86114e-05
6.32249e-05
5.81912e-05
5.33857e-05
4.90045e-05
4.48479e-05
4.12107e-05
3.77862e-05
3.49218e-05
3.21979e-05
0.000117465
0.000109856
0.000102343
9.5009e-05
8.79431e-05
8.11819e-05
7.477e-05
6.86898e-05
6.29925e-05
5.7654e-05
5.27685e-05
4.82931e-05
4.43141e-05
4.07332e-05
3.75773e-05
3.47231e-05
3.42525e-05
3.44051e-05
3.46087e-05
3.48589e-05
3.5011e-05
3.49898e-05
3.48819e-05
3.4659e-05
3.42446e-05
3.36827e-05
3.31948e-05
3.26355e-05
3.43381e-05
3.45563e-05
3.47801e-05
3.50161e-05
3.52072e-05
3.52588e-05
3.51349e-05
3.48927e-05
3.45691e-05
3.40741e-05
3.37156e-05
3.30295e-05
3.43068e-05
3.46291e-05
3.48689e-05
3.50605e-05
3.52387e-05
3.53777e-05
3.54626e-05
3.5408e-05
3.51473e-05
3.48617e-05
3.43291e-05
3.40732e-05
3.34122e-05
3.43485e-05
3.47457e-05
3.50508e-05
3.52472e-05
3.53998e-05
3.5505e-05
3.55578e-05
3.55923e-05
3.53791e-05
3.51744e-05
3.46218e-05
3.43482e-05
3.3726e-05
3.45631e-05
3.497e-05
3.52995e-05
3.55047e-05
3.56111e-05
3.56837e-05
3.56578e-05
3.56989e-05
3.55259e-05
3.54209e-05
3.49362e-05
3.4668e-05
3.40417e-05
3.40745e-05
3.45722e-05
3.50063e-05
3.53663e-05
3.56342e-05
3.57555e-05
3.58399e-05
3.57711e-05
3.57862e-05
3.55935e-05
3.5551e-05
3.51413e-05
3.49437e-05
3.43688e-05
3.42432e-05
3.47033e-05
3.51072e-05
3.54419e-05
3.57262e-05
3.5864e-05
3.59825e-05
3.58989e-05
3.59099e-05
3.56732e-05
3.56245e-05
3.52568e-05
3.5073e-05
3.46135e-05
3.42047e-05
3.4671e-05
3.50668e-05
3.53846e-05
3.5687e-05
3.58345e-05
3.60132e-05
3.59579e-05
3.59985e-05
3.57802e-05
3.56918e-05
3.53687e-05
3.5126e-05
3.47482e-05
3.37738e-05
3.42749e-05
3.47053e-05
3.50828e-05
3.5343e-05
3.56321e-05
3.57509e-05
3.5937e-05
3.59186e-05
3.59709e-05
3.58246e-05
3.57185e-05
3.54581e-05
3.51788e-05
3.48328e-05
3.37133e-05
3.41814e-05
3.45802e-05
3.49704e-05
3.52127e-05
3.54866e-05
3.56048e-05
3.57642e-05
3.57795e-05
3.58225e-05
3.57391e-05
3.56423e-05
3.54446e-05
3.51737e-05
3.48735e-05
3.39889e-05
3.42644e-05
3.45443e-05
3.48733e-05
3.50917e-05
3.53203e-05
3.543e-05
3.55453e-05
3.55599e-05
3.55776e-05
3.5517e-05
3.54243e-05
3.5282e-05
3.50222e-05
3.48045e-05
3.47038e-05
3.46153e-05
3.46496e-05
3.48157e-05
3.49574e-05
3.51265e-05
3.52149e-05
3.52982e-05
3.53029e-05
3.52911e-05
3.52341e-05
3.51149e-05
3.50105e-05
3.47311e-05
3.45907e-05
3.79177e-05
3.68569e-05
3.61366e-05
3.56478e-05
3.53965e-05
3.52441e-05
3.51913e-05
3.51399e-05
3.51051e-05
3.50501e-05
3.49633e-05
3.48906e-05
3.47167e-05
3.46321e-05
3.43237e-05
3.42291e-05
4.33547e-05
4.15463e-05
3.99918e-05
3.86905e-05
3.76828e-05
3.69038e-05
3.63226e-05
3.58806e-05
3.55201e-05
3.52477e-05
3.49648e-05
3.47735e-05
3.44822e-05
3.43259e-05
3.39693e-05
3.38178e-05
5.41871e-05
5.18136e-05
4.93829e-05
4.70068e-05
4.4802e-05
4.28298e-05
4.1111e-05
3.96593e-05
3.84148e-05
3.74013e-05
3.65105e-05
3.58102e-05
3.5155e-05
3.46503e-05
3.4148e-05
3.37157e-05
7.13632e-05
6.87207e-05
6.56291e-05
6.22345e-05
5.87178e-05
5.52225e-05
5.18912e-05
4.88127e-05
4.6055e-05
4.36312e-05
4.15578e-05
3.9771e-05
3.83112e-05
3.69882e-05
3.60225e-05
3.49071e-05
9.21421e-05
8.89887e-05
8.52594e-05
8.10692e-05
7.66129e-05
7.20069e-05
6.74642e-05
6.30254e-05
5.89031e-05
5.50036e-05
5.15673e-05
4.83024e-05
4.55815e-05
4.28462e-05
4.08157e-05
3.84459e-05
0.00011154
0.000108178
0.000104162
9.95971e-05
9.4698e-05
8.95517e-05
8.44042e-05
7.92004e-05
7.4223e-05
6.92107e-05
6.46026e-05
5.98898e-05
5.57994e-05
5.14941e-05
4.80935e-05
4.42996e-05
0.000137445
0.000132016
0.000126105
0.000119855
0.000113464
0.000107004
0.00010065
9.43221e-05
8.82308e-05
8.21365e-05
7.64225e-05
7.06701e-05
6.55136e-05
6.02859e-05
5.58391e-05
5.12296e-05
0.000159422
0.000151245
0.000142984
0.000134743
0.000126638
0.000118708
0.000111023
0.00010355
9.63789e-05
8.94513e-05
8.29418e-05
7.67468e-05
7.10725e-05
6.57144e-05
6.08296e-05
5.61458e-05
4.31209e-05
4.34621e-05
4.38369e-05
4.42492e-05
4.46127e-05
4.47649e-05
4.48117e-05
4.47353e-05
4.44136e-05
4.38515e-05
4.32897e-05
4.2666e-05
4.30889e-05
4.35305e-05
4.39558e-05
4.43698e-05
4.4784e-05
4.50635e-05
4.51298e-05
4.5042e-05
4.4822e-05
4.43572e-05
4.39896e-05
4.31711e-05
4.28075e-05
4.34038e-05
4.38759e-05
4.42809e-05
4.46488e-05
4.4988e-05
4.53034e-05
4.54674e-05
4.53758e-05
4.52131e-05
4.46958e-05
4.44938e-05
4.36953e-05
4.26658e-05
4.33802e-05
4.39734e-05
4.44291e-05
4.48194e-05
4.51429e-05
4.54173e-05
4.5691e-05
4.56637e-05
4.56282e-05
4.50865e-05
4.48842e-05
4.41389e-05
4.28652e-05
4.35964e-05
4.42378e-05
4.47273e-05
4.50895e-05
4.53981e-05
4.5575e-05
4.58465e-05
4.58536e-05
4.59551e-05
4.55091e-05
4.53336e-05
4.45876e-05
4.18103e-05
4.26909e-05
4.3495e-05
4.42126e-05
4.48214e-05
4.524e-05
4.56016e-05
4.57463e-05
4.59928e-05
4.59593e-05
4.61408e-05
4.57911e-05
4.573e-05
4.50586e-05
4.1959e-05
4.28061e-05
4.35864e-05
4.4281e-05
4.49229e-05
4.53745e-05
4.58003e-05
4.59407e-05
4.6199e-05
4.61003e-05
4.62728e-05
4.59688e-05
4.59385e-05
4.54277e-05
4.17239e-05
4.26267e-05
4.34407e-05
4.41448e-05
4.48356e-05
4.53161e-05
4.58409e-05
4.60337e-05
4.63536e-05
4.62872e-05
4.64131e-05
4.61647e-05
4.60612e-05
4.56601e-05
4.08411e-05
4.17913e-05
4.26556e-05
4.34595e-05
4.40987e-05
4.47807e-05
4.52268e-05
4.57668e-05
4.60112e-05
4.63578e-05
4.63958e-05
4.65093e-05
4.63465e-05
4.62061e-05
4.58442e-05
4.06858e-05
4.1603e-05
4.24445e-05
4.32878e-05
4.39239e-05
4.46028e-05
4.50585e-05
4.55736e-05
4.58679e-05
4.62113e-05
4.63391e-05
4.64796e-05
4.64024e-05
4.62908e-05
4.5991e-05
4.12307e-05
4.18342e-05
4.2485e-05
4.32327e-05
4.3835e-05
4.44566e-05
4.49027e-05
4.53617e-05
4.56542e-05
4.59663e-05
4.61222e-05
4.62763e-05
4.62734e-05
4.61898e-05
4.6007e-05
4.23983e-05
4.24649e-05
4.27473e-05
4.32506e-05
4.37411e-05
4.42856e-05
4.47103e-05
4.51372e-05
4.54234e-05
4.57056e-05
4.58675e-05
4.59917e-05
4.60382e-05
4.59311e-05
4.58529e-05
4.67227e-05
4.54995e-05
4.47399e-05
4.43111e-05
4.42309e-05
4.43034e-05
4.45362e-05
4.47648e-05
4.50339e-05
4.52396e-05
4.54265e-05
4.55675e-05
4.56216e-05
4.56913e-05
4.55459e-05
4.55237e-05
5.31748e-05
5.12422e-05
4.96013e-05
4.82589e-05
4.72862e-05
4.65942e-05
4.61666e-05
4.58992e-05
4.57523e-05
4.56795e-05
4.5619e-05
4.5608e-05
4.55178e-05
4.54883e-05
4.52851e-05
4.51706e-05
6.5058e-05
6.276e-05
6.03883e-05
5.80546e-05
5.58986e-05
5.39735e-05
5.23212e-05
5.09317e-05
4.97713e-05
4.88178e-05
4.80181e-05
4.73535e-05
4.67974e-05
4.62782e-05
4.58865e-05
4.5345e-05
8.34645e-05
8.13484e-05
7.87049e-05
7.56631e-05
7.24139e-05
6.90894e-05
6.58631e-05
6.27993e-05
6.0028e-05
5.74975e-05
5.53489e-05
5.3361e-05
5.1824e-05
5.02015e-05
4.92087e-05
4.76458e-05
0.000106478
0.00010436
0.000101562
9.81564e-05
9.43365e-05
9.01843e-05
8.59617e-05
8.16542e-05
7.75881e-05
7.35285e-05
6.99435e-05
6.62294e-05
6.32072e-05
5.97149e-05
5.73081e-05
5.388e-05
0.000129368
0.000127871
0.000125491
0.000122286
0.00011848
0.000114127
0.000109548
0.000104613
9.97592e-05
9.45161e-05
8.96334e-05
8.41613e-05
7.94379e-05
7.38443e-05
6.95575e-05
6.40571e-05
0.0001655
0.000161697
0.000157071
0.000151773
0.000146047
0.00013996
0.000133759
0.00012731
0.000120942
0.000114256
0.000107874
0.000101053
9.48876e-05
8.81464e-05
8.24194e-05
7.59216e-05
0.000198564
0.000190761
0.000182646
0.000174348
0.000166009
0.000157676
0.00014945
0.000141274
0.000133291
0.000125385
0.000117833
0.000110429
0.000103537
9.67724e-05
9.04815e-05
8.41307e-05
5.28435e-05
5.33623e-05
5.39068e-05
5.44623e-05
5.5035e-05
5.53557e-05
5.5544e-05
5.56486e-05
5.55276e-05
5.50853e-05
5.45175e-05
5.38982e-05
5.25677e-05
5.324e-05
5.38869e-05
5.44751e-05
5.51113e-05
5.56275e-05
5.58992e-05
5.60052e-05
5.59691e-05
5.56537e-05
5.53578e-05
5.44859e-05
5.20101e-05
5.28711e-05
5.35753e-05
5.42094e-05
5.47686e-05
5.53023e-05
5.58535e-05
5.62589e-05
5.6392e-05
5.64275e-05
5.60351e-05
5.59756e-05
5.51254e-05
5.15248e-05
5.25663e-05
5.34636e-05
5.42041e-05
5.48558e-05
5.54113e-05
5.59235e-05
5.64638e-05
5.66863e-05
5.69062e-05
5.64853e-05
5.645e-05
5.56745e-05
5.16669e-05
5.27201e-05
5.36806e-05
5.44709e-05
5.5115e-05
5.56855e-05
5.60931e-05
5.66255e-05
5.68711e-05
5.72662e-05
5.6972e-05
5.6993e-05
5.62309e-05
4.98473e-05
5.11201e-05
5.23123e-05
5.34146e-05
5.43985e-05
5.51597e-05
5.58486e-05
5.62597e-05
5.67876e-05
5.69736e-05
5.74629e-05
5.72833e-05
5.74684e-05
5.68158e-05
4.99141e-05
5.11496e-05
5.2316e-05
5.33906e-05
5.4423e-05
5.52351e-05
5.60286e-05
5.6459e-05
5.70354e-05
5.71425e-05
5.76209e-05
5.74839e-05
5.77165e-05
5.72766e-05
4.92266e-05
5.06031e-05
5.18812e-05
5.30203e-05
5.41578e-05
5.5035e-05
5.59851e-05
5.6507e-05
5.71993e-05
5.737e-05
5.7805e-05
5.77364e-05
5.78815e-05
5.75791e-05
4.77978e-05
4.9197e-05
5.05192e-05
5.17961e-05
5.28672e-05
5.40106e-05
5.48545e-05
5.58367e-05
5.64313e-05
5.71754e-05
5.74967e-05
5.79367e-05
5.79843e-05
5.80995e-05
5.7845e-05
4.72883e-05
4.8678e-05
5.00144e-05
5.13889e-05
5.24987e-05
5.36749e-05
5.45572e-05
5.55319e-05
5.62051e-05
5.6963e-05
5.74125e-05
5.79115e-05
5.8076e-05
5.82533e-05
5.80838e-05
4.81004e-05
4.8994e-05
5.00378e-05
5.12729e-05
5.23435e-05
5.34592e-05
5.4341e-05
5.52555e-05
5.59328e-05
5.66593e-05
5.71459e-05
5.76776e-05
5.79413e-05
5.81754e-05
5.81673e-05
4.97431e-05
4.98729e-05
5.03823e-05
5.12644e-05
5.21794e-05
5.32041e-05
5.40748e-05
5.497e-05
5.5657e-05
5.63662e-05
5.68712e-05
5.73805e-05
5.7714e-05
5.79304e-05
5.80632e-05
5.56204e-05
5.40482e-05
5.3105e-05
5.26443e-05
5.27057e-05
5.30217e-05
5.36064e-05
5.42032e-05
5.48923e-05
5.5477e-05
5.60753e-05
5.65614e-05
5.69945e-05
5.73652e-05
5.75451e-05
5.77553e-05
6.29792e-05
6.08636e-05
5.90641e-05
5.76122e-05
5.66322e-05
5.60121e-05
5.57626e-05
5.572e-05
5.58729e-05
5.60986e-05
5.63902e-05
5.66912e-05
5.69644e-05
5.72187e-05
5.73532e-05
5.74442e-05
7.52582e-05
7.30528e-05
7.07622e-05
6.85036e-05
6.64493e-05
6.46401e-05
6.31477e-05
6.19253e-05
6.09785e-05
6.02141e-05
5.96619e-05
5.91741e-05
5.89e-05
5.85158e-05
5.84497e-05
5.79442e-05
9.33573e-05
9.18966e-05
8.98684e-05
8.73842e-05
8.46454e-05
8.176e-05
7.89315e-05
7.61776e-05
7.3701e-05
7.13466e-05
6.94209e-05
6.74713e-05
6.61401e-05
6.43942e-05
6.36567e-05
6.17419e-05
0.000116875
0.000116022
0.000114466
0.000112228
0.000109492
0.000106286
0.000102916
9.92839e-05
9.58429e-05
9.21581e-05
8.89829e-05
8.52726e-05
8.24482e-05
7.84864e-05
7.6105e-05
7.16816e-05
0.000141865
0.000142688
0.000142497
0.00014128
0.000139252
0.000136416
0.000133159
0.000129251
0.000125299
0.000120565
0.000116166
0.00011057
0.000105882
9.94224e-05
9.47532e-05
8.76724e-05
0.000188275
0.000186775
0.000184167
0.000180591
0.000176317
0.0001714
0.000166153
0.000160374
0.000154519
0.000147999
0.000141706
0.000134496
0.000128007
0.000120291
0.000113849
0.000105797
0.000233421
0.000226684
0.000219423
0.000211778
0.000203921
0.000195896
0.000187839
0.000179665
0.000171572
0.000163377
0.00015547
0.000147514
0.000140067
0.000132507
0.000125418
0.000117916
6.39225e-05
6.45566e-05
6.52216e-05
6.58724e-05
6.66168e-05
6.70779e-05
6.73532e-05
6.76089e-05
6.7745e-05
6.75223e-05
6.70161e-05
6.64692e-05
6.33112e-05
6.4156e-05
6.49887e-05
6.57126e-05
6.65336e-05
6.72596e-05
6.77065e-05
6.79824e-05
6.8154e-05
6.80795e-05
6.79323e-05
6.70959e-05
6.25557e-05
6.35849e-05
6.44493e-05
6.52692e-05
6.59814e-05
6.6669e-05
6.74211e-05
6.80393e-05
6.83913e-05
6.86406e-05
6.84487e-05
6.86069e-05
6.78044e-05
6.15953e-05
6.28761e-05
6.4015e-05
6.50026e-05
6.58907e-05
6.66519e-05
6.73772e-05
6.81579e-05
6.86337e-05
6.91357e-05
6.89094e-05
6.91159e-05
6.84158e-05
6.16743e-05
6.29402e-05
6.41405e-05
6.5177e-05
6.60704e-05
6.68783e-05
6.74997e-05
6.82705e-05
6.87534e-05
6.94686e-05
6.94023e-05
6.9698e-05
6.90351e-05
5.90195e-05
6.05671e-05
6.2059e-05
6.34845e-05
6.48012e-05
6.58846e-05
6.68917e-05
6.75731e-05
6.83816e-05
6.87936e-05
6.96148e-05
6.96777e-05
7.01867e-05
6.96798e-05
5.89962e-05
6.04801e-05
6.19224e-05
6.32966e-05
6.46633e-05
6.58065e-05
6.69591e-05
6.76889e-05
6.8602e-05
6.89344e-05
6.97461e-05
6.98432e-05
7.041e-05
7.01706e-05
5.75594e-05
5.93102e-05
6.09845e-05
6.25102e-05
6.40648e-05
6.53236e-05
6.6707e-05
6.7578e-05
6.86823e-05
6.91323e-05
6.99195e-05
7.01034e-05
7.05676e-05
7.04881e-05
5.57644e-05
5.73976e-05
5.90298e-05
6.06882e-05
6.21316e-05
6.37099e-05
6.49394e-05
6.63796e-05
6.7349e-05
6.8537e-05
6.91986e-05
7.00235e-05
7.03651e-05
7.08164e-05
7.07926e-05
5.45472e-05