/*--------------------------------*- C++ -*----------------------------------*\
  =========                 |
  \\      /  F ield         | OpenFOAM: The Open Source CFD Toolbox
   \\    /   O peration     | Website:  https://openfoam.org
    \\  /    A nd           | Version:  6
     \\/     M anipulation  |
\*---------------------------------------------------------------------------*/
FoamFile
{
    version     2.0;
    format      ascii;
    class       volScalarField;
    location    "2";
    object      omega;
}
// * * * * * * * * * * * * * * * * * * * * * * * * * * * * * * * * * * * * * //

dimensions      [0 0 -1 0 0 0 0];

internalField   nonuniform List<scalar> 
63432
(
843.917
843.917
843.917
843.917
843.917
843.917
843.917
843.917
843.917
843.917
843.917
843.917
843.917
843.917
843.917
843.917
843.917
843.917
843.917
843.917
843.917
843.917
843.917
843.917
843.917
843.917
843.917
843.917
843.917
843.917
843.917
843.917
843.917
843.917
843.917
843.917
843.917
843.917
843.917
843.917
843.917
843.917
843.917
843.917
843.917
843.917
843.917
843.917
843.917
843.917
843.917
843.917
843.917
843.917
843.917
843.917
843.917
843.917
843.917
843.917
843.917
843.917
843.917
843.917
843.917
843.917
843.917
843.917
843.917
843.917
843.917
843.917
843.917
843.917
843.917
843.917
843.917
843.917
843.917
843.917
843.917
843.917
843.917
843.917
843.917
843.917
843.917
843.917
843.917
843.917
843.917
843.917
843.917
843.917
843.917
843.917
843.917
843.917
843.917
843.917
843.917
843.917
843.917
843.917
843.917
843.917
843.917
843.917
843.917
843.917
843.917
843.917
843.917
843.917
843.917
843.917
843.917
843.917
843.917
843.917
843.917
843.917
843.917
843.917
843.917
843.917
843.917
843.917
843.917
843.917
843.917
843.917
843.917
843.917
843.917
843.917
843.917
843.917
843.917
843.917
843.917
843.917
843.917
843.917
843.917
843.917
843.917
843.917
843.917
843.917
843.917
843.917
843.917
843.917
843.917
843.917
843.917
843.917
843.917
843.917
843.917
843.917
843.917
843.917
843.917
843.917
843.917
843.917
843.917
843.917
843.917
843.917
843.917
843.917
843.917
843.917
843.917
843.917
843.917
843.917
843.917
843.917
843.917
843.917
843.917
843.917
843.917
843.917
843.917
843.917
843.917
843.917
843.917
843.917
843.917
843.917
843.917
843.917
843.917
843.917
843.917
843.917
843.917
843.917
843.917
843.917
843.917
843.917
843.917
843.917
843.917
843.917
843.917
843.917
843.917
843.917
843.917
843.917
843.917
843.917
843.917
843.917
843.917
843.917
843.917
843.917
843.917
843.917
843.917
843.917
843.917
843.917
843.917
843.917
843.917
843.917
843.917
843.917
843.917
843.917
843.917
843.917
843.917
843.917
843.917
843.917
843.917
843.917
843.917
843.917
843.917
843.917
843.917
843.917
843.917
843.917
843.917
843.917
843.917
843.917
843.917
843.917
843.917
843.917
843.917
843.917
843.917
843.917
843.917
843.917
843.917
843.917
843.917
843.917
843.917
843.917
843.917
843.917
843.917
843.917
843.917
843.917
843.917
843.917
843.917
843.917
843.917
843.917
843.917
843.917
843.917
843.917
843.917
271.582
269.531
267.225
265.594
264.926
264.867
265.057
265.334
265.626
265.828
265.809
265.65
269.818
267.473
265.698
264.721
264.403
264.432
264.615
264.861
265.105
265.318
265.408
265.345
270.521
267.91
266.115
265.051
264.522
264.316
264.297
264.41
264.634
264.889
265.142
265.29
265.272
268.333
266.376
265.208
264.556
264.198
264.014
263.956
264.015
264.203
264.451
264.732
264.945
264.995
266.51
265.171
264.343
263.838
263.536
263.38
263.351
263.422
263.609
263.86
264.156
264.433
264.541
266.477
264.974
263.95
263.253
262.804
262.549
262.449
262.487
262.626
262.872
263.173
263.509
263.855
264.004
264.425
263.183
262.303
261.704
261.347
261.187
261.185
261.324
261.564
261.909
262.313
262.737
263.194
263.405
261.808
260.708
259.974
259.543
259.359
259.379
259.545
259.843
260.229
260.703
261.243
261.784
262.39
262.695
259.42
258.081
257.21
256.731
256.579
256.681
256.988
257.429
257.976
258.593
259.255
259.97
260.652
261.423
261.843
253.617
252.69
252.268
252.246
252.548
253.095
253.828
254.68
255.6
256.56
257.513
258.48
259.359
260.32
260.88
244.959
244.856
245.263
246.041
247.09
248.329
249.695
251.128
252.576
254.01
255.379
256.706
257.878
259.09
259.844
232.559
233.826
235.581
237.634
239.851
242.136
244.427
246.675
248.837
250.898
252.808
254.605
256.168
257.715
258.736
214.875
216.977
219.955
223.449
227.189
230.967
234.652
238.168
241.473
244.537
247.368
249.926
252.275
254.292
256.231
257.575
199.066
202.474
206.874
211.856
217.078
222.301
227.343
232.087
236.473
240.463
244.074
247.277
250.158
252.604
254.895
256.532
190.658
194.635
199.707
205.454
211.505
217.556
223.367
228.802
233.79
238.292
242.333
245.886
249.05
251.724
254.186
255.995
187.402
191.306
196.684
203.086
209.964
216.839
223.347
229.288
234.579
239.208
243.25
246.733
249.791
252.356
254.7
256.436
184.29
187.919
193.246
199.974
207.571
215.445
223.057
230.014
236.105
241.275
245.59
249.129
252.07
254.429
256.51
257.978
180.865
184.808
190.208
196.885
204.466
212.489
220.473
228.046
234.919
240.936
246.035
250.235
253.644
256.292
258.469
259.896
179.388
183.462
188.815
195.229
202.36
209.861
217.414
224.778
231.728
238.119
243.812
248.756
252.932
256.327
259.097
261.011
178.923
182.793
188
194.273
201.184
208.359
215.549
222.605
229.384
235.764
241.612
246.851
251.432
255.316
258.561
261.017
139.777
137.534
135.312
133.449
132.134
131.315
130.877
130.732
130.736
130.702
130.506
130.187
138.166
136.012
134.155
132.687
131.624
130.92
130.502
130.31
130.261
130.242
130.153
129.929
139.297
136.911
134.957
133.391
132.182
131.279
130.644
130.24
130.029
129.961
129.949
129.921
129.784
138.103
135.932
134.182
132.803
131.736
130.917
130.311
129.907
129.679
129.6
129.594
129.6
129.547
137.083
135.107
133.507
132.232
131.231
130.456
129.869
129.466
129.226
129.137
129.139
129.171
129.186
138.402
136.181
134.335
132.821
131.598
130.626
129.875
129.307
128.916
128.68
128.593
128.609
128.671
128.736
137.403
135.257
133.47
131.997
130.802
129.852
129.122
128.578
128.212
128
127.936
127.984
128.091
128.212
136.267
134.133
132.362
130.914
129.75
128.834
128.145
127.642
127.32
127.152
127.13
127.227
127.395
127.589
137.306
134.731
132.593
130.84
129.426
128.32
127.472
126.861
126.44
126.198
126.109
126.153
126.321
126.561
126.836
135.023
132.441
130.337
128.652
127.328
126.335
125.615
125.141
124.868
124.764
124.812
124.973
125.248
125.587
125.956
131.31
128.844
126.907
125.421
124.312
123.54
123.052
122.809
122.771
122.893
123.159
123.516
123.965
124.46
124.96
125.276
123.193
121.679
120.631
119.958
119.605
119.52
119.658
119.986
120.449
121.038
121.688
122.401
123.132
123.828
118.476
116.338
114.97
114.192
113.884
113.931
114.259
114.812
115.536
116.407
117.361
118.401
119.452
120.522
121.571
122.53
106.998
105.682
105.148
105.224
105.776
106.691
107.863
109.231
110.705
112.27
113.841
115.434
116.968
118.455
119.872
121.128
97.5868
96.7233
96.6714
97.3085
98.4963
100.116
102.011
104.1
106.267
108.485
110.648
112.766
114.757
116.627
118.383
119.903
92.6094
91.7404
91.6901
92.3965
93.7602
95.6906
98.0315
100.66
103.381
106.11
108.722
111.215
113.523
115.634
117.61
119.262
88.9334
88.1862
88.2227
89.0299
90.5297
92.6418
95.2321
98.1943
101.337
104.541
107.613
110.495
113.117
115.451
117.605
119.33
84.7754
84.4744
84.8151
85.8157
87.4353
89.6233
92.2769
95.3258
98.6291
102.103
105.574
108.953
112.1
114.929
117.502
119.532
82.0087
81.97
82.4594
83.4847
85.0147
87.0182
89.4433
92.2675
95.424
98.8758
102.499
106.209
109.846
113.27
116.441
119.067
80.843
80.7987
81.2558
82.2102
83.6187
85.4452
87.6653
90.2819
93.2762
96.6256
100.245
104.038
107.866
111.576
115.085
118.154
89.394
87.5756
85.7278
84.0266
82.5894
81.4748
80.6856
80.2132
79.9612
79.7804
79.5274
79.1872
88.5465
86.7073
85.0597
83.6054
82.3482
81.3209
80.5415
80.022
79.7169
79.5222
79.3393
79.0646
89.9791
87.9024
86.1203
84.5824
83.2611
82.1258
81.1824
80.4384
79.8997
79.5609
79.335
79.1763
78.9666
89.4398
87.4572
85.7273
84.2348
82.9681
81.8957
81
80.2872
79.7432
79.3865
79.1421
78.9785
78.824
89.0477
87.1123
85.4135
83.943
82.6943
81.6481
80.7713
80.0707
79.5213
79.1479
78.8955
78.7232
78.6111
90.9267
88.7443
86.8143
85.1238
83.6618
82.4142
81.3713
80.497
79.7972
79.2411
78.8508
78.5922
78.4119
78.3307
90.7042
88.469
86.509
84.8033
83.3315
82.0741
81.0229
80.1424
79.4402
78.882
78.4812
78.2231
78.0392
77.9875
90.4676
88.1525
86.135
84.3909
82.895
81.6179
80.5567
79.6689
78.9648
78.4125
78.0091
77.7636
77.5841
77.5694
92.8623
90.0909
87.6816
85.5954
83.7983
82.2739
80.9783
79.912
79.0305
78.3321
77.8005
77.405
77.1846
77.0188
77.0488
92.2993
89.3902
86.8806
84.7297
82.8885
81.3442
80.0507
78.9968
78.1495
77.4818
76.9975
76.6353
76.4597
76.3253
76.407
91.0799
88.0419
85.4622
83.2825
81.4427
79.9178
78.6694
77.6702
76.8997
76.3102
75.9174
75.6366
75.5453
75.4812
75.6367
88.5943
85.5231
82.9737
80.8662
79.1277
77.7185
76.601
75.7381
75.117
74.6768
74.4421
74.3101
74.3658
74.433
74.7119
87.5863
84.042
81.1787
78.8656
77.0166
75.5505
74.4143
73.5727
72.9751
72.6209
72.4333
72.4519
72.5541
72.8367
73.1084
73.5762
80.2424
77.227
74.8595
73.0235
71.6344
70.6269
69.9334
69.5299
69.3445
69.3917
69.5737
69.9476
70.3719
70.9553
71.4999
72.2091
72.258
69.7949
67.9392
66.6081
65.7151
65.2078
65.002
65.083
65.3638
65.8661
66.474
67.2472
68.0383
68.9458
69.7986
70.7504
66.55
64.3195
62.6355
61.4694
60.7759
60.5338
60.664
61.1357
61.8285
62.7412
63.7447
64.8803
66.0111
67.2
68.3366
69.4785
62.015
60.0656
58.5851
57.5728
57.0018
56.8717
57.1344
57.7912
58.7395
59.9595
61.299
62.7631
64.2197
65.692
67.1197
68.4601
57.1415
55.6768
54.5783
53.8595
53.5064
53.5231
53.8754
54.5764
55.5684
56.8691
58.3753
60.0907
61.883
63.7309
65.5694
67.2762
53.3964
52.321
51.5205
51.0063
50.7723
50.8234
51.1476
51.7664
52.6668
53.883
55.3754
57.1582
59.1437
61.2815
63.4972
65.6294
51.629
50.6932
49.9923
49.5343
49.3146
49.3355
49.601
50.1366
50.9581
52.0966
53.5461
55.3033
57.3203
59.5294
61.8794
64.2113
63.1928
61.9307
60.5911
59.2612
57.9952
56.9027
56.0216
55.3737
54.9268
54.6201
54.3162
53.9645
63.0642
61.6498
60.3383
59.1254
57.9785
56.9354
56.043
55.3567
54.8721
54.5363
54.282
53.9607
64.6043
62.9644
61.4932
60.1764
59.0025
57.9282
56.9522
56.0918
55.3858
54.8703
54.4853
54.2327
53.9504
64.6092
62.9567
61.4592
60.1111
58.9201
57.8626
56.9206
56.0988
55.3939
54.8632
54.4452
54.1636
53.9084
64.6871
63.0074
61.4805
60.0995
58.8744
57.8038
56.861
56.0546
55.3522
54.81
54.3767
54.0654
53.8265
66.767
64.8499
63.1091
61.5344
60.1175
58.8563
57.7584
56.7949
55.98
55.2703
54.7104
54.2654
53.9269
53.6991
67.1114
65.0713
63.237
61.5945
60.1293
58.828
57.6966
56.7035
55.8674
55.1443
54.5621
54.107
53.7414
53.5227
67.5234
65.3322
63.3782
61.6444
60.1125
58.7567
57.5848
56.5566
55.6915
54.9536
54.3475
53.8872
53.4976
53.2907
70.5742
67.9198
65.5654
63.4806
61.6372
60.0247
58.6033
57.3818
56.3195
55.4206
54.6705
54.0404
53.5803
53.1711
52.9816
71.085
68.209
65.676
63.4515
61.492
59.7893
58.3028
57.028
55.9386
55.0114
54.2573
53.612
53.1592
52.7388
52.5712
71.3408
68.2116
65.4907
63.1247
61.0595
59.2734
57.7344
56.4199
55.3191
54.3851
53.6469
53.0115
52.5854
52.1763
52.0426
70.9886
67.6103
64.718
62.2365
60.0993
58.2685
56.7134
55.398
54.3208
53.4185
52.7331
52.1491
51.7886
51.4316
51.3666
73.4235
69.2969
65.818
62.8708
60.3749
58.2586
56.4699
54.9805
53.7391
52.7559
51.9497
51.3791
50.9046
50.6685
50.4174
50.4767
69.2664
65.4029
62.1574
59.4254
57.1297
55.2146
53.6195
52.33
51.2792
50.4941
49.874
49.4992
49.2047
49.1569
49.0714
49.3068
62.8666
59.5681
56.8256
54.5537
52.6725
51.1414
49.8939
48.9324
48.1828
47.6883
47.3366
47.2209
47.1669
47.3453
47.4753
47.9019
56.8186
53.9432
51.5456
49.5861
48.0128
46.8049
45.896
45.2831
44.8756
44.7103
44.6696
44.8389
45.054
45.4616
45.8271
46.4265
51.4879
48.9951
46.8934
45.1705
43.7959
42.7719
42.0544
41.6583
41.5017
41.6082
41.8527
42.2973
42.7916
43.4478
44.0842
44.8882
45.8636
43.9004
42.2374
40.8736
39.7885
38.9863
38.4355
38.157
38.1013
38.3083
38.693
39.3115
40.0419
40.9582
41.9189
43.0193
41.2297
39.7815
38.5396
37.5062
36.6719
36.041
35.6004
35.3692
35.3327
35.5286
35.9274
36.5732
37.4059
38.4531
39.6364
40.96
38.9397
37.7392
36.6949
35.8107
35.0841
34.519
34.1162
33.8935
33.8593
34.0402
34.4381
35.0686
35.9156
36.9642
38.1968
39.5563
46.7402
45.9495
45.0926
44.2042
43.2539
42.365
41.5783
40.9044
40.3533
39.9611
39.6171
39.2653
47.0577
46.0915
45.1613
44.2841
43.3968
42.5226
41.7039
41.0029
40.4354
40.0103
39.7066
39.3466
48.49
47.3561
46.2806
45.2759
44.3638
43.499
42.6646
41.8626
41.1402
40.5535
40.0738
39.766
39.4208
48.9154
47.6958
46.5446
45.4653
44.4859
43.5925
42.7646
41.9926
41.2696
40.6755
40.1567
39.8108
39.4718
49.3663
48.0619
46.8423
45.699
44.6499
43.7059
42.848
42.082
41.3615
40.7639
40.2284
39.8439
39.5011
51.4296
49.9016
48.4882
47.1815
45.9707
44.8553
43.8546
42.9474
42.1578
41.425
40.8136
40.2678
39.8497
39.5028
52.2116
50.5134
48.9628
47.5481
46.2563
45.0736
44.0162
43.0558
42.2257
41.4682
40.8294
40.2713
39.8179
39.4679
53.131
51.2291
49.5092
47.9575
46.5607
45.293
44.1699
43.1521
42.2714
41.4823
40.8064
40.2343
39.744
39.3912
56.4952
54.1269
52.0025
50.0977
48.3879
46.867
45.4967
44.2917
43.2119
42.2711
41.4471
40.7269
40.1397
39.6119
39.2586
57.841
55.1705
52.7963
50.6874
48.8036
47.1388
45.6546
44.3512
43.2036
42.1964
41.3351
40.5688
39.9651
39.4002
39.0485
59.1841
56.1592
53.5051
51.1708
49.1047
47.2856
45.6832
44.2777
43.0609
41.9915
41.097
40.2935
39.679
39.0865
38.7413
60.3473
56.9284
53.9666
51.3897
49.1352
47.1639
45.4478
43.9505
42.674
41.5576
40.645
39.8255
39.2208
38.6239
38.3077
65.11
60.7541
57.0184
53.7989
51.0185
48.6114
46.5236
44.7293
43.1752
41.8737
40.7442
39.8486
39.0474
38.4916
37.9243
37.6809
63.6818
59.3173
55.5655
52.3286
49.531
47.1205
45.036
43.2643
41.7378
40.4854
39.4055
38.585
37.8516
37.3939
36.8998
36.774
59.1257
55.2086
51.8557
48.9739
46.4812
44.3372
42.4779
40.9074
39.5536
38.4652
37.5294
36.8551
36.2522
35.9337
35.5611
35.5723
53.1737
49.7754
46.8646
44.3832
42.2658
40.4849
38.973
37.7339
36.6848
35.8763
35.1914
34.7419
34.3415
34.1991
33.9958
34.1483
47.1518
44.2213
41.6903
39.5306
37.6986
36.1875
34.9445
33.9835
33.2234
32.7051
32.3068
32.1246
31.9839
32.0694
32.1041
32.4468
40.7112
38.3784
36.3555
34.626
33.1578
31.9474
30.9564
30.2018
29.6286
29.2798
29.0667
29.0688
29.1504
29.4501
29.7597
30.332
35.1878
33.5096
32.0312
30.7452
29.6356
28.702
27.9262
27.3216
26.866
26.5909
26.4601
26.5222
26.714
27.0995
27.5802
28.2601
32.4077
31.0753
29.8789
28.8178
27.8869
27.0876
26.4163
25.8833
25.4888
25.2501
25.1634
25.243
25.4747
25.8609
26.3858
27.0435
35.2218
34.773
34.2859
33.788
33.1779
32.5619
31.9738
31.391
30.8337
30.414
30.0547
29.7217
35.7056
35.1259
34.5423
33.9979
33.4127
32.7907
32.1579
31.5603
31.0067
30.5572
30.2352
29.8581
36.8599
36.1903
35.513
34.8402
34.2216
33.621
33.0144
32.3822
31.7615
31.2033
30.701
30.3802
29.9968
37.4908
36.7251
35.9639
35.2076
34.4995
33.8394
33.213
32.5959
31.9675
31.4112
30.8692
30.5125
30.1214
38.1562
37.286
36.4428
35.6149
34.8246
34.0922
33.4102
32.7847
32.1509
31.598
31.0404
30.6454
30.2375
39.9929
38.9343
37.9314
36.9814
36.0721
35.2021
34.3966
33.6421
32.9762
32.3195
31.7555
31.1901
30.7633
30.3413
41.0616
39.8109
38.6495
37.5696
36.5613
35.6078
34.732
33.906
33.1829
32.4877
31.8919
31.3137
30.8517
30.4202
42.3406
40.8569
39.4968
38.2499
37.11
36.0485
35.0892
34.189
33.3983
32.6562
32.0122
31.414
30.9101
30.4682
45.7082
43.782
42.0368
40.4547
39.0143
37.717
36.5241
35.4583
34.4754
33.6055
32.8109
32.1078
31.4829
30.9317
30.4779
47.7309
45.43
43.3718
41.5301
39.8672
38.3819
37.0356
35.8363
34.7547
33.7909
32.9348
32.1637
31.5051
30.9011
30.434
49.977
47.2257
44.8006
42.6571
40.7454
39.0471
37.5303
36.1808
34.9868
33.9201
32.9953
32.1535
31.4575
30.7998
30.3191
52.3717
49.1092
46.2615
43.7673
41.5699
39.6311
37.9228
36.4105
35.0938
33.921
32.9257
32.018
31.2906
30.5878
30.106
58.7314
54.4432
50.7121
47.4572
44.6141
42.1274
39.9457
38.0449
36.3723
34.9381
33.6672
32.6138
31.6535
30.9163
30.1847
29.7329
59.7134
55.1657
51.1944
47.7165
44.6655
41.9978
39.6556
37.6271
35.8455
34.3375
33.0039
31.9274
30.9423
30.2289
29.494
29.108
57.3358
52.9973
49.2283
45.9345
43.0346
40.49
38.2382
36.2833
34.553
33.0958
31.7979
30.7718
29.8221
29.1739
28.4771
28.1783
52.0906
48.2239
44.879
41.9807
39.4513
37.2571
35.3279
33.6695
32.1998
30.9751
29.8743
29.0237
28.2194
27.7055
27.1181
26.934
45.6352
42.285
39.3762
36.8633
34.6875
32.8311
31.2319
29.9012
28.7549
27.8434
27.0404
26.4637
25.9142
25.6247
25.2529
25.253
38.4228
35.7461
33.42
31.4117
29.6754
28.1982
26.9333
25.8929
25.0155
24.3448
23.7848
23.4274
23.1197
23.0374
22.9242
23.1166
32.0713
30.1895
28.5265
27.065
25.7814
24.6695
23.7063
22.8997
22.2217
21.6983
21.2867
21.0346
20.8711
20.8756
20.9314
21.1853
28.8454
27.4007
26.0951
24.9227
23.8753
22.9506
22.1417
21.4531
20.8792
20.4308
20.0985
19.8935
19.7982
19.8203
19.9381
20.1648
26.7059
26.4908
26.2518
26.0316
25.7029
25.3404
24.9732
24.5466
24.0658
23.68
23.3392
23.0465
27.1681
26.8777
26.5615
26.2817
25.9618
25.5904
25.1784
24.7492
24.286
23.8774
23.5741
23.2106
27.9714
27.6559
27.307
26.924
26.5672
26.2149
25.846
25.4255
24.9751
24.521
24.0652
23.7739
23.3883
28.5949
28.2127
27.8042
27.3582
26.9202
26.4998
26.0968
25.6794
25.2144
24.7718
24.2787
23.961
23.5598
29.2784
28.8125
28.3375
27.8354
27.3268
26.8343
26.3641
25.9277
25.4469
25.0132
24.5068
24.1575
23.7329
30.7064
30.1104
29.5254
28.9519
28.3766
27.7955
27.2337
26.6828
26.1968
25.6814
25.2377
24.7251
24.3509
23.9072
31.8359
31.0688
30.3383
29.6406
28.9701
28.307
27.6781
27.0509
26.5004
25.9349
25.4556
24.9291
24.5241
24.0683
33.2445
32.257
31.3336
30.4674
29.6615
28.8844
28.1685
27.4617
26.8367
26.2138
25.6786
25.1266
24.6791
24.2092
36.2465
34.8929
33.6477
32.5012
31.4345
30.461
29.5403
28.707
27.9077
27.1944
26.5083
25.9043
25.3168
24.8173
24.3277
38.6724
36.9142
35.3282
33.8972
32.5849
31.4006
30.304
29.316
28.3988
27.5745
26.8111
26.1251
25.4911
24.9301
24.4158
41.5621
39.2956
37.2837
35.4975
33.8904
32.4527
31.1496
29.9784
28.9187
27.9636
27.1064
26.3267
25.6355
25.0043
24.4607
44.9274
42.0715
39.5482
37.3227
35.3496
33.5995
32.0431
30.6538
29.4233
28.3174
27.3503
26.4677
25.7137
25.0085
24.4395
52.1177
48.2957
44.8891
41.8617
39.1806
36.8114
34.7155
32.8727
31.2378
29.8146
28.5423
27.4569
26.4654
25.6538
24.8749
24.299
55.0951
50.8258
47.0125
43.608
40.5709
37.878
35.4858
33.3889
31.5284
29.9269
28.496
27.3041
26.2091
25.3569
24.5112
23.9533
55.0844
50.713
46.8489
43.4171
40.3502
37.621
35.1757
33.023
31.0948
29.438
27.9433
26.7166
25.5726
24.7202
23.8399
23.3233
51.3119
47.182
43.5784
40.4216
37.6302
35.1706
32.9736
31.0482
29.3134
27.8285
26.4704
25.3699
24.3169
23.5634
22.7395
22.3174
44.99
41.3313
38.147
35.3798
32.959
30.8596
29.0132
27.4305
26.0254
24.8549
23.7894
22.9591
22.15
21.6177
20.9895
20.7504
37.3611
34.41
31.8492
29.6323
27.702
26.0373
24.5845
23.3522
22.2751
21.3968
20.6177
20.0349
19.4859
19.1615
18.7841
18.7159
30.491
28.4229
26.6006
24.9973
23.5823
22.3434
21.2531
20.3151
19.4976
18.8221
18.2421
17.8026
17.4291
17.2041
17.0044
16.9851
26.9496
25.3864
23.9761
22.7075
21.5686
20.5535
19.6521
18.8646
18.1815
17.6087
17.1332
16.7633
16.479
16.2896
16.1689
16.1356
20.3175
20.2451
20.1538
20.0945
19.954
19.7749
19.5866
19.3229
18.9661
18.6615
18.3709
18.1363
20.6707
20.5647
20.4256
20.3174
20.1834
20.0037
19.7818
19.526
19.1921
18.8724
18.6212
18.3025
21.16
21.0623
20.9318
20.7563
20.5898
20.4233
20.2447
20.0142
19.7437
19.4291
19.0693
18.8412
18.4918
21.6476
21.5181
21.3602
21.1529
20.9321
20.7085
20.496
20.2645
19.9771
19.6831
19.2907
19.0489
18.6814
22.2085
22.0296
21.8338
21.5965
21.3313
21.0535
20.7788
20.5267
20.2165
19.9364
19.5339
19.271
18.8791
23.1715
22.9173
22.6583
22.3943
22.1091
21.7946
21.4692
21.1235
20.8256
20.4743
20.1859
19.7783
19.5001
19.0883
24.14
23.7673
23.4042
23.0464
22.6901
22.312
21.9389
21.5285
21.1735
20.7686
20.4444
20.0214
19.7198
19.2959
25.4027
24.8663
24.3551
23.8608
23.3934
22.917
22.472
21.9924
21.5709
21.1082
20.7274
20.2755
19.9343
19.4948
27.7391
26.9454
26.2072
25.5174
24.8541
24.2415
23.6346
23.0818
22.5157
22.0115
21.486
21.0358
20.5438
20.1511
19.6869
30.1109
28.9663
27.9273
26.9848
26.0985
25.2904
24.5153
23.811
23.1265
22.5104
21.904
21.3687
20.8235
20.3676
19.8705
33.1295
31.5205
30.0754
28.7865
27.6089
26.5469
25.5615
24.667
23.831
23.0739
22.3625
21.7235
21.1094
20.5763
20.0385
36.9216
34.753
32.7909
31.0381
29.4644
28.0592
26.7919
25.6521
24.6198
23.6875
22.8425
22.0785
21.3802
20.7559
20.1738
43.8784
41.0025
38.3174
35.8459
33.6021
31.5815
29.7715
28.1594
26.718
25.4422
24.2964
23.2904
22.3777
21.5852
20.8555
20.2352
48.1014
44.7316
41.5842
38.6739
36.0032
33.5808
31.3909
29.4411
27.6919
26.1618
24.7854
23.6084
22.5309
21.6439
20.7974
20.1512
50.1998
46.4589
43.0319
39.9007
37.0348
34.4331
32.0637
29.9463
28.028
26.3539
24.831
23.549
22.3529
21.4106
20.4693
19.8233
48.5938
44.7126
41.2552
38.1721
35.4002
32.9195
30.6727
28.6765
26.8585
25.2792
23.8225
22.6135
21.4538
20.5774
19.6455
19.0773
43.3728
39.7505
36.5666
33.7712
31.2969
29.1212
27.178
25.4816
23.9502
22.6451
21.4407
20.4698
19.5203
18.8453
18.079
17.6851
36.2236
33.2089
30.581
28.2925
26.2839
24.5319
22.982
21.6418
20.4476
19.4424
18.53
17.8056
17.1105
16.6301
16.0948
15.8489
29.5989
27.405
25.4741
23.7737
22.2686
20.9425
19.7655
18.7377
17.8265
17.0491
16.3596
15.7977
15.2918
14.9183
14.5606
14.3611
26.0437
24.3606
22.8475
21.4884
20.2674
19.1754
18.1994
17.3364
16.574
15.9143
15.3425
14.864
14.4584
14.1341
13.8644
13.667
15.5842
15.576
15.5551
15.5654
15.5255
15.4518
15.3729
15.234
15.0055
14.8009
14.5797
14.4109
15.8172
15.7987
15.7532
15.7308
15.6984
15.6337
15.5367
15.4126
15.2039
14.9906
14.8098
14.558
16.1001
16.0936
16.0681
16.0074
15.9484
15.8902
15.8293
15.7286
15.5991
15.4144
15.1676
15.0179
14.734
16.4264
16.4091
16.3779
16.3086
16.2236
16.1269
16.041
15.941
15.7974
15.6407
15.367
15.2154
14.9151
16.8276
16.7841
16.7364
16.6569
16.5522
16.4244
16.2912
16.1766
16.0085
15.8703
15.5903
15.4288
15.1076
17.4287
17.3357
17.2481
17.1637
17.0626
16.9344
16.7861
16.6028
16.4566
16.2489
16.1057
15.8221
15.6556
15.3173
18.1438
17.9796
17.8289
17.685
17.5418
17.3734
17.2029
16.9759
16.7917
16.5369
16.3635
16.0644
15.883
15.5345
19.0918
18.8281
18.5872
18.3541
18.1397
17.9023
17.6869
17.4124
17.183
16.8817
16.6599
16.3328
16.1184
15.7546
20.757
20.3097
19.9135
19.5572
19.2078
18.893
18.5582
18.2624
17.922
17.6295
17.2779
16.9977
16.6325
16.3732
15.9826
22.6596
21.973
21.3656
20.8326
20.3218
19.8627
19.3984
18.9814
18.5435
18.1569
17.7354
17.3809
16.9643
16.6488
16.2216
25.215
24.2029
23.2941
22.4956
21.7562
21.0921
20.4541
19.8741
19.3028
18.7887
18.269
17.8175
17.3315
16.9429
16.4696
28.5968
27.1984
25.8968
24.7207
23.6453
22.6794
21.7877
20.9809
20.2235
19.5392
18.8849
18.3064
17.7287
17.2455
16.7168
34.1945
32.4524
30.7174
29.0368
27.4566
25.9881
24.646
23.4214
22.3134
21.3054
20.3966
19.5657
18.8228
18.1304
17.5269
16.9366
38.41
36.3527
34.2754
32.238
30.2828
28.4414
26.7283
25.161
23.729
22.444
21.2769
20.2442
19.3044
18.4826
17.7316
17.0796
41.5834
39.1275
36.7058
34.3699
32.1398
30.045
28.0837
26.2879
24.6302
23.152
21.7912
20.613
19.5125
18.5994
17.7135
17.0302
42.1805
39.2762
36.5531
34.0292
31.6878
29.5376
27.5469
25.745
24.079
22.6084
21.238
20.0767
18.9593
18.0799
17.1625
16.5414
39.1467
36.1428
33.422
30.9732
28.7562
26.7653
24.951
23.3354
21.8517
20.5621
19.358
18.3627
17.3888
16.6617
15.8598
15.3841
33.8976
31.1831
28.7732
26.6392
24.7358
23.0471
21.5279
20.1879
18.9734
17.9255
16.9611
16.1655
15.4006
14.8269
14.2114
13.8463
28.7489
26.5527
24.6091
22.8883
21.3564
19.9962
18.7791
17.703
16.7379
15.8968
15.1387
14.4957
13.906
13.4317
12.9752
12.6515
25.6833
23.8996
22.2992
20.8631
19.5726
18.4161
17.3787
16.4545
15.6299
14.9037
14.2605
13.703
13.212
12.7933
12.4229
12.1141
12.1468
12.1486
12.146
12.1685
12.1671
12.1403
12.1097
12.0426
11.9143
11.7986
11.6471
11.539
12.2907
12.2905
12.2762
12.2786
12.2833
12.2697
12.2341
12.184
12.0668
11.9464
11.834
11.6548
12.4752
12.4765
12.474
12.4538
12.435
12.4201
12.4113
12.3764
12.3291
12.235
12.086
12.0074
11.8001
12.6817
12.678
12.6767
12.657
12.63
12.5921
12.5675
12.5357
12.4791
12.4165
12.246
12.1733
11.9536
12.9572
12.9353
12.9255
12.9026
12.8698
12.8178
12.7609
12.7216
12.6426
12.601
12.4277
12.3542
12.1192
13.3623
13.2937
13.2454
13.2162
13.1858
13.145
13.0917
13.005
12.9504
12.8383
12.7958
12.6203
12.5499
12.303
13.8636
13.7475
13.6586
13.5908
13.5366
13.4713
13.4138
13.3025
13.2308
13.0837
13.0196
12.8304
12.7531
12.4991
14.5123
14.3349
14.1945
14.0733
13.9804
13.8717
13.7934
13.6556
13.5622
13.3857
13.2882
13.0757
12.9746
12.7068
15.7276
15.3929
15.124
14.9113
14.7151
14.5624
14.3902
14.2618
14.0817
13.9495
13.7415
13.6041
13.3619
13.2277
12.9343
17.0756
16.5952
16.1915
15.8698
15.5714
15.3293
15.074
14.8656
14.6197
14.4223
14.1651
13.975
13.6916
13.5157
13.1876
18.9257
18.2581
17.6675
17.1762
16.7282
16.3486
15.9751
15.6513
15.3085
15.0153
14.6815
14.4161
14.0741
13.8401
13.4682
21.356
20.5018
19.6947
18.974
18.3098
17.7245
17.1716
16.6796
16.1938
15.7649
15.3185
14.9453
14.5197
14.2027
13.7736
25.1906
24.2272
23.234
22.2357
21.2797
20.366
19.522
18.7271
18.0029
17.3144
16.6956
16.092
15.5688
15.0294
14.5973
14.0952
28.3357
27.29
26.1575
24.9792
23.8005
22.6439
21.5365
20.4856
19.5044
18.5873
17.7445
16.9573
16.2481
15.5745
14.9919
14.4082
31.2151
29.9638
28.6156
27.2227
25.8215
24.4455
23.1114
21.8474
20.6505
19.5476
18.5147
17.5831
16.7104
15.9389
15.2107
14.5813
32.9532
31.2965
29.6165
27.9619
26.3508
24.8117
23.3395
21.9684
20.6708
19.4974
18.386
17.4179
16.48
15.7091
14.9159
14.3293
32.3593
30.3684
28.4702
26.6872
25.0118
23.4568
21.9971
20.6602
19.403
18.2812
17.2168
16.31
15.4202
14.7224
13.9734
13.4764
30.1239
28.0092
26.0723
24.3089
22.6957
21.2287
19.8785
18.6576
17.5288
16.5275
15.594
14.795
14.0285
13.4143
12.7803
12.3406
27.5615
25.5013
23.6576
22.0084
20.5265
19.1969
17.9955
16.9192
15.9435
15.0769
14.2878
13.5977
12.9612
12.4199
11.9048
11.4937
25.5354
23.6936
22.0395
20.5535
19.2163
18.0146
16.933
15.9636
15.0926
14.316
13.6197
13.0025
12.4488
11.9598
11.5173
11.1274
9.66883
9.65707
9.64712
9.65651
9.65937
9.64625
9.62788
9.59082
9.52408
9.46899
9.37265
9.31015
9.76269
9.74911
9.73266
9.72849
9.73376
9.73251
9.71693
9.69487
9.62933
9.57114
9.50967
9.39291
9.91356
9.89118
9.87409
9.85381
9.83703
9.82672
9.82845
9.81512
9.80087
9.7534
9.67
9.63954
9.50136
10.0546
10.0256
10.008
9.9876
9.96921
9.94454
9.93558
9.92492
9.90522
9.88818
9.78723
9.76565
9.61888
10.252
10.2059
10.1803
10.1557
10.1354
10.1045
10.0738
10.0599
10.0202
10.0237
9.92182
9.90436
9.74778
10.5794
10.4854
10.4173
10.3769
10.3467
10.322
10.2968
10.2486
10.2303
10.1646
10.1692
10.0659
10.0559
9.89254
10.943
10.8114
10.7113
10.6409
10.5934
10.5497
10.5267
10.4641
10.4423
10.353
10.3441
10.2293
10.2173
10.0499
11.3991
11.2204
11.0846
10.9767
10.906
10.8319
10.7995
10.7217
10.6936
10.5891
10.5609
10.4292
10.4022
10.2231
12.3581
12.0399
11.7869
11.5972
11.4345
11.326
11.2091
11.1465
11.0422
10.9931
10.8723
10.8224
10.6708
10.624
10.4226
13.3045
12.8937
12.547
12.2829
12.0494
11.8835
11.7134
11.6012
11.4561
11.3673
11.2165
11.1365
10.957
10.8858
10.6559
14.5677
14.0578
13.6009
13.2322
12.9028
12.6481
12.4018
12.2147
12.0061
11.8543
11.6509
11.5218
11.2997
11.1908
10.9254
16.1308
15.5468
14.9923
14.5087
14.0636
13.6909
13.3378
13.0456
12.7439
12.5006
12.2167
12.0101
11.7223
11.5519
11.236
18.6296
17.9871
17.3526
16.7215
16.1315
15.5659
15.0579
14.5713
14.1419
13.7132
13.3435
12.9471
12.6288
12.2473
11.9846
11.597
20.6761
20.0206
19.3424
18.6434
17.9538
17.2707
16.6223
15.9931
15.4104
14.8403
14.3231
13.8
13.3454
12.8568
12.4703
12.0028
22.7799
22.0405
21.2632
20.4564
19.6401
18.8229
18.0228
17.2453
16.5031
15.7938
15.1276
14.492
13.9033
13.3353
12.8221
12.3131
24.6214
23.6581
22.6726
21.6797
20.6899
19.7175
18.7661
17.8548
16.9766
16.1574
15.3722
14.6605
13.9708
13.3691
12.7652
12.2703
25.5886
24.3243
23.0995
21.9217
20.7869
19.7034
18.6596
17.6739
16.7255
15.8499
15.0061
14.2558
13.5201
12.9042
12.2673
11.7882
26.0395
24.4471
22.9681
21.598
20.322
19.137
18.0249
16.9935
16.0222
15.1333
14.2949
13.5464
12.8324
12.2198
11.6138
11.1328
26.1041
24.2344
22.5463
21.023
19.6431
18.393
17.2536
16.2194
15.2731
14.4169
13.6314
12.9248
12.2729
11.6922
11.1489
10.6772
25.3769
23.5292
21.864
20.3634
19.0093
17.7878
16.6842
15.6891
14.79
13.98
13.2477
12.5875
11.9891
11.4474
10.9523
10.5013
7.85408
7.82689
7.80424
7.79625
7.79076
7.77719
7.75722
7.72818
7.69191
7.66837
7.60736
7.57228
7.92484
7.89389
7.86598
7.84742
7.84057
7.83493
7.8207
7.80267
7.75998
7.73369
7.70158
7.62809
8.06548
8.0208
7.98435
7.95229
7.92509
7.9053
7.89971
7.88718
7.87868
7.84786
7.79892
7.79189
7.70357
8.17658
8.12315
8.08272
8.0473
8.01893
7.98827
7.97381
7.96131
7.9492
7.9444
7.88058
7.88145
7.78735
8.32953
8.25938
8.20998
8.16766
8.1368
8.10221
8.07199
8.05705
8.02706
8.03939
7.97518
7.9813
7.881
8.62542
8.5113
8.42016
8.35592
8.3053
8.26812
8.23806
8.19543
8.18046
8.12941
8.1425
8.07656
8.09041
7.98696
8.90706
8.76129
8.6426
8.55259
8.48622
8.43069
8.40172
8.34785
8.33448
8.2672
8.27135
8.19539
8.2088
8.10313
9.25924
9.07185
8.92241
8.80066
8.71576
8.63421
8.59777
8.53115
8.51645
8.44106
8.43495
8.34683
8.3509
8.23502
10.0553
9.75243
9.50171
9.30634
9.13834
9.024
8.90877
8.85064
8.76402
8.73625
8.65187
8.63545
8.53453
8.52891
8.39451
10.7606
10.3946
10.0729
9.81938
9.59365
9.43455
9.27808
9.18453
9.06868
9.01502
8.91098
8.87935
8.76037
8.74434
8.58851
11.6473
11.2258
10.8365
10.5156
10.2234
10.0019
9.79086
9.64505
9.48458
9.3889
9.24768
9.18595
9.03723
9.00061
8.81895
12.6883
12.2235
11.7832
11.4019
11.0469
10.7578
10.4837
10.2741
10.0549
9.90186
9.706
9.59371
9.39665
9.31988
9.09703
14.4748
13.9215
13.4112
12.9228
12.4843
12.0685
11.7111
11.3689
11.088
10.8
10.5768
10.3129
10.1321
9.86864
9.72974
9.44588
15.9279
15.3275
14.767
14.2274
13.7273
13.2461
12.8121
12.3934
12.0289
11.6635
11.3579
11.0217
10.7606
10.4292
10.2088
9.86416
17.5546
16.8737