/*--------------------------------*- C++ -*----------------------------------*\
  =========                 |
  \\      /  F ield         | OpenFOAM: The Open Source CFD Toolbox
   \\    /   O peration     | Website:  https://openfoam.org
    \\  /    A nd           | Version:  6
     \\/     M anipulation  |
\*---------------------------------------------------------------------------*/
FoamFile
{
    version     2.0;
    format      ascii;
    class       volVectorField;
    location    "50";
    object      wallShearStress;
}
// * * * * * * * * * * * * * * * * * * * * * * * * * * * * * * * * * * * * * //

dimensions      [0 2 -2 0 0 0 0];

internalField   uniform (0 0 0);

boundaryField
{
    inlet
    {
        type            calculated;
        value           uniform (0 0 0);
    }
    outlet
    {
        type            calculated;
        value           uniform (0 0 0);
    }
    roughCylinder
    {
        type            calculated;
        value           nonuniform List<vector> 
3840
(
(-0.000271296 -0.000397647 -0.000163546)
(-0.000327573 -0.000511425 -2.22556e-05)
(-0.000376985 -0.000632817 4.19412e-05)
(-0.000452175 -0.00073635 0.000123851)
(-0.000540345 -0.000810446 0.000206278)
(-0.000631743 -0.000850865 0.000278475)
(-0.000716718 -0.000861611 0.000335226)
(-0.000790517 -0.000854059 0.000375071)
(-0.00085362 -0.000847646 0.000402351)
(-0.00090223 -0.000846256 0.000416662)
(-0.000940936 -0.00085392 0.000420009)
(-0.000973098 -0.000869074 0.000414551)
(-0.00100181 -0.000890109 0.000402838)
(-0.00102998 -0.000915538 0.000386941)
(-0.00105963 -0.000944418 0.000368291)
(-0.0010919 -0.000976238 0.000347541)
(-0.00112712 -0.00101068 0.000324773)
(-0.0011651 -0.0010474 0.00029968)
(-0.00120534 -0.00108588 0.000271676)
(-0.00124699 -0.00112529 0.000239891)
(-0.0012889 -0.0011644 0.000202908)
(-0.00132912 -0.00120121 0.000158534)
(-0.00136374 -0.00123256 0.000103017)
(-0.00138584 -0.00125265 3.57697e-05)
(-0.000291069 -0.000385147 -0.000155813)
(-0.000350523 -0.000495764 -2.65175e-05)
(-0.000402437 -0.000616904 3.33296e-05)
(-0.000480035 -0.000721705 0.000111814)
(-0.000570155 -0.000798405 0.000192318)
(-0.000663549 -0.000841774 0.000263441)
(-0.000751555 -0.000856624 0.000320159)
(-0.000830303 -0.000855217 0.000362046)
(-0.000898352 -0.000851998 0.000391867)
(-0.000950941 -0.000849371 0.000407685)
(-0.000991614 -0.000855694 0.000411676)
(-0.00102572 -0.000870194 0.000406533)
(-0.00105632 -0.000891025 0.000395055)
(-0.0010864 -0.000916467 0.00037938)
(-0.00111805 -0.000945467 0.000361015)
(-0.00115241 -0.000977413 0.000340639)
(-0.00118981 -0.00101195 0.000318351)
(-0.00123005 -0.00104871 0.000293833)
(-0.00127256 -0.00108717 0.000266491)
(-0.00131648 -0.00112651 0.000235443)
(-0.00136058 -0.00116548 0.000199272)
(-0.0014028 -0.00120211 0.000155789)
(-0.0014391 -0.00123327 0.00010127)
(-0.00146226 -0.00125322 3.51608e-05)
(-0.000310643 -0.0003673 -0.000142696)
(-0.000372879 -0.000474443 -3.09705e-05)
(-0.000427127 -0.000594168 2.38837e-05)
(-0.000506573 -0.000699552 9.85417e-05)
(-0.00059853 -0.000778726 0.000176856)
(-0.000694284 -0.0008258 0.000247042)
(-0.000786019 -0.000845898 0.000304399)
(-0.00086968 -0.000850423 0.000348401)
(-0.000942278 -0.000850116 0.000380102)
(-0.000999563 -0.000847503 0.000397596)
(-0.00104234 -0.000852147 0.000402226)
(-0.00107846 -0.000865783 0.000397414)
(-0.00111106 -0.000886184 0.000386233)
(-0.00114315 -0.000911445 0.000370863)
(-0.00117687 -0.000940346 0.000352862)
(-0.00121337 -0.000972191 0.000332946)
(-0.00125299 -0.00100659 0.000311214)
(-0.00129549 -0.00104314 0.000287352)
(-0.00134028 -0.00108132 0.000260754)
(-0.00138644 -0.0011203 0.000230524)
(-0.00143269 -0.00115887 0.000195248)
(-0.00147687 -0.00119506 0.000152749)
(-0.0015148 -0.0012258 9.93342e-05)
(-0.00153898 -0.00124546 3.44859e-05)
(-0.000328148 -0.000345306 -0.000126054)
(-0.000392418 -0.000448361 -3.54944e-05)
(-0.000448474 -0.000565607 1.40607e-05)
(-0.000529132 -0.000670978 8.45067e-05)
(-0.000622815 -0.000752574 0.000160295)
(-0.000721256 -0.000803959 0.000229525)
(-0.000817039 -0.000829939 0.000287731)
(-0.000905557 -0.000840191 0.000333782)
(-0.000982842 -0.000842959 0.000367227)
(-0.00104521 -0.000841667 0.00038658)
(-0.00109074 -0.000844108 0.000391854)
(-0.00112902 -0.000856686 0.000387495)
(-0.00116375 -0.000876474 0.000376694)
(-0.00119793 -0.000901374 0.000361712)
(-0.00123376 -0.000930019 0.000344156)
(-0.00127242 -0.000961604 0.00032477)
(-0.00131423 -0.000995668 0.000303668)
(-0.00135894 -0.00103181 0.000280524)
(-0.00140591 -0.00106949 0.000254728)
(-0.00145419 -0.0011079 0.000225369)
(-0.00150246 -0.00114584 0.000191037)
(-0.00154848 -0.00118137 0.00014957)
(-0.00158791 -0.00121152 9.73101e-05)
(-0.00161305 -0.00123078 3.3781e-05)
(-0.000342422 -0.000319322 -0.000107379)
(-0.000408158 -0.000417897 -3.98793e-05)
(-0.000465389 -0.000531697 4.21185e-06)
(-0.000546677 -0.000636443 7.00309e-05)
(-0.000642014 -0.000720382 0.000142877)
(-0.000743418 -0.000776442 0.00021099)
(-0.000843413 -0.000808441 0.000269964)
(-0.000936678 -0.000824048 0.000317874)
(-0.00101871 -0.000829906 0.00035309)
(-0.0010857 -0.000830117 0.000374014)
(-0.00113575 -0.000831044 0.000380438)
(-0.00117639 -0.000842359 0.000376787)
(-0.00121341 -0.000861255 0.000366466)
(-0.00124978 -0.000885611 0.000351984)
(-0.00128773 -0.000913788 0.000334963)
(-0.00132851 -0.000944894 0.000316187)
(-0.00137245 -0.000978424 0.000295785)
(-0.00141926 -0.00101393 0.000273424)
(-0.0014683 -0.00105088 0.000248485)
(-0.00151854 -0.00108847 0.000220044)
(-0.00156866 -0.00112554 0.000186696)
(-0.00161633 -0.0011602 0.000146297)
(-0.00165713 -0.00118956 9.52289e-05)
(-0.0016831 -0.00120829 3.30563e-05)
(-0.000353815 -0.000291129 -8.80755e-05)
(-0.000419879 -0.000384288 -4.39764e-05)
(-0.000477465 -0.000493788 -5.4646e-06)
(-0.000558756 -0.00059727 5.53373e-05)
(-0.000655548 -0.00068331 0.000124787)
(-0.000759999 -0.000744057 0.000191494)
(-0.000864263 -0.000781843 0.000250988)
(-0.000962327 -0.000802406 0.000300537)
(-0.00104921 -0.000811253 0.000337509)
(-0.00112105 -0.000813038 0.000359918)
(-0.00117678 -0.000813981 0.000368046)
(-0.00122015 -0.000823003 0.000365194)
(-0.00125964 -0.000840782 0.000355523)
(-0.00129828 -0.000864266 0.000341659)
(-0.00133842 -0.000891772 0.000325288)
(-0.00138131 -0.000922201 0.000307218)
(-0.00142728 -0.000954967 0.000287593)
(-0.00147608 -0.000989609 0.000266082)
(-0.001527 -0.00102559 0.000242053)
(-0.00157903 -0.00106211 0.000214573)
(-0.00163079 -0.0010981 0.000182245)
(-0.00167991 -0.00113165 0.000142947)
(-0.00172188 -0.00116004 9.30984e-05)
(-0.00174859 -0.00117814 3.23152e-05)
(-0.000360433 -0.000260483 -6.86766e-05)
(-0.000426508 -0.000348023 -4.7529e-05)
(-0.000483683 -0.000452445 -1.4801e-05)
(-0.000564279 -0.00055405 4.05273e-05)
(-0.000662207 -0.000641864 0.00010606)
(-0.000769689 -0.000707159 0.000170956)
(-0.000878331 -0.000750467 0.00023063)
(-0.000981334 -0.000775649 0.000281544)
(-0.00107329 -0.000787413 0.000320237)
(-0.00115028 -0.000790832 0.000344273)
(-0.00121155 -0.000792483 0.000354136)
(-0.00125956 -0.000799565 0.000352583)
(-0.00130176 -0.000815623 0.000343799)
(-0.00134289 -0.000838042 0.000330735)
(-0.00138523 -0.000864588 0.000315129)
(-0.00143018 -0.000894096 0.000297863)
(-0.00147812 -0.000925892 0.000279104)
(-0.00152876 -0.000959469 0.000258514)
(-0.00158141 -0.000994281 0.000235455)
(-0.00163501 -0.00102955 0.00020898)
(-0.00168817 -0.00106422 0.000177705)
(-0.00173851 -0.00109649 0.000139533)
(-0.00178148 -0.00112375 9.09298e-05)
(-0.00180878 -0.0011411 3.15609e-05)
(-0.000363588 -0.000229463 -5.01703e-05)
(-0.000428019 -0.000310372 -5.05856e-05)
(-0.000483654 -0.000408863 -2.35977e-05)
(-0.000562601 -0.000507685 2.58616e-05)
(-0.000661095 -0.00059666 8.68558e-05)
(-0.000771401 -0.00066614 0.000149377)
(-0.000884393 -0.000714586 0.000208752)
(-0.00099252 -0.000744131 0.000260716)
(-0.00108989 -0.000758801 0.000301075)
(-0.0011725 -0.000764006 0.000326966)
(-0.0012393 -0.000766424 0.000338582)
(-0.00129295 -0.000772746 0.000338759)
(-0.00133886 -0.000786663 0.000331221)
(-0.00138262 -0.000807256 0.000319117)
(-0.00142727 -0.00083265 0.000304459)
(-0.00147431 -0.000861047 0.000288126)
(-0.00152409 -0.000891665 0.000270327)
(-0.00157639 -0.000923958 0.000250731)
(-0.00163052 -0.000957387 0.000228697)
(-0.00168541 -0.000991219 0.000203271)
(-0.0017397 -0.00102451 0.000173085)
(-0.00179098 -0.00105538 0.000136065)
(-0.00183469 -0.00108142 8.8728e-05)
(-0.00186243 -0.00109801 3.07961e-05)
(-0.00035997 -0.000196899 -3.2638e-05)
(-0.000423103 -0.000271285 -5.26919e-05)
(-0.000476464 -0.000363258 -3.16959e-05)
(-0.000552862 -0.000458611 1.14888e-05)
(-0.000651179 -0.000548029 6.7319e-05)
(-0.000763886 -0.000621141 0.000126774)
(-0.0008812 -0.000674395 0.000185263)
(-0.000994672 -0.000708129 0.000237887)
(-0.00109783 -0.000725732 0.000279801)
(-0.00118634 -0.000732714 0.000307662)
(-0.00125913 -0.000736067 0.000321333)
(-0.00131839 -0.000742139 0.000323415)
(-0.00136917 -0.000754602 0.000317537)
(-0.00141668 -0.000773528 0.000306867)
(-0.00146367 -0.0007972 0.00029332)
(-0.00151269 -0.000824155 0.000278041)
(-0.00156422 -0.000853435 0.000261315)
(-0.00161798 -0.000884369 0.000242801)
(-0.00167334 -0.000916386 0.000221858)
(-0.0017292 -0.000948735 0.00019752)
(-0.00178409 -0.000980408 0.00016842)
(-0.00183587 -0.00100973 0.000132557)
(-0.00187997 -0.0010344 8.64972e-05)
(-0.00190786 -0.00105011 3.00189e-05)
(-0.000353269 -0.000165527 -1.69193e-05)
(-0.000412173 -0.000232491 -5.4531e-05)
(-0.000461837 -0.000317049 -3.86335e-05)
(-0.000534331 -0.00040752 -2.09316e-06)
(-0.000631402 -0.0004963 4.77448e-05)
(-0.000746074 -0.000572484 0.000103284)
(-0.000867592 -0.000630203 0.000160143)
(-0.000986633 -0.000668053 0.000212953)
(-0.00109598 -0.000688618 0.000256244)
(-0.00119108 -0.000697577 0.000286234)
(-0.00127014 -0.000701808 0.000302209)
(-0.00133516 -0.000707696 0.000306459)
(-0.00139089 -0.000719098 0.000302512)
(-0.00144215 -0.000736482 0.000293485)
(-0.00149208 -0.000758416 0.000281359)
(-0.00154327 -0.0007838 0.000267372)
(-0.0015963 -0.00081149 0.00025185)
(-0.00165109 -0.000840803 0.000234495)
(-0.0017071 -0.000871133 0.000214686)
(-0.00176329 -0.000901721 0.00019146)
(-0.00181841 -0.000931565 0.000163496)
(-0.00187028 -0.000959118 0.000128846)
(-0.00191441 -0.000982268 8.41309e-05)
(-0.00194225 -0.000996989 2.91941e-05)
(-0.000337014 -0.000134825 -3.00075e-06)
(-0.000394591 -0.000192647 -5.3822e-05)
(-0.000439498 -0.000270072 -4.48138e-05)
(-0.000507037 -0.000355182 -1.49301e-05)
(-0.000601597 -0.00044234 2.84715e-05)
(-0.000717152 -0.000520611 7.91431e-05)
(-0.00084256 -0.000582428 0.00013348)
(-0.000967285 -0.000624346 0.000185868)
(-0.00108334 -0.000648054 0.000230308)
(-0.00118524 -0.000658864 0.000262398)
(-0.00127116 -0.000664016 0.000280955)
(-0.00134247 -0.000669806 0.000287742)
(-0.00140334 -0.000680152 0.000286021)
(-0.0014586 -0.000696002 0.000278906)
(-0.00151146 -0.000716163 0.000268429)
(-0.00156461 -0.000739724 0.00025591)
(-0.00161901 -0.000765609 0.00024175)
(-0.0016746 -0.000793057 0.000225675)
(-0.00173095 -0.000821468 0.000207091)
(-0.00178714 -0.000850079 0.000185049)
(-0.00184207 -0.000877899 0.000158283)
(-0.00189368 -0.000903569 0.000124916)
(-0.00193752 -0.000925117 8.16229e-05)
(-0.00196511 -0.000938755 2.83193e-05)
(-0.000315205 -0.000106591 5.27373e-06)
(-0.000372444 -0.000157163 -5.02671e-05)
(-0.000410307 -0.000223682 -4.89533e-05)
(-0.000470171 -0.000302034 -2.62423e-05)
(-0.000560225 -0.000385987 9.93264e-06)
(-0.000675875 -0.000465627 5.46725e-05)
(-0.000804791 -0.000531248 0.000105422)
(-0.000935403 -0.000577387 0.000156652)
(-0.00105847 -0.000604374 0.000201856)
(-0.00116814 -0.000617392 0.000236114)
(-0.00126142 -0.000623395 0.000257455)
(-0.0013393 -0.000628911 0.000267078)
(-0.00140576 -0.000638177 0.000267955)
(-0.00146514 -0.000652326 0.000263039)
(-0.00152104 -0.000670589 0.000254481)
(-0.0015763 -0.000692236 0.000243668)
(-0.00163189 -0.000716113 0.000231035)
(-0.00168796 -0.000741494 0.000216364)
(-0.00174426 -0.000767776 0.000199094)
(-0.00179995 -0.000794211 0.0001783)
(-0.00185427 -0.000819893 0.000152798)
(-0.0019051 -0.000843535 0.000120771)
(-0.00194821 -0.000863349 7.89709e-05)
(-0.00197533 -0.000875855 2.73937e-05)
(-0.000284329 -7.80011e-05 1.26175e-05)
(-0.000343341 -0.000124726 -4.84644e-05)
(-0.000374053 -0.000180314 -5.07876e-05)
(-0.000425092 -0.000250464 -3.50658e-05)
(-0.000508941 -0.000329485 -6.95629e-06)
(-0.000622434 -0.000408662 3.06213e-05)
(-0.000754006 -0.000477455 7.64887e-05)
(-0.000890239 -0.000527752 0.000125548)
(-0.00102085 -0.000558414 0.000171025)
(-0.00113832 -0.000573561 0.000207228)
(-0.00123954 -0.000580425 0.00023152)
(-0.00132477 -0.000585685 0.000244364)
(-0.00139711 -0.000593674 0.000248196)
(-0.0014611 -0.000606057 0.000245875)
(-0.00152016 -0.000622258 0.000239531)
(-0.00157727 -0.000641707 0.000230622)
(-0.00163386 -0.000663404 0.0002197)
(-0.00169014 -0.000686579 0.000206573)
(-0.001746 -0.000710614 0.000190718)
(-0.00180083 -0.000734798 0.000171252)
(-0.00185398 -0.000758219 0.000147064)
(-0.00190364 -0.000779795 0.00011644)
(-0.00194571 -0.000797862 7.61967e-05)
(-0.0019721 -0.0008092 2.6425e-05)
(-0.000248106 -5.16264e-05 1.87375e-05)
(-0.000307728 -9.54595e-05 -4.7504e-05)
(-0.000331365 -0.000140828 -5.08282e-05)
(-0.000371005 -0.000200551 -4.10853e-05)
(-0.000445421 -0.000272065 -2.14133e-05)
(-0.000555642 -0.000349598 7.8014e-06)
(-0.000688699 -0.000420789 4.72346e-05)
(-0.000830562 -0.000475534 9.29062e-05)
(-0.000968715 -0.000510161 0.000137858)
(-0.00109518 -0.000528147 0.000175848)
(-0.00120505 -0.000536055 0.000203198)
(-0.00129783 -0.000540831 0.000219507)
(-0.00137668 -0.000547466 0.000226717)
(-0.00144534 -0.000557792 0.000227336)
(-0.00150773 -0.000571771 0.000223543)
(-0.00156697 -0.000588975 0.00021684)
(-0.00162437 -0.000608354 0.000207823)
(-0.00168045 -0.000629178 0.000196369)
(-0.00173536 -0.000650858 0.000182015)
(-0.00178866 -0.00067266 0.000163921)
(-0.0018402 -0.000693821 0.000141103)
(-0.00188806 -0.000713265 0.000111921)
(-0.00192854 -0.000729515 7.32925e-05)
(-0.00195397 -0.000739684 2.54106e-05)
(-0.000204391 -2.86153e-05 2.29865e-05)
(-0.000263054 -6.83111e-05 -4.55083e-05)
(-0.000281787 -0.000105006 -4.93065e-05)
(-0.000311176 -0.000154294 -4.41447e-05)
(-0.000374756 -0.000216954 -3.25071e-05)
(-0.000477094 -0.00028964 -1.25777e-05)
(-0.000610172 -0.000362376 1.88458e-05)
(-0.000756573 -0.000421283 5.95254e-05)
(-0.000902682 -0.000460594 0.000102967)
(-0.00103768 -0.000481521 0.000142122)
(-0.00115649 -0.000490689 0.000172447)
(-0.0012578 -0.000495227 0.000192531)
(-0.00134336 -0.000500301 0.000203454)
(-0.00141734 -0.000508539 0.000207458)
(-0.00148319 -0.000520124 0.000206558)
(-0.00154413 -0.000534807 0.000202287)
(-0.00160211 -0.000551743 0.000195377)
(-0.00165768 -0.00057018 0.000185749)
(-0.00171122 -0.000589486 0.000172991)
(-0.00176264 -0.000608983 0.000156343)
(-0.00181192 -0.000627858 0.000134927)
(-0.00185759 -0.000645248 0.000107239)
(-0.00189616 -0.000659769 7.0281e-05)
(-0.00192033 -0.000668794 2.43572e-05)
(-0.000158588 -1.11802e-05 2.4986e-05)
(-0.000215334 -4.59155e-05 -4.27926e-05)
(-0.000230484 -7.52548e-05 -4.71339e-05)
(-0.000247444 -0.000113143 -4.46163e-05)
(-0.000294914 -0.000163662 -3.91996e-05)
(-0.000388751 -0.000230208 -2.88015e-05)
(-0.000517565 -0.000301367 -7.3575e-06)
(-0.000667617 -0.00036463 2.64898e-05)
(-0.000820727 -0.000408899 6.68919e-05)
(-0.000965559 -0.000434123 0.000106542)
(-0.00109402 -0.000445234 0.000139608)
(-0.00120374 -0.000449564 0.000163493)
(-0.00129676 -0.000453229 0.000178493)
(-0.00137595 -0.000459142 0.0001862)
(-0.0014454 -0.000468224 0.000188549)
(-0.00150843 -0.000480432 0.000187046)
(-0.00156677 -0.000494879 0.000182456)
(-0.00162132 -0.00051088 0.000174779)
(-0.00167289 -0.000527819 0.000163689)
(-0.00172156 -0.000544967 0.000148507)
(-0.0017681 -0.00056167 0.000128536)
(-0.00181083 -0.000577021 0.000102371)
(-0.00184682 -0.000589813 6.71337e-05)
(-0.00186952 -0.000597761 2.32566e-05)
(-0.000105223 2.39926e-06 2.46534e-05)
(-0.000156403 -2.5382e-05 -3.76835e-05)
(-0.000169526 -4.78091e-05 -4.30025e-05)
(-0.000178632 -7.54596e-05 -4.12863e-05)
(-0.000213299 -0.000113287 -4.04423e-05)
(-0.000286971 -0.000167904 -3.90004e-05)
(-0.000414369 -0.000239549 -2.84536e-05)
(-0.000565361 -0.000305521 -4.41325e-06)
(-0.000725624 -0.000356158 3.11223e-05)
(-0.000878558 -0.000385923 6.98698e-05)
(-0.00101643 -0.000399697 0.00010503)
(-0.00113555 -0.000404618 0.000132683)
(-0.00123582 -0.000406939 0.00015188)
(-0.00132094 -0.00041075 0.000163678)
(-0.00139403 -0.000417276 0.000169595)
(-0.0014585 -0.000426805 0.000171069)
(-0.00151686 -0.000438736 0.000168997)
(-0.00157005 -0.000452383 0.000163421)
(-0.00161914 -0.000467071 0.000154084)
(-0.00166481 -0.000482087 0.000140436)
(-0.00170792 -0.000496717 0.000121933)
(-0.00174732 -0.00051022 9.73351e-05)
(-0.00178055 -0.000521479 6.38789e-05)
(-0.00180136 -0.000528406 2.21155e-05)
(-5.92334e-05 9.19106e-06 2.23558e-05)
(-0.000104137 -1.22008e-05 -3.11964e-05)
(-0.000120242 -2.8673e-05 -3.65059e-05)
(-0.00012671 -4.74876e-05 -3.54662e-05)
(-0.000145048 -7.19726e-05 -3.47561e-05)
(-0.000214683 -0.00011164 -4.19669e-05)
(-0.000303011 -0.000172034 -4.79967e-05)
(-0.000450799 -0.000244504 -3.10606e-05)
(-0.000614922 -0.000300031 -2.80953e-06)
(-0.000777448 -0.000336802 3.34305e-05)
(-0.00092495 -0.00035461 6.96229e-05)
(-0.00105257 -0.000360652 0.000100488)
(-0.00116088 -0.00036236 0.000123942)
(-0.00125133 -0.000364105 0.000139946)
(-0.00132809 -0.000368196 0.000149712)
(-0.00139446 -0.000375302 0.000154484)
(-0.00145257 -0.000384809 0.000155123)
(-0.00150376 -0.000396169 0.000151754)
(-0.00154968 -0.000408718 0.000144216)
(-0.0015913 -0.000421647 0.00013209)
(-0.00163032 -0.000434378 0.000115078)
(-0.00166563 -0.000446129 9.20754e-05)
(-0.00169515 -0.000455872 6.0452e-05)
(-0.00171403 -0.000461953 2.09172e-05)
(-1.60156e-05 9.15949e-06 1.67303e-05)
(-4.49073e-05 -2.45308e-06 -2.19802e-05)
(-5.76321e-05 -1.0009e-05 -3.41251e-05)
(-4.98133e-05 -2.27448e-05 -3.1924e-05)
(-4.40718e-05 -2.52517e-05 -2.6113e-05)
(-8.45084e-05 -7.09394e-05 -3.23533e-05)
(-0.000206408 -0.000118381 -3.06682e-05)
(-0.000330787 -0.000175691 -4.96518e-05)
(-0.000496431 -0.000243273 -3.26202e-05)
(-0.000663299 -0.000286127 -1.0603e-06)
(-0.000818954 -0.000309238 3.44841e-05)
(-0.000955931 -0.000318076 6.77197e-05)
(-0.00107109 -0.000319683 9.4987e-05)
(-0.00116761 -0.000320138 0.000115305)
(-0.00124781 -0.000322054 0.000129077)
(-0.00131496 -0.000326719 0.000137244)
(-0.00137233 -0.000333943 0.000140737)
(-0.00142111 -0.00034323 0.000139695)
(-0.00146335 -0.00035388 0.000134012)
(-0.00150076 -0.00036505 0.000123466)
(-0.00153528 -0.000376142 0.000107976)
(-0.00156604 -0.00038635 8.66038e-05)
(-0.00159209 -0.000394915 5.69e-05)
(-0.00160833 -0.000400188 1.96692e-05)
(1.31062e-05 9.62954e-06 1.51519e-05)
(3.67806e-06 4.12092e-06 -1.41133e-05)
(-9.71837e-06 -4.17743e-06 -2.81821e-05)
(-2.03344e-05 -1.62692e-05 -3.52665e-05)
(-3.25156e-05 -2.41122e-05 -3.67164e-05)
(-3.44503e-05 -3.85738e-05 -3.19182e-05)
(-8.0901e-05 -6.68943e-05 -2.49499e-05)
(-0.000214721 -0.000118698 -4.15291e-05)
(-0.000363765 -0.000177658 -5.245e-05)
(-0.000537666 -0.000233391 -3.0576e-05)
(-0.000701528 -0.000263646 1.47968e-06)
(-0.000845382 -0.000276278 3.53451e-05)
(-0.000968388 -0.000279464 6.57843e-05)
(-0.00106935 -0.000279101 9.00338e-05)
(-0.00115263 -0.000279367 0.00010782)
(-0.00122113 -0.000282222 0.000119577)
(-0.00127737 -0.000287453 0.000126016)
(-0.001323 -0.000294885 0.000127349)
(-0.00136075 -0.000303857 0.000123515)
(-0.00139279 -0.00031335 0.000114494)
(-0.00142178 -0.000322933 0.000100512)
(-0.00144747 -0.000331762 8.08178e-05)
(-0.0014686 -0.000339055 5.30962e-05)
(-0.00148261 -0.000343855 1.83436e-05)
(3.31455e-05 9.32827e-06 2.32273e-05)
(2.9339e-05 6.69744e-06 -2.95819e-06)
(1.7442e-05 3.6312e-06 -6.1159e-06)
(1.54556e-07 3.97361e-06 -1.52959e-05)
(-6.10819e-06 -5.64722e-06 -1.66812e-05)
(-4.01971e-05 -5.16913e-06 -4.02606e-05)
(-3.38276e-05 -2.75479e-05 -3.57134e-05)
(-8.74029e-05 -6.07006e-05 -2.9569e-05)
(-0.000247834 -0.000117717 -5.46889e-05)
(-0.000407447 -0.000176182 -5.3972e-05)
(-0.000572664 -0.000216614 -2.76817e-05)
(-0.000724439 -0.000235368 4.92685e-06)
(-0.000851942 -0.000240845 3.70712e-05)
(-0.00095816 -0.000241302 6.475e-05)
(-0.00104399 -0.000240668 8.63196e-05)
(-0.00111186 -0.000241989 0.000101477)
(-0.00116627 -0.000245603 0.000110837)
(-0.00120825 -0.000251526 0.000114569)
(-0.00124105 -0.000259158 0.00011258)
(-0.00126784 -0.000267337 0.000105122)
(-0.00129157 -0.000275807 9.27134e-05)
(-0.00131164 -0.000283361 7.47221e-05)
(-0.0013289 -0.000289822 4.91309e-05)
(-0.00133945 -0.000294135 1.69521e-05)
(4.39427e-05 1.44051e-05 3.18482e-05)
(5.03982e-05 7.12421e-06 -8.86137e-06)
(4.75839e-05 -8.92048e-07 -1.19053e-05)
(3.7679e-05 -1.29739e-05 -1.3875e-05)
(2.78308e-05 -1.62189e-05 -8.2862e-06)
(-1.22905e-07 -1.11186e-05 -7.53359e-06)
(-3.56756e-05 8.77673e-07 -3.06544e-05)
(-2.7223e-05 -1.44057e-05 -2.5705e-05)
(-0.000106055 -6.03038e-05 -4.03234e-05)
(-0.000273094 -0.000120821 -5.89215e-05)
(-0.000439012 -0.000167601 -4.91369e-05)
(-0.000592839 -0.000193668 -2.18976e-05)
(-0.000727148 -0.000204231 1.0249e-05)
(-0.000834991 -0.000206216 4.01188e-05)
(-0.000922064 -0.000205589 6.49106e-05)
(-0.000990126 -0.000206552 8.33506e-05)
(-0.00104213 -0.000209073 9.54775e-05)
(-0.00107969 -0.000213834 0.000101529)
(-0.00110667 -0.000220393 0.000101275)
(-0.00112702 -0.000227271 9.5264e-05)
(-0.00114389 -0.000234589 8.43529e-05)
(-0.00115821 -0.000240894 6.81439e-05)
(-0.00116969 -0.000246188 4.47838e-05)
(-0.00117781 -0.000250576 1.54507e-05)
(5.53505e-05 1.56374e-05 3.53165e-05)
(6.95003e-05 9.39792e-06 -1.17835e-05)
(7.26678e-05 1.68676e-06 -1.81005e-05)
(6.90043e-05 -9.70142e-06 -2.00308e-05)
(5.96942e-05 -1.93117e-05 -1.77662e-05)
(3.78409e-05 -2.36465e-05 -9.48766e-06)
(2.70088e-06 -1.4476e-05 -1.54453e-05)
(-1.85989e-05 -1.21035e-05 -3.3047e-05)
(-2.77873e-05 -2.17761e-05 -2.25311e-05)
(-0.000144268 -6.76559e-05 -4.33714e-05)
(-0.000299851 -0.00010983 -5.84982e-05)
(-0.000459078 -0.000151171 -4.32839e-05)
(-0.000591888 -0.000167248 -1.34507e-05)
(-0.000702694 -0.000173301 1.72067e-05)
(-0.00079061 -0.000173879 4.42936e-05)
(-0.000855234 -0.000174946 6.52803e-05)
(-0.000903897 -0.00017695 7.97849e-05)
(-0.000936506 -0.000180964 8.79864e-05)
(-0.000957449 -0.00018682 8.93514e-05)
(-0.000972031 -0.00019267 8.48004e-05)
(-0.000983457 -0.000199326 7.55185e-05)
(-0.000992134 -0.000204343 6.11314e-05)
(-0.000999418 -0.000208645 4.02184e-05)
(-0.00100364 -0.00021324 1.38677e-05)
(6.48929e-05 1.34055e-05 3.48925e-05)
(8.43403e-05 7.10262e-06 -1.1015e-05)
(9.21172e-05 -1.49432e-07 -1.90976e-05)
(9.28392e-05 -1.14872e-05 -2.30692e-05)
(8.6894e-05 -2.23768e-05 -2.33434e-05)
(7.33852e-05 -2.99996e-05 -2.03266e-05)
(4.73829e-05 -3.14803e-05 -1.59913e-05)
(1.5886e-05 -2.26439e-05 -1.70138e-05)
(-2.59919e-05 -1.01453e-05 -2.86047e-05)
(-3.65683e-05 -1.37112e-05 -1.82565e-05)
(-0.000224979 -6.38847e-05 -5.42344e-05)
(-0.000322023 -0.000103207 -5.61033e-05)
(-0.000459311 -0.000131392 -3.21559e-05)
(-0.000565304 -0.000141646 -2.98237e-06)
(-0.00065036 -0.000143935 2.5067e-05)
(-0.000713434 -0.000146899 4.79728e-05)
(-0.000758121 -0.000149051 6.42354e-05)
(-0.000785049 -0.000152713 7.42718e-05)
(-0.000799173 -0.000158067 7.69801e-05)
(-0.00080679 -0.000162656 7.36641e-05)
(-0.000810634 -0.000168278 6.58396e-05)
(-0.000812648 -0.000171239 5.33557e-05)
(-0.00081505 -0.00017399 3.51216e-05)
(-0.000816397 -0.000179788 1.21257e-05)
(7.06128e-05 1.17511e-05 3.50561e-05)
(9.398e-05 5.55892e-06 -1.0805e-05)
(0.000104903 -9.70979e-07 -2.01488e-05)
(0.000108607 -1.1977e-05 -2.55241e-05)
(0.000105806 -2.35278e-05 -2.72602e-05)
(9.65831e-05 -3.29156e-05 -2.55714e-05)
(8.01451e-05 -3.81707e-05 -2.18736e-05)
(5.4485e-05 -3.21302e-05 -1.4906e-05)
(5.85196e-06 -1.66235e-05 -2.61202e-05)
(-1.81874e-05 -7.12204e-07 -3.33211e-05)
(-7.81177e-05 -0.0001205 -6.10359e-05)
(-0.000217912 -7.30014e-05 -2.31289e-05)
(-0.000320679 -9.2106e-05 -4.28863e-05)
(-0.000426072 -0.000110534 -1.84583e-05)
(-0.000510519 -0.000115514 8.31102e-06)
(-0.000564135 -0.000120022 3.15132e-05)
(-0.000603543 -0.000122868 4.85981e-05)
(-0.000624511 -0.000126471 6.00063e-05)
(-0.000632111 -0.000131715 6.37569e-05)
(-0.000634796 -0.000135104 6.17151e-05)
(-0.000634116 -0.000140352 5.56294e-05)
(-0.00063444 -0.000141597 4.51893e-05)
(-0.000630775 -0.000142238 2.97315e-05)
(-0.000628908 -0.000149627 1.03177e-05)
(7.07211e-05 9.37637e-06 3.43604e-05)
(9.66097e-05 4.08914e-06 -9.25412e-06)
(0.000109161 -1.35069e-06 -1.9544e-05)
(0.000115815 -1.17039e-05 -2.6103e-05)
(0.000116383 -2.37002e-05 -2.8996e-05)
(0.00011126 -3.46421e-05 -2.83037e-05)
(0.00010022 -4.21203e-05 -2.45344e-05)
(8.25731e-05 -4.20935e-05 -1.93296e-05)
(4.88113e-05 -3.23082e-05 -2.74007e-05)
(-4.34461e-05 -4.33712e-05 -5.09828e-05)
(-2.83332e-05 -3.95788e-05 -4.13937e-05)
(-8.63878e-05 -4.83625e-05 -3.10906e-05)
(-0.000204232 -5.81821e-05 -3.64865e-05)
(-0.00029334 -7.85645e-05 -2.94797e-05)
(-0.00036615 -8.61872e-05 -5.28068e-06)
(-0.00041919 -9.36084e-05 1.73356e-05)
(-0.000453521 -9.78477e-05 3.3835e-05)
(-0.000468706 -0.0001024 4.59434e-05)
(-0.000469174 -0.000107359 5.02386e-05)
(-0.000465456 -0.000109075 4.90161e-05)
(-0.000457526 -0.000113164 4.41661e-05)
(-0.000444988 -0.00011094 3.57735e-05)
(-0.000437164 -0.000100061 2.38625e-05)
(-0.000438591 -0.000118885 8.25081e-06)
(6.54699e-05 6.60495e-06 3.21904e-05)
(9.25032e-05 2.36402e-06 -6.87479e-06)
(0.000105832 -2.01613e-06 -1.69688e-05)
(0.000114036 -1.08222e-05 -2.40177e-05)
(0.000118028 -2.22514e-05 -2.80143e-05)
(0.000116983 -3.39779e-05 -2.85569e-05)
(0.000110842 -4.36853e-05 -2.57051e-05)
(9.8436e-05 -4.93261e-05 -1.99966e-05)
(7.70228e-05 -4.816e-05 -1.17861e-05)
(5.06796e-05 -5.32202e-05 8.85793e-06)
(-4.14879e-05 5.0502e-05 -1.60942e-05)
(-6.11037e-05 -1.95912e-05 -5.47158e-05)
(-9.55212e-05 -2.37082e-05 -2.73601e-05)
(-0.000174464 -4.76671e-05 -3.25574e-05)
(-0.000247541 -5.17051e-05 -1.47459e-05)
(-0.000273428 -5.75004e-05 3.95965e-06)
(-0.000301307 -6.62752e-05 1.9249e-05)
(-0.000309639 -7.62045e-05 3.13962e-05)
(-0.00030609 -8.16142e-05 3.5694e-05)
(-0.000299672 -8.13774e-05 3.56602e-05)
(-0.00029087 -8.49633e-05 3.3214e-05)
(-0.00029411 -7.15788e-05 2.82462e-05)
(-0.000334683 -5.29957e-05 1.73333e-05)
(-0.000271201 -8.75643e-05 5.77086e-06)
(5.70773e-05 3.82503e-06 2.87697e-05)
(8.37534e-05 1.19484e-07 -4.61332e-06)
(9.71488e-05 -3.59109e-06 -1.33997e-05)
(0.000106083 -1.09078e-05 -1.988e-05)
(0.000112008 -2.06053e-05 -2.4292e-05)
(0.000114827 -3.17026e-05 -2.61037e-05)
(0.000113429 -4.20628e-05 -2.49006e-05)
(0.000106698 -4.95345e-05 -2.08882e-05)
(9.17683e-05 -5.17383e-05 -1.44632e-05)
(6.37378e-05 -4.27403e-05 -9.08939e-06)
(-4.44021e-06 -4.49252e-05 -7.33947e-06)
(-2.66043e-05 2.18463e-05 -2.66274e-05)
(-5.34819e-05 -2.14789e-05 -4.5603e-05)
(-7.04619e-05 -2.26262e-05 -2.29358e-05)
(-0.000139567 -2.7972e-05 -1.85197e-05)
(-0.000219561 -2.09479e-05 -3.71405e-06)
(-0.000221871 -3.47428e-05 8.27249e-06)
(-0.000189452 -4.45576e-05 1.94244e-05)
(-0.000174864 -5.33549e-05 2.25414e-05)
(-0.000168943 -4.7983e-05 2.28907e-05)
(-0.000152377 -5.38885e-05 2.08955e-05)
(-0.000152194 -4.65202e-05 1.05435e-05)
(-0.000160656 -0.000117622 1.20734e-05)
(-0.000121737 -4.91723e-05 7.93302e-06)
(4.79757e-05 1.9285e-06 2.536e-05)
(7.29299e-05 -1.77614e-06 -3.2124e-06)
(8.55482e-05 -5.41765e-06 -1.03557e-05)
(9.44433e-05 -1.17496e-05 -1.55561e-05)
(0.000101175 -1.98949e-05 -1.94381e-05)
(0.000106416 -2.93203e-05 -2.17337e-05)
(0.000109187 -3.90188e-05 -2.19568e-05)
(0.000107798 -4.70642e-05 -2.00693e-05)
(9.98186e-05 -5.16772e-05 -1.6112e-05)
(8.05988e-05 -5.07894e-05 -1.22977e-05)
(4.8212e-05 -4.1671e-05 -1.26166e-05)
(-6.50042e-07 -2.76669e-05 -1.91516e-05)
(-1.77692e-05 -8.05676e-06 -3.33863e-05)
(-4.22459e-05 -1.52354e-05 -3.97309e-05)
(-5.94284e-05 -2.07501e-05 -3.30306e-05)
(-9.25461e-05 -0.000106697 -1.82302e-05)
(-9.10484e-05 -8.01768e-05 4.13077e-06)
(-7.18147e-05 -2.53557e-05 1.19657e-05)
(-5.10429e-05 -2.03209e-05 6.88894e-06)
(-5.13831e-05 -2.29343e-05 7.42786e-06)
(-2.83275e-05 -1.47442e-05 3.00557e-06)
(-5.59521e-05 -3.83001e-05 8.49399e-07)
(-6.79563e-05 -6.78536e-05 1.47554e-05)
(-5.47004e-05 -4.50243e-05 1.08135e-05)
(3.88344e-05 8.75341e-07 2.18899e-05)
(6.13512e-05 -3.15381e-06 -2.70732e-06)
(7.27495e-05 -7.16806e-06 -8.26988e-06)
(8.1186e-05 -1.3089e-05 -1.20329e-05)
(8.81922e-05 -2.02344e-05 -1.4845e-05)
(9.45771e-05 -2.80751e-05 -1.68115e-05)
(0.000100222 -3.62764e-05 -1.77103e-05)
(0.000103077 -4.37089e-05 -1.7368e-05)
(0.00010119 -4.92959e-05 -1.58721e-05)
(9.08545e-05 -5.15663e-05 -1.37305e-05)
(6.92809e-05 -4.88341e-05 -1.34759e-05)
(3.94027e-05 -3.29774e-05 -1.34476e-05)
(5.99815e-06 -1.16941e-05 -2.75016e-05)
(-8.83315e-06 -1.00754e-05 -2.80773e-05)
(-4.79421e-05 -2.15394e-05 -4.06542e-05)
(-2.78852e-05 -3.59648e-05 -2.25821e-05)
(-3.84672e-05 -4.21825e-05 -9.11749e-06)
(-2.48172e-05 -2.73621e-05 3.62764e-06)
(-2.64019e-05 -3.39865e-05 3.98934e-06)
(-1.44821e-05 -2.48208e-05 4.37215e-06)
(-1.61639e-05 -3.47919e-05 4.34895e-06)
(-8.90798e-06 -3.2165e-05 1.07218e-05)
(-4.27232e-05 2.40115e-05 1.21727e-05)
(-2.22666e-06 -3.69152e-05 -1.96834e-06)
(3.12537e-05 1.34312e-07 1.86482e-05)
(5.09869e-05 -4.43102e-06 -2.75008e-06)
(6.095e-05 -9.02405e-06 -6.97501e-06)
(6.86706e-05 -1.49134e-05 -9.44142e-06)
(7.55949e-05 -2.15019e-05 -1.11131e-05)
(8.24625e-05 -2.82751e-05 -1.23738e-05)
(8.92313e-05 -3.48588e-05 -1.3295e-05)
(9.47581e-05 -4.11187e-05 -1.37791e-05)
(9.70712e-05 -4.63106e-05 -1.37839e-05)
(9.38214e-05 -5.01006e-05 -1.35851e-05)
(8.16177e-05 -5.04617e-05 -1.37917e-05)
(6.0466e-05 -4.26964e-05 -1.51344e-05)
(2.72349e-05 -2.74829e-05 -2.44159e-05)
(1.40347e-05 -2.29666e-05 -2.54702e-05)
(-8.21614e-06 -5.14808e-06 -2.28417e-05)
(-2.88885e-05 5.45795e-05 -2.42578e-05)
(-1.56998e-05 2.86231e-05 -2.08915e-05)