/*--------------------------------*- C++ -*----------------------------------*\
  =========                 |
  \\      /  F ield         | OpenFOAM: The Open Source CFD Toolbox
   \\    /   O peration     | Website:  https://openfoam.org
    \\  /    A nd           | Version:  6
     \\/     M anipulation  |
\*---------------------------------------------------------------------------*/
FoamFile
{
    version     2.0;
    format      ascii;
    class       volScalarField;
    location    "50";
    object      yPlus;
}
// * * * * * * * * * * * * * * * * * * * * * * * * * * * * * * * * * * * * * //

dimensions      [0 0 0 0 0 0 0];

internalField   uniform 0;

boundaryField
{
    inlet
    {
        type            calculated;
        value           uniform 0;
    }
    outlet
    {
        type            calculated;
        value           uniform 0;
    }
    roughCylinder
    {
        type            calculated;
        value           nonuniform List<scalar> 
3840
(
45.8987
54.3092
62.2219
69.2373
74.5652
78.5348
81.564
83.9724
86.0366
87.8548
89.5054
91.0514
92.5645
94.1135
95.7519
97.511
99.3979
101.402
103.5
105.663
107.842
109.962
111.832
113.071
45.0911
53.2217
60.9235
67.8411
73.1338
77.0873
80.1145
82.5339
84.6028
86.4084
88.0356
89.5538
91.035
92.5495
94.152
95.8726
97.7181
99.6782
101.73
103.843
105.972
108.04
109.864
111.072
44.2067
52.1005
59.6012
66.4173
71.6803
75.6294
78.6688
81.1082
83.1856
84.9854
86.5952
88.0873
89.5387
91.0209
92.5874
94.2697
96.0748
97.9915
99.9974
102.061
104.14
106.158
107.936
109.111
43.3187
50.9661
58.2664
64.9797
70.2179
74.1718
77.2348
79.7044
81.7962
83.5969
85.1887
86.6587
88.0829
89.5336
91.0673
92.7136
94.479
96.3533
98.3133
100.329
102.357
104.326
106.057
107.202
42.3637
49.7912
56.8898
63.5007
68.7268
72.7036
75.8054
78.3121
80.424
82.2319
83.817
85.2684
86.6683
88.092
89.5933
91.2043
92.9323
94.7657
96.6818
98.6513
100.631
102.55
104.237
105.351
41.4667
48.6131
55.4958
62.0018
67.2231
71.233
74.3805
76.9325
79.0723
80.8945
82.4756
83.9137
85.2939
86.691
88.1644
89.7439
91.4354
93.2289
95.1019
97.0249
98.9566
100.827
102.47
103.554
40.4476
47.3676
54.0341
60.4406
65.6743
69.7371
72.9476
75.553
77.7271
79.5671
81.1621
82.5936
83.958
85.3358
86.7816
88.3292
89.9869
91.7427
93.5744
95.453
97.3372
99.1612
100.761
101.816
39.5579
46.129
52.5392
58.8297
64.0849
68.2193
71.5021
74.1706
76.3891
78.2628
79.8688
81.3028
82.6591
84.0176
85.4419
86.9638
88.5886
90.3074
92.0984
93.9318
95.77
97.5464
99.1027
100.129
38.4365
44.7716
50.9397
57.1287
62.4244
66.6483
70.0254
72.7711
75.0461
76.9516
78.589
80.0375
81.3917
82.7423
84.146
85.6397
87.2347
88.9186
90.6705
92.4617
94.2537
95.9843
97.4997
98.4968
37.5319
43.4292
49.2645
55.3008
60.6444
65.0015
68.4989
71.3416
73.685
75.6525
77.3208
78.7866
80.1505
81.4938
82.8842
84.3599
85.9257
87.575
89.2872
91.0338
92.7801
94.4634
95.9346
96.9033
36.2144
41.8859
47.4448
53.355
58.765
63.2605
66.9066
69.8672
72.3046
74.3248
76.0446
77.5477
78.9248
80.2748
81.6547
83.1065
84.6464
86.2632
87.9371
89.6422
91.3416
92.9802
94.4113
95.3512
35.1531
40.3547
45.4697
51.1393
56.6017
61.3292
65.1849
68.313
70.8621
72.986
74.7679
76.3064
77.7125
79.0663
80.4431
81.8865
83.4019
84.9856
86.6201
88.279
89.9336
91.5235
92.9095
93.8209
33.8432
38.6497
43.3097
48.7537
54.2921
59.2197
63.3376
66.666
69.3774
71.5901
73.4513
75.0582
76.4962
77.875
79.2528
80.6769
82.1706
83.7249
85.3225
86.9416
88.5473
90.0926
91.4384
92.3209
32.4535
36.8704
40.9255
45.8858
51.388
56.7118
61.1944
64.8365
67.7488
70.14
72.113
73.7817
75.2763
76.6735
78.061
79.4887
80.9636
82.4861
84.0441
85.6133
87.1743
88.6677
89.9658
90.819
30.4834
34.557
38.0518
42.641
48.1969
53.7532
58.7724
62.8077
66.0313
68.5837
70.6868
72.4706
74.0219
75.4698
76.8732
78.2874
79.7452
81.2417
82.763
84.2935
85.8026
87.2508
88.5082
89.3307
28.4444
32.3052
35.0853
38.7011
43.8436
50.1139
55.7075
60.3815
64.002
66.8934
69.1974
71.0876
72.7383
74.2249
75.656
77.0897
78.5356
80.0006
81.4805
82.9548
84.4156
85.8069
87.0104
87.8041
24.8205
28.4548
30.4627
33.3917
38.4638
44.8213
51.8931
57.4474
61.7685
64.9864
67.5368
69.6275
71.3721
72.948
74.4154
75.8423
77.2767
78.7184
80.1606
81.5961
83.0023
84.3442
85.5075
86.2645
21.1893
25.3025
26.9236
28.3337
32.4336
39.8197
46.5861
53.6213
58.8126
62.7813
65.7263
68.0124
69.9361
71.5807
73.102
74.5716
76.0022
77.4125
78.8086
80.1773
81.5238
82.8026
83.8967
84.628
9.36111
16.4775
16.9889
14.3042
9.57136
21.095
39.1391
48.2766
55.3895
60.0897
63.5666
66.2432
68.3266
70.1308
71.7215
73.1913
74.6179
76.0056
77.3608
78.6876
79.9803
81.1961
82.2566
82.9352
4.97457
10.1287
12.6966
15.7366
14.616
14.7696
22.6948
40.6164
49.8199
56.6314
61.0492
64.136
66.5803
68.5044
70.1901
71.7432
73.1762
74.5315
75.8304
77.0732
78.278
79.4238
80.3827
81.0457
16.3969
19.5956
20.1593
19.7958
12.5698
21.9529
16.0119
25.0617
43.8797
52.0781
57.753
61.715
64.4512
66.6884
68.5149
70.0748
71.5163
72.8467
74.0973
75.2894
76.4462
77.5031
78.4391
79.0192
23.2994
26.4346
27.3294
26.4234
22.948
16.2893
23.4982
4.85293
26.1567
45.0078
53.5034
58.485
62.0729
64.5379
66.529
68.2553
69.7205
71.0141
72.1866
73.2608
74.2724
75.2368
76.0227
76.595
25.2991
29.3418
31.8096
33.0728
32.6965
29.5095
23.7805
17.9216
4.30238
34.212
47.2466
54.6014
58.7685
61.9256
64.2471
65.9813
67.4779
68.7416
69.8467
70.8542
71.8236
72.6764
73.4233
73.875
26.539
30.613
33.2534
35.112
36.0117
35.6773
33.0428
25.9413
22.9248
11.2971
38.1087
48.4791
55.0442
58.6686
61.272
63.3829
64.944
66.152
67.1293
67.9362
68.648
69.2957
69.8694
70.2652
26.1908
30.4387
33.3143
35.5301
36.9714
37.5851
37.2763
35.1755
28.4608
4.29432
27.9627
40.9679
48.7572
54.2092
57.7367
59.7625
61.3966
62.5684
63.4163
64.1457
64.7904
65.4296
65.7953
66.0389
24.2398
28.8156
31.9708
34.5415
36.4239
37.6287
38.2222
38.1131
35.5067
32.2945
35.8261
30.0433
42.2706
48.414
52.3423
55.4797
57.2852
58.3141
58.9084
59.1765
59.3252
59.1897
59.6842
59.4587
21.4388
26.3902
29.7677
32.6029
34.8269
36.476
37.6858
38.5571
38.657
34.7524
32.7817
35.5628
28.4991
39.5311
46.6419
48.5618
50.464
51.4328
51.5783
51.9271
51.7253
53.0667
52.2691
51.7394
18.4637
23.6314
27.0515
29.9752
32.3961
34.387
36.0876
37.6543
38.9757
38.9698
33.672
28.0962
29.2451
23.5996
34.3162
40.6802
43.1426
43.9046
43.2999
42.2879
40.9576
38.2396
40.3274
35.3187
15.8455
20.9519
24.2014
27.021
29.4695
31.6577
33.7244
35.8175
37.9258
39.5166
39.1054
30.434
25.519
28.3519
22.4013
30.6956
30.1587
23.6115
18.6691
19.3667
7.49502
25.4711
44.1223
35.2334
13.4784
18.4148
21.4169
24.0514
26.4335
28.6992
30.9831
33.4054
36.0189
38.5369
40.0565
38.3791
31.2167
16.4254
30.4986
38.3533
39.1632
21.8709
32.5983
20.3602
34.1576
33.8443
41.4562
36.0205
11.7585
16.4041
19.1075
21.5069
23.7559
25.9905
28.3231
30.8502
33.6522
36.6402
39.2579
40.2771
36.7861
30.6062
32.1569
33.2699
32.1088
30.7918
28.051
34.5198
31.0256
40.3732
29.5897
33.3941
10.7634
15.0822
17.5242
19.7158
21.8232
23.9585
26.1998
28.6258
31.3278
34.3572
37.4827
39.8488
39.7366
38.486
31.96
29.4388
28.7234
30.9297
35.0506
36.3574
39.8369
36.1367
38.2258
44.5404
10.3266
14.4964
16.7659
18.8241
20.8231
22.8349
24.9037
27.0924
29.4988
32.2425
35.3378
38.38
40.104
40.816
37.8826
38.5823
38.3532
39.1246
41.7611
41.8908
43.8663
41.0064
42.6681
46.3773
10.4385
14.5185
16.7219
18.7355
20.6792
22.5851
24.4716
26.3901
28.4332
30.7314
33.4152
36.4372
39.1297
40.994
40.6333
41.4738
41.3923
41.8979
43.0549
42.8763
43.8609
42.5007
43.1085
45.8385
10.8808
14.9721
17.2029
19.2452
21.1835
23.0217
24.7637
26.4527
28.1686
30.0226
32.1605
34.7048
37.4719
39.9945
41.1412
42.1029
42.1053
42.5694
42.9566
42.4007
42.8388
42.159
42.3601
44.2737
11.5337
15.7179
18.0213
20.1353
22.109
23.9238
25.5762
27.1055
28.5791
30.0815
31.729
33.6704
35.9698
38.4469
40.3197
41.583
41.8188
42.1794
41.9916
41.0496
41.071
40.5987
40.7223
42.137
12.384
16.6781
19.0676
21.2664
23.2916
25.111
26.7212
28.1612
29.4865
30.7547
32.0437
33.4716
35.163
37.1398
39.0113
40.4068
40.8572
41.09
40.5042
39.3106
39.028
38.6287
38.8648
40.0021
13.4424
17.7894
20.2669
22.5528
24.6346
26.4734
28.0725
29.4746
30.7274
31.8663
32.9335
34.0036
35.1845
36.5633
38.0167
39.2331
39.7309
39.8052
38.989
37.7212
37.2305
36.9292
37.3365
38.3372
14.5464
18.9836
21.5595
23.9348
26.0756
27.944
29.5536
30.9525
32.1835
33.2676
34.2215
35.0815
35.9151
36.8054
37.7487
38.581
38.927
38.8026
37.8682
36.6274
36.0207
35.8568
36.4347
37.3818
15.6714
20.2238
22.9067
25.373
27.575
29.4802
31.1148
32.533
33.774
34.8493
35.7606
36.5186
37.1531
37.7157
38.2357
38.6505
38.7236
38.3698
37.3606
36.17
35.5141
35.4947
36.2194
37.1547
16.2907
16.745
17.2155
17.5693
17.8923
18.1316
18.3365
18.4815
18.5927
18.6607
18.6999
18.7045
18.6819
18.6303
18.5531
18.452
18.3305
18.1931
18.0531
17.9515
18.0081
18.1588
18.3229
18.4772
18.613
18.7275
18.8165
18.8791
18.9124
18.9175
18.8873
18.8276
18.7222
18.5806
18.3772
18.1364
17.8105
17.4503
16.9712
16.505
20.9458
21.3891
21.8684
22.2388
22.5875
22.8613
23.1039
23.2931
23.4498
23.5664
23.6545
23.7094
23.7354
23.7301
23.6942
23.6281
23.534
23.4154
23.2845
23.1848
23.2476
23.4011
23.5575
23.6938
23.8029
23.8827
23.9304
23.9469
23.9316
23.8861
23.8066
23.6971
23.5443
23.3568
23.1139
22.8368
22.483
22.1043
21.6152
21.1594
23.6959
24.1602
24.6755
25.0805
25.474
25.7977
26.0952
26.3445
26.5647
26.7469
26.9013
27.0242
27.1176
27.1781
27.2047
27.1958
27.1524
27.0774
26.9831
26.9117
26.9668
27.0945
27.2175
27.3127
27.3731
27.3974
27.3846
27.3373
27.2566
27.1451
27.0008
26.8258
26.61
26.3632
26.0656
25.7385
25.3392
24.9252
24.3995
23.9213
26.2038
26.6754
27.2113
27.6363
28.0595
28.4171
28.754
29.0479
29.3184
29.5555
29.7664
29.9469
30.0973
30.2139
30.294
30.3354
30.3378
30.3044
30.2484
30.2089
30.2531
30.3496
30.4376
30.4937
30.5102
30.4857
30.4212
30.3197
30.1833
30.0157
29.8161
29.588
29.3241
29.0347
28.6983
28.3379
27.9092
27.4751
26.9284
26.4421
28.4256
28.8816
29.4164
29.8415
30.2743
30.649
31.0116
31.3386
31.6465
31.9258
32.1809
32.4071
32.6029
32.764
32.8869
32.9684
33.0074
33.007
32.9802
32.9617
32.9995
33.0729
33.1331
33.1574
33.1383
33.0746
32.9684
32.8231
32.6421
32.4297
32.1868
31.9176
31.6178
31.2965
30.9361
30.5606
30.123
29.689
29.1431
28.6717
30.3417
30.7696
31.2943
31.714
32.1539
32.5448
32.9297
33.2854
33.6255
33.9409
34.2336
34.4987
34.7329
34.9314
35.0897
35.2039
35.2721
35.2967
35.29
35.2838
35.3185
35.3772
35.4172
35.4167
35.3685
35.2723
35.1307
34.9482
34.729
34.4781
34.1978
33.893
33.5615
33.2119
32.8302
32.4395
31.9963
31.5682
31.032
30.5884
31.9901
32.3909
32.9092
33.3305
33.7797
34.1875
34.5933
34.9751
35.3435
35.6901
36.015
36.3125
36.5789
36.8081
36.9952
37.1353
37.2256
37.2682
37.2747
37.2754
37.3085
37.3587
37.3847
37.3655
37.2947
37.1723
37.0019
36.7884
36.537
36.2533
35.9408
35.605
35.2451
34.8696
34.4671
34.0596
33.6071
33.1786
32.6487
32.232
33.4274
33.8056
34.3229
34.7476
35.2064
35.6293
36.0534
36.457
36.849
37.2209
37.5717
37.8953
38.187
38.4403
38.6494
38.8089
38.9157
38.971
38.986
38.9906
39.023
39.068
39.0843
39.0517
38.9637
38.8212
38.6282
38.3902
38.1131
37.8029
37.4642
37.1028
36.7192
36.3216
35.9007
35.4778
35.0156
34.5836
34.0551
33.6612
34.6881
35.0439
35.5593
35.9868
36.4531
36.8884
37.327
37.748
38.1585
38.5501
38.9209
39.2645
39.5754
39.8469
40.0726
40.2467
40.3659
40.4313
40.4535
40.4617
40.4931
40.5329
40.541
40.4977
40.3966
40.2387
40.0285
39.7718
39.4748
39.1441
38.7849
38.4032
38.0006
37.5854
37.1495
36.714
36.2437
35.809
35.2819
34.9103
35.7772
36.108
36.6188
37.0471
37.5189
37.9643
38.4146
38.8494
39.2746
39.6816
40.0679
40.4266
40.7521
41.0371
41.2754
41.4611
41.5909
41.666
41.6971
41.711
41.7403
41.7723
41.7712
41.7175
41.6053
41.4353
41.2117
40.9407
40.6285
40.282
39.9067
39.509
39.0912
38.6613
38.2132
37.767
37.2907
36.8544
36.3316
35.985
36.6889
36.9893
37.4916
37.9195
38.3957
38.8499
39.3105
39.7576
40.1952
40.615
41.0136
41.3843
41.7209
42.0166
42.2649
42.4606
42.6005
42.6863
42.7286
42.7501
42.7765
42.7982
42.7853
42.7208
42.5982
42.4177
42.1834
41.9009
41.5766
41.2173
40.8288
40.4176
39.9865
39.5437
39.0845
38.6287
38.1472
37.7107
37.1958
36.8798
37.4214
37.6796
38.1663
38.5914
39.0709
39.5339
40.0048
40.4637
40.913
41.3443
41.7538
42.1346
42.4807
42.7853
43.0424
43.2472
43.3971
43.4945
43.5489
43.5783
43.6017
43.612
43.5864
43.5102
43.3772
43.1872
42.9434
42.651
42.3163
41.9458
41.5454
41.1216
40.6779
40.2224
39.7518
39.2862
38.7999
38.3647
37.8629
37.5898
37.9773
38.1663
38.627
39.0445
39.5254
39.997
40.4785
40.9498
41.4111
41.854
42.2739
42.6643
43.019
43.3318
43.597
43.8103
43.9701
44.0787
44.144
44.1803
44.2011
44.2011
44.1631
44.0754
43.9323
43.7329
43.4801
43.1786
42.8341
42.4529
42.0408
41.6044
41.1475
40.6782
40.1956
39.7194
39.2294
38.7984
38.3207
38.1185
38.3782
38.4467
38.8515
39.2529
39.73
40.209
40.701
41.185
41.6592
42.1142
42.5452
42.9454
43.3088
43.6297
43.9027
44.1243
44.2931
44.4114
44.486
44.5275
44.5461
44.5377
44.4889
44.3905
44.2374
44.0289
43.7671
43.4563
43.1018
42.7096
42.2852
41.8352
41.3639
40.8801
40.3846
39.8979
39.4064
38.9866
38.5621
38.4828
38.6343
38.5174
38.8204
39.183
39.6487
40.131
40.632
41.1288
41.6161
42.0841
42.5269
42.9376
43.3103
43.6395
43.9205
44.1499
44.3269
44.4536
44.5354
44.5808
44.5976
44.5823
44.5244
44.4163
44.2538
44.0361
43.765
43.4443
43.0791
42.6747
42.237
41.7724
41.286
40.7869
40.2785
39.7821
39.2959
38.9111
38.589
38.7031
38.75
38.3836
38.5296
38.8168
39.2511
39.7301
40.2356
40.7428
41.242
41.7226
42.1771
42.5985
42.9808
43.3187
43.6074
43.8443
44.0285
44.1618
44.2491
44.2973
44.3127
44.2919
44.2264
44.1097
43.9383
43.7114
43.4306
43.0995
42.7226
42.3056
41.8541
41.3745
40.8731
40.3591
39.8394
39.3385
38.8781
38.5648
38.3981
38.7638
38.5792
37.98
37.9605
38.1517
38.536
38.9985
39.5028
40.0148
40.5219
41.0115
41.4753
41.9056
42.2959
42.6409
42.9362
43.1789
43.3684
43.5066
43.5975
43.6475
43.6617
43.6369
43.5654
43.4419
43.2628
43.0276
42.738
42.3972
42.0097
41.5812
41.1173
40.625
40.1107
39.5851
39.0574
38.5667
38.1528
37.9355
37.9389
38.5439
37.9357
37.2104
37.0866
37.2043
37.5427
37.9834
38.4806
38.991
39.4991
39.9914
40.4585
40.8922
41.2858
41.6336
41.9312
42.1759
42.367
42.5064
42.5981
42.6485
42.6618
42.635
42.5605
42.433
42.2493
42.0089
41.7134
41.366
40.9714
40.5352
40.0631
39.5619
39.0394
38.5042
37.9784
37.5103
37.1504
37.0265
37.1724
37.965
36.982
36.198
36.0214
36.0907
36.3923
36.8084
37.2917
37.7957
38.2987
38.7871
39.251
39.6817
40.0723
40.417
40.7112
40.9523
41.1395
41.2752
41.3641
41.4134
41.4274
41.4021
41.3296
41.2037
41.0211
40.7812
40.4857
40.138
39.7427
39.3051
38.8311
38.327
37.7997
37.2628
36.7437
36.293
35.9625
35.8784
36.0671
36.9034
35.8645
35.1284
34.9757
35.0461
35.3388
35.7413
36.2113
36.703
37.1941
37.6709
38.1232
38.5423
38.9213
39.2541
39.5364
39.7651
39.9399
40.0638
40.1436
40.1891
40.206
40.1881
40.1248
40.0084
39.8349
39.6035
39.3161
38.9764
38.5889
38.1588
37.692
37.1949
36.6738
36.1457
35.6386
35.2019
34.8831
34.8029
34.9734
35.7681
35.3775
34.5965
34.416
34.4632
34.7344
35.1157
35.5648
36.036
36.5094
36.9693
37.4051
37.8075
38.1693
38.4846
38.7486
38.9583
39.1133
39.2173
39.2804
39.3194
39.3437
39.3419
39.2969
39.198
39.041
38.8256
38.554
38.2299
37.8577
37.443
36.9916
36.5099
36.0052
35.4929
34.9998
34.5735
34.2591
34.175
34.3318
35.1093
35.5318
34.8324
34.6917
34.7384
34.9875
35.3303
35.7336
36.1611
36.5939
37.0159
37.4159
37.7843
38.114
38.3987
38.6333
38.8145
38.9411
39.0161
39.0521
39.0783
39.1157
39.1381
39.1178
39.0426
38.9092
38.7184
38.473
38.1767
37.8346
37.452
37.0352
36.5913
36.1289
35.6596
35.204
34.8062
34.5031
34.4082
34.5172
35.2135
36.3795
35.7264
35.611
35.6506
35.8748
36.1787
36.5405
36.9252
37.3154
37.6954
38.0545
38.3838
38.6764
38.9262
39.1286
39.2796
39.3774
39.424
39.4317
39.4397
39.4859
39.5256
39.5223
39.465
39.3514
39.1828
38.9624
38.6942
38.383
38.0345
37.6549
37.2522
36.8349
36.4168
36.0114
35.6563
35.3818
35.2991
35.3883
36.0403
37.1887
36.5668
36.4626
36.4924
36.6973
36.9765
37.3113
37.6675
38.0291
38.381
38.713
39.017
39.2857
39.5137
39.6962
39.8296
39.9118
39.9447
39.9404
39.9411
39.9916
40.0388
40.0446
39.9981
39.8972
39.7435
39.54
39.2905
38.9998
38.6734
38.3177
37.9406
37.5513
37.1638
36.7932
36.4724
36.2285
36.1746
36.2862
36.9657
45.8187
54.2289
62.1508
69.1748
74.5064
78.4768
81.5065
83.9155
85.9794
87.7969
89.447
90.9929
92.5055
94.0543
95.6925
97.4515
99.3385
101.343
103.443
105.606
107.788
109.909
111.777
113.012
45.0121
53.1479
60.8529
67.7745
73.071
77.0263
80.0543
82.4738
84.5427
86.3488
87.976
89.4936
90.9749
92.4889
94.0912
95.8117
97.6573
99.6178
101.671
103.785
105.916
107.987
109.808
111.011
44.159
52.049
59.5443
66.3571
71.6197
75.5685
78.6081
81.0482
83.1255
84.9246
86.5336
88.0259
89.4768
90.959
92.5254
94.2076
96.0127
97.9299
99.9365
102.002
104.083
106.103
107.877
109.05
43.2652
50.9085
58.2021
64.9115
70.1503
74.1061
77.1702
79.6398
81.7315
83.5331
85.1261
86.5955
88.0199
89.4702
91.0037
92.65
94.4156
96.29
98.2513
100.269
102.3
104.271
105.998
107.139
42.3325
49.7478
56.8363
63.4401
68.6629
72.6384
75.74
78.2478
80.3603
82.168
83.7519
85.2038
86.6034
88.0273
89.5286
91.1394
92.8675
94.7011
96.6185
98.5893
100.572
102.494
104.177
105.286
41.4131
48.5504
55.425
61.9266
67.1479
71.1603
74.3098
76.8622
79.002
80.8251
82.4089
83.8471
85.2279
86.6246
88.0978
89.6774
91.3691
93.163
95.0374
96.962
98.8963
100.771
102.408
103.487
40.4052
47.3117
53.969
60.3705
65.6022
69.6642
72.8751
75.4823
77.6583
79.4996
81.0932
82.5254
83.8895
85.2679
86.714
88.2614
89.9192
91.6754
93.5081
95.3885
97.277
99.1038
100.698
101.748
39.4902
46.0512
52.4539
58.7421
63.999
68.1376
71.4236
74.0932
76.3123
78.1867
79.7967
81.2319
82.5897
83.948
85.372
86.8941
88.5191
90.2383
92.0304
93.8665
95.7076
97.4889
99.0391
100.059
38.3692
44.6924
50.8524
57.0395
62.3367
66.5618
69.9416
72.6914
74.9695
76.8789
78.5156
79.9648
81.3191
82.6708
84.0751
85.5687
87.1635
88.848
90.6007
92.3937
94.1912
95.9264
97.4344
98.4251
37.4462
43.3324
49.1593
55.1937
60.5413
64.9073
68.4105
71.2548
73.6005
75.5685
77.2415
78.7101
80.0764
81.4204
82.8104
84.2862
85.8524
87.5019
89.2151
90.9648
92.7149
94.4053
95.8675
96.8287
36.1173
41.7768
47.3271
53.2385
58.6559
63.1535
66.8051
69.7748
72.2176
74.244
75.9653
77.4693
78.847
80.1983
81.5794
83.0313
84.5709
86.1881
87.8632
89.5695
91.2771
92.9214
94.3427
95.2747
35.041
40.2303
45.3315
50.994
56.4586
61.2093
65.0802
68.2125
70.7666
72.8928
74.6793
76.2227
77.6321
78.9877
80.3641
81.8075
83.3232
84.9073
86.5426
88.2061
89.8649
91.4653
92.8386
93.7409
33.7081
38.501
43.1478
48.5993
54.1639
59.0878
63.2126
66.5563
69.2771
71.4976
73.3637
74.9717
76.412
77.792
79.1715
80.5961
82.0893
83.6438
85.2428
86.8622
88.4804
90.0336
91.3658
92.2379
32.2886
36.6954
40.7276
45.6605
51.1364
56.5277
61.0513
64.7117
67.6362
70.0354
72.0128
73.6892
75.1873
76.5879
77.9751
79.4026
80.8775
82.4008
83.959
85.5349
87.1009
88.6102
89.8902
90.7322
30.2781
34.3323
37.8021
42.4118
48.083
53.5916
58.6298
62.6819
65.9152
68.474
70.5867
72.3723
73.9285
75.3782
76.7842
78.1989
79.656
81.1522
82.675
84.205
85.7319
87.1922
88.4293
89.2394
28.1054
31.9915
34.7351
38.2725
43.2072
49.7804
55.4565
60.2022
63.8617
66.7736
69.0822
70.9834
72.6382
74.1296
75.5601
76.9937
78.4392
79.9055
81.3848
82.8679
84.3366
85.7509
86.9284
87.7075
24.4484
28.0265
30.0248
32.993
38.7434
44.7091
51.877
57.3587
61.6409
64.8516
67.4166
69.5129
71.2664
72.8449
74.3171
75.7432
77.1759
78.6174
80.0611
81.4956
82.9255
84.2886
85.418
86.1616
19.8327
24.7221
26.2689
27.0876
29.725
38.6807
45.8434
53.3258
58.6345
62.633
65.5875
67.889
69.8185
71.4712
72.9899
74.4614
75.8913
77.3029
78.6966
80.0769
81.4397
82.7483
83.8064
84.518
11.7999
13.0162
11.9657
10.3993
15.0234
28.7022
41.4878
48.5342
55.2281
59.9087
63.4098
66.1049
68.2077
70.0126
71.6126
73.0778
74.4993
75.8883
77.2465
78.5704
79.8904
81.1485
82.1488
82.8179
9.99085
16.0183
17.819
10.3778
9.10766
15.8588
24.8173
41.3737
49.8526
56.41
60.8524
63.9773
66.4278
68.3712
70.0519
71.6105
73.0435
74.3996
75.6902
76.9503
78.1909
79.3758
80.2777
80.915
16.3206
20.3424
22.4028
22.3879
15.1262
18.6196
20.6136
20.2135
42.3812
51.6935
57.5148
61.5357
64.3255
66.5538
68.3921
69.9415
71.3676
72.7051
73.9673
75.1454
76.3306
77.4681
78.3051
78.8817
23.6155
26.8331
27.689
26.5964
22.007
14.8835
22.1709
21.0564
25.5866
44.0947
53.0949
58.267
61.8511
64.3557
66.3484
68.0846
69.5501
70.8456
71.9877
73.0996
74.1838
75.2145
75.8684
76.432
25.2952
29.3583
31.7138
32.7455
32.176
29.5994
24.1281
21.2524
27.9213
33.4147
46.8373
54.351
58.6601
61.7819
64.0939
65.8176
67.2711
68.5591
69.7133
70.6591
71.6629
72.649
73.2766
73.7102
26.4958
30.6054
33.279
35.2004
36.2
36.1039
34.2202
27.1912
29.3851
35.5109
36.5822
48.3714
54.7075
58.3782
61.0274
63.1454
64.6923
65.9172
66.7911
67.7055
68.5524
69.3686
69.5221
70.0429
26.3594
30.6282
33.556
35.8451
37.39
38.1434
37.9968
36.2535
28.1831
27.3846
23.9758
40.535
48.7861
54.0867
57.4581
59.5483
61.0491
62.3079
63.3499
63.8428
64.5707
65.346
65.7244
65.8732
24.4606
29.06
32.2648
34.8998
36.8532
38.1297
38.7873
38.6702
36.2431
29.7067
33.0207
29.6233
41.844
47.887
52.0741
55.1391
56.8355
57.9514
58.1853
58.7928
59.2441
59.6384
58.4744
59.0779
21.6034
26.5732
29.9855
32.8603
35.1247
36.8054
38.034
38.9286
39.0317
35.3603
32.2663
34.8138
29.6222
39.6096
45.2519
48.1406
49.7794
50.9989
52.034
51.7223
52.0541
52.2482
53.0037
52.1018
18.5247
23.7071
27.143
30.0842
32.522
34.5224
36.2161
37.7663
39.092
39.0927
33.5666
33.5069
20.3622
22.8183
34.5445
40.945
42.3698
43.4807
41.6791
39.8723
41.7246
39.1014
34.4467
34.2422
15.8563
20.9555
24.1999
27.0146
29.4578
31.6379
33.6909
35.7683
37.8638
39.452
38.8565
30.1993
30.1438
18.4053
8.64189
17.6312
29.1487
22.7635
23.1725
35.0608
44.3789
32.9996
20.6885
17.2319
13.4307
18.3596
21.3488
23.9674
26.3313
28.576
30.836
33.2358
35.8394
38.3756
39.9188
37.4817
30.3136
28.9487
29.5681
28.8216
34.3865
28.2577
22.24
38.884
37.0827
45.5582
34.4541
21.7094
11.7048
16.3313
19.0133
21.3884
23.6113
25.818
28.1206
30.6177
33.3961
36.3936
39.0735
39.9447
36.5374
31.2214
26.5556
25.891
34.5746
32.095
30.8501
39.6093
26.9172
39.8363
30.0601
32.9118
10.7014
14.9994
17.4195
19.587
21.6682
23.7752
25.9843
28.3732
31.0369
34.0453
37.2059
39.5795
39.5787
37.8519
35.0591
31.2823
26.1289
30.4979
34.2275
35.2545
39.425
38.3238
35.1908
43.7541
10.2584
14.4076
16.6583
18.6961
20.6735
22.662
24.7032
26.8555
29.2148
31.9069
34.9722
38.0106
39.8238
40.2523
39.1294
38.1942
36.7717
38.048
40.3476
41.0841
44.2546
42.4775
41.121
45.5882
10.3608
14.4209
16.6091
18.6071
20.5355
22.4261
24.2943
26.1858
28.1875
30.426
33.0372
35.9864
38.6675
40.4014
40.5964
40.7665
40.6519
40.9676
41.9882
42.1187
44.3576
42.5637
42.4304
44.9679
10.7976
14.8613
17.0787
19.1095
21.0387
22.8703
24.6047
26.279
27.9672
29.7741
31.8391
34.2837
36.9594
39.3792
40.5943
41.3853
41.6784
41.7595
42.1458
41.6656
43.1754
41.5682
42.0343
43.3556
11.4606
15.5887
17.882
19.9868
21.9549
23.7689
25.4223
26.9486
28.4098
29.8848
31.4823
33.3432
35.5369
37.9065
39.6849
40.9792
41.5247
41.4494
41.3277
40.3824
41.2477
39.9956
40.5395
41.2879
12.2296
16.53
18.9129
21.1029
23.1236
24.9447
26.5603
28.0045
29.3295
30.5889
31.8542
33.2369
34.8562
36.7532
38.5087
39.9737
40.6481
40.4533
39.9812
38.7803
39.1488
38.2724
38.8023
39.364
13.2901
17.6303
20.0968
22.372
24.4488
26.2899
27.8959
29.3058
30.5652
31.7079
32.7721
33.8284
34.9788
36.3233
37.7037
38.9777
39.6004
39.3205
38.6401
37.3753
37.3727
36.8574
37.413
37.9817
14.3668
18.804
21.37
23.7343
25.8695
27.7396
29.3559
30.7637
32.0049
33.0994
34.0625
34.9297
35.7644
36.658
37.5793
38.4615
38.8731
38.4988
37.6997
36.4672
36.2172
35.9984
36.6405
37.2885
15.4747
20.0271
22.6983
25.1521
27.3472
29.2529
30.8934
32.3205
33.5729
34.6616
35.588
36.3641
37.0182
37.6071
38.1424
38.6084
38.7286
38.2262
37.3398
36.1621
35.7596
35.7625
36.5167
37.2577
45.8267
44.1722
43.3574
41.7522
40.7823
39.1864
38.1747
36.7052
35.6969
34.385
33.4188
32.1981
31.2872
30.391
29.5046
28.6084
27.8795
27.385
26.9894
26.5625
26.5652
27.012
27.3347
28.0123
28.5599
29.4696
30.403
31.2963
32.2393
33.4236
34.4123
35.7465
36.779
38.2259
39.2384
40.7851
41.7918
43.3756
44.2089
45.9059
54.4436
52.9455
52.1483
50.7635
49.8427
48.4844
47.516
46.3072
45.3741
44.2755
43.3292
42.3648
41.5746
40.8133
39.9731
39.3056
38.7568
38.3169
38.0958
37.8193
37.8221
38.106
38.3201
38.8046
39.3735
39.9944
40.8395
41.598
42.3884
43.3673
44.2757
45.3926
46.3376
47.575
48.5636
49.8427
50.8191
52.2071
53.0122
54.5312
62.4898
61.0702
60.2648
58.9363
58.0126
56.7634
55.7999
54.6725
53.7302
52.7095
51.8006
50.9062
50.1107
49.3612
48.6463
48.0385
47.5293
47.1116
46.8393
46.6559
46.6585
46.8473
47.1243
47.5449
48.0739
48.6713
49.387
50.1353
50.9339
51.8325
52.7298
53.7577
54.7047
55.8455
56.8215
58.0483
58.9911
60.3229
61.1319
62.5641
69.5085
68.0727
67.1823
65.8301
64.8449
63.5907
62.5793
61.4403
60.4561
59.4348
58.516
57.6231
56.8128
56.0615
55.3842
54.7922
54.2956
53.9
53.6243
53.4735
53.4759
53.6314
53.9115
54.3098
54.812
55.4052
56.0844
56.8372
57.6499
58.5458
59.4641
60.4892
61.4755
62.6192
63.6353
64.8887
65.8797
67.2364
68.1284
69.5709
74.7943
73.3039
72.3214
70.9218
69.8644
68.5776
67.5105
66.3464
65.3221
64.2854
63.3455
62.4442
61.625
60.8731
60.2044
59.6228
59.139
58.7603
58.4976
58.3594
58.3616
58.504
58.7704
59.1523
59.6395
60.2236
60.8947
61.649
62.4704
63.3743
64.316
65.3555
66.3819
67.5491
68.6185
69.9084
70.9687
72.3724
73.3572
74.8523
78.7247
77.1912
76.1383
74.7073
73.594
72.2878
71.1801
70.0034
68.953
67.9086
66.9566
66.0529
65.232
64.4839
63.8228
63.2518
62.7801
62.4145
62.1631
62.0325
62.0345
62.1689
62.4238
62.7925
63.2673
63.8411
64.5049
65.2554
66.0786
66.9848
67.9391
68.9861
70.0385
71.2181
72.3281
73.6375
74.7532
76.1879
77.2435
78.7813
81.7214
80.1602
79.0527
77.6076
76.4527
75.1383
74.0025
72.8204
71.7544
70.7069
69.749
68.8457
68.0259
67.2824
66.6276
66.0648
65.6021
65.2455
65.0017
64.8759
64.8778
65.0072
65.2543
65.6139
66.0797
66.6453
67.3027
68.0488
68.871
69.7769
70.7371
71.7872
72.8553
74.0401
75.1783
76.4958
77.6531
79.1019
80.212
81.7774
84.0982
82.5182
81.3653
79.9144
78.7296
77.4122
76.2581
75.0726
73.997
72.947
71.9853
71.0817
70.2621
69.5207
68.869
68.3105
67.8523
67.5003
67.2604
67.137
67.1387
67.2656
67.5088
67.8639
68.325
68.8865
69.5408
70.2848
71.1068
72.013
72.9771
74.0296
75.1075
76.2958
77.4523
78.7727
79.9599
81.4143
82.5697
84.1539
86.1374
84.5396
83.3513
81.89
80.6821
79.3557
78.1864
76.9925
75.9065
74.8498
73.8808
72.9721
72.1478
71.4031
70.7488
70.1885
69.7293
69.3767
69.1364
69.0126
69.0143
69.1416
69.3852
69.7408
70.203
70.7662
71.4231
72.1705
72.9973
73.9086
74.88
75.9393
77.0278
78.2243
79.396
80.7254
81.9358
83.4003
84.5914
86.193
87.9472
86.3218
85.111
83.632
82.4064
81.0664
79.8825
78.6773
77.5789
76.5123
75.533
74.6155
73.7828
73.0306
72.3695
71.8033
71.339
70.9823
70.7387
70.6126
70.6144
70.7439
70.9908
71.3506
71.8179
72.387
73.0509
73.8057
74.641
75.5611
76.5427
77.612
78.7128
79.9207
81.1071
82.45
83.6782
85.1603
86.374
88.0027
89.5989
87.9441
86.714
85.2147
83.9711
82.615
81.4146
80.1949
79.0817
78.0017
77.009
76.0791
75.2344
74.471
73.7994
73.2236
72.7508
72.387
72.138
72.0082
72.0101
72.1433
72.3957
72.7626
73.2384
73.8171
74.4915
75.2575
76.1049
77.0373
78.0324
79.1151
80.2308
81.4532
82.6561
84.0151
85.2613
86.7638
87.9968
89.6547
91.1525
89.466
88.2197
86.6969
85.4358
84.0603
82.8425
81.6055
80.4755
79.3793
78.3707
77.4256
76.5659
75.7883
75.1032
74.515
74.031
73.6577
73.4014
73.2669
73.2688
73.4069
73.6666
74.043
74.53
75.1212
75.809
76.5894
77.4516
78.3994
79.4104
80.5093
81.6417
82.8815
84.1017
85.4803
86.7439
88.27
89.5189
91.2089
92.6756
90.9554
89.6943
88.1455
86.8666
85.4694
84.2328
82.9762
81.8277
80.7129
79.6864
78.7236
77.8467
77.0524
76.3514
75.7481
75.2506
74.8659
74.6007
74.4605
74.4624
74.6063
74.8749
75.2629
75.7635
76.3696
77.0734
77.8705
78.75
79.7153
80.7445
81.8618
83.0129
84.2722
85.5113
86.9114
88.193
89.7449
91.0088
92.7323
94.2353
92.4797
91.2032
89.6265
88.3285
86.9075
85.6505
84.3722
83.2031
82.0678
81.0211
80.0385
79.1421
78.3288
77.6094
76.9889
76.4756
76.0773
75.8017
75.6549
75.657
75.8075
76.0866
76.4882
77.0045
77.628
78.3502
79.1662
80.0652
81.0504
82.0996
83.2376
84.4091
85.6903
86.9497
88.3737
89.6743
91.2543
92.5334
94.2924
95.8856
94.0917
92.799
91.1914
89.8728
88.4255
87.1463
85.8439
84.6523
83.4941
82.4251
81.4204
80.5023
79.6677
78.9275
78.2872
77.7557
77.3417
77.054
76.8997
76.9018
77.06
77.3513
77.7686
78.3032
78.9464
79.6893
80.5266
81.4473
82.4547
83.5261
84.6869
85.8811
87.1862
88.4679
89.9183
91.2395
92.8502
94.1456
95.943
97.6567
95.8221
94.5111
92.8705
91.5291
90.0531
88.7493
87.4205
86.2041
85.0209
83.9273
82.8983
81.9561
81.0978
80.3344
79.6717
79.1194
78.6871
78.3852
78.2222
78.2245
78.3914
78.697
79.1325
79.6879
80.3535
81.1197
81.9807
82.9254
83.9571
85.053
86.239
87.4578
88.7894
90.0956
91.5746
92.9186
94.5624
95.8761
97.7141
99.556
97.6787
96.3475
94.6718
93.3054
91.7986
90.4683
89.1111
87.8678
86.6573
85.5372
84.4817
83.5133
82.6289
81.8398
81.1521
80.576
80.1227
79.8042
79.6311
79.6334
79.8106
80.1328
80.5895
81.1686
81.8592
82.651
83.538
84.5089
85.567
86.6895
87.9026
89.1483
90.5083
91.8411
93.3509
94.7198
96.3987
97.7326
99.6133
101.574
99.6519
98.2995
96.5873
95.1941
93.6552
92.2968
90.9094
89.6377
88.3985
87.2502
86.1665
85.17
84.2577
83.4406
82.7251
82.1224
81.6447
81.3066
81.1216
81.124
81.3133
81.6551
82.1361
82.7419
83.4601
84.2798
85.1947
86.1936
87.2799
88.4306
89.6723
90.9465
92.3364
93.6975
95.2396
96.6347
98.3503
99.7054
101.63
103.687
101.721
100.347
98.5971
97.1771
95.6054
94.2175
92.7997
91.4987
90.2295
89.0521
87.9394
86.9134
85.9717
85.1248
84.3793
83.7468
83.2412
82.88
82.6806
82.6831
82.8869
83.2519
83.7608
84.3962
85.1444
85.9938
86.9382
87.9664
89.0815
90.2617
91.5328
92.8364
94.2567
95.6468
97.2217
98.6445
100.397
101.774
103.743
105.866
103.857
102.46
100.674
99.2268
97.6223
96.2054
94.7567
93.4265
92.1279
90.921
89.7784
88.7231
87.7508
86.8731
86.0954
85.4303
84.8929
84.5038
84.2868
84.2894
84.511
84.9039
85.4446
86.1127
86.8926
87.7728
88.7473
89.8052
90.9497
92.159
93.4599
94.793
96.2443
97.6634
99.2705
100.72
102.509
103.909