/*--------------------------------*- C++ -*----------------------------------*\
  =========                 |
  \\      /  F ield         | OpenFOAM: The Open Source CFD Toolbox
   \\    /   O peration     | Website:  https://openfoam.org
    \\  /    A nd           | Version:  6
     \\/     M anipulation  |
\*---------------------------------------------------------------------------*/
FoamFile
{
    version     2.0;
    format      ascii;
    class       volScalarField;
    location    "34";
    object      omega;
}
// * * * * * * * * * * * * * * * * * * * * * * * * * * * * * * * * * * * * * //

dimensions      [0 0 -1 0 0 0 0];

internalField   nonuniform List<scalar> 
380496
(
843.917
843.917
843.917
843.917
843.917
843.917
843.917
843.917
843.917
843.917
843.917
843.917
843.917
843.917
843.917
843.917
843.917
843.917
843.917
843.917
843.917
843.917
843.917
843.917
843.917
843.917
843.917
843.917
843.917
843.917
843.917
843.917
843.917
843.917
843.917
843.917
843.917
843.917
843.917
843.917
843.917
843.917
843.917
843.917
843.917
843.917
843.917
843.917
843.917
843.917
843.917
843.917
843.917
843.917
843.917
843.917
843.917
843.917
843.917
843.917
843.917
843.917
843.917
843.917
843.917
843.917
843.917
843.917
843.917
843.917
843.917
843.917
843.917
843.917
843.917
843.917
843.917
843.917
843.917
843.917
843.917
843.917
843.917
843.917
843.917
843.917
843.917
843.917
843.917
843.917
843.917
843.917
843.917
843.917
843.917
843.917
843.917
843.917
843.917
843.917
843.917
843.917
843.917
843.917
843.917
843.917
843.917
843.917
843.917
843.917
843.917
843.917
843.917
843.917
843.917
843.917
843.917
843.917
843.917
843.917
843.917
843.917
843.917
843.917
843.917
843.917
843.917
843.917
843.917
843.917
843.917
843.917
843.917
843.917
843.917
843.917
843.917
843.917
843.917
843.917
843.917
843.917
843.917
843.917
843.917
843.917
843.917
843.917
843.917
843.917
843.917
843.917
843.917
843.917
843.917
843.917
843.917
843.917
843.917
843.917
843.917
843.917
843.917
843.917
843.917
843.917
843.917
843.917
843.917
843.917
843.917
843.917
843.917
843.917
843.917
843.917
843.917
843.917
843.917
843.917
843.917
843.917
843.917
843.917
843.917
843.917
843.917
843.917
843.917
843.917
843.917
843.917
843.917
843.917
843.917
843.917
843.917
843.917
843.917
843.917
843.917
843.917
843.917
843.917
843.917
843.917
843.917
843.917
843.917
843.917
843.917
843.917
843.917
843.917
843.917
843.917
843.917
843.917
843.917
843.917
843.917
843.917
843.917
843.917
843.917
843.917
843.917
843.917
843.917
843.917
843.917
843.917
843.917
843.917
843.917
843.917
843.917
843.917
843.917
843.917
843.917
843.917
843.917
843.917
843.917
843.917
843.917
843.917
843.917
843.917
843.917
843.917
843.917
843.917
843.917
843.917
843.917
843.917
843.917
843.917
843.917
843.917
843.917
843.917
843.917
843.917
843.917
843.917
843.917
843.917
843.917
843.917
843.917
843.917
843.917
843.917
843.917
843.917
843.917
843.917
843.917
843.917
843.917
843.917
843.917
843.917
843.917
843.917
843.917
843.917
843.917
843.917
843.917
843.917
843.917
843.917
843.917
843.917
843.917
843.917
843.917
843.917
843.917
843.917
843.917
843.917
843.917
843.917
843.917
843.917
843.917
843.917
843.917
843.917
843.917
843.917
843.917
843.917
843.917
843.917
843.917
843.917
843.917
843.917
843.917
843.917
843.917
843.917
843.917
843.917
843.917
843.917
843.917
843.917
843.917
843.917
843.917
843.917
843.917
843.917
843.917
843.917
843.917
843.917
843.917
843.917
843.917
843.917
843.917
843.917
843.917
843.917
843.917
843.917
843.917
843.917
843.917
843.917
843.917
843.917
843.917
843.917
843.917
843.917
843.917
843.917
843.917
843.917
843.917
843.917
843.917
843.917
843.917
843.917
843.917
843.917
843.917
843.917
843.917
843.917
843.917
843.917
843.917
843.917
843.917
843.917
843.917
843.917
843.917
843.917
843.917
843.917
843.917
843.917
843.917
843.917
843.917
843.917
843.917
843.917
843.917
843.917
843.917
843.917
843.917
843.917
843.917
843.917
843.917
843.917
843.917
843.917
843.917
843.917
843.917
843.917
843.917
843.917
843.917
843.917
843.917
843.917
843.917
843.917
843.917
843.917
843.917
843.917
843.917
843.917
843.917
843.917
843.917
843.917
843.917
843.917
843.917
843.917
843.917
843.917
843.917
843.917
843.917
843.917
843.917
843.917
843.917
843.917
843.917
843.917
843.917
843.917
843.917
843.917
843.917
843.917
843.917
843.917
843.917
843.917
843.917
843.917
843.917
843.917
843.917
843.917
843.917
843.917
843.917
843.917
843.917
843.917
843.917
843.917
843.917
843.917
843.917
843.917
843.917
843.917
843.917
843.917
843.917
843.917
843.917
843.917
843.917
843.917
843.917
843.917
843.917
843.917
843.917
843.917
843.917
843.917
843.917
843.917
843.917
843.917
843.917
843.917
843.917
843.917
843.917
843.917
843.917
843.917
843.917
843.917
843.917
843.917
843.917
843.917
843.917
843.917
843.917
843.917
843.917
843.917
843.917
843.917
843.917
843.917
843.917
843.917
843.917
843.917
843.917
843.917
843.917
843.917
843.917
843.917
843.917
843.917
843.917
843.917
843.917
843.917
843.917
843.917
843.917
843.917
843.917
843.917
843.917
843.917
843.917
843.917
843.917
843.917
843.917
843.917
843.917
843.917
843.917
843.917
843.917
843.917
843.917
843.917
843.917
843.917
843.917
843.917
843.917
843.917
843.917
843.917
843.917
843.917
843.917
843.917
843.917
843.917
843.917
843.917
843.917
843.917
843.917
843.917
843.917
843.917
843.917
843.917
843.917
843.917
843.917
843.917
843.917
843.917
843.917
843.917
843.917
843.917
843.917
843.917
843.917
843.917
843.917
843.917
843.917
843.917
843.917
843.917
843.917
843.917
843.917
843.917
843.917
843.917
843.917
843.917
843.917
843.917
843.917
843.917
843.917
843.917
843.917
843.917
843.917
843.917
843.917
843.917
843.917
843.917
843.917
843.917
843.917
843.917
843.917
843.917
843.917
843.917
843.917
843.917
843.917
843.917
843.917
843.917
843.917
843.917
843.917
843.917
843.917
843.917
843.917
843.917
843.917
843.917
843.917
843.917
843.917
843.917
843.917
843.917
843.917
843.917
843.917
843.917
843.917
843.917
843.917
843.917
843.917
843.917
843.917
843.917
843.917
843.917
843.917
843.917
843.917
843.917
843.917
843.917
843.917
843.917
843.917
843.917
843.917
843.917
843.917
843.917
843.917
843.917
843.917
843.917
843.917
843.917
843.917
843.917
843.917
843.917
843.917
843.917
843.917
843.917
423.923
423.923
423.923
423.923
423.923
423.923
423.923
423.923
423.923
423.923
423.923
423.923
423.923
423.923
423.923
423.923
423.923
423.923
423.923
423.923
423.923
423.923
423.923
423.923
423.923
423.923
423.923
423.923
423.923
423.923
423.923
423.923
423.923
423.923
423.923
281.629
267.585
268.717
269.789
269.877
269.712
269.595
269.523
269.487
269.46
269.448
269.437
269.437
269.434
269.439
269.441
269.447
269.452
269.459
269.466
269.473
269.485
269.493
269.509
269.519
269.54
269.552
269.578
269.59
269.622
269.632
269.669
269.667
269.719
269.68
281.467
267.57
268.64
269.665
269.726
269.558
269.434
269.366
269.325
269.305
269.29
269.288
269.286
269.294
269.296
269.311
269.314
269.334
269.338
269.364
269.368
269.4
269.406
269.444
269.452
269.496
269.507
269.557
269.57
269.626
269.634
269.697
269.684
269.774
269.656
281.133
267.394
268.465
269.457
269.492
269.317
269.19
269.123
269.083
269.068
269.057
269.062
269.065
269.082
269.091
269.116
269.128
269.16
269.174
269.212
269.229
269.274
269.294
269.347
269.37
269.433
269.459
269.532
269.558
269.641
269.662
269.76
269.755
269.893
269.781
280.565
267.015
268.167
269.132
269.135
268.946
268.816
268.752
268.715
268.707
268.702
268.717
268.728
268.756
268.774
268.81
268.833
268.877
268.903
268.955
268.984
269.045
269.079
269.15
269.188
269.27
269.313
269.405
269.45
269.553
269.595
269.714
269.73
269.893
269.793
280.148
266.779
267.819
268.716
268.698
268.505
268.375
268.311
268.278
268.274
268.275
268.297
268.315
268.351
268.379
268.425
268.458
268.514
268.552
268.617
268.661
268.737
268.786
268.874
268.93
269.031
269.092
269.206
269.27
269.399
269.46
269.608
269.642
269.846
269.754
279.34
266.187
267.263
268.114
268.065
267.862
267.733
267.675
267.651
267.656
267.669
267.702
267.733
267.782
267.822
267.882
267.929
267.999
268.052
268.133
268.193
268.287
268.354
268.461
268.535
268.656
268.738
268.874
268.959
269.111
269.195
269.368
269.424
269.661
269.58
278.499
265.568
266.582
267.362
267.285
267.075
266.949
266.896
266.88
266.894
266.919
266.962
267.005
267.065
267.119
267.192
267.253
267.337
267.406
267.503
267.58
267.69
267.776
267.902
267.997
268.138
268.241
268.399
268.507
268.683
268.789
268.99
269.067
269.34
269.269
277.444
264.749
265.696
266.401
266.295
266.081
265.959
265.915
265.91
265.935
265.973
266.028
266.085
266.158
266.226
266.312
266.388
266.487
266.572
266.685
266.779
266.907
267.012
267.157
267.271
267.434
267.557
267.738
267.867
268.066
268.194
268.421
268.519
268.824
268.761
276.19
263.73
264.618
265.243
265.106
264.889
264.777
264.745
264.756
264.796
264.85
264.92
264.993
265.08
265.164
265.264
265.357
265.47
265.572
265.701
265.814
265.96
266.083
266.247
266.381
266.564
266.707
266.909
267.059
267.281
267.43
267.681
267.798
268.133
268.078
274.956
262.701
263.439
263.975
263.817
263.602
263.499
263.477
263.5
263.551
263.617
263.699
263.784
263.882
263.979
264.091
264.197
264.324
264.44
264.584
264.712
264.873
265.013
265.194
265.346
265.546
265.708
265.929
266.097
266.339
266.506
266.778
266.911
267.273
267.222
273.278
261.256
261.943
262.4
262.214
262.004
261.92
261.921
261.966
262.04
262.127
262.227
262.33
262.445
262.558
262.686
262.809
262.951
263.085
263.244
263.39
263.568
263.727
263.925
264.095
264.314
264.494
264.734
264.921
265.182
265.367
265.659
265.809
266.195
266.148
271.661
259.847
260.301
260.653
260.451
260.252
260.182
260.196
260.255
260.341
260.44
260.552
260.668
260.794
260.92
261.06
261.197
261.352
261.5
261.673
261.835
262.029
262.204
262.418
262.606
262.842
263.04
263.297
263.502
263.781
263.984
264.294
264.459
264.868
264.824
269.373
257.801
258.174
258.448
258.229
258.05
258.015
258.062
258.154
258.268
258.394
258.528
258.665
258.81
258.956
259.112
259.268
259.439
259.606
259.796
259.977
260.187
260.382
260.614
260.821
261.074
261.292
261.567
261.79
262.087
262.308
262.637
262.818
263.249
263.207
267.102
255.731
255.812
255.978
255.752
255.596
255.586
255.656
255.768
255.901
256.044
256.194
256.347
256.507
256.667
256.838
257.009
257.195
257.379
257.584
257.783
258.009
258.222
258.47
258.696
258.967
259.203
259.495
259.737
260.052
260.29
260.637
260.832
261.284
261.244
264.032
252.893
252.801
252.891
252.668
252.557
252.596
252.712
252.863
253.03
253.203
253.378
253.555
253.735
253.917
254.107
254.298
254.502
254.706
254.928
255.147
255.391
255.624
255.89
256.137
256.425
256.682
256.992
257.253
257.586
257.842
258.206
258.418
258.891
258.852
260.551
249.608
249.226
249.242
249.037
248.978
249.066
249.229
249.417
249.619
249.818
250.02
250.218
250.419
250.62
250.828
251.037
251.258
251.481
251.72
251.958
252.218
252.471
252.753
253.021
253.326
253.603
253.93
254.211
254.56
254.836
255.216
255.445
255.936
255.898
256.376
245.602
244.841
244.776
244.601
244.612
244.76
244.974
245.197
245.431
245.652
245.878
246.092
246.312
246.527
246.752
246.975
247.211
247.449
247.703
247.958
248.233
248.505
248.802
249.089
249.41
249.707
250.051
250.351
250.721
251.015
251.42
251.666
252.18
252.153
249.995
239.619
238.809
238.795
238.685
238.793
239.027
239.316
239.593
239.877
240.13
240.388
240.621
240.865
241.092
241.335
241.569
241.823
242.072
242.344
242.612
242.906
243.194
243.515
243.825
244.173
244.496
244.87
245.198
245.597
245.918
246.346
246.625
247.152
247.164
240.797
231.454
230.472
230.628
230.69
230.93
231.234
231.554
231.837
232.115
232.354
232.601
232.819
233.058
233.275
233.52
233.749
234.01
234.258
234.541
234.812
235.126
235.444
235.803
236.152
236.538
236.908
237.315
237.696
238.125
238.504
238.966
239.311
239.857
239.983
214.291
212.119
212.366
213.281
213.906
214.635
215.35
216.014
216.605
217.164
217.668
218.165
218.622
219.088
219.523
219.977
220.405
220.859
221.289
221.75
222.188
222.66
223.109
223.591
224.052
224.541
225.011
225.503
225.979
226.465
226.941
227.409
227.88
228.28
228.918
9.02126
7.66251
7.5896
7.55608
7.60812
7.67951
7.77072
7.86205
7.96274
8.05461
8.1512
8.23634
8.32589
8.40388
8.48777
8.5605
8.6411
8.7105
8.79
8.85727
8.93754
9.00299
9.08563
9.14838
9.23521
9.29298
9.38655
9.43514
9.53953
9.57188
9.69367
9.69718
9.84757
9.79328
9.99197
135.248
128.88
128.551
129.041
129.234
129.225
129.171
129.121
129.083
129.055
129.036
129.022
129.014
129.01
129.008
129.01
129.013
129.019
129.026
129.035
129.046
129.059
129.075
129.092
129.113
129.135
129.163
129.191
129.228
129.261
129.309
129.35
129.408
129.463
129.532
135.076
128.679
128.312
128.777
128.958
128.944
128.886
128.834
128.795
128.768
128.749
128.738
128.732
128.73
128.731
128.736
128.743
128.752
128.764
128.777
128.794
128.811
128.834
128.855
128.884
128.91
128.947
128.978
129.024
129.06
129.117
129.161
129.218
129.292
129.302
134.794
128.386
128.004
128.455
128.627
128.608
128.547
128.495
128.456
128.43
128.414
128.406
128.403
128.406
128.412
128.422
128.435
128.45
128.469
128.488
128.513
128.537
128.568
128.597
128.635
128.67
128.717
128.756
128.815
128.859
128.93
128.98
129.056
129.134
129.172
134.361
127.975
127.612
128.06
128.221
128.194
128.13
128.077
128.04
128.017
128.004
128
128.002
128.011
128.023
128.039
128.058
128.079
128.105
128.131
128.163
128.195
128.233
128.27
128.317
128.359
128.415
128.463
128.53
128.583
128.66
128.721
128.798
128.89
128.921
134.043
127.651
127.237
127.649
127.793
127.759
127.691
127.635
127.597
127.575
127.563
127.562
127.567
127.579
127.595
127.615
127.639
127.666
127.696
127.729
127.767
127.805
127.851
127.895
127.949
127.999
128.063
128.119
128.194
128.256
128.342
128.411
128.498
128.6
128.638
133.489
127.122
126.719
127.118
127.247
127.204
127.133
127.078
127.042
127.023
127.016
127.02
127.031
127.049
127.071
127.098
127.129
127.163
127.2
127.241
127.285
127.332
127.384
127.437
127.498
127.557
127.629
127.694
127.776
127.846
127.94
128.018
128.108
128.221
128.259
132.924
126.585
126.159
126.525
126.634
126.581
126.505
126.448
126.413
126.397
126.394
126.403
126.418
126.442
126.469
126.502
126.539
126.579
126.623
126.67
126.721
126.775
126.834
126.895
126.964
127.031
127.11
127.183
127.273
127.352
127.452
127.539
127.635
127.759
127.798
132.248
125.943
125.495
125.827
125.914
125.849
125.769
125.712
125.679
125.666
125.668
125.681
125.703
125.732
125.765
125.804
125.847
125.894
125.944
125.998
126.056
126.117
126.184
126.251
126.328
126.402
126.489
126.57
126.667
126.753
126.86
126.956
127.055
127.19
127.227
131.463
125.21
124.746
125.042
125.103
125.026
124.941
124.885
124.856
124.849
124.857
124.877
124.906
124.941
124.982
125.027
125.077
125.13
125.187
125.248
125.313
125.381
125.455
125.53
125.614
125.696
125.789
125.878
125.982
126.076
126.189
126.293
126.396
126.542
126.576
130.701
124.496
123.978
124.221
124.256
124.167
124.079
124.024
123.997
123.994
124.006
124.031
124.064
124.105
124.151
124.202
124.256
124.315
124.378
124.445
124.516
124.59
124.67
124.752
124.842
124.931
125.03
125.126
125.236
125.337
125.454
125.566
125.671
125.827
125.858
129.711
123.569
123.041
123.249
123.256
123.154
123.065
123.014
122.994
123
123.021
123.054
123.096
123.145
123.198
123.256
123.318
123.384
123.454
123.527
123.605
123.687
123.773
123.863
123.959
124.055
124.162
124.264
124.38
124.488
124.611
124.73
124.839
125.004
125.032
128.745
122.677
122.059
122.194
122.168
122.054
121.963
121.913
121.898
121.908
121.935
121.974
122.021
122.075
122.134
122.197
122.265
122.337
122.412
122.492
122.576
122.664
122.757
122.852
122.955
123.058
123.171
123.28
123.402
123.517
123.645
123.771
123.883
124.058
124.082
127.448
121.461
120.819
120.911
120.854
120.73
120.642
120.601
120.598
120.62
120.658
120.708
120.766
120.829
120.897
120.969
121.044
121.124
121.207
121.295
121.386
121.482
121.582
121.686
121.796
121.907
122.026
122.143
122.272
122.394
122.528
122.662
122.777
122.962
122.982
126.136
120.248
119.483
119.486
119.389
119.255
119.168
119.134
119.138
119.169
119.216
119.274
119.339
119.411
119.485
119.565
119.647
119.734
119.824
119.919
120.017
120.12
120.228
120.339
120.457
120.575
120.702
120.826
120.962
121.091
121.231
121.372
121.491
121.686
121.702
124.43
118.648
117.808
117.748
117.617
117.476
117.399
117.38
117.401
117.447
117.509
117.58
117.657
117.739
117.824
117.913
118.004
118.1
118.199
118.302
118.409
118.521
118.637
118.756
118.882
119.008
119.143
119.276
119.419
119.556
119.703
119.852
119.975
120.181
120.192
122.481
116.821
115.84
115.695
115.526
115.382
115.316
115.313
115.351
115.414
115.49
115.574
115.663
115.756
115.851
115.949
116.05
116.154
116.261
116.373
116.488
116.607
116.732
116.859
116.993
117.128
117.27
117.411
117.562
117.707
117.861
118.018
118.146
118.363
118.368
120.129
114.623
113.441
113.179
112.964
112.82
112.771
112.79
112.845
112.924
113.012
113.109
113.207
113.308
113.41
113.516
113.623
113.734
113.848
113.966
114.088
114.215
114.347
114.482
114.623
114.766
114.917
115.066
115.226
115.38
115.544
115.711
115.849
116.08
116.087
116.507
111.184
110.002
109.753
109.536
109.41
109.384
109.426
109.5
109.596
109.695
109.802
109.906
110.016
110.124
110.237
110.35
110.469
110.59
110.717
110.848
110.984
111.126
111.274
111.429
111.587
111.753
111.919
112.094
112.265
112.445
112.626
112.782
113.022
113.048
111.045
106.317
104.831
104.491
104.259
104.157
104.154
104.22
104.309
104.423
104.537
104.665
104.786
104.921
105.05
105.192
105.33
105.48
105.629
105.79
105.951
106.128
106.303
106.484
106.667
106.855
107.049
107.244
107.447
107.646
107.855
108.063
108.259
108.515
108.615
95.7356
95.7801
94.6583
94.3632
94.1534
94.1256
94.2379
94.4325
94.6615
94.9158
95.1717
95.4365
95.6949
95.959
96.2151
96.4768
96.7314
96.9922
97.247
97.5084
97.7652
98.0287
98.2885
98.5546
98.8179
99.0864
99.3523
99.6218
99.8884
100.156
100.422
100.68
100.956
101.166
101.531
11.4418
9.87485
9.83957
9.88326
9.99855
10.1209
10.2557
10.3821
10.5144
10.6322
10.7532
10.8584
10.9678
11.0621
11.1628
11.2492
11.3447
11.4262
11.5194
11.5976
11.6909
11.7665
11.862
11.9342
12.034
12.1003
12.2074
12.2634
12.3822
12.4206
12.5581
12.5667
12.7332
12.689
12.8939
79.7825
77.2366
76.6745
76.7657
76.8902
76.9329
76.9256
76.9028
76.877
76.8553
76.8365
76.8227
76.8114
76.8042
76.7986
76.7962
76.7951
76.7961
76.7986
76.8021
76.8079
76.8137
76.823
76.8309
76.8442
76.8543
76.8723
76.8846
76.9087
76.9233
76.9549
76.9729
77.0131
77.0361
77.0919
79.595
77.0493
76.4707
76.5466
76.6627
76.6995
76.6893
76.6634
76.6368
76.6134
76.5955
76.581
76.5718
76.5642
76.5618
76.5591
76.5621
76.5625
76.5701
76.5729
76.5849
76.5896
76.6061
76.6126
76.6341
76.6425
76.6696
76.68
76.7135
76.7263
76.7659
76.7843
76.8228
76.8587
76.8819
79.3539
76.8071
76.2188
76.2857
76.396
76.4287
76.4159
76.388
76.3605
76.3366
76.3193
76.3054
76.298
76.292
76.2921
76.2916
76.2977
76.301
76.3122
76.3182
76.3342
76.3424
76.3637
76.3736
76.4009
76.412
76.4467
76.4584
76.5021
76.5138
76.5674
76.5817
76.6392
76.6675
76.7176
79.0384
76.4936
75.9093
75.9755
76.082
76.1105
76.0944
76.0643
76.0362
76.0125
75.9963
75.984
75.9788
75.9752
75.9784
75.9807
75.9903
75.9968
76.0118
76.0212
76.0415
76.0533
76.079
76.0928
76.1247
76.1403
76.1792
76.1961
76.2431
76.2612
76.3162
76.3381
76.394
76.4311
76.4752
78.7525
76.2185
75.6168
75.6634
75.7567
75.7769
75.7555
75.7219
75.6913
75.6664
75.6497
75.6378
75.6333
75.631
75.6357
75.64
75.6517
75.6606
75.6781
75.6904
75.7134
75.7284
75.7574
75.7746
75.8102
75.8292
75.8725
75.8925
75.9447
75.9652
76.0265
76.0501
76.1131
76.1517
76.2041
78.3535
75.8247
75.2274
75.2701
75.3561
75.3699
75.3437
75.3075
75.2759
75.2512
75.2356
75.2256
75.2235
75.2239
75.2316
75.2391
75.2541
75.2665
75.2875
75.3035
75.3302
75.3491
75.3819
75.4031
75.4427
75.4657
75.5131
75.5372
75.5934
75.6179
75.6827
75.7104
75.7758
75.8181
75.8718
77.9279
75.4148
74.8121
74.8404
74.913
74.917
74.8842
74.8441
74.8104
74.7852
74.7701
74.7614
74.7609
74.7637
74.7736
74.7839
74.8015
74.817
74.8409
74.8601
74.89
74.9123
74.9485
74.9733
75.0164
75.0432
75.0942
75.1219
75.182
75.21
75.2785
75.3097
75.3782
75.4243
75.4807
77.4332
74.937
74.3315
74.3451
74.4029
74.3958
74.3558
74.3116
74.2759
74.2505
74.2361
74.2291
74.2306
74.2359
74.2484
74.2617
74.2821
74.3008
74.3277
74.3504
74.3834
74.4093
74.4488
74.4773
74.5239
74.5543
74.609
74.6403
74.7039
74.7355
74.8071
74.8419
74.9124
74.9624
75.0192
76.8735
74.4029
73.7992
73.7986
73.84
73.8203
73.7724
73.7241
73.687
73.662
73.6491
73.6445
73.6486
73.6571
73.6726
73.6892
73.7128
73.7349
73.765
73.7911
73.8274
73.8568
73.8997
73.9318
73.9819
74.0159
74.0741
74.109
74.1759
74.2111
74.2856
74.3241
74.3965
74.4506
74.508
76.3103
73.8749
73.2594
73.2337
73.2541
73.2206
73.1646
73.1121
73.0732
73.0483
73.0363
73.0334
73.0396
73.0504
73.0683
73.0877
73.1137
73.1387
73.1715
73.2007
73.2398
73.2723
73.3182
73.3535
73.4067
73.4439
73.5052
73.5433
73.6133
73.6515
73.7288
73.7705
73.8445
73.9023
73.9597
75.6269
73.2234
72.6147
72.5757
72.5781
72.5304
72.4662
72.4103
72.3711
72.3478
72.3385
72.3391
72.3487
72.3634
72.3848
72.408
72.4375
72.4662
72.5023
72.5351
72.5776
72.6137
72.663
72.7019
72.7585
72.7992
72.864
72.9054
72.9787
73.0203
73.1004
73.1454
73.2213
73.283
73.3405
74.9227
72.573
71.9401
71.8626
71.8353
71.7696
71.6961
71.6363
71.5959
71.5736
71.566
71.569
71.5813
71.599
71.6232
71.6495
71.6818
71.7137
71.7527
71.7889
71.8344
71.874
71.9264
71.9688
72.0287
72.073
72.1411
72.1859
72.2625
72.3073
72.3904
72.4388
72.5165
72.5822
72.6394
74.0386
71.735
71.1055
71.0097
70.9597
70.8776
70.7961
70.734
70.695
70.676
70.6727
70.6804
70.6973
70.7197
70.7482
70.7789
70.8153
70.8515
70.8943
70.9347
70.9839
71.0277
71.0839
71.1304
71.1941
71.2423
71.3142
71.3629
71.4432
71.4916
71.578
71.6301
71.71
71.7802
71.8374
73.1014
70.8716
70.2038
70.0567
69.9686
69.865
69.774
69.7091
69.6711
69.6549
69.6552
69.6671
69.6881
69.7149
69.7474
69.7824
69.8225
69.863
69.9095
69.9542
70.0072
70.0553
70.1152
70.166
70.2335
70.2859
70.3616
70.4143
70.4985
70.5507
70.6407
70.6966
70.7789
70.8539
70.9105
71.9315
69.7759
69.0908
68.9083
68.7871
68.6637
68.5653
68.5002
68.4657
68.4547
68.4609
68.4787
68.5054
68.5376
68.5752
68.6154
68.6602
68.7056
68.7564
68.8059
68.8629
68.9159
68.9798
69.0354
69.1069
69.1639
69.2438
69.3008
69.3892
69.4454
69.5395
69.5994
69.6847
69.765
69.8218
70.5748
68.5124
67.7787
67.5405
67.3773
67.2315
67.1253
67.06
67.0295
67.0241
67.0366
67.0605
67.0932
67.131
67.1737
67.2189
67.268
67.3181
67.3729
67.4269
67.4877
67.5452
67.6127
67.673
67.7481
67.8099
67.8935
67.9551
68.0475
68.1079
68.2063
68.2701
68.3591
68.4439
68.5012
68.9303
66.9877
66.1756
65.8553
65.6344
65.4615
65.3477
65.2832
65.257
65.2562
65.2734
65.301
65.3371
65.3774
65.4227
65.4699
65.5213
65.5736
65.6306
65.6877
65.751
65.8124
65.8827
65.9475
66.026
66.0923
66.1805
66.2461
66.3448
66.4083
66.5146
66.5803
66.6777
66.7676
66.8297
66.575
64.6701
63.8509
63.5262
63.2862
63.0985
62.977
62.9075
62.8778
62.8731
62.8874
62.9113
62.9453
62.9833
63.0286
63.0758
63.1293
63.1839
63.2449
63.3061
63.3749
63.4421
63.5195
63.5915
63.6785
63.7524
63.8497
63.9233
64.0319
64.103
64.2208
64.2927
64.4043
64.4969
64.576
63.0739
61.5359
60.4583
59.9517
59.6009
59.3566
59.2079
59.1267
59.0955
59.0956
59.1204
59.1583
59.2109
59.269
59.338
59.409
59.4896
59.5703
59.6605
59.7488
59.8476
59.9462
60.0523
60.1503
60.2584
60.358
60.4733
60.5733
60.6977
60.795
60.9291
61.0217
61.1568
61.2588
61.3808
55.4838
57.2194
56.1483
55.3594
54.7598
54.3489
54.1107
53.9864
53.9479
53.9568
54.0073
54.0748
54.1661
54.2609
54.3723
54.4808
54.6034
54.7196
54.8493
54.9706
55.1053
55.2306
55.369
55.4981
55.6393
55.7726
55.9152
56.0524
56.1954
56.3345
56.4797
56.6112
56.7748
56.8699
57.0997
13.0133
11.406
11.4185
11.5466
11.73
11.902
12.075
12.2282
12.382
12.5148
12.649
12.7632
12.8812
12.981
13.0877
13.1776
13.2775
13.3609
13.4575
13.5368
13.6329
13.7089
13.8068
13.8791
13.9811
14.0474
14.1565
14.2128
14.3333
14.373
14.511
14.5242
14.6872
14.6584
14.8487
52.8625
51.8613
51.4548
51.3868
51.4233
51.4574
51.467
51.4618
51.448
51.4337
51.4187
51.4066
51.3951
51.3868
51.3792
51.3742
51.3701
51.3674
51.3663
51.3654
51.367
51.3672
51.3714
51.3726
51.3795
51.3812
51.3913
51.3932
51.4072
51.4092
51.4278
51.4303
51.4547
51.4574
51.4929
52.6912
51.7002
51.2909
51.2154
51.2467
51.2758
51.2831
51.2745
51.26
51.2433
51.229
51.2151
51.2055
51.1955
51.1907
51.1838
51.1835
51.1786
51.1822
51.1785
51.1857
51.1829
51.1936
51.1913
51.2055
51.2036
51.2216
51.22
51.2419
51.2409
51.2661
51.2678
51.2925
51.3001
51.3247
52.4925
51.5066
51.0944
51.0138
51.0416
51.0673
51.0725
51.0614
51.0458
51.0275
51.013
50.9983
50.9892
50.9791
50.9756
50.9691
50.9703
50.9663
50.9718
50.9693
50.9788
50.9771
50.9907
50.989
51.0074
51.0049
51.029
51.0249
51.0555
51.0498
51.0867
51.0811
51.1217
51.1193
51.1651
52.255
51.2697
50.8591
50.7784
50.8051
50.8286
50.8314
50.8181
50.8011
50.7818
50.767
50.7523
50.744
50.7345
50.7324
50.727
50.7301
50.7274
50.7351
50.7341
50.746
50.7459
50.7622
50.7625
50.7834
50.7835
50.8096
50.8091
50.8408
50.8396
50.8765
50.8763
50.9152
50.9186
50.9602
52.0124
51.0416
50.6287
50.5398
50.5582
50.5751
50.5728
50.5559
50.5359
50.5147
50.4986
50.4832
50.4746
50.4653
50.4635
50.4587
50.4626
50.4609
50.4697
50.4699
50.4831
50.4845
50.5023
50.504
50.527
50.5283
50.5571
50.5573
50.5927
50.5914
50.6331
50.6321
50.6766
50.6789
50.7274
51.7112
50.7441
50.3349
50.2459
50.2614
50.2744
50.2682
50.2481
50.2259
50.2034
50.1866
50.1712
50.163
50.1544
50.1537
50.1502
50.1556
50.1555
50.1659
50.1679
50.1831
50.1863
50.2063
50.2099
50.2351
50.2384
50.2696
50.2718
50.3096
50.3103
50.3543
50.3551
50.4018
50.4051
50.4558
51.3808
50.4251
50.018
49.9244
49.9327
49.9389
49.9267
49.9023
49.8769
49.8526
49.8346
49.8189
49.8107
49.8028
49.8027
49.8003
49.8066
49.8079
49.8196
49.8231
49.8397
49.8445
49.8662
49.8714
49.8985
49.9034
49.9367
49.9404
49.9806
49.9826
50.0292
50.0311
50.0804
50.0846
50.1382
51.0012
50.0574
49.6545
49.5569
49.5574
49.5557
49.5368
49.5076
49.4787
49.4523
49.4331
49.4172
49.409
49.4019
49.4026
49.4015
49.409
49.4118
49.4249
49.4301
49.4483
49.4549
49.4783
49.4853
49.5144
49.5211
49.5565
49.5619
49.6043
49.608
49.6567
49.6602
49.7113
49.7168
49.7719
50.5803
49.6506
49.2548
49.1545
49.1469
49.1363
49.1099
49.0753
49.0428
49.0145
48.9943
48.9784
48.9706
48.9645
48.9662
48.9665
48.9754
48.9798
48.9943
49.0012
49.021
49.0293
49.0545
49.0632
49.0942
49.1026
49.1401
49.1472
49.1916
49.1969
49.2476
49.2527
49.3056
49.3126
49.3692
50.1473
49.239
48.8465
48.7376
48.7178
48.6962
48.6614
48.6213
48.5852
48.555
48.5338
48.5179
48.5105
48.5052
48.5078
48.5094
48.5194
48.5253
48.5412
48.5497
48.571
48.5809
48.6077
48.6181
48.6509
48.661
48.7003
48.709
48.7555
48.7623
48.815
48.8215
48.876
48.8843
48.9422
49.6402
48.7499
48.3688
48.2589
48.2304
48.1986
48.1553
48.1094
48.0696
48.0377
48.0158
48.0004
47.9936
47.9896
47.9934
47.9968
48.0082
48.0159
48.0333
48.0437
48.0666
48.0784
48.1069
48.1192
48.1539
48.1658
48.2072
48.2176
48.2662
48.2745
48.3293
48.3373
48.3935
48.4034
48.4626
49.0984
48.2408
47.8597
47.7342
47.6868
47.6394
47.5855
47.5332
47.4898
47.4565
47.4342
47.4193
47.4134
47.4109
47.416
47.4211
47.434
47.4436
47.4627
47.475
47.4996
47.5134
47.5438
47.5581
47.5948
47.6086
47.6521
47.6643
47.7151
47.7252
47.7821
47.7917
47.8498
47.8612
47.9218
48.4418
47.6141
47.2461
47.1178
47.0583
46.9976
46.9336
46.8749
46.8278
46.7932
46.7706
46.7567
46.7519
46.7512
46.7579
46.7651
46.7797
46.7915
46.8123
46.8269
46.8534
46.8695
46.9019
46.9184
46.9572
46.9732
47.019
47.0332
47.0865
47.0983
47.1576
47.169
47.2291
47.2423
47.3045
47.7236
46.9429
46.5706
46.4195
46.3342
46.2535
46.1769
46.1114
46.0611
46.0258
46.0037
45.9914
45.9882
45.9899
45.9985
46.0083
46.0248
46.0394
46.0621
46.0794
46.1079
46.1267
46.1612
46.1804
46.2214
46.2398
46.2881
46.3044
46.3603
46.3741
46.4361
46.4493
46.5117
46.5268
46.5906
46.8459
46.1182
45.7537
45.5899
45.4833
45.3836
45.2945
45.2218
45.1683
45.1319
45.1103
45.0994
45.0977
45.1015
45.1119
45.1241
45.1424
45.1596
45.184
45.204
45.2342
45.2557
45.292
45.3139
45.3569
45.3778
45.4284
45.447
45.5055
45.5212
45.5861
45.601
45.6661
45.683
45.7494
45.8226
45.1595
44.7876
44.5965
44.4589
44.3351
44.2315
44.1505
44.0936
44.0562
44.0352
44.0255
44.0255
44.0312
44.0432
44.0575
44.0772
44.0966
44.1222
44.1446
44.1758
44.1999
44.2373
44.2618
44.3061
44.3297
44.3819
44.403
44.4638
44.4815
44.5493
44.5656
44.6341
44.652
44.7218
44.5799
44.0031
43.6105
43.3745
43.1919
43.0361
42.9148
42.8236
42.7622
42.7214
42.6991
42.6875
42.6866
42.6907
42.7017
42.715
42.7338
42.7529
42.7778
42.8011
42.832
42.858
42.8954
42.9226
42.9677
42.994
43.0484
43.0716
43.1361
43.1554
43.2279
43.2454
43.3188
43.3393
43.4141
43.0292
42.4152
41.9902
41.7327
41.5223
41.3385
41.1954
41.0844
41.0082
40.9525
40.9197
40.8966
40.8886
40.8848
40.8922
40.9011
40.9191
40.9371
40.9633
40.988
41.0216
41.0511
41.0923
41.1246
41.1737
41.2059
41.264
41.2941
41.3624
41.3884
41.466
41.4891
41.5702
41.5936
41.6789
40.8416
40.5283
39.9119
39.4671
39.1195
38.8453
38.6484
38.5031
38.4102
38.3444
38.3124
38.2912
38.2937
38.2985
38.3218
38.3429
38.3799
38.412
38.4585
38.4985
38.5522
38.6002
38.6595
38.7087
38.77
38.8196
38.8861
38.9348
39.0089
39.0541
39.1369
39.1767
39.2654
39.3015
39.3996
37.8606
40.6883
39.8752
38.9226
38.1214
37.5061
37.0702
36.7578
36.5506
36.4029
36.3153
36.2529
36.2288
36.2121
36.2236
36.2328
36.2652
36.29
36.3356
36.3705
36.4247
36.4669
36.5267
36.5751
36.6384
36.6928
36.758
36.8181
36.8843
36.948
37.0184
37.0768
37.1653
37.1994
37.3384
14.2723
12.69
12.7682
12.9788
13.2287
13.4468
13.6535
13.8282
13.9982
14.1405
14.2825
14.4003
14.5221
14.6223
14.7307
14.8192
14.9194
15.0005
15.0965
15.1727
15.2678
15.3404
15.4368
15.5054
15.6057
15.6686
15.7755
15.8292
15.9465
15.9857
16.1181
16.1351
16.2881
16.2725
16.4451
37.6238
37.2104
36.9823
36.8891
36.874
36.8847
36.8927
36.8941
36.8881
36.88
36.8695
36.8601
36.8502
36.8422
36.8344
36.8283
36.8229
36.8181
36.8151
36.8113
36.8104
36.8072
36.8083
36.8053
36.8085
36.8051
36.8107
36.8066