/*--------------------------------*- C++ -*----------------------------------*\
  =========                 |
  \\      /  F ield         | OpenFOAM: The Open Source CFD Toolbox
   \\    /   O peration     | Website:  https://openfoam.org
    \\  /    A nd           | Version:  6
     \\/     M anipulation  |
\*---------------------------------------------------------------------------*/
FoamFile
{
    version     2.0;
    format      ascii;
    class       volScalarField;
    location    "34";
    object      p;
}
// * * * * * * * * * * * * * * * * * * * * * * * * * * * * * * * * * * * * * //

dimensions      [0 2 -2 0 0 0 0];

internalField   nonuniform List<scalar> 
380496
(
0.0130425
0.0133953
0.0131561
0.0130891
0.0130433
0.0129955
0.0129517
0.012908
0.0128641
0.0128205
0.012777
0.012734
0.0126915
0.0126496
0.0126082
0.0125672
0.0125264
0.0124857
0.0124445
0.0124026
0.0123595
0.0123147
0.0122676
0.0122176
0.012164
0.0121061
0.0120434
0.0119748
0.0119003
0.0118184
0.0117303
0.0116326
0.0115325
0.0114166
0.0113181
0.0130213
0.0133652
0.0131371
0.0130756
0.0130338
0.0129886
0.012946
0.0129024
0.0128576
0.0128122
0.0127663
0.0127201
0.0126738
0.0126275
0.0125811
0.0125346
0.0124878
0.0124404
0.0123921
0.0123425
0.0122913
0.0122379
0.0121818
0.0121224
0.0120593
0.0119917
0.0119192
0.0118408
0.0117566
0.0116649
0.0115675
0.0114587
0.0113492
0.0112122
0.0111039
0.0129963
0.0133337
0.0131162
0.0130609
0.0130233
0.0129808
0.0129393
0.0128955
0.0128495
0.0128019
0.0127531
0.0127033
0.0126528
0.0126016
0.0125498
0.0124971
0.0124436
0.0123889
0.0123327
0.0122746
0.0122142
0.0121511
0.0120848
0.0120147
0.0119405
0.0118613
0.011777
0.0116866
0.0115905
0.0114868
0.0113782
0.011258
0.0111403
0.0109937
0.0108853
0.0129639
0.0132984
0.0130936
0.0130459
0.0130136
0.0129745
0.0129345
0.0128908
0.0128438
0.0127944
0.012743
0.0126899
0.0126356
0.01258
0.0125233
0.0124652
0.0124059
0.0123447
0.0122817
0.0122164
0.0121484
0.0120773
0.0120027
0.0119241
0.0118412
0.0117532
0.0116602
0.011561
0.0114564
0.0113443
0.0112277
0.0110991
0.0109742
0.0108171
0.0107036
0.0129341
0.0132596
0.0130705
0.0130313
0.0130045
0.0129688
0.0129302
0.0128865
0.0128384
0.0127869
0.0127327
0.0126762
0.0126179
0.0125578
0.012496
0.0124325
0.0123671
0.0122996
0.0122297
0.012157
0.0120814
0.0120022
0.0119193
0.0118321
0.0117404
0.0116436
0.0115416
0.0114337
0.0113204
0.0111998
0.0110754
0.010939
0.0108083
0.0106442
0.0105298
0.0128922
0.0132172
0.0130457
0.0130167
0.0129965
0.0129647
0.0129278
0.0128841
0.0128349
0.0127814
0.0127246
0.0126649
0.0126028
0.0125385
0.0124722
0.0124036
0.0123328
0.0122595
0.0121835
0.0121043
0.012022
0.0119358
0.0118458
0.0117513
0.0116523
0.0115482
0.0114391
0.0113241
0.0112041
0.0110769
0.0109466
0.0108042
0.0106688
0.0104984
0.0103822
0.0128485
0.013171
0.0130203
0.0130028
0.0129898
0.0129622
0.0129269
0.0128832
0.0128327
0.0127771
0.0127175
0.0126545
0.0125887
0.0125203
0.0124494
0.0123759
0.0122999
0.0122209
0.012139
0.0120537
0.011965
0.0118722
0.0117755
0.0116741
0.0115683
0.0114574
0.0113416
0.01122
0.0110939
0.0109607
0.0108251
0.0106774
0.0105383
0.010363
0.0102467
0.0127963
0.0131214
0.0129951
0.0129905
0.0129854
0.0129619
0.0129281
0.0128842
0.0128324
0.0127747
0.0127124
0.0126462
0.0125769
0.0125046
0.0124295
0.0123515
0.0122706
0.0121867
0.0120995
0.0120087
0.0119143
0.0118157
0.0117131
0.011606
0.0114943
0.0113776
0.0112563
0.0111295
0.0109983
0.0108605
0.0107207
0.010569
0.0104272
0.0102478
0.0101318
0.012736
0.0130699
0.0129702
0.0129799
0.0129832
0.0129639
0.0129314
0.0128872
0.012834
0.0127742
0.0127093
0.0126401
0.0125675
0.0124916
0.0124128
0.0123308
0.0122457
0.0121573
0.0120655
0.0119699
0.0118706
0.0117671
0.0116596
0.0115474
0.0114309
0.0113094
0.0111835
0.0110523
0.0109171
0.0107755
0.0106324
0.0104775
0.0103337
0.0101512
0.0100358
0.0126771
0.013023
0.0129499
0.0129732
0.0129841
0.012968
0.0129364
0.0128916
0.0128369
0.012775
0.0127077
0.012636
0.0125605
0.0124816
0.0123995
0.0123141
0.0122255
0.0121334
0.0120378
0.0119384
0.0118351
0.0117276
0.011616
0.0115
0.0113796
0.0112544
0.011125
0.0109905
0.0108523
0.0107079
0.0105625
0.0104053
0.0102602
0.0100753
0.00996083
0.0126023
0.0129732
0.0129291
0.0129679
0.012987
0.0129742
0.0129432
0.0128977
0.0128414
0.0127775
0.0127078
0.0126335
0.0125553
0.0124736
0.0123886
0.0123001
0.0122083
0.012113
0.012014
0.0119111
0.0118044
0.0116935
0.0115784
0.011459
0.0113353
0.011207
0.0110747
0.0109374
0.0107968
0.0106502
0.010503
0.010344
0.010198
0.0100113
0.00989789
0.0125291
0.0129287
0.012913
0.0129667
0.0129931
0.0129824
0.0129514
0.0129047
0.0128467
0.0127807
0.0127088
0.0126322
0.0125516
0.0124674
0.0123797
0.0122886
0.012194
0.0120959
0.011994
0.0118882
0.0117786
0.0116647
0.0115468
0.0114245
0.0112982
0.0111674
0.0110326
0.0108933
0.0107508
0.0106025
0.0104541
0.0102939
0.0101475
0.00995927
0.00984707
0.0124347
0.0128838
0.0128975
0.0129679
0.0130017
0.0129929
0.0129617
0.0129135
0.0128535
0.0127854
0.0127113
0.0126324
0.0125495
0.012463
0.012373
0.0122795
0.0121825
0.0120818
0.0119774
0.0118692
0.011757
0.0116406
0.0115203
0.0113957
0.0112671
0.0111342
0.0109976
0.0108565
0.0107126
0.0105631
0.0104138
0.0102528
0.0101062
0.00991712
0.0098062
0.0123403
0.0128463
0.0128863
0.0129726
0.0130124
0.0130043
0.0129723
0.0129225
0.0128605
0.0127904
0.0127142
0.0126333
0.0125484
0.0124598
0.0123677
0.0122722
0.0121731
0.0120704
0.0119639
0.0118535
0.0117392
0.0116209
0.0114985
0.011372
0.0112416
0.0111071
0.010969
0.0108267
0.0106817
0.0105314
0.0103816
0.0102202
0.0100737
0.00988411
0.00977433
0.0122257
0.012814
0.0128784
0.0129819
0.0130269
0.0130187
0.0129852
0.0129332
0.012869
0.0127967
0.0127184
0.0126355
0.0125487
0.0124583
0.0123644
0.012267
0.0121662
0.0120616
0.0119533
0.0118412
0.0117252
0.0116051
0.0114811
0.011353
0.0112211
0.0110853
0.0109461
0.0108028
0.0106571
0.0105064
0.0103564
0.010195
0.0100489
0.0098595
0.00975093
0.0121035
0.0127899
0.0128722
0.012992
0.0130411
0.0130322
0.0129971
0.012943
0.0128767
0.0128024
0.0127223
0.0126377
0.0125493
0.0124573
0.012362
0.0122631
0.0121608
0.0120548
0.0119451
0.0118315
0.0117141
0.0115927
0.0114674
0.0113381
0.0112051
0.0110683
0.0109282
0.0107843
0.0106382
0.0104872
0.0103373
0.0101763
0.0100305
0.00984171
0.00973326
0.0119709
0.0127782
0.0128738
0.0130099
0.0130605
0.0130491
0.0130114
0.0129546
0.0128859
0.0128094
0.0127275
0.0126413
0.0125513
0.0124579
0.0123612
0.0122611
0.0121575
0.0120503
0.0119394
0.0118247
0.0117062
0.0115837
0.0114574
0.0113272
0.0111934
0.0110558
0.0109151
0.0107708
0.0106244
0.0104735
0.0103238
0.0101636
0.0100184
0.00983197
0.00972375
0.0118203
0.0127738
0.0128713
0.0130242
0.0130761
0.0130628
0.0130228
0.0129637
0.012893
0.0128149
0.0127315
0.012644
0.012553
0.0124585
0.0123609
0.0122598
0.0121553
0.0120473
0.0119355
0.01182
0.0117007
0.0115774
0.0114504
0.0113195
0.0111851
0.0110471
0.010906
0.0107614
0.0106149
0.0104642
0.0103148
0.0101557
0.0100104
0.00982656
0.00971356
0.0116748
0.0127898
0.0128822
0.0130479
0.0130968
0.0130798
0.0130366
0.0129748
0.0129018
0.0128219
0.0127371
0.0126483
0.0125562
0.0124608
0.0123623
0.0122605
0.0121553
0.0120465
0.0119342
0.011818
0.0116982
0.0115744
0.0114469
0.0113155
0.0111807
0.0110423
0.010901
0.0107563
0.0106098
0.0104595
0.0103105
0.0101529
0.0100088
0.00983075
0.00971503
0.0115208
0.0127977
0.0128819
0.0130641
0.0131112
0.0130917
0.0130463
0.0129825
0.0129081
0.0128271
0.0127415
0.0126519
0.0125593
0.0124633
0.0123644
0.012262
0.0121565
0.0120473
0.0119346
0.011818
0.0116978
0.0115737
0.0114459
0.0113143
0.0111793
0.0110407
0.0108992
0.0107546
0.0106081
0.0104581
0.0103093
0.0101534
0.0100087
0.00983655
0.00970845
0.0114438
0.0128229
0.0128935
0.0130843
0.013128
0.0131059
0.0130582
0.0129925
0.0129166
0.0128344
0.0127477
0.0126574
0.0125641
0.0124676
0.0123682
0.0122655
0.0121596
0.0120501
0.0119371
0.0118204
0.0117
0.0115757
0.0114478
0.0113161
0.011181
0.0110424
0.010901
0.0107563
0.01061
0.0104602
0.0103121
0.0101569
0.0100166
0.00984891
0.00975493
0.0130418
0.0133939
0.0131561
0.0130891
0.0130434
0.0129955
0.0129517
0.012908
0.0128641
0.0128204
0.012777
0.012734
0.0126915
0.0126496
0.0126082
0.0125672
0.0125264
0.0124857
0.0124445
0.0124027
0.0123596
0.0123147
0.0122676
0.0122176
0.012164
0.0121061
0.0120434
0.0119749
0.0119004
0.0118185
0.0117304
0.0116328
0.0115327
0.0114168
0.0113184
0.0130204
0.0133638
0.0131371
0.0130756
0.0130338
0.0129886
0.012946
0.0129024
0.0128576
0.0128122
0.0127663
0.0127201
0.0126738
0.0126275
0.0125811
0.0125346
0.0124878
0.0124404
0.0123921
0.0123425
0.0122913
0.0122379
0.0121819
0.0121225
0.0120594
0.0119917
0.0119192
0.0118409
0.0117567
0.0116651
0.0115677
0.0114589
0.0113494
0.0112125
0.0111042
0.0129954
0.0133323
0.0131162
0.0130609
0.0130233
0.0129808
0.0129393
0.0128955
0.0128495
0.0128019
0.0127531
0.0127033
0.0126528
0.0126016
0.0125498
0.0124971
0.0124436
0.0123889
0.0123327
0.0122746
0.0122143
0.0121511
0.0120849
0.0120148
0.0119405
0.0118613
0.0117771
0.0116867
0.0115906
0.0114869
0.0113783
0.0112581
0.0111404
0.0109939
0.0108856
0.012963
0.0132971
0.0130936
0.013046
0.0130136
0.0129745
0.0129345
0.0128908
0.0128438
0.0127944
0.012743
0.0126899
0.0126356
0.01258
0.0125233
0.0124653
0.0124059
0.0123447
0.0122818
0.0122164
0.0121484
0.0120773
0.0120028
0.0119241
0.0118412
0.0117533
0.0116602
0.0115611
0.0114565
0.0113444
0.0112279
0.0110992
0.0109744
0.0108173
0.0107038
0.0129331
0.0132583
0.0130704
0.0130314
0.0130045
0.0129688
0.0129302
0.0128865
0.0128384
0.0127869
0.0127327
0.0126762
0.0126179
0.0125578
0.012496
0.0124325
0.0123671
0.0122996
0.0122297
0.012157
0.0120814
0.0120022
0.0119194
0.0118321
0.0117405
0.0116436
0.0115417
0.0114337
0.0113205
0.0111999
0.0110755
0.0109391
0.0108084
0.0106444
0.01053
0.0128912
0.0132158
0.0130457
0.0130167
0.0129965
0.0129647
0.0129278
0.0128841
0.0128349
0.0127814
0.0127246
0.0126649
0.0126028
0.0125385
0.0124722
0.0124036
0.0123328
0.0122595
0.0121835
0.0121043
0.012022
0.0119359
0.0118458
0.0117514
0.0116524
0.0115483
0.0114392
0.0113242
0.0112042
0.011077
0.0109467
0.0108043
0.010669
0.0104986
0.0103824
0.0128474
0.0131697
0.0130203
0.0130028
0.0129898
0.0129622
0.0129268
0.0128832
0.0128327
0.0127771
0.0127175
0.0126545
0.0125887
0.0125203
0.0124494
0.0123759
0.0122999
0.0122209
0.012139
0.0120537
0.011965
0.0118723
0.0117755
0.0116742
0.0115684
0.0114574
0.0113416
0.0112201
0.0110939
0.0109608
0.0108251
0.0106775
0.0105384
0.0103631
0.0102469
0.0127952
0.0131202
0.0129951
0.0129905
0.0129854
0.0129619
0.0129281
0.0128842
0.0128324
0.0127747
0.0127124
0.0126462
0.0125769
0.0125046
0.0124295
0.0123515
0.0122707
0.0121867
0.0120995
0.0120087
0.0119143
0.0118158
0.0117132
0.011606
0.0114943
0.0113777
0.0112564
0.0111296
0.0109984
0.0108606
0.0107208
0.0105691
0.0104272
0.010248
0.010132
0.0127349
0.0130687
0.0129702
0.0129799
0.0129832
0.0129639
0.0129314
0.0128872
0.012834
0.0127742
0.0127093
0.0126401
0.0125675
0.0124916
0.0124128
0.0123308
0.0122457
0.0121573
0.0120655
0.0119699
0.0118706
0.0117672
0.0116596
0.0115474
0.0114309
0.0113095
0.0111836
0.0110524
0.0109172
0.0107756
0.0106325
0.0104776
0.0103338
0.0101513
0.0100359
0.0126759
0.0130218
0.0129499
0.0129733
0.0129841
0.012968
0.0129364
0.0128916
0.0128369
0.012775
0.0127077
0.012636
0.0125605
0.0124816
0.0123995
0.0123141
0.0122255
0.0121334
0.0120378
0.0119384
0.0118351
0.0117276
0.0116161
0.0115
0.0113796
0.0112545
0.011125
0.0109906
0.0108523
0.010708
0.0105626
0.0104054
0.0102603
0.0100754
0.00996092
0.0126012
0.0129721
0.012929
0.0129679
0.0129871
0.0129742
0.0129432
0.0128977
0.0128414
0.0127775
0.0127078
0.0126335
0.0125554
0.0124736
0.0123886
0.0123001
0.0122083
0.012113
0.012014
0.0119111
0.0118044
0.0116935
0.0115785
0.011459
0.0113353
0.0112071
0.0110747
0.0109375
0.0107968
0.0106502
0.010503
0.0103441
0.0101981
0.0100114
0.00989796
0.0125279
0.0129277
0.012913
0.0129668
0.0129931
0.0129824
0.0129514
0.0129047
0.0128467
0.0127807
0.0127088
0.0126322
0.0125516
0.0124674
0.0123797
0.0122886
0.0121941
0.0120959
0.011994
0.0118882
0.0117786
0.0116647
0.0115468
0.0114245
0.0112982
0.0111674
0.0110327
0.0108933
0.0107508
0.0106026
0.0104541
0.010294
0.0101475
0.00995936
0.00984714
0.0124336
0.0128829
0.0128974
0.0129679
0.0130017
0.0129929
0.0129617
0.0129135
0.0128535
0.0127854
0.0127113
0.0126324
0.0125495
0.012463
0.012373
0.0122795
0.0121825
0.0120818
0.0119775
0.0118692
0.011757
0.0116406
0.0115203
0.0113957
0.0112671
0.0111342
0.0109976
0.0108566
0.0107126
0.0105631
0.0104138
0.0102529
0.0101063
0.0099172
0.00980626
0.0123391
0.0128455
0.0128863
0.0129726
0.0130124
0.0130043
0.0129723
0.0129225
0.0128605
0.0127904
0.0127142
0.0126333
0.0125484
0.0124598
0.0123678
0.0122722
0.0121731
0.0120704
0.0119639
0.0118535
0.0117393
0.0116209
0.0114985
0.011372
0.0112416
0.0111071
0.010969
0.0108267
0.0106817
0.0105314
0.0103816
0.0102203
0.0100738
0.00988419
0.00977438
0.0122246
0.0128132
0.0128783
0.0129819
0.0130269
0.0130187
0.0129852
0.0129332
0.012869
0.0127967
0.0127184
0.0126355
0.0125487
0.0124583
0.0123644
0.012267
0.0121662
0.0120616
0.0119534
0.0118412
0.0117252
0.0116051
0.0114811
0.011353
0.0112212
0.0110853
0.0109461
0.0108028
0.0106571
0.0105064
0.0103564
0.010195
0.0100489
0.00985957
0.00975097
0.0121024
0.0127892
0.0128721
0.0129921
0.0130411
0.0130321
0.0129971
0.012943
0.0128767
0.0128024
0.0127223
0.0126377
0.0125493
0.0124573
0.012362
0.0122631
0.0121608
0.0120548
0.0119451
0.0118316
0.0117141
0.0115927
0.0114674
0.0113381
0.0112052
0.0110683
0.0109282
0.0107843
0.0106382
0.0104873
0.0103373
0.0101763
0.0100305
0.00984177
0.0097333
0.0119698
0.0127777
0.0128737
0.0130099
0.0130605
0.0130491
0.0130114
0.0129546
0.0128858
0.0128094
0.0127275
0.0126413
0.0125513
0.0124579
0.0123612
0.0122611
0.0121575
0.0120503
0.0119395
0.0118248
0.0117062
0.0115837
0.0114574
0.0113272
0.0111934
0.0110558
0.0109151
0.0107708
0.0106244
0.0104735
0.0103238
0.0101636
0.0100184
0.00983204
0.0097238
0.0118195
0.0127733
0.0128713
0.0130242
0.0130761
0.0130628
0.0130228
0.0129637
0.012893
0.0128149
0.0127315
0.012644
0.012553
0.0124585
0.0123609
0.0122598
0.0121553
0.0120473
0.0119355
0.01182
0.0117007
0.0115775
0.0114504
0.0113196
0.0111851
0.0110471
0.010906
0.0107614
0.0106149
0.0104643
0.0103148
0.0101558
0.0100105
0.00982663
0.0097136
0.0116739
0.0127895
0.0128821
0.0130479
0.0130968
0.0130798
0.0130366
0.0129748
0.0129018
0.0128219
0.0127371
0.0126483
0.0125562
0.0124608
0.0123624
0.0122605
0.0121553
0.0120466
0.0119342
0.0118181
0.0116982
0.0115744
0.0114469
0.0113155
0.0111807
0.0110424
0.010901
0.0107564
0.0106099
0.0104595
0.0103106
0.010153
0.0100089
0.00983082
0.00971505
0.0115199
0.0127977
0.0128821
0.0130642
0.0131114
0.0130918
0.0130464
0.0129826
0.0129082
0.0128272
0.0127415
0.012652
0.0125593
0.0124634
0.0123644
0.0122621
0.0121565
0.0120473
0.0119346
0.0118181
0.0116979
0.0115737
0.0114459
0.0113143
0.0111793
0.0110408
0.0108993
0.0107546
0.0106081
0.0104582
0.0103094
0.0101535
0.0100087
0.00983659
0.00970842
0.0114451
0.0128233
0.0128937
0.0130843
0.013128
0.0131059
0.0130581
0.0129924
0.0129165
0.0128343
0.0127477
0.0126574
0.012564
0.0124675
0.0123681
0.0122654
0.0121595
0.01205
0.0119371
0.0118203
0.0117
0.0115757
0.0114478
0.0113161
0.011181
0.0110424
0.0109009
0.0107562
0.0106099
0.0104601
0.010312
0.0101569
0.0100165
0.00984887
0.00975494
0.0130443
0.0133913
0.0131559
0.0130892
0.0130434
0.0129955
0.0129517
0.012908
0.0128641
0.0128204
0.012777
0.012734
0.0126915
0.0126496
0.0126082
0.0125672
0.0125264
0.0124857
0.0124445
0.0124027
0.0123596
0.0123147
0.0122676
0.0122176
0.012164
0.0121062
0.0120434
0.0119749
0.0119004
0.0118186
0.0117304
0.0116328
0.0115327
0.0114169
0.0113185
0.0130229
0.0133612
0.0131369
0.0130757
0.0130338
0.0129886
0.012946
0.0129024
0.0128576
0.0128122
0.0127662
0.0127201
0.0126738
0.0126275
0.0125811
0.0125346
0.0124878
0.0124404
0.0123921
0.0123426
0.0122914
0.0122379
0.0121819
0.0121225
0.0120594
0.0119918
0.0119193
0.0118409
0.0117568
0.0116651
0.0115677
0.0114589
0.0113494
0.0112125
0.0111042
0.0129979
0.0133298
0.013116
0.013061
0.0130233
0.0129808
0.0129393
0.0128955
0.0128495
0.0128019
0.0127531
0.0127033
0.0126528
0.0126016
0.0125498
0.0124971
0.0124436
0.0123889
0.0123327
0.0122746
0.0122143
0.0121511
0.0120849
0.0120148
0.0119405
0.0118614
0.0117771
0.0116867
0.0115906
0.0114869
0.0113783
0.0112582
0.0111405
0.010994
0.0108856
0.0129655
0.0132946
0.0130934
0.0130461
0.0130137
0.0129745
0.0129345
0.0128908
0.0128438
0.0127944
0.012743
0.0126899
0.0126356
0.01258
0.0125233
0.0124653
0.0124059
0.0123448
0.0122818
0.0122164
0.0121484
0.0120773
0.0120028
0.0119241
0.0118412
0.0117533
0.0116602
0.0115612
0.0114566
0.0113444
0.0112279
0.0110993
0.0109744
0.0108174
0.0107039
0.0129355
0.013256
0.0130702
0.0130314
0.0130046
0.0129688
0.0129302
0.0128865
0.0128384
0.0127869
0.0127327
0.0126762
0.0126179
0.0125578
0.012496
0.0124325
0.0123671
0.0122996
0.0122297
0.012157
0.0120814
0.0120022
0.0119194
0.0118321
0.0117405
0.0116436
0.0115417
0.0114338
0.0113205
0.0111999
0.0110755
0.0109392
0.0108085
0.0106444
0.0105301
0.0128936
0.0132135
0.0130455
0.0130168
0.0129966
0.0129648
0.0129278
0.0128841
0.0128349
0.0127814
0.0127246
0.0126649
0.0126028
0.0125385
0.0124722
0.0124036
0.0123328
0.0122595
0.0121835
0.0121044
0.012022
0.0119359
0.0118459
0.0117514
0.0116524
0.0115483
0.0114392
0.0113242
0.0112042
0.0110771
0.0109467
0.0108044
0.010669
0.0104986
0.0103825
0.0128497
0.0131675
0.0130201
0.0130029
0.0129899
0.0129622
0.0129268
0.0128831
0.0128327
0.0127771
0.0127175
0.0126545
0.0125887
0.0125203
0.0124494
0.0123759
0.0122999
0.0122209
0.012139
0.0120538
0.011965
0.0118723
0.0117755
0.0116742
0.0115684
0.0114574
0.0113416
0.0112201
0.011094
0.0109608
0.0108252
0.0106775
0.0105384
0.0103632
0.010247
0.0127975
0.0131181
0.0129949
0.0129906
0.0129854
0.0129619
0.0129281
0.0128842
0.0128324
0.0127747
0.0127124
0.0126462
0.0125769
0.0125046
0.0124295
0.0123515
0.0122707
0.0121867
0.0120995
0.0120087
0.0119143
0.0118158
0.0117132
0.011606
0.0114944
0.0113777
0.0112564
0.0111296
0.0109984
0.0108606
0.0107208
0.0105691
0.0104273
0.010248
0.0101321
0.0127371
0.0130667
0.01297
0.0129799
0.0129833
0.0129639
0.0129314
0.0128872
0.012834
0.0127742
0.0127093
0.0126401
0.0125675
0.0124916
0.0124128
0.0123308
0.0122457
0.0121573
0.0120655
0.0119699
0.0118706
0.0117672
0.0116596
0.0115475
0.0114309
0.0113095
0.0111836
0.0110524
0.0109172
0.0107756
0.0106325
0.0104777
0.0103338
0.0101514
0.010036
0.012678
0.0130199
0.0129497
0.0129733
0.0129842
0.012968
0.0129364
0.0128916
0.0128369
0.012775
0.0127077
0.012636
0.0125605
0.0124816
0.0123995
0.0123141
0.0122255
0.0121334
0.0120378
0.0119384
0.0118351
0.0117277
0.0116161
0.0115
0.0113796
0.0112545
0.0111251
0.0109906
0.0108524
0.010708
0.0105626
0.0104054
0.0102603
0.0100755
0.00996103
0.0126033
0.0129703
0.0129289
0.0129679
0.0129871
0.0129742
0.0129432
0.0128976
0.0128413
0.0127774
0.0127078
0.0126335
0.0125553
0.0124736
0.0123886
0.0123001
0.0122083
0.012113
0.012014
0.0119112
0.0118044
0.0116935
0.0115785
0.011459
0.0113353
0.0112071
0.0110747
0.0109375
0.0107968
0.0106503
0.0105031
0.0103442
0.0101981
0.0100115
0.00989808
0.0125298
0.012926
0.0129128
0.0129668
0.0129931
0.0129824
0.0129514
0.0129047
0.0128467
0.0127807
0.0127088
0.0126322
0.0125516
0.0124674
0.0123797
0.0122886
0.0121941
0.0120959
0.011994
0.0118882
0.0117786
0.0116647
0.0115468
0.0114246
0.0112982
0.0111674
0.0110327
0.0108934
0.0107508
0.0106026
0.0104542
0.010294
0.0101475
0.00995944
0.00984726
0.0124354
0.0128812
0.0128973
0.0129679
0.0130018
0.0129929
0.0129616
0.0129135
0.0128535
0.0127854
0.0127113
0.0126324
0.0125495
0.012463
0.012373
0.0122795
0.0121825
0.0120818
0.0119775
0.0118692
0.011757
0.0116406
0.0115203
0.0113957
0.0112671
0.0111342
0.0109976
0.0108566
0.0107126
0.0105632
0.0104139
0.0102529
0.0101063
0.00991729
0.00980637
0.0123408
0.012844
0.0128861
0.0129727
0.0130124
0.0130043
0.0129723
0.0129225
0.0128605
0.0127904
0.0127142
0.0126333
0.0125484
0.0124598
0.0123677
0.0122722
0.0121731
0.0120704
0.0119639
0.0118535
0.0117393
0.0116209
0.0114985
0.011372
0.0112416
0.0111071
0.010969
0.0108267
0.0106817
0.0105315
0.0103817
0.0102203
0.0100738
0.00988427
0.0097745
0.0122262
0.0128118
0.0128782
0.0129819
0.013027
0.0130187
0.0129852
0.0129332
0.012869
0.0127966
0.0127184
0.0126355
0.0125487
0.0124583
0.0123644
0.012267
0.0121662
0.0120616
0.0119534
0.0118412
0.0117252
0.0116051
0.0114811
0.011353
0.0112212
0.0110853
0.0109461
0.0108029
0.0106572
0.0105064
0.0103564
0.0101951
0.0100489
0.00985966
0.00975109
0.0121039
0.012788
0.0128721
0.0129921
0.0130411
0.0130321
0.012997
0.012943
0.0128767
0.0128024
0.0127223
0.0126377
0.0125493
0.0124573
0.0123619
0.0122631
0.0121608
0.0120548
0.0119451
0.0118316
0.0117141
0.0115927
0.0114674
0.0113381
0.0112052
0.0110683
0.0109283
0.0107844
0.0106382
0.0104873
0.0103373
0.0101763
0.0100305
0.00984187
0.00973342
0.0119711
0.0127767
0.0128737
0.0130099
0.0130605
0.0130491
0.0130113
0.0129546
0.0128858
0.0128094
0.0127275
0.0126412
0.0125513
0.0124579
0.0123612
0.0122611
0.0121575
0.0120503
0.0119395
0.0118248
0.0117062
0.0115837
0.0114574
0.0113272
0.0111934
0.0110558
0.0109151
0.0107708
0.0106244
0.0104736
0.0103238
0.0101637
0.0100184
0.00983215
0.00972393
0.0118207
0.0127724
0.0128712
0.0130242
0.0130761
0.0130627
0.0130228
0.0129637
0.0128929
0.0128148
0.0127315
0.012644
0.0125529
0.0124585
0.0123609
0.0122598
0.0121553
0.0120473
0.0119356
0.01182
0.0117007
0.0115775
0.0114505
0.0113196
0.0111852
0.0110471
0.010906
0.0107615
0.010615
0.0104643
0.0103148
0.0101558
0.0100105
0.00982674
0.00971372
0.0116748
0.012789
0.0128821
0.0130478
0.0130968
0.0130797
0.0130366
0.0129747
0.0129018
0.0128219
0.0127371
0.0126483
0.0125563
0.0124609
0.0123624
0.0122605
0.0121554
0.0120466
0.0119343
0.0118181
0.0116983
0.0115745
0.011447
0.0113156
0.0111808
0.0110424
0.0109011
0.0107564
0.0106099
0.0104596
0.0103106
0.0101531
0.0100089
0.00983092
0.00971514
0.0115205
0.0127975
0.0128823
0.0130645
0.0131116
0.013092
0.0130465
0.0129827
0.0129083
0.0128273
0.0127416
0.0126521
0.0125594
0.0124635
0.0123645
0.0122622
0.0121566
0.0120474
0.0119347
0.0118181
0.0116979
0.0115738
0.011446
0.0113144
0.0111794
0.0110408
0.0108993
0.0107547
0.0106081
0.0104582
0.0103094
0.0101535
0.0100088
0.00983658
0.00970796
0.0114462
0.0128237
0.0128939
0.0130843
0.013128
0.0131058
0.0130581
0.0129923
0.0129164
0.0128342
0.0127476
0.0126573
0.012564
0.0124675
0.0123681
0.0122653
0.0121594
0.01205
0.011937
0.0118203
0.0116999
0.0115756
0.0114477
0.011316
0.0111809
0.0110423
0.0109008
0.0107562
0.0106098
0.01046
0.0103119
0.0101568
0.0100164
0.00984886
0.00975519
0.0130478
0.0133878
0.0131557
0.0130893
0.0130435
0.0129955
0.0129517
0.012908
0.0128641
0.0128204
0.012777
0.012734
0.0126915
0.0126496
0.0126082
0.0125672
0.0125264
0.0124857
0.0124445
0.0124026
0.0123596
0.0123147
0.0122676
0.0122176
0.012164
0.0121062
0.0120434
0.0119749
0.0119004
0.0118186
0.0117304
0.0116329
0.0115327
0.0114169
0.0113188
0.0130263
0.0133578
0.0131366
0.0130758
0.0130339
0.0129886
0.012946
0.0129024
0.0128576
0.0128122
0.0127662
0.0127201
0.0126738
0.0126275
0.0125811
0.0125346
0.0124878
0.0124404
0.0123921
0.0123426
0.0122914
0.0122379
0.0121819
0.0121225
0.0120594
0.0119918
0.0119193
0.011841
0.0117568
0.0116652
0.0115678
0.011459
0.0113495
0.0112126
0.0111044
0.0130012
0.0133265
0.0131158
0.013061
0.0130234
0.0129808
0.0129393
0.0128955
0.0128495
0.0128019
0.0127531
0.0127033
0.0126528
0.0126016
0.0125498
0.0124971
0.0124436
0.0123889
0.0123327
0.0122746
0.0122143
0.0121511
0.0120849
0.0120148
0.0119405
0.0118614
0.0117771
0.0116867
0.0115907
0.011487
0.0113784
0.0112582
0.0111405
0.010994
0.0108858
0.0129687
0.0132913
0.0130932
0.0130461
0.0130137
0.0129745
0.0129345
0.0128908
0.0128438
0.0127944
0.012743
0.0126899
0.0126356
0.01258
0.0125233
0.0124653
0.0124059
0.0123448
0.0122818
0.0122164
0.0121485
0.0120773
0.0120028
0.0119242
0.0118413
0.0117533
0.0116603
0.0115612
0.0114566
0.0113445
0.0112279
0.0110993
0.0109745
0.0108175
0.0107041
0.0129386
0.0132528
0.01307
0.0130315
0.0130046
0.0129688
0.0129302
0.0128865
0.0128384
0.0127869
0.0127326
0.0126762
0.0126178
0.0125578
0.012496
0.0124325
0.0123671
0.0122996
0.0122297
0.012157
0.0120814
0.0120022
0.0119194
0.0118322
0.0117405
0.0116436
0.0115417
0.0114338
0.0113205
0.0111999
0.0110756
0.0109392
0.0108085
0.0106445
0.0105302
0.0128967
0.0132104
0.0130453
0.0130168
0.0129966
0.0129648
0.0129278
0.0128841
0.0128349
0.0127814
0.0127246
0.0126648
0.0126028
0.0125385
0.0124722
0.0124036
0.0123328
0.0122595
0.0121835
0.0121044
0.012022
0.0119359
0.0118459
0.0117514
0.0116524
0.0115483
0.0114392
0.0113242
0.0112043
0.0110771
0.0109468
0.0108044
0.010669
0.0104987
0.0103827
0.0128527
0.0131644
0.0130199
0.0130029
0.0129899
0.0129622
0.0129268
0.0128831
0.0128327
0.0127771
0.0127175
0.0126545
0.0125887
0.0125203
0.0124494
0.0123759
0.0122999
0.0122209
0.012139
0.0120538
0.011965
0.0118723
0.0117755
0.0116742
0.0115684
0.0114575
0.0113417
0.0112202
0.011094
0.0109609
0.0108252
0.0106776
0.0105385
0.0103633
0.0102472
0.0128004
0.0131151
0.0129947
0.0129906
0.0129855
0.0129619
0.0129281
0.0128842
0.0128324
0.0127747
0.0127124
0.0126462
0.0125769
0.0125046
0.0124295
0.0123515
0.0122706
0.0121867
0.0120995
0.0120087
0.0119143
0.0118158
0.0117132
0.011606
0.0114944
0.0113777
0.0112564
0.0111296
0.0109984
0.0108606
0.0107208
0.0105692
0.0104273
0.0102481
0.0101323
0.0127399
0.0130638
0.0129698
0.01298
0.0129833
0.0129639
0.0129314
0.0128872
0.012834
0.0127742
0.0127092
0.0126401
0.0125675
0.0124916
0.0124127
0.0123308
0.0122457
0.0121573
0.0120655
0.0119699
0.0118706
0.0117672
0.0116596
0.0115475
0.0114309
0.0113095
0.0111836
0.0110525
0.0109172
0.0107756
0.0106326
0.0104777
0.0103338
0.0101515
0.0100363
0.0126807
0.0130172
0.0129496
0.0129733
0.0129842
0.012968
0.0129363
0.0128915
0.0128369
0.012775
0.0127077
0.012636
0.0125605
0.0124816
0.0123995
0.0123141
0.0122255
0.0121334
0.0120378
0.0119384
0.0118351
0.0117277
0.0116161
0.0115
0.0113796
0.0112545
0.0111251
0.0109906
0.0108524
0.010708
0.0105626
0.0104055
0.0102603
0.0100756
0.00996126
0.0126059
0.0129677
0.0129287
0.012968
0.0129871
0.0129742
0.0129432
0.0128976
0.0128413
0.0127774
0.0127078
0.0126335
0.0125553
0.0124736
0.0123886
0.0123001
0.0122083
0.012113
0.012014
0.0119112
0.0118044
0.0116935
0.0115785
0.011459
0.0113354
0.0112071
0.0110747
0.0109375
0.0107969
0.0106503
0.0105031
0.0103442
0.0101981
0.0100116
0.00989831
0.0125322
0.0129235
0.0129127
0.0129668
0.0129931
0.0129824
0.0129514
0.0129047
0.0128466
0.0127807
0.0127088
0.0126322
0.0125516
0.0124674
0.0123797
0.0122886
0.012194
0.0120959
0.011994
0.0118882
0.0117786
0.0116647
0.0115468
0.0114246
0.0112982
0.0111674
0.0110327
0.0108934
0.0107508
0.0106026
0.0104542
0.010294
0.0101475
0.00995955
0.00984749
0.0124378
0.0128789
0.0128972
0.012968
0.0130018
0.0129929
0.0129616
0.0129135
0.0128535
0.0127854
0.0127113
0.0126324
0.0125495
0.012463
0.012373
0.0122795
0.0121825
0.0120818
0.0119775
0.0118692
0.011757
0.0116407
0.0115203
0.0113957
0.0112671
0.0111342
0.0109976
0.0108566
0.0107126
0.0105632
0.0104139
0.010253
0.0101063
0.00991739
0.00980661
0.0123429
0.0128419
0.012886
0.0129727
0.0130124
0.0130043
0.0129723
0.0129225
0.0128605
0.0127903
0.0127142
0.0126333
0.0125483
0.0124598
0.0123677
0.0122722
0.0121731
0.0120704
0.0119639
0.0118535
0.0117393
0.0116209
0.0114985
0.011372
0.0112416
0.0111071
0.010969
0.0108267
0.0106817
0.0105315
0.0103817
0.0102203
0.0100738
0.00988438
0.00977474
0.0122282
0.0128099
0.0128782
0.0129819
0.013027
0.0130187
0.0129851
0.0129332
0.012869
0.0127966
0.0127184
0.0126355
0.0125487
0.0124582
0.0123644
0.012267
0.0121661
0.0120616
0.0119533
0.0118412
0.0117252
0.0116051
0.0114811
0.011353
0.0112212
0.0110853
0.0109461
0.0108029
0.0106572
0.0105065
0.0103564
0.0101951
0.010049
0.00985976
0.00975133
0.0121056
0.0127863
0.012872
0.0129921
0.0130411
0.0130321
0.012997
0.012943
0.0128766
0.0128023
0.0127223
0.0126377
0.0125492
0.0124573
0.0123619
0.0122631
0.0121608
0.0120548
0.0119451
0.0118315
0.0117141
0.0115927
0.0114674
0.0113381
0.0112052
0.0110684
0.0109283
0.0107844
0.0106382
0.0104873
0.0103373
0.0101764
0.0100305
0.00984198
0.00973367
0.0119726
0.0127753
0.0128737
0.01301
0.0130605
0.013049
0.0130113
0.0129546
0.0128858
0.0128094
0.0127275
0.0126412
0.0125513
0.0124579
0.0123612
0.0122611
0.0121575
0.0120503
0.0119394
0.0118248
0.0117062
0.0115837
0.0114574
0.0113272
0.0111934
0.0110559
0.0109152
0.0107709
0.0106244
0.0104736
0.0103238
0.0101637
0.0100185
0.00983227
0.00972419
0.011822
0.0127711
0.0128713
0.0130242
0.0130761
0.0130627
0.0130227
0.0129637
0.0128929
0.0128148
0.0127315
0.012644
0.0125529
0.0124585
0.0123608
0.0122598
0.0121553
0.0120473
0.0119356
0.0118201
0.0117007
0.0115775
0.0114505
0.0113196
0.0111852
0.0110472
0.0109061
0.0107615
0.010615
0.0104644
0.0103149
0.0101559
0.0100106
0.00982687
0.00971394
0.0116761
0.0127884
0.0128823
0.0130479
0.0130969
0.0130797
0.0130366
0.0129747
0.0129018
0.0128219
0.0127371
0.0126483
0.0125563
0.0124609
0.0123624
0.0122606
0.0121554
0.0120466
0.0119343
0.0118182
0.0116983
0.0115745
0.011447
0.0113156
0.0111808
0.0110425
0.0109011
0.0107565
0.01061
0.0104597
0.0103107
0.0101531
0.010009
0.00983104
0.00971533
0.0115225
0.0127971
0.0128825
0.0130647
0.0131119
0.0130922
0.0130467
0.0129829
0.0129084
0.0128274
0.0127417
0.0126522
0.0125595
0.0124635
0.0123646
0.0122622
0.0121566
0.0120474
0.0119347
0.0118182
0.011698
0.0115738
0.011446
0.0113144
0.0111794
0.0110408
0.0108993
0.0107547
0.0106082
0.0104582
0.0103095
0.0101535
0.0100088
0.00983648
0.009707
0.011446
0.0128243
0.0128942
0.0130844
0.013128
0.0131058
0.013058
0.0129923
0.0129163
0.0128341
0.0127475
0.0126572
0.0125639
0.0124674
0.012368
0.0122653
0.0121594
0.0120499
0.011937
0.0118202
0.0116998
0.0115755
0.0114476
0.0113159
0.0111808
0.0110422
0.0109008
0.0107561
0.0106098
0.01046
0.0103118
0.0101568
0.0100163
0.00984892
0.00975571
0.0130521
0.0133834
0.0131554
0.0130893
0.0130435
0.0129955
0.0129517
0.012908
0.0128641
0.0128204
0.012777
0.012734