/*--------------------------------*- C++ -*----------------------------------*\
  =========                 |
  \\      /  F ield         | OpenFOAM: The Open Source CFD Toolbox
   \\    /   O peration     | Website:  https://openfoam.org
    \\  /    A nd           | Version:  6
     \\/     M anipulation  |
\*---------------------------------------------------------------------------*/
FoamFile
{
    version     2.0;
    format      ascii;
    class       volScalarField;
    location    "20";
    object      k;
}
// * * * * * * * * * * * * * * * * * * * * * * * * * * * * * * * * * * * * * //

dimensions      [0 2 -2 0 0 0 0];

internalField   nonuniform List<scalar> 
720
(
3.42924e-05
3.42924e-05
3.42935e-05
2.1946e-05
2.19459e-05
2.19469e-05
3.72795e-05
3.72799e-05
3.72814e-05
5.54554e-05
5.5457e-05
5.54584e-05
7.675e-05
7.67541e-05
7.67543e-05
0.000102322
0.00010233
0.000102328
0.000133681
0.000133692
0.000133687
0.000172885
0.000172899
0.00017289
0.000222667
0.000222685
0.000222669
0.000285971
0.000285998
0.000285976
0.000104511
0.000104511
0.000104512
0.000371868
0.000371867
0.000371878
0.000507415
0.000507418
0.00050743
0.000618907
0.000618916
0.000618923
0.000710894
0.00071091
0.00071091
0.000789199
0.000789219
0.000789215
0.000856916
0.000856936
0.000856927
0.000915862
0.00091588
0.000915868
0.000967074
0.00096709
0.000967076
0.00101077
0.00101078
0.00101077
0.000144022
0.000144022
0.000144024
0.000513796
0.000513794
0.000513805
0.000621735
0.000621739
0.000621749
0.000719678
0.000719687
0.000719694
0.000801144
0.00080116
0.00080116
0.000871155
0.000871175
0.00087117
0.00093257
0.00093259
0.00093258
0.000987176
0.000987194
0.000987182
0.00103611
0.00103612
0.00103611
0.00107966
0.00107968
0.00107967
0.000183286
0.000183286
0.000183288
0.000570679
0.000570678
0.00057069
0.000650557
0.000650562
0.000650572
0.000744007
0.000744018
0.000744024
0.000823395
0.000823412
0.000823412
0.00089199
0.000892011
0.000892005
0.000952319
0.00095234
0.00095233
0.00100609
0.00100611
0.0010061
0.00105444
0.00105446
0.00105444
0.00109764
0.00109765
0.00109764
0.000223536
0.000223537
0.00022354
0.000621806
0.000621805
0.000621819
0.000664474
0.00066448
0.000664491
0.000750879
0.000750892
0.000750898
0.000827885
0.000827905
0.000827904
0.0008953
0.000895324
0.000895317
0.00095492
0.000954942
0.000954931
0.00100825
0.00100827
0.00100825
0.00105636
0.00105638
0.00105636
0.00109944
0.00109946
0.00109944
0.000265621
0.000265621
0.000265625
0.000676621
0.000676621
0.000676637
0.000677457
0.000677466
0.000677478
0.000752651
0.000752667
0.000752672
0.000825883
0.000825905
0.000825903
0.000891633
0.000891657
0.000891649
0.000950388
0.000950412
0.0009504
0.00100326
0.00100328
0.00100327
0.00105119
0.00105121
0.00105119
0.00109424
0.00109426
0.00109424
0.000310058
0.000310058
0.000310062
0.000734029
0.000734032
0.000734049
0.000694556
0.000694568
0.00069458
0.000753798
0.000753816
0.000753822
0.000821095
0.00082112
0.000821118
0.000884243
0.000884268
0.00088426
0.000941712
0.000941736
0.000941723
0.000993947
0.000993968
0.00099395
0.00104164
0.00104166
0.00104164
0.00108467
0.00108469
0.00108466
0.000356938
0.000356939
0.000356944
0.000790239
0.000790245
0.000790264
0.000717771
0.000717787
0.0007178
0.00075681
0.000756832
0.000756838
0.000815383
0.000815411
0.000815408
0.000874537
0.000874563
0.000874554
0.000930028
0.000930052
0.000930038
0.000981292
0.000981312
0.000981293
0.00102861
0.00102862
0.0010286
0.00107154
0.00107156
0.00107154
0.000405824
0.000405825
0.00040583
0.000841037
0.000841047
0.000841067
0.000747243
0.000747265
0.000747278
0.0007634
0.000763426
0.000763432
0.000810094
0.000810124
0.00081012
0.000863385
0.000863412
0.000863402
0.000915893
0.000915916
0.000915901
0.000965667
0.000965686
0.000965666
0.00101235
0.00101237
0.00101235
0.0010551
0.00105511
0.00105509
0.000455738
0.000455739
0.000455746
0.000882711
0.000882725
0.000882745
0.000781624
0.000781653
0.000781666
0.000774642
0.000774673
0.000774679
0.000806406
0.000806437
0.000806434
0.000851535
0.000851561
0.000851551
0.000899681
0.000899704
0.000899687
0.000947213
0.000947231
0.000947209
0.000992899
0.000992914
0.000992885
0.00103526
0.00103527
0.00103524
0.000505322
0.000505324
0.000505331
0.000912543
0.000912563
0.000912583
0.000818367
0.000818403
0.000818418
0.000790825
0.000790861
0.000790867
0.000805342
0.000805374
0.00080537
0.000839747
0.000839773
0.000839761
0.000881753
0.000881774
0.000881755
0.000925993
0.000926009
0.000925986
0.000970125
0.000970136
0.000970106
0.00101182
0.00101183
0.0010118
0.000553137
0.00055314
0.000553148
0.000929131
0.000929156
0.000929176
0.000854072
0.000854117
0.000854132
0.000811258
0.000811301
0.000811308
0.00080761
0.000807644
0.00080764
0.000828805
0.000828829
0.000828816
0.000862532
0.00086255
0.00086253
0.000902076
0.000902089
0.000902065
0.000943869
0.000943875
0.000943845
0.000984485
0.000984493
0.000984459
0.000598036
0.000598039
0.000598048
0.00093258
0.000932612
0.000932631
0.00088493
0.000884982
0.000884998
0.000834177
0.000834227
0.000834234
0.000813363
0.000813399
0.000813394
0.000819419
0.00081944
0.000819425
0.00084253
0.000842545
0.000842523
0.000875596
0.000875605
0.000875581
0.000913967
0.000913969
0.000913938
0.000952911
0.000952913
0.000952878
0.00063944
0.000639445
0.000639454
0.000924566
0.000924605
0.000924623
0.000907276
0.000907337
0.000907353
0.000856806
0.000856862
0.00085687
0.000821938
0.000821975
0.00082197
0.000812037
0.000812055
0.000812038
0.000822311
0.000822321
0.000822299
0.00084679
0.000846794
0.00084677
0.000880305
0.000880301
0.000880269
0.000916742
0.000916739
0.000916703
0.000677421
0.000677426
0.000677436
0.000908204
0.000908248
0.000908265
0.000918241
0.00091831
0.000918327
0.000875641
0.000875703
0.000875713
0.000831679
0.000831717
0.000831713
0.000806584
0.0008066
0.000806581
0.000802379
0.000802383
0.000802359
0.000816015
0.000816014
0.000815988
0.00084287
0.000842861
0.000842827
0.000875666
0.000875656
0.000875618
0.000712539
0.000712545
0.000712555
0.000887628
0.000887678
0.000887693
0.00091638
0.000916455
0.000916473
0.000886953
0.00088702
0.000887031
0.000839939
0.000839978
0.000839974
0.000802204
0.000802216
0.000802196
0.000782979
0.000782977
0.00078295
0.000783715
0.000783708
0.00078368
0.000801806
0.000801792
0.000801755
0.000829476
0.000829461
0.000829421
0.000745527
0.000745533
0.000745544
0.000867263
0.000867316
0.000867331
0.00090212
0.0009022
0.000902219
0.000887477
0.000887548
0.000887561
0.000843329
0.000843367
0.000843364
0.000797091
0.000797099
0.000797077
0.000763848
0.00076384
0.00076381
0.000750325
0.000750314
0.000750283
0.000757462
0.000757444
0.000757405
0.000778178
0.000778158
0.000778114
0.000776966
0.000776973
0.000776983
0.00085092
0.000850976
0.000850989
0.00087783
0.000877913
0.000877934
0.00087518
0.000875252
0.000875267
0.000838257
0.000838293
0.000838293
0.000788551
0.000788555
0.000788533
0.000743996
0.000743984
0.00074395
0.000716114
0.000716099
0.000716063
0.000710419
0.000710398
0.000710356
0.000722104
0.000722081
0.000722034
0.00080707
0.000807076
0.000807088
0.000841061
0.000841118
0.00084113
0.000847419
0.000847503
0.000847525
0.000849906
0.000849977
0.000849996
0.000821726
0.000821758
0.000821761
0.000773403
0.000773402
0.000773381
0.000721675
0.000721659
0.000721621
0.000681009
0.000680991
0.000680951
0.00066147
0.000661448
0.000661403
0.000662066
0.000662042
0.000661993
0.000835616
0.000835623
0.000835635
0.000838492
0.000838549
0.000838561
0.000815518
0.000815602
0.000815625
0.00081372
0.000813788
0.000813811
0.000792283
0.00079231
0.000792318
0.000748771
0.000748767
0.000748747
0.000694711
0.000694691
0.000694652
0.000644575
0.000644555
0.000644512
0.000611607
0.000611585
0.000611538
0.000599512
0.000599488
0.000599437
0.000861962
0.000861968
0.00086198
0.000842474
0.000842531
0.000842542
0.000786512
0.000786595
0.000786621
0.000770834
0.000770899
0.000770927
0.000750972
0.000750996
0.000751009
0.000713311
0.000713305
0.000713288
0.000661397
0.000661376
0.000661338
0.000606368
0.000606348
0.000606304
0.000562107
0.000562087
0.000562041
0.000536715
0.000536694
0.000536644
0.00088504
0.000885046
0.000885059
0.000850977
0.000851033
0.000851046
0.000763681
0.000763766
0.000763792
0.000727194
0.000727258
0.00072729
0.000702213
0.000702235
0.000702254
0.000668854
0.000668848
0.000668835
0.000622096
0.000622076
0.000622041
0.000566962
0.000566943
0.000566901
0.000514998
0.000514982
0.000514939
0.000477153
0.000477137
0.000477092
0.000903269
0.000903274
0.000903288
0.000860898
0.000860954
0.000860968
0.00074866
0.000748748
0.000748776
0.000689925
0.000689992
0.000690028
0.000654656
0.000654679
0.000654705
0.000622484
0.000622481
0.000622474
0.000581621
0.000581603
0.000581573
0.000529852
0.000529836
0.000529798
0.000474216
0.000474204
0.000474168
0.000426392
0.000426382
0.000426346
0.000914278
0.000914284
0.000914298
0.000868237
0.000868292
0.000868308
0.000741434
0.000741526
0.000741555
0.000666909
0.000666979
0.000667019
0.000621933
0.00062196
0.000621991
0.000588676
0.000588676
0.000588676
0.000551894
0.000551881
0.000551855
0.000503878
0.000503865
0.000503831
0.000447473
0.000447464
0.000447433
0.000393746
0.000393741
0.000393712
)
;

boundaryField
{
    freeSurface
    {
        type            slip;
    }
    inlet
    {
        type            cyclic;
    }
    outlet
    {
        type            cyclic;
    }
    sidewalls
    {
        type            kqRWallFunction;
        value           nonuniform List<scalar> 
72
(
3.42924e-05
0.000104511
0.000144022
0.000183286
0.000223536
0.000265621
0.000310058
0.000356938
0.000405824
0.000455738
0.000505322
0.000553137
0.000598036
0.00063944
0.000677421
0.000712539
0.000745527
0.000776966
0.00080707
0.000835616
0.000861962
0.00088504
0.000903269
0.000914278
3.42924e-05
0.000104511
0.000144022
0.000183286
0.000223537
0.000265621
0.000310058
0.000356939
0.000405825
0.000455739
0.000505324
0.00055314
0.000598039
0.000639445
0.000677426
0.000712545
0.000745533
0.000776973
0.000807076
0.000835623
0.000861968
0.000885046
0.000903274
0.000914284
3.42935e-05
0.000104512
0.000144024
0.000183288
0.00022354
0.000265625
0.000310062
0.000356944
0.00040583
0.000455746
0.000505331
0.000553148
0.000598048
0.000639454
0.000677436
0.000712555
0.000745544
0.000776983
0.000807088
0.000835635
0.00086198
0.000885059
0.000903288
0.000914298
)
;
    }
    noSlipWalls
    {
        type            kqRWallFunction;
        value           nonuniform List<scalar> 
30
(
3.42924e-05
2.1946e-05
3.72795e-05
5.54554e-05
7.675e-05
0.000102322
0.000133681
0.000172885
0.000222667
0.000285971
3.42924e-05
2.19459e-05
3.72799e-05
5.5457e-05
7.67541e-05
0.00010233
0.000133692
0.000172899
0.000222685
0.000285998
3.42935e-05
2.19469e-05
3.72814e-05
5.54584e-05
7.67543e-05
0.000102328
0.000133687
0.00017289
0.000222669
0.000285976
)
;
    }
    procBoundary0to1
    {
        type            processor;
        value           nonuniform List<scalar> 
72
(
0.000366296
0.000366333
0.000366305
0.00104732
0.00104733
0.00104732
0.00111817
0.00111818
0.00111817
0.00113591
0.00113593
0.00113591
0.00113763
0.00113765
0.00113764
0.00113242
0.00113244
0.00113242
0.00112285
0.00112287
0.00112285
0.00110971
0.00110973
0.00110971
0.00109319
0.00109321
0.00109319
0.0010732
0.00107322
0.00107319
0.00104946
0.00104948
0.00104945
0.00102162
0.00102163
0.0010216
0.00098922
0.000989226
0.000989193
0.000951771
0.000951771
0.000951737
0.000908762
0.000908757
0.000908721
0.000859732
0.000859721
0.000859683
0.000804363
0.000804347
0.000804307
0.000742636
0.000742617
0.000742574
0.000675046
0.000675025
0.00067498
0.000602893
0.000602872
0.000602825
0.00052866
0.000528641
0.000528593
0.000456593
0.000456577
0.000456534
0.000393869
0.00039386
0.000393824
0.000352834
0.000352831
0.000352804
)
;
    }
}


// ************************************************************************* //
