/*--------------------------------*- C++ -*----------------------------------*\
  =========                 |
  \\      /  F ield         | OpenFOAM: The Open Source CFD Toolbox
   \\    /   O peration     | Website:  https://openfoam.org
    \\  /    A nd           | Version:  6
     \\/     M anipulation  |
\*---------------------------------------------------------------------------*/
FoamFile
{
    version     2.0;
    format      ascii;
    class       volScalarField;
    location    "20";
    object      nut;
}
// * * * * * * * * * * * * * * * * * * * * * * * * * * * * * * * * * * * * * //

dimensions      [0 2 -1 0 0 0 0];

internalField   nonuniform List<scalar> 
720
(
8.08389e-08
8.0839e-08
8.08416e-08
2.60049e-08
2.60048e-08
2.6006e-08
4.41744e-08
4.41748e-08
4.41766e-08
6.57119e-08
6.57137e-08
6.57155e-08
9.09449e-08
9.09499e-08
9.095e-08
1.21247e-07
1.21256e-07
1.21254e-07
1.58406e-07
1.58418e-07
1.58413e-07
2.04861e-07
2.04876e-07
2.04866e-07
2.63849e-07
2.6387e-07
2.63852e-07
3.38861e-07
3.38893e-07
3.38867e-07
1.33179e-05
1.33179e-05
1.3318e-05
1.6393e-06
1.63929e-06
1.63933e-06
2.12252e-06
2.12253e-06
2.12257e-06
2.51644e-06
2.51647e-06
2.5165e-06
2.83319e-06
2.83325e-06
2.83325e-06
3.0977e-06
3.09778e-06
3.09776e-06
3.32345e-06
3.32352e-06
3.32349e-06
3.51853e-06
3.5186e-06
3.51856e-06
3.68793e-06
3.68798e-06
3.68794e-06
3.83348e-06
3.83353e-06
3.83349e-06
1.56339e-05
1.56339e-05
1.5634e-05
5.09882e-06
5.09879e-06
5.09888e-06
5.68531e-06
5.68533e-06
5.68541e-06
6.3086e-06
6.30868e-06
6.30872e-06
6.81853e-06
6.81866e-06
6.81866e-06
7.24795e-06
7.24813e-06
7.24809e-06
7.61882e-06
7.61901e-06
7.61893e-06
7.94541e-06
7.94558e-06
7.94549e-06
8.2371e-06
8.23725e-06
8.23714e-06
8.49728e-06
8.49743e-06
8.49732e-06
1.76367e-05
1.76367e-05
1.76369e-05
1.00086e-05
1.00085e-05
1.00087e-05
1.03346e-05
1.03346e-05
1.03348e-05
1.11883e-05
1.11885e-05
1.11885e-05
1.19299e-05
1.19302e-05
1.19302e-05
1.25651e-05
1.25655e-05
1.25654e-05
1.31183e-05
1.31187e-05
1.31186e-05
1.36082e-05
1.36085e-05
1.36084e-05
1.40474e-05
1.40478e-05
1.40476e-05
1.44401e-05
1.44404e-05
1.44402e-05
1.94773e-05
1.94773e-05
1.94774e-05
1.66515e-05
1.66513e-05
1.66516e-05
1.61985e-05
1.61985e-05
1.61988e-05
1.71634e-05
1.71637e-05
1.71638e-05
1.81176e-05
1.81181e-05
1.81181e-05
1.89684e-05
1.89691e-05
1.89689e-05
1.97249e-05
1.97256e-05
1.97253e-05
2.04034e-05
2.0404e-05
2.04037e-05
2.10161e-05
2.10168e-05
2.10164e-05
2.15661e-05
2.15667e-05
2.15664e-05
2.12317e-05
2.12317e-05
2.12318e-05
2.50715e-05
2.50712e-05
2.50718e-05
2.34854e-05
2.34855e-05
2.34859e-05
2.43512e-05
2.43517e-05
2.43519e-05
2.54498e-05
2.54507e-05
2.54506e-05
2.6502e-05
2.65032e-05
2.65029e-05
2.74722e-05
2.74734e-05
2.7473e-05
2.83616e-05
2.83626e-05
2.83622e-05
2.91743e-05
2.91753e-05
2.91747e-05
2.99089e-05
2.99099e-05
2.99093e-05
2.2939e-05
2.2939e-05
2.29392e-05
3.50615e-05
3.50612e-05
3.5062e-05
3.2442e-05
3.24422e-05
3.24427e-05
3.29487e-05
3.29494e-05
3.29498e-05
3.40649e-05
3.40663e-05
3.40663e-05
3.52701e-05
3.52718e-05
3.52715e-05
3.6447e-05
3.64488e-05
3.64482e-05
3.75628e-05
3.75643e-05
3.75637e-05
3.86005e-05
3.8602e-05
3.86012e-05
3.95485e-05
3.955e-05
3.95492e-05
2.46121e-05
2.46121e-05
2.46123e-05
4.61781e-05
4.61779e-05
4.6179e-05
4.32642e-05
4.32649e-05
4.32656e-05
4.32048e-05
4.32061e-05
4.32065e-05
4.41566e-05
4.41588e-05
4.41587e-05
4.54208e-05
4.54234e-05
4.54229e-05
4.67701e-05
4.67726e-05
4.67718e-05
4.81148e-05
4.81169e-05
4.8116e-05
4.93987e-05
4.94008e-05
4.93996e-05
5.05886e-05
5.05908e-05
5.05896e-05
2.62435e-05
2.62435e-05
2.62437e-05
5.78043e-05
5.78045e-05
5.78058e-05
5.60035e-05
5.6005e-05
5.6006e-05
5.53826e-05
5.53847e-05
5.53853e-05
5.59651e-05
5.59683e-05
5.59681e-05
5.71433e-05
5.71468e-05
5.71462e-05
5.85909e-05
5.85942e-05
5.85932e-05
6.01451e-05
6.01478e-05
6.01465e-05
6.16877e-05
6.16904e-05
6.16888e-05
6.31452e-05
6.3148e-05
6.31463e-05
2.78106e-05
2.78106e-05
2.78108e-05
6.92271e-05
6.92278e-05
6.92294e-05
7.04899e-05
7.0493e-05
7.04943e-05
6.96992e-05
6.97029e-05
6.97037e-05
6.97613e-05
6.97659e-05
6.97656e-05
7.06661e-05
7.06707e-05
7.06699e-05
7.20875e-05
7.20917e-05
7.20903e-05
7.37973e-05
7.38005e-05
7.37988e-05
7.55963e-05
7.55994e-05
7.55973e-05
7.73398e-05
7.73432e-05
7.7341e-05
2.92844e-05
2.92844e-05
2.92846e-05
7.97241e-05
7.97258e-05
7.97276e-05
8.62994e-05
8.6305e-05
8.63066e-05
8.6244e-05
8.62503e-05
8.62513e-05
8.58141e-05
8.58203e-05
8.58201e-05
8.62533e-05
8.62591e-05
8.6258e-05
8.74688e-05
8.74737e-05
8.74718e-05
8.92316e-05
8.92351e-05
8.92329e-05
9.12602e-05
9.12633e-05
9.12605e-05
9.3295e-05
9.32985e-05
9.32956e-05
3.06386e-05
3.06386e-05
3.06388e-05
8.86629e-05
8.86659e-05
8.86678e-05
0.000102772
0.000102781
0.000102783
0.000104889
0.000104899
0.0001049
0.00010433
0.000104338
0.000104338
0.000104188
0.000104195
0.000104193
0.000104976
0.000104981
0.000104979
0.000106627
0.00010663
0.000106628
0.000108821
0.000108823
0.00010882
0.00011113
0.000111133
0.000111129
3.18578e-05
3.18579e-05
3.18581e-05
9.56013e-05
9.56058e-05
9.56078e-05
0.000119077
0.000119091
0.000119093
0.000125221
0.000125236
0.000125238
0.000125366
0.000125377
0.000125377
0.000124734
0.000124741
0.000124739
0.00012488
0.000124885
0.000124881
0.000126186
0.000126188
0.000126184
0.000128429
0.000128429
0.000128424
0.000130961
0.000130962
0.000130957
3.29421e-05
3.29422e-05
3.29425e-05
0.000100367
0.000100373
0.000100375
0.000134308
0.000134327
0.000134329
0.000146517
0.00014654
0.000146541
0.000148727
0.000148743
0.000148742
0.000148065
0.000148072
0.000148069
0.000147461
0.000147463
0.000147459
0.000148136
0.000148136
0.00014813
0.000150243
0.000150239
0.000150232
0.000152896
0.000152892
0.000152885
3.39064e-05
3.39065e-05
3.39067e-05
0.000103085
0.000103093
0.000103095
0.000147592
0.000147616
0.000147619
0.000167786
0.000167816
0.000167818
0.00017388
0.0001739
0.0001739
0.000174161
0.000174167
0.000174163
0.000172961
0.00017296
0.000172953
0.000172727
0.000172722
0.000172714
0.000174434
0.000174422
0.000174413
0.000177037
0.000177026
0.000177015
3.47741e-05
3.47743e-05
3.47745e-05
0.000104131
0.00010414
0.000104142
0.000158207
0.000158237
0.00015824
0.000187854
0.000187893
0.000187896
0.000199904
0.000199929
0.000199928
0.000202679
0.000202683
0.000202676
0.000201497
0.000201489
0.000201479
0.000200203
0.000200189
0.000200178
0.000201178
0.000201154
0.000201141
0.000203475
0.00020345
0.000203435
3.557e-05
3.55701e-05
3.55704e-05
0.000104023
0.000104034
0.000104036
0.00016569
0.000165726
0.000165729
0.000205495
0.000205543
0.000205546
0.000225518
0.000225548
0.000225547
0.000232834
0.000232835
0.000232825
0.000232912
0.000232892
0.000232877
0.000230733
0.000230704
0.000230689
0.000230628
0.000230584
0.000230567
0.000232263
0.000232215
0.000232196
3.63123e-05
3.63124e-05
3.63127e-05
0.00010329
0.000103302
0.000103304
0.000169916
0.000169955
0.000169959
0.000219576
0.000219631
0.000219635
0.000249169
0.000249202
0.000249202
0.000263333
0.000263327
0.000263313
0.00026659
0.000266552
0.000266532
0.000264258
0.000264206
0.000264186
0.000262824
0.000262752
0.00026273
0.000263347
0.000263267
0.000263241
3.70091e-05
3.70092e-05
3.70095e-05
0.000102365
0.000102377
0.000102378
0.000171131
0.000171174
0.000171179
0.000229212
0.000229274
0.000229279
0.000269184
0.000269218
0.000269219
0.000292379
0.000292365
0.000292346
0.000301267
0.000301204
0.000301178
0.000300241
0.000300158
0.000300132
0.000297506
0.000297398
0.000297369
0.000296405
0.000296282
0.00029625
3.76579e-05
3.76581e-05
3.76583e-05
0.000101539
0.000101551
0.000101553
0.000169931
0.000169978
0.000169983
0.000233947
0.000234013
0.00023402
0.000283971
0.000284005
0.000284008
0.000317794
0.00031777
0.000317748
0.000334904
0.000334812
0.000334781
0.000337336
0.000337216
0.000337184
0.000333777
0.000333629
0.000333594
0.000330524
0.000330353
0.000330313
3.8247e-05
3.82471e-05
3.82474e-05
0.000100969
0.000100981
0.000100983
0.000167164
0.000167212
0.000167218
0.000233932
0.000234003
0.000234012
0.000292322
0.000292359
0.000292363
0.000337285
0.000337252
0.000337227
0.000364752
0.000364632
0.000364596
0.000373095
0.000372939
0.000372901
0.000369657
0.000369476
0.000369436
0.000363722
0.000363512
0.000363465
3.87557e-05
3.87558e-05
3.87561e-05
0.000100699
0.00010071
0.000100713
0.000163793
0.000163845
0.000163851
0.000230134
0.000230211
0.000230223
0.000293925
0.000293967
0.000293974
0.000349002
0.000348966
0.00034894
0.000387763
0.000387624
0.000387585
0.000404001
0.000403819
0.000403779
0.000401808
0.000401615
0.000401571
0.0003926
0.000392382
0.00039233
3.91528e-05
3.91529e-05
3.91532e-05
0.000100672
0.000100683
0.000100686
0.000160765
0.000160819
0.000160826
0.000224516
0.000224604
0.000224616
0.000290213
0.000290265
0.000290276
0.000352701
0.000352671
0.000352646
0.000401708
0.000401566
0.000401526
0.000426275
0.000426089
0.000426047
0.00042604
0.000425864
0.000425818
0.000413025
0.000412846
0.000412789
3.93907e-05
3.93908e-05
3.93911e-05
0.000100752
0.000100763
0.000100766
0.000158909
0.000158966
0.000158973
0.00022005
0.000220146
0.000220159
0.000285332
0.000285395
0.00028541
0.00035148
0.000351464
0.000351441
0.000407033
0.0004069
0.000406861
0.000437591
0.000437415
0.000437372
0.00043901
0.000438862
0.000438815
0.000422724
0.0004226
0.000422541
)
;

boundaryField
{
    freeSurface
    {
        type            slip;
    }
    inlet
    {
        type            cyclic;
    }
    outlet
    {
        type            cyclic;
    }
    sidewalls
    {
        type            nutkWallFunction;
        Cmu             0.09;
        kappa           0.41;
        E               9.8;
        value           nonuniform List<scalar> 
72
(
4.65397e-07
1.31088e-06
1.63933e-06
1.91806e-06
2.17052e-06
2.40826e-06
2.63717e-06
2.85938e-06
3.07419e-06
3.27895e-06
3.47019e-06
3.64485e-06
3.80129e-06
3.93979e-06
4.06248e-06
4.17253e-06
4.27316e-06
4.36676e-06
4.45442e-06
4.53587e-06
4.60966e-06
4.67327e-06
4.72285e-06
4.75253e-06
4.65397e-07
1.31088e-06
1.63933e-06
1.91807e-06
2.17052e-06
2.40826e-06
2.63717e-06
2.85938e-06
3.07419e-06
3.27895e-06
3.4702e-06
3.64486e-06
3.8013e-06
3.93981e-06
4.0625e-06
4.17254e-06
4.27318e-06
4.36678e-06
4.45444e-06
4.53589e-06
4.60968e-06
4.67328e-06
4.72287e-06
4.75255e-06
4.65416e-07
1.3109e-06
1.63935e-06
1.91808e-06
2.17053e-06
2.40828e-06
2.63719e-06
2.8594e-06
3.07421e-06
3.27898e-06
3.47023e-06
3.64489e-06
3.80133e-06
3.93984e-06
4.06253e-06
4.17258e-06
4.27321e-06
4.36681e-06
4.45447e-06
4.53592e-06
4.60971e-06
4.67332e-06
4.72291e-06
4.75259e-06
)
;
    }
    noSlipWalls
    {
        type            nutkWallFunction;
        Cmu             0.09;
        kappa           0.41;
        E               9.8;
        value           uniform 0;
    }
    procBoundary0to1
    {
        type            processor;
        value           nonuniform List<scalar> 
72
(
4.34042e-07
4.34086e-07
4.34053e-07
3.95731e-06
3.95736e-06
3.95732e-06
8.72867e-06
8.7288e-06
8.7287e-06
1.47881e-05
1.47884e-05
1.47882e-05
2.20528e-05
2.20533e-05
2.2053e-05
3.056e-05
3.05609e-05
3.05604e-05
4.03931e-05
4.03944e-05
4.03937e-05
5.16577e-05
5.16596e-05
5.16586e-05
6.44702e-05
6.44728e-05
6.44713e-05
7.89493e-05
7.89524e-05
7.89504e-05
9.52088e-05
9.52123e-05
9.52097e-05
0.000113352
0.000113355
0.000113352
0.000133465
0.000133467
0.000133462
0.000155612
0.000155611
0.000155604
0.000179831
0.000179823
0.000179814
0.000206124
0.000206104
0.000206091
0.000234435
0.000234396
0.000234377
0.000264591
0.000264522
0.000264497
0.000296155
0.000296043
0.00029601
0.00032811
0.000327947
0.000327906
0.000358344
0.000358134
0.000358085
0.000383184
0.000382958
0.000382902
0.000398252
0.000398067
0.000398004
0.000402723
0.000402607
0.00040254
)
;
    }
}


// ************************************************************************* //
