/*--------------------------------*- C++ -*----------------------------------*\
  =========                 |
  \\      /  F ield         | OpenFOAM: The Open Source CFD Toolbox
   \\    /   O peration     | Website:  https://openfoam.org
    \\  /    A nd           | Version:  6
     \\/     M anipulation  |
\*---------------------------------------------------------------------------*/
FoamFile
{
    version     2.0;
    format      ascii;
    class       surfaceScalarField;
    location    "20";
    object      phi;
}
// * * * * * * * * * * * * * * * * * * * * * * * * * * * * * * * * * * * * * //

dimensions      [0 3 -1 0 0 0 0];

internalField   nonuniform List<scalar> 
1818
(
4.67342e-07
7.5507e-13
1.71961e-12
4.67345e-07
-1.27204e-12
-1.27604e-12
4.98999e-13
-4.27109e-13
4.48314e-07
4.5144e-12
4.59596e-14
4.48317e-07
-6.92822e-12
2.46555e-12
2.6748e-12
-2.79042e-12
6.28933e-07
8.69674e-12
3.02164e-13
6.28938e-07
-1.45316e-11
2.20636e-12
6.3902e-12
-2.80285e-12
8.29677e-07
1.06526e-11
1.61633e-12
8.29684e-07
-1.92286e-11
-2.30714e-12
9.31129e-12
5.10736e-13
1.05806e-06
8.51317e-12
2.65792e-12
1.05807e-06
-1.73626e-11
-1.01674e-11
9.62194e-12
7.47236e-12
1.32237e-06
4.15272e-12
1.93291e-12
1.32238e-06
-1.03772e-11
-1.6544e-11
6.91608e-12
1.4692e-11
1.63048e-06
-5.56457e-13
-9.93138e-13
1.63049e-06
-2.8238e-12
-1.55628e-11
3.92327e-12
1.67045e-11
1.99083e-06
-3.51294e-12
-5.97845e-12
1.99083e-06
2.30714e-12
-1.03481e-11
1.58503e-12
1.64904e-11
2.41259e-06
-5.7796e-12
-1.07878e-11
2.41259e-06
6.56044e-12
-7.24434e-12
-5.37967e-13
1.81686e-11
2.90523e-06
-1.4182e-11
2.90523e-06
-6.06912e-12
2.03462e-11
7.10438e-07
2.40477e-12
2.45298e-12
7.10441e-07
-3.62202e-12
-8.86853e-13
1.27066e-12
-1.60307e-12
1.15953e-06
1.04204e-11
-1.91935e-12
1.15953e-06
-1.55516e-11
9.20865e-12
5.77365e-12
-8.15727e-12
1.52475e-06
1.91333e-11
-1.62205e-12
1.52476e-06
-3.10092e-11
9.54745e-12
1.31567e-11
-8.85803e-12
1.92056e-06
2.26149e-11
3.43693e-12
1.92057e-06
-3.95708e-11
-3.72573e-12
1.85779e-11
-2.3239e-13
2.36766e-06
1.8117e-11
7.94788e-12
2.36767e-06
-3.45627e-11
-2.65061e-11
1.81105e-11
1.84781e-11
2.88125e-06
8.9541e-12
7.67575e-12
2.88126e-06
-2.04397e-11
-4.3215e-11
1.29463e-11
3.58244e-11
3.47501e-06
-5.84255e-13
1.05607e-12
3.47502e-06
-5.84084e-12
-4.01605e-11
7.55476e-12
3.95841e-11
4.16286e-06
-6.68731e-12
-1.09788e-11
4.16287e-06
4.36733e-12
-2.63651e-11
3.09939e-12
3.78579e-11
4.95933e-06
-1.11078e-11
-2.20005e-11
4.95933e-06
1.23145e-11
-1.83454e-11
-7.14584e-13
4.07697e-11
5.87872e-06
-2.90935e-11
5.87872e-06
-1.41278e-11
4.35138e-11
9.34341e-07
3.71342e-12
2.57861e-12
9.34345e-07
-5.4363e-12
5.87244e-13
1.85497e-12
-3.33488e-12
1.71624e-06
1.47446e-11
-5.61292e-12
1.71624e-06
-2.17207e-11
1.8738e-11
7.92691e-12
-1.48117e-11
2.23101e-06
2.66462e-11
-5.15464e-12
2.23102e-06
-4.25249e-11
2.01795e-11
1.77008e-11
-1.68287e-11
2.78166e-06
3.12854e-11
5.43391e-12
2.78167e-06
-5.36649e-11
-4.68811e-12
2.46617e-11
-1.72705e-12
3.4038e-06
2.52806e-11
1.48227e-11
3.40381e-06
-4.65268e-11
-4.69941e-11
2.35803e-11
3.20392e-11
4.11866e-06
1.27322e-11
1.61484e-11
4.11867e-06
-2.76056e-11
-7.65143e-11
1.69181e-11
6.09405e-11
4.94525e-06
-3.96646e-13
5.2039e-12
4.94527e-06
-8.08164e-12
-7.05578e-11
1.00593e-11
6.62973e-11
5.90307e-06
-8.95474e-12
-1.58212e-11
5.90307e-06
5.83455e-12
-4.5726e-11
4.21114e-12
6.25512e-11
7.01264e-06
-1.51088e-11
-3.50679e-11
7.01265e-06
1.65393e-11
-3.14049e-11
-7.41857e-13
6.72988e-11
8.29472e-06
-4.74085e-11
8.29473e-06
-2.3317e-11
7.12951e-11
1.21479e-06
5.0196e-12
2.31151e-12
1.21479e-06
-7.24559e-12
2.915e-12
2.45498e-12
-5.62453e-12
2.25615e-06
1.88161e-11
-1.06204e-11
2.25616e-06
-2.75162e-11
3.01527e-11
9.9616e-12
-2.22514e-11
2.93491e-06
3.37013e-11
-9.87931e-12
2.93492e-06
-5.32066e-11
3.30243e-11
2.18416e-11
-2.60237e-11
3.65108e-06
3.9541e-11
7.74877e-12
3.6511e-06
-6.66562e-11
-5.84459e-12
3.00292e-11
-3.4632e-12
4.4583e-06
3.22489e-11
2.30772e-11
4.45831e-06
-5.76893e-11
-7.13127e-11
2.84222e-11
4.80357e-11
5.38513e-06
1.65755e-11
2.69802e-11
5.38515e-06
-3.44689e-11
-1.15505e-10
2.05101e-11
8.94648e-11
6.45638e-06
-6.34234e-14
1.10939e-11
6.45639e-06
-1.02606e-11
-1.0564e-10
1.23519e-11
9.6078e-11
7.69741e-06
-1.10858e-11
-2.06719e-11
7.69741e-06
7.25548e-12
-6.71818e-11
5.2326e-12
8.94835e-11
9.13501e-06
-1.90172e-11
-5.02147e-11
9.13501e-06
2.07059e-11
-4.50051e-11
-8.0151e-13
9.65609e-11
1.07965e-05
-6.94622e-11
1.07965e-05
-3.22643e-11
1.02652e-10
1.56751e-06
6.623e-12
1.61159e-12
1.56752e-06
-9.42119e-12
6.18152e-12
3.15857e-12
-8.55149e-12
2.84207e-06
2.31996e-11
-1.67897e-11
2.84208e-06
-3.37347e-11
4.29849e-11
1.21378e-11
-3.01567e-11
3.7082e-06
4.1041e-11
-1.56559e-11
3.70822e-06
-6.42386e-11
4.7362e-11
2.60705e-11
-3.5855e-11
4.61274e-06
4.81817e-11
1.03467e-11
4.61275e-06
-7.98921e-11
-7.65579e-12
3.52842e-11
-4.95092e-12
5.62891e-06
3.9679e-11
3.26252e-11
5.62893e-06
-6.91777e-11
-9.91866e-11
3.31613e-11
6.62728e-11
6.79437e-06
2.08311e-11
3.99398e-11
6.79439e-06
-4.17449e-11
-1.59378e-10
2.41377e-11
1.20817e-10
8.14071e-06
4.51724e-13
1.86032e-11
8.14072e-06
-1.2601e-11
-1.44529e-10
1.46558e-11
1.28175e-10
9.69999e-06
-1.33384e-11
-2.57236e-11
9.69999e-06
8.80194e-12
-8.96461e-11
6.27533e-12
1.17767e-10
1.15061e-05
-2.32477e-11
-6.77616e-11
1.15061e-05
2.52643e-11
-5.76666e-11
-9.13999e-13
1.27406e-10
1.35938e-05
-9.58855e-11
1.35938e-05
-3.92243e-11
1.36477e-10
2.01061e-06
8.67432e-12
3.53373e-13
2.01061e-06
-1.21262e-11
1.05447e-11
3.99335e-12
-1.21979e-11
3.50805e-06
2.81183e-11
-2.39591e-11
3.50806e-06
-4.06532e-11
5.68322e-11
1.45255e-11
-3.82836e-11
4.5903e-06
4.89837e-11
-2.24161e-11
4.59032e-06
-7.60729e-11
6.25343e-11
3.0541e-11
-4.57283e-11
5.71534e-06
5.75574e-11
1.30707e-11
5.71536e-06
-9.38595e-11
-1.0651e-11
4.0585e-11
-5.51068e-12
6.97468e-06
4.78962e-11
4.33648e-11
6.97469e-06
-8.14345e-11
-1.30322e-10
3.7937e-11
8.65528e-11
8.417e-06
2.57143e-11
5.48817e-11
8.41701e-06
-4.97937e-11
-2.07151e-10
2.79655e-11
1.5416e-10
1.0082e-05
1.21491e-12
2.76738e-11
1.0082e-05
-1.52238e-11
-1.86319e-10
1.70419e-11
1.61749e-10
1.20097e-05
-1.5743e-11
-3.11672e-11
1.20097e-05
1.05172e-11
-1.11943e-10
7.33796e-12
1.46428e-10
1.42423e-05
-2.8e-11
-8.80748e-11
1.42423e-05
3.03899e-11
-6.74402e-11
-1.04619e-12
1.58261e-10
1.68232e-05
-1.27492e-10
1.68232e-05
-4.18866e-11
1.71282e-10
2.56484e-06
1.13305e-11
-1.66683e-12
2.56485e-06
-1.55034e-11
1.61792e-11
4.96266e-12
-1.6602e-11
4.28314e-06
3.37575e-11
-3.19174e-11
4.28315e-06
-4.84282e-11
7.12393e-11
1.71091e-11
-4.63811e-11
5.6139e-06
5.77296e-11
-3.0057e-11
5.61393e-06
-8.89079e-11
7.78814e-11
3.52619e-11
-5.50796e-11
6.9997e-06
6.78812e-11
1.56838e-11
6.99972e-06
-1.08744e-10
-1.54354e-11
4.59127e-11
-4.30542e-12
8.54596e-06
5.71272e-11
5.50798e-11
8.54598e-06
-9.46677e-11
-1.64331e-10
4.27388e-11
1.08698e-10
1.03141e-05
3.14113e-11
7.14945e-11
1.03141e-05
-5.88885e-11
-2.57426e-10
3.20899e-11
1.88408e-10
1.23535e-05
2.23491e-12
3.82014e-11
1.23535e-05
-1.82513e-11
-2.29926e-10
1.96327e-11
1.95824e-10
1.47135e-05
-1.82958e-11
-3.73916e-11
1.47135e-05
1.23121e-11
-1.3247e-10
8.51349e-12
1.74266e-10
1.74466e-05
-3.31209e-11
-1.12087e-10
1.74465e-05
3.59888e-11
-7.15209e-11
-1.25315e-12
1.87269e-10
2.06059e-05
-1.6518e-10
2.06059e-05
-3.70904e-11
2.04816e-10
3.25364e-06
1.47544e-11
-4.72445e-12
3.25366e-06
-1.96718e-11
2.3212e-11
6.04018e-12
-2.17e-11
5.19768e-06
4.0309e-11
-4.04144e-11
5.1977e-06
-5.71768e-11
8.5658e-11
1.98273e-11
-5.41395e-11
6.81266e-06
6.74461e-11
-3.84554e-11
6.8127e-06
-1.02843e-10
9.27608e-11
4.0171e-11
-6.33751e-11
8.50713e-06
7.9326e-11
1.78737e-11
8.50716e-06
-1.2459e-10
-2.26365e-11
5.1139e-11
-3.9492e-13
1.03941e-05
6.75813e-11
6.73488e-11
1.03941e-05
-1.08986e-10
-2.00649e-10
4.74654e-11
1.32561e-10
1.25484e-05
3.81196e-11
8.93565e-11
1.25484e-05
-6.93092e-11
-3.08256e-10
3.65935e-11
2.22033e-10
1.50307e-05
3.6495e-12
5.00132e-11
1.50307e-05
-2.18471e-11
-2.74003e-10
2.24591e-11
2.29232e-10
1.79018e-05
-2.09101e-11
-4.49859e-11
1.79018e-05
1.41068e-11
-1.48982e-10
9.79849e-12
1.99638e-10
2.1226e-05
-3.83385e-11
-1.41245e-10
2.1226e-05
4.18633e-11
-6.6109e-11
-1.60545e-12
2.12091e-10
2.50687e-05
-2.10404e-10
2.50687e-05
-2.02819e-11
2.33991e-10
4.10294e-06
1.91005e-11
-9.14634e-12
4.10296e-06
-2.47075e-11
3.16366e-11
7.16127e-12
-2.72569e-11
6.28623e-06
4.79881e-11
-4.92039e-11
6.28626e-06
-6.70433e-11
9.94905e-11
2.26212e-11
-6.11943e-11
8.22487e-06
7.83046e-11
-4.74734e-11
8.2249e-06
-1.17982e-10
1.06587e-10
4.52033e-11
-7.0143e-11
1.02834e-05
9.20719e-11
1.92071e-11
1.02834e-05
-1.41934e-10
-3.22785e-11
5.66138e-11
6.68779e-12
1.25757e-05
7.94948e-11
7.95945e-11
1.25757e-05
-1.25135e-10
-2.38315e-10
5.26187e-11
1.57754e-10
1.51894e-05
4.5859e-11
1.08142e-10
1.51894e-05
-8.12593e-11
-3.57846e-10
4.16549e-11
2.53562e-10
1.8198e-05
5.35932e-12
6.25555e-11
1.81979e-05
-2.6033e-11
-3.16762e-10
2.56374e-11
2.60739e-10
2.16753e-05
-2.34968e-11
-5.52271e-11
2.16753e-05
1.58183e-11
-1.58564e-10
1.11864e-11
2.20918e-10
2.57006e-05
-4.34159e-11
-1.77642e-10
2.57005e-05
4.78692e-11
-4.64411e-11
-2.19624e-12
2.3007e-10
3.03533e-05
-2.65533e-10
3.03533e-05
1.4494e-11
2.55235e-10
5.14117e-06
2.44969e-11
-1.52739e-11
5.14119e-06
-3.06255e-11
4.12108e-11
8.21747e-12
-3.27924e-11
7.5896e-06
5.70343e-11
-5.81125e-11
7.58964e-06
-7.81532e-11
1.12116e-10
2.53851e-11
-6.70886e-11
9.89602e-06
9.04978e-11
-5.6932e-11
9.89606e-06
-1.34396e-10
1.1889e-10
5.02327e-11
-7.50554e-11
1.23814e-05
1.06318e-10
1.91605e-11
1.23815e-05
-1.61254e-10
-4.36031e-11
6.26005e-11
1.67287e-11
1.51555e-05
9.31294e-11
9.09523e-11
1.51555e-05
-1.43897e-10
-2.75727e-10
5.86969e-11
1.83543e-10
1.83165e-05
5.45138e-11
1.27592e-10
1.83165e-05
-9.48307e-11
-4.04712e-10
4.7469e-11
2.81756e-10
2.19515e-05
7.06939e-12
7.51869e-11
2.19515e-05
-3.06138e-11
-3.55726e-10
2.9258e-11
2.8851e-10
2.61499e-05
-2.59071e-11
-7.0485e-11
2.61499e-05
1.73022e-11
-1.57117e-10
1.26708e-11
2.36377e-10
3.10082e-05
-4.7924e-11
-2.24679e-10
3.10082e-05
5.37017e-11
-6.63262e-12
-3.14749e-12
2.38735e-10
3.66234e-05
-3.34092e-10
3.66233e-05
7.46054e-11
2.64716e-10
6.39958e-06
3.10288e-11
-2.3415e-11
6.39961e-06
-3.73763e-11
5.13513e-11
9.06262e-12
-3.75069e-11
9.15654e-06
6.77011e-11
-6.71062e-11
9.15659e-06
-9.06137e-11
1.22957e-10
2.79707e-11
-7.12789e-11
1.18812e-05
1.04245e-10
-6.65697e-11
1.18812e-05
-1.52138e-10
1.29392e-10
5.50814e-11
-7.805e-11
1.4864e-05
1.22278e-10
1.71552e-11
1.48641e-05
-1.82622e-10
-5.52012e-11
6.89333e-11
2.89317e-11
1.82089e-05
1.08454e-10
1.00474e-10
1.82089e-05
-1.65236e-10
-3.10833e-10
6.56654e-11
2.08834e-10
2.20217e-05
6.37702e-11
1.47155e-10
2.20217e-05
-1.09845e-10
-4.47044e-10
5.41382e-11
3.05344e-10
2.64033e-05
8.43994e-12
8.66481e-11
2.64032e-05
-3.5412e-11
-3.87762e-10
3.34623e-11
3.10658e-10
3.14602e-05
-2.87173e-11
-9.35431e-11
3.14602e-05
1.90539e-11
-1.40533e-10
1.43163e-11
2.44688e-10
3.73098e-05
-5.30266e-11
-2.85851e-10
3.73097e-05
6.05863e-11
5.87231e-11
-4.53237e-12
2.36176e-10
4.40695e-05
-4.21812e-10
4.40694e-05
1.69057e-10
2.59165e-10
7.91332e-06
3.87205e-11
-3.37602e-11
7.91336e-06
-4.49216e-11
6.11064e-11
9.59919e-12
-4.03149e-11
1.10453e-05
8.02369e-11
-7.61966e-11
1.10453e-05
-1.04581e-10
1.31564e-10
3.02645e-11
-7.3317e-11
1.42474e-05
1.19776e-10
-7.61686e-11
1.42474e-05
-1.71294e-10
1.38095e-10
5.95771e-11
-7.92924e-11
1.78068e-05
1.40119e-10
1.25456e-11
1.78069e-05
-2.06144e-10
-6.476e-11
7.55066e-11
4.16768e-11
2.18248e-05
1.23988e-10
1.085e-10
2.18248e-05
-1.87953e-10
-3.4196e-10
7.37542e-11
2.31626e-10
2.64125e-05
7.15248e-11
1.66533e-10
2.64125e-05
-1.24604e-10
-4.82753e-10
6.20215e-11
3.22522e-10
3.16838e-05
8.92374e-12
9.31405e-11
3.16838e-05
-4.01277e-11
-4.07648e-10
3.84571e-11
3.25741e-10
3.77638e-05
-3.2063e-11
-1.27942e-10
3.77637e-05
2.10904e-11
-1.0419e-10
1.62211e-11
2.44748e-10
4.47935e-05
-5.87507e-11
-3.65164e-10
4.47934e-05
6.82999e-11
1.5518e-10
-6.11022e-12
2.20842e-10
5.29157e-05
-5.34087e-10
5.29155e-05
3.0623e-10
2.35597e-10
9.72308e-06
4.75151e-11
-4.61767e-11
9.72313e-06
-5.33594e-11
6.92622e-11
9.91795e-12
-4.01279e-11
1.33248e-05
9.4837e-11
-8.54828e-11
1.33249e-05
-1.20361e-10
1.37701e-10
3.23215e-11
-7.28919e-11
1.70759e-05
1.37327e-10
-8.56553e-11
1.7076e-05
-1.92071e-10
1.45399e-10
6.36339e-11
-7.92017e-11
2.13015e-05
1.59907e-10
4.57035e-12
2.13015e-05
-2.32071e-10
-6.88032e-11
8.24404e-11
5.23078e-11
2.61092e-05
1.38846e-10
1.15857e-10
2.61092e-05
-2.11738e-10
-3.66633e-10
8.3471e-11
2.48639e-10
3.16154e-05
7.71648e-11
1.84289e-10
3.16153e-05
-1.38717e-10
-5.09342e-10
7.12582e-11
3.32229e-10
3.79458e-05
9.01436e-12
8.95294e-11
3.79457e-05
-4.5211e-11
-4.09883e-10
4.41499e-11
3.3334e-10
4.52447e-05
-3.61464e-11
-1.76886e-10
4.52446e-05
2.34055e-11
-4.42934e-11
1.85544e-11
2.35936e-10
5.36801e-05
-6.50935e-11
-4.65856e-10
5.36799e-05
7.64049e-11
2.87625e-10
-7.47018e-12
1.91062e-10
6.34245e-05
-6.7604e-10
6.34243e-05
4.93453e-10
1.91802e-10
1.18774e-05
5.73743e-11
-6.0219e-11
1.18775e-05
-6.31063e-11
7.46307e-11
1.03767e-11
-3.60987e-11
1.60761e-05
1.11639e-10
-9.52427e-11
1.60762e-05
-1.3857e-10
1.41422e-10
3.45177e-11
-6.97944e-11
2.04649e-05
1.57065e-10
-9.53051e-11
2.04649e-05
-2.14873e-10
1.52154e-10
6.73949e-11
-7.8307e-11
2.54593e-05
1.82019e-10
-8.34388e-12
2.54594e-05
-2.61064e-10
-6.22934e-11
8.99215e-11
5.74218e-11
3.11892e-05
1.56016e-10
1.2025e-10
3.11892e-05
-2.39853e-10
-3.78589e-10
9.49696e-11
2.55947e-10
3.77793e-05
8.28596e-11
1.98997e-10
3.77792e-05
-1.54317e-10
-5.25554e-10
8.17221e-11
3.34599e-10
4.53679e-05
8.22104e-12
7.33713e-11
4.53677e-05
-5.01577e-11
-3.92458e-10
5.04382e-11
3.33837e-10
5.41183e-05
-4.12708e-11
-2.42275e-10
5.41181e-05
2.59689e-11
4.23988e-11
2.15897e-11
2.16846e-10
6.42278e-05
-7.20275e-11
-5.88635e-10
6.42275e-05
8.41647e-11
4.58927e-10
-7.94094e-12
1.44631e-10
7.5904e-05
-8.4978e-10
7.59037e-05
7.35735e-10
1.24848e-10
1.44351e-05
6.8389e-11
-7.52959e-11
1.44351e-05
-7.51348e-11
7.65659e-11
1.17299e-11
-2.79411e-11
1.93925e-05
1.30875e-10
-1.05886e-10
1.93926e-05
-1.60444e-10
1.43123e-10
3.76916e-11
-6.39918e-11
2.45315e-05
1.79009e-10
-1.05479e-10
2.45315e-05
-2.40156e-10
1.59224e-10
7.11399e-11
-7.7074e-11
3.04153e-05
2.01911e-10
-2.37789e-11
3.04154e-05
-2.8801e-10
-4.43531e-11
9.7223e-11
5.37858e-11
3.72179e-05
1.70034e-10
1.19248e-10
3.72178e-05
-2.65484e-10
-3.71049e-10
1.06756e-10
2.49228e-10
4.50812e-05
8.74297e-11
2.04622e-10
4.50811e-05
-1.69567e-10
-5.24918e-10
9.26069e-11
3.29174e-10
5.41593e-05
5.72166e-12
4.37662e-11
5.41591e-05
-5.42462e-11
-3.54076e-10
5.72996e-11
3.26754e-10
6.46356e-05
-4.79157e-11
-3.23268e-10
6.46354e-05
2.87311e-11
1.57171e-10
2.5766e-11
1.8526e-10
7.67378e-05
-7.95432e-11
-7.30396e-10
7.67375e-05
9.0382e-11
6.67399e-10
-6.39365e-12
8.00564e-11
9.07141e-05
-1.05154e-09
9.07138e-05
1.03225e-09
3.17476e-11
1.74671e-05
8.0802e-11
-9.06955e-11
1.74672e-05
-9.11865e-11
7.57215e-11
1.5331e-11
-1.66437e-11
2.33803e-05
1.52819e-10
-1.17688e-10
2.33804e-05
-1.88375e-10
1.43744e-10
4.37319e-11
-5.60396e-11
2.94137e-05
2.0332e-10
-1.16764e-10
2.94138e-05
-2.68749e-10
1.66653e-10
7.53254e-11
-7.4939e-11
3.63318e-05
2.17441e-10
-3.81702e-11
3.63318e-05
-3.10892e-10
-1.56565e-11
1.04253e-10
3.85758e-11
4.43797e-05
1.76597e-10
1.10375e-10
4.43796e-05
-2.85046e-10
-3.37057e-10
1.19327e-10
2.24034e-10
5.37319e-05
8.88658e-11
1.9338e-10
5.37317e-05
-1.82035e-10
-4.99806e-10
1.03291e-10
3.1606e-10
6.45657e-05
1.87352e-13
2.04722e-12
6.45655e-05
-5.63573e-11
-2.95075e-10
6.47734e-11
3.1099e-10
7.70888e-05
-5.68568e-11
-4.15692e-10
7.70886e-05
3.18253e-11
2.9647e-10
3.15979e-11
1.40423e-10
9.15602e-05
-8.77327e-11
-8.83034e-10
9.15599e-05
9.36541e-11
9.03707e-10
-1.4198e-12
-1.54931e-12
0.000108274
-1.26991e-09
0.000108273
1.37049e-09
-8.64935e-11
2.1058e-05
9.5182e-11
-1.05967e-10
2.10581e-05
-1.13731e-10
7.47523e-11
2.29375e-11
-4.79219e-12
2.81589e-05
1.78111e-10
-1.31055e-10
2.8159e-05
-2.26982e-10
1.45738e-10
5.63274e-11
-4.77353e-11
3.52713e-05
2.30984e-10
-1.30678e-10
3.52714e-05
-3.10602e-10
1.80151e-10
8.8571e-11
-7.60181e-11
4.34013e-05
2.35251e-10
-5.48817e-11
4.34013e-05
-3.43239e-10
2.78756e-11
1.17588e-10
1.1108e-11
5.28957e-05
1.80945e-10
9.18086e-11
5.28956e-05
-3.03023e-10
-2.78046e-10
1.31646e-10
1.83622e-10
6.39822e-05
8.46241e-11
1.66687e-10
6.3982e-05
-1.88489e-10
-4.50365e-10
1.12827e-10
2.93917e-10
7.68755e-05
-1.04659e-11
-4.82452e-11
7.68753e-05
-5.45175e-11
-2.19274e-10
7.27441e-11
2.86683e-10
9.18167e-05
-6.93727e-11
-5.10245e-10
9.18165e-05
3.57458e-11
4.48812e-10
3.96952e-11
8.4327e-11
0.000109099
-9.69981e-11
-1.03179e-09
0.000109099
9.27348e-11
1.1469e-09
8.50707e-12
-9.41637e-11
0.000129067
-1.48364e-09
0.000129067
1.72078e-09
-2.21563e-10
2.5306e-05
1.12106e-10
-1.2074e-10
2.53061e-05
-1.45019e-10
7.80073e-11
3.60979e-11
3.54051e-12
3.3861e-05
2.06792e-10
-1.4514e-10
3.38611e-05
-2.80586e-10
1.52142e-10
7.94529e-11
-4.25266e-11
4.22853e-05
2.58497e-10
-1.45316e-10
4.22854e-05
-3.67374e-10
2.02117e-10
1.15653e-10
-8.44641e-11
5.18486e-05
2.49661e-10
-7.60199e-11
5.18485e-05
-3.81512e-10
8.54875e-11
1.38985e-10
-2.57227e-11
6.3028e-05
1.79083e-10
6.00482e-11
6.30279e-05
-3.14161e-10
-1.97543e-10
1.42094e-10
1.34996e-10
7.61299e-05
7.05455e-11
1.26951e-10
7.61297e-05
-1.83276e-10
-3.78297e-10
1.1939e-10
2.61942e-10
9.14275e-05
-2.94818e-11
-1.00668e-10
9.14272e-05
-4.50123e-11
-1.34787e-10
8.04551e-11
2.55318e-10
0.000109212
-8.7606e-11
-5.92207e-10
0.000109212
4.19554e-11
5.93006e-10
5.05095e-11
2.31968e-11
0.00012982
-1.08466e-10
-1.15439e-09
0.00012982
8.72422e-11
1.36115e-09
2.47348e-11
-1.84464e-10
0.00015365
-1.65989e-09
0.00015365
2.03057e-09
-3.53956e-10
3.03225e-05
1.322e-10
-1.34373e-10
3.03227e-05
-1.85371e-10
8.92446e-11
5.44397e-11
4.66803e-12
4.0633e-05
2.40188e-10
-1.58622e-10
4.06331e-05
-3.50896e-10
1.6477e-10
1.1322e-10
-4.2916e-11
5.06562e-05
2.89529e-10
-1.6095e-10
5.06562e-05
-4.38788e-10
2.30686e-10
1.52209e-10
-9.78369e-11
6.19295e-05
2.62722e-10
-1.01377e-10
6.19294e-05
-4.20912e-10
1.50432e-10
1.61119e-10
-6.52897e-11
7.50813e-05
1.66014e-10
1.85662e-11
7.50811e-05
-3.10357e-10
-1.04356e-10
1.47133e-10
8.34298e-11
9.05244e-05
4.04599e-11
7.89171e-11
9.05242e-05
-1.56824e-10
-2.89863e-10
1.19195e-10
2.21502e-10
0.000108617
-6.18226e-11
-1.45956e-10
0.000108617
-2.06397e-11
-5.3908e-11
8.53301e-11
2.19688e-10
0.000129727
-1.15075e-10
-6.42071e-10
0.000129727
5.46772e-11
6.98359e-10
6.30523e-11
-3.20798e-11
0.000154254
-1.24808e-10
-1.2204e-09
0.000154253
7.94268e-11
1.49642e-09
4.74919e-11
-2.53178e-10
0.000182655
-1.75502e-09
0.000182654
2.22438e-09
-4.52037e-10
3.62311e-05
1.55544e-10
-1.44701e-10
3.62313e-05
-2.31757e-10
1.07621e-10
7.4847e-11
-2.01418e-12
4.86345e-05
2.78631e-10
-1.68795e-10
4.86347e-05
-4.34124e-10
1.80898e-10
1.53352e-10
-4.80976e-11
6.05992e-05
3.23165e-10
-1.73523e-10
6.05992e-05
-5.18344e-10
2.57225e-10
1.92316e-10
-1.11081e-10
7.39256e-05
2.69644e-10
-1.26058e-10
7.39255e-05
-4.51208e-10
2.0946e-10
1.78123e-10
-9.90589e-11
8.93998e-05
1.34454e-10
-2.56155e-11
8.93995e-05
-2.79122e-10
-1.21409e-11
1.41112e-10
3.55117e-11
0.000107567
-1.41291e-11
3.06007e-11
0.000107566
-9.42584e-11
-1.97447e-10
1.05461e-10
1.76773e-10
0.0001289
-1.1467e-10
-1.73004e-10
0.0001289
3.1378e-11
8.17516e-12
8.14218e-11
1.83596e-10
0.000153879
-1.56919e-10
-6.38037e-10
0.000153879
8.44479e-11
7.28348e-10
7.16131e-11
-6.71133e-11
0.000182998
-1.52052e-10
-1.19771e-09
0.000182998
7.66255e-11
1.50027e-09
7.52761e-11
-2.80431e-10
0.000216792
-1.7251e-09
0.000216792
2.21621e-09
-4.73978e-10
4.31641e-05
1.80574e-10
-1.4561e-10
4.31644e-05
-2.78261e-10
1.24294e-10
9.30746e-11
-1.31656e-11
5.80353e-05
3.20126e-10
-1.68093e-10
5.80355e-05
-5.21873e-10
1.90451e-10
1.93507e-10
-5.47251e-11
7.23359e-05
3.56523e-10
-1.75384e-10
7.2336e-05
-5.97503e-10
2.67253e-10
2.30178e-10
-1.16685e-10
8.81314e-05
2.64485e-10
-1.41433e-10
8.81312e-05
-4.60925e-10
2.44012e-10
1.84192e-10
-1.1679e-10
0.000106354
7.54978e-11
-6.08129e-11
0.000106354
-2.03681e-10
5.934e-11
1.15836e-10
-6.71806e-13
0.000127698
-1.03675e-10
-7.29981e-12
0.000127698
2.44059e-11
-1.18116e-10
6.83454e-11
1.33919e-10
0.000152786
-1.96883e-10
-1.72218e-10
0.000152785
1.30021e-10
3.7665e-11
5.82826e-11
1.50976e-10
0.000182248
-2.11291e-10
-5.73079e-10
0.000182248
1.43425e-10
6.58143e-10
6.19985e-11
-6.45791e-11
0.000216722
-1.83148e-10
-1.05907e-09
0.000216722
9.27204e-11
1.33277e-09
8.67299e-11
-2.53745e-10
0.000256847
-1.52412e-09
0.000256848
1.94051e-09
-4.00844e-10
5.12564e-05
2.05863e-10
-1.28013e-10
5.12567e-05
-3.18584e-10
1.22691e-10
1.04497e-10
-2.0935e-11
6.90061e-05
3.62538e-10
-1.46089e-10
6.90064e-05
-6.04416e-10
1.7489e-10
2.26476e-10
-5.39905e-11
8.60789e-05
3.86376e-10
-1.53645e-10
8.6079e-05
-6.66256e-10
2.39554e-10
2.5933e-10
-1.05578e-10
0.000104828
2.41533e-10
-1.33145e-10
0.000104828
-4.37149e-10
2.31775e-10
1.72288e-10
-1.10062e-10
0.000126312
-1.90514e-11
-7.44322e-11
0.000126311
-6.66807e-11
9.06106e-11
6.21967e-11
-1.81159e-11
0.000151372
-2.37823e-10
-2.63919e-11
0.000151372
2.18743e-10
-6.46386e-11
-2.05074e-12
9.71292e-11
0.000180809
-3.19143e-10
-1.38785e-10
0.000180809
2.97312e-10
2.98899e-11
4.616e-12
1.21402e-10
0.000215454
-2.97389e-10
-4.34536e-10
0.000215454
2.45309e-10
4.9098e-10
3.93703e-11
-4.0464e-11
0.000256142
-2.36674e-10
-7.96385e-10
0.000256142
1.47007e-10
9.90469e-10
8.12866e-11
-1.78452e-10
0.000303662
-1.13924e-09
0.000303662
1.40622e-09
-2.54653e-10
6.06295e-05
2.31337e-10
-8.19787e-11
6.06299e-05
-3.52295e-10
8.55342e-11
1.09224e-10
-1.80787e-11
8.16992e-05
4.05653e-10
-9.0911e-11
8.16996e-05
-6.79361e-10
1.12358e-10
2.50966e-10
-3.56284e-11
0.000102002
4.14428e-10
-9.65517e-11
0.000102002
-7.23946e-10
1.50715e-10
2.78496e-10
-6.55506e-11
0.000124237
2.05607e-10
-8.72319e-11
0.000124237
-3.80509e-10
1.519e-10
1.3923e-10
-7.14505e-11
0.000149568
-1.4676e-10
-5.53339e-11
0.000149567
1.32331e-10
7.17427e-11
-2.18502e-11
-1.77392e-11
0.000178977
-4.16762e-10
-2.49805e-11
0.000178977
4.87087e-10
-2.99467e-11
-1.03158e-10
5.75794e-11
0.000213463
-4.83907e-10
-7.80821e-11
0.000213463
5.29059e-10
7.86619e-12
-7.24745e-11
7.72122e-11
0.000254095
-4.1683e-10
-2.34378e-10
0.000254096
3.97291e-10
2.58229e-10
-1.2616e-12
-1.43921e-11
0.000301964
-3.15835e-10
-4.32323e-10
0.000301965
2.49592e-10
5.26081e-10
5.20836e-11
-8.47681e-11
0.000358062
-6.12665e-10
0.000358063
7.22643e-10
-1.02816e-10
7.13579e-05
2.57741e-10
7.13584e-05
-3.83935e-10
1.11671e-10
9.62014e-05
4.55864e-10
9.62019e-05
-7.6225e-10
2.77682e-10
0.00012018
4.54647e-10
0.00012018
-8.01247e-10
3.06508e-10
0.000146422
1.80097e-10
0.000146422
-3.39407e-10
1.12435e-10
0.000176219
-2.79218e-10
0.000176218
3.37073e-10
-1.0606e-10
0.000210691
-6.19833e-10
0.000210691
7.75687e-10
-2.01407e-10
0.000251042
-6.79151e-10
0.000251042
7.85754e-10
-1.4516e-10
0.000298602
-5.5795e-10
0.000298602
5.73639e-10
-4.47868e-11
0.000354741
-4.12484e-10
0.000354742
3.76025e-10
1.63509e-11
0.000420691
0.000420692
)
;

boundaryField
{
    freeSurface
    {
        type            calculated;
        value           uniform 0;
    }
    inlet
    {
        type            cyclic;
        value           nonuniform List<scalar> 
240
(
-4.67345e-07
-4.48318e-07
-6.28937e-07
-8.29681e-07
-1.05806e-06
-1.32236e-06
-1.63048e-06
-1.99082e-06
-2.41258e-06
-2.90521e-06
-7.10441e-07
-1.15953e-06
-1.52476e-06
-1.92056e-06
-2.36766e-06
-2.88125e-06
-3.475e-06
-4.16285e-06
-4.95931e-06
-5.8787e-06
-9.34345e-07
-1.71624e-06
-2.23102e-06
-2.78167e-06
-3.4038e-06
-4.11866e-06
-4.94525e-06
-5.90305e-06
-7.01262e-06
-8.2947e-06
-1.21479e-06
-2.25616e-06
-2.93492e-06
-3.65109e-06
-4.4583e-06
-5.38513e-06
-6.45637e-06
-7.69739e-06
-9.13499e-06
-1.07964e-05
-1.56752e-06
-2.84208e-06
-3.70821e-06
-4.61275e-06
-5.62891e-06
-6.79437e-06
-8.1407e-06
-9.69997e-06
-1.15061e-05
-1.35938e-05
-2.01061e-06
-3.50806e-06
-4.59031e-06
-5.71535e-06
-6.97468e-06
-8.41699e-06
-1.0082e-05
-1.20097e-05
-1.42423e-05
-1.68232e-05
-2.56485e-06
-4.28315e-06
-5.61392e-06
-6.99971e-06
-8.54597e-06
-1.03141e-05
-1.23534e-05
-1.47135e-05
-1.74465e-05
-2.06059e-05
-3.25366e-06
-5.19769e-06
-6.81268e-06
-8.50714e-06
-1.03941e-05
-1.25484e-05
-1.50307e-05
-1.79017e-05
-2.1226e-05
-2.50687e-05
-4.10296e-06
-6.28625e-06
-8.22489e-06
-1.02834e-05
-1.25757e-05
-1.51894e-05
-1.81979e-05
-2.16753e-05
-2.57005e-05
-3.03533e-05
-5.14118e-06
-7.58963e-06
-9.89604e-06
-1.23814e-05
-1.51555e-05
-1.83165e-05
-2.19515e-05
-2.61499e-05
-3.10082e-05
-3.66233e-05
-6.39961e-06
-9.15657e-06
-1.18812e-05
-1.48641e-05
-1.82089e-05
-2.20217e-05
-2.64032e-05
-3.14602e-05
-3.73097e-05
-4.40694e-05
-7.91335e-06
-1.10453e-05
-1.42474e-05
-1.78068e-05
-2.18248e-05
-2.64125e-05
-3.16838e-05
-3.77637e-05
-4.47934e-05
-5.29156e-05
-9.72312e-06
-1.33249e-05
-1.70759e-05
-2.13015e-05
-2.61092e-05
-3.16153e-05
-3.79457e-05
-4.52446e-05
-5.368e-05
-6.34244e-05
-1.18774e-05
-1.60762e-05
-2.04649e-05
-2.54593e-05
-3.11892e-05
-3.77792e-05
-4.53678e-05
-5.41182e-05
-6.42276e-05
-7.59038e-05
-1.44351e-05
-1.93926e-05
-2.45315e-05
-3.04154e-05
-3.72178e-05
-4.50812e-05
-5.41592e-05
-6.46355e-05
-7.67376e-05
-9.07139e-05
-1.74672e-05
-2.33804e-05
-2.94138e-05
-3.63318e-05
-4.43796e-05
-5.37318e-05
-6.45656e-05
-7.70886e-05
-9.156e-05
-0.000108273
-2.10581e-05
-2.8159e-05
-3.52713e-05
-4.34013e-05
-5.28957e-05
-6.3982e-05
-7.68754e-05
-9.18166e-05
-0.000109099
-0.000129067
-2.53061e-05
-3.38611e-05
-4.22853e-05
-5.18486e-05
-6.30279e-05
-7.61298e-05
-9.14273e-05
-0.000109212
-0.00012982
-0.00015365
-3.03226e-05
-4.06331e-05
-5.06562e-05
-6.19295e-05
-7.50811e-05
-9.05243e-05
-0.000108617
-0.000129727
-0.000154253
-0.000182655
-3.62312e-05
-4.86346e-05
-6.05992e-05
-7.39256e-05
-8.93996e-05
-0.000107566
-0.0001289
-0.000153879
-0.000182998
-0.000216792
-4.31643e-05
-5.80354e-05
-7.23359e-05
-8.81313e-05
-0.000106354
-0.000127698
-0.000152785
-0.000182248
-0.000216722
-0.000256848
-5.12566e-05
-6.90063e-05
-8.60789e-05
-0.000104828
-0.000126311
-0.000151372
-0.000180809
-0.000215454
-0.000256142
-0.000303662
-6.06298e-05
-8.16994e-05
-0.000102002
-0.000124237
-0.000149567
-0.000178977
-0.000213463
-0.000254096
-0.000301965
-0.000358063
-7.13583e-05
-9.62017e-05
-0.00012018
-0.000146422
-0.000176219
-0.000210691
-0.000251042
-0.000298602
-0.000354741
-0.000420692
)
;
    }
    outlet
    {
        type            cyclic;
        value           nonuniform List<scalar> 
240
(
4.67345e-07
4.48318e-07
6.28937e-07
8.29681e-07
1.05806e-06
1.32236e-06
1.63048e-06
1.99082e-06
2.41258e-06
2.90521e-06
7.10441e-07
1.15953e-06
1.52476e-06
1.92056e-06
2.36766e-06
2.88125e-06
3.475e-06
4.16285e-06
4.95931e-06
5.8787e-06
9.34345e-07
1.71624e-06
2.23102e-06
2.78167e-06
3.4038e-06
4.11866e-06
4.94525e-06
5.90305e-06
7.01262e-06
8.2947e-06
1.21479e-06
2.25616e-06
2.93492e-06
3.65109e-06
4.4583e-06
5.38513e-06
6.45637e-06
7.69739e-06
9.13499e-06
1.07964e-05
1.56752e-06
2.84208e-06
3.70821e-06
4.61275e-06
5.62891e-06
6.79437e-06
8.1407e-06
9.69997e-06
1.15061e-05
1.35938e-05
2.01061e-06
3.50806e-06
4.59031e-06
5.71535e-06
6.97468e-06
8.41699e-06
1.0082e-05
1.20097e-05
1.42423e-05
1.68232e-05
2.56485e-06
4.28315e-06
5.61392e-06
6.99971e-06
8.54597e-06
1.03141e-05
1.23534e-05
1.47135e-05
1.74465e-05
2.06059e-05
3.25366e-06
5.19769e-06
6.81268e-06
8.50714e-06
1.03941e-05
1.25484e-05
1.50307e-05
1.79017e-05
2.1226e-05
2.50687e-05
4.10296e-06
6.28625e-06
8.22489e-06
1.02834e-05
1.25757e-05
1.51894e-05
1.81979e-05
2.16753e-05
2.57005e-05
3.03533e-05
5.14118e-06
7.58963e-06
9.89604e-06
1.23814e-05
1.51555e-05
1.83165e-05
2.19515e-05
2.61499e-05
3.10082e-05
3.66233e-05
6.39961e-06
9.15657e-06
1.18812e-05
1.48641e-05
1.82089e-05
2.20217e-05
2.64032e-05
3.14602e-05
3.73097e-05
4.40694e-05
7.91335e-06
1.10453e-05
1.42474e-05
1.78068e-05
2.18248e-05
2.64125e-05
3.16838e-05
3.77637e-05
4.47934e-05
5.29156e-05
9.72312e-06
1.33249e-05
1.70759e-05
2.13015e-05
2.61092e-05
3.16153e-05
3.79457e-05
4.52446e-05
5.368e-05
6.34244e-05
1.18774e-05
1.60762e-05
2.04649e-05
2.54593e-05
3.11892e-05
3.77792e-05
4.53678e-05
5.41182e-05
6.42276e-05
7.59038e-05
1.44351e-05
1.93926e-05
2.45315e-05
3.04154e-05
3.72178e-05
4.50812e-05
5.41592e-05
6.46355e-05
7.67376e-05
9.07139e-05
1.74672e-05
2.33804e-05
2.94138e-05
3.63318e-05
4.43796e-05
5.37318e-05
6.45656e-05
7.70886e-05
9.156e-05
0.000108273
2.10581e-05
2.8159e-05
3.52713e-05
4.34013e-05
5.28957e-05
6.3982e-05
7.68754e-05
9.18166e-05
0.000109099
0.000129067
2.53061e-05
3.38611e-05
4.22853e-05
5.18486e-05
6.30279e-05
7.61298e-05
9.14273e-05
0.000109212
0.00012982
0.00015365
3.03226e-05
4.06331e-05
5.06562e-05
6.19295e-05
7.50811e-05
9.05243e-05
0.000108617
0.000129727
0.000154253
0.000182655
3.62312e-05
4.86346e-05
6.05992e-05
7.39256e-05
8.93996e-05
0.000107566
0.0001289
0.000153879
0.000182998
0.000216792
4.31643e-05
5.80354e-05
7.23359e-05
8.81313e-05
0.000106354
0.000127698
0.000152785
0.000182248
0.000216722
0.000256848
5.12566e-05
6.90063e-05
8.60789e-05
0.000104828
0.000126311
0.000151372
0.000180809
0.000215454
0.000256142
0.000303662
6.06298e-05
8.16994e-05
0.000102002
0.000124237
0.000149567
0.000178977
0.000213463
0.000254096
0.000301965
0.000358063
7.13583e-05
9.62017e-05
0.00012018
0.000146422
0.000176219
0.000210691
0.000251042
0.000298602
0.000354741
0.000420692
)
;
    }
    sidewalls
    {
        type            calculated;
        value           uniform 0;
    }
    noSlipWalls
    {
        type            calculated;
        value           uniform 0;
    }
    procBoundary0to1
    {
        type            processor;
        value           nonuniform List<scalar> 
72
(
-6.93656e-12
8.83567e-12
-1.75128e-12
-1.31688e-11
1.64095e-11
-2.94607e-12
-1.79656e-11
2.20257e-11
-3.64833e-12
-2.27373e-11
2.7576e-11
-4.30771e-12
-2.78762e-11
3.36489e-11
-5.11136e-12
-3.36806e-11
4.05659e-11
-6.07776e-12
-4.02239e-11
4.84083e-11
-7.21174e-12
-4.70953e-11
5.68796e-11
-8.62517e-12
-5.38862e-11
6.57179e-11
-1.0465e-11
-6.00614e-11
7.45865e-11
-1.29283e-11
-6.60082e-11
8.41244e-11
-1.62692e-11
-7.26071e-11
9.509e-11
-2.03755e-11