/*--------------------------------*- C++ -*----------------------------------*\
  =========                 |
  \\      /  F ield         | OpenFOAM: The Open Source CFD Toolbox
   \\    /   O peration     | Website:  https://openfoam.org
    \\  /    A nd           | Version:  6
     \\/     M anipulation  |
\*---------------------------------------------------------------------------*/
FoamFile
{
    version     2.0;
    format      ascii;
    class       volVectorField;
    location    "20";
    object      U;
}
// * * * * * * * * * * * * * * * * * * * * * * * * * * * * * * * * * * * * * //

dimensions      [0 1 -1 0 0 0 0];

internalField   nonuniform List<vector> 
720
(
(0.0654143 -3.65278e-10 1.66594e-10)
(0.0654143 5.55399e-11 -1.0689e-10)
(0.065415 1.61273e-10 -6.18202e-11)
(0.0540896 4.32786e-09 4.93627e-11)
(0.0540895 -6.49546e-09 3.58951e-11)
(0.0540904 2.31837e-09 -9.22032e-11)
(0.0654076 1.34888e-08 4.45895e-11)
(0.0654078 -2.11989e-08 2.96895e-11)
(0.0654087 8.58946e-09 -8.25462e-11)
(0.0743747 2.08274e-08 5.79133e-11)
(0.0743753 -3.6211e-08 -9.70987e-11)
(0.074376 1.67075e-08 3.38585e-11)
(0.081756 1.99699e-08 7.48706e-11)
(0.0817572 -3.82746e-08 -3.00714e-10)
(0.0817572 1.98501e-08 2.24729e-10)
(0.0880751 1.28981e-08 4.15967e-11)
(0.0880767 -2.77777e-08 -4.33112e-10)
(0.0880763 1.63393e-08 3.93652e-10)
(0.0936078 2.50959e-09 -1.96406e-11)
(0.0936093 -1.14807e-08 -3.57407e-10)
(0.0936087 1.01871e-08 3.80678e-10)
(0.0985196 -4.85629e-09 -9.62813e-11)
(0.098521 5.40817e-10 -2.07741e-10)
(0.0985201 5.19388e-09 3.07542e-10)
(0.102912 -9.22239e-09 -1.23171e-10)
(0.102913 9.21274e-09 -1.26605e-10)
(0.102912 5.91238e-10 2.52346e-10)
(0.106821 -1.3661e-08 -1.01905e-10)
(0.106822 1.66706e-08 -7.42733e-11)
(0.106821 -2.65976e-09 1.77721e-10)
(0.0850938 -2.9316e-10 2.2011e-10)
(0.0850938 -1.50178e-10 -9.96128e-11)
(0.0850946 2.75465e-10 -1.23833e-10)
(0.119714 9.51527e-09 -8.00232e-11)
(0.119714 -1.36539e-08 5.37929e-10)
(0.119715 4.56257e-09 -5.07944e-10)
(0.135693 2.60823e-08 -5.48267e-11)
(0.135693 -3.97968e-08 4.79896e-10)
(0.135695 1.54997e-08 -4.73043e-10)
(0.147326 3.85605e-08 1.69637e-10)
(0.147326 -6.52384e-08 -1.96338e-10)
(0.147327 2.92262e-08 2.94846e-12)
(0.156554 3.62032e-08 3.19283e-10)
(0.156555 -6.63708e-08 -1.09264e-09)
(0.156555 3.30443e-08 7.6988e-10)
(0.164217 2.34293e-08 2.43736e-10)
(0.164219 -4.6856e-08 -1.5532e-09)
(0.164219 2.60863e-08 1.31913e-09)
(0.170721 5.0696e-09 -4.62048e-12)
(0.170723 -1.92851e-08 -1.25999e-09)
(0.170722 1.63903e-08 1.27888e-09)
(0.176286 -7.71135e-09 -3.35234e-10)
(0.176287 7.13944e-10 -7.24958e-10)
(0.176286 8.54679e-09 1.0733e-09)
(0.181026 -1.51888e-08 -5.61235e-10)
(0.181028 1.49886e-08 -4.42823e-10)
(0.181027 1.21313e-09 1.01338e-09)
(0.184967 -2.24117e-08 -6.42214e-10)
(0.184969 2.67958e-08 -3.07018e-10)
(0.184968 -3.78471e-09 9.54767e-10)
(0.0957661 -1.13623e-10 2.58324e-10)
(0.0957662 -4.07852e-10 -3.05409e-11)
(0.095767 3.66128e-10 -2.38962e-10)
(0.151627 1.19682e-08 -3.36293e-10)
(0.151627 -1.68769e-08 1.27427e-09)
(0.151629 5.52563e-09 -1.05303e-09)
(0.1699 3.12943e-08 -2.57476e-10)
(0.169901 -4.71211e-08 1.16187e-09)
(0.169902 1.80166e-08 -1.01062e-09)
(0.182596 4.57687e-08 2.99844e-10)
(0.182597 -7.62244e-08 -2.8003e-10)
(0.182597 3.3536e-08 -6.99399e-11)
(0.192594 4.29818e-08 6.55867e-10)
(0.192595 -7.66708e-08 -2.12672e-09)
(0.192596 3.71431e-08 1.46476e-09)
(0.200876 2.8179e-08 5.89555e-10)
(0.200878 -5.40275e-08 -2.988e-09)
(0.200878 2.90363e-08 2.41986e-09)
(0.2079 6.55134e-09 1.29286e-10)
(0.207902 -2.24195e-08 -2.38385e-09)
(0.207901 1.84715e-08 2.28506e-09)
(0.213913 -8.63475e-09 -5.00277e-10)
(0.213915 6.70482e-10 -1.34518e-09)
(0.213914 9.81923e-09 1.87342e-09)
(0.219046 -1.76171e-08 -9.16264e-10)
(0.219047 1.72652e-08 -8.05455e-10)
(0.219046 1.56471e-09 1.74145e-09)
(0.223331 -2.61485e-08 -1.05391e-09)
(0.223333 3.08301e-08 -5.28255e-10)
(0.223331 -3.96467e-09 1.59394e-09)
(0.106547 2.25046e-10 2.6371e-10)
(0.106547 -8.40289e-10 1.59891e-10)
(0.106548 4.95106e-10 -4.5048e-10)
(0.17057 1.33261e-08 -7.24655e-10)
(0.17057 -1.86543e-08 2.19933e-09)
(0.170571 6.10037e-09 -1.6719e-09)
(0.19126 3.39706e-08 -5.75157e-10)
(0.19126 -5.07568e-08 2.0587e-09)
(0.191261 1.91976e-08 -1.66377e-09)
(0.205089 4.94448e-08 4.40903e-10)
(0.20509 -8.13185e-08 -3.43774e-10)
(0.205091 3.52427e-08 -1.81217e-10)
(0.215866 4.66426e-08 1.0857e-09)
(0.215867 -8.12309e-08 -3.3911e-09)
(0.215867 3.83608e-08 2.296e-09)
(0.224752 3.10506e-08 1.06181e-09)
(0.224754 -5.75621e-08 -4.75095e-09)
(0.224753 3.00001e-08 3.72645e-09)
(0.232269 7.69331e-09 3.42075e-10)
(0.23227 -2.41379e-08 -3.7605e-09)
(0.232269 1.92989e-08 3.4709e-09)
(0.238693 -8.93673e-09 -6.72572e-10)
(0.238694 5.81952e-10 -2.08482e-09)
(0.238693 1.03939e-08 2.80549e-09)
(0.244173 -1.89001e-08 -1.34445e-09)
(0.244174 1.85114e-08 -1.2248e-09)
(0.244173 1.72388e-09 2.60329e-09)
(0.248751 -2.82481e-08 -1.5909e-09)
(0.248752 3.3038e-08 -7.75037e-10)
(0.248751 -3.99845e-09 2.38608e-09)
(0.117649 7.48112e-10 2.15451e-10)
(0.117649 -1.4718e-09 4.53727e-10)
(0.117649 6.6405e-10 -7.26197e-10)
(0.183867 1.44069e-08 -1.2288e-09)
(0.183867 -2.0036e-08 3.28726e-09)
(0.183868 6.53977e-09 -2.3574e-09)
(0.206788 3.54883e-08 -9.82504e-10)
(0.206789 -5.27578e-08 3.11113e-09)
(0.20679 1.98145e-08 -2.39912e-09)
(0.221725 5.14401e-08 6.04169e-10)
(0.221726 -8.36776e-08 -4.36056e-10)
(0.221727 3.57735e-08 -2.94505e-10)
(0.233224 4.88076e-08 1.59531e-09)
(0.233225 -8.30357e-08 -4.88332e-09)
(0.233226 3.81877e-08 3.2742e-09)
(0.242656 3.30301e-08 1.64986e-09)
(0.242658 -5.94689e-08 -6.79797e-09)
(0.242658 3.01122e-08 5.2052e-09)
(0.25061 8.69182e-09 6.28862e-10)
(0.250612 -2.5226e-08 -5.33549e-09)
(0.250611 1.95488e-08 4.78676e-09)
(0.257396 -8.92162e-09 -8.58515e-10)
(0.257397 4.93917e-10 -2.89275e-09)
(0.257396 1.05893e-08 3.8246e-09)
(0.26318 -1.97805e-08 -1.85779e-09)
(0.263181 1.93397e-08 -1.64764e-09)
(0.26318 1.85999e-09 3.55753e-09)
(0.268015 -2.95378e-08 -2.2378e-09)
(0.268016 3.44925e-08 -1.00001e-09)
(0.268015 -4.11216e-09 3.26884e-09)
(0.129133 1.47241e-09 1.1486e-10)
(0.129133 -2.30559e-09 8.51232e-10)
(0.129134 8.62408e-10 -1.06889e-09)
(0.194209 1.53616e-08 -1.82826e-09)
(0.194209 -2.12082e-08 4.48495e-09)
(0.194211 6.88623e-09 -3.07606e-09)
(0.219047 3.63487e-08 -1.46878e-09)
(0.219048 -5.37976e-08 4.25805e-09)
(0.219049 2.00744e-08 -3.16534e-09)
(0.235089 5.24302e-08 7.8231e-10)
(0.23509 -8.44302e-08 -5.90514e-10)
(0.235091 3.56255e-08 -3.69094e-10)
(0.247291 5.00845e-08 2.17991e-09)
(0.247292 -8.31388e-08 -6.58061e-09)
(0.247292 3.71161e-08 4.38107e-09)
(0.257238 3.44963e-08 2.34281e-09)
(0.257239 -6.04922e-08 -9.07175e-09)
(0.257239 2.9779e-08 6.80954e-09)
(0.265594 9.63557e-09 9.79121e-10)
(0.265595 -2.59872e-08 -7.05754e-09)
(0.265594 1.94682e-08 6.19195e-09)
(0.272707 -8.69256e-09 -1.03813e-09)
(0.272708 4.19162e-10 -3.7224e-09)
(0.272707 1.05175e-08 4.86495e-09)
(0.278766 -2.03463e-08 -2.45272e-09)
(0.278767 1.98739e-08 -2.01481e-09)
(0.278766 1.95037e-09 4.54188e-09)
(0.283832 -3.049e-08 -3.02738e-09)
(0.283833 3.55448e-08 -1.14361e-09)
(0.283831 -4.17442e-09 4.21526e-09)
(0.140963 2.39291e-09 -5.25674e-11)
(0.140963 -3.31693e-09 1.37001e-09)
(0.140964 1.07022e-09 -1.48812e-09)
(0.202909 1.62659e-08 -2.50645e-09)
(0.202909 -2.22421e-08 5.75174e-09)
(0.20291 7.1393e-09 -3.80318e-09)
(0.229243 3.67943e-08 -2.02571e-09)
(0.229244 -5.41252e-08 5.44299e-09)
(0.229245 2.00006e-08 -3.91351e-09)
(0.246379 5.27294e-08 9.63021e-10)
(0.24638 -8.40862e-08 -8.4676e-10)
(0.246381 3.50136e-08 -3.53378e-10)
(0.259286 5.07604e-08 2.82655e-09)
(0.259288 -8.19882e-08 -8.46154e-09)
(0.259288 3.5327e-08 5.60782e-09)
(0.269739 3.56215e-08 3.12341e-09)
(0.26974 -6.09827e-08 -1.15052e-08)
(0.269739 2.91967e-08 8.48947e-09)
(0.27848 1.05766e-08 1.38713e-09)
(0.278481 -2.65746e-08 -8.87696e-09)
(0.27848 1.91717e-08 7.6426e-09)
(0.285901 -8.43231e-09 -1.24746e-09)
(0.285901 3.28515e-10 -4.52238e-09)
(0.2859 1.04007e-08 5.91113e-09)
(0.292215 -2.04826e-08 -3.14865e-09)
(0.292216 2.00195e-08 -2.24998e-09)
(0.292215 1.98141e-09 5.49959e-09)
(0.297495 -3.09931e-08 -3.96886e-09)
(0.297495 3.61562e-08 -1.12918e-09)
(0.297494 -4.2561e-09 5.15846e-09)
(0.153021 3.47638e-09 -3.122e-10)
(0.153021 -4.44744e-09 2.02906e-09)
(0.153022 1.25804e-09 -1.98551e-09)
(0.210709 1.71625e-08 -3.24317e-09)
(0.210709 -2.31628e-08 7.04358e-09)
(0.21071 7.2831e-09 -4.51403e-09)
(0.238058 3.69673e-08 -2.64686e-09)
(0.238059 -5.38678e-08 6.61191e-09)
(0.23806 1.95877e-08 -4.59506e-09)
(0.256238 5.25157e-08 1.12631e-09)
(0.256239 -8.29198e-08 -1.24808e-09)
(0.256239 3.40445e-08 -1.84209e-10)
(0.269861 5.10042e-08 3.51978e-09)
(0.269862 -7.98121e-08 -1.04723e-08)
(0.269862 3.28888e-08 6.91578e-09)
(0.280825 3.64991e-08 3.97376e-09)
(0.280826 -6.11443e-08 -1.40089e-08)
(0.280825 2.84827e-08 1.01735e-08)
(0.289949 1.15561e-08 1.88144e-09)
(0.289949 -2.7091e-08 -1.07545e-08)
(0.289949 1.8727e-08 9.07145e-09)
(0.297667 -8.09445e-09 -1.49342e-09)
(0.297668 1.7299e-10 -5.21613e-09)
(0.297666 1.0245e-08 6.89396e-09)
(0.304226 -2.02134e-08 -3.97785e-09)
(0.304227 1.98116e-08 -2.24551e-09)
(0.304225 1.94419e-09 6.35579e-09)
(0.309709 -3.07865e-08 -5.09158e-09)
(0.309709 3.61151e-08 -8.52924e-10)
(0.309708 -4.40401e-09 6.02398e-09)
(0.165124 4.66042e-09 -6.96504e-10)
(0.165124 -5.61035e-09 2.8371e-09)
(0.165125 1.39227e-09 -2.54686e-09)
(0.218071 1.80725e-08 -4.01644e-09)
(0.218072 -2.39701e-08 8.31018e-09)
(0.218073 7.29541e-09 -5.17923e-09)
(0.24594 3.69622e-08 -3.32134e-09)
(0.245941 -5.31677e-08 7.71964e-09)
(0.245943 1.88888e-08 -5.17422e-09)
(0.265052 5.19089e-08 1.24704e-09)
(0.265053 -8.11026e-08 -1.81927e-09)
(0.265054 3.27753e-08 1.88636e-10)
(0.279397 5.09436e-08 4.23032e-09)
(0.279398 -7.74605e-08 -1.25954e-08)
(0.279398 3.05281e-08 8.31638e-09)
(0.290886 3.71917e-08 4.86114e-09)
(0.290887 -6.11282e-08 -1.64821e-08)
(0.290886 2.77281e-08 1.17935e-08)
(0.300399 1.23497e-08 2.4159e-09)
(0.300399 -2.74506e-08 -1.26316e-08)
(0.300398 1.82738e-08 1.04661e-08)
(0.308415 -7.68873e-09 -1.80589e-09)
(0.308415 -4.38864e-11 -5.7108e-09)
(0.308414 1.00573e-08 7.75129e-09)
(0.315215 -1.95512e-08 -5.00474e-09)
(0.315215 1.92685e-08 -1.86124e-09)
(0.315213 1.83307e-09 7.03535e-09)
(0.320895 -2.98756e-08 -6.4519e-09)
(0.320895 3.5459e-08 -1.65158e-10)
(0.320894 -4.65123e-09 6.71924e-09)
(0.177056 5.86109e-09 -1.24175e-09)
(0.177056 -6.70763e-09 3.78289e-09)
(0.177057 1.44518e-09 -3.13555e-09)
(0.2253 1.89985e-08 -4.80806e-09)
(0.225301 -2.46461e-08 9.49771e-09)
(0.225302 7.15187e-09 -5.76213e-09)
(0.253219 3.68443e-08 -4.03537e-09)
(0.25322 -5.21207e-08 8.72473e-09)
(0.253221 1.7936e-08 -5.62092e-09)
(0.273086 5.10022e-08 1.29452e-09)
(0.273087 -7.87486e-08 -2.53488e-09)
(0.273088 3.12301e-08 7.71422e-10)
(0.288134 5.06678e-08 4.91177e-09)
(0.288134 -7.53701e-08 -1.47698e-08)
(0.288134 2.8594e-08 9.79521e-09)
(0.300164 3.77535e-08 5.82398e-09)
(0.300165 -6.108e-08 -1.88704e-08)
(0.300164 2.70253e-08 1.32561e-08)
(0.310081 1.26656e-08 2.96714e-09)
(0.310081 -2.74059e-08 -1.43862e-08)
(0.31008 1.78559e-08 1.17278e-08)
(0.318401 -7.22864e-09 -2.26759e-09)
(0.318401 -3.20162e-10 -5.86358e-09)
(0.3184 9.84918e-09 8.42241e-09)
(0.325443 -1.84768e-08 -6.29784e-09)
(0.325443 1.83756e-08 -9.51804e-10)
(0.325442 1.64502e-09 7.46124e-09)
(0.331321 -2.82075e-08 -8.10036e-09)
(0.331321 3.41626e-08 1.08636e-09)
(0.33132 -5.02217e-09 7.14208e-09)
(0.188597 6.98678e-09 -1.98312e-09)
(0.188598 -7.65659e-09 4.82409e-09)
(0.188599 1.40897e-09 -3.6844e-09)
(0.232599 1.99261e-08 -5.60799e-09)
(0.2326 -2.51594e-08 1.05497e-08)
(0.232601 6.82777e-09 -6.2159e-09)
(0.260154 3.66553e-08 -4.77004e-09)
(0.260155 -5.08044e-08 9.5977e-09)
(0.260156 1.67635e-08 -5.92136e-09)
(0.280544 4.98691e-08 1.23225e-09)
(0.280545 -7.5937e-08 -3.32314e-09)
(0.280545 2.9416e-08 1.53074e-09)
(0.296238 5.02276e-08 5.50597e-09)
(0.296239 -7.34097e-08 -1.68641e-08)
(0.296239 2.6905e-08 1.12791e-08)
(0.308818 3.79677e-08 6.84915e-09)
(0.308818 -6.07276e-08 -2.11395e-08)
(0.308817 2.63166e-08 1.45399e-08)
(0.319156 1.2464e-08 3.52063e-09)
(0.319156 -2.69734e-08 -1.59238e-08)
(0.319155 1.75274e-08 1.27762e-08)
(0.327794 -6.84804e-09 -2.94869e-09)
(0.327794 -5.39585e-10 -5.55923e-09)
(0.327793 9.63493e-09 8.86337e-09)
(0.335085 -1.75294e-08 -7.99741e-09)
(0.335085 1.7609e-08 6.96173e-10)
(0.335084 1.4385e-09 7.56142e-09)
(0.341165 -2.66667e-08 -1.02155e-08)
(0.341165 3.31155e-08 3.17161e-09)
(0.341163 -5.52736e-09 7.20235e-09)
(0.199562 7.95572e-09 -2.94827e-09)
(0.199562 -8.42063e-09 5.87884e-09)
(0.199564 1.31148e-09 -4.09216e-09)
(0.240098 2.08244e-08 -6.4109e-09)
(0.240099 -2.55071e-08 1.14208e-08)
(0.2401 6.33936e-09 -6.50117e-09)
(0.266956 3.64126e-08 -5.51027e-09)
(0.266957 -4.93036e-08 1.03282e-08)
(0.266958 1.54334e-08 -6.07629e-09)
(0.287598 4.8559e-08 1.01803e-09)
(0.287599 -7.2731e-08 -4.0566e-09)
(0.287599 2.73461e-08 2.38413e-09)
(0.303839 4.9627e-08 5.98095e-09)
(0.303839 -7.15434e-08 -1.87685e-08)
(0.303839 2.54204e-08 1.26908e-08)
(0.316954 3.66673e-08 7.83532e-09)
(0.316954 -5.89899e-08 -2.30781e-08)
(0.316953 2.56854e-08 1.55337e-08)
(0.327731 1.16321e-08 3.85728e-09)
(0.327731 -2.61228e-08 -1.6996e-08)
(0.32773 1.73665e-08 1.35813e-08)
(0.336705 -6.58488e-09 -3.98901e-09)
(0.336704 -6.50261e-10 -4.6026e-09)
(0.336703 9.39801e-09 9.01779e-09)
(0.344257 -1.66911e-08 -1.02166e-08)
(0.344256 1.68645e-08 3.24924e-09)
(0.344255 1.2994e-09 7.2821e-09)
(0.350547 -2.5201e-08 -1.29326e-08)
(0.350546 3.20719e-08 6.31639e-09)
(0.350544 -5.97193e-09 6.80895e-09)
(0.209825 8.71502e-09 -4.14147e-09)
(0.209825 -9.03351e-09 6.82882e-09)
(0.209827 1.22399e-09 -4.23918e-09)
(0.247861 2.16306e-08 -7.2292e-09)
(0.247862 -2.57327e-08 1.20809e-08)
(0.247863 5.77754e-09 -6.57731e-09)
(0.273793 3.6123e-08 -6.23759e-09)
(0.273794 -4.77314e-08 1.09337e-08)
(0.273796 1.40427e-08 -6.11755e-09)
(0.294404 4.70932e-08 5.96798e-10)
(0.294404 -6.91903e-08 -4.53204e-09)
(0.294405 2.50555e-08 3.18709e-09)
(0.311043 4.88533e-08 6.38401e-09)
(0.311044 -6.98675e-08 -2.03612e-08)
(0.311043 2.42479e-08 1.38627e-08)
(0.324653 3.37266e-08 8.63858e-09)
(0.324653 -5.58133e-08 -2.44953e-08)
(0.324652 2.51995e-08 1.61901e-08)
(0.335876 1.0783e-08 3.961e-09)
(0.335876 -2.5307e-08 -1.75094e-08)
(0.335874 1.72099e-08 1.40648e-08)
(0.345204 -6.47812e-09 -5.52093e-09)
(0.345204 -6.2e-10 -2.83621e-09)
(0.345202 9.14094e-09 8.85984e-09)
(0.353033 -1.59494e-08 -1.30612e-08)
(0.353033 1.6052e-08 6.87729e-09)
(0.353031 1.30195e-09 6.55873e-09)
(0.359545 -2.37553e-08 -1.6401e-08)
(0.359544 3.07952e-08 1.07379e-08)
(0.359542 -6.1771e-09 5.89442e-09)
(0.219335 9.26152e-09 -5.52959e-09)
(0.219336 -9.60845e-09 7.54003e-09)
(0.219337 1.25147e-09 -4.01923e-09)
(0.255895 2.22965e-08 -8.07836e-09)
(0.255896 -2.5938e-08 1.25185e-08)
(0.255897 5.27506e-09 -6.41946e-09)
(0.280791 3.57611e-08 -6.97339e-09)
(0.280792 -4.62395e-08 1.1464e-08)
(0.280793 1.27563e-08 -6.06972e-09)
(0.301103 4.54598e-08 -1.02421e-10)
(0.301104 -6.53556e-08 -4.47038e-09)
(0.301104 2.25907e-08 3.73523e-09)
(0.317955 4.81646e-08 6.91394e-09)
(0.317956 -6.86791e-08 -2.15757e-08)
(0.317955 2.34282e-08 1.45312e-08)
(0.331978 3.10477e-08 9.51823e-09)
(0.331978 -5.29769e-08 -2.56506e-08)
(0.331977 2.47358e-08 1.65088e-08)
(0.343636 9.78166e-09 3.54395e-09)
(0.343635 -2.42855e-08 -1.71833e-08)
(0.343634 1.69474e-08 1.4231e-08)
(0.353336 -6.55952e-09 -7.61962e-09)
(0.353335 -4.38596e-10 -1.29119e-10)
(0.353334 8.88058e-09 8.33188e-09)
(0.36146 -1.53024e-08 -1.66136e-08)
(0.361459 1.50931e-08 1.17133e-08)
(0.361457 1.51868e-09 5.33988e-09)
(0.36821 -2.22743e-08 -2.07187e-08)
(0.368209 2.90667e-08 1.66325e-08)
(0.368207 -5.9818e-09 4.35961e-09)
(0.228108 9.64697e-09 -7.05142e-09)
(0.228109 -1.0324e-08 7.90573e-09)
(0.22811 1.51473e-09 -3.3695e-09)
(0.26415 2.28091e-08 -8.98259e-09)
(0.26415 -2.63039e-08 1.27473e-08)
(0.264152 5.00972e-09 -6.01754e-09)
(0.288027 3.53171e-08 -7.72269e-09)
(0.288028 -4.50155e-08 1.19831e-08)
(0.288028 1.17569e-08 -5.98874e-09)
(0.307819 4.36358e-08 -1.04765e-09)
(0.30782 -6.11871e-08 -3.66208e-09)
(0.30782 1.99267e-08 3.79111e-09)
(0.324675 4.53246e-08 7.02074e-09)
(0.324675 -6.53773e-08 -2.16875e-08)
(0.324674 2.25853e-08 1.45242e-08)
(0.33899 2.83557e-08 1.00627e-08)
(0.33899 -4.98208e-08 -2.60727e-08)
(0.338988 2.39042e-08 1.6429e-08)
(0.351041 8.48905e-09 2.56783e-09)
(0.35104 -2.28883e-08 -1.5964e-08)
(0.351039 1.65435e-08 1.4062e-08)
(0.361119 -6.87766e-09 -1.03362e-08)
(0.361118 -9.41469e-11 3.60837e-09)
(0.361117 8.64863e-09 7.3926e-09)
(0.369557 -1.47618e-08 -2.08425e-08)
(0.369556 1.39177e-08 1.77787e-08)
(0.369554 2.0271e-09 3.57068e-09)
(0.376565 -2.07179e-08 -2.58893e-08)
(0.376564 2.66624e-08 2.40529e-08)
(0.376563 -5.20543e-09 2.1543e-09)
(0.236199 9.95265e-09 -8.63331e-09)
(0.236199 -1.13856e-08 7.91158e-09)
(0.236201 2.13778e-09 -2.31774e-09)
(0.272522 2.31787e-08 -9.98116e-09)
(0.272523 -2.71026e-08 1.28131e-08)
(0.272524 5.23322e-09 -5.37326e-09)
(0.295525 3.4772e-08 -8.54789e-09)
(0.295526 -4.43378e-08 1.2523e-08)
(0.295526 1.1328e-08 -5.84226e-09)
(0.314648 4.1749e-08 -2.07351e-09)
(0.314648 -5.66052e-08 -2.05033e-09)
(0.314648 1.68456e-08 3.13783e-09)
(0.331296 4.00477e-08 6.55522e-09)
(0.331296 -6.00854e-08 -2.03492e-08)
(0.331295 2.21225e-08 1.36444e-08)
(0.345746 2.53353e-08 9.94162e-09)
(0.345746 -4.59373e-08 -2.54332e-08)
(0.345745 2.26096e-08 1.59504e-08)
(0.358114 6.73743e-09 1.01542e-09)
(0.358113 -2.09596e-08 -1.38513e-08)
(0.358112 1.60065e-08 1.35708e-08)
(0.368556 -7.49457e-09 -1.35744e-08)
(0.368556 4.47847e-10 8.34364e-09)
(0.368554 8.46792e-09 5.97392e-09)
(0.377323 -1.43625e-08 -2.55737e-08)
(0.377322 1.2528e-08 2.49074e-08)
(0.37732 2.85567e-09 1.24e-09)
(0.384612 -1.90748e-08 -3.17081e-08)
(0.384611 2.34438e-08 3.28227e-08)
(0.384609 -3.72396e-09 -7.51887e-10)
(0.243674 1.0271e-08 -1.02152e-08)
(0.243674 -1.29755e-08 7.73351e-09)
(0.243676 3.21608e-09 -1.05303e-09)
(0.280867 2.34698e-08 -1.1102e-08)
(0.280868 -2.86708e-08 1.28606e-08)
(0.280869 6.21658e-09 -4.588e-09)
(0.30325 3.42139e-08 -9.49935e-09)
(0.30325 -4.46343e-08 1.32799e-08)
(0.303251 1.17999e-08 -5.77369e-09)
(0.321644 3.99513e-08 -3.08522e-09)
(0.321644 -5.4319e-08 3.42944e-10)
(0.321644 1.5898e-08 1.70417e-09)
(0.337899 3.54726e-08 5.84887e-09)
(0.337899 -5.54895e-08 -1.77227e-08)
(0.337898 2.15889e-08 1.17231e-08)
(0.352305 2.17697e-08 8.98679e-09)
(0.352305 -4.11662e-08 -2.3553e-08)
(0.352303 2.09062e-08 1.50589e-08)
(0.364873 4.37847e-09 -9.9134e-10)
(0.364872 -1.83035e-08 -1.09341e-08)
(0.364871 1.52866e-08 1.27189e-08)
(0.375638 -8.49929e-09 -1.70859e-08)
(0.375637 1.26174e-09 1.37975e-08)
(0.375636 8.34948e-09 4.10051e-09)
(0.384737 -1.41753e-08 -3.04368e-08)
(0.384736 1.09892e-08 3.26376e-08)
(0.384735 4.00608e-09 -1.56612e-09)
(0.392329 -1.7386e-08 -3.77214e-08)
(0.392328 1.94454e-08 4.23943e-08)
(0.392326 -1.53483e-09 -4.26828e-09)
(0.250581 1.06416e-08 -1.17625e-08)
(0.250582 -1.51008e-08 7.77429e-09)
(0.250584 4.72751e-09 4.85076e-11)
(0.289014 2.37079e-08 -1.2338e-08)
(0.289015 -3.10803e-08 1.31737e-08)
(0.289016 8.01657e-09 -3.92227e-09)
(0.311102 3.35418e-08 -1.06173e-08)
(0.311103 -4.59053e-08 1.46297e-08)
(0.311103 1.32733e-08 -6.10991e-09)
(0.32881 3.71084e-08 -4.30902e-09)
(0.328809 -5.31567e-08 3.72405e-09)
(0.328809 1.70361e-08 -4.86539e-10)
(0.344536 3.09945e-08 4.40721e-09)
(0.344536 -5.06671e-08 -1.36504e-08)
(0.344535 2.06615e-08 9.09726e-09)
(0.358716 1.74301e-08 7.29036e-09)
(0.358715 -3.52803e-08 -2.04924e-08)
(0.358714 1.87946e-08 1.37191e-08)
(0.371334 1.22763e-09 -3.23761e-09)
(0.371334 -1.46127e-08 -7.46851e-09)
(0.371333 1.42612e-08 1.15405e-08)
(0.382342 -1.00122e-08 -2.04189e-08)
(0.382342 2.51356e-09 1.93605e-08)
(0.382341 8.2462e-09 1.92183e-09)
(0.391759 -1.43301e-08 -3.48164e-08)
(0.391758 9.48615e-09 4.01172e-08)
(0.391757 5.42072e-09 -4.61633e-09)
(0.39967 -1.57675e-08 -4.31684e-08)
(0.399669 1.48862e-08 5.16842e-08)
(0.399668 1.25609e-09 -8.07672e-09)
(0.256936 1.10783e-08 -1.32379e-08)
(0.256937 -1.7498e-08 8.51125e-09)
(0.256939 6.41035e-09 5.43512e-10)
(0.296779 2.3957e-08 -1.35981e-08)
(0.29678 -3.39726e-08 1.4032e-08)
(0.296781 1.02347e-08 -3.69752e-09)
(0.318919 3.28402e-08 -1.18286e-08)
(0.318919 -4.76835e-08 1.66435e-08)
(0.31892 1.52106e-08 -6.97754e-09)
(0.336078 3.44702e-08 -5.88742e-09)
(0.336078 -5.21821e-08 7.93785e-09)
(0.336077 1.80856e-08 -3.13481e-09)
(0.351211 2.62447e-08 2.2427e-09)
(0.35121 -4.49709e-08 -8.53233e-09)
(0.351209 1.90657e-08 6.15065e-09)
(0.365002 1.21097e-08 5.04622e-09)
(0.365002 -2.78866e-08 -1.64467e-08)
(0.365 1.60927e-08 1.19258e-08)
(0.377504 -2.92844e-09 -5.38227e-09)
(0.377503 -9.42472e-09 -3.90034e-09)
(0.377502 1.26855e-08 1.01311e-08)
(0.388639 -1.21847e-08 -2.29287e-08)
(0.388639 4.58304e-09 2.40692e-08)
(0.388638 7.93253e-09 -2.52844e-10)
(0.398332 -1.50539e-08 -3.7859e-08)
(0.398332 8.42797e-09 4.59548e-08)
(0.398331 6.91775e-09 -7.37415e-09)
(0.406569 -1.44355e-08 -4.69982e-08)
(0.406569 1.03067e-08 5.88929e-08)
(0.406568 4.32272e-09 -1.14308e-08)
(0.26271 1.14962e-08 -1.45393e-08)
(0.262711 -1.96574e-08 1.01464e-08)
(0.262713 7.86051e-09 2.0251e-10)
(0.303972 2.41488e-08 -1.47345e-08)
(0.303973 -3.65947e-08 1.54486e-08)
(0.303974 1.22195e-08 -4.01031e-09)
(0.326475 3.21264e-08 -1.29864e-08)
(0.326475 -4.90378e-08 1.89387e-08)
(0.326475 1.66954e-08 -8.11164e-09)
(0.343299 3.16163e-08 -7.67787e-09)
(0.343298 -5.00866e-08 1.22329e-08)
(0.343297 1.81797e-08 -5.62245e-09)
(0.357855 2.08755e-08 -3.26282e-10)
(0.357854 -3.78369e-08 -3.06426e-09)
(0.357853 1.66001e-08 3.25772e-09)
(0.371143 5.6268e-09 2.5826e-09)
(0.371143 -1.85012e-08 -1.18924e-08)
(0.371141 1.25108e-08 9.81866e-09)
(0.383364 -8.28863e-09 -6.98105e-09)
(0.383363 -2.14144e-09 -8.3922e-10)
(0.383362 1.01722e-08 8.64557e-09)
(0.394485 -1.51499e-08 -2.38556e-08)
(0.394485 8.13038e-09 2.6619e-08)
(0.394484 6.89209e-09 -1.88869e-09)
(0.404382 -1.67357e-08 -3.91933e-08)
(0.404382 8.5559e-09 4.71002e-08)
(0.404382 8.15794e-09 -7.17276e-09)
(0.412935 -1.37179e-08 -4.84095e-08)
(0.412935 6.71129e-09 6.03878e-08)
(0.412935 6.98374e-09 -1.15103e-08)
(0.267826 1.17251e-08 -1.52618e-08)
(0.267827 -2.10614e-08 1.21809e-08)
(0.267829 8.7584e-09 -8.07997e-10)
(0.310396 2.40949e-08 -1.53167e-08)
(0.310397 -3.81795e-08 1.68561e-08)
(0.310398 1.34346e-08 -4.64794e-09)
(0.333481 3.10779e-08 -1.37167e-08)
(0.333482 -4.90316e-08 2.06083e-08)
(0.333482 1.71645e-08 -8.9332e-09)
(0.350221 2.83323e-08 -9.16062e-09)
(0.350221 -4.63326e-08 1.55804e-08)
(0.35022 1.70383e-08 -7.42474e-09)
(0.364301 1.46781e-08 -2.72893e-09)
(0.364301 -2.88506e-08 1.78975e-09)
(0.364299 1.30914e-08 8.10476e-10)
(0.377037 -2.08831e-09 3.66473e-10)
(0.377036 -6.74417e-09 -7.57693e-09)
(0.377035 7.7654e-09 7.6681e-09)
(0.388843 -1.49394e-08 -7.57398e-09)
(0.388843 7.73942e-09 1.05088e-09)
(0.388843 6.3297e-09 7.2764e-09)
(0.399805 -1.90816e-08 -2.254e-08)
(0.399805 1.35478e-08 2.52875e-08)
(0.399805 4.92324e-09 -1.94172e-09)
(0.40981 -1.76797e-08 -3.59616e-08)
(0.40981 1.0656e-08 4.53825e-08)
(0.409811 6.63565e-09 -8.7426e-09)
(0.418647 -1.34761e-08 -4.47555e-08)
(0.418647 5.04962e-09 5.72239e-08)
(0.418648 8.18316e-09 -1.20281e-08)
(0.272153 1.16571e-08 -1.45774e-08)
(0.272154 -2.1424e-08 1.31854e-08)
(0.272156 8.95975e-09 -1.83133e-09)
(0.315825 2.36415e-08 -1.44944e-08)
(0.315826 -3.83536e-08 1.68888e-08)
(0.315827 1.37073e-08 -5.02233e-09)
(0.339585 2.96447e-08 -1.3142e-08)
(0.339586 -4.71767e-08 2.02189e-08)
(0.339586 1.62432e-08 -8.82868e-09)
(0.356472 2.44964e-08 -9.5974e-09)
(0.356472 -4.06433e-08 1.65942e-08)
(0.356471 1.45738e-08 -7.86787e-09)
(0.37024 7.72027e-09 -4.27435e-09)
(0.370239 -1.79973e-08 4.92674e-09)
(0.370238 8.51525e-09 -7.75202e-10)
(0.382454 -1.07754e-08 -1.10935e-09)
(0.382453 7.21942e-09 -4.21691e-09)
(0.382452 1.81134e-09 5.688e-09)
(0.393775 -2.27176e-08 -6.8401e-09)
(0.393775 1.98815e-08 1.5064e-09)
(0.393774 1.37251e-09 5.95557e-09)
(0.404459 -2.41446e-08 -1.87717e-08)
(0.404459 2.13879e-08 2.13651e-08)
(0.40446 1.66795e-09 -1.91707e-09)
(0.414471 -2.00499e-08 -2.96589e-08)
(0.414471 1.48067e-08 3.73247e-08)
(0.414472 4.49491e-09 -7.10146e-09)
(0.423543 -1.43506e-08 -3.67198e-08)
(0.423543 6.50967e-09 4.62956e-08)
(0.423544 7.36293e-09 -9.19862e-09)
(0.275476 1.13149e-08 -1.13695e-08)
(0.275477 -2.09708e-08 1.12125e-08)
(0.275479 8.69318e-09 -2.02405e-09)
(0.319971 2.28502e-08 -1.11639e-08)
(0.319972 -3.74426e-08 1.35625e-08)
(0.319974 1.33492e-08 -4.20565e-09)
(0.344347 2.79634e-08 -1.02044e-08)
(0.344347 -4.4004e-08 1.58744e-08)
(0.344348 1.43989e-08 -6.90358e-09)
(0.36152 2.07736e-08 -7.85992e-09)
(0.361519 -3.38327e-08 1.36856e-08)
(0.361518 1.10267e-08 -6.45496e-09)
(0.375157 8.53824e-10 -4.18506e-09)
(0.375156 -6.53083e-09 5.42971e-09)
(0.375154 3.36248e-09 -1.35021e-09)
(0.38696 -1.94209e-08 -1.54816e-09)
(0.38696 2.1769e-08 -1.96371e-09)
(0.386959 -4.66015e-09 3.72746e-09)
(0.397818 -3.08131e-08 -4.77746e-09)
(0.397818 3.21695e-08 9.26953e-10)
(0.397818 -3.31818e-09 4.27248e-09)
(0.40818 -2.97046e-08 -1.24402e-08)
(0.40818 3.03681e-08 1.39367e-08)
(0.408181 -2.16726e-09 -1.01803e-09)
(0.418123 -2.32209e-08 -1.96231e-08)
(0.418124 2.05639e-08 2.43576e-08)
(0.418125 1.58689e-09 -4.33524e-09)
(0.427367 -1.61558e-08 -2.40799e-08)
(0.427367 1.09077e-08 2.95489e-08)
(0.427369 4.5507e-09 -5.19189e-09)
(0.277445 1.04953e-08 -4.48622e-09)
(0.277446 -1.99555e-08 4.60633e-09)
(0.277448 8.34401e-09 -9.02897e-10)
(0.32241 2.21377e-08 -4.35297e-09)
(0.322412 -3.62931e-08 5.38419e-09)
(0.322414 1.28416e-08 -1.68368e-09)
(0.34718 2.66859e-08 -4.00351e-09)
(0.347181 -4.11105e-08 6.22036e-09)
(0.347181 1.26637e-08 -2.67168e-09)
(0.364605 1.80931e-08 -3.18525e-09)
(0.364604 -2.86218e-08 5.52903e-09)
(0.364603 8.30644e-09 -2.58207e-09)
(0.378236 -3.96905e-09 -1.83796e-09)
(0.378235 1.71998e-09 2.49594e-09)
(0.378233 -3.62182e-10 -7.04907e-10)
(0.389807 -2.5787e-08 -7.67729e-10)
(0.389807 3.25482e-08 -5.0367e-10)
(0.389805 -9.39727e-09 1.33498e-09)
(0.400353 -3.7909e-08 -1.79794e-09)
(0.400352 4.05798e-08 2.87378e-10)
(0.400352 -4.91575e-09 1.6635e-09)
(0.41047 -3.44308e-08 -4.35029e-09)
(0.410471 3.7958e-08 4.81993e-09)
(0.410472 -5.29393e-09 -2.88376e-10)
(0.420334 -2.61319e-08 -6.87227e-09)
(0.420334 2.57835e-08 8.47284e-09)
(0.420336 -9.44388e-10 -1.45068e-09)
(0.429675 -1.80565e-08 -8.37085e-09)
(0.429675 1.55681e-08 1.01156e-08)
(0.429677 1.63431e-09 -1.63775e-09)
)
;

boundaryField
{
    freeSurface
    {
        type            slip;
    }
    inlet
    {
        type            cyclic;
    }
    outlet
    {
        type            cyclic;
    }
    sidewalls
    {
        type            fixedValue;
        value           uniform (0 0 0);
    }
    noSlipWalls
    {
        type            fixedValue;
        value           uniform (0 0 0);
    }
    procBoundary0to1
    {
        type            processor;
        value           nonuniform List<vector> 
72
(
(0.11029 -1.29563e-08 -6.00672e-11)
(0.110292 1.74947e-08 -2.53215e-11)
(0.110291 -4.32238e-09 8.6406e-11)
(0.188132 -2.1173e-08 -6.41251e-10)
(0.188133 2.77828e-08 -2.23274e-10)
(0.188133 -6.24377e-09 8.67742e-10)
(0.226799 -2.48589e-08 -1.03486e-09)
(0.226801 3.19574e-08 -3.37649e-10)
(0.2268 -6.66106e-09 1.37948e-09)
(0.252465 -2.70487e-08 -1.56919e-09)
(0.252466 3.42662e-08 -4.55065e-10)
(0.252465 -6.73498e-09 2.03613e-09)
(0.271947 -2.85099e-08 -2.23892e-09)
(0.271948 3.57996e-08 -5.38636e-10)
(0.271947 -6.77462e-09 2.79535e-09)
(0.28796 -2.954e-08 -3.03966e-09)
(0.28796 3.69786e-08 -5.32931e-10)
(0.287959 -6.90061e-09 3.59834e-09)
(0.301803 -3.03798e-08 -4.02481e-09)
(0.301804 3.79168e-08 -3.67049e-10)
(0.301803 -6.98171e-09 4.42675e-09)
(0.314187 -3.0736e-08 -5.20808e-09)
(0.314188 3.8385e-08 4.56486e-11)
(0.314186 -7.08226e-09 5.20856e-09)
(0.325537 -3.03875e-08 -6.62843e-09)
(0.325537 3.82114e-08 8.23307e-10)
(0.325536 -7.25108e-09 5.86422e-09)
(0.336124 -2.92924e-08 -8.3533e-09)
(0.336124 3.73929e-08 2.13045e-09)
(0.336123 -7.5283e-09 6.29766e-09)
(0.346129 -2.73545e-08 -1.0434e-08)
(0.346129 3.58716e-08 4.11631e-09)
(0.346128 -7.94847e-09 6.4095e-09)
(0.355677 -2.55901e-08 -1.31328e-08)
(0.355677 3.45824e-08 7.13949e-09)
(0.355675 -8.43661e-09 6.10585e-09)
(0.364851 -2.39222e-08 -1.65846e-08)
(0.364851 3.32374e-08 1.14203e-08)
(0.364849 -8.77956e-09 5.29988e-09)
(0.373705 -2.22673e-08 -2.09386e-08)
(0.373704 3.15639e-08 1.71988e-08)
(0.373703 -8.79006e-09 3.90122e-09)
(0.382268 -2.05445e-08 -2.62766e-08)
(0.382267 2.92932e-08 2.46454e-08)
(0.382265 -8.28189e-09 1.82042e-09)
(0.390545 -1.86946e-08 -3.25025e-08)
(0.390544 2.61463e-08 3.37227e-08)
(0.390542 -7.03729e-09 -1.00231e-09)
(0.398519 -1.67076e-08 -3.92225e-08)
(0.398518 2.19394e-08 4.39932e-08)
(0.398516 -4.8847e-09 -4.52574e-09)
(0.406147 -1.46628e-08 -4.56577e-08)
(0.406146 1.67717e-08 5.4516e-08)
(0.406145 -1.84572e-09 -8.58964e-09)
(0.41336 -1.27726e-08 -5.06325e-08)
(0.413359 1.10246e-08 6.34049e-08)
(0.413358 1.90901e-09 -1.24796e-08)
(0.420059 -1.14324e-08 -5.309e-08)
(0.420059 5.54609e-09 6.59351e-08)
(0.420059 5.93397e-09 -1.25343e-08)
(0.426113 -1.01262e-08 -4.99836e-08)
(0.426113 2.11219e-09 6.40261e-08)
(0.426114 7.90098e-09 -1.37526e-08)
(0.43134 -1.00206e-08 -4.16842e-08)
(0.431341 1.93684e-09 5.27877e-08)
(0.431342 7.81698e-09 -1.08662e-08)
(0.435458 -1.10694e-08 -2.76073e-08)
(0.435459 5.27916e-09 3.382e-08)
(0.43546 5.37741e-09 -6.03391e-09)
(0.437968 -1.25316e-08 -9.62879e-09)
(0.437968 9.60785e-09 1.15653e-08)
(0.43797 2.40553e-09 -1.86424e-09)
)
;
    }
}


// ************************************************************************* //
