/*--------------------------------*- C++ -*----------------------------------*\
  =========                 |
  \\      /  F ield         | OpenFOAM: The Open Source CFD Toolbox
   \\    /   O peration     | Website:  https://openfoam.org
    \\  /    A nd           | Version:  6
     \\/     M anipulation  |
\*---------------------------------------------------------------------------*/
FoamFile
{
    version     2.0;
    format      ascii;
    class       volScalarField;
    location    "46";
    object      p;
}
// * * * * * * * * * * * * * * * * * * * * * * * * * * * * * * * * * * * * * //

dimensions      [0 2 -2 0 0 0 0];

internalField   nonuniform List<scalar> 
380496
(
0.0133292
0.0136823
0.0134438
0.0133783
0.0133345
0.0132891
0.013248
0.0132072
0.0131661
0.0131251
0.0130842
0.0130437
0.0130036
0.0129641
0.0129253
0.012887
0.0128492
0.0128118
0.0127743
0.0127365
0.0126979
0.0126581
0.0126164
0.0125723
0.0125252
0.0124743
0.012419
0.0123585
0.0122926
0.0122198
0.0121414
0.0120538
0.0119646
0.011859
0.0117732
0.0133083
0.0136526
0.0134253
0.0133654
0.0133258
0.0132833
0.0132437
0.0132032
0.0131616
0.0131192
0.0130763
0.0130331
0.0129898
0.0129465
0.0129033
0.0128602
0.0128171
0.0127737
0.0127299
0.0126852
0.0126393
0.0125917
0.0125419
0.0124893
0.0124336
0.0123737
0.0123095
0.01224
0.0121652
0.0120833
0.0119963
0.0118982
0.0118005
0.0116747
0.011581
0.0132835
0.0136214
0.0134048
0.0133512
0.013316
0.0132765
0.0132383
0.0131979
0.0131553
0.0131111
0.0130656
0.0130191
0.0129718
0.012924
0.0128758
0.012827
0.0127777
0.0127275
0.0126764
0.0126238
0.0125695
0.0125129
0.0124537
0.0123912
0.0123252
0.0122547
0.0121796
0.0120989
0.012013
0.01192
0.0118226
0.0117139
0.0116088
0.0114739
0.0113807
0.0132513
0.0135864
0.0133826
0.0133369
0.0133072
0.0132713
0.0132349
0.0131949
0.0131517
0.013106
0.0130583
0.0130089
0.0129583
0.0129066
0.0128541
0.0128005
0.012746
0.0126901
0.0126329
0.0125739
0.0125128
0.0124491
0.0123825
0.0123123
0.0122385
0.01216
0.0120771
0.0119885
0.0118949
0.0117942
0.0116897
0.0115731
0.0114615
0.0113165
0.0112184
0.0132218
0.0135479
0.0133598
0.0133228
0.0132989
0.0132666
0.0132319
0.0131921
0.013148
0.0131005
0.0130503
0.0129978
0.0129435
0.0128877
0.0128305
0.0127719
0.0127118
0.0126501
0.0125865
0.0125208
0.0124526
0.0123815
0.0123072
0.0122292
0.0121472
0.0120606
0.0119694
0.0118726
0.011771
0.0116624
0.0115506
0.0114269
0.0113098
0.0111585
0.0110598
0.0131801
0.0135057
0.0133354
0.0133087
0.0132916
0.0132636
0.0132307
0.0131913
0.0131464
0.0130972
0.0130446
0.0129893
0.0129317
0.0128721
0.0128107
0.0127476
0.0126827
0.0126158
0.0125467
0.0124752
0.012401
0.0123236
0.012243
0.0121584
0.0120698
0.0119767
0.011879
0.0117759
0.0116683
0.0115538
0.0114366
0.0113074
0.011186
0.0110288
0.0109283
0.0131366
0.0134597
0.0133104
0.0132953
0.0132857
0.0132619
0.0132309
0.0131917
0.0131458
0.0130948
0.0130397
0.0129813
0.0129203
0.0128569
0.0127914
0.0127237
0.012654
0.012582
0.0125076
0.0124304
0.0123504
0.012267
0.0121802
0.0120893
0.0119945
0.0118951
0.0117913
0.0116822
0.0115689
0.0114489
0.0113267
0.0111927
0.011068
0.0109062
0.0108058
0.0130846
0.0134105
0.0132855
0.0132835
0.0132819
0.0132626
0.0132333
0.0131941
0.0131471
0.0130942
0.0130366
0.0129754
0.0129112
0.0128442
0.0127749
0.0127032
0.0126291
0.0125526
0.0124734
0.0123913
0.0123062
0.0122176
0.0121255
0.0120294
0.0119293
0.0118248
0.011716
0.0116021
0.0114843
0.0113601
0.0112342
0.0110966
0.0109693
0.0108039
0.0107037
0.0130244
0.0133591
0.0132609
0.0132733
0.0132804
0.0132654
0.0132376
0.0131983
0.01315
0.0130952
0.0130353
0.0129713
0.012904
0.0128338
0.012761
0.0126856
0.0126077
0.0125271
0.0124437
0.0123573
0.0122678
0.0121747
0.0120781
0.0119775
0.011873
0.0117641
0.0116512
0.0115333
0.0114118
0.0112841
0.0111553
0.0110147
0.0108856
0.0107174
0.0106178
0.0129657
0.0133124
0.0132409
0.0132671
0.0132818
0.0132702
0.0132434
0.0132036
0.013154
0.0130973
0.0130352
0.0129688
0.0128989
0.0128259
0.0127502
0.0126717
0.0125906
0.0125067
0.0124199
0.0123299
0.0122368
0.0121401
0.0120399
0.0119358
0.0118278
0.0117156
0.0115995
0.0114787
0.0113545
0.0112243
0.0110934
0.0109508
0.0108206
0.0106502
0.0105514
0.0128909
0.0132628
0.0132203
0.0132621
0.0132853
0.0132771
0.0132511
0.0132106
0.0131595
0.0131009
0.0130366
0.0129678
0.0128954
0.0128198
0.0127414
0.0126601
0.0125761
0.0124892
0.0123994
0.0123063
0.0122101
0.0121102
0.0120069
0.0118997
0.0117888
0.0116738
0.011555
0.0114317
0.0113053
0.0111732
0.0110407
0.0108965
0.0107655
0.0105934
0.0104956
0.0128178
0.0132184
0.0132045
0.0132614
0.0132918
0.0132858
0.01326
0.0132185
0.0131657
0.0131052
0.0130387
0.0129677
0.0128931
0.0128152
0.0127343
0.0126506
0.0125641
0.0124747
0.0123822
0.0122865
0.0121876
0.0120852
0.0119793
0.0118696
0.0117562
0.0116389
0.0115181
0.0113929
0.0112648
0.0111312
0.0109976
0.0108523
0.010721
0.0105476
0.010451
0.0127234
0.0131736
0.0131891
0.0132628
0.0133009
0.0132968
0.0132708
0.013228
0.0131734
0.0131107
0.0130422
0.012969
0.0128922
0.0128121
0.0127291
0.0126433
0.0125545
0.0124628
0.0123681
0.0122702
0.012169
0.0120643
0.0119562
0.0118443
0.011729
0.0116098
0.0114873
0.0113606
0.0112312
0.0110966
0.0109623
0.0108163
0.0106849
0.0105107
0.0104153
0.012629
0.0131362
0.0131782
0.0132679
0.013312
0.0133088
0.013282
0.0132376
0.013181
0.0131164
0.0130458
0.0129708
0.0128921
0.0128101
0.0127252
0.0126375
0.0125469
0.0124533
0.0123566
0.0122568
0.0121537
0.0120472
0.0119373
0.0118237
0.0117068
0.0115861
0.0114623
0.0113345
0.0112042
0.0110689
0.0109342
0.0107879
0.0106567
0.010482
0.0103877
0.0125144
0.013104
0.0131705
0.0132774
0.0133269
0.0133235
0.0132953
0.0132488
0.01319
0.0131233
0.0130507
0.0129738
0.0128932
0.0128096
0.012723
0.0126335
0.0125413
0.012446
0.0123478
0.0122464
0.0121417
0.0120337
0.0119223
0.0118073
0.0116891
0.0115672
0.0114423
0.0113137
0.0111829
0.0110471
0.0109123
0.0107661
0.0106353
0.0104609
0.0103678
0.0123922
0.01308
0.0131645
0.0132879
0.0133414
0.0133373
0.0133076
0.013259
0.0131982
0.0131295
0.0130552
0.0129766
0.0128946
0.0128094
0.0127215
0.0126307
0.012537
0.0124405
0.012341
0.0122383
0.0121324
0.0120231
0.0119105
0.0117945
0.0116752
0.0115525
0.0114269
0.0112977
0.0111665
0.0110306
0.0108959
0.0107502
0.0106197
0.010446
0.0103529
0.0122595
0.0130684
0.0131662
0.013306
0.013361
0.0133546
0.0133222
0.0132709
0.0132077
0.0131369
0.0130608
0.0129806
0.0128971
0.0128106
0.0127214
0.0126294
0.0125347
0.012437
0.0123364
0.0122327
0.0121258
0.0120156
0.0119021
0.0117852
0.0116651
0.0115418
0.0114156
0.011286
0.0111546
0.0110189
0.0108844
0.0107396
0.0106098
0.0104385
0.0103456
0.0121088
0.0130641
0.0131639
0.0133205
0.0133768
0.0133685
0.0133339
0.0132803
0.0132151
0.0131427
0.0130652
0.0129837
0.0128992
0.0128117
0.0127216
0.0126287
0.0125332
0.0124347
0.0123334
0.0122289
0.0121213
0.0120104
0.0118962
0.0117787
0.0116582
0.0115343
0.0114078
0.011278
0.0111466
0.0110111
0.010877
0.0107333
0.0106034
0.0104347
0.010337
0.0119632
0.0130802
0.013175
0.0133444
0.0133978
0.0133857
0.0133479
0.0132915
0.0132241
0.0131499
0.013071
0.0129883
0.0129027
0.0128144
0.0127235
0.0126299
0.0125337
0.0124346
0.0123327
0.0122276
0.0121195
0.0120081
0.0118935
0.0117755
0.0116546
0.0115305
0.0114037
0.0112739
0.0111424
0.0110073
0.0108737
0.0107314
0.0106028
0.01044
0.0103395
0.011809
0.0130882
0.0131749
0.0133608
0.0134124
0.0133978
0.0133577
0.0132994
0.0132306
0.0131552
0.0130755
0.0129921
0.012906
0.0128171
0.0127258
0.0126318
0.0125352
0.0124357
0.0123334
0.012228
0.0121196
0.0120078
0.011893
0.0117748
0.0116537
0.0115294
0.0114025
0.0112726
0.0111412
0.0110065
0.010873
0.0107326
0.0106033
0.0104465
0.0103339
0.011732
0.0131135
0.0131867
0.0133812
0.0134293
0.0134122
0.0133697
0.0133095
0.0132391
0.0131626
0.0130819
0.0129978
0.012911
0.0128216
0.0127298
0.0126354
0.0125385
0.0124387
0.0123362
0.0122306
0.0121219
0.01201
0.0118951
0.0117768
0.0116556
0.0115312
0.0114043
0.0112745
0.0111432
0.0110086
0.0108758
0.0107361
0.0106114
0.0104591
0.0103812
0.0133284
0.0136809
0.0134438
0.0133783
0.0133345
0.0132891
0.013248
0.0132072
0.0131661
0.0131251
0.0130842
0.0130437
0.0130036
0.0129641
0.0129253
0.012887
0.0128493
0.0128118
0.0127743
0.0127365
0.0126979
0.0126581
0.0126165
0.0125724
0.0125253
0.0124743
0.0124191
0.0123586
0.0122927
0.0122199
0.0121415
0.012054
0.0119648
0.0118593
0.0117735
0.0133073
0.0136512
0.0134252
0.0133654
0.0133258
0.0132833
0.0132437
0.0132032
0.0131616
0.0131192
0.0130763
0.0130331
0.0129898
0.0129465
0.0129033
0.0128602
0.0128171
0.0127737
0.0127299
0.0126852
0.0126393
0.0125917
0.012542
0.0124894
0.0124336
0.0123738
0.0123096
0.0122401
0.0121653
0.0120834
0.0119965
0.0118984
0.0118007
0.0116749
0.0115813
0.0132825
0.01362
0.0134047
0.0133512
0.0133161
0.0132765
0.0132383
0.0131979
0.0131553
0.0131111
0.0130656
0.0130191
0.0129718
0.012924
0.0128758
0.012827
0.0127777
0.0127275
0.0126764
0.0126238
0.0125695
0.0125129
0.0124538
0.0123913
0.0123252
0.0122547
0.0121797
0.012099
0.0120131
0.0119201
0.0118227
0.0117141
0.0116089
0.0114741
0.0113809
0.0132504
0.013585
0.0133825
0.0133369
0.0133072
0.0132713
0.0132349
0.0131949
0.0131517
0.013106
0.0130583
0.0130089
0.0129583
0.0129067
0.0128541
0.0128005
0.012746
0.0126902
0.012633
0.0125739
0.0125128
0.0124491
0.0123825
0.0123124
0.0122385
0.0121601
0.0120771
0.0119886
0.011895
0.0117943
0.0116898
0.0115733
0.0114616
0.0113168
0.0112186
0.0132207
0.0135466
0.0133597
0.0133228
0.0132989
0.0132666
0.0132319
0.0131921
0.013148
0.0131005
0.0130503
0.0129978
0.0129435
0.0128877
0.0128305
0.0127719
0.0127118
0.0126501
0.0125866
0.0125208
0.0124526
0.0123815
0.0123073
0.0122292
0.0121473
0.0120606
0.0119695
0.0118727
0.0117711
0.0116626
0.0115508
0.0114271
0.01131
0.0111587
0.0110599
0.013179
0.0135044
0.0133353
0.0133087
0.0132916
0.0132636
0.0132307
0.0131913
0.0131464
0.0130972
0.0130446
0.0129893
0.0129317
0.0128721
0.0128107
0.0127476
0.0126827
0.0126158
0.0125467
0.0124752
0.012401
0.0123237
0.012243
0.0121584
0.0120699
0.0119767
0.0118791
0.011776
0.0116683
0.0115539
0.0114367
0.0113075
0.0111862
0.0110289
0.0109285
0.0131355
0.0134585
0.0133103
0.0132953
0.0132857
0.0132619
0.0132309
0.0131917
0.0131458
0.0130948
0.0130397
0.0129813
0.0129203
0.0128569
0.0127914
0.0127237
0.012654
0.012582
0.0125076
0.0124304
0.0123504
0.012267
0.0121802
0.0120894
0.0119946
0.0118952
0.0117914
0.0116823
0.0115689
0.011449
0.0113268
0.0111928
0.011068
0.0109064
0.0108059
0.0130835
0.0134092
0.0132855
0.0132836
0.0132819
0.0132626
0.0132333
0.0131941
0.0131471
0.0130942
0.0130366
0.0129754
0.0129112
0.0128442
0.0127749
0.0127032
0.0126292
0.0125526
0.0124734
0.0123913
0.0123062
0.0122176
0.0121255
0.0120294
0.0119294
0.0118248
0.011716
0.0116022
0.0114843
0.0113601
0.0112343
0.0110967
0.0109694
0.0108041
0.0107038
0.0130233
0.0133579
0.0132609
0.0132734
0.0132804
0.0132654
0.0132376
0.0131983
0.01315
0.0130952
0.0130353
0.0129713
0.012904
0.0128338
0.012761
0.0126856
0.0126077
0.0125271
0.0124438
0.0123573
0.0122678
0.0121747
0.0120781
0.0119775
0.011873
0.0117641
0.0116512
0.0115334
0.0114118
0.0112842
0.0111554
0.0110148
0.0108857
0.0107175
0.0106179
0.0129645
0.0133112
0.0132409
0.0132672
0.0132819
0.0132702
0.0132434
0.0132036
0.013154
0.0130973
0.0130352
0.0129688
0.0128989
0.0128259
0.0127502
0.0126717
0.0125906
0.0125067
0.0124199
0.01233
0.0122368
0.0121402
0.01204
0.0119358
0.0118279
0.0117156
0.0115995
0.0114787
0.0113545
0.0112244
0.0110935
0.0109509
0.0108207
0.0106503
0.0105515
0.0128898
0.0132617
0.0132203
0.0132622
0.0132853
0.0132771
0.0132511
0.0132106
0.0131595
0.0131009
0.0130366
0.0129678
0.0128954
0.0128198
0.0127414
0.0126601
0.0125761
0.0124892
0.0123994
0.0123063
0.0122101
0.0121103
0.0120069
0.0118997
0.0117888
0.0116738
0.011555
0.0114318
0.0113054
0.0111732
0.0110407
0.0108965
0.0107656
0.0105935
0.0104957
0.0128166
0.0132173
0.0132045
0.0132614
0.0132918
0.0132858
0.0132599
0.0132185
0.0131657
0.0131052
0.0130387
0.0129677
0.0128931
0.0128152
0.0127343
0.0126506
0.0125641
0.0124747
0.0123822
0.0122866
0.0121877
0.0120852
0.0119793
0.0118696
0.0117563
0.0116389
0.0115181
0.0113929
0.0112648
0.0111313
0.0109977
0.0108524
0.0107211
0.0105477
0.0104511
0.0127223
0.0131727
0.0131891
0.0132629
0.0133009
0.0132968
0.0132708
0.013228
0.0131734
0.0131107
0.0130422
0.012969
0.0128922
0.0128122
0.0127291
0.0126433
0.0125545
0.0124628
0.0123681
0.0122702
0.012169
0.0120643
0.0119562
0.0118444
0.011729
0.0116098
0.0114873
0.0113606
0.0112313
0.0110966
0.0109623
0.0108163
0.010685
0.0105107
0.0104153
0.0126278
0.0131354
0.0131782
0.0132679
0.013312
0.0133087
0.013282
0.0132375
0.013181
0.0131164
0.0130458
0.0129708
0.0128921
0.0128101
0.0127252
0.0126375
0.0125469
0.0124533
0.0123567
0.0122568
0.0121538
0.0120472
0.0119373
0.0118238
0.0117068
0.0115861
0.0114623
0.0113345
0.0112043
0.0110689
0.0109342
0.010788
0.0106567
0.0104821
0.0103878
0.0125133
0.0131032
0.0131704
0.0132775
0.0133269
0.0133235
0.0132953
0.0132488
0.01319
0.0131233
0.0130507
0.0129738
0.0128932
0.0128096
0.012723
0.0126336
0.0125413
0.012446
0.0123478
0.0122464
0.0121417
0.0120337
0.0119223
0.0118073
0.0116891
0.0115672
0.0114423
0.0113137
0.0111829
0.0110472
0.0109124
0.0107662
0.0106354
0.010461
0.0103679
0.0123911
0.0130793
0.0131644
0.0132879
0.0133414
0.0133373
0.0133076
0.013259
0.0131982
0.0131295
0.0130552
0.0129766
0.0128945
0.0128094
0.0127214
0.0126307
0.0125371
0.0124405
0.012341
0.0122383
0.0121324
0.0120231
0.0119105
0.0117945
0.0116752
0.0115525
0.0114269
0.0112977
0.0111665
0.0110307
0.0108959
0.0107502
0.0106197
0.0104461
0.010353
0.0122584
0.0130679
0.0131662
0.013306
0.013361
0.0133546
0.0133222
0.0132709
0.0132077
0.0131369
0.0130608
0.0129806
0.0128971
0.0128106
0.0127214
0.0126294
0.0125347
0.012437
0.0123364
0.0122327
0.0121258
0.0120156
0.0119021
0.0117852
0.0116652
0.0115418
0.0114156
0.011286
0.0111546
0.0110189
0.0108845
0.0107396
0.0106098
0.0104385
0.0103456
0.012108
0.0130636
0.0131639
0.0133205
0.0133768
0.0133685
0.0133339
0.0132803
0.0132151
0.0131427
0.0130652
0.0129837
0.0128992
0.0128117
0.0127216
0.0126288
0.0125332
0.0124348
0.0123334
0.0122289
0.0121213
0.0120104
0.0118962
0.0117788
0.0116582
0.0115344
0.0114078
0.0112781
0.0111466
0.0110111
0.010877
0.0107333
0.0106034
0.0104347
0.010337
0.0119623
0.0130799
0.013175
0.0133444
0.0133978
0.0133857
0.0133479
0.0132915
0.0132241
0.0131499
0.013071
0.0129883
0.0129028
0.0128144
0.0127235
0.0126299
0.0125337
0.0124346
0.0123327
0.0122276
0.0121195
0.0120081
0.0118935
0.0117756
0.0116546
0.0115305
0.0114037
0.0112739
0.0111424
0.0110073
0.0108737
0.0107315
0.0106028
0.0104401
0.0103396
0.0118081
0.0130882
0.0131751
0.013361
0.0134125
0.0133979
0.0133578
0.0132995
0.0132306
0.0131553
0.0130755
0.0129922
0.0129061
0.0128172
0.0127258
0.0126318
0.0125352
0.0124357
0.0123335
0.0122281
0.0121196
0.0120079
0.011893
0.0117749
0.0116537
0.0115294
0.0114025
0.0112727
0.0111412
0.0110065
0.0108731
0.0107326
0.0106034
0.0104465
0.0103339
0.0117333
0.0131139
0.0131869
0.0133812
0.0134293
0.0134121
0.0133697
0.0133094
0.013239
0.0131625
0.0130818
0.0129977
0.0129109
0.0128215
0.0127297
0.0126353
0.0125384
0.0124386
0.0123361
0.0122305
0.0121219
0.01201
0.011895
0.0117767
0.0116555
0.0115311
0.0114043
0.0112744
0.0111431
0.0110085
0.0108758
0.0107361
0.0106113
0.0104591
0.0103812
0.0133309
0.0136783
0.0134436
0.0133784
0.0133346
0.0132891
0.013248
0.0132072
0.0131661
0.0131251
0.0130842
0.0130437
0.0130036
0.0129641
0.0129253
0.012887
0.0128492
0.0128118
0.0127743
0.0127365
0.0126979
0.0126581
0.0126165
0.0125724
0.0125253
0.0124743
0.0124191
0.0123586
0.0122927
0.0122199
0.0121415
0.012054
0.0119648
0.0118593
0.0117736
0.0133098
0.0136486
0.0134251
0.0133655
0.0133259
0.0132833
0.0132437
0.0132032
0.0131616
0.0131192
0.0130763
0.0130331
0.0129898
0.0129465
0.0129033
0.0128602
0.0128171
0.0127737
0.0127299
0.0126852
0.0126393
0.0125917
0.012542
0.0124894
0.0124336
0.0123738
0.0123096
0.0122401
0.0121653
0.0120834
0.0119965
0.0118984
0.0118007
0.011675
0.0115814
0.013285
0.0136175
0.0134045
0.0133513
0.0133161
0.0132765
0.0132383
0.0131979
0.0131553
0.0131111
0.0130656
0.0130191
0.0129718
0.012924
0.0128758
0.012827
0.0127777
0.0127275
0.0126764
0.0126238
0.0125695
0.0125129
0.0124538
0.0123913
0.0123252
0.0122547
0.0121797
0.012099
0.0120131
0.0119201
0.0118227
0.0117141
0.0116089
0.0114742
0.011381
0.0132529
0.0135826
0.0133823
0.013337
0.0133073
0.0132714
0.0132349
0.0131949
0.0131517
0.013106
0.0130583
0.0130089
0.0129583
0.0129067
0.0128541
0.0128005
0.012746
0.0126902
0.012633
0.0125739
0.0125128
0.0124491
0.0123825
0.0123124
0.0122385
0.0121601
0.0120771
0.0119886
0.0118951
0.0117944
0.0116898
0.0115734
0.0114617
0.0113168
0.0112187
0.0132231
0.0135442
0.0133596
0.0133229
0.0132989
0.0132666
0.0132319
0.0131921
0.013148
0.0131005
0.0130503
0.0129978
0.0129435
0.0128877
0.0128305
0.0127719
0.0127118
0.0126501
0.0125866
0.0125208
0.0124526
0.0123815
0.0123073
0.0122292
0.0121473
0.0120607
0.0119695
0.0118727
0.0117711
0.0116626
0.0115508
0.0114271
0.01131
0.0111587
0.01106
0.0131814
0.0135021
0.0133352
0.0133088
0.0132917
0.0132636
0.0132307
0.0131913
0.0131464
0.0130972
0.0130446
0.0129892
0.0129317
0.0128721
0.0128107
0.0127476
0.0126827
0.0126158
0.0125468
0.0124752
0.012401
0.0123237
0.012243
0.0121584
0.0120699
0.0119767
0.0118791
0.011776
0.0116683
0.0115539
0.0114367
0.0113075
0.0111862
0.011029
0.0109285
0.0131378
0.0134562
0.0133102
0.0132954
0.0132857
0.013262
0.0132309
0.0131917
0.0131458
0.0130947
0.0130397
0.0129813
0.0129203
0.0128569
0.0127914
0.0127238
0.012654
0.012582
0.0125076
0.0124304
0.0123504
0.012267
0.0121802
0.0120894
0.0119946
0.0118952
0.0117914
0.0116823
0.0115689
0.011449
0.0113268
0.0111929
0.0110681
0.0109064
0.010806
0.0130857
0.0134071
0.0132853
0.0132836
0.013282
0.0132626
0.0132333
0.0131941
0.0131471
0.0130942
0.0130366
0.0129754
0.0129112
0.0128442
0.0127749
0.0127032
0.0126292
0.0125526
0.0124734
0.0123913
0.0123062
0.0122176
0.0121255
0.0120294
0.0119294
0.0118248
0.0117161
0.0116022
0.0114844
0.0113602
0.0112343
0.0110967
0.0109694
0.0108041
0.0107039
0.0130255
0.0133559
0.0132607
0.0132734
0.0132804
0.0132654
0.0132376
0.0131983
0.01315
0.0130952
0.0130352
0.0129713
0.012904
0.0128338
0.012761
0.0126856
0.0126077
0.0125271
0.0124438
0.0123573
0.0122678
0.0121747
0.0120781
0.0119775
0.0118731
0.0117642
0.0116512
0.0115334
0.0114119
0.0112842
0.0111554
0.0110148
0.0108857
0.0107176
0.010618
0.0129666
0.0133093
0.0132407
0.0132672
0.0132819
0.0132702
0.0132434
0.0132036
0.013154
0.0130973
0.0130352
0.0129688
0.0128989
0.0128259
0.0127502
0.0126717
0.0125906
0.0125067
0.0124199
0.01233
0.0122368
0.0121402
0.01204
0.0119358
0.0118279
0.0117157
0.0115996
0.0114788
0.0113545
0.0112244
0.0110935
0.0109509
0.0108207
0.0106503
0.0105516
0.0128919
0.0132598
0.0132201
0.0132622
0.0132853
0.0132771
0.0132511
0.0132106
0.0131595
0.0131009
0.0130366
0.0129678
0.0128954
0.0128198
0.0127414
0.0126601
0.0125761
0.0124892
0.0123994
0.0123063
0.0122101
0.0121103
0.0120069
0.0118998
0.0117889
0.0116738
0.011555
0.0114318
0.0113054
0.0111732
0.0110407
0.0108966
0.0107656
0.0105935
0.0104958
0.0128185
0.0132156
0.0132043
0.0132614
0.0132918
0.0132858
0.0132599
0.0132185
0.0131657
0.0131051
0.0130387
0.0129677
0.0128931
0.0128152
0.0127343
0.0126506
0.0125641
0.0124747
0.0123822
0.0122866
0.0121877
0.0120852
0.0119793
0.0118696
0.0117563
0.011639
0.0115181
0.0113929
0.0112649
0.0111313
0.0109977
0.0108524
0.0107211
0.0105478
0.0104512
0.0127242
0.013171
0.013189
0.0132629
0.0133009
0.0132968
0.0132708
0.013228
0.0131733
0.0131107
0.0130421
0.012969
0.0128922
0.0128121
0.0127291
0.0126433
0.0125545
0.0124628
0.0123681
0.0122702
0.012169
0.0120643
0.0119562
0.0118444
0.011729
0.0116098
0.0114873
0.0113606
0.0112313
0.0110967
0.0109623
0.0108164
0.010685
0.0105108
0.0104155
0.0126295
0.0131339
0.0131781
0.0132679
0.013312
0.0133087
0.0132819
0.0132375
0.013181
0.0131164
0.0130458
0.0129708
0.012892
0.0128101
0.0127252
0.0126375
0.0125469
0.0124533
0.0123567
0.0122568
0.0121538
0.0120472
0.0119373
0.0118238
0.0117068
0.0115862
0.0114623
0.0113345
0.0112043
0.011069
0.0109342
0.010788
0.0106568
0.0104822
0.0103879
0.0125149
0.0131018
0.0131703
0.0132775
0.0133269
0.0133235
0.0132953
0.0132488
0.01319
0.0131232
0.0130507
0.0129738
0.0128932
0.0128096
0.012723
0.0126335
0.0125413
0.012446
0.0123478
0.0122464
0.0121417
0.0120337
0.0119223
0.0118073
0.0116891
0.0115672
0.0114423
0.0113137
0.0111829
0.0110472
0.0109124
0.0107662
0.0106354
0.0104611
0.010368
0.0123925
0.0130781
0.0131644
0.0132879
0.0133414
0.0133373
0.0133075
0.013259
0.0131981
0.0131295
0.0130552
0.0129766
0.0128945
0.0128094
0.0127214
0.0126307
0.012537
0.0124405
0.012341
0.0122383
0.0121324
0.0120231
0.0119105
0.0117945
0.0116752
0.0115525
0.0114269
0.0112977
0.0111665
0.0110307
0.0108959
0.0107502
0.0106197
0.0104461
0.0103531
0.0122596
0.0130669
0.0131662
0.013306
0.013361
0.0133546
0.0133222
0.0132709
0.0132076
0.0131369
0.0130608
0.0129806
0.0128971
0.0128106
0.0127214
0.0126294
0.0125347
0.012437
0.0123364
0.0122327
0.0121258
0.0120156
0.0119021
0.0117852
0.0116652
0.0115418
0.0114156
0.0112861
0.0111547
0.011019
0.0108845
0.0107397
0.0106098
0.0104386
0.0103457
0.0121091
0.0130627
0.0131639
0.0133205
0.0133768
0.0133685
0.0133338
0.0132802
0.0132151
0.0131426
0.0130651
0.0129837
0.0128992
0.0128117
0.0127216
0.0126288
0.0125332
0.0124348
0.0123334
0.0122289
0.0121213
0.0120104
0.0118963
0.0117788
0.0116582
0.0115344
0.0114078
0.0112781
0.0111466
0.0110112
0.010877
0.0107334
0.0106035
0.0104349
0.0103371
0.0119632
0.0130794
0.013175
0.0133444
0.0133978
0.0133857
0.0133479
0.0132915
0.0132241
0.0131499
0.013071
0.0129883
0.0129028
0.0128144
0.0127235
0.0126299
0.0125337
0.0124347
0.0123327
0.0122277
0.0121196
0.0120081
0.0118935
0.0117756
0.0116547
0.0115306
0.0114038
0.011274
0.0111425
0.0110074
0.0108738
0.0107316
0.0106029
0.0104402
0.0103396
0.0118087
0.013088
0.0131753
0.0133612
0.0134128
0.0133981
0.013358
0.0132996
0.0132308
0.0131554
0.0130757
0.0129923
0.0129061
0.0128172
0.0127259
0.0126319
0.0125353
0.0124358
0.0123335
0.0122281
0.0121197
0.0120079
0.0118931
0.0117749
0.0116538
0.0115295
0.0114025
0.0112727
0.0111413
0.0110066
0.0108731
0.0107327
0.0106034
0.0104465
0.0103334
0.0117343
0.0131143
0.013187
0.0133812
0.0134293
0.0134121
0.0133696
0.0133093
0.013239
0.0131625
0.0130817
0.0129976
0.0129108
0.0128214
0.0127297
0.0126352
0.0125383
0.0124386
0.0123361
0.0122304
0.0121218
0.0120099
0.0118949
0.0117767
0.0116554
0.0115311
0.0114042
0.0112744
0.011143
0.0110085
0.0108757
0.010736
0.0106112
0.0104591
0.0103815
0.0133344
0.0136748
0.0134434
0.0133784
0.0133347
0.0132892
0.013248
0.0132072
0.0131661
0.0131251
0.0130842
0.0130437
0.0130036
0.0129641
0.0129252
0.012887
0.0128492
0.0128118
0.0127743
0.0127365
0.0126979
0.0126581
0.0126165
0.0125724
0.0125253
0.0124743
0.0124191
0.0123586
0.0122927
0.0122199
0.0121415
0.012054
0.0119648
0.0118594
0.0117739
0.0133132
0.0136452
0.0134248
0.0133656
0.0133259
0.0132834
0.0132437
0.0132032
0.0131616
0.0131192
0.0130763
0.0130331
0.0129897
0.0129465
0.0129033
0.0128602
0.0128171
0.0127737
0.0127299
0.0126852
0.0126393
0.0125917
0.012542
0.0124894
0.0124336
0.0123738
0.0123097
0.0122401
0.0121653
0.0120835
0.0119965
0.0118985
0.0118008
0.0116751
0.0115815
0.0132883
0.0136141
0.0134043
0.0133513
0.0133162
0.0132766
0.0132383
0.0131979
0.0131553
0.0131111
0.0130656
0.0130191
0.0129718
0.012924
0.0128758
0.012827
0.0127777
0.0127275
0.0126764
0.0126238
0.0125695
0.0125129
0.0124538
0.0123913
0.0123252
0.0122547
0.0121797
0.012099
0.0120131
0.0119201
0.0118228
0.0117141
0.011609
0.0114742
0.0113811
0.0132562
0.0135792
0.0133821
0.013337
0.0133074
0.0132714
0.0132349
0.0131949
0.0131517
0.013106
0.0130582
0.0130089
0.0129583
0.0129066
0.0128541
0.0128005
0.012746
0.0126902
0.012633
0.0125739
0.0125128
0.0124491
0.0123825
0.0123124
0.0122385
0.0121601
0.0120772
0.0119886
0.0118951
0.0117944
0.0116899
0.0115734
0.0114617
0.0113169
0.0112189
0.0132263
0.013541
0.0133593
0.0133229
0.013299
0.0132667
0.0132319
0.0131921
0.013148
0.0131005
0.0130502
0.0129978
0.0129435
0.0128877
0.0128305
0.0127719
0.0127118
0.0126501
0.0125866
0.0125208
0.0124526
0.0123815
0.0123073
0.0122292
0.0121473
0.0120607
0.0119695
0.0118727
0.0117712
0.0116626
0.0115508
0.0114271
0.01131
0.0111588
0.0110602
0.0131845
0.0134989
0.013335
0.0133088
0.0132917
0.0132636
0.0132307
0.0131913
0.0131464
0.0130972
0.0130446
0.0129892
0.0129317
0.0128721
0.0128107
0.0127476
0.0126827
0.0126158
0.0125468
0.0124752
0.012401
0.0123237
0.012243
0.0121584
0.0120699
0.0119768
0.0118791
0.011776
0.0116684
0.0115539
0.0114367
0.0113076
0.0111862
0.0110291
0.0109287
0.0131408
0.0134532
0.01331
0.0132954
0.0132858
0.013262
0.0132309
0.0131917
0.0131458
0.0130947
0.0130397
0.0129813
0.0129203
0.0128569
0.0127914
0.0127237
0.012654
0.012582
0.0125076
0.0124304
0.0123504
0.012267
0.0121802
0.0120894
0.0119946
0.0118952
0.0117914
0.0116823
0.011569
0.011449
0.0113269
0.0111929
0.0110681
0.0109065
0.0108062
0.0130886
0.0134042
0.0132851
0.0132836
0.013282
0.0132626
0.0132333
0.0131941
0.0131471
0.0130941
0.0130366
0.0129754
0.0129111
0.0128442
0.0127749
0.0127032
0.0126292
0.0125526
0.0124734
0.0123913
0.0123062
0.0122176
0.0121255
0.0120294
0.0119294
0.0118249
0.0117161
0.0116022
0.0114844
0.0113602
0.0112343
0.0110967
0.0109694
0.0108042
0.0107042
0.0130283
0.013353
0.0132605
0.0132734
0.0132805
0.0132654
0.0132376
0.0131983
0.01315
0.0130952
0.0130352
0.0129713
0.012904
0.0128338
0.012761
0.0126856
0.0126077
0.0125271
0.0124438
0.0123573
0.0122678
0.0121747
0.0120781
0.0119775
0.0118731
0.0117642
0.0116512
0.0115334
0.0114119
0.0112842
0.0111554
0.0110149
0.0108857
0.0107177
0.0106182
0.0129692
0.0133066
0.0132405
0.0132672
0.0132819
0.0132702
0.0132434
0.0132036
0.013154
0.0130973
0.0130352
0.0129688
0.0128989
0.0128259
0.0127502
0.0126717
0.0125906
0.0125067
0.0124199
0.01233
0.0122368
0.0121402
0.01204
0.0119358
0.0118279
0.0117157
0.0115996
0.0114788
0.0113545
0.0112244
0.0110935
0.010951
0.0108207
0.0106504
0.0105518
0.0128945
0.0132572
0.01322
0.0132622
0.0132854
0.0132771
0.013251
0.0132106
0.0131595
0.0131009
0.0130365
0.0129678
0.0128954
0.0128198
0.0127413
0.0126601
0.0125761
0.0124892
0.0123994
0.0123063
0.0122101
0.0121103
0.012007
0.0118998
0.0117889
0.0116738
0.0115551
0.0114318
0.0113054
0.0111733
0.0110408
0.0108966
0.0107656
0.0105936
0.010496
0.0128209
0.0132132
0.0132042
0.0132614
0.0132918
0.0132858
0.0132599
0.0132185
0.0131657
0.0131051
0.0130387
0.0129677
0.012893
0.0128151
0.0127343
0.0126506
0.0125641
0.0124747
0.0123822
0.0122866
0.0121877
0.0120852
0.0119793
0.0118696
0.0117563
0.011639
0.0115181
0.011393
0.0112649
0.0111313
0.0109977
0.0108525
0.0107211
0.0105479
0.0104514
0.0127265
0.0131687
0.0131889
0.0132629
0.013301
0.0132968
0.0132708
0.0132279
0.0131733
0.0131107
0.0130421
0.012969
0.0128922
0.0128121
0.0127291
0.0126432
0.0125545
0.0124628
0.0123681
0.0122702
0.012169
0.0120643
0.0119562
0.0118444
0.011729
0.0116099
0.0114873
0.0113606
0.0112313
0.0110967
0.0109623
0.0108164
0.010685
0.0105109
0.0104157
0.0126316
0.0131318
0.0131779
0.0132679
0.013312
0.0133087
0.0132819
0.0132375
0.013181
0.0131163
0.0130458
0.0129708
0.012892
0.0128101
0.0127252
0.0126375
0.0125468
0.0124533
0.0123566
0.0122568
0.0121538
0.0120472
0.0119373
0.0118238
0.0117068
0.0115862
0.0114623
0.0113345
0.0112043
0.011069
0.0109343
0.010788
0.0106568
0.0104823
0.0103881
0.0125169
0.0130999
0.0131703
0.0132775
0.0133269
0.0133235
0.0132952
0.0132487
0.01319
0.0131232
0.0130507
0.0129737
0.0128932
0.0128095
0.012723
0.0126335
0.0125413
0.012446
0.0123478
0.0122464
0.0121417
0.0120337
0.0119223
0.0118073
0.0116891
0.0115672
0.0114423
0.0113137
0.0111829
0.0110472
0.0109124
0.0107663
0.0106354
0.0104612
0.0103682
0.0123943
0.0130764
0.0131643
0.0132879
0.0133414
0.0133373
0.0133075
0.0132589
0.0131981
0.0131294
0.0130551
0.0129766
0.0128945
0.0128094
0.0127214
0.0126306
0.012537
0.0124405
0.012341
0.0122383
0.0121324
0.0120231
0.0119105
0.0117945
0.0116752
0.0115525
0.0114269
0.0112977
0.0111665
0.0110307
0.010896
0.0107503
0.0106197
0.0104463
0.0103533
0.0122612
0.0130655
0.0131662
0.0133061
0.013361
0.0133545
0.0133221
0.0132708
0.0132076
0.0131369
0.0130607
0.0129806
0.0128971
0.0128106
0.0127214
0.0126294
0.0125347
0.012437
0.0123364
0.0122327
0.0121258
0.0120156
0.0119021
0.0117852
0.0116652
0.0115418
0.0114156
0.0112861
0.0111547
0.011019
0.0108845
0.0107397
0.0106098
0.0104387
0.010346
0.0121105
0.0130614
0.0131639
0.0133206
0.0133769
0.0133685
0.0133338
0.0132802
0.013215
0.0131426
0.0130651
0.0129837
0.0128991
0.0128117
0.0127216
0.0126288
0.0125332
0.0124348
0.0123334
0.0122289
0.0121213
0.0120104
0.0118963
0.0117788
0.0116582
0.0115344
0.0114079
0.0112782
0.0111467
0.0110113
0.0108771
0.0107334
0.0106035
0.010435
0.0103373
0.0119644
0.0130787
0.0131751
0.0133444
0.0133979
0.0133857
0.0133478
0.0132915
0.0132241
0.0131499
0.013071
0.0129883
0.0129028
0.0128144
0.0127235
0.01263
0.0125338
0.0124347
0.0123328
0.0122277
0.0121196
0.0120082
0.0118936
0.0117757
0.0116547
0.0115306
0.0114038
0.011274
0.0111426
0.0110075
0.0108738
0.0107316
0.0106029
0.0104403
0.0103398
0.0118107
0.0130876
0.0131755
0.0133614
0.013413
0.0133983
0.0133581
0.0132998
0.0132309
0.0131556
0.0130758
0.0129924
0.0129062
0.0128173
0.012726
0.0126319
0.0125354
0.0124359
0.0123336
0.0122281
0.0121197
0.012008
0.0118931
0.0117749
0.0116538
0.0115295
0.0114026
0.0112727
0.0111413
0.0110066
0.0108732
0.0107327
0.0106034
0.0104464
0.0103324
0.0117342
0.0131149
0.0131873
0.0133813
0.0134293
0.0134121
0.0133696
0.0133093
0.0132389
0.0131624
0.0130817
0.0129975
0.0129108
0.0128214
0.0127296
0.0126352
0.0125383
0.0124385
0.012336
0.0122304
0.0121218
0.0120099
0.0118949
0.0117766
0.0116554
0.011531
0.0114041
0.0112743
0.011143
0.0110084
0.0108756
0.0107359
0.0106111
0.0104591
0.010382
0.0133387
0.0136704
0.0134431
0.0133784
0.0133347
0.0132892
0.0132481
0.0132072
0.0131661
0.0131251
0.0130842
0.0130436
0.0130036
0.0129641
0.0129252
0.012887
0.0128492
0.0128118
0.0127743
0.0127365
0.0126979
0.0126581