/*--------------------------------*- C++ -*----------------------------------*\
  =========                 |
  \\      /  F ield         | OpenFOAM: The Open Source CFD Toolbox
   \\    /   O peration     | Website:  https://openfoam.org
    \\  /    A nd           | Version:  6
     \\/     M anipulation  |
\*---------------------------------------------------------------------------*/
FoamFile
{
    version     2.0;
    format      ascii;
    class       volScalarField;
    location    "46";
    object      yPlus;
}
// * * * * * * * * * * * * * * * * * * * * * * * * * * * * * * * * * * * * * //

dimensions      [0 0 0 0 0 0 0];

internalField   uniform 0;

boundaryField
{
    inlet
    {
        type            calculated;
        value           uniform 0;
    }
    outlet
    {
        type            calculated;
        value           uniform 0;
    }
    roughCylinder
    {
        type            calculated;
        value           nonuniform List<scalar> 
3840
(
17.2315
30.4945
40.9759
43.9057
46.3812
46.6491
47.357
47.2417
47.485
47.0654
46.6975
46.4766
46.5153
45.0667
44.9418
44.5234
43.3759
42.8563
42.9211
44.5735
42.6694
42.4973
42.0165
41.4395
9.8194
30.0021
40.5948
43.7229
46.2153
46.5463
47.2372
47.1241
47.3831
46.9958
46.6677
46.4316
46.5213
45.4422
45.1804
44.9159
43.6973
43.2853
43.4581
44.8994
43.1403
42.9478
42.5653
42.0582
15.1191
29.5349
40.237
43.5564
46.0735
46.4811
47.1743
47.1206
47.445
47.1639
46.8554
46.5567
46.6334
45.8616
45.4017
45.2173
43.9955
43.6895
44.0256
45.3267
43.7531
43.4798
43.1193
42.6411
15.1061
28.7635
39.7775
43.3537
45.932
46.4524
47.1779
47.1643
47.5295
47.2826
46.9736
46.6221
46.7655
46.3477
45.7924
45.6522
44.4482
44.2346
44.6713
45.6947
44.3081
44.0287
43.7781
43.3714
7.9556
28.1611
39.3008
43.1537
45.8098
46.465
47.2169
47.2774
47.6987
47.5269
47.2565
46.8487
46.9796
46.8044
46.1388
45.9973
44.9048
44.7683
45.3558
46.1816
44.9646
44.6038
44.3597
43.98
13.4838
27.1343
38.656
42.8632
45.6518
46.4698
47.2968
47.4352
47.8887
47.7719
47.4976
47.0458
47.2283
47.3016
46.6202
46.459
45.4773
45.3805
46.0369
46.5866
45.5746
45.2367
45.103
44.7901
12.9218
26.2437
37.9679
42.5393
45.4695
46.4814
47.3826
47.5912
48.1012
48.026
47.826
47.3672
47.5291
47.7266
47.025
46.8565
46.0593
45.9925
46.7551
47.1199
46.2381
45.8303
45.6878
45.4011
12.7939
24.9938
36.9894
42.0144
45.2019
46.4491
47.4488
47.7839
48.3227
48.3391
48.1657
47.7021
47.8834
48.1946
47.537
47.3513
46.6985
46.6231
47.4063
47.5681
46.8889
46.5381
46.4973
46.2679
12.3523
23.7486
35.9484
41.4407
44.8674
46.3535
47.5107
47.9205
48.5316
48.573
48.4916
48.0854
48.2436
48.5717
47.9635
47.8162
47.3527
47.2811
48.1051
48.1395
47.5387
47.1331
47.0686
46.8653
11.88
22.1267
34.436
40.4748
44.334
46.2052
47.4895
48.0748
48.7302
48.8968
48.8845
48.5119
48.668
49.0061
48.4753
48.3349
47.9926
47.8942
48.6913
48.6189
48.2084
47.8912
47.9108
47.7528
13.6298
20.4631
32.8491
39.4514
43.7307
45.8932
47.4471
48.1453
48.8869
49.0808
49.1563
48.8835
49.0283
49.3294
48.8963
48.8415
48.648
48.5589
49.3337
49.1924
48.8095
48.4496
48.4355
48.3055
16.4409
18.7075
30.5273
37.7534
42.6766
45.4931
47.2674
48.1823
49.0056
49.3422
49.5342
49.327
49.4625
49.7261
49.3766
49.3301
49.2153
49.1109
49.8301
49.6635
49.4632
49.2152
49.26
49.1605
19.0715
16.9415
28.0815
35.8841
41.5572
44.8
46.9981
48.133
49.0512
49.4342
49.6927
49.5995
49.7539
49.9844
49.7608
49.822
49.8081
49.7313
50.381
50.1762
49.9588
49.6739
49.6829
49.6158
22.1182
15.2457
24.6399
32.9465
39.4665
43.8198
46.4936
47.9292
49.0284
49.5507
49.9612
49.9676
50.1234
50.3154
50.1566
50.1944
50.2247
50.1563
50.7407
50.5659
50.5342
50.3784
50.4235
50.373
26.832
14.0478
20.6025
29.2259
37.1694
42.3369
45.7323
47.631
48.8813
49.5265
49.986
50.061
50.2601
50.4627
50.4429
50.5918
50.6971
50.6737
51.178
50.9706
50.8909
50.6976
50.7184
50.7056
32.3261
14.3303
16.0952
24.1369
32.5655
39.8051
44.3877
46.8822
48.5758
49.4194
50.0694
50.3041
50.5295
50.7006
50.7099
50.805
50.9361
50.9393
51.3799
51.2422
51.364
51.2965
51.3247
51.3087
35.4287
15.8614
2.39624
11.7615
26.4868
36.1239
42.3477
45.9631
48.0038
49.1762
49.9332
50.2027
50.4882
50.7226
50.8824
51.092
51.2606
51.3004
51.6327
51.4356
51.4706
51.3729
51.3997
51.4221
35.2824
16.531
13.2806
4.20816
16.4472
26.2521
38.3176
43.8472
47.0569
48.605
49.655
50.1904
50.5667
50.7857
50.9233
51.0388
51.2139
51.2759
51.5403
51.4614
51.7118
51.7145
51.7263
51.7218
33.2939
15.6912
13.2129
4.41693
12.9027
11.7207
30.2967
41.0497
45.452
47.8373
49.1821
49.7753
50.2167
50.5464
50.8457
51.0882
51.245
51.3098
51.4142
51.2156
51.3024
51.2337
51.2404
51.2485
30.5883
14.1054
13.1851
12.5902
7.53054
13.5652
6.53599
34.6586
43.0492
46.2569
48.1151
49.1404
49.8156
50.1692
50.3853
50.4856
50.5423
50.5363
50.5291
50.4996
50.8087
50.8115
50.7851
50.7255
27.6326
13.0106
9.53843
13.5547
4.65167
8.54284
15.8509
27.3755
38.7782
44.2254
46.7776
47.9769
48.7089
49.1832
49.5815
49.8334
49.7739
49.692
49.3924
49.0265
48.889
48.5796
48.4413
48.2833
24.1247
10.7988
13.5689
8.94162
15.1507
14.3879
13.9942
6.36463
34.6778
40.1222
43.6714
45.6765
46.9261
47.491
47.6892
47.5912
47.0108
46.488
45.8521
45.7959
45.9028
45.6336
45.357
44.9552
20.7885
9.96288
14.0839
13.7088
18.1234
7.87289
10.4415
15.5353
19.6242
33.8689
39.6233
42.1072
43.387
44.0053
44.4411
44.5439
43.5958
42.7609
41.2812
38.9676
35.8729
32.3953
29.7379
27.4046
15.6473
11.5037
4.97615
19.0865
25.1166
23.9955
11.2513
4.96057
16.1591
18.8992
22.4248
31.0527
35.1847
36.2167
35.5017
32.7353
26.7063
18.6478
5.54754
7.74217
21.1328
16.7987
15.9355
19.8522
2.07385
11.2051
11.2823
16.2872
22.4502
26.3549
26.1919
13.8508
12.7706
15.3593
16.6237
18.1486
19.3958
16.9234
4.65744
10.8308
7.32107
4.34674
12.5876
7.67097
4.96816
9.27772
7.38636
10.5505
6.20392
9.80573
13.542
18.2412
21.9736
23.8208
22.8967
21.7127
8.94659
5.61539
8.80221
8.79143
17.5716
9.68313
4.19119
16.7553
14.7514
19.7397
9.26784
10.9507
15.9579
18.9104
21.5724
22.2372
9.09038
12.9826
19.1146
23.1122
25.3717
26.1261
24.4402
21.0357
22.7088
20.9808
23.4266
23.1706
21.3392
20.1394
20.8786
21.8443
23.8631
25.7032
28.1558
30.5775
31.3304
30.7752
29.9182
29.8936
7.05514
16.5865
21.4337
24.9572
26.618
26.2383
24.4359
22.8887
22.8127
26.7565
28.7546
30.111
31.3631
31.3492
31.562
32.072
32.6057
33.1956
33.0811
32.3219
31.2761
30.476
29.7968
29.1428
7.77179
15.6694
19.9823
23.1184
24.484
23.806
21.3653
19.4481
20.5659
23.0618
26.0119
27.8115
29.7252
31.6598
32.1673
32.586
33.1392
33.5097
33.5897
33.1737
31.9336
29.923
27.7294
26.6922
7.63676
15.9428
19.722
22.466
23.7343
23.1037
20.2956
16.4277
14.0274
15.0944
15.9445
20.5669
26.008
29.4451
31.2631
32.0061
32.4505
32.569
32.2724
30.9989
28.5341
25.6856
22.9405
21.4568
8.55126
17.1438
21.1467
23.956
25.3143
24.9412
23.2129
21.8298
21.8997
21.8845
21.32
19.7571
20.4362
23.91
26.5826
28.163
29.0968
29.4768
29.5633
28.8365
27.1785
24.9273
23.1732
22.6535
8.9599
17.6366
21.7395
24.6494
26.1634
26.2459
25.6601
25.1858
24.5717
23.1076
22.8369
25.116
27.1351
27.8969
28.6431
29.2801
29.655
29.751
29.5023
28.4267
26.5053
24.43
22.9641
22.2556
8.13347
17.2641
21.6861
24.771
26.5355
27.1298
26.8993
25.875
23.5521
20.2725
16.2348
14.2314
19.3847
24.4013
26.8182
27.6044
27.6731
27.3677
26.9396
25.9197
24.2802
22.6055
21.3472
20.7757
8.22506
17.5138
22.0702
25.2597
27.2677
28.2027
28.1233
26.9876
24.9363
22.6098
21.7241
21.9264
21.4701
22.5414
24.2023
25.2192
25.651
25.7075
25.4846
24.7349
23.5047
22.2396
21.4715
21.1808
7.99034
17.2515
22.0216
25.4138
27.6644
28.8023
28.8138
27.5652
25.067
22.0365
19.5813
20.3653
22.9102
24.363
25.1557
25.6618
25.8306
25.6409
25.2008
24.4001
23.2732
22.2288
21.5849
21.331
7.90504
16.998
21.8562
25.3998
27.838
29.0551
28.9005
27.2091
24.3037
20.9901
18.9131
18.1431
19.5934
22.0991
23.9649
24.9698
25.3016
25.1183
24.6054
23.7956
22.8341
22.0351
21.6359
21.5248
8.1985
17.4402
22.3035
25.8357
28.1905
29.0628
28.4325
26.3544
23.2698
20.2573
19.0273
20.2423
21.6059
22.8319
24.0604
24.9667
25.335
25.0741
24.367
23.4323
22.5121
21.8998
21.7232
21.7691
8.09228
18.5214
23.613
26.7995
28.3576
28.356
27.0941
24.8129
21.9362
19.4256
18.5244
19.1554
20.8677
22.7775
24.392
25.5028
25.9162
25.5257
24.5231
23.333
22.3943
21.9597
22.0435
22.2792
6.44222
17.3106
22.9175
25.7043
26.6219
26.2508
25.0229
22.9461
20.0943
18.2295
18.5742
20.0176
21.688
23.5347
25.2798
26.545
27.0194
26.5006
25.1627
23.6209
22.5693
22.2941
22.6707
23.1293
4.97428
16.904
22.1298
24.2272
24.8176
24.6106
23.5701
21.1702
18.538
18.1692
19.5239
21.2418
23.1642
25.1738
27.0107
28.3447
28.8189
28.1603
26.4834
24.521
23.2715
23.1351
23.8317
24.5269
4.5087
4.35876
4.13848
3.93696
3.86464
3.84048
3.8672
4.25343
5.11087
5.91385
6.87319
7.81716
8.52379
9.02135
9.35746
9.57208
9.71872
9.80553
9.88129
9.89263
9.80447
9.65906
8.98969
8.15209
5.30936
3.33095
2.52805
3.46363
0.428711
1.9881
1.52815
3.81921
5.63262
5.83855
6.04202
5.08665
2.34748
0.348034
2.80922
5.277
11.092
10.6317
10.1809
9.75983
9.49789
9.33023
9.50477
10.4594
12.0139
13.3043
14.8366
16.0963
17.0484
17.7861
18.361
18.8009
19.1212
19.3339
19.442
19.4639
19.3371
19.0828
18.5744
17.787
16.4841
14.4476
11.0006
8.77013
7.35243
6.10307
1.84
7.79704
11.0986
12.2646
13.8408
14.1329
13.3195
11.8345
14.2636
17.6995
12.948
12.3619
11.7803
11.1924
10.7767
10.7142
11.7085
13.6852
16.2995
18.2284
19.6549
20.71
21.5312
22.189
22.727
23.1647
23.5121
23.7776
23.9721
24.0974
24.1134
23.9926
23.7123
23.239
22.5237
21.4782
19.8283
17.4675
13.2537
9.68701
7.85845
9.34109
8.58933
11.7476
14.9012
16.7868
17.3349
16.8398
18.1814
21.7638
14.7895
13.9262
13.0594
12.0681
11.4621
12.6386
15.6313
18.5833
20.7566
22.3333
23.5124
24.4276
25.1615
25.7634
26.2629
26.6711
26.9917
27.232
27.4213
27.572
27.6498
27.5974
27.3938
27.0461
26.543
25.8505
24.8986
23.6112
21.7985
19.3653
16.1743
11.8108
8.73119
5.58209
11.7601
16.1701
18.747
19.2386
20.1974
23.3384
16.3342
15.1078
13.8637
12.8802
13.7077
16.8417
20.1303
22.5472
24.2962
25.6367
26.6875
27.5268
28.2078
28.7675
29.229
29.5991
29.8767
30.0702
30.2181
30.3346
30.4151
30.4053
30.2513
29.9693
29.5688
29.038
28.3577
27.5002
26.409
25.0522
23.3466
21.2873
18.6288
15.0069
10.6658
11.6145
16.9677
19.5516
21.0827
23.9191
17.3218
15.6462
14.2281
14.6118
17.7257
21.2936
23.943
25.8702
27.3561
28.5354
29.4792
30.2395
30.856
31.358
31.7652
32.0821
32.3062
32.459
32.5735
32.6483
32.6842
32.6807
32.57
32.3358
31.9912
31.5408
30.9928
30.3356
29.5497
28.6064
27.4623
26.0684
24.3164
22.0368
18.9194
13.6745
11.9472
16.9696
20.3592
23.669
17.4329
15.518
15.4648
18.5254
22.2723
25.083
27.1466
28.7808
30.0951
31.1502
31.996
32.675
33.2201
33.6516
33.9794
34.2115
34.3414
34.4683
34.5592
34.6071
34.6035
34.5589
34.5027
34.3312
34.0238
33.6148
33.1309
32.5718
31.9312
31.1868
30.3063
29.2363
27.9035
26.1786
23.8989
20.7247
16.1171
13.8122
17.4298
21.9513
16.6457
16.3663
19.4323
23.219
26.0828
28.2564
30.0256
31.4714
32.6452
33.5934
34.3543
34.9579
35.4245
35.7593
35.9501
36.0477
36.1709
36.2741
36.3353
36.3497
36.3246
36.2258
36.0987
36.041
35.8145
35.4327
34.9644
34.4423
33.8676
33.2211
32.4716
31.5758
30.4673
29.0589
27.2277
24.8121
21.5706
17.5126
15.536
18.9415
17.4584
20.6089
24.2183
27.0262
29.2746
31.1489
32.7101
34.0039
35.0693
35.9359
36.6276
37.1582
37.5246
37.6937
37.7603
37.8519
37.9328
37.9882
38.0046
37.9706
37.9102
37.8203
37.6414
37.5333
37.4306
37.0759
36.6086
36.0861
35.5281
34.925
34.2384
33.4314
32.4406
31.204
29.6146
27.5938
24.9758
21.8497
18.3545
17.8482
22.0941
25.2551
27.9689
30.2228
32.1641
33.8209
35.2317
36.4237
37.4191
38.2326
38.8703
39.3226
39.5452
39.5954
39.6464
39.6817
39.6974
39.6844
39.6371
39.5552
39.4533
39.335
39.1597
39.0497
38.9711
38.6088
38.1185
37.5773
37.0081
36.4129
35.7497
34.9795
34.0395
32.8841
31.4099
29.5886
27.2605
24.6162
21.499
19.6448
26.4046
28.8333
31.0821
33.0402
34.7813
36.3017
37.6266
38.7681
39.7353
40.527
41.1292
41.505
41.5991
41.6466
41.6577
41.6385
41.589
41.5087
41.3957
41.2591
41.1192
40.9546
40.7708
40.7193
40.5496
40.108
39.5646
38.9851
38.3865
37.7718
37.1008
36.328
35.3919
34.2538
32.8196
31.0782
28.8953
26.464
23.6478
21.6956
29.6655
31.7211
33.7351
35.5265
37.1625
38.6222
39.9236
41.0675
42.0511
42.8592
43.4586
43.7729
43.8498
43.8923
43.8863
43.8374
43.7482
43.6208
43.4562
43.2769
43.0942
42.8671
42.7246
42.6677
42.2651
41.7026
41.0795
40.4374
39.7847
39.1204
38.4057
37.5901
36.6168
35.4488
34.0092
32.2882
30.1941
27.894
25.3215
23.4462
32.2075
34.0874
35.999
37.7251
39.3369
40.8031
42.1379
43.333
44.3772
45.2447
45.8857
46.1878
46.2886
46.3525
46.3587
46.312
46.2145
46.0656
45.8696
45.6613
45.4196
45.1593
45.0868
44.7963
44.2123
43.5271
42.8024
42.0664
41.3245
40.5741
39.7755
38.8787
37.8326
36.6058
35.1373
33.4274
31.4173
29.2685
26.9492
25.2304
34.1981
36.0203
37.9225
39.6603
41.3105
42.834
44.2437
45.5265
46.6664
47.6298
48.354
48.6924
48.8273
48.9318
48.9714
48.949
48.8637
48.7106
48.4983
48.2611
47.9582
47.6978
47.6197
47.1219
46.3808
45.5587
44.71
43.8534
42.9941
42.1299
41.2203
40.22
39.0834
37.7916
36.293
34.6118
32.6968
30.7361
28.6504
27.1459
35.7178
37.5547
39.5036
41.2978
43.0198
44.6243
46.1254
47.5075
48.7534
49.8252
50.6526
51.077
51.2368
51.3847
51.4634
51.4719
51.4049
51.2536
51.0314
50.7636
50.4105
50.1803
50.0264
49.3535
48.4738
47.5192
46.5461
45.5694
44.5927
43.614
42.5923
41.49
40.2683
38.9212
37.4047
35.7652
33.9463
32.1622
30.2621
28.9562
36.7589
38.6387
40.6486
42.5068
44.2988
45.9756
47.5526
49.0154
50.3472
51.5113
52.4424
53.0196
53.1697
53.3474
53.4578
53.4926
53.4412
53.2939
53.0691
52.7689
52.4177
52.2929
51.8889
51.0687
50.0802
49.0254
47.957
46.8921
45.8282
44.7599
43.6459
42.4583
41.1668
39.7743
38.2454
36.6374
34.8939
33.2316
31.4637
30.2817
37.2141
39.1306
41.1868
43.0924
44.9316
46.6521
48.2696
49.7719
51.1452
52.3596
53.3676
54.0876
54.3208
54.4924
54.6204
54.6744
54.6383
54.5076
54.285
53.9934
53.8396
53.6047
52.8913
51.961
50.9161
49.816
48.6999
47.5877
46.4752
45.3433
44.152
42.8855
41.5233
40.072
38.506
36.8844
35.1613
33.5432
31.8461
30.7355
36.9283
38.8696
40.9553
42.8934
44.7599
46.5014
48.1297
49.6349
51.006
52.2205
53.2481
54.0492
54.5719
54.7073
54.825
54.8932
54.8777
54.7718
54.6335
54.5863
54.3007
53.6965
52.8948
51.9495
50.9081
49.8109
48.6859
47.552
46.4057
45.209
43.9311
42.5665
41.1016
39.5452
37.8827
36.1737
34.3902
32.7404
31.0514
29.9947
35.7818
37.7546
39.8776
41.8618
43.7645
45.533
47.1712
48.6703
50.0208
51.205
52.2018
52.9974
53.6021
54.0435
54.2431
54.3067
54.3642
54.4109
54.244
53.9102
53.4852
52.8894
52.1171
51.2033
50.1912
49.1138
47.9929
46.8395
45.6333
44.3465
42.959
41.4639
39.8522
38.1351
36.31
34.4392
32.525
30.7765
29.0795
28.1163
33.9213
35.9279
38.1066
40.1696
42.1448
43.9784
45.6626
47.1875
48.544
49.7164
50.6873
51.448
52.0183
52.4646
52.7941
52.9968
53.0702
53.0306
52.907
52.7216
52.362
51.7859
51.0289
50.1359
49.1455
48.0832
46.9624
45.7722
44.49
43.1059
41.6062
39.9793
38.2147
36.3236
34.3151
32.2574
30.1882
28.3336
26.6615
25.8569
32.0419
34.0557
36.2812
38.4311
40.4959
42.417
44.1744
45.7551
47.1494
48.3434
49.3231
50.0842
50.6518
51.1008
51.4513
51.6989
51.8487
51.9258
51.9453
51.8241
51.4607
50.8812
50.1368
49.2695
48.3094
47.2753
46.1682
44.9656
43.6539
42.2282
40.676
38.9844
37.1425
35.1594
33.051
30.8864
28.7285
26.8123
25.1637
24.4441
31.1629
33.166
35.4003
37.5891
39.6989
41.6669
43.4656
45.079
46.4945
47.699
48.6813
49.4421
50.0147
50.4791
50.8593
51.1584
51.3893
51.5719
51.6613
51.5284
51.1513
50.5765
49.8561
49.0259
48.1103
47.1236
46.0624
44.9009
43.6256
42.2327
40.7124
39.0523
37.2412
35.2849
33.1979
31.0446
28.8873
26.9447
25.2492
24.4247
31.4298
33.4323
35.6494
37.8204
39.9111
41.8619
43.645
45.2416
46.6362
47.8147
48.7678
49.5017
50.0629
50.5315
50.9281
51.2594
51.5407
51.7753
51.865
51.7143
51.3316
50.769
50.076
49.2841
48.4148
47.4803
46.4796
45.3878
44.1836
42.8621
41.4174
39.8399
38.1185
36.2555
34.2606
32.1895
30.0906
28.1569
26.3899
25.3806
32.0109
33.9898
36.1685
38.295
40.3408
42.2508
43.9972
45.5584
46.9164
48.0558
48.9685
49.6655
50.2076
50.6692
51.0682
51.4131
51.7178
51.9687
52.0419
51.8769
51.4928
50.9425
50.2723
49.5108
48.6772
47.7821
46.8268
45.7895
44.6433
43.3803
41.995
40.4811
38.8294
37.0419
35.1239
33.1247
31.0808
29.1692
27.3689
26.2492
11.8647
28.7969
39.7176
42.4817
44.9533
45.02
45.6417
45.6996
46.3996
46.5328
46.5759
46.09
45.6632
45.1544
44.3743
43.5448
42.6869
41.649
41.5979
42.8082
41.8601
41.5511
40.8735
40.3781
17.5079
28.742
39.3438
42.2872
44.7784
45.02
45.6497
45.6888
46.5099
46.5076
46.2919
45.7555
45.5243
45.1093
44.3294
43.7697
42.9673
41.9896
42.1112
43.3394
42.498
42.2069
41.5259
41.0472
8.19934
28.1133
39.0208
42.1401
44.7
44.9851
45.711
45.8134
46.4141
46.3547
46.4451
46.0522
45.7384
45.4453
44.6974
44.3538
43.5064
42.4867
42.5715
43.6485
42.7675
42.466
41.8983
41.4676
14.6933
27.8398
38.634
41.9772
44.6061
45.1077
45.8188
45.9392
46.5485
46.5123
46.2305
45.8007
45.7182
45.5084
44.7825
44.6279
43.8169
42.8803
43.0771
44.2194
43.455
43.1893
42.6466
42.2461
16.6583
26.9799
38.2885
41.8365
44.5269
45.1237
45.9881
46.0906
46.6295
46.4836
46.5638
46.1953
46.0514
45.9278
45.2988
45.2962
44.4698
43.5421
43.6628
44.6553
43.8252
43.5196
43.0648
42.7011
8.96023
26.6634
37.7172
41.5637
44.4073
45.2392
46.0637
46.3376
46.8312
46.8128
46.4507
46.0897
46.1678
46.0951
45.5243
45.5883
44.7989
43.9667
44.1371
45.2278
44.5281
44.2824
43.881
43.5588
10.495
25.5286
37.2493
41.3122
44.2028
45.1996
46.2857
46.4773
47.0408
46.8963
46.9389
46.5834
46.5641
46.5527
46.1337
46.2796
45.5206
44.7471
44.8284
45.7671
44.9825
44.6744
44.3324
44.033
11.083
25.0434
36.3556
40.8389
44.0146
45.2489
46.2746
46.7806
47.2956
47.2922
46.9023
46.6176
46.8046
46.8258
46.485
46.5819
45.856
45.1772
45.2619
46.3062
45.6671
45.4508
45.1882
44.9407
13.7898
23.7865
35.7216
40.3928
43.6239
45.1223
46.4872
46.8841
47.5078
47.4252
47.4776
47.1644
47.2105
47.2846
47.1099
47.2607
46.5972
46.0279
46.0441
46.9406
46.2017
45.9042
45.6681
45.4279
11.9459
22.9962
34.4248
39.6837
43.3494
45.0493
46.3821
47.1306
47.7618
47.7777
47.4616
47.2997
47.5603
47.6657
47.5603
47.5873
46.9312
46.4483
46.4388
47.4206
46.8356
46.6638
46.5288
46.3489
15.6974
21.6923
33.5678
38.9254
42.6992
44.8367
46.4814
47.1721
47.8579
47.9124
48.0538
47.8269
47.9285
48.0827
48.1136
48.224
47.6427
47.3134
47.2795
48.1267
47.4319
47.1597
47.013
46.8234
16.4676
20.6973
31.8404
37.9511
42.2641
44.5057
46.2828
47.2511
48.0625
48.1408
48.006
48.0206
48.3542
48.5424
48.623
48.5727
47.9602
47.697
47.6181
48.503
47.9642
47.8495
47.8266
47.7062
21.4239
19.7962
30.5835
36.6465
41.2221
44.1918
46.1184
47.1981
47.9734
48.2598
48.5613
48.4547
48.6278
48.856
49.0132
49.112
48.5904
48.5071
48.462
49.2402
48.5924
48.3581
48.2761
48.1252
25.092
19.2122
28.5317
35.3312
40.3984
43.3391
45.8017
47.0189
48.0883
48.2904
48.423
48.665
49.0806
49.3398
49.5471
49.4633
48.8719
48.8156
48.7035
49.4442
48.9463
48.894
48.9615
48.8934
28.4797
19.0125
26.6178
33.1082
38.7793
42.8455
45.1409
46.8024
47.7701
48.3927
48.881
48.9107
49.1718
49.468
49.6804
49.8104
49.3543
49.4792
49.4629
50.139
49.5598
49.3787
49.3383
49.215
31.1807
19.1998
24.4543
31.294
36.9871
41.0111
44.6194
46.2409
47.7307
48.1329
48.6011
49.0812
49.5869
49.8974
50.1916
50.1189
49.5646
49.6735
49.5632
50.1342
49.6825
49.6963
49.8326
49.8165
32.4723
19.0209
22.1386
27.813
34.6794
40.0572
43.002
45.6733
47.0928
48.2391
48.9068
49.0706
49.4058
49.7704
49.9985
50.1917
49.8642
50.1404
50.1848
50.7432
50.2757
50.1539
50.1112
49.9943
34.7082
19.1422
18.8879
24.7727
30.3752
36.3964
42.0235
44.4433
46.6711
47.4552
48.4204
49.1838
49.7906
50.1259
50.4877
50.4673
49.9929
50.1761
50.0637
50.3942
49.9997
50.076
50.239
50.2815
36.1211
19.9663
17.9764
20.3418
27.8075
33.9643
38.3822
43.0239
45.4854
47.4917
48.3795
48.7303
49.1536
49.5996
49.8185
50.056
49.9539
50.295
50.4035
50.7914
50.5223
50.4652
50.3502
50.2041
37.4133
19.7624
10.3197
8.37323
12.5415
26.6845
36.1181
40.4617
44.0459
45.6311
47.496
48.6806
49.4519
49.8005
50.2199
50.2589
49.929
50.023
49.8342
49.7842
49.3919
49.4394
49.5371
49.6313
36.8163
20.3147
8.77753
12.308
3.27382
5.00423
26.8579
36.6748
41.8719
45.3435
46.5069
47.2359
47.8839
48.4854
48.6513
48.8312
49.0249
49.2686
49.3893
49.5102
49.5447
49.5394
49.2274
48.9433
36.0161
19.8395
1.72258
8.82091
12.7521
13.1205
12.3898
31.2716
37.6214
41.147
44.9093
46.7519
47.7956
48.1623
48.6218
48.7255
48.6021
48.2952
47.7372
46.932
46.2434
45.8589
45.5824
45.6429
33.7154
20.2067
1.7075
8.64959
9.99667
8.43109
9.26515
14.0293
33.6184
39.8274
41.0585
42.7802
44.1163
45.0547
45.0202
44.7942
45.1849
44.8621
44.9068
44.5403
45.0605
45.0514
44.2594
43.4358
25.7881
19.6509
4.88202
6.0272
12.1604
10.0612
13.8829
6.42468
17.3967
27.8073
38.3287
41.2709
42.6762
43.022
43.4366
43.6692
43.7594
42.306
40.1084
36.6607
32.2954
27.012
20.778
16.8061
15.3775
16.9638
6.807
11.5064
15.5623
13.3806
15.9544
11.9376
15.6632
13.2678
7.16237
25.1941
31.7173
34.0443
33.2007
29.5772
26.8409
19.1227
15.7933
21.3193
16.961
1.34206
7.45552
17.3746
11.7424
13.4848
6.17464
9.35809
17.3019
21.0587
20.3725
15.006
16.2241
4.7723
15.2319
16.9498
6.82751
12.412
3.35421
7.04349
10.9322
13.2351
8.61094
17.1884
14.3175
16.2549
14.5185
3.82364
12.216
14.6375
10.6648
9.43089
14.9405
20.6127
22.8764
21.864
17.6265
9.02209
11.3466
17.0439
16.7312
12.7502
16.9362
17.6142
4.57879
16.909
13.0092
4.82676
14.8805
18.6265
20.7821
22.024
12.5936
17.65
16.5607
14.8737
16.6923
20.8592
23.6178
24.1816
23.0886
22.6244
21.8075
19.149
14.0776
9.58139
9.75223
14.9976
19.821
22.4411
24.1295
26.0908
27.1148
27.3073
27.3013
27.1761
12.0705
19.2156
20.7236
20.8173
21.5921
23.643
25.3683
25.9117
26.0239
26.6288
27.0363
26.839
26.6221
26.5423
26.962
27.8133
28.6598
29.2835
29.672
29.7481
30.2356
29.9659
29.4182
28.8905
11.5543
19.3835
22.2487
23.7953
24.8778
26.0576
26.8463
27.0355
27.3157
28.1848
29.0257
29.5331
30.0014
30.4014
30.7978
31.2703
31.7144
31.9217
31.9912
31.4525
31.0711
29.952
28.4721
27.2591
10.9314
18.6517
22.0564
24.4306
26.0281
27.0723
27.5104
27.5395
27.3974
27.3785
27.5619
28.6068
30.2908
31.4383
31.915
32.068
32.0061
31.7241
31.4765
30.5552
29.5433
27.8763
25.8331
24.3702
8.75513
17.1508
21.0093
23.8843
25.8913
27.07
27.5466
27.6131
27.3596
26.4789
25.233
24.9927
26.9794
28.9772
29.8535
30.057
29.9367
29.6625
29.477
28.7021
27.7359
26.156
24.3252
23.078
6.38385
15.5653
19.7369
22.876
25.125
26.5015
27.1515
27.2851
26.9082
25.7835
23.8766
22.5505
23.6707
25.7009
27.0562
27.7515
28.0185
28.0104
27.9111
27.2409
26.1598
24.4204
22.6212
21.6023
4.88886
14.2806
18.5105
21.7273
24.0978
25.6523
26.4619
26.5823
25.889
24.2315
21.748
19.8944
21.0468
23.3554
25.0454
26.0078
26.3778
26.2689
25.9554
25.1873
24.1478
22.6841
21.3581
20.7549
4.26754
13.3055
17.4098
20.5826
23.0006
24.6823
25.5856
25.6382
24.6754
22.6034
19.4659
17.5629
19.1515
21.7758
23.7033
24.7268
25.1159
25.0654
24.7021
23.993
23.1043
21.9924
21.131
20.8761
4.01756
12.5537
16.442
19.4992
21.9053
23.6441
24.5785
24.5713
23.4693
21.1138
17.6629
16.7373
19.3133
22.0187
23.8373
24.8757
25.3031
25.2136
24.6726
23.8377
22.9826
22.1487
21.653
21.6497
3.8946
11.9505
15.557
18.4465
20.7899
22.5113
23.4241
23.3601
22.1823
19.4848
16.5101
17.8486
21.0879
23.5893
25.2275
26.1905
26.5863
26.4211
25.6807
24.5893
23.5925
22.897
22.6753
22.8684
3.88757
11.4984
14.765
17.4269
19.6515
21.2891
22.1295
21.9871
20.6486
17.6591
16.9273
20.3231
23.5808
25.8484
27.3571
28.2737
28.6431
28.4075
27.4911
26.1083
24.8541
24.185
24.1807
24.5425
4.04654
11.5456
14.0821
16.4482
18.5124
20.0185
20.7399
20.4604
18.7287
16.6955
19.4185
23.4477
26.4312
28.5381
30.0048
30.934
31.3101
31.0283
29.9793
28.3473
26.8095
26.0846
26.2321
26.7188
4.3003
11.4399
13.6202
15.7495
17.5943
18.8867
19.3693
18.7256
16.994
18.4754
23.0419
26.7678
29.5014
31.5358
33.0203
34
34.4097
34.1119
32.9825
31.1818
29.4141
28.5999
28.8347
29.3963
14.4516
9.97944
15.9922
15.7666
8.6593
11.9155
4.26091
6.91324
6.02884
5.50728
7.30842
4.02355
10.1575
7.8381
8.79715
7.0387
7.26928
4.00303
6.57748
6.61736
3.62591
6.94689
4.06744
7.54501
3.95673
4.398
4.33916
5.22187
5.2736
7.26926
6.39283
12.0181
13.8018
14.0848
14.595
8.18101
11.5533
16.6838
11.0394
10.6379
28.9021
26.6892
26.2579
23.8352
23.3345
20.7763
20.3637
17.627
17.4558
14.9064
15.1046
13.0812
12.9702
12.4255
11.6119
11.5829
11.4639
11.4627
10.4477
10.8302
11.3212
11.516
11.461
11.4625
11.4452
11.6859
11.8877
12.8804
13.4556
15.4316
15.8176
18.0826
18.7349
21.0292
21.934
24.1765
25.0512
27.3319
28.2454
30.3165
39.514
38.0463
37.1823
35.8057
34.8379
33.5494
32.4743
31.3324
30.1926
29.3507
28.2766
27.7423
26.8888
26.2668
25.725
25.1195
24.5277
24.1515
24.0394
24.4088
24.1626
24.1981
24.5841
24.6146
25.2994
25.5597
26.6376
27.1133
28.2542
28.9851
30.073
31.0719
32.0614
33.252
34.2224
35.6095
36.6113
38.1247
39.1271
40.6712
42.1109
40.5773
39.5909
38.1501
37.1489
35.7559
34.7233
33.4217
32.444
31.3306
30.6316
29.779
29.3977
28.7181
28.2568
27.866
27.426
27.0353
26.755
27.0634
27.0842
27.2371
27.4796
27.5386
27.8975
28.2375
28.8934
29.4374
30.2953
31.1014
32.0973
33.1193
34.1637
35.368
36.4679
37.8685
39.0273
40.5982
41.7724
43.4219
44.5015
43.1424
42.0753
40.8511
39.7618
38.6048
37.4567
36.3677
35.2712
34.3079
33.4497
32.7528
32.1374
31.6257
31.0256
30.6144
30.1789
29.7498
29.4927
29.9777
29.8652
30.0091
30.3204
30.2878
30.6753
30.9761
31.7902
32.2799
33.2722
33.9773
35.0928
36.0162
37.1438
38.2207
39.3577
40.5822
41.7671
43.1523
44.3664
45.8711
44.5554
43.2236
42.1749
41.026
39.997
38.8665
37.8309
36.6725
35.7567
34.6798
33.9933
33.2391
32.748
32.2113
31.7265
31.342
31.0156
30.542
30.1778
30.6993
30.7026
30.9545
31.2259
31.1432
31.3853
31.7526
32.4383
32.9299
33.7771
34.4422
35.5362
36.3825
37.5412
38.5186
39.6822
40.8159
42.0347
43.3542
44.6245
46.0847
45.087
43.8481
42.7683
41.6952
40.7224
39.6215
38.6199
37.468
36.5125
35.5477
34.7121
34.09
33.4196
32.9687
32.4468
32.1198
31.8994
31.4485
30.9851
31.6026
31.6172
31.913
32.2152
32.0139
32.2704
32.6308
33.3925
33.8535
34.6689
35.3403
36.4329
37.2781
38.4793
39.3971
40.6049
41.6379
42.8947
44.1191
45.4249
46.7935
45.0148
43.8081
42.6477
41.5852
40.6246
39.5689
38.5461
37.3932
36.3559
35.4405
34.6376
33.9424
33.2912
32.721
32.3788
32.0723
31.9984
31.6418
31.0303
31.5561
31.7242
32.1401
32.3943
32.146
32.3963
32.8562
33.647
34.0462
34.7675
35.4002
36.446
37.2987
38.4779
39.356
40.5697
41.5359
42.8392
44.0027
45.3592
46.6573
45.9338
44.4461
43.3666
42.0465
41.0797
39.9471
38.9389
37.7535
36.6028
35.6717
34.8628
34.1056
33.2486
32.6365
32.333
32.2232
32.0744
31.9637
31.2982
31.5829
31.9037
32.3679
32.5427
32.3258
32.828
33.3553
34.2009
34.5552
35.2414
35.8023
36.8091
37.6715
38.7974
39.6728
40.8636
41.8163
43.1546
44.263
45.6569
46.8621
46.0468
44.7843
43.5499
42.4155
41.2422
40.2194
39.1155
38.0522
36.9035
35.9194
35.0337
34.2979
33.2953
32.5038
32.2225
32.2935
31.6725
31.7121
31.2045
31.0921
31.5897
32.0692
32.1335
32.2551
33.064
33.5723
34.4008
34.7115
35.3602
35.8008
36.7489
37.5362
38.5698
39.3954
40.5231
41.4928
42.8019
43.8709
45.2217
46.3559
45.8658
44.7513
43.3502
42.2591
40.974
40.0333
38.9388
38.1763
37.1549
36.4475
35.2953
34.74
33.7672
32.9607
32.2617
32.4265
31.5055
31.1319
31.0439
31.039
31.3068
31.6063
32.0134
32.0523
32.8392
33.1644
33.9112
34.1979
34.8483
35.3915
36.4359
37.23
38.2585
39.0613
40.2158
41.2012
42.4629
43.5089
44.8251
45.9754
45.1463
44.1148
42.4157
41.4135
39.8268
39.0291
37.7901
37.2712
36.3147
35.7894
34.9442
34.4284
33.5983
32.8865
32.3169
31.8538
31.313
30.8078
31.2849
31.0159
30.7791
31.0828
31.8634
31.3932
32.0029
32.239
32.9854
33.4879
34.2888
34.9775
35.9429
36.6474
37.7232
38.5978
39.8562
40.862
42.1726
43.2415
44.5963
45.7709
44.8921
43.7457
42.2765
41.0754
39.6305
38.4609
37.2561
36.3763
35.5913
34.8893
34.1409
33.5675
33.3124
33.0152
32.2741
32.315
31.1787
30.9641
31.4572
30.5164
30.1982
31.2995
31.1126
30.3631
31.1537
31.6562
32.5641
33.2171
34.0907
34.5065
35.3346
36.0694
37.2144
38.2037
39.5882
40.7313
42.1069
43.2517
44.5992
45.8289
44.2674
43.1328
41.6561
40.6073
39.257
38.3206
37.1556
36.3584
35.3565
34.5899
33.5341
32.826
32.3774
32.1837
31.7376
30.9569
30.3335
29.9507
30.0101
29.8508
30.1324
30.6699
30.1556
30.1098
31.1768
31.3957
32.0465
32.4084
33.3804
34.1885
35.3771
36.153
37.1187
37.8329
38.7131
39.4656
40.4501
41.4569
42.7667
44.1225
43.5137
42.4212
40.9963
39.9495
38.6309
37.6138
36.4594
35.6023
34.7932
34.313
33.8673
33.5105
32.9346
32.4738
31.7753
31.0709
30.6565
30.414
29.6836
29.3452
30.2265
29.7676
29.1127
30.4031
30.4584
30.3043
31.0013
31.6964
32.9992
33.7923
34.8309
35.4012
36.3184
37.1109
38.2863
39.3107
40.5479
41.6698
42.9731
44.238
42.4697
41.159
39.6425
38.503
37.2995
36.4404
35.5898
35.0224
34.3909
33.9217
33.2458
32.5969
31.665
30.9336
30.1826
29.5817
28.5034
28.3496
28.4455
28.6657
28.2673
28.1938
28.5106
28.8221
28.9197
29.1386
30.5095
31.183
32.0985
32.3758
33.1265
33.6974
34.8138
35.6833
36.8385
37.8709
39.1795
40.5284
42.0435
43.613
41.6705
40.3325
38.8709
37.6928
36.5034
35.54
34.5637
33.6714
32.6411
31.5812
30.5043
29.7763
29.1446
28.5909
28.0593
27.6146
26.9536
26.2037
25.8872
26.7906
26.6586
27.0436
27.3464
27.4348
27.769
28.7158
29.5626
29.7604
30.5236
30.8527
31.7569
32.4824
33.6884
34.7036
36.0511
37.2265
38.6092
39.8614
41.2594
42.5851
40.7207
39.3852
37.984
36.7503
35.5593
34.508
33.567
32.7007
31.8751
31.0264
30.216
29.4795
28.6253
27.7382
26.8105
25.9982
25.2021
24.6442
24.2509
24.4276
24.7533
25.493
25.8188
25.882
26.8019
27.4994
28.1766
28.3273
28.9502
29.5695
30.7284
31.7289
33.0346
34.1297
35.4514
36.6102
37.964
39.205
40.6255
41.9868
40.6683
39.1447
37.7264
36.3079
35.0543
33.7839
32.7123
31.6273
30.7499
29.8486
29.1017
28.303
27.6216
26.9336
26.3067
25.6625
25.089
24.7329
25.185
24.6505
24.0891
25.0724
26.0945
26.9443
27.7074
28.0004
28.525
28.9951
29.676
30.1527
30.7471
31.3173
32.1861
33.1858
34.4855
35.8229
37.3396
38.7832
40.3774
41.8836
42.0109
40.4352
39.1079
37.6378
36.4337
35.0753
33.9846
32.7545
31.7726
30.6989
29.8338
28.9315
28.1864
27.5157
26.973
26.6945
26.4901
26.5666
25.8367
26.1118
26.1132
25.7778
26.7674
26.3429
26.59
26.9144
27.4467
28.0135
28.8383
29.7292
30.9267
32.1071
33.5012
34.7844