/*--------------------------------*- C++ -*----------------------------------*\
  =========                 |
  \\      /  F ield         | OpenFOAM: The Open Source CFD Toolbox
   \\    /   O peration     | Website:  https://openfoam.org
    \\  /    A nd           | Version:  6
     \\/     M anipulation  |
\*---------------------------------------------------------------------------*/
FoamFile
{
    version     2.0;
    format      ascii;
    class       volVectorField;
    location    "1";
    object      wallShearStress;
}
// * * * * * * * * * * * * * * * * * * * * * * * * * * * * * * * * * * * * * //

dimensions      [0 2 -2 0 0 0 0];

internalField   uniform (0 0 0);

boundaryField
{
    inlet
    {
        type            calculated;
        value           uniform (0 0 0);
    }
    outlet
    {
        type            calculated;
        value           uniform (0 0 0);
    }
    roughCylinder
    {
        type            calculated;
        value           nonuniform List<vector> 
5120
(
(-0.000317934 -0.000450408 -0.000237013)
(-0.000389812 -0.000566206 -3.25853e-05)
(-0.000435707 -0.000666086 1.70824e-05)
(-0.000495333 -0.000755292 7.66808e-05)
(-0.000563929 -0.000826988 0.000139776)
(-0.000636121 -0.000877796 0.000198643)
(-0.000707322 -0.000906735 0.000249471)
(-0.000772861 -0.00091663 0.000290543)
(-0.000831175 -0.000913786 0.00032184)
(-0.000883364 -0.000908818 0.000346357)
(-0.000929164 -0.000905316 0.000365704)
(-0.000966491 -0.000904708 0.000378895)
(-0.000998391 -0.000908884 0.000386386)
(-0.00102575 -0.000917569 0.000389039)
(-0.00104977 -0.000930123 0.000387602)
(-0.0010718 -0.000945835 0.000382911)
(-0.00109306 -0.000964047 0.000375677)
(-0.00111456 -0.000984277 0.000366457)
(-0.00113704 -0.00100623 0.000355602)
(-0.00116097 -0.00102977 0.000343299)
(-0.00118658 -0.00105486 0.000329603)
(-0.00121399 -0.00108148 0.000314484)
(-0.0012432 -0.0011096 0.000297852)
(-0.00127415 -0.00113916 0.000279582)
(-0.00130668 -0.00117 0.000259503)
(-0.00134053 -0.00120188 0.000237414)
(-0.0013753 -0.00123436 0.000213003)
(-0.00141038 -0.00126676 0.000185824)
(-0.00144476 -0.00129799 0.000154938)
(-0.00147676 -0.00132634 0.000118984)
(-0.00150295 -0.00134938 7.55041e-05)
(-0.0015184 -0.00136326 2.55926e-05)
(-0.000345415 -0.000443639 -0.00023198)
(-0.000421238 -0.000557572 -3.61577e-05)
(-0.000470202 -0.000657051 1.09519e-05)
(-0.000532443 -0.000746556 6.82384e-05)
(-0.000603231 -0.000819414 0.000129945)
(-0.000677438 -0.000871681 0.000188078)
(-0.000750654 -0.000902286 0.000238465)
(-0.000818887 -0.000914778 0.000279422)
(-0.000881104 -0.000916385 0.000311676)
(-0.000937396 -0.0009151 0.000337851)
(-0.000986651 -0.000912963 0.000358853)
(-0.00102553 -0.000910604 0.000372594)
(-0.00105849 -0.000913719 0.000380243)
(-0.00108696 -0.000921671 0.000382908)
(-0.00111209 -0.000933811 0.00038141)
(-0.00113522 -0.00094932 0.000376614)
(-0.00115764 -0.000967467 0.000369275)
(-0.00118036 -0.000987707 0.000359973)
(-0.00120415 -0.00100971 0.000349083)
(-0.00122946 -0.00103331 0.000336795)
(-0.00125656 -0.00105845 0.000323173)
(-0.00128556 -0.00108512 0.000308189)
(-0.00131647 -0.00111329 0.000291755)
(-0.00134921 -0.00114288 0.000273746)
(-0.00138361 -0.00117375 0.000253995)
(-0.0014194 -0.00120566 0.000232309)
(-0.00145617 -0.00123815 0.00020838)
(-0.00149326 -0.00127057 0.000181778)
(-0.00152958 -0.0013018 0.000151577)
(-0.00156337 -0.00133015 0.000116428)
(-0.00159103 -0.00135317 7.38839e-05)
(-0.00160737 -0.00136704 2.5032e-05)
(-0.00037406 -0.000431084 -0.00021828)
(-0.00045363 -0.000542961 -4.03278e-05)
(-0.000505575 -0.000641426 4.12262e-06)
(-0.000570138 -0.000730722 5.89995e-05)
(-0.000642947 -0.000804394 0.000119203)
(-0.000719212 -0.000858172 0.000176567)
(-0.000794812 -0.000891105 0.000226698)
(-0.000866284 -0.000907144 0.000268075)
(-0.000932559 -0.000913212 0.000301655)
(-0.000992713 -0.000915164 0.000329354)
(-0.00104476 -0.000914263 0.000351406)
(-0.00108592 -0.000910989 0.000365708)
(-0.00111984 -0.000912877 0.000373446)
(-0.00114936 -0.000919969 0.000376022)
(-0.00117555 -0.000931566 0.000374425)
(-0.0011998 -0.000946737 0.000369517)
(-0.00122338 -0.000964682 0.000362082)
(-0.00124734 -0.000984784 0.000352715)
(-0.00127244 -0.00100668 0.000341807)
(-0.00129916 -0.00103017 0.000329561)
(-0.00132777 -0.0010552 0.000316043)
(-0.00135837 -0.00108174 0.000301225)
(-0.00139098 -0.00110976 0.000285023)
(-0.00142552 -0.00113919 0.000267312)
(-0.00146181 -0.0011699 0.000247932)
(-0.00149957 -0.00120162 0.000226693)
(-0.00153835 -0.00123392 0.000203299)
(-0.00157746 -0.00126614 0.000177332)
(-0.00161574 -0.00129717 0.00014788)
(-0.00165134 -0.00132532 0.000113615)
(-0.00168048 -0.00134818 7.21003e-05)
(-0.00169773 -0.00136194 2.44155e-05)
(-0.000401618 -0.000413685 -0.000198535)
(-0.000484773 -0.000523103 -4.46481e-05)
(-0.000539466 -0.000619982 -3.03226e-06)
(-0.000605978 -0.000708665 4.93226e-05)
(-0.000680634 -0.000782949 0.000107875)
(-0.000759067 -0.000838406 0.000164352)
(-0.000837399 -0.000874217 0.000214288)
(-0.00091239 -0.00089431 0.000256329)
(-0.000982612 -0.000904658 0.000291347)
(-0.00104635 -0.000909448 0.000320482)
(-0.00110117 -0.000909691 0.000343359)
(-0.00114518 -0.000906395 0.000358409)
(-0.00118012 -0.000906996 0.000366262)
(-0.00121065 -0.000913181 0.00036869)
(-0.00123789 -0.000924162 0.00036697)
(-0.00126323 -0.000938916 0.000361948)
(-0.00128797 -0.000956555 0.000354425)
(-0.00131315 -0.000976421 0.000345008)
(-0.00133955 -0.000998095 0.000334102)
(-0.00136766 -0.00102137 0.000321915)
(-0.00139773 -0.00104615 0.000308517)
(-0.00142991 -0.00107242 0.000293886)
(-0.00146418 -0.00110015 0.000277936)
(-0.00150047 -0.00112926 0.000260544)
(-0.00153859 -0.00115962 0.000241556)
(-0.00157826 -0.00119099 0.000220789)
(-0.001619 -0.00122292 0.000197957)
(-0.00166008 -0.00125477 0.000172657)
(-0.00170027 -0.00128542 0.000143993)
(-0.00173762 -0.00131322 0.000110654)
(-0.00176822 -0.0013358 7.02216e-05)
(-0.00178635 -0.00134939 2.37663e-05)
(-0.000427579 -0.00039209 -0.000175219)
(-0.000514158 -0.00049857 -4.88208e-05)
(-0.000571318 -0.000593362 -1.0233e-05)
(-0.000639444 -0.000681061 3.94512e-05)
(-0.000715798 -0.000755762 9.61615e-05)
(-0.000796503 -0.000813001 0.000151615)
(-0.000877805 -0.00085194 0.000201362)
(-0.000956395 -0.000876094 0.000244141)
(-0.00103033 -0.000890277 0.000280556)
(-0.00109739 -0.000897498 0.000311024)
(-0.00115515 -0.000898976 0.000334693)
(-0.00120236 -0.000896478 0.000350658)
(-0.00123847 -0.000895352 0.000358619)
(-0.00126997 -0.000900579 0.000360921)
(-0.00129824 -0.00091083 0.00035909)
(-0.00132465 -0.000925048 0.000353963)
(-0.00135051 -0.000942275 0.000346369)
(-0.00137687 -0.000961784 0.000336923)
(-0.00140452 -0.000983108 0.000326041)
(-0.00143395 -0.00100602 0.000313931)
(-0.00146544 -0.00103041 0.000300676)
(-0.00149911 -0.00105625 0.000286248)
(-0.00153496 -0.00108352 0.000270568)
(-0.00157292 -0.00111213 0.000253515)
(-0.00161279 -0.00114197 0.000234936)
(-0.00165429 -0.00117278 0.000214661)
(-0.00169689 -0.00120416 0.00019241)
(-0.00173985 -0.00123543 0.000167803)
(-0.00178187 -0.00126552 0.000139955)
(-0.00182091 -0.00129279 0.000107577)
(-0.00185289 -0.00131493 6.82682e-05)
(-0.00187187 -0.00132825 2.30915e-05)
(-0.000451709 -0.000367274 -0.000149976)
(-0.00054151 -0.000470349 -5.27129e-05)
(-0.000600811 -0.00056262 -1.7334e-05)
(-0.000670201 -0.000648995 2.95181e-05)
(-0.00074809 -0.000723919 8.41723e-05)
(-0.000831093 -0.000782949 0.000138447)
(-0.000915467 -0.000825024 0.000187987)
(-0.000997646 -0.000852966 0.000231522)
(-0.00107514 -0.000870437 0.000269253)
(-0.00114547 -0.00087972 0.000300951)
(-0.0012063 -0.000882349 0.000325458)
(-0.00125628 -0.000880595 0.000342097)
(-0.00129461 -0.000878235 0.000350395)
(-0.00132708 -0.000882306 0.000352716)
(-0.00135638 -0.000891657 0.000350785)
(-0.00138384 -0.000905215 0.000345583)
(-0.00141077 -0.00092189 0.000337938)
(-0.00143826 -0.000940904 0.000328484)
(-0.0014671 -0.000961744 0.000317645)
(-0.00149779 -0.000984146 0.000305638)
(-0.00153062 -0.00100799 0.000292544)
(-0.0015657 -0.00103325 0.000278342)
(-0.00160304 -0.00105988 0.000262949)
(-0.00164257 -0.00108782 0.000246249)
(-0.0016841 -0.00111694 0.000228097)
(-0.00172731 -0.00114701 0.000208329)
(-0.00177168 -0.00117761 0.00018668)
(-0.00181642 -0.00120812 0.000162786)
(-0.00186017 -0.00123745 0.00013578)
(-0.00190081 -0.00126401 0.000104392)
(-0.00193413 -0.00128557 6.62447e-05)
(-0.00195392 -0.00129855 2.23923e-05)
(-0.000473582 -0.000339995 -0.000123912)
(-0.000566367 -0.000439219 -5.62428e-05)
(-0.000627452 -0.000528558 -2.4223e-05)
(-0.000697729 -0.000613275 1.95985e-05)
(-0.0007769 -0.000688191 7.19586e-05)
(-0.000862106 -0.000748895 0.000124884)
(-0.00094953 -0.000793938 0.000174157)
(-0.00103524 -0.000825273 0.000218399)
(-0.00111626 -0.000845542 0.000257329)
(-0.0011899 -0.000856596 0.000290174)
(-0.00125389 -0.000860211 0.00031554)
(-0.0013067 -0.000858966 0.000332703)
(-0.00134801 -0.000856154 0.000341601)
(-0.00138152 -0.000858757 0.000344053)
(-0.00141185 -0.000867064 0.000342042)
(-0.00144031 -0.000879801 0.000336797)
(-0.00146829 -0.000895802 0.000329135)
(-0.00149687 -0.000914193 0.000319704)
(-0.00152684 -0.000934417 0.000308933)
(-0.00155872 -0.000956175 0.000297052)
(-0.00159279 -0.000979335 0.000284141)
(-0.00162919 -0.00100385 0.000270182)
(-0.00166792 -0.00102969 0.000255093)
(-0.00170891 -0.00105678 0.000238764)
(-0.00175198 -0.00108502 0.000221052)
(-0.0017968 -0.00111417 0.000201808)
(-0.00184283 -0.00114383 0.000180778)
(-0.00188924 -0.00117338 0.000157616)
(-0.00193463 -0.00120177 0.000131475)
(-0.00197677 -0.00122747 0.000101105)
(-0.00201135 -0.00124832 6.41545e-05)
(-0.00203191 -0.00126086 2.16702e-05)
(-0.000492843 -0.000310774 -9.78367e-05)
(-0.000588317 -0.000405732 -5.93845e-05)
(-0.000650789 -0.000491752 -3.0833e-05)
(-0.000721518 -0.000574471 9.77114e-06)
(-0.000801626 -0.000649084 5.95939e-05)
(-0.000888818 -0.000711221 0.000110972)
(-0.000979153 -0.00075893 0.000159861)
(-0.00106831 -0.000793219 0.000204696)
(-0.00115284 -0.000815859 0.000244682)
(-0.00122987 -0.000828429 0.000278588)
(-0.00129709 -0.000832891 0.000304817)
(-0.00135298 -0.000832103 0.000322536)
(-0.00139761 -0.000829485 0.000332164)
(-0.00143261 -0.000830289 0.000334853)
(-0.00146394 -0.000837378 0.00033285)
(-0.00149342 -0.000849145 0.000327607)
(-0.00152241 -0.000864321 0.000319964)
(-0.00155202 -0.000881962 0.000310585)
(-0.00158305 -0.000901451 0.000299915)
(-0.00161604 -0.000922442 0.000288186)
(-0.00165126 -0.000944788 0.000275482)
(-0.00168886 -0.000968426 0.000261787)
(-0.00172886 -0.000993326 0.00024702)
(-0.00177119 -0.00101943 0.000231075)
(-0.00181566 -0.00104662 0.000213817)
(-0.00186194 -0.00107468 0.000195109)
(-0.00190949 -0.00110323 0.000174712)
(-0.00195744 -0.00113165 0.0001523)
(-0.00200433 -0.00115895 0.000127045)
(-0.00204787 -0.00118362 9.77184e-05)
(-0.00208365 -0.00120363 6.19993e-05)
(-0.00210494 -0.00121567 2.09255e-05)
(-0.000509203 -0.000280046 -7.23481e-05)
(-0.00060703 -0.000370363 -6.21152e-05)
(-0.000670458 -0.000452714 -3.70974e-05)
(-0.000741147 -0.00053308 1.26642e-07)
(-0.000821739 -0.000607032 4.71711e-05)
(-0.000910573 -0.00067025 9.67842e-05)
(-0.00100359 -0.000720226 0.000145108)
(-0.00109608 -0.000757037 0.000190365)
(-0.00118412 -0.000781667 0.000231248)
(-0.00126463 -0.000795539 0.000266123)
(-0.0013352 -0.000800731 0.000293227)
(-0.00139434 -0.000800327 0.000311627)
(-0.00144205 -0.000797906 0.000321858)
(-0.00147963 -0.000797373 0.000325024)
(-0.00151201 -0.000802969 0.000323189)
(-0.00154249 -0.000813535 0.000317992)
(-0.00157246 -0.000827751 0.000310418)
(-0.00160304 -0.000844516 0.000301138)
(-0.00163505 -0.000863144 0.000290603)
(-0.00166904 -0.00088325 0.000279056)
(-0.00170529 -0.000904657 0.000266584)
(-0.00174397 -0.000927301 0.000253175)
(-0.00178509 -0.000951157 0.000238747)
(-0.00182859 -0.000976149 0.0002232)
(-0.0018743 -0.00100217 0.000206409)
(-0.0019219 -0.00102902 0.000188247)
(-0.0019708 -0.00105631 0.000168496)
(-0.00202014 -0.00108347 0.00014685)
(-0.0020684 -0.00110952 0.000122501)
(-0.00211323 -0.00113301 9.42392e-05)
(-0.0021501 -0.00115206 5.97819e-05)
(-0.00217206 -0.00116354 2.01595e-05)
(-0.000522407 -0.000248208 -4.78613e-05)
(-0.000622203 -0.000333569 -6.44294e-05)
(-0.00068612 -0.000411929 -4.29532e-05)
(-0.000756216 -0.000489586 -9.23834e-06)
(-0.000836733 -0.000562466 3.48041e-05)
(-0.000926753 -0.000626328 8.24031e-05)
(-0.00102216 -0.000678131 0.000129926)
(-0.00111785 -0.000717045 0.000175384)
(-0.0012094 -0.000743344 0.000216987)
(-0.00129349 -0.000758308 0.000252736)
(-0.00136754 -0.000764123 0.000280715)
(-0.00143004 -0.000764017 0.000299903)
(-0.00148088 -0.00076167 0.000310723)
(-0.00152161 -0.000760544 0.000314528)
(-0.00155542 -0.000764179 0.000312997)
(-0.00158692 -0.000773477 0.00030796)
(-0.00161782 -0.000786537 0.000300508)
(-0.0016493 -0.000802289 0.000291376)
(-0.0016822 -0.000819944 0.000281019)
(-0.00171706 -0.000839064 0.000269689)
(-0.00175421 -0.000859445 0.000257478)
(-0.0017938 -0.00088099 0.000244374)
(-0.00183584 -0.000903667 0.000230297)
(-0.00188033 -0.000927412 0.000215159)
(-0.00192709 -0.000952121 0.00019884)
(-0.0019758 -0.000977603 0.000181235)
(-0.00202587 -0.0010035 0.000162139)
(-0.00207641 -0.00102924 0.000141272)
(-0.00212587 -0.00105389 0.000117844)
(-0.00217183 -0.0010761 9.06676e-05)
(-0.00220971 -0.00109408 5.75025e-05)
(-0.00223229 -0.00110492 1.93719e-05)
(-0.000532191 -0.000215649 -2.46852e-05)
(-0.000633516 -0.000295769 -6.63229e-05)
(-0.000697434 -0.000369863 -4.83415e-05)
(-0.000766337 -0.000444461 -1.82054e-05)
(-0.000846124 -0.000515809 2.26185e-05)
(-0.000936775 -0.000579828 6.79213e-05)
(-0.0010342 -0.000632992 0.000114352)
(-0.00113291 -0.00067361 0.000159738)
(-0.00122799 -0.000701307 0.000201862)
(-0.00131577 -0.000717191 0.000238383)
(-0.00139343 -0.000723522 0.000267228)
(-0.00145937 -0.000723635 0.00028729)
(-0.00151342 -0.000721244 0.000298827)
(-0.00155713 -0.000719773 0.000303222)
(-0.00159354 -0.000722077 0.000302257)
(-0.00162598 -0.000729406 0.000297474)
(-0.0016578 -0.000741152 0.000290232)
(-0.00169012 -0.000755761 0.00028131)
(-0.00172379 -0.000772325 0.000271179)
(-0.00175938 -0.000790351 0.000260101)
(-0.00179725 -0.000809593 0.000248179)
(-0.00183755 -0.000829997 0.000235408)
(-0.00188034 -0.000851548 0.000221708)
(-0.00192562 -0.000874101 0.000206992)
(-0.00197322 -0.000897541 0.000191158)
(-0.00202284 -0.000921675 0.000174116)
(-0.00207388 -0.000946166 0.000155683)
(-0.00212543 -0.000970464 0.000135602)
(-0.00217592 -0.00099366 0.000113105)
(-0.00222288 -0.00101444 8.70248e-05)
(-0.00226165 -0.00103122 5.51723e-05)
(-0.00228478 -0.00104137 1.85668e-05)
(-0.00053825 -0.000182725 -3.06705e-06)
(-0.000640681 -0.000257404 -6.77567e-05)
(-0.000704095 -0.000326981 -5.31942e-05)
(-0.000771157 -0.000398188 -2.6671e-05)
(-0.000849473 -0.000467527 1.07491e-05)
(-0.000940092 -0.000531176 5.34479e-05)
(-0.00103908 -0.000585225 9.84367e-05)
(-0.0011406 -0.000627178 0.000143431)
(-0.00123921 -0.000656048 0.00018585)
(-0.00133076 -0.000672694 0.000223025)
(-0.00141216 -0.000679435 0.000252723)
(-0.00148165 -0.000679663 0.000273725)
(-0.00153898 -0.000677139 0.000286123)
(-0.00158562 -0.000675271 0.000291197)
(-0.00162452 -0.000676693 0.000290776)
(-0.00165904 -0.000682519 0.000286513)
(-0.00169181 -0.000692651 0.000279627)
(-0.00172486 -0.000705893 0.000270983)
(-0.00175918 -0.000721306 0.000261143)
(-0.00179536 -0.000738256 0.00025037)
(-0.00183377 -0.000756426 0.000238775)
(-0.00187447 -0.00077564 0.000226345)
(-0.00191748 -0.000795887 0.000212992)
(-0.00196301 -0.000817059 0.000198666)
(-0.00201093 -0.000839048 0.000183289)
(-0.00206096 -0.000861669 0.000166794)
(-0.00211252 -0.000884588 0.00014902)
(-0.00216469 -0.000907286 0.000129731)
(-0.0022159 -0.000928894 0.000108185)
(-0.00226371 -0.00094816 8.32347e-05)
(-0.00230335 -0.000963688 5.27456e-05)
(-0.00232695 -0.000973085 1.77295e-05)
(-0.000540457 -0.000149979 1.67272e-05)
(-0.000643313 -0.000218741 -6.88295e-05)
(-0.000705755 -0.000283809 -5.74451e-05)
(-0.000770358 -0.000351287 -3.45116e-05)
(-0.000846395 -0.000418138 -6.58188e-07)
(-0.00093621 -0.00048086 3.91133e-05)
(-0.00103623 -0.000535311 8.22602e-05)
(-0.00114028 -0.000578259 0.00012649)
(-0.00124237 -0.000608106 0.00016894)
(-0.00133779 -0.000625391 0.000206644)
(-0.00142308 -0.000632412 0.000237164)
(-0.00149624 -0.000632644 0.000259141)
(-0.00155691 -0.000629886 0.000272518)
(-0.00160648 -0.00062754 0.000278424)
(-0.0016478 -0.000628145 0.000278646)
(-0.00168418 -0.000632845 0.000274935)
(-0.00171823 -0.000641517 0.00026852)
(-0.0017521 -0.000653383 0.000260288)
(-0.00178685 -0.000667516 0.000250809)
(-0.00182321 -0.000683241 0.000240361)
(-0.00186164 -0.000700173 0.000229079)
(-0.00190236 -0.000718048 0.000216975)
(-0.00194535 -0.000736796 0.000203972)
(-0.00199091 -0.000756402 0.000190046)
(-0.00203891 -0.000776749 0.000175137)
(-0.00208912 -0.000797661 0.000159201)
(-0.00214094 -0.000818836 0.000142102)
(-0.0021935 -0.000839773 0.000123632)
(-0.00224522 -0.000859666 0.00010307)
(-0.00229367 -0.000877362 7.92869e-05)
(-0.00233402 -0.000891582 5.02126e-05)
(-0.00235803 -0.000900179 1.68551e-05)
(-0.000537382 -0.000117534 3.44368e-05)
(-0.000641913 -0.000180441 -6.9489e-05)
(-0.000702278 -0.000240904 -6.11137e-05)
(-0.000763693 -0.000304322 -4.16181e-05)
(-0.000836581 -0.000368223 -1.14409e-05)
(-0.000924727 -0.000429461 2.50701e-05)
(-0.00102512 -0.000483823 6.59313e-05)
(-0.00113138 -0.00052744 0.000108979)
(-0.00123687 -0.000558088 0.000151158)
(-0.0013362 -0.000575894 0.000189219)
(-0.00142552 -0.000583097 0.00022051)
(-0.00150248 -0.0005832 0.000243492)
(-0.00156658 -0.000580071 0.000257939)
(-0.00161912 -0.000577143 0.000264821)
(-0.00166284 -0.000576899 0.000265838)
(-0.00170097 -0.000580499 0.000262762)
(-0.00173616 -0.000587841 0.000256879)
(-0.00177067 -0.000598347 0.000249119)
(-0.00180566 -0.000611105 0.000240051)
(-0.001842 -0.000625448 0.000229972)
(-0.00188025 -0.000640956 0.000219033)
(-0.00192073 -0.000657345 0.000207272)
(-0.00196347 -0.000674484 0.000194638)
(-0.00200879 -0.000692402 0.000181131)
(-0.00205662 -0.000710983 0.000166706)
(-0.00210674 -0.000730064 0.000151346)
(-0.00215858 -0.000749367 0.000134945)
(-0.00221128 -0.000768438 0.000117318)
(-0.00226328 -0.000786518 9.77733e-05)
(-0.00231215 -0.000802564 7.51903e-05)
(-0.00235308 -0.000815424 4.75766e-05)
(-0.00237743 -0.000823166 1.5945e-05)
(-0.000528523 -8.56581e-05 5.00151e-05)
(-0.000636223 -0.000143213 -6.96726e-05)
(-0.000693603 -0.000198757 -6.41447e-05)
(-0.000751006 -0.000257919 -4.78871e-05)
(-0.000819808 -0.000318446 -2.14339e-05)
(-0.000905297 -0.000377628 1.15065e-05)
(-0.00100531 -0.000431401 4.96016e-05)
(-0.00111331 -0.000475367 9.0995e-05)
(-0.00122205 -0.00050664 0.000132546)
(-0.00132537 -0.000524892 0.000170755)
(-0.00141882 -0.000532187 0.00020274)
(-0.00149974 -0.000532028 0.000226742)
(-0.00156739 -0.000528369 0.000242333)
(-0.00162295 -0.000524706 0.000250315)
(-0.00166906 -0.000523524 0.000252278)
(-0.00170888 -0.000525972 0.000249967)
(-0.00174513 -0.00053198 0.000244713)
(-0.00178011 -0.000541081 0.00023749)
(-0.00181516 -0.000552396 0.000228886)
(-0.00185126 -0.000565261 0.000219222)
(-0.00188909 -0.000579259 0.000208667)
(-0.00192904 -0.000594071 0.000197281)
(-0.00197125 -0.000609519 0.000185036)
(-0.00201606 -0.000625658 0.000171963)
(-0.00206343 -0.000642387 0.000158034)
(-0.00211319 -0.000659552 0.000143263)
(-0.00216478 -0.00067689 0.000127577)
(-0.00221734 -0.000694004 0.000110815)
(-0.00226936 -0.000710205 9.23141e-05)
(-0.00231845 -0.000724534 7.09582e-05)
(-0.00235983 -0.000735978 4.48433e-05)
(-0.00238447 -0.00074283 1.50012e-05)
(-0.000514187 -5.50431e-05 6.3457e-05)
(-0.000625414 -0.000107417 -6.93869e-05)
(-0.000679639 -0.000157946 -6.64782e-05)
(-0.000732234 -0.000212764 -5.32025e-05)
(-0.000795974 -0.000269532 -3.04491e-05)
(-0.000877717 -0.000326096 -1.35626e-06)
(-0.000976422 -0.000378765 3.34731e-05)
(-0.00108561 -0.000422754 7.26826e-05)
(-0.00119736 -0.000454494 0.000113186)
(-0.00130466 -0.000473127 0.000151287)
(-0.00140239 -0.000480444 0.000183847)
(-0.00148742 -0.000479916 0.000208863)
(-0.00155875 -0.000475564 0.000225671)
(-0.0016174 -0.000470984 0.00023487)
(-0.00166591 -0.000468713 0.000237927)
(-0.00170737 -0.000469904 0.000236527)
(-0.00174458 -0.000474532 0.000232027)
(-0.0017799 -0.000482176 0.000225436)
(-0.0018148 -0.000491989 0.000217369)
(-0.00185041 -0.000503323 0.000208178)
(-0.00188754 -0.000515743 0.000198047)
(-0.00192668 -0.000528926 0.000187061)
(-0.00196807 -0.000542645 0.000175221)
(-0.00201206 -0.000556967 0.000162589)
(-0.00205867 -0.000571798 0.000149164)
(-0.00210778 -0.000586997 0.000134988)
(-0.00215885 -0.000602327 0.00012003)
(-0.00221101 -0.000617427 0.000104148)
(-0.0022628 -0.000631683 8.67117e-05)
(-0.0023119 -0.000644263 6.66001e-05)
(-0.00235361 -0.000654241 4.20181e-05)
(-0.00237847 -0.000660168 1.4026e-05)
(-0.00049466 -2.64487e-05 7.46389e-05)
(-0.000608942 -7.3408e-05 -6.86327e-05)
(-0.000660162 -0.000119107 -6.8095e-05)
(-0.000707376 -0.000169557 -5.74731e-05)
(-0.00076509 -0.000222261 -3.83114e-05)
(-0.000841903 -0.000275683 -1.32734e-05)
(-0.000938212 -0.000326708 1.78039e-05)
(-0.00104786 -0.000370363 5.42483e-05)
(-0.00116228 -0.000402415 9.32146e-05)
(-0.00127354 -0.000421384 0.000130884)
(-0.00137564 -0.000428681 0.000163856)
(-0.00146494 -0.000427696 0.000189848)
(-0.0015401 -0.000422512 0.000207932)
(-0.00160194 -0.000416839 0.000218478)
(-0.00165287 -0.000413298 0.000222782)
(-0.00169594 -0.000413096 0.00022245)
(-0.001734 -0.000416267 0.000218849)
(-0.00176948 -0.0004224 0.000213008)
(-0.00180403 -0.000430671 0.000205569)
(-0.00183889 -0.000440451 0.000196909)
(-0.00187501 -0.000451284 0.00018724)
(-0.00191304 -0.000462823 0.000176674)
(-0.0019533 -0.000474821 0.000165243)
(-0.00199618 -0.000487327 0.000153054)
(-0.00204173 -0.000500258 0.000140133)
(-0.0020899 -0.000513477 0.000126553)
(-0.00214015 -0.000526782 0.000112328)
(-0.00219164 -0.000539852 9.73388e-05)
(-0.00224298 -0.000552151 8.09844e-05)
(-0.00229185 -0.000562952 6.21284e-05)
(-0.00233377 -0.000571419 3.91052e-05)
(-0.00235882 -0.000576392 1.30208e-05)
(-0.000470153 -5.2931e-07 8.33865e-05)
(-0.000586534 -4.17192e-05 -6.73893e-05)
(-0.000634976 -8.28663e-05 -6.89874e-05)
(-0.000676558 -0.000129021 -6.06471e-05)
(-0.000727345 -0.000177454 -4.48544e-05)
(-0.000797961 -0.000227256 -2.39663e-05)
(-0.000890603 -0.000276082 2.90756e-06)
(-0.000999787 -0.000319012 3.5963e-05)
(-0.00111641 -0.000351212 7.28265e-05)
(-0.0012315 -0.000370476 0.000109664)
(-0.00133807 -0.000377754 0.000142825)
(-0.00143181 -0.000376258 0.000169722)
(-0.00151096 -0.000370129 0.000189125)
(-0.00157609 -0.000363197 0.000201138)
(-0.00162947 -0.000358214 0.000206852)
(-0.0016741 -0.000356483 0.000207769)
(-0.00171291 -0.0003581 0.000205228)
(-0.00174837 -0.000362673 0.000200266)
(-0.00178232 -0.000369394 0.000193551)
(-0.00181615 -0.000377628 0.000185485)
(-0.00185096 -0.000386899 0.00017631)
(-0.00188754 -0.000396833 0.000166171)
(-0.00192635 -0.000407164 0.000155146)
(-0.00196782 -0.000417898 0.000143395)
(-0.00201201 -0.000428965 0.000130972)
(-0.00205895 -0.000440245 0.000117983)
(-0.00210812 -0.000451542 0.000104496)
(-0.00215867 -0.000462598 9.0407e-05)
(-0.00220929 -0.000472937 7.51477e-05)
(-0.00225771 -0.000481957 5.75515e-05)
(-0.00229975 -0.000488881 3.6107e-05)
(-0.00232496 -0.000492882 1.19868e-05)
(-0.000440861 2.21333e-05 8.95432e-05)
(-0.000558092 -1.29825e-05 -6.56195e-05)
(-0.00060401 -4.98231e-05 -6.91612e-05)
(-0.000639923 -9.18608e-05 -6.27198e-05)
(-0.000683094 -0.000135945 -4.9939e-05)
(-0.000746205 -0.000181722 -3.3142e-05)
(-0.000833713 -0.000227778 -1.08387e-05)
(-0.00094127 -0.000269541 1.81878e-05)
(-0.00105943 -0.000301692 5.22977e-05)
(-0.00117814 -0.00032123 8.781e-05)
(-0.00128926 -0.000328516 0.000120863)
(-0.00138759 -0.000326513 0.000148543)
(-0.0014709 -0.000319366 0.000169284)
(-0.00153946 -0.000311056 0.00018288)
(-0.00159534 -0.000304487 0.000190181)
(-0.00164148 -0.000301092 0.000192532)
(-0.00168087 -0.000301078 0.000191223)
(-0.00171613 -0.000304057 0.000187282)
(-0.00174921 -0.00030925 0.00018139)
(-0.00178171 -0.000315993 0.000173979)
(-0.00181489 -0.00032377 0.00016532)
(-0.00184969 -0.000332184 0.000155607)
(-0.00188672 -0.000340936 0.000144972)
(-0.00192645 -0.000349975 0.000133644)
(-0.00196898 -0.00035926 0.00012171)
(-0.00201438 -0.00036866 0.000109301)
(-0.00206219 -0.000378003 9.65531e-05)
(-0.00211154 -0.000387097 8.33689e-05)
(-0.00216121 -0.000395511 6.92176e-05)
(-0.00220896 -0.000402771 5.28777e-05)
(-0.00225103 -0.000408126 3.30249e-05)
(-0.00227635 -0.000411131 1.09247e-05)
(-0.000407023 4.09887e-05 9.29641e-05)
(-0.000523669 1.21333e-05 -6.32666e-05)
(-0.000567342 -2.05798e-05 -6.8598e-05)
(-0.000597789 -5.87316e-05 -6.37094e-05)
(-0.000632903 -9.8543e-05 -5.34718e-05)
(-0.000687242 -0.000139993 -4.05136e-05)
(-0.000767968 -0.000182718 -2.30006e-05)
(-0.000872436 -0.000222806 1.37724e-06)
(-0.000991254 -0.000254662 3.20064e-05)
(-0.00111322 -0.000274451 6.55942e-05)
(-0.00122889 -0.000281812 9.81515e-05)
(-0.00133198 -0.000279347 0.00012643)
(-0.00141962 -0.000271167 0.000148489)
(-0.00149169 -0.0002614 0.000163766)
(-0.00155009 -0.000253139 0.000172822)
(-0.0015977 -0.000247998 0.000176806)
(-0.00163757 -0.000246306 0.000176915)
(-0.00167238 -0.000247702 0.000174139)
(-0.00170429 -0.000251418 0.000169168)
(-0.00173511 -0.000256763 0.00016246)
(-0.00176629 -0.000263168 0.000154327)
(-0.00179896 -0.00027018 0.000145026)
(-0.00183387 -0.000277475 0.000134755)
(-0.00187159 -0.000284941 0.00012383)
(-0.00191213 -0.000292549 0.00011237)
(-0.00195574 -0.000300175 0.000100527)
(-0.00200192 -0.000307648 8.85149e-05)
(-0.00204979 -0.000314855 7.62396e-05)
(-0.00209826 -0.000321403 6.32061e-05)
(-0.00214512 -0.000326954 4.81133e-05)
(-0.00218713 -0.000330719 2.9858e-05)
(-0.00221259 -0.000332723 9.83483e-06)
(-0.000369023 5.55739e-05 9.35978e-05)
(-0.000483466 3.2997e-05 -6.02983e-05)
(-0.000525165 4.29835e-06 -6.72655e-05)
(-0.000550569 -3.02127e-05 -6.36403e-05)
(-0.000577475 -6.59599e-05 -5.54095e-05)
(-0.000621963 -0.000102927 -4.58246e-05)
(-0.000694099 -0.000141804 -3.30958e-05)
(-0.000793719 -0.000179641 -1.39061e-05)
(-0.000911977 -0.000210879 1.24533e-05)
(-0.00103665 -0.000230874 4.33974e-05)
(-0.00115677 -0.000238403 7.49583e-05)
(-0.00126477 -0.000235586 0.00010357)
(-0.00135692 -0.00022643 0.000126877)
(-0.00143265 -0.000215202 0.000143913)
(-0.00149359 -0.000205213 0.000154888)
(-0.00154256 -0.00019829 0.000160697)
(-0.00158266 -0.000194919 0.000162401)
(-0.00161673 -0.000194786 0.000160932)
(-0.00164717 -0.000197135 0.000156972)
(-0.00167596 -0.000201224 0.000151004)
(-0.00170477 -0.000206416 0.00014339)
(-0.00173497 -0.000212193 0.00013447)
(-0.00176742 -0.000218185 0.000124522)
(-0.0018028 -0.000224219 0.000113971)
(-0.0018411 -0.000230295 0.00010297)
(-0.0018826 -0.000236275 9.16715e-05)
(-0.00192693 -0.000241986 8.03938e-05)
(-0.00197305 -0.000247412 6.90311e-05)
(-0.00202011 -0.000252189 5.71279e-05)
(-0.00206584 -0.000256109 4.32642e-05)
(-0.00210778 -0.000258276 2.66054e-05)
(-0.00213332 -0.000259268 8.71736e-06)
(-0.000327467 6.5558e-05 9.15316e-05)
(-0.000437926 4.90738e-05 -5.67262e-05)
(-0.000477885 2.43155e-05 -6.51478e-05)
(-0.000498877 -6.77913e-06 -6.25577e-05)
(-0.000517774 -3.87653e-05 -5.57761e-05)
(-0.000551641 -7.12918e-05 -4.88956e-05)
(-0.000613352 -0.000105872 -4.06395e-05)
(-0.000705977 -0.000140842 -2.70037e-05)
(-0.000822056 -0.00017103 -5.71709e-06)
(-0.000948635 -0.000191142 2.17441e-05)
(-0.00107299 -0.000198955 5.16776e-05)
(-0.001186 -0.000195951 8.02542e-05)
(-0.00128281 -0.000185951 0.000104673)
(-0.00136225 -0.000173332 0.0001235)
(-0.00142569 -0.000161657 0.000136531)
(-0.00147591 -0.000153005 0.00014435)
(-0.00151605 -0.000148038 0.000147826)
(-0.00154908 -0.0001465 0.00014779)
(-0.00157762 -0.000147642 0.000144906)
(-0.00160395 -0.000150665 0.000139688)
(-0.00163001 -0.000154847 0.000132561)
(-0.00165734 -0.00015958 0.000123969)
(-0.00168704 -0.000164454 0.000114291)
(-0.00171985 -0.00016923 0.000104082)
(-0.00175557 -0.000173932 9.35205e-05)
(-0.00179476 -0.000178428 8.27463e-05)
(-0.00183697 -0.000182506 7.21985e-05)
(-0.00188113 -0.000186286 6.1755e-05)
(-0.00192651 -0.000189408 5.09951e-05)
(-0.00197092 -0.00019182 3.83367e-05)
(-0.00201268 -0.000192378 2.32641e-05)
(-0.00203838 -0.000192366 7.57304e-06)
(-0.000283123 7.07648e-05 8.69679e-05)
(-0.000387758 5.99694e-05 -5.258e-05)
(-0.000426068 3.90977e-05 -6.22353e-05)
(-0.000443432 1.12428e-05 -6.05175e-05)
(-0.000454917 -1.73357e-05 -5.4656e-05)
(-0.000477802 -4.56492e-05 -4.96665e-05)
(-0.000527409 -7.56515e-05 -4.5213e-05)
(-0.000610572 -0.000107077 -3.71689e-05)
(-0.0007224 -0.00013569 -2.17156e-05)
(-0.000849635 -0.000155729 1.31751e-06)
(-0.000977824 -0.000163939 2.88442e-05)
(-0.00109583 -0.00016097 5.68951e-05)
(-0.00119743 -0.000150346 8.22069e-05)
(-0.00128069 -0.000136525 0.00010281)
(-0.0013466 -0.00012332 0.000118002)
(-0.00139781 -0.000113083 0.000127976)
(-0.00143758 -0.000106681 0.000133354)
(-0.00146915 -0.000103943 0.000134845)
(-0.00149542 -0.000104116 0.000133074)
(-0.00151889 -0.000106321 0.000128586)
(-0.00154179 -0.000109736 0.000121884)
(-0.00156597 -0.00011365 0.000113548)
(-0.00159259 -0.000117601 0.000104069)
(-0.00162254 -0.000121301 9.41629e-05)
(-0.00165553 -0.000124819 8.40312e-05)
(-0.00169208 -0.000128005 7.37531e-05)
(-0.00173204 -0.000130597 6.39363e-05)
(-0.00177395 -0.000132886 5.44204e-05)
(-0.00181751 -0.000134511 4.48257e-05)
(-0.00186029 -0.000135564 3.33387e-05)
(-0.00190198 -0.000134533 1.98342e-05)
(-0.00192778 -0.000133525 6.40326e-06)
(-0.000236981 7.12272e-05 8.02516e-05)
(-0.000333993 6.54983e-05 -4.79116e-05)
(-0.000370651 4.84603e-05 -5.85432e-05)
(-0.000385259 2.37341e-05 -5.75993e-05)
(-0.000390312 -1.80297e-06 -5.22121e-05)
(-0.000402415 -2.62951e-05 -4.82244e-05)
(-0.000438686 -5.1703e-05 -4.65823e-05)
(-0.000509726 -7.8947e-05 -4.36855e-05)