/*--------------------------------*- C++ -*----------------------------------*\
  =========                 |
  \\      /  F ield         | OpenFOAM: The Open Source CFD Toolbox
   \\    /   O peration     | Website:  https://openfoam.org
    \\  /    A nd           | Version:  6
     \\/     M anipulation  |
\*---------------------------------------------------------------------------*/
FoamFile
{
    version     2.0;
    format      ascii;
    class       volScalarField;
    location    "0";
    object      omega;
}
// * * * * * * * * * * * * * * * * * * * * * * * * * * * * * * * * * * * * * //

dimensions      [0 0 -1 0 0 0 0];

internalField   nonuniform List<scalar> 
380496
(
709.322
708.368
707.307
706.101
704.676
702.891
700.438
696.553
688.961
669.22
600.57
638.022
678.061
691.462
697.727
701.558
704.383
706.735
708.843
710.821
712.728
714.598
716.453
718.304
720.16
722.026
723.906
725.802
734.979
733.167
731.468
729.871
728.364
726.937
725.581
709.31
708.353
707.29
706.082
704.66
702.893
700.51
696.887
690.399
676.078
640.511
657.301
682.259
692.589
698.082
701.679
704.423
706.743
708.84
710.813
712.718
714.588
716.443
718.294
720.149
722.015
723.895
725.79
734.971
733.161
731.464
729.868
728.361
726.935
725.58
709.234
708.324
707.327
706.215
704.936
703.392
701.371
698.355
692.846
679.486
641.322
659.931
685.464
694.822
699.541
702.642
705.069
707.18
709.133
711.004
712.835
714.65
716.462
718.28
720.11
721.956
723.819
725.702
734.872
733.07
731.383
729.798
728.305
726.893
725.554
709.205
708.286
707.277
706.147
704.839
703.243
701.119
697.857
691.573
674.612
606.336
645.193
682.393
693.756
699.03
702.342
704.87
707.037
709.024
710.918
712.765
714.592
716.413
718.239
720.076
721.927
723.795
725.682
734.855
733.048
731.357
729.768
728.271
726.854
725.511
709.197
708.276
707.266
706.135
704.83
703.251
701.19
698.174
692.986
682.227
658.534
669.425
686.833
694.855
699.37
702.463
704.916
707.054
709.029
710.918
712.763
714.589
716.41
718.235
720.07
721.92
723.787
725.672
734.85
733.046
731.356
729.769
728.273
726.858
725.516
708.96
708.07
707.104
706.037
704.826
703.391
701.551
698.844
693.794
680.009
621.623
654.758
686.457
695.672
700.02
702.87
705.139
707.149
709.033
710.858
712.656
714.447
716.243
718.049
719.871
721.711
723.571
725.452
734.631
732.828
731.142
729.558
728.067
726.659
725.325
708.943
708.049
707.077
706.001
704.778
703.326
701.463
698.742
693.809
681.352
634.032
660.37
687.059
695.644
699.922
702.781
705.067
707.09
708.986
710.819
712.624
714.421
716.22
718.029
719.854
721.696
723.557
725.439
734.621
732.818
731.13
729.546
728.054
726.644
725.309
708.576
707.706
706.768
705.744
704.602
703.28
701.646
699.355
695.301
684.568
637.188
664.44
689.646
696.927
700.536
703.039
705.12
707.018
708.831
710.609
712.375
714.144
715.924
717.719
719.533
721.368
723.225
725.105
734.303
732.5
730.814
729.232
727.743
726.338
725.009
708.56
707.685
706.74
705.707
704.55
703.205
701.529
699.157
694.919
683.614
628.741
661.83
688.956
696.589
700.336
702.908
705.027
706.947
708.777
710.565
712.339
714.114
715.898
717.697
719.515
721.352
723.212
725.093
734.293
732.488
730.801
729.217
727.727
726.32
724.988
708.058
707.2
706.281
705.287
704.192
702.951
701.464
699.474
696.149
687.734
649.472
671.926
691.753
697.589
700.661
702.914
704.861
706.68
708.446
710.192
711.938
713.694
715.465
717.256
719.068
720.903
722.761
724.643
733.871
732.064
730.375
728.792
727.302
725.898
724.569
708.043
707.182
706.257
705.254
704.146
702.883
701.355
699.273
695.679
685.899
627.42
664.922
690.637
697.19
700.455
702.786
704.773
706.615
708.395
710.151
711.905
713.666
715.442
717.236
719.051
720.888
722.749
724.633
733.862
732.054
730.363
728.778
727.286
725.879
724.548
707.389
706.539
705.632
704.656
703.593
702.408
701.024
699.245
696.431
689.584
656.632
676.516
692.897
697.742
700.438
702.516
704.372
706.138
707.873
709.6
711.336
713.086
714.855
716.646
718.461
720.299
722.163
724.05
733.32
731.507
729.812
728.224
726.73
725.322
723.991
707.377
706.523
705.612
704.629
703.556
702.352
700.934
699.079
696.035
687.937
632.43
669.522
691.922
697.407
700.267
702.41
704.298
706.084
707.83
709.566
711.308
713.062
714.835
716.63
718.447
720.287
722.153
724.042
733.313
731.498
729.802
728.212
726.717
725.307
723.973
706.534
705.686
704.785
703.82
702.777
701.628
700.313
698.677
696.205
690.288
655.42
677.929
693.21
697.432
699.876
701.838
703.633
705.368
707.085
708.805
710.537
712.289
714.062
715.858
717.68
719.527
721.399
723.296
732.621
730.798
729.094
727.498
725.997
724.582
723.245
706.525
705.675
704.77
703.8
702.749
701.587
700.248
698.561
695.949
689.379
641.798
674.357
692.641
697.212
699.757
701.763
703.581
705.329
707.055
708.78
710.517
712.272
714.047
715.846
717.67
719.518
721.391
723.29
732.616
730.791
729.087
727.489
725.987
724.571
723.233
705.418
704.569
703.668
702.708
701.675
700.548
699.278
697.742
695.516
690.271
648.797
677.916
692.916
696.683
698.949
700.832
702.59
704.308
706.019
707.739
709.476
711.234
713.017
714.824
716.657
718.517
720.402
722.314
731.712
729.874
728.158
726.55
725.038
723.614
722.268
705.412
704.562
703.659
702.695
701.657
700.522
699.238
697.675
695.398
690.188
658.213
679.405
692.775
696.577
698.882
700.788
702.559
704.285
706.001
707.725
709.465
711.225
713.009
714.817
716.651
718.511
720.398
722.31
731.709
729.871
728.154
726.546
725.034
723.609
722.262
703.855
703.001
702.096
701.134
700.104
698.987
697.746
696.28
694.248
689.685
645.988
678.382
692.014
695.37
697.5
699.331
701.069
702.783
704.498
706.227
707.977
709.75
711.548
713.373
715.224
717.103
719.008
720.941
730.443
728.585
726.851
725.225
723.697
722.258
720.899
603.985
602.553
601.049
599.467
597.807
596.068
594.256
592.401
590.618
589.538
592.116
590.944
590.186
592.098
594.504
597.087
599.773
602.534
605.36
608.245
611.188
614.185
617.235
620.338
623.491
626.695
629.947
633.247
649.517
646.343
643.379
640.603
637.997
635.542
633.226
603.903
602.448
600.911
599.282
597.547
595.684
593.649
591.333
588.372
582.831
553.882
572.424
585.651
590.156
593.427
596.399
599.292
602.177
605.083
608.024
611.006
614.033
617.106
620.226
623.393
626.608
629.87
633.178
649.459
646.278
643.308
640.525
637.91
635.447
633.121
425.136
425.122
425.1
425.063
425.002
424.894
424.691
424.257
423.109
418.431
356.504
403.165
420.77
423.405
424.238
424.599
424.783
424.887
424.947
424.984
425.005
425.017
425.022
425.022
425.019
425.013
425.005
424.995
424.925
424.935
424.943
424.95
424.956
424.96
424.963
348.004
348.483
349.014
349.616
350.325
351.209
352.418
354.315
357.967
367.124
395.627
380.67
363.083
356.773
353.745
351.868
350.472
349.301
348.246
347.25
346.284
345.332
344.384
343.432
342.472
341.502
340.52
339.524
334.626
335.603
336.515
337.368
338.169
338.925
339.64
348.008
348.489
349.02
349.622
350.328
351.201
352.372
354.136
357.252
363.948
379.576
372.37
361.088
356.205
353.555
351.797
350.443
349.29
348.242
347.249
346.286
345.334
344.386
343.435
342.475
341.506
340.524
339.529
334.629
335.605
336.516
337.368
338.169
338.924
339.639
347.046
347.504
348.004
348.561
349.2
349.97
350.972
352.46
355.15
361.503
378.41
370.383
358.69
354.192
351.88
350.347
349.139
348.083
347.102
346.157
345.227
344.302
343.373
342.437
341.489
340.529
339.554
338.564
333.666
334.639
335.545
336.393
337.188
337.936
338.643
347.059
347.52
348.026
348.591
349.242
350.033
351.081
352.679
355.718
363.673
392.464
376.671
360.068
354.668
352.106
350.478
349.226
348.146
347.15
346.195
345.258
344.328
343.395
342.455
341.505
340.542
339.565
338.573
333.673
334.648
335.557
336.406
337.203
337.954
338.663
347.06
347.522
348.028
348.592
349.24
350.02
351.031
352.5
354.995
360.061
370.771
365.919
357.908
354.098
351.915
350.402
349.191
348.128
347.14
346.188
345.254
344.325
343.393
342.454
341.505
340.543
339.567
338.576
333.674
334.648
335.555
336.403
337.199
337.949
338.657
345.793
346.241
346.726
347.261
347.866
348.581
349.494
350.831
353.3
359.87
385.183
371.284
356.828
352.387
350.254
348.843
347.713
346.706
345.758
344.835
343.921
343.007
342.085
341.154
340.209
339.25
338.276
337.286
332.375
333.35
334.257
335.105
335.9
336.648
337.353
345.798
346.248
346.735
347.273
347.882
348.602
349.52
350.851
353.237
359.129
379.975
368.663
356.452
352.351
350.272
348.867
347.734
346.725
345.773
344.848
343.932
343.016
342.093
341.16
340.215
339.256
338.281
337.29
332.378
333.353
334.261
335.109
335.904
336.653
337.359
344.208
344.647
345.12
345.635
346.207
346.868
347.684
348.823
350.825
356.023
377.2
365.352
353.584
350.028
348.241
346.994
345.952
344.998
344.083
343.181
342.281
341.376
340.46
339.532
338.589
337.631
336.656
335.664
330.734
331.711
332.62
333.468
334.264
335.011
335.716
344.214
344.654
345.129
345.647
346.225
346.894
347.723
348.888
350.95
356.339
380.525
366.319
353.811
350.139
348.307
347.038
345.984
345.022
344.101
343.196
342.294
341.386
340.469
339.539
338.596
337.636
336.661
335.668
330.737
331.714
332.624
333.474
334.27
335.018
335.723
342.268
342.702
343.166
343.668
344.219
344.842
345.588
346.584
348.242
352.383
369.98
359.891
350.419
347.53
345.996
344.867
343.888
342.97
342.076
341.187
340.295
339.393
338.479
337.551
336.607
335.646
334.668
333.673
328.713
329.694
330.607
331.459
332.257
333.006
333.713
342.273
342.708
343.174
343.679
344.234
344.864
345.624
346.652
348.412
353.117
379.064
362.841
350.851
347.673
346.067
344.91
343.918
342.992
342.093
341.201
340.306
339.403
338.487
337.558
336.613
335.651
334.672
333.676
328.715
329.698
330.611
331.464
332.263
333.013
333.72
339.893
340.325
340.785
341.278
341.815
342.413
343.11
344.006
345.423
348.842
364.359
355.186
347.198
344.769
343.413
342.365
341.429
340.534
339.652
338.77
337.88
336.978
336.062
335.131
334.182
333.216
332.232
331.23
326.232
327.221
328.139
328.997
329.799
330.553
331.263
339.896
340.329
340.791
341.286
341.826
342.429
343.137
344.057
345.555
349.48
374.471
358.13
347.558
344.88
343.466
342.398
341.451
340.55
339.665
338.78
337.888
336.985
336.068
335.136
334.186
333.22
332.235
331.232
326.234
327.223
328.143
329.001
329.804
330.558
331.269
336.935
337.367
337.826
338.316
338.844
339.426
340.091
340.918
342.171
345.157
361.73
351.239
343.69
341.556
340.319
339.327
338.416
337.534
336.658
335.776
334.885
333.979
333.058
332.12
331.164
330.19
329.198
328.187
323.14
324.138
325.065
325.93
326.74
327.5
328.215
336.937
337.37
337.829
338.32
338.851
339.435
340.105
340.944
342.232
345.425
367.244
352.551
343.845
341.608
340.346
339.343
338.428
337.543
336.665
335.782
334.889
333.983
333.061
332.123
331.166
330.192
329.199
328.188
323.141
324.139
325.067
325.932
326.742
327.502
328.218
333.079
333.513
333.973
334.463
334.988
335.56
336.204
336.982
338.112
340.77
360.475
346.893
339.436
337.525
336.376
335.421
334.526
333.65
332.773
331.889
330.991
330.078
329.148
328.201
327.235
326.251
325.248
324.225
319.118
320.127
321.065
321.94
322.759
323.527
324.25
333.079
333.513
333.973
334.463
334.988
335.56
336.204
336.981
338.099
340.61
355.481
345.702
339.366
337.516
336.375
335.42
334.526
333.65
332.773
331.888
330.991
330.078
329.148
328.201
327.235
326.251
325.247
324.225
319.118
320.127
321.065
321.94
322.758
323.526
324.25
327.297
327.735
328.197
328.687
329.211
329.777
330.405
331.145
332.17
334.468
355.398
340.08
333.299
331.608
330.532
329.605
328.722
327.848
326.969
326.079
325.175
324.255
323.316
322.359
321.384
320.389
319.374
318.34
313.174
314.195
315.143
316.028
316.855
317.632
318.363
280.268
280.541
280.833
281.148
281.493
281.882
282.347
282.969
284.037
287.144
314.694
295.337
285.596
283.581
282.603
281.895
281.281
280.706
280.144
279.585
279.023
278.455
277.878
277.293
276.697
276.091
275.474
274.845
271.716
272.336
272.912
273.45
273.954
274.427
274.873
280.235
280.499
280.778
281.074
281.39
281.731
282.108
282.549
283.153
284.476
297.713
287.705
283.802
282.817
282.178
281.623
281.091
280.564
280.034
279.496
278.95
278.393
277.826
277.247
276.657
276.056
275.442
274.817
271.691
272.309
272.882
273.417
273.918
274.388
274.83
155.176
156.057
156.983
157.957
158.981
160.057
161.183
162.348
163.505
164.353
159.343
163.537
163.877
162.584
161.061
159.452
157.791
156.088
154.348
152.572
150.763
148.92
147.046
145.139
143.202
141.234
139.236
137.209
127.218
129.168
130.989
132.694
134.295
135.803
137.227
144.098
144.19
144.292
144.408
144.544
144.714
144.946
145.311
146.013
147.776
153.287
150.391
146.997
145.783
145.201
144.84
144.572
144.347
144.144
143.953
143.767
143.584
143.401
143.218
143.034
142.847
142.658
142.467
141.525
141.713
141.888
142.052
142.206
142.352
142.489
144.097
144.189
144.29
144.405
144.539
144.705
144.926
145.259
145.845
147.113
150.122
148.728
146.57
145.647
145.147
144.814
144.557
144.338
144.138
143.948
143.763
143.581
143.399
143.217
143.032
142.846
142.658
142.466
141.524
141.712
141.887
142.051
142.204
142.349
142.487
143.02
143.109
143.206
143.314
143.438
143.588
143.784
144.076
144.606
145.854
149.133
147.583
145.304
144.419
143.965
143.665
143.429
143.224
143.034
142.851
142.672
142.493
142.314
142.133
141.95
141.765
141.577
141.387
140.443
140.631
140.805
140.969
141.122
141.266
141.403
143.021
143.11
143.207
143.315
143.441
143.593
143.794
144.1
144.683
146.213
151.787
148.724
145.519
144.481
143.99
143.677
143.437
143.229
143.038
142.854
142.674
142.495
142.315
142.134
141.951
141.766
141.578
141.387
140.444
140.631
140.806
140.97
141.123
141.268
141.404
143.02
143.108
143.204
143.312
143.435
143.583
143.773
144.047
144.511
145.454
147.484
146.557
145.052
144.342
143.935
143.65
143.421
143.219
143.03
142.848
142.669
142.491
142.312
142.132
141.949
141.764
141.577
141.386
140.442
140.63
140.804
140.967
141.121
141.265
141.401
141.693
141.78
141.873
141.976
142.093
142.231
142.408
142.667
143.147
144.423
149.309
146.63
143.833
142.97
142.556
142.283
142.065
141.871
141.688
141.51
141.335
141.159
140.982
140.802
140.621
140.437
140.249
140.059
139.116
139.303
139.477
139.64
139.793
139.937
140.072
141.693
141.779
141.872
141.975
142.091
142.227
142.401
142.652
143.099
144.209
148.217
146.028
143.703
142.932
142.54
142.275
142.06
141.867
141.685
141.508
141.333
141.157
140.98
140.801
140.62
140.436
140.249
140.058
139.115
139.302
139.477
139.639
139.792
139.936
140.071
140.104
140.188
140.278
140.377
140.487
140.615
140.772
140.994
141.385
142.402
146.486
144.211
141.926
141.231
140.883
140.641
140.441
140.257
140.082
139.909
139.737
139.563
139.388
139.211
139.03
138.847
138.661
138.471
137.529
137.716
137.89
138.052
138.204
138.347
138.482
140.103
140.187
140.278
140.376
140.486
140.612
140.769
140.988
141.374
142.385
147.016
144.28
141.909
141.221
140.877
140.637
140.438
140.255
140.08
139.908
139.735
139.562
139.387
139.21
139.03
138.847
138.66
138.471
137.529
137.716
137.889
138.051
138.203
138.346
138.481
138.213
138.295
138.383
138.479
138.584
138.703
138.847
139.04
139.365
140.181
143.583
141.647
139.796
139.228
138.929
138.711
138.524
138.349
138.178
138.01
137.84
137.669
137.496
137.32
137.141
136.959
136.774
136.585
135.647
135.832
136.005
136.167
136.318
136.46
136.594
138.212
138.294
138.383
138.478
138.582
138.701
138.844
139.036
139.364
140.242
145.173
142.075
139.819
139.226
138.926
138.708
138.522
138.347
138.177
138.009
137.839
137.669
137.495
137.32
137.141
136.959
136.773
136.585
135.646
135.832
136.005
136.166
136.317
136.459
136.593
135.944
136.025
136.111
136.204
136.305
136.418
136.551
136.723
137
137.676
140.687
138.924
137.352
136.875
136.612
136.412
136.235
136.066
135.901
135.735
135.568
135.4
135.228
135.054
134.877
134.696
134.512
134.325
133.39
133.575
133.747
133.907
134.057
134.198
134.331
135.943
136.024
136.11
136.202
136.303
136.415
136.546
136.717
136.992
137.714
142.401
139.319
137.36
136.867
136.606
136.408
136.232
136.064
135.899
135.734
135.567
135.399
135.227
135.053
134.876
134.695
134.511
134.324
133.39
133.574
133.746
133.907
134.057
134.198
134.33
133.158
133.237
133.322
133.412
133.51
133.618
133.742
133.899
134.14
134.725
137.909
135.912
134.438
134.024
133.789
133.603
133.434
133.271
133.109
132.947
132.783
132.616
132.447
132.274
132.099
131.92
131.738
131.552
130.626
130.809
130.979
131.138
131.287
131.426
131.558
133.157
133.236
133.32
133.41
133.507
133.614
133.736
133.887
134.118
134.685
138.683
135.967
134.404
134.005
133.777
133.595
133.428
133.267
133.106
132.944
132.781
132.614
132.445
132.273
132.098
131.919
131.737
131.551
130.625
130.808
130.978
131.137
131.286
131.425
131.556
129.562
129.639
129.722
129.81
129.904
130.007
130.124
130.266
130.476
130.981
134.674
132.146
130.729
130.369
130.158
129.984
129.823
129.666
129.509
129.35
129.19
129.026
128.86
128.691
128.518
128.342
128.163
127.98
127.068
127.249
127.416
127.572
127.719
127.856
127.985
129.56
129.638
129.72
129.807
129.9
130.001
130.114
130.248
130.438
130.851
133.388
131.691
130.645
130.336
130.14
129.973
129.815
129.66
129.504
129.346
129.186
129.024
128.858
128.689
128.517
128.341
128.162
127.979
127.067
127.247
127.415
127.571
127.717
127.854
127.983
124.231
124.305
124.383
124.466
124.555
124.651
124.758
124.884
125.062
125.468
129.282
126.479
125.262
124.966
124.781
124.623
124.473
124.325
124.176
124.026
123.873
123.717
123.559
123.397
123.232
123.064
122.893
122.718
121.846
122.018
122.178
122.328
122.468
122.599
122.722
100.644
100.648
100.653
100.661
100.674
100.696
100.736
100.819
101.036
101.878
109.865
104.307
101.464
100.981
100.823
100.752
100.716
100.694
100.681
100.672
100.666
100.662
100.66
100.658
100.657
100.656
100.656
100.656
100.663
100.662
100.662
100.662
100.662
100.662
100.663
100.629
100.629
100.628
100.628
100.627
100.627
100.628
100.63
100.637
100.68
102.619
100.937
100.657
100.635
100.631
100.63
100.63
100.63
100.631
100.632
100.633
100.635
100.636
100.637
100.639
100.64
100.642
100.643
100.652
100.65
100.649
100.647
100.646
100.645
100.644
30.3437
30.4677
30.5972
30.7321
30.8714
31.013
31.1515
31.2705
31.3113
30.9293
23.8257
29.1935
31.1122
31.2116
31.0847
30.8945
30.6777
30.4461
30.2047
29.9555
29.6999
29.4385
29.1717
28.8999
28.6233
28.342
28.0563
27.7661
26.3333
26.6126
26.8732
27.1172
27.3462
27.5617
27.765
81.6631
81.6912
81.7222
81.7575
81.7989
81.8506
81.9212
82.0321
82.2459
82.7849
84.4814
83.5876
82.5466
82.1759
81.9987
81.8889
81.8073
81.7388
81.677
81.6187
81.5621
81.5064
81.4508
81.395
81.3388
81.2819
81.2243
81.1659
80.8788
80.9361
80.9895
81.0395
81.0865
81.1308
81.1727
81.6619
81.6896
81.7202
81.7546
81.7947
81.8438
81.909
82.0064
82.1781
82.5534
83.4726
83.0425
82.3913
82.1191
81.9722
81.8741
81.7978
81.7322
81.6721
81.6148
81.559
81.5038
81.4486
81.3931
81.3372
81.2805
81.2232
81.165
80.8778
80.935
80.9882
81.0381
81.0849
81.129
81.1707
80.7906
80.8177
80.8473
80.8805
80.9188
80.9653
81.0266
81.1186
81.286
81.678
82.6849
82.2124
81.5059
81.2277
81.0848
80.9911
80.9181
80.8549
80.7966
80.7407
80.6859
80.6315
80.577
80.5221
80.4667
80.4105
80.3534
80.2956
80.0095
80.0664
80.1193
80.1689
80.2154
80.2592
80.3006
80.7899
80.8167
80.8461
80.8789
80.9167
80.9625
81.0231
81.1152
81.2906
81.7533
83.4599
82.5186
81.5429
81.2298
81.0818
80.9877
80.9152
80.8525
80.7946
80.739
80.6845
80.6303
80.5759
80.5212
80.4658
80.4096
80.3526
80.2948
80.0088
80.0657
80.1187
80.1682
80.2147
80.2585
80.2998
80.7885
80.815
80.8438
80.8758
80.9121
80.9553
81.0104
81.0889
81.2202
81.4874
82.0844
81.8071
81.3724
81.1711
81.0546
80.9723
80.9052
80.8454
80.7892
80.7348
80.6811
80.6274
80.5735
80.5191
80.464
80.4081
80.3513
80.2937
80.0078
80.0645
80.1172
80.1666
80.2129
80.2564
80.2975
79.7675
79.7936
79.8219
79.8531
79.8885
79.9306
79.9846
80.0642
80.2119
80.6042
82.0905
81.2777
80.4233
80.1579
80.0308
79.9473
79.8808
79.8219
79.7666
79.7129
79.6598
79.6067
79.5533
79.4992
79.4445
79.389
79.3325
79.2751
78.9908
79.0472
79.0998
79.1489
79.1949
79.2382
79.2791
79.7664
79.7921
79.82
79.8505
79.8849
79.9252
79.976
80.0486
80.1774
80.499
81.709
81.0404
80.3513
80.1283
80.015
79.9374
79.874
79.8169
79.7627
79.7098
79.6572
79.6045
79.5514
79.4976
79.4431
79.3877
79.3314
79.2741
78.9898
79.0462
79.0986
79.1476
79.1935
79.2367
79.2775
78.5795
78.6049
78.6322
78.662
78.6954
78.7342
78.7827
78.8513
78.9737
79.2918
80.538
79.8495
79.1436
78.9262
78.8181
78.7438
78.6826
78.6271
78.574
78.522
78.4702
78.4181
78.3656
78.3123
78.2583
78.2034
78.1475
78.0907
77.8085
77.8644
77.9164
77.9651
78.0106
78.0534
78.0938
78.5785
78.6035
78.6304
78.6597
78.6922
78.7295
78.7753
78.8389
78.9501
79.2424
80.6364
79.8039
79.104
78.9053
78.8056
78.7356
78.6768
78.6227
78.5706
78.5192
78.4679
78.4162
78.3639
78.3109
78.257
78.2022
78.1465
78.0898
77.8076
77.8635
77.9155
77.964
78.0095
78.0522
78.0925
77.1922
77.2169
77.2433
77.2721
77.3038
77.3401
77.3842
77.4445
77.5477
77.8091
78.8632
78.2715
77.6863
77.5052
77.4115
77.3444
77.2873
77.2345
77.1833
77.1327
77.0821
77.0311
76.9794
76.9269
76.8737
76.8194
76.7643
76.7081
76.4286
76.4839
76.5354
76.5834
76.6285
76.6707
76.7106
77.1912
77.2157
77.2418
77.2699
77.3009
77.3358
77.3776
77.4337
77.5285
77.7825
79.262
78.3234
77.6593
77.4879
77.4007
77.3371
77.2821
77.2305
77.1802
77.1303
77.0801
77.0293
76.9779
76.9256
76.8725
76.8184
76.7633
76.7073
76.4279
76.4831
76.5345
76.5825
76.6275
76.6697
76.7094
75.5431
75.5672
75.5929
75.6206
75.651
75.6852
75.7258
75.7797
75.8685
76.0903
77.0457
76.4955
75.9847
75.8298
75.7471
75.6856
75.6319
75.5812
75.5318
75.4826
75.4331
75.3831
75.3323
75.2807
75.2283
75.1749
75.1205
75.0652
74.7893
74.8438
74.8946
74.9419
74.9863
75.028
75.0672
75.5421
75.5659
75.5913
75.6184
75.6479
75.6808
75.719
75.7682
75.8472
76.0533
77.4503
76.5217
75.9517
75.8108
75.7356
75.678
75.6264
75.5772
75.5286
75.48
75.431
75.3813
75.3308
75.2794
75.2271
75.1738
75.1195
75.0643
74.7885
74.843
74.8937
74.941
74.9853
75.0269
75.066
73.5238
73.5472
73.5721
73.5988
73.6278
73.6601
73.6978
73.7462
73.8233
74.0167
75.0356
74.4077
73.9226
73.7878
73.7142
73.6575
73.6069
73.5585
73.5108
73.463
73.4148
73.366
73.3164
73.266
73.2146
73.1623
73.109
73.0547
72.784
72.8375
72.8873
72.9337
72.9772
73.018
73.0565
73.5228
73.5459
73.5704
73.5964
73.6245
73.6553
73.6902
73.7331
73.797
73.9523
75.1204
74.3121
73.8747
73.7648
73.701
73.649
73.6008
73.554
73.5072
73.4602
73.4125
73.364
73.3147
73.2645
73.2133
73.1611
73.1079
73.0537
72.7832
72.8366
72.8863
72.9327
72.9761
73.0168
73.0551
70.9028
70.9252
70.949
70.9744
71.0018
71.0319
71.0664
71.1094
71.1751
71.3395
72.513
71.7197
71.2576
71.143
71.0784
71.0269
70.9797
70.9339
70.8885
70.8428
70.7966
70.7496
70.7019
70.6532
70.6037
70.5532
70.5017
70.4493
70.1877
70.2394
70.2875
70.3323
70.3743
70.4137
70.4508
70.9015
70.9236
70.9469
70.9716
70.9979
71.0262
71.0573
71.0934
71.1416
71.239
71.8986
71.4385
71.1898
71.114
71.0623
71.0165
70.9724
70.9285
70.8843
70.8394
70.7938
70.7472
70.6998
70.6515
70.6021
70.5518
70.5005
70.4482
70.1867
70.2383
70.2863
70.3311
70.3729
70.4122
70.4491
67.0823
67.1029
67.1246
67.1477
67.1725
67.1994
67.2294
67.2652
67.3162
67.4362
68.6169
67.7431
67.3752
67.2891
67.2365
67.192
67.1501
67.1088
67.0674
67.0255
66.9829
66.9397
66.8956
66.8506
66.8048
66.7581
66.7105
66.6619
66.4195
66.4674
66.5119
66.5535
66.5923
66.6288
66.6631
53.9048
53.8915
53.8783
53.8655
53.8541
53.8459
53.8451
53.8634
53.9417
54.3055
57.8453
55.3973
54.1281
53.9322
53.8864
53.8816
53.8929
53.912
53.9354
53.9617
53.99
54.0199
54.051
54.0833
54.1166
54.1508
54.1859
54.2219
54.4044
54.3688
54.3357
54.305
54.2764
54.2497
54.2247
53.897
53.8815
53.8651
53.8478
53.8294
53.8095
53.7877
53.7625
53.7295
53.6698
54.0582
53.6175
53.6989
53.7486
53.7843
53.8163
53.8472
53.878
53.909
53.9405
53.9725
54.0052
54.0385
54.0724
54.107
54.1423
54.1783
54.2151
54.3985
54.3623
54.3286
54.2972
54.2678
54.2403
54.2143
21.1544
21.2176
21.2836
21.3523
21.4233
21.4955
21.566
21.6267
21.6475
21.4532
17.8391
20.5698
21.5462
21.5967
21.532
21.4351
21.3246
21.2066
21.0836
20.9567
20.8264
20.6933
20.5574
20.4189
20.278
20.1347
19.9891
19.8413
19.1113
19.2536
19.3863
19.5106
19.6273
19.7371
19.8407
53.5496
53.5611
53.5738
53.5882
53.6051
53.6261
53.6549
53.7001
53.7874
54.0084
54.7123
54.3398
53.9105
53.7587
53.6864
53.6417
53.6084
53.5804
53.5552
53.5314
53.5083
53.4855
53.4628
53.44
53.417
53.3938
53.3703
53.3464
53.2289
53.2524
53.2742
53.2946
53.3138
53.3319
53.3491
53.5486
53.5597
53.572
53.5857
53.6016
53.6209
53.6463
53.6838
53.7499
53.8968
54.2737
54.0949
53.8326
53.7267
53.6698
53.6316
53.6015
53.5755
53.5514
53.5284
53.5058
53.4834
53.461
53.4385
53.4157
53.3926
53.3693
53.3455
53.2281
53.2514
53.2732
53.2935
53.3126
53.3305
53.3475
52.8867
52.8978
52.9101
52.9239
52.9398
52.9594
52.9854
53.0248
53.0969
53.2647
53.6827
53.4886
53.1916
53.0723
53.0111
52.9713
52.9406
52.9143
52.8902
52.8671
52.8446
52.8223
52.8
52.7775
52.7549
52.7319
52.7086
52.685
52.5683
52.5915
52.6131
52.6334
52.6523
52.6702
52.6871
52.8858
52.8967
52.9087
52.922
52.9373
52.9558
52.9802
53.0173
53.0881
53.2759
53.982
53.5904
53.1903
53.0634
53.0037
52.9657
52.9364
52.911
52.8875
52.865
52.8428
52.8208
52.7986
52.7764
52.7538
52.731
52.7078
52.6842
52.5677
52.5908
52.6124
52.6325
52.6514
52.6692
52.6861
52.8847
52.8953
52.9068
52.9194
52.9337
52.9504
52.9714
53.0006
53.0487
53.1468
53.3795
53.2687
53.104
53.0299
52.9866
52.9553
52.9293
52.9058
52.8835
52.8618
52.8402
52.8186
52.7968
52.7747
52.7524
52.7297
52.7067
52.6833
52.5668
52.5898
52.6113
52.6313
52.6501
52.6678
52.6844
52.1171
52.1277
52.1392
52.152
52.1665
52.1838
52.2061
52.2393
52.3011
52.4648
53.0765
52.7431
52.3896
52.2787
52.2258
52.1912
52.1638
52.1397
52.1171
52.0952
52.0736
52.052
52.0303
52.0083
51.9861
51.9636
51.9406
51.9174
51.8019
51.8248
51.8461
51.866
51.8847
51.9023
51.9189
52.116
52.1264
52.1375
52.1497
52.1633
52.1791
52.1988
52.2266
52.2753
52.3984
52.891
52.6142
52.3412
52.2562
52.2129
52.1829
52.158
52.1353
52.1137
52.0924
52.0713
52.0501
52.0286
52.0069
51.9848
51.9624
51.9396
51.9165
51.8011
51.8239
51.8451
51.8649
51.8835
51.901
51.9175
51.2279
51.2382
51.2493
51.2616
51.2753
51.2913
51.3116
51.3406
51.3931
51.5296
52.0467
51.7642
51.4664
51.3732
51.3272
51.2961
51.2708
51.248
51.2263
51.2052
51.1841
51.1631
51.1418
51.1202
51.0984
51.0762
51.0536
51.0307
50.9166
50.9392
50.9602
50.9798
50.9982
51.0155
51.0318
51.227
51.237
51.2478
51.2594
51.2723
51.287
51.3049
51.3294
51.3717
51.4836
52.0512
51.7068
51.4301
51.3542
51.3159
51.2887
51.2655
51.244
51.2232
51.2026
51.1821
51.1613
51.1403
51.1189
51.0972
51.0752
51.0527
51.0298
50.9158
50.9384
50.9593
50.9788
50.9972
51.0144
51.0306
50.1898
50.1998
50.2105
50.2222
50.2352
50.2502
50.2688
50.2946
50.3399
50.456
50.9044
50.6572
50.4018
50.3219
50.2814
50.2531
50.2295
50.2078
50.187
50.1665
50.1461
50.1255
50.1047
50.0836
50.0622
50.0404
50.0183
49.9958
49.8835
49.9057
49.9264
49.9456
49.9637
49.9807
49.9967
50.1889
50.1987
50.2091
50.2203
50.2326
50.2464
50.2628
50.2845
50.3209
50.4186
51.0207
50.6333
50.3709
50.305
50.2712
50.2464
50.2247
50.2042
50.1842
50.1643
50.1442
50.1239
50.1033
50.0824
50.0612
50.0395
50.0174
49.995
49.8829
49.905
49.9256
49.9448
49.9628
49.9797
49.9956
48.9505
48.9602
48.9705
48.9817
48.9941
49.0082
49.0253
49.0485
49.0881
49.1899
49.6111
49.3737
49.1418
49.0717
49.0356
49.0096
48.9874
48.9668
48.9468
48.9271
48.9072
48.8872
48.867
48.8464
48.8255
48.8043
48.7826
48.7606
48.6508
48.6725
48.6927
48.7116
48.7292
48.7458
48.7614
48.9497
48.9591
48.9691
48.9798
48.9914
49.0043
49.0192
49.0382
49.0681
49.1461
49.711
49.3293
49.1074
49.054
49.0252
49.0028
48.9826
48.9632
48.944
48.9248
48.9054
48.8857
48.8656
48.8452
48.8245
48.8033
48.7818
48.7598
48.6502
48.6718
48.6919
48.7107
48.7283
48.7448
48.7603
47.4211
47.4304
47.4403
47.4509
47.4626
47.4757
47.4913
47.512
47.5465
47.6365
48.0924
47.8175
47.593
47.5315
47.4995
47.4759
47.4552
47.4358
47.4168
47.3978
47.3788
47.3595
47.34
47.3202
47.3
47.2794
47.2585
47.2372
47.131
47.152
47.1715
47.1897
47.2068
47.2229
47.238
47.4202
47.4292
47.4388
47.4489
47.4598
47.4716
47.4849
47.5008
47.5238
47.5783
48.0383
47.7108
47.5508
47.5117
47.4882
47.4685
47.4501
47.4319
47.4138
47.3954
47.3768
47.3579
47.3386
47.3189
47.2989
47.2784
47.2576
47.2364
47.1303
47.1512
47.1707
47.1889
47.2058
47.2218
47.2368
45.4227
45.4313
45.4406
45.4504
45.4611
45.473
45.4869
45.5047
45.5332
45.6082
46.1283
45.7824
45.5711
45.5201
45.4929
45.472
45.4533
45.4354
45.4178
45.4001
45.3823
45.3642
45.3459
45.3272
45.3082
45.2888
45.269
45.2489
45.1487
45.1685
45.187
45.2042
45.2203
45.2354
45.2496
45.4217
45.43
45.4389
45.4481
45.4579
45.4684
45.4795
45.4918
45.5063
45.5302
45.739
45.5803
45.5176
45.4967
45.4798
45.4636
45.4474
45.431
45.4144
45.3974
45.38
45.3623
45.3442
45.3258
45.3069
45.2877
45.2681
45.248
45.1479
45.1677
45.186
45.2031
45.2191
45.2342
45.2483
42.6715
42.6797
42.6883
42.6975
42.7073
42.7179
42.7297
42.7438
42.7636
42.8095
43.2732
42.9275
42.7861
42.7529
42.7324
42.7149
42.6983
42.6819
42.6655
42.6489
42.632
42.6149
42.5974
42.5795
42.5613
42.5428
42.5239
42.5046
42.4084
42.4274
42.4451
42.4615
42.477
42.4915
42.5051
34.9362
34.9255
34.9146
34.9037
34.8934
34.8845
34.8794
34.8841
34.9203
35.1075
36.951
35.6802
35.0165
34.9192
34.9015
34.9059
34.9189
34.9361
34.9559
34.9773
35
35.0237
35.0482
35.0736
35.0996
35.1263
35.1536
35.1816
35.3229
35.2952
35.2695
35.2457
35.2234
35.2025
35.183
34.9318
34.9198
34.9071
34.8937
34.8794
34.8639
34.8469
34.827
34.8004
34.7483
34.8237
34.6766
34.774
34.8154
34.8438
34.8689
34.893
34.9169
34.9409
34.9653
34.9901
35.0154
35.0411
35.0674
35.0942
35.1215
35.1493
35.1777
35.3196
35.2916
35.2655
35.2412
35.2185
35.1972
35.1771
17.446
17.4811
17.5178
17.5559
17.5953
17.6353
17.6745
17.7082
17.7198
17.6122
15.6104
17.1227
17.6637
17.6916
17.6556
17.6018
17.5405
17.475
17.4068
17.3363
17.264
17.1901
17.1147
17.0378
16.9596
16.8801
16.7993
16.7172
16.3121
16.3911
16.4648
16.5337
16.5985
16.6594
16.7169
38.0023
38.0079
38.0141
38.0212
38.0295
38.0398
38.0538
38.0759
38.1187
38.2277
38.5802
38.3925
38.1793
38.1047
38.0692
38.0473
38.031
38.0173
38.005
37.9933
37.982
37.9708
37.9597
37.9485
37.9372
37.9258
37.9143
37.9025
37.8448
37.8563
37.867
37.877
37.8865
37.8953
37.9037
38.0015
38.0068