/*--------------------------------*- C++ -*----------------------------------*\
  =========                 |
  \\      /  F ield         | OpenFOAM: The Open Source CFD Toolbox
   \\    /   O peration     | Website:  https://openfoam.org
    \\  /    A nd           | Version:  6
     \\/     M anipulation  |
\*---------------------------------------------------------------------------*/
FoamFile
{
    version     2.0;
    format      ascii;
    class       volVectorField;
    location    "0";
    object      wallShearStress;
}
// * * * * * * * * * * * * * * * * * * * * * * * * * * * * * * * * * * * * * //

dimensions      [0 2 -2 0 0 0 0];

internalField   uniform (0 0 0);

boundaryField
{
    inlet
    {
        type            calculated;
        value           uniform (0 0 0);
    }
    outlet
    {
        type            calculated;
        value           uniform (0 0 0);
    }
    roughCylinder
    {
        type            calculated;
        value           nonuniform List<vector> 
3840
(
(-9.27969e-05 1.34621e-05 0.000184633)
(-0.000117643 1.68515e-05 4.01435e-05)
(-0.000146094 2.09572e-05 3.05455e-05)
(-0.000163924 2.35236e-05 1.73986e-05)
(-0.00017709 2.54166e-05 1.14198e-05)
(-0.000187784 2.69532e-05 8.1259e-06)
(-0.000196974 2.82728e-05 6.06952e-06)
(-0.000205165 2.94491e-05 4.68154e-06)
(-0.000212655 3.05246e-05 3.69322e-06)
(-0.000219632 3.15264e-05 2.96224e-06)
(-0.000226223 3.24726e-05 2.40548e-06)
(-0.000232513 3.33756e-05 1.97127e-06)
(-0.000238562 3.42437e-05 1.62628e-06)
(-0.000244411 3.50833e-05 1.34774e-06)
(-0.000250086 3.58979e-05 1.11928e-06)
(-0.000255596 3.66886e-05 9.29263e-07)
(-0.000260937 3.74552e-05 7.69106e-07)
(-0.000266088 3.81945e-05 6.31976e-07)
(-0.000271009 3.89006e-05 5.12647e-07)
(-0.00027563 3.95637e-05 4.07014e-07)
(-0.000279852 4.01695e-05 3.11302e-07)
(-0.000283519 4.06955e-05 2.21537e-07)
(-0.000286387 4.11071e-05 1.2855e-07)
(-0.000287886 4.13223e-05 3.973e-08)
(-9.33162e-05 1.36099e-05 0.000177112)
(-0.000117967 1.69851e-05 3.82809e-05)
(-0.000146544 2.11306e-05 2.93041e-05)
(-0.000164442 2.37207e-05 1.6684e-05)
(-0.000177655 2.56303e-05 1.09481e-05)
(-0.000188387 2.71799e-05 7.78917e-06)
(-0.000197607 2.85112e-05 5.81752e-06)
(-0.000205825 2.96972e-05 4.48699e-06)
(-0.00021334 3.07819e-05 3.54005e-06)
(-0.00022034 3.17925e-05 2.83931e-06)
(-0.000226952 3.27465e-05 2.30543e-06)
(-0.000233262 3.36569e-05 1.88928e-06)
(-0.000239331 3.45327e-05 1.55863e-06)
(-0.000245199 3.53794e-05 1.29162e-06)
(-0.000250891 3.62006e-05 1.07266e-06)
(-0.000256419 3.69981e-05 8.90611e-07)
(-0.000261777 3.77711e-05 7.37073e-07)
(-0.000266945 3.85165e-05 6.05647e-07)
(-0.000271881 3.92285e-05 4.91323e-07)
(-0.000276517 3.98972e-05 3.90057e-07)
(-0.000280752 4.05079e-05 2.98305e-07)
(-0.00028443 4.10386e-05 2.12299e-07)
(-0.000287307 4.14537e-05 1.23202e-07)
(-0.000288811 4.16707e-05 3.80767e-08)
(-9.38137e-05 1.36706e-05 0.000169311)
(-0.000118248 1.70071e-05 3.63689e-05)
(-0.000146942 2.11654e-05 2.80161e-05)
(-0.000164903 2.37619e-05 1.59428e-05)
(-0.000178159 2.56753e-05 1.04589e-05)
(-0.000188923 2.72284e-05 7.44052e-06)
(-0.000198171 2.85622e-05 5.5569e-06)
(-0.000206413 2.97508e-05 4.28568e-06)
(-0.00021395 3.08375e-05 3.38111e-06)
(-0.000220971 3.18495e-05 2.7117e-06)
(-0.000227602 3.28054e-05 2.20182e-06)
(-0.00023393 3.37175e-05 1.80445e-06)
(-0.000240017 3.4595e-05 1.48867e-06)
(-0.000245901 3.54432e-05 1.23357e-06)
(-0.00025161 3.62658e-05 1.02445e-06)
(-0.000257154 3.70648e-05 8.50538e-07)
(-0.000262527 3.7839e-05 7.039e-07)
(-0.000267709 3.85858e-05 5.78393e-07)
(-0.000272659 3.92988e-05 4.69178e-07)
(-0.000277308 3.99687e-05 3.72472e-07)
(-0.000281554 4.05805e-05 2.84893e-07)
(-0.000285243 4.11123e-05 2.02777e-07)
(-0.000288129 4.15281e-05 1.17664e-07)
(-0.000289637 4.17461e-05 3.63647e-08)
(-9.42904e-05 1.36409e-05 0.000161239)
(-0.000118488 1.69131e-05 3.44123e-05)
(-0.00014729 2.10561e-05 2.66824e-05)
(-0.000165309 2.36415e-05 1.51763e-05)
(-0.000178603 2.55462e-05 9.95381e-06)
(-0.000189397 2.70919e-05 7.08032e-06)
(-0.000198669 2.84191e-05 5.28739e-06)
(-0.000206933 2.96019e-05 4.07789e-06)
(-0.00021449 3.06831e-05 3.21694e-06)
(-0.000221529 3.16902e-05 2.58002e-06)
(-0.000228177 3.26414e-05 2.09492e-06)
(-0.000234521 3.35492e-05 1.71675e-06)
(-0.000240623 3.4422e-05 1.41632e-06)
(-0.000246523 3.5266e-05 1.17355e-06)
(-0.000252245 3.60844e-05 9.74603e-07)
(-0.000257802 3.68794e-05 8.092e-07)
(-0.000263189 3.76498e-05 6.69652e-07)
(-0.000268384 3.83927e-05 5.50212e-07)
(-0.000273346 3.91021e-05 4.46342e-07)
(-0.000278006 3.97686e-05 3.54368e-07)
(-0.000282263 4.03774e-05 2.71025e-07)
(-0.000285961 4.09062e-05 1.929e-07)
(-0.000288854 4.13202e-05 1.11988e-07)
(-0.000290368 4.15377e-05 3.46405e-08)
(-9.4749e-05 1.35175e-05 0.000152909)
(-0.000118688 1.66997e-05 3.24148e-05)
(-0.000147592 2.07987e-05 2.53057e-05)
(-0.000165663 2.33551e-05 1.4386e-05)
(-0.000178991 2.52377e-05 9.4328e-06)
(-0.000189811 2.67648e-05 6.70899e-06)
(-0.000199106 2.80765e-05 5.00989e-06)
(-0.000207389 2.9245e-05 3.86345e-06)
(-0.000214962 3.03132e-05 3.04777e-06)
(-0.000222017 3.13084e-05 2.44437e-06)
(-0.00022868 3.2248e-05 1.98476e-06)
(-0.000235039 3.31449e-05 1.6265e-06)
(-0.000241154 3.40072e-05 1.34178e-06)
(-0.000247066 3.4841e-05 1.11179e-06)
(-0.000252802 3.56498e-05 9.23312e-07)
(-0.000258371 3.6435e-05 7.66572e-07)
(-0.000263769 3.7196e-05 6.34368e-07)
(-0.000268975 3.79299e-05 5.21224e-07)
(-0.000273947 3.86307e-05 4.22794e-07)
(-0.000278617 3.92889e-05 3.35668e-07)
(-0.000282883 3.98902e-05 2.56737e-07)
(-0.00028659 4.04129e-05 1.82762e-07)
(-0.000289489 4.08221e-05 1.06137e-07)
(-0.000291007 4.10376e-05 3.28444e-08)
(-9.51912e-05 1.32978e-05 0.000144332)
(-0.000118852 1.63647e-05 3.03813e-05)
(-0.000147849 2.03903e-05 2.38879e-05)
(-0.000165968 2.28989e-05 1.35729e-05)
(-0.000179327 2.47458e-05 8.89714e-06)
(-0.00019017 2.62438e-05 6.32718e-06)
(-0.000199483 2.75299e-05 4.72439e-06)
(-0.000207783 2.86759e-05 3.64317e-06)
(-0.000215371 2.97236e-05 2.87401e-06)
(-0.00022244 3.06994e-05 2.30492e-06)
(-0.000229116 3.16209e-05 1.87144e-06)
(-0.000235486 3.25001e-05 1.53363e-06)
(-0.000241613 3.33457e-05 1.26517e-06)
(-0.000247537 3.41631e-05 1.04832e-06)
(-0.000253283 3.49561e-05 8.70551e-07)
(-0.000258863 3.57259e-05 7.22759e-07)
(-0.000264271 3.64721e-05 5.98115e-07)
(-0.000269487 3.71916e-05 4.91402e-07)
(-0.000274467 3.78787e-05 3.986e-07)
(-0.000279146 3.85241e-05 3.16477e-07)
(-0.00028342 3.91137e-05 2.42077e-07)
(-0.000287133 3.96264e-05 1.72341e-07)
(-0.000290038 4.00279e-05 1.00157e-07)
(-0.000291563 4.02403e-05 3.10338e-08)
(-9.56206e-05 1.29804e-05 0.00013552)
(-0.00011898 1.59073e-05 2.83156e-05)
(-0.000148064 1.98294e-05 2.24306e-05)
(-0.000166226 2.22716e-05 1.27378e-05)
(-0.000179612 2.40689e-05 8.34763e-06)
(-0.000190475 2.55265e-05 5.93546e-06)
(-0.000199806 2.67777e-05 4.43167e-06)
(-0.00020812 2.78926e-05 3.41737e-06)
(-0.000215721 2.89118e-05 2.69568e-06)
(-0.000222802 2.98609e-05 2.16189e-06)
(-0.000229489 3.07573e-05 1.75533e-06)
(-0.00023587 3.16125e-05 1.4384e-06)
(-0.000242007 3.2435e-05 1.18655e-06)
(-0.000247939 3.32299e-05 9.83163e-07)
(-0.000253695 3.40013e-05 8.16494e-07)
(-0.000259283 3.47501e-05 6.77842e-07)
(-0.0002647 3.54757e-05 5.60906e-07)
(-0.000269923 3.61753e-05 4.60856e-07)
(-0.000274912 3.68437e-05 3.73825e-07)
(-0.000279597 3.74713e-05 2.96781e-07)
(-0.000283878 3.80448e-05 2.2704e-07)
(-0.000287598 3.85436e-05 1.61683e-07)
(-0.000290509 3.89347e-05 9.40263e-08)
(-0.000292039 3.91422e-05 2.91673e-08)
(-9.60391e-05 1.25636e-05 0.000126485)
(-0.000119075 1.53276e-05 2.62227e-05)
(-0.000148241 1.91159e-05 2.09362e-05)
(-0.000166443 2.14734e-05 1.18825e-05)
(-0.000179852 2.3207e-05 7.7848e-06)
(-0.000190734 2.46131e-05 5.53461e-06)
(-0.000200078 2.58197e-05 4.1319e-06)
(-0.000208404 2.68948e-05 3.18611e-06)
(-0.000216017 2.78776e-05 2.51327e-06)
(-0.000223107 2.87929e-05 2.01553e-06)
(-0.000229804 2.96572e-05 1.6364e-06)
(-0.000236193 3.04819e-05 1.34095e-06)
(-0.000242339 3.12747e-05 1.10617e-06)
(-0.00024828 3.20416e-05 9.16554e-07)
(-0.000254043 3.27852e-05 7.61137e-07)
(-0.000259639 3.3507e-05 6.31844e-07)
(-0.000265062 3.42067e-05 5.22841e-07)
(-0.000270292 3.48811e-05 4.29578e-07)
(-0.000275287 3.55253e-05 3.4845e-07)
(-0.000279978 3.61305e-05 2.76651e-07)
(-0.000284264 3.66837e-05 2.11656e-07)
(-0.000287989 3.71646e-05 1.50767e-07)
(-0.000290906 3.75422e-05 8.77863e-08)
(-0.000292444 3.77441e-05 2.72819e-08)
(-9.64496e-05 1.20479e-05 0.000117241)
(-0.000119141 1.4627e-05 2.4108e-05)
(-0.000148384 1.82517e-05 1.94067e-05)
(-0.000166621 2.05054e-05 1.10078e-05)
(-0.000180051 2.21621e-05 7.20957e-06)
(-0.000190948 2.35052e-05 5.12503e-06)
(-0.000200304 2.46579e-05 3.8258e-06)
(-0.000208641 2.56848e-05 2.95002e-06)
(-0.000216263 2.66235e-05 2.32685e-06)
(-0.000223361 2.74976e-05 1.86603e-06)
(-0.000230066 2.83231e-05 1.51504e-06)
(-0.000236463 2.91107e-05 1.24137e-06)
(-0.000242615 2.98678e-05 1.02406e-06)
(-0.000248563 3.06001e-05 8.48538e-07)
(-0.000254332 3.131e-05 7.04568e-07)
(-0.000259934 3.19992e-05 5.84914e-07)
(-0.000265363 3.26674e-05 4.83982e-07)
(-0.000270598 3.33114e-05 3.97617e-07)
(-0.000275597 3.39264e-05 3.22564e-07)
(-0.000280294 3.45046e-05 2.56116e-07)
(-0.000284585 3.50328e-05 1.95959e-07)
(-0.000288315 3.54925e-05 1.39627e-07)
(-0.000291237 3.58534e-05 8.14232e-08)
(-0.000292783 3.60482e-05 2.53728e-08)
(-9.68547e-05 1.14342e-05 0.000107798)
(-0.00011918 1.38083e-05 2.19764e-05)
(-0.000148494 1.72399e-05 1.78437e-05)
(-0.000166763 1.93716e-05 1.01155e-05)
(-0.000180213 2.0938e-05 6.62301e-06)
(-0.000191122 2.22074e-05 4.70733e-06)
(-0.000200489 2.32967e-05 3.51373e-06)
(-0.000208834 2.42671e-05 2.70919e-06)
(-0.000216464 2.5154e-05 2.13692e-06)
(-0.00022357 2.598e-05 1.71364e-06)
(-0.000230281 2.67598e-05 1.39125e-06)
(-0.000236684 2.75038e-05 1.13994e-06)
(-0.000242841 2.82193e-05 9.40341e-07)
(-0.000248795 2.89108e-05 7.79119e-07)
(-0.000254569 2.95816e-05 6.46924e-07)
(-0.000260175 3.02326e-05 5.37057e-07)
(-0.000265608 3.08635e-05 4.44407e-07)
(-0.000270848 3.14722e-05 3.65084e-07)
(-0.000275851 3.2053e-05 2.96163e-07)
(-0.000280552 3.25991e-05 2.35187e-07)
(-0.000284847 3.30984e-05 1.79972e-07)
(-0.000288581 3.35333e-05 1.28276e-07)
(-0.000291509 3.38749e-05 7.49291e-08)
(-0.000293064 3.40611e-05 2.34251e-08)
(-9.72573e-05 1.07243e-05 9.81706e-05)
(-0.000119194 1.28756e-05 1.98335e-05)
(-0.000148576 1.60858e-05 1.62501e-05)
(-0.000166875 1.80777e-05 9.20637e-06)
(-0.000180341 1.95405e-05 6.02592e-06)
(-0.000191262 2.07257e-05 4.2822e-06)
(-0.000200637 2.17427e-05 3.19613e-06)
(-0.00020899 2.26485e-05 2.46426e-06)
(-0.000216626 2.34764e-05 1.94357e-06)
(-0.000223738 2.42473e-05 1.55852e-06)
(-0.000230453 2.49751e-05 1.26531e-06)
(-0.000236861 2.56693e-05 1.03675e-06)
(-0.000243023 2.63371e-05 8.55177e-07)
(-0.00024898 2.69824e-05 7.08549e-07)
(-0.000254759 2.76082e-05 5.88332e-07)
(-0.000260368 2.82158e-05 4.88357e-07)
(-0.000265805 2.88044e-05 4.04101e-07)
(-0.000271047 2.9372e-05 3.31992e-07)
(-0.000276054 2.99144e-05 2.69315e-07)
(-0.000280757 3.0424e-05 2.13891e-07)
(-0.000285056 3.08902e-05 1.63727e-07)
(-0.000288796 3.12965e-05 1.16749e-07)
(-0.000291728 3.16165e-05 6.83465e-08)
(-0.000293296 3.1793e-05 2.14539e-08)
(-9.76591e-05 9.92105e-06 8.83706e-05)
(-0.000119187 1.1835e-05 1.76853e-05)
(-0.000148635 1.47959e-05 1.46277e-05)
(-0.000166961 1.66311e-05 8.28186e-06)
(-0.000180441 1.7978e-05 5.41892e-06)
(-0.000191371 1.90688e-05 3.85035e-06)
(-0.000200754 2.00051e-05 2.87363e-06)
(-0.000209113 2.08386e-05 2.21536e-06)
(-0.000216754 2.16002e-05 1.74728e-06)
(-0.00022387 2.23096e-05 1.40106e-06)
(-0.00023059 2.29792e-05 1.13736e-06)
(-0.000237001 2.36179e-05 9.3191e-07)
(-0.000243167 2.42322e-05 7.68701e-07)
(-0.000249127 2.48258e-05 6.36829e-07)
(-0.000254907 2.54013e-05 5.28772e-07)
(-0.000260519 2.596e-05 4.38943e-07)
(-0.000265958 2.65015e-05 3.6319e-07)
(-0.000271203 2.70237e-05 2.98393e-07)
(-0.000276212 2.75227e-05 2.42091e-07)
(-0.000280919 2.79919e-05 1.92282e-07)
(-0.000285221 2.84213e-05 1.4722e-07)
(-0.000288964 2.87957e-05 1.05043e-07)
(-0.000291903 2.90912e-05 6.16604e-08)
(-0.000293484 2.92565e-05 1.94434e-08)
(-9.80621e-05 9.02853e-06 7.84108e-05)
(-0.000119161 1.06933e-05 1.55372e-05)
(-0.000148672 1.33789e-05 1.29786e-05)
(-0.000167023 1.50415e-05 7.34337e-06)
(-0.000180516 1.62607e-05 4.8032e-06)
(-0.000191454 1.72479e-05 3.41236e-06)
(-0.000200844 1.80948e-05 2.54655e-06)
(-0.000209208 1.88491e-05 1.96302e-06)
(-0.000216852 1.9538e-05 1.54812e-06)
(-0.000223972 2.01795e-05 1.24136e-06)
(-0.000230694 2.07852e-05 1.00772e-06)
(-0.000237108 2.13629e-05 8.25648e-07)
(-0.000243276 2.19183e-05 6.81008e-07)
(-0.000249238 2.24551e-05 5.64178e-07)
(-0.000255021 2.29756e-05 4.68422e-07)
(-0.000260634 2.34807e-05 3.88819e-07)
(-0.000266074 2.39702e-05 3.21731e-07)
(-0.000271321 2.44425e-05 2.64345e-07)
(-0.000276332 2.48938e-05 2.14491e-07)
(-0.000281041 2.53185e-05 1.70408e-07)
(-0.000285347 2.57076e-05 1.30517e-07)
(-0.000289095 2.60474e-05 9.31805e-08)
(-0.00029204 2.63159e-05 5.48647e-08)
(-0.000293638 2.64688e-05 1.7395e-08)
(-9.84666e-05 8.05138e-06 6.83042e-05)
(-0.000119119 9.4595e-06 1.33958e-05)
(-0.000148692 1.18452e-05 1.13053e-05)
(-0.000167067 1.33202e-05 6.39226e-06)
(-0.000180571 1.4401e-05 4.17956e-06)
(-0.000191516 1.52761e-05 2.96878e-06)
(-0.00020091 1.60261e-05 2.21534e-06)
(-0.000209278 1.66942e-05 1.70766e-06)
(-0.000216926 1.73045e-05 1.34663e-06)
(-0.000224048 1.78728e-05 1.07975e-06)
(-0.000230773 1.8409e-05 8.76487e-07)
(-0.000237189 1.89206e-05 7.18082e-07)
(-0.000243358 1.94122e-05 5.92284e-07)
(-0.000249321 1.98874e-05 4.90647e-07)
(-0.000255105 2.03479e-05 4.07344e-07)
(-0.000260719 2.07951e-05 3.38117e-07)
(-0.000266159 2.12286e-05 2.7979e-07)
(-0.000271407 2.16469e-05 2.29911e-07)
(-0.000276419 2.20471e-05 1.86574e-07)
(-0.000281131 2.24238e-05 1.48268e-07)
(-0.000285441 2.27694e-05 1.13618e-07)
(-0.000289195 2.30714e-05 8.11753e-08)
(-0.000292147 2.33104e-05 4.79622e-08)
(-0.000293764 2.34499e-05 1.53005e-08)
(-9.8872e-05 6.99478e-06 5.8064e-05)
(-0.000119066 8.14299e-06 1.1267e-05)
(-0.000148697 1.02069e-05 9.60949e-06)
(-0.000167094 1.14807e-05 5.42979e-06)
(-0.000180608 1.24134e-05 3.54915e-06)
(-0.00019156 1.31681e-05 2.52051e-06)
(-0.000200958 1.3815e-05 1.88054e-06)
(-0.000209329 1.43909e-05 1.44949e-06)
(-0.000216979 1.49168e-05 1.14304e-06)
(-0.000224103 1.54067e-05 9.16436e-07)
(-0.000230828 1.58686e-05 7.43864e-07)
(-0.000237246 1.63094e-05 6.09435e-07)
(-0.000243415 1.67329e-05 5.0261e-07)
(-0.000249379 1.71421e-05 4.16337e-07)
(-0.000255162 1.7539e-05 3.45644e-07)
(-0.000260776 1.79243e-05 2.86933e-07)
(-0.000266217 1.82979e-05 2.37448e-07)
(-0.000271465 1.86588e-05 1.9515e-07)
(-0.00027648 1.90044e-05 1.58418e-07)
(-0.000281196 1.93301e-05 1.25931e-07)
(-0.00028551 1.96291e-05 9.65385e-08)
(-0.000289271 1.98907e-05 6.90128e-08)
(-0.000292231 2.00983e-05 4.09437e-08)
(-0.000293869 2.02229e-05 1.3162e-08)
(-9.92729e-05 5.86423e-06 4.77027e-05)
(-0.000119003 6.75514e-06 9.15721e-06)
(-0.000148691 8.47728e-06 7.89423e-06)
(-0.000167109 9.53806e-06 4.45745e-06)
(-0.000180633 1.03139e-05 2.91246e-06)
(-0.000191589 1.09413e-05 2.06802e-06)
(-0.000200991 1.14792e-05 1.54283e-06)
(-0.000209364 1.19576e-05 1.18906e-06)
(-0.000217015 1.23947e-05 9.37589e-07)
(-0.00022414 1.28012e-05 7.51677e-07)
(-0.000230866 1.3185e-05 6.10099e-07)
(-0.000237283 1.35508e-05 4.99812e-07)
(-0.000243452 1.39023e-05 4.12179e-07)
(-0.000249415 1.42421e-05 3.41439e-07)
(-0.000255198 1.45718e-05 2.83481e-07)
(-0.000260812 1.4892e-05 2.35312e-07)
(-0.000266253 1.52028e-05 1.9476e-07)
(-0.000271503 1.55033e-05 1.60115e-07)
(-0.00027652 1.57913e-05 1.30012e-07)
(-0.00028124 1.6063e-05 1.03389e-07)
(-0.000285561 1.63129e-05 7.92965e-08)
(-0.000289328 1.65316e-05 5.67331e-08)
(-0.000292298 1.67057e-05 3.38096e-08)
(-0.000293961 1.68136e-05 1.09526e-08)
(-9.96604e-05 4.66448e-06 3.72343e-05)
(-0.000118935 5.30905e-06 7.07208e-06)
(-0.000148677 6.67124e-06 6.16127e-06)
(-0.000167114 7.50879e-06 3.47659e-06)
(-0.000180646 8.12058e-06 2.27084e-06)
(-0.000191607 8.61494e-06 1.61215e-06)
(-0.000201011 9.03841e-06 1.20255e-06)
(-0.000209385 9.41505e-06 9.26734e-07)
(-0.000217037 9.75907e-06 7.3068e-07)
(-0.000224161 1.00789e-05 5.85759e-07)
(-0.000230888 1.03807e-05 4.7541e-07)
(-0.000237304 1.06685e-05 3.89423e-07)
(-0.000243472 1.09449e-05 3.21156e-07)
(-0.000249434 1.12123e-05 2.66038e-07)
(-0.000255216 1.14717e-05 2.20886e-07)
(-0.000260829 1.17242e-05 1.83404e-07)
(-0.000266272 1.19698e-05 1.51834e-07)
(-0.000271525 1.22075e-05 1.24848e-07)
(-0.000276546 1.24356e-05 1.01409e-07)
(-0.000281271 1.26511e-05 8.06749e-08)
(-0.000285599 1.28491e-05 6.18977e-08)
(-0.000289374 1.30227e-05 4.43101e-08)
(-0.000292353 1.31608e-05 2.6529e-08)
(-0.000294042 1.32501e-05 8.66685e-09)
(-0.000100013 3.39892e-06 2.66734e-05)
(-0.000118867 3.81873e-06 5.01655e-06)
(-0.000148658 4.80586e-06 4.41346e-06)
(-0.000167112 5.41135e-06 2.48887e-06)
(-0.000180651 5.853e-06 1.62507e-06)
(-0.000191615 6.20935e-06 1.15347e-06)
(-0.00020102 6.51465e-06 8.60325e-07)
(-0.000209395 6.78604e-06 6.6295e-07)
(-0.000217047 7.03367e-06 5.22653e-07)
(-0.000224171 7.26401e-06 4.18948e-07)
(-0.000230896 7.48108e-06 3.40017e-07)
(-0.000237311 7.68827e-06 2.78517e-07)
(-0.000243477 7.8874e-06 2.29676e-07)
(-0.000249438 8.08003e-06 1.90275e-07)
(-0.00025522 8.2675e-06 1.58015e-07)
(-0.000260834 8.45023e-06 1.31231e-07)
(-0.00026628 8.62829e-06 1.08673e-07)
(-0.000271536 8.80088e-06 8.93863e-08)
(-0.000276564 8.9667e-06 7.26245e-08)
(-0.000281296 9.12328e-06 5.77869e-08)
(-0.00028563 9.26714e-06 4.43479e-08)
(-0.000289413 9.39327e-06 3.1762e-08)
(-0.0002924 9.49391e-06 1.91003e-08)
(-0.000294116 9.56177e-06 6.29206e-09)
(-0.000100295 2.072e-06 1.60379e-05)
(-0.000118808 2.29997e-06 2.99233e-06)
(-0.000148638 2.89889e-06 2.65357e-06)
(-0.000167105 3.26517e-06 1.49564e-06)
(-0.000180649 3.53212e-06 9.76283e-07)
(-0.000191615 3.74728e-06 6.92859e-07)
(-0.000201022 3.93142e-06 5.16728e-07)
(-0.000209396 4.09502e-06 3.98131e-07)
(-0.000217047 4.24431e-06 3.13858e-07)
(-0.00022417 4.38309e-06 2.51568e-07)
(-0.000230893 4.51404e-06 2.04158e-07)
(-0.000237307 4.63877e-06 1.67236e-07)
(-0.000243472 4.75897e-06 1.37922e-07)
(-0.000249433 4.87566e-06 1.14278e-07)
(-0.000255215 4.98951e-06 9.49234e-08)
(-0.000260832 5.10062e-06 7.88548e-08)
(-0.000266282 5.20895e-06 6.53152e-08)
(-0.000271543 5.31408e-06 5.37315e-08)
(-0.000276576 5.41508e-06 4.36602e-08)
(-0.000281315 5.5103e-06 3.47413e-08)
(-0.000285656 5.59775e-06 2.66624e-08)
(-0.000289445 5.67423e-06 1.90996e-08)
(-0.000292439 5.73564e-06 1.15292e-08)
(-0.000294178 5.77871e-06 3.82294e-09)
(-0.000100456 6.96894e-07 5.35197e-06)
(-0.000118771 7.67741e-07 9.93973e-07)
(-0.000148624 9.68556e-07 8.85512e-07)
(-0.000167099 1.09129e-06 4.98956e-07)
(-0.000180646 1.18061e-06 3.25638e-07)
(-0.000191613 1.25256e-06 2.31071e-07)
(-0.000201019 1.31396e-06 1.72316e-07)
(-0.000209393 1.36861e-06 1.32765e-07)
(-0.000217043 1.41852e-06 1.04657e-07)
(-0.000224165 1.46481e-06 8.38836e-08)
(-0.000230888 1.50865e-06 6.8074e-08)
(-0.0002373 1.55029e-06 5.57612e-08)
(-0.000243465 1.59048e-06 4.59928e-08)
(-0.000249426 1.62967e-06 3.81149e-08)
(-0.000255211 1.66802e-06 3.1663e-08)
(-0.00026083 1.70546e-06 2.63019e-08)
(-0.000266283 1.74181e-06 2.17843e-08)
(-0.000271548 1.77726e-06 1.79181e-08)
(-0.000276586 1.81121e-06 1.45534e-08)
(-0.000281328 1.84324e-06 1.15731e-08)
(-0.000285673 1.8725e-06 8.87547e-09)
(-0.000289465 1.89814e-06 6.35432e-09)
(-0.000292463 1.91875e-06 3.84196e-09)
(-0.000294216 1.93366e-06 1.27678e-09)
(-0.000100456 -6.96892e-07 -5.35197e-06)
(-0.000118771 -7.67738e-07 -9.93975e-07)
(-0.000148624 -9.68554e-07 -8.85515e-07)
(-0.000167099 -1.09129e-06 -4.9896e-07)
(-0.000180646 -1.18061e-06 -3.25644e-07)
(-0.000191613 -1.25256e-06 -2.31077e-07)
(-0.000201019 -1.31396e-06 -1.72324e-07)
(-0.000209393 -1.36861e-06 -1.32774e-07)
(-0.000217043 -1.41852e-06 -1.04666e-07)
(-0.000224165 -1.46481e-06 -8.38938e-08)
(-0.000230888 -1.50865e-06 -6.80851e-08)
(-0.0002373 -1.55029e-06 -5.57734e-08)
(-0.000243465 -1.59048e-06 -4.60066e-08)
(-0.000249426 -1.62966e-06 -3.81314e-08)
(-0.000255211 -1.66802e-06 -3.16836e-08)
(-0.00026083 -1.70546e-06 -2.63285e-08)
(-0.000266283 -1.7418e-06 -2.18192e-08)
(-0.000271548 -1.77725e-06 -1.79636e-08)
(-0.000276586 -1.81121e-06 -1.46107e-08)
(-0.000281328 -1.84324e-06 -1.16403e-08)
(-0.000285673 -1.8725e-06 -8.94633e-09)
(-0.000289465 -1.89814e-06 -6.42047e-09)
(-0.000292463 -1.91875e-06 -3.8912e-09)
(-0.000294216 -1.93366e-06 -1.30165e-09)
(-0.000100295 -2.07199e-06 -1.60379e-05)
(-0.000118808 -2.29997e-06 -2.99233e-06)
(-0.000148638 -2.89889e-06 -2.65357e-06)
(-0.000167105 -3.26517e-06 -1.49564e-06)
(-0.000180649 -3.53211e-06 -9.76288e-07)
(-0.000191615 -3.74728e-06 -6.92865e-07)
(-0.000201022 -3.93141e-06 -5.16735e-07)
(-0.000209396 -4.09502e-06 -3.9814e-07)
(-0.000217047 -4.24431e-06 -3.13867e-07)
(-0.00022417 -4.38309e-06 -2.51578e-07)
(-0.000230893 -4.51404e-06 -2.04169e-07)
(-0.000237307 -4.63877e-06 -1.67248e-07)
(-0.000243472 -4.75897e-06 -1.37936e-07)
(-0.000249433 -4.87565e-06 -1.14295e-07)
(-0.000255215 -4.98951e-06 -9.49439e-08)
(-0.000260832 -5.10062e-06 -7.88814e-08)
(-0.000266282 -5.20894e-06 -6.53502e-08)
(-0.000271543 -5.31408e-06 -5.3777e-08)
(-0.000276576 -5.41508e-06 -4.37174e-08)
(-0.000281315 -5.5103e-06 -3.48082e-08)
(-0.000285656 -5.59775e-06 -2.67331e-08)
(-0.000289445 -5.67423e-06 -1.91655e-08)
(-0.000292439 -5.73564e-06 -1.15782e-08)
(-0.000294178 -5.77871e-06 -3.84825e-09)
(-0.000100013 -3.39892e-06 -2.66734e-05)
(-0.000118867 -3.81873e-06 -5.01655e-06)
(-0.000148658 -4.80585e-06 -4.41346e-06)
(-0.000167112 -5.41135e-06 -2.48888e-06)
(-0.000180651 -5.853e-06 -1.62507e-06)
(-0.000191615 -6.20935e-06 -1.15347e-06)
(-0.00020102 -6.51465e-06 -8.60332e-07)
(-0.000209395 -6.78604e-06 -6.62959e-07)
(-0.000217047 -7.03367e-06 -5.22663e-07)
(-0.000224171 -7.26401e-06 -4.18958e-07)
(-0.000230896 -7.48108e-06 -3.40028e-07)
(-0.000237311 -7.68827e-06 -2.78529e-07)
(-0.000243477 -7.8874e-06 -2.2969e-07)
(-0.000249438 -8.08002e-06 -1.90291e-07)
(-0.00025522 -8.2675e-06 -1.58036e-07)
(-0.000260834 -8.45023e-06 -1.31257e-07)
(-0.00026628 -8.62828e-06 -1.08708e-07)
(-0.000271536 -8.80088e-06 -8.94317e-08)
(-0.000276564 -8.9667e-06 -7.26815e-08)
(-0.000281296 -9.12327e-06 -5.78535e-08)
(-0.00028563 -9.26713e-06 -4.44183e-08)
(-0.000289413 -9.39327e-06 -3.18275e-08)
(-0.0002924 -9.49391e-06 -1.91489e-08)
(-0.000294116 -9.56177e-06 -6.318e-09)
(-9.96604e-05 -4.66448e-06 -3.72343e-05)
(-0.000118935 -5.30905e-06 -7.07208e-06)
(-0.000148677 -6.67124e-06 -6.16128e-06)
(-0.000167114 -7.50879e-06 -3.47659e-06)
(-0.000180646 -8.12058e-06 -2.27084e-06)
(-0.000191607 -8.61494e-06 -1.61215e-06)
(-0.000201011 -9.0384e-06 -1.20256e-06)
(-0.000209385 -9.41505e-06 -9.26742e-07)
(-0.000217037 -9.75907e-06 -7.3069e-07)
(-0.000224161 -1.00789e-05 -5.85769e-07)
(-0.000230888 -1.03807e-05 -4.75421e-07)
(-0.000237304 -1.06685e-05 -3.89435e-07)
(-0.000243472 -1.09449e-05 -3.2117e-07)
(-0.000249434 -1.12123e-05 -2.66054e-07)
(-0.000255216 -1.14717e-05 -2.20906e-07)
(-0.000260829 -1.17242e-05 -1.8343e-07)
(-0.000266272 -1.19698e-05 -1.51869e-07)
(-0.000271525 -1.22075e-05 -1.24893e-07)
(-0.000276546 -1.24356e-05 -1.01465e-07)
(-0.000281271 -1.26511e-05 -8.07411e-08)
(-0.000285599 -1.28491e-05 -6.19676e-08)
(-0.000289374 -1.30227e-05 -4.43751e-08)
(-0.000292353 -1.31608e-05 -2.65772e-08)
(-0.000294042 -1.32501e-05 -8.69341e-09)
(-9.92729e-05 -5.86423e-06 -4.77027e-05)
(-0.000119003 -6.75513e-06 -9.15721e-06)
(-0.000148691 -8.47728e-06 -7.89424e-06)
(-0.000167109 -9.53806e-06 -4.45746e-06)
(-0.000180633 -1.03139e-05 -2.91246e-06)
(-0.000191589 -1.09413e-05 -2.06803e-06)
(-0.000200991 -1.14792e-05 -1.54284e-06)
(-0.000209364 -1.19576e-05 -1.18907e-06)
(-0.000217015 -1.23947e-05 -9.37598e-07)
(-0.00022414 -1.28012e-05 -7.51687e-07)
(-0.000230866 -1.3185e-05 -6.1011e-07)
(-0.000237283 -1.35508e-05 -4.99824e-07)
(-0.000243452 -1.39023e-05 -4.12192e-07)
(-0.000249415 -1.42421e-05 -3.41456e-07)
(-0.000255198 -1.45718e-05 -2.83501e-07)
(-0.000260812 -1.4892e-05 -2.35338e-07)
(-0.000266253 -1.52028e-05 -1.94795e-07)
(-0.000271503 -1.55033e-05 -1.6016e-07)
(-0.00027652 -1.57913e-05 -1.30068e-07)
(-0.00028124 -1.6063e-05 -1.03455e-07)
(-0.000285561 -1.63129e-05 -7.9366e-08)
(-0.000289328 -1.65316e-05 -5.67976e-08)
(-0.000292298 -1.67057e-05 -3.38573e-08)
(-0.000293961 -1.68136e-05 -1.09797e-08)
(-9.8872e-05 -6.99478e-06 -5.8064e-05)
(-0.000119066 -8.14298e-06 -1.1267e-05)
(-0.000148697 -1.02069e-05 -9.60949e-06)
(-0.000167094 -1.14807e-05 -5.42979e-06)
(-0.000180608 -1.24134e-05 -3.54915e-06)
(-0.00019156 -1.31681e-05 -2.52051e-06)
(-0.000200958 -1.3815e-05 -1.88055e-06)
(-0.000209329 -1.43909e-05 -1.4495e-06)
(-0.000216979 -1.49168e-05 -1.14305e-06)
(-0.000224103 -1.54067e-05 -9.16446e-07)
(-0.000230828 -1.58686e-05 -7.43875e-07)
(-0.000237246 -1.63094e-05 -6.09447e-07)
(-0.000243415 -1.67329e-05 -5.02624e-07)
(-0.000249379 -1.71421e-05 -4.16353e-07)
(-0.000255162 -1.7539e-05 -3.45664e-07)
(-0.000260776 -1.79243e-05 -2.86959e-07)
(-0.000266217 -1.82979e-05 -2.37483e-07)
(-0.000271465 -1.86588e-05 -1.95195e-07)
(-0.00027648 -1.90044e-05 -1.58474e-07)
(-0.000281196 -1.93301e-05 -1.25996e-07)
(-0.00028551 -1.96291e-05 -9.66074e-08)
(-0.000289271 -1.98907e-05 -6.90767e-08)
(-0.000292231 -2.00983e-05 -4.0991e-08)
(-0.000293869 -2.02229e-05 -1.31895e-08)
(-9.84666e-05 -8.05138e-06 -6.83042e-05)
(-0.000119119 -9.4595e-06 -1.33958e-05)
(-0.000148692 -1.18452e-05 -1.13053e-05)
(-0.000167067 -1.33202e-05 -6.39227e-06)
(-0.000180571 -1.4401e-05 -4.17956e-06)
(-0.000191516 -1.52761e-05 -2.96879e-06)
(-0.00020091 -1.60261e-05 -2.21534e-06)
(-0.000209278 -1.66942e-05 -1.70767e-06)
(-0.000216926 -1.73045e-05 -1.34664e-06)
(-0.000224048 -1.78728e-05 -1.07976e-06)
(-0.000230773 -1.84089e-05 -8.76497e-07)
(-0.000237189 -1.89206e-05 -7.18094e-07)
(-0.000243358 -1.94122e-05 -5.92297e-07)
(-0.000249321 -1.98874e-05 -4.90663e-07)
(-0.000255105 -2.03479e-05 -4.07364e-07)
(-0.000260719 -2.07951e-05 -3.38143e-07)
(-0.000266159 -2.12286e-05 -2.79824e-07)
(-0.000271407 -2.16469e-05 -2.29956e-07)
(-0.000276419 -2.20471e-05 -1.8663e-07)
(-0.000281131 -2.24238e-05 -1.48333e-07)
(-0.000285441 -2.27694e-05 -1.13687e-07)
(-0.000289195 -2.30714e-05 -8.12387e-08)
(-0.000292147 -2.33104e-05 -4.8009e-08)
(-0.000293764 -2.34499e-05 -1.53282e-08)
(-9.80621e-05 -9.02853e-06 -7.84108e-05)
(-0.000119161 -1.06933e-05 -1.55372e-05)
(-0.000148672 -1.33789e-05 -1.29786e-05)
(-0.000167023 -1.50415e-05 -7.34338e-06)
(-0.000180516 -1.62607e-05 -4.8032e-06)
(-0.000191454 -1.72479e-05 -3.41236e-06)
(-0.000200844 -1.80948e-05 -2.54656e-06)
(-0.000209208 -1.88491e-05 -1.96303e-06)
(-0.000216852 -1.9538e-05 -1.54812e-06)
(-0.000223972 -2.01795e-05 -1.24137e-06)
(-0.000230694 -2.07852e-05 -1.00773e-06)
(-0.000237108 -2.13629e-05 -8.2566e-07)
(-0.000243276 -2.19183e-05 -6.81022e-07)
(-0.000249238 -2.24551e-05 -5.64193e-07)
(-0.000255021 -2.29756e-05 -4.68442e-07)
(-0.000260634 -2.34807e-05 -3.88844e-07)
(-0.000266074 -2.39702e-05 -3.21764e-07)
(-0.000271321 -2.44425e-05 -2.64389e-07)
(-0.000276332 -2.48938e-05 -2.14547e-07)
(-0.000281041 -2.53185e-05 -1.70472e-07)
(-0.000285347 -2.57076e-05 -1.30585e-07)
(-0.000289095 -2.60474e-05 -9.32432e-08)
(-0.00029204 -2.63159e-05 -5.49109e-08)
(-0.000293638 -2.64688e-05 -1.74228e-08)
(-9.76591e-05 -9.92105e-06 -8.83706e-05)
(-0.000119187 -1.1835e-05 -1.76853e-05)
(-0.000148635 -1.47959e-05 -1.46277e-05)
(-0.000166961 -1.66311e-05 -8.28187e-06)
(-0.000180441 -1.7978e-05 -5.41892e-06)
(-0.000191371 -1.90688e-05 -3.85036e-06)
(-0.000200754 -2.00051e-05 -2.87363e-06)
(-0.000209113 -2.08386e-05 -2.21537e-06)
(-0.000216754 -2.16002e-05 -1.74729e-06)
(-0.00022387 -2.23096e-05 -1.40107e-06)
(-0.00023059 -2.29792e-05 -1.13737e-06)
(-0.000237001 -2.36179e-05 -9.31922e-07)
(-0.000243167 -2.42322e-05 -7.68714e-07)
(-0.000249127 -2.48258e-05 -6.36844e-07)
(-0.000254907 -2.54013e-05 -5.28792e-07)
(-0.000260519 -2.596e-05 -4.38969e-07)
(-0.000265958 -2.65015e-05 -3.63224e-07)
(-0.000271203 -2.70237e-05 -2.98437e-07)
(-0.000276212 -2.75227e-05 -2.42146e-07)
(-0.000280919 -2.79919e-05 -1.92345e-07)
(-0.000285221 -2.84213e-05 -1.47287e-07)
(-0.000288964 -2.87957e-05 -1.05105e-07)
(-0.000291903 -2.90912e-05 -6.17061e-08)
(-0.000293484 -2.92565e-05 -1.94712e-08)
(-9.72573e-05 -1.07243e-05 -9.81706e-05)
(-0.000119194 -1.28756e-05 -1.98335e-05)
(-0.000148576 -1.60858e-05 -1.62501e-05)
(-0.000166875 -1.80776e-05 -9.20637e-06)
(-0.000180341 -1.95405e-05 -6.02593e-06)
(-0.000191262 -2.07257e-05 -4.2822e-06)
(-0.000200637 -2.17427e-05 -3.19613e-06)
(-0.00020899 -2.26485e-05 -2.46427e-06)
(-0.000216626 -2.34764e-05 -1.94358e-06)
(-0.000223738 -2.42473e-05 -1.55853e-06)
(-0.000230453 -2.49751e-05 -1.26532e-06)
(-0.000236861 -2.56693e-05 -1.03676e-06)
(-0.000243023 -2.63371e-05 -8.5519e-07)
(-0.00024898 -2.69823e-05 -7.08564e-07)
(-0.000254759 -2.76082e-05 -5.88351e-07)
(-0.000260368 -2.82158e-05 -4.88382e-07)
(-0.000265805 -2.88044e-05 -4.04134e-07)
(-0.000271047 -2.9372e-05 -3.32035e-07)
(-0.000276054 -2.99144e-05 -2.6937e-07)
(-0.000280757 -3.04242e-05 -2.13955e-07)
(-0.000285056 -3.08902e-05 -1.63794e-07)
(-0.000288796 -3.12965e-05 -1.16811e-07)
(-0.000291728 -3.16165e-05 -6.83917e-08)
(-0.000293296 -3.1793e-05 -2.14816e-08)
(-9.68547e-05 -1.14342e-05 -0.000107798)
(-0.00011918 -1.38082e-05 -2.19764e-05)
(-0.000148494 -1.72399e-05 -1.78437e-05)
(-0.000166763 -1.93716e-05 -1.01155e-05)
(-0.000180213 -2.0938e-05 -6.62301e-06)
(-0.000191122 -2.22074e-05 -4.70734e-06)
(-0.000200489 -2.32967e-05 -3.51374e-06)
(-0.000208834 -2.42671e-05 -2.7092e-06)
(-0.000216464 -2.5154e-05 -2.13693e-06)
(-0.00022357 -2.598e-05 -1.71365e-06)
(-0.000230281 -2.67598e-05 -1.39126e-06)
(-0.000236684 -2.75038e-05 -1.13995e-06)
(-0.000242841 -2.82193e-05 -9.40354e-07)
(-0.000248795 -2.89108e-05 -7.79134e-07)
(-0.000254569 -2.95816e-05 -6.46944e-07)