/*--------------------------------*- C++ -*----------------------------------*\
  =========                 |
  \\      /  F ield         | OpenFOAM: The Open Source CFD Toolbox
   \\    /   O peration     | Website:  https://openfoam.org
    \\  /    A nd           | Version:  6
     \\/     M anipulation  |
\*---------------------------------------------------------------------------*/
FoamFile
{
    version     2.0;
    format      ascii;
    class       volScalarField;
    location    "0";
    object      k;
}
// * * * * * * * * * * * * * * * * * * * * * * * * * * * * * * * * * * * * * //

dimensions      [0 2 -2 0 0 0 0];

internalField   nonuniform List<scalar> 
2880
(
1.45207e-05
1.45201e-05
1.45206e-05
6.30385e-05
6.30295e-05
6.30312e-05
8.65673e-05
8.65573e-05
8.65594e-05
0.000110388
0.000110378
0.000110381
0.000135766
0.000135758
0.000135761
0.00016368
0.000163674
0.00016368
0.000195032
0.000195029
0.000195038
0.000230996
0.000230995
0.000231007
0.000273453
0.000273455
0.000273471
0.000324284
0.000324288
0.000324309
0.000385276
0.000385279
0.000385302
0.00045783
0.000457821
0.000457848
0.000539246
0.000539224
0.000539231
0.00062542
0.000625385
0.000625319
0.000686163
0.000686106
0.000685994
0.000686159
0.0006861
0.000685987
0.000625331
0.000625296
0.000625231
0.00053913
0.000539109
0.000539116
0.000457717
0.000457709
0.000457735
0.000385174
0.000385176
0.000385198
0.000324234
0.000324237
0.000324257
0.00027341
0.000273412
0.000273427
0.000230955
0.000230954
0.000230965
0.000194986
0.000194982
0.000194991
0.000163628
0.000163621
0.000163628
0.000135716
0.000135707
0.000135711
0.000110349
0.000110339
0.000110341
8.65434e-05
8.65331e-05
8.65352e-05
6.30244e-05
6.30153e-05
6.3017e-05
1.4518e-05
1.45173e-05
1.45178e-05
6.92541e-05
6.92557e-05
6.92532e-05
0.000298415
0.000298409
0.000298388
0.00037362
0.000373619
0.000373595
0.000436772
0.00043678
0.000436753
0.000492844
0.000492864
0.000492834
0.000544053
0.00054408
0.000544053
0.000591734
0.000591768
0.000591743
0.00063716
0.0006372
0.000637176
0.000681933
0.000681976
0.000681955
0.000727141
0.000727184
0.000727165
0.000773672
0.00077371
0.000773692
0.000822282
0.000822309
0.000822295
0.000871594
0.000871603
0.000871578
0.000920155
0.000920154
0.000920089
0.000952351
0.000952332
0.000952258
0.000952349
0.00095233
0.000952249
0.000920105
0.000920104
0.000920044
0.000871523
0.000871537
0.000871512
0.000822211
0.000822239
0.000822224
0.000773601
0.00077364
0.000773621
0.000727103
0.000727145
0.000727127
0.000681895
0.000681937
0.000681916
0.000637116
0.000637155
0.00063713
0.000591673
0.000591707
0.000591681
0.000543968
0.000543994
0.000543968
0.000492745
0.000492762
0.000492734
0.000436679
0.000436685
0.000436658
0.000373551
0.000373549
0.000373525
0.000298367
0.00029836
0.00029834
6.92432e-05
6.92447e-05
6.92422e-05
9.31436e-05
9.31411e-05
9.31426e-05
0.000382482
0.000382457
0.000382449
0.000469254
0.000469234
0.000469223
0.000542532
0.000542521
0.000542508
0.000606568
0.000606569
0.000606556
0.000663829
0.000663839
0.00066383
0.00071575
0.000715767
0.000715761
0.000763615
0.000763637
0.000763633
0.000808933
0.000808958
0.000808956
0.000852556
0.000852581
0.000852578
0.000895092
0.000895113
0.000895112
0.000937075
0.000937087
0.000937087
0.000977427
0.000977425
0.000977415
0.00101538
0.00101537
0.00101532
0.00103962
0.00103959
0.00103954
0.00103962
0.00103959
0.00103953
0.00101534
0.00101533
0.00101529
0.000977372
0.000977372
0.000977361
0.000937018
0.000937029
0.000937029
0.000895031
0.000895052
0.00089505
0.000852521
0.000852545
0.000852546
0.000808896
0.000808922
0.000808919
0.000763571
0.000763593
0.000763587
0.000715686
0.000715703
0.000715696
0.000663737
0.000663745
0.000663737
0.000606457
0.000606455
0.000606444
0.000542425
0.000542412
0.000542399
0.000469174
0.000469153
0.000469142
0.000382425
0.0003824
0.000382392
9.31295e-05
9.31266e-05
9.3128e-05
0.000143905
0.000143904
0.000143904
0.000521148
0.000521115
0.000521107
0.00061073
0.000610698
0.000610691
0.00069135
0.000691326
0.00069132
0.000761395
0.000761384
0.00076138
0.00082313
0.000823128
0.000823131
0.00087801
0.000878017
0.000878024
0.000927302
0.000927315
0.000927324
0.000972388
0.000972405
0.000972415
0.00101385
0.00101387
0.00101388
0.00105196
0.00105197
0.00105198
0.00108693
0.00108693
0.00108694
0.00111785
0.00111785
0.00111785
0.00114453
0.00114451
0.00114449
0.00116051
0.00116047
0.00116045
0.00116051
0.00116047
0.00116044
0.00114451
0.00114449
0.00114447
0.00111781
0.00111781
0.00111781
0.00108689
0.00108689
0.0010869
0.00105191
0.00105192
0.00105193
0.00101382
0.00101384
0.00101385
0.000972355
0.000972372
0.000972382
0.000927259
0.000927271
0.00092728
0.000877945
0.000877953
0.000877959
0.000823033
0.000823029
0.000823033
0.000761275
0.000761261
0.000761259
0.000691231
0.000691206
0.0006912
0.00061064
0.000610608
0.000610601
0.000521084
0.000521051
0.000521043
0.000143885
0.000143883
0.000143883
0.000190713
0.000190712
0.000190711
0.000580898
0.000580862
0.000580854
0.000650503
0.000650469
0.000650463
0.000726165
0.00072614
0.000726134
0.000793495
0.000793483
0.00079348
0.000853309
0.000853307
0.000853312
0.000906736
0.000906745
0.000906754
0.000954939
0.000954953
0.000954964
0.000999255
0.000999274
0.000999284
0.00104026
0.00104028
0.00104029
0.0010782
0.00107821
0.00107823
0.00111329
0.00111329
0.00111331
0.00114455
0.00114455
0.00114455
0.00117169
0.00117167
0.00117165
0.00118789
0.00118784
0.00118781
0.00118789
0.00118784
0.00118781
0.00117167
0.00117165
0.00117163
0.00114451
0.00114451
0.00114451
0.00111325
0.00111325
0.00111326
0.00107815
0.00107816
0.00107818
0.00104023
0.00104025
0.00104026
0.000999224
0.000999244
0.000999254
0.000954897
0.00095491
0.000954921
0.000906673
0.000906681
0.00090669
0.000853215
0.000853211
0.000853216
0.000793377
0.000793363
0.000793361
0.000726049
0.000726022
0.000726016
0.000650415
0.00065038
0.000650374
0.000580834
0.000580798
0.000580789
0.000190687
0.000190686
0.000190685
0.000235879
0.000235878
0.000235876
0.000611923
0.000611893
0.000611881
0.000664712
0.00066468
0.000664673
0.000734209
0.000734186
0.000734178
0.000799115
0.000799105
0.000799101
0.000857628
0.000857628
0.000857633
0.000910248
0.000910258
0.000910268
0.00095792
0.000957934
0.000957948
0.00100189
0.00100191
0.00100192
0.00104267
0.00104269
0.0010427
0.00108051
0.00108053
0.00108054
0.00111561
0.00111561
0.00111563
0.00114697
0.00114697
0.00114697
0.0011743
0.00117428
0.00117426
0.00119056
0.00119051
0.00119048
0.00119056
0.00119051
0.00119048
0.00117428
0.00117425
0.00117423
0.00114694
0.00114694
0.00114694
0.00111557
0.00111557
0.00111559
0.00108046
0.00108048
0.00108049
0.00104264
0.00104266
0.00104267
0.00100186
0.00100187
0.00100189
0.000957879
0.000957892
0.000957906
0.000910186
0.000910196
0.000910205
0.000857534
0.000857533
0.000857537
0.000798998
0.000798986
0.000798983
0.000734093
0.000734068
0.000734061
0.000664624
0.000664592
0.000664584
0.000611858
0.000611827
0.000611815
0.000235847
0.000235847
0.000235845
0.000253698
0.000253692
0.000253695
0.00062387
0.000623839
0.000623829
0.000669362
0.00066933
0.000669323
0.00073595
0.000735927
0.00073592
0.000799702
0.000799692
0.000799689
0.000857626
0.000857627
0.000857631
0.000909903
0.000909914
0.000909924
0.000957362
0.000957377
0.000957391
0.0010012
0.00100121
0.00100123
0.0010419
0.00104191
0.00104193
0.00107969
0.0010797
0.00107972
0.00111477
0.00111477
0.00111479
0.00114613
0.00114613
0.00114614
0.00117348
0.00117346
0.00117344
0.00118975
0.00118971
0.00118967
0.00118975
0.00118971
0.00118967
0.00117346
0.00117344
0.00117342
0.0011461
0.0011461
0.0011461
0.00111472
0.00111473
0.00111475
0.00107964
0.00107965
0.00107967
0.00104187
0.00104188
0.0010419
0.00100117
0.00100118
0.0010012
0.000957322
0.000957335
0.000957349
0.000909842
0.000909852
0.000909861
0.000857533
0.000857533
0.000857536
0.000799585
0.000799574
0.000799571
0.000735834
0.000735809
0.000735802
0.000669274
0.000669242
0.000669235
0.000623804
0.000623772
0.000623763
0.000253664
0.000253658
0.000253662
0.000290634
0.000290631
0.000290631
0.000657592
0.000657566
0.000657555
0.000680487
0.000680459
0.000680451
0.000739401
0.00073938
0.000739372
0.000799926
0.000799918
0.000799914
0.000856212
0.000856214
0.000856219
0.000907557
0.000907567
0.000907579
0.000954453
0.000954467
0.000954483
0.000997945
0.000997962
0.000997979
0.00103844
0.00103845
0.00103847
0.0010761
0.00107611
0.00107613
0.00111113
0.00111113
0.00111115
0.00114249
0.00114249
0.0011425
0.00116988
0.00116986
0.00116984
0.00118615
0.0011861
0.00118607
0.00118615
0.0011861
0.00118607
0.00116985
0.00116983
0.00116981
0.00114246
0.00114246
0.00114246
0.00111108
0.00111109
0.00111111
0.00107605
0.00107606
0.00107608
0.00103841
0.00103843
0.00103844
0.000997914
0.00099793
0.000997947
0.000954413
0.000954426
0.000954442
0.000907497
0.000907507
0.000907517
0.000856121
0.000856122
0.000856126
0.00079981
0.0007998
0.000799797
0.000739284
0.000739262
0.000739255
0.000680399
0.000680371
0.000680363
0.000657524
0.000657498
0.000657486
0.000290595
0.000290593
0.000290594
0.000330517
0.000330517
0.000330516
0.000698294
0.000698274
0.000698263
0.000692867
0.000692844
0.000692837
0.000741369
0.000741352
0.000741345
0.000797109
0.000797102
0.000797099
0.000850932
0.000850933
0.000850939
0.000900897
0.000900906
0.000900918
0.00094699
0.000947002
0.000947019
0.000990018
0.000990032
0.000990052
0.00103023
0.00103024
0.00103026
0.00106772
0.00106774
0.00106775
0.00110265
0.00110266
0.00110268
0.00113396
0.00113396
0.00113397
0.00116131
0.0011613
0.00116128
0.00117756
0.00117752
0.00117748
0.00117756
0.00117752
0.00117748
0.00116129
0.00116127
0.00116125
0.00113393
0.00113393
0.00113393
0.00110261
0.00110262
0.00110263
0.00106767
0.00106769
0.0010677
0.0010302
0.00103021
0.00103023
0.000989988
0.000990002
0.000990021
0.000946952
0.000946964
0.00094698
0.000900839
0.000900848
0.00090086
0.000850842
0.000850843
0.000850848
0.000796994
0.000796985
0.000796982
0.000741252
0.000741234
0.000741226
0.00069278
0.000692756
0.000692749
0.000698221
0.000698201
0.000698189
0.000330474
0.000330474
0.000330473
0.000379424
0.000379423
0.000379423
0.000723331
0.000723322
0.000723307
0.000708285
0.000708267
0.000708263
0.000743761
0.000743748
0.000743742
0.000793068
0.000793061
0.00079306
0.000843476
0.000843477
0.000843483
0.000891532
0.00089154
0.000891553
0.000936538
0.000936548
0.000936565
0.000978953
0.000978965
0.000978985
0.00101881
0.00101882
0.00101884
0.00105609
0.0010561
0.00105612
0.00109089
0.0010909
0.00109092
0.00112212
0.00112211
0.00112213
0.00114938
0.00114937
0.00114935
0.00116558
0.00116555
0.00116551
0.00116558
0.00116555
0.00116551
0.00114936
0.00114934
0.00114932
0.00112208
0.00112208
0.00112209
0.00109085
0.00109086
0.00109087
0.00105604
0.00105605
0.00105607
0.00101879
0.00101879
0.00101882
0.000978925
0.000978936
0.000978956
0.000936502
0.000936512
0.000936529
0.000891477
0.000891485
0.000891497
0.000843389
0.00084339
0.000843395
0.000792954
0.000792946
0.000792944
0.000743644
0.000743629
0.000743623
0.000708197
0.000708179
0.000708173
0.000723253
0.000723244
0.000723228
0.000379374
0.000379373
0.000379373
0.00039865
0.00039864
0.000398649
0.000732545
0.000732536
0.000732525
0.000714816
0.000714797
0.000714796
0.000745031
0.000745018
0.000745014
0.000791456
0.00079145
0.000791448
0.000840238
0.000840241
0.000840245
0.000887347
0.000887356
0.000887367
0.000931797
0.000931809
0.000931824
0.000973891
0.000973904
0.000973922
0.00101355
0.00101357
0.00101359
0.00105071
0.00105073
0.00105074
0.00108544
0.00108545
0.00108547
0.00111662
0.00111662
0.00111663
0.00114383
0.00114382
0.0011438
0.00115999
0.00115997
0.00115993
0.00115999
0.00115997
0.00115993
0.0011438
0.00114379
0.00114377
0.00111658
0.00111658
0.00111659
0.0010854
0.00108541
0.00108542
0.00105067
0.00105068
0.00105069
0.00101353
0.00101354
0.00101356
0.000973863
0.000973876
0.000973893
0.000931762
0.000931774
0.000931788
0.000887294
0.000887303
0.000887314
0.000840152
0.000840155
0.000840158
0.000791342
0.000791336
0.000791333
0.000744913
0.0007449
0.000744895
0.000714727
0.000714708
0.000714706
0.000732465
0.000732456
0.000732444
0.000398597
0.000398587
0.000398596
0.000435817
0.000435814
0.000435817
0.000763901
0.000763898
0.000763888
0.000730441
0.000730429
0.000730429
0.000748722
0.000748712
0.00074871
0.000787815
0.000787811
0.00078781
0.000832302
0.000832303
0.000832308
0.000876882
0.000876888
0.000876899
0.000919848
0.000919856
0.000919872
0.0009611
0.000961109
0.000961127
0.00100027
0.00100029
0.0010003
0.00103714
0.00103715
0.00103717
0.00107171
0.00107171
0.00107173
0.00110276
0.00110277
0.00110278
0.00112988
0.00112987
0.00112986
0.00114599
0.00114597
0.00114594
0.00114599
0.00114597
0.00114594
0.00112985
0.00112985
0.00112983
0.00110273
0.00110273
0.00110274
0.00107167
0.00107167
0.00107169
0.0010371
0.0010371
0.00103712
0.00100025
0.00100026
0.00100028
0.000961074
0.000961083
0.000961101
0.000919816
0.000919824
0.00091984
0.000876833
0.000876839
0.00087685
0.000832219
0.000832221
0.000832224
0.000787703
0.000787697
0.000787696
0.000748602
0.000748592
0.00074859
0.00073035
0.000730338
0.000730338
0.000763815
0.000763812
0.000763801
0.000435758
0.000435755
0.000435758
0.00047384
0.00047384
0.00047384
0.000801637
0.000801635
0.000801631
0.000749381
0.000749375
0.000749379
0.000754469
0.000754463
0.000754464
0.000784083
0.000784079
0.000784079
0.000822533
0.000822533
0.000822537
0.000863388
0.000863392
0.000863402
0.000904107
0.000904113
0.000904128
0.000944066
0.000944073
0.000944089
0.00098249
0.000982497
0.000982515
0.0010189
0.00101891
0.00101893
0.0010532
0.0010532
0.00105322
0.00108407
0.00108408
0.00108409
0.00111106
0.00111106
0.00111105
0.00112709
0.00112708
0.00112705
0.00112709
0.00112708
0.00112705
0.00111104
0.00111103
0.00111102
0.00108404
0.00108404
0.00108405
0.00105316
0.00105316
0.00105318
0.00101886
0.00101886
0.00101888
0.00098247
0.000982477
0.000982494
0.000944043
0.00094405
0.000944066
0.00090408
0.000904086
0.000904101
0.000863344
0.000863348
0.000863359
0.000822454
0.000822454
0.000822458
0.00078397
0.000783966
0.000783966
0.000754346
0.00075434
0.00075434
0.000749287
0.000749281
0.000749284
0.000801545
0.000801542
0.000801538
0.000473772
0.000473773
0.000473773
0.00052394
0.000523938
0.000523941
0.000813878
0.000813886
0.000813877
0.00077031
0.000770308
0.000770316
0.000763078
0.000763074
0.000763079
0.000782163
0.00078216
0.000782162
0.000813226
0.000813225
0.000813229
0.000849253
0.000849254
0.000849264
0.000886964
0.000886967
0.000886981
0.000925141
0.000925145
0.00092516
0.000962529
0.000962533
0.000962549
0.000998337
0.000998342
0.000998359
0.00103228
0.00103227
0.00103229
0.00106292
0.00106292
0.00106293
0.00108968
0.00108968
0.00108967
0.00110561
0.0011056
0.00110558
0.00110561
0.0011056
0.00110558
0.00108966
0.00108965
0.00108965
0.00106289
0.00106288
0.0010629
0.00103224
0.00103224
0.00103226
0.000998294
0.000998296
0.000998312
0.000962511
0.000962515
0.000962532
0.000925122
0.000925126
0.000925141
0.000886942
0.000886945
0.000886959
0.000849216
0.000849217
0.000849226
0.000813151
0.00081315
0.000813154
0.00078205
0.000782046
0.000782049
0.000762952
0.000762949
0.000762953
0.000770211
0.00077021
0.000770217
0.00081378
0.000813788
0.000813779
0.000523865
0.000523863
0.000523866
0.000542563
0.000542546
0.000542565
0.000817625
0.000817635
0.000817627
0.000777999
0.000777993
0.000778008
0.000766713
0.000766708
0.000766717
0.00078175
0.000781747
0.00078175
0.000809703
0.000809703
0.000809705
0.00084356
0.000843565
0.00084357
0.000879848
0.000879856
0.000879863
0.000917144
0.000917153
0.000917161
0.000953995
0.000954004
0.000954013
0.000989473
0.000989482
0.000989492
0.0010232
0.00102321
0.00102322
0.0010537
0.00105371
0.00105371
0.00108035
0.00108035
0.00108034
0.00109621
0.00109621
0.00109619
0.00109621
0.00109621
0.00109619
0.00108033
0.00108033
0.00108032
0.00105367
0.00105368
0.00105368
0.00102316
0.00102317
0.00102318
0.000989429
0.000989437
0.000989447
0.000953978
0.000953988
0.000953997
0.000917126
0.000917136
0.000917143
0.000879828
0.000879836
0.000879844
0.000843525
0.00084353
0.000843535
0.000809629
0.00080963
0.000809631
0.000781637
0.000781634
0.000781637
0.000766586
0.000766581
0.00076659
0.000777899
0.000777893
0.000777907
0.000817525
0.000817534
0.000817526
0.000542485
0.000542468
0.000542486
0.000575345
0.000575339
0.000575347
0.000840509
0.000840518
0.000840515
0.000795379
0.000795379
0.000795395
0.000775696
0.000775695
0.000775706
0.000781033
0.000781031
0.000781036
0.000801102
0.000801101
0.000801103
0.00082933
0.000829332
0.000829337
0.000861896
0.000861899
0.000861907
0.000896909
0.000896913
0.000896922
0.000932401
0.000932406
0.000932416
0.00096707
0.000967074
0.000967085
0.00100033
0.00100033
0.00100034
0.00103052
0.00103053
0.00103053
0.00105694
0.00105694
0.00105694
0.0010727
0.00107269
0.00107268
0.0010727
0.00107269
0.00107268
0.00105692
0.00105692
0.00105692
0.00103049
0.0010305
0.0010305
0.00100029
0.0010003
0.00100031
0.000967026
0.000967031
0.000967041
0.000932388
0.000932393
0.000932403
0.000896896
0.0008969
0.000896908
0.000861881
0.000861885
0.000861893
0.000829302
0.000829303
0.000829308
0.000801032
0.000801031
0.000801033
0.000780919
0.000780916
0.000780921
0.000775564
0.000775564
0.000775575
0.000795273
0.000795274
0.00079529
0.000840403
0.000840411
0.000840409
0.00057526
0.000575254
0.000575262
0.000607159
0.00060716
0.000607161
0.000866573
0.000866575
0.000866582
0.000813254
0.000813257
0.000813278
0.000786639
0.00078664
0.000786656
0.000781333
0.000781333
0.000781339
0.000791626
0.000791624
0.000791625
0.000812317
0.000812317
0.000812319
0.000839622
0.000839623
0.000839629
0.000871286
0.000871288
0.000871294
0.000904731
0.000904734
0.000904741
0.000938153
0.000938155
0.000938163
0.00097068
0.000970683
0.000970692
0.0010004
0.0010004
0.00100041
0.00102648
0.00102648
0.00102648
0.00104207
0.00104207
0.00104206
0.00104207
0.00104207
0.00104206
0.00102645
0.00102646
0.00102646
0.00100036
0.00100037
0.00100037
0.000970646
0.000970648
0.000970657
0.000938111
0.000938113
0.000938121
0.000904723
0.000904726
0.000904733
0.000871278
0.00087128
0.000871286
0.000839615
0.000839617
0.000839622
0.000812295
0.000812295
0.000812297
0.000791557
0.000791556
0.000791558
0.000781216
0.000781214
0.000781221
0.000786501
0.000786503
0.000786518
0.000813143
0.000813146
0.000813167
0.00086646
0.000866461
0.000866469
0.000607066
0.000607067
0.000607069
0.000652675
0.000652669
0.000652678
0.000864843
0.00086486
0.000864854
0.000828032
0.000828037
0.00082806
0.000797454
0.000797458
0.000797476
0.000783361
0.000783362
0.00078337
0.000783955
0.000783952
0.000783954
0.000796293
0.000796289
0.000796292
0.000817303
0.0008173
0.000817306
0.000844675
0.000844672
0.000844679
0.000875403
0.0008754
0.000875408
0.000907149
0.000907146
0.000907156
0.000938667
0.000938665
0.000938675
0.000967754
0.000967751
0.000967762
0.000993344
0.000993343
0.000993346
0.00100871
0.00100871
0.00100871
0.00100871
0.00100871
0.00100871
0.000993319
0.00099332
0.000993324
0.000967721
0.00096772
0.000967729
0.000938635
0.000938632
0.000938643
0.00090711
0.000907107
0.000907117
0.000875399
0.000875397
0.000875404
0.000844673
0.00084467
0.000844677
0.000817303
0.000817301
0.000817306
0.000796276
0.000796273
0.000796276
0.000783887
0.000783885
0.000783887
0.000783239
0.000783238
0.000783247
0.000797311
0.000797315
0.000797333
0.000827915
0.00082792
0.000827943
0.000864725
0.000864741
0.000864736
0.000652573
0.000652567
0.000652576
0.000668539
0.000668512
0.000668542
0.000864148
0.00086417
0.00086416
0.000832363
0.000832365
0.000832393
0.000800987
0.000800987
0.00080101
0.000784121
0.000784121
0.00078413
0.000781199
0.000781199
0.000781198
0.000790227
0.000790229
0.000790225
0.00080856
0.000808566
0.000808562
0.000833988
0.000833997
0.000833991
0.000863411
0.000863422
0.000863415
0.000894304
0.000894315
0.000894309
0.000925275
0.000925288
0.000925282
0.000953997
0.00095401
0.000954004
0.000979304
0.000979319
0.000979307
0.000994529
0.000994547
0.000994527
0.000994528
0.000994546
0.000994527
0.00097928
0.000979296
0.000979284
0.000953966
0.00095398
0.000953972
0.000925244
0.000925256
0.000925251
0.000894266
0.000894278
0.000894272
0.00086341
0.00086342
0.000863413
0.000833989
0.000833998
0.000833991
0.000808562
0.000808569
0.000808564
0.000790211
0.000790215
0.00079021
0.000781131
0.000781131
0.00078113
0.000783997
0.000783996
0.000784005
0.000800842
0.000800843
0.000800866
0.000832244
0.000832246
0.000832274
0.000864028
0.00086405
0.000864039
0.000668434
0.000668407
0.000668437
0.000693918
0.000693908
0.000693921
0.000878497
0.000878509
0.000878509
0.000841268
0.000841272
0.000841301
0.000808686
0.00080869
0.000808713
0.000785362
0.000785362
0.000785373
0.000773731
0.00077373
0.000773731
0.000774317
0.000774315
0.000774313
0.00078572
0.00078572
0.000785718
0.000806124
0.000806126
0.000806123
0.000832201
0.000832203
0.000832201
0.000860947
0.00086095
0.000860949
0.000890615
0.000890618
0.000890618
0.000918508
0.000918511
0.000918512
0.00094326
0.000943266
0.000943263
0.00095823
0.000958236
0.000958229
0.000958229
0.000958235
0.000958228
0.000943238
0.000943243
0.00094324
0.000918479
0.000918483
0.000918484
0.000890587
0.00089059
0.00089059
0.000860912
0.000860915
0.000860915
0.000832205
0.000832207
0.000832204
0.00080613
0.000806132
0.000806128
0.000785729
0.000785729
0.000785727
0.000774305
0.000774305
0.000774301
0.000773661
0.00077366
0.000773661
0.00078523
0.000785231
0.000785241
0.000808534
0.000808537
0.000808561
0.000841144
0.000841149
0.000841177
0.000878371
0.000878383
0.000878382
0.000693806
0.000693796
0.000693809
0.000719372
0.000719372
0.000719375
0.000894173
0.000894175
0.000894184
0.000846304
0.000846308
0.00084634
0.000814234
0.000814239
0.000814264
0.000785658
0.000785659
0.000785671
0.000765102
0.000765101
0.000765101
0.00075592
0.000755918
0.000755913
0.000758587
0.000758586
0.000758583
0.000772202
0.000772201
0.000772197
0.000793502
0.000793502
0.000793498
0.000819052
0.000819052
0.00081905
0.000846714
0.000846714
0.000846714
0.000873316
0.000873317
0.000873317
0.000897216
0.000897217
0.000897216
0.000911787
0.000911788
0.000911785
0.000911786
0.000911787
0.000911784
0.000897195
0.000897196
0.000897195
0.000873291
0.000873291
0.000873291
0.00084669
0.00084669
0.00084669
0.000819021
0.000819021
0.00081902
0.000793513
0.000793513
0.000793509
0.000772213
0.000772212
0.000772208
0.000758601
0.0007586
0.000758596
0.00075591
0.000755908
0.000755904
0.000765026
0.000765025
0.000765026
0.000785517
0.000785519
0.00078553
0.000814074
0.000814078
0.000814103
0.000846175
0.000846181
0.000846211
0.00089404
0.00089404
0.00089405
0.000719251
0.000719252
0.000719254
0.000757379
0.000757367
0.000757383
0.000887527
0.000887552
0.000887537
0.000847679
0.00084768
0.000847713
0.000814076
0.000814081
0.000814106
0.00078325
0.000783251
0.000783263
0.000756563
0.000756559
0.000756562
0.000739071
0.000739065
0.000739064
0.000733245
0.000733237
0.000733238
0.000739448
0.000739439
0.000739441
0.00075508
0.00075507
0.000755074
0.000776637
0.000776627
0.000776634
0.000801657
0.000801646
0.000801654
0.000826597
0.000826586
0.000826595
0.000849359
0.000849349
0.000849356
0.00086343
0.000863419
0.000863427
0.000863428
0.000863418
0.000863426
0.000849339
0.000849329
0.000849337
0.000826575
0.000826564
0.000826572
0.000801637
0.000801627
0.000801635
0.000776611
0.000776601
0.000776608
0.000755096
0.000755086
0.000755089
0.000739463
0.000739454
0.000739456
0.000733259
0.000733251
0.000733252
0.000739056
0.00073905
0.000739048
0.000756478
0.000756474
0.000756477
0.0007831
0.000783101
0.000783114
0.00081391
0.000813915
0.00081394
0.000847542
0.000847544
0.000847577
0.000887387
0.000887412
0.000887398
0.000757249
0.000757236
0.000757252
0.000769599
0.000769562
0.000769602
0.000886377
0.000886408
0.000886387
0.000847011
0.000847013
0.000847044
0.000812893
0.0008129
0.000812923
0.000781584
0.000781588
0.000781597
0.000753086
0.000753088
0.000753086
0.000732792
0.000732796
0.000732785
0.000723821
0.000723829
0.000723814
0.00072705
0.000727061
0.000727042
0.000740228
0.000740243
0.000740221
0.00075993
0.000759948
0.000759926
0.000783636
0.000783657
0.000783632
0.000807691
0.000807712
0.000807688
0.000829825
0.000829848
0.000829821
0.000843588
0.000843612
0.000843584
0.000843587
0.000843611
0.000843583
0.000829806
0.000829829
0.000829802
0.00080767
0.000807692
0.000807666
0.000783618
0.000783639
0.000783615
0.000759906
0.000759924
0.000759902
0.000740246
0.000740261
0.000740238
0.000727066
0.000727077
0.000727057
0.000723835
0.000723842
0.000723827
0.000732774
0.000732778
0.000732766
0.000752997
0.000752999
0.000752996
0.000781432
0.000781435
0.000781445
0.000812724
0.000812732
0.000812755
0.000846872
0.000846874
0.000846906
0.000886235
0.000886266
0.000886245
0.000769465
0.000769428
0.000769468
0.000788527
0.000788514
0.00078853
0.000899102
0.000899116
0.00089911
0.000841909
0.00084191
0.000841941
0.000806814
0.000806819
0.000806844
0.000774341
0.000774343
0.000774352
0.000741567
0.000741567
0.000741567
0.000714425
0.000714423
0.000714416
0.000697566
0.000697566
0.000697557
0.000693255
0.000693255
0.000693246
0.000700165
0.000700166
0.000700157
0.000715124
0.000715126
0.000715117
0.000735569
0.000735572
0.000735562
0.000757511
0.000757513
0.000757505
0.000778321
0.000778324
0.000778314
0.000791501
0.000791505
0.000791494
0.000791501
0.000791504
0.000791494
0.000778305
0.000778308
0.000778298
0.000757494
0.000757496
0.000757487
0.000735556
0.000735558
0.00073555
0.000715103
0.000715105
0.000715097
0.000700188
0.000700189
0.000700179
0.000693272
0.000693272
0.000693262
0.000697576
0.000697576
0.000697567
0.000714398
0.000714396
0.000714389
0.000741465
0.000741465
0.000741465
0.000774176
0.000774178
0.000774187
0.000806634
0.000806639
0.000806665
0.000841764
0.000841765
0.000841797
0.000898952
0.000898967
0.00089896
0.000788385
0.000788372
0.000788388
0.000809787
0.000809785
0.00080979
0.000912592
0.000912595
0.000912597
0.000831556
0.000831557
0.000831588
0.000793289
0.000793292
0.000793319
0.000760383
0.000760383
0.000760393
0.000724981
0.000724981
0.000724981
0.000692118
0.000692116
0.00069211
0.000667431
0.000667429
0.000667421
0.000654593
0.000654592
0.000654584
0.00065365
0.000653649
0.00065364
0.000662187
0.000662186
0.000662179
0.00067794
0.000677939
0.000677932
0.000696765
0.000696763
0.000696756
0.000715606
0.000715603
0.000715596
0.000727912
0.00072791
0.000727902
0.000727912
0.00072791
0.000727902
0.000715592
0.00071559
0.000715583
0.000696752
0.000696751
0.000696744
0.000677933
0.000677931
0.000677925
0.00066217
0.000662168
0.000662162
0.000653676
0.000653674
0.000653666
0.000654607
0.000654605
0.000654597
0.000667431
0.000667429
0.00066742
0.000692075
0.000692072
0.000692066
0.000724859
0.000724859
0.000724859
0.000760201
0.000760202
0.000760211
0.000793097
0.0007931
0.000793126
0.000831404
0.000831405
0.000831436
0.000912434
0.000912437
0.000912439
0.000809635
0.000809633
0.000809638
0.000839855
0.000839832
0.000839857
0.000905542
0.000905593
0.000905547
0.000825818
0.000825798
0.000825846
0.000775282
0.000775276
0.000775309
0.000740566
0.000740561
0.000740578
0.000704786
0.000704779
0.000704787
0.000669525
0.000669514
0.000669518
0.000639911
0.000639896
0.000639901
0.00062027
0.000620252
0.00062026
0.000611992
0.000611971
0.000611982
0.000613904
0.000613879
0.000613895
0.000624397
0.00062437
0.000624388
0.000639654
0.000639625
0.000639645
0.000656205
0.000656175
0.000656195
0.000667505
0.000667475
0.000667494
0.000667506
0.000667475
0.000667495
0.000656196
0.000656166
0.000656186
0.000639646
0.000639617
0.000639637
0.000624392
0.000624365
0.000624383
0.000613888
0.000613864
0.00061388
0.000612013
0.000611992
0.000612003
0.000620274
0.000620255
0.000620263
0.000639892
0.000639877
0.000639881
0.000669455
0.000669444
0.000669448
0.000704642
0.000704635
0.000704643
0.000740368
0.000740363
0.000740381
0.00077508
0.000775075
0.000775108
0.000825655
0.000825634
0.000825682
0.000905378
0.000905429
0.000905383
0.000839694
0.000839671
0.000839696
0.00084837
0.000848321
0.000848372
0.000905643
0.000905701
0.000905648
0.000822944
0.000822927
0.00082297
0.00076866
0.000768668
0.000768686
0.000733117
0.000733129
0.000733129
0.000697202
0.000697214
0.000697203
0.000661322
0.000661331
0.000661315
0.000630209
0.000630218
0.000630199
0.000608237
0.000608249
0.000608227
0.000597199
0.000597215
0.000597189
0.000596411
0.000596432
0.000596402
0.00060461
0.000604635
0.000604601
0.000618195
0.000618224
0.000618186
0.000633598
0.000633629
0.000633589
0.000644332
0.000644365
0.000644322
0.000644333
0.000644365
0.000644323
0.000633591
0.000633621
0.000633581
0.000618189
0.000618218
0.00061818
0.000604606
0.000604631
0.000604597
0.000596396
0.000596417
0.000596387
0.000597218
0.000597234
0.000597208
0.000608236
0.000608248
0.000608226
0.000630182
0.000630191
0.000630172
0.000661242
0.000661251
0.000661235
0.00069705
0.00069706
0.00069705
0.000732913
0.000732926
0.000732926
0.000768455
0.000768464
0.000768482
0.000822778
0.000822761
0.000822804
0.000905477
0.000905536
0.000905482
0.000848206
0.000848158
0.000848209
0.000861768
0.000861751
0.00086177
0.000922659
0.000922689
0.000922662
0.000808331
0.00080832
0.000808357
0.000745216
0.000745216
0.000745241
0.000707319
0.000707321
0.000707332
0.000671523
0.000671524
0.000671524
0.000635017
0.000635016
0.00063501
0.000601036
0.000601035
0.000601026
0.000573852
0.00057385
0.000573841
0.000556218
0.000556217
0.000556208
0.000548768
0.000548767
0.000548759
0.000551355
0.000551355
0.000551347
0.000560977
0.000560977
0.000560968
0.000573918
0.000573918
0.000573908
0.000583571
0.000583571
0.00058356
0.000583573
0.000583573
0.000583562
0.000573915
0.000573915
0.000573905
0.000560975
0.000560975
0.000560966
0.000551353
0.000551352
0.000551344
0.000548749
0.000548748
0.00054874
0.000556229
0.000556228
0.000556219
0.000573835
0.000573833
0.000573824
0.000600985
0.000600983
0.000600974
0.000634906
0.000634906
0.000634899
0.000671341