/*--------------------------------*- C++ -*----------------------------------*\
  =========                 |
  \\      /  F ield         | OpenFOAM: The Open Source CFD Toolbox
   \\    /   O peration     | Website:  https://openfoam.org
    \\  /    A nd           | Version:  6
     \\/     M anipulation  |
\*---------------------------------------------------------------------------*/
FoamFile
{
    version     2.0;
    format      ascii;
    class       volScalarField;
    location    "0";
    object      nut;
}
// * * * * * * * * * * * * * * * * * * * * * * * * * * * * * * * * * * * * * //

dimensions      [0 2 -1 0 0 0 0];

internalField   nonuniform List<scalar> 
2880
(
6.8933e-08
6.89288e-08
6.89325e-08
1.88971e-07
1.8894e-07
1.8895e-07
2.34252e-07
2.34221e-07
2.34233e-07
2.75958e-07
2.75928e-07
2.75942e-07
3.17509e-07
3.17485e-07
3.175e-07
3.6072e-07
3.60698e-07
3.6072e-07
4.071e-07
4.07084e-07
4.07109e-07
4.58437e-07
4.58424e-07
4.58455e-07
5.17398e-07
5.17388e-07
5.17426e-07
5.86565e-07
5.86557e-07
5.86601e-07
6.6839e-07
6.68378e-07
6.68425e-07
7.64865e-07
7.64834e-07
7.64887e-07
8.72629e-07
8.7258e-07
8.72608e-07
9.86536e-07
9.8647e-07
9.86402e-07
1.06505e-06
1.06495e-06
1.06484e-06
1.06505e-06
1.06495e-06
1.06483e-06
9.86418e-07
9.86351e-07
9.86284e-07
8.72476e-07
8.72427e-07
8.72455e-07
7.64717e-07
7.64686e-07
7.64738e-07
6.68256e-07
6.68244e-07
6.6829e-07
5.86501e-07
5.8649e-07
5.86534e-07
5.17343e-07
5.17332e-07
5.17369e-07
4.58384e-07
4.58369e-07
4.58401e-07
4.07039e-07
4.07021e-07
4.07046e-07
3.60647e-07
3.60623e-07
3.60646e-07
3.17435e-07
3.17408e-07
3.17425e-07
2.75896e-07
2.75866e-07
2.7588e-07
2.34213e-07
2.34182e-07
2.34193e-07
1.88945e-07
1.88913e-07
1.88924e-07
6.89249e-08
6.89208e-08
6.89244e-08
5.29317e-07
5.29322e-07
5.29312e-07
1.62841e-06
1.62828e-06
1.62824e-06
1.87327e-06
1.87317e-06
1.87312e-06
2.07911e-06
2.07905e-06
2.07899e-06
2.25771e-06
2.2577e-06
2.25765e-06
2.41681e-06
2.41683e-06
2.41681e-06
2.56184e-06
2.56191e-06
2.56188e-06
2.69779e-06
2.69788e-06
2.69786e-06
2.83027e-06
2.83037e-06
2.83036e-06
2.96333e-06
2.96344e-06
2.96343e-06
3.10044e-06
3.10054e-06
3.10052e-06
3.24473e-06
3.24478e-06
3.24477e-06
3.39298e-06
3.39299e-06
3.39293e-06
3.54125e-06
3.54124e-06
3.54105e-06
3.63068e-06
3.63061e-06
3.63041e-06
3.63068e-06
3.63061e-06
3.63041e-06
3.5411e-06
3.54108e-06
3.54089e-06
3.39278e-06
3.39279e-06
3.39273e-06
3.24454e-06
3.24459e-06
3.24458e-06
3.10026e-06
3.10036e-06
3.10034e-06
2.96326e-06
2.96337e-06
2.96336e-06
2.83021e-06
2.83032e-06
2.8303e-06
2.69772e-06
2.6978e-06
2.69779e-06
2.56173e-06
2.56179e-06
2.56176e-06
2.41662e-06
2.41664e-06
2.41661e-06
2.25747e-06
2.25745e-06
2.25741e-06
2.07887e-06
2.0788e-06
2.07876e-06
1.87311e-06
1.873e-06
1.87296e-06
1.62829e-06
1.62815e-06
1.62812e-06
5.29272e-07
5.29278e-07
5.29267e-07
7.99762e-07
7.99719e-07
7.99755e-07
2.55824e-06
2.55784e-06
2.55796e-06
2.87985e-06
2.87948e-06
2.8796e-06
3.16969e-06
3.16937e-06
3.16951e-06
3.42082e-06
3.42057e-06
3.42073e-06
3.64233e-06
3.64213e-06
3.64233e-06
3.84125e-06
3.8411e-06
3.84131e-06
4.02395e-06
4.02382e-06
4.02406e-06
4.19738e-06
4.19728e-06
4.19753e-06
4.36612e-06
4.36601e-06
4.36628e-06
4.53376e-06
4.53364e-06
4.53388e-06
4.70346e-06
4.70326e-06
4.70353e-06
4.87145e-06
4.87118e-06
4.87139e-06
5.03409e-06
5.03378e-06
5.03384e-06
5.1307e-06
5.1303e-06
5.13035e-06
5.1307e-06
5.1303e-06
5.13035e-06
5.03394e-06
5.03362e-06
5.03369e-06
4.87124e-06
4.87098e-06
4.87118e-06
4.70326e-06
4.70306e-06
4.70333e-06
4.53358e-06
4.53346e-06
4.5337e-06
4.36608e-06
4.36596e-06
4.36623e-06
4.19735e-06
4.19725e-06
4.19749e-06
4.0239e-06
4.02377e-06
4.024e-06
3.84114e-06
3.84098e-06
3.84119e-06
3.64211e-06
3.64189e-06
3.6421e-06
3.42052e-06
3.42025e-06
3.42042e-06
3.1694e-06
3.16907e-06
3.1692e-06
2.87965e-06
2.87927e-06
2.8794e-06
2.5581e-06
2.55769e-06
2.55781e-06
7.99696e-07
7.99653e-07
7.99689e-07
1.58833e-06
1.58831e-06
1.58832e-06
5.38741e-06
5.38682e-06
5.38679e-06
5.82407e-06
5.82354e-06
5.82351e-06
6.29655e-06
6.29615e-06
6.29614e-06
6.71448e-06
6.71424e-06
6.71426e-06
7.08203e-06
7.08193e-06
7.08202e-06
7.40842e-06
7.40847e-06
7.40858e-06
7.70293e-06
7.70306e-06
7.70317e-06
7.97543e-06
7.97562e-06
7.97575e-06
8.23153e-06
8.23171e-06
8.23187e-06
8.47485e-06
8.47501e-06
8.47513e-06
8.70805e-06
8.70804e-06
8.70821e-06
8.92533e-06
8.92525e-06
8.92528e-06
9.12356e-06
9.1233e-06
9.12315e-06
9.24268e-06
9.24217e-06
9.24198e-06
9.2427e-06
9.24219e-06
9.242e-06
9.12342e-06
9.12316e-06
9.12301e-06
8.92514e-06
8.92507e-06
8.9251e-06
8.70787e-06
8.70787e-06
8.70804e-06
8.47473e-06
8.47489e-06
8.47499e-06
8.23161e-06
8.23177e-06
8.23193e-06
7.97554e-06
7.97572e-06
7.97584e-06
7.70301e-06
7.70311e-06
7.70324e-06
7.40839e-06
7.40843e-06
7.40853e-06
7.0818e-06
7.08168e-06
7.08177e-06
6.7141e-06
6.71383e-06
6.71386e-06
6.29617e-06
6.29576e-06
6.29573e-06
5.82386e-06
5.82331e-06
5.82328e-06
5.38734e-06
5.38674e-06
5.3867e-06
1.58821e-06
1.58819e-06
1.58819e-06
2.73082e-06
2.73082e-06
2.73081e-06
9.86539e-06
9.86429e-06
9.86412e-06
1.01853e-05
1.01843e-05
1.01842e-05
1.0806e-05
1.08053e-05
1.08052e-05
1.13958e-05
1.13954e-05
1.13954e-05
1.1926e-05
1.19259e-05
1.1926e-05
1.24012e-05
1.24014e-05
1.24016e-05
1.28317e-05
1.28321e-05
1.28322e-05
1.323e-05
1.32305e-05
1.32307e-05
1.3603e-05
1.36035e-05
1.36037e-05
1.39551e-05
1.39555e-05
1.39557e-05
1.42896e-05
1.42897e-05
1.429e-05
1.45989e-05
1.45989e-05
1.45989e-05
1.48811e-05
1.48806e-05
1.48803e-05
1.50531e-05
1.5052e-05
1.50516e-05
1.50532e-05
1.50521e-05
1.50517e-05
1.4881e-05
1.48805e-05
1.48802e-05
1.45988e-05
1.45988e-05
1.45988e-05
1.42895e-05
1.42896e-05
1.42899e-05
1.39552e-05
1.39556e-05
1.39557e-05
1.36034e-05
1.36038e-05
1.3604e-05
1.32305e-05
1.32309e-05
1.32311e-05
1.28321e-05
1.28325e-05
1.28326e-05
1.24014e-05
1.24016e-05
1.24018e-05
1.19259e-05
1.19258e-05
1.19259e-05
1.13955e-05
1.1395e-05
1.1395e-05
1.08057e-05
1.0805e-05
1.08048e-05
1.01853e-05
1.01842e-05
1.01841e-05
9.86562e-06
9.8645e-06
9.86432e-06
2.73063e-06
2.73062e-06
2.73061e-06
3.95306e-06
3.95303e-06
3.953e-06
1.52028e-05
1.52012e-05
1.52007e-05
1.53645e-05
1.53631e-05
1.53627e-05
1.60053e-05
1.60043e-05
1.6004e-05
1.67145e-05
1.67143e-05
1.6714e-05
1.73848e-05
1.7385e-05
1.7385e-05
1.80007e-05
1.80013e-05
1.80014e-05
1.85669e-05
1.85678e-05
1.85679e-05
1.90951e-05
1.90961e-05
1.90963e-05
1.95912e-05
1.95923e-05
1.95924e-05
2.006e-05
2.0061e-05
2.00609e-05
2.05036e-05
2.05042e-05
2.05043e-05
2.09153e-05
2.09156e-05
2.09153e-05
2.12958e-05
2.1295e-05
2.12944e-05
2.15306e-05
2.15287e-05
2.15279e-05
2.15307e-05
2.15288e-05
2.1528e-05
2.12958e-05
2.1295e-05
2.12944e-05
2.09153e-05
2.09156e-05
2.09153e-05
2.05038e-05
2.05044e-05
2.05045e-05
2.00604e-05
2.00613e-05
2.00613e-05
1.95921e-05
1.9593e-05
1.95932e-05
1.90961e-05
1.9097e-05
1.90971e-05
1.85679e-05
1.85686e-05
1.85687e-05
1.80014e-05
1.8002e-05
1.8002e-05
1.73851e-05
1.73852e-05
1.73852e-05
1.67145e-05
1.67141e-05
1.67139e-05
1.60052e-05
1.60042e-05
1.60038e-05
1.53648e-05
1.53634e-05
1.5363e-05
1.52035e-05
1.52019e-05
1.52015e-05
3.95284e-06
3.95282e-06
3.95279e-06
4.39871e-06
4.39854e-06
4.39864e-06
1.76236e-05
1.76211e-05
1.76213e-05
1.77068e-05
1.77045e-05
1.77047e-05
1.83385e-05
1.83367e-05
1.8337e-05
1.90922e-05
1.90912e-05
1.90916e-05
1.98222e-05
1.98217e-05
1.98224e-05
2.05015e-05
2.05016e-05
2.05024e-05
2.11311e-05
2.11314e-05
2.11323e-05
2.17212e-05
2.17216e-05
2.17226e-05
2.22764e-05
2.22769e-05
2.22779e-05
2.28014e-05
2.28017e-05
2.28025e-05
2.32975e-05
2.32975e-05
2.32984e-05
2.37586e-05
2.37581e-05
2.37586e-05
2.4187e-05
2.41852e-05
2.41853e-05
2.44529e-05
2.44499e-05
2.44497e-05
2.44531e-05
2.445e-05
2.44499e-05
2.41871e-05
2.41852e-05
2.41854e-05
2.37587e-05
2.37582e-05
2.37587e-05
2.32978e-05
2.32978e-05
2.32987e-05
2.28019e-05
2.28022e-05
2.2803e-05
2.22775e-05
2.22778e-05
2.22788e-05
2.17224e-05
2.17228e-05
2.17237e-05
2.11323e-05
2.11325e-05
2.11334e-05
2.05025e-05
2.05025e-05
2.05033e-05
1.98226e-05
1.98221e-05
1.98228e-05
1.90922e-05
1.90911e-05
1.90916e-05
1.83385e-05
1.83367e-05
1.83369e-05
1.77073e-05
1.7705e-05
1.77051e-05
1.76246e-05
1.76221e-05
1.76223e-05
4.3985e-06
4.39833e-06
4.39843e-06
5.34326e-06
5.34315e-06
5.34319e-06
2.39751e-05
2.39724e-05
2.3972e-05
2.3812e-05
2.38093e-05
2.38091e-05
2.436e-05
2.43581e-05
2.43579e-05
2.51698e-05
2.5169e-05
2.51691e-05
2.6008e-05
2.60082e-05
2.60085e-05
2.68148e-05
2.68156e-05
2.68161e-05
2.75784e-05
2.75795e-05
2.75801e-05
2.8304e-05
2.83052e-05
2.8306e-05
2.89913e-05
2.89926e-05
2.89934e-05
2.96436e-05
2.96447e-05
2.96452e-05
3.02596e-05
3.02603e-05
3.02609e-05
3.08343e-05
3.08343e-05
3.08345e-05
3.13752e-05
3.13734e-05
3.13729e-05
3.17144e-05
3.17109e-05
3.17099e-05
3.17147e-05
3.17111e-05
3.17102e-05
3.13755e-05
3.13735e-05
3.13731e-05
3.08346e-05
3.08346e-05
3.08348e-05
3.02602e-05
3.02609e-05
3.02616e-05
2.96445e-05
2.96456e-05
2.96462e-05
2.89931e-05
2.89942e-05
2.8995e-05
2.83059e-05
2.83071e-05
2.83078e-05
2.75803e-05
2.75814e-05
2.7582e-05
2.68163e-05
2.68171e-05
2.68176e-05
2.60089e-05
2.60089e-05
2.60093e-05
2.51701e-05
2.51692e-05
2.51693e-05
2.43602e-05
2.43582e-05
2.43581e-05
2.38131e-05
2.38104e-05
2.38101e-05
2.39769e-05
2.39741e-05
2.39738e-05
5.34306e-06
5.34294e-06
5.34298e-06
6.03813e-06
6.03812e-06
6.03809e-06
3.24444e-05
3.24413e-05
3.24407e-05
3.19647e-05
3.19613e-05
3.19611e-05
3.23268e-05
3.23245e-05
3.23242e-05
3.31289e-05
3.3128e-05
3.31279e-05
3.40519e-05
3.40525e-05
3.40528e-05
3.49886e-05
3.49902e-05
3.49907e-05
3.59058e-05
3.59077e-05
3.59084e-05
3.67973e-05
3.67993e-05
3.68002e-05
3.76515e-05
3.76534e-05
3.76544e-05
3.84677e-05
3.84694e-05
3.84701e-05
3.92393e-05
3.92408e-05
3.92413e-05
3.99632e-05
3.99634e-05
3.99636e-05
4.06554e-05
4.06531e-05
4.06524e-05
4.10947e-05
4.10903e-05
4.10887e-05
4.10952e-05
4.10907e-05
4.10891e-05
4.06558e-05
4.06535e-05
4.06528e-05
3.99638e-05
3.9964e-05
3.99642e-05
3.92404e-05
3.92418e-05
3.92424e-05
3.84692e-05
3.84709e-05
3.84716e-05
3.7654e-05
3.7656e-05
3.76569e-05
3.68001e-05
3.68022e-05
3.68029e-05
3.59087e-05
3.59105e-05
3.59111e-05
3.49911e-05
3.49926e-05
3.49931e-05
3.40535e-05
3.40539e-05
3.40542e-05
3.31296e-05
3.31286e-05
3.31285e-05
3.23275e-05
3.23251e-05
3.23247e-05
3.19667e-05
3.19632e-05
3.19629e-05
3.24474e-05
3.24441e-05
3.24436e-05
6.0379e-06
6.03788e-06
6.03785e-06
7.48143e-06
7.48109e-06
7.48132e-06
4.00766e-05
4.00746e-05
4.00734e-05
4.11373e-05
4.11341e-05
4.11335e-05
4.13155e-05
4.13132e-05
4.13124e-05
4.19885e-05
4.19878e-05
4.19874e-05
4.2898e-05
4.28991e-05
4.28991e-05
4.38981e-05
4.39006e-05
4.3901e-05
4.49305e-05
4.49335e-05
4.49341e-05
4.59727e-05
4.5976e-05
4.59766e-05
4.69913e-05
4.69946e-05
4.69952e-05
4.79762e-05
4.79793e-05
4.79796e-05
4.89122e-05
4.89149e-05
4.89151e-05
4.97965e-05
4.97977e-05
4.97977e-05
5.06558e-05
5.06539e-05
5.06527e-05
5.12093e-05
5.12045e-05
5.12022e-05
5.12099e-05
5.12052e-05
5.12028e-05
5.06565e-05
5.06546e-05
5.06533e-05
4.97974e-05
4.97986e-05
4.97985e-05
4.89139e-05
4.89165e-05
4.89168e-05
4.79785e-05
4.79815e-05
4.79819e-05
4.69949e-05
4.69983e-05
4.69988e-05
4.59767e-05
4.59801e-05
4.59806e-05
4.49346e-05
4.49376e-05
4.49381e-05
4.39017e-05
4.39041e-05
4.39044e-05
4.29002e-05
4.29012e-05
4.29013e-05
4.19896e-05
4.19888e-05
4.19883e-05
4.13165e-05
4.13141e-05
4.13133e-05
4.11403e-05
4.11371e-05
4.11364e-05
4.00803e-05
4.00784e-05
4.0077e-05
7.48128e-06
7.48093e-06
7.48116e-06
8.00288e-06
8.00217e-06
8.00274e-06
4.29264e-05
4.29241e-05
4.29239e-05
4.50061e-05
4.50014e-05
4.50025e-05
4.51742e-05
4.51702e-05
4.51711e-05
4.58034e-05
4.58009e-05
4.58022e-05
4.67067e-05
4.67062e-05
4.6708e-05
4.77336e-05
4.77347e-05
4.77368e-05
4.88179e-05
4.88195e-05
4.88219e-05
4.9931e-05
4.99329e-05
4.99354e-05
5.10282e-05
5.10301e-05
5.10326e-05
5.20944e-05
5.20959e-05
5.20982e-05
5.311e-05
5.31111e-05
5.31134e-05
5.4072e-05
5.40716e-05
5.40736e-05
5.50125e-05
5.50087e-05
5.50094e-05
5.56221e-05
5.56151e-05
5.56147e-05
5.56228e-05
5.56158e-05
5.56154e-05
5.50133e-05
5.50095e-05
5.50102e-05
5.40731e-05
5.40727e-05
5.40746e-05
5.3112e-05
5.3113e-05
5.31153e-05
5.2097e-05
5.20985e-05
5.21009e-05
5.10324e-05
5.10342e-05
5.10367e-05
4.99356e-05
4.99375e-05
4.99399e-05
4.88225e-05
4.88241e-05
4.88265e-05
4.77377e-05
4.77386e-05
4.77408e-05
4.67093e-05
4.67087e-05
4.67105e-05
4.58045e-05
4.5802e-05
4.58032e-05
4.51754e-05
4.51712e-05
4.51722e-05
4.50095e-05
4.50048e-05
4.50058e-05
4.293e-05
4.29277e-05
4.29274e-05
8.00275e-06
8.00204e-06
8.0026e-06
8.5764e-06
8.57596e-06
8.57638e-06
5.05391e-05
5.05389e-05
5.05382e-05
5.48844e-05
5.48813e-05
5.48816e-05
5.51037e-05
5.51007e-05
5.51008e-05
5.55674e-05
5.55657e-05
5.55661e-05
5.63766e-05
5.63771e-05
5.63781e-05
5.73952e-05
5.73978e-05
5.73992e-05
5.85449e-05
5.85484e-05
5.855e-05
5.97838e-05
5.97876e-05
5.97893e-05
6.10346e-05
6.10386e-05
6.10402e-05
6.22675e-05
6.2271e-05
6.22724e-05
6.34517e-05
6.34548e-05
6.34563e-05
6.45812e-05
6.45827e-05
6.45839e-05
6.57028e-05
6.57005e-05
6.57e-05
6.64385e-05
6.64323e-05
6.64306e-05
6.64395e-05
6.64333e-05
6.64316e-05
6.57038e-05
6.57015e-05
6.5701e-05
6.45828e-05
6.45842e-05
6.45854e-05
6.34543e-05
6.34574e-05
6.34588e-05
6.2271e-05
6.22744e-05
6.22759e-05
6.10401e-05
6.1044e-05
6.10457e-05
5.97899e-05
5.97936e-05
5.97953e-05
5.85511e-05
5.85545e-05
5.8556e-05
5.74005e-05
5.7403e-05
5.74044e-05
5.63798e-05
5.63802e-05
5.63812e-05
5.55686e-05
5.55669e-05
5.55673e-05
5.51051e-05
5.51019e-05
5.51021e-05
5.48889e-05
5.48858e-05
5.4886e-05
5.05426e-05
5.05425e-05
5.05416e-05
8.57619e-06
8.57576e-06
8.57616e-06
8.33752e-06
8.3375e-06
8.33753e-06
5.92932e-05
5.92934e-05
5.92932e-05
6.73827e-05
6.73814e-05
6.7382e-05
6.79264e-05
6.79244e-05
6.79245e-05
6.8211e-05
6.82097e-05
6.82099e-05
6.88451e-05
6.88459e-05
6.88468e-05
6.97828e-05
6.97862e-05
6.97876e-05
7.09572e-05
7.09619e-05
7.09635e-05
7.23213e-05
7.23265e-05
7.23281e-05
7.37474e-05
7.37528e-05
7.37544e-05
7.51808e-05
7.51858e-05
7.51872e-05
7.65765e-05
7.65812e-05
7.65828e-05
7.79191e-05
7.79221e-05
7.79234e-05
7.92775e-05
7.92763e-05
7.92756e-05
8.01818e-05
8.0176e-05
8.0174e-05
8.01831e-05
8.01773e-05
8.01753e-05
7.9279e-05
7.92777e-05
7.9277e-05
7.79212e-05
7.79242e-05
7.79255e-05
7.65801e-05
7.65847e-05
7.65863e-05
7.51856e-05
7.51904e-05
7.51919e-05
7.37548e-05
7.37601e-05
7.37617e-05
7.23294e-05
7.23345e-05
7.2336e-05
7.09654e-05
7.097e-05
7.09715e-05
6.97898e-05
6.97931e-05
6.97945e-05
6.88491e-05
6.88498e-05
6.88507e-05
6.82121e-05
6.82107e-05
6.82108e-05
6.79276e-05
6.79255e-05
6.79256e-05
6.73886e-05
6.73873e-05
6.73876e-05
5.9297e-05
5.92972e-05
5.92969e-05
8.33718e-06
8.33718e-06
8.33719e-06
1.07308e-05
1.07296e-05
1.07308e-05
6.50398e-05
6.50414e-05
6.50399e-05
7.96478e-05
7.96501e-05
7.96509e-05
8.1681e-05
8.16818e-05
8.16822e-05
8.20488e-05
8.2049e-05
8.20488e-05
8.24775e-05
8.2479e-05
8.24792e-05
8.32165e-05
8.32209e-05
8.32214e-05
8.42932e-05
8.42995e-05
8.43004e-05
8.56978e-05
8.57046e-05
8.57053e-05
8.72464e-05
8.72537e-05
8.72545e-05
8.88468e-05
8.88539e-05
8.88545e-05
9.04431e-05
9.04502e-05
9.0451e-05
9.19958e-05
9.20013e-05
9.2002e-05
9.35958e-05
9.35965e-05
9.35953e-05
9.4679e-05
9.46749e-05
9.4672e-05
9.46806e-05
9.46766e-05
9.46736e-05
9.35977e-05
9.35984e-05
9.35973e-05
9.19987e-05
9.20041e-05
9.20049e-05
9.04477e-05
9.04548e-05
9.04556e-05
8.8853e-05
8.88599e-05
8.88605e-05
8.72561e-05
8.72633e-05
8.7264e-05
8.5708e-05
8.57149e-05
8.57154e-05
8.43036e-05
8.43099e-05
8.43105e-05
8.32251e-05
8.32295e-05
8.323e-05
8.24817e-05
8.24831e-05
8.24832e-05
8.20486e-05
8.20488e-05
8.20485e-05
8.16813e-05
8.1682e-05
8.16825e-05
7.96546e-05
7.96569e-05
7.96575e-05
6.50442e-05
6.50458e-05
6.50442e-05
1.07306e-05
1.07294e-05
1.07306e-05
1.15642e-05
1.1562e-05
1.15642e-05
6.71728e-05
6.71733e-05
6.71729e-05
8.4346e-05
8.43465e-05
8.43509e-05
8.71927e-05
8.7191e-05
8.71956e-05
8.77327e-05
8.77292e-05
8.77333e-05
8.81439e-05
8.81413e-05
8.81457e-05
8.88288e-05
8.88292e-05
8.88335e-05
8.98759e-05
8.98785e-05
8.98833e-05
9.13075e-05
9.13104e-05
9.13151e-05
9.29186e-05
9.29222e-05
9.2927e-05
9.46007e-05
9.4604e-05
9.46087e-05
9.62959e-05
9.62994e-05
9.63044e-05
9.79511e-05
9.79529e-05
9.79581e-05
9.96676e-05
9.96644e-05
9.96679e-05
0.000100838
0.00010083
0.000100832
0.00010084
0.000100832
0.000100833
9.96698e-05
9.96666e-05
9.96701e-05
9.79544e-05
9.79561e-05
9.79614e-05
9.63009e-05
9.63044e-05
9.63094e-05
9.46074e-05
9.46106e-05
9.46154e-05
9.29293e-05
9.29327e-05
9.29375e-05
9.13185e-05
9.13218e-05
9.13261e-05
8.98873e-05
8.98899e-05
8.98942e-05
8.88381e-05
8.88384e-05
8.88427e-05
8.8148e-05
8.81453e-05
8.81494e-05
8.77315e-05
8.7728e-05
8.7732e-05
8.71925e-05
8.71904e-05
8.71953e-05
8.43531e-05
8.43535e-05
8.43578e-05
6.71774e-05
6.71779e-05
6.71775e-05
1.1564e-05
1.15618e-05
1.15641e-05
1.16156e-05
1.16141e-05
1.16156e-05
7.43597e-05
7.43606e-05
7.436e-05
9.67557e-05
9.67614e-05
9.67657e-05
0.000101594
0.000101598
0.000101602
0.000102593
0.000102593
0.000102596
0.000102895
0.000102894
0.000102896
0.000103327
0.00010333
0.000103331
0.000104172
0.000104177
0.00010418
0.000105557
0.000105562
0.000105565
0.000107226
0.000107233
0.000107235
0.000109028
0.000109034
0.000109036
0.000110901
0.000110909
0.000110911
0.000112753
0.000112758
0.000112762
0.000114713
0.000114713
0.000114715
0.00011607
0.000116065
0.000116065
0.000116072
0.000116067
0.000116067
0.000114716
0.000114716
0.000114718
0.000112757
0.000112763
0.000112766
0.000110908
0.000110915
0.000110917
0.000109036
0.000109042
0.000109045
0.00010724
0.000107246
0.000107248
0.000105571
0.000105576
0.000105578
0.000104186
0.000104191
0.000104193
0.000103338
0.000103341
0.000103342
0.000102898
0.000102897
0.000102899
0.000102589
0.000102589
0.000102592
0.000101592
0.000101595
0.0001016
9.67637e-05
9.67693e-05
9.67736e-05
7.4365e-05
7.4366e-05
7.43654e-05
1.16154e-05
1.16139e-05
1.16154e-05
1.02068e-05
1.02067e-05
1.02069e-05
8.30338e-05
8.30339e-05
8.30342e-05
0.000111292
0.000111303
0.00011131
0.000119177
0.000119187
0.000119194
0.000121264
0.000121267
0.000121271
0.000121663
0.000121662
0.000121663
0.000121809
0.000121811
0.000121812
0.000122327
0.000122332
0.000122334
0.000123571
0.000123576
0.000123578
0.000125244
0.00012525
0.000125252
0.000127136
0.000127143
0.000127145
0.000129206
0.000129215
0.000129217
0.000131284
0.000131292
0.000131295
0.000133544
0.000133548
0.000133549
0.000135139
0.000135137
0.000135135
0.000135141
0.000135139
0.000135138
0.000133548
0.000133551
0.000133552
0.000131289
0.000131298
0.0001313
0.000129215
0.000129223
0.000129225
0.000127146
0.000127153
0.000127155
0.000125261
0.000125267
0.000125269
0.000123588
0.000123593
0.000123595
0.000122344
0.000122349
0.00012235
0.000121822
0.000121823
0.000121825
0.000121664
0.000121663
0.000121664
0.000121256
0.000121258
0.000121262
0.000119171
0.000119181
0.000119187
0.000111301
0.000111312
0.000111318
8.30401e-05
8.30401e-05
8.30405e-05
1.02064e-05
1.02063e-05
1.02065e-05
1.44701e-05
1.44656e-05
1.44701e-05
8.67498e-05
8.6754e-05
8.67515e-05
0.000122695
0.000122713
0.00012272
0.000135731
0.00013575
0.000135758
0.0001402
0.000140211
0.000140214
0.000141379
0.000141381
0.00014138
0.000141466
0.000141467
0.000141465
0.0001416
0.000141605
0.000141603
0.000142534
0.000142539
0.000142537
0.000144045
0.000144051
0.00014405
0.000145882
0.00014589
0.000145889
0.000148061
0.000148071
0.00014807
0.000150309
0.000150321
0.000150321
0.000152822
0.000152831
0.000152829
0.000154634
0.000154637
0.000154634
0.000154637
0.000154641
0.000154637
0.000152827
0.000152835
0.000152833
0.000150316
0.000150328
0.000150327
0.000148072
0.000148082
0.000148081
0.000145894
0.000145902
0.000145901
0.000144067
0.000144073
0.000144071
0.000142554
0.000142559
0.000142557
0.000141619
0.000141624
0.000141622
0.000141478
0.00014148
0.000141477
0.000141375
0.000141377
0.000141375
0.000140184
0.000140193
0.000140197
0.00013572
0.000135739
0.000135746
0.000122703
0.000122721
0.000122727
8.67564e-05
8.67605e-05
8.67581e-05
1.447e-05
1.44656e-05
1.44701e-05
1.57945e-05
1.57874e-05
1.57946e-05
8.79592e-05
8.79631e-05
8.79613e-05
0.000126565
0.000126581
0.000126592
0.000141721
0.000141737
0.000141751
0.00014738
0.000147385
0.000147396
0.000149105
0.000149099
0.000149106
0.000149333
0.000149325
0.000149331
0.000149403
0.000149398
0.000149404
0.000150257
0.000150253
0.000150258
0.000151729
0.000151726
0.000151731
0.00015356
0.000153559
0.000153566
0.000155806
0.000155807
0.000155814
0.000158148
0.000158151
0.00015816
0.000160791
0.000160791
0.000160798
0.000162712
0.000162707
0.000162713
0.000162715
0.000162711
0.000162716
0.000160796
0.000160796
0.000160803
0.000158156
0.000158159
0.000158167
0.000155818
0.000155818
0.000155826
0.000153573
0.000153571
0.000153578
0.000151752
0.000151749
0.000151754
0.000150279
0.000150274
0.000150279
0.000149423
0.000149418
0.000149424
0.000149345
0.000149337
0.000149342
0.000149098
0.000149092
0.000149099
0.00014736
0.000147364
0.000147376
0.000141707
0.000141723
0.000141738
0.000126572
0.000126588
0.000126599
8.79658e-05
8.79697e-05
8.79679e-05
1.57945e-05
1.57874e-05
1.57946e-05
1.48967e-05
1.48923e-05
1.48968e-05
9.37166e-05
9.37199e-05
9.37189e-05
0.000137826
0.000137849
0.00013786
0.00015803
0.000158056
0.000158072
0.000166809
0.000166823
0.000166833
0.000169975
0.000169974
0.000169976
0.000170494
0.000170487
0.000170487
0.000170232
0.000170228
0.000170227
0.00017068
0.000170677
0.000170675
0.000171845
0.000171843
0.000171841
0.000173468
0.000173469
0.000173469
0.00017573
0.000175733
0.000175734
0.000178182
0.000178189
0.000178192
0.000181058
0.000181065
0.000181067
0.000183197
0.000183199
0.0001832
0.000183201
0.000183203
0.000183203
0.000181065
0.000181071
0.000181072
0.000178192
0.000178199
0.000178201
0.000175744
0.000175747
0.000175748
0.000173482
0.000173483
0.000173483
0.000171873
0.000171871
0.000171869
0.000170705
0.000170702
0.000170699
0.000170254
0.00017025
0.000170249
0.000170504
0.000170498
0.000170497
0.000169959
0.000169958
0.000169961
0.000166776
0.00016679
0.0001668
0.000158008
0.000158035
0.00015805
0.000137832
0.000137855
0.000137867
9.37234e-05
9.37267e-05
9.37257e-05
1.48966e-05
1.48922e-05
1.48967e-05
1.24136e-05
1.24127e-05
1.24136e-05
9.95366e-05
9.95377e-05
9.95385e-05
0.000149285
0.000149313
0.000149329
0.000175959
0.000175996
0.000176017
0.000189437
0.00018946
0.000189473
0.000195295
0.000195295
0.000195297
0.000196817
0.000196806
0.000196802
0.000196413
0.000196403
0.000196398
0.000196361
0.000196351
0.000196343
0.000197031
0.000197023
0.000197014
0.000198237
0.000198235
0.000198228
0.000200419
0.000200418
0.000200414
0.000202953
0.000202956
0.000202955
0.000206101
0.000206105
0.000206104
0.000208515
0.000208518
0.000208516
0.00020852
0.000208523
0.000208521
0.000206108
0.000206113
0.000206111
0.000202966
0.000202969
0.000202968
0.000200436
0.000200435
0.000200431
0.000198252
0.00019825
0.000198243
0.000197066
0.000197059
0.000197049
0.000196389
0.000196379
0.000196371
0.000196436
0.000196426
0.00019642
0.000196823
0.000196811
0.000196806
0.000195265
0.000195265
0.000195267
0.000189385
0.000189408
0.000189421
0.000175925
0.000175963
0.000175982
0.000149291
0.000149318
0.000149335
9.95434e-05
9.95445e-05
9.95452e-05
1.24132e-05
1.24123e-05
1.24132e-05
1.90439e-05
1.90311e-05
1.90439e-05
9.91707e-05
9.91788e-05
9.91749e-05
0.000155601
0.000155636
0.000155649
0.000189649
0.000189697
0.000189716
0.000209243
0.000209274
0.000209281
0.000219349
0.000219358
0.000219353
0.000223151
0.000223139
0.000223125
0.000223377
0.000223362
0.000223345
0.000222985
0.00022297
0.000222949
0.000223004
0.000222991
0.000222968
0.000223541
0.000223536
0.000223515
0.000225402
0.000225399
0.000225381
0.000227901
0.000227903
0.000227888
0.000231249
0.000231253
0.000231238
0.00023393
0.000233932
0.000233916
0.000233935
0.000233937
0.000233921
0.000231258
0.000231262
0.000231247
0.000227917
0.000227919
0.000227904
0.000225422
0.000225419
0.000225401
0.000223556
0.000223549
0.000223529
0.000223045
0.000223032
0.000223008
0.000223014
0.000222998
0.000222977
0.000223397
0.000223382
0.000223365
0.000223146
0.000223135
0.00022312
0.000219299
0.000219307
0.000219303
0.000209172
0.000209203
0.000209211
0.000189602
0.000189651
0.000189669
0.0001556
0.000155635
0.000155648
9.9176e-05
9.91844e-05
9.91801e-05
1.90439e-05
1.90311e-05
1.90439e-05
2.07298e-05
2.07113e-05
2.07298e-05
9.90476e-05
9.90576e-05
9.90524e-05
0.000157424
0.000157457
0.000157473
0.000193981
0.000194025
0.000194051
0.000215926
0.000215941
0.000215957
0.00022794
0.000227936
0.000227944
0.00023296
0.00023293
0.00023293
0.000233734
0.000233698
0.000233696
0.000233416
0.000233378
0.000233371
0.000233299
0.000233263
0.000233254
0.000233635
0.000233608
0.000233601
0.00023542
0.000235396
0.000235392
0.000237962
0.000237943
0.000237941
0.000241457
0.000241438
0.000241437
0.000244299
0.000244278
0.000244276
0.000244305
0.000244284
0.000244281
0.000241467
0.000241448
0.000241447
0.000237979
0.00023796
0.000237958
0.000235441
0.000235417
0.000235412
0.000233649
0.00023362
0.000233614
0.000233342
0.000233306
0.000233296
0.000233445
0.000233406
0.000233399
0.000233752
0.000233716
0.000233713
0.00023295
0.00023292
0.00023292
0.000227882
0.000227877
0.000227886
0.000215849
0.000215866
0.00021588
0.000193929
0.000193974
0.000193999
0.00015742
0.000157454
0.00015747
9.90525e-05
9.90625e-05
9.90572e-05
2.07298e-05
2.07115e-05
2.07298e-05
1.81602e-05
1.81505e-05
1.81602e-05
0.000101568
0.000101574
0.000101572
0.000163808
0.000163843
0.000163861
0.000206683
0.000206734
0.00020676
0.000234943
0.000234949
0.000234952
0.000252208
0.000252209
0.00025221
0.000260575
0.000260547
0.000260533
0.000262749
0.000262709
0.000262689
0.00026244
0.000262395
0.000262369
0.000261661
0.000261618
0.000261589
0.000261108
0.000261076
0.000261049
0.000262393
0.000262365
0.00026234
0.000264792
0.000264769
0.000264747
0.000268497
0.000268472
0.000268449
0.000271659
0.000271631
0.000271605
0.000271666
0.000271637
0.000271611
0.000268509
0.000268485
0.000268461
0.000264812
0.000264789
0.000264766
0.000262416
0.000262387
0.000262362
0.000261117
0.000261084
0.000261058
0.00026171
0.000261667
0.000261637
0.000262466
0.000262421
0.000262395
0.000262761
0.000262721
0.000262701
0.000260551
0.000260522
0.000260508
0.000252124
0.000252124
0.000252125
0.000234848
0.000234854
0.000234857
0.000206613
0.000206665
0.000206691
0.000163799
0.000163835
0.000163854
0.000101572
0.000101578
0.000101576
1.816e-05
1.81502e-05
1.816e-05
1.55393e-05
1.55351e-05
1.55393e-05
0.000102879
0.000102882
0.000102882
0.000168494
0.00016853
0.000168551
0.000217994
0.00021805
0.000218082
0.000254029
0.000254034
0.000254035
0.000278543
0.000278546
0.000278545
0.000292338
0.000292303
0.00029228
0.000297533
0.000297477
0.000297444
0.00029804
0.000297976
0.000297934
0.000296746
0.000296681
0.000296634
0.000295081
0.000295027
0.000294983
0.000295626
0.000295578
0.000295533
0.000297786
0.000297743
0.000297701
0.000301733
0.000301687
0.000301644
0.000305308
0.000305256
0.000305209
0.000305316
0.000305264
0.000305216
0.000301748
0.000301702
0.000301659
0.000297809
0.000297766
0.000297724
0.000295648
0.000295599
0.000295556
0.000295077
0.000295024
0.00029498
0.000296797
0.000296732
0.000296685
0.000298057
0.000297994
0.000297952
0.000297532
0.000297477
0.000297444
0.00029229
0.000292254
0.000292231
0.000278422
0.000278424
0.000278423
0.000253903
0.000253908
0.000253909
0.0002179
0.000217958
0.000217989
0.000168478
0.000168515
0.000168537
0.00010288
0.000102884
0.000102883
1.55386e-05
1.55345e-05
1.55386e-05
2.39159e-05
2.38858e-05
2.39159e-05
9.96457e-05
9.96577e-05
9.96524e-05
0.000168856
0.000168897
0.000168913
0.000223707
0.000223772
0.000223799
0.000267273
0.000267318
0.000267327
0.000299435
0.000299451
0.000299439
0.000320029
0.000320002
0.00031996
0.000330022
0.000329968
0.000329909
0.000332741
0.000332671
0.000332601
0.00033166
0.000331586
0.000331508
0.000329198
0.000329133
0.000329057
0.000328901
0.000328841
0.000328764
0.000330735
0.000330679
0.000330603
0.000334762
0.000334704
0.000334625
0.00033861
0.000338546
0.000338462
0.000338619
0.000338554
0.000338471
0.00033478
0.000334721
0.000334643
0.00033076
0.000330703
0.000330628
0.000328917
0.000328856
0.00032878
0.000329177
0.000329113
0.000329037
0.000331702
0.000331627
0.00033155
0.000332744
0.000332674
0.000332604
0.00033
0.000329946
0.000329887
0.000319948
0.00031992
0.000319878
0.000299274
0.00029929
0.000299279
0.0002671
0.000267145
0.000267154
0.000223593
0.000223658
0.000223686
0.000168828
0.000168868
0.000168885
9.96433e-05
9.96556e-05
9.96496e-05
2.39152e-05
2.38851e-05
2.39151e-05
2.54714e-05
2.54329e-05
2.54714e-05
9.89463e-05
9.89616e-05
9.89538e-05
0.00016886
0.000168901
0.000168917
0.000225095
0.000225158
0.000225187
0.000271027
0.000271071
0.000271092
0.00030592
0.000305923
0.000305926
0.000329201
0.000329152
0.00032913
0.000341336
0.000341249
0.000341214
0.000345297
0.000345189
0.000345146
0.000344664
0.000344548
0.000344498
0.000342175
0.000342067
0.000342018
0.000341766
0.000341661
0.000341611
0.000343648
0.000343546
0.000343497
0.00034785
0.000347746
0.000347694
0.000351901
0.000351789
0.000351733
0.00035191
0.000351798
0.000351743
0.00034787
0.000347764
0.000347713
0.000343672
0.00034357
0.000343522
0.000341779
0.000341673
0.000341624
0.000342146
0.000342038
0.000341989
0.000344701
0.000344585
0.000344535
0.000345293
0.000345185
0.000345141
0.000341305
0.000341218
0.000341183
0.000329108
0.000329058
0.000329036
0.000305746
0.000305748
0.000305751
0.000270839
0.000270883
0.000270904
0.000224974
0.000225037
0.000225067
0.000168828
0.000168869
0.000168885
9.89431e-05
9.89586e-05
9.89502e-05
2.54707e-05
2.54322e-05
2.54706e-05
2.09406e-05
2.09231e-05
2.09407e-05
9.91859e-05
9.9194e-05
9.91911e-05
0.000169757
0.000169795
0.000169815
0.000229556
0.000229621
0.000229655
0.000282119
0.000282176
0.000282202
0.000324967
0.000324977
0.000324976
0.000355996
0.000355954
0.000355917
0.000374136
0.000374053
0.000373994
0.000381468
0.000381358
0.000381286
0.000381865
0.000381741
0.000381659
0.000378941
0.000378824
0.00037874
0.000377901
0.000377785