/*--------------------------------*- C++ -*----------------------------------*\
  =========                 |
  \\      /  F ield         | OpenFOAM: The Open Source CFD Toolbox
   \\    /   O peration     | Website:  https://openfoam.org
    \\  /    A nd           | Version:  6
     \\/     M anipulation  |
\*---------------------------------------------------------------------------*/
FoamFile
{
    version     2.0;
    format      ascii;
    class       volVectorField;
    location    "12";
    object      wallShearStress;
}
// * * * * * * * * * * * * * * * * * * * * * * * * * * * * * * * * * * * * * //

dimensions      [0 2 -2 0 0 0 0];

internalField   uniform (0 0 0);

boundaryField
{
    inlet
    {
        type            calculated;
        value           uniform (0 0 0);
    }
    outlet
    {
        type            calculated;
        value           uniform (0 0 0);
    }
    roughCylinder
    {
        type            calculated;
        value           nonuniform List<vector> 
5120
(
(-0.000242621 -0.000344028 -0.0001728)
(-0.000297278 -0.000446533 -3.9531e-05)
(-0.000330642 -0.000537658 1.64841e-06)
(-0.000375881 -0.000624422 5.54634e-05)
(-0.000431831 -0.000699066 0.000116877)
(-0.000494991 -0.00075725 0.000178065)
(-0.000561771 -0.000796514 0.000234724)
(-0.000627537 -0.000817515 0.00028419)
(-0.00068842 -0.000822964 0.000324518)
(-0.000742833 -0.000818319 0.000355343)
(-0.000791303 -0.000812193 0.00037862)
(-0.00083361 -0.000808478 0.000395623)
(-0.000867604 -0.000807979 0.000405462)
(-0.000896313 -0.000812531 0.00040909)
(-0.000920926 -0.000821505 0.000407592)
(-0.000942769 -0.000834183 0.000401974)
(-0.000963171 -0.000849828 0.000393233)
(-0.000983284 -0.000867836 0.000382201)
(-0.00100398 -0.000887769 0.000369492)
(-0.00102584 -0.000909355 0.000355488)
(-0.00104917 -0.00093244 0.00034036)
(-0.00107407 -0.000956897 0.00032413)
(-0.00110049 -0.000982605 0.000306696)
(-0.00112826 -0.0010094 0.000287875)
(-0.00115713 -0.00103705 0.000267421)
(-0.00118678 -0.00106523 0.000244986)
(-0.0012168 -0.0010935 0.000220121)
(-0.00124659 -0.00112121 0.000192142)
(-0.00127537 -0.00114752 0.000160016)
(-0.0013016 -0.00117099 0.00012231)
(-0.00132275 -0.00119 7.71346e-05)
(-0.00133458 -0.00120111 2.60826e-05)
(-0.000260625 -0.000332967 -0.000163305)
(-0.000318379 -0.000432804 -4.20238e-05)
(-0.00035423 -0.000522726 -4.03771e-06)
(-0.000401501 -0.000609301 4.65365e-05)
(-0.00045907 -0.000684981 0.000105499)
(-0.00052371 -0.000744895 0.000165036)
(-0.000591814 -0.000786209 0.000220641)
(-0.000659036 -0.00080952 0.000269544)
(-0.000722175 -0.000818034 0.000309965)
(-0.000780056 -0.000817702 0.000341998)
(-0.000832514 -0.000815164 0.000367191)
(-0.000878347 -0.00081273 0.000385989)
(-0.000914643 -0.000810731 0.000396692)
(-0.000944803 -0.000814263 0.000400818)
(-0.000970867 -0.000822587 0.000399605)
(-0.000994076 -0.000834939 0.000394188)
(-0.00101583 -0.000850468 0.000385608)
(-0.0010373 -0.000868487 0.000374735)
(-0.0010594 -0.000888497 0.000362216)
(-0.00108271 -0.000910187 0.00034844)
(-0.00110754 -0.000933365 0.000333599)
(-0.00113399 -0.000957897 0.000317706)
(-0.001162 -0.000983659 0.000300664)
(-0.00119138 -0.00101047 0.000282284)
(-0.00122189 -0.0010381 0.000262315)
(-0.00125316 -0.00106623 0.000240402)
(-0.00128478 -0.00109443 0.000216095)
(-0.00131611 -0.00112204 0.000188711)
(-0.00134633 -0.00114823 0.000157227)
(-0.00137385 -0.00117156 0.000120215)
(-0.00139604 -0.00119047 7.58256e-05)
(-0.00140843 -0.00120149 2.5644e-05)
(-0.000278424 -0.000316818 -0.000146895)
(-0.000338968 -0.000413752 -4.50187e-05)
(-0.000377127 -0.000501748 -1.03712e-05)
(-0.00042605 -0.000587503 3.67476e-05)
(-0.000484966 -0.000663739 9.29728e-05)
(-0.000550959 -0.000725193 0.000150634)
(-0.000620491 -0.000768781 0.000205121)
(-0.000689566 -0.000795121 0.000253647)
(-0.000755487 -0.000807619 0.000294629)
(-0.000817036 -0.000811747 0.000328162)
(-0.000873238 -0.000812429 0.000355046)
(-0.000922136 -0.000811248 0.000375048)
(-0.000961647 -0.000808773 0.000386835)
(-0.000993345 -0.000811046 0.000391468)
(-0.00102091 -0.000818539 0.000390526)
(-0.00104556 -0.000830393 0.000385355)
(-0.00106875 -0.000845652 0.000376986)
(-0.00109166 -0.000863529 0.000366327)
(-0.00111521 -0.000883463 0.00035405)
(-0.00114001 -0.000905096 0.000340561)
(-0.00116638 -0.000928212 0.000326063)
(-0.00119441 -0.000952656 0.000310566)
(-0.00122402 -0.000978289 0.000293973)
(-0.00125503 -0.00100494 0.000276092)
(-0.00128716 -0.00103237 0.000256666)
(-0.00132004 -0.00106026 0.000235333)
(-0.00135322 -0.00108818 0.000211644)
(-0.00138608 -0.00111549 0.000184914)
(-0.00141772 -0.00114137 0.000154138)
(-0.00144648 -0.00116441 0.000117892)
(-0.00146969 -0.00118308 7.43745e-05)
(-0.00148263 -0.00119392 2.51594e-05)
(-0.000294348 -0.000296963 -0.000126298)
(-0.000357253 -0.000390448 -4.80942e-05)
(-0.000397263 -0.000475798 -1.69575e-05)
(-0.000447257 -0.000560085 2.65317e-05)
(-0.000507084 -0.000636385 7.97475e-05)
(-0.000574226 -0.000699204 0.000135276)
(-0.000645275 -0.00074527 0.000188509)
(-0.000716542 -0.000775152 0.000236691)
(-0.000785505 -0.000792087 0.000278363)
(-0.000850654 -0.000800622 0.000313398)
(-0.000910396 -0.000804304 0.000341843)
(-0.000962554 -0.000804602 0.000362949)
(-0.00100578 -0.000802865 0.000376028)
(-0.00103953 -0.00080344 0.000381198)
(-0.0010687 -0.00081002 0.000380631)
(-0.00109494 -0.000821239 0.000375761)
(-0.00111964 -0.000836096 0.000367664)
(-0.00114405 -0.000853714 0.000357285)
(-0.00116911 -0.000873469 0.000345312)
(-0.00119544 -0.000894935 0.000332171)
(-0.00122334 -0.000917861 0.000318065)
(-0.00125293 -0.000942085 0.000303013)
(-0.00128411 -0.000967454 0.000286918)
(-0.00131669 -0.000993791 0.00026958)
(-0.00135038 -0.00102086 0.000250738)
(-0.00138478 -0.00104835 0.000230022)
(-0.00141946 -0.00107583 0.000206984)
(-0.00145373 -0.00110268 0.00018094)
(-0.0014867 -0.00112811 0.000150906)
(-0.00151663 -0.00115071 0.00011546)
(-0.00154079 -0.00116904 7.28579e-05)
(-0.0015542 -0.00117964 2.46548e-05)
(-0.000307224 -0.000273519 -0.00010345)
(-0.000372119 -0.000363065 -5.0901e-05)
(-0.000413526 -0.000445151 -2.34548e-05)
(-0.000464062 -0.000527408 1.62123e-05)
(-0.000524441 -0.000603339 6.61244e-05)
(-0.000592618 -0.000667419 0.000119212)
(-0.000665365 -0.000716184 0.000170993)
(-0.000739132 -0.000749944 0.000218773)
(-0.000811293 -0.000771374 0.000261104)
(-0.000879931 -0.000784026 0.000297498)
(-0.000943084 -0.000790509 0.000327382)
(-0.000998628 -0.000792387 0.000349657)
(-0.00104522 -0.000791602 0.000363805)
(-0.00108244 -0.000791312 0.000369933)
(-0.00111342 -0.000796618 0.000369907)
(-0.00114136 -0.000806952 0.000365421)
(-0.00116768 -0.00082124 0.000357694)
(-0.00119366 -0.000838451 0.000347667)
(-0.00122023 -0.00085786 0.000336061)
(-0.00124806 -0.000879007 0.000323326)
(-0.00127749 -0.0009016 0.00030967)
(-0.00130858 -0.000925455 0.000295118)
(-0.00134128 -0.000950401 0.00027957)
(-0.00137534 -0.000976258 0.000262817)
(-0.00141049 -0.0010028 0.000244598)
(-0.00144631 -0.00102971 0.000224533)
(-0.00148236 -0.00105659 0.000202176)
(-0.00151793 -0.00108282 0.000176846)
(-0.0015521 -0.00110763 0.000147576)
(-0.00158308 -0.00112966 0.000112955)
(-0.00160812 -0.00114752 7.12987e-05)
(-0.00162195 -0.00115782 2.41388e-05)
(-0.00031724 -0.000248075 -8.00828e-05)
(-0.000383587 -0.000333106 -5.3318e-05)
(-0.000425806 -0.000411363 -2.96798e-05)
(-0.000476259 -0.000490997 6.00311e-06)
(-0.000536714 -0.000566058 5.23272e-05)
(-0.0006057 -0.000631131 0.000102631)
(-0.000680131 -0.000682564 0.00015268)
(-0.000756464 -0.000720167 0.000199894)
(-0.000831857 -0.000745864 0.000242729)
(-0.000903958 -0.000762251 0.000280284)
(-0.000970546 -0.000771323 0.000311474)
(-0.00102958 -0.000774797 0.000334955)
(-0.00107975 -0.000775018 0.000350131)
(-0.00112104 -0.000774963 0.00035748)
(-0.00115459 -0.000778526 0.000358214)
(-0.00118442 -0.000787892 0.000354301)
(-0.00121249 -0.000801325 0.000347025)
(-0.0012401 -0.000817912 0.000337451)
(-0.00126825 -0.000836834 0.000326306)
(-0.00129762 -0.000857514 0.00031405)
(-0.00132853 -0.00087962 0.000300909)
(-0.00136109 -0.00090294 0.000286913)
(-0.00139522 -0.000927302 0.00027196)
(-0.00143067 -0.000952519 0.000255837)
(-0.00146716 -0.000978362 0.000238279)
(-0.00150426 -0.00100452 0.000218897)
(-0.00154152 -0.00103061 0.000197244)
(-0.00157824 -0.00105606 0.000172648)
(-0.00161348 -0.00108009 0.000144165)
(-0.00164539 -0.00110139 0.000110386)
(-0.00167119 -0.00111867 6.97027e-05)
(-0.00168536 -0.00112861 2.36139e-05)
(-0.000322915 -0.000220652 -5.70214e-05)
(-0.000390253 -0.000300751 -5.51621e-05)
(-0.000432751 -0.000374653 -3.54159e-05)
(-0.000482534 -0.000451121 -3.92024e-06)
(-0.000542594 -0.00052484 3.84495e-05)
(-0.00061215 -0.000590671 8.55574e-05)
(-0.000688272 -0.000644741 0.000133549)
(-0.000767302 -0.00068616 0.00017996)
(-0.000846032 -0.00071593 0.000223083)
(-0.000921692 -0.00073576 0.000261589)
(-0.000991892 -0.000747309 0.000293974)
(-0.00105462 -0.000752437 0.000318708)
(-0.00110863 -0.000753723 0.000335058)
(-0.00115387 -0.000754269 0.000343565)
(-0.00119153 -0.000757125 0.000345518)
(-0.00122346 -0.0007645 0.000342291)
(-0.00125344 -0.000776988 0.000335643)
(-0.00128284 -0.000792763 0.000326629)
(-0.0013126 -0.000810962 0.000316028)
(-0.00134349 -0.000830985 0.000304331)
(-0.00137587 -0.000852445 0.000291779)
(-0.00140983 -0.000875088 0.000278403)
(-0.00144529 -0.000898718 0.000264101)
(-0.00148202 -0.000923148 0.000248657)
(-0.00151971 -0.000948149 0.000231799)
(-0.00155794 -0.000973416 0.000213131)
(-0.00159627 -0.000998601 0.000192208)
(-0.00163398 -0.00102311 0.000168367)
(-0.00167013 -0.00104623 0.000140685)
(-0.00170284 -0.00106669 0.000107765)
(-0.00172933 -0.0010833 6.80791e-05)
(-0.00174373 -0.00109282 2.3084e-05)
(-0.00032475 -0.000192649 -3.52952e-05)
(-0.000392389 -0.000267352 -5.64603e-05)
(-0.000434523 -0.000336454 -4.05863e-05)
(-0.000482929 -0.000409187 -1.33921e-05)
(-0.000541929 -0.00048096 2.47151e-05)
(-0.000611565 -0.000547049 6.82071e-05)
(-0.000689055 -0.000603367 0.000113714)
(-0.000770562 -0.000648226 0.000158935)
(-0.000852523 -0.000681692 0.000202004)
(-0.000931843 -0.000704721 0.000241194)
(-0.00100587 -0.000718671 0.000274634)
(-0.00107252 -0.000725485 0.000300623)
(-0.00113058 -0.000727925 0.00031832)
(-0.00117995 -0.000729127 0.000328124)
(-0.00122167 -0.000731963 0.000331319)
(-0.00125752 -0.000738194 0.00032931)
(-0.00128959 -0.000748822 0.000323436)
(-0.00132091 -0.00076332 0.000315111)
(-0.00135241 -0.000780661 0.000305203)
(-0.00138489 -0.000799892 0.000294171)
(-0.00141871 -0.000820551 0.000282289)
(-0.001454 -0.000842362 0.000269602)
(-0.00149069 -0.000865115 0.000256011)
(-0.00152854 -0.0008886 0.000241292)
(-0.00156726 -0.000912611 0.000225173)
(-0.00160642 -0.000936844 0.000207249)
(-0.0016456 -0.000960949 0.000187076)
(-0.0016841 -0.00098443 0.000164007)
(-0.00172097 -0.00100656 0.000137143)
(-0.0017543 -0.00102608 0.000105093)
(-0.00178132 -0.00104194 6.64282e-05)
(-0.00179585 -0.00105107 2.25509e-05)
(-0.000320924 -0.000163755 -1.53234e-05)
(-0.000388358 -0.000232789 -5.69982e-05)
(-0.000429557 -0.000296637 -4.49725e-05)
(-0.000475915 -0.000365082 -2.22048e-05)
(-0.000533169 -0.000434277 1.12976e-05)
(-0.000602356 -0.000500092 5.06917e-05)
(-0.00068097 -0.000558324 9.32078e-05)
(-0.000764963 -0.000606445 0.000136791)
(-0.000850308 -0.000643467 0.000179423)
(-0.000933456 -0.00066957 0.000218996)
(-0.00101156 -0.000685882 0.000253337)
(-0.00108249 -0.000694466 0.000280589)
(-0.00114493 -0.00069814 0.000299769)
(-0.00119864 -0.000700034 0.000311081)
(-0.00124443 -0.000702895 0.000315647)
(-0.00128407 -0.000708559 0.000314915)
(-0.00131963 -0.000717888 0.00031022)
(-0.00135359 -0.00073106 0.000302937)
(-0.00138685 -0.000747025 0.000293844)
(-0.00142087 -0.000765126 0.000283574)
(-0.0014561 -0.000784801 0.00027246)
(-0.00149264 -0.000805661 0.000260545)
(-0.00153042 -0.00082746 0.000247735)
(-0.00156924 -0.000849972 0.000233798)
(-0.0016088 -0.000872973 0.000218464)
(-0.00164867 -0.00089617 0.000201316)
(-0.0016885 -0.000919232 0.000181915)
(-0.0017275 -0.000941602 0.000159621)
(-0.00176478 -0.000962616 0.000133572)
(-0.00179854 -0.000981125 0.000102394)
(-0.00182596 -0.000996165 6.47681e-05)
(-0.00184035 -0.00100481 2.2019e-05)
(-0.000312741 -0.000135673 2.20545e-06)
(-0.000378977 -0.000198341 -5.70829e-05)
(-0.000418614 -0.000256926 -4.85776e-05)
(-0.000462228 -0.00032053 -3.01874e-05)
(-0.000516861 -0.000386415 -1.48794e-06)
(-0.000584754 -0.000451158 3.33678e-05)
(-0.000663795 -0.00051058 7.2313e-05)
(-0.000749714 -0.000561323 0.00011364)
(-0.000838117 -0.000601454 0.000155272)
(-0.000925181 -0.000630506 0.000194843)
(-0.00100768 -0.000649231 0.000229894)
(-0.00108319 -0.000659595 0.000258353)
(-0.00115029 -0.000664518 0.00027909)
(-0.00120861 -0.000667125 0.000292107)
(-0.00125883 -0.000670129 0.00029832)
(-0.0013024 -0.000675332 0.000299052)
(-0.00134145 -0.000683781 0.000295717)
(-0.0013782 -0.000695762 0.000289644)
(-0.00141385 -0.000710425 0.000281631)
(-0.00144976 -0.000727345 0.000272351)
(-0.0014864 -0.000745871 0.000262145)
(-0.00152403 -0.000765611 0.000251095)
(-0.00156265 -0.000786268 0.000239126)
(-0.00160205 -0.000807613 0.000226012)
(-0.00164202 -0.000829422 0.000211487)
(-0.00168211 -0.000851393 0.000195129)
(-0.00172204 -0.000873194 0.0001765)
(-0.00176118 -0.000894299 0.000155)
(-0.00179862 -0.000914073 0.000129801)
(-0.00183252 -0.000931454 9.95338e-05)
(-0.00186013 -0.000945592 6.30097e-05)
(-0.00187426 -0.000953656 2.14594e-05)
(-0.000296334 -0.000107415 1.69141e-05)
(-0.000363181 -0.000164269 -5.62852e-05)
(-0.000399918 -0.000217043 -5.12452e-05)
(-0.000439944 -0.000275197 -3.7062e-05)
(-0.00049101 -0.000336969 -1.33348e-05)
(-0.000556689 -0.000399758 1.65113e-05)
(-0.000635574 -0.000459729 5.12131e-05)
(-0.000723363 -0.000512874 8.96032e-05)
(-0.00081512 -0.000556168 0.000129664)
(-0.000906303 -0.000588189 0.00016878)
(-0.00099342 -0.000609353 0.000204266)
(-0.00107393 -0.000621609 0.000233871)
(-0.00114612 -0.000627817 0.000256233)
(-0.00120942 -0.000631122 0.000271119)
(-0.0012642 -0.000634166 0.00027918)
(-0.00131194 -0.000638921 0.000281637)
(-0.00135458 -0.000646497 0.000279863)
(-0.00139428 -0.000657334 0.000275177)
(-0.00143223 -0.000670694 0.000268401)
(-0.00146988 -0.000686294 0.000260248)
(-0.00150789 -0.000703537 0.000251088)
(-0.00154652 -0.000721982 0.000241017)
(-0.00158581 -0.000741327 0.000229985)
(-0.00162561 -0.000761328 0.000217768)
(-0.00166572 -0.000781751 0.00020411)
(-0.00170577 -0.000802313 0.00018859)
(-0.0017456 -0.000822716 0.000170775)
(-0.00178457 -0.000842415 0.000150106)
(-0.00182188 -0.000860835 0.0001258)
(-0.00185574 -0.000877051 9.6496e-05)
(-0.00188339 -0.00089022 6.11449e-05)
(-0.00189712 -0.000897665 2.08696e-05)
(-0.000274075 -8.06051e-05 2.87782e-05)
(-0.000342042 -0.000132255 -5.47764e-05)
(-0.000375538 -0.000178934 -5.30435e-05)
(-0.000411047 -0.000231306 -4.27112e-05)
(-0.000457473 -0.000288193 -2.38603e-05)
(-0.000519724 -0.000347978 6.69134e-07)
(-0.00059726 -0.000407419 3.04679e-05)
(-0.000685768 -0.000461977 6.50617e-05)
(-0.000779955 -0.000507734 0.000102703)
(-0.000875155 -0.000542639 0.00014076)
(-0.000967285 -0.000566472 0.000176344)
(-0.00105314 -0.000580735 0.000206936)
(-0.0011308 -0.000588272 0.000230935)
(-0.0011994 -0.000592203 0.000247809)
(-0.00125931 -0.000595345 0.000257986)
(-0.00131157 -0.000599628 0.000262448)
(-0.00135812 -0.000606334 0.000262508)
(-0.00140085 -0.000615928 0.000259424)
(-0.00144132 -0.000627959 0.000254104)
(-0.0014809 -0.000642196 0.000247269)
(-0.00152022 -0.000658011 0.000239293)
(-0.00155972 -0.000675024 0.000230324)
(-0.00159951 -0.000692908 0.000220329)
(-0.00163944 -0.000711421 0.000209086)
(-0.00167943 -0.000730329 0.000196361)
(-0.00171911 -0.000749352 0.000181727)
(-0.00175841 -0.0007682 0.000164753)
(-0.00179693 -0.000786387 0.000144954)
(-0.0018338 -0.000803388 0.000121584)
(-0.00186724 -0.00081831 9.32786e-05)
(-0.00189471 -0.000830459 5.91735e-05)
(-0.00190786 -0.00083722 2.0251e-05)
(-0.000244031 -5.55163e-05 3.74837e-05)
(-0.000312427 -0.00010164 -5.21566e-05)
(-0.000342773 -0.000142121 -5.35112e-05)
(-0.000373038 -0.000188244 -4.66598e-05)
(-0.000413601 -0.000239275 -3.25366e-05)
(-0.000470958 -0.000294772 -1.35754e-05)
(-0.000545994 -0.000352592 1.06021e-05)
(-0.000635052 -0.000408263 4.04712e-05)
(-0.000732325 -0.000456859 7.48631e-05)
(-0.000831792 -0.00049485 0.000111163)
(-0.000928914 -0.000521397 0.000146328)
(-0.00102047 -0.000537866 0.00017767)
(-0.00110403 -0.000546836 0.000203268)
(-0.00117849 -0.000551456 0.000222263)
(-0.00124364 -0.000554483 0.000234709)
(-0.00130069 -0.000558158 0.000241425)
(-0.00135131 -0.000563849 0.000243576)
(-0.00139744 -0.000572157 0.000242381)
(-0.00144042 -0.000582701 0.000238722)
(-0.00148176 -0.000595358 0.000233362)
(-0.00152236 -0.000609623 0.000226737)
(-0.0015626 -0.000625064 0.000219001)
(-0.00160269 -0.000641379 0.000210155)
(-0.0016425 -0.000658301 0.000199976)
(-0.00168205 -0.000675591 0.000188248)
(-0.00172101 -0.000692992 0.000174553)
(-0.00175954 -0.000710247 0.000158462)
(-0.00179724 -0.000726853 0.000139563)
(-0.00183332 -0.000742363 0.000117165)
(-0.00186623 -0.000756023 8.99021e-05)
(-0.00189332 -0.000767101 5.71099e-05)
(-0.00190576 -0.000773198 1.96109e-05)
(-0.000209672 -3.39658e-05 4.30816e-05)
(-0.000277174 -7.41199e-05 -4.87728e-05)
(-0.000304969 -0.000108856 -5.2977e-05)
(-0.000330036 -0.000148838 -4.90732e-05)
(-0.000363989 -0.000193537 -3.915e-05)
(-0.000415062 -0.000243662 -2.55897e-05)
(-0.000485826 -0.00029841 -7.49661e-06)
(-0.000573081 -0.000353507 1.66723e-05)
(-0.000670951 -0.000403423 4.66291e-05)
(-0.000773928 -0.000444229 8.01957e-05)
(-0.000876502 -0.000473966 0.00011432)
(-0.000974124 -0.000492989 0.00014603)
(-0.00106404 -0.000503658 0.00017309)
(-0.0011446 -0.000508989 0.000194221)
(-0.00121577 -0.000512056 0.000209184)
(-0.00127811 -0.000515096 0.000218442)
(-0.00133323 -0.000519692 0.000222995)
(-0.0013828 -0.00052651 0.000223936)
(-0.00142858 -0.000535505 0.000222218)
(-0.001472 -0.000546564 0.00021859)
(-0.00151384 -0.000559155 0.000213491)
(-0.00155471 -0.000572934 0.000207134)
(-0.00159484 -0.000587569 0.000199547)
(-0.00163421 -0.000602808 0.000190513)
(-0.00167298 -0.000618427 0.000179844)
(-0.00171081 -0.000634147 0.000167126)
(-0.001748 -0.000649711 0.000151924)
(-0.00178456 -0.000664715 0.000133955)
(-0.00181954 -0.000678728 0.000112559)
(-0.00185137 -0.000691007 8.63571e-05)
(-0.00187793 -0.00070102 5.49517e-05)
(-0.00188935 -0.00070641 1.89484e-05)
(-0.000168576 -1.59182e-05 4.49595e-05)
(-0.000233034 -4.93184e-05 -4.39864e-05)
(-0.000258369 -7.8199e-05 -5.07239e-05)
(-0.000278067 -0.00011166 -4.92472e-05)
(-0.000304327 -0.000149078 -4.28648e-05)
(-0.000347039 -0.00019216 -3.43093e-05)
(-0.000411353 -0.000242041 -2.25965e-05)
(-0.000496492 -0.000296067 -5.12976e-06)
(-0.000596677 -0.000348269 1.9174e-05)
(-0.000703512 -0.000392304 4.88718e-05)
(-0.00081098 -0.000425241 8.10388e-05)
(-0.00091474 -0.000447127 0.000112539)
(-0.00101116 -0.000459747 0.000140755)
(-0.00109847 -0.000466108 0.000164016)
(-0.0011756 -0.000469095 0.000181548)
(-0.00124339 -0.000471378 0.000193544)
(-0.00130312 -0.000474709 0.000200745)
(-0.00135664 -0.000480019 0.000204158)
(-0.0014052 -0.00048727 0.000204616)
(-0.0014504 -0.000496482 0.000202896)
(-0.0014934 -0.000507293 0.000199514)
(-0.0015347 -0.000519314 0.000194685)
(-0.0015747 -0.00053223 0.000188485)
(-0.00161334 -0.000545765 0.000180686)
(-0.00165093 -0.000559682 0.000171135)
(-0.00168725 -0.000573734 0.000159442)
(-0.0017229 -0.000587688 0.000145161)
(-0.0017579 -0.000601081 0.000128137)
(-0.00179135 -0.000613599 0.000107766)
(-0.00182213 -0.000624626 8.26656e-05)
(-0.00184781 -0.000633529 5.27105e-05)
(-0.0018582 -0.00063831 1.82718e-05)
(-0.000125859 -2.7862e-06 4.3706e-05)
(-0.000185318 -2.92122e-05 -3.83505e-05)
(-0.000209432 -5.27056e-05 -4.74458e-05)
(-0.000225521 -8.03803e-05 -4.80393e-05)
(-0.000244994 -0.000110958 -4.43131e-05)
(-0.000278978 -0.000146642 -3.972e-05)
(-0.000334975 -0.000190206 -3.39517e-05)
(-0.00041304 -0.000240186 -2.3765e-05)
(-0.000508833 -0.000290886 -6.38539e-06)
(-0.000617229 -0.000337197 1.8046e-05)
(-0.000729938 -0.000374041 4.70862e-05)
(-0.000840048 -0.000399497 7.75547e-05)
(-0.000943583 -0.000414811 0.00010647)
(-0.00103757 -0.000422496 0.000131595)
(-0.00112156 -0.000425894 0.000151785)
(-0.00119541 -0.000427634 0.000166721)
(-0.00126033 -0.00042979 0.000176861)
(-0.00131761 -0.000433376 0.000182959)
(-0.00136926 -0.000438857 0.000185888)
(-0.00141672 -0.000446284 0.000186375)
(-0.00146084 -0.000455248 0.000184907)
(-0.00150245 -0.000465469 0.000181763)
(-0.00154197 -0.000476612 0.000177058)
(-0.00157949 -0.000488439 0.000170573)
(-0.00161553 -0.00050069 0.000162197)
(-0.00164981 -0.000513095 0.000151552)
(-0.00168319 -0.000525408 0.00013817)
(-0.00171629 -0.000537254 0.000122111)
(-0.00174787 -0.000548345 0.000102792)
(-0.00177685 -0.000558011 7.87941e-05)
(-0.00180166 -0.000565892 5.03752e-05)
(-0.0018105 -0.000570029 1.75738e-05)
(-7.9025e-05 5.87947e-06 3.88689e-05)
(-0.000130475 -1.2946e-05 -3.08579e-05)
(-0.000152013 -3.02101e-05 -4.18064e-05)
(-0.000163761 -5.13277e-05 -4.37513e-05)
(-0.00017588 -7.40757e-05 -4.15591e-05)
(-0.000198869 -0.000100255 -3.95943e-05)
(-0.000242134 -0.000133762 -3.84549e-05)
(-0.000313822 -0.000178668 -3.57995e-05)
(-0.000410844 -0.000232193 -2.74664e-05)
(-0.00052086 -0.000281239 -1.04315e-05)
(-0.000637046 -0.000321853 1.40451e-05)
(-0.000753038 -0.000351363 4.23786e-05)
(-0.000862928 -0.000369739 7.11841e-05)
(-0.000964185 -0.00037951 9.77892e-05)
(-0.00105447 -0.000383448 0.000120369)
(-0.00113417 -0.000384747 0.000138226)
(-0.00120401 -0.000385679 0.000151408)
(-0.0012658 -0.000387763 0.0001605)
(-0.00132046 -0.000391381 0.000166119)
(-0.0013696 -0.000396803 0.000168963)
(-0.0014147 -0.000403874 0.0001696)
(-0.00145636 -0.000412271 0.000168287)
(-0.00149522 -0.000421694 0.000165216)
(-0.00153125 -0.000431874 0.000160129)
(-0.00156528 -0.000442509 0.000152976)
(-0.00159714 -0.000453399 0.000143422)
(-0.00162813 -0.000464268 0.000130964)
(-0.00165887 -0.000474631 0.000115875)
(-0.00168809 -0.000484357 9.76199e-05)
(-0.0017155 -0.000492889 7.47699e-05)
(-0.00173891 -0.000499695 4.79506e-05)
(-0.00174637 -0.000503384 1.68652e-05)
(-3.74493e-05 9.5473e-06 3.10304e-05)
(-7.69015e-05 -3.12002e-06 -2.2259e-05)
(-9.9895e-05 -1.49598e-05 -3.20327e-05)
(-0.00011476 -3.04509e-05 -3.80393e-05)
(-0.000122746 -4.75813e-05 -3.87955e-05)
(-0.000138361 -6.8135e-05 -3.65602e-05)
(-0.000174547 -9.2295e-05 -3.76519e-05)
(-0.000262491 -0.000137443 -4.26568e-05)
(-0.000303529 -0.000168848 -4.27566e-05)
(-0.000410011 -0.00022066 -3.41769e-05)
(-0.000529551 -0.000265882 -1.63703e-05)
(-0.000650383 -0.000300381 8.29998e-06)
(-0.000767384 -0.000323319 3.58738e-05)
(-0.000875094 -0.000335875 6.30759e-05)
(-0.000972664 -0.00034147 8.76777e-05)
(-0.00105885 -0.000343028 0.000108334)
(-0.00113441 -0.000343269 0.000124666)
(-0.00119997 -0.000343768 0.000136798)
(-0.00125781 -0.000345662 0.000145324)
(-0.0013093 -0.000349328 0.000150815)
(-0.0013553 -0.000354553 0.000153739)
(-0.00139685 -0.000361195 0.000154409)
(-0.00143458 -0.000368909 0.000153064)
(-0.00146867 -0.000377527 0.000149443)
(-0.00150028 -0.00038668 0.000143556)
(-0.00152905 -0.000396134 0.000135098)
(-0.0015567 -0.000405564 0.000123503)
(-0.00158473 -0.000414574 0.000109397)
(-0.00161132 -0.000423092 9.22372e-05)
(-0.00163613 -0.000430374 7.05198e-05)
(-0.00165839 -0.000436298 4.54151e-05)
(-0.00166365 -0.000439462 1.61295e-05)
(-1.30817e-05 9.61149e-06 2.40219e-05)
(-2.54219e-05 1.76867e-06 -1.13618e-05)
(-3.58067e-05 -1.66071e-06 -2.18342e-05)
(-3.94188e-05 -1.21209e-05 -2.46849e-05)
(-4.14734e-05 -1.77448e-05 -2.01541e-05)
(-4.55161e-05 -2.3895e-05 -2.01248e-05)
(-6.71468e-05 -2.84519e-05 -5.56546e-05)
(-8.94504e-05 -0.000147447 -5.73922e-05)
(-0.000208112 -0.000131328 1.92724e-05)
(-0.000299269 -0.000153126 -4.9721e-05)
(-0.000415113 -0.000208752 -4.13012e-05)
(-0.000539834 -0.000248879 -2.19967e-05)
(-0.000660931 -0.000276397 2.55652e-06)
(-0.000775439 -0.000293059 2.91215e-05)
(-0.000878613 -0.000300698 5.47687e-05)
(-0.000970368 -0.000302985 7.76906e-05)
(-0.0010505 -0.000302743 9.6889e-05)
(-0.00112084 -0.000302343 0.000112191)
(-0.00118167 -0.0003027 0.000123718)
(-0.00123444 -0.00030452 0.000131895)
(-0.00128106 -0.000308004 0.000137244)
(-0.00132207 -0.000312969 0.00014)
(-0.00135855 -0.000319148 0.000140509)
(-0.00139026 -0.000326356 0.000138419)
(-0.0014189 -0.000334149 0.00013382)
(-0.00144428 -0.000342396 0.000126498)
(-0.0014687 -0.000350701 0.000115785)
(-0.00149361 -0.000358478 0.000102662)
(-0.00151691 -0.000365864 8.66046e-05)
(-0.00153979 -0.000372243 6.60839e-05)
(-0.00156002 -0.000377178 4.27643e-05)
(-0.00156368 -0.000380127 1.53803e-05)
(7.96439e-06 1.00674e-05 2.28289e-05)
(-9.64593e-07 4.72655e-06 -1.15571e-05)
(-8.63645e-06 -1.20442e-06 -1.82354e-05)
(-1.24488e-05 -6.4487e-06 -1.89235e-05)
(-1.84525e-05 -9.82888e-06 -2.10328e-05)
(-3.19056e-05 -2.46563e-05 -4.25793e-05)
(-5.13335e-05 -4.54944e-05 -3.51554e-05)
(-4.09109e-05 -4.78452e-05 -2.55064e-05)
(-7.24215e-05 -6.0504e-05 -2.1821e-05)
(-0.000209814 -0.000104454 -3.88905e-05)
(-0.00029476 -0.000143484 -5.4336e-05)
(-0.000414564 -0.000191732 -4.51804e-05)
(-0.000541276 -0.000226556 -2.6307e-05)
(-0.000660243 -0.000248182 -2.60738e-06)
(-0.00077049 -0.000259875 2.27243e-05)
(-0.00086845 -0.000264262 4.70831e-05)
(-0.000954437 -0.000264787 6.8819e-05)
(-0.0010278 -0.000263646 8.69483e-05)
(-0.00109136 -0.000262892 0.000101454)
(-0.00114632 -0.000263461 0.000112494)
(-0.00119334 -0.000265437 0.000120356)
(-0.00123364 -0.000268963 0.00012529)
(-0.0012682 -0.000273707 0.000127695)
(-0.00129698 -0.000279685 0.000127167)
(-0.00132232 -0.000286327 0.000123873)
(-0.00134347 -0.000293482 0.00011766)
(-0.00136341 -0.000300654 0.000107719)
(-0.00138487 -0.000307351 9.55918e-05)
(-0.00140488 -0.000313829 8.06862e-05)
(-0.00142428 -0.000319116 6.13328e-05)
(-0.00144328 -0.000323361 3.99629e-05)
(-0.00144396 -0.00032593 1.45854e-05)
(2.10423e-05 8.17329e-06 2.45462e-05)
(2.42512e-05 6.2551e-06 -2.9347e-06)
(1.86982e-05 5.43167e-06 -4.97652e-06)
(7.99878e-06 4.60303e-06 -1.24479e-05)
(1.48845e-06 -2.61628e-06 -1.69133e-05)
(-5.2374e-06 -7.29048e-06 -1.4356e-05)
(-1.46682e-05 -1.28952e-05 -5.91147e-06)
(-4.29823e-05 9.28047e-06 -1.8575e-05)
(-2.74611e-05 -8.6102e-06 -3.98783e-05)
(-6.04519e-05 -7.77207e-05 -3.61072e-05)
(-0.000180605 -9.66895e-05 -1.7766e-05)
(-0.000295107 -0.000131297 -5.69631e-05)
(-0.000416416 -0.000175097 -4.85782e-05)
(-0.000540423 -0.000203951 -2.99021e-05)
(-0.000653624 -0.000219648 -6.79768e-06)
(-0.00075574 -0.000226858 1.77199e-05)
(-0.000844536 -0.000228461 4.10487e-05)
(-0.000922435 -0.000227969 6.17096e-05)
(-0.000988452 -0.000226739 7.89757e-05)
(-0.00104364 -0.000226168 9.26518e-05)
(-0.00109059 -0.000226995 0.000103011)
(-0.00112951 -0.000229316 0.000110098)
(-0.00116209 -0.000232932 0.000114468)
(-0.0011875 -0.00023792 0.000115517)
(-0.00120892 -0.000243567 0.000113498)
(-0.00122574 -0.000249904 0.000108429)
(-0.0012418 -0.000256323 9.92894e-05)
(-0.00125959 -0.000262094 8.81682e-05)
(-0.00127537 -0.000267656 7.44112e-05)
(-0.00129278 -0.000272337 5.63351e-05)
(-0.00130908 -0.000275669 3.69947e-05)
(-0.00130815 -0.000278308 1.37658e-05)
(3.41536e-05 1.39756e-05 4.02531e-05)
(4.34198e-05 1.14358e-05 -7.71089e-06)
(4.39162e-05 5.83535e-06 -1.20536e-05)
(3.98765e-05 -3.15512e-06 -1.35928e-05)
(3.5017e-05 -9.77764e-06 -1.18395e-05)
(2.43051e-05 -1.19576e-05 -7.0723e-06)
(6.16603e-06 -7.6532e-06 -2.39816e-06)
(-1.21665e-05 6.60157e-07 -1.85667e-05)
(-3.35862e-05 -2.27835e-05 -4.18205e-05)
(-3.09076e-05 -3.6756e-05 -3.31806e-05)
(-5.19825e-05 -3.83221e-05 -2.2514e-05)
(-0.000166093 -7.75066e-05 -4.78058e-05)
(-0.000288073 -0.000119248 -5.87675e-05)
(-0.000405885 -0.000154902 -4.9942e-05)
(-0.000525845 -0.000177848 -3.16921e-05)
(-0.000632614 -0.000189613 -8.89483e-06)
(-0.000726964 -0.000194442 1.49685e-05)
(-0.000805651 -0.000194798 3.71724e-05)
(-0.000873 -0.000193842 5.67013e-05)
(-0.00092975 -0.000193204 7.29083e-05)
(-0.000976107 -0.000193332 8.56237e-05)
(-0.00101342 -0.000194885 9.47966e-05)
(-0.00104317 -0.00019755 0.000101053)
(-0.00106457 -0.000201775 0.000103634)
(-0.00108189 -0.000206687 0.000102848)
(-0.00109345 -0.000212264 9.8853e-05)
(-0.00110395 -0.000217777 9.03312e-05)
(-0.0011177 -0.000222725 8.02322e-05)
(-0.00112989 -0.000227603 6.77254e-05)
(-0.00114295 -0.000231346 5.08792e-05)
(-0.00115824 -0.000234145 3.38096e-05)
(-0.00115346 -0.000236526 1.28608e-05)
(4.38409e-05 1.55166e-05 4.55006e-05)
(5.95669e-05 1.31761e-05 -7.98497e-06)
(6.51678e-05 9.02995e-06 -1.51442e-05)
(6.63831e-05 1.20533e-06 -1.85841e-05)
(6.38025e-05 -7.61417e-06 -1.92445e-05)
(5.68626e-05 -1.55247e-05 -1.76689e-05)
(4.47678e-05 -2.19931e-05 -1.59777e-05)
(2.86281e-05 -2.36866e-05 -1.3436e-05)
(1.89139e-05 -2.26717e-05 2.88926e-06)
(-2.65184e-05 2.27659e-05 -1.74052e-05)
(-1.57063e-05 -1.00615e-05 -2.95672e-05)
(-4.68812e-05 -2.80033e-05 -2.23499e-05)
(-0.000169813 -7.28355e-05 -5.00141e-05)
(-0.000285348 -0.000108066 -5.82254e-05)
(-0.000397236 -0.000135507 -5.04306e-05)
(-0.00050519 -0.000152679 -3.1064e-05)
(-0.000597646 -0.000160037 -8.28644e-06)
(-0.000679944 -0.000163577 1.44269e-05)
(-0.000748412 -0.000163932 3.5398e-05)
(-0.000803258 -0.000163407 5.34312e-05)
(-0.000848404 -0.000163498 6.81797e-05)
(-0.000883047 -0.000164635 7.91414e-05)
(-0.000910109 -0.000166766 8.72023e-05)
(-0.000927114 -0.000170482 9.1228e-05)
(-0.000939759 -0.000174786 9.15484e-05)
(-0.000946357 -0.000179828 8.86538e-05)
(-0.00095284 -0.000184795 8.08328e-05)
(-0.000962897 -0.00018912 7.18076e-05)
(-0.000970016 -0.000192974 6.05173e-05)
(-0.000981636 -0.000196528 4.51095e-05)
(-0.000993605 -0.000198361 3.03833e-05)
(-0.000987684 -0.000201122 1.19094e-05)
(5.09246e-05 1.41327e-05 4.56759e-05)
(7.12514e-05 1.17248e-05 -7.15941e-06)
(8.04571e-05 7.85731e-06 -1.52814e-05)
(8.51994e-05 4.15464e-07 -2.01178e-05)