/*--------------------------------*- C++ -*----------------------------------*\
  =========                 |
  \\      /  F ield         | OpenFOAM: The Open Source CFD Toolbox
   \\    /   O peration     | Website:  https://openfoam.org
    \\  /    A nd           | Version:  6
     \\/     M anipulation  |
\*---------------------------------------------------------------------------*/
FoamFile
{
    version     2.0;
    format      ascii;
    class       volScalarField;
    location    "40";
    object      p;
}
// * * * * * * * * * * * * * * * * * * * * * * * * * * * * * * * * * * * * * //

dimensions      [0 2 -2 0 0 0 0];

internalField   nonuniform List<scalar> 
380496
(
0.0132931
0.0136465
0.0134091
0.0133448
0.0133028
0.0132595
0.0132211
0.0131835
0.0131462
0.0131097
0.0130739
0.013039
0.013005
0.012972
0.0129401
0.0129091
0.0128788
0.0128492
0.0128197
0.0127901
0.0127599
0.0127285
0.0126955
0.0126602
0.0126219
0.0125799
0.0125336
0.012482
0.012425
0.0123611
0.0122913
0.0122124
0.0121315
0.0120345
0.011956
0.0132741
0.0136186
0.0133924
0.0133338
0.0132958
0.0132554
0.0132184
0.0131811
0.0131432
0.0131052
0.0130672
0.0130294
0.0129919
0.0129549
0.0129184
0.0128822
0.0128462
0.0128101
0.0127738
0.0127368
0.0126987
0.0126589
0.0126171
0.0125725
0.0125247
0.0124729
0.0124167
0.0123551
0.0122881
0.0122139
0.0121344
0.0120438
0.0119529
0.0118344
0.0117458
0.0132512
0.0135892
0.0133737
0.0133213
0.0132878
0.0132503
0.0132146
0.0131774
0.0131385
0.0130987
0.013058
0.0130169
0.0129755
0.0129339
0.0128921
0.0128501
0.0128077
0.0127646
0.0127206
0.0126753
0.0126284
0.0125791
0.0125273
0.0124722
0.0124134
0.0123501
0.0122821
0.0122085
0.0121294
0.012043
0.0119521
0.0118496
0.01175
0.0116212
0.0115318
0.0132207
0.013556
0.0133532
0.0133086
0.0132805
0.0132466
0.0132126
0.0131757
0.0131361
0.0130946
0.0130517
0.0130076
0.0129626
0.0129169
0.0128706
0.0128234
0.0127755
0.0127263
0.0126759
0.0126235
0.0125692
0.0125121
0.0124522
0.0123886
0.0123212
0.0122492
0.0121724
0.0120898
0.0120021
0.0119069
0.0118076
0.0116962
0.0115889
0.0114488
0.0113534
0.0131928
0.0135191
0.013332
0.0132961
0.0132736
0.0132433
0.0132109
0.0131742
0.0131337
0.0130904
0.0130448
0.0129975
0.0129488
0.0128988
0.0128477
0.0127953
0.0127416
0.0126862
0.012629
0.0125696
0.0125077
0.0124428
0.0123746
0.0123025
0.0122263
0.0121453
0.0120595
0.0119679
0.0118713
0.0117674
0.0116598
0.0115402
0.0114265
0.0112788
0.0111817
0.0131526
0.0134783
0.013309
0.0132833
0.0132676
0.0132414
0.0132109
0.0131745
0.0131331
0.013088
0.01304
0.0129897
0.0129375
0.0128836
0.0128281
0.0127709
0.012712
0.0126511
0.012588
0.0125223
0.0124539
0.0123821
0.0123069
0.0122276
0.0121442
0.0120558
0.0119628
0.011864
0.0117604
0.0116496
0.0115357
0.0114096
0.0112907
0.011136
0.0110364
0.0131105
0.0134337
0.0132853
0.0132712
0.0132629
0.013241
0.0132123
0.0131759
0.0131335
0.0130865
0.013036
0.0129826
0.0129268
0.0128689
0.012809
0.0127471
0.0126832
0.0126168
0.012548
0.0124763
0.0124016
0.0123233
0.0122414
0.0121553
0.0120649
0.0119697
0.0118698
0.0117643
0.0116542
0.0115371
0.0114175
0.0112857
0.0111624
0.0110024
0.0109019
0.0130598
0.0133857
0.0132616
0.0132606
0.0132602
0.0132426
0.0132156
0.0131792
0.0131356
0.0130867
0.0130336
0.0129772
0.0129181
0.0128565
0.0127926
0.0127264
0.0126578
0.0125866
0.0125127
0.0124356
0.0123554
0.0122714
0.0121837
0.0120917
0.0119956
0.0118945
0.011789
0.011678
0.0115626
0.0114406
0.0113164
0.0111802
0.0110537
0.0108891
0.0107882
0.0130007
0.0133354
0.013238
0.0132513
0.0132596
0.0132462
0.0132207
0.0131842
0.0131393
0.0130884
0.0130328
0.0129736
0.0129114
0.0128464
0.0127789
0.0127087
0.0126361
0.0125605
0.0124821
0.0124004
0.0123153
0.0122265
0.0121338
0.0120369
0.0119358
0.0118299
0.0117196
0.011604
0.0114844
0.0113583
0.0112305
0.0110907
0.0109618
0.0107935
0.0106927
0.0129428
0.0132895
0.0132188
0.0132459
0.0132618
0.0132518
0.0132271
0.0131901
0.0131439
0.0130911
0.0130333
0.0129715
0.0129065
0.0128386
0.012768
0.0126947
0.0126186
0.0125395
0.0124574
0.0123718
0.0122829
0.0121901
0.0120935
0.0119926
0.0118876
0.0117779
0.011664
0.0115449
0.0114221
0.011293
0.0111627
0.0110202
0.0108896
0.0107186
0.0106182
0.0128689
0.0132407
0.0131989
0.0132415
0.0132658
0.0132592
0.0132353
0.0131976
0.0131499
0.0130951
0.013035
0.0129708
0.0129033
0.0128327
0.0127592
0.0126829
0.0126037
0.0125214
0.012436
0.0123472
0.0122548
0.0121586
0.0120585
0.0119542
0.0118459
0.011733
0.011616
0.0114941
0.0113687
0.0112371
0.0111047
0.0109602
0.0108284
0.0106553
0.0105555
0.0127964
0.0131969
0.0131837
0.0132413
0.0132728
0.0132684
0.0132447
0.0132059
0.0131565
0.0130997
0.0130375
0.0129711
0.0129012
0.0128281
0.0127521
0.0126732
0.0125914
0.0125064
0.0124182
0.0123265
0.0122312
0.0121321
0.0120291
0.011922
0.0118109
0.0116955
0.011576
0.0114519
0.0113244
0.011191
0.0110572
0.0109112
0.0107787
0.0106038
0.0105048
0.0127026
0.0131527
0.0131688
0.0132432
0.0132823
0.0132798
0.0132559
0.0132158
0.0131644
0.0131056
0.0130412
0.0129726
0.0129005
0.0128252
0.0127469
0.0126657
0.0125815
0.0124941
0.0124034
0.0123092
0.0122115
0.0121099
0.0120045
0.0118951
0.0117817
0.0116641
0.0115427
0.0114167
0.0112877
0.0111529
0.011018
0.010871
0.0107381
0.010562
0.010464
0.0126087
0.0131157
0.0131583
0.0132487
0.0132937
0.013292
0.0132673
0.0132256
0.0131724
0.0131115
0.0130451
0.0129745
0.0129004
0.0128232
0.012743
0.0126598
0.0125736
0.0124841
0.0123914
0.0122952
0.0121954
0.0120918
0.0119844
0.011873
0.0117578
0.0116384
0.0115155
0.0113882
0.011258
0.0111222
0.0109867
0.0108391
0.0107061
0.0105293
0.0104322
0.0124945
0.0130838
0.0131509
0.0132584
0.0133089
0.013307
0.0132809
0.0132371
0.0131816
0.0131186
0.0130502
0.0129777
0.0129017
0.0128227
0.0127407
0.0126557
0.0125677
0.0124766
0.0123821
0.0122841
0.0121826
0.0120773
0.0119683
0.0118553
0.0117386
0.0116179
0.0114937
0.0113654
0.0112344
0.011098
0.0109621
0.0108145
0.0106816
0.010505
0.0104088
0.0123726
0.0130601
0.0131451
0.0132691
0.0133236
0.0133211
0.0132934
0.0132475
0.0131899
0.013125
0.0130548
0.0129806
0.0129031
0.0128226
0.0127391
0.0126527
0.0125633
0.0124707
0.0123749
0.0122755
0.0121726
0.012066
0.0119557
0.0118415
0.0117236
0.0116019
0.0114768
0.0113478
0.0112162
0.0110796
0.0109436
0.0107962
0.0106635
0.0104873
0.0103912
0.0122402
0.0130488
0.013147
0.0132874
0.0133433
0.0133385
0.0133082
0.0132596
0.0131996
0.0131326
0.0130606
0.0129847
0.0129057
0.0128238
0.012739
0.0126514
0.0125608
0.012467
0.01237
0.0122696
0.0121656
0.0120579
0.0119465
0.0118314
0.0117127
0.0115902
0.0114644
0.0113349
0.011203
0.0110663
0.0109305
0.0107838
0.0106517
0.0104777
0.0103816
0.0120898
0.0130445
0.0131448
0.013302
0.0133593
0.0133525
0.01332
0.0132691
0.0132071
0.0131384
0.013065
0.0129879
0.0129078
0.0128249
0.0127392
0.0126506
0.0125592
0.0124646
0.0123667
0.0122655
0.0121607
0.0120522
0.0119402
0.0118244
0.011705
0.011582
0.0114558
0.011326
0.011194
0.0110575
0.0109218
0.0107762
0.0106439
0.0104724
0.0103714
0.0119444
0.0130608
0.0131559
0.0133259
0.0133803
0.0133697
0.013334
0.0132803
0.0132162
0.0131457
0.0130709
0.0129925
0.0129114
0.0128275
0.012741
0.0126517
0.0125596
0.0124643
0.0123658
0.012264
0.0121587
0.0120496
0.0119371
0.0118208
0.011701
0.0115777
0.0114512
0.0113212
0.0111892
0.011053
0.0109178
0.0107735
0.0106423
0.0104767
0.0103729
0.0117904
0.0130688
0.0131558
0.0133423
0.0133949
0.0133819
0.0133439
0.0132882
0.0132227
0.0131511
0.0130754
0.0129964
0.0129147
0.0128302
0.0127433
0.0126535
0.012561
0.0124653
0.0123665
0.0122642
0.0121586
0.0120493
0.0119364
0.0118198
0.0116999
0.0115763
0.0114497
0.0113197
0.0111876
0.0110517
0.0109167
0.0107741
0.0106423
0.0104825
0.0103663
0.0117134
0.013094
0.0131676
0.0133626
0.0134118
0.0133962
0.0133559
0.0132983
0.0132313
0.0131585
0.0130818
0.013002
0.0129196
0.0128347
0.0127473
0.0126571
0.0125643
0.0124683
0.0123692
0.0122667
0.0121609
0.0120514
0.0119385
0.0118218
0.0117017
0.0115781
0.0114515
0.0113215
0.0111895
0.0110538
0.0109194
0.0107776
0.0106502
0.0104949
0.0104131
0.0132923
0.0136451
0.013409
0.0133449
0.0133028
0.0132595
0.0132211
0.0131835
0.0131462
0.0131097
0.0130739
0.013039
0.013005
0.012972
0.0129401
0.0129091
0.0128789
0.0128492
0.0128197
0.0127901
0.0127599
0.0127285
0.0126955
0.0126602
0.0126219
0.0125799
0.0125336
0.0124821
0.0124251
0.0123612
0.0122915
0.0122126
0.0121317
0.0120347
0.0119563
0.0132732
0.0136172
0.0133923
0.0133338
0.0132958
0.0132554
0.0132184
0.0131811
0.0131432
0.0131052
0.0130672
0.0130294
0.0129919
0.0129549
0.0129184
0.0128822
0.0128462
0.0128102
0.0127739
0.0127368
0.0126987
0.012659
0.0126172
0.0125726
0.0125248
0.012473
0.0124168
0.0123552
0.0122882
0.0122141
0.0121346
0.0120439
0.0119531
0.0118346
0.0117461
0.0132502
0.0135879
0.0133736
0.0133214
0.0132878
0.0132503
0.0132146
0.0131774
0.0131385
0.0130987
0.013058
0.0130169
0.0129755
0.0129339
0.0128921
0.0128501
0.0128077
0.0127646
0.0127207
0.0126753
0.0126284
0.0125792
0.0125273
0.0124722
0.0124134
0.0123501
0.0122822
0.0122085
0.0121295
0.0120432
0.0119522
0.0118498
0.0117502
0.0116214
0.011532
0.0132198
0.0135546
0.0133531
0.0133087
0.0132805
0.0132466
0.0132126
0.0131757
0.0131361
0.0130946
0.0130517
0.0130076
0.0129626
0.0129169
0.0128706
0.0128235
0.0127755
0.0127263
0.0126759
0.0126236
0.0125692
0.0125122
0.0124523
0.0123887
0.0123213
0.0122492
0.0121724
0.0120899
0.0120022
0.011907
0.0118078
0.0116964
0.0115891
0.0114491
0.0113537
0.0131918
0.0135177
0.0133319
0.0132961
0.0132736
0.0132433
0.0132109
0.0131742
0.0131337
0.0130904
0.0130448
0.0129975
0.0129488
0.0128988
0.0128477
0.0127953
0.0127416
0.0126862
0.012629
0.0125696
0.0125077
0.0124428
0.0123746
0.0123025
0.0122264
0.0121454
0.0120596
0.011968
0.0118714
0.0117675
0.0116599
0.0115403
0.0114266
0.011279
0.0111819
0.0131516
0.013477
0.013309
0.0132834
0.0132677
0.0132415
0.0132109
0.0131745
0.0131331
0.013088
0.01304
0.0129897
0.0129375
0.0128836
0.0128281
0.0127709
0.012712
0.0126511
0.012588
0.0125223
0.0124539
0.0123822
0.012307
0.0122277
0.0121442
0.0120559
0.0119628
0.0118641
0.0117604
0.0116497
0.0115358
0.0114097
0.0112908
0.0111362
0.0110365
0.0131094
0.0134325
0.0132852
0.0132713
0.0132629
0.013241
0.0132123
0.0131759
0.0131335
0.0130865
0.013036
0.0129826
0.0129268
0.0128689
0.0128091
0.0127471
0.0126832
0.0126168
0.012548
0.0124763
0.0124016
0.0123233
0.0122414
0.0121553
0.012065
0.0119698
0.0118699
0.0117644
0.0116542
0.0115372
0.0114176
0.0112858
0.0111625
0.0110025
0.0109021
0.0130586
0.0133844
0.0132616
0.0132606
0.0132603
0.0132426
0.0132156
0.0131792
0.0131356
0.0130867
0.0130336
0.0129772
0.0129181
0.0128565
0.0127927
0.0127264
0.0126578
0.0125866
0.0125127
0.0124356
0.0123554
0.0122714
0.0121837
0.0120918
0.0119956
0.0118946
0.011789
0.011678
0.0115627
0.0114406
0.0113165
0.0111803
0.0110538
0.0108892
0.0107884
0.0129995
0.0133342
0.013238
0.0132514
0.0132596
0.0132462
0.0132207
0.0131842
0.0131393
0.0130884
0.0130328
0.0129736
0.0129114
0.0128464
0.0127789
0.0127087
0.0126361
0.0125605
0.0124821
0.0124004
0.0123154
0.0122265
0.0121339
0.0120369
0.0119358
0.0118299
0.0117196
0.0116041
0.0114845
0.0113583
0.0112306
0.0110908
0.0109618
0.0107937
0.0106928
0.0129416
0.0132884
0.0132188
0.0132459
0.0132618
0.0132518
0.0132271
0.0131901
0.0131439
0.0130911
0.0130333
0.0129715
0.0129065
0.0128386
0.012768
0.0126947
0.0126186
0.0125395
0.0124574
0.0123719
0.0122829
0.0121901
0.0120935
0.0119926
0.0118876
0.0117779
0.011664
0.011545
0.0114222
0.011293
0.0111627
0.0110203
0.0108897
0.0107187
0.0106183
0.0128678
0.0132396
0.0131989
0.0132416
0.0132658
0.0132592
0.0132353
0.0131976
0.0131499
0.0130951
0.013035
0.0129708
0.0129033
0.0128327
0.0127592
0.0126829
0.0126037
0.0125214
0.012436
0.0123472
0.0122548
0.0121586
0.0120585
0.0119542
0.0118459
0.011733
0.011616
0.0114942
0.0113687
0.0112371
0.0111048
0.0109603
0.0108285
0.0106553
0.0105556
0.0127952
0.0131959
0.0131837
0.0132413
0.0132728
0.0132684
0.0132447
0.0132059
0.0131565
0.0130997
0.0130375
0.0129711
0.0129012
0.0128281
0.0127522
0.0126733
0.0125914
0.0125064
0.0124182
0.0123265
0.0122312
0.0121321
0.0120292
0.0119221
0.011811
0.0116955
0.0115761
0.0114519
0.0113245
0.0111911
0.0110572
0.0109112
0.0107787
0.0106039
0.0105049
0.0127015
0.0131517
0.0131688
0.0132433
0.0132823
0.0132798
0.0132559
0.0132158
0.0131644
0.0131056
0.0130412
0.0129726
0.0129005
0.0128252
0.0127469
0.0126657
0.0125815
0.0124941
0.0124034
0.0123093
0.0122115
0.0121099
0.0120046
0.0118951
0.0117817
0.0116641
0.0115427
0.0114167
0.0112877
0.0111529
0.011018
0.010871
0.0107381
0.0105621
0.0104641
0.0126075
0.0131149
0.0131583
0.0132487
0.0132937
0.013292
0.0132673
0.0132256
0.0131724
0.0131115
0.0130451
0.0129745
0.0129004
0.0128232
0.012743
0.0126598
0.0125736
0.0124841
0.0123914
0.0122952
0.0121954
0.0120918
0.0119844
0.011873
0.0117578
0.0116385
0.0115155
0.0113882
0.011258
0.0111223
0.0109867
0.0108391
0.0107061
0.0105294
0.0104323
0.0124934
0.013083
0.0131508
0.0132585
0.0133089
0.013307
0.0132809
0.0132371
0.0131816
0.0131186
0.0130502
0.0129777
0.0129017
0.0128227
0.0127407
0.0126557
0.0125678
0.0124766
0.0123821
0.0122841
0.0121826
0.0120773
0.0119683
0.0118553
0.0117386
0.0116179
0.0114938
0.0113654
0.0112344
0.0110981
0.0109622
0.0108145
0.0106817
0.010505
0.0104089
0.0123716
0.0130594
0.0131451
0.0132691
0.0133236
0.0133211
0.0132934
0.0132475
0.0131899
0.013125
0.0130548
0.0129806
0.0129031
0.0128226
0.0127391
0.0126527
0.0125633
0.0124708
0.0123749
0.0122755
0.0121726
0.012066
0.0119557
0.0118415
0.0117237
0.0116019
0.0114768
0.0113478
0.0112162
0.0110796
0.0109436
0.0107962
0.0106635
0.0104874
0.0103912
0.0122392
0.0130482
0.013147
0.0132874
0.0133433
0.0133384
0.0133082
0.0132596
0.0131996
0.0131326
0.0130606
0.0129847
0.0129057
0.0128238
0.012739
0.0126514
0.0125608
0.0124671
0.01237
0.0122696
0.0121656
0.0120579
0.0119465
0.0118314
0.0117127
0.0115902
0.0114644
0.0113349
0.011203
0.0110664
0.0109305
0.0107839
0.0106517
0.0104778
0.0103817
0.012089
0.013044
0.0131448
0.013302
0.0133593
0.0133525
0.0133199
0.013269
0.0132071
0.0131384
0.013065
0.0129879
0.0129078
0.0128249
0.0127392
0.0126506
0.0125592
0.0124646
0.0123667
0.0122655
0.0121607
0.0120523
0.0119402
0.0118244
0.0117051
0.011582
0.0114558
0.011326
0.011194
0.0110575
0.0109219
0.0107762
0.0106439
0.0104725
0.0103714
0.0119435
0.0130605
0.0131559
0.0133259
0.0133803
0.0133697
0.013334
0.0132803
0.0132162
0.0131457
0.0130709
0.0129925
0.0129114
0.0128275
0.0127411
0.0126517
0.0125596
0.0124643
0.0123659
0.012264
0.0121587
0.0120497
0.0119371
0.0118208
0.0117011
0.0115777
0.0114512
0.0113213
0.0111892
0.011053
0.0109178
0.0107736
0.0106424
0.0104767
0.0103729
0.0117895
0.0130688
0.013156
0.0133424
0.013395
0.013382
0.013344
0.0132883
0.0132228
0.0131512
0.0130755
0.0129964
0.0129147
0.0128303
0.0127434
0.0126536
0.012561
0.0124653
0.0123665
0.0122643
0.0121586
0.0120493
0.0119364
0.0118199
0.0116999
0.0115763
0.0114497
0.0113197
0.0111876
0.0110518
0.0109167
0.0107742
0.0106423
0.0104825
0.0103663
0.0117147
0.0130945
0.0131677
0.0133626
0.0134118
0.0133962
0.0133558
0.0132983
0.0132312
0.0131584
0.0130817
0.0130019
0.0129196
0.0128346
0.0127472
0.0126571
0.0125642
0.0124682
0.0123692
0.0122667
0.0121609
0.0120514
0.0119384
0.0118217
0.0117017
0.011578
0.0114514
0.0113214
0.0111894
0.0110537
0.0109193
0.0107775
0.0106501
0.0104948
0.0104131
0.0132949
0.0136424
0.0134088
0.0133449
0.0133028
0.0132595
0.0132211
0.0131835
0.0131462
0.0131097
0.0130739
0.013039
0.013005
0.012972
0.0129401
0.0129091
0.0128789
0.0128492
0.0128197
0.0127901
0.0127599
0.0127285
0.0126955
0.0126602
0.0126219
0.0125799
0.0125337
0.0124821
0.0124251
0.0123612
0.0122915
0.0122126
0.0121317
0.0120348
0.0119564
0.0132757
0.0136147
0.0133922
0.0133339
0.0132959
0.0132554
0.0132184
0.0131811
0.0131432
0.0131052
0.0130672
0.0130294
0.0129919
0.0129549
0.0129184
0.0128822
0.0128462
0.0128102
0.0127739
0.0127368
0.0126987
0.012659
0.0126172
0.0125726
0.0125248
0.012473
0.0124168
0.0123552
0.0122882
0.0122141
0.0121346
0.012044
0.0119531
0.0118347
0.0117461
0.0132527
0.0135854
0.0133734
0.0133214
0.0132879
0.0132503
0.0132146
0.0131774
0.0131385
0.0130986
0.013058
0.0130169
0.0129755
0.0129339
0.0128921
0.0128501
0.0128077
0.0127646
0.0127207
0.0126753
0.0126284
0.0125792
0.0125273
0.0124722
0.0124134
0.0123502
0.0122822
0.0122086
0.0121295
0.0120432
0.0119522
0.0118498
0.0117502
0.0116215
0.0115321
0.0132223
0.0135521
0.0133529
0.0133087
0.0132806
0.0132466
0.0132126
0.0131757
0.0131361
0.0130946
0.0130517
0.0130076
0.0129626
0.0129169
0.0128706
0.0128235
0.0127755
0.0127263
0.0126759
0.0126236
0.0125692
0.0125122
0.0124523
0.0123887
0.0123213
0.0122492
0.0121725
0.0120899
0.0120022
0.0119071
0.0118078
0.0116964
0.0115891
0.0114491
0.0113537
0.0131942
0.0135154
0.0133317
0.0132962
0.0132737
0.0132433
0.0132109
0.0131742
0.0131337
0.0130904
0.0130448
0.0129975
0.0129488
0.0128988
0.0128477
0.0127953
0.0127416
0.0126862
0.012629
0.0125696
0.0125077
0.0124428
0.0123746
0.0123025
0.0122264
0.0121454
0.0120596
0.011968
0.0118714
0.0117675
0.01166
0.0115404
0.0114266
0.011279
0.011182
0.013154
0.0134747
0.0133088
0.0132835
0.0132677
0.0132415
0.0132109
0.0131745
0.0131331
0.013088
0.01304
0.0129897
0.0129375
0.0128836
0.0128281
0.0127709
0.012712
0.0126511
0.012588
0.0125223
0.0124539
0.0123822
0.012307
0.0122277
0.0121442
0.0120559
0.0119628
0.0118641
0.0117605
0.0116497
0.0115358
0.0114098
0.0112908
0.0111362
0.0110366
0.0131117
0.0134302
0.0132851
0.0132713
0.013263
0.013241
0.0132122
0.0131759
0.0131335
0.0130865
0.013036
0.0129825
0.0129268
0.0128689
0.0128091
0.0127471
0.0126832
0.0126168
0.012548
0.0124763
0.0124016
0.0123233
0.0122415
0.0121553
0.012065
0.0119698
0.0118699
0.0117644
0.0116543
0.0115372
0.0114176
0.0112858
0.0111626
0.0110026
0.0109022
0.0130609
0.0133823
0.0132614
0.0132607
0.0132603
0.0132426
0.0132156
0.0131792
0.0131356
0.0130867
0.0130336
0.0129772
0.0129181
0.0128565
0.0127927
0.0127264
0.0126578
0.0125866
0.0125127
0.0124356
0.0123554
0.0122714
0.0121838
0.0120918
0.0119956
0.0118946
0.011789
0.0116781
0.0115627
0.0114407
0.0113165
0.0111803
0.0110538
0.0108893
0.0107885
0.0130017
0.0133321
0.0132378
0.0132514
0.0132596
0.0132462
0.0132207
0.0131842
0.0131393
0.0130884
0.0130328
0.0129736
0.0129114
0.0128464
0.0127789
0.0127087
0.0126361
0.0125605
0.0124821
0.0124004
0.0123154
0.0122265
0.0121339
0.0120369
0.0119358
0.0118299
0.0117197
0.0116041
0.0114845
0.0113584
0.0112306
0.0110908
0.0109618
0.0107937
0.010693
0.0129437
0.0132864
0.0132186
0.013246
0.0132618
0.0132518
0.0132271
0.0131901
0.0131439
0.013091
0.0130333
0.0129715
0.0129065
0.0128386
0.012768
0.0126947
0.0126186
0.0125395
0.0124574
0.0123719
0.0122829
0.0121901
0.0120935
0.0119926
0.0118876
0.0117779
0.011664
0.011545
0.0114222
0.0112931
0.0111627
0.0110203
0.0108897
0.0107188
0.0106184
0.0128698
0.0132377
0.0131988
0.0132416
0.0132659
0.0132592
0.0132353
0.0131976
0.0131498
0.013095
0.013035
0.0129708
0.0129033
0.0128327
0.0127592
0.0126829
0.0126037
0.0125215
0.0124361
0.0123472
0.0122548
0.0121586
0.0120585
0.0119543
0.0118459
0.011733
0.0116161
0.0114942
0.0113687
0.0112372
0.0111048
0.0109603
0.0108285
0.0106554
0.0105557
0.0127971
0.0131941
0.0131835
0.0132414
0.0132728
0.0132684
0.0132446
0.0132059
0.0131565
0.0130997
0.0130375
0.0129711
0.0129011
0.0128281
0.0127522
0.0126732
0.0125914
0.0125064
0.0124182
0.0123265
0.0122312
0.0121321
0.0120292
0.0119221
0.011811
0.0116955
0.0115761
0.011452
0.0113245
0.0111911
0.0110572
0.0109113
0.0107787
0.010604
0.010505
0.0127033
0.0131501
0.0131687
0.0132433
0.0132824
0.0132798
0.0132559
0.0132157
0.0131644
0.0131056
0.0130412
0.0129726
0.0129005
0.0128252
0.0127469
0.0126657
0.0125815
0.0124941
0.0124034
0.0123093
0.0122115
0.0121099
0.0120046
0.0118951
0.0117817
0.0116641
0.0115427
0.0114168
0.0112877
0.0111529
0.011018
0.0108711
0.0107381
0.0105622
0.0104642
0.0126092
0.0131134
0.0131581
0.0132487
0.0132938
0.013292
0.0132673
0.0132256
0.0131723
0.0131115
0.0130451
0.0129745
0.0129004
0.0128232
0.012743
0.0126598
0.0125736
0.0124841
0.0123914
0.0122952
0.0121954
0.0120918
0.0119844
0.011873
0.0117578
0.0116385
0.0115155
0.0113882
0.011258
0.0111223
0.0109867
0.0108392
0.0107061
0.0105295
0.0104324
0.012495
0.0130817
0.0131507
0.0132585
0.0133089
0.013307
0.0132809
0.0132371
0.0131816
0.0131186
0.0130502
0.0129777
0.0129017
0.0128227
0.0127407
0.0126557
0.0125677
0.0124766
0.0123821
0.0122841
0.0121826
0.0120773
0.0119683
0.0118553
0.0117386
0.0116179
0.0114938
0.0113654
0.0112344
0.0110981
0.0109622
0.0108145
0.0106817
0.0105051
0.010409
0.012373
0.0130583
0.013145
0.0132691
0.0133236
0.013321
0.0132934
0.0132475
0.0131899
0.013125
0.0130548
0.0129806
0.0129031
0.0128225
0.0127391
0.0126527
0.0125633
0.0124708
0.0123749
0.0122755
0.0121726
0.012066
0.0119557
0.0118415
0.0117237
0.0116019
0.0114769
0.0113478
0.0112162
0.0110797
0.0109436
0.0107962
0.0106636
0.0104875
0.0103913
0.0122404
0.0130472
0.013147
0.0132874
0.0133433
0.0133384
0.0133081
0.0132595
0.0131996
0.0131325
0.0130605
0.0129847
0.0129057
0.0128238
0.012739
0.0126514
0.0125608
0.0124671
0.01237
0.0122696
0.0121656
0.0120579
0.0119465
0.0118314
0.0117127
0.0115902
0.0114645
0.0113349
0.0112031
0.0110664
0.0109306
0.0107839
0.0106517
0.0104779
0.0103818
0.0120902
0.0130431
0.0131448
0.013302
0.0133593
0.0133524
0.0133199
0.013269
0.0132071
0.0131384
0.013065
0.0129879
0.0129078
0.0128249
0.0127392
0.0126507
0.0125592
0.0124646
0.0123668
0.0122655
0.0121607
0.0120523
0.0119402
0.0118244
0.0117051
0.0115821
0.0114559
0.0113261
0.011194
0.0110576
0.0109219
0.0107763
0.010644
0.0104726
0.0103715
0.0119444
0.01306
0.0131559
0.0133258
0.0133803
0.0133697
0.013334
0.0132803
0.0132162
0.0131457
0.0130709
0.0129926
0.0129114
0.0128276
0.0127411
0.0126518
0.0125596
0.0124643
0.0123659
0.012264
0.0121587
0.0120497
0.0119372
0.0118209
0.0117011
0.0115778
0.0114513
0.0113213
0.0111893
0.0110531
0.0109179
0.0107736
0.0106424
0.0104768
0.010373
0.0117901
0.0130686
0.0131562
0.0133427
0.0133952
0.0133822
0.0133441
0.0132885
0.0132229
0.0131513
0.0130756
0.0129965
0.0129148
0.0128304
0.0127434
0.0126536
0.0125611
0.0124654
0.0123666
0.0122643
0.0121587
0.0120493
0.0119365
0.0118199
0.0117
0.0115764
0.0114498
0.0113198
0.0111876
0.0110518
0.0109168
0.0107742
0.0106424
0.0104825
0.0103658
0.0117158
0.0130948
0.0131679
0.0133627
0.0134117
0.0133961
0.0133558
0.0132982
0.0132311
0.0131583
0.0130817
0.0130018
0.0129195
0.0128345
0.0127472
0.012657
0.0125641
0.0124681
0.0123691
0.0122666
0.0121608
0.0120513
0.0119383
0.0118216
0.0117016
0.011578
0.0114513
0.0113213
0.0111894
0.0110537
0.0109192
0.0107775
0.01065
0.0104948
0.0104133
0.0132983
0.0136389
0.0134086
0.013345
0.0133029
0.0132596
0.0132211
0.0131835
0.0131462
0.0131097
0.0130739
0.013039
0.013005
0.012972
0.0129401
0.0129091
0.0128788
0.0128492
0.0128197
0.0127901
0.0127599
0.0127285
0.0126955
0.0126602
0.0126219
0.01258
0.0125337
0.0124821
0.0124251
0.0123612
0.0122915
0.0122126
0.0121317
0.0120348
0.0119567
0.013279
0.0136112
0.0133919
0.0133339
0.0132959
0.0132555
0.0132184
0.0131811
0.0131432
0.0131052
0.0130672
0.0130294
0.0129919
0.0129549
0.0129184
0.0128822
0.0128462
0.0128102
0.0127739
0.0127368
0.0126987
0.012659
0.0126172
0.0125726
0.0125248
0.012473
0.0124168
0.0123552
0.0122883
0.0122142
0.0121347
0.0120441
0.0119532
0.0118348
0.0117463
0.013256
0.013582
0.0133732
0.0133215
0.0132879
0.0132503
0.0132146
0.0131774
0.0131385
0.0130986
0.013058
0.0130169
0.0129755
0.0129338
0.0128921
0.0128501
0.0128077
0.0127646
0.0127207
0.0126753
0.0126284
0.0125792
0.0125273
0.0124722
0.0124134
0.0123502
0.0122822
0.0122086
0.0121295
0.0120432
0.0119522
0.0118498
0.0117502
0.0116215
0.0115322
0.0132256
0.0135488
0.0133527
0.0133088
0.0132806
0.0132466
0.0132126
0.0131757
0.0131361
0.0130946
0.0130517
0.0130076
0.0129626
0.0129169
0.0128706
0.0128235
0.0127755
0.0127264
0.0126759
0.0126236
0.0125692
0.0125122
0.0124523
0.0123887
0.0123213
0.0122493
0.0121725
0.01209
0.0120022
0.0119071
0.0118078
0.0116965
0.0115892
0.0114492
0.0113539
0.0131973
0.0135122
0.0133315
0.0132962
0.0132737
0.0132433
0.0132109
0.0131742
0.0131337
0.0130904
0.0130448
0.0129975
0.0129488
0.0128988
0.0128477
0.0127953
0.0127416
0.0126862
0.012629
0.0125696
0.0125077
0.0124428
0.0123746
0.0123026
0.0122264
0.0121454
0.0120596
0.0119681
0.0118714
0.0117675
0.01166
0.0115404
0.0114267
0.0112791
0.0111822
0.0131571
0.0134715
0.0133086
0.0132835
0.0132678
0.0132415
0.0132109
0.0131745
0.0131331
0.013088
0.01304
0.0129897
0.0129375
0.0128836
0.0128281
0.0127709
0.012712
0.0126511
0.012588
0.0125223
0.0124539
0.0123822
0.012307
0.0122277
0.0121442
0.0120559
0.0119629
0.0118641
0.0117605
0.0116498
0.0115359
0.0114098
0.0112908
0.0111363
0.0110368
0.0131147
0.0134272
0.0132849
0.0132714
0.013263
0.013241
0.0132122
0.0131759
0.0131335
0.0130865
0.013036
0.0129825
0.0129268
0.0128689
0.012809
0.0127471
0.0126832
0.0126168
0.012548
0.0124763
0.0124016
0.0123234
0.0122415
0.0121554
0.012065
0.0119698
0.0118699
0.0117644
0.0116543
0.0115373
0.0114176
0.0112859
0.0111626
0.0110027
0.0109024
0.0130638
0.0133794
0.0132612
0.0132607
0.0132603
0.0132427
0.0132156
0.0131792
0.0131356
0.0130867
0.0130336
0.0129772
0.0129181
0.0128565
0.0127926
0.0127264
0.0126578
0.0125866
0.0125127
0.0124356
0.0123554
0.0122715
0.0121838
0.0120918
0.0119956
0.0118946
0.0117891
0.0116781
0.0115627
0.0114407
0.0113166
0.0111804
0.0110538
0.0108894
0.0107887
0.0130045
0.0133293
0.0132376
0.0132515
0.0132597
0.0132463
0.0132207
0.0131841
0.0131393
0.0130883
0.0130328
0.0129736
0.0129113
0.0128464
0.0127788
0.0127087
0.0126361
0.0125605
0.0124821
0.0124004
0.0123154
0.0122265
0.0121339
0.012037
0.0119358
0.01183
0.0117197
0.0116041
0.0114845
0.0113584
0.0112307
0.0110909
0.0109619
0.0107938
0.0106932
0.0129464
0.0132837
0.0132185
0.013246
0.0132618
0.0132518
0.0132271
0.0131901
0.0131439
0.013091
0.0130332
0.0129715
0.0129065
0.0128386
0.012768
0.0126947
0.0126186
0.0125395
0.0124574
0.0123719
0.0122829
0.0121901
0.0120935
0.0119926
0.0118876
0.011778
0.011664
0.011545
0.0114222
0.0112931
0.0111627
0.0110204
0.0108897
0.0107189
0.0106186
0.0128724
0.0132351
0.0131986
0.0132416
0.0132659
0.0132592
0.0132353
0.0131976
0.0131498
0.013095
0.013035
0.0129708
0.0129033
0.0128326
0.0127592
0.0126829
0.0126037
0.0125215
0.012436
0.0123472
0.0122548
0.0121586
0.0120585
0.0119543
0.0118459
0.011733
0.0116161
0.0114942
0.0113687
0.0112372
0.0111048
0.0109604
0.0108285
0.0106555
0.0105559
0.0127995
0.0131917
0.0131834
0.0132414
0.0132729
0.0132684
0.0132446
0.0132059
0.0131564
0.0130997
0.0130375
0.012971
0.0129011
0.0128281
0.0127521
0.0126732
0.0125914
0.0125064
0.0124182
0.0123265
0.0122312
0.0121321
0.0120292
0.0119221
0.011811
0.0116955
0.0115761
0.011452
0.0113245
0.0111911
0.0110572
0.0109113
0.0107787
0.0106041
0.0105053
0.0127057
0.0131477
0.0131686
0.0132433
0.0132824
0.0132798
0.0132558
0.0132157
0.0131644
0.0131055
0.0130412
0.0129726
0.0129004
0.0128252
0.0127469
0.0126657
0.0125815
0.0124941
0.0124034
0.0123093
0.0122115
0.0121099
0.0120046
0.0118951
0.0117817
0.0116641
0.0115427
0.0114168
0.0112877
0.011153
0.011018
0.0108711
0.0107381
0.0105623
0.0104645
0.0126113
0.0131113
0.013158
0.0132487
0.0132938
0.013292
0.0132673
0.0132256
0.0131723
0.0131115
0.0130451
0.0129745
0.0129004
0.0128232
0.012743
0.0126598
0.0125736
0.0124841
0.0123914
0.0122952
0.0121954
0.0120918
0.0119844
0.011873
0.0117578
0.0116385
0.0115155
0.0113882
0.011258
0.0111223
0.0109867
0.0108392
0.0107062
0.0105296
0.0104326
0.012497
0.0130797
0.0131507
0.0132585
0.0133089
0.013307
0.0132809
0.0132371
0.0131816
0.0131186
0.0130502
0.0129776
0.0129017
0.0128226
0.0127407
0.0126557
0.0125677
0.0124766
0.0123821
0.0122841
0.0121826
0.0120773
0.0119683
0.0118553
0.0117386
0.011618
0.0114938
0.0113655
0.0112344
0.0110981
0.0109622
0.0108146
0.0106817
0.0105052
0.0104092
0.0123748
0.0130565
0.0131449
0.0132691
0.0133236
0.013321
0.0132933
0.0132474
0.0131899
0.0131249
0.0130547
0.0129806
0.012903
0.0128225
0.0127391
0.0126527
0.0125633
0.0124707
0.0123749
0.0122755
0.0121726
0.012066
0.0119557
0.0118415
0.0117237
0.011602
0.0114769
0.0113478
0.0112163
0.0110797
0.0109437
0.0107963
0.0106636
0.0104876
0.0103916
0.0122419
0.0130458
0.013147
0.0132874
0.0133433
0.0133384
0.0133081
0.0132595
0.0131995
0.0131325
0.0130605
0.0129847
0.0129057
0.0128237
0.012739
0.0126514
0.0125608
0.012467
0.01237
0.0122696
0.0121656
0.0120579
0.0119465
0.0118314
0.0117127
0.0115902
0.0114645
0.011335
0.0112031
0.0110665
0.0109306
0.010784
0.0106517
0.010478
0.010382
0.0120915
0.0130419
0.0131448
0.013302
0.0133593
0.0133524
0.0133199
0.013269
0.013207
0.0131383
0.0130649
0.0129879
0.0129078
0.0128248
0.0127392
0.0126506
0.0125592
0.0124646
0.0123668
0.0122655
0.0121607
0.0120523
0.0119402
0.0118244
0.0117051
0.0115821
0.0114559
0.0113261
0.0111941
0.0110576
0.0109219
0.0107764
0.010644
0.0104727
0.0103718
0.0119457
0.0130593
0.013156
0.0133259
0.0133803
0.0133697
0.013334
0.0132803
0.0132162
0.0131457
0.0130709
0.0129926
0.0129115
0.0128276
0.0127411
0.0126518
0.0125597
0.0124644
0.012366
0.0122641
0.0121588
0.0120498
0.0119372
0.0118209
0.0117012
0.0115778
0.0114514
0.0113214
0.0111893
0.0110531
0.0109179
0.0107737
0.0106425
0.0104769
0.0103731
0.0117921
0.0130681
0.0131565
0.0133429
0.0133955
0.0133824
0.0133443
0.0132886
0.013223
0.0131514
0.0130757
0.0129966
0.0129149
0.0128305
0.0127435
0.0126537
0.0125612
0.0124655
0.0123666
0.0122644
0.0121587
0.0120494
0.0119365
0.01182
0.0117
0.0115764
0.0114498
0.0113198
0.0111877
0.0110518
0.0109168
0.0107742
0.0106424
0.0104824
0.0103649
0.0117156
0.0130954
0.0131682
0.0133627
0.0134118
0.0133961
0.0133557
0.0132981
0.013231
0.0131582
0.0130816
0.0130018
0.0129194
0.0128345
0.0127471
0.0126569
0.0125641
0.0124681
0.012369
0.0122666
0.0121607
0.0120512
0.0119383
0.0118216
0.0117015
0.0115779
0.0114513
0.0113213
0.0111893
0.0110536
0.0109192
0.0107774
0.0106499
0.0104949
0.0104139
0.0133026
0.0136345
0.0134084
0.013345
0.013303
0.0132596
0.0132211
0.0131835
0.0131462
0.0131097
0.0130739
0.0130389
0.0130049
0.012972
0.0129401
0.0129091
0.0128788
0.0128491
0.0128197
0.0127901
0.0127599