/*--------------------------------*- C++ -*----------------------------------*\
  =========                 |
  \\      /  F ield         | OpenFOAM: The Open Source CFD Toolbox
   \\    /   O peration     | Website:  https://openfoam.org
    \\  /    A nd           | Version:  6
     \\/     M anipulation  |
\*---------------------------------------------------------------------------*/
FoamFile
{
    version     2.0;
    format      ascii;
    class       volVectorField;
    location    "40";
    object      wallShearStress;
}
// * * * * * * * * * * * * * * * * * * * * * * * * * * * * * * * * * * * * * //

dimensions      [0 2 -2 0 0 0 0];

internalField   uniform (0 0 0);

boundaryField
{
    inlet
    {
        type            calculated;
        value           uniform (0 0 0);
    }
    outlet
    {
        type            calculated;
        value           uniform (0 0 0);
    }
    roughCylinder
    {
        type            calculated;
        value           nonuniform List<vector> 
3840
(
(-0.000110167 -0.00014476 -6.72749e-05)
(-0.000178074 -0.000311676 -4.28926e-05)
(-0.000262723 -0.000464264 3.20152e-05)
(-0.000323463 -0.000530954 9.05237e-05)
(-0.000388856 -0.000573724 0.000140019)
(-0.000432682 -0.000572207 0.000171485)
(-0.000470104 -0.000562548 0.000192534)
(-0.000493832 -0.000545056 0.000204151)
(-0.000517569 -0.000537772 0.000214145)
(-0.000533738 -0.000532846 0.00021893)
(-0.00054752 -0.000533197 0.000219682)
(-0.000554848 -0.000533043 0.000215028)
(-0.0005604 -0.000535091 0.000206914)
(-0.000557296 -0.000531481 0.000193284)
(-0.000560524 -0.000535173 0.000179734)
(-0.000561314 -0.000538583 0.000164091)
(-0.000554936 -0.000535166 0.000145594)
(-0.000559687 -0.000541481 0.000129159)
(-0.0005877 -0.000569201 0.000116093)
(-0.000569681 -0.000555211 9.36717e-05)
(-0.000570332 -0.000557983 7.4328e-05)
(-0.000565243 -0.000555235 5.39745e-05)
(-0.000558358 -0.000550062 3.29235e-05)
(-0.000560715 -0.000553267 1.12489e-05)
(-9.34794e-05 -0.000108952 -4.93264e-05)
(-0.000190389 -0.000301936 -4.89028e-05)
(-0.000280181 -0.000457623 2.31145e-05)
(-0.000343687 -0.000528996 8.18951e-05)
(-0.000411401 -0.000574925 0.00013178)
(-0.000457785 -0.000577299 0.00016421)
(-0.00049895 -0.000572344 0.000186707)
(-0.000525234 -0.00055732 0.000199958)
(-0.000552217 -0.000551267 0.000211818)
(-0.000568808 -0.000543729 0.000216972)
(-0.000582976 -0.000542839 0.000217915)
(-0.000591327 -0.000542715 0.000213723)
(-0.000597931 -0.000545222 0.000206064)
(-0.000596356 -0.000543073 0.000193197)
(-0.000600067 -0.000547088 0.000179908)
(-0.000604119 -0.0005533 0.000165233)
(-0.00059959 -0.000551996 0.000147334)
(-0.000606138 -0.000559777 0.000131143)
(-0.000631209 -0.000583655 0.000117051)
(-0.000615084 -0.000572307 9.50275e-05)
(-0.000615452 -0.000574958 7.54403e-05)
(-0.000609948 -0.000572223 5.48371e-05)
(-0.000602752 -0.000567185 3.3495e-05)
(-0.000605365 -0.000570565 1.14544e-05)
(-0.000110127 -0.000112193 -4.77039e-05)
(-0.000201874 -0.000287219 -5.48061e-05)
(-0.000295638 -0.00044327 1.30668e-05)
(-0.000362459 -0.000520211 7.17264e-05)
(-0.000433162 -0.000570461 0.000122056)
(-0.000483138 -0.000578355 0.000155914)
(-0.000527242 -0.000577357 0.000179839)
(-0.000558264 -0.000567452 0.000195628)
(-0.000588011 -0.000562686 0.000208985)
(-0.000607326 -0.000554472 0.00021526)
(-0.000623252 -0.00055325 0.00021698)
(-0.000633075 -0.000553163 0.000213334)
(-0.000640405 -0.000555605 0.000205962)
(-0.000639895 -0.000554299 0.000193635)
(-0.000643491 -0.000558039 0.000180415)
(-0.000649748 -0.000565823 0.000166328)
(-0.00064622 -0.000565692 0.000148787)
(-0.000653754 -0.000574108 0.000132698)
(-0.000674664 -0.000593397 0.000117546)
(-0.000660433 -0.00058455 9.59646e-05)
(-0.000661851 -0.000588295 7.63923e-05)
(-0.000657279 -0.000586846 5.57041e-05)
(-0.000650222 -0.000582413 3.40966e-05)
(-0.000653339 -0.000586176 1.16761e-05)
(-0.000109327 -9.63879e-05 -3.67893e-05)
(-0.000208996 -0.000265627 -5.97058e-05)
(-0.000309244 -0.000424827 2.41607e-06)
(-0.000378788 -0.000506404 6.0406e-05)
(-0.000452582 -0.000561256 0.000111013)
(-0.000506141 -0.00057488 0.000146269)
(-0.000555565 -0.000580648 0.000172573)
(-0.000589536 -0.000573978 0.000190352)
(-0.000622176 -0.000570754 0.0002051)
(-0.000643701 -0.00056219 0.000212438)
(-0.000660219 -0.000558628 0.000214487)
(-0.000671314 -0.000558211 0.000211373)
(-0.000679708 -0.00056063 0.000204474)
(-0.000681236 -0.000560793 0.000193036)
(-0.000686093 -0.000565359 0.000180367)
(-0.000695464 -0.000575282 0.000167111)
(-0.000694194 -0.000577255 0.000150227)
(-0.000703307 -0.000586766 0.000134373)
(-0.000720567 -0.000602377 0.000118368)
(-0.000708498 -0.000596105 9.71788e-05)
(-0.000709779 -0.000599896 7.74377e-05)
(-0.000704747 -0.000598536 5.65231e-05)
(-0.000697497 -0.000594464 3.46527e-05)
(-0.000700789 -0.000598322 1.18786e-05)
(-0.000142304 -0.000107353 -3.44778e-05)
(-0.000215368 -0.000243305 -6.43826e-05)
(-0.000317272 -0.000398549 -8.52401e-06)
(-0.000390383 -0.000485863 4.79139e-05)
(-0.000467195 -0.000545436 9.83819e-05)
(-0.000526066 -0.00056691 0.000135311)
(-0.000578943 -0.000577512 0.000163429)
(-0.000618062 -0.000576331 0.000183904)
(-0.00065431 -0.000575361 0.000200327)
(-0.000678771 -0.00056776 0.000209001)
(-0.000699815 -0.000564785 0.000212611)
(-0.000713295 -0.000564122 0.0002104)
(-0.00072273 -0.000566259 0.000203961)
(-0.000725673 -0.000567057 0.000193171)
(-0.000730862 -0.000571544 0.000180778)
(-0.000741468 -0.000581903 0.00016786)
(-0.000740809 -0.000584532 0.000151285)
(-0.000750793 -0.000594507 0.000135598)
(-0.000764042 -0.000606625 0.000118862)
(-0.000754205 -0.000602843 9.81039e-05)
(-0.000756743 -0.000607844 7.8417e-05)
(-0.000752953 -0.000608022 5.74321e-05)
(-0.000746028 -0.000604779 3.52917e-05)
(-0.000749555 -0.000608779 1.21128e-05)
(-0.000122645 -7.80382e-05 -1.87322e-05)
(-0.000213275 -0.00021292 -6.63035e-05)
(-0.000321985 -0.000368908 -1.93978e-05)
(-0.000397309 -0.00046023 3.4519e-05)
(-0.000478389 -0.000526082 8.47003e-05)
(-0.000541793 -0.00055433 0.000122939)
(-0.000600965 -0.000572371 0.000153574)
(-0.000644271 -0.00057536 0.000176408)
(-0.000683991 -0.000576457 0.00019454)
(-0.000711565 -0.000570071 0.000204609)
(-0.000734732 -0.000566345 0.000209143)
(-0.000750236 -0.000564419 0.000207787)
(-0.000760611 -0.000565581 0.000201917)
(-0.000766009 -0.000567591 0.000192162)
(-0.000773209 -0.000573157 0.000180573)
(-0.000786343 -0.000584832 0.000168365)
(-0.000787421 -0.000588947 0.00015238)
(-0.000798952 -0.000599833 0.000137)
(-0.000809075 -0.000609546 0.000119745)
(-0.000801089 -0.000607816 9.92854e-05)
(-0.000803328 -0.000612983 7.94664e-05)
(-0.000799 -0.000613524 5.827e-05)
(-0.000792029 -0.000611011 3.58752e-05)
(-0.000795554 -0.000615109 1.23282e-05)
(-0.000127687 -6.73978e-05 -8.75976e-06)
(-0.000212473 -0.00018601 -6.81198e-05)
(-0.000319153 -0.000332538 -2.9658e-05)
(-0.000398242 -0.000429484 2.0346e-05)
(-0.000482067 -0.000500182 6.94022e-05)
(-0.000551858 -0.000537022 0.000109028)
(-0.000615545 -0.000560401 0.000141516)
(-0.000664562 -0.000568657 0.00016692)
(-0.000709151 -0.000572934 0.000187151)
(-0.000739968 -0.000567958 0.000198781)
(-0.00076875 -0.000566591 0.000205308)
(-0.000788796 -0.000565521 0.000205581)
(-0.000801652 -0.000566311 0.000200787)
(-0.000808881 -0.000568304 0.000191888)
(-0.00081656 -0.000573488 0.000180722)
(-0.000829807 -0.000584679 0.000168739)
(-0.000830787 -0.000589069 0.000153066)
(-0.000843066 -0.00060042 0.000137952)
(-0.000850083 -0.000608324 0.00012034)
(-0.000844258 -0.000609045 0.000100282)
(-0.000847281 -0.000615334 8.05037e-05)
(-0.000844066 -0.000617597 5.92253e-05)
(-0.000837291 -0.000616066 3.6544e-05)
(-0.000840493 -0.00062008 1.25712e-05)
(-0.000131476 -5.63111e-05 1.36157e-06)
(-0.000200441 -0.000152259 -6.60899e-05)
(-0.000312177 -0.000294783 -3.89405e-05)
(-0.000391457 -0.000393213 5.72298e-06)
(-0.000480287 -0.000471381 5.30958e-05)
(-0.000555914 -0.000515917 9.36872e-05)
(-0.000626545 -0.000546334 0.000128335)
(-0.000681635 -0.000559458 0.000156212)
(-0.000730639 -0.000566191 0.000178416)
(-0.000766594 -0.000563958 0.000192255)
(-0.000797785 -0.000562607 0.000200082)
(-0.000819936 -0.000561145 0.000201533)
(-0.000834481 -0.000561297 0.000197809)
(-0.000844803 -0.000563914 0.000190247)
(-0.000854972 -0.000569965 0.000180155)
(-0.000870084 -0.000581896 0.000168916)
(-0.000872334 -0.000587567 0.000153887)
(-0.000885437 -0.000599442 0.000139071)
(-0.000889988 -0.000606353 0.000121235)
(-0.000884984 -0.000608546 0.000101361)
(-0.000886976 -0.000614582 8.1432e-05)
(-0.000882799 -0.000616935 5.9948e-05)
(-0.000875954 -0.000616106 3.70542e-05)
(-0.000878799 -0.000619971 1.27615e-05)
(-0.00013285 -4.49237e-05 1.10477e-05)
(-0.000188441 -0.000121807 -6.29756e-05)
(-0.000294764 -0.000251081 -4.62567e-05)
(-0.000377703 -0.000353384 -8.76886e-06)
(-0.000468503 -0.000436347 3.55326e-05)
(-0.000550569 -0.000489121 7.65309e-05)
(-0.000627329 -0.000525431 0.000112747)
(-0.000688982 -0.000543322 0.000142866)
(-0.000744523 -0.000553851 0.000167415)
(-0.000784376 -0.00055334 0.000183244)
(-0.000821779 -0.000554807 0.00019354)
(-0.000848955 -0.000555118 0.000197111)
(-0.00086721 -0.00055624 0.000195113)
(-0.000880022 -0.00055925 0.000188868)
(-0.000890638 -0.000564854 0.000179508)
(-0.000904744 -0.000575624 0.000168548)
(-0.000906689 -0.000581394 0.000153968)
(-0.000919619 -0.00059298 0.000139394)
(-0.000921792 -0.000599047 0.000121485)
(-0.000918354 -0.000602973 0.000101964)
(-0.000920648 -0.000609625 8.21146e-05)
(-0.000917604 -0.000613512 6.0637e-05)
(-0.000910968 -0.000613535 3.75557e-05)
(-0.000913049 -0.000616982 1.29462e-05)
(-0.000131062 -3.33001e-05 2.0006e-05)
(-0.000169496 -9.09421e-05 -5.61927e-05)
(-0.000275077 -0.000209666 -5.21051e-05)
(-0.000353213 -0.000307622 -2.23364e-05)
(-0.000447823 -0.000397377 1.74064e-05)
(-0.000537142 -0.000459008 5.80286e-05)
(-0.000621291 -0.000501901 9.55789e-05)
(-0.000691316 -0.000525206 0.000128038)
(-0.000752668 -0.000538209 0.000154697)
(-0.000800077 -0.000541541 0.000173429)
(-0.000840911 -0.000543706 0.000185757)
(-0.000870061 -0.000543861 0.000191004)
(-0.00088971 -0.000544654 0.000190464)
(-0.000904825 -0.000548061 0.000185715)
(-0.000917601 -0.000554376 0.000177633)
(-0.000933076 -0.000565556 0.000167581)
(-0.000936583 -0.00057254 0.000153863)
(-0.000949389 -0.000583819 0.000139597)
(-0.00094993 -0.000589639 0.000121763)
(-0.000946583 -0.000594222 0.000102431)
(-0.000947255 -0.000600215 8.25424e-05)
(-0.000942832 -0.000603959 6.09809e-05)
(-0.000936221 -0.00060469 3.78369e-05)
(-0.000937614 -0.000607801 1.30604e-05)
(-0.000125976 -2.18254e-05 2.79713e-05)
(-0.000148185 -6.41606e-05 -4.76883e-05)
(-0.000240841 -0.000162113 -5.31677e-05)
(-0.00032106 -0.000259864 -3.3963e-05)
(-0.000415674 -0.000353048 -6.72661e-07)
(-0.000509987 -0.000421785 3.79379e-05)
(-0.00060218 -0.000471879 7.59983e-05)
(-0.000680016 -0.000499883 0.000110216)
(-0.000750063 -0.00051679 0.00013938)
(-0.000802269 -0.000521472 0.000160405)
(-0.0008495 -0.000526209 0.000175591)
(-0.000884443 -0.000528672 0.000183641)
(-0.000908903 -0.000531312 0.000185545)
(-0.000926467 -0.000535296 0.00018249)
(-0.000939384 -0.000541183 0.000175414)
(-0.000953021 -0.000550927 0.000165824)
(-0.000956442 -0.000558007 0.000152807)
(-0.000967957 -0.0005683 0.000138831)
(-0.00096667 -0.000573848 0.00012121)
(-0.00096437 -0.000579612 0.00010232)
(-0.000964731 -0.0005858 8.26501e-05)
(-0.000960982 -0.00059077 6.12345e-05)
(-0.000954305 -0.000592134 3.80608e-05)
(-0.000954418 -0.000594579 1.31516e-05)
(-0.00011957 -1.11788e-05 3.50299e-05)
(-0.000125267 -4.24421e-05 -3.82824e-05)
(-0.000211979 -0.000123118 -5.24204e-05)
(-0.000276959 -0.000207604 -4.18979e-05)
(-0.000370798 -0.000303148 -1.75217e-05)
(-0.00047283 -0.000381445 1.72852e-05)
(-0.000572026 -0.000438078 5.46854e-05)
(-0.000660602 -0.000472865 9.05243e-05)
(-0.000738637 -0.000492584 0.000122028)
(-0.000801154 -0.000501055 0.000146548)
(-0.000853393 -0.000506715 0.000164477)
(-0.000890497 -0.000509192 0.000174868)
(-0.00091603 -0.000511585 0.000178735)
(-0.000934965 -0.000515705 0.000177413)
(-0.000949506 -0.000522163 0.000171859)
(-0.000964063 -0.000532181 0.000163422)
(-0.000968948 -0.000540148 0.000151456)
(-0.000979129 -0.000549523 0.000137854)
(-0.000976373 -0.00055512 0.000120551)
(-0.000973217 -0.000560861 0.000101927)
(-0.000971147 -0.000566017 8.23781e-05)
(-0.000965265 -0.00057057 6.10381e-05)
(-0.000958391 -0.000572511 3.80008e-05)
(-0.000957368 -0.000574477 1.31523e-05)
(-0.000112099 -1.54005e-06 4.11451e-05)
(-0.000122224 -3.12632e-05 -3.47419e-05)
(-0.000161449 -7.83222e-05 -4.25978e-05)
(-0.000226368 -0.000156145 -4.47727e-05)
(-0.000314972 -0.000249565 -3.15972e-05)
(-0.000417421 -0.000331951 -3.3159e-06)
(-0.000526459 -0.000397861 3.1763e-05)
(-0.000624178 -0.000438673 6.79841e-05)
(-0.000713158 -0.000463499 0.000101929)
(-0.000782052 -0.000472824 0.000129352)
(-0.000840736 -0.000479545 0.000150495)
(-0.000884188 -0.000483904 0.000164191)
(-0.000915131 -0.000488569 0.000171072)
(-0.000936434 -0.000493574 0.000171927)
(-0.000950888 -0.000499788 0.000167756)
(-0.000962988 -0.000508318 0.000160028)
(-0.000967432 -0.000515987 0.000148926)
(-0.000975169 -0.000524002 0.000135708)
(-0.000970354 -0.000529542 0.000118824)
(-0.000967376 -0.000536013 0.000100764)
(-0.000964337 -0.000541202 8.16473e-05)
(-0.000958142 -0.000546689 6.06402e-05)
(-0.000950691 -0.000548974 3.7804e-05)
(-0.000947915 -0.000550292 1.3103e-05)
(-9.5917e-05 6.24019e-06 4.26167e-05)
(-0.000117376 -2.15447e-05 -3.02801e-05)
(-0.000129528 -5.02981e-05 -3.38546e-05)
(-0.00016624 -0.000104113 -4.02023e-05)
(-0.000244213 -0.000189575 -4.03079e-05)
(-0.000352446 -0.000280495 -2.2294e-05)
(-0.000466258 -0.000352156 8.19008e-06)
(-0.000576235 -0.000401686 4.38962e-05)
(-0.000675129 -0.000431364 7.97212e-05)
(-0.000756955 -0.000445879 0.000111186)
(-0.000823185 -0.000453749 0.000136108)
(-0.000869334 -0.000457447 0.00015277)
(-0.000900735 -0.000461054 0.00016195)
(-0.000922293 -0.000465669 0.000164693)
(-0.000937492 -0.000472318 0.000162212)
(-0.00094977 -0.000481238 0.000155848)
(-0.000954673 -0.000489219 0.000145886)
(-0.000959959 -0.000496371 0.000133191)
(-0.000953104 -0.000502044 0.00011681)
(-0.000948132 -0.00050807 9.91475e-05)
(-0.000941629 -0.000512035 8.03727e-05)
(-0.000932318 -0.000516906 5.96732e-05)
(-0.000924021 -0.000519343 3.72395e-05)
(-0.000919659 -0.000520274 1.29351e-05)
(-8.26801e-05 1.17417e-05 4.28786e-05)
(-0.000121256 -1.53734e-05 -2.75681e-05)
(-8.73503e-05 -2.62904e-05 -1.99066e-05)
(-0.000106181 -5.89382e-05 -2.88172e-05)
(-0.000168693 -0.000130747 -4.21924e-05)
(-0.000265236 -0.000216678 -3.70659e-05)
(-0.000390079 -0.000299683 -1.48519e-05)
(-0.000510482 -0.000357309 1.8587e-05)
(-0.000621759 -0.000394411 5.58612e-05)
(-0.000710414 -0.000411555 9.02881e-05)
(-0.000782518 -0.000420763 0.000118754)
(-0.000835163 -0.000426051 0.000139115)
(-0.000872174 -0.000431426 0.000151602)
(-0.000896051 -0.000436774 0.000156758)
(-0.000910703 -0.000443219 0.000155878)
(-0.000919779 -0.000450827 0.00015045)
(-0.00092315 -0.000457971 0.000141438)
(-0.000924828 -0.000463998 0.000129293)
(-0.000915157 -0.000469444 0.000113484)
(-0.000909227 -0.000475488 9.65182e-05)
(-0.000901219 -0.000479331 7.84587e-05)
(-0.000890304 -0.000484455 5.83298e-05)
(-0.00088083 -0.000486837 3.64252e-05)
(-0.000874333 -0.000487244 1.26799e-05)
(-7.37124e-05 1.50506e-05 4.13392e-05)
(-0.000105999 -1.01447e-05 -2.10316e-05)
(-6.54971e-05 -1.55352e-05 -9.70346e-06)
(-4.17114e-05 -1.96717e-05 -1.04306e-05)
(-8.13168e-05 -6.66707e-05 -3.11473e-05)
(-0.000176494 -0.000154844 -4.67649e-05)
(-0.000298861 -0.000239605 -3.55248e-05)
(-0.000432181 -0.000308191 -6.03373e-06)
(-0.000553879 -0.0003526 3.18509e-05)
(-0.000655894 -0.000377538 6.96213e-05)
(-0.000736555 -0.000390785 0.000101954)
(-0.000792053 -0.000396595 0.0001255)
(-0.0008287 -0.000400933 0.000140304)
(-0.000851599 -0.000405515 0.000147318)
(-0.000865808 -0.000411784 0.000148123)
(-0.000874012 -0.000419203 0.000144095)
(-0.00087625 -0.000425754 0.000136168)
(-0.000874322 -0.000431047 0.000124681)
(-0.000861711 -0.000436291 0.000109503)
(-0.000852607 -0.000441141 9.30815e-05)
(-0.00083988 -0.000443259 7.56197e-05)
(-0.00082475 -0.000446968 5.61118e-05)
(-0.000813462 -0.000448707 3.50274e-05)
(-0.000805024 -0.000448695 1.22299e-05)
(-7.14017e-05 1.53102e-05 3.76561e-05)
(-9.82658e-05 -8.86657e-06 -1.65791e-05)
(-5.31796e-05 -1.12016e-05 -8.78356e-07)
(-1.97855e-05 -9.17146e-06 -1.66862e-07)
(-1.73235e-05 -2.37466e-05 -1.50929e-05)
(-6.60056e-05 -7.26441e-05 -3.8565e-05)
(-0.000197827 -0.000172165 -5.11757e-05)
(-0.000340222 -0.000251374 -2.75302e-05)
(-0.000473486 -0.000305898 1.00797e-05)
(-0.000580085 -0.000335453 4.92928e-05)
(-0.000663356 -0.000351713 8.36599e-05)
(-0.000723286 -0.000360737 0.000109836)
(-0.000764563 -0.000367702 0.000127376)
(-0.000789417 -0.000373505 0.00013661)
(-0.000802383 -0.000379402 0.000138943)
(-0.000806548 -0.000385129 0.000135818)
(-0.000805588 -0.000390093 0.00012875)
(-0.000798778 -0.000394027 0.000117896)
(-0.000782614 -0.000398301 0.000103442)
(-0.000771372 -0.000402145 8.79321e-05)
(-0.00075703 -0.000403853 7.16318e-05)
(-0.000739633 -0.000406795 5.31294e-05)
(-0.000726857 -0.000407758 3.31466e-05)
(-0.000716362 -0.000407143 1.16117e-05)
(-7.01596e-05 1.3462e-05 3.01868e-05)
(-9.15353e-05 -8.09266e-06 -1.26201e-05)
(-4.0906e-05 -5.4338e-06 6.83619e-06)
(5.03254e-06 1.67328e-06 7.47989e-06)
(2.25105e-05 4.20952e-06 -4.64728e-06)
(1.11747e-06 -1.40851e-05 -2.16164e-05)
(-9.09221e-05 -9.05804e-05 -5.17854e-05)
(-0.00024132 -0.000187026 -4.09783e-05)
(-0.000380098 -0.000252063 -5.74311e-06)
(-0.000496474 -0.000292123 3.29922e-05)
(-0.000586204 -0.000315343 6.82666e-05)
(-0.000646962 -0.000327066 9.55301e-05)
(-0.000685899 -0.000334262 0.000114015)
(-0.000707875 -0.00033957 0.000124257)
(-0.000718708 -0.00034493 0.000127796)
(-0.000721021 -0.000350058 0.000125898)
(-0.000717431 -0.000353766 0.000119784)
(-0.000706523 -0.00035653 0.000109691)
(-0.000687114 -0.000359516 9.60378e-05)
(-0.000672094 -0.000361136 8.13603e-05)
(-0.000652162 -0.000359906 6.60274e-05)
(-0.000629762 -0.000360031 4.86724e-05)
(-0.000614373 -0.000359183 3.02584e-05)
(-0.00060201 -0.000357768 1.06388e-05)
(-6.81877e-05 1.252e-05 2.3003e-05)
(-8.47909e-05 -5.85106e-06 -1.03402e-05)
(-3.20371e-05 -3.30666e-07 9.6183e-06)
(2.45142e-05 9.33111e-06 7.86285e-06)
(3.54189e-05 1.43712e-05 8.06349e-06)
(2.72151e-05 1.62213e-05 -5.18358e-06)
(-1.72459e-05 -1.76451e-05 -2.38531e-05)
(-0.000143396 -0.000116403 -3.71708e-05)
(-0.000281584 -0.000194127 -1.07532e-05)
(-0.000394542 -0.000240467 2.25028e-05)
(-0.000480665 -0.000267856 5.41572e-05)
(-0.000542324 -0.000284283 7.99881e-05)
(-0.000583451 -0.000295114 9.86346e-05)
(-0.000606317 -0.000302278 0.000109749)
(-0.000615029 -0.000307288 0.000114123)
(-0.000612563 -0.000310352 0.000112779)
(-0.00060412 -0.000311678 0.000107227)
(-0.000587565 -0.00031198 9.77002e-05)
(-0.000564732 -0.000312733 8.50385e-05)
(-0.000546859 -0.000311985 7.16862e-05)
(-0.000526473 -0.000309872 5.82369e-05)
(-0.000502769 -0.000308471 4.27373e-05)
(-0.00048652 -0.000306319 2.64789e-05)
(-0.000472998 -0.000304093 9.35009e-06)
(-6.10033e-05 1.08164e-05 1.65349e-05)
(-7.75264e-05 -3.47014e-06 -7.66637e-06)
(-2.00697e-05 2.22679e-06 1.20118e-05)
(2.75373e-05 1.37126e-05 1.64437e-05)
(3.76339e-05 1.58009e-05 1.89489e-05)
(3.11252e-05 1.46574e-05 1.9176e-05)
(5.70752e-06 9.96235e-08 5.59409e-06)
(-5.72968e-05 -4.96828e-05 -9.12942e-06)
(-0.000174388 -0.000130794 -1.17492e-06)
(-0.000287098 -0.000187919 2.0587e-05)
(-0.000375774 -0.000224161 4.54685e-05)
(-0.000434306 -0.000243748 6.68798e-05)
(-0.000470763 -0.000255144 8.29998e-05)
(-0.000488881 -0.000261552 9.29873e-05)
(-0.000493865 -0.000265401 9.73304e-05)
(-0.000489246 -0.000267509 9.67333e-05)
(-0.000477962 -0.00026726 9.19106e-05)
(-0.000458572 -0.000265823 8.32284e-05)
(-0.000433577 -0.000264204 7.17435e-05)
(-0.000412858 -0.000260418 5.98463e-05)
(-0.000386697 -0.000253402 4.78124e-05)
(-0.000358396 -0.000247419 3.435e-05)
(-0.000339664 -0.000242182 2.09922e-05)
(-0.000325105 -0.000238468 7.42165e-06)
(-4.59745e-05 1.06573e-05 1.17775e-05)
(-7.07413e-05 2.19741e-07 -9.27463e-06)
(-2.86387e-05 9.22016e-06 6.94664e-06)
(1.22242e-05 2.12896e-05 1.68654e-05)
(3.33655e-05 2.05677e-05 1.93703e-05)
(5.23834e-05 1.65621e-05 3.23865e-05)
(4.13763e-05 2.85553e-06 3.53008e-05)
(3.70365e-06 -1.82958e-05 2.17766e-05)
(-7.60006e-05 -7.69043e-05 1.87445e-05)
(-0.00016808 -0.000130514 2.4787e-05)
(-0.000243359 -0.000166441 3.78781e-05)
(-0.000300895 -0.000190896 5.21161e-05)
(-0.000337769 -0.000205834 6.42046e-05)
(-0.000356055 -0.000214007 7.25418e-05)
(-0.000358804 -0.000217146 7.63027e-05)
(-0.000349497 -0.000216392 7.54863e-05)
(-0.000332691 -0.000212391 7.0593e-05)
(-0.000308563 -0.000206715 6.22249e-05)
(-0.000281929 -0.000201513 5.23035e-05)
(-0.000259105 -0.000193855 4.25961e-05)
(-0.000237023 -0.000186567 3.36638e-05)
(-0.000211025 -0.000179047 2.34967e-05)
(-0.000194272 -0.000172856 1.4105e-05)
(-0.000180629 -0.000168238 4.97072e-06)
(-1.51794e-05 1.07731e-05 1.13865e-05)
(-5.02605e-05 4.44194e-06 -1.50506e-05)
(-4.55412e-05 1.33435e-05 -1.29412e-05)
(-2.99591e-05 2.96843e-05 -9.48322e-06)
(9.883e-06 4.21376e-05 -5.19646e-06)
(3.03249e-05 2.19012e-05 3.24243e-06)
(4.52826e-05 9.78553e-06 1.74185e-05)
(3.88839e-05 -4.10816e-06 2.62085e-05)
(1.15997e-05 -2.89377e-05 2.99875e-05)
(-5.36711e-05 -7.35855e-05 2.94474e-05)
(-0.00012838 -0.000118511 3.48912e-05)
(-0.000176593 -0.000141325 3.87227e-05)
(-0.000206566 -0.000154533 4.40491e-05)
(-0.000219192 -0.000160307 4.82945e-05)
(-0.000218374 -0.00016117 5.02409e-05)
(-0.000208661 -0.000159199 4.95168e-05)
(-0.000192123 -0.000153741 4.52728e-05)
(-0.000169871 -0.00014649 3.8049e-05)
(-0.000144866 -0.000138613 3.02652e-05)
(-0.000123783 -0.000128096 2.34671e-05)
(-9.69653e-05 -0.000111727 1.61736e-05)
(-7.04006e-05 -9.71955e-05 9.51198e-06)
(-5.34556e-05 -8.51826e-05 4.90105e-06)
(-4.15586e-05 -7.76341e-05 1.52107e-06)
(1.85473e-05 7.26346e-06 1.80789e-05)
(-4.19627e-06 7.36169e-06 -1.01173e-05)
(-2.30935e-05 9.5688e-06 -2.04778e-05)
(-2.76757e-05 1.51142e-05 -2.69284e-05)
(-2.29913e-05 2.37974e-05 -3.75721e-05)
(3.08153e-09 2.9709e-05 -4.33007e-05)
(2.02128e-05 1.24336e-05 -1.57048e-05)
(3.6892e-05 7.48824e-06 5.85448e-06)
(3.54302e-05 -8.42395e-07 1.89609e-05)
(2.35716e-05 -2.08525e-05 2.37171e-05)
(-8.08511e-06 -4.27049e-05 1.94158e-05)
(-4.08784e-05 -6.51893e-05 1.74572e-05)
(-7.1252e-05 -8.61925e-05 1.81499e-05)
(-8.5894e-05 -9.49129e-05 1.8795e-05)
(-8.49572e-05 -9.46628e-05 1.85968e-05)
(-7.28866e-05 -8.78608e-05 1.67437e-05)
(-5.40662e-05 -7.47329e-05 1.20603e-05)
(-3.30648e-05 -5.86432e-05 5.57102e-06)
(-1.49449e-05 -4.40522e-05 6.97696e-07)
(-2.67524e-06 -2.10328e-05 -1.07628e-06)
(4.4268e-06 -1.98144e-05 -3.97835e-06)
(1.65672e-05 -1.483e-05 -9.01792e-06)
(1.86512e-05 -7.18097e-06 -6.71665e-06)
(1.60105e-05 -1.71322e-06 -2.20479e-06)
(2.2211e-05 1.05211e-05 2.51907e-05)
(2.51829e-05 1.13858e-05 -2.88389e-06)
(1.5162e-05 1.1262e-05 -1.16257e-05)
(5.07249e-06 1.0808e-05 -2.2281e-05)
(4.46944e-06 9.99095e-06 -3.27649e-05)
(1.21381e-05 8.27371e-06 -3.70093e-05)
(2.05936e-05 7.25139e-06 -2.77462e-05)
(2.26917e-05 8.84465e-06 -7.88941e-06)
(3.614e-05 1.59635e-05 9.7423e-06)
(3.52648e-05 9.21937e-06 1.04938e-05)
(3.77611e-05 2.41833e-07 8.46327e-06)
(1.8153e-05 -8.70425e-06 7.89605e-07)
(1.08124e-05 -1.82879e-05 -5.70877e-06)
(3.85347e-06 -1.62374e-05 -7.79696e-06)
(3.85897e-06 -1.50626e-05 -1.01868e-05)
(7.93698e-06 -1.35225e-05 -1.46896e-05)
(1.69745e-05 -1.08137e-05 -2.493e-05)
(1.81379e-05 -2.03152e-06 -2.39293e-05)
(2.2744e-05 4.32356e-06 -2.74277e-05)
(2.42559e-05 8.56491e-06 -2.75119e-05)
(2.70637e-05 1.3978e-05 -2.87519e-05)
(2.45826e-05 1.5236e-05 -2.1743e-05)
(3.6895e-05 2.46159e-05 -2.22113e-05)
(2.73243e-05 1.89415e-05 -6.05708e-06)
(1.58781e-05 1.41296e-05 2.93555e-05)
(2.39415e-05 2.14e-05 -1.42938e-06)
(2.41117e-05 2.06145e-05 -3.90122e-06)
(2.23194e-05 1.77271e-05 -7.95055e-06)
(2.17721e-05 1.2682e-05 -1.37884e-05)
(2.33577e-05 5.03921e-06 -1.59379e-05)
(2.54843e-05 -1.43042e-06 -9.09209e-06)
(2.50158e-05 -1.29626e-07 1.66855e-06)
(2.64725e-05 5.91227e-06 5.01276e-06)
(3.86296e-05 1.23044e-05 4.49929e-06)
(4.60294e-05 1.55109e-05 7.27425e-07)
(4.10001e-05 1.29984e-05 -6.3909e-06)
(3.53326e-05 1.06906e-05 -1.52903e-05)
(2.81195e-05 8.81815e-06 -2.23662e-05)
(3.14177e-05 1.12048e-05 -3.56188e-05)
(3.62446e-05 1.55327e-05 -4.88323e-05)
(3.62618e-05 1.82864e-05 -5.23199e-05)
(3.946e-05 2.25911e-05 -5.75191e-05)
(3.65937e-05 2.18385e-05 -5.09112e-05)
(2.99e-05 1.77732e-05 -3.86103e-05)
(2.60293e-05 1.4947e-05 -3.01632e-05)
(2.67531e-05 1.41689e-05 -2.52396e-05)
(2.99345e-05 1.44923e-05 -1.90405e-05)
(3.31567e-05 1.50789e-05 -7.657e-06)
(1.21601e-05 1.32972e-05 2.75359e-05)
(1.85834e-05 2.14875e-05 -1.3949e-06)
(1.90238e-05 2.21061e-05 -5.38811e-06)
(1.9024e-05 1.81679e-05 -8.69187e-06)
(2.04547e-05 8.94602e-06 -1.17239e-05)
(2.28664e-05 -3.96759e-06 -1.07508e-05)
(2.71598e-05 -1.37046e-05 -3.49263e-06)
(3.76622e-05 -1.55611e-05 5.36267e-06)
(6.01751e-05 -1.0055e-05 9.49837e-06)
(8.22951e-05 2.06989e-06 5.87007e-06)
(9.03172e-05 1.39579e-05 -3.76234e-06)
(8.633e-05 2.03354e-05 -1.72077e-05)
(7.42573e-05 2.10231e-05 -3.04369e-05)
(6.03848e-05 1.91667e-05 -4.01958e-05)
(5.03946e-05 1.72481e-05 -4.68387e-05)
(4.55275e-05 1.6194e-05 -5.23768e-05)
(4.46752e-05 1.56065e-05 -5.81677e-05)
(4.67846e-05 1.46554e-05 -6.48969e-05)
(5.00924e-05 1.30391e-05 -6.88896e-05)
(5.13159e-05 9.69534e-06 -6.68046e-05)
(5.39244e-05 5.36018e-06 -6.36619e-05)
(5.5666e-05 1.47946e-06 -5.37246e-05)
(5.67131e-05 -9.19362e-07 -3.6498e-05)
(5.645e-05 -2.7085e-06 -1.31949e-05)
(8.00812e-06 1.15464e-05 2.21691e-05)
(1.24721e-05 1.84466e-05 -2.28696e-06)
(1.33646e-05 1.80199e-05 -7.23546e-06)
(1.46708e-05 1.24564e-05 -1.12313e-05)
(1.78915e-05 1.33613e-06 -1.36084e-05)
(2.29664e-05 -1.28735e-05 -1.10258e-05)
(3.16133e-05 -2.34231e-05 -3.15856e-06)
(4.82465e-05 -2.66944e-05 5.13668e-06)
(7.31274e-05 -2.11793e-05 7.60985e-06)
(9.37411e-05 -9.62751e-06 2.27775e-06)
(0.000105214 2.49622e-06 -8.49424e-06)
(0.000107259 9.9152e-06 -2.41129e-05)
(0.000101174 1.13473e-05 -4.14745e-05)
(9.12747e-05 9.61223e-06 -5.73499e-05)
(8.16811e-05 6.69176e-06 -7.02398e-05)
(7.43302e-05 2.96492e-06 -7.97187e-05)
(6.88201e-05 -1.42001e-06 -8.49353e-05)
(6.63225e-05 -6.40304e-06 -8.78561e-05)
(6.5151e-05 -1.06937e-05 -8.66204e-05)
(6.45825e-05 -1.47876e-05 -8.1138e-05)
(6.4835e-05 -1.8174e-05 -7.21334e-05)
(6.41778e-05 -2.03617e-05 -5.79497e-05)
(6.30059e-05 -2.0035e-05 -3.7859e-05)
(6.19434e-05 -2.0177e-05 -1.35684e-05)
(5.1812e-06 9.85911e-06 1.74269e-05)
(8.32044e-06 1.47535e-05 -2.80729e-06)
(9.73315e-06 1.39539e-05 -8.10107e-06)
(1.21777e-05 8.50278e-06 -1.18352e-05)
(1.71975e-05 -1.51489e-06 -1.35269e-05)
(2.50205e-05 -1.38306e-05 -1.10615e-05)
(3.63451e-05 -2.28408e-05 -4.80631e-06)
(5.2246e-05 -2.49874e-05 1.14774e-06)
(6.92391e-05 -1.8879e-05 1.63182e-06)
(8.03569e-05 -9.58034e-06 -2.9669e-06)
(9.30891e-05 4.89156e-09 -1.12144e-05)
(0.000104912 5.42763e-06 -2.65043e-05)
(0.000107336 3.72041e-06 -4.52369e-05)
(0.000101446 -1.54912e-06 -6.21032e-05)
(9.24219e-05 -7.26258e-06 -7.51164e-05)
(8.3953e-05 -1.30902e-05 -8.41042e-05)
(7.74925e-05 -1.82928e-05 -8.9168e-05)
(7.4594e-05 -2.28724e-05 -9.19464e-05)
(7.30491e-05 -2.64342e-05 -9.07684e-05)
(7.18073e-05 -2.82528e-05 -8.45458e-05)
(7.00358e-05 -2.75284e-05 -7.36904e-05)
(6.67948e-05 -2.58934e-05 -5.74706e-05)
(6.30131e-05 -2.28924e-05 -3.67201e-05)
(5.92072e-05 -2.10292e-05 -1.27458e-05)
(4.41523e-06 8.48432e-06 1.46411e-05)
(7.31426e-06 1.27975e-05 -2.2213e-06)
(9.28538e-06 1.27126e-05 -7.66488e-06)
(1.24767e-05 8.8573e-06 -1.13751e-05)
(1.84092e-05 1.5072e-06 -1.35353e-05)
(2.75463e-05 -7.9371e-06 -1.33344e-05)
(3.93486e-05 -1.62035e-05 -1.06659e-05)
(5.28264e-05 -1.96676e-05 -8.12346e-06)
(6.04252e-05 -1.76148e-05 -8.64081e-06)
(5.48422e-05 -1.13437e-05 -8.41855e-06)
(5.11262e-05 -4.17663e-06 -8.62856e-06)
(6.5891e-05 6.669e-07 -1.75013e-05)
(8.23961e-05 1.41033e-06 -3.53837e-05)
(8.88222e-05 -3.04346e-06 -5.48657e-05)
(8.72177e-05 -9.48417e-06 -7.03361e-05)
(8.29713e-05 -1.60949e-05 -8.10059e-05)
(7.78675e-05 -2.11461e-05 -8.60444e-05)
(7.45972e-05 -2.40343e-05 -8.75598e-05)
(7.25596e-05 -2.58905e-05 -8.55755e-05)
(6.90906e-05 -2.54312e-05 -7.77626e-05)
(6.30266e-05 -2.23019e-05 -6.45571e-05)
(5.59484e-05 -1.91924e-05 -4.76371e-05)
(4.89908e-05 -1.62813e-05 -2.88788e-05)
(4.41928e-05 -1.49672e-05 -9.76781e-06)
(4.20775e-06 8.53952e-06 1.4586e-05)
(6.8982e-06 1.35122e-05 -1.38411e-06)
(8.98468e-06 1.45001e-05 -7.20844e-06)
(1.2211e-05 1.19901e-05 -1.13118e-05)
(1.81362e-05 6.2051e-06 -1.41861e-05)
(2.78035e-05 -1.86912e-06 -1.53378e-05)
(4.15858e-05 -1.0031e-05 -1.47e-05)
(5.80883e-05 -1.53239e-05 -1.49144e-05)
(6.71156e-05 -1.69448e-05 -1.75954e-05)
(6.37228e-05 -1.53894e-05 -1.68377e-05)
(6.31728e-05 -1.1386e-05 -1.49526e-05)
(6.59775e-05 -6.649e-06 -1.92897e-05)
(6.85827e-05 -4.88168e-06 -3.01746e-05)
(7.03054e-05 -6.92412e-06 -4.3963e-05)
(6.98487e-05 -1.08278e-05 -5.6577e-05)
(6.8604e-05 -1.496e-05 -6.64922e-05)
(6.73152e-05 -1.83352e-05 -7.30225e-05)
(6.61223e-05 -1.99431e-05 -7.60448e-05)
(6.48673e-05 -2.06443e-05 -7.52507e-05)
(6.12057e-05 -1.98209e-05 -6.86502e-05)
(5.52152e-05 -1.76868e-05 -5.73264e-05)
(4.93255e-05 -1.59689e-05 -4.29431e-05)
(4.47794e-05 -1.47589e-05 -2.70611e-05)
(4.25952e-05 -1.47034e-05 -9.60985e-06)
(3.45978e-06 8.99247e-06 1.48222e-05)
(5.63214e-06 1.45298e-05 -1.04367e-06)
(7.57752e-06 1.60488e-05 -7.32524e-06)
(1.06806e-05 1.39786e-05 -1.17795e-05)
(1.66173e-05 8.68574e-06 -1.49681e-05)
(2.6864e-05 1.3164e-06 -1.66486e-05)
(4.19487e-05 -5.91741e-06 -1.7404e-05)
(5.70186e-05 -1.04719e-05 -2.01171e-05)
(5.59081e-05 -1.17241e-05 -2.14044e-05)
(3.88119e-05 -9.61719e-06 -1.42554e-05)
(3.33809e-05 -7.53272e-06 -9.47919e-06)
(4.89313e-05 -7.7546e-06 -1.51712e-05)
(6.28222e-05 -8.25673e-06 -2.80633e-05)