/*--------------------------------*- C++ -*----------------------------------*\
  =========                 |
  \\      /  F ield         | OpenFOAM: The Open Source CFD Toolbox
   \\    /   O peration     | Website:  https://openfoam.org
    \\  /    A nd           | Version:  6
     \\/     M anipulation  |
\*---------------------------------------------------------------------------*/
FoamFile
{
    version     2.0;
    format      ascii;
    class       volScalarField;
    location    "0";
    object      nut;
}
// * * * * * * * * * * * * * * * * * * * * * * * * * * * * * * * * * * * * * //

dimensions      [0 2 -1 0 0 0 0];

internalField   nonuniform List<scalar> 
2880
(
1.28305e-06
1.28295e-06
1.28306e-06
1.7157e-07
1.71558e-07
1.71575e-07
2.31325e-07
2.31312e-07
2.31332e-07
2.86144e-07
2.8613e-07
2.86153e-07
3.37054e-07
3.37042e-07
3.37064e-07
3.87599e-07
3.87589e-07
3.8761e-07
4.4061e-07
4.40604e-07
4.40623e-07
4.98977e-07
4.98973e-07
4.9899e-07
5.66498e-07
5.66498e-07
5.66512e-07
6.48092e-07
6.48099e-07
6.48107e-07
7.50163e-07
7.50175e-07
7.50176e-07
8.79723e-07
8.79741e-07
8.79734e-07
1.03564e-06
1.03565e-06
1.03562e-06
1.20729e-06
1.20721e-06
1.20712e-06
1.3591e-06
1.35891e-06
1.3586e-06
1.3591e-06
1.35891e-06
1.3586e-06
1.20714e-06
1.20707e-06
1.20698e-06
1.03541e-06
1.03542e-06
1.0354e-06
8.79512e-07
8.79528e-07
8.79522e-07
7.4998e-07
7.4999e-07
7.49992e-07
6.48023e-07
6.48031e-07
6.48037e-07
5.66447e-07
5.66448e-07
5.66461e-07
4.98926e-07
4.98922e-07
4.98939e-07
4.4054e-07
4.40533e-07
4.40552e-07
3.87505e-07
3.87494e-07
3.87515e-07
3.36953e-07
3.3694e-07
3.36962e-07
2.86057e-07
2.86044e-07
2.86067e-07
2.31266e-07
2.31253e-07
2.31273e-07
1.71536e-07
1.71526e-07
1.71541e-07
1.28289e-06
1.2828e-06
1.2829e-06
9.27577e-06
9.27642e-06
9.27584e-06
1.69839e-06
1.69838e-06
1.69842e-06
1.9172e-06
1.91725e-06
1.91725e-06
2.2201e-06
2.22017e-06
2.22015e-06
2.46619e-06
2.46629e-06
2.46624e-06
2.67479e-06
2.67491e-06
2.67484e-06
2.85725e-06
2.85738e-06
2.85729e-06
3.02065e-06
3.02079e-06
3.02069e-06
3.17068e-06
3.17082e-06
3.17071e-06
3.31165e-06
3.31179e-06
3.31167e-06
3.44753e-06
3.44766e-06
3.44755e-06
3.58201e-06
3.58214e-06
3.58202e-06
3.71373e-06
3.71383e-06
3.71372e-06
3.83955e-06
3.83958e-06
3.83943e-06
3.94236e-06
3.9423e-06
3.94201e-06
3.94237e-06
3.9423e-06
3.94202e-06
3.83946e-06
3.83948e-06
3.83933e-06
3.71357e-06
3.71367e-06
3.71356e-06
3.58184e-06
3.58197e-06
3.58186e-06
3.44735e-06
3.44748e-06
3.44736e-06
3.31159e-06
3.31173e-06
3.31161e-06
3.17062e-06
3.17076e-06
3.17065e-06
3.02057e-06
3.02071e-06
3.02061e-06
2.85707e-06
2.85719e-06
2.85711e-06
2.67447e-06
2.67458e-06
2.67452e-06
2.46577e-06
2.46586e-06
2.46581e-06
2.21967e-06
2.21974e-06
2.21973e-06
1.91687e-06
1.91692e-06
1.91692e-06
1.69817e-06
1.69817e-06
1.69821e-06
9.27482e-06
9.27546e-06
9.27489e-06
1.18283e-05
1.18286e-05
1.18284e-05
2.64579e-06
2.64561e-06
2.64584e-06
2.94179e-06
2.94166e-06
2.94185e-06
3.35126e-06
3.35114e-06
3.35133e-06
3.68389e-06
3.68379e-06
3.68396e-06
3.96442e-06
3.96433e-06
3.96449e-06
4.20778e-06
4.20769e-06
4.20784e-06
4.42308e-06
4.42299e-06
4.42313e-06
4.61723e-06
4.61714e-06
4.61727e-06
4.79497e-06
4.79487e-06
4.795e-06
4.96002e-06
4.95989e-06
4.96004e-06
5.11536e-06
5.11521e-06
5.11537e-06
5.25878e-06
5.2586e-06
5.25876e-06
5.38815e-06
5.38789e-06
5.38802e-06
5.48914e-06
5.4888e-06
5.48879e-06
5.48915e-06
5.4888e-06
5.48879e-06
5.38806e-06
5.3878e-06
5.38793e-06
5.25863e-06
5.25845e-06
5.2586e-06
5.11518e-06
5.11504e-06
5.1152e-06
4.95983e-06
4.9597e-06
4.95985e-06
4.79492e-06
4.79481e-06
4.79495e-06
4.61719e-06
4.61709e-06
4.61723e-06
4.42299e-06
4.4229e-06
4.42304e-06
4.20756e-06
4.20747e-06
4.20762e-06
3.96402e-06
3.96392e-06
3.96408e-06
3.68334e-06
3.68323e-06
3.6834e-06
3.35071e-06
3.35059e-06
3.35078e-06
2.94136e-06
2.94124e-06
2.94143e-06
2.64552e-06
2.64535e-06
2.64557e-06
1.18271e-05
1.18274e-05
1.18272e-05
1.55485e-05
1.55485e-05
1.55486e-05
5.47699e-06
5.47696e-06
5.47709e-06
5.91739e-06
5.9174e-06
5.91752e-06
6.54317e-06
6.54322e-06
6.5433e-06
7.06047e-06
7.06054e-06
7.0606e-06
7.49744e-06
7.49755e-06
7.49758e-06
7.87597e-06
7.87611e-06
7.8761e-06
8.20991e-06
8.21002e-06
8.21e-06
8.50964e-06
8.50975e-06
8.50972e-06
8.782e-06
8.78211e-06
8.78206e-06
9.03174e-06
9.03181e-06
9.03179e-06
9.26167e-06
9.2617e-06
9.26168e-06
9.46681e-06
9.4668e-06
9.46677e-06
9.64351e-06
9.6434e-06
9.64331e-06
9.77467e-06
9.77443e-06
9.77416e-06
9.77468e-06
9.77445e-06
9.77418e-06
9.64341e-06
9.6433e-06
9.64321e-06
9.46663e-06
9.46663e-06
9.46659e-06
9.26147e-06
9.26152e-06
9.2615e-06
9.03153e-06
9.03159e-06
9.03157e-06
8.78199e-06
8.7821e-06
8.78207e-06
8.50965e-06
8.50976e-06
8.50973e-06
8.20986e-06
8.20997e-06
8.20996e-06
7.87573e-06
7.87585e-06
7.87584e-06
7.4969e-06
7.497e-06
7.49702e-06
7.0597e-06
7.05977e-06
7.05981e-06
6.54238e-06
6.54243e-06
6.54252e-06
5.91681e-06
5.91683e-06
5.91693e-06
5.47668e-06
5.47665e-06
5.47678e-06
1.55471e-05
1.55471e-05
1.55472e-05
1.75561e-05
1.75561e-05
1.75562e-05
1.00105e-05
1.00106e-05
1.00107e-05
1.02881e-05
1.02882e-05
1.02884e-05
1.11294e-05
1.11296e-05
1.11296e-05
1.18641e-05
1.18643e-05
1.18644e-05
1.24943e-05
1.24946e-05
1.24946e-05
1.30438e-05
1.30442e-05
1.30441e-05
1.35303e-05
1.35307e-05
1.35305e-05
1.3968e-05
1.39683e-05
1.39682e-05
1.43668e-05
1.43671e-05
1.43669e-05
1.47333e-05
1.47335e-05
1.47334e-05
1.50713e-05
1.50714e-05
1.50713e-05
1.53738e-05
1.53738e-05
1.53737e-05
1.5635e-05
1.56349e-05
1.56347e-05
1.58287e-05
1.58283e-05
1.58278e-05
1.58287e-05
1.58284e-05
1.58279e-05
1.56349e-05
1.56348e-05
1.56346e-05
1.53736e-05
1.53737e-05
1.53735e-05
1.50711e-05
1.50713e-05
1.50712e-05
1.47331e-05
1.47333e-05
1.47332e-05
1.43669e-05
1.43672e-05
1.43671e-05
1.39682e-05
1.39685e-05
1.39684e-05
1.35305e-05
1.35308e-05
1.35307e-05
1.30437e-05
1.3044e-05
1.30439e-05
1.24937e-05
1.2494e-05
1.24939e-05
1.18632e-05
1.18634e-05
1.18634e-05
1.11284e-05
1.11286e-05
1.11287e-05
1.02875e-05
1.02876e-05
1.02877e-05
1.00103e-05
1.00104e-05
1.00105e-05
1.75546e-05
1.75546e-05
1.75547e-05
1.91366e-05
1.91366e-05
1.91367e-05
1.58705e-05
1.58708e-05
1.58708e-05
1.54716e-05
1.54719e-05
1.5472e-05
1.63774e-05
1.63778e-05
1.63778e-05
1.72927e-05
1.72932e-05
1.72931e-05
1.81102e-05
1.81109e-05
1.81106e-05
1.88357e-05
1.88365e-05
1.88362e-05
1.94842e-05
1.9485e-05
1.94846e-05
2.00704e-05
2.00712e-05
2.00707e-05
2.06055e-05
2.06062e-05
2.06058e-05
2.10978e-05
2.10984e-05
2.1098e-05
2.15512e-05
2.15517e-05
2.15513e-05
2.19575e-05
2.19578e-05
2.19574e-05
2.2311e-05
2.23108e-05
2.23103e-05
2.25743e-05
2.25739e-05
2.25729e-05
2.25744e-05
2.2574e-05
2.2573e-05
2.23109e-05
2.23108e-05
2.23102e-05
2.19574e-05
2.19577e-05
2.19572e-05
2.15511e-05
2.15516e-05
2.15512e-05
2.10978e-05
2.10984e-05
2.10979e-05
2.0606e-05
2.06067e-05
2.06062e-05
2.00709e-05
2.00717e-05
2.00712e-05
1.94847e-05
1.94854e-05
1.9485e-05
1.88358e-05
1.88366e-05
1.88363e-05
1.81096e-05
1.81103e-05
1.811e-05
1.72916e-05
1.72922e-05
1.7292e-05
1.63764e-05
1.63768e-05
1.63768e-05
1.54711e-05
1.54714e-05
1.54715e-05
1.58708e-05
1.5871e-05
1.58711e-05
1.9135e-05
1.91351e-05
1.91351e-05
1.97484e-05
1.97483e-05
1.97485e-05
1.85648e-05
1.85643e-05
1.85652e-05
1.78226e-05
1.78223e-05
1.7823e-05
1.87263e-05
1.87261e-05
1.87267e-05
1.9712e-05
1.9712e-05
1.97125e-05
2.06122e-05
2.06123e-05
2.06127e-05
2.14193e-05
2.14195e-05
2.14199e-05
2.21447e-05
2.21449e-05
2.21452e-05
2.28025e-05
2.28026e-05
2.28028e-05
2.34038e-05
2.34038e-05
2.34041e-05
2.39573e-05
2.39572e-05
2.39576e-05
2.4467e-05
2.44667e-05
2.44671e-05
2.49243e-05
2.49237e-05
2.49241e-05
2.53235e-05
2.53225e-05
2.53227e-05
2.56217e-05
2.56202e-05
2.56201e-05
2.56218e-05
2.56203e-05
2.56202e-05
2.53234e-05
2.53224e-05
2.53227e-05
2.49241e-05
2.49236e-05
2.4924e-05
2.4467e-05
2.44667e-05
2.44671e-05
2.39574e-05
2.39573e-05
2.39576e-05
2.34044e-05
2.34044e-05
2.34047e-05
2.28032e-05
2.28033e-05
2.28036e-05
2.21454e-05
2.21455e-05
2.21458e-05
2.14196e-05
2.14197e-05
2.14201e-05
2.06117e-05
2.06118e-05
2.06122e-05
1.9711e-05
1.97109e-05
1.97114e-05
1.87252e-05
1.87251e-05
1.87257e-05
1.78222e-05
1.78219e-05
1.78226e-05
1.85653e-05
1.85648e-05
1.85657e-05
1.97468e-05
1.97468e-05
1.97469e-05
2.13403e-05
2.13403e-05
2.13405e-05
2.54731e-05
2.54732e-05
2.54737e-05
2.39811e-05
2.39813e-05
2.39818e-05
2.47866e-05
2.4787e-05
2.47874e-05
2.58874e-05
2.5888e-05
2.58882e-05
2.69548e-05
2.69557e-05
2.69557e-05
2.79376e-05
2.79386e-05
2.79385e-05
2.88336e-05
2.88345e-05
2.88343e-05
2.96527e-05
2.96536e-05
2.96532e-05
3.04049e-05
3.04057e-05
3.04053e-05
3.10993e-05
3.10998e-05
3.10996e-05
3.17388e-05
3.1739e-05
3.1739e-05
3.23142e-05
3.23142e-05
3.2314e-05
3.28208e-05
3.28201e-05
3.28197e-05
3.32022e-05
3.32009e-05
3.32e-05
3.32023e-05
3.3201e-05
3.32001e-05
3.28207e-05
3.282e-05
3.28197e-05
3.23142e-05
3.23141e-05
3.23139e-05
3.1739e-05
3.17393e-05
3.17391e-05
3.10996e-05
3.11001e-05
3.10999e-05
3.04059e-05
3.04067e-05
3.04064e-05
2.96539e-05
2.96548e-05
2.96545e-05
2.88349e-05
2.88357e-05
2.88355e-05
2.79383e-05
2.79392e-05
2.7939e-05
2.69545e-05
2.69553e-05
2.69553e-05
2.58864e-05
2.5887e-05
2.58871e-05
2.47856e-05
2.47861e-05
2.47864e-05
2.39811e-05
2.39813e-05
2.39818e-05
2.54744e-05
2.54744e-05
2.54749e-05
2.13388e-05
2.13387e-05
2.13389e-05
2.29598e-05
2.29598e-05
2.29599e-05
3.48019e-05
3.48022e-05
3.48027e-05
3.22838e-05
3.22844e-05
3.22849e-05
3.28025e-05
3.28034e-05
3.28037e-05
3.39497e-05
3.39509e-05
3.39509e-05
3.51815e-05
3.51829e-05
3.51827e-05
3.63663e-05
3.63679e-05
3.63675e-05
3.74721e-05
3.74736e-05
3.74731e-05
3.84967e-05
3.84982e-05
3.84975e-05
3.94451e-05
3.94465e-05
3.94458e-05
4.03252e-05
4.03262e-05
4.03256e-05
4.11368e-05
4.11375e-05
4.11371e-05
4.18703e-05
4.18704e-05
4.18701e-05
4.25232e-05
4.25224e-05
4.25217e-05
4.30202e-05
4.30185e-05
4.30171e-05
4.30203e-05
4.30186e-05
4.30172e-05
4.25232e-05
4.25224e-05
4.25217e-05
4.18704e-05
4.18705e-05
4.18701e-05
4.11373e-05
4.1138e-05
4.11375e-05
4.03259e-05
4.03269e-05
4.03263e-05
3.94469e-05
3.94483e-05
3.94476e-05
3.84988e-05
3.85003e-05
3.84996e-05
3.74742e-05
3.74757e-05
3.74752e-05
3.63676e-05
3.63692e-05
3.63688e-05
3.51815e-05
3.51829e-05
3.51827e-05
3.39487e-05
3.39498e-05
3.39498e-05
3.28016e-05
3.28025e-05
3.28028e-05
3.22845e-05
3.22851e-05
3.22856e-05
3.48043e-05
3.48045e-05
3.48051e-05
2.29581e-05
2.29581e-05
2.29582e-05
2.48866e-05
2.48865e-05
2.48867e-05
4.40257e-05
4.40269e-05
4.40268e-05
4.1925e-05
4.19264e-05
4.19267e-05
4.19157e-05
4.19174e-05
4.19175e-05
4.29053e-05
4.29074e-05
4.2907e-05
4.41933e-05
4.41958e-05
4.41951e-05
4.55299e-05
4.55327e-05
4.55316e-05
4.68279e-05
4.68305e-05
4.68293e-05
4.80586e-05
4.80613e-05
4.80599e-05
4.9213e-05
4.92155e-05
4.9214e-05
5.02937e-05
5.02956e-05
5.02943e-05
5.12937e-05
5.12952e-05
5.12941e-05
5.22022e-05
5.2203e-05
5.22021e-05
5.30208e-05
5.30203e-05
5.30189e-05
5.36508e-05
5.36492e-05
5.36469e-05
5.36511e-05
5.36494e-05
5.36471e-05
5.30209e-05
5.30204e-05
5.3019e-05
5.22025e-05
5.22033e-05
5.22023e-05
5.12945e-05
5.12961e-05
5.1295e-05
5.02949e-05
5.02968e-05
5.02956e-05
4.92158e-05
4.92183e-05
4.92168e-05
4.80619e-05
4.80645e-05
4.8063e-05
4.68311e-05
4.68337e-05
4.68325e-05
4.55322e-05
4.55349e-05
4.55338e-05
4.41938e-05
4.41963e-05
4.41955e-05
4.29043e-05
4.29063e-05
4.29059e-05
4.1915e-05
4.19167e-05
4.19167e-05
4.19266e-05
4.1928e-05
4.19283e-05
4.40291e-05
4.40302e-05
4.40303e-05
2.48849e-05
2.48848e-05
2.4885e-05
2.56145e-05
2.56141e-05
2.56147e-05
4.76965e-05
4.76962e-05
4.76978e-05
4.60441e-05
4.60439e-05
4.60461e-05
4.58532e-05
4.58534e-05
4.58553e-05
4.6763e-05
4.67636e-05
4.6765e-05
4.80668e-05
4.80679e-05
4.80689e-05
4.94687e-05
4.947e-05
4.94706e-05
5.08552e-05
5.08563e-05
5.08568e-05
5.21842e-05
5.21853e-05
5.21856e-05
5.34381e-05
5.3439e-05
5.34393e-05
5.46165e-05
5.46167e-05
5.46173e-05
5.57088e-05
5.57085e-05
5.57093e-05
5.6703e-05
5.67019e-05
5.67029e-05
5.76031e-05
5.76005e-05
5.76011e-05
5.82987e-05
5.82948e-05
5.82944e-05
5.8299e-05
5.82951e-05
5.82946e-05
5.76033e-05
5.76007e-05
5.76013e-05
5.67034e-05
5.67022e-05
5.67032e-05
5.57098e-05
5.57095e-05
5.57103e-05
5.4618e-05
5.46182e-05
5.46187e-05
5.34414e-05
5.34422e-05
5.34425e-05
5.2188e-05
5.2189e-05
5.21893e-05
5.08589e-05
5.086e-05
5.08605e-05
4.94714e-05
4.94726e-05
4.94733e-05
4.80674e-05
4.80685e-05
4.80694e-05
4.67618e-05
4.67624e-05
4.67638e-05
4.58524e-05
4.58527e-05
4.58545e-05
4.6046e-05
4.60458e-05
4.60481e-05
4.77003e-05
4.77e-05
4.77017e-05
2.56129e-05
2.56124e-05
2.5613e-05
2.70874e-05
2.70871e-05
2.70876e-05
5.7208e-05
5.72089e-05
5.72098e-05
5.66053e-05
5.66069e-05
5.66083e-05
5.60349e-05
5.60369e-05
5.6038e-05
5.6651e-05
5.66533e-05
5.66537e-05
5.78955e-05
5.78983e-05
5.78982e-05
5.93812e-05
5.93842e-05
5.93836e-05
6.09267e-05
6.09295e-05
6.09287e-05
6.24516e-05
6.24544e-05
6.24533e-05
6.39132e-05
6.39158e-05
6.39147e-05
6.53011e-05
6.53029e-05
6.53021e-05
6.65942e-05
6.65956e-05
6.65949e-05
6.77763e-05
6.77766e-05
6.77763e-05
6.88578e-05
6.88564e-05
6.88555e-05
6.9704e-05
6.97009e-05
6.96988e-05
6.97044e-05
6.97013e-05
6.96992e-05
6.88581e-05
6.88567e-05
6.88558e-05
6.7777e-05
6.77772e-05
6.77769e-05
6.65958e-05
6.65971e-05
6.65965e-05
6.53032e-05
6.5305e-05
6.53042e-05
6.39177e-05
6.39203e-05
6.39192e-05
6.24567e-05
6.24594e-05
6.24583e-05
6.09317e-05
6.09346e-05
6.09338e-05
5.9385e-05
5.9388e-05
5.93874e-05
5.78965e-05
5.78992e-05
5.78991e-05
5.66495e-05
5.66518e-05
5.66522e-05
5.60341e-05
5.60361e-05
5.60371e-05
5.66083e-05
5.66098e-05
5.66113e-05
5.7213e-05
5.7214e-05
5.72148e-05
2.70857e-05
2.70854e-05
2.70858e-05
2.80201e-05
2.80201e-05
2.80203e-05
6.86358e-05
6.8637e-05
6.86382e-05
7.01036e-05
7.01066e-05
7.01081e-05
6.93301e-05
6.93337e-05
6.93348e-05
6.9493e-05
6.94967e-05
6.94968e-05
7.0548e-05
7.0552e-05
7.05515e-05
7.20584e-05
7.20627e-05
7.20615e-05
7.37575e-05
7.37616e-05
7.37601e-05
7.55089e-05
7.55129e-05
7.5511e-05
7.72264e-05
7.72302e-05
7.72282e-05
7.88808e-05
7.88837e-05
7.88821e-05
8.04348e-05
8.04372e-05
8.04358e-05
8.18617e-05
8.18627e-05
8.18618e-05
8.31833e-05
8.31823e-05
8.31808e-05
8.4234e-05
8.42311e-05
8.42279e-05
8.42346e-05
8.42317e-05
8.42285e-05
8.31839e-05
8.31829e-05
8.31814e-05
8.18628e-05
8.18637e-05
8.18629e-05
8.0437e-05
8.04394e-05
8.0438e-05
7.88837e-05
7.88866e-05
7.8885e-05
7.72326e-05
7.72363e-05
7.72343e-05
7.55159e-05
7.55198e-05
7.55179e-05
7.37646e-05
7.37686e-05
7.37671e-05
7.20637e-05
7.2068e-05
7.20668e-05
7.05492e-05
7.05533e-05
7.05527e-05
6.94905e-05
6.94942e-05
6.94943e-05
6.93287e-05
6.93323e-05
6.93333e-05
7.01078e-05
7.01107e-05
7.01123e-05
6.86424e-05
6.86435e-05
6.86448e-05
2.80182e-05
2.80182e-05
2.80184e-05
3.09684e-05
3.09675e-05
3.09688e-05
7.62959e-05
7.62993e-05
7.62991e-05
8.38054e-05
8.38113e-05
8.38119e-05
8.39505e-05
8.39572e-05
8.39575e-05
8.37197e-05
8.37257e-05
8.37249e-05
8.43895e-05
8.43955e-05
8.43937e-05
8.57456e-05
8.57518e-05
8.57492e-05
8.74796e-05
8.74853e-05
8.74824e-05
8.9395e-05
8.94005e-05
8.9397e-05
9.13402e-05
9.13456e-05
9.1342e-05
9.32533e-05
9.32579e-05
9.32546e-05
9.50756e-05
9.50799e-05
9.50768e-05
9.67562e-05
9.6759e-05
9.67566e-05
9.83311e-05
9.83319e-05
9.83288e-05
9.96045e-05
9.96028e-05
9.95977e-05
9.96056e-05
9.96038e-05
9.95987e-05
9.83321e-05
9.83329e-05
9.83298e-05
9.67579e-05
9.67605e-05
9.67581e-05
9.50788e-05
9.5083e-05
9.50799e-05
9.32571e-05
9.32617e-05
9.32584e-05
9.13484e-05
9.13539e-05
9.13501e-05
8.94041e-05
8.94097e-05
8.94062e-05
8.74891e-05
8.74948e-05
8.74917e-05
8.57527e-05
8.57586e-05
8.5756e-05
8.43902e-05
8.43962e-05
8.43945e-05
8.37151e-05
8.37213e-05
8.37204e-05
8.39478e-05
8.39544e-05
8.39548e-05
8.38105e-05
8.38162e-05
8.38169e-05
7.63032e-05
7.63065e-05
7.63064e-05
3.09667e-05
3.09657e-05
3.0967e-05
3.20123e-05
3.20103e-05
3.20127e-05
7.88575e-05
7.88599e-05
7.88611e-05
8.90578e-05
8.90611e-05
8.90652e-05
8.98723e-05
8.98759e-05
8.98804e-05
8.96063e-05
8.96088e-05
8.9612e-05
9.01515e-05
9.01538e-05
9.01559e-05
9.14522e-05
9.14546e-05
9.14559e-05
9.32073e-05
9.32091e-05
9.32102e-05
9.52035e-05
9.52049e-05
9.52053e-05
9.72602e-05
9.72613e-05
9.72617e-05
9.92994e-05
9.92999e-05
9.93006e-05
0.000101254
0.000101254
0.000101255
0.000103059
0.000103058
0.000103059
0.000104758
0.000104754
0.000104755
0.00010614
0.000106134
0.000106133
0.000106142
0.000106135
0.000106134
0.000104759
0.000104755
0.000104757
0.000103061
0.000103059
0.000103061
0.000101258
0.000101258
0.000101259
9.93036e-05
9.93041e-05
9.93048e-05
9.72692e-05
9.72707e-05
9.72707e-05
9.52135e-05
9.52152e-05
9.52156e-05
9.32178e-05
9.32196e-05
9.32202e-05
9.146e-05
9.1462e-05
9.14633e-05
9.01517e-05
9.0154e-05
9.01562e-05
8.96003e-05
8.96032e-05
8.96064e-05
8.98688e-05
8.98723e-05
8.98769e-05
8.9063e-05
8.90662e-05
8.90704e-05
7.8865e-05
7.88673e-05
7.88686e-05
3.20106e-05
3.20086e-05
3.20109e-05
3.2923e-05
3.29218e-05
3.29234e-05
8.66758e-05
8.66795e-05
8.66804e-05
0.00010266
0.000102668
0.00010267
0.000105381
0.00010539
0.000105392
0.000105059
0.000105066
0.000105067
0.000105177
0.000105182
0.000105182
0.000106185
0.00010619
0.000106189
0.00010785
0.000107854
0.000107853
0.000109931
0.000109934
0.000109932
0.000112169
0.000112173
0.00011217
0.000114443
0.000114446
0.000114444
0.000116663
0.000116666
0.000116664
0.000118719
0.000118721
0.000118719
0.000120677
0.000120675
0.000120674
0.000122304
0.000122301
0.000122296
0.000122306
0.000122302
0.000122298
0.000120679
0.000120678
0.000120676
0.000118722
0.000118723
0.000118722
0.000116668
0.000116671
0.000116668
0.000114448
0.000114452
0.000114449
0.000112181
0.000112185
0.000112182
0.000109943
0.000109947
0.000109945
0.000107863
0.000107867
0.000107865
0.000106195
0.000106199
0.000106198
0.000105175
0.000105181
0.00010518
0.000105049
0.000105056
0.000105057
0.000105375
0.000105383
0.000105386
0.000102666
0.000102673
0.000102676
8.66843e-05
8.66877e-05
8.66888e-05
3.29212e-05
3.29199e-05
3.29215e-05
3.25763e-05
3.25763e-05
3.25767e-05
9.46854e-05
9.4689e-05
9.46913e-05
0.000118422
0.000118433
0.000118436
0.000124555
0.000124569
0.000124571
0.000124699
0.000124709
0.00012471
0.00012437
0.000124377
0.000124376
0.000124921
0.000124927
0.000124924
0.00012635
0.000126355
0.000126352
0.000128448
0.000128452
0.000128447
0.000130858
0.000130862
0.000130857
0.000133392
0.000133395
0.000133391
0.000135935
0.000135939
0.000135935
0.000138297
0.0001383
0.000138297
0.00014058
0.000140579
0.000140576
0.000142535
0.000142532
0.000142526
0.000142537
0.000142534
0.000142528
0.000140583
0.000140583
0.00014058
0.000138301
0.000138304
0.000138301
0.000135941
0.000135945
0.000135941
0.000133398
0.000133401
0.000133397
0.000130874
0.000130878
0.000130873
0.000128464
0.000128468
0.000128463
0.000126367
0.000126372
0.000126368
0.000124932
0.000124938
0.000124935
0.000124365
0.000124372
0.000124371
0.000124682
0.000124692
0.000124693
0.000124545
0.000124558
0.00012456
0.000118429
0.00011844
0.000118442
9.46949e-05
9.46984e-05
9.47006e-05
3.25741e-05
3.2574e-05
3.25743e-05
3.68162e-05
3.68131e-05
3.68169e-05
9.70733e-05
9.70808e-05
9.70803e-05
0.000130655
0.000130672
0.000130673
0.000142789
0.000142811
0.000142811
0.00014504
0.000145056
0.000145054
0.000144796
0.000144806
0.000144802
0.000144849
0.000144857
0.00014485
0.000145817
0.000145823
0.000145815
0.000147712
0.000147716
0.000147708
0.000150134
0.000150138
0.000150129
0.000152812
0.000152817
0.000152808
0.000155623
0.000155629
0.00015562
0.00015825
0.000158255
0.000158248
0.000160828
0.00016083
0.000160823
0.000163111
0.000163111
0.000163101
0.000163115
0.000163114
0.000163104
0.000160833
0.000160836
0.000160829
0.000158256
0.000158261
0.000158254
0.000155632
0.000155637
0.000155629
0.00015282
0.000152824
0.000152816
0.000150154
0.000150159
0.000150149
0.000147732
0.000147737
0.000147727
0.000145837
0.000145843
0.000145835
0.00014486
0.000144867
0.00014486
0.000144785
0.000144794
0.00014479
0.000145012
0.000145029
0.000145027
0.000142772
0.000142793
0.000142793
0.000130661
0.000130678
0.000130678
9.70823e-05
9.70892e-05
9.70892e-05
3.68144e-05
3.68111e-05
3.6815e-05
3.81693e-05
3.81637e-05
3.81701e-05
9.76032e-05
9.76109e-05
9.76106e-05
0.000134709
0.000134724
0.000134728
0.000149391
0.000149408
0.000149415
0.000152808
0.000152818
0.000152824
0.000152845
0.000152847
0.000152851
0.000152827
0.000152825
0.000152826
0.000153662
0.000153658
0.000153658
0.000155502
0.000155496
0.000155495
0.00015795
0.000157945
0.000157943
0.000160709
0.000160704
0.000160703
0.000163659
0.000163655
0.000163654
0.000166421
0.000166416
0.000166417
0.000169147
0.000169139
0.000169141
0.000171592
0.000171582
0.00017158
0.000171596
0.000171585
0.000171584
0.000169153
0.000169146
0.000169147
0.000166427
0.000166423
0.000166424
0.000163668
0.000163663
0.000163663
0.000160716
0.000160711
0.00016071
0.000157972
0.000157967
0.000157965
0.000155523
0.000155518
0.000155516
0.000153683
0.000153679
0.00015368
0.000152837
0.000152834
0.000152836
0.00015283
0.000152831
0.000152835
0.000152775
0.000152785
0.000152792
0.000149371
0.000149388
0.000149394
0.000134714
0.000134728
0.000134733
9.7612e-05
9.76193e-05
9.76193e-05
3.81676e-05
3.81619e-05
3.81684e-05
3.79075e-05
3.79044e-05
3.79083e-05
0.000100969
0.000100976
0.000100977
0.000146126
0.000146146
0.000146149
0.000167283
0.000167309
0.000167313
0.000173822
0.000173841
0.000173843
0.000174619
0.000174626
0.000174625
0.000174289
0.000174288
0.000174283
0.000174552
0.000174549
0.000174542
0.000176003
0.000175999
0.00017599
0.000178297
0.000178292
0.000178283
0.000181067
0.000181064
0.000181055
0.000184221
0.000184218
0.00018421
0.00018719
0.000187189
0.000187182
0.000190182
0.000190179
0.000190174
0.000192986
0.000192979
0.00019297
0.000192992
0.000192985
0.000192975
0.000190191
0.000190189
0.000190182
0.000187199
0.000187198
0.000187192
0.000184232
0.000184229
0.000184221
0.000181075
0.000181071
0.000181063
0.000178325
0.00017832
0.00017831
0.00017603
0.000176025
0.000176016
0.000174576
0.000174573
0.000174567
0.000174296
0.000174296
0.000174291
0.000174592
0.000174598
0.000174597
0.000173774
0.000173793
0.000173795
0.000167253
0.00016728
0.000167284
0.00014613
0.000146149
0.000146152
0.000100978
0.000100985
0.000100986
3.79055e-05
3.79023e-05
3.79062e-05
3.65329e-05
3.65325e-05
3.65334e-05
0.000103213
0.00010322
0.000103222
0.000157169
0.000157192
0.000157197
0.0001868
0.000186834
0.000186839
0.000198449
0.000198474
0.000198476
0.000201231
0.000201238
0.000201235
0.000201008
0.000201004
0.000200995
0.00020061
0.000200601
0.00020059
0.000201431
0.000201418
0.000201404
0.000203352
0.000203339
0.000203323
0.000205968
0.000205959
0.000205945
0.000209289
0.000209281
0.000209268
0.000212446
0.000212442
0.00021243
0.000215726
0.000215722
0.000215711
0.000218993
0.000218984
0.000218969
0.000219002
0.000218992
0.000218977
0.00021574
0.000215735
0.000215724
0.000212459
0.000212455
0.000212443
0.000209303
0.000209295
0.000209282
0.000205975
0.000205966
0.000205952
0.000203387
0.000203374
0.000203359
0.000201461
0.000201449
0.000201435
0.000200636
0.000200627
0.000200616
0.000201011
0.000201006
0.000200998
0.000201184
0.000201191
0.000201188
0.000198376
0.000198401
0.000198404
0.000186757
0.000186791
0.000186795
0.00015717
0.000157193
0.000157198
0.000103222
0.000103229
0.000103232
3.65302e-05
3.65298e-05
3.65307e-05
4.18813e-05
4.18729e-05
4.18825e-05
0.000102387
0.000102397
0.000102398
0.000162077
0.000162108
0.000162108
0.000200818
0.000200863
0.000200863
0.000219808
0.000219845
0.000219841
0.00022669
0.000226703
0.000226692
0.000227864
0.000227858
0.00022784
0.000227227
0.000227213
0.000227191
0.000227246
0.000227225
0.0002272
0.000228434
0.000228412
0.000228386
0.000230542
0.000230525
0.0002305
0.000233767
0.000233754
0.000233728
0.000236947
0.000236939
0.000236915
0.000240392
0.000240387
0.000240364
0.000244045
0.000244033
0.000244007
0.000244056
0.000244045
0.000244017
0.000240411
0.000240406
0.000240382
0.000236965
0.000236957
0.000236933
0.000233784
0.000233771
0.000233745
0.000230548
0.000230531
0.000230506
0.000228477
0.000228455
0.000228429
0.00022728
0.00022726
0.000227235
0.000227254
0.000227239
0.000227217
0.000227854
0.000227847
0.000227829
0.000226617
0.00022663
0.000226619
0.000219709
0.000219746
0.000219742
0.00020076
0.000200806
0.000200805
0.000162072
0.000162103
0.000162103
0.000102394
0.000102404
0.000102405
4.18792e-05
4.18709e-05
4.18804e-05
4.33128e-05
4.33001e-05
4.33142e-05
0.00010205
0.000102061
0.000102062
0.000163302
0.000163333
0.000163335
0.000205114
0.000205155
0.00020516
0.000226958
0.000226986
0.000226994
0.000235752
0.00023575
0.000235754
0.000237848
0.000237822
0.000237819
0.000237393
0.000237356
0.000237349
0.000237239
0.000237195
0.000237185
0.000238202
0.000238157
0.000238144
0.000240137
0.000240097
0.000240085
0.000243362
0.000243325
0.000243313
0.000246587
0.000246558
0.000246547
0.00025014
0.000250114
0.000250105
0.000253992
0.000253958
0.000253946
0.000254004
0.00025397
0.000253958
0.000250162
0.000250135
0.000250126
0.000246607
0.000246577
0.000246567
0.00024338
0.000243343
0.000243331
0.000240141
0.000240102
0.00024009
0.000238249
0.000238203
0.000238191
0.000237275
0.000237231
0.00023722
0.000237419
0.000237381
0.000237375
0.000237832
0.000237805
0.000237802
0.000235667
0.000235666
0.000235669
0.000226849
0.000226877
0.000226885
0.00020505
0.000205091
0.000205097
0.000163296
0.000163326
0.000163328
0.000102056
0.000102068
0.000102068
4.33108e-05
4.32983e-05
4.33122e-05
4.18007e-05
4.17946e-05
4.18019e-05
0.000102221
0.000102231
0.000102233
0.000167889
0.000167922
0.000167926
0.000217611
0.000217661
0.000217666
0.000247046
0.000247084
0.000247087
0.000261116
0.00026112
0.000261114
0.000265794
0.000265766
0.000265749
0.000265718
0.000265672
0.00026565
0.000264801
0.000264744
0.00026472
0.000264755
0.000264696
0.000264668
0.000265808
0.000265757
0.00026573
0.000268705
0.000268657
0.000268629
0.00027177
0.000271733
0.000271706
0.000275387
0.000275356
0.00027533
0.000279662
0.000279622
0.000279594
0.000279678
0.000279638
0.000279609
0.000275416
0.000275383
0.000275357
0.000271796
0.000271758
0.000271732
0.000268725
0.000268678
0.00026865
0.000265807
0.000265756
0.000265729
0.000264811
0.000264752
0.000264724
0.000264838
0.000264782
0.000264756
0.00026574
0.000265694
0.000265673
0.000265759
0.00026573
0.000265714
0.000260995
0.000261
0.000260993
0.000246901
0.00024694
0.000246942
0.000217529
0.000217579
0.000217584
0.000167879
0.000167911
0.000167914
0.000102227
0.000102236
0.000102238
4.17981e-05
4.1792e-05
4.17993e-05
4.046e-05
4.04577e-05
4.04609e-05
0.000101723
0.000101732
0.000101735
0.000169954
0.000169987
0.000169993
0.000227466
0.000227521
0.000227528
0.000266164
0.000266208
0.000266212
0.00028801
0.000288014
0.000288004
0.000297567
0.000297525
0.000297501
0.000299224
0.000299154
0.000299124
0.000297812
0.000297725
0.000297691
0.000296387
0.000296294
0.000296256
0.000295986
0.000295902
0.000295864
0.000298169
0.00029809
0.000298049
0.00030085
0.000300784
0.000300744
0.000304431
0.000304373
0.000304334
0.000309182
0.000309115
0.000309073
0.000309201
0.000309136
0.000309092
0.000304467
0.000304409
0.00030437
0.000300882
0.000300817
0.000300777
0.000298192
0.000298113
0.000298072
0.000295972
0.00029589
0.000295851
0.000296454
0.000296361
0.000296322
0.000297847
0.000297761
0.000297726
0.000299237
0.000299167
0.000299136
0.000297502
0.000297459
0.000297436
0.000287839
0.000287844
0.000287832
0.000265974
0.000266018
0.000266022
0.000227361
0.000227417
0.000227424
0.000169938
0.000169971
0.000169976
0.000101728
0.000101737
0.000101739
4.0457e-05
4.04547e-05
4.04578e-05
4.66152e-05
4.65962e-05
4.6617e-05
0.000100781
0.000100792
0.000100794
0.000168179
0.000168215
0.000168219
0.000230052
0.000230114
0.000230116
0.000277104
0.000277159
0.000277154
0.000307774
0.000307788
0.000307763
0.000324257
0.000324214
0.000324172
0.00032973
0.000329647
0.000329596
0.000328948
0.00032884
0.000328785
0.000326216
0.000326098
0.000326038
0.000323951
0.00032384
0.000323779
0.000324801
0.000324694
0.00032463
0.000326785
0.000326692
0.000326627
0.000330126
0.000330042
0.000329978
0.000335079
0.000334987
0.000334919
0.000335102
0.000335011
0.000334942
0.00033017
0.000330086
0.000330021
0.000326824
0.000326731
0.000326666
0.000324821
0.000324714
0.00032465
0.000323923
0.000323813
0.000323752
0.000326282
0.000326163
0.000326103
0.000328975
0.000328867
0.000328811
0.000329722
0.000329638
0.000329587
0.000324151
0.000324107
0.000324064
0.000307554
0.000307568
0.000307543
0.000276877
0.000276932
0.000276928
0.000229926
0.000229989
0.000229991
0.000168151
0.000168188
0.000168192
0.000100782
0.000100792
0.000100795
4.66128e-05
4.65936e-05
4.66145e-05
4.78341e-05
4.78092e-05
4.78361e-05
0.000100598
0.000100609
0.000100611
0.000167473
0.000167511
0.000167513
0.000230326
0.000230389
0.000230392
0.000279861
0.000279911
0.000279912
0.000313586
0.000313587
0.000313575
0.000332835
0.000332768
0.000332744
0.000340137
0.000340019
0.000339991
0.000339969
0.000339821
0.000339791
0.000336974
0.000336814
0.000336778
0.000334091
0.000333939
0.000333901
0.000334487
0.000334339
0.000334296
0.00033627
0.000336135
0.000336091
0.00033959
0.000339464
0.00033942
0.000344684
0.000344551
0.000344503
0.000344709
0.000344576
0.000344527
0.000339636
0.000339511
0.000339466
0.000336311
0.000336176
0.000336132
0.000334506
0.000334357
0.000334314
0.000334055
0.000333903
0.000333865
0.000337038
0.000336877
0.000336842
0.000339992
0.000339844
0.000339813
0.000340121
0.000340002
0.000339974
0.000332714
0.000332645
0.000332621
0.000313348
0.00031335
0.000313337
0.000279621
0.000279671
0.000279673
0.000230193
0.000230258
0.00023026
0.000167443
0.000167481
0.000167484
0.000100598
0.000100609
0.000100611
4.78319e-05
4.78068e-05
4.78337e-05
4.52035e-05
4.51924e-05
4.52048e-05
0.000100004
0.000100014
0.000100016
0.000165834
0.000165869
0.000165875
0.000231303
0.000231367
0.000231376
0.000287441
0.000287495
0.0002875
0.000329747
0.000329752
0.000329734
0.000356998
0.000356925
0.000356888
0.00036955
0.000369417
0.00036937
0.000370979
0.000370811
0.00037076
0.000366827
0.00036664
0.000366583
0.000361581
0.0003614
0.00036134
0.000360194
0.000360012