/*--------------------------------*- C++ -*----------------------------------*\
  =========                 |
  \\      /  F ield         | OpenFOAM: The Open Source CFD Toolbox
   \\    /   O peration     | Website:  https://openfoam.org
    \\  /    A nd           | Version:  6
     \\/     M anipulation  |
\*---------------------------------------------------------------------------*/
FoamFile
{
    version     2.0;
    format      ascii;
    class       volScalarField;
    location    "32";
    object      omega;
}
// * * * * * * * * * * * * * * * * * * * * * * * * * * * * * * * * * * * * * //

dimensions      [0 0 -1 0 0 0 0];

internalField   nonuniform List<scalar> 
380496
(
843.917
843.917
843.917
843.917
843.917
843.917
843.917
843.917
843.917
843.917
843.917
843.917
843.917
843.917
843.917
843.917
843.917
843.917
843.917
843.917
843.917
843.917
843.917
843.917
843.917
843.917
843.917
843.917
843.917
843.917
843.917
843.917
843.917
843.917
843.917
843.917
843.917
843.917
843.917
843.917
843.917
843.917
843.917
843.917
843.917
843.917
843.917
843.917
843.917
843.917
843.917
843.917
843.917
843.917
843.917
843.917
843.917
843.917
843.917
843.917
843.917
843.917
843.917
843.917
843.917
843.917
843.917
843.917
843.917
843.917
843.917
843.917
843.917
843.917
843.917
843.917
843.917
843.917
843.917
843.917
843.917
843.917
843.917
843.917
843.917
843.917
843.917
843.917
843.917
843.917
843.917
843.917
843.917
843.917
843.917
843.917
843.917
843.917
843.917
843.917
843.917
843.917
843.917
843.917
843.917
843.917
843.917
843.917
843.917
843.917
843.917
843.917
843.917
843.917
843.917
843.917
843.917
843.917
843.917
843.917
843.917
843.917
843.917
843.917
843.917
843.917
843.917
843.917
843.917
843.917
843.917
843.917
843.917
843.917
843.917
843.917
843.917
843.917
843.917
843.917
843.917
843.917
843.917
843.917
843.917
843.917
843.917
843.917
843.917
843.917
843.917
843.917
843.917
843.917
843.917
843.917
843.917
843.917
843.917
843.917
843.917
843.917
843.917
843.917
843.917
843.917
843.917
843.917
843.917
843.917
843.917
843.917
843.917
843.917
843.917
843.917
843.917
843.917
843.917
843.917
843.917
843.917
843.917
843.917
843.917
843.917
843.917
843.917
843.917
843.917
843.917
843.917
843.917
843.917
843.917
843.917
843.917
843.917
843.917
843.917
843.917
843.917
843.917
843.917
843.917
843.917
843.917
843.917
843.917
843.917
843.917
843.917
843.917
843.917
843.917
843.917
843.917
843.917
843.917
843.917
843.917
843.917
843.917
843.917
843.917
843.917
843.917
843.917
843.917
843.917
843.917
843.917
843.917
843.917
843.917
843.917
843.917
843.917
843.917
843.917
843.917
843.917
843.917
843.917
843.917
843.917
843.917
843.917
843.917
843.917
843.917
843.917
843.917
843.917
843.917
843.917
843.917
843.917
843.917
843.917
843.917
843.917
843.917
843.917
843.917
843.917
843.917
843.917
843.917
843.917
843.917
843.917
843.917
843.917
843.917
843.917
843.917
843.917
843.917
843.917
843.917
843.917
843.917
843.917
843.917
843.917
843.917
843.917
843.917
843.917
843.917
843.917
843.917
843.917
843.917
843.917
843.917
843.917
843.917
843.917
843.917
843.917
843.917
843.917
843.917
843.917
843.917
843.917
843.917
843.917
843.917
843.917
843.917
843.917
843.917
843.917
843.917
843.917
843.917
843.917
843.917
843.917
843.917
843.917
843.917
843.917
843.917
843.917
843.917
843.917
843.917
843.917
843.917
843.917
843.917
843.917
843.917
843.917
843.917
843.917
843.917
843.917
843.917
843.917
843.917
843.917
843.917
843.917
843.917
843.917
843.917
843.917
843.917
843.917
843.917
843.917
843.917
843.917
843.917
843.917
843.917
843.917
843.917
843.917
843.917
843.917
843.917
843.917
843.917
843.917
843.917
843.917
843.917
843.917
843.917
843.917
843.917
843.917
843.917
843.917
843.917
843.917
843.917
843.917
843.917
843.917
843.917
843.917
843.917
843.917
843.917
843.917
843.917
843.917
843.917
843.917
843.917
843.917
843.917
843.917
843.917
843.917
843.917
843.917
843.917
843.917
843.917
843.917
843.917
843.917
843.917
843.917
843.917
843.917
843.917
843.917
843.917
843.917
843.917
843.917
843.917
843.917
843.917
843.917
843.917
843.917
843.917
843.917
843.917
843.917
843.917
843.917
843.917
843.917
843.917
843.917
843.917
843.917
843.917
843.917
843.917
843.917
843.917
843.917
843.917
843.917
843.917
843.917
843.917
843.917
843.917
843.917
843.917
843.917
843.917
843.917
843.917
843.917
843.917
843.917
843.917
843.917
843.917
843.917
843.917
843.917
843.917
843.917
843.917
843.917
843.917
843.917
843.917
843.917
843.917
843.917
843.917
843.917
843.917
843.917
843.917
843.917
843.917
843.917
843.917
843.917
843.917
843.917
843.917
843.917
843.917
843.917
843.917
843.917
843.917
843.917
843.917
843.917
843.917
843.917
843.917
843.917
843.917
843.917
843.917
843.917
843.917
843.917
843.917
843.917
843.917
843.917
843.917
843.917
843.917
843.917
843.917
843.917
843.917
843.917
843.917
843.917
843.917
843.917
843.917
843.917
843.917
843.917
843.917
843.917
843.917
843.917
843.917
843.917
843.917
843.917
843.917
843.917
843.917
843.917
843.917
843.917
843.917
843.917
843.917
843.917
843.917
843.917
843.917
843.917
843.917
843.917
843.917
843.917
843.917
843.917
843.917
843.917
843.917
843.917
843.917
843.917
843.917
843.917
843.917
843.917
843.917
843.917
843.917
843.917
843.917
843.917
843.917
843.917
843.917
843.917
843.917
843.917
843.917
843.917
843.917
843.917
843.917
843.917
843.917
843.917
843.917
843.917
843.917
843.917
843.917
843.917
843.917
843.917
843.917
843.917
843.917
843.917
843.917
843.917
843.917
843.917
843.917
843.917
843.917
843.917
843.917
843.917
843.917
843.917
843.917
843.917
843.917
843.917
843.917
843.917
843.917
843.917
843.917
843.917
843.917
843.917
843.917
843.917
843.917
843.917
843.917
843.917
843.917
843.917
843.917
843.917
843.917
843.917
843.917
843.917
843.917
843.917
843.917
843.917
843.917
843.917
843.917
843.917
843.917
843.917
843.917
843.917
843.917
843.917
843.917
843.917
843.917
843.917
843.917
843.917
843.917
843.917
843.917
843.917
843.917
843.917
843.917
843.917
843.917
843.917
843.917
843.917
843.917
843.917
843.917
843.917
843.917
843.917
843.917
843.917
843.917
843.917
843.917
843.917
843.917
843.917
843.917
843.917
843.917
843.917
843.917
843.917
843.917
843.917
843.917
843.917
843.917
843.917
843.917
843.917
843.917
843.917
843.917
843.917
423.923
423.923
423.923
423.923
423.923
424.288
424.281
424.264
424.272
424.295
424.32
424.34
424.363
424.382
424.405
424.425
424.45
424.471
424.498
424.521
424.551
424.576
424.609
424.636
424.673
424.702
424.743
424.772
424.819
424.846
424.901
424.921
424.989
424.99
425.072
275.638
262.144
263.673
264.573
264.559
264.418
264.334
264.289
264.267
264.253
264.25
264.249
264.253
264.259
264.267
264.279
264.289
264.307
264.319
264.343
264.358
264.388
264.408
264.446
264.471
264.518
264.551
264.606
264.65
264.711
264.767
264.836
264.897
264.985
265.023
275.378
261.96
263.393
264.253
264.226
264.084
263.997
263.955
263.93
263.923
263.917
263.925
263.927
263.944
263.951
263.973
263.984
264.011
264.027
264.06
264.082
264.119
264.149
264.193
264.231
264.284
264.329
264.392
264.444
264.519
264.574
264.664
264.709
264.833
264.788
274.938
261.626
263.023
263.851
263.812
263.667
263.581
263.542
263.521
263.519
263.52
263.533
263.544
263.566
263.583
263.612
263.633
263.67
263.696
263.741
263.772
263.826
263.864
263.928
263.975
264.047
264.105
264.185
264.255
264.344
264.421
264.524
264.592
264.736
264.711
274.255
261.102
262.54
263.341
263.28
263.131
263.045
263.012
262.997
263.004
263.011
263.035
263.053
263.085
263.111
263.15
263.181
263.227
263.266
263.319
263.365
263.428
263.482
263.556
263.617
263.704
263.773
263.873
263.948
264.062
264.142
264.271
264.34
264.512
264.481
273.787
260.732
262.024
262.77
262.702
262.553
262.469
262.438
262.427
262.438
262.451
262.48
262.505
262.543
262.576
262.624
262.663
262.72
262.766
262.833
262.888
262.965
263.029
263.118
263.193
263.293
263.379
263.491
263.586
263.711
263.812
263.953
264.041
264.236
264.21
272.915
260.038
261.328
262.034
261.947
261.796
261.717
261.695
261.693
261.715
261.739
261.779
261.813
261.864
261.906
261.966
262.016
262.085
262.143
262.222
262.29
262.38
262.459
262.561
262.65
262.765
262.864
262.994
263.101
263.245
263.356
263.519
263.614
263.836
263.806
272.061
259.34
260.531
261.181
261.08
260.93
260.857
260.842
260.85
260.88
260.914
260.962
261.007
261.066
261.12
261.189
261.25
261.329
261.4
261.491
261.572
261.676
261.767
261.885
261.986
262.119
262.231
262.377
262.498
262.66
262.786
262.966
263.074
263.319
263.291
271.026
258.479
259.567
260.157
260.044
259.896
259.832
259.828
259.847
259.889
259.933
259.992
260.047
260.117
260.18
260.26
260.333
260.423
260.506
260.609
260.702
260.82
260.924
261.056
261.172
261.318
261.446
261.607
261.743
261.919
262.059
262.257
262.375
262.643
262.612
269.807
257.456
258.457
258.985
258.857
258.716
258.666
258.677
258.712
258.768
258.825
258.897
258.964
259.045
259.121
259.212
259.296
259.399
259.493
259.61
259.716
259.846
259.964
260.11
260.239
260.401
260.541
260.718
260.867
261.059
261.211
261.426
261.554
261.844
261.811
268.657
256.454
257.277
257.74
257.61
257.478
257.442
257.466
257.513
257.579
257.647
257.727
257.804
257.894
257.979
258.079
258.173
258.286
258.392
258.519
258.636
258.779
258.909
259.067
259.209
259.383
259.536
259.726
259.887
260.094
260.257
260.487
260.623
260.933
260.895
267.087
255.101
255.846
256.251
256.111
255.995
255.985
256.033
256.102
256.187
256.273
256.369
256.46
256.563
256.661
256.774
256.881
257.006
257.124
257.263
257.394
257.549
257.692
257.863
258.018
258.206
258.372
258.575
258.749
258.969
259.144
259.389
259.534
259.863
259.821
265.666
253.803
254.279
254.616
254.485
254.389
254.4
254.465
254.549
254.645
254.742
254.847
254.949
255.061
255.169
255.291
255.409
255.544
255.674
255.825
255.967
256.134
256.29
256.474
256.642
256.843
257.021
257.238
257.425
257.658
257.845
258.103
258.257
258.605
258.558
263.602
251.962
252.321
252.61
252.487
252.426
252.479
252.58
252.695
252.817
252.936
253.059
253.179
253.306
253.43
253.565
253.698
253.846
253.99
254.154
254.31
254.49
254.66
254.858
255.039
255.254
255.446
255.678
255.877
256.125
256.323
256.597
256.759
257.126
257.072
261.657
250.111
250.128
250.362
250.265
250.245
250.335
250.462
250.599
250.738
250.874
251.01
251.143
251.282
251.419
251.566
251.711
251.872
252.029
252.205
252.375
252.568
252.751
252.963
253.158
253.388
253.593
253.839
254.051
254.313
254.523
254.812
254.984
255.371
255.308
258.961
247.586
247.37
247.584
247.529
247.576
247.73
247.906
248.083
248.253
248.415
248.572
248.725
248.88
249.034
249.194
249.355
249.528
249.699
249.888
250.072
250.278
250.475
250.7
250.91
251.153
251.372
251.633
251.858
252.136
252.359
252.664
252.845
253.254
253.181
255.939
244.637
244.052
244.272
244.29
244.421
244.641
244.868
245.083
245.283
245.469
245.645
245.815
245.982
246.149
246.32
246.492
246.674
246.857
247.055
247.252
247.468
247.679
247.916
248.14
248.397
248.632
248.907
249.148
249.442
249.679
250.002
250.196
250.626
250.547
252.317
240.988
239.927
240.186
240.311
240.557
240.862
241.145
241.394
241.616
241.812
241.995
242.167
242.336
242.504
242.676
242.852
243.038
243.229
243.434
243.643
243.871
244.098
244.35
244.593
244.867
245.123
245.418
245.682
245.997
246.257
246.601
246.82
247.274
247.21
246.448
235.384
234.178
234.679
234.989
235.387
235.784
236.121
236.391
236.625
236.818
237.002
237.169
237.342
237.513
237.698
237.886
238.093
238.306
238.538
238.776
239.035
239.296
239.581
239.861
240.17
240.465
240.795
241.097
241.447
241.747
242.122
242.383
242.857
242.842
238.155
227.579
225.862
226.733
227.334
227.911
228.379
228.738
229.006
229.248
229.452
229.667
229.864
230.088
230.303
230.55
230.789
231.06
231.325
231.622
231.915
232.237
232.555
232.9
233.239
233.605
233.96
234.343
234.707
235.106
235.468
235.887
236.219
236.72
236.839
218.095
211.367
210.037
211.657
212.786
213.68
214.361
214.897
215.336
215.74
216.089
216.438
216.75
217.081
217.384
217.72
218.032
218.387
218.722
219.104
219.464
219.869
220.257
220.688
221.103
221.552
221.988
222.449
222.9
223.367
223.821
224.283
224.719
225.121
225.374
9.50423
8.83565
9.16121
9.29923
9.37671
9.42569
9.47263
9.50521
9.5364
9.57159
9.61552
9.64927
9.69256
9.7257
9.77091
9.8058
9.8546
9.89242
9.94555
9.98664
10.0444
10.0887
10.1517
10.1986
10.2679
10.3156
10.3928
10.4378
10.5261
10.5626
10.6676
10.6849
10.816
10.7938
10.9557
133.59
127.215
127.094
127.666
127.852
127.834
127.782
127.738
127.708
127.688
127.676
127.668
127.666
127.666
127.67
127.675
127.683
127.692
127.704
127.717
127.732
127.75
127.771
127.792
127.819
127.847
127.881
127.917
127.959
128.004
128.055
128.114
128.173
128.253
128.32
133.311
126.951
126.79
127.334
127.509
127.487
127.433
127.388
127.358
127.339
127.328
127.324
127.323
127.327
127.333
127.343
127.354
127.368
127.383
127.402
127.422
127.445
127.471
127.499
127.532
127.566
127.608
127.647
127.7
127.745
127.81
127.862
127.934
128.011
128.047
132.937
126.596
126.417
126.944
127.109
127.085
127.029
126.985
126.956
126.941
126.933
126.932
126.936
126.945
126.957
126.972
126.989
127.009
127.031
127.056
127.084
127.115
127.15
127.186
127.228
127.271
127.322
127.373
127.434
127.492
127.564
127.631
127.711
127.803
127.854
132.435
126.122
125.96
126.48
126.635
126.605
126.547
126.506
126.479
126.468
126.465
126.47
126.479
126.494
126.511
126.533
126.556
126.583
126.612
126.644
126.679
126.717
126.76
126.804
126.854
126.905
126.965
127.022
127.093
127.156
127.238
127.311
127.396
127.497
127.543
132.014
125.739
125.522
126
126.14
126.104
126.044
126.002
125.977
125.967
125.966
125.975
125.987
126.006
126.027
126.053
126.081
126.113
126.147
126.185
126.227
126.271
126.32
126.372
126.429
126.488
126.555
126.621
126.698
126.772
126.86
126.943
127.034
127.144
127.199
131.387
125.155
124.944
125.405
125.53
125.487
125.426
125.386
125.366
125.362
125.367
125.382
125.4
125.426
125.453
125.485
125.52
125.559
125.6
125.645
125.694
125.746
125.802
125.861
125.926
125.992
126.067
126.14
126.226
126.306
126.401
126.491
126.586
126.705
126.76
130.745
124.568
124.324
124.747
124.852
124.801
124.739
124.701
124.684
124.685
124.695
124.715
124.739
124.769
124.802
124.841
124.881
124.926
124.973
125.025
125.08
125.139
125.202
125.268
125.341
125.415
125.496
125.577
125.67
125.758
125.859
125.957
126.057
126.186
126.242
129.997
123.88
123.603
123.985
124.068
124.01
123.947
123.913
123.9
123.907
123.923
123.949
123.979
124.015
124.054
124.098
124.145
124.196
124.249
124.308
124.369
124.435
124.505
124.578
124.658
124.739
124.827
124.916
125.014
125.11
125.217
125.322
125.425
125.563
125.618
129.152
123.104
122.799
123.139
123.199
123.132
123.07
123.041
123.036
123.051
123.074
123.108
123.145
123.189
123.234
123.285
123.338
123.395
123.455
123.52
123.588
123.661
123.738
123.818
123.904
123.992
124.088
124.183
124.289
124.39
124.504
124.616
124.723
124.869
124.923
128.333
122.355
121.978
122.26
122.296
122.222
122.163
122.139
122.141
122.161
122.191
122.23
122.273
122.322
122.373
122.429
122.487
122.55
122.616
122.686
122.76
122.839
122.922
123.008
123.1
123.195
123.296
123.398
123.509
123.617
123.735
123.854
123.964
124.118
124.171
127.304
121.401
120.996
121.234
121.245
121.165
121.112
121.098
121.111
121.143
121.184
121.232
121.284
121.341
121.399
121.463
121.528
121.598
121.67
121.748
121.828
121.914
122.003
122.096
122.195
122.296
122.404
122.512
122.629
122.744
122.867
122.992
123.106
123.268
123.319
126.312
120.489
119.958
120.117
120.1
120.017
119.971
119.966
119.988
120.028
120.076
120.131
120.189
120.252
120.317
120.386
120.457
120.533
120.611
120.695
120.781
120.873
120.968
121.068
121.173
121.281
121.395
121.51
121.633
121.754
121.883
122.014
122.131
122.303
122.351
125.004
119.264
118.671
118.778
118.737
118.654
118.621
118.634
118.674
118.729
118.792
118.859
118.928
119.001
119.074
119.152
119.231
119.315
119.4
119.491
119.585
119.684
119.787
119.894
120.006
120.121
120.242
120.364
120.494
120.621
120.757
120.895
121.016
121.197
121.241
123.705
118.045
117.265
117.276
117.207
117.129
117.114
117.143
117.198
117.266
117.34
117.418
117.496
117.577
117.658
117.743
117.829
117.92
118.013
118.111
118.212
118.318
118.427
118.542
118.661
118.783
118.911
119.04
119.177
119.311
119.453
119.599
119.723
119.915
119.954
122.019
116.445
115.512
115.453
115.364
115.301
115.313
115.371
115.45
115.54
115.631
115.723
115.814
115.906
115.997
116.091
116.186
116.285
116.386
116.491
116.6
116.713
116.83
116.952
117.078
117.208
117.343
117.479
117.623
117.765
117.914
118.067
118.197
118.4
118.434
120.108
114.604
113.423
113.275
113.175
113.137
113.185
113.274
113.38
113.491
113.601
113.707
113.811
113.912
114.013
114.115
114.217
114.322
114.429
114.541
114.656
114.776
114.9
115.029
115.162
115.299
115.441
115.586
115.737
115.887
116.044
116.205
116.341
116.556
116.585
117.825
112.372
110.841
110.583
110.476
110.478
110.574
110.704
110.84
110.973
111.097
111.214
111.325
111.431
111.537
111.642
111.748
111.857
111.968
112.085
112.205
112.332
112.462
112.599
112.741
112.887
113.039
113.194
113.356
113.517
113.685
113.858
114.007
114.237
114.273
114.184
108.832
107.096
106.874
106.837
106.924
107.089
107.27
107.438
107.594
107.729
107.855
107.968
108.079
108.186
108.296
108.408
108.525
108.647
108.775
108.909
109.05
109.197
109.35
109.51
109.675
109.846
110.02
110.202
110.383
110.571
110.762
110.932
111.176
111.229
108.727
103.939
101.682
101.432
101.489
101.683
101.915
102.133
102.312
102.478
102.619
102.763
102.894
103.036
103.171
103.319
103.465
103.623
103.781
103.95
104.121
104.302
104.486
104.678
104.873
105.075
105.281
105.491
105.706
105.92
106.142
106.364
106.574
106.844
106.965
94.0524
94.1823
91.3701
90.7408
90.7687
91.0938
91.5102
91.9159
92.2901
92.6447
92.9661
93.2733
93.5516
93.8232
94.072
94.3215
94.5559
94.7972
95.0279
95.2652
95.4927
95.7291
95.9614
96.2037
96.4442
96.6931
96.9412
97.1948
97.4496
97.7036
97.9663
98.2058
98.4899
98.6501
98.9523
11.5219
10.7696
11.096
11.221
11.3001
11.3518
11.4005
11.4367
11.4739
11.5061
11.5486
11.5799
11.623
11.6546
11.7005
11.7343
11.7844
11.8214
11.8762
11.9166
11.9762
12.0198
12.0848
12.1307
12.202
12.2482
12.3275
12.3703
12.4609
12.4939
12.6015
12.6144
12.7479
12.7216
12.8853
79.3734
76.7492
76.2134
76.3799
76.5396
76.5869
76.5787
76.555
76.5313
76.5122
76.4976
76.4871
76.4802
76.4758
76.4744
76.4738
76.4765
76.4784
76.4849
76.4886
76.4985
76.5039
76.5174
76.5247
76.5417
76.5519
76.5722
76.587
76.6098
76.6314
76.6567
76.6869
76.7168
76.7543
76.8035
79.1303
76.5262
75.9807
76.1315
76.2815
76.3233
76.3122
76.2863
76.2623
76.2424
76.2291
76.2187
76.2142
76.2103
76.212
76.2123
76.2185
76.2221
76.2319
76.2382
76.2513
76.2603
76.2767
76.2883
76.309
76.3225
76.3492
76.3635
76.3985
76.4125
76.4572
76.4729
76.5207
76.5511
76.5827
78.8429
76.2491
75.6996
75.8411
75.9839
76.0211
76.0075
75.9805
75.9563
75.9371
75.9249
75.9165
75.9139
75.9127
75.9168
75.9203
75.9298
75.9365
75.9506
75.9599
75.9784
75.9901
76.013
76.0275
76.0548
76.0725
76.1046
76.1257
76.164
76.1876
76.2346
76.26
76.3153
76.3465
76.4079
78.4941
75.9018
75.3598
75.5004
75.6382
75.6707
75.654
75.6257
75.6018
75.5838
75.5738
75.5678
75.5682
75.5702
75.5777
75.585
75.5978
75.6091
75.6263
75.6408
75.6625
75.6796
75.7065
75.7257
75.7588
75.7795
75.8199
75.8417
75.8904
75.9135
75.9699
75.9978
76.0539
76.0993
76.1394
78.1501
75.5902
75.0361
75.1538
75.276
75.3
75.2787
75.248
75.2232
75.2053
75.196
75.1914
75.1935
75.1974
75.2072
75.2168
75.2325
75.2462
75.2671
75.2841
75.31
75.3301
75.3612
75.3844
75.421
75.4472
75.4901
75.519
75.5693
75.6
75.6591
75.6919
75.7564
75.7978
75.8614
77.7112
75.162
74.6156
74.7272
74.8399
74.8565
74.8309
74.7988
74.7744
74.7583
74.7516
74.75
74.7555
74.7628
74.7764
74.7896
74.8093
74.8268
74.8517
74.8729
74.9028
74.9275
74.9627
74.9905
75.0318
75.0621
75.1106
75.1426
75.1996
75.2324
75.2982
75.3333
75.4024
75.4484
75.5109
77.2391
74.7181
74.1676
74.2598
74.3559
74.3621
74.331
74.297
74.2725
74.2579
74.2532
74.2543
74.2625
74.2732
74.2897
74.3064
74.3292
74.3504
74.3787
74.4036
74.4374
74.4657
74.5055
74.5366
74.5829
74.6165
74.6702
74.7058
74.7676
74.8046
74.8744
74.9142
74.9865
75.037
75.1038
76.6972
74.2067
73.6529
73.7238
73.8012
73.7957
73.7589
73.723
73.6991
73.6865
73.6845
73.6888
73.7003
73.7144
73.7344
73.7547
73.7811
73.806
73.838
73.8667
73.9044
73.9367
73.9803
74.0159
74.066
74.1043
74.1618
74.202
74.2677
74.3088
74.3829
74.4261
74.5025
74.5556
74.6262
76.0999
73.6405
73.0851
73.1342
73.1911
73.1723
73.1295
73.0926
73.0702
73.0607
73.0624
73.0708
73.0864
73.1046
73.1286
73.1529
73.1831
73.2119
73.2478
73.2805
73.3221
73.3584
73.4062
73.4456
73.5002
73.5422
73.6043
73.648
73.7185
73.763
73.8415
73.8882
73.9682
74.0251
74.0983
75.4988
73.0835
72.509
72.5232
72.5547
72.5223
72.4742
72.4367
72.4161
72.4094
72.4145
72.4264
72.4455
72.4672
72.4945
72.5223
72.5558
72.588
72.6273
72.6635
72.7087
72.7484
72.7999
72.843
72.9014
72.947
73.0131
73.0603
73.1347
73.1826
73.2649
73.3149
73.398
73.4582
73.5335
74.7877
72.4069
71.8275
71.8171
71.8252
71.7785
71.7255
71.6888
71.6717
71.6702
71.6806
71.6979
71.7221
71.7488
71.7808
71.8131
71.8509
71.8875
71.9308
71.9712
72.0204
72.0642
72.1198
72.1669
72.2294
72.279
72.3493
72.4003
72.479
72.5304
72.6168
72.6703
72.7566
72.8208
72.8978
74.0535
71.7341
71.1101
71.0453
71.0185
70.9556
70.8985
70.8635
70.8503
70.8536
70.8689
70.8911
70.9197
70.9508
70.9868
71.0232
71.0648
71.1052
71.1524
71.1965
71.2496
71.2974
71.3569
71.4078
71.4745
71.5279
71.6024
71.6572
71.7402
71.7952
71.8857
71.9428
72.0323
72.1007
72.1789
73.1494
70.8786
70.2307
70.1295
70.0732
69.9955
69.936
69.9051
69.8989
69.91
69.933
69.9625
69.9978
70.0353
70.077
70.1189
70.1656
70.2112
70.2631
70.3121
70.3697
70.4221
70.4862
70.5416
70.613
70.6706
70.7499
70.8087
70.8965
70.9553
71.0504
71.1114
71.2045
71.2778
71.357
72.1923
69.9974
69.2694
69.0937
68.9939
68.8996
68.8397
68.8149
68.8168
68.8365
68.8673
68.9043
68.9461
68.9898
69.037
69.0843
69.1359
69.1863
69.2428
69.2965
69.3585
69.4154
69.4841
69.5439
69.6199
69.6818
69.7659
69.8288
69.9216
69.9842
70.0843
70.1492
70.2462
70.3246
70.4042
71.0025
68.881
68.0803
67.8421
67.7033
67.5955
67.539
67.5244
67.5384
67.5699
67.6114
67.658
67.7081
67.7593
67.8131
67.8668
67.9239
67.98
68.0415
68.1003
68.1672
68.229
68.3024
68.367
68.448
68.5145
68.6039
68.671
68.7694
68.836
68.9419
69.0109
69.1128
69.1972
69.2786
69.6099
67.5791
66.6556
66.3306
66.147
66.0288
65.9802
65.9794
66.0079
66.0528
66.1059
66.1626
66.221
66.2798
66.3397
66.3993
66.4614
66.5226
66.5884
66.6522
66.7233
66.7901
66.8679
66.9375
67.0232
67.0947
67.1894
67.2613
67.3657
67.4368
67.5493
67.6225
67.7307
67.8205
67.9044
67.9186
65.9889
64.882
64.4394
64.1988
64.0706
64.0341
64.0508
64.0961
64.1549
64.2191
64.2844
64.3497
64.4142
64.4789
64.5432
64.6092
64.6749
64.7444
64.8131
64.8882
64.9604
65.0428
65.1186
65.2097
65.2879
65.389
65.4679
65.5798
65.6576
65.779
65.8585
65.9773
66.0747
66.1699
65.3965
63.5126
62.2588
61.7692
61.5195
61.409
61.3991
61.4407
61.506
61.5804
61.6562
61.73
61.8019
61.8718
61.9416
62.0112
62.0829
62.1554
62.2322
62.3097
62.3936
62.4767
62.5691
62.6574
62.7595
62.8513
62.9641
63.0569
63.1815
63.2727
63.4083
63.4991
63.6346
63.7397
63.8517
61.5623
60.0531
58.4392
57.7749
57.4766
57.38
57.4013
57.4699
57.558
57.651
57.7468
57.8409
57.9374
58.0321
58.1308
58.2283
58.3307
58.4323
58.5395
58.6459
58.7585
58.87
58.9887
59.1049
59.2304
59.3499
59.4834
59.6036
59.7469
59.8644
60.0183
60.1326
60.2916
60.415
60.5695
52.9315
55.1642
53.2042
51.9869
51.3897
51.1883
51.2128
51.3257
51.487
51.6575
51.8419
52.0159
52.1957
52.3588
52.5281
52.6794
52.84
52.9832
53.1376
53.274
53.4219
53.5542
53.699
53.8324
53.9772
54.1139
54.2597
54.3991
54.5483
54.685
54.846
54.9618
55.1603
55.2055
55.4716
13.0788
12.358
12.7412
12.8832
12.967
13.0168
13.0623
13.0939
13.1306
13.1574
13.1966
13.2235
13.265
13.2934
13.3389
13.3703
13.4208
13.4559
13.5117
13.5505
13.6117
13.6539
13.7208
13.7654
13.8388
13.8836
13.9652
14.0063
14.0994
14.1305
14.2407
14.2516
14.387
14.3611
14.5244
52.7832
51.7578
51.3203
51.2783
51.3466
51.3943
51.4078
51.4022
51.3889
51.3751
51.3622
51.3516
51.3433
51.3363
51.3325
51.3281
51.3281
51.3251
51.3286
51.3263
51.3327
51.331
51.3398
51.339
51.3497
51.3505
51.3618
51.3659
51.3768
51.3851
51.3965
51.4075
51.4248
51.4308
51.4725
52.5867
51.5747
51.1396
51.0913
51.1538
51.1961
51.2072
51.1984
51.185
51.1688
51.1575
51.145
51.1394
51.131
51.1304
51.1251
51.1283
51.1253
51.1313
51.1305
51.1386
51.1394
51.1499
51.1514
51.1652
51.1662
51.1848
51.1838
51.209
51.205
51.2367
51.2327
51.2641
51.2697
51.2889
52.3671
51.3604
50.9262
50.8741
50.9322
50.9706
50.9788
50.9679
50.9532
50.9366
50.9248
50.9132
50.9077
50.9008
50.9009
50.8972
50.9021
50.9002
50.9093
50.9085
50.9211
50.9214
50.937
50.9386
50.9567
50.9598
50.9806
50.9845
51.0099
51.0124
51.0454
51.044
51.0879
51.0777
51.1442
52.1144
51.1047
50.674
50.6226
50.6789
50.7139
50.7196
50.7063
50.6908
50.6733
50.6623
50.651
50.647
50.6415
50.6431
50.6418
50.6478
50.6493
50.6592
50.6625
50.6761
50.6801
50.698
50.7019
50.7248
50.7275
50.7563
50.7576
50.7922
50.7929
50.8315
50.8355
50.8715
50.8863
50.9135
51.844
50.8526
50.4247
50.3646
50.4106
50.438
50.4382
50.4216
50.4038
50.3856
50.374
50.3631
50.3596
50.3548
50.3579
50.3572
50.3654
50.3674
50.38
50.3839
50.4004
50.4056
50.426
50.4323
50.4565
50.4635
50.4921
50.499
50.5334
50.5388
50.5803
50.5835
50.6321
50.6324
50.6927
51.5236
50.5345
50.1128
50.0522
50.0935
50.1152
50.1109
50.0912
50.072
50.053
50.042
50.0316
50.0299
50.0262
50.0315
50.0324
50.0429
50.047
50.0618
50.0682
50.0869
50.0949
50.1177
50.1265
50.154
50.1626
50.1959
50.2033
50.2434
50.2487
50.2957
50.3
50.351
50.3569
50.4116
51.1696
50.1936
49.7765
49.7091
49.7402
49.753
49.7423
49.7187
49.6974
49.6779
49.6669
49.6576
49.6566
49.6549
49.6613
49.6644
49.6764
49.6827
49.6994
49.7077
49.729
49.7384
49.7645
49.7744
49.8057
49.8154
49.8524
49.8614
49.9047
49.9124
49.9621
49.9691
50.0229
50.0304
50.0903
50.7657
49.8042
49.3929
49.318
49.3373
49.3397
49.3217
49.294
49.2704
49.2504
49.2398
49.2316
49.2321
49.232
49.2404
49.2454
49.2596
49.2679
49.2869
49.2975
49.321
49.333
49.3612
49.374
49.4074
49.4202
49.4595
49.4713
49.5174
49.5272
49.5805
49.5887
49.6468
49.6545
49.7188
50.3251
49.3784
48.9731
48.8904
48.8966
48.8874
48.8612
48.829
48.8034
48.7832
48.7734
48.7668
48.7691
48.7711
48.7816
48.7889
48.8053
48.8159
48.8372
48.85
48.8761
48.8901
48.9212
48.9359
48.9724
48.987
49.0297
49.0431
49.0929
49.1043
49.1611
49.1709
49.2322
49.2416
49.309
49.8716
48.9497
48.5449
48.4466
48.4346
48.4115
48.3768
48.3406
48.3134
48.2935
48.2847
48.2798
48.284
48.2881
48.3007
48.3101
48.3286
48.3413
48.3649
48.3797
48.4081
48.4243
48.4578
48.4747
48.5137
48.5304
48.5759
48.5913
48.644
48.6571
48.7171
48.7285
48.7928
48.8036
48.8739
49.3498
48.4479
48.0479
47.9395
47.9116
47.8746
47.8309
47.7902
47.7616
47.7422
47.7349
47.7323
47.7388
47.7456
47.7607
47.7728
47.7938
47.8091
47.8351
47.8524
47.8834
47.902
47.9382
47.9574
47.9993
48.0182
48.0667
48.0842
48.1401
48.1552
48.2184
48.2316
48.2989
48.3114
48.3844
48.7893
47.9266
47.5169
47.3802
47.3246
47.2688
47.2153
47.171
47.1419
47.1242
47.1192
47.1195
47.1288
47.1387
47.1564
47.1714
47.195
47.2129
47.2415
47.2614
47.2949
47.316
47.3549
47.3765
47.4213
47.4425
47.494
47.5136
47.5728
47.5898
47.6563
47.6715
47.7418
47.7563
47.8317
48.1201
47.293
46.8805
46.7253
46.6467
46.5732
46.5096
46.4614
46.4319
46.4162
46.4139
46.4177
46.4302
46.4437
46.4647
46.4831
46.5097
46.5309
46.5625
46.5854
46.622
46.646
46.6879
46.7122
46.7603
46.7839
46.839
46.8608
46.9237
46.9428
47.013
47.0302
47.1039
47.1208
47.1988
47.384
46.6132
46.1743
45.9756
45.8588
45.7621
45.6882
45.638
45.6101
45.5984
45.6003
45.6089
45.6256
45.6435
45.6681
45.6904
45.7203
45.7449
45.7795
45.8056
45.8451
45.8719
45.917
45.944
45.9954
46.0215
46.0802
46.1042
46.1711
46.1921
46.2665
46.2856
46.3629
46.3822
46.4628
46.4841
45.7767
45.3134
45.0764
44.9236
44.8041
44.72
44.6679
44.642
44.6348
44.6411
44.6549
44.6758
44.6983
44.7265
44.7529
44.7859
44.8143
44.8518
44.8814
44.9238
44.9539
45.0022
45.0321
45.0871
45.1159
45.1786
45.205
45.2764
45.2994
45.3787
45.3998
45.4818
45.5037
45.5886
45.4148
44.7866
44.275
43.9805
43.7815
43.6367
43.5436
43.4914
43.4691
43.4673
43.4786
43.4978
43.5228
43.55
43.5813
43.6118
43.6474
43.6796
43.7195
43.7528
43.7977
43.8316
43.8827
43.9163
43.9746
44.0068
44.0736
44.103
44.1792
44.2048
44.2897
44.313
44.4009
44.425
44.5151
44.1001
43.5679
42.9759
42.5983
42.3372
42.1594
42.0547
42.0009
41.9816
41.984
41.9998
42.0233
42.052
42.0833
42.1176
42.1524
42.1908
42.2276
42.2702
42.3086
42.3563
42.3956
42.4497
42.489
42.5509
42.5889
42.6601
42.695
42.7768
42.8071
42.899
42.9261
43.0228
43.0506
43.152
42.3715
41.8215
41.1163
40.6655
40.3556
40.1518
40.0391
39.9835
39.9685
39.9749
39.9974
40.026
40.0614
40.098
40.1388
40.1794
40.224
40.2678
40.3166
40.3633
40.4172
40.4662
40.5265
40.5766
40.6448
40.6942
40.772
40.8182
40.9073
40.9482
41.0488
41.0844
41.1924
41.2253
41.3405
39.7933
39.442
38.4703
37.8254
37.4173
37.1809
37.0766
37.0385
37.051
37.0791
37.1297
37.1786
37.2415
37.2976
37.3652
37.4249
37.495
37.5575
37.6293
37.6943
37.768
37.8354
37.9116
37.9807
38.0607
38.1301
38.2158
38.2831
38.377
38.439
38.5436
38.5985
38.7135
38.763
38.8938
35.627
38.2627
37.0517
35.8411
35.0303
34.5623
34.3387
34.2392
34.229
34.2504
34.3132
34.3751
34.4635
34.5376
34.6339
34.7097
34.8069
34.8808
34.9759
35.047
35.1379
35.2071
35.294
35.3639
35.448
35.5203
35.6027
35.677
35.7608
35.832
35.9262
35.9801
36.1044
36.1157
36.287
14.3882
13.784
14.2555
14.4353
14.5281
14.5734
14.6112
14.6326
14.663
14.6811
14.7143
14.7342
14.7719
14.7948
14.8382
14.8653
14.9149
14.9465
15.0022
15.038
15.0998
15.1394
15.2073
15.2495
15.3243
15.3667
15.45
15.4889
15.5837
15.6128
15.7243
15.7346
15.8695
15.8469
16.0058
37.6296
37.2291
36.9731
36.8769
36.877
36.8997
36.9142
36.9174
36.9122
36.9043
36.8949
36.886
36.8784
36.8708
36.8664
36.8599
36.8588
36.8529
36.8548
36.8492
36.8535
36.848
36.8541
36.8491
36.856
36.8522
36.8587
36.8572
36.8626
36.8628
36.8696
36.8675