/*--------------------------------*- C++ -*----------------------------------*\
  =========                 |
  \\      /  F ield         | OpenFOAM: The Open Source CFD Toolbox
   \\    /   O peration     | Website:  https://openfoam.org
    \\  /    A nd           | Version:  6
     \\/     M anipulation  |
\*---------------------------------------------------------------------------*/
FoamFile
{
    version     2.0;
    format      ascii;
    class       volScalarField;
    location    "4";
    object      omega;
}
// * * * * * * * * * * * * * * * * * * * * * * * * * * * * * * * * * * * * * //

dimensions      [0 0 -1 0 0 0 0];

internalField   nonuniform List<scalar> 
380496
(
843.917
843.917
843.917
843.917
843.917
843.917
843.917
843.917
843.917
843.917
843.917
843.917
843.917
843.917
843.917
843.917
843.917
843.917
843.917
843.917
843.917
843.917
843.917
843.917
843.917
843.917
843.917
843.917
843.917
843.917
843.917
843.917
843.917
843.917
843.917
843.917
843.917
843.917
843.917
843.917
843.917
843.917
843.917
843.917
843.917
843.917
843.917
843.917
843.917
843.917
843.917
843.917
843.917
843.917
843.917
843.917
843.917
843.917
843.917
843.917
843.917
843.917
843.917
843.917
843.917
843.917
843.917
843.917
843.917
843.917
843.917
843.917
843.917
843.917
843.917
843.917
843.917
843.917
843.917
843.917
843.917
843.917
843.917
843.917
843.917
843.917
843.917
843.917
843.917
843.917
843.917
843.917
843.917
843.917
843.917
843.917
843.917
843.917
843.917
843.917
843.917
843.917
843.917
843.917
843.917
843.917
843.917
843.917
843.917
843.917
843.917
843.917
843.917
843.917
843.917
843.917
843.917
843.917
843.917
843.917
843.917
843.917
843.917
843.917
843.917
843.917
843.917
843.917
843.917
843.917
843.917
843.917
843.917
843.917
843.917
843.917
843.917
843.917
843.917
843.917
843.917
843.917
843.917
843.917
843.917
843.917
843.917
843.917
843.917
843.917
843.917
843.917
843.917
843.917
843.917
843.917
843.917
843.917
843.917
843.917
843.917
843.917
843.917
843.917
843.917
843.917
843.917
843.917
843.917
843.917
843.917
843.917
843.917
843.917
843.917
843.917
843.917
843.917
843.917
843.917
843.917
843.917
843.917
843.917
843.917
843.917
843.917
843.917
843.917
843.917
843.917
843.917
843.917
843.917
843.917
843.917
843.917
843.917
843.917
843.917
843.917
843.917
843.917
843.917
843.917
843.917
843.917
843.917
843.917
843.917
843.917
843.917
843.917
843.917
843.917
843.917
843.917
843.917
843.917
843.917
843.917
843.917
843.917
843.917
843.917
843.917
843.917
843.917
843.917
843.917
843.917
843.917
843.917
843.917
843.917
843.917
843.917
843.917
843.917
843.917
843.917
843.917
843.917
843.917
843.917
843.917
843.917
843.917
843.917
843.917
843.917
843.917
843.917
843.917
843.917
843.917
843.917
843.917
843.917
843.917
843.917
843.917
843.917
843.917
843.917
843.917
843.917
843.917
843.917
843.917
843.917
843.917
843.917
843.917
843.917
843.917
843.917
843.917
843.917
843.917
843.917
843.917
843.917
843.917
843.917
843.917
843.917
843.917
843.917
843.917
843.917
843.917
843.917
843.917
843.917
843.917
843.917
843.917
843.917
843.917
843.917
843.917
843.917
843.917
843.917
843.917
843.917
843.917
843.917
843.917
843.917
843.917
843.917
843.917
843.917
843.917
843.917
843.917
843.917
843.917
843.917
843.917
843.917
843.917
843.917
843.917
843.917
843.917
843.917
843.917
843.917
843.917
843.917
843.917
843.917
843.917
843.917
843.917
843.917
843.917
843.917
843.917
843.917
843.917
843.917
843.917
843.917
843.917
843.917
843.917
843.917
843.917
843.917
843.917
843.917
843.917
843.917
843.917
843.917
843.917
843.917
843.917
843.917
843.917
843.917
843.917
843.917
843.917
843.917
843.917
843.917
843.917
843.917
843.917
843.917
843.917
843.917
843.917
843.917
843.917
843.917
843.917
843.917
843.917
843.917
843.917
843.917
843.917
843.917
843.917
843.917
843.917
843.917
843.917
843.917
843.917
843.917
843.917
843.917
843.917
843.917
843.917
843.917
843.917
843.917
843.917
843.917
843.917
843.917
843.917
843.917
843.917
843.917
843.917
843.917
843.917
843.917
843.917
843.917
843.917
843.917
843.917
843.917
843.917
843.917
843.917
843.917
843.917
843.917
843.917
843.917
843.917
843.917
843.917
843.917
843.917
843.917
843.917
843.917
843.917
843.917
843.917
843.917
843.917
843.917
843.917
843.917
843.917
843.917
843.917
843.917
843.917
843.917
843.917
843.917
843.917
843.917
843.917
843.917
843.917
843.917
843.917
843.917
843.917
843.917
843.917
843.917
843.917
843.917
843.917
843.917
843.917
843.917
843.917
843.917
843.917
843.917
843.917
843.917
843.917
843.917
843.917
843.917
843.917
843.917
843.917
843.917
843.917
843.917
843.917
843.917
843.917
843.917
843.917
843.917
843.917
843.917
843.917
843.917
843.917
843.917
843.917
843.917
843.917
843.917
843.917
843.917
843.917
843.917
843.917
843.917
843.917
843.917
843.917
843.917
843.917
843.917
843.917
843.917
843.917
843.917
843.917
843.917
843.917
843.917
843.917
843.917
843.917
843.917
843.917
843.917
843.917
843.917
843.917
843.917
843.917
843.917
843.917
843.917
843.917
843.917
843.917
843.917
843.917
843.917
843.917
843.917
843.917
843.917
843.917
843.917
843.917
843.917
843.917
843.917
843.917
843.917
843.917
843.917
843.917
843.917
843.917
843.917
843.917
843.917
843.917
843.917
843.917
843.917
843.917
843.917
843.917
843.917
843.917
843.917
843.917
843.917
843.917
843.917
843.917
843.917
843.917
843.917
843.917
843.917
843.917
843.917
843.917
843.917
843.917
843.917
843.917
843.917
843.917
843.917
843.917
843.917
843.917
843.917
843.917
843.917
843.917
843.917
843.917
843.917
843.917
843.917
843.917
843.917
843.917
843.917
843.917
843.917
843.917
843.917
843.917
843.917
843.917
843.917
843.917
843.917
843.917
843.917
843.917
843.917
843.917
843.917
843.917
843.917
843.917
843.917
843.917
843.917
843.917
843.917
843.917
843.917
843.917
843.917
843.917
843.917
843.917
843.917
843.917
843.917
843.917
843.917
843.917
843.917
843.917
843.917
843.917
843.917
843.917
843.917
843.917
843.917
843.917
843.917
843.917
843.917
843.917
843.917
843.917
843.917
843.917
843.917
843.917
843.917
843.917
843.917
843.917
843.917
843.917
843.917
843.917
843.917
843.917
843.917
843.917
843.917
843.917
843.917
843.917
843.917
843.917
843.917
843.917
843.917
843.917
843.917
843.917
843.917
843.917
843.917
843.917
843.917
843.917
843.917
843.917
423.923
423.923
423.923
423.923
423.923
424.333
424.415
424.482
424.529
424.553
424.56
424.555
424.549
424.545
424.553
424.566
424.593
424.619
424.656
424.687
424.722
424.751
424.782
424.808
424.839
424.864
424.897
424.921
424.958
424.978
425.021
425.033
425.087
425.078
425.145
275.638
262.144
263.673
264.572
264.559
264.415
264.33
264.282
264.257
264.241
264.232
264.226
264.222
264.222
264.221
264.226
264.228
264.239
264.246
264.264
264.277
264.302
264.322
264.354
264.38
264.421
264.454
264.502
264.542
264.601
264.647
264.719
264.767
264.864
264.879
275.38
261.958
263.393
264.251
264.225
264.081
263.99
263.947
263.918
263.908
263.897
263.897
263.893
263.899
263.898
263.909
263.913
263.93
263.94
263.965
263.982
264.015
264.04
264.082
264.114
264.166
264.204
264.265
264.31
264.381
264.43
264.515
264.554
264.681
264.618
274.94
261.624
263.023
263.849
263.81
263.663
263.572
263.532
263.505
263.5
263.493
263.499
263.499
263.511
263.516
263.533
263.543
263.566
263.583
263.613
263.638
263.678
263.71
263.76
263.802
263.863
263.913
263.985
264.043
264.128
264.192
264.295
264.349
264.501
264.454
274.257
261.1
262.54
263.338
263.279
263.125
263.037
263
262.981
262.981
262.983
262.994
263.002
263.02
263.032
263.056
263.072
263.104
263.126
263.167
263.197
263.248
263.287
263.349
263.398
263.471
263.529
263.614
263.681
263.78
263.852
263.968
264.03
264.195
264.155
273.789
260.73
262.024
262.767
262.7
262.545
262.46
262.423
262.409
262.412
262.418
262.434
262.447
262.472
262.49
262.522
262.547
262.587
262.62
262.671
262.714
262.776
262.829
262.903
262.966
263.053
263.126
263.227
263.309
263.423
263.511
263.645
263.718
263.911
263.866
272.917
260.036
261.328
262.031
261.944
261.788
261.707
261.68
261.674
261.687
261.701
261.726
261.746
261.778
261.801
261.838
261.868
261.913
261.95
262.006
262.054
262.123
262.181
262.265
262.336
262.434
262.517
262.631
262.726
262.857
262.958
263.112
263.195
263.417
263.364
272.062
259.338
260.53
261.177
261.076
260.921
260.845
260.827
260.828
260.851
260.873
260.907
260.936
260.976
261.009
261.055
261.093
261.147
261.192
261.256
261.309
261.386
261.45
261.541
261.618
261.725
261.815
261.939
262.041
262.185
262.295
262.465
262.556
262.805
262.742
271.026
258.477
259.566
260.153
260.039
259.887
259.821
259.813
259.825
259.857
259.888
259.929
259.964
260.01
260.045
260.094
260.132
260.186
260.23
260.293
260.346
260.423
260.488
260.581
260.66
260.773
260.867
261
261.109
261.265
261.385
261.57
261.671
261.94
261.877
269.808
257.454
258.455
258.98
258.852
258.706
258.655
258.661
258.69
258.735
258.781
258.835
258.883
258.939
258.986
259.043
259.09
259.151
259.2
259.267
259.323
259.402
259.469
259.564
259.647
259.764
259.863
260.004
260.121
260.288
260.417
260.617
260.727
261.017
260.952
268.657
256.452
257.275
257.735
257.604
257.468
257.432
257.451
257.491
257.546
257.599
257.66
257.713
257.771
257.819
257.876
257.92
257.977
258.021
258.082
258.133
258.207
258.271
258.365
258.449
258.571
258.678
258.829
258.959
259.141
259.286
259.503
259.628
259.939
259.882
267.087
255.099
255.843
256.245
256.104
255.986
255.976
256.02
256.084
256.158
256.23
256.307
256.375
256.445
256.504
256.567
256.616
256.672
256.714
256.771
256.816
256.886
256.946
257.041
257.128
257.257
257.374
257.54
257.686
257.887
258.049
258.287
258.428
258.762
258.711
265.665
253.801
254.276
254.609
254.477
254.381
254.394
254.455
254.533
254.619
254.701
254.784
254.856
254.928
254.985
255.042
255.081
255.125
255.152
255.194
255.225
255.283
255.339
255.434
255.528
255.671
255.808
255.998
256.17
256.398
256.587
256.851
257.016
257.373
257.337
263.601
251.96
252.316
252.602
252.479
252.421
252.476
252.575
252.686
252.8
252.906
253.009
253.097
253.18
253.245
253.302
253.336
253.369
253.382
253.409
253.428
253.481
253.539
253.645
253.759
253.93
254.099
254.323
254.529
254.791
255.011
255.305
255.493
255.875
255.849
261.655
250.108
250.121
250.352
250.257
250.243
250.337
250.465
250.601
250.733
250.855
250.967
251.061
251.143
251.198
251.237
251.247
251.249
251.234
251.235
251.24
251.291
251.363
251.497
251.651
251.869
252.089
252.365
252.62
252.927
253.185
253.511
253.725
254.128
254.116
258.958
247.582
247.362
247.574
247.524
247.579
247.74
247.922
248.103
248.27
248.419
248.551
248.657
248.74
248.785
248.8
248.779
248.746
248.703
248.689
248.702
248.78
248.9
249.098
249.323
249.613
249.903
250.241
250.548
250.898
251.189
251.543
251.775
252.195
252.181
255.937
244.631
244.041
244.262
244.289
244.434
244.671
244.912
245.14
245.339
245.512
245.653
245.75
245.805
245.801
245.753
245.668
245.582
245.512
245.504
245.559
245.709
245.925
246.224
246.552
246.935
247.306
247.71
248.068
248.457
248.774
249.144
249.385
249.814
249.791
252.314
240.979
239.919
240.18
240.319
240.583
240.918
241.23
241.506
241.734
241.913
242.032
242.076
242.055
241.954
241.821
241.676
241.576
241.552
241.64
241.833
242.135
242.505
242.938
243.378
243.843
244.272
244.713
245.093
245.491
245.81
246.179
246.417
246.847
246.808
246.444
235.372
234.174
234.679
235.017
235.462
235.936
236.338
236.661
236.888
237.01
237.021
236.912
236.741
236.51
236.334
236.218
236.242
236.393
236.682
237.069
237.537
238.032
238.551
239.053
239.549
239.999
240.44
240.822
241.21
241.527
241.888
242.133
242.555
242.53
238.146
227.576
225.874
226.752
227.426
228.13
228.765
229.239
229.548
229.666
229.608
229.417
229.177
228.996
228.888
228.987
229.18
229.559
229.98
230.476
230.974
231.485
231.956
232.428
232.847
233.266
233.65
234.049
234.405
234.78
235.104
235.467
235.744
236.161
236.245
218.114
211.402
210.096
211.852
213.303
214.651
215.743
216.493
216.912
217.078
217.117
217.144
217.238
217.415
217.655
218.012
218.368
218.877
219.335
219.876
220.341
220.778
221.155
221.55
221.917
222.305
222.667
223.041
223.404
223.782
224.145
224.509
224.846
225.124
225.264
9.50746
8.89434
9.2966
9.48126
9.61886
9.77044
9.91153
10.022
10.0954
10.1251
10.123
10.0971
10.0754
10.0563
10.0668
10.082
10.133
10.1769
10.2482
10.3023
10.3696
10.4191
10.4772
10.519
10.5751
10.6127
10.6717
10.705
10.7718
10.796
10.8764
10.8813
10.9849
10.9491
11.0803
133.591
127.215
127.094
127.665
127.851
127.832
127.778
127.731
127.699
127.675
127.658
127.645
127.635
127.628
127.623
127.619
127.618
127.62
127.623
127.629
127.638
127.649
127.663
127.679
127.699
127.719
127.745
127.771
127.805
127.837
127.882
127.922
127.98
128.032
128.102
133.312
126.951
126.79
127.333
127.508
127.485
127.428
127.382
127.348
127.326
127.31
127.299
127.291
127.287
127.284
127.284
127.286
127.291
127.298
127.309
127.323
127.34
127.361
127.383
127.41
127.436
127.47
127.501
127.543
127.578
127.63
127.672
127.726
127.796
127.81
132.938
126.595
126.417
126.943
127.109
127.082
127.023
126.978
126.945
126.926
126.912
126.905
126.9
126.899
126.899
126.903
126.908
126.916
126.927
126.941
126.958
126.977
127.001
127.026
127.057
127.088
127.127
127.164
127.212
127.256
127.315
127.366
127.43
127.51
127.54
132.436
126.121
125.96
126.479
126.635
126.602
126.542
126.498
126.469
126.453
126.445
126.441
126.441
126.445
126.45
126.458
126.468
126.482
126.497
126.517
126.539
126.564
126.594
126.625
126.662
126.699
126.744
126.787
126.841
126.89
126.953
127.012
127.076
127.163
127.19
132.014
125.739
125.522
125.999
126.139
126.1
126.038
125.993
125.965
125.951
125.944
125.944
125.947
125.955
125.965
125.978
125.994
126.015
126.037
126.064
126.094
126.128
126.165
126.205
126.251
126.297
126.351
126.403
126.467
126.526
126.598
126.667
126.74
126.841
126.875
131.388
125.154
124.944
125.404
125.529
125.483
125.42
125.379
125.355
125.346
125.344
125.35
125.357
125.37
125.382
125.399
125.417
125.439
125.464
125.492
125.523
125.559
125.598
125.64
125.688
125.738
125.796
125.854
125.923
125.988
126.068
126.144
126.223
126.333
126.37
130.746
124.567
124.324
124.745
124.85
124.797
124.732
124.693
124.672
124.668
124.671
124.681
124.694
124.713
124.732
124.755
124.78
124.808
124.839
124.872
124.908
124.947
124.989
125.034
125.084
125.136
125.195
125.255
125.326
125.394
125.476
125.557
125.639
125.757
125.794
129.998
123.88
123.603
123.983
124.066
124.005
123.941
123.905
123.889
123.89
123.898
123.914
123.931
123.953
123.975
124
124.025
124.053
124.082
124.114
124.147
124.184
124.223
124.265
124.312
124.362
124.42
124.479
124.55
124.62
124.704
124.789
124.873
124.999
125.033
129.153
123.104
122.799
123.137
123.196
123.126
123.064
123.033
123.025
123.033
123.05
123.073
123.099
123.129
123.16
123.193
123.226
123.262
123.296
123.332
123.368
123.405
123.444
123.485
123.53
123.579
123.636
123.696
123.768
123.84
123.927
124.017
124.103
124.238
124.273
128.333
122.354
121.977
122.257
122.292
122.216
122.157
122.132
122.13
122.144
122.166
122.195
122.226
122.26
122.292
122.327
122.36
122.394
122.425
122.456
122.485
122.515
122.547
122.581
122.622
122.667
122.723
122.785
122.86
122.938
123.031
123.13
123.223
123.369
123.407
127.304
121.4
120.995
121.231
121.24
121.159
121.106
121.091
121.101
121.127
121.161
121.201
121.243
121.288
121.332
121.377
121.417
121.455
121.487
121.515
121.539
121.562
121.587
121.616
121.652
121.696
121.754
121.82
121.902
121.988
122.091
122.202
122.305
122.464
122.509
126.312
120.488
119.956
120.112
120.093
120.01
119.964
119.959
119.978
120.014
120.056
120.104
120.153
120.204
120.253
120.299
120.337
120.369
120.39
120.404
120.412
120.42
120.43
120.449
120.481
120.526
120.59
120.666
120.761
120.864
120.983
121.112
121.23
121.405
121.459
125.003
119.263
118.668
118.771
118.729
118.646
118.616
118.629
118.668
118.72
118.78
118.846
118.912
118.98
119.042
119.098
119.14
119.167
119.177
119.177
119.168
119.161
119.162
119.178
119.214
119.27
119.35
119.446
119.563
119.69
119.832
119.981
120.116
120.309
120.372
123.703
118.043
117.26
117.266
117.196
117.12
117.108
117.139
117.195
117.265
117.342
117.423
117.505
117.585
117.655
117.708
117.737
117.742
117.724
117.692
117.656
117.63
117.622
117.642
117.691
117.771
117.881
118.011
118.163
118.322
118.492
118.667
118.822
119.032
119.103
122.018
116.442
115.506
115.442
115.354
115.293
115.31
115.373
115.46
115.56
115.666
115.776
115.885
115.986
116.065
116.113
116.122
116.096
116.042
115.978
115.921
115.891
115.896
115.944
116.034
116.161
116.32
116.496
116.689
116.883
117.081
117.277
117.447
117.67
117.744
120.106
114.599
113.413
113.258
113.159
113.126
113.183
113.286
113.414
113.551
113.696
113.843
113.977
114.088
114.152
114.162
114.116
114.027
113.918
113.818
113.752
113.739
113.784
113.888
114.043
114.235
114.453
114.68
114.915
115.141
115.361
115.573
115.752
115.983
116.051
117.823
112.365
110.831
110.57
110.465
110.474
110.59
110.753
110.941
111.138
111.341
111.529
111.678
111.769
111.775
111.705
111.571
111.412
111.266
111.172
111.149
111.21
111.346
111.545
111.784
112.045
112.316
112.582
112.841
113.082
113.31
113.524
113.704
113.937
114.002
114.181
108.82
107.082
106.848
106.81
106.917
107.144
107.421
107.723
108.02
108.284
108.476
108.559
108.533
108.389
108.188
107.961
107.771
107.655
107.635
107.716
107.886
108.119
108.395
108.693
108.998
109.297
109.581
109.849
110.093
110.324
110.536
110.721
110.95
111.016
108.72
103.93
101.677
101.411
101.494
101.788
102.224
102.708
103.181
103.575
103.823
103.896
103.803
103.608
103.342
103.124
102.966
102.933
102.998
103.154
103.374
103.641
103.926
104.223
104.512
104.789
105.056
105.315
105.564
105.797
106.022
106.236
106.43
106.667
106.771
94.0617
94.1856
91.343
90.7234
90.9182
91.6324
92.5915
93.5611
94.3731
94.9331
95.2053
95.2509
95.1802
95.0888
95.0202
95.0427
95.1193
95.3138
95.5634
95.8779
96.2005
96.5072
96.7812
97.0496
97.3131
97.5767
97.8262
98.0654
98.295
98.5165
98.741
98.9372
99.1703
99.2712
99.5
11.5254
10.8307
11.2282
11.4278
11.5842
11.7367
11.8723
11.9788
12.0509
12.0804
12.0795
12.0522
12.0288
12.0028
12.0083
12.0149
12.0625
12.1015
12.1728
12.2268
12.2964
12.3468
12.4075
12.4488
12.5062
12.5423
12.6022
12.6331
12.7009
12.7221
12.8041
12.8054
12.9105
12.8722
13.0048
79.3735
76.7492
76.2134
76.3802
76.5399
76.5864
76.5769
76.5516
76.5265
76.5052
76.4878
76.4731
76.4613
76.4506
76.4428
76.4354
76.4314
76.4272
76.4276
76.4268
76.4314
76.4335
76.4418
76.4459
76.4574
76.4627
76.4776
76.4836
76.5031
76.5095
76.536
76.5432
76.5796
76.5872
76.6426
79.1307
76.5263
75.9809
76.1317
76.2817
76.3228
76.3103
76.2832
76.2578
76.236
76.2199
76.2058
76.196
76.1866
76.1814
76.1755
76.1745
76.172
76.1757
76.1769
76.1856
76.1902
76.2036
76.2105
76.2281
76.2358
76.2577
76.2651
76.292
76.2986
76.3316
76.3394
76.3742
76.393
76.4195
78.8433
76.2492
75.6997
75.8412
75.984
76.0205
76.0054
75.9771
75.9512
75.9296
75.9141
75.9007
75.8919
75.8837
75.8798
75.8755
75.8761
75.8755
75.8807
75.8839
75.8938
75.9002
75.9145
75.9231
75.9418
75.9515
75.975
75.985
76.0146
76.0245
76.0616
76.0732
76.1144
76.1378
76.1746
78.4946
75.9018
75.36
75.5006
75.6384
75.6699
75.6519
75.6226
75.5972
75.5774
75.564
75.5535
75.5477
75.5426
75.5419
75.5403
75.5443
75.5462
75.5553
75.5608
75.575
75.5836
75.6026
75.6133
75.6366
75.6486
75.6766
75.6894
75.7231
75.7363
75.7761
75.7921
75.8336
75.8613
75.8958
78.1505
75.5902
75.0361
75.1539
75.2761
75.299
75.2763
75.2446
75.2181
75.1982
75.1853
75.1759
75.1717
75.169
75.1712
75.1735
75.1813
75.188
75.2012
75.2119
75.2304
75.2442
75.2675
75.2835
75.3115
75.3288
75.3621
75.3802
75.4198
75.4384
75.4852
75.5066
75.5562
75.5897
75.6351
77.7115
75.1619
74.6157
74.7273
74.8398
74.8552
74.8285
74.7958
74.7702
74.7522
74.7419
74.7353
74.7341
74.7341
74.7387
74.7428
74.7521
74.7599
74.774
74.785
74.8038
74.8174
74.8408
74.8565
74.8851
74.9024
74.9375
74.9564
74.9993
75.0194
75.0712
75.0944
75.1505
75.1853
75.2379
77.2394
74.7179
74.1677
74.2597
74.3555
74.3604
74.3282
74.2934
74.2676
74.2505
74.2418
74.2374
74.2391
74.2427
74.2514
74.2602
74.2747
74.2874
74.3066
74.3218
74.3445
74.3606
74.3863
74.4026
74.4322
74.449
74.4845
74.5024
74.5464
74.5657
74.6198
74.6428
74.7027
74.7385
74.797
76.6975
74.2065
73.6529
73.7234
73.8003
73.7935
73.756
73.7199
73.695
73.6802
73.6743
73.6733
73.6783
73.6849
73.6964
73.7071
73.7231
73.7364
73.7555
73.7696
73.7905
73.8038
73.8265
73.8388
73.8648
73.8774
73.9099
73.9244
73.9669
73.9844
74.0384
74.0618
74.1223
74.1604
74.2193
76.1
73.6402
73.085
73.1336
73.1895
73.1694
73.1262
73.0889
73.0654
73.0532
73.0506
73.0538
73.0637
73.0761
73.094
73.112
73.1349
73.155
73.1795
73.1976
73.2207
73.2346
73.2563
73.2667
73.2903
73.3002
73.3306
73.3432
73.3849
73.4022
73.4572
73.4825
73.5453
73.5874
73.6494
75.4988
73.0832
72.5087
72.5218
72.5521
72.5185
72.4705
72.4331
72.4115
72.4025
72.4038
72.4114
72.4258
72.4427
72.4646
72.486
72.511
72.5316
72.5545
72.5691
72.5867
72.5937
72.6076
72.6103
72.6267
72.6308
72.657
72.6674
72.7087
72.7275
72.7854
72.8155
72.8827
72.9316
72.9973
74.7875
72.4065
71.827
71.8151
71.8215
71.7739
71.7214
71.6848
71.6666
71.6625
71.6695
71.684
71.7064
71.7325
71.7642
71.7953
71.8286
71.8549
71.88
71.8935
71.9066
71.9071
71.9133
71.9086
71.9189
71.9188
71.9433
71.9542
71.9987
72.0223
72.087
72.1246
72.1998
72.2572
72.3304
74.0531
71.7335
71.1089
71.0418
71.0129
70.9495
70.8933
70.8586
70.8448
70.8465
70.8604
70.883
70.914
70.9489
70.9885
71.0256
71.061
71.0851
71.1032
71.1053
71.1038
71.0885
71.0796
71.0621
71.0632
71.0584
71.0825
71.0972
71.1489
71.1825
71.2585
71.3084
71.3949
71.4646
71.5458
73.1488
70.8779
70.229
70.1248
70.0665
69.9887
69.9306
69.9003
69.8941
69.9053
69.9303
69.9662
70.0119
70.0631
70.118
70.1672
70.2088
70.2323
70.2423
70.2309
70.2129
70.181
70.1586
70.1324
70.131
70.1292
70.1621
70.1896
70.2575
70.308
70.4015
70.4676
70.5693
70.6524
70.7444
72.1915
69.9963
69.2661
69.0861
68.9837
68.8894
68.8311
68.8076
68.812
68.8361
68.8766
68.9301
68.9945
69.0635
69.1315
69.1859
69.2224
69.2307
69.2166
69.1766
69.1296
69.0736
69.0344
69.0013
69.0024
69.0121
69.0634
69.1134
69.2056
69.2805
69.3968
69.4834
69.6019
69.6997
69.8006
71.0015
68.8795
68.0759
67.8334
67.6927
67.5854
67.5311
67.52
67.5419
67.5872
67.653
67.7352
67.8287
67.9235
68.0077
68.0649
68.0883
68.0703
68.0214
67.946
67.8701
67.7973
67.7556
67.7337
67.7581
67.7987
67.8853
67.9702
68.0963
68.1998
68.3415
68.4468
68.5813
68.69
68.7991
69.6087
67.5761
66.6476
66.3159
66.1283
66.0097
65.9657
65.9755
66.0254
66.1043
66.2094
66.3331
66.4634
66.5821
66.6687
66.7044
66.6847
66.6112
66.5047
66.3828
66.278
66.1985
66.17
66.1785
66.2432
66.3288
66.4601
66.5855
66.747
66.8779
67.0422
67.162
67.3085
67.4231
67.5353
67.9171
65.9846
64.874
64.4267
64.1829
64.0554
64.0307
64.0756
64.1746
64.3145
64.4878
64.6728
64.843
64.9685
65.0223
64.9929
64.8897
64.7343
64.5649
64.4113
64.3074
64.2592
64.282
64.3532
64.481
64.6246
64.8042
64.9674
65.1574
65.3066
65.4852
65.6104
65.7645
65.88
65.9992
65.3944
63.505
62.2452
61.7419
61.4787
61.3719
61.4034
61.5356
61.7475
62.0092
62.2864
62.5279
62.6896
62.7403
62.6736
62.5088
62.2884
62.0546
61.857
61.7215
61.6685
61.6905
61.7848
61.9235
62.1048
62.2943
62.5044
62.6924
62.8955
63.0549
63.2382
63.3652
63.5242
63.6382
63.7623
61.5569
60.0462
58.4303
57.7475
57.4449
57.409
57.5916
57.9296
58.3625
58.8058
59.1717
59.3833
59.4218
59.2958
59.0646
58.7847
58.5422
58.3663
58.2917
58.2964
58.3825
58.5189
58.6999
58.8918
59.0991
59.2905
59.4872
59.6606
59.8462
59.9963
60.1678
60.2937
60.451
60.5698
60.7095
52.9385
55.1532
53.1414
51.8755
51.3145
51.3163
51.7035
52.2934
52.9211
53.4299
53.7276
53.7874
53.7013
53.5406
53.4238
53.3482
53.3736
53.4454
53.6044
53.7851
53.9958
54.1868
54.3675
54.525
54.695
54.8593
55.0261
55.1779
55.3287
55.4601
55.6075
55.7098
55.8833
55.9077
56.131
13.0824
12.4178
12.8633
13.0897
13.2566
13.4035
13.5298
13.6294
13.7003
13.7323
13.7381
13.7147
13.6947
13.6631
13.6636
13.658
13.6985
13.7287
13.7968
13.8488
13.9196
13.9706
14.0342
14.0753
14.1346
14.1698
14.2313
14.2607
14.3304
14.35
14.4338
14.4342
14.5407
14.5041
14.6364
52.7832
51.7579
51.3203
51.2787
51.3472
51.3948
51.4077
51.4013
51.3873
51.3723
51.3581
51.3447
51.3335
51.322
51.3137
51.3043
51.2994
51.2924
51.2914
51.2871
51.2899
51.2877
51.2936
51.2921
51.3
51.2977
51.3073
51.3031
51.3153
51.308
51.3247
51.3139
51.3383
51.3217
51.3618
52.5868
51.575
51.1397
51.0917
51.1544
51.1964
51.2073
51.1975
51.1838
51.1669
51.1541
51.1402
51.1311
51.1199
51.1143
51.1053
51.1032
51.0964
51.098
51.0938
51.0995
51.0972
51.1067
51.105
51.1178
51.115
51.1308
51.1251
51.1443
51.135
51.1578
51.1462
51.1711
51.1595
51.1884
52.3672
51.3607
50.9263
50.8745
50.9328
50.9709
50.9788
50.9669
50.9519
50.9339
50.9206
50.9059
50.8965
50.8849
50.8793
50.8708
50.8692
50.864
50.8667
50.8644
50.8712
50.8708
50.881
50.8806
50.8935
50.8915
50.9073
50.9024
50.9221
50.9136
50.938
50.9273
50.9555
50.9459
50.9799
52.1145
51.105
50.6739
50.6232
50.6793
50.7146
50.7192
50.706
50.6896
50.6723
50.6594
50.6463
50.6386
50.6289
50.6258
50.6186
50.6197
50.6151
50.6209
50.6188
50.629
50.6285
50.6423
50.6419
50.6583
50.6565
50.6757
50.6714
50.6941
50.6871
50.7136
50.7053
50.7343
50.7272
50.7602
51.844
50.8529
50.4246
50.3652
50.4109
50.4384
50.4376
50.4211
50.4025
50.3839
50.3705
50.3573
50.3502
50.3418
50.3401
50.3355
50.3386
50.3371
50.3448
50.3457
50.3575
50.3596
50.375
50.377
50.3955
50.3961
50.418
50.4163
50.4426
50.4382
50.4697
50.464
50.4996
50.4949
50.5376
51.5236
50.5347
50.1127
50.0527
50.0937
50.1154
50.1103
50.0908
50.0714
50.0524
50.04
50.0278
50.0225
50.0156
50.0158
50.0126
50.0173
50.0168
50.0255
50.0267
50.0389
50.0403
50.0554
50.0559
50.0741
50.0729
50.0953
50.0921
50.1201
50.1146
50.1495
50.1429
50.1836
50.1777
50.2266
51.1696
50.1937
49.7765
49.7095
49.7403
49.7527
49.7414
49.7178
49.6963
49.6761
49.6633
49.6514
49.6469
49.6416
49.6443
49.6439
49.6525
49.6556
49.6687
49.673
49.6887
49.6917
49.7088
49.709
49.7277
49.7248
49.7472
49.7414
49.77
49.7617
49.7985
49.7894
49.8337
49.826
49.8809
50.7657
49.8043
49.3928
49.3182
49.3369
49.339
49.3206
49.2933
49.2701
49.2499
49.238
49.2279
49.226
49.2233
49.229
49.2312
49.2424
49.2473
49.2618
49.2661
49.2815
49.2823
49.2971
49.2932
49.3086
49.3005
49.3194
49.3088
49.3348
49.3228
49.3584
49.3474
49.3918
49.3837
49.4395
50.325
49.3784
48.973
48.8904
48.8957
48.886
48.8594
48.8279
48.8021
48.7813
48.7695
48.7606
48.7607
48.7615
48.7714
48.7792
48.796
48.8067
48.826
48.834
48.8513
48.8525
48.8661
48.8599
48.8723
48.8606
48.8766
48.8627
48.887
48.8732
48.9089
48.898
48.9441
48.9377
48.9969
49.8715
48.9496
48.5447
48.446
48.4328
48.4092
48.3745
48.3391
48.3123
48.2921
48.2823
48.2766
48.2806
48.2862
48.3011
48.3137
48.3345
48.3477
48.3675
48.3739
48.3872
48.3826
48.3891
48.375
48.3797
48.361
48.3712
48.3529
48.3746
48.36
48.3962
48.3874
48.4362
48.4339
48.4962
49.3496
48.4477
48.0475
47.9383
47.9089
47.8714
47.8279
47.7881
47.7594
47.7394
47.7309
47.7284
47.7373
47.7496
47.7724
47.7937
47.8224
47.8416
47.8644
47.8704
47.8801
47.8692
47.868
47.8457
47.8431
47.8182
47.8246
47.8042
47.8268
47.8141
47.855
47.851
47.9061
47.91
47.9792
48.789
47.9263
47.5161
47.3779
47.3203
47.2639
47.2108
47.1675
47.1387
47.1213
47.1174
47.1217
47.1391
47.1613
47.1939
47.2239
47.2582
47.2789
47.2982
47.2961
47.2937
47.2685
47.2524
47.2163
47.2025
47.1697
47.1721
47.1514
47.177
47.1701
47.2184
47.2233
47.2871
47.3006
47.3768
48.1197
47.2926
46.8794
46.722
46.6413
46.5673
46.5044
46.4572
46.4281
46.4137
46.4152
46.4287
46.4576
46.494
46.5409
46.5835
46.6252
46.6473
46.6607
46.6468
46.6286
46.5863
46.5547
46.5063
46.4855
46.4505
46.4566
46.4431
46.4802
46.4856
46.5481
46.5662
46.6432
46.6683
46.7549
47.3835
46.6125
46.172
45.9699
45.8502
45.7524
45.679
45.6299
45.6042
45.5976
45.6112
45.6409
45.6888
45.7451
45.8087
45.862
45.9045
45.9177
45.9124
45.8739
45.8283
45.7608
45.7089
45.6478
45.6224
45.5909
45.607
45.6083
45.663
45.6869
45.768
45.8029
45.8949
45.9327
46.0286
46.4835
45.7756
45.3104
45.0697
44.9143
44.7937
44.7103
44.6603
44.6407
44.6469
44.6793
44.7339
44.8089
44.8917
44.974
45.0347
45.0693
45.0614
45.0244
44.9508
44.8725
44.7805
44.7159
44.654
44.6398
44.6272
44.6689
44.6967
44.7796
44.8277
44.9322
44.9843
45.0928
45.1408
45.2473
45.4141
44.7847
44.2694
43.9687
43.7645
43.6164
43.5242
43.4786
43.4739
43.5051
43.5713
43.6665
43.7813
43.8955
43.9911
44.0436
44.0472
43.9935
43.9027
43.7802
43.6635
43.5513
43.483
43.4341
43.4437
43.462
43.5376
43.5978
43.7113
43.7836
43.91
43.976
44.0981
44.1519
44.2661
44.099
43.5652
42.97
42.5877
42.3213
42.1406
42.0404
42.0068
42.0337
42.1154
42.2459
42.4066
42.5728
42.7099
42.7916
42.7961
42.7265
42.593
42.429
42.2561
42.1143
42.006
41.9611
41.9525
42.0075
42.0735
42.1916
42.2883
42.4313
42.5249
42.6687
42.7437
42.8761
42.932
43.0556
42.3697
41.817
41.1053
40.6425
40.315
40.1048
40.0128
40.0278
40.1424
40.3364
40.5812
40.8239
41.021
41.1228
41.1209
41.0093
40.8268
40.6024
40.3853
40.2013
40.0802
40.0183
40.0267
40.0778
40.1803
40.2926
40.4399
40.565
40.7206
40.8278
40.9745
41.054
41.1872
41.2438
41.3687
39.7888
39.4377
38.4601
37.798
37.3683
37.1551
37.1481
37.3182
37.6309
38.0149
38.3918
38.6627
38.7945
38.7502
38.5952
38.3417
38.0989
37.8765
37.739
37.6662
37.6742
37.7289
37.8385
37.9605
38.1074
38.2408
38.3862
38.5052
38.6424
38.7418
38.8698
38.9464
39.0674
39.1278
39.2506
35.6329
38.2454
36.9776
35.7001
34.8578
34.4624
34.4264
34.637
34.9824
35.3206
35.5551
35.6116
35.5471
35.3802
35.2558
35.1409
35.1429
35.1626
35.2685
35.3783
35.5164
35.6347
35.7528
35.8424
35.9454
36.0438
36.1509
36.2473
36.3453
36.4255
36.5194
36.575
36.6896
36.6994
36.8488
14.3919
13.8397
14.3615
14.6241
14.7975
14.9329
15.0437
15.1308
15.1972
15.231
15.2464
15.2304
15.2188
15.1834
15.1796
15.1585
15.1876
15.2043
15.2648
15.312
15.3825
15.4331
15.4998
15.5405
15.6018
15.6359
15.6989
15.7269
15.7978
15.8166
15.9014
15.9023
16.0084
15.9769
16.105
37.6295
37.2292
36.9731
36.8773
36.8775
36.9006
36.9147
36.9178
36.9125
36.904
36.8944
36.8838
36.8748
36.864
36.8567
36.8468
36.8422
36.8339
36.8328
36.8267
36.8292
36.8249
36.8303
36.8263
36.8334
36.8277
36.8359
36.8269
36.8367
36.8229
36.8359
36.8164