/*--------------------------------*- C++ -*----------------------------------*\
  =========                 |
  \\      /  F ield         | OpenFOAM: The Open Source CFD Toolbox
   \\    /   O peration     | Website:  https://openfoam.org
    \\  /    A nd           | Version:  6
     \\/     M anipulation  |
\*---------------------------------------------------------------------------*/
FoamFile
{
    version     2.0;
    format      ascii;
    class       volVectorField;
    location    "4";
    object      wallShearStress;
}
// * * * * * * * * * * * * * * * * * * * * * * * * * * * * * * * * * * * * * //

dimensions      [0 2 -2 0 0 0 0];

internalField   uniform (0 0 0);

boundaryField
{
    inlet
    {
        type            calculated;
        value           uniform (0 0 0);
    }
    outlet
    {
        type            calculated;
        value           uniform (0 0 0);
    }
    roughCylinder
    {
        type            calculated;
        value           nonuniform List<vector> 
3840
(
(-0.000442467 -0.000638591 -0.00027121)
(-0.000350682 -0.000532557 -1.57639e-05)
(-0.000389564 -0.000611089 4.62825e-05)
(-0.000481467 -0.000717582 0.000117843)
(-0.000577516 -0.000787879 0.000184916)
(-0.00067065 -0.000824732 0.000240417)
(-0.000753996 -0.000834955 0.000281659)
(-0.000826689 -0.000835655 0.000310664)
(-0.000887564 -0.000838438 0.000329225)
(-0.000935994 -0.000847592 0.000337596)
(-0.000975412 -0.000864 0.00033763)
(-0.0010089 -0.000886483 0.000332128)
(-0.00104 -0.000913202 0.000323242)
(-0.00107146 -0.000942804 0.000312319)
(-0.00110506 -0.000974819 0.000299953)
(-0.00114125 -0.00100893 0.000286173)
(-0.00118 -0.00104498 0.000270792)
(-0.00122096 -0.00108265 0.000253437)
(-0.00126362 -0.00112139 0.000233437)
(-0.00130721 -0.00116039 0.000209696)
(-0.00135048 -0.0011984 0.000180314)
(-0.00139138 -0.00123355 0.000142698)
(-0.00142564 -0.00126287 9.2905e-05)
(-0.00144634 -0.00128106 3.20023e-05)
(-0.000425838 -0.000563096 -0.000236764)
(-0.000375881 -0.000519573 -2.12202e-05)
(-0.000411125 -0.000596007 3.84175e-05)
(-0.000505318 -0.000702223 0.000107074)
(-0.000603993 -0.000774633 0.000172571)
(-0.000700197 -0.000814614 0.000227278)
(-0.000788222 -0.000830102 0.000269125)
(-0.000866397 -0.000835468 0.000299944)
(-0.000932107 -0.00083895 0.000320284)
(-0.000982399 -0.000846032 0.000329204)
(-0.00102392 -0.000861538 0.000329587)
(-0.00105927 -0.00088333 0.000324252)
(-0.00109202 -0.000909488 0.000315454)
(-0.00112533 -0.000938797 0.000304722)
(-0.00116063 -0.000970384 0.000292594)
(-0.00119865 -0.0010041 0.000279185)
(-0.00123927 -0.00103967 0.000264273)
(-0.00128213 -0.0010768 0.000247469)
(-0.00132668 -0.00111495 0.000228082)
(-0.00137214 -0.00115332 0.00020501)
(-0.00141723 -0.00119071 0.000176371)
(-0.00145983 -0.00122528 0.000139616)
(-0.00149552 -0.00125415 9.08937e-05)
(-0.00151709 -0.00127204 3.12974e-05)
(-0.000552098 -0.000654811 -0.000276995)
(-0.000398509 -0.000505523 -2.54552e-05)
(-0.000431416 -0.000573476 2.98145e-05)
(-0.000527363 -0.00067982 9.51684e-05)
(-0.000628661 -0.000754517 0.000159089)
(-0.00072865 -0.000798624 0.000213472)
(-0.000821516 -0.000819447 0.000256246)
(-0.000904712 -0.000829083 0.000288541)
(-0.000975298 -0.000834377 0.000310432)
(-0.00102859 -0.000839705 0.000320031)
(-0.00107167 -0.000853625 0.000320651)
(-0.00110881 -0.000874373 0.000315496)
(-0.00114348 -0.000899912 0.000306929)
(-0.0011784 -0.000928497 0.000296393)
(-0.00121555 -0.000959554 0.000284615)
(-0.00125534 -0.0009926 0.000271635)
(-0.00129775 -0.00102745 0.000257253)
(-0.0013424 -0.00106378 0.000241055)
(-0.00138873 -0.00110105 0.000222334)
(-0.00143594 -0.00113852 0.000199981)
(-0.00148273 -0.00117502 0.000172137)
(-0.00152692 -0.00120878 0.000136305)
(-0.00156396 -0.001237 8.87347e-05)
(-0.00158635 -0.00125447 3.05418e-05)
(-0.000551978 -0.000589993 -0.00024302)
(-0.000424502 -0.000488948 -3.09178e-05)
(-0.000448469 -0.000546735 2.05176e-05)
(-0.000545197 -0.000651502 8.25538e-05)
(-0.000649278 -0.000728724 0.00014474)
(-0.000752933 -0.000777119 0.000198762)
(-0.000850843 -0.000803555 0.000242598)
(-0.00093938 -0.000817668 0.000276433)
(-0.00101427 -0.000824779 0.000299461)
(-0.00107119 -0.000828592 0.000309847)
(-0.00111659 -0.000841252 0.000311066)
(-0.00115583 -0.000860911 0.000306215)
(-0.00119216 -0.000885416 0.000297879)
(-0.00122903 -0.000913348 0.000287704)
(-0.0012678 -0.000943536 0.000276297)
(-0.00130931 -0.00097576 0.000263817)
(-0.00135341 -0.0010097 0.000250022)
(-0.00139972 -0.00104502 0.000234479)
(-0.00144767 -0.00108122 0.000216458)
(-0.00149644 -0.00111756 0.000194849)
(-0.00154474 -0.00115296 0.000167817)
(-0.00159034 -0.0011857 0.000132926)
(-0.00162859 -0.00121308 8.653e-05)
(-0.00165171 -0.00123004 2.97707e-05)
(-0.000512528 -0.000493318 -0.000190539)
(-0.000439976 -0.000455768 -3.71164e-05)
(-0.00046018 -0.000514356 1.12932e-05)
(-0.000557928 -0.000617693 6.95164e-05)
(-0.000664538 -0.000697188 0.000129592)
(-0.000772388 -0.000750473 0.000183175)
(-0.000875176 -0.000782267 0.000227914)
(-0.000968331 -0.000800096 0.000263043)
(-0.00104767 -0.000809132 0.000287115)
(-0.00111045 -0.000813905 0.000299052)
(-0.00115782 -0.000823966 0.000300742)
(-0.00119893 -0.000842051 0.000296238)
(-0.00123742 -0.000865594 0.000288362)
(-0.00127585 -0.00089237 0.000278549)
(-0.00131646 -0.000921701 0.000267665)
(-0.00135957 -0.000952893 0.000255758)
(-0.00140522 -0.000985702 0.000242611)
(-0.001453 -0.00101979 0.000227768)
(-0.00150236 -0.00105468 0.000210482)
(-0.0015525 -0.00108968 0.00018964)
(-0.00160212 -0.00112376 0.000163437)
(-0.00164898 -0.00115529 0.000129501)
(-0.00168833 -0.00118169 8.42977e-05)
(-0.00171209 -0.00119803 2.89908e-05)
(-0.000639513 -0.000546468 -0.000205558)
(-0.000456941 -0.00043122 -4.18257e-05)
(-0.000468288 -0.00047863 2.12564e-06)
(-0.000564759 -0.000579328 5.5957e-05)
(-0.000674125 -0.000661408 0.000113693)
(-0.000785632 -0.000718855 0.000166503)
(-0.000893253 -0.000755651 0.000211933)
(-0.000991748 -0.000777517 0.000248442)
(-0.00107593 -0.000788579 0.000273686)
(-0.00114282 -0.000793729 0.000286682)
(-0.00119468 -0.000802062 0.000289435)
(-0.00123842 -0.000818626 0.000285673)
(-0.00127869 -0.000840545 0.000278261)
(-0.00131928 -0.000866309 0.000269062)
(-0.00136138 -0.000894338 0.000258736)
(-0.00140604 -0.000924303 0.000247492)
(-0.00145312 -0.000955799 0.000235064)
(-0.00150222 -0.00098848 0.000220975)
(-0.00155279 -0.00102187 0.000204456)
(-0.00160408 -0.00105532 0.000184398)
(-0.00165481 -0.00108786 0.000159029)
(-0.00170274 -0.00111797 0.000126051)
(-0.001743 -0.0011432 8.20466e-05)
(-0.00176731 -0.00115883 2.82049e-05)
(-0.000609281 -0.00046462 -0.000165116)
(-0.000467581 -0.000397962 -4.62298e-05)
(-0.000469726 -0.000439114 -7.23324e-06)
(-0.000565031 -0.000537341 4.20603e-05)
(-0.000676105 -0.000621036 9.69154e-05)
(-0.000791834 -0.000683072 0.000148731)
(-0.000904448 -0.000724638 0.000194599)
(-0.00100746 -0.000749561 0.000232115)
(-0.00109642 -0.000762434 0.000258563)
(-0.0011696 -0.000769492 0.000273106)
(-0.0012265 -0.000776939 0.000277138)
(-0.00127276 -0.000790669 0.000274174)
(-0.00131571 -0.000811133 0.000267597)
(-0.00135786 -0.000835215 0.000259018)
(-0.00140187 -0.000862019 0.000249459)
(-0.001448 -0.000890577 0.000238979)
(-0.00149633 -0.000920563 0.000227344)
(-0.00154652 -0.000951618 0.000214059)
(-0.00159806 -0.000983307 0.00019834)
(-0.00165026 -0.00101503 0.000179086)
(-0.00170191 -0.00104589 0.000154566)
(-0.00175075 -0.00107444 0.000122557)
(-0.00179185 -0.00109841 7.97703e-05)
(-0.00181661 -0.00111325 2.74113e-05)
(-0.000542266 -0.000368173 -0.000117463)
(-0.00047201 -0.00035875 -5.14935e-05)
(-0.000466045 -0.000398664 -1.6131e-05)
(-0.000557369 -0.000491948 2.80447e-05)
(-0.000670625 -0.000577687 7.95485e-05)
(-0.000789423 -0.000643156 0.000129713)
(-0.000906568 -0.000688822 0.000175536)
(-0.0010155 -0.000717549 0.000214123)
(-0.00111043 -0.000732834 0.000242049)
(-0.00118757 -0.000740023 0.000257715)
(-0.00125023 -0.000747709 0.000263302)
(-0.00130193 -0.000760201 0.000261854)
(-0.00134714 -0.000778051 0.000256188)
(-0.00139191 -0.000800482 0.000248587)
(-0.00143737 -0.000825423 0.00023985)
(-0.00148488 -0.000852334 0.000230246)
(-0.00153435 -0.000880665 0.000219497)
(-0.00158547 -0.000910001 0.000207081)
(-0.00163776 -0.000939895 0.000192199)
(-0.00169061 -0.000969759 0.000173759)
(-0.0017429 -0.000998762 0.000150084)
(-0.00179241 -0.00102553 0.00011904)
(-0.00183411 -0.00104804 7.74747e-05)
(-0.00185921 -0.00106201 2.66119e-05)
(-0.000649868 -0.000387246 -0.000115171)
(-0.000467722 -0.000320698 -5.50409e-05)
(-0.000453903 -0.000354909 -2.44167e-05)
(-0.00054119 -0.000444177 1.40308e-05)
(-0.00065426 -0.000529946 6.13334e-05)
(-0.000776891 -0.000599286 0.000109356)
(-0.000899472 -0.000649431 0.000154805)
(-0.00101331 -0.00068092 0.000193946)
(-0.00111327 -0.00069781 0.000223081)
(-0.00119831 -0.000707389 0.000240873)
(-0.00126622 -0.000714903 0.000248084)
(-0.00132196 -0.000725883 0.00024804)
(-0.00137176 -0.000742231 0.000243891)
(-0.00141872 -0.00076239 0.00023741)
(-0.00146653 -0.000785703 0.000229848)
(-0.00151549 -0.000810855 0.00022129)
(-0.00156587 -0.000837343 0.000211516)
(-0.00161754 -0.000864756 0.000200012)
(-0.00167019 -0.000892678 0.000185986)
(-0.00172336 -0.000920564 0.000168371)
(-0.00177606 -0.00094763 0.000145549)
(-0.00182618 -0.000972622 0.000115487)
(-0.00186849 -0.000993661 7.51642e-05)
(-0.00189381 -0.00100675 2.58088e-05)
(-0.000537011 -0.000281235 -7.62652e-05)
(-0.000456754 -0.000280578 -5.76052e-05)
(-0.000434912 -0.000310792 -3.2139e-05)
(-0.000514749 -0.000393668 2.71403e-07)
(-0.000629014 -0.00048055 4.27442e-05)
(-0.000753825 -0.000552362 8.7754e-05)
(-0.000880318 -0.000605676 0.000132012)
(-0.0010009 -0.000640955 0.000171655)
(-0.00110871 -0.000660902 0.000202416)
(-0.0011978 -0.000670216 0.000221666)
(-0.0012721 -0.00067801 0.000230977)
(-0.0013341 -0.000688618 0.000232999)
(-0.00138712 -0.000702892 0.000230356)
(-0.00143791 -0.000721672 0.000225508)
(-0.00148739 -0.000742924 0.000219216)
(-0.0015376 -0.000766134 0.000211851)
(-0.00158876 -0.00079067 0.000203176)
(-0.00164082 -0.000816074 0.000192675)
(-0.00169353 -0.000841905 0.000179553)
(-0.00174665 -0.000867678 0.000162789)
(-0.00179938 -0.000892699 0.00014084)
(-0.00184972 -0.000915817 0.000111786)
(-0.00189229 -0.000935271 7.27514e-05)
(-0.00191764 -0.00094739 2.4971e-05)
(-0.000563071 -0.000256729 -6.28332e-05)
(-0.000436827 -0.000239498 -5.969e-05)
(-0.000407126 -0.000266055 -3.87064e-05)
(-0.00047878 -0.000342122 -1.2764e-05)
(-0.000589411 -0.000426535 2.37609e-05)
(-0.000716973 -0.000501223 6.4848e-05)
(-0.000849744 -0.000559256 0.000107436)
(-0.000975985 -0.000597446 0.000146913)
(-0.00108888 -0.000618616 0.000178607)
(-0.00118828 -0.000630926 0.000200502)
(-0.0012691 -0.000638678 0.000212153)
(-0.00133531 -0.000647577 0.000216169)
(-0.00139382 -0.000660754 0.000215698)
(-0.00144667 -0.000677103 0.000212437)
(-0.00149864 -0.000696549 0.000207755)
(-0.00155014 -0.000717757 0.00020178)
(-0.00160179 -0.000740166 0.000194325)
(-0.00165376 -0.000763356 0.000184897)
(-0.00170613 -0.000786955 0.000172736)
(-0.00175885 -0.000810523 0.000156868)
(-0.00181131 -0.000833429 0.00013584)
(-0.00186166 -0.000854645 0.000107853)
(-0.00190442 -0.000872553 7.01935e-05)
(-0.00192968 -0.000883661 2.40843e-05)
(-0.000475283 -0.000187708 -4.11251e-05)
(-0.000409602 -0.000199779 -6.00373e-05)
(-0.000371182 -0.000221536 -4.41423e-05)
(-0.000430245 -0.00028843 -2.45614e-05)
(-0.000540435 -0.000372497 5.18519e-06)
(-0.000669037 -0.000448767 4.12439e-05)
(-0.000804296 -0.000509006 8.08673e-05)
(-0.000938013 -0.000551255 0.000119809)
(-0.00106163 -0.000576646 0.000153035)
(-0.00116509 -0.000588167 0.000176563)
(-0.00125327 -0.000595947 0.000190916)
(-0.00132763 -0.000604709 0.000197882)
(-0.00138962 -0.000615549 0.000199583)
(-0.00144724 -0.000630485 0.000198592)
(-0.00150092 -0.000647595 0.000195641)
(-0.00155341 -0.000666572 0.000191214)
(-0.00160542 -0.000686794 0.000185121)
(-0.00165722 -0.000707776 0.00017687)
(-0.00170896 -0.000729098 0.000165718)
(-0.00176089 -0.000750388 0.000150765)
(-0.00181268 -0.000771094 0.000130667)
(-0.00186263 -0.000790312 0.000103767)
(-0.00190513 -0.000806514 6.75249e-05)
(-0.00193013 -0.000816553 2.31597e-05)
(-0.000443878 -0.000149739 -2.66962e-05)
(-0.000374325 -0.000161763 -6.01643e-05)
(-0.000327349 -0.000178597 -4.76593e-05)
(-0.000373372 -0.00023613 -3.43725e-05)
(-0.000474117 -0.00031367 -1.23332e-05)
(-0.000602786 -0.000390956 1.72121e-05)
(-0.000745593 -0.000456845 5.29889e-05)
(-0.000885803 -0.000502674 9.04263e-05)
(-0.00101396 -0.000528998 0.000123921)
(-0.00113109 -0.000544557 0.000150392)
(-0.00122776 -0.000552484 0.000167792)
(-0.00130658 -0.000559005 0.000177484)
(-0.00137568 -0.000568775 0.000182236)
(-0.00143536 -0.000580859 0.000183459)
(-0.00149183 -0.000595932 0.000182671)
(-0.00154557 -0.000612706 0.000180046)
(-0.00159758 -0.000630606 0.000175443)
(-0.00164858 -0.000649198 0.000168427)
(-0.0016992 -0.000668169 0.000158328)
(-0.00174997 -0.00068715 0.000144324)
(-0.0018008 -0.000705662 0.000125197)
(-0.00185018 -0.000722902 9.94419e-05)
(-0.00189252 -0.000737501 6.47097e-05)
(-0.00191718 -0.000746474 2.21868e-05)
(-0.000388612 -0.000109876 -1.57525e-05)
(-0.000329856 -0.000127543 -5.8619e-05)
(-0.000277762 -0.000138959 -4.9428e-05)
(-0.000301243 -0.000181343 -4.0433e-05)
(-0.000399154 -0.00025625 -2.74999e-05)
(-0.000527762 -0.000334286 -5.90501e-06)
(-0.000669751 -0.000400878 2.42041e-05)
(-0.000818017 -0.00045164 5.91797e-05)
(-0.000960734 -0.000484292 9.34457e-05)
(-0.0010814 -0.000498734 0.000121448)
(-0.00118638 -0.000506553 0.000142013)
(-0.00127597 -0.000513227 0.000155581)
(-0.00134876 -0.000520164 0.000163296)
(-0.00141457 -0.000530767 0.000167608)
(-0.00147286 -0.000543233 0.000169142)
(-0.00152729 -0.000557536 0.000168479)
(-0.00157922 -0.00057312 0.000165518)
(-0.00162946 -0.000589462 0.000159847)
(-0.00167869 -0.000606131 0.000150835)
(-0.00172789 -0.000622823 0.000137779)
(-0.00177733 -0.000639117 0.000119611)
(-0.00182568 -0.000654308 9.50003e-05)
(-0.00186723 -0.000667134 6.18014e-05)
(-0.00189136 -0.000675018 2.11825e-05)
(-0.000277314 -6.50077e-05 -5.32851e-06)
(-0.000266732 -9.28821e-05 -5.40021e-05)
(-0.000219076 -0.000101531 -4.79102e-05)
(-0.000229154 -0.00013257 -4.311e-05)
(-0.000305611 -0.000193183 -3.81255e-05)
(-0.000428976 -0.000269139 -2.62541e-05)
(-0.000580858 -0.000343486 -3.88608e-06)
(-0.000735367 -0.000398725 2.69292e-05)
(-0.000880761 -0.000432376 5.99957e-05)
(-0.00101955 -0.000453104 9.05339e-05)
(-0.0011354 -0.000461846 0.000114553)
(-0.00122936 -0.00046585 0.000131499)
(-0.00131137 -0.000471852 0.000143192)
(-0.00137901 -0.000479123 0.000150431)
(-0.00144041 -0.000489351 0.000154749)
(-0.00149607 -0.000501365 0.000156346)
(-0.00154746 -0.000514559 0.000155149)
(-0.00159603 -0.000528498 0.000150848)
(-0.00164327 -0.000542857 0.000142947)
(-0.00169049 -0.000557314 0.000130863)
(-0.00173825 -0.000571474 0.00011369)
(-0.00178551 -0.000584721 9.02899e-05)
(-0.00182661 -0.000595971 5.87347e-05)
(-0.00185014 -0.000602793 2.01264e-05)
(-0.000184068 -3.59167e-05 3.00312e-06)
(-0.000198639 -6.25306e-05 -4.85105e-05)
(-0.000161097 -7.04968e-05 -4.50136e-05)
(-0.000130204 -7.39795e-05 -3.3787e-05)
(-0.000210162 -0.000132306 -4.1352e-05)
(-0.000328855 -0.000206983 -4.24947e-05)
(-0.000471881 -0.000279545 -2.93654e-05)
(-0.000635958 -0.000342464 -4.77357e-06)
(-0.000800839 -0.00038625 2.65488e-05)
(-0.000940886 -0.000405978 5.77414e-05)
(-0.00106573 -0.000415334 8.48252e-05)
(-0.00117355 -0.000420427 0.000106218)
(-0.00125888 -0.000423241 0.000121557)
(-0.00133436 -0.000429156 0.000132705)
(-0.00139764 -0.00043663 0.000139962)
(-0.00145352 -0.000446048 0.000143934)
(-0.00150427 -0.000456964 0.000144643)
(-0.00155145 -0.000468795 0.000141826)
(-0.00159651 -0.000481029 0.000135053)
(-0.00164134 -0.000493362 0.000123913)
(-0.00168697 -0.000505446 0.000107703)
(-0.00173259 -0.00051672 8.54917e-05)
(-0.00177233 -0.000526206 5.55831e-05)
(-0.00179511 -0.000531982 1.90421e-05)
(-6.61602e-05 -1.02604e-05 8.85535e-06)
(-0.000108578 -3.12457e-05 -3.61767e-05)
(-9.33872e-05 -3.99713e-05 -3.72589e-05)
(-6.05969e-05 -3.52476e-05 -2.32256e-05)
(-7.3547e-05 -4.85454e-05 -2.24002e-05)
(-0.000201325 -0.000129503 -4.36942e-05)
(-0.000358692 -0.000215132 -4.91603e-05)
(-0.000523445 -0.000283347 -3.3929e-05)
(-0.000686215 -0.000328761 -6.75508e-06)
(-0.000850334 -0.000359334 2.45568e-05)
(-0.00098776 -0.000371453 5.43135e-05)
(-0.00109891 -0.000374202 7.91968e-05)
(-0.00119612 -0.000376925 9.91133e-05)
(-0.00127254 -0.000379312 0.000113761)
(-0.00133907 -0.000384563 0.000124354)
(-0.00139613 -0.00039181 0.000131005)
(-0.00144564 -0.000400471 0.000133702)
(-0.0014901 -0.000410067 0.000132333)
(-0.00153217 -0.000420235 0.000126677)
(-0.00157413 -0.000430587 0.000116493)
(-0.00161738 -0.000440751 0.000101285)
(-0.00166142 -0.000450258 8.0351e-05)
(-0.00170055 -0.00045831 5.22369e-05)
(-0.00172251 -0.000463108 1.78938e-05)
(-2.57361e-06 2.06628e-06 1.00788e-05)
(-1.9992e-05 -5.01271e-06 -1.20041e-05)
(-3.10928e-05 -1.42504e-05 -2.2061e-05)
(-5.01943e-05 -3.4116e-05 -3.26911e-05)
(-4.71183e-05 -3.62222e-05 -2.34882e-05)
(-0.000114408 -8.05876e-05 -4.03347e-05)
(-0.000211636 -0.000131419 -5.01865e-05)
(-0.000392306 -0.000215745 -5.5054e-05)
(-0.000582636 -0.000279825 -3.73452e-05)
(-0.000742286 -0.0003102 -7.8661e-06)
(-0.000889571 -0.000325603 2.32994e-05)
(-0.00101778 -0.00033172 5.19489e-05)
(-0.00111632 -0.000331477 7.56116e-05)
(-0.00120248 -0.00033326 9.46592e-05)
(-0.0012707 -0.000336007 0.000108651)
(-0.0013271 -0.000340796 0.000117979)
(-0.00137525 -0.000347441 0.000122759)
(-0.00141767 -0.0003553 0.000122943)
(-0.00145673 -0.000363715 0.000118399)
(-0.00149549 -0.0003723 0.000109118)
(-0.00153589 -0.000380691 9.48565e-05)
(-0.00157767 -0.00038844 7.51531e-05)
(-0.0016148 -0.000394832 4.88094e-05)
(-0.00163576 -0.000398698 1.67184e-05)
(9.55476e-06 8.69863e-06 1.88229e-05)
(7.43668e-06 1.864e-06 -7.60131e-06)
(-7.91328e-07 -5.9811e-06 -1.58966e-05)
(-1.00124e-05 -1.61258e-05 -1.89722e-05)
(-3.07605e-05 -3.52905e-05 -3.02356e-05)
(-3.95809e-05 -3.39524e-05 -2.39652e-05)
(-6.94319e-05 -4.69176e-05 -2.65749e-05)
(-0.000261328 -0.000145102 -6.20953e-05)
(-0.000434158 -0.000210246 -5.91898e-05)
(-0.00062705 -0.000261492 -3.70028e-05)
(-0.00078579 -0.000282545 -6.41713e-06)
(-0.000914415 -0.000287874 2.44346e-05)
(-0.0010283 -0.000289882 5.21944e-05)
(-0.00111314 -0.000288589 7.478e-05)
(-0.00118416 -0.00028963 9.23075e-05)
(-0.00124151 -0.000292769 0.000104527)
(-0.00128749 -0.000297583 0.000111373)
(-0.00132588 -0.000303599 0.000112962)
(-0.00136082 -0.000310367 0.000109459)
(-0.00139581 -0.000317388 0.000101078)
(-0.00143313 -0.000324238 8.78212e-05)
(-0.00147291 -0.000330534 6.94828e-05)
(-0.00150943 -0.000335771 4.51228e-05)
(-0.00152943 -0.000338812 1.54576e-05)
(1.10747e-05 1.32054e-05 2.52778e-05)
(2.36808e-05 7.05452e-06 -8.25829e-06)
(3.1183e-05 -1.97978e-06 -1.78478e-05)
(2.44511e-05 -1.57071e-05 -2.0804e-05)
(7.95061e-06 -2.61873e-05 -2.21704e-05)
(-2.00558e-05 -3.36128e-05 -2.81958e-05)
(-3.85743e-05 -2.98507e-05 -2.43389e-05)
(-0.00014483 -8.23941e-05 -5.52546e-05)
(-0.000317458 -0.000154106 -7.26754e-05)
(-0.000489698 -0.000204998 -5.93227e-05)
(-0.000662214 -0.000236186 -3.28309e-05)
(-0.000811626 -0.000249188 -1.46076e-06)
(-0.000921687 -0.000249204 2.89512e-05)
(-0.0010183 -0.000249203 5.55139e-05)
(-0.00109034 -0.000248694 7.64182e-05)
(-0.00114552 -0.000249957 9.12921e-05)
(-0.0011891 -0.000253341 0.00010018)
(-0.00122481 -0.000258229 0.000103257)
(-0.001256 -0.000263811 0.000100767)
(-0.00128704 -0.000269566 9.32032e-05)
(-0.00132087 -0.000275086 8.08686e-05)
(-0.00135775 -0.000279979 6.38145e-05)
(-0.00139147 -0.000283772 4.13678e-05)
(-0.00141021 -0.000286045 1.41725e-05)
(1.80469e-05 1.36486e-05 2.49904e-05)
(3.56165e-05 8.18518e-06 -1.03151e-05)
(4.59502e-05 -3.37521e-07 -1.75039e-05)
(4.76719e-05 -1.24814e-05 -1.94105e-05)
(3.39354e-05 -2.0301e-05 -1.59559e-05)
(1.17272e-05 -2.01192e-05 -1.22982e-05)
(-2.122e-05 -2.79795e-05 -2.81821e-05)
(-7.3131e-05 -4.58499e-05 -4.53969e-05)
(-9.45415e-05 -4.59801e-05 -3.304e-05)
(-0.000362432 -0.000151082 -7.25142e-05)
(-0.000537239 -0.000191254 -5.45539e-05)
(-0.000681499 -0.000206413 -2.43826e-05)
(-0.00081229 -0.000213138 7.41789e-06)
(-0.00090284 -0.000211318 3.64796e-05)
(-0.000976141 -0.000210388 6.03218e-05)
(-0.00103171 -0.000211098 7.77965e-05)
(-0.00107199 -0.000213448 8.85096e-05)
(-0.00110205 -0.000217082 9.27278e-05)
(-0.00112789 -0.000221553 9.10831e-05)
(-0.00115429 -0.000226252 8.43249e-05)
(-0.00118439 -0.000230711 7.30171e-05)
(-0.00121895 -0.000234618 5.74676e-05)
(-0.00125229 -0.000237684 3.72543e-05)
(-0.00127004 -0.000239379 1.27703e-05)
(2.88849e-05 1.26669e-05 2.42227e-05)
(6.77665e-05 1.01139e-05 -1.40219e-05)
(8.32974e-05 2.25368e-08 -2.42028e-05)
(6.44438e-05 -1.05949e-05 -2.08569e-05)
(5.69765e-05 -2.07841e-05 -1.98515e-05)
(5.34602e-05 -3.56096e-05 -2.13979e-05)
(1.48516e-05 -3.14298e-05 -1.82374e-05)
(-1.95635e-05 -1.6859e-05 -1.96176e-05)
(-5.80069e-05 -2.85355e-05 -3.0575e-05)
(-0.000185114 -7.62459e-05 -5.63966e-05)
(-0.00039686 -0.000140965 -6.62956e-05)
(-0.000566411 -0.000170509 -4.36706e-05)
(-0.000682516 -0.000176247 -1.159e-05)
(-0.000787856 -0.000179136 1.93365e-05)
(-0.00086086 -0.000178462 4.55748e-05)
(-0.000911872 -0.000178393 6.50513e-05)
(-0.000948156 -0.000180175 7.73376e-05)
(-0.000975179 -0.000183495 8.27572e-05)
(-0.00099686 -0.000187428 8.19149e-05)
(-0.00101884 -0.00019141 7.58555e-05)
(-0.00104499 -0.000195049 6.54605e-05)
(-0.001076 -0.000198021 5.12752e-05)
(-0.00110549 -0.000199977 3.31328e-05)
(-0.00112154 -0.000201109 1.13591e-05)
(3.84554e-05 1.23551e-05 2.51345e-05)
(9.51974e-05 1.16108e-05 -1.48023e-05)
(0.000124071 9.2303e-07 -3.01768e-05)
(0.000135128 -1.52209e-05 -3.82793e-05)
(0.000108932 -2.80961e-05 -3.46869e-05)
(6.55784e-05 -3.08461e-05 -2.33357e-05)
(4.14825e-05 -3.72711e-05 -1.67381e-05)
(2.7559e-06 -2.16981e-05 -1.29167e-05)
(-3.72355e-05 -1.86986e-05 -2.83385e-05)
(-6.81225e-05 -2.74739e-05 -3.0915e-05)
(-0.00025377 -8.88814e-05 -6.39739e-05)
(-0.000412848 -0.000124571 -5.30941e-05)
(-0.00056202 -0.000144573 -2.67789e-05)
(-0.000651469 -0.000146758 4.18122e-06)
(-0.000722825 -0.000147615 3.14067e-05)
(-0.000773351 -0.00014862 5.22637e-05)
(-0.00080546 -0.00015047 6.55862e-05)
(-0.000824712 -0.00015308 7.14975e-05)
(-0.000839788 -0.000156335 7.11366e-05)
(-0.000856413 -0.000159683 6.57768e-05)
(-0.000878343 -0.000162742 5.65068e-05)
(-0.000906837 -0.00016531 4.4071e-05)
(-0.00093638 -0.000167155 2.8495e-05)
(-0.000951734 -0.000168068 9.78362e-06)
(4.58394e-05 1.19474e-05 2.65046e-05)
(0.00010173 1.11238e-05 -1.23914e-05)
(0.00013782 2.90776e-06 -2.94192e-05)
(0.000151215 -1.11573e-05 -3.93482e-05)
(0.000147456 -2.79888e-05 -4.40306e-05)
(0.00012075 -4.13132e-05 -4.02038e-05)
(4.18511e-05 -2.4541e-05 -1.52165e-05)
(3.73115e-05 -4.47412e-05 -1.80783e-05)
(-1.38759e-05 -2.26761e-05 -2.29807e-05)
(-5.47954e-05 -2.03546e-05 -3.4552e-05)
(-0.000101394 -3.34903e-05 -3.67691e-05)
(-0.000304853 -9.00558e-05 -5.89142e-05)
(-0.000414162 -0.00010757 -3.53295e-05)
(-0.000527696 -0.000119931 -7.4601e-06)
(-0.000596404 -0.000123072 1.978e-05)
(-0.000638943 -0.000124465 4.1037e-05)
(-0.000664503 -0.000126474 5.47806e-05)
(-0.000681587 -0.000129642 6.1348e-05)
(-0.000692895 -0.000132897 6.14722e-05)
(-0.000705223 -0.000135908 5.66965e-05)
(-0.000723128 -0.000138617 4.83829e-05)
(-0.000747344 -0.000140723 3.74202e-05)
(-0.000771757 -0.00014185 2.40507e-05)
(-0.000784515 -0.000142351 8.25399e-06)
(5.06722e-05 1.01847e-05 2.64724e-05)
(9.89434e-05 7.96473e-06 -9.62567e-06)
(0.000136522 1.93434e-06 -2.59676e-05)
(0.000159027 -9.4777e-06 -3.78183e-05)
(0.000161282 -2.44713e-05 -4.47361e-05)
(0.000141935 -3.867e-05 -4.47069e-05)
(0.000117039 -5.20152e-05 -4.12163e-05)
(3.30527e-05 -2.51327e-05 -1.31604e-05)
(1.1788e-05 -2.7349e-05 -1.18817e-05)
(-1.94905e-05 -9.37785e-06 -1.757e-05)
(-9.4042e-05 -2.85234e-05 -4.80884e-05)
(-0.000100037 -2.82323e-05 -2.71979e-05)
(-0.000303568 -7.85515e-05 -3.95518e-05)
(-0.000376894 -8.8551e-05 -1.46279e-05)
(-0.000441879 -9.52299e-05 9.82706e-06)
(-0.000483733 -9.92559e-05 2.98313e-05)
(-0.000505875 -0.000102286 4.30486e-05)
(-0.000511715 -0.000104569 4.88129e-05)
(-0.000515014 -0.00010707 4.88469e-05)
(-0.000521517 -0.000109328 4.47256e-05)
(-0.000534801 -0.000111826 3.78442e-05)
(-0.000556559 -0.00011405 2.91033e-05)
(-0.000581634 -0.000115966 1.87701e-05)
(-0.000595013 -0.000116712 6.4731e-06)
(5.41967e-05 7.13493e-06 2.55845e-05)
(9.90087e-05 3.76171e-06 -7.11644e-06)
(0.000132714 -1.62358e-06 -2.14136e-05)
(0.000151345 -1.02408e-05 -3.17783e-05)
(0.00015838 -2.21192e-05 -3.96118e-05)
(0.000153715 -3.67153e-05 -4.37933e-05)
(0.000126918 -4.72465e-05 -3.98605e-05)
(9.61287e-05 -5.47998e-05 -3.31376e-05)
(2.33227e-05 -2.35485e-05 -9.48281e-06)
(-5.14711e-06 -2.30018e-05 -1.75004e-05)
(-4.22268e-05 -1.18768e-05 -2.80272e-05)
(-6.09084e-05 -1.66103e-05 -2.22167e-05)
(-0.000118379 -3.01379e-05 -2.12082e-05)
(-0.000267543 -6.37542e-05 -1.76359e-05)
(-0.000322936 -7.35869e-05 3.21092e-06)
(-0.000352985 -7.85096e-05 2.119e-05)
(-0.00036483 -8.13245e-05 3.28881e-05)
(-0.000372465 -8.48689e-05 3.87769e-05)
(-0.000373077 -8.70533e-05 3.89369e-05)
(-0.000378134 -8.94504e-05 3.54224e-05)
(-0.000386487 -9.12791e-05 2.96022e-05)
(-0.000404488 -9.35465e-05 2.24447e-05)
(-0.000422757 -9.4888e-05 1.42891e-05)
(-0.000432085 -9.55717e-05 4.88215e-06)
(5.46792e-05 4.23978e-06 2.49972e-05)
(9.78732e-05 6.59082e-07 -5.04727e-06)
(0.000128114 -4.22529e-06 -1.79033e-05)
(0.00014676 -1.16242e-05 -2.73809e-05)
(0.000154202 -2.13166e-05 -3.50138e-05)
(0.00015027 -3.34156e-05 -3.89783e-05)
(0.000139302 -4.66607e-05 -3.90187e-05)
(0.000113034 -5.41715e-05 -3.34609e-05)
(6.7398e-05 -4.97438e-05 -2.15767e-05)
(1.43284e-05 -2.43874e-05 -7.31802e-06)
(-2.61818e-05 -1.18042e-05 -2.24902e-05)
(-6.90588e-05 -1.72547e-05 -3.2549e-05)
(-0.000109052 -2.94834e-05 -2.53858e-05)
(-7.76445e-05 -1.92329e-05 -7.14189e-06)
(-0.000155707 -3.7826e-05 -3.15145e-07)
(-0.000185176 -4.64225e-05 1.10064e-05)
(-0.000198975 -5.18845e-05 1.97181e-05)
(-0.000186902 -4.99705e-05 2.21732e-05)
(-0.000183175 -4.95341e-05 2.16122e-05)
(-0.000171312 -4.87899e-05 1.80691e-05)
(-0.000184126 -5.08413e-05 1.55963e-05)
(-0.000194578 -5.35011e-05 1.15419e-05)
(-0.000217158 -5.7808e-05 7.65217e-06)
(-0.000228479 -6.20809e-05 2.63053e-06)
(5.46788e-05 2.99628e-06 2.64922e-05)
(8.96876e-05 -8.44472e-07 -3.71519e-06)
(0.000116741 -5.32663e-06 -1.47332e-05)
(0.000133043 -1.16146e-05 -2.24893e-05)
(0.000140861 -1.99475e-05 -2.92312e-05)
(0.000142975 -3.09292e-05 -3.39143e-05)
(0.000136134 -4.29965e-05 -3.39625e-05)
(0.000120551 -5.22537e-05 -3.01399e-05)
(9.25801e-05 -5.63875e-05 -2.32234e-05)
(4.51812e-05 -4.79437e-05 -1.03266e-05)
(-2.34859e-06 -2.05279e-05 -5.90837e-06)
(-3.30462e-05 -9.70785e-06 -1.57769e-05)
(-7.12055e-05 -2.10844e-05 -2.02717e-05)
(-9.3306e-05 -2.82211e-05 -1.13351e-05)
(-0.00011633 -3.50073e-05 -1.10778e-06)
(-0.000108071 -3.28786e-05 7.11471e-06)
(-0.000114562 -3.75475e-05 1.32078e-05)
(-0.000109801 -3.78516e-05 1.53698e-05)
(-0.000130436 -4.80841e-05 1.82319e-05)
(-0.000107261 -4.08806e-05 1.33637e-05)
(-0.000135585 -5.20626e-05 1.29759e-05)
(-7.83721e-05 -2.99853e-05 5.08536e-06)
(-9.14881e-05 -3.36425e-05 3.47486e-06)
(-0.000141012 -4.98907e-05 1.81433e-06)
(5.27424e-05 2.63556e-06 2.80588e-05)
(8.21072e-05 -1.66663e-06 -3.05511e-06)
(0.00010395 -5.94227e-06 -1.21083e-05)
(0.000117587 -1.15624e-05 -1.80559e-05)
(0.000125036 -1.88506e-05 -2.33313e-05)
(0.000127787 -2.8206e-05 -2.69226e-05)
(0.000128422 -3.95175e-05 -2.77692e-05)
(0.000120693 -4.91844e-05 -2.49505e-05)
(9.80011e-05 -5.32162e-05 -1.84131e-05)
(5.76866e-05 -4.76681e-05 -6.90874e-06)
(1.78396e-05 -3.63452e-05 3.18062e-06)
(-6.94211e-06 -6.87717e-06 -1.50694e-06)
(-2.98309e-05 -1.21758e-05 -7.92049e-06)
(-5.53697e-05 -2.05984e-05 -7.3385e-06)
(-3.55187e-05 -1.45384e-05 -3.95787e-07)
(-7.55331e-05 -3.20522e-05 6.6297e-06)
(-3.6393e-05 -1.63439e-05 5.44082e-06)
(-7.37416e-05 -3.78547e-05 1.3289e-05)
(-3.25726e-05 -1.88254e-05 6.16731e-06)
(-6.895e-05 -3.93857e-05 1.12495e-05)
(-3.2513e-05 -1.99819e-05 3.8332e-06)
(-6.49718e-05 -3.79665e-05 4.96381e-06)
(-6.99391e-05 -3.89194e-05 3.02003e-06)
(-9.14302e-05 -4.62399e-05 1.38877e-06)
(4.92567e-05 2.53704e-06 2.95372e-05)
(6.95691e-05 -1.83186e-06 -2.3649e-06)
(8.79588e-05 -6.02018e-06 -9.80174e-06)
(9.78534e-05 -1.11538e-05 -1.38103e-05)
(0.000103915 -1.75141e-05 -1.69672e-05)
(0.000109621 -2.57887e-05 -1.9199e-05)
(0.000114889 -3.53439e-05 -2.00518e-05)
(0.000114286 -4.46323e-05 -1.86669e-05)
(0.00010148 -5.09097e-05 -1.37751e-05)
(7.13849e-05 -5.01589e-05 -4.47929e-06)
(1.8527e-05 -2.26142e-05 3.44249e-06)
(3.56742e-06 -1.91024e-05 7.36805e-06)
(-1.04268e-05 -1.36781e-05 3.67625e-06)
(-2.35907e-05 -1.74543e-05 6.35236e-07)
(-2.90493e-05 -1.90472e-05 2.05169e-06)
(-2.53312e-05 -1.88454e-05 4.21919e-06)
(-3.07312e-05 -2.61554e-05 8.17533e-06)
(-2.06715e-05 -2.27942e-05 7.30484e-06)
(-1.27871e-05 -1.67433e-05 5.15983e-06)
(-2.1278e-05 -3.1964e-05 6.90971e-06)
(-1.42112e-05 -2.04355e-05 2.87813e-06)
(-1.69272e-05 -2.16521e-05 1.49751e-06)
(-1.82544e-05 -1.99309e-05 5.71055e-07)
(-2.20587e-05 -2.3857e-05 3.68849e-08)
(4.51516e-05 3.14523e-06 3.15869e-05)
(6.17878e-05 -1.17023e-06 -2.19921e-06)
(7.45538e-05 -5.47106e-06 -8.61855e-06)
(8.00536e-05 -1.03905e-05 -1.08476e-05)
(8.35825e-05 -1.60352e-05 -1.16888e-05)
(8.96766e-05 -2.30564e-05 -1.17367e-05)
(9.96252e-05 -3.13404e-05 -1.20409e-05)
(0.000105446 -3.96771e-05 -1.19692e-05)
(9.76473e-05 -4.61402e-05 -8.48328e-06)
(7.78364e-05 -4.89008e-05 -9.39494e-07)
(4.77718e-05 -4.51947e-05 8.653e-06)
(1.59908e-05 -2.60969e-05 1.19232e-05)
(6.50895e-06 -2.00042e-05 1.40205e-05)
(-2.2388e-07 -1.77247e-05 1.16239e-05)
(-1.65573e-06 -8.88806e-06 5.17423e-06)
(-2.58453e-06 -1.95645e-05 9.47678e-06)
(-5.50796e-07 -1.89266e-05 8.20585e-06)