/*--------------------------------*- C++ -*----------------------------------*\
  =========                 |
  \\      /  F ield         | OpenFOAM: The Open Source CFD Toolbox
   \\    /   O peration     | Website:  https://openfoam.org
    \\  /    A nd           | Version:  6
     \\/     M anipulation  |
\*---------------------------------------------------------------------------*/
FoamFile
{
    version     2.0;
    format      ascii;
    class       volScalarField;
    location    "60";
    object      k;
}
// * * * * * * * * * * * * * * * * * * * * * * * * * * * * * * * * * * * * * //

dimensions      [0 2 -2 0 0 0 0];

internalField   nonuniform List<scalar> 
720
(
3.42955e-05
3.42955e-05
3.42964e-05
2.185e-05
2.18502e-05
2.1851e-05
3.70511e-05
3.70516e-05
3.70531e-05
5.49187e-05
5.49201e-05
5.49218e-05
7.56714e-05
7.56746e-05
7.56753e-05
0.000100434
0.00010044
0.00010044
0.000130674
0.000130684
0.000130681
0.000168396
0.000168409
0.000168405
0.000216639
0.000216658
0.000216648
0.000279632
0.000279658
0.000279643
0.000104494
0.000104494
0.000104496
0.000370833
0.000370835
0.000370844
0.000505762
0.000505766
0.000505777
0.000616211
0.000616219
0.000616228
0.000707069
0.000707082
0.000707084
0.000784472
0.000784489
0.000784488
0.000851653
0.000851672
0.000851667
0.000910439
0.000910457
0.00091045
0.000962097
0.000962114
0.000962105
0.0010072
0.00100722
0.00100721
0.000143991
0.000143991
0.000143992
0.00051269
0.000512692
0.000512701
0.000620224
0.000620229
0.000620239
0.000717319
0.000717328
0.000717335
0.000797831
0.000797844
0.000797846
0.000867046
0.000867062
0.000867061
0.00092793
0.000927949
0.000927944
0.000982256
0.000982275
0.000982267
0.00103136
0.00103138
0.00103137
0.001076
0.00107602
0.00107601
0.000183235
0.000183235
0.000183237
0.000569301
0.000569304
0.000569314
0.000648953
0.00064896
0.00064897
0.00074167
0.00074168
0.000741687
0.000820201
0.000820216
0.000820217
0.000888075
0.000888093
0.000888091
0.000947919
0.00094794
0.000947933
0.00100141
0.00100143
0.00100142
0.00104984
0.00104986
0.00104985
0.00109398
0.001094
0.00109399
0.000223458
0.000223458
0.000223461
0.000620086
0.000620089
0.000620101
0.000662698
0.000662706
0.000662717
0.000748509
0.000748521
0.000748528
0.000824777
0.000824793
0.000824794
0.000891561
0.000891581
0.000891578
0.00095075
0.000950772
0.000950764
0.00100379
0.00100381
0.0010038
0.00105189
0.00105191
0.0010519
0.00109578
0.0010958
0.00109579
0.000265508
0.000265508
0.000265511
0.000674539
0.000674543
0.000674557
0.000675428
0.000675438
0.00067545
0.000750191
0.000750206
0.000750213
0.000822844
0.000822861
0.000822862
0.000888089
0.00088811
0.000888106
0.00094649
0.000946512
0.000946503
0.000999066
0.000999088
0.000999075
0.00104688
0.0010469
0.00104689
0.00109059
0.00109061
0.00109059
0.000309902
0.000309902
0.000309906
0.000731609
0.000731615
0.00073163
0.000692197
0.00069221
0.000692223
0.000751174
0.000751192
0.000751199
0.0008181
0.00081812
0.00081812
0.00088092
0.000880943
0.000880938
0.000938143
0.000938167
0.000938156
0.000990084
0.000990107
0.000990093
0.00103754
0.00103756
0.00103755
0.00108103
0.00108105
0.00108103
0.000356736
0.000356736
0.00035674
0.000787528
0.000787536
0.000787553
0.000715029
0.000715046
0.00071506
0.000753932
0.000753953
0.00075396
0.000812383
0.000812404
0.000812404
0.000871454
0.000871478
0.000871472
0.000926857
0.000926881
0.000926869
0.000977843
0.000977866
0.00097785
0.00102478
0.0010248
0.00102478
0.00106797
0.001068
0.00106798
0.000405575
0.000405576
0.000405581
0.000838091
0.000838102
0.000838121
0.000744093
0.000744114
0.000744129
0.000760168
0.000760193
0.000760201
0.00080701
0.000807034
0.000807033
0.000860543
0.000860567
0.00086056
0.000913189
0.000913213
0.000913199
0.000962727
0.00096275
0.000962732
0.00100889
0.00100891
0.00100889
0.00105165
0.00105167
0.00105165
0.000455449
0.00045545
0.000455456
0.000879585
0.000879599
0.000879619
0.000778067
0.000778094
0.000778111
0.000770965
0.000770994
0.000771004
0.00080313
0.000803156
0.000803156
0.000848905
0.000848929
0.000848921
0.000897509
0.000897533
0.000897517
0.000944891
0.000944913
0.000944893
0.000989897
0.000989918
0.000989894
0.00103202
0.00103204
0.00103202
0.000505002
0.000505004
0.00050501
0.000909284
0.000909301
0.000909323
0.000814428
0.00081446
0.000814479
0.000786631
0.000786665
0.000786676
0.000801742
0.000801769
0.00080177
0.000837263
0.000837287
0.000837278
0.000880165
0.000880187
0.000880169
0.000924411
0.000924431
0.000924408
0.000967716
0.000967735
0.000967708
0.0010089
0.00100892
0.00100889
0.000552799
0.000552801
0.000552808
0.000925775
0.000925796
0.000925819
0.000849787
0.000849826
0.000849846
0.000806506
0.000806546
0.000806559
0.000803545
0.000803575
0.000803576
0.000826356
0.000826378
0.000826369
0.000861554
0.000861573
0.000861554
0.000901366
0.000901384
0.000901359
0.000942212
0.000942228
0.000942198
0.000982039
0.000982055
0.000982022
0.000597688
0.00059769
0.000597698
0.000929151
0.000929175
0.000929199
0.000880342
0.000880387
0.000880409
0.000828855
0.000828902
0.000828916
0.0008087
0.000808732
0.000808733
0.000816847
0.000816867
0.000816857
0.000842144
0.000842161
0.000842139
0.000875893
0.000875907
0.000875881
0.000913256
0.000913267
0.000913235
0.000951125
0.000951136
0.000951102
0.000639088
0.000639091
0.000639099
0.000921072
0.000921101
0.000921125
0.000902428
0.000902479
0.000902503
0.000850931
0.000850983
0.000850999
0.000816566
0.000816601
0.000816604
0.000809146
0.000809164
0.000809153
0.000822438
0.000822449
0.000822427
0.000848217
0.000848225
0.000848197
0.000880769
0.000880773
0.00088074
0.000915864
0.000915868
0.000915833
0.000677067
0.000677071
0.000677079
0.00090464
0.000904673
0.000904696
0.000913165
0.000913222
0.000913247
0.000869242
0.0008693
0.000869319
0.000825523
0.00082556
0.000825564
0.000803155
0.000803171
0.000803158
0.000802856
0.000802862
0.000802837
0.00081865
0.000818652
0.000818622
0.000844763
0.000844761
0.000844726
0.000876001
0.000875999
0.000875961
0.000712183
0.000712186
0.000712196
0.000883977
0.000884013
0.000884035
0.000911087
0.000911149
0.000911175
0.00088006
0.000880122
0.000880143
0.000832952
0.000832991
0.000832997
0.000798012
0.000798025
0.000798012
0.000783551
0.00078355
0.000783523
0.000787556
0.000787551
0.000787518
0.00080539
0.000805381
0.000805343
0.000831391
0.000831381
0.000831341
0.000745169
0.000745173
0.000745182
0.000863493
0.000863532
0.000863554
0.000896588
0.000896654
0.000896682
0.000880094
0.00088016
0.000880184
0.000835475
0.000835515
0.000835523
0.000791918
0.000791929
0.000791916
0.000764166
0.000764159
0.000764129
0.000755236
0.000755225
0.000755188
0.00076296
0.000762945
0.000762903
0.000782077
0.000782062
0.000782017
0.000776613
0.000776617
0.000776627
0.000846995
0.000847035
0.000847055
0.000871998
0.000872065
0.000872094
0.000867258
0.000867324
0.000867351
0.000829475
0.000829515
0.000829526
0.000782182
0.000782192
0.00078218
0.000743626
0.000743615
0.000743582
0.000721775
0.000721758
0.000721717
0.000717943
0.000717923
0.000717877
0.000728396
0.000728376
0.000728328
0.000806744
0.000806747
0.000806757
0.000836948
0.000836986
0.000837007
0.000841178
0.000841243
0.000841274
0.000841313
0.000841378
0.000841408
0.000811881
0.00081192
0.000811935
0.00076559
0.000765599
0.000765588
0.000720107
0.000720093
0.000720058
0.000686883
0.000686862
0.000686817
0.000670932
0.000670909
0.000670859
0.000671094
0.000671071
0.00067102
0.000835355
0.000835358
0.000835368
0.000834176
0.000834212
0.000834233
0.000808729
0.000808792
0.000808824
0.000804222
0.000804285
0.000804318
0.00078111
0.000781146
0.000781165
0.000739176
0.000739184
0.000739174
0.000691355
0.00069134
0.000691304
0.000649903
0.00064988
0.000649833
0.00062263
0.000622606
0.000622554
0.000611461
0.000611437
0.000611384
0.000861813
0.000861816
0.000861827
0.000837955
0.000837989
0.00083801
0.000779036
0.000779096
0.00077913
0.00076011
0.000760168
0.000760205
0.000738046
0.000738078
0.000738102
0.000701447
0.000701453
0.000701447
0.000655573
0.000655559
0.000655525
0.000610216
0.000610194
0.000610147
0.000573994
0.00057397
0.000573918
0.000551534
0.000551512
0.000551458
0.000885047
0.000885049
0.00088506
0.000846261
0.000846291
0.000846314
0.000755421
0.000755479
0.000755514
0.000714909
0.000714965
0.000715004
0.000687
0.00068703
0.000687058
0.000654104
0.00065411
0.000654109
0.000613091
0.000613078
0.000613049
0.000568374
0.000568354
0.000568309
0.000526822
0.000526802
0.000526752
0.00049452
0.000494501
0.00049445
0.000903437
0.000903439
0.00090345
0.000855996
0.000856023
0.000856048
0.000739619
0.000739674
0.000739711
0.000675925
0.00067598
0.000676022
0.000636793
0.000636822
0.000636856
0.000604408
0.000604413
0.000604419
0.000569
0.00056899
0.000568967
0.000528219
0.000528204
0.000528165
0.000485134
0.000485119
0.000485075
0.000445727
0.000445713
0.000445669
0.000914558
0.00091456
0.000914571
0.000863199
0.000863224
0.000863251
0.000731819
0.000731873
0.000731911
0.000651578
0.000651634
0.000651678
0.000601909
0.000601939
0.000601978
0.000567864
0.00056787
0.000567883
0.000536352
0.000536346
0.000536328
0.000499718
0.000499707
0.000499673
0.000457308
0.000457298
0.00045726
0.000414211
0.000414202
0.000414165
)
;

boundaryField
{
    freeSurface
    {
        type            slip;
    }
    inlet
    {
        type            cyclic;
    }
    outlet
    {
        type            cyclic;
    }
    sidewalls
    {
        type            kqRWallFunction;
        value           nonuniform List<scalar> 
72
(
3.42955e-05
0.000104494
0.000143991
0.000183235
0.000223458
0.000265508
0.000309902
0.000356736
0.000405575
0.000455449
0.000505002
0.000552799
0.000597688
0.000639088
0.000677067
0.000712183
0.000745169
0.000776613
0.000806744
0.000835355
0.000861813
0.000885047
0.000903437
0.000914558
3.42955e-05
0.000104494
0.000143991
0.000183235
0.000223458
0.000265508
0.000309902
0.000356736
0.000405576
0.00045545
0.000505004
0.000552801
0.00059769
0.000639091
0.000677071
0.000712186
0.000745173
0.000776617
0.000806747
0.000835358
0.000861816
0.000885049
0.000903439
0.00091456
3.42964e-05
0.000104496
0.000143992
0.000183237
0.000223461
0.000265511
0.000309906
0.00035674
0.000405581
0.000455456
0.00050501
0.000552808
0.000597698
0.000639099
0.000677079
0.000712196
0.000745182
0.000776627
0.000806757
0.000835368
0.000861827
0.00088506
0.00090345
0.000914571
)
;
    }
    noSlipWalls
    {
        type            kqRWallFunction;
        value           nonuniform List<scalar> 
30
(
3.42955e-05
2.185e-05
3.70511e-05
5.49187e-05
7.56714e-05
0.000100434
0.000130674
0.000168396
0.000216639
0.000279632
3.42955e-05
2.18502e-05
3.70516e-05
5.49201e-05
7.56746e-05
0.00010044
0.000130684
0.000168409
0.000216658
0.000279658
3.42964e-05
2.1851e-05
3.70531e-05
5.49218e-05
7.56753e-05
0.00010044
0.000130681
0.000168405
0.000216648
0.000279643
)
;
    }
    procBoundary0to1
    {
        type            processor;
        value           nonuniform List<scalar> 
72
(
0.00036296
0.000362989
0.000362968
0.00104596
0.00104597
0.00104596
0.00111661
0.00111662
0.00111661
0.00113426
0.00113428
0.00113427
0.00113588
0.00113589
0.00113588
0.00113055
0.00113057
0.00113056
0.00112087
0.00112089
0.00112087
0.00110764
0.00110766
0.00110764
0.00109107
0.00109109
0.00109107
0.00107108
0.0010711
0.00107108
0.00104744
0.00104745
0.00104742
0.0010198
0.00101981
0.00101978
0.000987774
0.000987784
0.000987751
0.000950918
0.000950922
0.000950888
0.000908788
0.000908787
0.00090875
0.000860998
0.000860991
0.000860951
0.000807302
0.00080729
0.000807248
0.000747736
0.00074772
0.000747675
0.000682812
0.000682792
0.000682745
0.000613793
0.000613772
0.000613723
0.000543084
0.000543064
0.000543014
0.000474829
0.000474812
0.000474764
0.000415952
0.00041594
0.000415899
0.000377843
0.000377836
0.000377801
)
;
    }
}


// ************************************************************************* //
