/*--------------------------------*- C++ -*----------------------------------*\
  =========                 |
  \\      /  F ield         | OpenFOAM: The Open Source CFD Toolbox
   \\    /   O peration     | Website:  https://openfoam.org
    \\  /    A nd           | Version:  6
     \\/     M anipulation  |
\*---------------------------------------------------------------------------*/
FoamFile
{
    version     2.0;
    format      ascii;
    class       volScalarField;
    location    "60";
    object      nut;
}
// * * * * * * * * * * * * * * * * * * * * * * * * * * * * * * * * * * * * * //

dimensions      [0 2 -1 0 0 0 0];

internalField   nonuniform List<scalar> 
720
(
8.08462e-08
8.08462e-08
8.08484e-08
2.58912e-08
2.58914e-08
2.58923e-08
4.39037e-08
4.39043e-08
4.3906e-08
6.50759e-08
6.50776e-08
6.50796e-08
8.96668e-08
8.96706e-08
8.96715e-08
1.1901e-07
1.19017e-07
1.19016e-07
1.54842e-07
1.54854e-07
1.54851e-07
1.99541e-07
1.99557e-07
1.99551e-07
2.56707e-07
2.56729e-07
2.56718e-07
3.3135e-07
3.31381e-07
3.31363e-07
1.33167e-05
1.33167e-05
1.33168e-05
1.63489e-06
1.63489e-06
1.63493e-06
2.11628e-06
2.1163e-06
2.11634e-06
2.50696e-06
2.50699e-06
2.50702e-06
2.82027e-06
2.82032e-06
2.82032e-06
3.08213e-06
3.08219e-06
3.08219e-06
3.30636e-06
3.30643e-06
3.30641e-06
3.50096e-06
3.50102e-06
3.501e-06
3.67156e-06
3.67162e-06
3.67159e-06
3.82136e-06
3.82142e-06
3.82139e-06
1.56322e-05
1.56322e-05
1.56323e-05
5.08672e-06
5.08674e-06
5.08681e-06
5.67275e-06
5.67279e-06
5.67286e-06
6.29261e-06
6.29269e-06
6.29273e-06
6.7985e-06
6.79861e-06
6.79861e-06
7.22461e-06
7.22474e-06
7.22473e-06
7.59323e-06
7.59338e-06
7.59334e-06
7.91819e-06
7.91833e-06
7.91828e-06
8.20985e-06
8.20999e-06
8.20992e-06
8.47494e-06
8.47508e-06
8.475e-06
1.76342e-05
1.76342e-05
1.76343e-05
9.97934e-06
9.97938e-06
9.97951e-06
1.03089e-05
1.0309e-05
1.03091e-05
1.11616e-05
1.11617e-05
1.11618e-05
1.19009e-05
1.19011e-05
1.19012e-05
1.25339e-05
1.25342e-05
1.25341e-05
1.30849e-05
1.30852e-05
1.30851e-05
1.35719e-05
1.35722e-05
1.35721e-05
1.40093e-05
1.40096e-05
1.40095e-05
1.44068e-05
1.44071e-05
1.44069e-05
1.94738e-05
1.94738e-05
1.94739e-05
1.65946e-05
1.65947e-05
1.65949e-05
1.61497e-05
1.61498e-05
1.615e-05
1.71199e-05
1.71202e-05
1.71204e-05
1.80783e-05
1.80787e-05
1.80787e-05
1.89311e-05
1.89316e-05
1.89316e-05
1.96865e-05
1.96871e-05
1.96869e-05
2.03603e-05
2.03609e-05
2.03607e-05
2.09681e-05
2.09687e-05
2.09684e-05
2.15216e-05
2.15222e-05
2.15219e-05
2.12271e-05
2.12271e-05
2.12272e-05
2.49792e-05
2.49793e-05
2.49797e-05
2.34013e-05
2.34016e-05
2.3402e-05
2.42819e-05
2.42824e-05
2.42826e-05
2.53975e-05
2.53982e-05
2.53982e-05
2.64613e-05
2.64622e-05
2.64621e-05
2.74335e-05
2.74345e-05
2.74342e-05
2.83155e-05
2.83165e-05
2.83161e-05
2.91188e-05
2.91197e-05
2.91193e-05
2.98543e-05
2.98552e-05
2.98547e-05
2.29332e-05
2.29332e-05
2.29333e-05
3.49313e-05
3.49315e-05
3.49321e-05
3.23113e-05
3.23118e-05
3.23124e-05
3.28416e-05
3.28424e-05
3.28427e-05
3.39946e-05
3.39957e-05
3.39957e-05
3.52286e-05
3.52301e-05
3.52299e-05
3.64141e-05
3.64157e-05
3.64153e-05
3.75192e-05
3.75208e-05
3.75203e-05
3.85416e-05
3.85431e-05
3.85424e-05
3.94862e-05
3.94876e-05
3.94869e-05
2.46051e-05
2.46051e-05
2.46053e-05
4.60133e-05
4.60137e-05
4.60145e-05
4.30808e-05
4.30818e-05
4.30826e-05
4.30464e-05
4.30477e-05
4.30482e-05
4.40596e-05
4.40614e-05
4.40614e-05
4.53806e-05
4.53828e-05
4.53825e-05
4.67512e-05
4.67536e-05
4.6753e-05
4.80819e-05
4.80842e-05
4.80834e-05
4.93422e-05
4.93444e-05
4.93434e-05
5.05225e-05
5.05245e-05
5.05235e-05
2.62354e-05
2.62354e-05
2.62356e-05
5.76124e-05
5.76131e-05
5.76141e-05
5.57702e-05
5.57719e-05
5.57731e-05
5.5161e-05
5.51631e-05
5.51638e-05
5.58286e-05
5.58311e-05
5.58312e-05
5.71037e-05
5.71068e-05
5.71064e-05
5.85964e-05
5.85997e-05
5.85988e-05
6.01345e-05
6.01376e-05
6.01365e-05
6.16419e-05
6.16449e-05
6.16435e-05
6.30802e-05
6.30831e-05
6.30817e-05
2.78017e-05
2.78018e-05
2.7802e-05
6.90173e-05
6.90184e-05
6.90198e-05
7.02205e-05
7.02234e-05
7.02249e-05
6.94092e-05
6.94127e-05
6.94138e-05
6.95684e-05
6.9572e-05
6.95721e-05
7.0622e-05
7.06261e-05
7.06255e-05
7.21292e-05
7.21335e-05
7.21322e-05
7.38254e-05
7.38295e-05
7.38279e-05
7.55721e-05
7.5576e-05
7.55741e-05
7.72824e-05
7.72861e-05
7.72841e-05
2.92751e-05
2.92752e-05
2.92754e-05
7.95056e-05
7.95073e-05
7.9509e-05
8.60161e-05
8.60209e-05
8.60229e-05
8.58919e-05
8.58976e-05
8.5899e-05
8.55449e-05
8.55501e-05
8.55503e-05
8.61913e-05
8.61965e-05
8.61957e-05
8.75584e-05
8.75636e-05
8.75619e-05
8.93209e-05
8.93258e-05
8.93236e-05
9.12724e-05
9.12769e-05
9.12744e-05
9.32524e-05
9.32569e-05
9.32542e-05
3.06292e-05
3.06293e-05
3.06295e-05
8.84425e-05
8.8445e-05
8.8447e-05
0.000102501
0.000102509
0.000102511
0.000104495
0.000104504
0.000104506
0.000103966
0.000103973
0.000103973
0.000104082
0.000104088
0.000104087
0.000105121
0.000105127
0.000105124
0.000106806
0.000106812
0.000106809
0.000108889
0.000108894
0.00010889
0.000111111
0.000111116
0.000111112
3.18485e-05
3.18486e-05
3.18488e-05
9.53823e-05
9.53857e-05
9.53881e-05
0.000118842
0.000118853
0.000118856
0.000124817
0.00012483
0.000124833
0.000124892
0.000124903
0.000124903
0.000124542
0.000124549
0.000124547
0.000125074
0.00012508
0.000125077
0.000126488
0.000126493
0.000126489
0.000128577
0.00012858
0.000128576
0.000130974
0.000130977
0.000130973
3.29331e-05
3.29332e-05
3.29334e-05
0.000100148
0.000100153
0.000100156
0.000134124
0.000134139
0.000134143
0.000146138
0.000146158
0.000146161
0.000148138
0.000148152
0.000148153
0.000147724
0.000147731
0.000147729
0.000147673
0.000147677
0.000147673
0.000148592
0.000148595
0.00014859
0.0001505
0.000150501
0.000150495
0.000152951
0.000152952
0.000152945
3.38975e-05
3.38976e-05
3.38978e-05
0.000102861
0.000102867
0.00010287
0.000147462
0.000147482
0.000147486
0.00016746
0.000167487
0.000167491
0.000173171
0.00017319
0.000173192
0.000173584
0.000173592
0.000173589
0.000173116
0.000173117
0.000173111
0.000173352
0.000173351
0.000173343
0.000174835
0.000174831
0.000174821
0.000177145
0.000177141
0.000177131
3.47654e-05
3.47655e-05
3.47658e-05
0.000103894
0.0001039
0.000103903
0.00015812
0.000158144
0.000158148
0.000187588
0.000187623
0.000187628
0.000199065
0.000199091
0.000199092
0.000201757
0.000201764
0.000201761
0.000201455
0.00020145
0.000201441
0.000200972
0.000200963
0.000200952
0.000201758
0.000201745
0.000201731
0.000203651
0.000203638
0.000203622
3.55615e-05
3.55615e-05
3.55618e-05
0.000103762
0.000103769
0.000103772
0.000165618
0.000165646
0.000165651
0.000205266
0.000205309
0.000205314
0.000224515
0.000224548
0.00022455
0.000231431
0.000231436
0.000231431
0.000232452
0.000232436
0.000232424
0.000231548
0.000231525
0.000231508
0.000231418
0.000231388
0.000231369
0.000232539
0.000232508
0.000232487
3.6304e-05
3.63041e-05
3.63043e-05
0.000102994
0.000103002
0.000103004
0.000169817
0.000169848
0.000169854
0.000219324
0.000219375
0.000219382
0.000247929
0.000247968
0.000247971
0.000261273
0.000261277
0.000261269
0.000265399
0.00026537
0.000265352
0.000264908
0.000264864
0.000264842
0.000263847
0.000263792
0.000263766
0.000263802
0.000263744
0.000263715
3.70016e-05
3.70016e-05
3.70019e-05
0.000102025
0.000102033
0.000102036
0.000170959
0.000170992
0.000170999
0.00022885
0.000228907
0.000228915
0.000267578
0.000267622
0.000267627
0.000289439
0.000289442
0.000289431
0.000298944
0.000298898
0.000298874
0.000300383
0.00030031
0.00030028
0.000298779
0.000298689
0.000298654
0.000297235
0.000297138
0.000297099
3.7652e-05
3.7652e-05
3.76523e-05
0.000101152
0.00010116
0.000101163
0.000169639
0.000169674
0.000169682
0.000233362
0.000233424
0.000233433
0.000281818
0.000281866
0.000281873
0.000313696
0.000313697
0.000313682
0.000330984
0.000330918
0.000330888
0.000336502
0.000336394
0.000336356
0.000335336
0.000335203
0.00033516
0.00033218
0.000332034
0.000331986
3.82436e-05
3.82437e-05
3.82439e-05
0.000100536
0.000100543
0.000100546
0.000166719
0.000166755
0.000166763
0.000233011
0.000233077
0.000233088
0.000289409
0.000289461
0.00028947
0.000331697
0.000331698
0.000331681
0.000358738
0.000358656
0.000358619
0.000370756
0.000370616
0.00037057
0.00037161
0.000371436
0.000371385
0.000367123
0.00036693
0.000366873
3.87557e-05
3.87557e-05
3.8756e-05
0.000100217
0.000100223
0.000100227
0.000163179
0.000163215
0.000163224
0.000228789
0.00022886
0.000228874
0.000290052
0.000290112
0.000290124
0.000341606
0.00034161
0.000341594
0.000379219
0.000379131
0.000379089
0.000399701
0.00039954
0.000399488
0.000404381
0.00040418
0.000404124
0.000399268
0.000399044
0.000398982
3.91563e-05
3.91563e-05
3.91565e-05
0.000100141
0.000100146
0.00010015
0.000159979
0.000160016
0.000160026
0.000222721
0.000222797
0.000222813
0.000285296
0.000285367
0.000285382
0.000343362
0.000343372
0.00034336
0.000390478
0.000390398
0.000390353
0.000419844
0.000419683
0.000419627
0.000429473
0.000429274
0.000429216
0.000424566
0.000424348
0.000424283
3.93965e-05
3.93966e-05
3.93968e-05
0.000100181
0.000100186
0.000100191
0.000157988
0.000158025
0.000158035
0.000217901
0.000217983
0.000217999
0.000279601
0.000279683
0.000279702
0.000340642
0.000340662
0.000340657
0.000393765
0.0003937
0.000393655
0.000429535
0.000429389
0.000429332
0.000443194
0.000443016
0.000442957
0.000438831
0.000438643
0.00043858
)
;

boundaryField
{
    freeSurface
    {
        type            slip;
    }
    inlet
    {
        type            cyclic;
    }
    outlet
    {
        type            cyclic;
    }
    sidewalls
    {
        type            nutkWallFunction;
        Cmu             0.09;
        kappa           0.41;
        E               9.8;
        value           nonuniform List<scalar> 
72
(
4.6545e-07
1.31073e-06
1.63909e-06
1.91773e-06
2.17005e-06
2.40764e-06
2.6364e-06
2.85845e-06
3.07313e-06
3.2778e-06
3.469e-06
3.64365e-06
3.8001e-06
3.93864e-06
4.06136e-06
4.17143e-06
4.27208e-06
4.36573e-06
4.45348e-06
4.53513e-06
4.60925e-06
4.67329e-06
4.72331e-06
4.75328e-06
4.6545e-07
1.31073e-06
1.63909e-06
1.91773e-06
2.17005e-06
2.40765e-06
2.6364e-06
2.85846e-06
3.07313e-06
3.2778e-06
3.469e-06
3.64366e-06
3.80011e-06
3.93865e-06
4.06137e-06
4.17144e-06
4.27209e-06
4.36574e-06
4.45349e-06
4.53514e-06
4.60925e-06
4.67329e-06
4.72332e-06
4.75329e-06
4.65466e-07
1.31074e-06
1.63911e-06
1.91774e-06
2.17007e-06
2.40766e-06
2.63642e-06
2.85848e-06
3.07315e-06
3.27782e-06
3.46902e-06
3.64368e-06
3.80013e-06
3.93867e-06
4.06139e-06
4.17147e-06
4.27212e-06
4.36577e-06
4.45352e-06
4.53517e-06
4.60928e-06
4.67332e-06
4.72334e-06
4.75332e-06
)
;
    }
    noSlipWalls
    {
        type            nutkWallFunction;
        Cmu             0.09;
        kappa           0.41;
        E               9.8;
        value           uniform 0;
    }
    procBoundary0to1
    {
        type            processor;
        value           nonuniform List<scalar> 
72
(
4.30089e-07
4.30124e-07
4.301e-07
3.9524e-06
3.95245e-06
3.95242e-06
8.71815e-06
8.71825e-06
8.71819e-06
1.47712e-05
1.47714e-05
1.47713e-05
2.20294e-05
2.20298e-05
2.20296e-05
3.05313e-05
3.05319e-05
3.05315e-05
4.03611e-05
4.03621e-05
4.03616e-05
5.16256e-05
5.16271e-05
5.16263e-05
6.44417e-05
6.44438e-05
6.44426e-05
7.89282e-05
7.89311e-05
7.89294e-05
9.51996e-05
9.52032e-05
9.52008e-05
0.000113359
0.000113363
0.00011336
0.000133492
0.000133496
0.000133492
0.000155664
0.000155666
0.00015566
0.000179911
0.000179909
0.000179899
0.000206237
0.000206227
0.000206212
0.000234597
0.000234572
0.000234552
0.000264861
0.000264812
0.000264783
0.000296714
0.000296628
0.000296589
0.000329456
0.000329321
0.000329272
0.000361656
0.000361469
0.000361409
0.000390766
0.000390543
0.000390476
0.000413165
0.000412943
0.000412874
0.000425365
0.000425176
0.000425109
)
;
    }
}


// ************************************************************************* //
