/*--------------------------------*- C++ -*----------------------------------*\
  =========                 |
  \\      /  F ield         | OpenFOAM: The Open Source CFD Toolbox
   \\    /   O peration     | Website:  https://openfoam.org
    \\  /    A nd           | Version:  6
     \\/     M anipulation  |
\*---------------------------------------------------------------------------*/
FoamFile
{
    version     2.0;
    format      ascii;
    class       volScalarField;
    location    "60";
    object      omega;
}
// * * * * * * * * * * * * * * * * * * * * * * * * * * * * * * * * * * * * * //

dimensions      [0 0 -1 0 0 0 0];

internalField   nonuniform List<scalar> 
720
(
424.206
424.206
424.206
843.917
843.917
843.917
843.917
843.917
843.917
843.917
843.917
843.917
843.917
843.917
843.917
843.917
843.917
843.917
843.917
843.917
843.917
843.917
843.917
843.917
843.917
843.917
843.917
843.917
843.917
843.917
7.84682
7.84682
7.84688
226.825
226.825
226.826
238.986
238.986
238.987
245.801
245.801
245.801
250.71
250.71
250.71
254.523
254.523
254.523
257.58
257.581
257.581
260.054
260.055
260.054
262.04
262.041
262.04
263.571
263.571
263.571
9.21117
9.21117
9.21123
100.79
100.79
100.79
109.334
109.334
109.334
113.994
113.994
113.994
117.354
117.354
117.354
120.013
120.013
120.013
122.205
122.205
122.205
124.051
124.051
124.051
125.625
125.625
125.625
126.963
126.963
126.963
10.3909
10.3909
10.3909
57.048
57.048
57.0482
62.951
62.9511
62.9513
66.4486
66.4486
66.4487
68.9191
68.919
68.9191
70.854
70.8539
70.8538
72.4439
72.4436
72.4436
73.7853
73.785
73.785
74.9389
74.9387
74.9386
75.9352
75.935
75.935
11.4748
11.4748
11.4749
37.3667
37.3668
37.3669
41.0348
41.0348
41.035
43.7214
43.7214
43.7215
45.6225
45.6223
45.6223
47.0951
47.0948
47.0948
48.2945
48.2941
48.2941
49.3011
49.3007
49.3007
50.1661
50.1657
50.1657
50.9154
50.915
50.915
12.508
12.508
12.508
27.004
27.0041
27.0042
28.8628
28.8629
28.8629
30.895
30.895
30.8951
32.3986
32.3984
32.3984
33.5618
33.5614
33.5614
34.5013
34.5008
34.5008
35.2834
35.2829
35.2829
35.9522
35.9517
35.9517
36.5303
36.5299
36.5299
13.5133
13.5133
13.5133
20.9442
20.9443
20.9443
21.4227
21.4228
21.4228
22.8726
22.8726
22.8726
24.0656
24.0654
24.0654
25.0058
25.0054
25.0054
25.7632
25.7627
25.7627
26.3887
26.3882
26.3882
26.9201
26.9196
26.9196
27.3774
27.377
27.377
14.4984
14.4984
14.4985
17.1152
17.1152
17.1153
16.5974
16.5974
16.5974
17.5144
17.5144
17.5143
18.4382
18.438
18.438
19.2032
19.2028
19.2028
19.8253
19.8248
19.8248
20.337
20.3365
20.3365
20.7689
20.7684
20.7684
21.1386
21.1382
21.1382
15.4591
15.4591
15.4592
14.5471
14.5471
14.5471
13.3421
13.3421
13.3421
13.7809
13.7808
13.7808
14.4551
14.4549
14.4549
15.0698
15.0694
15.0694
15.5844
15.5839
15.5839
16.0096
16.0091
16.0091
16.367
16.3665
16.3665
16.6717
16.6712
16.6712
16.382
16.3821
16.3822
12.7444
12.7444
12.7445
11.0803
11.0803
11.0803
11.1075
11.1074
11.1074
11.5445
11.5442
11.5442
12.0204
12.02
12.02
12.4431
12.4427
12.4427
12.799
12.7986
12.7986
13.0987
13.0983
13.0983
13.3539
13.3535
13.3535
17.2502
17.2502
17.2504
11.4367
11.4367
11.4367
9.46832
9.46816
9.46816
9.15839
9.15818
9.15815
9.37217
9.37193
9.37191
9.714
9.71369
9.71369
10.0523
10.052
10.052
10.3493
10.349
10.349
10.6025
10.6022
10.6022
10.8191
10.8188
10.8188
18.0481
18.0481
18.0482
10.4675
10.4675
10.4675
8.29051
8.29029
8.29028
7.71812
7.71784
7.71782
7.72895
7.7287
7.72867
7.93944
7.93919
7.93918
8.19584
8.19556
8.19556
8.43926
8.439
8.439
8.65295
8.65272
8.65272
8.83836
8.83813
8.83813
18.7666
18.7666
18.7667
9.74133
9.74124
9.74125
7.40764
7.40734
7.40734
6.64058
6.64023
6.64021
6.47518
6.4749
6.47488
6.55882
6.55862
6.55861
6.73316
6.73298
6.73297
6.92471
6.92455
6.92455
7.1028
7.10269
7.10269
7.26196
7.26183
7.26183
19.4057
19.4057
19.4058
9.19707
9.19694
9.19694
6.72829
6.72792
6.72792
5.82277
5.82234
5.82233
5.51221
5.51191
5.51189
5.47744
5.47729
5.47728
5.56933
5.56925
5.56925
5.70835
5.7083
5.70831
5.85226
5.85225
5.85228
5.98797
5.98796
5.98799
19.9739
19.974
19.9741
8.79476
8.79458
8.79458
6.19253
6.19211
6.1921
5.19075
5.19026
5.19025
4.76711
4.76678
4.76677
4.62689
4.62678
4.62678
4.63768
4.63769
4.6377
4.72247
4.72252
4.72256
4.83178
4.83187
4.83194
4.94512
4.9452
4.94528
20.4854
20.4854
20.4855
8.50848
8.50827
8.50827
5.762
5.76152
5.76152
4.69145
4.69091
4.69091
4.18433
4.18398
4.18397
3.95531
3.95524
3.95524
3.88946
3.88956
3.88959
3.91873
3.91888
3.91894
3.99186
3.99208
3.99217
4.08243
4.08265
4.08276
20.9544
20.9545
20.9546
8.32189
8.32164
8.32165
5.41361
5.41308
5.41308
4.28759
4.28701
4.28701
3.72124
3.72088
3.72087
3.42184
3.4218
3.42182
3.28742
3.2876
3.28766
3.26169
3.26196
3.26203
3.29689
3.29725
3.29735
3.36321
3.36359
3.36371
21.3919
21.392
21.3921
8.22377
8.2235
8.2235
5.13493
5.13437
5.13436
3.95422
3.95362
3.95362
3.34561
3.34525
3.34525
2.99374
2.99373
2.99377
2.80192
2.80219
2.80225
2.72462
2.72501
2.72509
2.72105
2.72155
2.72165
2.76115
2.76168
2.7618
21.803
21.803
21.8032
8.20339
8.20312
8.2031
4.92036
4.91977
4.91976
3.67626
3.67564
3.67564
3.03418
3.03384
3.03383
2.64508
2.64508
2.64514
2.40884
2.40916
2.40924
2.28669
2.28718
2.28725
2.24558
2.24618
2.24627
2.25779
2.25845
2.25857
22.1862
22.1863
22.1864
8.24674
8.24647
8.24644
4.76734
4.76673
4.76671
3.44625
3.4456
3.4456
2.77168
2.77134
2.77134
2.35635
2.35637
2.35644
2.08879
2.08916
2.08924
1.93135
1.9319
1.93198
1.85674
1.8574
1.85748
1.84075
1.84149
1.84159
22.5348
22.5349
22.535
8.33489
8.33463
8.33458
4.67274
4.6721
4.67207
3.26212
3.26145
3.26144
2.55019
2.54984
2.54984
2.11472
2.11473
2.11482
1.82744
1.82782
1.82791
1.64587
1.64643
1.64651
1.54461
1.54528
1.54534
1.50231
1.50305
1.50313
22.8366
22.8366
22.8367
8.44427
8.44404
8.44397
4.6294
4.62873
4.62869
3.12475
3.12402
3.12401
2.36854
2.36815
2.36815
1.91479
1.91479
1.91487
1.61672
1.61706
1.61716
1.422
1.42252
1.42259
1.30279
1.30338
1.30344
1.23857
1.23921
1.23928
23.0726
23.0726
23.0728
8.54794
8.54774
8.54766
4.62321
4.62251
4.62245
3.03486
3.03406
3.03404
2.23204
2.23159
2.23159
1.76027
1.76023
1.76031
1.45719
1.45746
1.45757
1.25813
1.25858
1.25865
1.1296
1.13009
1.13014
1.04984
1.05035
1.0504
23.2142
23.2142
23.2144
8.61636
8.61617
8.61609
4.63211
4.63139
4.63132
2.99025
2.98938
2.98936
2.15274
2.15222
2.15221
1.66704
1.66696
1.66702
1.36211
1.36232
1.36243
1.16339
1.16376
1.16384
1.03185
1.03224
1.03229
0.943895
0.944281
0.944331
)
;

boundaryField
{
    freeSurface
    {
        type            slip;
    }
    inlet
    {
        type            cyclic;
    }
    outlet
    {
        type            cyclic;
    }
    sidewalls
    {
        Cmu             0.09;
        kappa           0.41;
        E               9.8;
        beta1           0.075;
        blended         false;
        type            omegaWallFunction;
        value           nonuniform List<scalar> 
72
(
424.206
7.84682
9.21117
10.3909
11.4748
12.508
13.5133
14.4984
15.4591
16.382
17.2502
18.0481
18.7666
19.4057
19.9739
20.4854
20.9544
21.3919
21.803
22.1862
22.5348
22.8366
23.0726
23.2142
424.206
7.84682
9.21117
10.3909
11.4748
12.508
13.5133
14.4984
15.4591
16.3821
17.2502
18.0481
18.7666
19.4057
19.974
20.4854
20.9545
21.392
21.803
22.1863
22.5349
22.8366
23.0726
23.2142
424.206
7.84688
9.21123
10.3909
11.4749
12.508
13.5133
14.4985
15.4592
16.3822
17.2504
18.0482
18.7667
19.4058
19.9741
20.4855
20.9546
21.3921
21.8032
22.1864
22.535
22.8367
23.0728
23.2144
)
;
    }
    noSlipWalls
    {
        Cmu             0.09;
        kappa           0.41;
        E               9.8;
        beta1           0.075;
        blended         false;
        type            omegaWallFunction;
        value           nonuniform List<scalar> 
30
(
424.206
843.917
843.917
843.917
843.917
843.917
843.917
843.917
843.917
843.917
424.206
843.917
843.917
843.917
843.917
843.917
843.917
843.917
843.917
843.917
424.206
843.917
843.917
843.917
843.917
843.917
843.917
843.917
843.917
843.917
)
;
    }
    procBoundary0to1
    {
        type            processor;
        value           nonuniform List<scalar> 
72
(
843.917
843.917
843.917
264.638
264.638
264.638
128.079
128.079
128.079
76.7887
76.7887
76.7885
51.5619
51.5618
51.5617
37.0294
37.0292
37.0291
27.771
27.7707
27.7707
21.4553
21.455
21.455
16.9312
16.9309
16.9309
13.5703
13.5701
13.57
11.0025
11.0023
11.0023
8.99621
8.99601
8.996
7.39948
7.39935
7.39935
6.10877
6.10874
6.10876
5.05132
5.05137
5.05144
4.1748
4.17498
4.17507
3.44123
3.44154
3.44166
2.82313
2.82359
2.82373
2.30124
2.30185
2.30199
1.86305
1.86375
1.86388
1.50166
1.50238
1.50249
1.21512
1.21577
1.21586
1.00675
1.00726
1.00733
0.888279
0.888659
0.888717
)
;
    }
}


// ************************************************************************* //
