/*--------------------------------*- C++ -*----------------------------------*\
  =========                 |
  \\      /  F ield         | OpenFOAM: The Open Source CFD Toolbox
   \\    /   O peration     | Website:  https://openfoam.org
    \\  /    A nd           | Version:  6
     \\/     M anipulation  |
\*---------------------------------------------------------------------------*/
FoamFile
{
    version     2.0;
    format      ascii;
    class       volScalarField;
    location    "11";
    object      yPlus;
}
// * * * * * * * * * * * * * * * * * * * * * * * * * * * * * * * * * * * * * //

dimensions      [0 0 0 0 0 0 0];

internalField   uniform 0;

boundaryField
{
    inlet
    {
        type            calculated;
        value           uniform 0;
    }
    outlet
    {
        type            calculated;
        value           uniform 0;
    }
    roughCylinder
    {
        type            calculated;
        value           nonuniform List<scalar> 
5120
(
5.7546
20.0579
33.9935
38.1617
41.7616
43.5815
44.8869
45.3372
45.5063
45.3023
44.9464
44.831
44.9883
45.0361
44.6348
44.2378
44.2465
43.818
43.0679
42.8161
43.0407
43.5976
44.0301
40.6138
43.4228
41.866
41.3101
41.1411
40.0361
39.7053
39.5497
39.1278
13.5389
19.8078
33.5508
37.8418
41.4572
43.2849
44.5479
45.0474
45.2267
45.0302
44.9447
44.9278
45.1523
45.1163
44.7661
44.4309
44.4858
44.0345
43.365
43.1699
43.4164
43.8479
44.2286
40.8774
43.4403
42.1356
41.7085
41.4566
40.4365
40.1723
40.0528
39.6713
12.0522
19.4901
32.93
37.5069
41.1147
43.0042
44.3372
44.8113
45.0306
45.0157
44.8828
44.8937
45.0232
45.0456
44.7969
44.5985
44.574
44.1581
43.5281
43.3989
43.6514
44.0361
44.4283
41.2504
43.6899
42.6106
42.3395
41.9681
41.0373
40.8029
40.6584
40.2712
8.57766
19.3387
32.35
37.1171
40.7774
42.718
43.9842
44.5388
44.8666
44.8342
44.9405
45.0502
45.2774
45.2683
45.072
44.888
44.8828
44.4455
43.9249
43.8563
44.0614
44.371
44.653
41.5293
43.8115
42.9253
42.8217
42.3521
41.5271
41.3466
41.2344
40.884
12.6452
18.5045
31.526
36.6688
40.3721
42.3932
43.8041
44.4093
44.7462
44.9559
45.0408
45.1397
45.2413
45.2765
45.1695
45.1068
45.0214
44.6238
44.1652
44.1439
44.3233
44.6495
44.8803
41.9533
44.1943
43.4402
43.5053
42.925
42.1952
42.0345
41.8938
41.5443
10.4792
17.9484
30.6807
36.08
39.9442
42.1272
43.4908
44.1776
44.7149
44.8739
45.1207
45.3039
45.5396
45.588
45.5174
45.4228
45.3636
44.9656
44.6121
44.6289
44.7719
45.077
45.1459
42.3228
44.4514
43.7942
44.0177
43.3619
42.7444
42.624
42.5154
42.2001
5.94944
16.7112
29.5201
35.3801
39.3996
41.7035
43.3089
44.1653
44.6616
45.0647
45.3128
45.4812
45.5703
45.629
45.6158
45.6359
45.5241
45.1838
44.8804
44.9143
45.0693
45.4217
45.4184
42.8551
44.9643
44.3573
44.7072
43.9842
43.453
43.3461
43.209
42.8997
10.4596
15.3453
28.227
34.4048
38.7242
41.3696
43.0028
43.9107
44.6903
45.0293
45.3758
45.6039
45.862
45.9689
45.9879
45.9512
45.8874
45.5713
45.3471
45.4029
45.5733
45.9115
45.7436
43.3456
45.3396
44.7558
45.2044
44.4553
44.0296
43.9501
43.8501
43.5755
11.9167
13.9084
26.4676
33.2252
37.8739
40.6919
42.6707
43.9127
44.6158
45.2022
45.5781
45.8219
45.9262
46.0053
46.0491
46.1345
46.0535
45.8115
45.6187
45.6791
45.9029
46.2741
46.0622
43.9786
45.9448
45.3641
45.8635
45.1061
44.7468
44.6743
44.5478
44.2801
13.8377
12.5797
24.6664
31.6255
36.674
40.0842
42.2331
43.4889
44.5845
45.1141
45.5661
45.8496
46.1586
46.3284
46.424
46.4411
46.4221
46.2181
46.0863
46.1745
46.4405
46.7716
46.4298
44.5408
46.3689
45.7734
46.298
45.5698
45.3011
45.2445
45.1637
44.9376
16.3411
10.7898
21.9037
29.6249
35.261
38.887
41.5076
43.3409
44.3364
45.1656
45.692
46.0495
46.2111
46.327
46.423
46.5768
46.5649
46.4393
46.3313
46.4302
46.7476
47.0824
46.7528
45.1984
46.9854
46.3842
46.8913
46.2088
45.982
45.9268
45.8217
45.5965
18.7884
9.51377
19.76
27.1172
33.0652
37.6729
40.6906
42.4892
44.0957
44.9077
45.5347
45.919
46.3253
46.5884
46.7805
46.8611
46.9125
46.8257
46.7764
46.9198
47.2608
47.5288
47.1123
45.7403
47.3541
46.7304
47.2047
46.5947
46.4381
46.391
46.3419
46.1711
21.1931
9.35875
15.3769
23.8919
30.7691
35.4601
39.1483
41.9868
43.4587
44.7066
45.4898
46.0434
46.3087
46.4955
46.6634
46.9015
46.9751
46.9639
46.9431
47.1033
47.4534
47.7072
47.362
46.3207
47.8741
47.267
47.6824
47.1554
47.017
46.9681
46.8955
46.7153
21.9706
9.10754
13.9369
20.0094
26.5588
33.0542
37.5206
40.1754
42.7395
44.0739
45.0764
45.676
46.2565
46.6499
46.9647
47.1134
47.2447
47.2682
47.315
47.5283
47.8603
48.0351
47.6287
46.7265
48.0895
47.4693
47.8301
47.4008
47.3144
47.2772
47.2754
47.1639
21.1459
11.1434
2.94462
14.3808
23.1269
28.6227
34.1094
38.978
41.2955
43.3864
44.6702
45.6202
46.096
46.4155
46.6787
47.0127
47.1681
47.259
47.3422
47.5708
47.8692
48.034
47.7459
47.1813
48.4609
47.9005
48.1843
47.8574
47.7682
47.724
47.6865
47.5522
19.1743
11.7626
11.2203
8.84461
11.3025
23.2906
30.6755
34.6352
39.4636
41.8617
43.7157
44.7904
45.7585
46.4062
46.9089
47.1281
47.3398
47.4656
47.6255
47.8992
48.1446
48.2218
47.8689
47.3993
48.3919
47.8362
48.0491
47.8217
47.7666
47.7402
47.7971
47.7479
16.9867
11.4191
7.07924
6.8922
8.12541
10.1561
20.0164
31.9887
35.8723
40.1362
42.4977
44.2965
45.195
45.813
46.2457
46.7499
47.0127
47.2125
47.396
47.6363
47.8041
47.8762
47.707
47.6233
48.4887
48.0609
48.1951
48.0758
48.0039
47.9594
47.9267
47.8243
13.9865
11.5087
8.37542
10.7196
10.4055
10.6991
12.4256
11.8191
30.8751
36.0831
40.2734
42.4227
44.2526
45.401
46.2678
46.6222
46.965
47.2149
47.4851
47.7534
47.8673
47.8373
47.5489
47.483
47.833
47.3758
47.3874
47.3081
47.2212
47.1877
47.3174
47.3272
11.7637
9.63727
9.0367
7.37656
10.9729
10.9757
11.0334
11.886
10.4453
31.4987
36.9677
40.9615
42.6991
43.916
44.6568
45.5213
45.9912
46.3496
46.5905
46.7166
46.6865
46.6123
46.607
47.0267
47.2323
47.0101
46.961
46.9929
46.8829
46.7941
46.6264
46.5233
11.079
9.05043
3.61467
6.4549
5.58762
8.6851
7.5277
12.1549
7.02629
15.0379
31.5316
36.3423
40.3503
42.5502
44.1778
44.7473
45.3309
45.754
46.0962
46.2462
46.2153
46.0053
45.7197
45.9568
45.0302
44.5581
44.1662
43.9549
43.6398
43.4567
43.7271
43.6995
11.2685
9.38118
8.25018
0.847979
11.802
8.03869
5.22027
8.34903
5.76782
11.3251
23.2169
33.202
36.1637
38.5914
39.838
41.6132
42.5386
43.1573
43.2886
42.9883
42.5378
42.019
42.2366
43.1851
42.2636
42.3267
41.9284
41.8837
41.5391
41.1003
39.7027
39.6751
6.38147
9.80464
10.4616
9.02002
10.2553
9.69553
12.6969
14.0043
12.3792
12.6864
14.2277
11.4935
28.0518
33.9774
38.253
39.0257
40.0433
40.6679
40.9824
40.8127
40.5769
39.859
39.0444
38.7705
33.5271
30.9622
27.514
23.1793
17.9436
11.6388
16.0772
4.70573
1.13729
9.07625
6.90003
11.3336
17.1452
20.5091
20.1575
15.0773
6.37676
9.24847
13.12
13.4212
15.7283
14.5264
12.4785
24.5304
28.1731
29.8562
28.6378
25.4697
20.6599
11.4591
5.83623
19.8611
2.95965
12.6334
15.7254
13.3673
13.7578
12.1113
2.0143
13.1063
6.53067
11.3597
10.8051
9.10131
17.682
23.9794
26.8792
27.8157
27.2536
22.3061
9.02663
13.2403
3.44561
9.45576
8.40148
16.2399
12.6072
17.1837
8.87934
13.0173
11.8871
15.8022
12.1621
11.1245
17.8017
4.6658
13.2075
19.4136
14.7116
9.58489
12.1259
14.8597
7.82453
13.0172
12.2387
11.5718
16.2176
22.5736
26.8789
28.9217
29.0421
27.9763
26.4242
18.9348
7.34272
12.6667
9.39285
9.13669
11.5178
14.8485
6.6046
12.7178
17.2724
17.6653
15.7658
9.67237
19.4848
15.6064
20.4443
23.4941
25.5346
27.7021
28.433
28.471
7.02931
14.8901
16.1893
16.0045
17.8942
21.9564
25.8818
28.5468
29.7436
29.4824
27.2253
24.3455
23.8376
22.2185
18.9356
12.9568
10.585
5.51993
3.73518
11.3245
15.2012
20.1724
23.2906
25.0139
26.7758
27.8435
28.1701
28.8145
29.1264
29.4095
29.8256
30.1553
6.11446
15.7129
18.9176
20.3664
21.6897
23.8691
26.3774
28.4992
29.7172
29.671
27.9454
23.7342
20.924
23.1967
24.4022
24.7139
24.1192
24.2888
24.9151
25.0617
25.6616
25.8999
26.1147
27.2066
28.2694
29.0167
29.7089
30.4125
30.8443
31.1755
31.3774
31.3552
5.31257
15.3786
19.5222
22.1322
23.898
25.4212
26.8514
27.9492
28.1366
26.4751
22.2461
16.1654
16.8897
20.417
22.4192
22.6808
23.3603
23.4859
23.841
24.7088
25.4359
26.1684
26.8849
27.8945
28.8526
28.7773
28.7763
28.9207
28.8102
28.7639
28.8552
28.8835
4.18857
13.2397
17.6737
21.0005
23.3285
24.907
25.8935
26.1744
25.3024
22.499
18.1989
11.3099
5.76993
3.6526
13.919
17.8632
20.1728
21.1528
22.0116
22.566
23.0032
23.4223
24.0369
24.9343
25.4791
25.538
26.1277
26.7024
27.0843
27.4905
27.924
28.0535
3.62875
11.3346
14.2289
17.6059
20.404
22.2837
23.2561
23.2161
21.7579
18.7243
11.6205
9.15731
11.5146
13.4821
10.712
7.07335
11.4729
13.5194
15.3418
17.1357
18.8638
20.5043
21.955
23.1299
23.9579
24.4547
25.1898
25.8934
26.2052
26.5256
26.8699
26.9841
2.62387
8.54253
11.4311
13.4453
16.0778
17.9472
18.7262
18.2201
16.1509
11.5555
7.18742
8.75405
11.0041
10.6718
12.9906
15.6597
14.8425
15.5086
16.2438
17.2064
18.281
19.459
20.6147
21.548
22.1685
22.5694
23.292
24.0465
24.7959
25.4991
26.1008
26.3644
1.10679
4.03912
6.25267
9.27386
11.43
11.5215
11.4955
10.209
8.5343
2.53847
4.61545
10.2675
11.4558
11.5755
10.5705
10.0013
11.9283
13.4692
14.6475
15.7325
16.7922
17.8325
18.8767
19.8783
20.8515
21.824
22.9294
23.9994
24.9337
25.7632
26.4121
26.7066
1.81511
6.24797
7.0255
7.48411
8.1334
8.43336
7.92906
5.86525
4.64316
7.56296
11.5907
11.4826
11.4782
11.5408
11.6718
12.6707
12.2828
13.2163
14.2117
15.2167
16.204
17.238
18.3949
19.6147
20.7712
21.9067
23.1179
24.2788
25.3517
26.2892
26.9975
27.3283
2.70524
8.56368
10.0751
10.9952
11.5067
11.6188
11.6914
11.9413
12.3574
12.6
11.5221
11.5091
11.5253
11.5497
11.5374
11.4952
11.6064
12.7246
13.8265
14.9156
16.0755
17.2943
18.5413
19.8285
21.1322
22.4376
23.7742
25.0575
26.2282
27.2401
27.9865
28.3406
2.30461
7.86819
9.14884
9.98241
10.8285
11.5
11.5405
11.5432
11.5523
11.5062
11.6315
11.7128
11.503
11.4997
11.5289
11.5573
11.5712
12.6498
13.8809
15.1071
16.3497
17.6393
18.9979
20.4098
21.8313
23.2603
24.7074
26.1084
27.418
28.5422
29.3558
29.7438
2.45545
8.44646
9.70576
10.4296
11.0705
11.5285
11.6924
11.7582
11.8622
12.1402
12.3328
12.3178
12.0759
11.5304
11.5703
11.5248
11.579
12.6029
13.9111
15.2714
16.6902
18.159
19.6659
21.2148
22.7948
24.3975
25.995
27.5368
28.9766
30.2121
31.1001
31.5252
2.45427
8.54664
9.66124
10.2492
10.7836
11.2702
11.5203
11.5229
11.7766
12.1605
12.5232
12.6574
12.4532
12.0043
11.4858
11.4967
11.5236
12.6627
14.1133
15.6463
17.2337
18.8775
20.5705
22.2968
24.0425
25.8077
27.5599
29.2503
30.8318
32.1916
33.1687
33.6386
2.64541
9.04483
10.2354
10.8059
11.1907
11.4252
11.5247
11.6248
12.108
12.7051
13.0792
13.1538
13.0048
12.5457
11.8139
11.598
11.7488
12.9122
14.4633
16.1731
17.9637
19.807
21.6883
23.5961
25.5203
27.4586
29.3756
31.2234
32.9483
34.4354
35.5077
36.0266
2.72916
9.19807
10.5276
11.1766
11.5178
11.4998
11.5517
11.888
12.443
12.9915
13.375
13.5984
13.5454
13.1849
12.59
11.9563
12.2143
13.3561
15.0236
16.9055
18.8878
20.9276
23.0024
25.0958
27.1978
29.3052
31.3854
33.3906
35.2605
36.8768
38.0493
38.6211
2.7515
9.36222
10.6985
11.2946
11.5002
11.5524
11.655
12.1798
12.8607
13.5071
14.0083
14.2733
14.2507
13.8982
13.2779
12.7631
12.8778
14.0114
15.7797
17.825
19.9937
22.2223
24.4801
26.7503
29.0235
31.2948
33.5335
35.6926
37.7039
39.4475
40.7209
41.3474
3.11771
3.23219
3.34013
3.43696
3.51268
3.54106
3.55349
3.6397
3.68374
3.7033
3.72225
3.73884
3.75425
3.76787
3.78847
3.81652
3.85345
3.89814
3.94068
3.91866
3.92564
3.90709
3.85192
3.79952
3.75622
3.72021
3.69183
3.67312
3.65086
3.62735
3.60933
3.59077
3.5576
3.49629
3.39556
3.27158
3.15096
3.05202
2.9366
2.87664
10.5515
10.7992
11.0679
11.3155
11.4669
11.2376
11.3394
11.2666
11.4081
11.2239
11.0358
10.8399
10.6414
10.4556
10.2828
10.13
9.98635
9.8598
9.76814
9.72258
9.73104
9.79215
9.89984
10.032
10.1789
10.3512
10.5338
10.7468
10.9542
11.1509
11.3285
11.4506
11.4785
11.3768
11.1306
10.7925
10.4384
10.1558
9.88876
9.75664
11.4912
11.4303
11.481
11.5221
11.522
11.4796
11.5362
11.5215
11.5612
11.5425
11.5363
11.5342
11.5101
11.6204
11.5514
11.5955
11.582
11.5379
11.6086
11.5492
11.5898
11.5034
11.5706
11.5728
11.5033
11.5774
11.499
11.5691
11.5134
11.5805
11.5292
11.4724
11.5052
11.4892
11.4563
11.5139
11.4612
11.4374
11.2749
11.1411
11.5206
11.5004
11.5519
11.5099
11.5328
11.5845
11.7555
11.8806
12.0223
12.167
12.3185
12.476
12.6277
12.7771
12.9047
13.0213
13.112
13.1791
13.223
13.2257
13.1987
13.1281
13.0299
12.906
12.7594
12.6031
12.4299
12.2568
12.0857
11.9112
11.772
11.5913
11.5101
11.5223
11.4975
11.5826
11.5152
11.4811
11.5244
11.4961
11.5854
11.5589
11.6975
11.8282
12.0095
12.2228
12.4834
12.7249
12.9796
13.237
13.4919
13.7439
13.9807
14.2052
14.4105
14.5956
14.7542
14.8719
14.9418
14.9579
14.9173
14.8199
14.6697
14.4737
14.2417
13.9921
13.7254
13.4485
13.1647
12.8705
12.5938
12.3078
12.043
11.849
11.6255
11.5607
11.5663
11.5818
11.5169
11.4945
12.0214
12.0862
12.3281
12.5542
12.8473
13.1448
13.4655
13.778
14.0967
14.4126
14.7215
15.0249
15.3164
15.5958
15.8595
16.0932
16.2884
16.434
16.5209
16.5429
16.4973
16.3835
16.2048
15.9695
15.6897
15.377
15.0441
14.7027
14.3543
14.0001
13.6447
13.2904
12.9307
12.6047
12.2737
11.9975
11.7823
11.6135
11.5786
11.5487
12.8137
12.8913
13.2016
13.4649
13.8084
14.1374
14.49
14.836
15.1872
15.5358
15.8813
16.2233
16.559
16.8793
17.1768
17.4407
17.6606
17.8251
17.9232
17.9484
17.8999
17.7757
17.578
17.317
17.0056
16.656
16.2811
15.8902
15.4941
15.0978
14.7
14.3053
13.9061
13.5191
13.1336
12.773
12.4377
12.1722
11.961
11.9132
13.7028
13.7957
14.1197
14.3929
14.7474
15.087
15.4536
15.8175
16.1898
16.563
16.9382
17.3094
17.6717
18.0176
18.3384
18.6236
18.8614
19.039
19.1425
19.1673
19.118
18.9901
18.7794
18.5001
18.1663
17.7914
17.3884
16.9678
16.5388
16.1073
15.6776
15.254
14.8316
14.4187
14.0083
13.6226
13.2395
12.9367
12.6298
12.558
14.5458
14.6703
14.973
15.2501
15.599
15.9438
16.3169
16.6935
17.0814
17.4718
17.864
18.2527
18.6323
18.9953
19.3322
19.6318
19.8812
20.0652
20.1542
20.1583
20.1176
20.0156
19.7992
19.5081
19.1593
18.7671
18.3452
17.9045
17.4544
17.0014
16.5493
16.1026
15.6603
15.2309
14.8068
14.4135
14.0177
13.7083
13.3717
13.2744
15.2845
15.4315
15.7122
15.9916
16.333
16.6809
17.0567
17.4402
17.8357
18.2355
18.6378
19.0368
19.4267
19.7996
20.1455
20.4528
20.7085
20.8971
20.9887
20.9861
20.9482
20.8465
20.6258
20.3286
19.9718
19.5701
19.137
18.6841
18.2206
17.7536
17.2871
16.8257
16.3696
15.9274
15.4929
15.0923
14.6948
14.3824
14.0485
13.9226
15.8764
16.0288
16.305
16.5836
16.9204
17.2695
17.6465
18.0341
18.4342
18.8394
19.2469
19.6508
20.045
20.4212
20.7693
21.0779
21.3344
21.5257
21.6383
21.6643
21.6127
21.4755
21.2509
20.9529
20.5951
20.1912
19.7543
19.296
18.8254
18.3497
17.8734
17.4013
16.9344
16.4814
16.0384
15.6299
15.231
14.9102
14.5821
14.4245
16.2729
16.4212
16.7114
16.9909
17.3319
17.6854
18.0671
18.4599
18.8646
19.2736
19.6836
20.0886
20.4822
20.8562
21.201
21.5053
21.7573
21.9451
22.0582
22.0884
22.0343
21.8941
21.6726
21.3796
21.0268
20.6271
20.1927
19.7347
19.2619
18.7813
18.2975
17.8154
17.3367
16.8706
16.415
15.993
15.5838
15.2503
14.9119
14.7331
16.4044
16.5635
16.8857
17.1793
17.5389
17.906
18.3006
18.7038
19.1164
19.5306
19.9428
20.3471
20.7374
21.1059
21.4434
21.7396
21.9835
22.1642
22.2725
22.3013
22.248
22.1121
21.8981
21.6142
21.2711
20.8802
20.4528
19.9991
19.5269
19.0428
18.5508
18.056
17.5598
17.0705
16.5872
16.1364
15.6983
15.3398
14.9697
14.7695
16.2077
16.4026
16.773
17.102
17.5001
17.8999
18.3243
18.7506
19.1797
19.6047
20.0225
20.4277
20.8147
21.1767
21.5054
21.7917
22.0259
22.1982
22.3006
22.3274
22.276
22.1464
21.9418
21.6695
21.3387
20.9595
20.5415
20.0934
19.6217
19.1319
18.6269
18.1092
17.5803
17.0525
16.5265
16.0317
15.5458
15.1462
14.7216
14.4949
15.6656
15.9139
16.3519
16.7383
17.1946
17.6463
18.1185
18.5866
19.0509
19.5009
19.9335
20.3455
20.7329
21.0904
21.4115
21.6886
21.9134
22.0778
22.1749
22.2001
22.1514
22.0289
21.8348
21.5752
21.258
20.8912
20.4826
20.0386
19.5639
19.0604
18.5282
17.9735
17.4012
16.8249
16.2458
15.6955
15.1508
14.6979
14.2102
13.9531
14.8981
15.198
15.7125
16.1685
16.6963
17.2142
17.7476
18.2701
18.7821
19.2726
19.7369
20.168
20.5636
20.9216
21.2383
21.5085
21.7259
21.8841
21.9775
22.0024
21.9578
21.8433
21.6607
21.415
21.112
20.758
20.3583
19.9154
19.4292
18.9018
18.3391
17.7491
17.1371
16.5172
15.8917
15.294
14.7025
14.2073
13.6865
13.4017
14.4216
14.7303
15.2893
15.7956
16.3783
16.9511
17.5352
18.1038
18.6557
19.1804
19.6733
20.1277
20.5374
20.8986
21.2119
21.4761
21.6869
21.8399
21.9312
21.9578
21.9194
21.8157
21.6481
21.4202
21.1363
20.8007
20.4144
19.9756
19.4874
18.957
18.3908
17.7963
17.1795
16.554
15.9239
15.322
14.7302
14.2431
13.7336
13.5064
15.002
15.2812
15.8313
16.3451
16.9357
17.5214
18.1147
18.691
19.2463
19.7714
20.2613
20.7107
21.1139
21.4657
21.7663
22.0172
22.2165
22.3614
22.4491
22.478
22.4481
22.3594
22.2127
22.0107
21.7567
21.4534
21.0996
20.6939
20.2413
19.7489
19.2221
18.6673
18.09
17.5018
16.9076
16.3362
15.775
15.3117
14.8284
14.6364
16.6036
16.8922
17.4433
17.9637
18.5504
19.1311
19.7121
20.2721
20.8061
21.3061
21.7675
22.1852
22.5548
22.8757
23.1502
23.3789
23.5602
23.6921
23.7729
23.8015
23.7783
23.7033
23.5769
23.4016
23.1799
22.9143
22.6056
22.2517
21.8515
21.4095
20.9309
20.4209
19.8843
19.3302
18.7639
18.2093
17.6578
17.1874
16.692
16.4739
18.6858
19.0251
19.608
20.1516
20.746
21.3259
21.896
22.4378
22.9466
23.4155
23.8404
24.218
24.5512
24.8425
25.0923
25.3
25.4643
25.5834
25.6561
25.6817
25.661
25.5938
25.4804
25.3228
25.1233
24.8843
24.6074
24.2934
23.941
23.547
23.1109
22.6374
22.131
21.5994
21.0473
20.4952
19.9359
19.4395
18.9069
18.6319
20.9604
21.363
21.9893
22.5595
23.1635
23.7407
24.297
24.8162
25.2946
25.727
26.1146
26.461
26.7687
27.0382
27.269
27.4605
27.6111
27.7197
27.7849
27.8068
27.7862
27.7227
27.6167
27.4696
27.2839
27.0617
26.8049
26.515
26.1923
25.8364
25.4434
25.0088
24.5342
24.0265
23.489
22.9397
22.3708
21.8468
21.2697
20.9306
23.3195
23.7828
24.4532
25.0457
25.6556
26.2249
26.7622
27.2534
27.6982
28.0997
28.4622
28.7876
29.0768
29.3297
29.5459
29.7245
29.8641
29.9638
30.0228
30.0411
30.0195
29.9581
29.8566
29.7167
29.5403
29.3294
29.0862
28.8119
28.5078
28.174
27.8096
27.4117
26.9742
26.4961
25.9785
25.4372
24.862
24.3147
23.6932
23.2931
25.7182
26.2344
26.9456
27.5555
28.1684
28.7266
29.2428
29.7072
30.1291
30.5116
30.8575
31.1677
31.4428
31.6828
31.8871
32.0549
32.1854
32.2776
32.3312
32.346
32.3234
32.2633
32.1652
32.0304
31.8611
31.6587
31.4252
31.1621
30.8705
30.5508
30.2027
29.825
29.4141
28.9658
28.4711
27.9416
27.3638
26.7982
26.1356
25.6815
28.1385
28.6991
29.4474
30.0714
30.6863
31.2339
31.7334
32.1837
32.5936
32.9646
33.2993
33.5986
33.863
34.0927
34.2872
34.4462
34.5689
34.6549
34.7035
34.7154
34.6918
34.6325
34.5369
34.4062
34.2422
34.0463
33.8201
33.565
33.2818
32.971
32.6322
32.2648
31.8657
31.4331
30.9569
30.4386
29.8587
29.278
28.5774
28.0767
30.5718
31.17
31.9533
32.5901
33.2085
33.7494
34.2439
34.6893
35.0936
35.4582
35.7859
36.0775
36.3341
36.5559
36.7429
36.8948
37.0112
37.0919
37.1366
37.1459
37.1212
37.0625
36.9687
36.841
36.6809
36.4897
36.2686
36.0188
35.7409
35.435
35.1008
34.7372
34.3416
33.9125
33.441
32.9292
32.3453
31.7501
31.0126
30.4706
33.0051
33.6361
34.4533
35.1029
35.7282
36.2717
36.7685
37.2143
37.6176
37.9799
38.3039
38.5911
38.8427
39.059
39.2405
39.3872
39.4988
39.5755
39.6169
39.6241
39.5985
39.5399
39.4472
39.3216
39.1641
38.9757
38.7578
38.5108
38.2353
37.9311
37.5975
37.2334
36.8359
36.4037
35.9277
35.4124
34.8204
34.2099
33.4361
32.8573
35.4103
36.0736
36.9256
37.5901
38.2259
38.7769
39.2804
39.7304
40.1363
40.4994
40.8229
41.1084
41.3572
41.5703
41.7482
41.891
41.9989
42.0721
42.1108
42.1161
42.0898
42.0315
41.9398
41.8156
41.6596
41.4729
41.2562
41.01
40.7344
40.429
40.093
39.7247
39.3212
38.8811
38.3948
37.8681
37.262
36.6333
35.822
35.2083
37.7311
38.425
39.3124
39.9951
40.6483
41.212
41.7261
42.1841
42.5957
42.9624
43.2879
43.5738
43.8216
44.0324
44.2066
44.3443
44.446
44.5119
44.5437
44.5448
44.5192
44.4654
44.3792
44.26
44.1079
43.9236
43.7081
43.4616
43.1843
42.8758
42.5347
42.1597
41.7473
41.296
40.7956
40.2529
39.6272
38.9775
38.1274
37.4781
39.8934
40.6177
41.5402
42.2424
42.9157
43.4949
44.0225
44.4911
44.9112
45.2844
45.6142
45.9025
46.1503
46.3579
46.5245
46.6483
46.7269
46.7601
46.7554
46.7369
46.7194
46.6962
46.6444
46.5515
46.416
46.2408
46.0286
45.7819
45.5016
45.1878
44.8395
44.4553
44.0313
43.5664
43.0493
42.4875
41.8379
41.1645
40.2755
39.5924
41.7704
42.5247
43.4816
44.2045
44.8988
45.495
46.0375
46.5185
46.9489
47.3302
47.6662
47.958
48.206
48.4091
48.5642
48.6675
48.7156
48.713
48.6823
48.6536
48.6428
48.6437
48.6293
48.5688
48.4545
48.2905
48.0827
47.8353
47.551
47.2307
46.8738
46.4789
46.0421
45.5621
45.0272
44.4455
43.7715
43.0735
42.1465
41.4301
43.1495
43.9329
44.9223
45.6676
46.3831
46.9968
47.5549
48.049
48.4907
48.8815
49.2251
49.5225
49.7734
49.9757
50.1247
50.2146
50.2412
50.2128
50.1638
50.1267
50.1172
50.1292
50.1353
50.0981
50.0025
49.8502
49.6478
49.4008
49.1131
48.7865
48.4209
48.0151
47.5654
47.0703
46.5177
45.9156
45.2175
44.4936
43.5305
42.7813
43.8398
44.6428
45.6544
46.4162
47.1469
47.7732
48.3423
48.8459
49.2957
49.6935
50.0428
50.3446
50.5986
50.8021
50.9504
51.0364
51.056
51.0189
50.9633
50.9231
50.9142
50.9304
50.9438
50.9155
50.8271
50.6787
50.4769
50.2281
49.9365
49.6044
49.2319
48.8178
48.3584
47.8522
47.2868
46.6703
45.9548
45.2118
44.2242
43.4529
3.72597
19.8824
34.5064
38.7103
42.1217
43.7824
44.8738
45.2562
45.5088
45.5504
45.516
45.5428
45.4499
45.2792
45.0621
44.9401
44.932
45.0602
45.1603
45.3075
45.084
43.8445
43.5827
41.8994
42.2039
42.1002
41.458
40.8388
40.5257
39.6981
39.5201
39.0053
14.6687
20.5796
34.074
38.3928
41.876
43.6121
44.7467
45.219
45.4503
45.4784
45.6257
45.6825
45.6888
45.5025
45.3204
45.2038
45.2366
45.272
45.3662
45.4971
45.2946
44.2674
43.9061
42.2925
42.3471
42.2105
41.8805
41.1595
40.9204
40.1492
39.9871
39.5077
16.5594
18.6578
33.238
37.9534
41.5363
43.4207
44.6782
45.1579
45.4674
45.6023
45.6123
45.6628
45.6467
45.5734
45.4833
45.4277
45.3654
45.3842
45.447
45.5497
45.3697
44.5715
44.2027
42.7728
42.6735
42.5598
42.528
41.7149
41.5388
40.8186
40.6312
40.152
8.77536
19.0829
32.7194
37.5168
41.1902
43.1609
44.4287
45.0363
45.3975
45.4853
45.7055
45.8451
45.9597
45.9021
45.8322
45.7306
45.6818
45.6406
45.743
45.8123
45.6675
45.0286
44.5826
43.2179
42.9003
42.7489
43.0213
42.1127
42.0058
41.3465
41.1725
40.733
10.9339
16.9898
31.5206
36.8466
40.6665
42.7967
44.2585
44.916
45.3495
45.6568
45.7966
45.9198
45.9842
46.0186
46.0212
45.9674
45.8194
45.801
45.9032
45.9176
45.8161
45.345
44.9177
43.7174
43.3124
43.2033
43.7078
42.733
42.6745
42.0675
41.8693
41.44
4.95618
16.6335
30.7867
36.1829
40.1504
42.4445
43.912
44.7302
45.3188
45.5445
45.8737
46.1136
46.3411
46.4145
46.4087
46.2673
46.1425
46.1168
46.2574
46.2275
46.1791
45.8019
45.3273
44.1784
43.624
43.5205
44.214
43.1888
43.1834
42.6397
42.4575
42.0752
8.56131
14.2305
29.0719
35.1892
39.4143
41.9013
43.6595
44.6061
45.2226
45.7375
46.0393
46.2608
46.4083
46.5293
46.5662
46.484
46.2904
46.3206
46.4474
46.3632
46.3677
46.0991
45.674
44.6779
44.1199
44.1024
44.8924
43.8572
43.8793
43.389
43.1869
42.8226
11.9782
13.7489
28.1087
34.2093
38.6509
41.4497
43.2429
44.345
45.2245
45.6262
46.0739
46.4175
46.7555
46.9287
46.9489
46.77
46.6308
46.6828
46.8207
46.7144
46.7687
46.5439
46.0996
45.1481
44.5167
44.5406
45.3714
44.347
44.4018
43.9755
43.7956
43.4827
12.9496
11.5812
25.6631
32.7571
37.6456
40.6721
42.8571
44.2021
45.0384
45.7756
46.2508
46.5894
46.8159
46.9866
47.0299
46.951
46.7884
46.9036
47.0036
46.8688
46.9623
46.8085
46.44
45.6471
45.0855
45.2117
46.0143
45.0374
45.0982
44.7243
44.529
44.2365
14.6259
10.6932
24.5468
31.3079
36.4365
39.9889
42.2842
43.7552
44.992
45.6037
46.187
46.6391
47.0822
47.3314
47.3819
47.2151
47.1338
47.2723
47.3652
47.2434
47.3654
47.228
46.8598
46.1097
45.5315
45.6926
46.4297
45.5141
45.5898
45.2776
45.1126
44.8727
17.2903
9.15654
20.973
29.1298
34.9619
38.7514
41.5744
43.4816
44.5994
45.6107
46.2855
46.7661
47.0707
47.282
47.3499
47.3371
47.2696
47.4588
47.5034
47.3749
47.5137
47.4308
47.1562
46.581
46.1254
46.3644
47.0116
46.1821
46.2491
45.9863
45.8085
45.5858
19.54
8.13022
19.9694
26.9484
32.8556
37.536
40.6108
42.6072
44.365
45.266
46.0422
46.6243
47.1845
47.5228
47.6502
47.5573
47.5826
47.7821
47.8217
47.7304
47.8777
47.7992
47.5349
46.9973
46.5488
46.7769
47.3147
46.5722
46.642
46.4334
46.2961
46.1267
21.5062
8.65422
14.5299
23.5892
30.5836
35.3258
39.1742
41.9983
43.5434
44.9915
45.9513
46.6349
47.0409
47.3133
47.4477
47.5651
47.6267
47.8623
47.8598
47.7662
47.9137
47.8837
47.7205
47.3745
47.0849
47.3444
47.7912
47.1503
47.2069
47.0417
46.8934
46.7324
22.8786
8.75662
14.3975
20.1717
26.5288
32.9972
37.3513
40.1834
42.8905
44.2646
45.3981
46.2014
46.9429
47.4216
47.6816
47.6939
47.8349
48.0676
48.0792
48.0351
48.1825
48.1489
47.9961
47.6691
47.386
47.5933
47.9409
47.3862
47.4486
47.3291
47.235
47.1312
21.9469
11.3268
3.91877
14.447
23.2043
28.5937
34.2291
38.8767
41.1374
43.4555
44.9249
45.9849
46.5843
46.9947
47.2432
47.5298
47.7187
47.9747
47.9512
47.8962
48.0405
48.0572
48.0138
47.9103
47.8196
48.0207
48.302
47.8514
47.9031
47.8157
47.7072
47.5997
20.3158
12.0072
11.3884
9.63508
11.8076
23.6798
30.4049
34.6218
39.6045
41.864
43.7651
45.0312
46.1575
46.8972
47.3783
47.526
47.7806
48.0255
48.0439
48.0529
48.1953
48.1992
48.1591
48.0308
47.9128
47.9859
48.1769
47.8096
47.8618
47.801
47.7644
47.7287
17.3772
11.673
5.16561
10.814
7.11854
5.75386
21.0059
31.8898
35.3325
39.9399
42.4948
44.3505
45.3487
46.0595
46.5057
47.0367
47.3545
47.6254
47.6198
47.61
47.7407
47.796
47.8644
48.0039
48.1146
48.1854
48.329
48.0695
48.1211
48.0743
48.0138
47.9431
15.3869
11.5286
10.9302
6.71755
4.7196
3.7595
8.48368
13.8478
31.6709
35.9943
39.9864
42.3073
44.2917
45.545
46.4358
46.7493
47.1253
47.3908
47.4793
47.576
47.6991
47.7286
47.7715
47.767
47.7545
47.5517
47.5599
47.3405
47.3504
47.2715
47.2984
47.3398
12.0476
10.2797
10.4414
10.7171
7.0752
11.2787
11.3527
4.62826
11.1141
31.2815
36.8127
40.6848
42.4725
43.7864
44.5534
45.4954
45.9868
46.3022
46.3675
46.4101
46.4709
46.5382
46.6545
46.9922
47.2692
47.1515
47.1177
47.0318
47.0622
46.9716
46.9418
46.8616
11.1923
11.624
7.89309
7.90357
9.39347
12.119
11.8631
5.33365
6.38153
15.9867
30.8499
35.8563
40.0055
42.3058
44.0197
44.5279
45.0517
45.3737
45.6227
45.8678
45.9017
45.9318
45.9478
45.8241
45.6864
44.8645
44.483
44.2489
44.0147
43.647
43.6802
43.8176
11.4466
7.75647
8.98357
1.63334
6.23909
9.95804
8.72352
7.33498
5.16769
11.3294
23.2185
32.7285
35.5702
38.0766
39.2771
41.1465
42.0028
42.4549
42.6338
42.6323
42.3792
42.3442
42.2325
42.6216
42.9815
42.5664
42.1525
42.156
41.9995
41.6069
41.3863
40.9515
7.48219
9.04183
7.66871
8.75178
12.6031
5.48063
13.5462
6.67772
12.68
13.0789
14.6612
12.0355
27.5027
33.3228
37.7319
38.3721
39.0959
39.5471
40.0807
40.5381
40.2611
40.1815
39.7503
38.3221
36.5491
32.6443
29.6802
26.6672
22.427
15.8727
11.5831
11.0007
9.62195
9.51016
10.3253
11.3824
14.7426
17.2911
15.8604
11.0595
4.6384
12.0728
6.88758
6.34078
10.3946
6.75811
11.7853
23.1339
26.8915
28.2248
28.2497
26.5172
23.0804
19.9139
13.2037
9.13862
8.60643
19.7311
18.661
11.0659
17.4632
9.56434
6.8225
16.2842
6.32388
11.31
10.5683
8.22184
16.9421
23.1167
25.956
26.8293
25.6664
20.2453
9.60061
11.9623
14.5853
2.54382
14.7405
11.3666
12.0855
13.6626
8.4991
14.0247
12.8537
11.5371
16.3966
10.902
12.817
13.2193
17.7077
9.59982
7.06152
16.2753
11.0533
12.0205
7.93839
12.4212
11.9978
9.92258
15.0369
21.966
26.5254
28.6105
28.748
27.8903
25.8668
18.5671
6.18039
13.219
9.03424
8.17426
11.4747
16.5639
6.17873
9.79939
8.85209
17.4279
12.1929
19.1744
12.3572
11.313
18.5131
22.024
24.816
26.2101
27.8236
28.3454
7.36006
14.6808
15.8399
15.0164
16.4785
20.8068
25.1499
28.1023
29.4706
29.464
27.7103
24.8751
23.5673
22.3823
19.5898
14.1034
8.93669
13.9608
9.427
16.7295
11.5151
17.477
20.7641
23.7746
25.399
27.8172
27.9
28.4786
28.9946
29.3324
29.6735
29.8101
6.18358
15.4231
18.5183
19.6874
20.5315
22.5542
25.2774
27.7401
29.3324
29.7764
28.6062
24.6518
21.4577
23.3901
24.1021
24.6982
24.1062
22.528
22.8001
23.8188
25.1781
25.4262
26.1121
27.181
27.8552
28.6513
29.3651
30.183
30.7653
31.1605
31.4498
31.4714
5.07046
14.7337
18.8635
21.4476
23.0359
24.4207
25.8985
27.2598
27.9234
26.9675
23.4205
16.825
16.1567
20.4963
21.8891
23.2486
23.4383
23.6269
23.943
24.1327
24.8124
25.7495
26.7894
27.9144
28.4458
28.9362
28.8382
29.0116
29.0407
29.01
29.0972
29.0409
3.80344
12.1534
16.5074
19.9885
22.4324
24.0673
25.1278
25.6217
25.1237
22.8396
18.302
11.3834
3.02693
7.42001
8.38191
17.1435
20.066
20.9123
21.4121
22.2115
23.0414
23.7496
24.4969
25.1078
25.2108
25.5976
26.0576
26.5836
27.1115
27.4926
27.9458
28.0907
3.44001
10.7509
12.9914
16.3621
19.366
21.4026
22.4533
22.4916
21.1434
17.7685
11.3938
4.0765
11.5984
12.9237
13.6155
8.15912
9.65467
12.2544
14.0368
15.9317
18.1591
20.1187
21.6686
22.7951
23.6182
24.4314
25.095
25.7626
26.3397
26.6612
27.0433
27.1614
2.07375
6.97089
9.8167
11.991
14.7537
16.6479
17.2851
16.4594
14.0089
5.95517
6.43544
8.55901
10.6528
9.96462
11.5538
14.9119
15.2608
15.2111
15.7389
16.5453
17.7351
19.1522
20.4816
21.3973
22.0267
22.6658
23.3195
24.0249
24.7877
25.4949
26.1208
26.3934
0.447551
1.26228
1.62001
6.75825
9.37975
10.5089
9.69543
5.97505
8.99154
7.31073
5.01352
10.6088
11.5369
11.6386
11.5333
9.16228
11.5041
13.0014
14.1644
15.275
16.4973
17.6475
18.7157
19.6434
20.6051
21.6994
22.8013
23.8873
24.8965
25.7431
26.429
26.7418
2.64805
8.35135
9.64507
9.99497
9.90286
9.50133
8.4439
7.30111
6.14921
8.66747
11.6308
11.6149
11.5133
11.4977
11.5646
12.7772
12.2787
12.9789
13.9363
14.8803
15.9168
16.9898
18.0971
19.288
20.5214
21.756
22.9976
24.1952
25.3089
26.2692
27.0137
27.3634
2.78333
8.83813
10.381
11.2811
11.55
11.7552
11.9542
12.1345
12.5788
12.4504
11.7723
12.0964
12.1784
11.5806
11.5341
11.422
11.5426
12.4348
13.5515
14.6089
15.7449
16.9665
18.2335
19.5301
20.8927
22.2779
23.6558
24.9883
26.2102
27.2475
28.0316
28.4048
2.51887
8.53938
9.95914
10.8122
11.4791
11.5553
11.5336
11.5079
11.5261
11.5636
12.5433
12.9019
12.7385
12.3673
11.5154
11.5273
11.5414
12.4666
13.6683
14.8534
16.0774
17.367
18.7198
20.1423
21.6295
23.1297