/*--------------------------------*- C++ -*----------------------------------*\
  =========                 |
  \\      /  F ield         | OpenFOAM: The Open Source CFD Toolbox
   \\    /   O peration     | Website:  https://openfoam.org
    \\  /    A nd           | Version:  6
     \\/     M anipulation  |
\*---------------------------------------------------------------------------*/
FoamFile
{
    version     2.0;
    format      ascii;
    class       volVectorField;
    location    "0";
    object      U;
}
// * * * * * * * * * * * * * * * * * * * * * * * * * * * * * * * * * * * * * //

dimensions      [0 1 -1 0 0 0 0];

internalField   nonuniform List<vector> 
2880
(
(0.0759945 1.67034e-09 -2.51238e-10)
(0.0759944 -2.93133e-10 1.50822e-10)
(0.0759942 -1.3453e-09 6.2858e-11)
(0.098883 6.74376e-10 -3.01769e-10)
(0.098884 -1.13986e-09 8.06405e-11)
(0.098883 5.36073e-10 2.22183e-10)
(0.114197 -1.53111e-09 -3.15082e-10)
(0.114198 -2.17148e-09 7.01405e-11)
(0.114197 3.77535e-09 2.44221e-10)
(0.124507 -1.83531e-09 -3.04277e-10)
(0.124508 -1.61372e-09 5.53115e-11)
(0.124507 3.50318e-09 2.48991e-10)
(0.132472 -1.02328e-09 -2.55045e-10)
(0.132472 -2.10942e-09 3.15866e-11)
(0.132472 3.18331e-09 2.2382e-10)
(0.138997 6.0458e-10 -1.9016e-10)
(0.138998 -2.56202e-09 -1.58102e-11)
(0.138997 1.99472e-09 2.06128e-10)
(0.144588 1.59391e-09 -1.38429e-10)
(0.144589 -2.59089e-09 -5.7344e-11)
(0.144589 1.02976e-09 1.96063e-10)
(0.149583 1.36562e-09 -9.75147e-11)
(0.149583 -1.49753e-09 -8.7223e-11)
(0.149583 1.60109e-10 1.84914e-10)
(0.154195 3.37613e-10 -5.91897e-11)
(0.154196 -7.99784e-11 -7.49747e-11)
(0.154195 -2.32456e-10 1.34374e-10)
(0.15852 3.56323e-10 -8.32978e-12)
(0.158519 -3.00905e-10 -3.19432e-11)
(0.15852 -3.60215e-11 4.06767e-11)
(0.162523 1.96177e-09 1.96051e-11)
(0.162523 -1.45977e-09 5.85382e-12)
(0.162523 -4.98091e-10 -2.49253e-11)
(0.166062 3.38234e-09 2.94136e-11)
(0.166062 -2.11235e-09 4.57327e-11)
(0.166062 -1.26443e-09 -7.48807e-11)
(0.168943 3.36191e-09 5.05079e-11)
(0.168942 -2.00592e-09 9.78629e-11)
(0.168943 -1.35909e-09 -1.47602e-10)
(0.170997 2.33188e-09 4.29025e-11)
(0.170995 -1.2147e-09 1.54408e-10)
(0.170996 -1.12448e-09 -1.97186e-10)
(0.172114 7.04523e-10 3.42089e-11)
(0.172113 -3.18526e-10 1.87105e-10)
(0.172113 -3.85012e-10 -2.21499e-10)
(0.172113 -1.00509e-09 3.40363e-11)
(0.172112 5.33724e-10 1.87073e-10)
(0.172112 4.70029e-10 -2.21486e-10)
(0.170995 -2.67267e-09 4.34079e-11)
(0.170993 1.46247e-09 1.52501e-10)
(0.170995 1.21968e-09 -1.95947e-10)
(0.16894 -3.74882e-09 4.83747e-11)
(0.168939 2.242e-09 9.7703e-11)
(0.16894 1.51028e-09 -1.46134e-10)
(0.166058 -3.75909e-09 2.89855e-11)
(0.166058 2.32548e-09 4.49983e-11)
(0.166058 1.43864e-09 -7.40092e-11)
(0.162519 -2.24735e-09 1.70341e-11)
(0.162518 1.56067e-09 1.04708e-11)
(0.162519 6.91727e-10 -2.74482e-11)
(0.158516 -5.78197e-10 -1.02624e-11)
(0.158515 2.32772e-10 -2.93131e-11)
(0.158516 3.42358e-10 3.96025e-11)
(0.154191 -5.04662e-10 -6.04071e-11)
(0.154192 -7.82702e-11 -7.32187e-11)
(0.154192 5.77324e-10 1.33737e-10)
(0.149578 -1.46924e-09 -9.9725e-11)
(0.149578 1.42308e-09 -8.38138e-11)
(0.149578 4.10138e-11 1.83543e-10)
(0.144583 -1.53385e-09 -1.42831e-10)
(0.144583 2.57794e-09 -4.9665e-11)
(0.144583 -1.04982e-09 1.92477e-10)
(0.13899 -2.56622e-10 -1.99846e-10)
(0.138991 2.48647e-09 -8.06911e-12)
(0.138991 -2.23391e-09 2.07842e-10)
(0.132465 1.56576e-09 -2.68482e-10)
(0.132465 2.12732e-09 3.71471e-11)
(0.132465 -3.69753e-09 2.31262e-10)
(0.124499 2.29342e-09 -3.18175e-10)
(0.1245 1.86509e-09 5.53273e-11)
(0.124499 -4.1602e-09 2.62719e-10)
(0.114189 1.68748e-09 -3.25976e-10)
(0.11419 2.74129e-09 6.70366e-11)
(0.114189 -4.42978e-09 2.58896e-10)
(0.098876 -6.86388e-10 -3.12489e-10)
(0.0988771 1.47996e-09 7.7064e-11)
(0.098876 -7.93931e-10 2.35238e-10)
(0.0759908 -1.70616e-09 -2.29361e-10)
(0.0759908 2.98939e-10 1.6054e-10)
(0.0759905 1.40887e-09 6.8851e-11)
(0.0863322 1.83586e-09 -3.40636e-10)
(0.0863328 -3.86622e-10 2.2436e-10)
(0.0863319 -1.44612e-09 8.93567e-11)
(0.119505 7.77258e-10 -5.71977e-10)
(0.119507 -1.34979e-09 1.39648e-10)
(0.119505 5.99488e-10 4.34177e-10)
(0.136606 -1.68726e-09 -5.94427e-10)
(0.136609 -2.49121e-09 1.27854e-10)
(0.136606 4.24194e-09 4.65548e-10)
(0.147785 -2.01461e-09 -5.69698e-10)
(0.147787 -1.88137e-09 9.4651e-11)
(0.147785 3.94912e-09 4.75135e-10)
(0.156287 -1.0659e-09 -4.73354e-10)
(0.156288 -2.444e-09 4.70519e-11)
(0.156287 3.56315e-09 4.26734e-10)
(0.163185 7.85806e-10 -3.54365e-10)
(0.163187 -2.9539e-09 -3.95628e-11)
(0.163185 2.20783e-09 3.94191e-10)
(0.169058 1.90687e-09 -2.62727e-10)
(0.16906 -2.97547e-09 -1.1323e-10)
(0.169058 1.10401e-09 3.76261e-10)
(0.174279 1.62882e-09 -1.89661e-10)
(0.174281 -1.71956e-09 -1.65284e-10)
(0.174279 1.21246e-10 3.55095e-10)
(0.179085 4.4868e-10 -1.13111e-10)
(0.179087 -1.00722e-10 -1.44266e-10)
(0.179085 -3.2129e-10 2.57545e-10)
(0.18358 4.56137e-10 -7.06862e-12)
(0.183582 -3.4016e-10 -6.32711e-11)
(0.18358 -9.44879e-11 7.07347e-11)
(0.187734 2.25248e-09 4.60611e-11)
(0.187735 -1.6481e-09 1.2339e-11)
(0.187734 -5.99853e-10 -5.80422e-11)
(0.191403 3.85532e-09 6.12982e-11)
(0.191404 -2.38271e-09 9.02995e-11)
(0.191402 -1.46741e-09 -1.51476e-10)
(0.194385 3.8206e-09 9.17965e-11)
(0.194386 -2.25531e-09 2.03178e-10)
(0.194385 -1.56858e-09 -2.94496e-10)
(0.19651 2.64679e-09 7.68389e-11)
(0.19651 -1.36776e-09 3.1117e-10)
(0.196509 -1.28749e-09 -3.88085e-10)
(0.197663 7.96518e-10 5.66773e-11)
(0.197665 -3.52423e-10 3.79333e-10)
(0.197663 -4.43553e-10 -4.35978e-10)
(0.197663 -1.13999e-09 5.64549e-11)
(0.197664 6.02358e-10 3.79364e-10)
(0.197662 5.36309e-10 -4.36049e-10)
(0.196508 -3.03469e-09 7.76436e-11)
(0.196508 1.65349e-09 3.08016e-10)
(0.196507 1.39161e-09 -3.85664e-10)
(0.194382 -4.26352e-09 8.95182e-11)
(0.194383 2.53297e-09 2.02257e-10)
(0.194382 1.73469e-09 -2.91795e-10)
(0.191399 -4.28611e-09 5.91965e-11)
(0.1914 2.62968e-09 9.1156e-11)
(0.191398 1.66267e-09 -1.5037e-10)
(0.18773 -2.58138e-09 4.34473e-11)
(0.187731 1.76787e-09 1.84647e-11)
(0.18773 8.19885e-10 -6.18056e-11)
(0.183576 -7.17958e-10 -1.0067e-11)
(0.183578 2.79011e-10 -5.9027e-11)
(0.183576 4.35851e-10 6.91721e-11)
(0.179081 -6.44387e-10 -1.15266e-10)
(0.179083 -7.23252e-11 -1.38279e-10)
(0.179081 7.10873e-10 2.53644e-10)
(0.174274 -1.74955e-09 -1.93466e-10)
(0.174276 1.63065e-09 -1.57534e-10)
(0.174274 1.13786e-10 3.50993e-10)
(0.169052 -1.84004e-09 -2.70197e-10)
(0.169054 2.95563e-09 -9.84386e-11)
(0.169052 -1.12166e-09 3.68613e-10)
(0.163178 -3.94611e-10 -3.70845e-10)
(0.16318 2.86612e-09 -2.52551e-11)
(0.163179 -2.47581e-09 3.96036e-10)
(0.156279 1.68132e-09 -4.98324e-10)
(0.156281 2.46057e-09 5.87152e-11)
(0.156279 -4.14681e-09 4.39526e-10)
(0.147777 2.53186e-09 -5.96416e-10)
(0.147779 2.16462e-09 9.62677e-11)
(0.147777 -4.69837e-09 4.99994e-10)
(0.136598 1.85294e-09 -6.16331e-10)
(0.136601 3.13518e-09 1.22839e-10)
(0.136598 -4.98924e-09 4.93454e-10)
(0.119498 -8.41981e-10 -5.90364e-10)
(0.1195 1.74059e-09 1.30076e-10)
(0.119498 -8.99155e-10 4.60074e-10)
(0.0863285 -1.91031e-09 -3.36275e-10)
(0.0863291 3.99071e-10 2.37652e-10)
(0.0863282 1.51295e-09 9.86806e-11)
(0.0905371 1.90674e-09 -3.94477e-10)
(0.0905369 -4.26562e-10 2.65224e-10)
(0.0905368 -1.4831e-09 1.04481e-10)
(0.127718 8.32956e-10 -6.97948e-10)
(0.127719 -1.42915e-09 1.77195e-10)
(0.127718 6.13986e-10 5.22592e-10)
(0.145587 -1.72781e-09 -7.24608e-10)
(0.145588 -2.61265e-09 1.62567e-10)
(0.145587 4.40345e-09 5.60677e-10)
(0.157183 -2.06547e-09 -6.96822e-10)
(0.157184 -1.98842e-09 1.18698e-10)
(0.157183 4.10821e-09 5.78227e-10)
(0.165957 -1.06635e-09 -5.79491e-10)
(0.165957 -2.57902e-09 5.91551e-11)
(0.165957 3.70055e-09 5.20825e-10)
(0.17305 8.68515e-10 -4.34662e-10)
(0.173051 -3.11053e-09 -4.80764e-11)
(0.17305 2.28331e-09 4.83075e-10)
(0.179074 2.03911e-09 -3.2285e-10)
(0.179075 -3.12878e-09 -1.39242e-10)
(0.179074 1.12657e-09 4.6243e-10)
(0.18442 1.73972e-09 -2.33917e-10)
(0.18442 -1.80922e-09 -2.03284e-10)
(0.18442 1.01303e-10 4.37371e-10)
(0.189333 4.99978e-10 -1.40283e-10)
(0.189333 -1.13567e-10 -1.77799e-10)
(0.189333 -3.58775e-10 3.1827e-10)
(0.193922 5.04966e-10 -9.52447e-12)
(0.193922 -3.64171e-10 -7.78994e-11)
(0.193922 -1.18412e-10 8.78583e-11)
(0.19816 2.37427e-09 5.59431e-11)
(0.198159 -1.72963e-09 1.62237e-11)
(0.19816 -6.39871e-10 -7.17924e-11)
(0.2019 4.05011e-09 7.5471e-11)
(0.2019 -2.49776e-09 1.11686e-10)
(0.2019 -1.54707e-09 -1.8704e-10)
(0.204941 4.0079e-09 1.12611e-10)
(0.20494 -2.36037e-09 2.52046e-10)
(0.204941 -1.65101e-09 -3.64188e-10)
(0.207108 2.77503e-09 9.46929e-11)
(0.207106 -1.43181e-09 3.84995e-10)
(0.207107 -1.3522e-09 -4.79775e-10)
(0.208285 8.34887e-10 6.93137e-11)
(0.208284 -3.67787e-10 4.69942e-10)
(0.208284 -4.6669e-10 -5.3925e-10)
(0.208284 -1.19469e-09 6.90891e-11)
(0.208284 6.30761e-10 4.70021e-10)
(0.208284 5.62473e-10 -5.39356e-10)
(0.207106 -3.18107e-09 9.55911e-11)
(0.207104 1.73199e-09 3.81173e-10)
(0.207105 1.4599e-09 -4.76782e-10)
(0.204938 -4.47197e-09 1.10067e-10)
(0.204937 2.65309e-09 2.50813e-10)
(0.204938 1.82323e-09 -3.60898e-10)
(0.201896 -4.50143e-09 7.26871e-11)
(0.201896 2.75785e-09 1.13128e-10)
(0.201896 1.75021e-09 -1.85838e-10)
(0.198155 -2.72003e-09 5.31064e-11)
(0.198155 1.85638e-09 2.33538e-11)
(0.198155 8.70443e-10 -7.63324e-11)
(0.193918 -7.81217e-10 -1.3111e-11)
(0.193918 3.03706e-10 -7.27493e-11)
(0.193918 4.74341e-10 8.5966e-11)
(0.189329 -7.06057e-10 -1.4291e-10)
(0.189329 -6.57504e-11 -1.70065e-10)
(0.189329 7.65788e-10 3.13083e-10)
(0.184415 -1.8669e-09 -2.38518e-10)
(0.184415 1.71572e-09 -1.93737e-10)
(0.184415 1.45927e-10 4.3225e-10)
(0.179068 -1.96965e-09 -3.31885e-10)
(0.179069 3.10731e-09 -1.21179e-10)
(0.179068 -1.14398e-09 4.53043e-10)
(0.173043 -4.60964e-10 -4.54677e-10)
(0.173044 3.01885e-09 -3.08015e-11)
(0.173044 -2.56239e-09 4.85419e-10)
(0.165949 1.71034e-09 -6.10006e-10)
(0.16595 2.59538e-09 7.35878e-11)
(0.165949 -4.31091e-09 5.36326e-10)
(0.157176 2.60623e-09 -7.29274e-10)
(0.157176 2.28401e-09 1.20754e-10)
(0.157175 -4.89225e-09 6.08344e-10)
(0.145579 1.89986e-09 -7.51351e-10)
(0.14558 3.28399e-09 1.57082e-10)
(0.145579 -5.18507e-09 5.94224e-10)
(0.127711 -9.0981e-10 -7.19965e-10)
(0.127712 1.83832e-09 1.66119e-10)
(0.127711 -9.29134e-10 5.53606e-10)
(0.0905333 -1.99086e-09 -3.96212e-10)
(0.0905332 4.41518e-10 2.8101e-10)
(0.0905331 1.55108e-09 1.15265e-10)
(0.0990836 2.0571e-09 -5.54718e-10)
(0.0990835 -5.10613e-10 3.83319e-10)
(0.0990833 -1.55202e-09 1.49332e-10)
(0.14389 9.78244e-10 -9.99278e-10)
(0.143891 -1.57444e-09 2.92653e-10)
(0.14389 6.12106e-10 7.08058e-10)
(0.163294 -1.75777e-09 -1.03492e-09)
(0.163295 -2.84026e-09 2.65496e-10)
(0.163294 4.66611e-09 7.67005e-10)
(0.175749 -2.11067e-09 -1.0067e-09)
(0.17575 -2.19416e-09 1.90545e-10)
(0.175749 4.36415e-09 8.16307e-10)
(0.185077 -1.02284e-09 -8.40883e-10)
(0.185077 -2.84465e-09 9.97807e-11)
(0.185077 3.92786e-09 7.41791e-10)
(0.192564 1.0581e-09 -6.32914e-10)
(0.192564 -3.41352e-09 -6.20276e-11)
(0.192564 2.40059e-09 6.95495e-10)
(0.198886 2.31442e-09 -4.6952e-10)
(0.198887 -3.42394e-09 -2.003e-10)
(0.198886 1.14989e-09 6.70271e-10)
(0.204475 1.96761e-09 -3.4115e-10)
(0.204475 -1.98231e-09 -2.9618e-10)
(0.204475 4.95101e-11 6.37566e-10)
(0.209596 6.13411e-10 -2.09159e-10)
(0.209596 -1.44304e-10 -2.59255e-10)
(0.209596 -4.39003e-10 4.68676e-10)
(0.21437 6.16745e-10 -2.28406e-11)
(0.21437 -4.24049e-10 -1.12247e-10)
(0.21437 -1.6857e-10 1.35678e-10)
(0.218772 2.6159e-09 7.2743e-11)
(0.218772 -1.89368e-09 2.77687e-11)
(0.218772 -7.17177e-10 -9.99759e-11)
(0.222654 4.42842e-09 1.06809e-10)
(0.222654 -2.72668e-09 1.62901e-10)
(0.222654 -1.69601e-09 -2.69518e-10)
(0.225808 4.36641e-09 1.6428e-10)
(0.225808 -2.56655e-09 3.65608e-10)
(0.225808 -1.80396e-09 -5.29255e-10)
(0.228055 3.0194e-09 1.40915e-10)
(0.228054 -1.556e-09 5.58175e-10)
(0.228054 -1.47332e-09 -6.99087e-10)
(0.229275 9.09487e-10 1.03647e-10)
(0.229274 -3.99192e-10 6.8298e-10)
(0.229274 -5.09934e-10 -7.86738e-10)
(0.229274 -1.2983e-09 1.03434e-10)
(0.229274 6.85396e-10 6.83173e-10)
(0.229274 6.10984e-10 -7.86927e-10)
(0.228053 -3.45809e-09 1.41965e-10)
(0.228052 1.88238e-09 5.52712e-10)
(0.228052 1.58745e-09 -6.94705e-10)
(0.225805 -4.86782e-09 1.60885e-10)
(0.225805 2.88505e-09 3.63729e-10)
(0.225805 1.98748e-09 -5.24611e-10)
(0.22265 -4.91647e-09 1.02601e-10)
(0.22265 3.01118e-09 1.65611e-10)
(0.22265 1.91257e-09 -2.68245e-10)
(0.218767 -2.99329e-09 6.92198e-11)
(0.218767 2.03288e-09 3.77209e-11)
(0.218767 9.67874e-10 -1.06753e-10)
(0.214365 -9.17522e-10 -2.79315e-11)
(0.214365 3.61159e-10 -1.04568e-10)
(0.214365 5.5296e-10 1.32672e-10)
(0.209592 -8.37028e-10 -2.12919e-10)
(0.209592 -4.75293e-11 -2.47725e-10)
(0.209592 8.78035e-10 4.60764e-10)
(0.204469 -2.10649e-09 -3.47659e-10)
(0.20447 1.88245e-09 -2.82873e-10)
(0.20447 2.18293e-10 6.30515e-10)
(0.19888 -2.24061e-09 -4.82448e-10)
(0.198881 3.40174e-09 -1.74705e-10)
(0.19888 -1.16806e-09 6.5712e-10)
(0.192557 -6.21942e-10 -6.61775e-10)
(0.192557 3.31625e-09 -3.79428e-11)
(0.192557 -2.69928e-09 6.99657e-10)
(0.185069 1.72022e-09 -8.84873e-10)
(0.18507 2.86087e-09 1.20671e-10)
(0.185069 -4.58682e-09 7.64085e-10)
(0.175742 2.69617e-09 -1.05218e-09)
(0.175742 2.5118e-09 1.93041e-10)
(0.175741 -5.21026e-09 8.58909e-10)
(0.163286 1.9467e-09 -1.07269e-09)
(0.163287 3.56061e-09 2.60031e-10)
(0.163286 -5.50873e-09 8.1261e-10)
(0.143883 -1.06172e-09 -1.03053e-09)
(0.143884 2.01545e-09 2.81135e-10)
(0.143883 -9.54482e-10 7.491e-10)
(0.0990797 -2.15009e-09 -5.70624e-10)
(0.0990799 5.28822e-10 4.0731e-10)
(0.0990795 1.62308e-09 1.63418e-10)
(0.107822 2.17269e-09 -8.14857e-10)
(0.107822 -6.14242e-10 5.77862e-10)
(0.107822 -1.5656e-09 2.26674e-10)
(0.156805 1.12906e-09 -1.35911e-09)
(0.156806 -1.66988e-09 4.81526e-10)
(0.156805 5.66786e-10 8.78504e-10)
(0.177546 -1.66851e-09 -1.4044e-09)
(0.177547 -2.98259e-09 4.27943e-10)
(0.177546 4.72556e-09 9.72891e-10)
(0.190873 -2.026e-09 -1.39206e-09)
(0.190873 -2.36e-09 3.04905e-10)
(0.190872 4.44998e-09 1.08746e-09)
(0.200768 -8.89895e-10 -1.17213e-09)
(0.200768 -3.05945e-09 1.70255e-10)
(0.200768 4.0139e-09 1.00288e-09)
(0.208651 1.26257e-09 -8.86534e-10)
(0.208651 -3.64628e-09 -6.8551e-11)
(0.208651 2.43209e-09 9.55979e-10)
(0.215271 2.56289e-09 -6.55573e-10)
(0.215272 -3.64562e-09 -2.74091e-10)
(0.215272 1.12587e-09 9.30295e-10)
(0.221098 2.16899e-09 -4.77474e-10)
(0.221098 -2.11281e-09 -4.15024e-10)
(0.221098 -1.90182e-11 8.92823e-10)
(0.22642 7.32538e-10 -3.02983e-10)
(0.22642 -1.75964e-10 -3.631e-10)
(0.22642 -5.2448e-10 6.66447e-10)
(0.231372 7.36124e-10 -5.30566e-11)
(0.231372 -4.79123e-10 -1.54234e-10)
(0.231372 -2.31775e-10 2.08116e-10)
(0.235932 2.80433e-09 8.09862e-11)
(0.235932 -2.00835e-09 4.76835e-11)
(0.235932 -7.91042e-10 -1.28062e-10)
(0.23995 4.70756e-09 1.41631e-10)
(0.23995 -2.89271e-09 2.27419e-10)
(0.23995 -1.80877e-09 -3.68876e-10)
(0.243213 4.6227e-09 2.30993e-10)
(0.243213 -2.71191e-09 5.04539e-10)
(0.243212 -1.91524e-09 -7.34893e-10)
(0.245536 3.19433e-09 2.04564e-10)
(0.245536 -1.64175e-09 7.70882e-10)
(0.245536 -1.56244e-09 -9.75606e-10)
(0.246799 9.64162e-10 1.53029e-10)
(0.246798 -4.20316e-10 9.4703e-10)
(0.246798 -5.42814e-10 -1.10004e-09)
(0.246798 -1.37269e-09 1.52779e-10)
(0.246797 7.24119e-10 9.47261e-10)
(0.246797 6.46209e-10 -1.10038e-09)
(0.245534 -3.6552e-09 2.05797e-10)
(0.245533 1.98789e-09 7.6359e-10)
(0.245533 1.67974e-09 -9.69421e-10)
(0.243209 -5.14893e-09 2.26861e-10)
(0.243209 3.04883e-09 5.01955e-10)
(0.243209 2.10498e-09 -7.28774e-10)
(0.239946 -5.22064e-09 1.35778e-10)
(0.239946 3.19633e-09 2.32306e-10)
(0.239946 2.03197e-09 -3.68125e-10)
(0.235927 -3.20757e-09 7.72618e-11)
(0.235927 2.15728e-09 6.11841e-11)
(0.235927 1.05812e-09 -1.38145e-10)
(0.231367 -1.0535e-09 -5.99471e-11)
(0.231367 4.13303e-10 -1.42649e-10)
(0.231367 6.366e-10 2.0289e-10)
(0.226415 -9.67071e-10 -3.08002e-10)
(0.226416 -2.36734e-11 -3.46737e-10)
(0.226415 9.83769e-10 6.54884e-10)
(0.221093 -2.31568e-09 -4.86101e-10)
(0.221093 2.0107e-09 -3.97769e-10)
(0.221093 2.98743e-10 8.83839e-10)
(0.215265 -2.48686e-09 -6.73205e-10)
(0.215266 3.62454e-09 -2.39829e-10)
(0.215265 -1.14514e-09 9.12985e-10)
(0.208644 -8.12408e-10 -9.25909e-10)
(0.208644 3.5484e-09 -3.65196e-11)
(0.208644 -2.74139e-09 9.62331e-10)
(0.20076 1.61965e-09 -1.23288e-09)
(0.200761 3.07638e-09 1.99097e-10)
(0.20076 -4.7022e-09 1.03362e-09)
(0.190865 2.63754e-09 -1.45204e-09)
(0.190865 2.69049e-09 3.07109e-10)
(0.190865 -5.33058e-09 1.14462e-09)
(0.177539 1.87246e-09 -1.45505e-09)
(0.177539 3.72468e-09 4.24936e-10)
(0.177538 -5.59878e-09 1.03005e-09)
(0.156798 -1.20167e-09 -1.40285e-09)
(0.156799 2.12554e-09 4.75362e-10)
(0.156798 -9.24708e-10 9.27093e-10)
(0.107818 -2.27143e-09 -8.61202e-10)
(0.107819 6.37157e-10 6.16662e-10)
(0.107818 1.63613e-09 2.4472e-10)
(0.117088 2.19904e-09 -1.1325e-09)
(0.117088 -7.41677e-10 7.84006e-10)
(0.117088 -1.47644e-09 3.3678e-10)
(0.166 1.20842e-09 -1.66002e-09)
(0.166001 -1.72302e-09 6.96329e-10)
(0.166 5.38094e-10 9.62349e-10)
(0.188059 -1.48457e-09 -1.7172e-09)
(0.18806 -3.02806e-09 6.04998e-10)
(0.188059 4.5852e-09 1.10751e-09)
(0.202207 -1.84385e-09 -1.736e-09)
(0.202208 -2.49984e-09 4.30665e-10)
(0.202207 4.40787e-09 1.30575e-09)
(0.212633 -6.98276e-10 -1.47801e-09)
(0.212634 -3.21915e-09 2.49367e-10)
(0.212633 3.98272e-09 1.22999e-09)
(0.220879 1.44858e-09 -1.126e-09)
(0.220879 -3.80599e-09 -6.78498e-11)
(0.220879 2.40692e-09 1.19513e-09)
(0.227761 2.75373e-09 -8.31386e-10)
(0.227761 -3.78688e-09 -3.42973e-10)
(0.227761 1.07734e-09 1.17521e-09)
(0.233788 2.32305e-09 -6.08001e-10)
(0.233788 -2.19764e-09 -5.29206e-10)
(0.233788 -8.73958e-11 1.13767e-09)
(0.239275 8.4788e-10 -3.99686e-10)
(0.239276 -2.07773e-10 -4.60989e-10)
(0.239275 -6.07429e-10 8.61192e-10)
(0.244368 8.48602e-10 -9.74068e-11)
(0.244369 -5.10003e-10 -1.89992e-10)
(0.244368 -3.13045e-10 2.88518e-10)
(0.249053 2.92596e-09 7.46249e-11)
(0.249053 -2.05368e-09 7.53409e-11)
(0.249053 -8.67423e-10 -1.49195e-10)
(0.253177 4.86217e-09 1.67285e-10)
(0.253178 -2.97127e-09 2.9462e-10)
(0.253177 -1.88494e-09 -4.61665e-10)
(0.256526 4.76119e-09 2.91961e-10)
(0.256526 -2.77876e-09 6.38074e-10)
(0.256525 -1.98669e-09 -9.29258e-10)
(0.25891 3.29228e-09 2.64932e-10)
(0.25891 -1.68054e-09 9.751e-10)
(0.25891 -1.62056e-09 -1.2402e-09)
(0.260205 9.95145e-10 1.9956e-10)
(0.260206 -4.26499e-10 1.20103e-09)
(0.260205 -5.66509e-10 -1.40064e-09)
(0.260205 -1.41669e-09 1.99351e-10)
(0.260205 7.44508e-10 1.20134e-09)
(0.260204 6.69693e-10 -1.40108e-09)
(0.258908 -3.76712e-09 2.66125e-10)
(0.258908 2.04168e-09 9.66171e-10)
(0.258907 1.73816e-09 -1.23235e-09)
(0.256522 -5.30281e-09 2.87099e-10)
(0.256523 3.13045e-09 6.34879e-10)
(0.256522 2.17735e-09 -9.21907e-10)
(0.253173 -5.39077e-09 1.6013e-10)
(0.253174 3.28942e-09 3.0164e-10)
(0.253173 2.10925e-09 -4.6183e-10)
(0.249048 -3.34315e-09 7.04871e-11)
(0.249048 2.21055e-09 9.25224e-11)
(0.249048 1.14077e-09 -1.62594e-10)
(0.244364 -1.17804e-09 -1.06056e-10)
(0.244365 4.4605e-10 -1.73973e-10)
(0.244364 7.28434e-10 2.80468e-10)
(0.23927 -1.08939e-09 -4.05886e-10)
(0.239271 7.11881e-12 -4.40382e-10)
(0.23927 1.07514e-09 8.46454e-10)
(0.233783 -2.47371e-09 -6.18515e-10)
(0.233783 2.09449e-09 -5.08876e-10)
(0.233783 3.72796e-10 1.12736e-09)
(0.227755 -2.67619e-09 -8.53704e-10)
(0.227755 3.76494e-09 -3.01666e-10)
(0.227755 -1.09642e-09 1.1553e-09)
(0.220872 -9.93227e-10 -1.17579e-09)
(0.220872 3.71163e-09 -2.8801e-11)
(0.220872 -2.72401e-09 1.20449e-09)
(0.212625 1.43641e-09 -1.55428e-09)
(0.212626 3.23909e-09 2.84771e-10)
(0.212625 -4.68187e-09 1.26929e-09)
(0.202199 2.45885e-09 -1.80753e-09)
(0.2022 2.83616e-09 4.32529e-10)
(0.202199 -5.29775e-09 1.37458e-09)
(0.188052 1.69599e-09 -1.77835e-09)
(0.188052 3.76045e-09 6.07131e-10)
(0.188052 -5.45821e-09 1.1711e-09)
(0.165993 -1.27509e-09 -1.71529e-09)
(0.165995 2.17782e-09 7.02728e-10)
(0.165993 -9.03612e-10 1.01206e-09)
(0.117084 -2.31115e-09 -1.19727e-09)
(0.117084 7.78335e-10 8.38299e-10)
(0.117084 1.53461e-09 3.59193e-10)
(0.120927 2.19592e-09 -1.27241e-09)
(0.120926 -7.94639e-10 8.7198e-10)
(0.120927 -1.42581e-09 3.89139e-10)
(0.169409 1.23235e-09 -1.77108e-09)
(0.169409 -1.73788e-09 7.87938e-10)
(0.169409 5.26333e-10 9.80622e-10)
(0.19195 -1.40058e-09 -1.83183e-09)
(0.19195 -3.03808e-09 6.79479e-10)
(0.19195 4.50947e-09 1.14715e-09)
(0.206437 -1.75499e-09 -1.86818e-09)
(0.206437 -2.55307e-09 4.83604e-10)
(0.206437 4.37167e-09 1.38499e-09)
(0.217095 -6.08953e-10 -1.59827e-09)
(0.217094 -3.28008e-09 2.83184e-10)
(0.217095 3.95419e-09 1.31657e-09)
(0.225504 1.52734e-09 -1.22174e-09)
(0.225503 -3.86546e-09 -6.69343e-11)
(0.225504 2.38779e-09 1.29011e-09)
(0.232506 2.82925e-09 -9.01745e-10)
(0.232506 -3.83837e-09 -3.71478e-10)
(0.232506 1.05352e-09 1.27418e-09)
(0.238626 2.3827e-09 -6.60853e-10)
(0.238626 -2.22761e-09 -5.76839e-10)
(0.238626 -1.16933e-10 1.23823e-09)
(0.24419 8.94829e-10 -4.40763e-10)
(0.24419 -2.18516e-10 -5.01139e-10)
(0.24419 -6.43591e-10 9.42498e-10)
(0.249348 8.93753e-10 -1.19068e-10)
(0.249347 -5.18015e-10 -2.0323e-10)
(0.249348 -3.50155e-10 3.23553e-10)
(0.25409 2.96603e-09 6.83791e-11)
(0.254089 -2.06293e-09 8.93335e-11)
(0.25409 -8.98306e-10 -1.56876e-10)
(0.258263 4.91011e-09 1.75568e-10)
(0.258262 -2.99216e-09 3.23893e-10)
(0.258263 -1.91207e-09 -4.99214e-10)
(0.261652 4.80321e-09 3.15807e-10)
(0.26165 -2.79591e-09 6.93814e-10)
(0.261651 -2.0114e-09 -1.00882e-09)
(0.264065 3.32291e-09 2.88964e-10)
(0.264064 -1.68991e-09 1.06e-09)
(0.264064 -1.64125e-09 -1.3492e-09)
(0.265377 1.00486e-09 2.17762e-10)
(0.265376 -4.26719e-10 1.30688e-09)
(0.265377 -5.75467e-10 -1.52472e-09)
(0.265376 -1.43104e-09 2.17552e-10)
(0.265375 7.50358e-10 1.30719e-09)
(0.265376 6.78168e-10 -1.52521e-09)
(0.264062 -3.8026e-09 2.90122e-10)
(0.264062 2.05684e-09 1.05045e-09)
(0.264062 1.75854e-09 -1.34066e-09)
(0.261648 -5.35008e-09 3.10703e-10)
(0.261647 3.15343e-09 6.9038e-10)
(0.261648 2.20168e-09 -1.00102e-09)
(0.258259 -5.44395e-09 1.67921e-10)
(0.258258 3.31603e-09 3.31872e-10)
(0.258259 2.1359e-09 -4.99872e-10)
(0.254085 -3.38841e-09 6.41493e-11)
(0.254084 2.22301e-09 1.0807e-10)
(0.254085 1.17368e-09 -1.71757e-10)
(0.249344 -1.22751e-09 -1.28446e-10)
(0.249343 4.55401e-10 -1.85244e-10)
(0.249344 7.68596e-10 3.14198e-10)
(0.244185 -1.13868e-09 -4.4744e-10)
(0.244185 1.81446e-11 -4.78796e-10)
(0.244185 1.11338e-09 9.26453e-10)
(0.238621 -2.53465e-09 -6.72099e-10)
(0.238621 2.12423e-09 -5.55399e-10)
(0.238621 4.03958e-10 1.22748e-09)
(0.2325 -2.75144e-09 -9.26008e-10)
(0.2325 3.81604e-09 -3.27457e-10)
(0.2325 -1.07232e-09 1.2534e-09)
(0.225497 -1.071e-09 -1.27552e-09)
(0.225496 3.77293e-09 -2.51593e-11)
(0.225497 -2.70761e-09 1.30055e-09)
(0.217087 1.34774e-09 -1.68072e-09)
(0.217087 3.30124e-09 3.21013e-10)
(0.217087 -4.65541e-09 1.35944e-09)
(0.206429 2.36885e-09 -1.94372e-09)
(0.20643 2.89055e-09 4.85183e-10)
(0.206429 -5.26221e-09 1.45805e-09)
(0.191943 1.614e-09 -1.89662e-09)
(0.191942 3.7635e-09 6.84254e-10)
(0.191943 -5.37933e-09 1.2122e-09)
(0.169402 -1.29755e-09 -1.83081e-09)
(0.169403 2.19073e-09 8.00845e-10)
(0.169402 -8.94091e-10 1.02938e-09)
(0.120923 -2.31341e-09 -1.34604e-09)
(0.120922 8.3719e-10 9.32836e-10)
(0.120923 1.47796e-09 4.13427e-10)
(0.12953 2.1824e-09 -1.61834e-09)
(0.129529 -9.05295e-10 1.09179e-09)
(0.12953 -1.31516e-09 5.16772e-10)
(0.177941 1.29845e-09 -2.03673e-09)
(0.177942 -1.76632e-09 1.01783e-09)
(0.177941 4.80366e-10 1.01353e-09)
(0.201167 -1.21547e-09 -2.0933e-09)
(0.201167 -3.07702e-09 8.64641e-10)
(0.201167 4.35854e-09 1.222e-09)
(0.216352 -1.53377e-09 -2.17739e-09)
(0.216352 -2.66696e-09 6.13417e-10)
(0.216352 4.26201e-09 1.56444e-09)
(0.227506 -3.83712e-10 -1.88103e-09)
(0.227506 -3.42706e-09 3.66489e-10)
(0.227506 3.8751e-09 1.51636e-09)
(0.236262 1.73141e-09 -1.44718e-09)
(0.236262 -4.01044e-09 -6.52233e-11)
(0.236262 2.32857e-09 1.51425e-09)
(0.243513 3.02062e-09 -1.06679e-09)
(0.243513 -3.96698e-09 -4.41416e-10)
(0.243513 9.90915e-10 1.5094e-09)
(0.249822 2.52729e-09 -7.855e-10)
(0.249822 -2.29615e-09 -6.93229e-10)
(0.249822 -1.9293e-10 1.47941e-09)
(0.255537 9.99496e-10 -5.40534e-10)
(0.255537 -2.3007e-10 -5.97408e-10)
(0.255537 -7.36838e-10 1.1387e-09)
(0.260824 9.92474e-10 -1.75169e-10)
(0.260824 -5.26602e-10 -2.31907e-10)
(0.260824 -4.4032e-10 4.08662e-10)
(0.265677 3.05097e-09 4.81904e-11)
(0.265677 -2.07675e-09 1.27052e-10)
(0.265677 -9.69689e-10 -1.74225e-10)
(0.269947 5.01191e-09 1.91034e-10)
(0.269947 -3.03215e-09 3.95974e-10)
(0.269947 -1.97409e-09 -5.86722e-10)
(0.273412 4.88943e-09 3.69736e-10)
(0.273411 -2.82723e-09 8.27295e-10)
(0.273411 -2.06584e-09 -1.19613e-09)
(0.275878 3.38598e-09 3.43389e-10)
(0.275878 -1.7046e-09 1.26224e-09)
(0.275878 -1.68817e-09 -1.60596e-09)
(0.277219 1.0244e-09 2.57973e-10)
(0.277219 -4.24173e-10 1.56008e-09)
(0.277219 -5.96165e-10 -1.8181e-09)
(0.277219 -1.46075e-09 2.57758e-10)
(0.277218 7.61006e-10 1.56042e-09)
(0.277218 6.97201e-10 -1.81869e-09)
(0.275876 -3.87629e-09 3.44444e-10)
(0.275876 2.0852e-09 1.25128e-09)
(0.275876 1.80405e-09 -1.59582e-09)
(0.273408 -5.44787e-09 3.64112e-10)
(0.273408 3.19851e-09 8.23305e-10)
(0.273408 2.25442e-09 -1.18731e-09)
(0.269943 -5.55723e-09 1.82288e-10)
(0.269942 3.3699e-09 4.06305e-10)
(0.269942 2.19547e-09 -5.88693e-10)
(0.265672 -3.48521e-09 4.38282e-11)
(0.265672 2.24492e-09 1.49609e-10)
(0.265672 1.24886e-09 -1.92838e-10)
(0.26082 -1.33576e-09 -1.86315e-10)
(0.26082 4.67505e-10 -2.09037e-10)
(0.26082 8.64864e-10 3.96025e-10)
(0.255532 -1.24831e-09 -5.48349e-10)
(0.255532 2.99918e-11 -5.70934e-10)
(0.255532 1.21114e-09 1.11955e-09)
(0.249817 -2.68277e-09 -7.9842e-10)
(0.249817 2.19243e-09 -6.69411e-10)
(0.249817 4.83864e-10 1.46781e-09)
(0.243507 -2.94379e-09 -1.09576e-09)
(0.243507 3.94468e-09 -3.9111e-10)
(0.243507 -1.00872e-09 1.48678e-09)
(0.236255 -1.27392e-09 -1.51133e-09)
(0.236255 3.92168e-09 -1.70513e-11)
(0.236255 -2.65354e-09 1.52822e-09)
(0.227499 1.12382e-09 -1.97834e-09)
(0.227499 3.44934e-09 4.10042e-10)
(0.227499 -4.57972e-09 1.56797e-09)
(0.216344 2.14518e-09 -2.26174e-09)
(0.216345 3.00433e-09 6.14004e-10)
(0.216344 -5.15242e-09 1.64712e-09)
(0.20116 1.43173e-09 -2.16592e-09)
(0.20116 3.78999e-09 8.7672e-10)
(0.20116 -5.22368e-09 1.28899e-09)
(0.177935 -1.36337e-09 -2.10695e-09)
(0.177936 2.21524e-09 1.04778e-09)
(0.177935 -8.52843e-10 1.05846e-09)
(0.129526 -2.3119e-09 -1.71447e-09)
(0.129525 9.56046e-10 1.16953e-09)
(0.129526 1.35757e-09 5.45228e-10)
(0.139405 2.10507e-09 -2.0732e-09)
(0.139405 -1.02284e-09 1.36398e-09)
(0.139405 -1.13512e-09 7.01639e-10)
(0.187148 1.3414e-09 -2.29671e-09)
(0.187149 -1.77189e-09 1.29848e-09)
(0.187148 4.29407e-10 9.88296e-10)
(0.210806 -9.82946e-10 -2.33455e-09)
(0.210806 -3.10078e-09 1.08315e-09)
(0.210805 4.14162e-09 1.24255e-09)
(0.226722 -1.22938e-09 -2.49376e-09)
(0.226722 -2.78622e-09 7.63865e-10)
(0.226721 4.07213e-09 1.7303e-09)
(0.238444 -8.22355e-11 -2.18093e-09)
(0.238444 -3.58843e-09 4.6419e-10)
(0.238444 3.7326e-09 1.71892e-09)
(0.247608 1.98558e-09 -1.69177e-09)
(0.247608 -4.16803e-09 -6.48092e-11)
(0.247608 2.23077e-09 1.75889e-09)
(0.255154 3.24062e-09 -1.2452e-09)
(0.255154 -4.10428e-09 -5.25663e-10)
(0.255154 9.07579e-10 1.77234e-09)
(0.261683 2.68471e-09 -9.22976e-10)
(0.261683 -2.36136e-09 -8.32121e-10)
(0.261683 -2.85788e-10 1.75598e-09)
(0.267572 1.11629e-09 -6.59775e-10)
(0.267572 -2.29669e-10 -7.07687e-10)
(0.267572 -8.54827e-10 1.36845e-09)
(0.273005 1.10015e-09 -2.54595e-10)
(0.273005 -5.16359e-10 -2.55924e-10)
(0.273005 -5.58633e-10 5.12553e-10)
(0.277984 3.11352e-09 8.15213e-12)
(0.277984 -2.05852e-09 1.84067e-10)
(0.277984 -1.05089e-09 -1.90945e-10)
(0.28236 5.07631e-09 1.96048e-10)
(0.28236 -3.03818e-09 4.86944e-10)
(0.28236 -2.03284e-09 -6.82666e-10)
(0.285911 4.94038e-09 4.23123e-10)
(0.28591 -2.82753e-09 9.83976e-10)
(0.28591 -2.11571e-09 -1.40605e-09)
(0.288437 3.42749e-09 3.98125e-10)
(0.288437 -1.69774e-09 1.49734e-09)
(0.288437 -1.73436e-09 -1.89589e-09)
(0.289811 1.03702e-09 2.95462e-10)
(0.289811 -4.1257e-10 1.85838e-09)
(0.289811 -6.18562e-10 -2.1539e-09)
(0.28981 -1.48295e-09 2.95271e-10)
(0.28981 7.63998e-10 1.85876e-09)
(0.28981 7.16469e-10 -2.15462e-09)
(0.288435 -3.92744e-09 3.98943e-10)
(0.288435 2.09314e-09 1.48493e-09)
(0.288435 1.84737e-09 -1.884e-09)
(0.285907 -5.50889e-09 4.17062e-10)
(0.285907 3.21387e-09 9.79378e-10)
(0.285907 2.30006e-09 -1.3963e-09)
(0.282356 -5.631e-09 1.86269e-10)
(0.282356 3.39148e-09 5.00194e-10)
(0.282356 2.2478e-09 -6.86606e-10)
(0.277979 -3.55958e-09 3.81106e-12)
(0.277979 2.23629e-09 2.11315e-10)
(0.277979 1.33214e-09 -2.14331e-10)
(0.273 -1.45209e-09 -2.67868e-10)
(0.273 4.62808e-10 -2.26745e-10)
(0.273 9.8611e-10 4.9551e-10)
(0.267567 -1.36875e-09 -6.68974e-10)
(0.267567 3.17482e-11 -6.76562e-10)
(0.267567 1.3299e-09 1.34587e-09)
(0.261678 -2.84345e-09 -9.37622e-10)
(0.261678 2.258e-09 -8.06269e-10)
(0.261678 5.79065e-10 1.74389e-09)
(0.255148 -3.16644e-09 -1.27999e-09)
(0.255148 4.08237e-09 -4.69172e-10)
(0.255148 -9.2379e-10 1.74906e-09)
(0.247601 -1.5314e-09 -1.77088e-09)
(0.247601 4.08611e-09 -9.79832e-12)
(0.247601 -2.56051e-09 1.78054e-09)
(0.238437 8.14767e-10 -2.29515e-09)
(0.238437 3.61187e-09 5.13528e-10)
(0.238437 -4.43328e-09 1.78121e-09)
(0.226714 1.831e-09 -2.585e-09)
(0.226714 3.11904e-09 7.62447e-10)
(0.226714 -4.95302e-09 1.82178e-09)
(0.210799 1.2e-09 -2.41293e-09)
(0.210799 3.79133e-09 1.10599e-09)
(0.210798 -4.99343e-09 1.30667e-09)
(0.187142 -1.40674e-09 -2.37705e-09)
(0.187142 2.21147e-09 1.35322e-09)
(0.187142 -8.05787e-10 1.02291e-09)
(0.139401 -2.24429e-09 -2.19774e-09)
(0.139401 1.08192e-09 1.46242e-09)
(0.139401 1.16405e-09 7.35671e-10)
(0.150338 1.91274e-09 -2.57875e-09)
(0.150339 -1.1239e-09 1.63748e-09)
(0.150338 -8.48842e-10 9.37807e-10)
(0.194441 1.27649e-09 -2.47275e-09)
(0.194442 -1.75829e-09 1.56182e-09)
(0.194441 4.66869e-10 8.95637e-10)
(0.218723 -6.96575e-10 -2.47113e-09)
(0.218723 -3.04221e-09 1.27944e-09)
(0.218723 3.78527e-09 1.18014e-09)
(0.235342 -8.597e-10 -2.70124e-09)
(0.235343 -2.90843e-09 8.94069e-10)
(0.235342 3.81853e-09 1.80688e-09)
(0.247644 2.62524e-10 -2.40527e-09)