/*--------------------------------*- C++ -*----------------------------------*\
  =========                 |
  \\      /  F ield         | OpenFOAM: The Open Source CFD Toolbox
   \\    /   O peration     | Website:  https://openfoam.org
    \\  /    A nd           | Version:  6
     \\/     M anipulation  |
\*---------------------------------------------------------------------------*/
FoamFile
{
    version     2.0;
    format      ascii;
    class       volScalarField;
    location    "12";
    object      p;
}
// * * * * * * * * * * * * * * * * * * * * * * * * * * * * * * * * * * * * * //

dimensions      [0 2 -2 0 0 0 0];

internalField   nonuniform List<scalar> 
380496
(
0.0141218
0.0145957
0.0141959
0.0140953
0.0139839
0.0138696
0.0137612
0.0136526
0.0135444
0.0134373
0.0133313
0.0132266
0.0131233
0.0130215
0.012921
0.0128217
0.0127233
0.0126254
0.0125277
0.0124297
0.0123308
0.0122306
0.0121283
0.0120232
0.0119149
0.0118025
0.0116854
0.0115627
0.0114343
0.0112988
0.0111577
0.0110071
0.0108566
0.0106876
0.0105484
0.0140975
0.0145642
0.0141765
0.0140801
0.013972
0.0138593
0.0137511
0.0136416
0.0135316
0.013422
0.0133128
0.0132043
0.0130968
0.0129902
0.0128844
0.0127793
0.0126745
0.0125698
0.0124648
0.012359
0.0122519
0.0121431
0.0120319
0.0119178
0.0118003
0.0116784
0.0115521
0.0114201
0.0112829
0.011138
0.0109885
0.0108266
0.0106672
0.0104741
0.0103246
0.0140699
0.0145317
0.0141552
0.0140637
0.0139586
0.0138472
0.0137385
0.0136273
0.0135148
0.0134017
0.0132885
0.0131755
0.0130628
0.0129504
0.0128383
0.0127263
0.0126141
0.0125014
0.0123878
0.0122728
0.0121561
0.012037
0.0119151
0.0117898
0.0116608
0.0115271
0.0113888
0.0112447
0.0110956
0.010939
0.0107789
0.0106062
0.0104404
0.010239
0.010093
0.0140343
0.0144963
0.0141336
0.0140486
0.0139476
0.0138381
0.0137295
0.0136172
0.0135025
0.0133867
0.0132701
0.0131532
0.0130361
0.0129189
0.0128015
0.0126838
0.0125654
0.0124461
0.0123254
0.0122031
0.0120786
0.0119514
0.0118213
0.0116876
0.01155
0.0114079
0.0112611
0.0111088
0.0109516
0.0107871
0.0106196
0.0104388
0.0102663
0.0100545
0.00990283
0.014002
0.0144586
0.0141123
0.0140343
0.0139375
0.0138297
0.0137207
0.0136068
0.0134896
0.0133706
0.0132503
0.0131291
0.0130073
0.012885
0.012762
0.0126383
0.0125135
0.0123873
0.0122594
0.0121294
0.011997
0.0118615
0.0117229
0.0115804
0.011434
0.0112829
0.0111274
0.0109663
0.0108008
0.0106281
0.0104534
0.0102656
0.0100881
0.00987076
0.00971873
0.0139564
0.0144183
0.0140909
0.0140215
0.0139296
0.0138238
0.0137146
0.0135992
0.0134797
0.0133577
0.0132339
0.0131089
0.0129829
0.012856
0.0127281
0.012599
0.0124686
0.0123364
0.0122022
0.0120656
0.0119264
0.011784
0.0116382
0.0114886
0.011335
0.0111768
0.0110143
0.0108466
0.0106747
0.010496
0.0103158
0.0101226
0.00994077
0.00971815
0.00956368
0.0139081
0.0143759
0.01407
0.0140105
0.0139239
0.0138198
0.0137101
0.0135929
0.0134708
0.0133456
0.0132182
0.0130893
0.012959
0.0128275
0.0126947
0.0125604
0.0124245
0.0122865
0.0121462
0.0120033
0.0118576
0.0117085
0.0115559
0.0113995
0.0112391
0.0110742
0.0109052
0.0107312
0.0105534
0.0103691
0.010184
0.00998624
0.00980123
0.0095751
0.00942032
0.0138498
0.0143327
0.0140512
0.0140025
0.0139214
0.0138186
0.0137081
0.0135889
0.0134642
0.0133359
0.0132051
0.0130725
0.0129383
0.0128026
0.0126654
0.0125264
0.0123855
0.0122424
0.0120968
0.0119483
0.0117969
0.011642
0.0114836
0.0113214
0.0111553
0.0109849
0.0108106
0.0106315
0.0104491
0.0102605
0.0100717
0.00987043
0.00968307
0.00945395
0.00929893
0.0137801
0.0142896
0.014034
0.0139975
0.0139221
0.0138203
0.0137087
0.0135873
0.0134597
0.0133284
0.0131944
0.0130583
0.0129205
0.0127811
0.0126399
0.0124968
0.0123516
0.0122039
0.0120536
0.0119004
0.0117441
0.0115843
0.0114209
0.0112538
0.0110829
0.0109079
0.0107291
0.0105459
0.0103596
0.0101676
0.00997586
0.00977187
0.00958293
0.00935156
0.00919704
0.0137102
0.0142545
0.0140225
0.0139972
0.0139262
0.0138243
0.0137111
0.0135874
0.0134572
0.0133231
0.0131862
0.0130472
0.0129063
0.0127637
0.0126192
0.0124727
0.0123239
0.0121726
0.0120185
0.0118614
0.0117011
0.0115373
0.0113701
0.0111991
0.0110244
0.0108458
0.0106636
0.0104772
0.0102882
0.0100936
0.00989983
0.00969388
0.00950402
0.00927083
0.00911716
0.0136185
0.0142195
0.0140117
0.0139995
0.0139331
0.0138306
0.0137155
0.0135893
0.0134563
0.0133194
0.0131797
0.013038
0.0128943
0.0127488
0.0126014
0.0124518
0.0122998
0.0121453
0.0119878
0.0118273
0.0116636
0.0114964
0.0113257
0.0111514
0.0109735
0.0107919
0.0106069
0.0104179
0.0102265
0.0100299
0.0098346
0.00962712
0.00943681
0.00920211
0.00904991
0.0135251
0.0141957
0.0140074
0.0140071
0.0139433
0.0138389
0.0137212
0.0135922
0.0134565
0.013317
0.0131747
0.0130305
0.0128843
0.0127363
0.0125863
0.0124341
0.0122794
0.0121221
0.0119618
0.0117984
0.0116318
0.0114618
0.0112882
0.0111112
0.0109307
0.0107466
0.0105593
0.0103683
0.0101751
0.00997696
0.00978054
0.00957195
0.00938154
0.00914549
0.00899515
0.013401
0.0141763
0.0140046
0.014018
0.0139565
0.0138494
0.0137288
0.0135967
0.0134581
0.013316
0.0131713
0.0130247
0.0128763
0.0127261
0.0125738
0.0124192
0.0122622
0.0121025
0.0119398
0.011774
0.0116049
0.0114325
0.0112565
0.0110772
0.0108945
0.0107084
0.0105193
0.0103266
0.0101321
0.00993277
0.00973559
0.00952626
0.0093361
0.00909907
0.00895117
0.0132712
0.014173
0.0140082
0.0140336
0.0139718
0.0138606
0.0137367
0.0136015
0.0134601
0.0133156
0.0131688
0.0130201
0.0128698
0.0127176
0.0125634
0.0124069
0.0122479
0.0120862
0.0119215
0.0117537
0.0115825
0.0114081
0.0112303
0.0110491
0.0108647
0.0106769
0.0104863
0.0102925
0.0100969
0.00989675
0.00969906
0.00948926
0.00929937
0.00906152
0.00891587
0.0131089
0.014182
0.0140154
0.0140542
0.0139906
0.0138743
0.0137464
0.0136076
0.0134634
0.0133165
0.0131676
0.0130171
0.012865
0.0127112
0.0125553
0.0123972
0.0122365
0.0120732
0.0119068
0.0117373
0.0115646
0.0113885
0.0112091
0.0110265
0.0108406
0.0106516
0.0104599
0.0102651
0.0100688
0.00986812
0.00967017
0.00946035
0.00927095
0.00903337
0.00889017
0.0129281
0.0142109
0.014027
0.0140769
0.0140087
0.0138867
0.0137549
0.013613
0.0134662
0.0133173
0.0131667
0.0130147
0.0128612
0.012706
0.0125488
0.0123894
0.0122275
0.0120628
0.0118951
0.0117243
0.0115503
0.011373
0.0111924
0.0110086
0.0108216
0.0106317
0.0104391
0.0102436
0.0100467
0.00984579
0.00964763
0.00943797
0.00924833
0.00901109
0.00886742
0.0127248
0.0142598
0.0140453
0.0141067
0.0140313
0.013902
0.0137655
0.01362
0.0134707
0.0133197
0.0131676
0.0130142
0.0128595
0.0127031
0.0125449
0.0123844
0.0122214
0.0120556
0.0118869
0.0117151
0.0115401
0.0113618
0.0111803
0.0109956
0.0108079
0.0106172
0.010424
0.010228
0.0100309
0.0098299
0.0096318
0.00942292
0.0092336
0.00899951
0.00885598
0.012485
0.0143316
0.0140627
0.0141326
0.0140487
0.0139134
0.0137734
0.0136252
0.013474
0.0133216
0.0131682
0.0130138
0.0128583
0.0127011
0.0125421
0.0123808
0.0122171
0.0120505
0.0118811
0.0117085
0.0115328
0.0113538
0.0111717
0.0109863
0.0107981
0.0106068
0.0104134
0.010217
0.0100197
0.00981876
0.00962055
0.00941241
0.0092214
0.00898926
0.00883539
0.0122409
0.0144195
0.0140909
0.0141692
0.0140734
0.0139303
0.0137855
0.013634
0.0134805
0.0133265
0.0131719
0.0130165
0.01286
0.0127021
0.0125424
0.0123805
0.0122162
0.012049
0.0118791
0.0117059
0.0115298
0.0113502
0.0111677
0.0109819
0.0107934
0.0106017
0.0104081
0.0102116
0.0100143
0.00981347
0.00961566
0.0094089
0.00921916
0.00899424
0.00884216
0.011975
0.0145227
0.0141142
0.0141979
0.0140911
0.0139425
0.0137945
0.0136408
0.0134858
0.0133306
0.0131752
0.0130191
0.012862
0.0127036
0.0125434
0.0123811
0.0122164
0.0120488
0.0118786
0.0117051
0.0115286
0.0113488
0.0111661
0.0109799
0.0107913
0.0105994
0.0104058
0.0102091
0.0100119
0.00981118
0.00961335
0.00940762
0.00921479
0.00899323
0.00880915
0.0117241
0.0146306
0.0141603
0.0142419
0.0141202
0.0139631
0.0138097
0.0136523
0.0134948
0.0133379
0.0131812
0.0130241
0.0128664
0.0127074
0.0125468
0.0123841
0.0122191
0.0120514
0.0118809
0.0117072
0.0115307
0.0113507
0.011168
0.0109818
0.0107931
0.0106013
0.0104077
0.010211
0.010014
0.00981343
0.00961626
0.00941138
0.00922373
0.00900942
0.00887252
0.0141249
0.0145886
0.014196
0.0140956
0.0139841
0.0138696
0.0137612
0.0136526
0.0135444
0.0134373
0.0133312
0.0132265
0.0131233
0.0130215
0.012921
0.0128217
0.0127233
0.0126254
0.0125277
0.0124297
0.0123309
0.0122306
0.0121283
0.0120233
0.0119149
0.0118025
0.0116854
0.0115627
0.0114344
0.0112988
0.0111578
0.0110071
0.0108567
0.0106878
0.0105485
0.0141004
0.0145572
0.0141765
0.0140805
0.0139721
0.0138594
0.0137511
0.0136416
0.0135316
0.013422
0.0133128
0.0132043
0.0130968
0.0129902
0.0128844
0.0127793
0.0126745
0.0125698
0.0124648
0.012359
0.012252
0.0121431
0.012032
0.0119178
0.0118003
0.0116785
0.0115522
0.0114202
0.0112829
0.0111381
0.0109886
0.0108267
0.0106674
0.0104742
0.0103247
0.0140727
0.0145248
0.0141552
0.014064
0.0139587
0.0138472
0.0137385
0.0136273
0.0135148
0.0134017
0.0132885
0.0131755
0.0130628
0.0129504
0.0128383
0.0127263
0.0126141
0.0125014
0.0123878
0.0122728
0.0121561
0.012037
0.0119152
0.0117899
0.0116608
0.0115272
0.0113889
0.0112448
0.0110957
0.010939
0.0107789
0.0106062
0.0104405
0.0102391
0.0100931
0.0140372
0.0144896
0.0141337
0.0140489
0.0139477
0.0138382
0.0137295
0.0136172
0.0135025
0.0133867
0.0132701
0.0131532
0.0130361
0.0129189
0.0128015
0.0126838
0.0125654
0.0124461
0.0123255
0.0122031
0.0120786
0.0119515
0.0118214
0.0116877
0.0115501
0.0114079
0.0112612
0.0111088
0.0109517
0.0107872
0.0106197
0.0104389
0.0102665
0.0100546
0.00990293
0.0140045
0.014452
0.0141124
0.0140347
0.0139376
0.0138297
0.0137207
0.0136068
0.0134896
0.0133706
0.0132503
0.0131291
0.0130073
0.012885
0.012762
0.0126383
0.0125135
0.0123873
0.0122594
0.0121294
0.011997
0.0118616
0.0117229
0.0115805
0.0114341
0.011283
0.0111274
0.0109664
0.0108009
0.0106282
0.0104535
0.0102657
0.0100882
0.00987088
0.00971882
0.0139589
0.0144118
0.0140909
0.0140218
0.0139297
0.0138238
0.0137146
0.0135992
0.0134797
0.0133577
0.0132339
0.0131089
0.0129829
0.012856
0.0127281
0.012599
0.0124686
0.0123364
0.0122022
0.0120657
0.0119264
0.011784
0.0116382
0.0114886
0.011335
0.0111769
0.0110144
0.0108467
0.0106748
0.0104961
0.0103159
0.0101227
0.00994089
0.00971829
0.00956378
0.0139105
0.0143697
0.0140701
0.0140108
0.013924
0.0138198
0.0137101
0.0135929
0.0134708
0.0133456
0.0132182
0.0130893
0.012959
0.0128275
0.0126947
0.0125605
0.0124245
0.0122865
0.0121463
0.0120034
0.0118576
0.0117085
0.011556
0.0113995
0.0112391
0.0110743
0.0109053
0.0107312
0.0105535
0.0103692
0.0101841
0.00998635
0.00980135
0.00957523
0.00942041
0.013852
0.0143266
0.0140513
0.0140028
0.0139215
0.0138187
0.0137081
0.0135889
0.0134642
0.0133359
0.0132051
0.0130725
0.0129383
0.0128026
0.0126654
0.0125265
0.0123855
0.0122424
0.0120968
0.0119484
0.0117969
0.0116421
0.0114837
0.0113215
0.0111554
0.010985
0.0108107
0.0106316
0.0104492
0.0102606
0.0100718
0.00987055
0.00968319
0.00945409
0.00929903
0.0137822
0.0142837
0.014034
0.0139977
0.0139222
0.0138203
0.0137086
0.0135873
0.0134597
0.0133284
0.0131944
0.0130583
0.0129205
0.0127811
0.0126399
0.0124968
0.0123516
0.012204
0.0120537
0.0119005
0.0117441
0.0115843
0.011421
0.0112539
0.011083
0.0109079
0.0107292
0.010546
0.0103597
0.0101677
0.00997597
0.00977199
0.00958305
0.00935171
0.00919713
0.0137121
0.0142489
0.0140225
0.0139974
0.0139263
0.0138243
0.0137111
0.0135874
0.0134572
0.0133231
0.0131862
0.0130472
0.0129063
0.0127637
0.0126193
0.0124728
0.0123239
0.0121726
0.0120185
0.0118614
0.0117011
0.0115374
0.0113701
0.0111991
0.0110244
0.0108458
0.0106637
0.0104773
0.0102883
0.0100937
0.00989994
0.009694
0.00950415
0.00927098
0.00911724
0.0136203
0.014214
0.0140118
0.0139998
0.0139332
0.0138306
0.0137155
0.0135892
0.0134563
0.0133194
0.0131797
0.013038
0.0128943
0.0127488
0.0126014
0.0124518
0.0122998
0.0121453
0.0119878
0.0118274
0.0116636
0.0114965
0.0113258
0.0111515
0.0109736
0.0107919
0.0106069
0.010418
0.0102266
0.01003
0.00983471
0.00962725
0.00943694
0.00920226
0.00904998
0.0135266
0.0141905
0.0140074
0.0140073
0.0139434
0.0138389
0.0137212
0.0135922
0.0134565
0.013317
0.0131747
0.0130305
0.0128843
0.0127363
0.0125863
0.0124341
0.0122794
0.0121221
0.0119618
0.0117985
0.0116318
0.0114618
0.0112883
0.0111113
0.0109307
0.0107466
0.0105593
0.0103684
0.0101752
0.00997707
0.00978065
0.00957207
0.00938167
0.00914565
0.00899522
0.0134025
0.0141713
0.0140047
0.0140182
0.0139566
0.0138494
0.0137288
0.0135967
0.0134581
0.013316
0.0131713
0.0130247
0.0128763
0.0127261
0.0125738
0.0124193
0.0122622
0.0121025
0.0119398
0.011774
0.0116049
0.0114325
0.0112566
0.0110773
0.0108946
0.0107085
0.0105193
0.0103267
0.0101322
0.00993288
0.00973571
0.00952638
0.00933623
0.00909923
0.00895123
0.0132724
0.0141683
0.0140082
0.0140338
0.0139718
0.0138606
0.0137367
0.0136014
0.0134601
0.0133156
0.0131687
0.0130201
0.0128697
0.0127176
0.0125634
0.0124069
0.0122479
0.0120862
0.0119215
0.0117537
0.0115826
0.0114082
0.0112303
0.0110492
0.0108647
0.010677
0.0104864
0.0102926
0.010097
0.00989687
0.00969918
0.00948939
0.0092995
0.00906169
0.00891593
0.01311
0.0141776
0.0140154
0.0140543
0.0139906
0.0138742
0.0137463
0.0136076
0.0134634
0.0133165
0.0131676
0.0130171
0.012865
0.0127112
0.0125553
0.0123972
0.0122366
0.0120732
0.0119068
0.0117374
0.0115646
0.0113886
0.0112092
0.0110266
0.0108407
0.0106517
0.01046
0.0102652
0.0100689
0.00986825
0.0096703
0.0094605
0.00927109
0.00903355
0.00889024
0.012929
0.0142068
0.014027
0.0140769
0.0140087
0.0138866
0.0137548
0.0136129
0.0134662
0.0133173
0.0131667
0.0130147
0.0128612
0.012706
0.0125489
0.0123894
0.0122275
0.0120628
0.0118951
0.0117244
0.0115503
0.011373
0.0111925
0.0110086
0.0108217
0.0106318
0.0104392
0.0102437
0.0100469
0.00984594
0.00964778
0.00943813
0.00924849
0.00901129
0.0088675
0.0127254
0.0142561
0.0140451
0.0141067
0.0140312
0.0139018
0.0137654
0.0136199
0.0134706
0.0133197
0.0131676
0.0130142
0.0128595
0.0127031
0.0125449
0.0123844
0.0122214
0.0120557
0.011887
0.0117152
0.0115402
0.0113619
0.0111804
0.0109957
0.010808
0.0106173
0.0104242
0.0102282
0.0100311
0.00983007
0.00963198
0.00942311
0.0092338
0.00899975
0.00885611
0.0124857
0.0143282
0.0140625
0.0141325
0.0140486
0.0139133
0.0137733
0.0136252
0.013474
0.0133216
0.0131683
0.0130139
0.0128584
0.0127012
0.0125422
0.0123809
0.0122172
0.0120506
0.0118812
0.0117087
0.011533
0.0113539
0.0111718
0.0109864
0.0107982
0.010607
0.0104135
0.0102172
0.0100199
0.00981895
0.00962074
0.00941261
0.00922161
0.0089895
0.00883552
0.0122399
0.0144169
0.0140907
0.0141691
0.0140734
0.0139304
0.0137856
0.0136341
0.0134807
0.0133266
0.0131721
0.0130166
0.0128602
0.0127022
0.0125425
0.0123806
0.0122163
0.0120492
0.0118792
0.0117061
0.0115299
0.0113504
0.0111678
0.010982
0.0107935
0.0106019
0.0104083
0.0102117
0.0100145
0.00981364
0.00961584
0.00940908
0.00921936
0.00899445
0.00884236
0.0119723
0.0145218
0.0141143
0.0141983
0.0140915
0.0139428
0.0137947
0.0136409
0.0134859
0.0133308
0.0131753
0.0130192
0.0128621
0.0127036
0.0125435
0.0123811
0.0122164
0.0120489
0.0118786
0.0117051
0.0115287
0.0113488
0.0111661
0.01098
0.0107913
0.0105995
0.0104058
0.0102091
0.010012
0.00981123
0.00961341
0.00940766
0.00921486
0.00899324
0.00880921
0.0117384
0.0146339
0.0141598
0.0142409
0.014119
0.013962
0.0138087
0.0136514
0.0134941
0.0133373
0.0131806
0.0130236
0.0128659
0.0127069
0.0125464
0.0123837
0.0122187
0.012051
0.0118805
0.0117069
0.0115303
0.0113504
0.0111676
0.0109814
0.0107928
0.0106009
0.0104073
0.0102107
0.0100136
0.00981304
0.00961586
0.00941097
0.00922332
0.00900898
0.00887188
0.0141334
0.0145832
0.0141958
0.0140957
0.0139841
0.0138696
0.0137612
0.0136526
0.0135444
0.0134373
0.0133312
0.0132265
0.0131233
0.0130215
0.012921
0.0128217
0.0127233
0.0126254
0.0125277
0.0124297
0.0123309
0.0122306
0.0121283
0.0120233
0.0119149
0.0118025
0.0116854
0.0115627
0.0114344
0.0112988
0.0111578
0.0110071
0.0108567
0.0106878
0.0105486
0.0141087
0.0145519
0.0141764
0.0140805
0.0139722
0.0138594
0.0137511
0.0136416
0.0135317
0.013422
0.0133128
0.0132043
0.0130968
0.0129902
0.0128844
0.0127793
0.0126745
0.0125698
0.0124648
0.012359
0.012252
0.0121431
0.012032
0.0119179
0.0118003
0.0116785
0.0115522
0.0114202
0.011283
0.0111382
0.0109887
0.0108267
0.0106674
0.0104743
0.0103248
0.0140808
0.0145196
0.0141551
0.0140641
0.0139587
0.0138472
0.0137385
0.0136273
0.0135148
0.0134017
0.0132885
0.0131755
0.0130628
0.0129504
0.0128383
0.0127263
0.0126141
0.0125014
0.0123878
0.0122728
0.0121561
0.012037
0.0119152
0.0117899
0.0116608
0.0115272
0.0113889
0.0112448
0.0110957
0.010939
0.0107789
0.0106062
0.0104405
0.0102391
0.0100932
0.0140452
0.0144844
0.0141336
0.014049
0.0139478
0.0138382
0.0137295
0.0136172
0.0135025
0.0133867
0.0132701
0.0131532
0.0130361
0.0129189
0.0128016
0.0126838
0.0125654
0.0124461
0.0123255
0.0122031
0.0120786
0.0119515
0.0118214
0.0116877
0.0115501
0.011408
0.0112612
0.0111089
0.0109518
0.0107872
0.0106198
0.010439
0.0102665
0.0100547
0.00990303
0.0140123
0.014447
0.0141123
0.0140347
0.0139376
0.0138297
0.0137207
0.0136068
0.0134896
0.0133706
0.0132502
0.0131291
0.0130073
0.012885
0.012762
0.0126383
0.0125135
0.0123873
0.0122594
0.0121294
0.011997
0.0118616
0.0117229
0.0115805
0.0114341
0.011283
0.0111275
0.0109664
0.0108009
0.0106283
0.0104535
0.0102657
0.0100882
0.00987092
0.0097189
0.0139666
0.0144069
0.0140908
0.0140219
0.0139298
0.0138238
0.0137146
0.0135992
0.0134797
0.0133577
0.0132339
0.0131089
0.0129829
0.012856
0.0127281
0.012599
0.0124686
0.0123364
0.0122023
0.0120657
0.0119264
0.011784
0.0116383
0.0114886
0.0113351
0.0111769
0.0110145
0.0108467
0.0106749
0.0104962
0.010316
0.0101227
0.00994096
0.00971834
0.00956389
0.013918
0.0143649
0.01407
0.0140108
0.013924
0.0138198
0.0137101
0.0135929
0.0134708
0.0133456
0.0132182
0.0130893
0.012959
0.0128275
0.0126947
0.0125605
0.0124245
0.0122865
0.0121463
0.0120034
0.0118576
0.0117085
0.011556
0.0113995
0.0112391
0.0110743
0.0109053
0.0107313
0.0105535
0.0103693
0.0101842
0.00998639
0.0098014
0.00957528
0.00942051
0.0138593
0.014322
0.0140512
0.0140028
0.0139216
0.0138187
0.0137081
0.0135889
0.0134642
0.0133359
0.0132051
0.0130725
0.0129383
0.0128026
0.0126654
0.0125265
0.0123856
0.0122424
0.0120968
0.0119484
0.0117969
0.0116421
0.0114837
0.0113215
0.0111554
0.010985
0.0108107
0.0106317
0.0104492
0.0102607
0.0100719
0.00987061
0.00968326
0.00945415
0.00929914
0.0137894
0.0142792
0.0140339
0.0139978
0.0139222
0.0138203
0.0137086
0.0135873
0.0134597
0.0133284
0.0131943
0.0130583
0.0129205
0.0127811
0.0126399
0.0124968
0.0123516
0.012204
0.0120537
0.0119005
0.0117441
0.0115843
0.011421
0.0112539
0.011083
0.010908
0.0107292
0.010546
0.0103598
0.0101677
0.00997602
0.00977204
0.00958311
0.00935176
0.00919724
0.013719
0.0142445
0.0140225
0.0139975
0.0139263
0.0138243
0.0137111
0.0135874
0.0134572
0.0133231
0.0131861
0.0130472
0.0129063
0.0127637
0.0126193
0.0124728
0.0123239
0.0121726
0.0120185
0.0118615
0.0117011
0.0115374
0.0113701
0.0111991
0.0110245
0.0108459
0.0106637
0.0104774
0.0102883
0.0100937
0.0099
0.00969406
0.00950421
0.00927104
0.00911735
0.0136271
0.0142097
0.0140117
0.0139998
0.0139332
0.0138306
0.0137155
0.0135892
0.0134563
0.0133194
0.0131797
0.013038
0.0128943
0.0127488
0.0126014
0.0124518
0.0122998
0.0121453
0.0119878
0.0118274
0.0116636
0.0114965
0.0113258
0.0111515
0.0109736
0.010792
0.010607
0.010418
0.0102267
0.0100301
0.00983476
0.0096273
0.009437
0.00920232
0.00905009
0.0135331
0.0141864
0.0140074
0.0140073
0.0139434
0.0138389
0.0137212
0.0135922
0.0134564
0.0133169
0.0131747
0.0130305
0.0128843
0.0127363
0.0125863
0.0124341
0.0122794
0.0121221
0.0119618
0.0117985
0.0116318
0.0114618
0.0112883
0.0111113
0.0109307
0.0107467
0.0105594
0.0103684
0.0101753
0.00997712
0.0097807
0.00957213
0.00938173
0.0091457
0.00899534
0.0134089
0.0141674
0.0140046
0.0140183
0.0139566
0.0138493
0.0137288
0.0135966
0.0134581
0.0133159
0.0131713
0.0130247
0.0128763
0.012726
0.0125737
0.0124192
0.0122622
0.0121025
0.0119398
0.011774
0.0116049
0.0114325
0.0112566
0.0110773
0.0108946
0.0107085
0.0105194
0.0103268
0.0101322
0.00993293
0.00973576
0.00952644
0.0093363
0.00909929
0.00895135
0.0132784
0.0141646
0.0140082
0.0140338
0.0139718
0.0138606
0.0137366
0.0136014
0.01346
0.0133155
0.0131687
0.0130201
0.0128697
0.0127176
0.0125633
0.0124069
0.0122479
0.0120862
0.0119215
0.0117537
0.0115826
0.0114082
0.0112304
0.0110492
0.0108648
0.0106771
0.0104865
0.0102926
0.010097
0.00989693
0.00969924
0.00948945
0.00929958
0.00906176
0.00891606
0.0131159
0.0141741
0.0140154
0.0140544
0.0139906
0.0138742
0.0137463
0.0136075
0.0134633
0.0133164
0.0131675
0.013017
0.012865
0.0127111
0.0125553
0.0123972
0.0122365
0.0120732
0.0119068
0.0117374
0.0115646
0.0113886
0.0112092
0.0110266
0.0108407
0.0106518
0.0104601
0.0102653
0.0100689
0.00986832
0.00967038
0.00946057
0.00927118
0.00903364
0.00889039
0.0129345
0.0142036
0.0140269
0.0140769
0.0140086
0.0138865
0.0137547
0.0136128
0.0134661
0.0133172
0.0131666
0.0130146
0.0128612
0.012706
0.0125488
0.0123894
0.0122275
0.0120628
0.0118952
0.0117244
0.0115504
0.0113731
0.0111925
0.0110087
0.0108218
0.0106318
0.0104393
0.0102438
0.0100469
0.00984603
0.00964788
0.00943823
0.0092486
0.0090114
0.00886766
0.0127305
0.0142532
0.014045
0.0141066
0.014031
0.0139017
0.0137653
0.0136198
0.0134706
0.0133197
0.0131675
0.0130142
0.0128595
0.0127032
0.0125449
0.0123845
0.0122215
0.0120557
0.0118871
0.0117152
0.0115403
0.011362
0.0111805
0.0109958
0.0108081
0.0106174
0.0104243
0.0102283
0.0100312
0.00983019
0.0096321
0.00942324
0.00923394
0.00899989
0.00885631
0.0124904
0.0143256
0.0140623
0.0141324
0.0140485
0.0139132
0.0137733
0.0136252
0.013474
0.0133217
0.0131684
0.013014
0.0128584
0.0127013
0.0125423
0.012381
0.0122173
0.0120507
0.0118813
0.0117088
0.0115331
0.0113541
0.0111719
0.0109866
0.0107984
0.0106071
0.0104137
0.0102173
0.01002
0.00981908
0.00962088
0.00941274
0.00922175
0.00898964
0.00883569
0.0122435
0.0144151
0.0140904
0.0141691
0.0140735
0.0139304
0.0137858
0.0136343
0.0134808
0.0133268
0.0131722
0.0130168
0.0128603
0.0127024
0.0125427
0.0123807
0.0122164
0.0120493
0.0118793
0.0117062
0.01153
0.0113505
0.0111679
0.0109821
0.0107936
0.010602
0.0104084
0.0102118
0.0100146
0.00981375
0.00961595
0.00940919
0.0092195
0.00899457
0.00884257
0.0119743
0.0145219
0.0141146
0.0141988
0.0140919
0.0139431
0.0137949
0.0136411
0.013486
0.0133309
0.0131754
0.0130192
0.0128622
0.0127037
0.0125435
0.0123811
0.0122164
0.0120489
0.0118786
0.0117051
0.0115287
0.0113488
0.0111661
0.01098
0.0107913
0.0105995
0.0104058
0.0102091
0.0100119
0.00981123
0.0096134
0.00940765
0.00921486
0.00899318
0.00880909
0.0117467
0.014636
0.0141598
0.0142404
0.0141184
0.0139614
0.0138082
0.013651
0.0134937
0.0133369
0.0131803
0.0130233
0.0128656
0.0127067
0.0125461
0.0123834
0.0122185
0.0120508
0.0118803
0.0117067
0.0115302
0.0113502
0.0111674
0.0109812
0.0107926
0.0106007
0.0104071
0.0102105
0.0100135
0.00981287
0.00961567
0.00941079
0.00922312
0.00900881
0.00887161
0.0141384
0.014578
0.0141955
0.0140956
0.0139841
0.0138697
0.0137612
0.0136526
0.0135444
0.0134373
0.0133312
0.0132265
0.0131233
0.0130215
0.012921
0.0128217
0.0127233
0.0126254
0.0125277
0.0124297
0.0123308
0.0122306
0.0121283
0.0120233
0.0119149
0.0118025
0.0116854
0.0115627
0.0114344
0.0112988
0.0111578
0.0110071
0.0108567
0.0106878
0.0105487
0.0141136
0.0145468
0.0141761
0.0140804
0.0139722
0.0138594
0.0137512
0.0136416
0.0135317
0.013422
0.0133128
0.0132043
0.0130968
0.0129902
0.0128844
0.0127793
0.0126745
0.0125698
0.0124648
0.012359
0.012252
0.0121432
0.012032
0.0119179
0.0118003
0.0116785
0.0115522
0.0114203
0.011283
0.0111382
0.0109887
0.0108268
0.0106675
0.0104743
0.0103249
0.0140857
0.0145146
0.0141548
0.014064
0.0139588
0.0138472
0.0137385
0.0136273
0.0135148
0.0134017
0.0132885
0.0131755
0.0130628
0.0129504
0.0128383
0.0127263
0.0126141
0.0125014
0.0123878
0.0122728
0.0121561
0.012037
0.0119151
0.0117898
0.0116608
0.0115271
0.0113889
0.0112448
0.0110956
0.010939
0.0107789
0.0106062
0.0104405
0.0102391
0.0100932
0.0140501
0.0144794
0.0141333
0.0140489
0.0139478
0.0138382
0.0137295
0.0136172
0.0135025
0.0133867
0.0132701
0.0131532
0.0130361
0.0129189
0.0128016
0.0126838
0.0125654
0.0124461
0.0123255
0.0122031
0.0120787
0.0119515
0.0118214
0.0116877
0.0115501
0.011408
0.0112613
0.0111089
0.0109518
0.0107872
0.0106198
0.010439
0.0102665
0.0100547
0.00990312
0.0140171
0.0144421
0.014112
0.0140346
0.0139376
0.0138297
0.0137207
0.0136068
0.0134896
0.0133706
0.0132502
0.0131291
0.0130073
0.012885
0.012762
0.0126383
0.0125135
0.0123873
0.0122594
0.0121294
0.011997
0.0118616
0.0117229
0.0115805
0.0114341
0.011283
0.0111275
0.0109664
0.0108009
0.0106283
0.0104535
0.0102657
0.0100882
0.00987094
0.00971899
0.0139713
0.0144021
0.0140906
0.0140218
0.0139298
0.0138238
0.0137146
0.0135992
0.0134797
0.0133577
0.0132339
0.0131089
0.0129829
0.012856
0.0127281
0.012599
0.0124686
0.0123364
0.0122023
0.0120657
0.0119264
0.011784
0.0116383
0.0114886
0.0113351
0.0111769
0.0110145
0.0108467
0.0106749
0.0104962
0.010316
0.0101228
0.00994097
0.00971838
0.00956399
0.0139226
0.0143601
0.0140697
0.0140108
0.0139241
0.0138198
0.0137101
0.0135929
0.0134707
0.0133456
0.0132182
0.0130892
0.012959
0.0128275
0.0126947
0.0125605
0.0124245
0.0122865
0.0121463
0.0120034
0.0118576
0.0117085
0.011556
0.0113995
0.0112391
0.0110743
0.0109053
0.0107313
0.0105535
0.0103693
0.0101842
0.00998642
0.00980141
0.00957531
0.00942062
0.0138638
0.0143174
0.0140509
0.0140028
0.0139216
0.0138187
0.0137081
0.0135889
0.0134641
0.0133359
0.0132051
0.0130725
0.0129383
0.0128026
0.0126654
0.0125265
0.0123855
0.0122424
0.0120968
0.0119484
0.0117969
0.0116421
0.0114837
0.0113215
0.0111554
0.010985
0.0108107
0.0106317
0.0104492
0.0102607
0.0100719
0.00987063
0.00968327
0.00945419
0.00929926
0.0137938
0.0142747
0.0140337
0.0139977
0.0139222
0.0138203
0.0137086
0.0135873
0.0134597
0.0133284
0.0131943
0.0130583
0.0129205
0.0127811
0.0126399
0.0124968
0.0123516
0.012204
0.0120537
0.0119005
0.0117441
0.0115843
0.011421
0.0112539
0.011083
0.010908
0.0107292
0.010546
0.0103598
0.0101678
0.00997603
0.00977206
0.00958312
0.0093518
0.00919736
0.0137233
0.0142401
0.0140222
0.0139974
0.0139264
0.0138243
0.013711
0.0135873
0.0134571
0.013323
0.0131861
0.0130471
0.0129063
0.0127637
0.0126192
0.0124727
0.0123239
0.0121726
0.0120185
0.0118614
0.0117011
0.0115374
0.0113701
0.0111991
0.0110245
0.0108459
0.0106637
0.0104774
0.0102883
0.0100938
0.00990001
0.00969409
0.00950423
0.00927108
0.00911749
0.0136313
0.0142055
0.0140115
0.0139998
0.0139332
0.0138306
0.0137155
0.0135892
0.0134562
0.0133194
0.0131797
0.0130379
0.0128943
0.0127488
0.0126014
0.0124518
0.0122998
0.0121453
0.0119878
0.0118274
0.0116636
0.0114965
0.0113258
0.0111515
0.0109736
0.010792
0.010607
0.010418
0.0102267
0.0100301
0.00983476
0.00962733
0.00943701
0.00920236
0.00905024
0.0135372
0.0141823
0.0140072
0.0140072
0.0139434
0.0138388
0.0137212
0.0135921
0.0134564
0.0133169
0.0131747
0.0130304
0.0128843
0.0127363
0.0125863
0.0124341
0.0122794
0.012122
0.0119618
0.0117984
0.0116318
0.0114618
0.0112883
0.0111113
0.0109307
0.0107467
0.0105594
0.0103684
0.0101753
0.00997713
0.00978071
0.00957215
0.00938174
0.00914575
0.00899549
0.0134129
0.0141634
0.0140045
0.0140182
0.0139566
0.0138493
0.0137287
0.0135966
0.013458
0.0133159
0.0131712
0.0130247
0.0128762
0.012726
0.0125737
0.0124192
0.0122622
0.0121025
0.0119398
0.011774
0.0116049
0.0114325
0.0112566
0.0110773
0.0108946
0.0107085
0.0105194
0.0103268
0.0101322
0.00993295
0.00973577
0.00952647
0.0093363
0.00909935
0.00895152
0.0132822
0.0141609
0.014008
0.0140337
0.0139718
0.0138605
0.0137366
0.0136013
0.01346
0.0133154
0.0131686
0.01302
0.0128697
0.0127175
0.0125633
0.0124068
0.0122479
0.0120862
0.0119214
0.0117537
0.0115826
0.0114082
0.0112304
0.0110492
0.0108647
0.0106771
0.0104865
0.0102926
0.010097
0.00989695
0.00969925
0.00948949
0.00929959
0.00906182
0.00891624
0.0131195
0.0141706
0.0140152
0.0140542
0.0139905
0.0138741
0.0137462
0.0136074
0.0134632
0.0133163
0.0131675
0.013017
0.0128649
0.0127111
0.0125552
0.0123971
0.0122365
0.0120732
0.0119068
0.0117373
0.0115646
0.0113886
0.0112092
0.0110266
0.0108407
0.0106518
0.0104601
0.0102653
0.010069
0.00986835
0.0096704
0.00946062
0.0092712
0.00903372
0.00889059
0.012938
0.0142003
0.0140267
0.0140767
0.0140085
0.0138864
0.0137546
0.0136127
0.013466
0.0133171
0.0131666
0.0130146
0.0128611
0.0127059
0.0125488
0.0123894
0.0122275
0.0120628
0.0118952
0.0117244
0.0115504
0.0113731
0.0111925
0.0110087
0.0108218
0.0106319
0.0104393
0.0102438
0.010047
0.00984607
0.00964792
0.00943829
0.00924864
0.00901149
0.00886788
0.0127337
0.0142503
0.0140448
0.0141064
0.0140309
0.0139016
0.0137652
0.0136197
0.0134705
0.0133196
0.0131675
0.0130141
0.0128595
0.0127032
0.0125449
0.0123845
0.0122215
0.0120558
0.0118871
0.0117153
0.0115403
0.011362
0.0111805
0.0109958
0.0108081
0.0106174
0.0104243
0.0102284
0.0100312
0.00983026
0.00963216
0.00942332
0.009234
0.009
0.00885655
0.0124934
0.014323
0.0140622
0.0141323
0.0140485
0.0139131
0.0137732
0.0136251
0.013474
0.0133217
0.0131684
0.013014
0.0128585
0.0127013
0.0125423
0.012381
0.0122173
0.0120508
0.0118814
0.0117088
0.0115331
0.0113541
0.011172
0.0109866
0.0107984
0.0106072
0.0104137
0.0102174
0.0100201
0.00981915
0.00962096
0.00941282
0.00922182
0.00898974
0.00883589
0.012246
0.0144136
0.0140905
0.0141691
0.0140735
0.0139305
0.0137858
0.0136344
0.0134809
0.0133269
0.0131723
0.0130169
0.0128604
0.0127024
0.0125427
0.0123808
0.0122165
0.0120493
0.0118794
0.0117062
0.01153
0.0113505
0.011168
0.0109821
0.0107936
0.010602
0.0104084
0.0102119
0.0100146
0.00981379
0.009616
0.00940924
0.00921954
0.00899463
0.00884271
0.0119762
0.0145224
0.014115
0.014199
0.0140921
0.0139431
0.013795
0.0136411
0.0134861
0.0133309
0.0131754
0.0130192
0.0128621
0.0127037
0.0125435
0.0123811
0.0122164
0.0120489
0.0118786
0.0117051
0.0115286
0.0113488
0.011166
0.0109799
0.0107913
0.0105994
0.0104057
0.0102091
0.0100119
0.00981117
0.00961334
0.00940758
0.00921479
0.00899308
0.00880858
0.0117453
0.0146373
0.0141604
0.0142404
0.0141184
0.0139613
0.0138081
0.0136509
0.0134936
0.0133369
0.0131803
0.0130233
0.0128656
0.0127066
0.0125461
0.0123834
0.0122185
0.0120508
0.0118803
0.0117067