/*--------------------------------*- C++ -*----------------------------------*\
  =========                 |
  \\      /  F ield         | OpenFOAM: The Open Source CFD Toolbox
   \\    /   O peration     | Website:  https://openfoam.org
    \\  /    A nd           | Version:  6
     \\/     M anipulation  |
\*---------------------------------------------------------------------------*/
FoamFile
{
    version     2.0;
    format      ascii;
    class       volVectorField;
    location    "12";
    object      wallShearStress;
}
// * * * * * * * * * * * * * * * * * * * * * * * * * * * * * * * * * * * * * //

dimensions      [0 2 -2 0 0 0 0];

internalField   uniform (0 0 0);

boundaryField
{
    inlet
    {
        type            calculated;
        value           uniform (0 0 0);
    }
    outlet
    {
        type            calculated;
        value           uniform (0 0 0);
    }
    roughCylinder
    {
        type            calculated;
        value           nonuniform List<vector> 
3840
(
(-0.000271991 -0.000397605 -0.000163358)
(-0.00032741 -0.000511799 -2.32022e-05)
(-0.000376921 -0.000633327 4.21517e-05)
(-0.000452404 -0.000736924 0.000124175)
(-0.000540757 -0.000810986 0.000206622)
(-0.000632284 -0.000851296 0.000278808)
(-0.000717319 -0.000861914 0.000335506)
(-0.000791133 -0.000854248 0.000375273)
(-0.000854247 -0.000847818 0.00040249)
(-0.0009028 -0.000846405 0.000416708)
(-0.000941478 -0.000854085 0.000419971)
(-0.000973615 -0.00086926 0.000414446)
(-0.00100231 -0.000890314 0.000402684)
(-0.00103047 -0.000915754 0.000386753)
(-0.00106012 -0.000944645 0.000368081)
(-0.00109239 -0.000976476 0.000347324)
(-0.00112761 -0.00101092 0.000324556)
(-0.0011656 -0.00104765 0.000299459)
(-0.00120583 -0.00108614 0.000271439)
(-0.00124753 -0.00112558 0.000239642)
(-0.00128951 -0.00116476 0.000202584)
(-0.00133 -0.00120178 0.000158226)
(-0.00136478 -0.00123327 0.000102772)
(-0.0013872 -0.00125361 3.56289e-05)
(-0.000291382 -0.000385409 -0.000155873)
(-0.000350558 -0.000496001 -2.67307e-05)
(-0.000402533 -0.00061732 3.33882e-05)
(-0.000480304 -0.000722245 0.000112012)
(-0.000570586 -0.000798953 0.000192632)
(-0.000664109 -0.000842233 0.000263765)
(-0.000752189 -0.000856962 0.000320442)
(-0.000830979 -0.000855465 0.000362262)
(-0.000899043 -0.000852223 0.000392022)
(-0.000951569 -0.000849556 0.000407739)
(-0.00099222 -0.000855904 0.000411646)
(-0.0010263 -0.000870421 0.000406435)
(-0.00105688 -0.000891273 0.000394902)
(-0.00108696 -0.000916731 0.000379193)
(-0.00111861 -0.000945741 0.000360808)
(-0.00115297 -0.000977696 0.000340425)
(-0.00119037 -0.00101224 0.000318136)
(-0.00123061 -0.001049 0.000293615)
(-0.00127312 -0.00108747 0.000266253)
(-0.00131708 -0.00112684 0.000235189)
(-0.00136125 -0.00116587 0.000198925)
(-0.00140379 -0.00120273 0.000155455)
(-0.00144027 -0.00123403 0.000101003)
(-0.00146379 -0.00125425 3.50043e-05)
(-0.000310768 -0.000367669 -0.000142944)
(-0.000373048 -0.000474776 -3.09151e-05)
(-0.000427359 -0.000594641 2.39232e-05)
(-0.000506922 -0.000700127 9.87156e-05)
(-0.000599029 -0.00077932 0.000177146)
(-0.000694913 -0.000826318 0.000247362)
(-0.000786736 -0.000846315 0.000304689)
(-0.00087045 -0.000850764 0.000348637)
(-0.000943051 -0.000850401 0.000380273)
(-0.00100026 -0.000847701 0.000397655)
(-0.001043 -0.000852382 0.000402198)
(-0.00107911 -0.000866042 0.000397317)
(-0.00111169 -0.000886463 0.000386081)
(-0.00114378 -0.000911749 0.000370678)
(-0.0011775 -0.000940657 0.000352659)
(-0.001214 -0.000972516 0.000332735)
(-0.00125362 -0.00100692 0.000311003)
(-0.00129612 -0.00104347 0.000287139)
(-0.0013409 -0.00108165 0.000260516)
(-0.0013871 -0.00112067 0.000230264)
(-0.00143342 -0.00115929 0.000194877)
(-0.00147797 -0.00119573 0.000152385)
(-0.0015161 -0.00122662 9.90412e-05)
(-0.0015407 -0.00124656 3.43121e-05)
(-0.000328219 -0.000345631 -0.000126344)
(-0.000392591 -0.00044873 -3.54323e-05)
(-0.000448732 -0.000566093 1.41276e-05)
(-0.00052952 -0.000671558 8.46728e-05)
(-0.000623346 -0.000753177 0.000160554)
(-0.000721911 -0.000804502 0.000229822)
(-0.000817791 -0.000830393 0.000288011)
(-0.000906366 -0.000840567 0.000334015)
(-0.000983664 -0.00084327 0.000367393)
(-0.001046 -0.000841902 0.000386646)
(-0.00109148 -0.000844375 0.000391833)
(-0.00112974 -0.000856979 0.000387398)
(-0.00116446 -0.000876794 0.000376544)
(-0.00119864 -0.000901714 0.000361528)
(-0.00123448 -0.000930375 0.000343957)
(-0.00127313 -0.000961966 0.000324565)
(-0.00131494 -0.000996035 0.000303464)
(-0.00135963 -0.00103217 0.000280319)
(-0.0014066 -0.00106985 0.000254491)
(-0.00145492 -0.00110829 0.000225103)
(-0.00150327 -0.00114629 0.000190637)
(-0.00154969 -0.00118208 0.000149172)
(-0.00158936 -0.00121239 9.69894e-05)
(-0.00161497 -0.00123194 3.35879e-05)
(-0.000342546 -0.00031969 -0.000107713)
(-0.000408341 -0.000418313 -3.98414e-05)
(-0.000465671 -0.000532222 4.28751e-06)
(-0.000547091 -0.000637055 7.0189e-05)
(-0.00064258 -0.000721022 0.000143122)
(-0.000744134 -0.000777049 0.000211276)
(-0.000844242 -0.00080898 0.000270246)
(-0.000937582 -0.000824508 0.00031812)
(-0.00101962 -0.000830283 0.000353261)
(-0.00108658 -0.000830414 0.000374089)
(-0.00113654 -0.000831328 0.000380411)
(-0.00117718 -0.000842675 0.000376686)
(-0.00121419 -0.000861603 0.000366313)
(-0.00125056 -0.00088598 0.000351799)
(-0.00128852 -0.000914171 0.000334762)
(-0.00132931 -0.000945292 0.000315986)
(-0.00137323 -0.000978818 0.000295587)
(-0.00142003 -0.00101432 0.000273227)
(-0.00146904 -0.00105126 0.000248251)
(-0.00151933 -0.00108888 0.000219774)
(-0.00156953 -0.00112601 0.000186265)
(-0.00161767 -0.00116094 0.000145862)
(-0.00165873 -0.00119046 9.48766e-05)
(-0.00168525 -0.00120951 3.28415e-05)
(-0.000353909 -0.00029146 -8.8405e-05)
(-0.000420028 -0.000384681 -4.39671e-05)
(-0.000477729 -0.000494316 -5.40459e-06)
(-0.000559177 -0.000597904 5.54787e-05)
(-0.000656135 -0.000683982 0.00012501)
(-0.000760723 -0.000744684 0.000191754)
(-0.000865094 -0.000782396 0.000251243)
(-0.00096324 -0.000802884 0.000300758)
(-0.00105016 -0.000811649 0.000337662)
(-0.00112198 -0.000813356 0.000359983)
(-0.00117765 -0.000814271 0.000368012)
(-0.00122102 -0.000823346 0.000365089)
(-0.00126051 -0.000841157 0.000355369)
(-0.00129916 -0.000864665 0.000341474)
(-0.00133931 -0.000892189 0.000325094)
(-0.00138219 -0.000922623 0.000307022)
(-0.00142816 -0.000955386 0.000287406)
(-0.00147692 -0.000990018 0.000265895)
(-0.00152781 -0.00102598 0.000241824)
(-0.00157987 -0.00106254 0.000214299)
(-0.00163172 -0.00109857 0.000181781)
(-0.00168139 -0.00113242 0.000142469)
(-0.00172365 -0.00116096 9.2711e-05)
(-0.00175098 -0.00117939 3.20758e-05)
(-0.000360474 -0.000260762 -6.90067e-05)
(-0.000426572 -0.00034836 -4.75458e-05)
(-0.000483843 -0.0004529 -1.47673e-05)
(-0.000564589 -0.000554606 4.06317e-05)
(-0.000662705 -0.000642485 0.000106238)
(-0.000770394 -0.000707804 0.000171183)
(-0.000879216 -0.000751096 0.000230872)
(-0.000982326 -0.00077621 0.000281761)
(-0.00107433 -0.000787879 0.000320391)
(-0.00115131 -0.000791213 0.000344336)
(-0.00121251 -0.000792794 0.00035409)
(-0.0012605 -0.000799904 0.000352465)
(-0.0013027 -0.000816001 0.000343633)
(-0.00134385 -0.000838454 0.000330543)
(-0.0013862 -0.000865015 0.000314931)
(-0.00143116 -0.000894536 0.000297674)
(-0.00147909 -0.000926331 0.000278928)
(-0.00152968 -0.000959893 0.000258341)
(-0.00158227 -0.000994688 0.000235233)
(-0.00163589 -0.00102998 0.000208702)
(-0.00168915 -0.0010647 0.000177201)
(-0.00174014 -0.00109727 0.000139007)
(-0.00178344 -0.00112469 9.05034e-05)
(-0.00181144 -0.00114238 3.1294e-05)
(-0.000363635 -0.000229746 -5.04937e-05)
(-0.0004281 -0.000310723 -5.06369e-05)
(-0.00048386 -0.000409388 -2.36028e-05)
(-0.000563005 -0.000508362 2.59355e-05)
(-0.000661703 -0.00059742 8.70084e-05)
(-0.000772154 -0.000666868 0.000149573)
(-0.000885244 -0.000715225 0.000208948)
(-0.000993469 -0.000744685 0.000260885)
(-0.00109091 -0.000759267 0.000301187)
(-0.00117353 -0.000764386 0.000326987)
(-0.00124035 -0.00076677 0.000338522)
(-0.00129401 -0.000773108 0.000338635)
(-0.00133992 -0.000787058 0.000331051)
(-0.00138369 -0.000807688 0.000318925)
(-0.00142837 -0.0008331 0.000304265)
(-0.00147539 -0.000861498 0.000287944)
(-0.00152516 -0.000892112 0.000270165)
(-0.0015774 -0.000924391 0.000250577)
(-0.00163144 -0.000957796 0.000228485)
(-0.00168634 -0.000991641 0.000202991)
(-0.00174074 -0.00102498 0.000172536)
(-0.00179277 -0.00105615 0.000135483)
(-0.00183685 -0.00108233 8.8257e-05)
(-0.0018654 -0.00109926 3.04978e-05)
(-0.000359759 -0.000197031 -3.29439e-05)
(-0.000422888 -0.000271462 -5.27404e-05)
(-0.000476312 -0.000363535 -3.17271e-05)
(-0.000552844 -0.000458987 1.14974e-05)
(-0.000651373 -0.000548507 6.73779e-05)
(-0.000764381 -0.000621726 0.000126885)
(-0.000882004 -0.000675052 0.000185406)
(-0.000995673 -0.000708764 0.000238025)
(-0.00109894 -0.000726281 0.000279889)
(-0.00118749 -0.000733176 0.000307673)
(-0.00126027 -0.000736449 0.000321253)
(-0.00131954 -0.00074252 0.000323272)
(-0.00137033 -0.000754987 0.000317352)
(-0.00141784 -0.00077394 0.000306659)
(-0.00146486 -0.000797627 0.000293118)
(-0.0015139 -0.000824603 0.000277867)
(-0.00156538 -0.000853878 0.000261169)
(-0.00161906 -0.000884791 0.000242668)
(-0.00167432 -0.000916787 0.00022166)
(-0.00173017 -0.000949148 0.000197238)
(-0.00178517 -0.000980866 0.00016782)
(-0.00183787 -0.00101049 0.000131914)
(-0.0018824 -0.00103531 8.59779e-05)
(-0.00191125 -0.00105135 2.96867e-05)
(-0.000353158 -0.000165739 -1.72426e-05)
(-0.000412094 -0.000232773 -5.46224e-05)
(-0.000461917 -0.000317539 -3.87234e-05)
(-0.000534673 -0.000408238 -2.13013e-06)
(-0.000632009 -0.000497176 4.77803e-05)
(-0.000746818 -0.000573336 0.000103364)
(-0.000868396 -0.000630935 0.000160223)
(-0.000987531 -0.000668674 0.000213008)
(-0.001097 -0.000689154 0.000256256)
(-0.00119217 -0.000698017 0.000286176)
(-0.00127133 -0.000702213 0.000302088)
(-0.00133642 -0.000708106 0.000306292)
(-0.0013922 -0.000719516 0.000302314)
(-0.00144348 -0.000736906 0.000293274)
(-0.00149347 -0.000758866 0.000281169)
(-0.00154462 -0.000784238 0.000267214)
(-0.0015976 -0.000811931 0.000251731)
(-0.00165228 -0.000841222 0.000234394)
(-0.00170813 -0.000871531 0.000214509)
(-0.00176428 -0.000902136 0.000191182)
(-0.00181953 -0.000932009 0.00016284)
(-0.00187248 -0.000959873 0.000128135)
(-0.0019171 -0.000983176 8.35592e-05)
(-0.00194609 -0.000998225 2.88247e-05)
(-0.000336392 -0.000134837 -3.32976e-06)
(-0.000393917 -0.000192668 -5.38775e-05)
(-0.00043879 -0.000270124 -4.48884e-05)
(-0.000506374 -0.000355271 -1.50222e-05)
(-0.00060112 -0.000442521 2.83707e-05)
(-0.000717111 -0.000521008 7.90578e-05)
(-0.000843045 -0.000583043 0.000133434)
(-0.000968147 -0.000625028 0.000185842)
(-0.00108442 -0.00064868 0.000230261)
(-0.00118646 -0.000659417 0.000262304)
(-0.00127245 -0.000664489 0.000280799)
(-0.00134382 -0.000670241 0.000287541)
(-0.00140473 -0.000680567 0.000285792)
(-0.00146006 -0.00069642 0.000278679)
(-0.00151294 -0.00071659 0.000268233)
(-0.00156613 -0.00074017 0.000255773)
(-0.00162044 -0.000766048 0.000241663)
(-0.00167588 -0.000793476 0.000225611)
(-0.00173202 -0.000821857 0.000206941)
(-0.00178812 -0.00085047 0.000184772)
(-0.0018432 -0.000878333 0.000157563)
(-0.00189609 -0.000904329 0.00012413)
(-0.00194051 -0.00092601 8.09929e-05)
(-0.00196943 -0.000939985 2.79085e-05)
(-0.000314662 -0.000106712 4.8944e-06)
(-0.000371986 -0.000157347 -5.03578e-05)
(-0.000410058 -0.000224077 -4.91206e-05)
(-0.000470305 -0.000302751 -2.64327e-05)
(-0.000560748 -0.00038699 9.77247e-06)
(-0.000676509 -0.000466628 5.45442e-05)
(-0.0008054 -0.000532072 0.000105287)
(-0.000936113 -0.000578079 0.000156498)
(-0.00105937 -0.000604976 0.000201682)
(-0.00116921 -0.000617907 0.000235907)
(-0.00126268 -0.000623869 0.000257223)
(-0.00134072 -0.000629371 0.000266828)
(-0.0014073 -0.000638625 0.000267701)
(-0.00146676 -0.000652762 0.000262801)
(-0.00152276 -0.000671052 0.000254301)
(-0.00157798 -0.000692681 0.000243553)
(-0.00163345 -0.000716547 0.000230984)
(-0.00168933 -0.000741909 0.000216345)
(-0.00174534 -0.00076816 0.000198978)
(-0.00180092 -0.000794612 0.000178031)
(-0.00185539 -0.000820312 0.000152007)
(-0.0019077 -0.000844273 0.000119899)
(-0.0019515 -0.000864225 7.82763e-05)
(-0.00198016 -0.000877064 2.69372e-05)
(-0.000283143 -7.79899e-05 1.21435e-05)
(-0.000342043 -0.000124695 -4.8477e-05)
(-0.000372557 -0.000180169 -5.08605e-05)
(-0.000423397 -0.000250201 -3.52346e-05)
(-0.000507272 -0.000329207 -7.23104e-06)
(-0.00062141 -0.00040873 3.02739e-05)
(-0.000753871 -0.000477959 7.61437e-05)
(-0.00089074 -0.000528447 0.000125237)
(-0.00102176 -0.000559117 0.000170738)
(-0.00113954 -0.000574209 0.000206951)
(-0.00124093 -0.000580987 0.000231229)
(-0.0013263 -0.000586183 0.00024406)
(-0.00139876 -0.000594131 0.000247895)
(-0.00146288 -0.000606493 0.000245612)
(-0.00152197 -0.000622685 0.000239338)
(-0.00157913 -0.000642151 0.000230534)
(-0.00163558 -0.000663835 0.000219696)
(-0.00169159 -0.000686986 0.000206609)
(-0.00174709 -0.000710993 0.000190646)
(-0.00180167 -0.000735163 0.000170986)
(-0.00185506 -0.00075862 0.000146191)
(-0.0019065 -0.000780526 0.000115472)
(-0.00194932 -0.000798707 7.543e-05)
(-0.00197752 -0.000810364 2.59179e-05)
(-0.000246681 -5.16652e-05 1.8195e-05)
(-0.000306391 -9.55454e-05 -4.75759e-05)
(-0.000330354 -0.000141047 -5.10253e-05)
(-0.000370619 -0.000201159 -4.14334e-05)
(-0.000445714 -0.000273138 -2.1864e-05)
(-0.000555907 -0.000350638 7.30692e-06)
(-0.000688775 -0.000421599 4.67227e-05)
(-0.000830846 -0.000476255 9.24027e-05)
(-0.000969347 -0.000510828 0.000137388)
(-0.00109611 -0.000528732 0.000175409)
(-0.0012063 -0.000536593 0.000202788)
(-0.00129937 -0.000541333 0.000219117)
(-0.00137845 -0.000547929 0.000226356)
(-0.0014473 -0.000558231 0.000227041)
(-0.00150985 -0.00057223 0.000223365)
(-0.00156901 -0.000589406 0.000216781)
(-0.00162623 -0.000608765 0.000207871)
(-0.00168196 -0.00062957 0.00019647)
(-0.0017364 -0.000651208 0.000181991)
(-0.00178945 -0.000673042 0.000163673)
(-0.00184121 -0.0006942 0.000140136)
(-0.0018911 -0.00071393 0.00011084)
(-0.00193251 -0.000730309 7.24458e-05)
(-0.00196003 -0.000740773 2.48468e-05)
(-0.00020236 -2.86139e-05 2.23327e-05)
(-0.000260931 -6.82413e-05 -4.55182e-05)
(-0.000279389 -0.000104719 -4.94168e-05)
(-0.000308095 -0.000153626 -4.43919e-05)
(-0.0003711 -0.000215966 -3.29074e-05)
(-0.000474616 -0.000289268 -1.31764e-05)
(-0.000609257 -0.000362764 1.81015e-05)
(-0.000756564 -0.000421992 5.87959e-05)
(-0.000903291 -0.000461372 0.000102334)
(-0.00103881 -0.000482295 0.00014159)
(-0.00115791 -0.000491351 0.000171956)
(-0.00125948 -0.000495792 0.000192058)
(-0.00134531 -0.00050079 0.000203023)
(-0.00141951 -0.00050898 0.000207124)
(-0.00148541 -0.000520523 0.00020636)
(-0.00154639 -0.000535208 0.000202261)
(-0.00160413 -0.000552133 0.000195492)
(-0.00165927 -0.000570554 0.000185929)
(-0.00171226 -0.000589844 0.000173038)
(-0.00176315 -0.000609325 0.000156102)
(-0.00181279 -0.000628215 0.00013385)
(-0.00186095 -0.000645894 0.000106036)
(-0.0019005 -0.000660485 6.9344e-05)
(-0.00192712 -0.000669762 2.37308e-05)
(-0.000155464 -1.12247e-05 2.41248e-05)
(-0.000212272 -4.59447e-05 -4.286e-05)
(-0.000227915 -7.5178e-05 -4.73764e-05)
(-0.000246054 -0.000113287 -4.50303e-05)
(-0.000295243 -0.000164443 -4.00139e-05)
(-0.000388139 -0.000230713 -2.99211e-05)
(-0.000516331 -0.000301716 -8.38903e-06)
(-0.000667055 -0.000365156 2.55396e-05)
(-0.000820921 -0.000409569 6.60678e-05)
(-0.000966142 -0.000434734 0.00010583)
(-0.00109512 -0.000445835 0.000138963)
(-0.00120533 -0.000450103 0.000162879)
(-0.00129875 -0.000453693 0.000177946)
(-0.00137829 -0.000459554 0.000185803)
(-0.001448 -0.000468637 0.000188362)
(-0.00151094 -0.000480799 0.000187062)
(-0.00156895 -0.000495227 0.000182647)
(-0.00162295 -0.000511219 0.000175049)
(-0.00167372 -0.000528121 0.000163803)
(-0.00172196 -0.00054535 0.000148296)
(-0.00176883 -0.000562014 0.000127336)
(-0.00181433 -0.00057756 0.00010102)
(-0.00185161 -0.000590446 6.60988e-05)
(-0.00187712 -0.000598571 2.25608e-05)
(-0.000101018 2.86149e-06 2.42382e-05)
(-0.000152124 -2.4219e-05 -3.76779e-05)
(-0.00016598 -4.67569e-05 -4.32616e-05)
(-0.000175525 -7.46525e-05 -4.18458e-05)
(-0.000207952 -0.000111962 -4.08169e-05)
(-0.000284621 -0.000167355 -3.94113e-05)
(-0.000413611 -0.000239903 -2.97881e-05)
(-0.000565052 -0.000306267 -5.70299e-06)
(-0.000725858 -0.000356925 3.01491e-05)
(-0.000879571 -0.000386845 6.91353e-05)
(-0.00101775 -0.000400485 0.000104298)
(-0.00113732 -0.000405255 0.000131931)
(-0.00123812 -0.000407461 0.000151215)
(-0.00132361 -0.000411162 0.000163216)
(-0.00139676 -0.000417607 0.00016938)
(-0.00146126 -0.000427107 0.000171129)
(-0.00151923 -0.000439039 0.000169283)
(-0.00157174 -0.000452701 0.000163805)
(-0.00162005 -0.000467404 0.000154314)
(-0.00166474 -0.000482441 0.000140237)
(-0.00170838 -0.000497024 0.000120585)
(-0.00175125 -0.000510716 9.58338e-05)
(-0.00178569 -0.000521957 6.27304e-05)
(-0.00180985 -0.000528994 2.13431e-05)
(-5.97718e-05 9.57708e-06 2.2399e-05)
(-0.000104347 -1.20016e-05 -3.38026e-05)
(-0.00011944 -2.74599e-05 -4.14207e-05)
(-0.000121147 -4.75265e-05 -4.00862e-05)
(-0.000140946 -7.23235e-05 -3.74652e-05)
(-0.000207348 -0.000113612 -4.3559e-05)
(-0.000297682 -0.000172233 -4.71547e-05)
(-0.000448746 -0.000244181 -3.15806e-05)
(-0.000614771 -0.000300467 -3.53888e-06)
(-0.000777269 -0.000337272 3.26902e-05)
(-0.000925468 -0.000355259 6.87304e-05)
(-0.00105402 -0.000361211 9.94815e-05)
(-0.00116304 -0.000362793 0.000123052)
(-0.00125417 -0.000364445 0.000139376)
(-0.00133128 -0.000368523 0.000149501)
(-0.00139756 -0.000375532 0.000154601)
(-0.00145514 -0.000385047 0.000155524)
(-0.00150543 -0.000396434 0.000152262)
(-0.00155014 -0.000408947 0.000144538)
(-0.00159096 -0.000422073 0.000131936)
(-0.00163062 -0.000434674 0.000113571)
(-0.00166965 -0.00044648 9.03874e-05)
(-0.00170093 -0.000456233 5.91875e-05)
(-0.00172352 -0.000462283 2.00613e-05)
(-3.49438e-06 -6.2786e-06 2.35084e-06)
(-3.27556e-05 -3.33562e-06 -4.53295e-06)
(-4.74719e-05 -1.20776e-05 -2.36848e-05)
(-4.71912e-05 -2.03409e-05 -2.24219e-05)
(-4.62333e-05 -2.20925e-05 -2.23403e-05)
(-8.6051e-05 -6.54963e-05 -3.2229e-05)
(-0.000204693 -0.000116004 -3.5357e-05)
(-0.000330388 -0.000175321 -5.17397e-05)
(-0.000495863 -0.000242956 -3.34651e-05)
(-0.000663713 -0.000287152 -1.41594e-06)
(-0.0008197 -0.00031024 3.34775e-05)
(-0.000957696 -0.000318784 6.63954e-05)
(-0.00107392 -0.000320257 9.38776e-05)
(-0.00117097 -0.000320485 0.000114637)
(-0.00125113 -0.000322275 0.000128828)
(-0.00131837 -0.00032684 0.000137417)
(-0.00137509 -0.000334095 0.000141274)
(-0.00142285 -0.000343468 0.000140359)
(-0.00146403 -0.000354179 0.000134514)
(-0.00149974 -0.000365485 0.000123334)
(-0.00153508 -0.00037633 0.000106265)
(-0.00157055 -0.000386652 8.47324e-05)
(-0.00159814 -0.00039503 5.54949e-05)
(-0.00161895 -0.000400213 1.87243e-05)
(9.77438e-06 9.98863e-06 1.45604e-05)
(4.09447e-07 -3.873e-07 -8.21467e-06)
(-8.82968e-06 -3.62086e-06 -1.40689e-05)
(-2.67159e-05 -1.34904e-05 -3.16604e-05)
(-2.70625e-05 -2.17088e-05 -2.69318e-05)
(-3.74661e-05 -3.93053e-05 -2.61478e-05)
(-7.48753e-05 -5.83602e-05 -2.32223e-05)
(-0.000214247 -0.000116086 -4.75754e-05)
(-0.000366253 -0.000177022 -5.25728e-05)
(-0.000535346 -0.000233117 -3.03049e-05)
(-0.000700038 -0.000264423 1.5224e-07)
(-0.000846472 -0.000276721 3.33847e-05)
(-0.000970639 -0.0002798 6.42476e-05)
(-0.00107282 -0.000279319 8.921e-05)
(-0.00115654 -0.000279595 0.000107575)
(-0.00122501 -0.000282231 0.000119816)
(-0.0012804 -0.000287523 0.000126726)
(-0.00132466 -0.000295065 0.000128177)
(-0.00136066 -0.000303982 0.000124136)
(-0.0013913 -0.000313901 0.000114418)
(-0.00142152 -0.000323066 9.86068e-05)
(-0.00145209 -0.000331923 7.87283e-05)
(-0.00147555 -0.000339046 5.15632e-05)
(-0.00149431 -0.000343521 1.73037e-05)
(1.16758e-05 3.35705e-05 3.91993e-05)
(2.33099e-05 8.25162e-06 -2.38591e-05)
(1.7296e-05 4.33892e-06 -2.14644e-05)
(6.09547e-06 -7.14252e-06 -2.77981e-05)
(-1.64427e-06 -1.74166e-05 -2.02839e-05)
(-2.86496e-05 -1.04366e-05 -2.70195e-05)
(-3.74169e-05 -3.94788e-05 -4.51523e-05)
(-7.70899e-05 -5.15601e-05 -2.56135e-05)
(-0.000245753 -0.000112711 -5.03527e-05)
(-0.000403699 -0.000169073 -5.00931e-05)
(-0.000570583 -0.000217374 -2.97601e-05)
(-0.000726372 -0.0002358 1.83733e-06)
(-0.000855791 -0.000241527 3.51414e-05)
(-0.000962585 -0.00024156 6.38218e-05)
(-0.00104791 -0.000240778 8.60218e-05)
(-0.00111614 -0.000241834 0.00010177)
(-0.00116947 -0.000245548 0.000111742)
(-0.00120994 -0.000251687 0.000115595)
(-0.00124143 -0.000259349 0.000113461)
(-0.00126545 -0.000267941 0.000105082)
(-0.00129054 -0.000275614 9.05402e-05)
(-0.0013166 -0.000283468 7.2418e-05)
(-0.00133598 -0.000289507 4.74359e-05)
(-0.00135263 -0.000293511 1.582e-05)
(3.58722e-05 9.14441e-06 2.18868e-05)
(4.75856e-05 3.68403e-06 -1.29295e-05)
(4.73254e-05 -6.00385e-06 -1.49797e-05)
(4.00917e-05 -1.36388e-05 -7.46743e-06)
(1.73795e-05 -6.21096e-06 -9.63291e-06)
(3.20872e-06 -1.14909e-05 -1.12993e-05)
(-2.03075e-05 -5.83764e-06 -2.35443e-05)
(-3.11525e-05 -1.79056e-05 -2.27664e-05)
(-0.000120993 -5.13589e-05 -3.34192e-05)
(-0.000345183 -0.000122674 -5.3941e-05)
(-0.000434397 -0.000164214 -5.34863e-05)
(-0.000594618 -0.000192557 -2.7156e-05)
(-0.000729513 -0.000204363 7.75426e-06)
(-0.00083917 -0.000206203 3.90748e-05)
(-0.000926754 -0.000205802 6.46326e-05)
(-0.000995049 -0.000206253 8.36966e-05)
(-0.00104569 -0.000208921 9.66361e-05)
(-0.00108123 -0.000213961 0.000102755)
(-0.00110599 -0.000220273 0.000102307)
(-0.00112384 -0.000228006 9.52836e-05)
(-0.00114297 -0.000233987 8.1957e-05)
(-0.0011636 -0.000241026 6.56336e-05)
(-0.00117774 -0.000245777 4.29598e-05)
(-0.00119187 -0.000249563 1.42249e-05)
(5.32185e-05 1.47275e-05 3.27652e-05)
(6.83025e-05 8.10368e-06 -1.17818e-05)
(7.27931e-05 -4.31837e-07 -1.83594e-05)
(6.9423e-05 -1.1232e-05 -1.95519e-05)
(5.51399e-05 -2.36384e-05 -1.94383e-05)
(4.26215e-05 -2.51516e-05 -1.44913e-05)
(1.01551e-05 -1.64401e-05 -1.16388e-05)
(-2.39923e-05 -3.42728e-06 -3.0829e-05)
(-5.02872e-05 -2.8006e-06 -4.72339e-05)
(-0.000130746 -0.000228803 -0.000100074)
(-0.000311759 -0.00014148 -6.84498e-06)
(-0.000465954 -0.000147502 -4.98482e-05)
(-0.000597961 -0.000168261 -1.60771e-05)
(-0.000708767 -0.000173423 1.62069e-05)
(-0.000794729 -0.00017396 4.39396e-05)
(-0.000860651 -0.000174448 6.56297e-05)
(-0.000907677 -0.000176677 8.1229e-05)
(-0.000937968 -0.000181117 8.94291e-05)
(-0.000957529 -0.000186636 9.07232e-05)
(-0.000967824 -0.000193479 8.4872e-05)
(-0.000982094 -0.000197848 7.2832e-05)
(-0.000996952 -0.000204336 5.83837e-05)
(-0.00100803 -0.000208236 3.82605e-05)
(-0.00101944 -0.000212115 1.25664e-05)
(6.60176e-05 1.22936e-05 3.38593e-05)
(8.6142e-05 5.97754e-06 -1.13487e-05)
(9.47788e-05 -9.75745e-07 -2.01391e-05)
(9.61691e-05 -1.19438e-05 -2.4908e-05)
(9.02082e-05 -2.26287e-05 -2.6432e-05)
(7.85606e-05 -2.87081e-05 -2.49527e-05)
(5.52678e-05 -2.47697e-05 -2.27924e-05)
(2.12539e-05 -1.91994e-05 -5.58674e-05)
(-6.72397e-05 -5.53135e-05 -7.78835e-05)
(-4.73275e-05 -0.000102184 -5.7642e-05)
(-0.000127101 -9.13676e-05 -2.68089e-05)
(-0.000326232 -0.000100646 -5.61245e-05)
(-0.000461057 -0.000131064 -3.28826e-05)
(-0.000569775 -0.000141002 -3.6825e-06)
(-0.000655713 -0.000144416 2.4756e-05)
(-0.000719871 -0.000146409 4.8263e-05)
(-0.000762194 -0.000148715 6.60287e-05)
(-0.000786325 -0.000152936 7.59178e-05)
(-0.000798051 -0.000157206 7.85154e-05)
(-0.000801401 -0.000163487 7.37799e-05)
(-0.000808399 -0.00016463 6.29243e-05)
(-0.000819368 -0.000171836 5.05306e-05)
(-0.000823316 -0.000173646 3.30394e-05)
(-0.000832727 -0.000178499 1.07747e-05)
(7.29162e-05 1.1841e-05 3.5746e-05)
(9.70836e-05 5.58443e-06 -1.1106e-05)
(0.000108746 -9.67134e-07 -2.10379e-05)
(0.000113266 -1.2271e-05 -2.69111e-05)
(0.00011127 -2.44398e-05 -2.91653e-05)
(0.000103272 -3.44029e-05 -2.78532e-05)
(8.83554e-05 -4.22629e-05 -2.40525e-05)
(6.6151e-05 -3.5237e-05 -1.77068e-05)
(-3.44406e-05 -4.2925e-05 -3.4863e-05)
(-2.07909e-05 -4.88682e-06 -2.66007e-05)
(-6.49344e-05 -4.57415e-06 -3.38116e-05)
(-0.000226722 -5.52407e-05 -5.49328e-05)
(-0.000325323 -9.04961e-05 -4.42569e-05)
(-0.000433684 -0.000110044 -1.928e-05)
(-0.00051288 -0.000115807 7.77437e-06)
(-0.000570986 -0.000119608 3.16988e-05)
(-0.000608094 -0.00012255 5.08157e-05)
(-0.000625456 -0.000126933 6.1803e-05)
(-0.000632236 -0.000130262 6.5691e-05)
(-0.00062874 -0.000136102 6.20079e-05)
(-0.000636381 -0.000135284 5.26304e-05)
(-0.000636619 -0.000141446 4.20401e-05)
(-0.00064273 -0.000142858 2.7744e-05)
(-0.00064625 -0.000148419 8.89815e-06)
(7.25558e-05 9.70038e-06 3.52591e-05)
(9.91152e-05 4.32855e-06 -9.46849e-06)
(0.000112145 -1.20958e-06 -1.99822e-05)
(0.000119494 -1.18616e-05 -2.66744e-05)
(0.000120668 -2.44801e-05 -2.95086e-05)
(0.000116024 -3.66283e-05 -2.82698e-05)
(0.000105053 -4.70793e-05 -2.2537e-05)
(8.72783e-05 -5.02491e-05 -1.09796e-05)
(4.78933e-05 -6.62247e-05 2.97077e-05)
(-6.71729e-05 0.000104042 9.16639e-06)
(-1.99362e-05 1.05868e-06 -3.85189e-05)
(-9.69329e-05 -5.09181e-05 -4.18051e-05)
(-0.000214109 -5.29264e-05 -3.54966e-05)
(-0.000297305 -7.63301e-05 -3.07944e-05)
(-0.000370865 -8.44654e-05 -5.94839e-06)
(-0.000428705 -9.47311e-05 1.70074e-05)
(-0.000458462 -9.85162e-05 3.64112e-05)
(-0.00046935 -0.000103162 4.78506e-05)
(-0.000467898 -0.000104331 5.22596e-05)
(-0.000456926 -0.000109505 4.90829e-05)
(-0.000443942 -0.000101105 4.11343e-05)
(-0.000456673 -0.00011152 3.30922e-05)
(-0.000448384 -0.000110361 2.1621e-05)
(-0.000457184 -0.000118359 7.0294e-06)
(6.62407e-05 6.59092e-06 3.23138e-05)
(9.38366e-05 2.19302e-06 -6.90691e-06)
(0.000107569 -2.32029e-06 -1.69496e-05)
(0.000116135 -1.1226e-05 -2.39468e-05)
(0.000120522 -2.28948e-05 -2.78332e-05)
(0.000119566 -3.50204e-05 -2.80251e-05)
(0.000112927 -4.52827e-05 -2.43741e-05)
(9.87723e-05 -5.06301e-05 -1.72649e-05)
(7.0775e-05 -4.6166e-05 -9.80866e-06)
(-1.56802e-05 -4.68819e-05 -2.39576e-05)
(-1.47444e-05 -2.24535e-05 -5.20129e-05)
(-5.59435e-05 -3.77816e-05 -4.99097e-05)
(-0.000106572 -3.72775e-05 -2.94231e-05)
(-0.000185522 -4.86398e-05 -2.87633e-05)
(-0.000268229 -4.98937e-05 -1.57323e-05)
(-0.00028378 -6.85378e-05 3.53848e-06)
(-0.000305747 -7.1222e-05 2.2606e-05)
(-0.000310512 -7.77564e-05 3.31855e-05)
(-0.000305571 -7.30633e-05 3.82978e-05)
(-0.000295296 -8.17561e-05 3.80039e-05)
(-0.000321134 -4.79276e-05 3.17786e-05)
(-0.000285528 -7.46631e-05 2.27003e-05)
(-0.000296296 -6.79619e-05 1.67136e-05)
(-0.000285215 -8.71103e-05 4.43759e-06)
(5.71148e-05 3.4908e-06 2.82391e-05)
(8.42234e-05 -4.4994e-07 -4.59379e-06)
(9.79394e-05 -4.31233e-06 -1.3224e-05)
(0.000107105 -1.17291e-05 -1.95806e-05)
(0.000113136 -2.14465e-05 -2.38812e-05)
(0.000115882 -3.25875e-05 -2.55357e-05)
(0.000113898 -4.29045e-05 -2.41017e-05)
(0.000105855 -5.01518e-05 -1.99841e-05)
(8.83093e-05 -5.24773e-05 -1.51263e-05)
(5.70493e-05 -4.79584e-05 -1.4795e-05)
(3.39088e-05 -3.04104e-05 -1.59646e-05)
(-3.98695e-05 1.8459e-05 -4.54045e-05)
(-6.04309e-05 -3.36394e-05 -4.43601e-05)
(-7.64651e-05 -2.41266e-05 -2.42579e-05)
(-0.000141385 -6.31659e-05 -2.15756e-05)
(-0.000174349 -4.08513e-05 4.07367e-06)
(-0.000198211 -3.93488e-05 1.10073e-05)
(-0.000186391 -5.00645e-05 2.0336e-05)
(-0.0002012 -4.0054e-05 2.45326e-05)
(-0.000153836 -5.17476e-05 2.1096e-05)
(-0.000180072 -5.40156e-05 1.71704e-05)
(-0.000172029 -3.60423e-05 1.59564e-05)
(-0.000161057 -4.08354e-05 9.67579e-06)
(-0.000144371 -5.18133e-05 2.71547e-06)
(4.78668e-05 1.50101e-06 2.45709e-05)
(7.31256e-05 -2.61019e-06 -3.35059e-06)
(8.59656e-05 -6.48876e-06 -1.0265e-05)
(9.50032e-05 -1.29381e-05 -1.53112e-05)
(0.000101763 -2.1103e-05 -1.90841e-05)
(0.000106843 -3.04637e-05 -2.12889e-05)
(0.00010905 -3.9988e-05 -2.14562e-05)
(0.0001067 -4.78088e-05 -1.96754e-05)
(9.74328e-05 -5.23845e-05 -1.63544e-05)
(7.8078e-05 -5.31746e-05 -1.36379e-05)
(5.42747e-05 -3.56283e-05 -1.03272e-05)
(-1.19118e-05 -2.76968e-05 -2.83024e-05)
(-2.56011e-05 -4.78512e-06 -4.25002e-05)
(-3.17966e-05 -1.25814e-05 -2.63928e-05)
(-7.87336e-05 -4.98248e-05 -2.62061e-05)
(-6.78817e-05 -2.02618e-05 -4.61936e-06)
(-7.99982e-05 -3.47381e-05 -1.32007e-07)
(-6.38606e-05 -2.3178e-05 4.36182e-06)
(-8.03912e-05 -6.01499e-05 1.09235e-05)
(-5.02364e-05 -2.14492e-05 4.28898e-06)
(-7.69357e-05 -6.00194e-05 5.50488e-06)
(-7.37688e-05 -6.50723e-05 1.12216e-05)
(-6.28224e-05 -4.08639e-05 6.94482e-06)
(-6.48722e-05 -4.11886e-05 7.21958e-06)
(3.88416e-05 3.74032e-07 2.10391e-05)
(6.16888e-05 -4.15047e-06 -2.92332e-06)
(7.32816e-05 -8.44592e-06 -8.28755e-06)
(8.18232e-05 -1.45171e-05 -1.1921e-05)
(8.88229e-05 -2.17005e-05 -1.46352e-05)
(9.50415e-05 -2.95037e-05 -1.65219e-05)
(0.00010018 -3.76193e-05 -1.73521e-05)
(0.000102233 -4.48999e-05 -1.6975e-05)
(9.93903e-05 -5.05671e-05 -1.54562e-05)
(8.84422e-05 -5.35576e-05 -1.27833e-05)
(6.90135e-05 -4.82816e-05 -8.42393e-06)
(3.15723e-05 -3.62449e-05 -2.87306e-06)
(-1.61417e-05 1.48226e-05 -3.0112e-05)
(-1.21556e-05 -8.14933e-06 -3.07018e-05)
(-3.54814e-05 2.29071e-06 -3.07421e-05)
(-1.8298e-05 -1.30776e-05 -1.28854e-05)
(-3.67025e-05 -3.4509e-05 -6.34066e-06)
(-1.7539e-05 -1.69748e-05 -4.42671e-07)
(-3.30259e-05 -4.20379e-05 9.24121e-06)
(-7.81027e-06 -1.40376e-05 2.9667e-06)
(-3.73596e-05 -6.57702e-06 3.01155e-06)
(-1.63526e-05 -4.73911e-05 7.71579e-06)
(-1.63112e-05 -3.27822e-05 9.41252e-06)
(-5.97607e-06 -1.83207e-05 2.28231e-06)
(3.15773e-05 -4.46582e-07 1.78905e-05)
(5.17087e-05 -5.54334e-06 -2.98229e-06)
(6.18699e-05 -1.04193e-05 -7.06204e-06)
(6.96821e-05 -1.64598e-05 -9.43816e-06)
(7.65814e-05 -2.30875e-05 -1.10379e-05)
(8.32878e-05 -2.9832e-05 -1.22402e-05)
(8.97063e-05 -3.64185e-05 -1.30778e-05)
(9.44959e-05 -4.25915e-05 -1.342e-05)
(9.59875e-05 -4.7914e-05 -1.32079e-05)
(9.18194e-05 -5.21464e-05 -1.23224e-05)
(7.87713e-05 -5.21874e-05 -1.02901e-05)
(5.12793e-05 -4.40698e-05 -8.46837e-06)
(3.70985e-06 -3.00097e-05 -2.06743e-05)
(7.20186e-06 -1.99406e-05 -2.69403e-05)
(-1.78344e-05 1.65599e-06 -2.99157e-05)
(-8.60102e-06 -8.12125e-06 -2.63785e-05)
(-1.09205e-05 9.00292e-07 -1.49335e-05)