/*--------------------------------*- C++ -*----------------------------------*\
  =========                 |
  \\      /  F ield         | OpenFOAM: The Open Source CFD Toolbox
   \\    /   O peration     | Website:  https://openfoam.org
    \\  /    A nd           | Version:  6
     \\/     M anipulation  |
\*---------------------------------------------------------------------------*/
FoamFile
{
    version     2.0;
    format      ascii;
    class       volScalarField;
    location    "12";
    object      yPlus;
}
// * * * * * * * * * * * * * * * * * * * * * * * * * * * * * * * * * * * * * //

dimensions      [0 0 0 0 0 0 0];

internalField   uniform 0;

boundaryField
{
    inlet
    {
        type            calculated;
        value           uniform 0;
    }
    outlet
    {
        type            calculated;
        value           uniform 0;
    }
    roughCylinder
    {
        type            calculated;
        value           nonuniform List<scalar> 
3840
(
45.9375
54.3324
62.2507
69.2725
74.6022
78.5717
81.6
84.0077
86.0717
87.8896
89.5403
91.0869
92.6003
94.1499
95.7891
97.549
99.4366
101.441
103.541
105.704
107.887
110.012
111.889
113.135
45.1121
53.2411
60.9503
67.8742
73.1695
77.1229
80.1495
82.5684
84.6376
86.4437
88.0714
89.5896
91.0714
92.5863
94.1895
95.9106
97.7568
99.7176
101.77
103.885
106.016
108.091
109.921
111.136
44.2364
52.1291
59.634
66.4538
71.7189
75.6682
78.7068
81.1455
83.2225
85.0214
86.6307
88.1235
89.5751
91.0578
92.6249
94.3081
96.1136
98.0305
100.037
102.103
104.184
106.208
107.992
109.177
43.3467
50.9952
58.2992
65.0155
70.2551
74.2088
77.2709
79.7401
81.8319
83.6327
85.2257
86.6954
88.1202
89.5712
91.1055
92.7521
94.518
96.3923
98.3534
100.37
102.402
104.376
106.115
107.269
42.4003
49.8261
56.9263
63.5386
68.766
72.7439
75.8458
78.3519
80.463
82.2699
83.8534
85.3053
86.7054
88.1296
89.6312
91.2431
92.9713
94.8048
96.7215
98.692
100.675
102.6
104.295
105.419
41.5004
48.6473
55.5337
62.0425
67.2644
71.2724
74.4177
76.9692
79.1088
80.9307
82.5135
83.9516
85.3324
86.7297
88.2037
89.7829
91.4749
93.2686
95.1418
97.0657
99.0006
100.878
102.528
103.623
40.4781
47.3966
54.0644
60.4722
65.7083
69.7755
72.9894
75.5951
77.7682
79.6075
81.2
82.6315
83.9958
85.3742
86.8202
88.3689
90.0266
91.7821
93.6139
95.4935
97.3812
99.2121
100.82
101.886
39.5963
46.1681
52.5845
58.8809
64.1371
68.266
71.542
74.2081
76.4264
78.2993
79.9075
81.3422
82.6992
84.0577
85.4828
87.0038
88.6288
90.3473
92.138
93.9725
95.8142
97.5978
99.163
100.201
38.4516
44.7851
50.9522
57.1408
62.4402
66.6756
70.0648
72.8148
75.0893
76.9948
78.6291
80.0769
81.4307
82.782
84.1853
85.6807
87.2752
88.9585
90.7099
92.5016
94.2972
96.0372
97.5609
98.5709
37.5751
43.4757
49.3232
55.373
60.721
65.0655
68.5457
71.3804
73.7227
75.689
77.36
78.8275
80.1925
81.5358
82.9275
84.4013
85.9669
87.6155
89.3264
91.074
92.8238
94.5159
95.9972
96.98
36.2126
41.8774
47.4266
53.3275
58.7392
63.2595
66.9352
69.9099
72.3498
74.3708
76.0879
77.5895
78.9657
80.3163
81.6951
83.1492
84.6884
86.3038
87.9765
89.6809
91.3851
93.0347
94.4757
95.4309
35.1901
40.4011
45.5405
51.2424
56.7217
61.4244
65.2434
68.3539
70.8992
73.0219
74.807
76.3485
77.7564
79.1105
80.4896
81.93
83.4444
85.0267
86.659
88.3194
89.977
91.5779
92.9759
93.9042
33.8282
38.6179
43.248
48.656
54.183
59.1638
63.3457
66.7033
69.4233
71.6396
73.4985
75.1034
76.5405
77.9197
79.2949
80.7218
82.2145
83.7665
85.362
86.9781
88.5899
90.1504
91.5068
92.4082
32.4542
36.8823
40.9806
46.0198
51.5798
56.849
61.258
64.8755
67.7836
70.1727
72.151
73.8245
75.3216
76.72
78.1115
79.5351
81.0079
82.5278
84.0812
85.6529
87.2165
88.7239
90.0373
90.9119
30.4503
34.4997
37.9341
42.4112
47.8953
53.5932
58.7595
62.8402
66.0766
68.6392
70.7392
72.5203
74.0715
75.5194
76.9182
78.3353
79.7915
81.2844
82.8033
84.3263
85.8437
87.3135
88.5816
89.429
28.292
32.1757
35.0091
38.8165
44.1798
50.2874
55.7187
60.3911
64.0273
66.9154
69.2316
71.1305
72.7841
74.2739
75.7116
77.1402
78.5824
80.0427
81.5133
82.9927
84.4568
85.8649
87.0897
87.91
24.7457
28.3097
30.2648
32.9286
37.6632
44.4718
51.9072
57.4912
61.8109
65.0576
67.6001
69.6845
71.4312
73.0052
74.4647
75.8943
77.3257
78.7627
80.2033
81.6234
83.039
84.4132
85.5863
86.3786
20.0484
24.8948
26.5492
27.9359
32.5153
39.5567
46.2
53.5132
58.8214
62.773
65.746
68.0523
69.9784
71.6328
73.1654
74.6284
76.0534
77.4546
78.8325
80.2109
81.5643
82.8634
83.9888
84.7535
11.3816
13.8082
14.6145
13.2759
10.8264
21.8008
39.6016
48.3265
55.3824
60.1957
63.6565
66.3148
68.407
70.2008
71.7764
73.2495
74.67
76.0517
77.408
78.7068
80.0067
81.273
82.3409
83.076
10.6428
11.6961
11.1978
18.4045
7.30594
16.3476
21.2451
40.5754
49.9628
56.5701
61.0287
64.1646
66.6046
68.5583
70.2678
71.8097
73.2348
74.5736
75.8394
77.0962
78.3185
79.4946
80.4964
81.1977
17.0541
18.6611
18.9122
18.3768
16.6804
19.6126
23.8236
21.1917
43.2546
52.24
57.892
61.8137
64.5859
66.7891
68.5759
70.1436
71.5737
72.8944
74.1503
75.2951
76.4547
77.5848
78.5353
79.2096
22.0821
25.6871
26.9602
26.4199
25.0827
14.594
19.3782
14.4384
29.4863
45.0537
53.3837
58.4939
62.0388
64.5814
66.6374
68.3404
69.79
71.0572
72.1733
73.2596
74.3066
75.3402
76.1629
76.7929
25.4585
29.3844
31.9009
33.1939
32.6202
30.4413
24.385
22.7326
13.7253
35.0141
47.3846
54.7419
59.049
62.1145
64.3084
66.0702
67.5497
68.789
69.9051
70.8339
71.8244
72.7418
73.5738
74.1595
26.8025
30.9086
33.6235
35.5906
36.6612
36.6303
34.719
28.8848
29.9998
36.0392
36.8306
48.5838
54.8387
58.6583
61.4647
63.5138
65.0289
66.2004
67.0835
67.8751
68.6269
69.5093
70.0119
70.5811
26.4931
30.7646
33.694
35.9903
37.5472
38.3461
38.3329
36.9702
34.3128
36.6351
30.9398
41.6112
49.5259
54.6861
57.7394
59.8994
61.5154
62.6035
63.4916
64.0622
64.9502
65.3726
66.1686
66.5104
24.404
29.0172
32.2257
34.8681
36.8383
38.1428
38.8249
38.6414
35.5551
36.3364
4.24328
25.5393
41.5234
48.2169
52.8538
55.7492
57.3832
58.3883
58.8179
58.9345
59.0151
59.8453
59.6122
60.2187
21.4316
26.4221
29.8438
32.7342
35.0225
36.7391
38.008
38.8963
38.8585
35.6519
27.1938
31.1032
28.851
40.8637
46.2952
48.7561
50.796
51.3412
51.8939
51.7125
54.0322
52.1873
53.704
52.4462
18.3417
23.5388
26.9843
29.9433
32.4063
34.435
36.1518
37.682
38.9024
38.8077
34.1611
33.688
29.0029
24.86
33.7978
41.7497
43.293
43.9691
42.796
40.6927
39.6578
39.7446
39.4011
39.8753
15.7236
20.8271
24.0796
26.9133
29.3834
31.5897
33.6511
35.6877
37.6499
39.033
38.7574
30.7544
33.4507
19.0317
33.7719
23.054
25.4617
22.0946
29.5894
21.2898
33.9708
31.2309
27.2751
36.1754
13.401
18.3257
21.3223
23.9597
26.3498
28.6184
30.8816
33.2406
35.7145
37.9892
39.2613
36.0501
35.289
20.1004
33.3772
13.0515
29.2408
14.5583
39.0161
5.11473
40.4154
40.5311
36.946
15.6101
11.7664
16.3995
19.0964
21.4931
23.7408
25.9687
28.2774
30.7489
33.4408
36.2464
38.6095
38.929
34.84
28.906
29.1799
27.138
30.9494
25.9513
36.2375
31.4771
35.4811
41.1032
40.3489
31.9851
10.8289
15.15
17.5928
19.7821
21.8825
24.0041
26.2218
28.6072
31.2415
34.1647
37.1533
39.2484
39.0839
37.7109
32.7257
29.5896
28.2894
31.5849
33.2304
37.1614
31.0373
37.7861
35.1444
40.9974
10.4227
14.6038
16.878
18.9321
20.9183
22.9115
24.9581
27.1198
29.4921
32.1921
35.24
38.2123
40.119
40.6435
39.2524
37.0164
37.419
40.1176
39.827
41.867
39.2224
42.8942
40.4417
44.3096
10.5224
14.6203
16.828
18.8331
20.7586
22.6435
24.5108
26.4127
28.442
30.7318
33.4206
36.4622
39.3179
40.9786
41.1927
40.3571
40.8533
42.2588
41.5593
42.598
41.895
43.4713
42.6589
44.34
10.9315
15.043
17.2716
19.2974
21.212
23.0277
24.7532
26.4318
28.1433
30.0026
32.1642
34.7578
37.6546
40.0299
41.3007
41.394
41.7227
42.5835
41.7407
42.3771
42.221
42.5885
42.6747
43.49
11.5332
15.7426
18.0369
20.1265
22.0723
23.864
25.5015
27.023
28.495
30.0048
31.6759
33.6653
36.0593
38.476
40.3449
41.1813
41.5514
41.9838
41.1309
41.3456
41.1672
40.8999
41.3609
41.917
12.3565
16.6509
19.0228
21.1929
23.1889
24.9859
26.5821
28.0145
29.3375
30.6108
31.9175
33.3824
35.1406
37.1223
38.9898
40.1863
40.6635
40.8116
39.9996
39.8603
39.5409
39.0383
39.626
40.1952
13.3491
17.701
20.1592
22.4158
24.4696
26.288
27.8743
29.2687
30.5176
31.6582
32.7367
33.8325
35.0603
36.4728
37.9496
39.0948
39.583
39.5546
38.8121
38.42
38.009
37.5418
38.1697
38.8209
14.3981
18.8386
21.3936
23.7402
25.8552
27.7053
29.3031
30.6943
31.9205
33.0038
33.9641
34.8409
35.7075
36.6381
37.6226
38.4581
38.8104
38.6408
37.9464
37.4019
36.9779
36.6848
37.3444
38.0665
15.4711
20.0271
22.6892
25.1285
27.3069
29.1956
30.8192
32.2298
33.4656
34.5391
35.4541
36.2238
36.8822
37.4825
38.0508
38.5096
38.6266
38.305
37.6122
36.9855
36.5985
36.5186
37.2172
37.9816
16.2573
16.7032
17.1708
17.5256
17.8529
18.0977
18.3086
18.46
18.5772
18.65
18.6938
18.7024
18.683
18.6337
18.5581
18.4573
18.3347
18.1937
18.0448
17.9186
17.9243
18.0551
18.2056
18.347
18.4694
18.5697
18.6446
18.6929
18.7115
18.7021
18.6575
18.5841
18.4664
18.3145
18.103
17.8579
17.5301
17.1762
16.7096
16.2685
20.9152
21.3486
21.824
22.1943
22.5465
22.8253
23.0737
23.2691
23.432
23.5537
23.6463
23.7053
23.7344
23.7314
23.6969
23.6308
23.535
23.412
23.2709
23.1431
23.147
23.2776
23.4189
23.5413
23.636
23.7009
23.7342
23.736
23.7058
23.646
23.5528
23.4308
23.2677
23.0722
22.8241
22.5457
22.1942
21.8257
21.3524
20.9243
23.6582
24.1133
24.6253
25.0307
25.4276
25.7562
26.0593
26.3142
26.5403
26.7275
26.8859
27.0121
27.1079
27.1701
27.1973
27.1877
27.1415
27.0609
26.9545
26.8539
26.8566
26.9586
27.0642
27.1434
27.1877
27.1954
27.1664
27.1026
27.0055
26.8784
26.7196
26.5323
26.3062
26.0519
25.7498
25.4225
25.0271
24.6243
24.1151
23.6653
26.1543
26.6187
27.153
27.5794
28.0065
28.3694
28.712
29.0106
29.2861
29.5276
29.7422
29.9256
30.0782
30.1958
30.2761
30.316
30.3148
30.2745
30.2045
30.136
30.1374
30.2063
30.2747
30.3128
30.3115
30.269
30.1863
30.0666
29.9125
29.728
29.5131
29.2717
28.9967
28.6993
28.3583
27.9976
27.5729
27.1498
26.6192
26.1604
28.3619
28.8137
29.3491
29.7772
30.2148
30.5943
30.9623
31.2939
31.6062
31.8896
32.1479
32.3768
32.5746
32.7367
32.8594
32.9392
32.9743
32.9661
32.9245
32.8782
32.8788
32.9245
32.9639
32.9691
32.9309
32.8481
32.7225
32.5579
32.3582
32.1282
31.8691
31.5859
31.2745
30.9447
30.5789
30.2027
29.7686
29.3447
28.8139
28.3683
30.2634
30.6896
31.2169
31.641
32.0858
32.4817
32.8717
33.2322
33.5767
33.8959
34.192
34.4595
34.6958
34.8953
35.0536
35.1661
35.2301
35.2467
35.2253
35.1923
35.1923
35.224
35.2425
35.2224
35.1545
35.0384
34.8768
34.6744
34.436
34.1668
33.8701
33.5509
33.2076
32.8491
32.462
32.0698
31.6296
31.2108
30.6891
30.2699
31.8976
32.299
32.8212
33.2474
33.7023
34.1155
34.5268
34.9135
35.2865
35.637
35.9653
36.2657
36.534
36.7645
36.9515
37.0899
37.1763
37.211
37.2029
37.1773
37.1768
37.2004
37.205
37.1661
37.0754
36.9328
36.7419
36.5081
36.2371
35.935
35.6058
35.2555
34.8836
34.499
34.0908
33.6818
33.2321
32.8123
32.2964
31.9034
33.3212
33.7014
34.2238
34.6546
35.1198
35.5491
35.9791
36.3883
36.7851
37.1612
37.5157
37.8423
38.1361
38.3908
38.6001
38.7581
38.861
38.9085
38.909
38.8874
38.8866
38.9054
38.9007
38.8483
38.7406
38.5778
38.3643
38.106
37.8091
37.4803
37.1248
36.7487
36.3528
35.946
35.5192
35.0945
34.6347
34.211
33.6959
33.3249
34.5687
34.928
35.4498
35.8845
36.3585
36.8013
37.2467
37.6739
38.0899
38.4863
38.8613
39.2082
39.5216
39.7945
40.0204
40.1931
40.3082
40.3655
40.373
40.3551
40.3539
40.3682
40.3559
40.2931
40.1725
39.9946
39.7639
39.4868
39.1701
38.8209
38.4447
38.0482
37.6331
37.2081
36.766
36.328
35.8597
35.4325
34.9184
34.5691
35.6459
35.9815
36.5001
36.9374
37.4185
37.8727
38.331
38.7733
39.2049
39.6175
40.0084
40.3709
40.699
40.9857
41.2242
41.4082
41.5335
41.5999
41.6156
41.6035
41.6018
41.6093
41.5881
41.5157
41.3843
41.1945
40.9509
40.6596
40.3279
39.9627
39.5703
39.1574
38.7267
38.2867
37.8318
37.3824
36.9073
36.4775
35.9669
35.6421
36.5487
36.8544
37.3661
37.8049
38.2922
38.7571
39.2275
39.6834
40.1285
40.5549
40.9589
41.3339
41.6736
41.9711
42.2195
42.413
42.5476
42.6238
42.6498
42.646
42.6435
42.6419
42.6095
42.5266
42.3853
42.1856
41.9315
41.6292
41.2855
40.9076
40.5019
40.0751
39.6308
39.1772
38.7102
38.2502
37.7688
37.3377
36.8342
36.5398
37.2754
37.5372
38.036
38.4744
38.9677
39.4438
39.9266
40.3962
40.8548
41.2939
41.71
42.0958
42.4455
42.7521
43.0091
43.2112
43.355
43.4418
43.4792
43.4842
43.4811
43.4693
43.4246
43.3305
43.1793
42.9704
42.7073
42.3955
42.0416
41.6525
41.2348
40.7951
40.3374
39.8701
39.3908
38.9195
38.4322
38.0013
37.5101
37.2592
37.8334
38.0199
38.493
38.928
39.4263
39.9145
40.411
40.8954
41.3682
41.8208
42.2488
42.6454
43.0044
43.3195
43.5846
43.7949
43.9479
44.0449
44.0931
44.1061
44.1022
44.0812
44.0246
43.9194
43.7584
43.5407
43.269
42.9484
42.5848
42.185
41.7552
41.3022
40.8304
40.3483
39.8555
39.3722
38.8798
38.4514
37.9849
37.8066
38.2476
38.3011
38.7163
39.1393
39.6402
40.1409
40.6522
41.1531
41.6417
42.1089
42.5499
42.9579
43.3269
43.6507
43.924
44.1424
44.3041
44.4106
44.4681
44.4873
44.4827
44.454
44.387
44.2714
44.1009
43.8745
43.5942
43.2645
42.8908
42.4796
42.0369
41.5695
41.0822
40.5839
40.0766
39.581
39.0855
38.6678
38.2562
38.2037
38.5372
38.3852
38.6921
39.079
39.5758
40.0882
40.615
41.1338
41.6397
42.1232
42.5787
42.9993
43.3792
43.7126
43.9945
44.2212
44.3912
44.5059
44.571
44.5949
44.5895
44.5548
44.479
44.3541
44.1746
43.9393
43.6499
43.3103
42.9256
42.5018
42.0449
41.5616
41.0577
40.5424
40.0205
39.5137
39.0225
38.6398
38.3316
38.4731
38.6633
38.2651
38.4209
38.7396
39.2138
39.7333
40.2738
40.8097
41.3328
41.8329
42.3034
42.7374
43.1291
43.4727
43.7636
43.9984
44.176
44.2978
44.3688
44.3961
44.39
44.3504
44.2676
44.1346
43.9466
43.7024
43.4037
43.0535
42.657
42.2199
41.7481
41.2485
40.7281
40.1966
39.6622
39.15
38.6832
38.3704
38.2141
38.5983
38.4649
37.8744
37.8908
38.1311
38.5689
39.0842
39.6359
40.1852
40.7226
41.2367
41.7204
42.1663
42.5684
42.9211
43.22
43.4617
43.6454
43.7723
43.8471
43.8766
43.8697
43.8266
43.7387
43.5995
43.4047
43.153
42.8457
42.4861
42.079
41.6301
41.1453
40.6325
40.0986
39.5556
39.0129
38.5094
38.0859
37.8617
37.8602
38.4584
37.8772
37.2016
37.1374
37.3166
37.7172
38.2172
38.7692
39.3276
39.8733
40.3959
40.8872
41.34
41.7481
42.1059
42.4088
42.6539
42.8399
42.9684
43.0441
43.0738
43.0663
43.0217
42.9319
42.7901
42.5922
42.3367
42.0248
41.6599
41.2465
40.7904
40.298
39.7767
39.2351
38.6839
38.1426
37.658
37.2797
37.1318
37.242
37.9799
37.088
36.3832
36.2853
36.4312
36.8068
37.2914
37.8373
38.3955
38.941
39.4636
39.9545
40.4066
40.8133
41.1691
41.4695
41.7114
41.8936
42.018
42.0897
42.1166
42.1083
42.0653
41.9785
41.8403
41.6457
41.3931
41.0837
40.7209
40.3093
39.8549
39.3643
38.845
38.3066
37.76
37.2308
36.7693
36.4259
36.3241
36.4798
37.2626
36.5257
35.78
35.6515
35.7668
36.1155
36.5772
37.1044
37.6476
38.1806
38.6918
39.1718
39.6132
40.0092
40.3543
40.6438
40.8745
41.0452
41.158
41.2191
41.2391
41.2306
41.1942
41.1181
40.9921
40.8096
40.5689
40.2713
39.92
39.5198
39.0766
38.5971
38.0888
37.5616
37.027
36.5115
36.0655
35.737
35.6482
35.8108
36.6041
36.2407
35.5542
35.4589
35.5808
35.9191
36.3592
36.859
37.3729
37.879
38.3646
38.8201
39.2379
39.6112
39.9343
40.2025
40.4125
40.5628
40.655
40.6964
40.7019
40.6915
40.6668
40.6089
40.5023
40.3394
40.1183
39.8406
39.5097
39.1302
38.708
38.2496
37.763
37.2577
36.7465
36.2518
35.8206
35.4974
35.3988
35.5313
36.2738
36.6199
35.9423
35.8488
35.9586
36.2745
36.6842
37.1481
37.6238
38.0958
38.5494
38.975
39.3644
39.7108
40.0085
40.253
40.4406
40.5692
40.6401
40.6602
40.6488
40.6396
40.6359
40.6046
40.5251
40.3895
40.1969
39.949
39.6495
39.3031
38.9153
38.4923
38.0419
37.5728
37.0982
36.6322
36.215
35.8826
35.7416
35.7861
36.3857
37.1268
36.567
36.5448
36.6836
37.0013
37.3918
37.8258
38.2692
38.7076
39.1277
39.5204
39.8779
40.1939
40.4632
40.6811
40.8441
40.9498
40.9985
40.9959
40.9625
40.9466
40.957
40.9437
40.8821
40.7653
40.5928
40.3668
40.0911
39.7701
39.4094
39.0151
38.595
38.1582
37.7179
37.2889
36.9045
36.5969
36.4723
36.5186
37.1142
37.6253
37.1391
37.1635
37.3224
37.6427
38.0219
38.4368
38.8582
39.273
39.669
40.0379
40.3723
40.6662
40.9145
41.113
41.2579
41.3469
41.3798
41.3618
41.3128
41.2898
41.3054
41.2988
41.2445
41.1359
40.973
40.7584
40.4958
40.1899
39.8464
39.4717
39.0743
38.6639
38.255
37.8638
37.5229
37.2579
37.1762
37.2559
37.8843
45.904
54.3165
62.24
69.264
74.5952
78.5648
81.5933
84.001
86.065
87.8829
89.5337
91.0805
92.5944
94.1445
95.7843
97.5452
99.4343
101.441
103.543
105.711
107.898
110.026
111.905
113.142
45.1125
53.2458
60.9515
67.8718
73.1658
77.118
80.1436
82.5618
84.6308
86.4369
88.0647
89.583
91.0651
92.5806
94.1845
95.9067
97.7544
99.7171
101.773
103.892
106.027
108.105
109.939
111.143
44.2399
52.1332
59.6335
66.4489
71.7122
75.6611
78.6998
81.1386
83.2157
85.0144
86.6238
88.1168
89.5688
91.052
92.6198
94.3039
96.111
98.0305
100.04
102.11
104.195
106.224
108.011
109.184
43.358
51.0047
58.3047
65.0167
70.2535
74.2052
77.2659
79.7339
81.8251
83.6259
85.2188
86.6886
88.1134
89.565
91.1
92.7478
94.5153
96.3919
98.3562
100.378
102.414
104.393
106.135
107.275
42.4013
49.8267
56.9245
63.5338
68.7591
72.7361
75.8382
78.3447
80.4561
82.2626
83.8462
85.2983
86.6989
88.1235
89.6259
91.2385
92.9684
94.8043
96.7248
98.7002
100.687
102.618
104.315
105.425
41.504
48.6516
55.5375
62.0448
67.2647
71.2706
74.4142
76.9639
79.1023
80.924
82.5066
83.9446
85.325
86.723
88.1976
89.7782
91.4717
93.2678
95.145
97.0742
99.0137
100.897
102.551
103.63
40.4757
47.3951
54.0619
60.4678
65.7017
69.7675
72.9813
75.5875
77.7613
79.6003
81.1925
82.6244
83.9894
85.3678
86.8146
88.3639
90.0233
91.7816
93.6175
95.5028
97.3961
99.2323
100.844
101.893
39.5931
46.1692
52.5879
58.8847
64.1398
68.267
71.5408
74.2046
76.4207
78.2929
79.901
81.3351
82.6914
84.0506
85.4761
86.9986
88.6251
90.3463
92.1412
93.9822
95.8289
97.6199
99.1889
100.207
38.4539
44.7877
50.9532
57.1388
62.4347
66.6674
70.0561
72.8066
75.0826
76.9884
78.6219
80.0697
81.4245
82.7754
84.1796
85.6751
87.2715
88.9578
90.7139
92.5126
94.3148
96.0604
97.5887
98.5779
37.5688
43.4767
49.3291
55.3814
60.7297
65.0728
68.5494
71.3804
73.7186
75.6827
77.3538
78.8209
80.1845
81.5283
82.9198
84.3955
85.9626
87.614
89.3304
91.0853
92.8409
94.542
96.0282
96.9858
36.2241
41.888
47.4341
53.3292
58.7339
63.2483
66.9237
69.9001
72.3435
74.3661
76.0817
77.5823
78.9598
80.3096
81.6895
83.143
84.6841
86.3028
87.9817
89.6948
91.406
93.0632
94.5092
95.4374
35.1864
40.4076
45.5565
51.265
56.7472
61.4497
65.2608
68.3621
70.8978
73.0156
74.8008
76.343
77.7488
79.103
80.481
81.9235
83.4393
85.0247
86.6632
88.3324
89.9974
91.6101
93.0134
93.9095
33.8494
38.6373
43.2626
48.6609
54.1728
59.1396
63.3232
66.6884
69.4188
71.6384
73.4951
75.0967
76.5345
77.9127
79.2893
80.7149
82.2094
83.765
85.3685
86.9963
88.615
90.1843
91.5484
92.414
32.4699
36.9125
41.0281
46.0816
51.6521
56.9249
61.3117
64.9025
67.7856
70.1664
72.1447
73.8208
75.3156
76.7131
78.102
79.5275
81.0014
82.5249
84.0863
85.6673
87.2429
88.7654
90.0844
90.916
30.4848
34.5311
37.9595
42.4221
47.8709
53.5256
58.7041
62.8131
66.0786
68.6446
70.7404
72.5146
74.0646
75.5115
76.9121
78.3274
79.7853
81.2816
82.8107
84.3518
85.8736
87.3543
88.6343
89.4327
28.401
32.289
35.1469
38.9784
44.375
50.5277
55.8801
60.4588
64.0292
66.9091
69.2269
71.1305
72.7823
74.2685
75.7015
77.1307
78.5737
80.0383
81.5208
83.0082
84.4919
85.9191
87.1502
87.9117
24.7907
28.4015
30.3706
33.0657
37.716
44.1948
51.7111
57.4364
61.841
65.075
67.6066
69.6799
71.4215
72.9955
74.4574
75.8849
77.3178
78.7573
80.2099
81.6597
83.0748
84.4653
85.6562
86.379
20.9284
25.1696
26.7407
28.1147
32.6529
40.6638
46.8782
53.6807
58.7907
62.7705
65.7523
68.0621
69.9864
71.6306
73.1546
74.6157
76.0402
77.4473
78.8455
80.2288
81.6128
82.9342
84.0688
84.7497
7.94209
15.4849
16.1625
13.862
14.913
20.2984
38.5502
48.244
55.5369
60.2314
63.6683
66.311
68.3904
70.1875
71.7674
73.2371
74.6591
76.0408
77.4108
78.7565
80.0504
81.3447
82.4359
83.0692
2.70076
10.9133
13.2804
14.8748
11.0522
21.9881
19.9888
40.2061
49.7071
56.6138
61.0774
64.2012
66.6328
68.5618
70.2539
71.7915
73.2136
74.5605
75.8621
77.1231
78.3883
79.5855
80.6092
81.1884
14.7235
17.3858
17.6855
18.3854
15.1426
22.6914
24.2962
26.8431
43.8883
52.2286
57.9321
61.815
64.5569
66.7678
68.5695
70.1249
71.5555
72.8723
74.1458
75.3592
76.5069
77.6913
78.6633
79.1849
23.1118
26.167
27.1849
26.4952
25.9241
21.6363
27.6253
30.2823
30.1198
45.6154
53.5848
58.6072
62.1072
64.5945
66.6055
68.3104
69.7553
71.0318
72.2097
73.3133
74.4188
75.4609
76.3484
76.7751
25.3861
29.327
31.8086
32.9899
32.2656
29.9113
25.0784
28.5293
33.8561
34.1512
47.7263
54.7642
58.9897
62.0723
64.3309
66.0378
67.5099
68.7407
69.8905
70.9138
71.8626
72.9101
73.7219
74.1093
26.8571
30.9319
33.6138
35.5388
36.544
36.4079
34.3344
27.3034
26.9094
14.9589
38.2978
48.8471
54.9984
58.6884
61.3518
63.4525
64.9703
66.1493
67.1373
68.0016
68.8603
69.6938
70.3905
70.5211
26.6046
30.8659
33.7824
36.0525
37.5694
38.3184
38.229
36.7115
29.8995
20.2669
22.1229
41.5006
49.3402
54.5463
57.9119
59.827
61.4035
62.4913
63.4533
64.1824
64.7751
65.6723
66.2028
66.521
24.6624
29.2501
32.4442
35.0621
36.9929
38.2373
38.8375
38.5971
35.6706
33.6423
18.5762
27.2725
42.5836
48.3888
52.3739
55.5926
57.2791
58.2743
58.8941
59.2638
59.7025
60.2652
60.5879
59.9236
21.7341
26.7039
30.1173
32.9898
35.2448
36.9058
38.0851
38.8366
38.5782
34.5613
30.8578
15.9583
25.6688
39.6889
46.9894
48.5792
50.3088
51.1757
51.6156
52.3314
51.5424
53.1041
52.2417
54.0784
18.6084
23.8025
27.2564
30.2144
32.6623
34.6608
36.3252
37.7705
38.82
38.3119
33.4509
26.7417
28.266
28.2545
34.5399
41.0594
43.276
44.0922
43.3667
41.2711
41.8134
42.0756
41.293
37.1622
15.9144
21.0353
24.3035
27.1439
29.6113
31.8071
33.8511
35.8593
37.7588
38.9326
37.764
29.7536
33.9433
17.825
16.3753
28.852
20.4033
24.2834
19.0751
31.7771
10.7045
45.5116
8.66735
32.1838
13.5056
18.4506
21.4623
24.1083
26.501
28.7687
31.032
33.3936
35.8761
38.1234
39.1575
36.276
27.1468
24.2806
25.8674
37.9244
21.6122
25.0742
13.2806
35.8482
9.55648
44.5578
36.0584
38.6469
11.7894
16.4374
19.1449
21.5481
23.7983
26.0259
28.3359
30.8152
33.5321
36.3766
38.7296
39.1752
35.3129
28.9371
27.1204
32.0437
23.4719
35.0121
29.5194
38.5579
33.0275
39.8844
34.3643
29.854
10.8012
15.1261
17.5726
19.7644
21.8653
23.9848
26.199
28.584
31.2286
34.1826
37.2117
39.3731
39.4539
37.1324
32.3006
29.2655
29.1439
28.0515
35.8541
33.8552
37.3589
33.2753
40.9543
37.329
10.3682
14.5454
16.8191
18.8736
20.8596
22.8503
24.8912
27.0448
29.4087
32.1092
35.1748
38.1864
40.1184
40.2714
38.8214
38.6609
39.2168
36.6035
41.8088
40.4588
41.802
41.016
44.0056
43.1682
10.465
14.5522
16.7572
18.7623
20.6881
22.5715
24.4334
26.3248
28.3382
30.6101
33.2887
36.3404
39.2049
40.8573
41.1577
41.6179
42.0084
40.5104
42.6648
42.1852
42.2497
42.8825
43.724
44.1106
10.8879
14.9784
17.204
19.2309
21.1467
22.9618
24.6834
26.3533
28.0506
29.8907
32.0332
34.6244
37.5444
40.0664
41.5103
42.3508
42.6424
41.5708
42.1802
42.0683
41.7968
42.631
42.6312
43.2365
11.5231
15.6864
17.9791
20.0711
22.0183
23.8098
25.4447
26.9607
28.4237
29.9204
31.5775
33.5652
35.9933
38.5801
40.649
41.8841
42.178
41.2961
41.0729
41.0154
40.5994
41.2898
41.0086
41.4102
12.2952
16.6015
18.9777
21.1504
23.1472
24.9437
26.5383
27.9678
29.2865
30.5536
31.8537
33.3214
35.1128
37.2291
39.2793
40.6871
41.0367
40.279
39.6807
39.5362
39.036
39.5614
39.2821
39.5142
13.3216
17.6693
20.1279
22.3854
24.4391
26.2565
27.8416
29.2348
30.4829
31.6222
32.7
33.8018
35.0561
36.5572
38.1659
39.4179
39.7682
39.1483
38.43
38.1465
37.6451
38.0511
37.9334
38.1353
14.3722
18.8144
21.3718
23.7196
25.8341
27.6831
29.2802
30.6714
31.8989
32.984
33.947
34.8312
35.7172
36.7004
37.7645
38.6462
38.8819
38.3535
37.6077
37.1982
36.7526
37.1108
37.2164
37.4931
15.4565
20.0131
22.6765
25.1162
27.2938
29.1816
30.8052
32.2168
33.4552
34.5318
35.4514
36.2286
36.9013
37.5317
38.1427
38.6162
38.6464
38.1188
37.353
36.8494
36.484
36.8448
37.1721
37.5643
45.9154
44.2468
43.4289
41.7899
40.8433
39.3143
38.2424
36.7942
35.8121
34.4459
33.4528
32.3191
31.4157
30.366
29.5554
28.6236
28.0512
27.3868
27.032
26.5953
26.5948
27.0387
27.3743
27.9676
28.8168
29.4816
30.3615
31.4161
32.3107
33.4547
34.4816
35.7506
36.8036
38.2929
39.3059
40.8457
41.8189
43.4074
44.3319
45.9842
54.5337
53.0264
52.2279
50.8041
49.8877
48.6037
47.5514
46.374
45.465
44.2906
43.3884
42.4402
41.6625
40.7579
40.1329
39.3758
38.9486
38.3495
38.1331
37.8525
37.8525
38.1343
38.3476
38.8183
39.4951
40.0487
40.7404
41.6581
42.4457
43.3987
44.3936
45.4128
46.3709
47.6395
48.6026
49.8877
50.8092
52.2234
53.0886
54.5778
62.58
61.1516
60.3432
59.0003
58.076
56.8429
55.8557
54.7355
53.7972
52.7494
51.8604
50.9619
50.1692
49.3849
48.7275
48.0973
47.6065
47.153
46.8776
46.691
46.691
46.8778
47.153
47.5722
48.1196
48.7115
49.379
50.1678
50.9667
51.861
52.7837
53.7873
54.7323
55.8859
56.8491
58.0827
59.0055
60.345
61.1761
62.6011
69.5974
68.1544
67.2609
65.9021
64.9144
63.6595
62.6423
61.5015
60.5162
59.4886
58.571
57.6751
56.8636
56.1059
55.4353
54.8395
54.3418
53.9405
53.6618
53.5083
53.5084
53.6621
53.9407
54.3381
54.8413
55.4336
56.1061
56.8648
57.678
58.573
59.4955
60.5177
61.5034
62.6506
63.6646
64.9202
65.9084
67.2664
68.1646
69.6066
74.8813
73.385
72.3988
70.9946
69.9339
68.6439
67.5737
66.4066
65.38
64.3404
63.3984
62.4947
61.6736
60.9189
60.2498
59.6661
59.1799
58.7986
58.5336
58.3931
58.3932
58.534
58.799
59.1797
59.6664
60.2499
60.9199
61.6753
62.497
63.4009
64.3436
65.3828
66.4099
67.5783
68.6484
69.939
71.0003
72.405
73.3924
74.8875
78.8095
77.2711
76.214
74.7789
73.6623
72.3527
71.242
70.0622
69.0094
67.9624
67.0079
66.1018
65.2789
64.5286
63.8657
63.2927
62.8186
62.4509
62.1975
62.0648
62.065
62.1979
62.4515
62.8191
63.2931
63.8664
64.5299
65.2808
66.1042
67.0105
67.9653
69.0125
70.0657
71.2462
72.3572
73.6672
74.7843
76.2201
77.2779
78.8157
81.8046
80.2391
79.1273
77.6781
76.5197
75.202
74.0632
72.878
71.8095
70.7594
69.7991
68.8933
68.0714
67.3257
66.6689
66.104
65.6391
65.2805
65.0348
64.9071
64.9073
65.0352
65.2812
65.6398
66.1048
66.67
67.3272
68.0734
68.8957
69.8017
70.7624
71.8128
72.8818
74.0674
75.2065
76.5247
77.6835
79.1332
80.2455
81.811
84.1806
82.5963
81.4395
79.9846
78.7966
77.4757
76.3187
75.13
74.0518
72.9991
72.035
71.1289
70.307
69.5634
68.9097
68.3489
67.8886
67.5347
67.2928
67.1676
67.1677
67.2933
67.5354
67.8895
68.3499
68.9109
69.5651
70.3091
71.1312
72.0376
73.0022
74.0552
75.1338
76.3228
77.4802
78.8015
79.9899
81.4453
82.6025
84.1871
86.22
84.6178
83.4258
81.9606
80.7495
79.4195
78.2473
77.0503
75.9616
74.9021
73.9306
73.0194
72.1928
71.4458
70.7893
70.2269
69.7655
69.411
69.1687
69.0431
69.0432
69.1692
69.4116
69.7664
70.228
70.7907
71.4475
72.1948
73.0217
73.9333
74.9051
75.965
77.054
78.2514
79.4239
80.7543
81.9658
83.4315
84.6239
86.2265
88.0304
86.4006
85.1863
83.7032
82.4744
81.1309
79.944
78.7357
77.6346
76.5651
75.5833
74.6633
73.8282
73.0737
72.4103
71.8419
71.3754
71.0167
70.7712
70.6432
70.6434
70.7716
71.0174
71.3763
71.843
72.4117
73.0753
73.8302
74.6656
75.5859
76.568
77.6379
78.7393
79.948
81.1353
82.4791
83.7083
85.1918
86.4066
88.0368
89.683
88.0237
86.7901
85.2868
84.0399
82.6803
81.4769
80.254
79.138
78.0552
77.0599
76.1275
75.2803
74.5145
73.8406
73.2626
72.7876
72.4218
72.1708
72.0391
72.0392
72.1712
72.4225
72.7886
73.2637
73.842
74.5161
75.2822
76.1296
77.0624
78.058
79.1412
80.2575
81.4807
82.6844
84.0445
85.2918
86.7955
88.0295
89.6892
91.2376
89.5466
88.2968
86.7699
85.5056
84.1265
82.9057
81.6654
80.5327
79.4335
78.4223
77.4746
76.6125
75.8325
75.1451
74.5545
74.0684
73.6931
73.4347
73.2982
73.2983
73.4351
73.6937
74.0693
74.5557
75.1464
75.834
76.6143
77.4767
78.4247
79.4362
80.5356
81.6687
82.9093
84.1305
85.51
86.7746
88.302
89.5521
91.2435
92.7618
91.0373
89.7725
88.2198
86.9375
85.5368
84.2971
83.0373
81.8859
80.7683
79.739
78.7736
77.8942
77.0975
76.3941
75.7885
75.2888
74.9019
74.6347
74.4924
74.4925
74.635
74.9025
75.2896
75.7896
76.3953
77.099
77.8959
78.7755
79.7412
80.7707
81.8886
83.0403
84.3005
85.5404
86.9416
88.2241
89.7773
91.0424
92.7675
94.323
92.5629
91.2829
89.7021
88.4008
86.9761
85.7161
84.4345
83.2626
82.1244
81.075
80.0897
79.1909
78.3751
77.6533
77.0304
76.5149
76.1144
75.8366
75.6877
75.6878
75.837
76.1149
76.5156
77.0313
77.6544
78.3764
79.1923
80.0914
81.0769
82.1265
83.265
84.4372
85.7191
86.9794
88.4044
89.706
91.2873
92.5676
94.3282
95.975
94.1765
92.8803
91.2686
89.9467
88.4957
87.2134
85.9077
84.7132
83.5521
82.4805
81.4731
80.5524
79.7153
78.9728
78.3301
77.7963
77.3801
77.0901
76.9336
76.9337
77.0904
77.3805
77.797
78.3309
78.9737
79.7164
80.5537
81.4744
82.482
83.5539
84.7152
85.9099
87.2159
88.4984
89.9498
91.2719
92.8839
94.1805
95.9795
97.748
95.9088
94.5942
92.9495
91.6047
90.125
88.8182
87.4861
86.2668
85.0805
83.9843
82.9525
82.0079
81.147
80.3812
79.7161
79.1615
78.727
78.4228
78.2575
78.2575
78.423
78.7273
79.162
79.7167
80.3819
81.1478
82.0088
82.9535
83.9854
85.0818
86.2682
87.4877
88.82
90.127
91.607
92.952
94.597
95.9118
97.7514
99.6493
97.7674
96.4326
94.7526
93.3829
91.8724
90.5389
89.1784
87.9322
86.7187
85.5959
84.5377
83.5667
82.6799
81.8883
81.1982
80.6198
80.1641
79.8433
79.6677
79.6678
79.8434
80.1644
80.6201
81.1985
81.8888
82.6803
83.5672
84.5382
85.5965
86.7194
87.9329
89.1793
90.5399
91.8735
93.3842
94.7541
96.4342
97.7691
99.6514
101.669
99.7429
98.3867
96.6703
95.2738
93.7309
92.3695
90.9787
89.704
88.4618
87.3108
86.2243
85.2253
84.3104
83.4909
82.773
82.1679
81.6879
81.3474
81.1597
81.1597
81.3474
81.6879
82.1679
82.773
83.4909
84.3104
85.2252
86.2242
87.3106
88.4616
89.7039
90.9786
92.369
93.7309
95.2738
96.6699
98.3867
99.7429
101.669
103.786
101.815
100.436
98.6831
97.2594
95.6837
94.2928
92.8712
91.567
90.2951
89.1147
87.9991
86.9707
86.0265
85.1771
84.4292
83.7943
83.2863
82.9225
82.7203
82.7203
82.9224
83.2861
83.794
84.4288
85.1765
86.0258
86.9702
87.9982
89.1139
90.2938
91.5656
92.8695
94.291
95.6819
97.2575
98.6808
100.434
101.813
103.783
105.969
103.955
102.554
100.763
99.3123
97.7035
96.2835
94.8311
93.4973
92.1956
90.9861
89.8406
88.7825
87.808
86.9276
86.1477
85.4801
84.9402
84.5486
84.3284
84.3283
84.5482
84.9398
85.4792
86.1465
86.9264
87.8063
88.7808
89.8385
90.9836
92.193
93.4947
94.828
96.28
97.6994
99.3078
100.759
102.548