/*--------------------------------*- C++ -*----------------------------------*\
  =========                 |
  \\      /  F ield         | OpenFOAM: The Open Source CFD Toolbox
   \\    /   O peration     | Website:  https://openfoam.org
    \\  /    A nd           | Version:  6
     \\/     M anipulation  |
\*---------------------------------------------------------------------------*/
FoamFile
{
    version     2.0;
    format      ascii;
    class       volVectorField;
    location    "43";
    object      wallShearStress;
}
// * * * * * * * * * * * * * * * * * * * * * * * * * * * * * * * * * * * * * //

dimensions      [0 2 -2 0 0 0 0];

internalField   uniform (0 0 0);

boundaryField
{
    inlet
    {
        type            calculated;
        value           uniform (0 0 0);
    }
    outlet
    {
        type            calculated;
        value           uniform (0 0 0);
    }
    roughCylinder
    {
        type            calculated;
        value           nonuniform List<vector> 
5120
(
(-0.000250967 -0.000357302 -0.000183896)
(-0.000307553 -0.000461697 -4.21566e-05)
(-0.000341095 -0.000555542 -8.0633e-07)
(-0.000386812 -0.000645628 5.39375e-05)
(-0.000443815 -0.000723843 0.000117174)
(-0.000508559 -0.000785723 0.000180729)
(-0.000577572 -0.00082842 0.000240088)
(-0.000646195 -0.000852354 0.00029247)
(-0.000710351 -0.000860007 0.000335779)
(-0.000767949 -0.000856422 0.000369297)
(-0.000819229 -0.00084987 0.000394512)
(-0.000864507 -0.000846011 0.000413324)
(-0.000900779 -0.000844883 0.000424469)
(-0.000931358 -0.000849235 0.000429071)
(-0.000957536 -0.000858277 0.00042816)
(-0.000980666 -0.000871309 0.000422798)
(-0.00100216 -0.000887547 0.000414036)
(-0.00102325 -0.000906333 0.000402765)
(-0.00104489 -0.000927198 0.000389661)
(-0.00106773 -0.000949847 0.000375143)
(-0.00109211 -0.000974092 0.000359414)
(-0.00111817 -0.000999816 0.0003425)
(-0.00114584 -0.00102688 0.000324299)
(-0.00117497 -0.00105513 0.000304621)
(-0.00120531 -0.00108431 0.000283192)
(-0.00123653 -0.00111411 0.000259664)
(-0.00126817 -0.00114404 0.000233534)
(-0.00129967 -0.00117346 0.000204116)
(-0.00133014 -0.00120141 0.000170241)
(-0.0013581 -0.0012265 0.000130443)
(-0.00138052 -0.00124668 8.24465e-05)
(-0.00139348 -0.00125879 2.78448e-05)
(-0.000269437 -0.00034553 -0.000173702)
(-0.000329141 -0.000447181 -4.4621e-05)
(-0.000365276 -0.000539715 -6.56242e-06)
(-0.000413114 -0.000629519 4.47675e-05)
(-0.000471804 -0.000708758 0.000105373)
(-0.000538104 -0.000772439 0.00016714)
(-0.000608523 -0.000817323 0.000225351)
(-0.000678646 -0.000843696 0.000277109)
(-0.00074499 -0.00085441 0.000320423)
(-0.000805999 -0.000855094 0.000354994)
(-0.000861462 -0.000852615 0.000382203)
(-0.000910278 -0.000850338 0.000402862)
(-0.000949413 -0.000847941 0.000415102)
(-0.000981536 -0.000851196 0.00042029)
(-0.00100925 -0.000859528 0.000419699)
(-0.00103382 -0.000872198 0.000414563)
(-0.00105672 -0.000888306 0.000405976)
(-0.00107924 -0.000907103 0.00039488)
(-0.00110234 -0.000928057 0.000381971)
(-0.00112669 -0.000950816 0.0003677)
(-0.00115264 -0.000975168 0.000352267)
(-0.00118031 -0.00100098 0.000335709)
(-0.00120965 -0.00102811 0.000317917)
(-0.00124048 -0.00105638 0.000298702)
(-0.00127252 -0.00108555 0.000277782)
(-0.00130543 -0.0011153 0.000254803)
(-0.00133875 -0.00114515 0.000229263)
(-0.00137186 -0.00117446 0.000200472)
(-0.00140385 -0.00120229 0.000167278)
(-0.00143317 -0.00122723 0.000128227)
(-0.00145665 -0.00124728 8.10562e-05)
(-0.00147025 -0.0012593 2.7363e-05)
(-0.000287881 -0.000328726 -0.000156319)
(-0.000350344 -0.00042737 -4.76141e-05)
(-0.000388859 -0.000517832 -1.2988e-05)
(-0.000438408 -0.000606665 3.47358e-05)
(-0.000498471 -0.000686372 9.24133e-05)
(-0.000566153 -0.000751588 0.000152146)
(-0.000638029 -0.000798787 0.000209126)
(-0.000709991 -0.000828224 0.000260407)
(-0.000779058 -0.00084292 0.000304162)
(-0.000843771 -0.000848207 0.000340162)
(-0.000903148 -0.00084937 0.000369165)
(-0.000955235 -0.000848613 0.000391111)
(-0.000997945 -0.000846263 0.000404658)
(-0.00103174 -0.000847964 0.000410365)
(-0.00106101 -0.000855405 0.000410083)
(-0.00108711 -0.000867534 0.000405219)
(-0.00111152 -0.000883346 0.000396861)
(-0.00113554 -0.000902001 0.000385998)
(-0.00116016 -0.000922873 0.000373346)
(-0.00118607 -0.000945581 0.000359377)
(-0.00121362 -0.000969872 0.000344304)
(-0.00124294 -0.000995594 0.000328159)
(-0.00127395 -0.0010226 0.000310842)
(-0.00130647 -0.0010507 0.00029215)
(-0.00134022 -0.00107966 0.000271799)
(-0.00137482 -0.00110916 0.000249432)
(-0.00140978 -0.00113872 0.000224543)
(-0.00144449 -0.00116771 0.000196444)
(-0.00147796 -0.00119521 0.000163996)
(-0.00150859 -0.00121983 0.000125771)
(-0.0015331 -0.0012396 7.95154e-05)
(-0.00154731 -0.00125146 2.68299e-05)
(-0.000304146 -0.000307854 -0.000134374)
(-0.00036897 -0.00040299 -5.06673e-05)
(-0.000409438 -0.000490646 -1.96575e-05)
(-0.000460119 -0.000577875 2.42611e-05)
(-0.000521127 -0.000657572 7.8742e-05)
(-0.000589996 -0.000724152 0.000136169)
(-0.000663421 -0.000773878 0.000191758)
(-0.00073757 -0.000806899 0.00024258)
(-0.000809691 -0.000826112 0.000286918)
(-0.000878098 -0.000836042 0.000324394)
(-0.000941182 -0.000840584 0.000355058)
(-0.000996715 -0.000841524 0.000378215)
(-0.00104309 -0.000840089 0.000393053)
(-0.00107948 -0.000840236 0.000399451)
(-0.00111046 -0.000846705 0.000399614)
(-0.00113823 -0.000858126 0.000395074)
(-0.00116424 -0.000873504 0.000387014)
(-0.00118982 -0.000891879 0.000376446)
(-0.00121603 -0.000912564 0.000364119)
(-0.00124352 -0.000935101 0.000350511)
(-0.00127268 -0.000959205 0.000335853)
(-0.00130362 -0.000984698 0.000320178)
(-0.00133628 -0.00101142 0.000303382)
(-0.00137045 -0.0010392 0.000285259)
(-0.00140582 -0.00106779 0.00026552)
(-0.00144202 -0.00109686 0.000243802)
(-0.00147854 -0.00112597 0.000219601)
(-0.00151473 -0.00115448 0.000192228)
(-0.0015496 -0.0011815 0.000160563)
(-0.00158146 -0.00120566 0.000123205)
(-0.0016069 -0.00122503 7.79057e-05)
(-0.00162168 -0.00123665 2.62733e-05)
(-0.000317447 -0.000283522 -0.000110151)
(-0.000384224 -0.000374617 -5.34561e-05)
(-0.000426149 -0.000458822 -2.62329e-05)
(-0.000477378 -0.000543825 1.37074e-05)
(-0.000538897 -0.000622997 6.4698e-05)
(-0.000608762 -0.000690728 0.000119495)
(-0.000683832 -0.000743104 0.000173457)
(-0.000760439 -0.000780001 0.000223723)
(-0.000835782 -0.000803832 0.000268603)
(-0.000907794 -0.00081815 0.000307425)
(-0.000974451 -0.000825821 0.000339609)
(-0.00103352 -0.000828553 0.000364022)
(-0.00108343 -0.000828231 0.000379964)
(-0.00112372 -0.000827989 0.000387521)
(-0.00115663 -0.000832902 0.000388252)
(-0.00118621 -0.000843411 0.000384132)
(-0.00121393 -0.00085817 0.000376467)
(-0.00124117 -0.000876118 0.00036628)
(-0.00126896 -0.00089645 0.000354348)
(-0.00129804 -0.000918656 0.000341171)
(-0.00132879 -0.000942417 0.000326986)
(-0.00136132 -0.000967527 0.000311836)
(-0.00139555 -0.000993819 0.000295612)
(-0.00143127 -0.0010211 0.000278106)
(-0.00146818 -0.00104914 0.00025902)
(-0.00150587 -0.00107761 0.00023799)
(-0.00154381 -0.00110608 0.000214505)
(-0.00158136 -0.00113394 0.000187887)
(-0.00161749 -0.0011603 0.000157029)
(-0.00165045 -0.00118383 0.000120564)
(-0.00167675 -0.00120269 7.62528e-05)
(-0.00169202 -0.00121399 2.57017e-05)
(-0.000327482 -0.000256872 -8.53045e-05)
(-0.000395703 -0.000343371 -5.58113e-05)
(-0.000438507 -0.000423545 -3.25026e-05)
(-0.000489663 -0.000505731 3.29339e-06)
(-0.000551229 -0.000583874 5.04909e-05)
(-0.00062187 -0.000652514 0.000102297)
(-0.000698613 -0.000707544 0.000154351)
(-0.000777813 -0.000748354 0.000203886)
(-0.000856457 -0.000776627 0.000249159)
(-0.000932061 -0.000794953 0.000289128)
(-0.0010023 -0.000805496 0.000322675)
(-0.00106499 -0.000810016 0.000348368)
(-0.00111864 -0.000810853 0.000365422)
(-0.00116304 -0.00081106 0.00037423)
(-0.00119905 -0.000814382 0.000375856)
(-0.00123062 -0.000823727 0.000372357)
(-0.00126021 -0.000837594 0.00036519)
(-0.00128917 -0.000854864 0.000355483)
(-0.00131863 -0.000874677 0.00034404)
(-0.00134932 -0.000896399 0.00033137)
(-0.00138162 -0.000919659 0.00031773)
(-0.00141568 -0.00094422 0.000303166)
(-0.0014514 -0.000969899 0.000287567)
(-0.00148857 -0.000996506 0.000270723)
(-0.00152687 -0.00102381 0.000252328)
(-0.00156589 -0.00105149 0.000232017)
(-0.0016051 -0.00107914 0.000209279)
(-0.00164385 -0.00110617 0.000183435)
(-0.0016811 -0.00113171 0.000153409)
(-0.00171504 -0.00115448 0.000117863)
(-0.00174204 -0.00117269 7.45619e-05)
(-0.00175775 -0.00118363 2.51173e-05)
(-0.000333297 -0.00022843 -6.08753e-05)
(-0.000402451 -0.000309888 -5.7602e-05)
(-0.000445565 -0.000385507 -3.82652e-05)
(-0.000496009 -0.000464292 -6.79418e-06)
(-0.000557068 -0.000540864 3.62618e-05)
(-0.00062815 -0.000610056 8.46567e-05)
(-0.000706469 -0.000667598 0.000134422)
(-0.000788301 -0.000712226 0.000182949)
(-0.00087031 -0.000744716 0.000228381)
(-0.000949593 -0.000766742 0.000269261)
(-0.00102359 -0.000780015 0.00030403)
(-0.00109014 -0.000786385 0.000331033)
(-0.00114778 -0.000788439 0.00034935)
(-0.00119629 -0.000789374 0.000359372)
(-0.00123668 -0.000792257 0.00036232)
(-0.00127076 -0.000799658 0.000359627)
(-0.0013024 -0.000812389 0.000353134)
(-0.00133327 -0.00082882 0.000344041)
(-0.00136443 -0.000847877 0.000333181)
(-0.00139672 -0.000868907 0.000321105)
(-0.00143056 -0.000891491 0.000308087)
(-0.00146608 -0.000915345 0.000294175)
(-0.0015032 -0.000940265 0.000279262)
(-0.00154171 -0.000966047 0.000263131)
(-0.00158126 -0.000992468 0.000245471)
(-0.00162149 -0.00101923 0.000225916)
(-0.00166179 -0.00104591 0.000203949)
(-0.00170155 -0.00107195 0.000178899)
(-0.00173975 -0.00109652 0.000149719)
(-0.00177449 -0.00111838 0.000115113)
(-0.0018021 -0.00113586 7.28441e-05)
(-0.00181815 -0.00114636 2.45228e-05)
(-0.000334764 -0.000199168 -3.78107e-05)
(-0.000404192 -0.000275131 -5.87825e-05)
(-0.000446967 -0.000345715 -4.34038e-05)
(-0.000495988 -0.000420517 -1.63779e-05)
(-0.000555878 -0.000494908 2.22158e-05)
(-0.000626943 -0.000564183 6.6757e-05)
(-0.000706598 -0.000623932 0.000113796)
(-0.00079095 -0.000672102 0.000160937)
(-0.000876293 -0.000708486 0.00020618)
(-0.000959352 -0.000733956 0.000247692)
(-0.00103732 -0.000749837 0.000283523)
(-0.00110794 -0.000758068 0.000311819)
(-0.00116983 -0.000761428 0.000331554)
(-0.00122261 -0.000763095 0.000342943)
(-0.00126721 -0.000766081 0.000347202)
(-0.00130544 -0.000772455 0.000345807)
(-0.00133957 -0.000783371 0.000340203)
(-0.00137247 -0.000798322 0.000331853)
(-0.00140546 -0.000816455 0.000321737)
(-0.00143943 -0.000836653 0.000310371)
(-0.00147478 -0.0008584 0.000298063)
(-0.00151169 -0.000881384 0.000284879)
(-0.00155009 -0.000905381 0.000270711)
(-0.00158977 -0.000930184 0.000255345)
(-0.00163039 -0.000955555 0.000238457)
(-0.00167156 -0.000981215 0.000219684)
(-0.00171273 -0.00100682 0.000198517)
(-0.0017533 -0.00103182 0.00017428)
(-0.00179224 -0.00105536 0.000145967)
(-0.00182764 -0.00107623 0.000112321)
(-0.00185566 -0.00109288 7.11016e-05)
(-0.00187197 -0.00110297 2.39206e-05)
(-0.000330742 -0.000169254 -1.66619e-05)
(-0.000399886 -0.000239423 -5.92269e-05)
(-0.000441732 -0.000304564 -4.77458e-05)
(-0.00048863 -0.000374826 -2.52532e-05)
(-0.000546594 -0.000446352 8.56543e-06)
(-0.000616985 -0.000515061 4.877e-05)
(-0.000697539 -0.000576513 9.25412e-05)
(-0.000784211 -0.000627871 0.000137779)
(-0.000872893 -0.000667915 0.000182395)
(-0.000959868 -0.000696665 0.000224198)
(-0.00104207 -0.000715139 0.000260905)
(-0.00111716 -0.000725324 0.000290488)
(-0.00118358 -0.00073004 0.000311756)
(-0.00124096 -0.000732545 0.000324752)
(-0.00128992 -0.000735708 0.000330496)
(-0.0013322 -0.00074162 0.000330479)
(-0.00137003 -0.000751324 0.000326143)
(-0.00140598 -0.000765009 0.000318965)
(-0.00144087 -0.000781688 0.00030974)
(-0.00147647 -0.000800688 0.000299183)
(-0.00151329 -0.000821398 0.00028769)
(-0.0015515 -0.000843382 0.00027532)
(-0.00159105 -0.000866384 0.000261973)
(-0.00163173 -0.000890162 0.00024743)
(-0.00167322 -0.000914488 0.000231363)
(-0.00171518 -0.000939077 0.000213416)
(-0.00175689 -0.000963526 0.000193057)
(-0.00179786 -0.000987317 0.000169623)
(-0.00183722 -0.00100967 0.000142171)
(-0.00187299 -0.00102944 0.000109497)
(-0.00190125 -0.00104523 6.93416e-05)
(-0.00191756 -0.00105479 2.33103e-05)
(-0.000321662 -0.000139937 1.91959e-06)
(-0.000389635 -0.000203621 -5.91445e-05)
(-0.000429854 -0.00026325 -5.12306e-05)
(-0.000473896 -0.000328376 -3.3222e-05)
(-0.000529048 -0.000396281 -4.38546e-06)
(-0.000597968 -0.000463656 3.10266e-05)
(-0.000678881 -0.000526213 7.09422e-05)
(-0.000767553 -0.000580301 0.000113673)
(-0.000859407 -0.000623655 0.000157105)
(-0.000950406 -0.000655559 0.000198789)
(-0.00103713 -0.000676627 0.000236147)
(-0.00111696 -0.000688749 0.000266933)
(-0.0011883 -0.000694871 0.000289812)
(-0.00125045 -0.000698164 0.000304579)
(-0.001304 -0.000701525 0.00031206)
(-0.00135043 -0.000707026 0.000313613)
(-0.00139196 -0.000715879 0.000310737)
(-0.00143084 -0.000728416 0.000304853)
(-0.00146826 -0.00074373 0.000296784)
(-0.00150586 -0.000761494 0.000287288)
(-0.0015442 -0.000781002 0.000276765)
(-0.00158356 -0.000801811 0.000265314)
(-0.00162396 -0.000823612 0.000252853)
(-0.00166525 -0.00084617 0.000239178)
(-0.00170713 -0.000869228 0.000223955)
(-0.00174929 -0.000892509 0.000206838)
(-0.0017911 -0.000915596 0.000187301)
(-0.00183216 -0.000937997 0.000164699)
(-0.00187168 -0.000959046 0.000138153)
(-0.0019076 -0.000977641 0.000106509)
(-0.00193578 -0.000992419 6.74758e-05)
(-0.00195203 -0.00100138 2.26629e-05)
(-0.00030455 -0.000110684 1.7536e-05)
(-0.00037329 -0.000168541 -5.82101e-05)
(-0.000410573 -0.000222169 -5.37988e-05)
(-0.000450942 -0.000281621 -4.00426e-05)
(-0.000502326 -0.000345119 -1.63046e-05)
(-0.000568704 -0.000410176 1.38781e-05)
(-0.00064904 -0.000472919 4.92479e-05)
(-0.000739175 -0.000529155 8.8705e-05)
(-0.000834154 -0.000575637 0.000130279)
(-0.000929292 -0.000610671 0.000171326)
(-0.00102079 -0.0006344 0.000209022)
(-0.00110585 -0.000648628 0.000240927)
(-0.00118244 -0.000656157 0.000265445)
(-0.00124988 -0.000660292 0.000282169)
(-0.00130839 -0.000663864 0.000291638)
(-0.00135934 -0.000669027 0.000295063)
(-0.0014047 -0.000677047 0.000293873)
(-0.00144675 -0.000688445 0.000289485)
(-0.00148667 -0.00070243 0.000282743)
(-0.00152613 -0.00071882 0.000274456)
(-0.0015659 -0.000736977 0.000265048)
(-0.0016063 -0.000756429 0.000254637)
(-0.0016474 -0.000776854 0.000243164)
(-0.00168908 -0.000797995 0.000230435)
(-0.00173111 -0.000819599 0.00021612)
(-0.00177325 -0.000841406 0.00019989)
(-0.00181489 -0.000862984 0.00018122)
(-0.00185579 -0.000883888 0.00015949)
(-0.00189513 -0.000903502 0.000133897)
(-0.00193087 -0.000920807 0.000103341)
(-0.00195884 -0.000934572 6.54989e-05)
(-0.00197488 -0.000942852 2.19756e-05)
(-0.000280852 -8.27237e-05 3.01316e-05)
(-0.000350665 -0.000135305 -5.6456e-05)
(-0.000384656 -0.000182554 -5.53708e-05)
(-0.000420288 -0.000235878 -4.5514e-05)
(-0.000466714 -0.000294094 -2.67808e-05)
(-0.000529356 -0.000355767 -2.1375e-06)
(-0.00060825 -0.000417818 2.80151e-05)
(-0.000699269 -0.000475603 6.33603e-05)
(-0.00079687 -0.000524764 0.000102254)
(-0.000896088 -0.000562852 0.000142027)
(-0.000992677 -0.000589404 0.000179675)
(-0.0010832 -0.000605787 0.000212491)
(-0.00116559 -0.000614846 0.000238677)
(-0.00123857 -0.000619702 0.000257449)
(-0.00130232 -0.000623367 0.000269109)
(-0.00135795 -0.000628048 0.000274644)
(-0.00140747 -0.000635214 0.000275424)
(-0.00145274 -0.000645338 0.000272748)
(-0.00149531 -0.000657933 0.000267561)
(-0.00153682 -0.000672901 0.000260688)
(-0.001578 -0.000689573 0.000252549)
(-0.00161931 -0.000707524 0.000243308)
(-0.0016609 -0.000726416 0.000232925)
(-0.00170272 -0.000745989 0.000221227)
(-0.00174457 -0.000765993 0.000207882)
(-0.0017863 -0.000786159 0.000192584)
(-0.00182734 -0.00080608 0.000174819)
(-0.00186766 -0.000825352 0.000153993)
(-0.00190658 -0.000843466 0.000129405)
(-0.0019419 -0.000859441 0.000100001)
(-0.00196925 -0.000872071 6.34081e-05)
(-0.001985 -0.000879653 2.1248e-05)
(-0.000249908 -5.68439e-05 3.94499e-05)
(-0.000320049 -0.000103835 -5.3669e-05)
(-0.00035104 -0.000144795 -5.56787e-05)
(-0.000381522 -0.000191754 -4.93164e-05)
(-0.000422014 -0.000243932 -3.53585e-05)
(-0.000479418 -0.000300946 -1.64202e-05)
(-0.000555062 -0.000360789 7.8385e-06)
(-0.000645667 -0.000419057 3.80755e-05)
(-0.000745725 -0.000470754 7.33198e-05)
(-0.000849132 -0.000512033 0.000111026)
(-0.00095089 -0.000541563 0.000148052)
(-0.00104742 -0.000560442 0.000181522)
(-0.0011358 -0.000571052 0.000209248)
(-0.00121494 -0.000576767 0.000230199)
(-0.0012845 -0.00058053 0.000244287)
(-0.00134543 -0.000584752 0.000252257)
(-0.00139931 -0.000590907 0.000255278)
(-0.00144822 -0.000599718 0.000254632)
(-0.00149354 -0.0006108 0.000251238)
(-0.00153694 -0.000624124 0.000245948)
(-0.00157945 -0.00063917 0.000239247)
(-0.00162152 -0.000655475 0.000231318)
(-0.00166341 -0.000672717 0.000222144)
(-0.00170509 -0.00069061 0.000211568)
(-0.00174644 -0.000708914 0.000199259)
(-0.00178748 -0.000727381 0.000184956)
(-0.00182763 -0.000745606 0.000168144)
(-0.0018671 -0.000763218 0.000148256)
(-0.00190517 -0.000779746 0.000124705)
(-0.00193967 -0.000794311 9.65026e-05)
(-0.00196628 -0.000805847 6.12231e-05)
(-0.00198157 -0.000812683 2.04861e-05)
(-0.000213816 -3.44202e-05 4.54196e-05)
(-0.00028273 -7.52647e-05 -4.99584e-05)
(-0.000311006 -0.000110204 -5.47963e-05)
(-0.000335949 -0.000150621 -5.13744e-05)
(-0.00036926 -0.000195936 -4.16509e-05)
(-0.000419808 -0.000247013 -2.82168e-05)
(-0.000491187 -0.00030359 -1.02942e-05)
(-0.000580593 -0.000361549 1.38658e-05)
(-0.000681657 -0.000414846 4.42846e-05)
(-0.000788478 -0.000459014 7.89069e-05)
(-0.00089556 -0.000491814 0.000114618)
(-0.000998069 -0.000513331 0.000148259)
(-0.0010933 -0.000525964 0.000177427)
(-0.00117888 -0.000532551 0.00020055)
(-0.00125449 -0.000536323 0.000217206)
(-0.00132073 -0.000539822 0.000227808)
(-0.00137941 -0.000544885 0.00023339)
(-0.00143199 -0.000552162 0.000235034)
(-0.00148025 -0.000561614 0.000233713)
(-0.00152586 -0.000573269 0.00023028)
(-0.00156969 -0.000586572 0.000225214)
(-0.00161241 -0.000601137 0.000218752)
(-0.00165432 -0.000616612 0.000210898)
(-0.00169554 -0.000632745 0.000201531)
(-0.001736 -0.000649276 0.000190316)
(-0.00177585 -0.000665946 0.000177044)
(-0.00181454 -0.00068239 0.000161202)
(-0.00185264 -0.00069826 0.000142262)
(-0.00188961 -0.000713216 0.000119794)
(-0.00192305 -0.000726395 9.28537e-05)
(-0.00194842 -0.000736751 5.8936e-05)
(-0.00196315 -0.000742857 1.96874e-05)
(-0.000171755 -1.58521e-05 4.76054e-05)
(-0.000237383 -4.9852e-05 -4.4953e-05)
(-0.000263424 -7.89064e-05 -5.23225e-05)
(-0.000283521 -0.000112885 -5.13269e-05)
(-0.000309793 -0.000151098 -4.51494e-05)
(-0.00035216 -0.000195055 -3.68096e-05)
(-0.000415647 -0.000245836 -2.54498e-05)
(-0.000500504 -0.000301255 -8.2474e-06)
(-0.000602384 -0.000356019 1.61211e-05)
(-0.000712912 -0.000403473 4.64299e-05)
(-0.000825153 -0.000439837 7.98219e-05)
(-0.000934381 -0.000464721 0.000113047)
(-0.00103599 -0.000479398 0.000143183)
(-0.00112848 -0.000487186 0.000168403)
(-0.00121076 -0.000491182 0.000187767)
(-0.00128324 -0.000494174 0.000201324)
(-0.00134685 -0.000497974 0.000209727)
(-0.00140362 -0.000503686 0.000214008)
(-0.00145494 -0.000511366 0.000215035)
(-0.00150248 -0.000521108 0.000213654)
(-0.00154751 -0.00053254 0.000210421)
(-0.00159065 -0.00054526 0.000205578)
(-0.00163239 -0.00055893 0.000199177)
(-0.0016728 -0.000573263 0.000191112)
(-0.00171201 -0.000588009 0.000181052)
(-0.00175036 -0.000602927 0.000168866)
(-0.00178728 -0.000617656 0.000154029)
(-0.00182378 -0.000631859 0.000136061)
(-0.00185916 -0.000645218 0.000114697)
(-0.00189107 -0.000656979 8.90635e-05)
(-0.00191511 -0.000666267 5.65656e-05)
(-0.00192912 -0.000671645 1.88571e-05)
(-0.000127307 -2.11755e-06 4.65621e-05)
(-0.000187481 -2.89783e-05 -3.89268e-05)
(-0.000211872 -5.23533e-05 -4.86222e-05)
(-0.000227516 -8.0084e-05 -4.97124e-05)
(-0.000245292 -0.000110672 -4.62023e-05)
(-0.000277039 -0.000146357 -4.14579e-05)
(-0.00033322 -0.000190843 -3.577e-05)
(-0.000413942 -0.000242898 -2.64025e-05)
(-0.000512389 -0.000296546 -9.69604e-06)
(-0.00062373 -0.000346055 1.48554e-05)
(-0.000740559 -0.000386191 4.47085e-05)
(-0.000855367 -0.000414468 7.65081e-05)
(-0.00096481 -0.000432351 0.000107208)
(-0.00106462 -0.00044181 0.000134262)
(-0.00115369 -0.000446203 0.000156284)
(-0.00123194 -0.000448488 0.000172826)
(-0.00130101 -0.00045111 0.000184335)
(-0.00136188 -0.000455086 0.000191494)
(-0.00141641 -0.000460908 0.000195155)
(-0.00146632 -0.000468784 0.000196136)
(-0.00151254 -0.000478292 0.000194955)
(-0.00155599 -0.000489135 0.000191903)
(-0.00159719 -0.000500951 0.000187063)
(-0.00163642 -0.000513493 0.000180385)
(-0.00167389 -0.00052647 0.000171523)
(-0.00171014 -0.000539612 0.000160445)
(-0.00174466 -0.000552642 0.000146616)
(-0.0017789 -0.000565147 0.000129604)
(-0.00181241 -0.000576998 0.000109388)
(-0.00184254 -0.000587434 8.51224e-05)
(-0.00186465 -0.000595621 5.40908e-05)
(-0.00187779 -0.000600292 1.79876e-05)
(-7.97514e-05 7.36025e-06 4.21599e-05)
(-0.000131489 -1.19111e-05 -3.1063e-05)
(-0.000153544 -2.90645e-05 -4.24077e-05)
(-0.000165776 -5.03124e-05 -4.45924e-05)
(-0.000178677 -7.34402e-05 -4.21363e-05)
(-0.000202747 -0.000100204 -4.10354e-05)
(-0.000242837 -0.000134412 -4.17099e-05)
(-0.000310162 -0.000179866 -3.92066e-05)
(-0.000407432 -0.000233798 -3.04119e-05)
(-0.00052071 -0.000285835 -1.37093e-05)
(-0.000641248 -0.000330035 1.07917e-05)
(-0.000763269 -0.00036335 3.99609e-05)
(-0.000878476 -0.000384291 7.01051e-05)
(-0.00098526 -0.000395954 9.84271e-05)
(-0.00108143 -0.000401326 0.0001229)
(-0.00116678 -0.000403635 0.000142587)
(-0.0012412 -0.000405104 0.000157317)
(-0.0013067 -0.000407512 0.000167641)
(-0.00136453 -0.000411455 0.000174191)
(-0.00141628 -0.000417253 0.000177704)
(-0.00146349 -0.000424786 0.000178773)
(-0.00150691 -0.000433719 0.000177661)
(-0.00154734 -0.000443728 0.000174514)
(-0.00158499 -0.000454528 0.000169311)
(-0.00162033 -0.000465826 0.000161695)
(-0.00165422 -0.000477351 0.000151778)
(-0.0016859 -0.000488816 0.00013897)
(-0.00171775 -0.000499792 0.00012293)
(-0.00174893 -0.000510213 0.000103888)
(-0.00177677 -0.000519361 8.10344e-05)
(-0.00179684 -0.000526598 5.15283e-05)
(-0.0018091 -0.00053064 1.70853e-05)
(-4.04198e-05 1.05316e-05 3.52918e-05)
(-7.9633e-05 -2.72614e-06 -2.27165e-05)
(-0.000101307 -1.46578e-05 -3.19318e-05)
(-0.000118499 -3.17087e-05 -3.673e-05)
(-0.000123653 -4.52511e-05 -3.79298e-05)
(-0.000139142 -6.56559e-05 -3.64901e-05)
(-0.000171056 -8.96692e-05 -3.88863e-05)
(-0.000224853 -0.000123945 -4.56024e-05)
(-0.000300161 -0.000169042 -4.63373e-05)
(-0.000407225 -0.000223328 -3.75959e-05)
(-0.000530146 -0.000271647 -1.99616e-05)
(-0.000654593 -0.000308839 4.81871e-06)
(-0.000778282 -0.000335353 3.33441e-05)
(-0.00089287 -0.000350511 6.2067e-05)
(-0.00099614 -0.000357609 8.84816e-05)
(-0.00108704 -0.000359927 0.000110929)
(-0.00116724 -0.000360725 0.000128933)
(-0.00123698 -0.000361621 0.000142506)
(-0.00129809 -0.000363771 0.000152143)
(-0.00135226 -0.000367745 0.000158479)
(-0.0014004 -0.000373365 0.000161999)
(-0.00144362 -0.000380475 0.000162985)
(-0.00148287 -0.000388725 0.000161629)
(-0.00151846 -0.000397874 0.00015797)
(-0.00155107 -0.000407589 0.000151615)
(-0.00158181 -0.000417532 0.000142857)
(-0.00161009 -0.000427575 0.000131063)
(-0.00163881 -0.000437025 0.000115959)
(-0.0016672 -0.000446127 9.81301e-05)
(-0.00169248 -0.000454123 7.67595e-05)
(-0.00170994 -0.000460445 4.88377e-05)
(-0.00172093 -0.000463844 1.61323e-05)
(-1.54558e-05 1.11376e-05 2.46899e-05)
(-2.50147e-05 3.17265e-07 -1.22789e-05)
(-3.46218e-05 4.75611e-07 -2.53906e-05)
(-3.52502e-05 -1.50661e-05 -3.05998e-05)
(-4.01755e-05 -2.12463e-05 -2.81091e-05)
(-3.81184e-05 -3.65305e-05 -2.58633e-05)
(-5.007e-05 -4.23488e-05 -1.14346e-05)
(-0.000116233 -7.13404e-05 -2.06859e-05)
(-0.000224488 -0.000115807 -4.13598e-05)
(-0.000290794 -0.000155339 -5.23608e-05)
(-0.000407209 -0.000208845 -4.45429e-05)
(-0.000539945 -0.000254655 -2.62159e-05)
(-0.000665457 -0.000284922 -1.57082e-06)
(-0.000785442 -0.000304109 2.62445e-05)
(-0.000895198 -0.00031392 5.37053e-05)
(-0.000993623 -0.000317821 7.85815e-05)
(-0.00107902 -0.00031839 9.95811e-05)
(-0.00115344 -0.000318342 0.000116449)
(-0.00121776 -0.000318969 0.000129276)
(-0.00127335 -0.000321062 0.000138486)
(-0.00132203 -0.000324867 0.0001446)
(-0.0013646 -0.000330251 0.000147788)
(-0.00140232 -0.000336884 0.000148318)
(-0.00143542 -0.000344542 0.000146271)
(-0.00146496 -0.000352862 0.000141204)
(-0.00149252 -0.000361497 0.000133669)
(-0.00151671 -0.000370268 0.000122861)
(-0.00154228 -0.000378398 0.000108702)
(-0.00156772 -0.000386398 9.21413e-05)
(-0.00159003 -0.000393347 7.23068e-05)
(-0.00160464 -0.00039889 4.60337e-05)
(-0.00161474 -0.000401839 1.51421e-05)
(9.51043e-06 1.01844e-05 2.42143e-05)
(2.95211e-06 8.09102e-06 -1.26118e-05)
(-8.5371e-06 -1.20254e-06 -2.43305e-05)
(-1.30773e-05 -1.06357e-05 -2.25401e-05)
(-2.22803e-05 -1.40179e-05 -2.50578e-05)
(-2.44447e-05 -1.81178e-05 -3.30309e-05)
(-3.28675e-05 -2.64025e-05 -3.34406e-05)
(-3.91472e-05 -3.58592e-05 -4.41274e-05)
(-6.12187e-05 -0.000102943 -3.37111e-05)
(-0.000179644 -0.000108553 9.46446e-07)
(-0.000290299 -0.000138039 -5.64461e-05)
(-0.000403166 -0.000190628 -5.04564e-05)
(-0.000540281 -0.000232236 -3.08949e-05)
(-0.000668231 -0.000257379 -6.7426e-06)
(-0.000784286 -0.000271422 2.02576e-05)
(-0.000886575 -0.000276977 4.64216e-05)
(-0.00097734 -0.000278354 6.99297e-05)
(-0.00105541 -0.000277798 8.9776e-05)
(-0.00112255 -0.000277343 0.000105731)
(-0.00118028 -0.00027814 0.000117967)
(-0.00122937 -0.000280419 0.000126785)
(-0.00127097 -0.00028432 0.000132256)
(-0.00130674 -0.00028952 0.000134722)
(-0.00133678 -0.000295872 0.000134316)
(-0.0013625 -0.000302929 0.000130494)
(-0.00138572 -0.000310271 0.00012413)
(-0.00140562 -0.000318037 0.000114309)
(-0.0014273 -0.000324833 0.000101047)
(-0.00144904 -0.000331841 8.57942e-05)
(-0.00146788 -0.000337826 6.75695e-05)
(-0.00147939 -0.00034268 4.30467e-05)
(-0.00148772 -0.00034505 1.40792e-05)
(2.11984e-05 7.30233e-06 2.57864e-05)
(2.41129e-05 7.96346e-06 -2.28365e-06)
(2.20029e-05 2.93878e-06 2.71516e-07)
(6.91881e-06 1.0554e-05 -5.69908e-06)
(3.21523e-06 2.05351e-06 -1.12143e-05)
(-1.27756e-05 8.13486e-06 -1.88862e-05)
(-2.28915e-05 -9.08784e-06 -4.09421e-05)
(-4.0474e-05 -3.24856e-05 -4.3935e-05)
(-2.6949e-05 -3.51444e-05 -3.37927e-05)
(-5.48939e-05 -4.63064e-05 -2.64591e-05)
(-0.000173461 -8.93954e-05 -3.94514e-05)
(-0.000304709 -0.00013082 -5.5458e-05)
(-0.000411512 -0.000174111 -5.69924e-05)
(-0.000538157 -0.000208267 -3.56821e-05)
(-0.000658484 -0.000227283 -1.02153e-05)
(-0.000768251 -0.000237217 1.58678e-05)
(-0.000862893 -0.000240264 4.0843e-05)
(-0.000944984 -0.000240356 6.3211e-05)
(-0.00101454 -0.000239486 8.20317e-05)
(-0.00107268 -0.000239184 9.70656e-05)
(-0.00112144 -0.00024026 0.000108556)
(-0.00116145 -0.000242972 0.00011629)
(-0.00119478 -0.000246982 0.000120684)
(-0.00122128 -0.000252275 0.000121932)
(-0.00124306 -0.000258341 0.000119344)
(-0.00126257 -0.000264788 0.00011425)
(-0.00127706 -0.000271612 0.000105318)
(-0.00129519 -0.000277238 9.29742e-05)
(-0.00131331 -0.000283569 7.91281e-05)
(-0.00132892 -0.000288817 6.25991e-05)
(-0.00133675 -0.000292935 3.98972e-05)
(-0.00134436 -0.000295063 1.29727e-05)
(3.46685e-05 1.33113e-05 3.89098e-05)
(4.47768e-05 1.02509e-05 -7.65266e-06)
(4.68109e-05 5.7309e-06 -1.28723e-05)
(4.08827e-05 -5.09167e-06 -1.54425e-05)
(3.8492e-05 -1.10893e-05 -1.40279e-05)
(2.27861e-05 -1.67384e-05 -1.15712e-05)
(1.53149e-05 -1.45802e-05 -6.41732e-06)
(5.58696e-07 -7.05614e-06 4.52878e-06)
(-3.71417e-05 3.27385e-05 -2.50823e-05)
(-2.18979e-05 -1.04828e-05 -4.71888e-05)
(-5.18546e-05 -5.27326e-05 -3.7933e-05)
(-0.000131037 -9.02292e-05 -3.57766e-05)
(-0.000278216 -0.000124642 -5.17805e-05)
(-0.000408437 -0.000157191 -5.46676e-05)
(-0.000531625 -0.00018457 -3.58646e-05)
(-0.000640124 -0.000197701 -1.16262e-05)
(-0.000738648 -0.000203907 1.35706e-05)
(-0.000822394 -0.000205293 3.74708e-05)
(-0.000893467 -0.000204853 5.85987e-05)
(-0.000952867 -0.000204463 7.62397e-05)
(-0.00100107 -0.000204909 9.02986e-05)
(-0.00103891 -0.000206832 0.000100183)
(-0.00106945 -0.000209992 0.000106438)
(-0.00109179 -0.000214449 0.000109281)
(-0.00110871 -0.000219632 0.000107779)
(-0.00112267 -0.000225038 0.000103811)
(-0.00113219 -0.000231232 9.57838e-05)
(-0.00114589 -0.000235442 8.43031e-05)
(-0.0011599 -0.000241328 7.19535e-05)
(-0.00117094 -0.000245646 5.7156e-05)
(-0.00117561 -0.000249104 3.64678e-05)
(-0.00118105 -0.000250692 1.17643e-05)
(4.68757e-05 1.54089e-05 4.6531e-05)
(6.39628e-05 1.27366e-05 -8.00574e-06)
(7.04511e-05 8.86645e-06 -1.60044e-05)
(7.25131e-05 1.21221e-06 -2.035e-05)
(7.07649e-05 -7.51831e-06 -2.20032e-05)
(6.43946e-05 -1.59847e-05 -2.18053e-05)
(5.47167e-05 -2.1893e-05 -2.09172e-05)
(3.84721e-05 -2.47597e-05 -2.02417e-05)
(1.07767e-05 -2.68057e-05 -2.35615e-05)
(-1.44367e-05 -2.10692e-05 -4.18614e-05)
(-2.97364e-05 -3.58541e-05 -4.61972e-05)
(-5.11329e-05 -4.77733e-05 -3.14028e-05)
(-0.000141297 -6.90205e-05 -3.80336e-05)
(-0.000271396 -0.000101396 -5.99816e-05)
(-0.000388095 -0.000135615 -5.21029e-05)
(-0.000506237 -0.000157928 -3.33154e-05)
(-0.000605496 -0.000167865 -1.04092e-05)
(-0.000691796 -0.00017234 1.37752e-05)
(-0.000763355 -0.000173256 3.62926e-05)
(-0.000821211 -0.000173134 5.58149e-05)
(-0.000867569 -0.000173468 7.20701e-05)
(-0.000902469 -0.000175045 8.3824e-05)
(-0.000929542 -0.000177686 9.17187e-05)
(-0.00094733 -0.000181542 9.60559e-05)
(-0.00095974 -0.000186116 9.55679e-05)
(-0.000970066 -0.000191032 9.29006e-05)
(-0.000973338 -0.000196498 8.56053e-05)
(-0.000984154 -0.000199437 7.50879e-05)
(-0.000993293 -0.000205002 6.43147e-05)
(-0.00100176 -0.000208864 5.14125e-05)
(-0.00100226 -0.000211257 3.28131e-05)
(-0.00100695 -0.0002125 1.0508e-05)
(5.47705e-05 1.44967e-05 4.80684e-05)
(7.66587e-05 1.17806e-05 -7.14889e-06)
(8.69751e-05 8.10223e-06 -1.60255e-05)
(9.27626e-05 4.72757e-07 -2.15239e-05)