/*--------------------------------*- C++ -*----------------------------------*\
  =========                 |
  \\      /  F ield         | OpenFOAM: The Open Source CFD Toolbox
   \\    /   O peration     | Website:  https://openfoam.org
    \\  /    A nd           | Version:  6
     \\/     M anipulation  |
\*---------------------------------------------------------------------------*/
FoamFile
{
    version     2.0;
    format      ascii;
    class       volVectorField;
    location    "43";
    object      wallShearStress;
}
// * * * * * * * * * * * * * * * * * * * * * * * * * * * * * * * * * * * * * //

dimensions      [0 2 -2 0 0 0 0];

internalField   uniform (0 0 0);

boundaryField
{
    inlet
    {
        type            calculated;
        value           uniform (0 0 0);
    }
    outlet
    {
        type            calculated;
        value           uniform (0 0 0);
    }
    roughCylinder
    {
        type            calculated;
        value           nonuniform List<vector> 
5120
(
(-0.000250525 -0.000356755 -0.000183688)
(-0.000307054 -0.000461056 -4.20881e-05)
(-0.000340558 -0.000554792 -7.65099e-07)
(-0.000386216 -0.000644773 5.39242e-05)
(-0.000443151 -0.000722897 0.000117102)
(-0.000507817 -0.000784709 0.000180606)
(-0.000576757 -0.000827366 0.000239922)
(-0.000645317 -0.000851294 0.000292278)
(-0.000709421 -0.000858955 0.000335579)
(-0.000766982 -0.000855383 0.0003691)
(-0.000818237 -0.000848833 0.000394313)
(-0.00086349 -0.000844978 0.00041313)
(-0.000899757 -0.000843848 0.000424281)
(-0.000930331 -0.000848201 0.000428884)
(-0.000956507 -0.000857247 0.00042798)
(-0.000979637 -0.000870277 0.000422624)
(-0.00100113 -0.000886516 0.000413865)
(-0.00102223 -0.000905306 0.000402599)
(-0.00104388 -0.000926174 0.000389499)
(-0.00106672 -0.000948821 0.000374984)
(-0.00109111 -0.000973072 0.000359254)
(-0.00111717 -0.000998801 0.000342342)
(-0.00114486 -0.00102588 0.000324136)
(-0.00117401 -0.00105414 0.000304449)
(-0.00120438 -0.00108334 0.000283011)
(-0.00123562 -0.00111317 0.000259466)
(-0.00126733 -0.00114315 0.000233321)
(-0.00129891 -0.00117264 0.000203908)
(-0.00132946 -0.00120066 0.000170043)
(-0.00135753 -0.00122583 0.000130266)
(-0.00138004 -0.00124609 8.23609e-05)
(-0.00139292 -0.00125815 2.78424e-05)
(-0.000269023 -0.000345064 -0.000173522)
(-0.00032866 -0.000446607 -4.45576e-05)
(-0.000364743 -0.000539033 -6.52419e-06)
(-0.000412517 -0.000628723 4.47627e-05)
(-0.000471128 -0.00070786 0.000105309)
(-0.000537341 -0.00077146 0.000167024)
(-0.00060768 -0.000816296 0.000225191)
(-0.000677726 -0.000842648 0.000276919)
(-0.000744019 -0.000853364 0.000320225)
(-0.000804988 -0.00085406 0.00035479)
(-0.000860419 -0.000851587 0.000382002)
(-0.000909216 -0.000849314 0.000402662)
(-0.000948335 -0.00084692 0.000414906)
(-0.000980456 -0.000850175 0.000420098)
(-0.00100817 -0.000858504 0.00041951)
(-0.00103274 -0.000871177 0.000414382)
(-0.00105564 -0.000887283 0.000405798)
(-0.00107817 -0.000906085 0.000394705)
(-0.00110128 -0.000927044 0.000381802)
(-0.00112563 -0.0009498 0.00036753)
(-0.00115159 -0.00097416 0.000352099)
(-0.00117926 -0.000999973 0.000335541)
(-0.00120861 -0.00102711 0.000317745)
(-0.00123946 -0.0010554 0.000298519)
(-0.00127153 -0.00108459 0.000277588)
(-0.00130448 -0.00111436 0.000254589)
(-0.00133787 -0.00114428 0.000229029)
(-0.00137108 -0.00117366 0.000200246)
(-0.00140316 -0.00120155 0.00016706)
(-0.00143261 -0.00122659 0.000128032)
(-0.00145619 -0.00124672 8.09668e-05)
(-0.00146969 -0.00125868 2.73644e-05)
(-0.000287386 -0.000328208 -0.000156112)
(-0.000349791 -0.000426756 -4.75431e-05)
(-0.000388258 -0.000517113 -1.29451e-05)
(-0.000437745 -0.000605842 3.47315e-05)
(-0.000497736 -0.000685458 9.23522e-05)
(-0.000565341 -0.000750609 0.000152029)
(-0.000637141 -0.000797774 0.000208965)
(-0.000709035 -0.000827198 0.000260219)
(-0.000778046 -0.000841896 0.000303962)
(-0.000842708 -0.000847185 0.000339953)
(-0.000902048 -0.000848351 0.000368956)
(-0.000954113 -0.000847596 0.000390902)
(-0.000996806 -0.00084525 0.000404449)
(-0.0010306 -0.000846954 0.000410165)
(-0.00105987 -0.000854395 0.000409886)
(-0.00108597 -0.000866527 0.000405026)
(-0.00111039 -0.000882338 0.000396676)
(-0.0011344 -0.000900995 0.000385813)
(-0.00115903 -0.000921872 0.00037317)
(-0.00118495 -0.000944578 0.000359202)
(-0.00121251 -0.000968878 0.000344129)
(-0.00124183 -0.000994602 0.000327984)
(-0.00127285 -0.00102161 0.00031066)
(-0.0013054 -0.00104973 0.000291957)
(-0.00133918 -0.00107871 0.000271594)
(-0.00137382 -0.00110824 0.000249201)
(-0.00140887 -0.00113786 0.000224285)
(-0.00144368 -0.00116693 0.000196197)
(-0.00147726 -0.0011945 0.000163756)
(-0.00150804 -0.00121923 0.000125556)
(-0.00153265 -0.00123908 7.94227e-05)
(-0.00154674 -0.00125086 2.68365e-05)
(-0.000303679 -0.000307419 -0.000134218)
(-0.00036844 -0.000402462 -5.05971e-05)
(-0.000408859 -0.000490016 -1.96096e-05)
(-0.000459474 -0.000577139 2.42664e-05)
(-0.000520401 -0.000656737 7.86921e-05)
(-0.000589176 -0.000723233 0.000136063)
(-0.000662508 -0.000772904 0.000191603)
(-0.000736571 -0.000805898 0.000242392)
(-0.000808625 -0.000825105 0.000286714)
(-0.000876981 -0.000835039 0.000324186)
(-0.000940035 -0.000839583 0.000354848)
(-0.000995541 -0.000840526 0.000377999)
(-0.0010419 -0.000839094 0.000392837)
(-0.00107828 -0.000839247 0.00039924)
(-0.00110926 -0.000845714 0.000399411)
(-0.00113703 -0.000857135 0.000394873)
(-0.00116304 -0.00087252 0.000386819)
(-0.00118864 -0.000890893 0.000376256)
(-0.00121485 -0.000911585 0.000363933)
(-0.00124235 -0.00093412 0.00035033)
(-0.00127151 -0.000958226 0.00033567)
(-0.00130246 -0.000983725 0.000319995)
(-0.00133513 -0.00101046 0.000303192)
(-0.00136932 -0.00103825 0.000285055)
(-0.00140472 -0.00106686 0.000265302)
(-0.00144096 -0.00109595 0.000243552)
(-0.00147759 -0.00112513 0.000219318)
(-0.00151391 -0.00115373 0.00019196)
(-0.00154888 -0.00118082 0.0001603)
(-0.00158092 -0.00120509 0.000122967)
(-0.00160649 -0.00122454 7.78111e-05)
(-0.00162111 -0.00123607 2.62865e-05)
(-0.000316909 -0.000283068 -0.000109996)
(-0.000383623 -0.000374065 -5.33803e-05)
(-0.000425492 -0.000458168 -2.61838e-05)
(-0.000476653 -0.000543064 1.37184e-05)
(-0.000538097 -0.00062214 6.46507e-05)
(-0.000607878 -0.000689803 0.000119386)
(-0.000682866 -0.000742142 0.000173303)
(-0.000759401 -0.000779026 0.000223539)
(-0.000834679 -0.000802852 0.000268399)
(-0.000906632 -0.000817167 0.00030721)
(-0.000973241 -0.000824834 0.000339382)
(-0.00103228 -0.000827568 0.000363796)
(-0.00108217 -0.000827251 0.00037974)
(-0.00112246 -0.000827015 0.000387301)
(-0.00115538 -0.000831931 0.000388038)
(-0.00118495 -0.000842442 0.000383923)
(-0.00121268 -0.000857203 0.000376266)
(-0.00123992 -0.000875153 0.000366083)
(-0.00126772 -0.000895487 0.000354155)
(-0.00129681 -0.000917691 0.00034098)
(-0.00132757 -0.000941459 0.000326798)
(-0.0013601 -0.000966576 0.000311646)
(-0.00139434 -0.000992871 0.000295414)
(-0.00143009 -0.00102017 0.000277891)
(-0.00146703 -0.00104823 0.00025879)
(-0.00150476 -0.00107673 0.00023772)
(-0.00154283 -0.00110526 0.000214195)
(-0.00158051 -0.00113321 0.000187594)
(-0.00161677 -0.00115964 0.00015674)
(-0.00164994 -0.0011833 0.000120302)
(-0.00167637 -0.00120224 7.61562e-05)
(-0.00169146 -0.00121345 2.57229e-05)
(-0.000326957 -0.000256478 -8.51929e-05)
(-0.000395119 -0.000342897 -5.5741e-05)
(-0.000437877 -0.000422982 -3.24465e-05)
(-0.000488974 -0.000505073 3.3123e-06)
(-0.000550462 -0.000583127 5.04571e-05)
(-0.00062101 -0.000651684 0.000102207)
(-0.000697647 -0.000706651 0.000154206)
(-0.000776743 -0.00074742 0.000203704)
(-0.000855303 -0.000775669 0.000248952)
(-0.000930845 -0.000793996 0.000288904)
(-0.00100105 -0.000804547 0.000322447)
(-0.00106371 -0.000809069 0.000348136)
(-0.00111734 -0.000809909 0.000365193)
(-0.00116172 -0.000810118 0.000374003)
(-0.00119774 -0.00081344 0.000375637)
(-0.00122932 -0.000822786 0.00037214)
(-0.0012589 -0.000836657 0.000364978)
(-0.00128788 -0.000853927 0.000355278)
(-0.00131734 -0.000873743 0.000343838)
(-0.00134804 -0.000895468 0.000331174)
(-0.00138035 -0.000918725 0.000317535)
(-0.00141441 -0.000943289 0.000302968)
(-0.00145014 -0.000968975 0.000287362)
(-0.00148733 -0.000995595 0.000270497)
(-0.00152566 -0.00102292 0.000252085)
(-0.00156472 -0.00105062 0.000231724)
(-0.0016041 -0.00107836 0.000208938)
(-0.001643 -0.00110547 0.000183117)
(-0.00168038 -0.00113109 0.00015309)
(-0.00171457 -0.00115398 0.000117572)
(-0.00174174 -0.00117228 7.44656e-05)
(-0.00175721 -0.00118311 2.51486e-05)
(-0.000332726 -0.000228052 -6.07892e-05)
(-0.000401808 -0.000309417 -5.75219e-05)
(-0.000444857 -0.000384933 -3.82004e-05)
(-0.000495226 -0.000463604 -6.76963e-06)
(-0.000556191 -0.000540074 3.62257e-05)
(-0.000627182 -0.000609189 8.45588e-05)
(-0.00070541 -0.000666694 0.000134272)
(-0.00078717 -0.000711309 0.000182767)
(-0.000869114 -0.000743795 0.000228173)
(-0.000948331 -0.000765817 0.000269035)
(-0.00102227 -0.000779081 0.000303789)
(-0.00108878 -0.000785457 0.000330787)
(-0.0011464 -0.000787516 0.000349105)
(-0.00119492 -0.000788458 0.000359135)
(-0.0012353 -0.000791344 0.000362087)
(-0.0012694 -0.000798748 0.000359399)
(-0.00130104 -0.000811477 0.000352911)
(-0.00133192 -0.000827911 0.000343825)
(-0.00136309 -0.000846968 0.000332974)
(-0.00139539 -0.000868002 0.0003209)
(-0.00142924 -0.000890589 0.000307886)
(-0.00146476 -0.000914447 0.000293973)
(-0.00150189 -0.00093937 0.000279051)
(-0.00154041 -0.000965165 0.000262895)
(-0.00158001 -0.000991612 0.000245217)
(-0.00162027 -0.00101839 0.0002256)
(-0.00166075 -0.00104515 0.00020357)
(-0.0017007 -0.00107128 0.000178552)
(-0.00173904 -0.00109593 0.000149367)
(-0.0017741 -0.00111793 0.00011479)
(-0.00180188 -0.00113549 7.27479e-05)
(-0.00181764 -0.00114587 2.45666e-05)
(-0.000334191 -0.000198837 -3.77605e-05)
(-0.000403567 -0.000274729 -5.87067e-05)
(-0.000446303 -0.000345236 -4.33376e-05)
(-0.00049528 -0.000419959 -1.63489e-05)
(-0.000555101 -0.000494272 2.21964e-05)
(-0.000626074 -0.000563471 6.66853e-05)
(-0.000705606 -0.000623147 0.000113669)
(-0.000789825 -0.000671255 0.000160763)
(-0.000875053 -0.000707601 0.000205969)
(-0.000958035 -0.00073306 0.000247457)
(-0.00103595 -0.00074895 0.000283277)
(-0.00110654 -0.000757186 0.000311569)
(-0.00116841 -0.000760547 0.000331304)
(-0.00122119 -0.000762224 0.000342699)
(-0.0012658 -0.000765212 0.000346962)
(-0.00130404 -0.00077159 0.000345573)
(-0.00133817 -0.0007825 0.000339978)
(-0.00137109 -0.000797453 0.000331631)
(-0.00140409 -0.00081559 0.000321525)
(-0.00143806 -0.000835784 0.00031016)
(-0.00147341 -0.000857534 0.000297857)
(-0.00151032 -0.00088052 0.000284673)
(-0.00154872 -0.000904516 0.000270495)
(-0.00158841 -0.000929331 0.000255097)
(-0.00162908 -0.000954722 0.000238191)
(-0.00167027 -0.000980394 0.00021934)
(-0.0017117 -0.00100609 0.000198098)
(-0.00175246 -0.00103118 0.000173904)
(-0.00179156 -0.00105478 0.000145576)
(-0.00182733 -0.00107578 0.00011196)
(-0.00185557 -0.00109254 7.10088e-05)
(-0.0018715 -0.00110249 2.39801e-05)
(-0.000330133 -0.000168949 -1.66472e-05)
(-0.000399191 -0.00023903 -5.91406e-05)
(-0.00044096 -0.000304062 -4.76674e-05)
(-0.00048776 -0.0003742 -2.52144e-05)
(-0.000545614 -0.00044561 8.54731e-06)
(-0.000615891 -0.000514226 4.86878e-05)
(-0.00069635 -0.000575633 9.24004e-05)
(-0.000782958 -0.000626985 0.000137593)
(-0.000871583 -0.000667044 0.000182176)
(-0.000958493 -0.000695801 0.000223957)
(-0.00104064 -0.000714271 0.000260648)
(-0.0011157 -0.00072447 0.000290223)
(-0.00118211 -0.000729202 0.000311492)
(-0.00123947 -0.00073171 0.000324492)
(-0.00128843 -0.000734872 0.000330243)
(-0.00133073 -0.000740789 0.00033023)
(-0.00136857 -0.000750486 0.000325904)
(-0.00140454 -0.000764168 0.000318731)
(-0.00143944 -0.000780846 0.000309512)
(-0.00147506 -0.000799856 0.000298966)
(-0.00151189 -0.000820567 0.00028748)
(-0.0015501 -0.000842553 0.000275113)
(-0.00158965 -0.000865554 0.000261754)
(-0.00163033 -0.000889343 0.000247173)
(-0.00167189 -0.000913695 0.000231091)
(-0.00171385 -0.000938296 0.000213046)
(-0.00175583 -0.000962819 0.000192588)
(-0.00179705 -0.000986695 0.000169213)
(-0.00183661 -0.00100912 0.00014174)
(-0.00187287 -0.00102904 0.000109096)
(-0.00190133 -0.0010449 6.92559e-05)
(-0.00191719 -0.00105434 2.33902e-05)
(-0.000321066 -0.000139688 1.90251e-06)
(-0.000388999 -0.000203308 -5.90665e-05)
(-0.000429197 -0.00026288 -5.11577e-05)
(-0.000473229 -0.000327949 -3.31802e-05)
(-0.000528339 -0.000395803 -4.39055e-06)
(-0.000597176 -0.000463117 3.09769e-05)
(-0.000677951 -0.000525591 7.08416e-05)
(-0.000766445 -0.000579588 0.000113518)
(-0.000858131 -0.00062287 0.0001569)
(-0.000949015 -0.000654749 0.000198549)
(-0.00103568 -0.000675819 0.000235888)
(-0.00111544 -0.000687935 0.000266657)
(-0.00118674 -0.000694064 0.000289533)
(-0.00124891 -0.000697377 0.000304307)
(-0.00130249 -0.000700748 0.000311799)
(-0.00134893 -0.000706255 0.000313361)
(-0.00139048 -0.000715105 0.00031049)
(-0.0014294 -0.000727642 0.000304617)
(-0.00146684 -0.000742952 0.000296555)
(-0.00150443 -0.000760704 0.000287067)
(-0.00154277 -0.000780211 0.000276553)
(-0.00158212 -0.000801016 0.000265106)
(-0.00162251 -0.000822822 0.000252634)
(-0.0016638 -0.000845382 0.000238911)
(-0.00170572 -0.000868455 0.000223673)
(-0.00174784 -0.000891735 0.000206431)
(-0.00179009 -0.000914942 0.000186782)
(-0.00183144 -0.000937434 0.000164258)
(-0.00187113 -0.000958528 0.000137676)
(-0.00190764 -0.000977262 0.000106062)
(-0.00193612 -0.000992153 6.74026e-05)
(-0.00195173 -0.00100097 2.27667e-05)
(-0.000303879 -0.000110438 1.74879e-05)
(-0.000372526 -0.000168215 -5.81121e-05)
(-0.000409701 -0.00022172 -5.3701e-05)
(-0.000449934 -0.000281025 -3.99745e-05)
(-0.000501154 -0.000344367 -1.6291e-05)
(-0.000567377 -0.000409296 1.38209e-05)
(-0.000647615 -0.000471987 4.91161e-05)
(-0.000737717 -0.00052825 8.85163e-05)
(-0.000832678 -0.000574778 0.000130051)
(-0.000927759 -0.000609838 0.000171066)
(-0.00101921 -0.000633588 0.000208741)
(-0.00110428 -0.000647868 0.000240647)
(-0.00118088 -0.000655426 0.000265168)
(-0.00124829 -0.000659556 0.000281885)
(-0.00130678 -0.000663124 0.000291356)
(-0.00135774 -0.00066828 0.000294785)
(-0.00140315 -0.000676305 0.000293606)
(-0.00144523 -0.000687699 0.000289228)
(-0.00148517 -0.000701677 0.000282498)
(-0.00152468 -0.000718071 0.000274229)
(-0.00156446 -0.000736233 0.000264836)
(-0.00160485 -0.00075568 0.000254435)
(-0.00164592 -0.000776107 0.000242947)
(-0.0016876 -0.000797256 0.000230161)
(-0.0017297 -0.000818886 0.00021584)
(-0.00177179 -0.000840704 0.000199456)
(-0.00181386 -0.000862356 0.000180635)
(-0.00185509 -0.00088335 0.000159013)
(-0.00189469 -0.000903035 0.000133371)
(-0.00193118 -0.000920501 0.000102844)
(-0.00195942 -0.00093434 6.54407e-05)
(-0.00197469 -0.00094249 2.21086e-05)
(-0.000280265 -8.2559e-05 3.00663e-05)
(-0.000350053 -0.000135085 -5.63795e-05)
(-0.000384072 -0.000182305 -5.53048e-05)
(-0.000419761 -0.000235619 -4.54743e-05)
(-0.00046623 -0.000293834 -2.67721e-05)
(-0.000528843 -0.000355484 -2.16995e-06)
(-0.000607565 -0.000417444 2.79403e-05)
(-0.000698299 -0.000475075 6.32313e-05)
(-0.000795638 -0.000524122 0.000102069)
(-0.000894707 -0.000562169 0.000141801)
(-0.000991203 -0.000588724 0.000179417)
(-0.00108155 -0.000605057 0.000212197)
(-0.00116384 -0.000614096 0.000238362)
(-0.00123687 -0.000619003 0.000257146)
(-0.0013007 -0.000622701 0.000268823)
(-0.00135639 -0.000627397 0.000274366)
(-0.00140594 -0.000634557 0.000275154)
(-0.00145125 -0.00064467 0.000272488)
(-0.00149386 -0.000657258 0.000267316)
(-0.00153538 -0.000672215 0.000260459)
(-0.00157655 -0.000688885 0.00025234)
(-0.00161784 -0.000706828 0.000243114)
(-0.00165938 -0.000725719 0.000232716)
(-0.00170118 -0.00074529 0.000220943)
(-0.00174308 -0.000765304 0.000207598)
(-0.00178466 -0.000785461 0.000192103)
(-0.00182641 -0.000805527 0.000174167)
(-0.00186711 -0.000824897 0.000153487)
(-0.00190621 -0.000843038 0.00012882)
(-0.00194243 -0.000859167 9.94434e-05)
(-0.00197018 -0.0008719 6.33721e-05)
(-0.00198489 -0.000879315 2.14152e-05)
(-0.000249195 -5.66654e-05 3.93459e-05)
(-0.000319206 -0.000103574 -5.35526e-05)
(-0.000350047 -0.000144395 -5.55482e-05)
(-0.000380301 -0.000191158 -4.92005e-05)
(-0.000420499 -0.000243095 -3.52882e-05)
(-0.000477635 -0.000299901 -1.64173e-05)
(-0.000553204 -0.000359689 7.76043e-06)
(-0.000643909 -0.000418054 3.79206e-05)
(-0.000744035 -0.000469858 7.31037e-05)
(-0.000847364 -0.000511172 0.000110757)
(-0.000949023 -0.000540727 0.000147745)
(-0.00104569 -0.000559746 0.000181225)
(-0.00113421 -0.000570467 0.000208969)
(-0.00121328 -0.000576164 0.000229902)
(-0.00128276 -0.000579902 0.000243972)
(-0.0013437 -0.000584108 0.000251939)
(-0.00139765 -0.000590271 0.000254969)
(-0.00144664 -0.000599088 0.00025434)
(-0.00149202 -0.00061016 0.000250969)
(-0.00153548 -0.000623491 0.000245712)
(-0.001578 -0.000638534 0.000239042)
(-0.00162005 -0.000654837 0.000231138)
(-0.00166186 -0.000672075 0.000221946)
(-0.00170352 -0.000689977 0.000211276)
(-0.00174497 -0.000708305 0.000198992)
(-0.0017858 -0.000726772 0.000184444)
(-0.00182668 -0.000745072 0.000167399)
(-0.00186655 -0.000762779 0.000147708)
(-0.00190494 -0.000779373 0.000124057)
(-0.00194057 -0.000794102 9.5881e-05)
(-0.00196756 -0.000805703 6.12131e-05)
(-0.00198162 -0.000812406 2.06946e-05)
(-0.000213256 -3.43477e-05 4.53052e-05)
(-0.000282139 -7.51253e-05 -4.98791e-05)
(-0.000310519 -0.000110065 -5.47327e-05)
(-0.000335689 -0.000150538 -5.13463e-05)
(-0.000369302 -0.000195981 -4.1662e-05)
(-0.000420039 -0.000247162 -2.82726e-05)
(-0.000491146 -0.000303607 -1.03869e-05)
(-0.000579949 -0.000361258 1.37439e-05)
(-0.000680539 -0.000414339 4.41292e-05)
(-0.000787204 -0.000458485 7.87223e-05)
(-0.000894251 -0.000491336 0.000114409)
(-0.000996401 -0.000512729 0.000147983)
(-0.00109129 -0.00052526 0.000177086)
(-0.00117693 -0.000531914 0.000200208)
(-0.00125273 -0.000535775 0.000216885)
(-0.00131911 -0.00053931 0.000227495)
(-0.00137785 -0.000544366 0.000233078)
(-0.00143048 -0.000551623 0.000234732)
(-0.00147881 -0.000561064 0.000233441)
(-0.00152445 -0.000572709 0.000230044)
(-0.00156827 -0.000585999 0.000225018)
(-0.00161093 -0.000600553 0.000218591)
(-0.00165272 -0.00061603 0.000210717)
(-0.00169389 -0.000632165 0.000201227)
(-0.00173444 -0.000648697 0.000190061)
(-0.00177391 -0.000665358 0.000176475)
(-0.00181373 -0.000681935 0.000160363)
(-0.00185232 -0.000697916 0.000141689)
(-0.00188947 -0.000712873 0.000119069)
(-0.00192428 -0.000726198 9.21524e-05)
(-0.00195017 -0.00073665 5.89615e-05)
(-0.00196326 -0.000742587 1.99441e-05)
(-0.000171034 -1.57446e-05 4.74599e-05)
(-0.00023652 -4.96687e-05 -4.48261e-05)
(-0.000262361 -7.85749e-05 -5.21838e-05)
(-0.000282029 -0.000112294 -5.11888e-05)
(-0.00030757 -0.000150093 -4.50268e-05)
(-0.000349204 -0.000193614 -3.66563e-05)
(-0.000412855 -0.000244394 -2.53015e-05)
(-0.000498382 -0.000300117 -8.22554e-06)
(-0.000600608 -0.000355112 1.60099e-05)
(-0.000710929 -0.000402549 4.62263e-05)
(-0.000822796 -0.000438842 7.95401e-05)
(-0.000932289 -0.000463982 0.00011276)
(-0.00103432 -0.000478934 0.000142921)
(-0.0011268 -0.000486757 0.000168112)
(-0.00120887 -0.000490677 0.000187418)
(-0.00128132 -0.000493644 0.000200943)
(-0.00134507 -0.000497455 0.00020935)
(-0.00140201 -0.000503185 0.000213659)
(-0.00145344 -0.000510857 0.000214729)
(-0.00150106 -0.000520596 0.000213407)
(-0.00154611 -0.000532032 0.000210233)
(-0.00158921 -0.000544744 0.000205453)
(-0.00163074 -0.000558417 0.000199021)
(-0.00167113 -0.000572759 0.000190797)
(-0.00171047 -0.000587524 0.000180835)
(-0.0017483 -0.000602437 0.000168252)
(-0.00178649 -0.000617216 0.000153061)
(-0.00182346 -0.00063152 0.000135444)
(-0.0018592 -0.00064493 0.000113891)
(-0.00189279 -0.000656824 8.8275e-05)
(-0.00191735 -0.000666173 5.66338e-05)
(-0.00192944 -0.000671423 1.91723e-05)
(-0.000126741 -2.12816e-06 4.63111e-05)
(-0.000186759 -2.88843e-05 -3.8824e-05)
(-0.000211277 -5.22511e-05 -4.8471e-05)
(-0.000227453 -8.00602e-05 -4.95222e-05)
(-0.000246436 -0.000110981 -4.60062e-05)
(-0.000279596 -0.000146996 -4.16092e-05)
(-0.000334795 -0.000191194 -3.62755e-05)
(-0.000413874 -0.000242826 -2.6767e-05)
(-0.000511287 -0.000296046 -9.82211e-06)
(-0.000622572 -0.000345613 1.47914e-05)
(-0.0007397 -0.000386001 4.46242e-05)
(-0.000853877 -0.000414063 7.63243e-05)
(-0.000962503 -0.000431673 0.000106898)
(-0.0010622 -0.000441165 0.000133894)
(-0.00115167 -0.000445748 0.000155917)
(-0.00123023 -0.000448137 0.000172452)
(-0.00129943 -0.000450747 0.000183946)
(-0.00136038 -0.000454695 0.000191117)
(-0.00141504 -0.000460495 0.000194835)
(-0.00146501 -0.000468354 0.00019589)
(-0.00151122 -0.00047785 0.000194782)
(-0.00155456 -0.000488676 0.000191819)
(-0.00159547 -0.000500508 0.000186942)
(-0.00163466 -0.00051305 0.000180049)
(-0.00167225 -0.000526024 0.000171347)
(-0.00170776 -0.000539199 0.000159766)
(-0.00174406 -0.000552264 0.000145506)
(-0.00177888 -0.00056491 0.00012897)
(-0.00181253 -0.000576721 0.000108482)
(-0.00184476 -0.000587276 8.42316e-05)
(-0.0018675 -0.000595521 5.42127e-05)
(-0.00187818 -0.000600065 1.83693e-05)
(-7.92228e-05 7.02646e-06 4.18754e-05)
(-0.000130942 -1.20864e-05 -3.09142e-05)
(-0.000152823 -2.90345e-05 -4.23453e-05)
(-0.000164707 -5.00703e-05 -4.47625e-05)
(-0.000176262 -7.31337e-05 -4.28701e-05)
(-0.000198165 -9.96504e-05 -4.0884e-05)
(-0.000240812 -0.000134104 -4.05829e-05)
(-0.000308399 -0.000179148 -3.86807e-05)
(-0.000406492 -0.00023329 -3.0325e-05)
(-0.000518934 -0.000284894 -1.3791e-05)
(-0.000638099 -0.000328679 1.07374e-05)
(-0.00076054 -0.000362438 3.98598e-05)
(-0.000876686 -0.000383906 6.99392e-05)
(-0.000983713 -0.000395744 9.81949e-05)
(-0.00107942 -0.000400976 0.000122529)
(-0.00116458 -0.000403213 0.000142111)
(-0.00123924 -0.000404712 0.000156818)
(-0.00130507 -0.000407145 0.000167186)
(-0.00136312 -0.000411076 0.000173822)
(-0.00141498 -0.000416866 0.000177443)
(-0.00146221 -0.0004244 0.000178612)
(-0.00150556 -0.000433328 0.000177645)
(-0.00154554 -0.000443372 0.000174442)
(-0.00158319 -0.000454168 0.00016895)
(-0.00161871 -0.000465466 0.000161595)
(-0.00165147 -0.000477041 0.000151028)
(-0.0016854 -0.000488438 0.000137677)
(-0.00171775 -0.000499569 0.000122264)
(-0.0017493 -0.000509981 0.000102878)
(-0.00177953 -0.000519168 8.00254e-05)
(-0.00180039 -0.00052647 5.17147e-05)
(-0.00180966 -0.000530433 1.75442e-05)
(-3.84127e-05 1.10397e-05 3.48813e-05)
(-7.71167e-05 -1.97735e-06 -2.21918e-05)
(-9.91007e-05 -1.33956e-05 -3.187e-05)
(-0.000116193 -2.99774e-05 -3.83819e-05)
(-0.000123991 -4.75616e-05 -4.00909e-05)
(-0.000136026 -6.71305e-05 -4.01306e-05)
(-0.000164006 -9.32986e-05 -3.82948e-05)
(-0.00022256 -0.000126635 -4.15075e-05)
(-0.000297412 -0.000169743 -4.52818e-05)
(-0.000406568 -0.000223517 -3.66659e-05)
(-0.00053085 -0.000272319 -1.95924e-05)
(-0.000653459 -0.000308753 4.77817e-06)
(-0.000775455 -0.000334619 3.31717e-05)
(-0.000889446 -0.00034967 6.1751e-05)
(-0.000993515 -0.000357163 8.80777e-05)
(-0.00108516 -0.000359716 0.000110438)
(-0.00116563 -0.000360528 0.000128387)
(-0.00123555 -0.000361377 0.000141986)
(-0.00129686 -0.000363487 0.000151736)
(-0.00135115 -0.000367438 0.000158221)
(-0.00139926 -0.000373054 0.000161863)
(-0.00144234 -0.000380127 0.000163056)
(-0.00148092 -0.000388451 0.00016162)
(-0.00151656 -0.000397588 0.000157564)
(-0.0015494 -0.000407274 0.000151611)
(-0.00157869 -0.000417363 0.000142033)
(-0.00160984 -0.000427194 0.00012956)
(-0.00163909 -0.000436895 0.000115293)
(-0.00166762 -0.000445875 9.69896e-05)
(-0.00169606 -0.000453936 7.56272e-05)
(-0.00171424 -0.000460271 4.90999e-05)
(-0.00172167 -0.000463638 1.66786e-05)
(-1.55228e-05 1.08194e-05 2.60616e-05)
(-2.58676e-05 1.21897e-06 -1.049e-05)
(-3.67238e-05 8.63743e-07 -2.54049e-05)
(-3.61247e-05 -1.40386e-05 -3.2887e-05)
(-3.72474e-05 -2.68513e-05 -2.34073e-05)
(-4.61144e-05 -3.35564e-05 -1.72395e-05)
(-6.65368e-05 -4.33671e-05 -1.85489e-05)
(-0.000109669 -6.56723e-05 -2.70462e-05)
(-0.000203968 -0.000108859 -4.4948e-05)
(-0.000287794 -0.000155023 -5.46827e-05)
(-0.000399159 -0.000207286 -4.35711e-05)
(-0.000535173 -0.000253276 -2.51109e-05)
(-0.000663655 -0.000284458 -1.40702e-06)
(-0.000784489 -0.000304226 2.61776e-05)
(-0.000893161 -0.000313754 5.33266e-05)
(-0.000990999 -0.000317472 7.79224e-05)
(-0.00107681 -0.000318097 9.88438e-05)
(-0.00115184 -0.000318103 0.00011579)
(-0.00121657 -0.000318719 0.000128798)
(-0.00127227 -0.000320778 0.000138211)
(-0.00132095 -0.000324598 0.000144474)
(-0.00136346 -0.000329942 0.000147986)
(-0.0014002 -0.000336718 0.000148398)
(-0.00143346 -0.000344341 0.000145798)
(-0.00146329 -0.000352609 0.000141339)
(-0.00148862 -0.000361419 0.000132731)
(-0.00151671 -0.000369811 0.0001211)
(-0.00154265 -0.00037832 0.000108039)
(-0.00156846 -0.000386179 9.08701e-05)
(-0.00159404 -0.000393036 7.10171e-05)
(-0.00160982 -0.000398691 4.63859e-05)
(-0.00161544 -0.000401581 1.57807e-05)
(8.56098e-06 1.05556e-05 2.72982e-05)
(2.02525e-06 9.45405e-06 -1.26102e-05)
(-1.01437e-05 -6.08887e-07 -2.69726e-05)
(-1.52103e-05 -1.21112e-05 -2.48484e-05)
(-1.73941e-05 -1.41878e-05 -2.32573e-05)
(-2.48728e-05 -1.81233e-05 -2.35649e-05)
(-2.6465e-05 -1.76742e-05 -2.51299e-05)
(-3.19574e-05 -3.15409e-05 -2.63179e-05)
(-6.10245e-05 -5.65082e-05 -1.88802e-05)
(-0.000182961 -9.84979e-05 -2.72406e-05)
(-0.000299198 -0.000141112 -5.46076e-05)
(-0.000405871 -0.00019049 -5.31123e-05)
(-0.00053658 -0.000231032 -3.16658e-05)
(-0.000662471 -0.000255833 -6.58453e-06)
(-0.000780119 -0.000270632 1.99238e-05)
(-0.000884292 -0.000276789 4.566e-05)
(-0.000975737 -0.000278283 6.90461e-05)
(-0.00105413 -0.000277679 8.89819e-05)
(-0.00112158 -0.000277151 0.000105181)
(-0.00117954 -0.000277929 0.000117709)
(-0.00122852 -0.000280226 0.000126681)
(-0.00127004 -0.000284023 0.000132626)
(-0.00130431 -0.000289461 0.000134915)
(-0.00133472 -0.000295738 0.000133735)
(-0.00136083 -0.000302709 0.000130814)
(-0.00138135 -0.000310378 0.000123102)
(-0.001406 -0.000317423 0.000112246)
(-0.00142788 -0.000324878 0.000100422)
(-0.00144971 -0.000331523 8.4356e-05)
(-0.00147321 -0.000337593 6.61516e-05)
(-0.00148539 -0.000342463 4.34957e-05)
(-0.00148891 -0.000344875 1.48191e-05)
(2.06422e-05 7.51561e-06 2.40606e-05)
(2.5375e-05 6.30142e-06 -4.67189e-06)
(2.43088e-05 2.27963e-06 -7.7444e-07)
(9.34429e-06 8.46589e-06 4.03707e-07)
(-3.07724e-06 1.15567e-05 -1.77654e-05)
(-6.27279e-06 1.49154e-08 -2.79774e-05)
(-1.80247e-05 -1.44709e-05 -3.57841e-05)
(-2.59245e-05 -2.5139e-05 -3.56466e-05)
(-3.05497e-05 -3.2012e-05 -3.10763e-05)
(-5.58981e-05 -4.62049e-05 -2.78936e-05)
(-0.000146425 -9.13026e-05 -4.14513e-05)
(-0.000283801 -0.000135296 -5.43959e-05)
(-0.000409868 -0.000173955 -5.38462e-05)
(-0.000539194 -0.000208393 -3.50271e-05)
(-0.000656729 -0.000227154 -1.07731e-05)
(-0.000765053 -0.000236731 1.47048e-05)
(-0.000860423 -0.000239972 3.96146e-05)
(-0.000943554 -0.000240199 6.21886e-05)
(-0.00101385 -0.000239323 8.13926e-05)
(-0.00107196 -0.000238941 9.68017e-05)
(-0.00112064 -0.000240094 0.000108438)
(-0.00116078 -0.000242635 0.00011689)
(-0.00119197 -0.000247055 0.000121038)
(-0.00121916 -0.000252198 0.000121188)
(-0.00124144 -0.00025812 0.00011991)
(-0.00125697 -0.000264914 0.000113057)
(-0.00127797 -0.000270689 0.000102905)
(-0.00129576 -0.000277412 9.24155e-05)
(-0.00131446 -0.000283208 7.75392e-05)
(-0.00133428 -0.00028838 6.09908e-05)
(-0.00134379 -0.000292847 4.04567e-05)
(-0.00134512 -0.000294797 1.38e-05)
(3.63391e-05 1.39805e-05 4.07573e-05)
(4.73222e-05 1.13197e-05 -7.81329e-06)
(4.94957e-05 6.97226e-06 -1.2733e-05)
(4.38585e-05 -2.41601e-06 -1.51784e-05)
(3.72839e-05 -1.08327e-05 -1.6537e-05)
(3.27604e-05 -1.53361e-05 -1.39211e-05)
(2.1819e-05 -1.28213e-05 -9.1304e-06)
(3.52705e-06 -2.84281e-06 -1.24662e-05)
(-2.497e-05 3.13435e-06 -4.01306e-05)
(-2.35329e-05 -1.83603e-05 -4.348e-05)
(-3.61601e-05 -3.67195e-05 -2.57383e-05)
(-0.000139166 -7.56094e-05 -3.7145e-05)
(-0.00027711 -0.000112642 -5.98351e-05)
(-0.000397343 -0.000147974 -5.35788e-05)
(-0.000523051 -0.000181957 -3.55403e-05)
(-0.000636927 -0.000196916 -1.30929e-05)
(-0.000737167 -0.000203735 1.19576e-05)
(-0.000821443 -0.000205206 3.61989e-05)
(-0.00089291 -0.000204653 5.78485e-05)
(-0.000952742 -0.000204288 7.60507e-05)
(-0.00100059 -0.000204824 9.01603e-05)
(-0.00103877 -0.000206424 0.000101103)
(-0.00106602 -0.000210161 0.000107001)
(-0.00108961 -0.000214405 0.000108283)
(-0.00110715 -0.000219337 0.000108656)
(-0.00111611 -0.000225103 0.000102472)
(-0.00113369 -0.000229693 9.29748e-05)
(-0.00114681 -0.000235968 8.38836e-05)
(-0.00116076 -0.000240606 7.0159e-05)
(-0.00117829 -0.000245503 5.54624e-05)
(-0.0011833 -0.000249275 3.71248e-05)
(-0.00118261 -0.000250733 1.26733e-05)
(4.7052e-05 1.52044e-05 4.60645e-05)
(6.39884e-05 1.2598e-05 -7.93521e-06)
(7.04945e-05 8.71981e-06 -1.53765e-05)
(7.25334e-05 1.15311e-06 -1.94528e-05)
(7.07416e-05 -7.66509e-06 -2.0908e-05)
(6.55161e-05 -1.59864e-05 -2.00783e-05)
(5.50139e-05 -2.35094e-05 -1.72301e-05)
(3.95357e-05 -2.69001e-05 -1.09316e-05)
(1.67515e-05 -1.99932e-05 -1.27014e-06)
(-2.11503e-05 6.41267e-06 -1.70179e-05)
(-3.94256e-05 1.03778e-06 -3.89394e-05)
(-3.28248e-05 -1.83296e-05 -2.42493e-05)
(-0.000151179 -6.27707e-05 -4.32406e-05)
(-0.000346208 -0.000102953 -5.54188e-05)
(-0.000387673 -0.000127834 -5.33187e-05)
(-0.000502736 -0.000156094 -3.66869e-05)
(-0.000603238 -0.000167359 -1.26399e-05)
(-0.000690912 -0.000172164 1.22029e-05)
(-0.000763732 -0.000173127 3.54597e-05)
(-0.000820979 -0.000172806 5.56813e-05)
(-0.000867047 -0.000173409 7.18225e-05)
(-0.00090286 -0.00017444 8.51416e-05)
(-0.000925349 -0.000177892 9.25793e-05)
(-0.000945159 -0.000181496 9.46919e-05)
(-0.000958588 -0.000185738 9.68693e-05)
(-0.000962734 -0.0001909 9.14049e-05)
(-0.000976114 -0.000194064 8.23829e-05)
(-0.000984139 -0.000200143 7.47935e-05)
(-0.00099486 -0.000203805 6.23764e-05)
(-0.00100824 -0.000208491 4.95372e-05)
(-0.0010109 -0.000212067 3.35773e-05)
(-0.00100803 -0.000212897 1.14522e-05)
(5.39727e-05 1.3984e-05 4.6478e-05)
(7.55058e-05 1.1157e-05 -7.15635e-06)
(8.55452e-05 7.43879e-06 -1.54633e-05)
(9.10832e-05 -5.52826e-08 -2.05982e-05)