/*--------------------------------*- C++ -*----------------------------------*\
  =========                 |
  \\      /  F ield         | OpenFOAM: The Open Source CFD Toolbox
   \\    /   O peration     | Website:  https://openfoam.org
    \\  /    A nd           | Version:  6
     \\/     M anipulation  |
\*---------------------------------------------------------------------------*/
FoamFile
{
    version     2.0;
    format      ascii;
    class       volScalarField;
    location    "43";
    object      yPlus;
}
// * * * * * * * * * * * * * * * * * * * * * * * * * * * * * * * * * * * * * //

dimensions      [0 0 0 0 0 0 0];

internalField   uniform 0;

boundaryField
{
    inlet
    {
        type            calculated;
        value           uniform 0;
    }
    outlet
    {
        type            calculated;
        value           uniform 0;
    }
    roughCylinder
    {
        type            calculated;
        value           nonuniform List<scalar> 
5120
(
43.4929
51.3133
57.542
63.6685
68.9577
73.2481
76.6858
79.4645
81.7393
83.645
85.3008
86.7837
88.1305
89.3755
90.5496
91.6834
92.8074
93.95
95.1344
96.3781
97.6904
99.0739
100.525
102.038
103.601
105.203
106.827
108.45
110.034
111.509
112.723
113.441
42.7835
50.3188
56.3478
62.3336
67.5487
71.8034
75.2224
77.9927
80.2675
82.1795
83.8438
85.3301
86.6685
87.8997
89.0561
90.1687
91.2692
92.3866
93.5455
94.7619
96.0454
97.3988
98.8184
100.298
101.826
103.392
104.979
106.564
108.11
109.549
110.733
111.432
41.9924
49.2801
55.1221
60.9685
66.1107
70.3345
73.7428
76.5142
78.7993
80.7271
82.4054
83.8974
85.2325
86.4531
87.5928
88.6857
89.7644
90.8585
91.9914
93.181
94.4365
95.7602
97.1486
98.5955
100.09
101.62
103.169
104.717
106.225
107.629
108.782
109.463
41.1851
48.2372
53.8917
59.5943
64.6617
68.8565
72.258
75.0367
77.3409
79.2933
80.9909
82.4913
83.8275
85.0388
86.1659
87.242
88.3005
89.3719
90.4817
91.6461
92.8743
94.1693
95.5275
96.9418
98.4019
99.8958
101.409
102.919
104.391
105.76
106.883
107.545
40.3189
47.1485
52.614
58.1693
63.1642
67.3402
70.7499
73.5513
75.8867
77.8702
79.5916
81.106
82.4488
83.6586
84.7757
85.8369
86.878
87.9301
89.0168
90.1567
91.3595
92.6269
93.9558
95.3389
96.7668
98.2271
99.7037
101.178
102.613
103.947
105.041
105.684
39.4541
46.0622
51.3327
56.7344
61.6561
65.8177
69.2407
72.0685
74.439
76.4595
78.2096
79.7414
81.0947
82.3071
83.419
84.47
85.4961
86.5293
87.597
88.7153
89.8936
91.1347
92.4352
93.788
95.1829
96.6086
98.0512
99.4887
100.888
102.189
103.254
103.878
38.5218
44.9142
49.9812
55.2195
60.0668
64.225
67.6811
70.557
72.9786
75.043
76.8267
78.3844
79.755
80.9794
82.0932
83.1378
84.1529
85.1728
86.2212
87.3183
88.4741
89.6903
90.964
92.2881
93.6524
95.0464
96.4532
97.8563
99.2207
100.488
101.525
102.132
37.594
43.7675
48.6229
53.6896
58.4615
62.6233
66.1191
69.0437
71.5154
73.6295
75.4546
77.041
78.4348
79.6728
80.7951
81.8394
82.8479
83.8545
84.8894
85.9694
87.104
88.2967
89.5441
90.8393
92.1722
93.5318
94.9068
96.2746
97.6038
98.8395
99.848
100.436
36.5662
42.5225
47.1499
52.0242
56.7088
60.8804
64.44
67.4478
70.0011
72.1801
74.0554
75.6859
77.1109
78.3749
79.5127
80.5657
81.5734
82.5762
83.5975
84.6603
85.7761
86.9468
88.1697
89.4379
90.7426
92.0725
93.4113
94.7453
96.0418
97.2455
98.2257
98.7966
35.5344
41.2676
45.6611
50.3332
54.9287
59.1203
62.7554
65.8448
68.4706
70.7206
72.6584
74.3317
75.7972
77.0898
78.2494
79.3138
80.3279
81.3269
82.3421
83.3941
84.4928
85.6429
86.8414
88.0821
89.3553
90.6497
91.9591
93.2573
94.518
95.6907
96.6438
97.1945
34.3201
39.836
43.9724
48.4043
52.8763
57.0781
60.814
64.0442
66.8114
69.1692
71.1873
72.9381
74.4555
75.7907
76.9809
78.0696
79.095
80.1022
81.1124
82.1529
83.2373
84.3684
85.5444
86.759
88.0046
89.2708
90.5415
91.807
93.0359
94.1773
95.1018
95.6354
33.0665
38.376
42.2556
46.4415
50.7896
55.0188
58.8779
62.2435
65.1213
67.5904
69.7109
71.5214
73.1028
74.49
75.7222
76.8357
77.8814
78.8922
79.9053
80.9431
82.0154
83.1292
84.2824
85.4703
86.6837
87.9128
89.1553
90.3844
91.5766
92.6874
93.5842
94.0962
31.5096
36.6118
40.1869
44.0478
48.1858
52.3873
56.3829
59.9904
63.1389
65.8077
68.0653
70.0211
71.6935
73.1461
74.4262
75.5854
76.6569
77.6923
78.7102
79.7417
80.805
81.9032
83.0365
84.1995
85.3862
86.5873
87.7898
88.9858
90.1479
91.2266
92.0947
92.5901
29.8559
34.7804
38.0778
41.6298
45.5745
49.788
53.9672
57.792
61.103
63.9629
66.4131
68.4542
70.2249
71.7679
73.1258
74.3285
75.4398
76.488
77.5195
78.5596
79.6166
80.7014
81.8135
82.9502
84.1038
85.2663
86.4396
87.5977
88.7197
89.7693
90.6071
91.0783
27.6256
32.3734
35.3069
38.3823
41.9181
45.9532
50.2615
54.5123
58.414
61.6866
64.3832
66.7174
68.6624
70.3146
71.7396
73.0188
74.1753
75.2714
76.3223
77.3615
78.4161
79.4895
80.5839
81.6965
82.8233
83.9555
85.0885
86.2122
87.3059
88.32
89.1306
89.5849
25.0984
29.7714
32.4557
35.1691
38.3963
42.3989
46.97
51.5453
55.589
59.2212
62.3501
64.8207
66.936
68.7452
70.3214
71.6759
72.9013
74.0222
75.0995
76.1643
77.2204
78.2846
79.3595
80.4454
81.5368
82.6285
83.7276
84.81
85.8581
86.8468
87.6196
88.0452
21.1775
25.8695
28.1349
30.0909
32.4609
35.7806
40.3079
45.6172
51.295
55.8643
59.4462
62.5857
65.0524
67.0756
68.743
70.221
71.5221
72.7266
73.8455
74.9145
75.976
77.034
78.0931
79.1546
80.2176
81.2735
82.3331
83.3796
84.4013
85.3454
86.0946
86.5016
16.1905
21.321
23.8028
25.6021
27.1831
30.1959
35.0162
41.3788
46.2605
51.7468
56.5626
59.9006
62.7522
65.072
67.0601
68.6859
70.1058
71.3531
72.5159
73.6371
74.7113
75.7646
76.8051
77.8384
78.8616
79.8717
80.8889
81.8866
82.851
83.7786
84.476
84.8494
6.20828
11.3551
12.4015
11.633
11.8105
13.4597
17.9238
25.5122
38.7314
45.822
51.2622
56.5752
60.1776
62.9864
65.1045
66.9309
68.482
69.8763
71.118
72.2469
73.3368
74.391
75.4164
76.4231
77.4144
78.3813
79.3575
80.3168
81.2604
82.1245
82.8038
83.1528
2.46715
4.41929
9.74896
14.4138
14.729
14.5013
8.31798
4.0641
16.7681
36.424
46.8361
51.7476
56.498
59.9486
62.819
64.9874
66.7708
68.239
69.5532
70.7835
71.9029
72.9575
73.9637
74.9384
75.879
76.7826
77.7075
78.6038
79.4681
80.3304
80.933
81.2456
11.5208
15.9335
16.875
16.4734
15.8681
12.5197
15.7121
17.5444
17.087
18.0957
31.4956
45.7416
52.1556
56.9944
60.092
62.6199
64.6373
66.3894
67.8568
69.0923
70.2449
71.3113
72.3009
73.244
74.1495
75.0073
75.8773
76.7268
77.5783
78.3485
78.9435
79.2132
19.9485
24.4365
26.4289
27.3802
27.197
25.8919
22.9943
18.9484
21.1276
15.292
14.2084
32.1971
45.0536
51.2941
56.3741
59.7466
62.3151
64.2049
65.8018
67.2491
68.4601
69.5347
70.4995
71.4011
72.2259
72.9558
73.7808
74.5503
75.2864
76.0687
76.5358
76.7682
22.1082
27.0964
29.8197
31.847
33.0757
33.3362
32.268
29.2506
23.6567
25.3443
22.8812
8.91149
33.9162
46.3063
51.7806
56.0658
59.0612
61.5774
63.4992
64.9222
66.2036
67.3112
68.252
69.1143
69.9121
70.6433
71.3527
72.0227
72.7493
73.4056
73.8909
74.0484
22.8324
27.9161
30.8376
33.1832
34.9044
35.9628
36.2757
35.6073
33.306
28.5851
23.582
18.2086
13.4966
33.3673
44.7818
50.8391
55.4128
58.1873
60.3748
62.3017
63.6997
64.8337
65.7253
66.518
67.1377
67.486
68.2287
68.8491
69.4109
70.0696
70.3032
70.4026
22.2331
27.4524
30.5307
33.1024
35.1253
36.5877
37.4898
37.8248
37.5011
36.0286
32.5081
27.3865
28.5929
34.9673
33.9625
44.149
49.4256
53.8855
56.8172
58.5557
60.1019
61.3171
62.1503
62.9009
63.5787
64.2328
64.6773
64.881
65.4264
65.895
66.2241
66.2449
20.7541
26.1057
29.2755
31.9809
34.1927
35.9087
37.1502
37.9548
38.358
38.315
37.4007
34.0528
26.6428
33.6368
32.8582
32.0064
42.8828
47.4589
51.1332
54.3174
56.1068
57.4129
58.0896
58.6684
58.7716
58.0271
58.8484
59.3732
59.7196
60.0731
59.7769
59.5597
18.7797
24.224
27.4213
30.1786
32.487
34.3608
35.8282
36.9444
37.7817
38.3841
38.6381
37.8815
34.1063
28.3415
30.8817
21.0133
28.058
39.8582
44.9648
46.9479
49.1
50.6012
51.2013
51.6841
52.5258
54.0335
54.2418
51.9133
52.7
52.0931
52.1684
52.558
16.5483
21.9704
25.092
27.795
30.099
32.0417
33.6658
35.0278
36.208
37.2803
38.2446
38.8855
38.4578
34.7411
27.0085
25.5372
6.57228
23.6305
32.7179
40.2893
42.2823
44.6405
44.6299
44.132
41.9381
38.247
40.5384
40.5904
40.3334
39.5137
38.0833
36.2701
14.3058
19.5668
22.5089
25.0558
27.2601
29.1819
30.8798
32.4166
33.8657
35.3026
36.7525
38.113
39.0559
38.7442
35.5561
31.5576
20.6758
33.0134
17.1958
17.7314
23.7571
25.8889
27.4581
25.1328
28.8185
29.8483
34.1103
22.7048
43.0289
13.302
35.2528
21.2184
12.3457
17.3264
20.0153
22.3354
24.372
26.2034
27.8989
29.5239
31.1434
32.8219
34.6051
36.4514
38.1711
39.3439
39.2644
35.7644
28.4622
27.6759
6.41901
9.68274
31.9245
24.7112
32.4859
31.0941
27.28
38.0688
40.3025
16.4708
43.9477
10.4526
13.1219
31.1138
10.8428
15.4793
17.9013
19.979
21.8261
23.5335
25.1742
26.8081
28.4869
30.2589
32.1721
34.2399
36.3873
38.3653
39.7272
39.6015
37.0975
30.962
19.7279
29.0499
27.1246
32.1413
38.4214
32.787
31.422
39.4614
35.0694
35.6806
34.7572
34.7659
31.6026
33.0743
9.74235
14.1392
16.3368
18.2124
19.901
21.4967
23.0658
24.6548
26.3003
28.0375
29.9085
31.9557
34.1896
36.508
38.6082
39.9479
40.0243
38.1208
33.731
31.0401
26.8505
23.6947
39.2036
32.159
32.4197
30.4143
30.2477
39.1315
37.5884
41.0574
42.5747
40.9479
9.15848
13.37
15.4109
17.156
18.7484
20.2729
21.7797
23.2979
24.8496
26.4621
28.1741
30.038
32.1068
34.3888
36.76
38.8633
40.2009
40.3593
39.348
36.382
37.306
35.1359
33.4846
39.4464
40.0473
37.6306
38.7151
43.0168
42.4641
44.6441
45.3297
43.6638
8.98787
13.1136
15.0849
16.7819
18.3456
19.8454
21.3124
22.7601
24.201
25.6574
27.1655
28.7754
30.5489
32.5451
34.7722
37.0912
39.1453
40.4715
40.8691
39.9289
40.7627
40.0609
39.2483
41.9627
42.1294
41.3104
41.6067
43.1484
42.9512
44.2995
45.1091
43.4196
9.15924
13.2751
15.2476
16.963
18.5509
20.0632
21.5146
22.9086
24.2537
25.5697
26.8885
28.2525
29.7159
31.3447
33.2027
35.2975
37.4891
39.4436
40.7681
41.0201
41.7554
41.5554
41.5398
42.3891
42.1978
41.9022
41.9631
42.4045
42.2098
43.0567
43.7622
42.1748
9.58034
13.7371
15.7578
17.5364
19.1842
20.7366
22.197
23.5633
24.8424
26.0539
27.2262
28.3939
29.5986
30.894
32.347
34.0203
35.9178
37.9001
39.6436
40.6607
41.4643
41.528
41.6503
41.7813
41.2245
40.9387
40.9071
40.87
40.6698
41.1716
41.6865
40.382
10.1975
14.4245
16.517
18.3792
20.103
21.7092
23.1939
24.5538
25.7972
26.9445
28.0217
29.0561
30.077
31.1214
32.2405
33.4968
34.9427
36.5659
38.2001
39.459
40.3421
40.575
40.7022
40.5279
39.7704
39.3908
39.2888
39.0622
38.8922
39.2091
39.5446
38.705
10.9588
15.2832
17.4601
19.4135
21.2163
22.8789
24.3942
25.7605
26.9905
28.1066
29.1334
30.0924
31.0019
31.8836
32.7699
33.7063
34.7443
35.914
37.1616
38.2643
39.0737
39.3747
39.4655
39.177
38.4003
37.9482
37.771
37.5086
37.4055
37.667
37.8977
37.5458
11.7786
16.2666
18.5369
20.5825
22.4621
24.1794
25.7269
27.108
28.3401
29.4489
30.4579
31.3845
32.2391
33.0319
33.7793
34.5077
35.253
36.0481
36.8868
37.6668
38.2633
38.5101
38.5258
38.1915
37.4766
36.9917
36.751
36.5248
36.5056
36.7914
37.0094
37.0414
12.7354
17.3443
19.7076
21.8437
23.7966
25.5656
27.1463
28.5474
29.7924
30.9098
31.9228
32.8453
33.6825
34.4373
35.1157
35.7291
36.2962
36.839
37.3648
37.8342
38.176
38.2831
38.1858
37.8079
37.155
36.6562
36.3729
36.2064
36.2714
36.6147
36.8811
37.1688
13.5214
13.9288
14.4032
14.7848
15.1557
15.4513
15.7097
15.9104
16.0717
16.1855
16.2625
16.301
16.3048
16.2752
16.2162
16.1301
16.0193
15.8891
15.7509
15.6364
15.6415
15.7558
15.8897
16.0147
16.1202
16.2009
16.2549
16.2796
16.2707
16.2274
16.1458
16.0275
15.8617
15.6568
15.3943
15.095
14.7212
14.3384
13.8639
13.4588
18.2521
18.6751
19.1691
19.5685
19.9572
20.2737
20.5545
20.7794
20.9661
21.107
21.2114
21.2782
21.3099
21.3064
21.2699
21.2023
21.1046
20.9808
20.8419
20.7219
20.7281
20.8479
20.9819
21.0996
21.1912
21.2529
21.2839
21.282
21.2451
21.1736
21.0645
20.9192
20.7282
20.4992
20.2146
19.8947
19.5035
19.1031
18.6093
18.189
20.6934
21.1415
21.6653
22.09
22.5069
22.8536
23.1685
23.4304
23.657
23.8406
23.9894
24.1022
24.1805
24.2228
24.2293
24.2007
24.1372
24.0416
23.9235
23.8158
23.8213
23.9283
24.0407
24.1297
24.1866
24.209
24.1967
24.1489
24.0654
23.948
23.7948
23.6068
23.376
23.1102
22.7917
22.4418
22.0223
21.5966
21.0728
20.6274
22.8919
23.3591
23.9058
24.3502
24.7914
25.1652
25.5118
25.809
26.0743
26.3005
26.4934
26.6517
26.7765
26.8651
26.9158
26.9281
26.9013
26.8376
26.7465
26.6604
26.6643
26.7492
26.8343
26.891
26.9108
26.8921
26.8354
26.7413
26.6115
26.4487
26.2514
26.0212
25.7518
25.4509
25.1007
24.7238
24.28
23.8344
23.2874
22.8224
24.8868
25.3586
25.9133
26.3642
26.8173
27.2063
27.573
27.8945
28.1876
28.4462
28.6747
28.8706
29.0337
29.1604
29.2484
29.2954
29.3006
29.2655
29.2003
29.1361
29.1382
29.2006
29.2597
29.2875
29.2752
29.2215
29.1276
28.9953
28.8274
28.6272
28.3946
28.1322
27.8353
27.5102
27.1401
26.748
26.2923
25.8398
25.2844
24.8143
26.6786
27.1388
27.6877
28.1333
28.5868
28.981
29.3584
29.697
30.0127
30.2979
30.5564
30.7841
30.9798
31.1393
31.2591
31.3361
31.3687
31.3584
31.3154
31.2685
31.2693
31.3136
31.3503
31.3532
31.3132
31.2294
31.1035
30.9386
30.7383
30.5065
30.2443
29.9556
29.6365
29.2946
28.9139
28.5166
28.0604
27.613
27.0631
26.604
28.268
28.7054
29.2408
29.6755
30.1251
30.5221
30.9096
31.2647
31.6014
31.9115
32.1973
32.4539
32.679
32.8677
33.0157
33.1189
33.1751
33.1856
33.16
33.1254
33.1254
33.1566
33.1755
33.1574
33.0936
32.9835
32.8294
32.6354
32.4058
32.1453
31.856
31.5428
31.2029
30.8448
30.4543
30.0545
29.6023
29.1657
28.629
28.1921
29.6711
30.0816
30.6031
31.028
31.4762
31.8801
32.2795
32.652
33.0094
33.3431
33.6541
33.9371
34.1887
34.4033
34.5759
34.7018
34.7778
34.805
34.7925
34.7659
34.7654
34.788
34.7936
34.7585
34.6746
34.5418
34.3631
34.1432
33.8873
33.6005
33.2862
32.9494
32.5893
32.214
31.8118
31.4053
30.9546
30.5276
30.0048
29.5944
30.9172
31.3023
31.8134
32.2338
32.6851
33.0982
33.5104
33.8999
34.2766
34.6318
34.9655
35.2718
35.5464
35.7834
35.9768
36.1212
36.2134
36.2535
36.2501
36.2284
36.2277
36.2451
36.2412
36.193
36.0929
35.9412
35.7417
35.4996
35.2206
34.9107
34.5739
34.2158
33.8366
33.4443
33.0294
32.6138
32.16
31.7376
31.225
30.8398
32.0372
32.3997
32.9045
33.3242
33.7797
34.2023
34.6265
35.0314
35.425
35.7989
36.152
36.478
36.772
37.0273
37.2377
37.3972
37.5019
37.5515
37.5542
37.5352
37.5343
37.549
37.5388
37.4809
37.3683
37.2015
36.985
36.7245
36.4263
36.0968
35.7407
35.364
34.9679
34.5604
34.1333
33.7082
33.25
32.8281
32.3216
31.9587
33.0527
33.394
33.8942
34.3134
34.7732
35.204
35.6388
36.0567
36.4647
36.8541
37.2231
37.5652
37.8748
38.1449
38.3686
38.5399
38.6541
38.7107
38.7178
38.7001
38.6995
38.7127
38.6982
38.6332
38.511
38.3327
38.1028
37.8276
37.5139
37.1683
36.7964
36.4041
35.9936
35.573
35.1353
34.7016
34.2391
33.8173
33.3151
32.9731
33.9748
34.2935
34.7879
35.206
35.6688
36.1066
36.5501
36.9789
37.3987
37.8008
38.1829
38.5379
38.8599
39.1416
39.376
39.5565
39.6783
39.7407
39.7517
39.736
39.7354
39.747
39.7288
39.6582
39.5285
39.3411
39.1008
38.814
38.4879
38.1294
37.7444
37.3394
36.9169
36.4852
36.0385
35.5976
35.1316
34.7106
34.2137
33.8936
34.8051
35.0983
35.5849
36.0008
36.4655
36.909
37.3599
37.7979
38.2275
38.6402
39.0327
39.3983
39.7302
40.0213
40.2642
40.4522
40.5807
40.649
40.6649
40.6526
40.6521
40.6606
40.6379
40.562
40.4261
40.2313
39.9827
39.6868
39.3508
38.9818
38.5862
38.1705
37.738
37.2967
36.8423
36.3951
35.9267
35.5072
35.0175
34.7224
35.5425
35.8059
36.2818
36.6941
37.1601
37.6086
38.0661
38.5122
38.9504
39.3721
39.7735
40.1476
40.4877
40.7863
41.0361
41.2307
41.3656
41.4402
41.4628
41.456
41.4555
41.459
41.4304
41.3488
41.2072
41.0064
40.7512
40.448
40.104
39.7264
39.3218
38.897
38.4553
38.0055
37.544
37.0911
36.6207
36.2039
35.7241
35.458
36.1868
36.4134
36.8746
37.2821
37.7485
38.2018
38.6657
39.1197
39.5659
39.9957
40.4049
40.7863
41.1332
41.4382
41.6942
41.8949
42.0362
42.1181
42.1489
42.1491
42.1487
42.1458
42.11
42.0221
41.8749
41.6688
41.408
41.0987
40.748
40.3631
39.9505
39.5171
39.067
38.6087
38.14
37.6813
37.2095
36.7967
36.3307
36.1008
36.7399
36.918
37.3591
37.7592
38.2252
38.6834
39.1539
39.6159
40.0703
40.508
40.9245
41.3128
41.6659
41.9768
42.2383
42.4449
42.5928
42.6828
42.7226
42.7302
42.73
42.7205
42.677
42.5824
42.4296
42.2184
41.9527
41.638
41.2813
40.8896
40.4693
40.0276
39.5687
39.1016
38.6252
38.1605
37.6878
37.2808
36.834
36.6524
37.2056
37.3168
37.7292
38.1187
38.5831
39.0461
39.5235
39.994
40.4568
40.9028
41.3268
41.7218
42.081
42.3974
42.6645
42.877
43.0318
43.1299
43.1787
43.1933
43.1935
43.1781
43.127
43.0257
42.8674
42.6513
42.3809
42.0611
41.6987
41.3002
40.8722
40.4217
39.9536
39.477
38.9923
38.5213
38.0485
37.6502
37.2312
37.1179
37.5898
37.607
37.9754
38.3508
38.8113
39.279
39.7638
40.2435
40.7154
41.1702
41.6022
42.0041
42.3696
42.6918
42.9645
43.183
43.3446
43.4506
43.5077
43.5288
43.5295
43.5092
43.4513
43.3438
43.1802
42.9594
42.6842
42.3594
41.991
41.5855
41.1493
40.6895
40.2113
39.724
39.2307
38.7528
38.2819
37.8956
37.5204
37.5054
37.8983
37.789
38.0913
38.4433
38.8976
39.3691
39.8613
40.3507
40.8325
41.2968
41.7374
42.1471
42.5192
42.8476
43.1262
43.3509
43.5192
43.6326
43.6973
43.7237
43.7252
43.7011
43.6377
43.5245
43.3558
43.1304
42.8504
42.5203
42.1455
41.7325
41.2875
40.8175
40.3284
39.83
39.3271
38.8429
38.3747
38.0092
37.7012
37.8201
38.1294
37.8615
38.0721
38.3863
38.829
39.303
39.8023
40.3017
40.7939
41.2683
41.7182
42.1362
42.5158
42.8508
43.1357
43.3666
43.5414
43.6616
43.7329
43.7641
43.7665
43.7396
43.6717
43.5537
43.3804
43.1503
42.8655
42.5296
42.1482
41.7272
41.2728
40.7921
40.2917
39.7818
39.2695
38.7788
38.3184
37.9878
37.7704
38.0499
38.2515
37.8118
37.913
38.1747
38.5974
39.0725
39.5773
40.0863
40.5886
41.0733
41.5327
41.9595
42.3468
42.6887
42.9801
43.2171
43.3982
43.5247
43.6015
43.6368
43.6404
43.6117
43.5404
43.4185
43.241
43.0066
42.7169
42.3753
41.9871
41.558
41.0943
40.6032
40.092
39.5712
39.0509
38.5563
38.1124
37.8302
37.7179
38.164
38.2214
37.6195
37.608
37.8086
38.2031
38.6741
39.1854
39.7028
40.2147
40.709
41.1775
41.6125
42.0073
42.356
42.6534
42.8961
43.0827
43.2144
43.2959
43.3345
43.3394
43.3098
43.2365
43.1117
42.9311
42.6931
42.3991
42.0524
41.6581
41.2218
40.7499
40.2497
39.7289
39.1992
38.6709
38.1788
37.7602
37.5335
37.5217
38.1075
37.969
37.2541
37.1558
37.3021
37.6682
38.1313
38.646
39.1694
39.6884
40.1899
40.6655
41.107
41.5077
41.8617
42.164
42.4111
42.6016
42.7369
42.8217
42.8629
42.8692
42.8399
42.7659
42.6402
42.458
42.218
41.9214
41.5714
41.1729
40.7317
40.2541
39.748
39.221
38.6857
38.1552
37.6724
37.2833
37.1112
37.1857
37.8841
37.5325
36.7452
36.5899
36.6944
37.0347
37.4862
37.9994
38.5272
39.05
39.5555
40.0347
40.4796
40.8833
41.2397
41.5441
41.7931
41.9852
42.1218
42.2077
42.2502
42.258
42.2304
42.1581
42.0339
41.8528
41.6134
41.317
40.9669
40.5676
40.1252
39.6461
39.138
38.6095
38.0721
37.5455
37.0761
36.7129
36.5801
36.703
37.4561
36.9427
36.1386
35.9661
36.0509
36.3757
36.8169
37.3254
37.852
38.3734
38.8778
39.3557
39.7993
40.2013
40.5561
40.8588
41.1056
41.2954
41.4298
41.5139
41.5559
41.5653
41.5412
41.4737
41.3544
41.1782
40.9435
40.6514
40.3054
39.9103
39.4719
38.9969
38.4928
37.9689
37.4361
36.9172
36.4603
36.1115
35.9918
36.1135
36.8479
36.3887
35.592
35.421
35.4964
35.8092
36.2376
36.735
37.2524
37.7654
38.262
38.7323
39.1684
39.5633
39.9109
40.2063
40.4461
40.6288
40.7562
40.8344
40.8732
40.884
40.8658
40.8064
40.6961
40.5288
40.3028
40.0196
39.6824
39.2962
38.8668
38.401
37.9066
37.3929
36.8716
36.3666
35.9257
35.5925
35.4871
35.6134
36.3491
36.0151
35.2355
35.0744
35.1472
35.4505
35.8643
36.3452
36.8457
37.3434
37.8253
38.2814
38.7036
39.085
39.4194
39.702
39.9291
40.0992
40.2142
40.281
40.3129
40.3247
40.3152
40.268
40.1705
40.0159
39.8027
39.5322
39.2081
38.8351
38.419
37.967
37.4867
36.9879
36.4833
35.9955
35.5715
35.2539
35.1618
35.2976
36.0448
35.8689
35.1555
35.0316
35.1132
35.4093
35.8045
36.2608
36.7342
37.2073
37.6658
38.0998
38.5009
38.8622
39.1774
39.4418
39.6513
39.8043
39.9023
39.9529
39.9734
39.9862
39.9887
39.9571
39.8755
39.7368
39.5398
39.2861
38.9795
38.6248
38.2281
37.7962
37.3371
36.8609
36.3813
35.9171
35.5123
35.2057
35.113
35.2278
35.9357
35.8492
35.2746
35.2372
35.3612
35.6695
36.0558
36.491
36.9381
37.384
37.815
38.2219
38.5967
38.9327
39.2239
39.4656
39.6537
39.7861
39.8637
39.894
39.8987
39.9115
39.9278
39.9126
39.8469
39.7241
39.5435
39.3073
39.0193
38.6841
38.3078
37.8972
37.4605
37.0073
36.5519
36.1095
35.7206
35.4202
35.3201
35.409
36.0704
36.4375
35.8338
35.7717
35.8689
36.148
36.5018
36.9034
37.3214
37.7401
38.1458
38.5287
38.8807
39.195
39.4661
39.6887
39.8592
39.975
40.0362
40.0502
40.041
40.0559
40.0858
40.0845
40.0321
39.9232
39.7575
39.5377
39.2674
38.9516
38.5958
38.2068
37.7928
37.3636
36.9333
36.5175
36.1509
35.8634
35.7651
35.8377
36.4673
37.1714
36.567
36.4908
36.5525
36.7904
37.0993
37.4611
37.8429
38.2288
38.6044
38.9596
39.2862
39.5774
39.8274
40.0313
40.1849
40.2858
40.3338
40.3354
40.3163
40.3333
40.3733
40.3823
40.3408
40.2437
40.0913
39.886
39.6315
39.3322
38.9936
38.6221
38.225
37.8114
37.3944
36.9884
36.6231
36.3246
36.2
36.229
36.8003
37.8061
37.121
36.9889
37.0051
37.2061
37.4863
37.8253
38.1875
38.5563
38.9165
39.2578
39.5719
39.8517
40.0915
40.2862
40.4319
40.5261
40.5684
40.5654
40.544
40.5651
40.6116
40.6275
40.5935
40.5053
40.3634
40.1701
39.9293
39.6458
39.3247
38.9726
38.5971
38.2075
37.8169
37.4388
37.1041
36.8291
36.7167
36.725
37.2357
43.4902
51.3105
57.5391
63.6655
68.9543
73.2441
76.6814
79.4598
81.7346
83.6401
85.2957
86.7781
88.1244
89.3688
90.5422
91.6753
92.7983
93.9397
95.123
96.3654
97.6763
99.058
100.507
102.018
103.578
105.176
106.795
108.413
109.99
111.462
112.669
113.391
42.7766
50.3129
56.3427
62.3293
67.545
71.8001
75.2197
77.99
80.2644
82.1758
83.8394
85.3252
86.663
87.8935
89.0489
90.1605
91.26
92.3765
93.5341
94.7492
96.0312
97.3827
98.8007
100.277
101.803
103.364
104.946
106.526
108.064
109.501
110.677
111.38
41.9904
49.2784
55.1207
60.9671
66.1088
70.3319
73.7395
76.5103
78.7952
80.723
82.4012
83.8926
85.2269
86.4467
87.5858
88.6778
89.7555
90.8484
91.98
93.1681
94.4221
95.744
97.1307
98.5744
100.066
101.591
103.135
104.677
106.178
107.578
108.724
109.409
41.1805
48.2332
53.8882
59.5913
64.659
68.8543
72.2562
75.0351
77.3391
79.2907
80.9873
82.487
83.8225
85.0331
86.1591
87.234
88.2916
89.3618
90.4703
91.6333
92.8599
94.153
95.509
96.9205
98.3777
99.8673
101.374
102.879
104.341
105.707
106.823
107.489
40.3167
47.1474
52.6138
58.1695
63.1644
67.3398
70.7487
73.5494
75.8842
77.8677
79.5889
81.1027
82.4444
83.6531
84.7693
85.8296
86.8694
87.9202
89.0055
90.1438
91.3449
92.6104
93.9372
95.3178
96.7419
98.1975
99.6687
101.136
102.563
103.893
104.978
105.627
39.4537
46.062
51.3326
56.7343
61.6557
65.8171
69.2399
72.0677
74.4379
76.4574
78.2063
79.7374
81.0901
82.3018
83.4126
84.4623
85.4874
86.5194
87.5856
88.7026
89.879
91.1182
92.4165
93.7667
95.1582
96.5793
98.0148
99.4458
100.835
102.132
103.188
103.82
38.5198
44.914
49.9823
55.2217
60.0694
64.2278
67.6836
70.5591
72.9801
75.0443
76.8277
78.3838
79.7528
80.9756
82.0879
83.1314
84.1448
85.1632
86.2102
87.3054
88.4595
89.6737
90.945
92.266
93.627
95.0156
96.4167
97.812
99.1663
100.43
101.456
102.07
37.5986
43.7724
48.6279
53.6941
58.4649
62.6252
66.1195
69.0428
71.5134
73.626
75.4497
77.0363
78.4298
79.6673
80.7889
81.8318
82.8393
83.8446
84.8778
85.9566
87.0893
88.28
89.5251
90.8173
92.147
93.5016
94.8683
96.2285
97.5459
98.7782
99.7756
100.373
36.5668
42.5254
47.1546
52.0304
56.7164
60.8888
64.4491
67.4573
70.0105
72.1896
74.0643
75.691
77.113
78.3745
79.5096
80.5611
81.5664
82.5674
83.5871
84.6474
85.7614
86.93
88.1503
89.4157
90.7162
92.0403
93.3731
94.6978
95.9818
97.1817
98.1497
98.7305
35.5442
41.2782
45.6717
50.343
54.9365
59.125
62.7566
65.8427
68.4658
70.7126
72.648
74.324
75.7909
77.0832
78.2429
79.306
80.3193
81.3168
82.33
83.3813
84.4779
85.626
86.8224
88.0597
89.3291
90.6194
91.9176
93.207
94.4533
95.6226
96.5615
97.1262
34.3291
39.8473
43.9863
48.4208
52.8952
57.0986
60.8358
64.0665
66.834
69.1932
71.2111
72.9534
74.4642
75.7961
76.9817
78.0676
79.0898
80.0946
81.1032
82.14
83.2224
84.3513
85.5244
86.7364
87.9775
89.238
90.5006
91.7556
92.9684
94.1056
95.0153
95.5628
33.0828
38.3928
42.272
46.456
50.8003
55.0244
58.8781
62.239
65.1119
67.574
69.6896
71.5084
73.0953
74.4815
75.7146
76.8275
77.8724
78.8818
79.892
80.9299
82.0003
83.112
84.2635
85.4474
86.657
87.8806
89.1106
90.3276
91.5026
92.6092
93.4883
94.0216
31.5343
36.6393
40.2191
44.0856
48.2292
52.4344
56.4302
60.0349
63.1821
65.8552
68.1149
70.0517
71.7093
73.1591
74.4334
75.5872
76.6543
77.6861
78.7028
79.7291
80.7897
81.8857
83.0157
84.1765
85.3587
86.5546
87.7456
88.9298
90.07
91.1455
91.9947
92.5086
29.884
34.809
38.1046
41.6519
45.5877
49.7901
53.963
57.7863
61.0918
63.9353
66.372
68.435
70.2218
71.7602
73.1163
74.3199
75.4305
76.477
77.504
78.5453
79.601
80.6837
81.7948
82.9268
84.076
85.2314
86.3914
87.5318
88.6329
89.6773
90.4917
90.9949
27.6815
32.4307
35.3704
38.4568
42.0074
46.0567
50.3583
54.591
58.4819
61.7678
64.4789
66.7687
68.6791
70.3314
71.7555
73.0261
74.1757
75.267
76.3175
77.3493
78.4
79.4711
80.5622
81.6731
82.7957
83.9245
85.0399
86.1504
87.2145
88.2272
89.0119
89.4914
25.1628
29.8337
32.5164
35.2216
38.4292
42.3952
46.9782
51.557
55.6017
59.1918
62.2717
64.8003
66.9579
68.7541
70.313
71.6666
72.8922
74.0105
75.0802
76.1478
77.2037
78.2662
79.3411
80.4216
81.5079
82.5904
83.6751
84.7322
85.7513
86.7337
87.4751
87.9506
21.3492
26.0197
28.2777
30.2298
32.5923
35.9655
40.3671
45.7281
51.3663
55.9777
59.6384
62.6596
65.0447
67.0736
68.7643
70.2372
71.526
72.7238
73.8446
74.9028
75.9586
77.0144
78.0706
79.1308
80.1902
81.2451
82.2789
83.3093
84.2919
85.2359
85.9488
86.3915
16.6241
21.7017
24.0697
25.8709
27.6551
30.5962
35.8732
41.4592
46.4058
51.7622
56.3701
59.9046
62.8635
65.1536
67.0728
68.6756
70.0968
71.3408
72.4898
73.6163
74.6924
75.7452
76.7872
77.8146
78.832
79.8332
80.8308
81.7922
82.7137
83.6356
84.2875
84.737
7.70994
11.9477
12.5569
7.93998
7.15543
11.2189
15.3887
27.0486
38.693
45.9845
51.831
56.6832
60.0696
62.889
65.102
66.96
68.4928
69.8745
71.1229
72.2368
73.3174
74.3693
75.3943
76.3992
77.3869
78.3542
79.2969
80.2322
81.1251
81.9885
82.6153
83.0195
5.32954
10.2266
11.2492
9.60799
15.2119
19.2822
16.0915
21.4976
17.1122
35.1903
45.8303
51.8123
56.8809
60.2644
62.9285
64.9828
66.758
68.2258
69.516
70.7532
71.8796
72.936
73.9475
74.9155
75.8512
76.7537
77.6413
78.4865
79.2824
80.1442
80.6776
81.1012
10.8024
15.3845
17.2877
18.941
15.8162
14.8765
7.94059
14.8132
21.3684
25.5656
33.7257
46.1198
51.7825
56.6109
59.9696
62.6601
64.6639
66.3868
67.8675
69.0872
70.2221
71.2863
72.282
73.2202
74.1194
74.973
75.8099
76.6175
77.4011
78.1681
78.679
79.0417
19.5433
23.96
25.6803
26.1927
25.9021
24.1195
22.1626
16.9846
21.0594
17.2021
18.3615
33.2078
46.3798
52.2425
56.7809
59.7732
62.289
64.1912
65.7493
67.1962
68.4266
69.5077
70.4891
71.3815
72.2066
72.9728
73.7011
74.3953
75.0192
75.813
76.1664
76.5667
22.1449
27.1052
29.7901
31.7525
32.9061
33.0571
31.8297
29.1872
23.9878
21.7694
27.5519
19.3275
30.7223
45.0299
51.2926
56.1173
59.1189
61.5649
63.5119
64.9331
66.1755
67.2807
68.2475
69.0905
69.867
70.55
71.2717
71.8716
72.4972
73.1545
73.4795
73.7931
23.0409
28.1282
31.0563
33.4092
35.1504
36.26
36.6893
36.2641
34.4325
29.7818
25.7604
28.6216
30.097
34.5795
45.9817
50.9218
55.3449
58.1825
60.2968
62.1915
63.6391
64.7864
65.7303
66.5074
67.1521
67.6927
68.1318
68.6116
68.9788
69.6753
69.6974
70.0939
22.5598
27.7847
30.8815
33.4775
35.5325
37.0394
38.0049
38.4304
38.2228
36.8706
32.5337
24.2509
26.6312
12.6364
30.9324
44.3269
49.5135
53.808
56.8374
58.6211
60.0694
61.2704
62.2102
62.8749
63.4562
63.8139
64.5002
64.6871
65.0382
65.5891
65.5216
65.7712
21.1045
26.4678
29.66
32.3927
34.6392
36.4002
37.7015
38.5883
39.1032
39.1962
38.4093
35.0767
27.4761
26.1212
30.6551
31.4835
42.6224
47.5634
50.9633
54.0333
55.9583
57.27
58.1224
58.6758
58.9384
59.0335
58.7328
58.8576
58.8381
59.3265
58.5419
59.0791
19.1153
24.5756
27.7948
30.5748
32.9087
34.8129
36.3176
37.4826
38.3925
39.1146
39.5757
39.2486
36.336
26.5739
28.9714
34.7761
29.5037
39.3889
45.3697
47.319
49.1861
50.4604
51.4896
51.5656
51.8538
51.3632
52.9522
52.374
52.0787
52.7152
51.1033
51.8112
16.8295
22.2774
25.4236
28.1493
30.4744
32.4383
34.0853
35.4733
36.6871
37.8102
38.8522
39.5801
39.1713
35.782
31.4817
27.8446
27.8742
21.5863
31.0702
39.2371
41.6091
43.8877
44.0447
44.0852
43.4226
42.4058
39.6924
37.323
37.1516
38.4406
34.1792
34.6098
14.5247
19.8163
22.7833
25.3519
27.5746
29.5126
31.2259
32.7781
34.2432
35.6987
37.1714
38.552
39.4553
39.0181
35.1459
27.4542
18.5899
26.3868
19.4835
18.0471
28.6835
23.7241
27.5585
23.5411
21.4683
31.6876
26.474
34.7584
37.1741
29.1179
10.7605
36.0751
12.4937
17.5033
20.2136
22.5523
24.6044
26.4491
28.1566
29.7926
31.4215
33.1041
34.8785
36.686
38.3084
39.2977
38.5833
36.2637
29.7997
10.6706
20.7109
25.5866
34.9534
23.184
32.6499
32.2466
29.6719
41.0829
33.5835
38.7483
38.9835
38.1961
31.6431
43.006
10.9363
15.591
18.0274
20.1179
21.9761
23.6942
25.3453
26.9899
28.6791
30.4577
32.3661
34.4008
36.4563
38.25
39.2942
39.4993
36.8333
30.4514
24.8828
26.8178
33.6057
24.4007
32.5339
25.2913
32.2888
37.7463
34.041
37.2822
28.6104
42.2016
38.888
43.2583
9.79175
14.1984
16.4039
18.2868
19.9828
21.5867
23.1655
24.7661
26.4245
28.1744
30.0531
32.0928
34.2869
36.5125
38.4565
39.8469
39.876
38.4569
33.6471
31.0026
28.2213
27.8353
27.6038
32.5342
33.9702
36.522
35.6818
37.2781
36.4189
35.6972
39.8891
39.0828
9.18481
13.3983
15.4415
17.1898
18.7865
20.3173
21.8325
23.3613
24.926
26.5534
28.2803
30.1547
32.2198
34.47
36.7726
38.8441
40.0862
40.3568
38.6575
38.0628
37.3586
37.6062
37.901
39.7708
41.2273
42.7758
41.3464
42.1617
41.1165
40.6506
41.646
43.6283
9.00556
13.1291
15.1001
16.7984
18.3651
19.8698
21.3434
22.7996
24.2508
25.7199
27.2428
28.8681
30.6534
32.6485
34.8479
37.1144
39.0327
40.2429
40.2437
40.5437
40.6058
40.8933
41.2819
41.9815
42.8321
43.6313
42.62
42.8378
41.8529
42.5138
41.7924
44.7852
9.17943
13.2916
15.2635
16.98
18.5708
20.0871
21.5433
22.9431
24.2952
25.62
26.9496
28.326
29.8013
31.4356
33.2802
35.323
37.3725
39.1202
40.1218
40.9758
41.3884
41.7484
41.9746
42.3475
42.7527
42.96
42.3689
42.1419
41.2555
42.1945
41.2971
44.0565
9.60715
13.7599