/*--------------------------------*- C++ -*----------------------------------*\
  =========                 |
  \\      /  F ield         | OpenFOAM: The Open Source CFD Toolbox
   \\    /   O peration     | Website:  https://openfoam.org
    \\  /    A nd           | Version:  6
     \\/     M anipulation  |
\*---------------------------------------------------------------------------*/
FoamFile
{
    version     2.0;
    format      ascii;
    class       volScalarField;
    location    "43";
    object      yPlus;
}
// * * * * * * * * * * * * * * * * * * * * * * * * * * * * * * * * * * * * * //

dimensions      [0 0 0 0 0 0 0];

internalField   uniform 0;

boundaryField
{
    inlet
    {
        type            calculated;
        value           uniform 0;
    }
    outlet
    {
        type            calculated;
        value           uniform 0;
    }
    roughCylinder
    {
        type            calculated;
        value           nonuniform List<scalar> 
5120
(
43.5286
51.3473
57.576
63.7024
68.9913
73.2813
76.7187
79.4971
81.772
83.6777
85.3339
86.8168
88.1638
89.4088
90.583
91.7169
92.8411
93.9836
95.1682
96.4119
97.7242
99.1075
100.559
102.071
103.634
105.235
106.857
108.478
110.06
111.533
112.746
113.467
42.8095
50.3455
56.3759
62.363
67.5795
71.8354
75.2554
78.0263
80.3011
82.2129
83.877
85.3634
86.702
87.9335
89.0899
90.2027
91.3033
92.4209
93.5797
94.7962
96.0797
97.4328
98.8523
100.331
101.859
103.424
105.009
106.592
108.136
109.574
110.756
111.459
42.029
49.3157
55.1581
61.0046
66.1466
70.3699
73.7774
76.5482
78.8331
80.7612
82.4399
83.9319
85.267
86.4875
87.6273
88.7203
89.7991
90.8932
92.0262
93.2157
94.4711
95.7946
97.1831
98.629
100.123
101.652
103.199
104.745
106.251
107.653
108.804
109.489
41.2132
48.2653
53.9206
59.6241
64.6927
68.8889
72.2918
75.0715
77.376
79.3281
81.0254
82.5257
83.8621
85.0736
86.2009
87.2769
88.3355
89.407
90.5168
91.6812
92.9094
94.2042
95.5621
96.9759
98.4355
99.9284
101.44
102.948
104.417
105.783
106.905
107.571
40.3549
47.1845
52.6514
58.2075
63.2028
67.3783
70.7869
73.5871
75.9219
77.9058
79.6276
81.1421
82.4847
83.6943
84.8114
85.8726
86.9138
87.9659
89.0525
90.1922
91.3948
92.6621
93.9908
95.3736
96.8005
98.2598
99.7346
101.206
102.639
103.97
105.062
105.711
39.4857
46.0928
51.3632
56.7649
61.6871
65.8499
69.2746
72.1043
74.4757
76.496
78.2454
79.7771
81.1305
82.3431
83.455
84.5059
85.5319
86.5651
87.6328
88.7512
89.9294
91.1704
92.4706
93.8233
95.2177
96.6419
98.0818
99.5171
100.914
102.212
103.274
103.905
38.5574
44.9509
50.0202
55.2608
60.1096
64.2678
67.7222
70.5958
73.0158
75.0801
76.8645
78.4221
79.7924
81.0165
82.1301
83.1747
84.1898
85.2097
86.2581
87.3546
88.5101
89.7262
90.9997
92.323
93.6869
95.0794
96.4845
97.8849
99.2464
100.51
101.545
102.158
37.6281
43.8001
48.6543
53.7194
58.4903
62.6525
66.1507
69.0789
71.5533
73.6678
75.492
77.0784
78.4721
79.7099
80.832
81.8761
82.8844
83.8907
84.9255
86.0059
87.1405
88.3331
89.5802
90.8752
92.2078
93.5663
94.9373
96.3022
97.6297
98.8613
99.8662
100.463
36.6039
42.5623
47.1939
52.0729
56.7616
60.9342
64.4912
67.4938
70.0426
72.2201
74.0954
75.7249
77.1493
78.4136
79.5513
80.6043
81.6117
82.6145
83.6356
84.6974
85.8129
86.9833
88.2062
89.4737
90.777
92.1056
93.4434
94.774
96.0667
97.2651
98.2439
98.8229
35.5689
41.2996
45.6898
50.357
54.948
59.1381
62.777
65.8741
68.5066
70.759
72.6969
74.3721
75.838
77.1287
78.287
79.3507
80.3646
81.3634
82.3783
83.4312
84.53
85.68
86.8782
88.1189
89.3918
90.686
91.9889
93.2838
94.5433
95.7106
96.6586
97.2215
34.3644
39.8842
44.0286
48.4709
52.9527
57.1588
60.8896
64.1075
66.8638
69.2171
71.2331
72.9781
74.4928
75.8302
77.0218
78.1108
79.1353
80.1419
81.152
82.1908
83.2747
84.4055
85.5816
86.7955
88.0392
89.304
90.5738
91.8354
93.0594
94.1934
95.1162
95.6615
33.1006
38.4052
42.2763
46.4488
50.7826
55.0045
58.8714
62.2558
65.149
67.6229
69.7449
71.5648
73.151
74.5332
75.7608
76.8721
77.9179
78.929
79.9414
80.9804
82.053
83.167
84.32
85.508
86.7219
87.9512
89.1845
90.4086
91.6005
92.7043
93.5944
94.1235
31.5644
36.6736
40.2646
44.1502
48.3162
52.5336
56.5158
60.0895
63.212
65.8737
68.1294
70.0673
71.7266
73.1836
74.4696
75.6307
76.7003
77.7336
78.7511
79.7805
80.843
81.9407
83.0745
84.2369
85.4213
86.6212
87.8225
89.0146
90.1692
91.2381
92.1041
92.6153
29.8927
34.8092
38.088
41.604
45.5005
49.6816
53.8849
57.7683
61.1187
63.9825
66.4271
68.4921
70.2848
71.8215
73.1668
74.3635
75.4753
76.5248
77.5556
78.5968
79.6545
80.74
81.8521
82.9892
84.1434
85.3066
86.4684
87.6193
88.7427
89.7809
90.6112
91.106
27.6977
32.4538
35.4158
38.5535
42.1849
46.293
50.5485
54.683
58.5121
61.7792
64.4905
66.7877
68.6911
70.3434
71.7845
73.0703
74.2235
75.3148
76.3642
77.4013
78.4548
79.5273
80.6229
81.7351
82.8594
83.9926
85.1208
86.2403
87.3248
88.3262
89.1319
89.6091
25.1507
29.8166
32.4708
35.0914
38.1354
41.9677
46.6596
51.4451
55.6066
59.2335
62.3174
64.8337
67.0103
68.8232
70.3701
71.7087
72.9343
74.0587
75.1359
76.2011
77.258
78.3241
79.3995
80.4861
81.5777
82.6701
83.7558
84.829
85.8789
86.8489
87.6146
88.0733
21.2971
25.9781
28.2699
30.3534
33.0543
36.7622
40.9671
45.9318
51.3963
55.9768
59.6469
62.7118
65.0775
67.0773
68.7829
70.2819
71.5779
72.773
73.8881
74.9552
76.0156
77.0722
78.1334
79.1951
80.256
81.3182
82.3641
83.4049
84.4168
85.3454
86.0825
86.5283
16.3564
21.4564
23.8787
25.6357
27.1184
29.4111
35.0075
41.1962
46.3641
51.7885
56.4069
59.8602
62.8571
65.2157
67.1355
68.7156
70.1344
71.3885
72.5527
73.6726
74.7478
75.8044
76.8476
77.8816
78.9036
79.9147
80.9166
81.9037
82.8709
83.763
84.4569
84.8739
6.29907
11.1847
12.3622
12.272
10.8172
9.93
13.3711
26.1688
38.5574
45.8896
51.7848
56.8419
60.1825
62.8983
65.1118
67.0058
68.5508
69.9272
71.16
72.2892
73.3774
74.43
75.4592
76.4668
77.4566
78.4409
79.3859
80.3363
81.2692
82.1184
82.7713
83.1877
9.31195
6.36526
10.8884
14.3099
15.5213
16.9024
16.2011
14.9403
21.1777
36.7512
46.0701
51.4877
56.6968
60.2906
62.9865
65.018
66.7903
68.2723
69.5921
70.815
71.937
72.9962
74.0109
74.9856
75.923
76.8312
77.7336
78.6176
79.4888
80.2816
80.8917
81.2584
11.4651
15.8766
16.6771
15.6772
13.0177
15.3891
16.6275
23.2842
25.2841
20.6779
34.2807
46.9776
52.1444
56.623
59.9728
62.7092
64.7303
66.4459
67.8916
69.1378
70.2863
71.3513
72.3497
73.2928
74.1953
75.0893
75.8991
76.743
77.5748
78.3375
78.876
79.2624
19.7647
24.2077
26.1276
26.9623
26.5469
24.5766
21.7549
16.9521
20.2116
11.656
17.4217
29.2356
45.247
52.2002
56.8315
59.8082
62.3216
64.2368
65.8514
67.2692
68.4885
69.5683
70.557
71.4556
72.2767
73.0389
73.8029
74.5457
75.3098
75.9575
76.4577
76.7683
22.2458
27.2255
29.9408
31.9554
33.1818
33.4765
32.6177
30.3245
25.325
23.5007
24.103
23.4302
33.8455
45.0414
51.2248
56.14
59.1875
61.6348
63.5024
64.9758
66.2471
67.3501
68.3175
69.1711
69.9506
70.7275
71.3423
72.0657
72.7228
73.3885
73.7612
74.1014
23.058
28.1475
31.0841
33.4505
35.2061
36.3273
36.7558
36.2774
34.2633
29.0207
27.9085
24.3621
8.55024
34.8288
46.2519
51.107
55.436
58.2325
60.4674
62.2902
63.7147
64.8473
65.8093
66.5865
67.2191
67.7437
68.2485
68.7661
69.431
69.8372
70.1544
70.4245
22.4519
27.6786
30.772
33.362
35.4073
36.8959
37.8231
38.1604
37.7445
35.9265
31.0945
27.2606
10.3631
9.57607
29.2829
43.7189
49.4501
53.8824
56.6891
58.6303
60.1529
61.3398
62.2694
62.9742
63.5434
64.1373
64.4584
65.0992
65.3129
65.8686
66.0274
66.2543
20.9332
26.2924
29.4741
32.1935
34.4224
36.159
37.4251
38.258
38.6897
38.6597
37.6949
34.4925
26.8599
23.8629
23.7454
33.2761
43.4437
47.6874
51.4208
54.2073
56.0964
57.3263
58.249
58.7537
59.0087
59.0622
58.8445
58.9902
59.6584
59.5811
59.4572
59.9339
18.9397
24.3888
27.5939
30.3592
32.6763
34.5597
36.0386
37.1719
38.0416
38.7165
39.1496
38.839
36.0625
29.5014
25.312
27.3948
26.5615
39.3727
44.3766
47.116
49.1748
50.5896
51.3367
51.8781
51.8371
52.0549
52.2052
53.3931
51.5741
52.0254
52.885
52.4295
16.6961
22.1263
25.2561
27.9658
30.275
32.2225
33.8531
35.2274
36.4357
37.5707
38.665
39.5547
39.5446
36.467
28.3963
7.11533
26.6465
21.3848
31.7298
39.7332
42.4215
44.1592
44.6112
43.9126
43.7039
42.4061
38.4217
40.2977
39.8175
39.462
36.1528
40.8758
14.448
19.7216
22.6735
25.2274
27.4358
29.3601
31.0613
32.607
34.0786
35.5656
37.1146
38.6523
39.8598
39.8631
36.7872
28.4884
22.7658
9.89836
29.0529
18.3189
22.57
24.9236
23.876
27.8125
21.6366
20.1025
19.5334
27.5205
15.9105
5.47157
33.4467
45.0249
12.4689
17.4659
20.1658
22.4938
24.5351
26.3691
28.0673
29.6989
31.3345
33.0454
34.885
36.821
38.6725
39.9974
39.955
36.561
28.9286
22.0327
31.0603
13.1982
14.2623
25.6094
18.7576
34.1473
15.6816
32.705
33.6856
35.2439
36.0861
19.2457
41.215
43.1635
10.9435
15.5939
18.0252
20.1098
21.9614
23.6725
25.3177
26.9601
28.6547
30.4529
32.4054
34.524
36.7255
38.7464
40.1035
39.8752
36.9755
31.4531
27.1135
27.1328
19.377
33.9116
22.7363
34.4482
31.4796
28.7608
28.3715
36.0023
35.6996
31.9279
40.9081
29.8534
9.81414
14.2219
16.4254
18.3053
19.9977
21.598
23.1744
24.775
26.4383
28.2009
30.1058
32.194
34.4682
36.8083
38.8956
40.1895
40.1461
38.5262
34.5188
30.6415
30.3656
29.5332
28.9975
29.7693
33.6325
36.3956
40.2067
32.843
40.5812
39.9235
39.243
37.2327
9.20926
13.4262
15.4688
17.2155
18.8109
20.3412
21.8573
23.3889
24.9588
26.5951
28.3374
30.2383
32.3456
34.6554
37.0253
39.0888
40.3888
40.6954
39.9039
37.8311
37.6686
35.7801
38.894
39.5961
40.3944
41.7692
44.1317
39.0418
44.1529
43.4058
43.6573
41.9856
9.02913
13.1569
15.1276
16.8253
18.3928
19.8999
21.3775
22.8384
24.2949
25.7703
27.302
28.9411
30.7479
32.7746
35.0153
37.316
39.3307
40.664
41.1398
40.5645
40.5837
40.3465
41.8276
42.3834
42.3716
42.7738
44.136
41.2242
43.891
43.4937
44.1984
42.6026
9.20357
13.3202
15.2925
17.0105
18.6049
20.1269
21.59
22.9964
24.3539
25.6831
27.017
28.399
29.8828
31.5311
33.3983
35.475
37.6103
39.4754
40.7351
41.0948
41.3373
41.5879
42.465
42.8464
42.6051
42.5193
43.0854
41.33
42.7432
42.6166
42.9773
42.1134
9.63477
13.7921
15.8153
17.6005
19.2593
20.8254
22.2996
23.6782
24.9675
26.1875
27.3678
28.5439
29.757
31.0585
32.5082
34.1542
35.9808
37.8299
39.4228
40.4231
41.0181
41.506
42.088
42.2117
41.7653
41.4066
41.354
40.1914
40.9893
40.9272
40.9112
40.7755
10.2678
14.4958
16.5941
18.4677
20.2071
21.8307
23.3315
24.7044
25.9573
27.111
28.1924
29.2294
30.251
31.2926
32.4004
33.6256
35.0044
36.5032
37.9809
39.1804
40.0079
40.6073
41.0295
40.9489
40.3343
39.8182
39.44
38.6044
39.0673
39.0424
38.8782
39.2722
11.051
15.3778
17.5639
19.5327
21.3546
23.0369
24.5695
25.9495
27.189
28.3111
29.3408
30.3002
31.2075
32.0831
32.9562
33.8648
34.8502
35.9296
37.0614
38.1105
38.9247
39.4971
39.7861
39.5741
38.8922
38.2938
37.7895
37.1777
37.4408
37.4976
37.419
38.0918
11.8943
16.39
18.6728
20.7365
22.6371
24.3747
25.94
27.3349
28.5768
29.6916
30.7035
31.6304
32.4826
33.2692
34.0051
34.7119
35.4204
36.1576
36.9247
37.6707
38.2865
38.7038
38.8384
38.5376
37.8526
37.2163
36.6889
36.2394
36.4033
36.5869
36.7047
37.477
12.8845
17.5017
19.8788
22.034
24.0081
25.7974
27.3954
28.8101
30.0649
31.1884
32.2046
33.1279
33.9632
34.7131
35.3826
35.98
36.5225
37.0296
37.5136
37.9623
38.3174
38.5148
38.473
38.0878
37.41
36.7559
36.242
35.9104
36.0487
36.3688
36.695
37.4726
13.5388
13.9649
14.4552
14.8505
15.2326
15.5372
15.8032
16.0101
16.1766
16.2949
16.3761
16.4184
16.4256
16.3995
16.344
16.2617
16.1552
16.0304
15.9005
15.8017
15.8354
15.9658
16.1109
16.2449
16.3582
16.446
16.5064
16.5369
16.5326
16.4934
16.4146
16.2978
16.1318
15.9243
15.6566
15.3486
14.9627
14.5627
14.0676
13.6383
18.2731
18.7165
19.2277
19.6419
20.0428
20.3695
20.6589
20.8912
21.0841
21.2305
21.3402
21.4118
21.4479
21.4488
21.4168
21.3538
21.2611
21.1434
21.0131
20.9092
20.944
21.0801
21.225
21.3514
21.4505
21.5189
21.5556
21.5588
21.5258
21.4575
21.3504
21.2056
21.0135
20.781
20.4903
20.1609
19.7568
19.3385
18.8235
18.3778
20.721
21.1903
21.7319
22.1722
22.602
22.9599
23.2845
23.5549
23.789
23.9795
24.1346
24.2534
24.3373
24.385
24.3969
24.3738
24.3161
24.2271
24.118
24.0263
24.0592
24.182
24.3052
24.4027
24.4667
24.4953
24.4883
24.445
24.3649
24.2503
24.0983
23.9104
23.678
23.4083
23.0834
22.7238
22.2913
21.8474
21.3023
20.8308
22.9284
23.4172
23.9823
24.4428
24.8977
25.2836
25.641
25.9478
26.2219
26.456
26.6562
26.8216
26.953
27.0479
27.1048
27.1233
27.1029
27.0465
26.9649
26.8945
26.9228
27.0232
27.1188
27.1839
27.2105
27.1977
27.1458
27.0557
26.9289
26.7685
26.5721
26.3417
26.0706
25.7657
25.4094
25.023
24.5667
24.1036
23.5359
23.0448
24.9333
25.4266
26
26.4675
26.9348
27.3367
27.7148
28.0469
28.3497
28.6172
28.8539
29.0576
29.228
29.3618
29.4565
29.5102
29.5222
29.495
29.4397
29.3909
29.4144
29.4919
29.5614
29.5973
29.5916
29.5433
29.4537
29.3251
29.1599
28.9617
28.7299
28.4675
28.1687
27.8401
27.4643
27.0635
26.5961
26.1273
25.5524
25.0572
26.7352
27.2169
27.7844
28.2469
28.7152
29.1228
29.5122
29.8622
30.1883
30.4832
30.7507
30.9867
31.1903
31.3572
31.4841
31.5682
31.608
31.6058
31.5729
31.541
31.5609
31.6197
31.6665
31.6771
31.6434
31.5645
31.4426
31.2808
31.0827
30.8526
30.591
30.3021
29.9814
29.6367
29.251
28.846
28.3791
27.9168
27.3488
26.866
28.3346
28.7933
29.3473
29.7991
30.2638
30.675
31.0752
31.4425
31.7902
32.1104
32.4056
32.671
32.9042
33.1006
33.256
33.3665
33.4301
33.4487
33.4333
33.4131
33.4308
33.4757
33.5045
33.4937
33.4356
33.3298
33.1793
32.9878
32.7599
32.5004
32.2114
31.8977
31.5564
31.1957
30.801
30.3946
29.9328
29.4828
28.9294
28.4704
29.7476
30.1794
30.7194
31.1619
31.6259
32.0445
32.4573
32.8422
33.2109
33.5553
33.8761
34.1681
34.4281
34.6505
34.8305
34.9637
35.0472
35.0823
35.0798
35.0671
35.0833
35.1191
35.1339
35.1056
35.0268
34.8978
34.722
34.5041
34.2492
33.9629
33.6483
33.3109
32.949
32.5713
32.1651
31.7528
31.2941
30.8553
30.3168
29.8856
31.0035
31.4102
31.9402
32.3786
32.8459
33.2742
33.7002
34.1024
34.4909
34.8569
35.2005
35.5161
35.7992
36.0439
36.2447
36.3965
36.4958
36.5437
36.55
36.5416
36.5568
36.5867
36.5915
36.5495
36.454
36.3056
36.1081
35.8673
35.5888
35.2788
34.9412
34.5821
34.2008
33.8062
33.3874
32.9666
32.5053
32.0725
31.5453
31.1403
32.1333
32.5178
33.0419
33.4799
33.9521
34.39
34.8284
35.2464
35.6519
36.0368
36.3999
36.7351
37.0375
37.3006
37.5182
37.6847
37.7963
37.8533
37.8652
37.859
37.8736
37.9001
37.8978
37.8455
37.7367
37.5725
37.3575
37.0976
36.7993
36.469
36.1119
35.7336
35.3354
34.9252
34.4945
34.0643
33.599
33.1674
32.6473
32.2653
33.1586
33.5226
34.0426
34.4805
34.9571
35.4036
35.8528
36.284
36.7039
37.1044
37.4835
37.8347
38.1525
38.4301
38.661
38.8388
38.9596
39.0231
39.0387
39.0335
39.0475
39.0717
39.0643
39.0042
38.885
38.7085
38.4794
38.2042
37.8898
37.5431
37.1695
36.7756
36.3628
35.9395
35.4983
35.0597
34.5904
34.1593
33.6439
33.2831
34.0903
34.4324
34.9473
35.3844
35.8643
36.318
36.7762
37.2183
37.6501
38.0633
38.4552
38.8192
39.1493
39.4382
39.6793
39.8659
39.9937
40.0626
40.0816
40.0776
40.0908
40.1123
40.1003
40.0335
39.9061
39.7196
39.4794
39.192
38.8646
38.5046
38.1177
37.7108
37.286
36.8516
36.4016
35.9561
35.4837
35.0536
34.5435
34.2047
34.9297
35.2475
35.7551
36.1905
36.6726
37.1322
37.5978
38.0492
38.4908
38.9145
39.3168
39.6909
40.0306
40.3285
40.5775
40.7712
40.9051
40.9792
41.0026
41.0012
41.0133
41.0303
41.0126
40.9394
40.8047
40.6101
40.3608
40.0637
39.726
39.3551
38.9574
38.5397
38.1048
37.6611
37.2035
36.7521
36.2775
35.8492
35.3465
35.0322
35.6756
35.9649
36.4626
36.895
37.3786
37.8434
38.3156
38.7751
39.2253
39.6577
40.0686
40.4509
40.7982
41.1031
41.3585
41.558
41.6977
41.7775
41.8067
41.8098
41.8202
41.8306
41.8057
41.7257
41.5842
41.3826
41.1259
40.8209
40.4748
40.095
39.6882
39.2613
38.8176
38.3656
37.9012
37.4446
36.9684
36.543
36.05
35.7642
36.3276
36.5817
37.0656
37.4935
37.9779
38.4477
38.9262
39.3936
39.8517
40.292
40.7103
41.0995
41.4531
41.7638
42.0244
42.2293
42.3745
42.4608
42.4973
42.5059
42.5143
42.5167
42.4832
42.3955
42.2473
42.0393
41.7763
41.4644
41.1112
40.7239
40.309
39.8737
39.4218
38.9618
38.4908
38.029
37.5518
37.1305
36.6507
36.4001
36.8876
37.0946
37.5592
37.9804
38.4648
38.9396
39.4247
39.9
40.3661
40.8139
41.2393
41.6348
41.9939
42.3095
42.575
42.7848
42.9357
43.029
43.0733
43.0875
43.0938
43.0877
43.0446
42.9488
42.7937
42.5797
42.3107
41.9929
41.6332
41.239
40.8166
40.3733
39.9132
39.445
38.9672
38.4999
38.0222
37.6066
37.1443
36.9397
37.3597
37.5008
37.9373
38.3483
38.8313
39.3109
39.8033
40.2869
40.7612
41.217
41.6493
42.0509
42.4153
42.7356
43.0056
43.2202
43.3767
43.4768
43.5286
43.5478
43.5522
43.538
43.4856
43.3814
43.2194
42.9994
42.7247
42.4012
42.0354
41.6343
41.2044
40.7529
40.2843
39.8074
39.3223
38.8497
38.3725
37.965
37.5286
37.3883
37.7524
37.7985
38.1907
38.5871
39.0663
39.5506
40.05
40.5429
41.026
41.4902
41.9298
42.3378
42.7076
43.0326
43.3071
43.5264
43.6883
43.7948
43.8531
43.8764
43.8788
43.8575
43.7965
43.6843
43.5155
43.2894
43.0091
42.6799
42.3078
41.8998
41.4621
41.0019
40.5242
40.0381
39.5456
39.0676
38.5931
38.1975
37.8025
37.7537
38.0745
37.989
38.3126
38.6843
39.1564
39.6442
40.1509
40.6532
41.1459
41.6192
42.0669
42.4818
42.8574
43.1874
43.4664
43.6903
43.8574
43.9695
44.0334
44.0597
44.0603
44.0328
43.964
43.8444
43.6689
43.4368
43.1508
42.8155
42.4369
42.0214
41.5755
41.1061
40.6187
40.1231
39.6227
39.1403
38.6694
38.2956
37.9655
38.0435
38.3213
38.0697
38.2976
38.6292
39.0883
39.5775
40.0908
40.6026
41.1054
41.5884
42.0446
42.467
42.8489
43.1843
43.4681
43.6967
43.8685
43.9854
44.0536
44.0822
44.0812
44.0485
43.973
43.8466
43.6646
43.4264
43.1343
42.7928
42.4071
41.9837
41.529
41.0498
40.5526
40.0472
39.5397
39.053
38.5931
38.2569
38.0192
38.2583
38.4616
38.0266
38.1382
38.4138
38.8509
39.3401
39.8584
40.3792
40.8916
41.3843
41.8494
42.2795
42.668
43.009
43.2976
43.5305
43.7065
43.8276
43.8992
43.9293
43.9268
43.8898
43.8085
43.676
43.488
43.2439
42.9456
42.5975
42.2046
41.7731
41.3094
40.8206
40.3138
39.7992
39.2857
38.7982
38.3594
38.0783
37.9551
38.3738
38.4275
37.8288
37.8256
38.0382
38.4456
38.9292
39.4521
39.9802
40.5011
41.0025
41.4756
41.9129
42.3074
42.6536
42.9467
43.1834
43.3629
43.4869
43.5607
43.5917
43.5878
43.5473
43.4614
43.3238
43.1305
42.8809
42.5769
42.2226
41.8228
41.3837
40.9117
40.4142
39.8986
39.3762
38.8569
38.3755
37.9687
37.7551
37.7548
38.3499
38.1528
37.4461
37.3577
37.5151
37.8922
38.3657
38.89
39.422
39.9486
40.4557
40.9345
41.3768
41.7758
42.1256
42.4215
42.6605
42.8418
42.9672
43.0418
43.0729
43.0678
43.0249
42.9358
42.7946
42.5973
42.3435
42.0351
41.6757
41.2706
40.8255
40.3471
39.8429
39.3207
38.7919
38.271
37.8018
37.4314
37.2849
37.3928
38.1332
37.683
36.9082
36.764
36.8793
37.2292
37.6891
38.2096
38.7436
39.2721
39.7815
40.2623
40.7063
41.1064
41.4569
41.7529
41.9916
42.1719
42.2963
42.3697
42.3996
42.3934
42.3494
42.2592
42.1166
41.9178
41.6622
41.3517
40.99
40.5823
40.1344
39.6529
39.1453
38.62
38.0876
37.5696
37.1148
36.7744
36.6758
36.8475
37.6648
37.0385
36.2565
36.0983
36.1941
36.527
36.9748
37.4885
38.0196
38.5451
39.0518
39.5298
39.9709
40.3676
40.7144
41.0063
41.2406
41.4163
41.5359
41.6051
41.6323
41.6253
41.582
41.4935
41.3526
41.1556
40.9016
40.5927
40.2325
39.8263
39.3796
38.8996
38.3932
37.8692
37.338
36.826
36.3837
36.0612
35.9838
36.1693
36.9929
36.4399
35.6584
35.4971
35.5819
35.9021
36.337
36.8396
37.3614
37.8781
38.3763
38.8458
39.2781
39.666
40.0036
40.2863
40.5109
40.6769
40.7869
40.8477
40.8697
40.8619
40.8217
40.7383
40.6031
40.4118
40.1633
39.8599
39.5053
39.1045
38.6635
38.1887
37.6875
37.168
36.643
36.1396
35.7084
35.3975
35.33
35.5169
36.3383
36.037
35.2549
35.0951
35.174
35.4839
35.9046
36.3915
36.8974
37.3993
37.8831
38.3382
38.7561
39.1294
39.4524
39.7202
39.9299
40.0807
40.1757
40.223
40.2363
40.2284
40.1948
40.1208
39.9956
39.8141
39.5755
39.2821
38.9378
38.5477
38.1177
37.6544
37.1652
36.6588
36.1476
35.6585
35.2409
34.9396
34.8754
35.0514
35.8512
35.7356
35.0474
34.9493
35.0603
35.3806
35.7967
36.2693
36.7555
37.2373
37.7001
38.1341
38.5307
38.8828
39.1848
39.432
39.6211
39.7512
39.8252
39.8526
39.8528
39.845
39.822
39.7615
39.6498
39.4816
39.2568
38.9778
38.6487
38.2746
37.8614
37.416
36.9458
36.4601
35.9707
35.5005
35.0964
34.7985
34.7242
34.8668
35.608
35.8383
35.2434
35.202
35.3356
35.657
36.0585
36.5083
36.9685
37.4236
37.86
38.2676
38.6383
38.9653
39.2429
39.4664
39.6326
39.74
39.791
39.7955
39.7789
39.7727
39.7634
39.7178
39.6205
39.4666
39.2566
38.9934
38.6813
38.3252
37.9309
37.5052
37.0557
36.5915
36.1255
35.675
35.2838
34.9905
34.9096
35.0362
35.7565
36.4549
35.9084
35.8889
36.0138
36.3124
36.6792
37.0896
37.5117
37.9306
38.3319
38.7063
39.0453
39.3424
39.5919
39.7892
39.931
40.0154
40.0439
40.026
39.9911
39.986
39.989
39.9563
39.872
39.7323
39.5383
39.2932
39.0012
38.6673
38.2974
37.8978
37.4765
37.0425
36.6095
36.1908
35.8236
35.5396
35.4495
35.5367
36.1886
37
36.479
36.472
36.6001
36.8922
37.2462
37.6418
38.048
38.45
38.834
39.1907
39.5122
39.7921
40.0253
40.2071
40.3347
40.406
40.4227
40.3938
40.3517
40.3525
40.3665
40.3453
40.2733
40.1478
39.9701
39.7435
39.4722
39.1611
38.8157
38.4425
38.0488
37.6434
37.2388
36.8479
36.5007
36.2194
36.1084
36.1352
36.6807
37.7485
37.166
37.1088
37.1891
37.4401
37.7578
38.1236
38.5037
38.8828
39.246
39.5839
39.8882
40.1524
40.3714
40.5406
40.6569
40.7183
40.7265
40.6903
40.642
40.6413
40.6571
40.6389
40.5711
40.4513
40.2806
40.0622
39.8006
39.5006
39.1679
38.8094
38.4328
38.0478
37.6683
37.3096
37.0036
36.7692
36.7129
36.7983
37.4155
43.4783
51.3005
57.5302
63.6573
68.9463
73.2359
76.6727
79.4505
81.7248
83.63
85.2856
86.7681
88.1146
89.3592
90.5328
91.6661
92.7896
93.9316
95.1155
96.3586
97.6704
99.0532
100.504
102.016
103.578
105.178
106.799
108.418
109.998
111.467
112.684
113.402
42.7703
50.3071
56.337
62.323
67.5379
71.7919
75.2106
77.9803
80.2544
82.1657
83.8292
85.3148
86.6526
87.8833
89.0391
90.1511
91.251
92.368
93.5262
94.7422
96.0251
97.3778
98.7968
100.275
101.802
103.366
104.95
106.531
108.073
109.505
110.692
111.391
41.9792
49.2684
55.1114
60.9584
66.1003
70.3232
73.7303
76.5005
78.7847
80.7121
82.3903
83.8819
85.2164
86.4365
87.5757
88.6681
89.7462
90.8398
91.9721
93.161
94.4159
95.739
97.1268
98.5725
100.066
101.593
103.14
104.683
106.187
107.583
108.74
109.421
41.1708
48.2247
53.8801
59.5829
64.6499
68.8443
72.2456
75.0242
77.3282
79.28
80.9766
82.476
83.8115
85.0221
86.1486
87.2242
88.2821
89.3529
90.462
91.6259
92.8536
94.1479
95.5053
96.9187
98.3777
99.8696
101.379
102.885
104.351
105.712
106.839
107.501
40.3089
47.1397
52.6063
58.1623
63.1571
67.3321
70.7401
73.5396
75.8733
77.8561
79.5771
81.0912
82.4334
83.6426
84.7591
85.8194
86.8597
87.9112
88.9973
90.1365
91.3386
92.6054
93.9335
95.316
96.7423
98.2003
99.6741
101.143
102.572
103.898
104.997
105.64
39.4366
46.0472
51.3185
56.7203
61.6415
65.8028
69.2261
72.0547
74.4257
76.4461
78.1952
79.7261
81.0785
82.2901
83.4011
84.4519
85.4777
86.5102
87.5771
88.6949
89.8725
91.113
92.4129
93.7648
95.1587
96.5824
98.0206
99.4532
100.846
102.137
103.207
103.833
38.519
44.912
49.9804
55.2202
60.0677
64.2245
67.6777
70.5503
72.969
75.0316
76.8142
78.3709
79.7407
80.9646
82.0778
83.1211
84.1348
85.1541
86.2019
87.298
88.4531
89.6687
90.9416
92.2646
93.628
95.0191
96.4233
97.8198
99.1775
100.435
101.478
102.086
37.5692
43.7458
48.6015
53.6673
58.438
62.5997
66.0975
69.0252
71.499
73.6137
75.4389
77.0254
78.4187
79.6555
80.7766
81.8208
82.8296
83.8354
84.8693
85.9489
87.0829
88.2749
89.5218
90.8163
92.1484
93.506
94.8757
96.238
97.5591
98.7833
99.7981
100.389
36.5758
42.5329
47.1639
52.0421
56.729
60.899
64.4528
67.4528
70.0001
72.1758
74.0479
75.6749
77.098
78.3618
79.4996
80.5511
81.5561
82.558
83.5787
84.6403
85.7552
86.9254
88.1475
89.4149
90.718
92.0456
93.3818
94.7076
95.9958
97.1858
98.1753
98.7486
35.4991
41.2336
45.624
50.2911
54.8818
59.0724
62.7132
65.8122
68.4446
70.6968
72.6373
74.315
75.7823
77.073
78.2303
79.2942
80.3098
81.3082
82.322
83.3738
84.4719
85.6212
86.8195
88.0597
89.3322
90.6255
91.9275
93.2203
94.4701
95.6276
96.5899
97.1463
34.3452
39.8651
44.0112
48.4557
52.938
57.1415
60.8663
64.0774
66.8307
69.1827
71.1932
72.9327
74.4431
75.7787
76.9703
78.0581
79.0794
80.085
81.0947
82.1334
83.2169
84.3476
85.5228
86.7369
87.9812
89.2455
90.5131
91.7683
92.9865
94.1094
95.0477
95.5852
33.0221
38.3284
42.1961
46.364
50.6934
54.9136
58.784
62.1751
65.0704
67.5431
69.6716
71.4986
73.0912
74.4763
75.7037
76.8151
77.8633
78.8743
79.8854
80.9231
81.9949
83.108
84.2615
85.4492
86.6625
87.8901
89.1247
90.3467
91.5243
92.6146
93.5252
94.0469
31.5465
36.6576
40.2543
44.1487
48.3229
52.544
56.5221
60.0851
63.2015
65.8634
68.1073
70.0333
71.6813
73.1329
74.4177
75.5783
76.6445
77.6765
78.6941
79.7232
80.7851
81.8831
83.0156
84.1787
85.3651
86.5665
87.7628
88.9468
90.0939
91.1476
92.0361
92.5375
29.814
34.7316
38.0042
41.51
45.3938
49.5632
53.7603
57.6484
61.0023
63.8626
66.3241
68.4062
70.2167
71.7621
73.1102
74.3072
75.4214
76.471
77.4996
78.5398
79.5967
80.6808
81.794
82.931
84.0849
85.2444
86.4112
87.5595
88.6618
89.6818
90.5418
91.0276
27.6616
32.4178
35.3848
38.5337
42.1806
46.3086
50.5849
54.7233
58.55
61.8228
64.5058
66.7789
68.6558
70.2961
71.7328
73.0179
74.168
75.2581
76.3084
77.3443
78.3966
79.47
80.564
81.6777
82.806
83.9437
85.0637
86.1738
87.2457
88.2255
89.0655
89.5295
25.1013
29.771
32.4267
35.0452
38.0828
41.8851
46.5221
51.2676
55.4162
59.0295
62.1621
64.711
66.9265
68.7575
70.3129
71.6534
72.882
74.0059
75.0793
76.1443
77.201
78.2648
79.3421
80.4289
81.5214
82.6076
83.7032
84.7717
85.7925
86.7358
87.5449
87.9944
21.2017
25.8755
28.1481
30.2396
32.9536
36.6958
40.939
45.9983
51.5109
56.1198
59.7028
62.7383
65.0594
67.0409
68.736
70.2319
71.5236
72.7177
73.8351
74.8986
75.9564
77.0147
78.0738
79.1387
80.206
81.2758
82.3132
83.3438
84.3315
85.2283
86.0205
86.4437
16.5325
21.5853
24.063
25.5548
26.6123
28.8337
34.8055
41.0419
46.0613
51.4214
56.2407
59.7092
62.7558
65.1348
67.0739
68.6612
70.0849
71.3376
72.4943
73.6159
74.6917
75.7458
76.7913
77.8257
78.8519
79.8562
80.8691
81.848
82.7743
83.6289
84.3857
84.7983
6.3656
11.2356
12.1009
13.1247
13.0823
12.7163
15.2395
25.4075
38.5589
46.1542
51.6485
56.8217
60.1693
62.8923
65.0816
66.964
68.5006
69.8748
71.1127
72.2332
73.3164
74.3705
75.3971
76.4116
77.4113
78.4023
79.3502
80.2883
81.177
81.9699
82.7187
83.0941
9.31581
6.23646
5.64256
11.6799
16.441
11.6767
18.5113
6.04771
18.9472
36.2557
46.657
51.5401
56.6199
60.171
62.9123
64.9652
66.746
68.225
69.529
70.758
71.8811
72.9399
73.9576
74.9313
75.8806
76.7884
77.6908
78.5648
79.3708
80.1155
80.8178
81.1916
11.4628
16.0594
17.4484
17.652
17.5452
13.8866
12.9962
10.934
8.37832
13.9586
30.4482
46.1482
52.0549
56.7209
60.0024
62.6958
64.6939
66.402
67.8591
69.083
70.2223
71.2865
72.2793
73.239
74.158
75.0476
75.8995
76.7154
77.4827
78.1265
78.8388
79.1597
20.2409
24.7334
26.7692
27.7939
27.6518
26.4019
23.5604
18.5466
14.3497
12.9866
19.0352
31.476
45.4056
51.9397
56.6908
59.7394
62.2816
64.196
65.7712
67.2093
68.4299
69.5159
70.5117
71.4028
72.2529
73.0329
73.7659
74.5116
75.136
75.7311
76.3859
76.7079
22.2815
27.2952
30.0559
32.1318
33.4289
33.8131
32.9793
30.3825
24.8732
20.9164
24.1756
20.8096
34.3806
45.6148
51.58
56.2885
59.2145
61.6223
63.5238
64.9276
66.1761
67.2757
68.2247
69.1178
69.9318
70.6764
71.4231
72.0461
72.6607
73.0495
73.7394
74.0075
23.0089
28.1064
31.0488
33.4148
35.1513
36.216
36.5216
35.8237
33.4128
27.8539
24.6078
22.4863
27.0701
33.7352
45.2835
50.7277
55.349
58.2063
60.3101
62.2114
63.6423
64.7944
65.7805
66.5342
67.236
67.8124
68.2479
68.8201
69.1142
69.4549
70.1153
70.3383
22.3121
27.5453
30.6363
33.217
35.2403
36.6878
37.5457
37.7761
37.2321
35.368
31.1507
29.4507
11.1079
5.74633
34.1056
45.4713
49.8458
54.0073
56.9645
58.6267
60.0597
61.2542
62.1249
62.9137
63.576
64.0883
64.7097
64.961
65.3857
65.2761
65.995
66.2098
20.7983
26.1606
29.3354
32.0401
34.2439
35.942
37.152
37.9074
38.2399
38.0951
37.0008
33.9899
27.2062
5.02574
26.4755
29.0138
43.1083
47.7966
50.8518
53.996
55.9669
57.2345
58.2454
58.6855
59.1337
59.2896
59.1144
59.3888
58.9409
58.753
59.6818
59.5414
18.8155
24.2634
27.4595
30.2113
32.5105
34.3708
35.8196
36.9127
37.7303
38.3422
38.6882
38.1334
35.4794
27.1481
12.1537
17.6866
26.7381
40.3512
46.4149
47.6138
48.9671
50.5424
51.1014
51.7072
52.0582
52.3589
52.61
51.9008
52.352
51.6245
52.6057
52.1919
16.6044
22.0247
25.1424
27.8399
30.1379
32.0754
33.6963
35.0596
36.252
37.3619
38.4149
39.2376
39.1431
36.1831
25.3434
24.9229
24.4111
25.0949
30.784
37.7319
42.1879
43.3933
44.4331
43.844
44.1352
42.8044
42.0725
40.7919
38.6794
37.7992
39.5939
37.0401
14.3864
19.6479
22.5888
25.1333
27.3353
29.2568
30.9586
32.507
33.9807
35.4642
36.9951
38.4854
39.6138
39.4884
35.8932
26.8498
28.4206
25.4664
22.7897
27.954
19.86
26.8579
26.2626
23.7825
22.7502
27.6617
19.8249
11.9685
23.0711
42.0086
42.8582
14.8219
12.4217
17.4096
20.1023
22.4248
24.4628
26.2964
27.9973
29.6342
31.2766
32.9919
34.8259
36.7316
38.5059
39.6861
39.3261
35.0985
27.6991
29.4419
31.6502
35.7929
20.6192
31.8717
9.99842
28.6124
21.7005
34.3272
22.5742
33.9239
24.6876
40.7228
41.544
22.8827
10.8904
15.5318
17.9587
20.0403
21.8902
23.6008
25.2469
26.8915
28.5897
30.3913
32.3415
34.4413
36.5869
38.4842
39.5907
39.0229
35.3418
29.571
24.1476
33.5052
25.6111
37.2998
29.1413
31.0197
31.3835
38.1482
34.0421
30.7166
31.0242
31.5846
26.5896
32.5946
9.74731
14.1436
16.343
18.2203
19.9106
21.5092
23.0837
24.6826
26.3441
28.1035
30.0006
32.069
34.2984
36.5524
38.4868
39.5499
39.1801
36.4579
31.3844
30.527
28.5797
37.1726
28.9017
32.3745
32.5491
33.4509
36.3743
38.9195
38.2289
41.2989
37.6714
41.9733
9.13022
13.3327
15.3706
17.1142
18.7068
20.2342
21.7472
23.2753
24.8407
26.4701
28.2002
30.078
32.1438
34.3836
36.6491
38.5854
39.6987
39.4354
37.8727
36.9432
37.8339
35.178
36.3783
40.5593
39.8414
40.0556
41.4411
43.0854
42.6185
45.0041
42.4687
44.7578
8.94107
13.0524
15.0183
16.713
18.2778
19.782
21.2567
22.7148
24.1675
25.6367
27.157
28.7753
30.546
32.5148
34.6714
36.8682
38.7605
39.8116
39.8918
39.8825
40.7109
39.9066
40.1344
42.6806
41.8921
42.0014
42.6626
43.3346
43.2956
44.9249
43.019
44.712
9.1098
13.2102
15.178
16.8931
18.4849
20.0044
21.4654
22.8703
24.2263
25.5525
26.8798
28.2486
29.7085
31.317
33.1234
35.1211
37.1669
38.896
40.0014
40.6674
41.4896
41.5151
41.3838
42.8651
42.1394
41.9829
42.4777
42.5298
42.5336
43.394