/*--------------------------------*- C++ -*----------------------------------*\
  =========                 |
  \\      /  F ield         | OpenFOAM: The Open Source CFD Toolbox
   \\    /   O peration     | Website:  https://openfoam.org
    \\  /    A nd           | Version:  6
     \\/     M anipulation  |
\*---------------------------------------------------------------------------*/
FoamFile
{
    version     2.0;
    format      ascii;
    class       volVectorField;
    location    "35";
    object      wallShearStress;
}
// * * * * * * * * * * * * * * * * * * * * * * * * * * * * * * * * * * * * * //

dimensions      [0 2 -2 0 0 0 0];

internalField   uniform (0 0 0);

boundaryField
{
    inlet
    {
        type            calculated;
        value           uniform (0 0 0);
    }
    outlet
    {
        type            calculated;
        value           uniform (0 0 0);
    }
    roughCylinder
    {
        type            calculated;
        value           nonuniform List<vector> 
3840
(
(-0.000418489 -0.000604519 -0.000255146)
(-0.000331457 -0.000504763 -1.75645e-05)
(-0.000364874 -0.000578787 4.09391e-05)
(-0.000452003 -0.00068377 0.000109985)
(-0.000544189 -0.00075509 0.000175856)
(-0.000635114 -0.000794686 0.000231533)
(-0.000717653 -0.000808055 0.000274038)
(-0.000789661 -0.000809091 0.000303828)
(-0.000851245 -0.000812124 0.000323501)
(-0.000899918 -0.000820648 0.000332808)
(-0.000940127 -0.000836694 0.000333638)
(-0.000974231 -0.000858769 0.000328572)
(-0.00100577 -0.000885211 0.000319821)
(-0.00103774 -0.000914848 0.00030886)
(-0.00107177 -0.000947007 0.000296294)
(-0.00110847 -0.000981415 0.000282233)
(-0.00114794 -0.00101799 0.000266568)
(-0.00118985 -0.00105638 0.000248994)
(-0.00123366 -0.00109605 0.000228935)
(-0.00127847 -0.00113608 0.00020538)
(-0.00132291 -0.00117512 0.000176498)
(-0.00136475 -0.00121112 0.000139693)
(-0.00139965 -0.00124106 9.10039e-05)
(-0.00142065 -0.00125956 3.13708e-05)
(-0.000457069 -0.000602919 -0.000256158)
(-0.000357599 -0.000498853 -2.21656e-05)
(-0.00038378 -0.000562339 3.30997e-05)
(-0.000472777 -0.000666998 9.90208e-05)
(-0.000567472 -0.000740566 0.000163141)
(-0.000661367 -0.000783452 0.000217973)
(-0.000747873 -0.000801347 0.000260653)
(-0.000825161 -0.000807375 0.000292075)
(-0.000892014 -0.000812249 0.000313793)
(-0.000943285 -0.000818774 0.00032381)
(-0.000985277 -0.000833548 0.000324935)
(-0.00102136 -0.000854906 0.000320089)
(-0.00105484 -0.000880941 0.000311525)
(-0.00108857 -0.000910165 0.000300729)
(-0.00112441 -0.000941939 0.000288421)
(-0.00116314 -0.000976069 0.000274762)
(-0.00120464 -0.00101225 0.000259584)
(-0.00124864 -0.00105021 0.000242594)
(-0.00129452 -0.00108936 0.000223196)
(-0.00134139 -0.00112884 0.000200381)
(-0.00138781 -0.00116731 0.000172327)
(-0.00143145 -0.00120277 0.000136468)
(-0.00146784 -0.00123227 8.89208e-05)
(-0.00148972 -0.00125046 3.06465e-05)
(-0.000473172 -0.000563843 -0.000236815)
(-0.00037551 -0.000476984 -2.66168e-05)
(-0.000401101 -0.000539351 2.45784e-05)
(-0.000491794 -0.000643667 8.70644e-05)
(-0.000588804 -0.00071936 0.000149323)
(-0.000685604 -0.000765715 0.000203448)
(-0.000776667 -0.000788854 0.000246798)
(-0.000859279 -0.000799924 0.00027981)
(-0.000930682 -0.000806973 0.00030293)
(-0.000985329 -0.0008117 0.000313655)
(-0.00102956 -0.000825283 0.000315337)
(-0.00106764 -0.000845613 0.000310747)
(-0.00110291 -0.000870823 0.000302388)
(-0.0011386 -0.000899517 0.000291881)
(-0.00117641 -0.000930804 0.000279937)
(-0.00121695 -0.000964241 0.000266693)
(-0.0012604 -0.00099975 0.000252058)
(-0.00130637 -0.00103696 0.000235702)
(-0.00135428 -0.00107534 0.000217031)
(-0.00140312 -0.00111399 0.000195018)
(-0.0014514 -0.00115163 0.000167853)
(-0.00149672 -0.0011863 0.000133009)
(-0.00153451 -0.00121515 8.66887e-05)
(-0.00155721 -0.00123292 2.98714e-05)
(-0.000511639 -0.000549109 -0.000223149)
(-0.000400888 -0.000461581 -3.23224e-05)
(-0.000414755 -0.000511544 1.55406e-05)
(-0.000505929 -0.000614015 7.43301e-05)
(-0.000605278 -0.000691994 0.000134531)
(-0.000705797 -0.000742957 0.000188085)
(-0.000801437 -0.000771499 0.000232171)
(-0.000888907 -0.000787089 0.000266585)
(-0.000964379 -0.000795973 0.000290674)
(-0.00102435 -0.000801155 0.00030278)
(-0.00107062 -0.000812663 0.000304957)
(-0.00111082 -0.000831725 0.000300716)
(-0.00114825 -0.000856141 0.000292743)
(-0.00118575 -0.00088398 0.000282559)
(-0.00122529 -0.000914415 0.000271002)
(-0.00126786 -0.000947195 0.000258303)
(-0.00131323 -0.000981878 0.000244277)
(-0.00136114 -0.00101819 0.000228618)
(-0.00141088 -0.00105555 0.000210707)
(-0.00146152 -0.00109315 0.000189528)
(-0.0015115 -0.00112973 0.000163282)
(-0.00155836 -0.0011634 0.000129479)
(-0.0015974 -0.00119142 8.44127e-05)
(-0.00162082 -0.00120866 2.9082e-05)
(-0.00053078 -0.000511913 -0.000195362)
(-0.000416429 -0.00043186 -3.84201e-05)
(-0.00042383 -0.000479296 6.56393e-06)
(-0.000515032 -0.000579537 6.12657e-05)
(-0.000616654 -0.000659691 0.000119068)
(-0.000720136 -0.000714467 0.00017162)
(-0.000820378 -0.000748434 0.000216304)
(-0.000912854 -0.000768571 0.000252076)
(-0.000993305 -0.000780018 0.000277374)
(-0.0010577 -0.000785783 0.000290655)
(-0.00110773 -0.000795388 0.000293719)
(-0.00115028 -0.000813095 0.000290062)
(-0.00118963 -0.000836125 0.000282489)
(-0.00122919 -0.00086305 0.000272796)
(-0.0012708 -0.000892685 0.000261789)
(-0.00131497 -0.000924332 0.000249629)
(-0.00136209 -0.000957922 0.00023626)
(-0.00141169 -0.000993047 0.000221333)
(-0.00146318 -0.0010292 0.000204237)
(-0.00151545 -0.00106553 0.000183931)
(-0.00156696 -0.00110082 0.000158632)
(-0.00161518 -0.0011333 0.000125893)
(-0.00165535 -0.00116032 8.2106e-05)
(-0.00167939 -0.00117692 2.82836e-05)
(-0.000493745 -0.000422996 -0.000156072)
(-0.000422431 -0.000398608 -4.22629e-05)
(-0.000427733 -0.000442441 -2.29826e-06)
(-0.000517364 -0.000540032 4.7642e-05)
(-0.000620794 -0.000621988 0.000102656)
(-0.000728468 -0.000681681 0.00015419)
(-0.000833356 -0.000720803 0.000199254)
(-0.000930487 -0.000744855 0.00023614)
(-0.00101498 -0.000758009 0.000262439)
(-0.00108515 -0.000765745 0.000277205)
(-0.00114008 -0.000774334 0.000281494)
(-0.00118515 -0.000789601 0.000278556)
(-0.00122711 -0.000811461 0.000271692)
(-0.00126862 -0.000837052 0.000262562)
(-0.00131182 -0.000865328 0.000252115)
(-0.00135802 -0.000895958 0.000240676)
(-0.0014069 -0.000928327 0.000228053)
(-0.00145822 -0.000962144 0.000213934)
(-0.00151121 -0.000996826 0.000197681)
(-0.00156492 -0.00103164 0.000178275)
(-0.00161775 -0.00106544 0.000153944)
(-0.00166715 -0.00109649 0.000122282)
(-0.00170829 -0.00112235 7.97846e-05)
(-0.00173285 -0.00113822 2.74819e-05)
(-0.000533605 -0.000407274 -0.000141345)
(-0.000430479 -0.000366511 -4.65155e-05)
(-0.000426208 -0.000403551 -1.1289e-05)
(-0.00051325 -0.000497486 3.38903e-05)
(-0.000618633 -0.000581403 8.56847e-05)
(-0.000728725 -0.000644253 0.000135505)
(-0.000838004 -0.000688034 0.000180566)
(-0.000940163 -0.000715987 0.00021842)
(-0.00103076 -0.00073224 0.000246258)
(-0.0011051 -0.000740635 0.000262146)
(-0.00116565 -0.00074949 0.00026792)
(-0.00121534 -0.000763056 0.000266241)
(-0.0012595 -0.000782418 0.000260132)
(-0.00130332 -0.000806519 0.000251794)
(-0.00134882 -0.000833665 0.000242162)
(-0.00139643 -0.0008627 0.000231428)
(-0.00144682 -0.000893549 0.0002196)
(-0.00149952 -0.000925747 0.000206323)
(-0.00155394 -0.000958825 0.000190978)
(-0.00160892 -0.000991956 0.000172513)
(-0.00166289 -0.00102408 0.000149179)
(-0.00171331 -0.00105357 0.000118618)
(-0.00175527 -0.00107812 7.74348e-05)
(-0.00178025 -0.00109318 2.66722e-05)
(-0.000520151 -0.000352988 -0.000110523)
(-0.000431331 -0.000329165 -5.12441e-05)
(-0.000417358 -0.000362043 -1.94684e-05)
(-0.000500391 -0.000451183 2.0075e-05)
(-0.000605984 -0.000535505 6.78092e-05)
(-0.000720333 -0.000603108 0.000115668)
(-0.000834452 -0.000651608 0.000160385)
(-0.000941865 -0.000683264 0.000198971)
(-0.00103643 -0.000700893 0.000227793)
(-0.0011176 -0.000711584 0.000245563)
(-0.00118325 -0.000720504 0.000252839)
(-0.00123761 -0.000732914 0.000252569)
(-0.00128627 -0.000750765 0.000247849)
(-0.00133259 -0.000772848 0.000240507)
(-0.00137957 -0.00079789 0.000231668)
(-0.00142932 -0.000825489 0.000221881)
(-0.00148137 -0.000854727 0.000210967)
(-0.00153556 -0.000885252 0.000198629)
(-0.0015911 -0.000916469 0.000184218)
(-0.00164711 -0.000947714 0.000166717)
(-0.00170199 -0.000977953 0.000144393)
(-0.0017532 -0.00100565 0.000114939)
(-0.0017958 -0.00102872 7.50778e-05)
(-0.00182104 -0.00104292 2.58622e-05)
(-0.000464179 -0.00027659 -8.20899e-05)
(-0.000417693 -0.000288558 -5.2736e-05)
(-0.000402048 -0.000319037 -2.72153e-05)
(-0.000478994 -0.000402615 6.37362e-06)
(-0.000585923 -0.000488406 4.96008e-05)
(-0.00070146 -0.000557999 9.45198e-05)
(-0.000819645 -0.000610402 0.000138226)
(-0.00093222 -0.000645489 0.000177149)
(-0.00103477 -0.000667024 0.000207685)
(-0.00112048 -0.000678237 0.000226939)
(-0.00119218 -0.000687654 0.000236141)
(-0.00125201 -0.000699545 0.000237664)
(-0.00130423 -0.000715657 0.000234344)
(-0.00135381 -0.000735941 0.000228303)
(-0.00140393 -0.000759534 0.000220719)
(-0.00145506 -0.000785047 0.000211903)
(-0.00150844 -0.00081235 0.000201982)
(-0.00156369 -0.00084088 0.00019063)
(-0.00162032 -0.000870183 0.000177241)
(-0.00167719 -0.000899452 0.000160764)
(-0.00173281 -0.000927737 0.000139494)
(-0.00178472 -0.00095362 0.000111188)
(-0.00182789 -0.000975188 7.26857e-05)
(-0.00185322 -0.000988457 2.50423e-05)
(-0.000488989 -0.000256981 -6.84471e-05)
(-0.000405721 -0.000250325 -5.50434e-05)
(-0.000378295 -0.000274893 -3.42104e-05)
(-0.000447807 -0.000351872 -6.76906e-06)
(-0.000551612 -0.000435474 3.08263e-05)
(-0.000671199 -0.000509378 7.22568e-05)
(-0.000794398 -0.000566246 0.000114413)
(-0.000913476 -0.000605452 0.000153482)
(-0.00101968 -0.000627826 0.000184719)
(-0.0011138 -0.000641685 0.000206276)
(-0.00119156 -0.000651346 0.00021762)
(-0.00125629 -0.000662251 0.000221095)
(-0.00131349 -0.000677289 0.000219657)
(-0.0013664 -0.000695813 0.000215132)
(-0.00141812 -0.000717084 0.000208754)
(-0.00147177 -0.000741045 0.000201259)
(-0.00152683 -0.000766539 0.00019252)
(-0.00158339 -0.000793191 0.000182306)
(-0.00164068 -0.000820364 0.000169989)
(-0.00169805 -0.00084752 0.000154585)
(-0.00175405 -0.000873747 0.000134414)
(-0.0018063 -0.000897742 0.000107296)
(-0.00184973 -0.000917745 7.02049e-05)
(-0.00187497 -0.000930009 2.41932e-05)
(-0.000422161 -0.000194345 -4.38534e-05)
(-0.000384108 -0.000210292 -5.72371e-05)
(-0.00034731 -0.000231532 -3.97307e-05)
(-0.00040554 -0.000299146 -1.86872e-05)
(-0.000510048 -0.000383375 1.25047e-05)
(-0.000628633 -0.00045763 4.91257e-05)
(-0.000755347 -0.000517858 8.87026e-05)
(-0.00087922 -0.000560065 0.000127044)
(-0.000996234 -0.000587622 0.000159936)
(-0.0010955 -0.000601857 0.000183207)
(-0.0011802 -0.000611935 0.000197055)
(-0.00125162 -0.000622526 0.000203073)
(-0.00131273 -0.000635698 0.000203599)
(-0.00136911 -0.000652352 0.000200853)
(-0.00142458 -0.000672226 0.000196194)
(-0.00147928 -0.000693773 0.000189966)
(-0.00153528 -0.000717021 0.000182459)
(-0.00159235 -0.000741355 0.000173418)
(-0.00165026 -0.000766388 0.000162289)
(-0.00170787 -0.000791346 0.000148038)
(-0.00176394 -0.000815441 0.000129033)
(-0.00181625 -0.000837494 0.000103174)
(-0.00185969 -0.000855881 6.75778e-05)
(-0.00188469 -0.000867102 2.32954e-05)
(-0.000423669 -0.000167841 -3.26431e-05)
(-0.000353922 -0.000173332 -5.7673e-05)
(-0.000308839 -0.000188774 -4.37954e-05)
(-0.000354757 -0.000247021 -2.89788e-05)
(-0.000449814 -0.000324361 -5.10608e-06)
(-0.000572179 -0.000402428 2.56589e-05)
(-0.000703758 -0.000467015 6.16826e-05)
(-0.000836188 -0.000514616 9.90787e-05)
(-0.000955798 -0.000542364 0.000132044)
(-0.00106547 -0.000559808 0.000157825)
(-0.00115769 -0.000570284 0.000174436)
(-0.00123454 -0.00057962 0.000183072)
(-0.00130177 -0.000591735 0.000186212)
(-0.00136215 -0.000606537 0.000185582)
(-0.00141886 -0.000623651 0.000182503)
(-0.00147644 -0.000643506 0.00017797)
(-0.00153411 -0.000664762 0.000171929)
(-0.00159232 -0.000687044 0.00016425)
(-0.00165033 -0.000709715 0.000154351)
(-0.00170781 -0.000732358 0.000141296)
(-0.00176358 -0.000754234 0.000123494)
(-0.00181556 -0.00077426 9.89238e-05)
(-0.00185871 -0.000790958 6.48683e-05)
(-0.00188328 -0.000801096 2.23713e-05)
(-0.000349651 -0.000117641 -1.94637e-05)
(-0.00030987 -0.000136573 -5.51398e-05)
(-0.00026278 -0.000147233 -4.59065e-05)
(-0.000289542 -0.000191788 -3.60352e-05)
(-0.000385563 -0.000269195 -2.08868e-05)
(-0.00050264 -0.000344685 2.63907e-06)
(-0.000636855 -0.000412404 3.37154e-05)
(-0.0007724 -0.000462467 6.85905e-05)
(-0.000906851 -0.000497753 0.000102593)
(-0.00102222 -0.000515759 0.000130076)
(-0.00112232 -0.000526635 0.000149632)
(-0.00120752 -0.000535812 0.000161578)
(-0.00127907 -0.000545737 0.000167366)
(-0.00134334 -0.000558404 0.000169111)
(-0.00140489 -0.000574146 0.000168308)
(-0.00146318 -0.000591227 0.000165373)
(-0.00152139 -0.000609937 0.00016082)
(-0.00157951 -0.000629628 0.000154505)
(-0.00163766 -0.000650001 0.000145962)
(-0.00169478 -0.000670319 0.000134187)
(-0.00174994 -0.000689944 0.000117652)
(-0.00180133 -0.000707938 9.44398e-05)
(-0.00184397 -0.000722952 6.20121e-05)
(-0.00186794 -0.00073199 2.13997e-05)
(-0.000290165 -8.27161e-05 -9.90093e-06)
(-0.000258027 -0.000102887 -5.14445e-05)
(-0.000209629 -0.000108616 -4.51077e-05)
(-0.000223375 -0.000141977 -3.98436e-05)
(-0.000296584 -0.000203374 -3.22978e-05)
(-0.000418541 -0.000283241 -1.81246e-05)
(-0.000556159 -0.000354965 6.10467e-06)
(-0.000703277 -0.000413003 3.77885e-05)
(-0.000837404 -0.000447731 7.06233e-05)
(-0.00096538 -0.000470294 0.000100283)
(-0.00107465 -0.000482226 0.00012295)
(-0.00116559 -0.000489942 0.000138066)
(-0.00124471 -0.000498892 0.000147201)
(-0.00131381 -0.000509598 0.000151703)
(-0.00137598 -0.000522068 0.000152891)
(-0.00143773 -0.000537383 0.000152074)
(-0.00149776 -0.000553993 0.000149298)
(-0.00155703 -0.000571594 0.000144589)
(-0.0016147 -0.000589485 0.000137431)
(-0.00167101 -0.000607408 0.000126967)
(-0.00172517 -0.000624758 0.000111718)
(-0.00177556 -0.000640677 8.98774e-05)
(-0.00181734 -0.000653962 5.91047e-05)
(-0.00184053 -0.000661911 2.04129e-05)
(-0.00019083 -4.62084e-05 8.32618e-07)
(-0.000195835 -7.0618e-05 -4.71512e-05)
(-0.000153321 -7.51399e-05 -4.148e-05)
(-0.000131973 -8.17237e-05 -3.26231e-05)
(-0.000216604 -0.000147396 -3.92404e-05)
(-0.000321869 -0.000218065 -3.48552e-05)
(-0.000460902 -0.000293595 -1.935e-05)
(-0.00060679 -0.0003531 6.71847e-06)
(-0.000761535 -0.000399818 3.84267e-05)
(-0.000894804 -0.000423779 6.89902e-05)
(-0.00101235 -0.000436763 9.45049e-05)
(-0.00111354 -0.000445056 0.000113379)
(-0.00119697 -0.000451635 0.000125683)
(-0.00127025 -0.000460011 0.000133096)
(-0.00133886 -0.000471282 0.000137134)
(-0.0014008 -0.000483511 0.000138247)
(-0.00146091 -0.000497365 0.000137217)
(-0.00151924 -0.000512157 0.000134049)
(-0.00157659 -0.000527725 0.000128414)
(-0.0016319 -0.000543328 0.000119348)
(-0.00168472 -0.00055845 0.000105451)
(-0.00173385 -0.000572358 8.50542e-05)
(-0.0017746 -0.000583976 5.6034e-05)
(-0.00179682 -0.000590862 1.93728e-05)
(-7.82213e-05 -1.54412e-05 8.15955e-06)
(-0.000116364 -3.78622e-05 -3.67868e-05)
(-9.72805e-05 -4.55775e-05 -3.69961e-05)
(-6.22824e-05 -3.90391e-05 -2.28519e-05)
(-7.4717e-05 -5.22758e-05 -2.12973e-05)
(-0.000212419 -0.000146987 -4.15284e-05)
(-0.000350893 -0.00022593 -3.90963e-05)
(-0.00051434 -0.00029951 -2.20458e-05)
(-0.000661509 -0.000344256 6.24446e-06)
(-0.000809833 -0.000375869 3.72017e-05)
(-0.000937825 -0.000391695 6.51513e-05)
(-0.00104401 -0.000398957 8.7121e-05)
(-0.00113655 -0.000405246 0.00010313)
(-0.00121555 -0.000411876 0.00011376)
(-0.00128349 -0.000419443 0.000120095)
(-0.00134973 -0.000429998 0.000123722)
(-0.00141188 -0.000441786 0.000124769)
(-0.00147168 -0.000454632 0.000123465)
(-0.00152792 -0.000467741 0.000119362)
(-0.0015817 -0.000481021 0.000111704)
(-0.00163277 -0.00049397 9.9163e-05)
(-0.00168018 -0.000505892 8.02019e-05)
(-0.00171948 -0.000515851 5.29407e-05)
(-0.00174057 -0.00052173 1.83278e-05)
(-9.51041e-06 5.06019e-07 1.11968e-05)
(-2.58827e-05 -7.33792e-06 -1.25477e-05)
(-3.24213e-05 -1.54046e-05 -2.09523e-05)
(-5.07585e-05 -3.5756e-05 -3.11199e-05)
(-4.99374e-05 -3.94132e-05 -2.2856e-05)
(-0.000101137 -7.41494e-05 -3.17556e-05)
(-0.000236917 -0.000154367 -4.86075e-05)
(-0.000383964 -0.0002259 -4.41526e-05)
(-0.000562254 -0.000292603 -2.28888e-05)
(-0.000712314 -0.000326808 6.37749e-06)
(-0.00084764 -0.000345616 3.55938e-05)
(-0.000965852 -0.000355485 6.06433e-05)
(-0.00106176 -0.00035991 7.97113e-05)
(-0.00114457 -0.000364448 9.34056e-05)
(-0.00122114 -0.000371449 0.000103)
(-0.00128664 -0.00037878 0.000108797)
(-0.00134822 -0.000387776 0.000111803)
(-0.00140581 -0.000397699 0.000112167)
(-0.00146125 -0.00040864 0.000109738)
(-0.00151335 -0.000419783 0.000103578)
(-0.00156231 -0.000430697 9.24588e-05)
(-0.00160779 -0.000440788 7.50191e-05)
(-0.00164551 -0.000449222 4.96381e-05)
(-0.00166526 -0.00045416 1.72132e-05)
(6.56879e-06 6.16887e-06 1.5074e-05)
(4.42254e-06 5.29221e-07 -7.25916e-06)
(-4.57936e-06 -7.88829e-06 -2.03863e-05)
(-1.72545e-05 -2.29411e-05 -2.78114e-05)
(-3.49689e-05 -3.74766e-05 -3.01446e-05)
(-4.41753e-05 -3.66992e-05 -2.32034e-05)
(-0.000132631 -9.00492e-05 -4.47917e-05)
(-0.000280574 -0.000165881 -5.74301e-05)
(-0.00043124 -0.000225796 -4.54156e-05)
(-0.000601668 -0.000275345 -2.1171e-05)
(-0.000747543 -0.000300334 7.43531e-06)
(-0.000868115 -0.000310703 3.40125e-05)
(-0.000974068 -0.000316582 5.60345e-05)
(-0.00106345 -0.000320447 7.28257e-05)
(-0.00113672 -0.000323617 8.46925e-05)
(-0.00120758 -0.000329779 9.32401e-05)
(-0.0012715 -0.000337012 9.85362e-05)
(-0.0013313 -0.00034542 0.000101001)
(-0.00138487 -0.000354116 0.000100218)
(-0.00143463 -0.000363201 9.55397e-05)
(-0.00148104 -0.000372226 8.58197e-05)
(-0.00152406 -0.000380589 6.98668e-05)
(-0.00155972 -0.00038756 4.63473e-05)
(-0.001578 -0.000391649 1.61051e-05)
(1.2857e-05 1.11974e-05 2.17609e-05)
(2.39216e-05 7.52945e-06 -7.36477e-06)
(2.76137e-05 -1.37552e-07 -1.88807e-05)
(1.21118e-05 -9.52442e-06 -1.60963e-05)
(-1.17047e-06 -2.45082e-05 -2.4039e-05)
(-2.90555e-05 -3.36883e-05 -2.93925e-05)
(-6.90059e-05 -5.24751e-05 -3.77803e-05)
(-8.16098e-05 -4.89737e-05 -2.59153e-05)
(-0.000322166 -0.000168382 -5.92365e-05)
(-0.000480386 -0.000220604 -4.31635e-05)
(-0.000631725 -0.00025274 -1.76077e-05)
(-0.000765393 -0.000269318 9.00535e-06)
(-0.000872897 -0.00027512 3.26786e-05)
(-0.000964147 -0.000277833 5.18201e-05)
(-0.00104904 -0.000281968 6.68517e-05)
(-0.00111732 -0.000285139 7.75468e-05)
(-0.00117948 -0.000289842 8.48556e-05)
(-0.00123507 -0.000295422 8.89954e-05)
(-0.00128732 -0.000302337 8.99855e-05)
(-0.00133466 -0.000309679 8.68665e-05)
(-0.00137813 -0.000317051 7.86139e-05)
(-0.00141848 -0.000323925 6.42552e-05)
(-0.00145205 -0.000329654 4.27613e-05)
(-0.00146864 -0.000332983 1.48964e-05)
(2.38442e-05 1.37601e-05 2.47002e-05)
(3.64176e-05 1.00857e-05 -8.85571e-06)
(3.72165e-05 2.63636e-06 -1.40584e-05)
(2.95588e-05 -6.43338e-06 -1.31513e-05)
(1.79825e-05 -1.23896e-05 -1.05506e-05)
(3.50483e-06 -2.45371e-05 -1.79892e-05)
(-2.01438e-05 -1.98849e-05 -1.72762e-05)
(-5.22468e-05 -3.29208e-05 -2.43243e-05)
(-0.000144534 -7.46245e-05 -4.01256e-05)
(-0.000354105 -0.000162886 -5.5452e-05)
(-0.000510843 -0.00020541 -3.76498e-05)
(-0.000643184 -0.0002255 -1.33057e-05)
(-0.000759651 -0.000235453 1.0614e-05)
(-0.000858454 -0.000239884 3.15565e-05)
(-0.000934913 -0.000240515 4.82051e-05)
(-0.00100987 -0.000243759 6.14652e-05)
(-0.00107487 -0.000247541 7.10547e-05)
(-0.0011338 -0.000252418 7.74168e-05)
(-0.00118324 -0.000257562 8.00848e-05)
(-0.00122732 -0.000263318 7.84603e-05)
(-0.0012674 -0.000269272 7.16139e-05)
(-0.00130454 -0.00027483 5.87751e-05)
(-0.00133544 -0.000279424 3.92441e-05)
(-0.00135025 -0.00028212 1.37127e-05)
(3.28186e-05 1.41525e-05 2.50806e-05)
(7.38221e-05 1.63213e-05 -1.39548e-05)
(8.36881e-05 6.18306e-06 -2.38187e-05)
(6.1183e-05 -7.42391e-06 -1.9343e-05)
(3.31246e-05 -1.28607e-05 -1.0447e-05)
(1.87552e-05 -1.62911e-05 -5.55945e-06)
(4.5282e-07 -2.10519e-05 -8.01687e-06)
(-4.34216e-05 -3.00439e-05 -2.7212e-05)
(-0.000107935 -5.68333e-05 -4.34658e-05)
(-0.00020562 -9.51346e-05 -4.85612e-05)
(-0.000377622 -0.000153654 -4.89527e-05)
(-0.000520578 -0.000184316 -3.13683e-05)
(-0.000637204 -0.000197463 -9.05248e-06)
(-0.000733354 -0.00020232 1.22194e-05)
(-0.000825981 -0.000206884 3.09005e-05)
(-0.00089484 -0.000207851 4.57833e-05)
(-0.000955416 -0.000209701 5.70655e-05)
(-0.00100724 -0.00021218 6.48764e-05)
(-0.00105465 -0.000216222 6.92678e-05)
(-0.0010955 -0.000220852 6.91746e-05)
(-0.00113176 -0.000225703 6.37941e-05)
(-0.00116552 -0.000230258 5.26194e-05)
(-0.00119382 -0.000234007 3.52848e-05)
(-0.00120662 -0.000236169 1.2374e-05)
(3.93247e-05 1.45464e-05 2.71013e-05)
(9.19821e-05 1.90744e-05 -1.25898e-05)
(0.000111868 9.80201e-06 -2.70882e-05)
(0.000112112 -7.10713e-06 -3.18131e-05)
(8.20665e-05 -2.15152e-05 -2.36439e-05)
(3.28571e-05 -1.81153e-05 -7.69378e-06)
(2.02065e-05 -2.3046e-05 -1.83537e-06)
(-4.2361e-06 -1.33651e-05 -3.89851e-06)
(-4.00039e-05 -2.34056e-05 -2.0478e-05)
(-8.19617e-05 -3.86565e-05 -2.74038e-05)
(-0.000241974 -9.99266e-05 -4.8292e-05)
(-0.000384113 -0.000139084 -4.22218e-05)
(-0.000505269 -0.00015944 -2.48453e-05)
(-0.000610521 -0.000169675 -4.87367e-06)
(-0.000684823 -0.000170999 1.39184e-05)
(-0.000762232 -0.000174377 3.03281e-05)
(-0.000827304 -0.000177086 4.34274e-05)
(-0.000883696 -0.000180138 5.32708e-05)
(-0.000927184 -0.000183168 5.91958e-05)
(-0.00096373 -0.000186866 6.04907e-05)
(-0.000995812 -0.000190903 5.64559e-05)
(-0.00102564 -0.000194664 4.68026e-05)
(-0.00105068 -0.000197688 3.15178e-05)
(-0.00106153 -0.00019945 1.11009e-05)
(4.48094e-05 1.47938e-05 2.95933e-05)
(0.000102421 2.15245e-05 -1.04645e-05)
(0.000128849 1.50313e-05 -2.82196e-05)
(0.000133706 -1.32159e-06 -3.6279e-05)
(0.000121292 -2.0901e-05 -3.53727e-05)
(8.3256e-05 -3.27116e-05 -2.27027e-05)
(4.23572e-05 -3.12678e-05 -7.08817e-06)
(1.19431e-05 -1.84912e-05 1.37185e-06)
(-1.43585e-05 -1.857e-05 -6.18956e-06)
(-5.3153e-05 -2.64897e-05 -2.33237e-05)
(-9.10418e-05 -3.87244e-05 -2.65104e-05)
(-0.000251502 -9.38729e-05 -4.3928e-05)
(-0.0003717 -0.000121479 -3.52059e-05)
(-0.000466753 -0.000133807 -1.8355e-05)
(-0.000566308 -0.000144239 -5.84886e-07)
(-0.000630919 -0.000146084 1.61988e-05)
(-0.00068509 -0.000147344 2.99993e-05)
(-0.000730782 -0.000148812 4.06369e-05)
(-0.000771262 -0.000151682 4.79095e-05)
(-0.000803772 -0.000155017 5.05148e-05)
(-0.000831138 -0.000158544 4.78538e-05)
(-0.000856933 -0.000161843 3.99308e-05)
(-0.000878989 -0.000164477 2.70496e-05)
(-0.000887579 -0.000165897 9.57458e-06)
(4.84383e-05 1.49454e-05 3.27873e-05)
(0.000101291 2.19204e-05 -7.39988e-06)
(0.000130115 1.9066e-05 -2.65975e-05)
(0.000142836 6.01252e-06 -3.77882e-05)
(0.000136937 -1.33728e-05 -4.00453e-05)
(0.000116961 -3.19405e-05 -3.40591e-05)
(7.10768e-05 -3.65789e-05 -1.73963e-05)
(3.5772e-05 -3.2777e-05 -3.17191e-06)
(1.19091e-05 -3.01146e-05 4.70197e-06)
(-1.51606e-05 -1.15677e-05 -6.92832e-06)
(-7.87741e-05 -3.72696e-05 -3.29392e-05)
(-9.2859e-05 -3.61317e-05 -2.42739e-05)
(-0.000236148 -8.02708e-05 -3.69093e-05)
(-0.000342888 -0.000103204 -2.81413e-05)
(-0.000403094 -0.000108383 -1.19206e-05)
(-0.000481354 -0.00011652 3.68132e-06)
(-0.0005461 -0.000121738 1.79305e-05)
(-0.000597382 -0.000125664 2.98191e-05)
(-0.00063243 -0.000128317 3.81566e-05)
(-0.000659537 -0.000131379 4.18322e-05)
(-0.00068219 -0.000134638 4.03429e-05)
(-0.000703544 -0.000137648 3.38787e-05)
(-0.000721818 -0.00013993 2.30738e-05)
(-0.000728585 -0.000141133 8.21729e-06)
(4.96428e-05 1.44172e-05 3.55036e-05)
(9.62103e-05 2.12967e-05 -4.29844e-06)
(0.000124776 2.09024e-05 -2.34026e-05)
(0.000137836 1.15858e-05 -3.51878e-05)
(0.000139736 -4.64574e-06 -4.06523e-05)
(0.000127372 -2.32313e-05 -3.81847e-05)
(0.000106506 -3.90908e-05 -2.97338e-05)
(5.87239e-05 -3.62725e-05 -1.22878e-05)
(2.30875e-05 -2.42959e-05 -9.14895e-07)
(5.96504e-06 -2.83257e-05 -6.04697e-07)
(-2.79563e-05 -1.85117e-05 -1.5875e-05)
(-8.14673e-05 -3.51614e-05 -3.21525e-05)
(-7.173e-05 -2.60807e-05 -1.76645e-05)
(-0.000184741 -5.97114e-05 -2.61978e-05)
(-0.000298846 -8.50119e-05 -2.05841e-05)
(-0.000350544 -9.07822e-05 -6.43725e-06)
(-0.000391656 -9.43785e-05 6.78911e-06)
(-0.000424655 -9.66619e-05 1.80211e-05)
(-0.000456758 -0.000100167 2.66329e-05)
(-0.000479105 -0.000103481 3.09832e-05)
(-0.000496421 -0.000106567 3.06064e-05)
(-0.000513251 -0.000109624 2.5961e-05)
(-0.000528442 -0.000111893 1.78475e-05)
(-0.000532437 -0.000112595 6.39385e-06)
(4.96501e-05 1.42287e-05 3.891e-05)
(8.80755e-05 2.05522e-05 -1.90626e-06)
(0.00011537 2.17234e-05 -2.01652e-05)
(0.000128384 1.47835e-05 -3.14231e-05)
(0.000131665 2.15982e-06 -3.75678e-05)
(0.000127959 -1.4309e-05 -3.85862e-05)
(0.000113546 -3.02714e-05 -3.32026e-05)
(9.64181e-05 -4.29981e-05 -2.52327e-05)
(4.98403e-05 -3.44465e-05 -1.06492e-05)
(3.14372e-05 -3.88758e-05 -4.94123e-06)
(-1.07653e-06 -1.44376e-05 -5.88185e-06)
(-3.83012e-05 -2.29489e-05 -2.58075e-05)
(-8.00522e-05 -3.49216e-05 -3.20355e-05)
(-0.000102581 -3.7099e-05 -2.36677e-05)
(-8.89852e-05 -2.70317e-05 -1.14076e-05)
(-0.000196038 -5.54404e-05 -1.1457e-05)
(-0.000255788 -6.96483e-05 -1.38577e-06)
(-0.000307048 -7.62249e-05 9.85491e-06)
(-0.000331497 -8.03504e-05 1.82465e-05)
(-0.000347453 -8.32172e-05 2.31181e-05)
(-0.000360495 -8.66088e-05 2.35414e-05)
(-0.000370866 -8.88937e-05 2.01384e-05)
(-0.000381838 -9.08738e-05 1.39208e-05)
(-0.000386876 -9.1734e-05 5.04777e-06)
(4.81044e-05 1.51735e-05 4.29331e-05)
(7.87647e-05 2.07775e-05 -8.56244e-07)
(0.000101905 2.21467e-05 -1.73863e-05)
(0.000113236 1.66052e-05 -2.67354e-05)
(0.000117878 6.40429e-06 -3.25242e-05)
(0.000117399 -7.02986e-06 -3.48279e-05)
(0.000113517 -2.26036e-05 -3.33681e-05)
(0.000101619 -3.53159e-05 -2.7719e-05)
(8.98576e-05 -4.53661e-05 -2.26267e-05)
(4.50438e-05 -3.31888e-05 -1.13002e-05)
(1.96144e-05 -2.75209e-05 -9.94526e-06)
(-4.77009e-06 -1.33481e-05 -1.26962e-05)
(-2.82708e-05 -1.69452e-05 -2.13108e-05)
(-7.20732e-05 -3.17542e-05 -3.02381e-05)
(-9.66593e-05 -3.69796e-05 -2.30938e-05)
(-6.40452e-05 -2.17773e-05 -7.82579e-06)
(-0.000145145 -4.44312e-05 -5.93254e-06)
(-9.46042e-05 -2.62259e-05 1.047e-06)
(-0.000122026 -3.47473e-05 5.82417e-06)
(-0.000138584 -3.87256e-05 9.38591e-06)
(-0.000143224 -4.15545e-05 1.01239e-05)
(-0.000161519 -4.50923e-05 9.63761e-06)
(-0.000171207 -4.7534e-05 6.77282e-06)
(-0.000162517 -4.61196e-05 2.28948e-06)
(4.42675e-05 1.72166e-05 4.67127e-05)
(6.47941e-05 2.05784e-05 -7.86538e-07)
(8.22032e-05 2.12552e-05 -1.4225e-05)
(9.14977e-05 1.66461e-05 -2.07986e-05)
(9.68447e-05 8.62793e-06 -2.52264e-05)
(9.99508e-05 -2.42785e-06 -2.81314e-05)
(0.000101136 -1.59863e-05 -2.85081e-05)
(0.000102481 -2.98103e-05 -2.72401e-05)
(9.43095e-05 -3.83724e-05 -2.40116e-05)
(8.32055e-05 -4.52659e-05 -2.26677e-05)
(3.89003e-05 -3.08038e-05 -1.46766e-05)
(1.6325e-05 -2.68473e-05 -1.86974e-05)
(-7.60403e-06 -1.327e-05 -2.10605e-05)
(-2.54394e-05 -1.58112e-05 -2.4179e-05)
(-5.41729e-05 -2.79922e-05 -2.75201e-05)
(-3.85147e-05 -1.69214e-05 -1.01397e-05)
(-9.32419e-05 -3.64077e-05 -1.19278e-05)
(-0.000105979 -4.14849e-05 -3.83066e-06)
(-9.03473e-05 -3.39019e-05 2.84474e-06)
(-5.67646e-05 -2.21959e-05 3.77871e-06)
(-9.99711e-05 -3.91646e-05 7.85243e-06)
(-0.000129374 -5.09729e-05 8.51616e-06)
(-0.000134758 -5.26746e-05 5.92007e-06)
(-6.03424e-05 -2.44067e-05 9.59251e-07)
(3.8118e-05 1.95962e-05 4.89581e-05)
(5.14774e-05 2.0531e-05 -1.32131e-06)
(6.05492e-05 1.89722e-05 -1.1253e-05)
(6.56038e-05 1.44236e-05 -1.4631e-05)
(7.04824e-05 8.20782e-06 -1.7089e-05)
(7.59489e-05 -6.93006e-07 -1.93865e-05)
(8.34508e-05 -1.23763e-05 -2.10927e-05)
(9.07585e-05 -2.42382e-05 -2.18492e-05)
(9.67875e-05 -3.46144e-05 -2.30381e-05)
(8.84954e-05 -3.94147e-05 -2.30309e-05)
(7.46059e-05 -4.32051e-05 -2.51815e-05)
(3.41719e-05 -2.85638e-05 -2.00218e-05)
(1.48083e-05 -2.46268e-05 -2.95756e-05)
(-5.3536e-06 -1.65374e-05 -3.46554e-05)
(-1.35724e-05 -1.17321e-05 -2.11761e-05)
(-3.49947e-05 -2.28103e-05 -2.67266e-05)
(-2.32745e-05 -1.4115e-05 -9.19133e-06)
(-4.32213e-05 -2.5561e-05 -7.26725e-06)
(-6.28194e-05 -3.42914e-05 -1.62683e-06)
(-4.98637e-05 -2.93809e-05 2.83323e-06)
(-6.57584e-05 -3.74368e-05 5.84175e-06)
(-3.09641e-05 -1.92004e-05 2.30079e-06)
(-3.19953e-05 -2.00604e-05 1.72419e-06)
(-6.01539e-05 -3.66804e-05 1.2982e-06)
(3.05764e-05 2.15534e-05 4.8966e-05)
(3.99251e-05 2.05878e-05 -2.28943e-06)
(4.32727e-05 1.66223e-05 -9.77305e-06)
(4.40477e-05 1.1313e-05 -1.06745e-05)
(4.63468e-05 5.71458e-06 -1.10945e-05)
(5.29049e-05 -1.86681e-06 -1.21253e-05)
(6.37356e-05 -1.18362e-05 -1.33807e-05)
(7.75715e-05 -2.19331e-05 -1.54613e-05)
(8.66521e-05 -2.99098e-05 -1.79757e-05)
(9.15161e-05 -3.69132e-05 -2.1587e-05)
(8.16339e-05 -3.91426e-05 -2.45816e-05)
(6.5907e-05 -4.0237e-05 -3.06039e-05)
(3.15667e-05 -2.75697e-05 -2.87462e-05)
(1.37156e-05 -2.14872e-05 -3.45532e-05)
(1.50331e-06 -1.96621e-05 -4.51704e-05)
(-6.30491e-06 -1.377e-05 -2.87633e-05)
(-6.55959e-06 -9.71914e-06 -1.46791e-05)
(-1.23543e-05 -1.44712e-05 -1.28682e-05)
(-1.53723e-05 -1.84844e-05 -7.34627e-06)
(-1.80353e-05 -2.28414e-05 -3.00712e-06)
(-9.32661e-06 -1.36471e-05 -2.08755e-07)
(-1.37753e-05 -2.06175e-05 4.25478e-07)
(-1.95495e-05 -2.82443e-05 7.98071e-07)
(-1.40988e-05 -1.98813e-05 3.49145e-07)
(2.29918e-05 2.26048e-05 4.62852e-05)
(3.05321e-05 2.05277e-05 -3.87757e-06)
(3.1544e-05 1.47776e-05 -9.84694e-06)
(3.15498e-05 8.91902e-06 -9.85801e-06)
(3.27747e-05 2.61256e-06 -9.15126e-06)
(3.95186e-05 -5.5727e-06 -8.78252e-06)
(5.20297e-05 -1.51223e-05 -8.73061e-06)
(6.54827e-05 -2.29622e-05 -9.89149e-06)
(7.81794e-05 -2.92751e-05 -1.31607e-05)
(8.34076e-05 -3.36322e-05 -1.71006e-05)
(8.48544e-05 -3.78382e-05 -2.25842e-05)
(7.49252e-05 -3.84693e-05 -2.89418e-05)
(6.05058e-05 -3.79015e-05 -3.84625e-05)
(3.49225e-05 -2.85954e-05 -4.08267e-05)
(2.17958e-05 -2.86059e-05 -5.20467e-05)
(9.24744e-06 -1.98434e-05 -4.45252e-05)