/*--------------------------------*- C++ -*----------------------------------*\
  =========                 |
  \\      /  F ield         | OpenFOAM: The Open Source CFD Toolbox
   \\    /   O peration     | Website:  https://openfoam.org
    \\  /    A nd           | Version:  6
     \\/     M anipulation  |
\*---------------------------------------------------------------------------*/
FoamFile
{
    version     2.0;
    format      ascii;
    class       volScalarField;
    location    "1.6";
    object      p;
}
// * * * * * * * * * * * * * * * * * * * * * * * * * * * * * * * * * * * * * //

dimensions      [0 2 -2 0 0 0 0];

internalField   nonuniform List<scalar> 
380496
(
0.0124551
0.0128347
0.0125784
0.0125132
0.0124647
0.0124103
0.0123582
0.012304
0.0122476
0.0121902
0.0121325
0.0120745
0.012016
0.0119562
0.0118944
0.0118302
0.0117636
0.0116947
0.0116234
0.0115497
0.0114735
0.0113943
0.011312
0.0112258
0.0111355
0.0110403
0.0109399
0.0108333
0.0107206
0.0106003
0.0104739
0.0103376
0.0101988
0.0100417
0.00990126
0.0124245
0.012796
0.0125537
0.0124954
0.0124519
0.0124012
0.0123508
0.0122968
0.0122395
0.0121804
0.0121201
0.012059
0.0119968
0.0119326
0.011866
0.0117964
0.0117241
0.0116487
0.0115709
0.0114899
0.0114063
0.0113194
0.011229
0.0111347
0.0110361
0.0109326
0.0108239
0.0107094
0.010589
0.0104612
0.0103284
0.0101843
0.0100432
0.00987137
0.00975046
0.0123892
0.0127555
0.0125263
0.0124745
0.0124354
0.0123874
0.0123383
0.0122845
0.0122267
0.0121661
0.0121037
0.0120398
0.0119741
0.0119057
0.011834
0.0117586
0.0116796
0.0115969
0.0115111
0.0114216
0.0113289
0.0112325
0.0111325
0.0110282
0.0109194
0.0108057
0.0106867
0.0105618
0.0104314
0.0102937
0.0101517
0.00999806
0.00984898
0.00966727
0.00953343
0.0123455
0.0127118
0.012499
0.0124566
0.0124242
0.0123804
0.0123332
0.0122797
0.0122209
0.0121584
0.0120934
0.0120264
0.011957
0.0118844
0.0118079
0.0117272
0.0116424
0.0115536
0.0114613
0.0113651
0.0112654
0.0111619
0.0110544
0.0109427
0.0108265
0.0107054
0.0105793
0.0104474
0.0103104
0.0101662
0.0100182
0.00985831
0.00970213
0.00951435
0.00936202
0.0123038
0.0126637
0.0124701
0.0124367
0.0124101
0.0123699
0.0123245
0.0122715
0.0122121
0.0121484
0.0120815
0.012012
0.0119395
0.011863
0.0117819
0.0116958
0.011605
0.0115096
0.0114103
0.0113067
0.0111996
0.0110883
0.0109732
0.0108537
0.0107299
0.010601
0.0104675
0.0103283
0.0101846
0.0100342
0.0098815
0.00971729
0.00956319
0.00937318
0.00925126
0.0122478
0.012613
0.0124421
0.0124206
0.012402
0.0123664
0.012323
0.0122703
0.0122103
0.0121449
0.0120758
0.0120034
0.0119273
0.0118465
0.0117604
0.0116689
0.0115724
0.011471
0.0113655
0.0112556
0.011142
0.0110243
0.0109026
0.0107767
0.0106466
0.0105116
0.0103722
0.0102274
0.0100784
0.00992285
0.0097653
0.00959549
0.00943524
0.00923508
0.00909843
0.0121879
0.0125579
0.0124122
0.0124025
0.0123912
0.0123596
0.0123182
0.0122665
0.0122064
0.0121402
0.0120696
0.0119949
0.0119157
0.011831
0.0117405
0.0116439
0.0115419
0.0114347
0.0113232
0.011207
0.0110873
0.0109633
0.0108356
0.0107037
0.0105678
0.0104273
0.0102825
0.0101329
0.00997949
0.00982006
0.00966006
0.00948843
0.00933111
0.0091327
0.00901659
0.0121164
0.0125015
0.0123862
0.0123911
0.0123888
0.0123616
0.0123219
0.0122706
0.0122099
0.0121426
0.0120699
0.0119924
0.0119094
0.0118202
0.0117246
0.0116226
0.011515
0.0114023
0.0112851
0.0111635
0.0110382
0.0109088
0.0107758
0.0106387
0.0104978
0.0103525
0.0102033
0.0100494
0.00989217
0.00972905
0.0095654
0.00938972
0.00922667
0.00902112
0.00888725
0.0120333
0.0124439
0.0123595
0.0123784
0.0123841
0.0123604
0.0123224
0.012272
0.0122116
0.0121438
0.0120699
0.0119903
0.0119043
0.0118114
0.0117115
0.011605
0.0114927
0.0113751
0.011253
0.0111267
0.0109966
0.0108626
0.0107252
0.0105839
0.010439
0.01029
0.0101374
0.00998043
0.00982056
0.00965534
0.00949057
0.00931449
0.0091545
0.00895219
0.00883641
0.0119491
0.0123945
0.0123414
0.0123749
0.0123885
0.0123675
0.0123307
0.0122807
0.0122202
0.0121517
0.0120762
0.0119938
0.0119041
0.0118068
0.0117023
0.0115912
0.0114744
0.0113526
0.0112264
0.011096
0.010962
0.0108243
0.0106832
0.0105385
0.0103903
0.0102382
0.0100828
0.00992329
0.0097612
0.0095939
0.00942714
0.00924883
0.00908521
0.00887836
0.00874832
0.0118432
0.0123446
0.0123224
0.0123704
0.0123911
0.0123717
0.0123357
0.0122864
0.0122263
0.0121576
0.012081
0.0119965
0.0119039
0.011803
0.0116946
0.0115797
0.0114591
0.0113336
0.0112038
0.0110699
0.0109326
0.0107916
0.0106476
0.0105
0.0103492
0.0101948
0.0100374
0.00987606
0.00971256
0.00954413
0.00937695
0.00919877
0.00903764
0.00883375
0.00871855
0.0117333
0.0123047
0.0123115
0.0123744
0.0124017
0.0123833
0.012348
0.0122993
0.0122395
0.0121702
0.0120919
0.0120043
0.0119074
0.011802
0.0116892
0.0115701
0.0114459
0.0113171
0.0111841
0.0110473
0.0109071
0.0107634
0.0106168
0.0104668
0.0103137
0.0101573
0.00999804
0.00983517
0.00967032
0.00950079
0.00933247
0.00915315
0.00898935
0.00878267
0.00865389
0.0115938
0.0122702
0.0123027
0.0123805
0.0124125
0.0123932
0.0123575
0.0123091
0.0122496
0.0121802
0.0121005
0.0120103
0.0119102
0.0118011
0.0116847
0.0115624
0.0114352
0.0113036
0.011168
0.0110287
0.0108861
0.0107401
0.0105914
0.0104394
0.0102847
0.0101268
0.00996627
0.00980238
0.00963681
0.00946678
0.00929846
0.0091196
0.00895788
0.00875407
0.00863743
0.0114452
0.0122488
0.0122997
0.0123924
0.0124284
0.0124083
0.0123731
0.0123255
0.0122666
0.0121965
0.0121145
0.0120205
0.0119155
0.0118018
0.0116815
0.0115559
0.0114259
0.0112919
0.0111541
0.0110127
0.0108681
0.0107202
0.0105698
0.0104162
0.01026
0.0101009
0.00993919
0.00977447
0.00960819
0.00943771
0.00926891
0.00908969
0.00892616
0.00872084
0.00859212
0.0112659
0.012244
0.0123047
0.0124114
0.0124478
0.0124238
0.0123869
0.0123389
0.0122802
0.0122095
0.0121255
0.0120282
0.0119196
0.0118023
0.0116788
0.0115507
0.0114186
0.0112828
0.0111433
0.0110002
0.0108539
0.0107045
0.0105526
0.0103977
0.0102405
0.0100806
0.00991817
0.00975299
0.00958644
0.00941589
0.00924739
0.00906894
0.00890723
0.00870458
0.00858584
0.0110639
0.0122524
0.0123096
0.0124311
0.012468
0.0124418
0.0124051
0.012358
0.0122997
0.0122279
0.0121407
0.0120388
0.0119251
0.0118035
0.0116768
0.0115463
0.0114124
0.011275
0.011134
0.0109896
0.0108421
0.0106914
0.0105386
0.0103826
0.0102246
0.0100639
0.0099009
0.0097353
0.00956848
0.00939792
0.00922938
0.00905127
0.00888864
0.00868555
0.00855742
0.0108429
0.012293
0.0123313
0.0124642
0.0124954
0.0124623
0.0124222
0.0123742
0.0123157
0.0122425
0.0121523
0.0120463
0.0119289
0.011804
0.0116749
0.0115427
0.0114078
0.0112695
0.0111277
0.0109822
0.0108336
0.0106818
0.0105281
0.0103714
0.0102129
0.0100518
0.0098884
0.00972275
0.00955581
0.00938552
0.00921747
0.00904053
0.00887957
0.00867982
0.00856014
0.0105767
0.0123412
0.0123437
0.0124912
0.0125184
0.0124819
0.0124418
0.0123945
0.0123361
0.0122609
0.0121665
0.0120553
0.0119331
0.0118047
0.0116736
0.0115401
0.0114042
0.0112649
0.0111223
0.0109758
0.0108268
0.0106743
0.0105202
0.010363
0.0102041
0.0100425
0.00987897
0.00971304
0.00954597
0.00937612
0.00920809
0.00903221
0.00887104
0.00867203
0.00855188
0.0103249
0.0124352
0.0123818
0.0125352
0.0125508
0.0125064
0.0124619
0.0124135
0.0123539
0.0122752
0.012176
0.0120605
0.0119352
0.0118049
0.0116724
0.0115381
0.0114018
0.011262
0.0111191
0.0109721
0.0108227
0.0106697
0.0105156
0.010358
0.0101991
0.0100371
0.00987367
0.00970754
0.00954044
0.00937115
0.00920334
0.00902949
0.00886903
0.00867856
0.00854901
0.0100273
0.0125094
0.0123995
0.0125674
0.0125765
0.012529
0.0124835
0.0124329
0.0123699
0.012288
0.0121854
0.0120661
0.0119374
0.0118049
0.0116715
0.011537
0.0114006
0.0112605
0.0111172
0.0109699
0.0108204
0.0106673
0.0105132
0.0103552
0.0101964
0.0100339
0.00987055
0.009704
0.00953697
0.00936806
0.00919994
0.00902789
0.00886461
0.00867699
0.00852248
0.00979334
0.0126327
0.0124552
0.0126272
0.0126246
0.0125675
0.0125114
0.0124495
0.0123766
0.0122875
0.0121819
0.0120629
0.0119354
0.0118037
0.0116706
0.0115363
0.0114
0.01126
0.0111167
0.0109694
0.0108198
0.0106665
0.0105123
0.0103543
0.0101954
0.0100328
0.00986946
0.00970302
0.00953602
0.0093673
0.00920013
0.00902919
0.00887282
0.00869619
0.008595
0.0124544
0.0128329
0.0125784
0.0125133
0.0124647
0.0124103
0.0123582
0.0123039
0.0122476
0.0121902
0.0121324
0.0120745
0.012016
0.0119562
0.0118944
0.0118303
0.0117636
0.0116947
0.0116234
0.0115497
0.0114735
0.0113943
0.011312
0.0112258
0.0111356
0.0110403
0.0109399
0.0108333
0.0107207
0.0106004
0.010474
0.0103377
0.010199
0.0100419
0.0099015
0.0124236
0.0127943
0.0125537
0.0124954
0.012452
0.0124012
0.0123508
0.0122968
0.0122395
0.0121804
0.0121201
0.012059
0.0119968
0.0119326
0.011866
0.0117964
0.0117241
0.0116487
0.0115709
0.01149
0.0114064
0.0113194
0.011229
0.0111347
0.0110361
0.0109327
0.010824
0.0107094
0.0105891
0.0104613
0.0103285
0.0101844
0.0100433
0.00987161
0.00975071
0.0123883
0.0127538
0.0125262
0.0124745
0.0124354
0.0123873
0.0123382
0.0122845
0.0122267
0.0121661
0.0121037
0.0120398
0.0119741
0.0119057
0.011834
0.0117586
0.0116797
0.0115969
0.0115111
0.0114216
0.0113289
0.0112326
0.0111325
0.0110282
0.0109195
0.0108057
0.0106868
0.0105619
0.0104315
0.0102937
0.0101518
0.00999818
0.00984909
0.00966746
0.00953357
0.0123446
0.0127101
0.0124989
0.0124566
0.0124242
0.0123804
0.0123332
0.0122797
0.0122209
0.0121584
0.0120934
0.0120264
0.0119571
0.0118845
0.011808
0.0117272
0.0116425
0.0115537
0.0114613
0.0113651
0.0112654
0.0111619
0.0110544
0.0109428
0.0108266
0.0107055
0.0105794
0.0104475
0.0103104
0.0101663
0.0100183
0.00985844
0.00970226
0.00951452
0.0093622
0.0123026
0.0126621
0.01247
0.0124368
0.0124101
0.0123699
0.0123245
0.0122715
0.0122122
0.0121484
0.0120816
0.0120121
0.0119395
0.011863
0.0117819
0.0116958
0.011605
0.0115097
0.0114103
0.0113068
0.0111996
0.0110883
0.0109733
0.0108537
0.0107299
0.0106011
0.0104676
0.0103284
0.0101847
0.0100343
0.00988159
0.00971741
0.00956329
0.00937335
0.00925143
0.0122467
0.0126114
0.0124421
0.0124207
0.012402
0.0123664
0.012323
0.0122703
0.0122103
0.0121449
0.0120758
0.0120034
0.0119273
0.0118465
0.0117604
0.0116689
0.0115724
0.011471
0.0113655
0.0112556
0.011142
0.0110243
0.0109027
0.0107768
0.0106466
0.0105117
0.0103722
0.0102275
0.0100785
0.00992292
0.00976537
0.00959559
0.00943532
0.00923522
0.00909852
0.0121867
0.0125564
0.0124122
0.0124026
0.0123912
0.0123596
0.0123182
0.0122665
0.0122064
0.0121403
0.0120696
0.0119949
0.0119157
0.011831
0.0117405
0.0116439
0.011542
0.0114347
0.0113232
0.0112071
0.0110873
0.0109634
0.0108356
0.0107038
0.0105678
0.0104273
0.0102826
0.0101329
0.00997955
0.00982013
0.00966013
0.00948852
0.00933118
0.00913284
0.0090167
0.0121152
0.0125
0.0123862
0.0123911
0.0123888
0.0123616
0.0123219
0.0122706
0.01221
0.0121426
0.0120699
0.0119924
0.0119094
0.0118202
0.0117246
0.0116226
0.0115151
0.0114023
0.0112851
0.0111636
0.0110382
0.0109089
0.0107758
0.0106387
0.0104978
0.0103525
0.0102033
0.0100494
0.00989221
0.0097291
0.00956546
0.00938979
0.00922672
0.00902123
0.0088873
0.0120321
0.0124425
0.0123594
0.0123784
0.0123841
0.0123603
0.0123224
0.012272
0.0122117
0.0121438
0.0120699
0.0119903
0.0119043
0.0118114
0.0117115
0.011605
0.0114927
0.0113751
0.0112531
0.0111267
0.0109966
0.0108626
0.0107252
0.0105839
0.010439
0.01029
0.0101374
0.00998048
0.00982061
0.00965539
0.00949062
0.00931456
0.00915455
0.0089523
0.00883649
0.0119478
0.0123932
0.0123413
0.0123749
0.0123885
0.0123675
0.0123307
0.0122807
0.0122202
0.0121517
0.0120762
0.0119938
0.0119041
0.0118068
0.0117023
0.0115912
0.0114744
0.0113526
0.0112264
0.011096
0.0109621
0.0108243
0.0106833
0.0105385
0.0103903
0.0102382
0.0100828
0.00992333
0.00976124
0.00959394
0.00942718
0.00924889
0.00908524
0.00887844
0.00874834
0.011842
0.0123434
0.0123223
0.0123704
0.0123911
0.0123717
0.0123357
0.0122864
0.0122263
0.0121576
0.012081
0.0119966
0.0119039
0.011803
0.0116946
0.0115797
0.0114591
0.0113336
0.0112038
0.0110699
0.0109326
0.0107917
0.0106476
0.0105
0.0103493
0.0101949
0.0100374
0.0098761
0.00971259
0.00954418
0.00937699
0.00919882
0.00903768
0.00883385
0.00871862
0.011732
0.0123035
0.0123115
0.0123745
0.0124017
0.0123833
0.012348
0.0122993
0.0122395
0.0121703
0.0120919
0.0120043
0.0119074
0.011802
0.0116892
0.0115701
0.0114459
0.0113171
0.0111841
0.0110473
0.0109071
0.0107634
0.0106168
0.0104668
0.0103138
0.0101573
0.00999806
0.0098352
0.00967034
0.00950082
0.0093325
0.00915319
0.00898938
0.00878274
0.0086539
0.0115927
0.0122691
0.0123026
0.0123805
0.0124125
0.0123932
0.0123576
0.0123091
0.0122496
0.0121802
0.0121005
0.0120103
0.0119101
0.0118011
0.0116847
0.0115624
0.0114352
0.0113036
0.011168
0.0110287
0.0108861
0.0107401
0.0105914
0.0104394
0.0102847
0.0101268
0.00996629
0.00980241
0.00963684
0.00946682
0.00929849
0.00911965
0.00895791
0.00875415
0.00863748
0.0114439
0.0122478
0.0122996
0.0123924
0.0124284
0.0124084
0.0123732
0.0123256
0.0122666
0.0121965
0.0121145
0.0120204
0.0119155
0.0118018
0.0116815
0.0115559
0.0114259
0.0112919
0.0111541
0.0110127
0.0108681
0.0107202
0.0105698
0.0104162
0.01026
0.0101009
0.00993921
0.00977449
0.00960821
0.00943774
0.00926893
0.00908973
0.00892618
0.0087209
0.00859212
0.0112648
0.0122431
0.0123047
0.0124114
0.0124479
0.0124238
0.0123869
0.012339
0.0122802
0.0122095
0.0121255
0.0120282
0.0119196
0.0118023
0.0116788
0.0115507
0.0114186
0.0112828
0.0111433
0.0110002
0.010854
0.0107045
0.0105526
0.0103977
0.0102405
0.0100806
0.00991819
0.00975302
0.00958647
0.00941593
0.00924742
0.00906898
0.00890725
0.00870465
0.00858588
0.0110627
0.0122516
0.0123095
0.0124311
0.0124681
0.0124419
0.0124052
0.0123581
0.0122997
0.0122279
0.0121407
0.0120387
0.0119251
0.0118035
0.0116768
0.0115463
0.0114124
0.011275
0.0111341
0.0109896
0.0108421
0.0106914
0.0105386
0.0103826
0.0102247
0.0100639
0.00990092
0.00973533
0.0095685
0.00939795
0.0092294
0.0090513
0.00888866
0.00868561
0.00855742
0.0108417
0.0122923
0.0123312
0.0124643
0.0124956
0.0124625
0.0124224
0.0123743
0.0123157
0.0122425
0.0121522
0.0120463
0.0119289
0.011804
0.0116749
0.0115427
0.0114078
0.0112695
0.0111277
0.0109822
0.0108336
0.0106818
0.0105281
0.0103714
0.0102129
0.0100518
0.00988842
0.00972277
0.00955584
0.00938555
0.0092175
0.00904056
0.00887959
0.00867988
0.00856017
0.0105758
0.0123406
0.0123436
0.0124913
0.0125186
0.0124821
0.0124419
0.0123946
0.012336
0.0122608
0.0121665
0.0120553
0.0119331
0.0118047
0.0116735
0.0115401
0.0114042
0.0112649
0.0111223
0.0109759
0.0108268
0.0106743
0.0105202
0.010363
0.0102042
0.0100425
0.00987898
0.00971306
0.00954598
0.00937615
0.00920811
0.00903224
0.00887105
0.0086721
0.0085519
0.0103225
0.0124349
0.0123818
0.0125354
0.0125511
0.0125066
0.012462
0.0124134
0.0123538
0.012275
0.0121759
0.0120605
0.0119352
0.0118049
0.0116724
0.0115381
0.0114018
0.011262
0.0111191
0.0109721
0.0108227
0.0106697
0.0105156
0.010358
0.0101991
0.0100371
0.00987368
0.00970756
0.00954045
0.00937117
0.00920335
0.00902951
0.00886905
0.00867859
0.00854897
0.0100226
0.0125102
0.0123999
0.0125677
0.0125766
0.0125289
0.0124834
0.0124326
0.0123697
0.0122879
0.0121854
0.0120661
0.0119373
0.0118049
0.0116715
0.011537
0.0114006
0.0112605
0.0111172
0.0109699
0.0108204
0.0106673
0.0105132
0.0103552
0.0101965
0.0100339
0.00987056
0.00970402
0.00953698
0.00936808
0.00919996
0.00902792
0.00886463
0.00867703
0.00852243
0.00980285
0.0126369
0.0124562
0.0126261
0.0126222
0.0125648
0.012509
0.0124477
0.0123757
0.0122871
0.0121818
0.0120629
0.0119354
0.0118036
0.0116705
0.0115362
0.0113999
0.01126
0.0111168
0.0109694
0.0108198
0.0106665
0.0105123
0.0103542
0.0101954
0.0100328
0.00986943
0.009703
0.009536
0.00936728
0.00920011
0.00902916
0.00887281
0.00869614
0.00859469
0.0124574
0.0128299
0.0125783
0.0125134
0.0124648
0.0124103
0.0123582
0.0123039
0.0122476
0.0121902
0.0121324
0.0120745
0.012016
0.0119562
0.0118944
0.0118303
0.0117636
0.0116947
0.0116234
0.0115497
0.0114735
0.0113943
0.011312
0.0112258
0.0111356
0.0110403
0.0109399
0.0108333
0.0107206
0.0106004
0.010474
0.0103377
0.010199
0.0100419
0.00990154
0.0124266
0.0127914
0.0125535
0.0124956
0.012452
0.0124012
0.0123508
0.0122968
0.0122396
0.0121804
0.0121201
0.012059
0.0119968
0.0119326
0.011866
0.0117964
0.0117241
0.0116487
0.0115709
0.01149
0.0114064
0.0113194
0.011229
0.0111348
0.0110361
0.0109327
0.010824
0.0107095
0.0105891
0.0104613
0.0103286
0.0101845
0.0100433
0.00987166
0.00975081
0.0123912
0.012751
0.0125261
0.0124747
0.0124354
0.0123874
0.0123382
0.0122845
0.0122266
0.0121661
0.0121037
0.0120398
0.0119741
0.0119057
0.011834
0.0117586
0.0116797
0.0115969
0.0115111
0.0114216
0.0113289
0.0112326
0.0111325
0.0110282
0.0109195
0.0108057
0.0106868
0.0105619
0.0104314
0.0102937
0.0101518
0.00999818
0.00984908
0.00966747
0.00953356
0.0123476
0.0127074
0.0124988
0.0124568
0.0124243
0.0123805
0.0123332
0.0122797
0.0122209
0.0121584
0.0120934
0.0120264
0.0119571
0.0118845
0.011808
0.0117272
0.0116425
0.0115537
0.0114613
0.0113651
0.0112654
0.0111619
0.0110544
0.0109428
0.0108266
0.0107055
0.0105794
0.0104475
0.0103105
0.0101663
0.0100183
0.00985846
0.00970227
0.00951454
0.00936218
0.0123055
0.0126595
0.0124699
0.0124369
0.0124101
0.01237
0.0123245
0.0122715
0.0122122
0.0121484
0.0120816
0.0120121
0.0119395
0.011863
0.0117819
0.0116958
0.011605
0.0115097
0.0114103
0.0113068
0.0111996
0.0110883
0.0109733
0.0108537
0.0107299
0.0106011
0.0104676
0.0103284
0.0101847
0.0100343
0.0098816
0.00971743
0.00956329
0.0093734
0.00925155
0.0122496
0.0126089
0.012442
0.0124208
0.0124021
0.0123665
0.012323
0.0122704
0.0122103
0.012145
0.0120758
0.0120034
0.0119273
0.0118465
0.0117604
0.0116689
0.0115724
0.011471
0.0113655
0.0112556
0.011142
0.0110243
0.0109027
0.0107768
0.0106466
0.0105117
0.0103723
0.0102275
0.0100785
0.00992295
0.00976538
0.00959562
0.00943533
0.00923527
0.00909854
0.0121894
0.012554
0.0124121
0.0124026
0.0123912
0.0123596
0.0123182
0.0122665
0.0122064
0.0121403
0.0120696
0.0119949
0.0119157
0.011831
0.0117405
0.0116439
0.011542
0.0114347
0.0113232
0.0112071
0.0110873
0.0109634
0.0108356
0.0107038
0.0105678
0.0104273
0.0102826
0.010133
0.00997956
0.00982015
0.00966015
0.00948855
0.00933119
0.00913292
0.00901684
0.0121179
0.0124977
0.012386
0.0123912
0.0123888
0.0123616
0.0123219
0.0122706
0.01221
0.0121426
0.01207
0.0119924
0.0119094
0.0118202
0.0117246
0.0116226
0.0115151
0.0114023
0.0112851
0.0111636
0.0110382
0.0109089
0.0107758
0.0106387
0.0104978
0.0103525
0.0102033
0.0100495
0.00989223
0.00972913
0.00956547
0.00938982
0.00922673
0.00902129
0.00888734
0.0120346
0.0124402
0.0123593
0.0123785
0.0123841
0.0123603
0.0123224
0.012272
0.0122117
0.0121439
0.01207
0.0119903
0.0119043
0.0118114
0.0117115
0.011605
0.0114927
0.0113751
0.0112531
0.0111267
0.0109966
0.0108626
0.0107252
0.0105839
0.0104391
0.01029
0.0101374
0.0099805
0.00982063
0.00965542
0.00949064
0.0093146
0.00915457
0.00895239
0.00883664
0.0119502
0.0123911
0.0123412
0.012375
0.0123886
0.0123675
0.0123307
0.0122807
0.0122203
0.0121517
0.0120762
0.0119938
0.0119041
0.0118068
0.0117023
0.0115912
0.0114744
0.0113526
0.0112264
0.011096
0.0109621
0.0108243
0.0106833
0.0105385
0.0103903
0.0102382
0.0100828
0.00992335
0.00976126
0.00959397
0.0094272
0.00924893
0.00908526
0.00887851
0.0087484
0.0118444
0.0123413
0.0123222
0.0123705
0.0123911
0.0123717
0.0123357
0.0122864
0.0122263
0.0121576
0.012081
0.0119965
0.0119039
0.011803
0.0116946
0.0115797
0.0114591
0.0113336
0.0112038
0.0110699
0.0109326
0.0107917
0.0106476
0.0105
0.0103493
0.0101949
0.0100375
0.00987612
0.00971261
0.00954421
0.00937701
0.00919887
0.0090377
0.00883395
0.00871877
0.0117342
0.0123017
0.0123113
0.0123745
0.0124017
0.0123833
0.012348
0.0122994
0.0122396
0.0121703
0.0120919
0.0120043
0.0119074
0.011802
0.0116891
0.0115701
0.0114459
0.0113171
0.0111841
0.0110473
0.0109071
0.0107635
0.0106168
0.0104668
0.0103138
0.0101574
0.00999808
0.00983522
0.00967036
0.00950085
0.00933252
0.00915323
0.00898939
0.00878282
0.00865396
0.0115947
0.0122672
0.0123025
0.0123805
0.0124125
0.0123932
0.0123576
0.0123092
0.0122497
0.0121802
0.0121005
0.0120103
0.0119101
0.011801
0.0116847
0.0115624
0.0114352
0.0113036
0.011168
0.0110287
0.0108861
0.0107401
0.0105914
0.0104395
0.0102847
0.0101269
0.00996632
0.00980244
0.00963686
0.00946686
0.00929851
0.00911969
0.00895793
0.00875424
0.00863763
0.0114458
0.0122462
0.0122995
0.0123924
0.0124284
0.0124084
0.0123733
0.0123257
0.0122667
0.0121966
0.0121145
0.0120204
0.0119155
0.0118018
0.0116815
0.0115559
0.0114259
0.0112919
0.0111541
0.0110127
0.0108681
0.0107202
0.0105698
0.0104162
0.01026
0.0101009
0.00993923
0.00977452
0.00960823
0.00943777
0.00926895
0.00908977
0.0089262
0.00872098
0.00859218
0.0112665
0.0122416
0.0123045
0.0124114
0.0124479
0.0124239
0.012387
0.0123391
0.0122803
0.0122095
0.0121254
0.0120281
0.0119195
0.0118022
0.0116788
0.0115506
0.0114186
0.0112828
0.0111433
0.0110002
0.010854
0.0107045
0.0105527
0.0103978
0.0102406
0.0100806
0.00991822
0.00975305
0.00958649
0.00941596
0.00924744
0.00906902
0.00890727
0.00870475
0.00858601
0.0110642
0.0122503
0.0123093
0.0124311
0.0124682
0.012442
0.0124053
0.0123582
0.0122998
0.0122278
0.0121406
0.0120387
0.0119251
0.0118035
0.0116768
0.0115463
0.0114124
0.011275
0.0111341
0.0109896
0.0108421
0.0106915
0.0105386
0.0103827
0.0102247
0.0100639
0.00990094
0.00973535
0.00956852
0.00939798
0.00922942
0.00905134
0.00888868
0.00868568
0.00855745
0.010843
0.0122912
0.012331
0.0124643
0.0124957
0.0124626
0.0124226
0.0123744
0.0123157
0.0122425
0.0121522
0.0120462
0.0119288
0.011804
0.0116749
0.0115427
0.0114078
0.0112695
0.0111278
0.0109822
0.0108337
0.0106819
0.0105282
0.0103714
0.0102129
0.0100518
0.00988844
0.0097228
0.00955586
0.00938559
0.00921752
0.00904062
0.0088796
0.00867999
0.00856029
0.0105769
0.0123396
0.0123434
0.0124913
0.0125189
0.0124824
0.0124421
0.0123946
0.0123359
0.0122607
0.0121663
0.0120552
0.011933
0.0118047
0.0116735
0.0115401
0.0114042
0.0112649
0.0111223
0.0109759
0.0108268
0.0106744
0.0105203
0.010363
0.0102042
0.0100425
0.009879
0.00971308
0.009546
0.00937618
0.00920813
0.00903228
0.00887105
0.0086722
0.008552
0.0103221
0.0124343
0.0123818
0.0125356
0.0125515
0.0125068
0.012462
0.0124132
0.0123535
0.0122748
0.0121757
0.0120604
0.0119352
0.0118049
0.0116724
0.0115381
0.0114018
0.0112621
0.0111191
0.0109721
0.0108227
0.0106697
0.0105156
0.010358
0.0101992
0.0100371
0.00987369
0.00970758
0.00954047
0.0093712
0.00920337
0.00902955
0.00886907
0.00867863
0.0085489
0.0100178
0.0125116
0.0124008
0.0125686
0.0125771
0.0125289
0.012483
0.0124322
0.0123694
0.0122876
0.0121852
0.012066
0.0119374
0.0118049
0.0116715
0.011537
0.0114006
0.0112606
0.0111173
0.0109699
0.0108205
0.0106673
0.0105132
0.0103552
0.0101965
0.0100339
0.00987058
0.00970404
0.009537
0.00936812
0.00919998
0.00902796
0.00886468
0.00867705
0.00852213
0.00981075
0.0126405
0.012458
0.0126267
0.0126218
0.0125636
0.0125076
0.0124466
0.012375
0.0122869
0.0121818
0.0120629
0.0119354
0.0118035
0.0116704
0.0115361
0.0113999
0.0112601
0.0111169
0.0109695
0.0108199
0.0106665
0.0105123
0.0103542
0.0101954
0.0100328
0.00986944
0.00970302
0.00953602
0.00936731
0.00920013
0.0090292
0.00887284
0.00869621
0.00859473
0.0124611
0.0128261
0.012578
0.0125135
0.0124649
0.0124104
0.0123582
0.0123039
0.0122476
0.0121902
0.0121324
0.0120745
0.012016
0.0119562
0.0118944
0.0118303
0.0117636
0.0116947
0.0116234
0.0115497
0.0114735
0.0113943
0.011312
0.0112258
0.0111356
0.0110403
0.0109399
0.0108334
0.0107207
0.0106004
0.010474
0.0103377
0.010199
0.0100419
0.00990171
0.0124302
0.0127877
0.0125533
0.0124956
0.0124521
0.0124013
0.0123509
0.0122968
0.0122396
0.0121804
0.0121201
0.012059
0.0119968
0.0119326
0.011866
0.0117964
0.0117241
0.0116487
0.0115709
0.01149
0.0114063
0.0113194
0.011229
0.0111348
0.0110362
0.0109327
0.010824
0.0107095
0.0105891
0.0104614
0.0103286
0.0101845
0.0100434
0.00987178
0.0097511
0.0123947
0.0127474
0.0125259
0.0124747
0.0124355
0.0123874
0.0123382
0.0122845
0.0122266
0.0121661
0.0121037
0.0120398
0.0119741
0.0119057
0.011834
0.0117586
0.0116797
0.0115969
0.0115111
0.0114216
0.0113289
0.0112326
0.0111325
0.0110282
0.0109195
0.0108057
0.0106868
0.0105619
0.0104314
0.0102938
0.0101518
0.0099982
0.00984908
0.00966752
0.00953364
0.0123511
0.0127037
0.0124986
0.0124568
0.0124243
0.0123805
0.0123333
0.0122798
0.0122209
0.0121584
0.0120934
0.0120264
0.0119571
0.0118845
0.011808
0.0117272
0.0116425
0.0115537
0.0114613
0.0113651
0.0112654
0.0111619
0.0110545
0.0109428
0.0108266
0.0107055
0.0105794
0.0104475
0.0103105
0.0101663
0.0100183
0.00985851
0.00970231
0.0095146
0.00936225
0.0123088
0.012656
0.0124697
0.0124369
0.0124102
0.01237
0.0123245
0.0122715
0.0122122
0.0121485
0.0120816
0.0120121
0.0119395
0.011863
0.0117819
0.0116958
0.011605
0.0115096
0.0114103
0.0113067
0.0111996
0.0110883
0.0109733
0.0108537
0.0107299
0.0106011
0.0104676
0.0103285
0.0101847
0.0100343
0.00988162
0.00971747
0.00956331
0.00937349
0.00925182
0.0122528
0.0126054
0.0124418
0.0124208
0.0124021
0.0123665
0.012323
0.0122704
0.0122103
0.012145
0.0120758
0.0120034
0.0119273
0.0118465
0.0117604
0.0116689
0.0115724
0.011471
0.0113655
0.0112556
0.011142
0.0110243
0.0109027
0.0107768
0.0106466
0.0105117
0.0103723
0.0102275
0.0100785
0.00992298
0.0097654
0.00959566
0.00943535
0.00923535
0.0090987
0.0121926
0.0125507
0.0124119
0.0124026
0.0123912
0.0123596
0.0123182
0.0122665
0.0122064
0.0121403
0.0120696
0.0119949
0.0119157
0.011831
0.0117405
0.0116439
0.011542
0.0114347
0.0113232
0.0112071
0.0110873
0.0109634
0.0108356
0.0107038
0.0105678
0.0104274
0.0102826
0.010133
0.00997958
0.00982019
0.00966017
0.0094886
0.0093312
0.00913303
0.00901713
0.0121209
0.0124945
0.0123859
0.0123913
0.0123889
0.0123616
0.012322
0.0122706
0.01221
0.0121426
0.01207
0.0119924
0.0119094
0.0118202
0.0117245
0.0116226
0.011515
0.0114023
0.0112851
0.0111636
0.0110382
0.0109089
0.0107758
0.0106387
0.0104978
0.0103525
0.0102033
0.0100495
0.00989224
0.00972916
0.00956548
0.00938987
0.00922675
0.00902137
0.00888751
0.0120376
0.0124371
0.0123591
0.0123785
0.0123842
0.0123603
0.0123224
0.012272
0.0122117
0.0121439
0.01207
0.0119903
0.0119043
0.0118114
0.0117115
0.011605
0.0114927
0.0113751
0.0112531
0.0111267
0.0109966
0.0108626
0.0107252
0.0105839
0.0104391
0.01029
0.0101374
0.00998053
0.00982064
0.00965545
0.00949066
0.00931464
0.00915458
0.0089525
0.00883693
0.011953
0.0123881
0.012341
0.012375
0.0123886
0.0123676
0.0123307
0.0122808
0.0122203
0.0121518
0.0120762
0.0119938
0.0119041
0.0118068
0.0117022
0.0115911
0.0114744
0.0113526
0.0112264
0.011096
0.0109621
0.0108243
0.0106833
0.0105385
0.0103903
0.0102382
0.0100829
0.00992337
0.00976126
0.009594
0.00942721
0.00924897
0.00908527
0.0088786
0.00874858
0.0118471
0.0123384
0.012322
0.0123705
0.0123911
0.0123717
0.0123357
0.0122864
0.0122263
0.0121576
0.012081
0.0119965
0.0119039
0.011803
0.0116946
0.0115797
0.0114591
0.0113336
0.0112038
0.0110699
0.0109326
0.0107917
0.0106476
0.0105001
0.0103493
0.0101949
0.0100375
0.00987615
0.00971262
0.00954425
0.00937702
0.00919891
0.00903771
0.00883405
0.00871905
0.0117367
0.012299
0.0123112
0.0123745
0.0124017
0.0123834
0.0123481
0.0122994
0.0122396
0.0121703
0.0120919
0.0120042
0.0119074
0.0118019
0.0116891
0.0115701
0.0114459
0.0113171
0.0111841
0.0110473
0.0109072
0.0107635
0.0106168
0.0104668
0.0103138
0.0101574
0.00999808
0.00983524
0.00967037
0.00950088
0.00933253
0.00915327
0.0089894
0.0087829
0.00865415
0.0115972
0.0122647
0.0123023
0.0123805
0.0124125
0.0123932
0.0123576
0.0123092
0.0122497
0.0121802
0.0121005
0.0120103
0.0119101
0.011801
0.0116847
0.0115624
0.0114352
0.0113036
0.011168
0.0110287
0.0108861
0.0107401
0.0105914
0.0104395
0.0102847
0.0101269
0.00996633
0.00980246
0.00963687
0.00946689
0.00929853
0.00911974
0.00895794
0.00875435
0.0086379
0.011448
0.0122439
0.0122994
0.0123923
0.0124285
0.0124085
0.0123733
0.0123258
0.0122668
0.0121966
0.0121145
0.0120204
0.0119155
0.0118018
0.0116814
0.0115559
0.0114259
0.0112919
0.0111541
0.0110127
0.0108681
0.0107203
0.0105698
0.0104162
0.01026
0.0101009
0.00993924
0.00977453
0.00960824
0.00943779
0.00926896
0.0090898
0.00892621
0.00872106
0.00859236
0.0112686
0.0122395
0.0123044
0.0124114
0.0124479
0.012424
0.0123871
0.0123392
0.0122803
0.0122095
0.0121254
0.0120281
0.0119195
0.0118022
0.0116788
0.0115506
0.0114186
0.0112828
0.0111433
0.0110002
0.010854
0.0107045
0.0105527
0.0103978
0.0102406
0.0100806
0.00991823
0.00975307
0.0095865
0.00941599
0.00924745
0.00906906
0.00890728
0.00870485
0.00858625
0.0110661
0.0122484
0.0123092
0.012431
0.0124682
0.0124421
0.0124055
0.0123584
0.0122998
0.0122278
0.0121406
0.0120386
0.011925
0.0118034
0.0116768
0.0115463
0.0114124
0.011275
0.0111341
0.0109896
0.0108421
0.0106915
0.0105386
0.0103827
0.0102247
0.010064
0.00990094
0.00973537
0.00956853
0.009398
0.00922943
0.00905138
0.00888868
0.00868576
0.00855761
0.0108447
0.0122896
0.0123309
0.0124642
0.0124959
0.0124629
0.0124228
0.0123745
0.0123157
0.0122423
0.012152
0.0120461
0.0119288
0.011804
0.0116749
0.0115427
0.0114078
0.0112695
0.0111277
0.0109822
0.0108337
0.0106819
0.0105282
0.0103714
0.010213
0.0100518
0.00988845
0.00972282
0.00955587
0.00938562
0.00921752
0.00904066
0.0088796
0.00868009
0.00856056
0.0105783
0.0123381
0.0123433
0.0124914
0.0125193
0.0124829
0.0124424
0.0123946
0.0123358
0.0122604
0.0121661
0.0120551
0.011933
0.0118047
0.0116735
0.0115401
0.0114042
0.0112649
0.0111223
0.0109759
0.0108269
0.0106744
0.0105203
0.0103631
0.0102042
0.0100426
0.009879
0.0097131
0.00954599
0.0093762
0.00920813
0.00903231
0.00887104
0.0086723
0.00855222
0.0103225
0.0124335
0.0123818
0.012536
0.0125522
0.0125074
0.0124622
0.012413
0.0123531
0.0122745
0.0121755
0.0120603
0.0119351
0.0118049
0.0116724
0.0115381
0.0114018
0.0112621
0.0111191
0.0109721
0.0108228
0.0106697
0.0105156
0.010358
0.0101991
0.0100371
0.00987368
0.00970759
0.00954045
0.00937122
0.00920336
0.00902956
0.00886906
0.00867864
0.00854884
0.0100151
0.0125127
0.0124019
0.0125701
0.0125782
0.0125291
0.0124826
0.0124316
0.0123688
0.0122872
0.012185
0.0120659
0.0119374
0.0118049
0.0116715
0.0115369
0.0114005
0.0112606
0.0111173
0.01097
0.0108205
0.0106673
0.0105132
0.0103552
0.0101965
0.0100339
0.00987057
0.00970405
0.00953699
0.00936814
0.00919998
0.00902797
0.00886472
0.00867702
0.00852151