/*--------------------------------*- C++ -*----------------------------------*\
  =========                 |
  \\      /  F ield         | OpenFOAM: The Open Source CFD Toolbox
   \\    /   O peration     | Website:  https://openfoam.org
    \\  /    A nd           | Version:  6
     \\/     M anipulation  |
\*---------------------------------------------------------------------------*/
FoamFile
{
    version     2.0;
    format      ascii;
    class       volVectorField;
    location    "16";
    object      wallShearStress;
}
// * * * * * * * * * * * * * * * * * * * * * * * * * * * * * * * * * * * * * //

dimensions      [0 2 -2 0 0 0 0];

internalField   uniform (0 0 0);

boundaryField
{
    inlet
    {
        type            calculated;
        value           uniform (0 0 0);
    }
    outlet
    {
        type            calculated;
        value           uniform (0 0 0);
    }
    roughCylinder
    {
        type            calculated;
        value           nonuniform List<vector> 
5120
(
(-0.000250972 -0.000357451 -0.000184115)
(-0.000307597 -0.000461878 -4.20939e-05)
(-0.000341182 -0.000555749 -6.98295e-07)
(-0.000386956 -0.000645842 5.40829e-05)
(-0.000444014 -0.000724041 0.000117342)
(-0.0005088 -0.000785879 0.000180908)
(-0.00057784 -0.000828519 0.000240259)
(-0.000646471 -0.000852391 0.000292622)
(-0.000710614 -0.000859975 0.000335898)
(-0.000768196 -0.000856343 0.00036938)
(-0.000819463 -0.000849779 0.00039457)
(-0.000864704 -0.000845903 0.00041335)
(-0.00090096 -0.000844785 0.000424468)
(-0.00093152 -0.000849145 0.000429036)
(-0.000957683 -0.0008582 0.000428101)
(-0.000980797 -0.000871239 0.000422715)
(-0.00100228 -0.000887484 0.000413935)
(-0.00102337 -0.000906279 0.000402652)
(-0.00104501 -0.00092715 0.000389537)
(-0.00106785 -0.000949806 0.000375015)
(-0.00109224 -0.000974062 0.000359285)
(-0.00111831 -0.000999795 0.000342372)
(-0.001146 -0.00102688 0.000324176)
(-0.00117515 -0.00105514 0.000304505)
(-0.00120551 -0.00108434 0.000283087)
(-0.00123675 -0.00111415 0.000259576)
(-0.00126842 -0.0011441 0.00023347)
(-0.00129993 -0.00117353 0.000204094)
(-0.00133038 -0.00120147 0.000170267)
(-0.0013583 -0.00122651 0.000130522)
(-0.00138058 -0.00124659 8.2589e-05)
(-0.00139328 -0.00125851 2.79326e-05)
(-0.000269544 -0.000345792 -0.000173964)
(-0.000329275 -0.000447459 -4.45728e-05)
(-0.000365443 -0.000540017 -6.46748e-06)
(-0.000413329 -0.00062982 4.49114e-05)
(-0.000472067 -0.000709027 0.000105548)
(-0.000538402 -0.000772652 0.000167325)
(-0.00060884 -0.000817467 0.000225529)
(-0.000678965 -0.000843765 0.000277269)
(-0.000745303 -0.000854409 0.000320551)
(-0.000806302 -0.000855058 0.000355089)
(-0.000861755 -0.000852568 0.000382278)
(-0.000910546 -0.000850268 0.000402909)
(-0.000949635 -0.00084787 0.000415114)
(-0.000981741 -0.000851131 0.000420266)
(-0.00100943 -0.00085947 0.000419645)
(-0.00103399 -0.000872151 0.000414486)
(-0.00105688 -0.000888269 0.000405877)
(-0.00107939 -0.000907074 0.000394766)
(-0.0011025 -0.000928036 0.000381847)
(-0.00112685 -0.000950805 0.000367569)
(-0.00115281 -0.000975167 0.000352135)
(-0.00118049 -0.00100099 0.000335575)
(-0.00120985 -0.00102813 0.00031779)
(-0.00124069 -0.00105642 0.000298581)
(-0.00127276 -0.00108561 0.000277671)
(-0.0013057 -0.00111538 0.00025471)
(-0.00133905 -0.00114525 0.000229194)
(-0.0013722 -0.00117457 0.000200451)
(-0.00140416 -0.00120238 0.000167309)
(-0.00143343 -0.00122729 0.000128321)
(-0.00145674 -0.00124721 8.12256e-05)
(-0.00147003 -0.00125902 2.7467e-05)
(-0.000287946 -0.00032891 -0.000156531)
(-0.000350454 -0.000427588 -4.75658e-05)
(-0.000389016 -0.000518086 -1.28977e-05)
(-0.000438624 -0.000606936 3.48667e-05)
(-0.000498746 -0.000686632 9.25796e-05)
(-0.00056648 -0.000751814 0.00015233)
(-0.000638392 -0.000798966 0.000209308)
(-0.000710368 -0.000828343 0.000260576)
(-0.000779442 -0.000842986 0.000304311)
(-0.000844149 -0.000848231 0.000340281)
(-0.000903504 -0.000849367 0.000369261)
(-0.000955559 -0.000848572 0.000391175)
(-0.000998208 -0.000846191 0.000404673)
(-0.00103198 -0.000847916 0.000410347)
(-0.00106124 -0.00085537 0.000410037)
(-0.00108732 -0.000867511 0.000405143)
(-0.00111172 -0.000883334 0.000396765)
(-0.00113573 -0.000901998 0.000385885)
(-0.00116035 -0.000922878 0.00037322)
(-0.00118626 -0.000945592 0.000359242)
(-0.00121383 -0.000969899 0.000344165)
(-0.00124316 -0.000995632 0.000328021)
(-0.00127419 -0.00102265 0.000310708)
(-0.00130674 -0.00105077 0.000292023)
(-0.00134052 -0.00107975 0.000271683)
(-0.00137515 -0.00110926 0.000249331)
(-0.00141016 -0.00113885 0.000224467)
(-0.00144489 -0.00116787 0.000196423)
(-0.00147834 -0.00119534 0.000164032)
(-0.00150892 -0.00121993 0.000125882)
(-0.00153321 -0.00123956 7.97162e-05)
(-0.00154706 -0.00125117 2.6953e-05)
(-0.000304325 -0.000308135 -0.000134619)
(-0.000369187 -0.000403305 -5.06354e-05)
(-0.000409697 -0.000490998 -1.95782e-05)
(-0.000460432 -0.000578241 2.43931e-05)
(-0.000521496 -0.000657917 7.89146e-05)
(-0.0005904 -0.000724448 0.000136357)
(-0.000663842 -0.000774105 0.000191949)
(-0.000738 -0.000807057 0.000242758)
(-0.000810118 -0.00082621 0.000287074)
(-0.000878526 -0.000836102 0.000324531)
(-0.0009416 -0.000840609 0.000355171)
(-0.000997107 -0.000841517 0.000378293)
(-0.00104344 -0.000840054 0.000393089)
(-0.00107978 -0.000840212 0.000399447)
(-0.00111073 -0.000846688 0.000399574)
(-0.00113848 -0.000858123 0.000395002)
(-0.00116448 -0.000873511 0.000386919)
(-0.00119006 -0.000891898 0.000376332)
(-0.00121626 -0.000912596 0.000363992)
(-0.00124377 -0.00093514 0.000350374)
(-0.00127294 -0.000959255 0.000335711)
(-0.0013039 -0.000984763 0.000320036)
(-0.00133658 -0.00101151 0.000303243)
(-0.00137077 -0.0010393 0.000285126)
(-0.00140618 -0.00106791 0.000265396)
(-0.00144242 -0.00109701 0.000243695)
(-0.00147899 -0.00112614 0.000219518)
(-0.00151522 -0.00115468 0.000192208)
(-0.00155006 -0.00118167 0.000160606)
(-0.00158186 -0.00120578 0.000123334)
(-0.00160706 -0.00122501 7.81437e-05)
(-0.0016214 -0.00123636 2.64189e-05)
(-0.000317595 -0.000283746 -0.000110358)
(-0.00038442 -0.000374876 -5.34256e-05)
(-0.00042639 -0.000459122 -2.6162e-05)
(-0.000477681 -0.000544146 1.383e-05)
(-0.000539269 -0.000623317 6.48598e-05)
(-0.00060919 -0.000691022 0.000119678)
(-0.000684304 -0.000743361 0.000173652)
(-0.000760945 -0.000780215 0.000223918)
(-0.000836308 -0.000804004 0.000268785)
(-0.000908323 -0.000818282 0.000307592)
(-0.000974962 -0.000825904 0.000339745)
(-0.00103398 -0.000828584 0.000364118)
(-0.00108383 -0.000828216 0.000380017)
(-0.00112405 -0.000827953 0.000387521)
(-0.00115695 -0.000832899 0.000388217)
(-0.00118651 -0.000843425 0.000384069)
(-0.00121422 -0.000858197 0.000376378)
(-0.00124145 -0.000876156 0.000366167)
(-0.00126925 -0.0008965 0.000354218)
(-0.00129834 -0.000918716 0.000341028)
(-0.00132909 -0.000942492 0.000326841)
(-0.00136164 -0.000967614 0.000311688)
(-0.0013959 -0.000993923 0.000295467)
(-0.00143166 -0.00102123 0.000277966)
(-0.0014686 -0.00104928 0.000258888)
(-0.00150633 -0.00107778 0.000237872)
(-0.00154435 -0.00110628 0.000214416)
(-0.00158193 -0.00113416 0.000187864)
(-0.00161804 -0.0011605 0.000157079)
(-0.00165094 -0.001184 0.000120716)
(-0.00167694 -0.00120269 7.65339e-05)
(-0.0016917 -0.0012137 2.58736e-05)
(-0.000327729 -0.000257151 -8.55224e-05)
(-0.000396003 -0.000343699 -5.57993e-05)
(-0.000438861 -0.000423928 -3.24398e-05)
(-0.000490086 -0.000506143 3.41025e-06)
(-0.000551718 -0.000584292 5.06536e-05)
(-0.00062241 -0.000652897 0.000102492)
(-0.000699179 -0.000707868 0.000154556)
(-0.000778386 -0.000748608 0.000204088)
(-0.000857028 -0.000776818 0.000249348)
(-0.000932624 -0.000795094 0.000289299)
(-0.00100285 -0.000805591 0.00032282)
(-0.00106552 -0.000810073 0.000348478)
(-0.00111914 -0.000810876 0.000365496)
(-0.00116348 -0.000811053 0.000374254)
(-0.00119944 -0.000814382 0.000375832)
(-0.00123098 -0.000823753 0.000372297)
(-0.00126055 -0.000837637 0.000365101)
(-0.00128951 -0.000854918 0.00035537)
(-0.00131897 -0.000874746 0.00034391)
(-0.00134967 -0.000896483 0.000331225)
(-0.00138199 -0.000919751 0.000317579)
(-0.00141607 -0.000944327 0.000303011)
(-0.00145182 -0.000970026 0.000287415)
(-0.00148902 -0.000996652 0.000270576)
(-0.00152737 -0.00102397 0.000252189)
(-0.00156645 -0.00105169 0.000231888)
(-0.00160574 -0.00107937 0.000209179)
(-0.00164454 -0.00110642 0.000183414)
(-0.00168176 -0.00113194 0.000153464)
(-0.00171564 -0.00115467 0.000118039)
(-0.0017423 -0.00117271 7.48949e-05)
(-0.00175738 -0.00118334 2.53204e-05)
(-0.000333543 -0.000228683 -6.10758e-05)
(-0.000402747 -0.000310181 -5.75874e-05)
(-0.000445907 -0.000385842 -3.82074e-05)
(-0.000496415 -0.000464653 -6.68961e-06)
(-0.000557539 -0.00054123 3.64097e-05)
(-0.000628687 -0.000610408 8.48366e-05)
(-0.000707063 -0.00066793 0.000134625)
(-0.000788951 -0.00071253 0.000183168)
(-0.000870999 -0.000744986 0.000228598)
(-0.000950292 -0.000766972 0.000269469)
(-0.00102427 -0.000780183 0.000304214)
(-0.00109078 -0.00078649 0.000331174)
(-0.00114835 -0.000788487 0.000349436)
(-0.0011968 -0.000789383 0.000359408)
(-0.00123714 -0.000792261 0.000362311)
(-0.00127119 -0.000799679 0.000359576)
(-0.00130279 -0.000812438 0.000353047)
(-0.00133367 -0.000828884 0.000343927)
(-0.00136483 -0.000847953 0.000333049)
(-0.00139713 -0.000869001 0.000320954)
(-0.00143099 -0.0008916 0.000307928)
(-0.00146654 -0.000915468 0.000294013)
(-0.00150369 -0.000940405 0.000279102)
(-0.00154224 -0.000966212 0.000262975)
(-0.00158185 -0.000992653 0.00024532)
(-0.00162212 -0.00101944 0.00022577)
(-0.00166254 -0.00104616 0.000203836)
(-0.00170236 -0.00107222 0.000178874)
(-0.00174054 -0.00109678 0.000149781)
(-0.00177523 -0.00111861 0.000115318)
(-0.00180242 -0.00113589 7.32371e-05)
(-0.00181771 -0.00114606 2.47629e-05)
(-0.000335086 -0.000199441 -3.80013e-05)
(-0.000404585 -0.00027546 -5.87845e-05)
(-0.00044743 -0.000346113 -4.33628e-05)
(-0.000496542 -0.00042097 -1.62857e-05)
(-0.000556518 -0.000495391 2.23594e-05)
(-0.000627653 -0.000564661 6.69465e-05)
(-0.000707345 -0.000624366 0.000114015)
(-0.000791701 -0.000672463 0.000161164)
(-0.00087703 -0.000708775 0.000206403)
(-0.000960072 -0.000734173 0.000247903)
(-0.00103802 -0.000749993 0.000283708)
(-0.00110862 -0.000758175 0.000311969)
(-0.00117047 -0.00076149 0.000331661)
(-0.00122323 -0.000763141 0.000343001)
(-0.00126779 -0.00076612 0.000347215)
(-0.00130596 -0.000772484 0.000345769)
(-0.00134004 -0.000783409 0.000340122)
(-0.00137293 -0.000798385 0.000331739)
(-0.00140593 -0.000816546 0.000321599)
(-0.00143991 -0.00083676 0.000310213)
(-0.00147528 -0.000858521 0.000297896)
(-0.00151223 -0.000881527 0.000284709)
(-0.00155067 -0.000905539 0.000270546)
(-0.00159038 -0.000930357 0.000255179)
(-0.00163106 -0.000955758 0.000238295)
(-0.00167231 -0.000981447 0.000219524)
(-0.00171363 -0.00100707 0.000198388)
(-0.00175426 -0.0010321 0.000174255)
(-0.00179318 -0.0010556 0.000146033)
(-0.00182853 -0.00107645 0.000112557)
(-0.00185606 -0.00109292 7.15666e-05)
(-0.00187145 -0.00110268 2.42046e-05)
(-0.000331085 -0.000169507 -1.68354e-05)
(-0.000400282 -0.000239723 -5.92276e-05)
(-0.000442167 -0.000304903 -4.7712e-05)
(-0.000489123 -0.000375195 -2.51741e-05)
(-0.000547151 -0.000446732 8.69153e-06)
(-0.00061761 -0.000515437 4.89388e-05)
(-0.00069824 -0.000576881 9.27431e-05)
(-0.000784993 -0.000628231 0.000138005)
(-0.000873739 -0.00066826 0.000182639)
(-0.000960748 -0.000696972 0.000224446)
(-0.00104295 -0.000715386 0.000261136)
(-0.00111801 -0.000725504 0.00029068)
(-0.00118438 -0.00073017 0.000311895)
(-0.00124166 -0.000732618 0.000324831)
(-0.00129056 -0.000735755 0.00033052)
(-0.00133281 -0.000741665 0.000330454)
(-0.00137059 -0.000751366 0.00032607)
(-0.00140653 -0.000765071 0.000318853)
(-0.0014414 -0.000781764 0.000309595)
(-0.00147703 -0.000800784 0.000299017)
(-0.00151388 -0.000821509 0.000287512)
(-0.00155213 -0.000843514 0.00027514)
(-0.00159172 -0.000866529 0.000261798)
(-0.00163245 -0.000890332 0.000247254)
(-0.001674 -0.000914676 0.000231188)
(-0.00171603 -0.000939284 0.000213231)
(-0.00175798 -0.000963776 0.000192912)
(-0.00179902 -0.000987586 0.000169596)
(-0.00183839 -0.00100993 0.000142245)
(-0.00187412 -0.00102967 0.000109773)
(-0.00190175 -0.00104528 6.98935e-05)
(-0.00191692 -0.0010545 2.36471e-05)
(-0.00032209 -0.0001402 1.76645e-06)
(-0.000390128 -0.000203943 -5.91629e-05)
(-0.000430448 -0.000263651 -5.12149e-05)
(-0.000474616 -0.000328865 -3.31639e-05)
(-0.000529896 -0.000396842 -4.2728e-06)
(-0.000598919 -0.000464251 3.11978e-05)
(-0.000679884 -0.00052678 7.11634e-05)
(-0.000768547 -0.000580787 0.000113922)
(-0.000860365 -0.000624043 0.000157361)
(-0.000951325 -0.000655858 0.000199039)
(-0.00103803 -0.000676848 0.000236379)
(-0.00111781 -0.000688899 0.000267126)
(-0.00118908 -0.000694965 0.000289953)
(-0.00125123 -0.000698243 0.000304674)
(-0.00130476 -0.000701603 0.000312108)
(-0.00135113 -0.000707086 0.000313603)
(-0.00139262 -0.00071594 0.000310671)
(-0.00143151 -0.000728497 0.00030475)
(-0.00146892 -0.000743811 0.00029664)
(-0.00150654 -0.000761593 0.000287118)
(-0.00154491 -0.000781115 0.000276582)
(-0.00158432 -0.000801941 0.00026513)
(-0.00162477 -0.000823766 0.000252676)
(-0.0016661 -0.000846335 0.000238996)
(-0.00170806 -0.000869414 0.00022377)
(-0.00175032 -0.00089273 0.000206636)
(-0.00179242 -0.000915877 0.000187143)
(-0.00183359 -0.000938303 0.000164675)
(-0.00187308 -0.000959319 0.000138233)
(-0.001909 -0.000977895 0.000106831)
(-0.00193641 -0.000992491 6.81295e-05)
(-0.00195123 -0.0010011 2.30607e-05)
(-0.000304995 -0.000110917 1.74073e-05)
(-0.000373748 -0.000168803 -5.82305e-05)
(-0.000411064 -0.00022247 -5.37859e-05)
(-0.000451463 -0.000281941 -3.99904e-05)
(-0.000502885 -0.00034544 -1.62086e-05)
(-0.000569323 -0.000410492 1.40157e-05)
(-0.00064976 -0.000473248 4.9426e-05)
(-0.000740031 -0.000529511 8.89237e-05)
(-0.000835131 -0.000576008 0.000130534)
(-0.000930339 -0.000611018 0.000171599)
(-0.00102185 -0.000634696 0.000209289)
(-0.0011069 -0.000648872 0.00024117)
(-0.00118348 -0.000656361 0.000265651)
(-0.00125083 -0.000660443 0.000282312)
(-0.00130923 -0.000663959 0.000291708)
(-0.00136011 -0.0006691 0.000295066)
(-0.00140546 -0.000677122 0.000293818)
(-0.00144749 -0.000688524 0.000289377)
(-0.00148741 -0.000702511 0.00028259)
(-0.00152692 -0.000718922 0.000274279)
(-0.00156675 -0.000737098 0.000264859)
(-0.0016072 -0.000756569 0.000254449)
(-0.00164834 -0.000777009 0.000242985)
(-0.00169008 -0.000798168 0.00023025)
(-0.00173219 -0.000819796 0.000215927)
(-0.00177444 -0.000841622 0.000199663)
(-0.00181642 -0.000863273 0.00018104)
(-0.00185742 -0.000884195 0.000159464)
(-0.00189682 -0.000903806 0.000133983)
(-0.00193259 -0.000921092 0.000103714)
(-0.0019596 -0.000934659 6.62704e-05)
(-0.00197389 -0.000942586 2.24444e-05)
(-0.00028138 -8.2958e-05 3.00316e-05)
(-0.000351276 -0.000135594 -5.65009e-05)
(-0.000385397 -0.000182943 -5.53973e-05)
(-0.000421218 -0.000236396 -4.5511e-05)
(-0.000467859 -0.000294747 -2.67277e-05)
(-0.000530683 -0.000356521 -2.02386e-06)
(-0.000609643 -0.000418576 2.82004e-05)
(-0.00070062 -0.000476263 6.36058e-05)
(-0.000798134 -0.000525286 0.000102531)
(-0.000897285 -0.000563254 0.000142315)
(-0.00099383 -0.000589716 0.000179957)
(-0.00108428 -0.000606006 0.000212745)
(-0.00116654 -0.000614965 0.000238872)
(-0.00123945 -0.00061979 0.000257588)
(-0.00130322 -0.00062347 0.000269201)
(-0.00135883 -0.000628143 0.000274667)
(-0.00140832 -0.000635304 0.000275376)
(-0.0014536 -0.000645438 0.000272642)
(-0.00149618 -0.000658034 0.000267405)
(-0.00153774 -0.000673017 0.000260503)
(-0.00157898 -0.000689705 0.000252351)
(-0.00162036 -0.000707672 0.000243115)
(-0.00166201 -0.000726588 0.00023275)
(-0.00170385 -0.000746168 0.000221038)
(-0.00174581 -0.000766198 0.000207679)
(-0.00178768 -0.000786395 0.000192331)
(-0.00182918 -0.000806403 0.000174619)
(-0.00186963 -0.000825707 0.000153972)
(-0.00190855 -0.000843781 0.00012949)
(-0.00194395 -0.000859741 0.000100429)
(-0.00197016 -0.000872171 6.43171e-05)
(-0.00198372 -0.000879388 2.17992e-05)
(-0.000250396 -5.70161e-05 3.93746e-05)
(-0.000320555 -0.00010404 -5.37079e-05)
(-0.000351522 -0.000145018 -5.56924e-05)
(-0.000381952 -0.00019196 -4.93013e-05)
(-0.000422382 -0.000244088 -3.53085e-05)
(-0.000479779 -0.00030106 -1.63312e-05)
(-0.000555574 -0.000360941 7.97075e-06)
(-0.000646442 -0.000419306 3.82576e-05)
(-0.000746765 -0.000471093 7.35545e-05)
(-0.000850318 -0.000512387 0.000111302)
(-0.0009521 -0.000541864 0.000148345)
(-0.00104863 -0.00056069 0.000181809)
(-0.00113707 -0.000571307 0.000209525)
(-0.00121618 -0.000576992 0.000230426)
(-0.00128555 -0.000580677 0.000244419)
(-0.00134638 -0.000584856 0.000252295)
(-0.00140024 -0.000591009 0.000255233)
(-0.00144915 -0.000599825 0.000254514)
(-0.0014945 -0.000610901 0.000251066)
(-0.00153798 -0.000624249 0.000245747)
(-0.00158058 -0.000639309 0.000239038)
(-0.00162274 -0.000655635 0.000231122)
(-0.00166467 -0.000672888 0.000221969)
(-0.00170638 -0.000690803 0.000211378)
(-0.00174785 -0.000709129 0.000199048)
(-0.00178902 -0.000727613 0.000184665)
(-0.00182971 -0.000745915 0.000167909)
(-0.00186928 -0.000763549 0.000148227)
(-0.0019075 -0.000780075 0.000124786)
(-0.00194217 -0.000794623 9.69944e-05)
(-0.00196739 -0.000805969 6.2294e-05)
(-0.00198 -0.000812448 2.11346e-05)
(-0.000214374 -3.46015e-05 4.53651e-05)
(-0.000283414 -7.55078e-05 -5.00366e-05)
(-0.000311864 -0.000110557 -5.48782e-05)
(-0.000337128 -0.000151162 -5.1463e-05)
(-0.00037089 -0.000196746 -4.17281e-05)
(-0.000421853 -0.000248076 -2.82585e-05)
(-0.000493307 -0.000304687 -1.02589e-05)
(-0.000582543 -0.000362498 1.40062e-05)
(-0.000683359 -0.000415558 4.45158e-05)
(-0.000790025 -0.000459539 7.91988e-05)
(-0.000897071 -0.00049224 0.00011495)
(-0.000999528 -0.000513665 0.000148603)
(-0.0010945 -0.000526139 0.000177719)
(-0.00117986 -0.000532627 0.000200762)
(-0.00125549 -0.000536424 0.000217351)
(-0.00132174 -0.000539936 0.000227862)
(-0.0013804 -0.000544994 0.000233342)
(-0.00143302 -0.000552279 0.000234904)
(-0.00148135 -0.000561731 0.000233526)
(-0.00152705 -0.000573401 0.000230061)
(-0.00157098 -0.000586719 0.000224989)
(-0.00161379 -0.000601294 0.000218547)
(-0.00165577 -0.000616793 0.000210732)
(-0.00169698 -0.000632937 0.000201342)
(-0.00173757 -0.000649491 0.000190097)
(-0.0017776 -0.000666192 0.00017671)
(-0.00181702 -0.000682719 0.000160936)
(-0.00185527 -0.00069863 0.000142239)
(-0.00189231 -0.000713527 0.00011986)
(-0.001926 -0.000726681 9.34139e-05)
(-0.00194967 -0.000736855 6.01941e-05)
(-0.00196113 -0.000742637 2.04487e-05)
(-0.000172175 -1.59269e-05 4.75927e-05)
(-0.000237864 -4.99743e-05 -4.50287e-05)
(-0.000263799 -7.9021e-05 -5.24075e-05)
(-0.000283617 -0.000112919 -5.14144e-05)
(-0.00030942 -0.000150934 -4.52266e-05)
(-0.000351386 -0.000194661 -3.68005e-05)
(-0.000415249 -0.000245525 -2.53477e-05)
(-0.000500786 -0.000301188 -8.11017e-06)
(-0.000603366 -0.000356254 1.63095e-05)
(-0.00071428 -0.000403824 4.66874e-05)
(-0.000826551 -0.000440125 8.0139e-05)
(-0.000935655 -0.000464903 0.000113393)
(-0.00103734 -0.000479608 0.000143551)
(-0.00112995 -0.000487453 0.000168747)
(-0.00121199 -0.000491364 0.000187984)
(-0.00128432 -0.000494306 0.000201395)
(-0.00134792 -0.000498097 0.000209671)
(-0.00140473 -0.000503806 0.000213852)
(-0.00145614 -0.000511482 0.000214815)
(-0.00150382 -0.00052124 0.000213408)
(-0.00154898 -0.00053268 0.000210174)
(-0.00159226 -0.000545419 0.000205371)
(-0.001634 -0.000559095 0.000199019)
(-0.00167441 -0.000573456 0.000190928)
(-0.00171375 -0.000588229 0.000180825)
(-0.00175227 -0.000603158 0.000168471)
(-0.00179008 -0.000617935 0.000153713)
(-0.00182665 -0.000632172 0.000136025)
(-0.00186233 -0.000645503 0.000114742)
(-0.00189463 -0.000657247 8.97033e-05)
(-0.00191666 -0.000666394 5.80478e-05)
(-0.00192665 -0.00067149 1.97513e-05)
(-0.000127655 -2.16252e-06 4.64364e-05)
(-0.000187924 -2.90726e-05 -3.90283e-05)
(-0.000212544 -5.25963e-05 -4.87135e-05)
(-0.000228769 -8.06253e-05 -4.97976e-05)
(-0.000247802 -0.00011167 -4.63024e-05)
(-0.00028126 -0.000147938 -4.18705e-05)
(-0.000337339 -0.000192521 -3.64151e-05)
(-0.000417368 -0.000244462 -2.68192e-05)
(-0.000514896 -0.000297558 -9.79538e-06)
(-0.000625733 -0.000346708 1.50261e-05)
(-0.00074251 -0.000386707 4.50633e-05)
(-0.000857402 -0.000414957 7.69955e-05)
(-0.000966519 -0.000432665 0.000107706)
(-0.0010657 -0.000441887 0.000134635)
(-0.00115467 -0.000446286 0.000156515)
(-0.00123295 -0.000448604 0.000172893)
(-0.00130207 -0.000451224 0.000184249)
(-0.00136306 -0.000455209 0.000191295)
(-0.00141774 -0.000461025 0.000194892)
(-0.00146782 -0.000468902 0.000195854)
(-0.00151421 -0.000478423 0.000194681)
(-0.00155779 -0.000489262 0.000191684)
(-0.00159904 -0.000501113 0.000186929)
(-0.00163819 -0.00051367 0.000180214)
(-0.00167579 -0.000526677 0.000171291)
(-0.00171229 -0.000539854 0.000159982)
(-0.00174795 -0.000552901 0.000146252)
(-0.00178231 -0.000565484 0.000129575)
(-0.00181603 -0.000577215 0.000109394)
(-0.00184672 -0.000587613 8.58468e-05)
(-0.00186632 -0.000595681 5.58276e-05)
(-0.00187466 -0.000600193 1.90353e-05)
(-8.02426e-05 7.24313e-06 4.22796e-05)
(-0.000132258 -1.19355e-05 -3.11303e-05)
(-0.00015386 -2.87417e-05 -4.26496e-05)
(-0.00016564 -4.99876e-05 -4.50667e-05)
(-0.000177481 -7.35183e-05 -4.34858e-05)
(-0.000198927 -0.000100215 -4.20632e-05)
(-0.000239969 -0.000134448 -4.15151e-05)
(-0.000308122 -0.000179646 -3.87439e-05)
(-0.000408026 -0.000234178 -3.00085e-05)
(-0.000522598 -0.000286301 -1.34527e-05)
(-0.000643247 -0.000330406 1.11593e-05)
(-0.000764675 -0.000363401 4.04891e-05)
(-0.000879575 -0.000384283 7.07073e-05)
(-0.000986684 -0.000396177 9.89906e-05)
(-0.00108265 -0.00040152 0.000123231)
(-0.00116786 -0.000403793 0.00014266)
(-0.00124232 -0.000405248 0.000157187)
(-0.00130796 -0.00040764 0.000167381)
(-0.00136601 -0.000411569 0.000173871)
(-0.00141796 -0.000417364 0.000177377)
(-0.00146535 -0.000424889 0.000178459)
(-0.00150901 -0.000433828 0.000177441)
(-0.00154936 -0.000443847 0.000174405)
(-0.00158693 -0.000454683 0.000169162)
(-0.00162237 -0.00046602 0.000161461)
(-0.00165645 -0.000477551 0.000151216)
(-0.00168963 -0.000489 0.000138539)
(-0.00172143 -0.000500055 0.000122887)
(-0.00175318 -0.000510365 0.000103843)
(-0.00178176 -0.000519432 8.18565e-05)
(-0.00179897 -0.00052667 5.35709e-05)
(-0.00180526 -0.000530652 1.8311e-05)
(-3.93305e-05 1.07969e-05 3.56666e-05)
(-7.84764e-05 -2.74253e-06 -2.17908e-05)
(-0.00010166 -1.32553e-05 -3.09891e-05)
(-0.000127241 -3.51995e-05 -3.84472e-05)
(-0.000123503 -4.66867e-05 -3.97677e-05)
(-0.00013721 -6.67614e-05 -3.74017e-05)
(-0.000169821 -9.07666e-05 -3.80214e-05)
(-0.000232505 -0.000126307 -4.50451e-05)
(-0.000303764 -0.000170709 -4.81353e-05)
(-0.000409637 -0.000224076 -3.80216e-05)
(-0.000532584 -0.00027212 -1.95252e-05)
(-0.000657547 -0.000309622 5.74385e-06)
(-0.000780923 -0.000335974 3.43777e-05)
(-0.000893974 -0.000350626 6.28097e-05)
(-0.000996827 -0.00035767 8.88357e-05)
(-0.00108777 -0.000360017 0.000110933)
(-0.0011682 -0.000360843 0.0001287)
(-0.00123824 -0.000361738 0.000142143)
(-0.00129962 -0.000363861 0.000151732)
(-0.0013541 -0.000367825 0.000158089)
(-0.00140252 -0.000373446 0.000161641)
(-0.00144597 -0.000380525 0.000162754)
(-0.00148519 -0.00038882 0.000161573)
(-0.00152056 -0.000398002 0.000157858)
(-0.00155326 -0.000407775 0.000151389)
(-0.00158434 -0.000417754 0.000142192)
(-0.00161438 -0.000427667 0.000130561)
(-0.00164305 -0.000437302 0.000115924)
(-0.00167197 -0.000446141 9.80017e-05)
(-0.00169841 -0.000454042 7.76888e-05)
(-0.0017122 -0.000460419 5.12212e-05)
(-0.00171619 -0.000463978 1.75609e-05)
(-1.71203e-05 1.19851e-05 2.80687e-05)
(-2.72942e-05 6.46334e-07 -1.14762e-05)
(-3.80461e-05 5.5749e-06 -4.34028e-05)
(-2.61826e-05 -3.71655e-05 -4.35729e-05)
(-4.02406e-05 -2.98009e-05 -3.34973e-06)
(-4.57557e-05 -2.67486e-05 -1.52946e-05)
(-6.34189e-05 -3.43708e-05 -2.23657e-05)
(-0.000106367 -6.96116e-05 -3.45495e-05)
(-0.000201956 -0.000113062 -4.12893e-05)
(-0.000294576 -0.000157246 -5.40111e-05)
(-0.000411519 -0.000209972 -4.45988e-05)
(-0.00054122 -0.000254099 -2.49676e-05)
(-0.00066539 -0.000284326 -5.58896e-08)
(-0.000786043 -0.000304116 2.73428e-05)
(-0.000895868 -0.000314059 5.41117e-05)
(-0.000994423 -0.000318009 7.84969e-05)
(-0.00108005 -0.000318568 9.92138e-05)
(-0.00115479 -0.000318474 0.000115951)
(-0.00121955 -0.000319073 0.000128771)
(-0.00127543 -0.000321122 0.000138032)
(-0.00132435 -0.000324899 0.000144174)
(-0.00136732 -0.000330242 0.000147553)
(-0.0014048 -0.000336896 0.000148318)
(-0.00143766 -0.000344635 0.000146215)
(-0.00146716 -0.000353036 0.000140989)
(-0.00149491 -0.000361645 0.000132836)
(-0.0015217 -0.000370266 0.000122287)
(-0.0015468 -0.000378634 0.00010866)
(-0.00157329 -0.000386312 9.19104e-05)
(-0.00159682 -0.000393008 7.33444e-05)
(-0.00160744 -0.00039886 4.8821e-05)
(-0.00160895 -0.000402128 1.67989e-05)
(7.52828e-06 1.28078e-05 2.97776e-05)
(9.78466e-07 1.23244e-05 -1.57185e-05)
(-1.56033e-05 -2.31485e-06 -3.54065e-05)
(-3.21237e-06 -6.76854e-06 -2.55151e-05)
(-2.02931e-05 -1.19502e-05 -3.0512e-05)
(-2.73354e-05 -2.27896e-05 -3.98485e-05)
(-2.61047e-05 -2.61338e-05 -2.59912e-05)
(-3.22785e-05 -3.26383e-05 -2.15298e-05)
(-6.37333e-05 -5.4411e-05 -2.0331e-05)
(-0.000178689 -9.93229e-05 -3.60321e-05)
(-0.000290776 -0.000141556 -5.47107e-05)
(-0.000411247 -0.00019008 -4.74692e-05)
(-0.000544874 -0.000232954 -2.88034e-05)
(-0.00066863 -0.000257355 -5.46932e-06)
(-0.000783934 -0.000271321 2.0477e-05)
(-0.00088657 -0.000276985 4.60512e-05)
(-0.000977927 -0.000278447 6.93034e-05)
(-0.00105668 -0.000277892 8.90759e-05)
(-0.00112427 -0.000277363 0.00010507)
(-0.00118251 -0.000278142 0.000117426)
(-0.00123199 -0.000280415 0.000126282)
(-0.00127409 -0.000284226 0.000132013)
(-0.00130964 -0.000289495 0.00013483)
(-0.00133916 -0.000295925 0.000134346)
(-0.00136481 -0.000303137 0.000130319)
(-0.00138855 -0.000310491 0.000123146)
(-0.00141106 -0.000317852 0.000113634)
(-0.00143235 -0.000325155 0.000101022)
(-0.00145518 -0.000331567 8.54053e-05)
(-0.00147625 -0.000337303 6.87512e-05)
(-0.00148242 -0.000342571 4.62747e-05)
(-0.00148083 -0.000345542 1.59855e-05)
(2.28499e-05 6.19941e-06 2.20865e-05)
(2.94128e-05 5.29575e-06 -3.29981e-06)
(2.74744e-05 -4.35628e-07 2.0757e-05)
(-9.88699e-06 3.54045e-05 -1.49933e-06)
(-8.1318e-07 7.4672e-06 -4.71454e-05)
(-3.83952e-06 -7.46123e-06 -3.06346e-05)
(-7.45129e-06 -1.40401e-05 -2.03813e-05)
(-2.437e-05 -1.60389e-05 -2.34239e-05)
(-2.52001e-05 -2.41749e-05 -2.16632e-05)
(-6.20335e-05 -4.42907e-05 -2.13645e-05)
(-0.00017608 -8.43601e-05 -4.28216e-05)
(-0.000336816 -0.000137701 -5.60441e-05)
(-0.000406735 -0.000170938 -4.98217e-05)
(-0.000536518 -0.000207333 -3.33555e-05)
(-0.000657948 -0.000227234 -1.03631e-05)
(-0.000768524 -0.000237377 1.50841e-05)
(-0.000863807 -0.00024047 3.99156e-05)
(-0.000946463 -0.00024046 6.22714e-05)
(-0.00101681 -0.00023955 8.12413e-05)
(-0.00107525 -0.000239166 9.64531e-05)
(-0.00112426 -0.000240198 0.000107941)
(-0.00116499 -0.00024276 0.000116027)
(-0.00119773 -0.000246816 0.000120898)
(-0.00122377 -0.000252284 0.000122089)
(-0.00124512 -0.000258562 0.000119206)
(-0.00126483 -0.000264889 0.000112987)
(-0.0012837 -0.000271377 0.0001046)
(-0.00130027 -0.000277655 9.29482e-05)
(-0.00132038 -0.000283192 7.85494e-05)
(-0.0013379 -0.00028779 6.38828e-05)
(-0.00134027 -0.000292851 4.36224e-05)
(-0.00133606 -0.000295748 1.51435e-05)
(3.79282e-05 9.482e-06 3.41872e-05)
(4.8701e-05 7.0554e-06 -6.225e-06)
(4.98062e-05 3.21625e-06 -8.56479e-06)
(3.35346e-05 -1.16704e-05 -6.8966e-06)
(3.49293e-05 -9.38659e-06 2.29273e-06)
(1.41831e-05 5.85114e-07 2.15481e-06)
(4.64256e-06 4.50966e-06 -1.42848e-05)
(-2.09701e-06 -5.49829e-06 -1.74423e-05)
(-2.33151e-05 1.40674e-06 -2.89969e-05)
(-1.92388e-05 -1.20776e-05 -2.80191e-05)
(-4.35304e-05 -1.57728e-05 -4.08503e-05)
(-0.000140372 -0.000164576 -7.69601e-05)
(-0.000301007 -0.000136854 -6.2702e-06)
(-0.000404226 -0.000150375 -5.39573e-05)
(-0.000527822 -0.000183417 -3.69997e-05)
(-0.000638764 -0.000197265 -1.3014e-05)
(-0.000738495 -0.000203736 1.22297e-05)
(-0.000823592 -0.000205217 3.62162e-05)
(-0.000895278 -0.000204675 5.75862e-05)
(-0.00095548 -0.000204358 7.55468e-05)
(-0.00100416 -0.000204808 8.9549e-05)
(-0.0010431 -0.000206522 9.99047e-05)
(-0.00107303 -0.000209784 0.000106853)
(-0.00109436 -0.000214415 0.000109616)
(-0.00111076 -0.00021996 0.000107743)
(-0.00112559 -0.000225276 0.00010233)
(-0.00113885 -0.000230696 9.49404e-05)
(-0.00115155 -0.000236308 8.43368e-05)
(-0.00116757 -0.000240799 7.11028e-05)
(-0.0011825 -0.000244434 5.8638e-05)
(-0.00117952 -0.000249117 4.07125e-05)
(-0.00117153 -0.000251688 1.41958e-05)
(4.63538e-05 1.43092e-05 4.3927e-05)
(6.30466e-05 1.15309e-05 -7.44748e-06)
(6.92338e-05 7.56237e-06 -1.4326e-05)
(7.02538e-05 1.12607e-07 -1.7779e-05)
(6.62883e-05 -7.69171e-06 -1.84777e-05)
(5.47994e-05 -1.66327e-05 -1.89156e-05)
(4.62942e-05 -2.1764e-05 -2.14194e-05)
(3.94365e-05 -2.27183e-05 -2.13335e-05)
(1.99153e-05 -1.96173e-05 -2.05007e-05)
(-2.30014e-06 -9.49771e-06 -4.23497e-05)
(-7.00168e-05 -4.26797e-05 -5.87092e-05)
(-6.77713e-05 -5.65078e-05 -5.31124e-05)
(-0.000127741 -8.02555e-05 -4.07073e-05)
(-0.000285855 -0.000106647 -4.76818e-05)
(-0.000389072 -0.000133183 -5.53816e-05)
(-0.000507026 -0.00015772 -3.63712e-05)
(-0.00060684 -0.000167909 -1.22643e-05)
(-0.000693753 -0.000172256 1.21603e-05)
(-0.000766671 -0.000173236 3.51537e-05)
(-0.00082437 -0.000173049 5.50991e-05)
(-0.000870842 -0.000173335 7.11364e-05)
(-0.000907163 -0.000174578 8.34816e-05)
(-0.000933019 -0.000177222 9.23125e-05)
(-0.00094999 -0.000181485 9.66431e-05)
(-0.00096104 -0.000186498 9.56088e-05)
(-0.000971793 -0.000191031 9.09849e-05)
(-0.000982031 -0.000196072 8.48229e-05)
(-0.000988648 -0.000200639 7.50904e-05)
(-0.00100179 -0.000204468 6.31407e-05)
(-0.00101329 -0.000206806 5.2973e-05)
(-0.00100646 -0.000211527 3.75924e-05)
(-0.000995973 -0.000213963 1.31776e-05)
(5.37655e-05 1.38396e-05 4.63404e-05)
(7.5365e-05 1.09629e-05 -7.18263e-06)
(8.53815e-05 7.30852e-06 -1.57122e-05)
(9.08395e-05 -1.01753e-07 -2.10647e-05)