/*--------------------------------*- C++ -*----------------------------------*\
  =========                 |
  \\      /  F ield         | OpenFOAM: The Open Source CFD Toolbox
   \\    /   O peration     | Website:  https://openfoam.org
    \\  /    A nd           | Version:  6
     \\/     M anipulation  |
\*---------------------------------------------------------------------------*/
FoamFile
{
    version     2.0;
    format      ascii;
    class       volVectorField;
    location    "16";
    object      wallShearStress;
}
// * * * * * * * * * * * * * * * * * * * * * * * * * * * * * * * * * * * * * //

dimensions      [0 2 -2 0 0 0 0];

internalField   uniform (0 0 0);

boundaryField
{
    inlet
    {
        type            calculated;
        value           uniform (0 0 0);
    }
    outlet
    {
        type            calculated;
        value           uniform (0 0 0);
    }
    roughCylinder
    {
        type            calculated;
        value           nonuniform List<vector> 
5120
(
(-0.000250733 -0.00035718 -0.000184038)
(-0.000307324 -0.000461556 -4.2063e-05)
(-0.00034089 -0.000555383 -6.71649e-07)
(-0.000386637 -0.000645428 5.40996e-05)
(-0.000443668 -0.000723577 0.000117348)
(-0.000508423 -0.000785372 0.000180895)
(-0.000577429 -0.000827979 0.000240231)
(-0.000646028 -0.00085183 0.000292585)
(-0.000710148 -0.000859408 0.00033586)
(-0.000767709 -0.000855771 0.000369344)
(-0.00081896 -0.000849203 0.000394535)
(-0.000864181 -0.000845325 0.000413315)
(-0.000900419 -0.000844202 0.000424437)
(-0.000930964 -0.000848555 0.000429012)
(-0.000957117 -0.000857598 0.00042808)
(-0.000980213 -0.000870628 0.0004227)
(-0.00100168 -0.000886858 0.000413927)
(-0.00102275 -0.000905641 0.00040265)
(-0.00104438 -0.000926496 0.000389543)
(-0.0010672 -0.000949133 0.000375029)
(-0.00109156 -0.000973364 0.000359307)
(-0.00111759 -0.000999069 0.000342404)
(-0.00114525 -0.00102612 0.000324213)
(-0.00117435 -0.00105434 0.000304544)
(-0.00120467 -0.00108351 0.00028313)
(-0.00123584 -0.00111326 0.000259593)
(-0.00126747 -0.00114319 0.000233476)
(-0.0012989 -0.00117255 0.000204016)
(-0.00132945 -0.00120057 0.00017012)
(-0.00135742 -0.00122565 0.000130309)
(-0.00138 -0.00124596 8.23616e-05)
(-0.00139283 -0.00125797 2.78742e-05)
(-0.000269302 -0.000345536 -0.000173882)
(-0.000329004 -0.000447155 -4.45416e-05)
(-0.000365151 -0.000539674 -6.43883e-06)
(-0.000413016 -0.000629432 4.49326e-05)
(-0.000471729 -0.000708599 0.000105555)
(-0.000538033 -0.000772186 0.000167321)
(-0.00060844 -0.000816969 0.000225514)
(-0.000678535 -0.000843247 0.000277244)
(-0.000744845 -0.000853883 0.000320524)
(-0.000805818 -0.000854518 0.000355065)
(-0.000861249 -0.000852019 0.000382254)
(-0.000910016 -0.000849707 0.000402885)
(-0.000949083 -0.000847301 0.00041509)
(-0.000981169 -0.000850556 0.000420245)
(-0.00100885 -0.000858886 0.000419631)
(-0.00103338 -0.000871556 0.000414477)
(-0.00105626 -0.00088766 0.000405875)
(-0.00107875 -0.000906453 0.000394771)
(-0.00110183 -0.000927395 0.000381863)
(-0.00112616 -0.000950142 0.000367592)
(-0.00115209 -0.000974483 0.000352168)
(-0.00117974 -0.00100027 0.000335616)
(-0.00120905 -0.00102738 0.00031784)
(-0.00123984 -0.00105563 0.000298632)
(-0.00127186 -0.00108478 0.000277728)
(-0.00130472 -0.00111449 0.000254739)
(-0.00133803 -0.00114433 0.000229211)
(-0.00137107 -0.00117358 0.000200372)
(-0.00140315 -0.00120148 0.000167146)
(-0.00143248 -0.00122642 0.000128079)
(-0.00145614 -0.0012466 8.09653e-05)
(-0.00146959 -0.00125852 2.73999e-05)
(-0.000287705 -0.000328672 -0.000156452)
(-0.000350181 -0.000427307 -4.75373e-05)
(-0.000388718 -0.000517761 -1.28683e-05)
(-0.000438305 -0.000606566 3.48928e-05)
(-0.0004984 -0.000686215 9.25934e-05)
(-0.000566098 -0.000751352 0.000152325)
(-0.00063797 -0.000798467 0.000209289)
(-0.000709912 -0.00082782 0.000260551)
(-0.000778957 -0.00084245 0.00030428)
(-0.000843641 -0.000847693 0.000340252)
(-0.000902978 -0.000848827 0.000369239)
(-0.00095501 -0.000848022 0.000391154)
(-0.000997631 -0.000845633 0.000404654)
(-0.00103139 -0.000847351 0.000410335)
(-0.00106063 -0.000854799 0.000410028)
(-0.0010867 -0.000866932 0.000405144)
(-0.00111107 -0.00088274 0.000396773)
(-0.00113506 -0.000901389 0.000385898)
(-0.00115966 -0.000922251 0.000373247)
(-0.00118554 -0.000944946 0.000359277)
(-0.00121307 -0.000969226 0.000344214)
(-0.00124236 -0.000994929 0.000328079)
(-0.00127335 -0.00102191 0.000310773)
(-0.00130584 -0.00104999 0.000292089)
(-0.00133955 -0.00107892 0.000271756)
(-0.00137409 -0.00110838 0.000249374)
(-0.00140905 -0.00113793 0.000224498)
(-0.00144365 -0.00116686 0.000196342)
(-0.00147724 -0.00119443 0.000163851)
(-0.00150789 -0.00121906 0.000125607)
(-0.00153261 -0.00123898 7.94179e-05)
(-0.00154663 -0.00125071 2.68757e-05)
(-0.000304077 -0.000307913 -0.000134546)
(-0.000368913 -0.000403042 -5.06021e-05)
(-0.000409403 -0.000490698 -1.95471e-05)
(-0.000460121 -0.000577902 2.44192e-05)
(-0.000521159 -0.000657541 7.89287e-05)
(-0.000590035 -0.000724036 0.000136366)
(-0.000663452 -0.000773668 0.000191946)
(-0.000737578 -0.000806601 0.000242749)
(-0.000809671 -0.000825743 0.000287067)
(-0.000878045 -0.000835618 0.000324524)
(-0.000941086 -0.000840105 0.000355164)
(-0.000996556 -0.000840993 0.000378283)
(-0.00104286 -0.000839518 0.000393082)
(-0.00107918 -0.000839672 0.000399443)
(-0.0011101 -0.000846133 0.000399575)
(-0.00113784 -0.000857564 0.000395011)
(-0.00116381 -0.000872939 0.000386938)
(-0.00118936 -0.000891306 0.000376359)
(-0.00121554 -0.000911984 0.000364029)
(-0.00124301 -0.000934507 0.000350424)
(-0.00127214 -0.000958596 0.000335772)
(-0.00130305 -0.000984074 0.000320106)
(-0.00133568 -0.00101078 0.000303323)
(-0.00136981 -0.00103853 0.000285209)
(-0.00140514 -0.00106709 0.000265489)
(-0.00144128 -0.00109612 0.000243753)
(-0.00147778 -0.00112522 0.000219567)
(-0.00151385 -0.00115366 0.000192125)
(-0.00154886 -0.00118076 0.000160403)
(-0.00158074 -0.00120492 0.000123021)
(-0.00160644 -0.00122445 7.78017e-05)
(-0.001621 -0.00123593 2.63298e-05)
(-0.00031736 -0.000283552 -0.000110296)
(-0.000384157 -0.000374646 -5.33942e-05)
(-0.000426109 -0.000458853 -2.61276e-05)
(-0.00047738 -0.000543842 1.38561e-05)
(-0.000538937 -0.00062297 6.48795e-05)
(-0.000608823 -0.000690632 0.00011969)
(-0.000683895 -0.000742929 0.000173652)
(-0.000760492 -0.000779748 0.000223906)
(-0.000835815 -0.000803517 0.000268769)
(-0.000907799 -0.000817781 0.000307576)
(-0.000974416 -0.000825402 0.000339736)
(-0.00103342 -0.000828072 0.000364116)
(-0.00108324 -0.000827694 0.000380014)
(-0.00112343 -0.000827424 0.000387522)
(-0.00115631 -0.000832363 0.000388228)
(-0.00118584 -0.000842882 0.000384086)
(-0.00121353 -0.000857645 0.000376407)
(-0.00124073 -0.000875586 0.000366209)
(-0.0012685 -0.000895907 0.000354271)
(-0.00129755 -0.000918099 0.000341091)
(-0.00132826 -0.000941851 0.000326915)
(-0.00136076 -0.000966943 0.000311775)
(-0.00139496 -0.000993212 0.000295565)
(-0.00143064 -0.00102047 0.000278067)
(-0.0014675 -0.00104848 0.000259004)
(-0.0015051 -0.0010769 0.00023795)
(-0.00154304 -0.00110536 0.000214486)
(-0.00158044 -0.00113313 0.000187783)
(-0.00161672 -0.00115958 0.00015685)
(-0.00164974 -0.00118313 0.000120359)
(-0.00167632 -0.00120216 7.6141e-05)
(-0.00169134 -0.00121331 2.57708e-05)
(-0.000327487 -0.000256968 -8.54661e-05)
(-0.000395734 -0.000343481 -5.5767e-05)
(-0.000438576 -0.000423677 -3.24072e-05)
(-0.000489782 -0.000505858 3.44044e-06)
(-0.000551388 -0.000583969 5.06785e-05)
(-0.000622054 -0.000652541 0.000102511)
(-0.0006988 -0.000707491 0.000154569)
(-0.000777988 -0.00074822 0.0002041)
(-0.000856606 -0.000776419 0.000249362)
(-0.000932169 -0.000794676 0.000289315)
(-0.00100235 -0.000805146 0.000322836)
(-0.00106498 -0.000809598 0.000348492)
(-0.00111855 -0.000810385 0.000365506)
(-0.00116286 -0.000810551 0.000374268)
(-0.00119879 -0.000813873 0.000375855)
(-0.0012303 -0.000823232 0.000372328)
(-0.00125983 -0.0008371 0.000365142)
(-0.00128876 -0.000854367 0.000355424)
(-0.00131819 -0.000874176 0.000343975)
(-0.00134885 -0.000895887 0.000331304)
(-0.00138112 -0.000919131 0.00031767)
(-0.00141514 -0.000943678 0.000303116)
(-0.00145083 -0.000969333 0.000287534)
(-0.00148795 -0.000995912 0.000270697)
(-0.0015262 -0.00102318 0.000252329)
(-0.00156513 -0.00105082 0.00023199)
(-0.00160433 -0.00107846 0.000209275)
(-0.00164287 -0.00110539 0.000183331)
(-0.00168033 -0.00113104 0.000153208)
(-0.00171432 -0.00115381 0.000117631)
(-0.00174168 -0.00117222 7.4443e-05)
(-0.00175707 -0.00118299 2.52015e-05)
(-0.000333341 -0.000228541 -6.1027e-05)
(-0.000402522 -0.000310009 -5.756e-05)
(-0.000445668 -0.000385648 -3.81768e-05)
(-0.000496165 -0.000464433 -6.65484e-06)
(-0.000557267 -0.000540975 3.64431e-05)
(-0.000628382 -0.000610115 8.48665e-05)
(-0.000706711 -0.00066759 0.000134647)
(-0.000788539 -0.000712145 0.00018318)
(-0.000870529 -0.000744563 0.000228606)
(-0.000949775 -0.00076652 0.000269475)
(-0.00102373 -0.000779721 0.000304222)
(-0.00109021 -0.000786025 0.000331189)
(-0.00114775 -0.00078801 0.000349456)
(-0.00119617 -0.000788894 0.000359432)
(-0.00123648 -0.000791768 0.000362344)
(-0.00127049 -0.000799177 0.000359618)
(-0.00130207 -0.000811929 0.000353105)
(-0.00133291 -0.000828361 0.000343998)
(-0.00136403 -0.000847408 0.00033313)
(-0.00139628 -0.000868433 0.000321052)
(-0.00143008 -0.000891005 0.00030804)
(-0.00146557 -0.000914839 0.000294138)
(-0.00150265 -0.000939738 0.000279243)
(-0.00154109 -0.000965496 0.000263121)
(-0.0015806 -0.000991885 0.000245491)
(-0.00162069 -0.00101859 0.000225899)
(-0.00166099 -0.00104526 0.000203963)
(-0.00170052 -0.0010712 0.000178796)
(-0.00173895 -0.00109588 0.00014949)
(-0.0017738 -0.00111777 0.00011485)
(-0.00180181 -0.00113542 7.27164e-05)
(-0.00181748 -0.00114575 2.46248e-05)
(-0.000334862 -0.000199294 -3.79521e-05)
(-0.000404334 -0.000275284 -5.87568e-05)
(-0.000447157 -0.000345905 -4.33285e-05)
(-0.000496246 -0.000420726 -1.62475e-05)
(-0.000556197 -0.000495108 2.23946e-05)
(-0.000627304 -0.000564345 6.69766e-05)
(-0.000706975 -0.000624029 0.000114042)
(-0.000791323 -0.000672123 0.000161195)
(-0.000876643 -0.000708432 0.000206441)
(-0.000959663 -0.000733822 0.000247946)
(-0.00103756 -0.000749611 0.00028375)
(-0.0011081 -0.000757759 0.000312006)
(-0.00116991 -0.000761059 0.000331699)
(-0.00122262 -0.000762695 0.000343048)
(-0.00126714 -0.000765656 0.000347267)
(-0.00130527 -0.000772011 0.000345833)
(-0.0013393 -0.000782922 0.000340197)
(-0.00137216 -0.000797885 0.000331827)
(-0.0014051 -0.00081603 0.000321705)
(-0.00143903 -0.000836214 0.000310332)
(-0.00147434 -0.000857953 0.000298028)
(-0.00151121 -0.000880922 0.000284856)
(-0.00154957 -0.000904896 0.00027071)
(-0.00158917 -0.000929671 0.00025535)
(-0.00162973 -0.000955013 0.0002385)
(-0.00167078 -0.000980624 0.000219685)
(-0.00171195 -0.00100621 0.000198557)
(-0.00175219 -0.00103109 0.000174181)
(-0.00179145 -0.00105475 0.000145706)
(-0.00182697 -0.00107563 0.000112019)
(-0.00185549 -0.00109249 7.09653e-05)
(-0.00187132 -0.00110238 2.40444e-05)
(-0.000330952 -0.000169421 -1.67947e-05)
(-0.000400138 -0.000239623 -5.92091e-05)
(-0.000442029 -0.000304797 -4.76845e-05)
(-0.000488989 -0.000375084 -2.51351e-05)
(-0.000547019 -0.000446608 8.74051e-06)
(-0.000617455 -0.000515284 4.89906e-05)
(-0.000698029 -0.000576678 9.27964e-05)
(-0.000784699 -0.000627962 0.000138057)
(-0.000873352 -0.000667921 0.000182683)
(-0.00096028 -0.000696585 0.000224482)
(-0.00104244 -0.000714977 0.000261173)
(-0.00111747 -0.00072509 0.000290723)
(-0.0011838 -0.00072974 0.000311941)
(-0.00124104 -0.000732176 0.000324883)
(-0.00128991 -0.00073531 0.000330585)
(-0.00133211 -0.000741212 0.000330533)
(-0.00136985 -0.000750905 0.000326164)
(-0.00140575 -0.000764597 0.000318965)
(-0.00144056 -0.00078127 0.000309721)
(-0.00147612 -0.000800272 0.000299159)
(-0.00151291 -0.000820969 0.000287668)
(-0.00155107 -0.000842946 0.000275311)
(-0.00159057 -0.000865924 0.00026199)
(-0.00163117 -0.000889678 0.000247455)
(-0.0016726 -0.000913972 0.000231433)
(-0.00171437 -0.000938494 0.000213431)
(-0.00175611 -0.000962942 0.000193126)
(-0.00179668 -0.000986617 0.000169528)
(-0.00183639 -0.00100909 0.000141867)
(-0.00187241 -0.00102889 0.000109152)
(-0.00190123 -0.00104486 6.91982e-05)
(-0.00191696 -0.00105424 2.34605e-05)
(-0.000321903 -0.000140085 1.81872e-06)
(-0.0003899 -0.000203797 -5.91358e-05)
(-0.000430182 -0.000263468 -5.11749e-05)
(-0.000474302 -0.000328626 -3.31141e-05)
(-0.000529532 -0.000396546 -4.2255e-06)
(-0.000598517 -0.00046391 3.12446e-05)
(-0.000679473 -0.000526423 7.12066e-05)
(-0.000768158 -0.00058045 0.00011397)
(-0.000860005 -0.000623731 0.000157423)
(-0.000950968 -0.00065555 0.000199111)
(-0.00103762 -0.000676521 0.000236451)
(-0.00111734 -0.000688538 0.000267194)
(-0.00118857 -0.000694597 0.000290027)
(-0.00125067 -0.000697861 0.000304758)
(-0.00130414 -0.000701201 0.000312198)
(-0.00135046 -0.000706675 0.000313706)
(-0.00139189 -0.00071551 0.000310793)
(-0.00143071 -0.000728047 0.000304885)
(-0.00146805 -0.000743347 0.00029679)
(-0.00150561 -0.000761109 0.000287285)
(-0.00154389 -0.000780607 0.000276764)
(-0.00158321 -0.000801404 0.000265326)
(-0.00162356 -0.000823191 0.000252896)
(-0.00166475 -0.000845718 0.000239228)
(-0.00170655 -0.000868753 0.000224058)
(-0.00174852 -0.000891978 0.000206879)
(-0.00179036 -0.000915073 0.000187412)
(-0.00183089 -0.000937336 0.000164611)
(-0.00187086 -0.000958513 0.000137802)
(-0.00190706 -0.00097712 0.00010611)
(-0.00193598 -0.000992124 6.73265e-05)
(-0.00195147 -0.00100088 2.2844e-05)
(-0.000304993 -0.000110881 1.74747e-05)
(-0.000373749 -0.000168765 -5.82244e-05)
(-0.000411112 -0.000222456 -5.37705e-05)
(-0.000451582 -0.000281968 -3.99591e-05)
(-0.000503067 -0.000345506 -1.61578e-05)
(-0.000569522 -0.000410566 1.40917e-05)
(-0.000649888 -0.000473265 4.95194e-05)
(-0.000740009 -0.000529424 8.90226e-05)
(-0.000834938 -0.000575803 0.000130629)
(-0.000930008 -0.000610725 0.000171683)
(-0.00102145 -0.000634364 0.000209369)
(-0.00110646 -0.000648531 0.000241254)
(-0.00118297 -0.000655994 0.000265734)
(-0.00125025 -0.000660053 0.000282398)
(-0.00130861 -0.000663569 0.00029181)
(-0.00135943 -0.000668699 0.000295186)
(-0.00140472 -0.000676715 0.00029396)
(-0.0014467 -0.000688112 0.000289542)
(-0.00148654 -0.00070208 0.000282772)
(-0.00152596 -0.000718472 0.000274474)
(-0.00156569 -0.000736624 0.000265068)
(-0.00160604 -0.000756067 0.000254673)
(-0.00164708 -0.000776476 0.000243236)
(-0.00168865 -0.000797587 0.000230514)
(-0.00173058 -0.000819168 0.00021626)
(-0.00177246 -0.000840906 0.000199952)
(-0.00181414 -0.000862494 0.000181374)
(-0.00185436 -0.000883265 0.000159412)
(-0.00189426 -0.000903001 0.000133484)
(-0.00193046 -0.000920356 0.000102882)
(-0.00195923 -0.000934318 6.53431e-05)
(-0.00197437 -0.000942405 2.21927e-05)
(-0.000281279 -8.28623e-05 3.01278e-05)
(-0.000351099 -0.000135455 -5.64694e-05)
(-0.000385134 -0.000182748 -5.53448e-05)
(-0.000420826 -0.000236105 -4.54411e-05)
(-0.000467316 -0.000294335 -2.665e-05)
(-0.000530033 -0.000356012 -1.94333e-06)
(-0.000609008 -0.000418055 2.82756e-05)
(-0.000700093 -0.000475813 6.36777e-05)
(-0.000797734 -0.00052493 0.000102616)
(-0.000896959 -0.000562954 0.000142414)
(-0.000993485 -0.000589416 0.000180059)
(-0.00108385 -0.00060567 0.00021284)
(-0.00116608 -0.000614629 0.000238974)
(-0.00123898 -0.000619462 0.000257709)
(-0.0013027 -0.00062313 0.000269337)
(-0.00135823 -0.000627796 0.000274825)
(-0.00140763 -0.00063494 0.000275555)
(-0.00145281 -0.000645055 0.00027284)
(-0.00149529 -0.000657632 0.000267619)
(-0.00153676 -0.000672598 0.000260729)
(-0.00157789 -0.000689268 0.00025259)
(-0.00161915 -0.000707208 0.000243368)
(-0.00166067 -0.000726082 0.000233029)
(-0.00170236 -0.000745632 0.000221336)
(-0.0017441 -0.000765609 0.000208065)
(-0.00178555 -0.000785725 0.000192678)
(-0.00182665 -0.00080566 0.000175032)
(-0.00186609 -0.000824782 0.000153931)
(-0.0019057 -0.000843034 0.000128921)
(-0.00194155 -0.000859025 9.94653e-05)
(-0.00196995 -0.000871887 6.32486e-05)
(-0.00198452 -0.00087925 2.15072e-05)
(-0.000250586 -5.69922e-05 3.95402e-05)
(-0.000320786 -0.000104029 -5.37169e-05)
(-0.000351884 -0.000145071 -5.57005e-05)
(-0.000382532 -0.000192142 -4.92998e-05)
(-0.000423222 -0.000244439 -3.52803e-05)
(-0.000480788 -0.000301539 -1.62601e-05)
(-0.000556483 -0.00036137 8.09114e-06)
(-0.000647043 -0.000419546 3.84097e-05)
(-0.000746997 -0.000471106 7.37108e-05)
(-0.000850255 -0.000512224 0.000111443)
(-0.000951889 -0.000541629 0.000148474)
(-0.0010484 -0.000560453 0.000181943)
(-0.00113677 -0.000571042 0.000209659)
(-0.00121575 -0.000576676 0.000230559)
(-0.00128502 -0.00058034 0.00024457)
(-0.00134576 -0.000584502 0.000252472)
(-0.00139954 -0.000590655 0.000255442)
(-0.00144837 -0.000599465 0.00025475)
(-0.0014936 -0.000610534 0.000251317)
(-0.00153697 -0.000623866 0.000246008)
(-0.00157944 -0.000638903 0.000239307)
(-0.00162148 -0.000655204 0.0002314)
(-0.00166328 -0.00067243 0.000222282)
(-0.0017048 -0.0006903 0.000211711)
(-0.00174604 -0.000708583 0.000199491)
(-0.00178669 -0.00072698 0.000185075)
(-0.00182691 -0.000745218 0.000168419)
(-0.00186526 -0.000762681 0.000148211)
(-0.00190418 -0.000779347 0.000124127)
(-0.00193951 -0.000793966 9.58825e-05)
(-0.00196728 -0.000805698 6.10596e-05)
(-0.00198115 -0.000812333 2.07946e-05)
(-0.000214492 -3.4475e-05 4.56529e-05)
(-0.000283429 -7.5335e-05 -5.00086e-05)
(-0.000311688 -0.000110308 -5.48118e-05)
(-0.000336603 -0.000150732 -5.13462e-05)
(-0.000369876 -0.000196024 -4.15695e-05)
(-0.00042041 -0.000247066 -2.80647e-05)
(-0.000491914 -0.000303668 -1.00653e-05)
(-0.000581472 -0.000361661 1.41637e-05)
(-0.000682679 -0.000414977 4.4648e-05)
(-0.00078964 -0.000459156 7.93258e-05)
(-0.000896773 -0.000491923 0.000115068)
(-0.000999104 -0.000513307 0.000148697)
(-0.00109401 -0.000525769 0.000177813)
(-0.00117943 -0.000532307 0.000200897)
(-0.00125508 -0.000536131 0.000217537)
(-0.00132129 -0.00053965 0.000228095)
(-0.00137982 -0.000544696 0.000233609)
(-0.00143228 -0.000551961 0.000235193)
(-0.00148045 -0.000561397 0.000233822)
(-0.00152601 -0.000573056 0.00023036)
(-0.00156981 -0.000586351 0.000225293)
(-0.00161248 -0.000600907 0.000218856)
(-0.00165431 -0.000616371 0.000211073)
(-0.00169533 -0.000632484 0.000201712)
(-0.00173566 -0.000648992 0.000190603)
(-0.00177511 -0.000665618 0.0001772)
(-0.00181392 -0.000682075 0.000161565)
(-0.00185058 -0.000697801 0.000142248)
(-0.00188859 -0.000712897 0.000119108)
(-0.00192299 -0.000726076 9.21246e-05)
(-0.00194982 -0.000736655 5.87731e-05)
(-0.00196276 -0.000742548 2.00539e-05)
(-0.000172633 -1.58172e-05 4.80186e-05)
(-0.000238354 -4.98681e-05 -4.5057e-05)
(-0.000264518 -7.90229e-05 -5.24223e-05)
(-0.00028487 -0.000113178 -5.14049e-05)
(-0.000311544 -0.000151636 -4.51788e-05)
(-0.000354395 -0.000195877 -3.67878e-05)
(-0.000417941 -0.000246668 -2.53388e-05)
(-0.00050271 -0.000302008 -8.00808e-06)
(-0.000604447 -0.000356641 1.6464e-05)
(-0.000714678 -0.000403847 4.68378e-05)
(-0.000826585 -0.000439971 8.027e-05)
(-0.000935751 -0.000464787 0.000113539)
(-0.00103752 -0.00047952 0.000143723)
(-0.00112994 -0.000487281 0.000168932)
(-0.00121172 -0.000491101 0.000188199)
(-0.00128384 -0.00049399 0.000201654)
(-0.0013473 -0.000497779 0.000209978)
(-0.00140397 -0.000503499 0.000214191)
(-0.00145522 -0.000511176 0.00021516)
(-0.00150273 -0.000520923 0.000213745)
(-0.00154775 -0.000532353 0.000210509)
(-0.00159088 -0.000545068 0.000205707)
(-0.0016325 -0.000558729 0.000199394)
(-0.00167268 -0.000573046 0.000191334)
(-0.00171174 -0.000587778 0.000181399)
(-0.00174955 -0.00060263 0.00016905)
(-0.00178665 -0.000617368 0.000154487)
(-0.00182133 -0.000631464 0.00013608)
(-0.00185793 -0.000644938 0.00011387)
(-0.00189127 -0.000656723 8.82111e-05)
(-0.00191693 -0.000666183 5.64044e-05)
(-0.00192877 -0.000671379 1.92912e-05)
(-0.000128498 -2.14692e-06 4.73624e-05)
(-0.000188839 -2.90065e-05 -3.91018e-05)
(-0.000213182 -5.24059e-05 -4.8823e-05)
(-0.000228664 -8.01017e-05 -4.9842e-05)
(-0.000246054 -0.000110569 -4.6335e-05)
(-0.000276724 -0.000145915 -4.14121e-05)
(-0.000333687 -0.000190717 -3.55444e-05)
(-0.000414923 -0.000243002 -2.62427e-05)
(-0.000513357 -0.000296517 -9.49711e-06)
(-0.000625044 -0.000346117 1.517e-05)
(-0.000742333 -0.000386405 4.51378e-05)
(-0.00085701 -0.000414564 7.70096e-05)
(-0.000965811 -0.000432151 0.000107704)
(-0.00106516 -0.000441458 0.000134723)
(-0.0011544 -0.000445982 0.000156741)
(-0.00123276 -0.000448362 0.000173236)
(-0.00130169 -0.000450979 0.000184651)
(-0.0013624 -0.000454946 0.000191717)
(-0.00141684 -0.000460757 0.000195304)
(-0.00146672 -0.00046863 0.000196238)
(-0.00151295 -0.000478139 0.000195052)
(-0.00155636 -0.000488968 0.00019205)
(-0.00159745 -0.00050078 0.000187328)
(-0.0016364 -0.00051331 0.000180654)
(-0.0016737 -0.000526283 0.00017194)
(-0.00170941 -0.000539399 0.000160671)
(-0.00174412 -0.000552416 0.000147197)
(-0.00177602 -0.000564858 0.000129674)
(-0.0018111 -0.000576827 0.0001084)
(-0.0018429 -0.000587188 8.41163e-05)
(-0.001867 -0.000595546 5.39376e-05)
(-0.00187749 -0.000600069 1.85004e-05)
(-8.00469e-05 8.12282e-06 4.29074e-05)
(-0.000131394 -1.10608e-05 -3.14305e-05)
(-0.000153934 -2.88133e-05 -4.27001e-05)
(-0.00016677 -5.05152e-05 -4.46472e-05)
(-0.000180735 -7.37909e-05 -4.11372e-05)
(-0.000209141 -0.000100853 -4.11564e-05)
(-0.000245919 -0.000135045 -4.3466e-05)
(-0.000310609 -0.000180623 -3.9422e-05)
(-0.000409762 -0.000234601 -3.0092e-05)
(-0.000523448 -0.00028629 -1.36316e-05)
(-0.000643131 -0.000330099 1.10742e-05)
(-0.000765031 -0.000363384 4.04903e-05)
(-0.000880714 -0.000384532 7.07995e-05)
(-0.000987682 -0.000396282 9.91847e-05)
(-0.00108301 -0.000401374 0.000123533)
(-0.00116765 -0.000403495 0.000143058)
(-0.00124183 -0.000404943 0.00015766)
(-0.00130724 -0.000407364 0.000167883)
(-0.00136503 -0.00041131 0.000174347)
(-0.00141678 -0.000417119 0.000177803)
(-0.00146401 -0.000424642 0.000178863)
(-0.00150749 -0.000433571 0.000177828)
(-0.00154775 -0.000443576 0.000174832)
(-0.00158508 -0.000454377 0.000169633)
(-0.00162019 -0.000465682 0.000162188)
(-0.00165334 -0.000477166 0.000152029)
(-0.00168542 -0.000488628 0.000139699)
(-0.00171437 -0.00049964 0.000123069)
(-0.00174726 -0.000510087 0.000102687)
(-0.00177748 -0.000519149 7.98531e-05)
(-0.00179977 -0.000526499 5.13864e-05)
(-0.00180875 -0.000530436 1.76874e-05)
(-4.22238e-05 1.1002e-05 3.8043e-05)
(-8.54615e-05 -2.302e-06 -2.2543e-05)
(-0.000105423 -1.29176e-05 -3.55009e-05)
(-0.000117775 -2.91484e-05 -3.92845e-05)
(-0.000125862 -4.58741e-05 -4.30116e-05)
(-0.000130136 -6.93099e-05 -3.62435e-05)
(-0.000171202 -9.09372e-05 -2.97019e-05)
(-0.000233256 -0.000122954 -4.37222e-05)
(-0.000303212 -0.000169007 -5.06651e-05)
(-0.000409204 -0.000223768 -3.91014e-05)
(-0.000533761 -0.000272699 -1.98806e-05)
(-0.000657591 -0.00030943 5.28401e-06)
(-0.000779751 -0.000335195 3.40229e-05)
(-0.000893116 -0.000349942 6.27547e-05)
(-0.000996759 -0.000357278 8.91268e-05)
(-0.00108803 -0.000359795 0.000111477)
(-0.00116816 -0.000360628 0.000129342)
(-0.00123771 -0.00036151 0.000142779)
(-0.0012987 -0.000363652 0.000152304)
(-0.0013529 -0.000367629 0.00015857)
(-0.00140114 -0.000373246 0.000162081)
(-0.00144441 -0.00038033 0.000163166)
(-0.00148347 -0.000388583 0.00016201)
(-0.00151865 -0.00039775 0.000158353)
(-0.00155103 -0.000407491 0.000152198)
(-0.00158108 -0.000417453 0.000143154)
(-0.00160968 -0.000427416 0.000131968)
(-0.00163459 -0.000436999 0.000116173)
(-0.0016654 -0.000446156 9.66914e-05)
(-0.00169344 -0.000453897 7.53645e-05)
(-0.00171357 -0.000460319 4.87157e-05)
(-0.00172071 -0.000463702 1.68378e-05)
(-1.28173e-05 1.25155e-05 2.61971e-05)
(-2.21045e-05 8.87681e-07 -1.67367e-05)
(-4.00548e-05 -4.52907e-06 -2.00192e-05)
(-4.76223e-05 -1.0594e-05 -3.30153e-05)
(-4.80694e-05 -2.41238e-05 -3.59326e-05)
(-4.60453e-05 -3.38856e-05 -2.71641e-05)
(-5.60832e-05 -4.3239e-05 -2.33841e-05)
(-0.000100056 -7.61453e-05 -2.83089e-05)
(-0.000197534 -0.000115083 -3.9209e-05)
(-0.000294674 -0.000157355 -5.25603e-05)
(-0.000407552 -0.000208808 -4.44909e-05)
(-0.000540849 -0.000254212 -2.49909e-05)
(-0.000668434 -0.000285138 -3.79587e-07)
(-0.000789184 -0.000304786 2.736e-05)
(-0.000897488 -0.000314116 5.45669e-05)
(-0.000994702 -0.000317681 7.91828e-05)
(-0.0010797 -0.000318205 9.99898e-05)
(-0.0011541 -0.000318184 0.000116717)
(-0.00121846 -0.000318852 0.000129431)
(-0.0012741 -0.000320948 0.000138552)
(-0.00132289 -0.000324735 0.00014464)
(-0.00136565 -0.000330097 0.000147977)
(-0.00140311 -0.000336738 0.00014877)
(-0.00143573 -0.000344433 0.000146726)
(-0.00146493 -0.000352799 0.000141881)
(-0.00149148 -0.00036142 0.000133967)
(-0.0015165 -0.000370143 0.000123988)
(-0.00153755 -0.000378652 0.000109052)
(-0.0015653 -0.00038649 9.03903e-05)
(-0.00159145 -0.000393141 7.06717e-05)
(-0.00160899 -0.000398721 4.59376e-05)
(-0.00161424 -0.000401655 1.59574e-05)
(7.56044e-06 1.06683e-05 1.78542e-05)
(6.524e-06 2.33674e-06 -9.15962e-06)
(-1.82907e-06 4.10431e-07 -1.51761e-05)
(-9.85333e-06 -3.3381e-06 -2.31051e-05)
(-1.65996e-05 -1.14402e-05 -2.54998e-05)
(-2.16711e-05 -1.56609e-05 -2.41495e-05)
(-2.5611e-05 -2.27453e-05 -2.61715e-05)
(-4.48527e-05 -5.26686e-05 -2.832e-05)
(-7.14248e-05 -5.33147e-05 -1.72039e-05)
(-0.000184887 -9.74282e-05 -3.96244e-05)
(-0.00030263 -0.000145226 -5.54383e-05)
(-0.000413713 -0.000192692 -5.10661e-05)
(-0.000543349 -0.000232589 -3.06316e-05)
(-0.0006674 -0.00025654 -5.58825e-06)
(-0.000784361 -0.000270861 2.11343e-05)
(-0.000887625 -0.000276768 4.7054e-05)
(-0.000978448 -0.000278247 7.03738e-05)
(-0.00105633 -0.000277663 9.00544e-05)
(-0.00112325 -0.000277196 0.000105858)
(-0.00118114 -0.000278021 0.000117992)
(-0.00123049 -0.0002803 0.000126775)
(-0.00127233 -0.000284145 0.000132447)
(-0.00130776 -0.000289361 0.000135259)
(-0.0013372 -0.000295766 0.000134855)
(-0.00136256 -0.000302929 0.000131286)
(-0.00138502 -0.000310347 0.000124475)
(-0.00140543 -0.000317873 0.00011568)
(-0.00142098 -0.000325193 0.000101497)
(-0.00144635 -0.000332113 8.37023e-05)
(-0.00146965 -0.000337586 6.56533e-05)
(-0.0014846 -0.000342508 4.29876e-05)
(-0.00148759 -0.000344995 1.5018e-05)
(2.4154e-05 4.96636e-06 2.79511e-05)
(2.05286e-05 1.17594e-05 2.76945e-06)
(1.89578e-05 8.8767e-06 -1.00807e-05)
(9.17195e-06 4.0207e-06 -5.84341e-06)
(-2.03874e-06 4.16761e-06 -9.85102e-06)
(-1.4313e-05 1.32017e-06 -2.02784e-05)
(-1.96729e-05 -6.28646e-06 -2.67932e-05)
(-1.83218e-05 -1.29242e-05 -2.34074e-05)
(-2.18261e-05 -2.07565e-05 -1.85893e-05)
(-5.59127e-05 -3.61398e-05 -2.39802e-05)
(-0.000156228 -8.7808e-05 -4.67202e-05)
(-0.000287286 -0.000135748 -5.57576e-05)
(-0.000409713 -0.000174797 -5.13029e-05)
(-0.000543621 -0.000209582 -3.34107e-05)
(-0.000661627 -0.000227612 -9.49316e-06)
(-0.000769406 -0.000236986 1.64157e-05)
(-0.000863452 -0.000239949 4.1219e-05)
(-0.000945658 -0.00024007 6.34438e-05)
(-0.00101548 -0.000239343 8.21496e-05)
(-0.00107368 -0.000239065 9.70364e-05)
(-0.00112266 -0.000240114 0.000108446)
(-0.00116313 -0.000242758 0.000116465)
(-0.00119604 -0.000246796 0.000121323)
(-0.00122185 -0.000252166 0.000122574)
(-0.00124303 -0.000258387 0.000120249)
(-0.00126121 -0.000264813 0.000114537)
(-0.00127733 -0.000271447 0.000107011)
(-0.00128859 -0.000278072 9.36661e-05)
(-0.00130981 -0.000283909 7.66071e-05)
(-0.00133126 -0.000288584 6.0378e-05)
(-0.00134279 -0.000292825 3.9881e-05)
(-0.00134361 -0.000294932 1.40257e-05)
(3.30671e-05 1.21829e-05 3.46625e-05)
(4.02012e-05 7.38444e-06 -7.00276e-06)
(4.36373e-05 3.09662e-06 -1.09386e-05)
(3.97357e-05 -4.84652e-06 -1.18507e-05)
(3.17887e-05 -1.12781e-05 -1.04458e-05)
(2.09325e-05 -1.33998e-05 -6.07758e-06)
(5.06423e-06 -6.77744e-06 -8.75576e-06)
(-4.30563e-06 -3.79007e-06 -1.48992e-05)
(-1.5662e-05 -2.73766e-06 -2.64211e-05)
(-2.22044e-05 -1.46818e-05 -2.83702e-05)
(-4.64506e-05 -3.85726e-05 -2.78686e-05)
(-0.000160136 -7.99086e-05 -3.55127e-05)
(-0.000303925 -0.000114933 -5.78904e-05)
(-0.000404705 -0.000154337 -5.71643e-05)
(-0.000529416 -0.000183331 -3.51676e-05)
(-0.000640834 -0.000197005 -1.10527e-05)
(-0.000739838 -0.00020358 1.39177e-05)
(-0.00082353 -0.000204925 3.76767e-05)
(-0.000894027 -0.000204529 5.86572e-05)
(-0.000953816 -0.000204296 7.61294e-05)
(-0.00100256 -0.000204772 9.00621e-05)
(-0.00104108 -0.000206599 0.000100334)
(-0.00107096 -0.000209769 0.000107192)
(-0.00109246 -0.000214328 0.000110043)
(-0.00110874 -0.000219783 0.000108831)
(-0.00112203 -0.000225284 0.000104132)
(-0.00113242 -0.000230873 9.77897e-05)
(-0.00113661 -0.000236293 8.51125e-05)
(-0.00115583 -0.000241787 6.8969e-05)
(-0.00117379 -0.000245411 5.46095e-05)
(-0.00118244 -0.000249214 3.6499e-05)
(-0.00118086 -0.00025083 1.29309e-05)
(4.38579e-05 1.35232e-05 4.17547e-05)
(5.98934e-05 1.06676e-05 -7.95877e-06)
(6.58685e-05 6.8295e-06 -1.50373e-05)
(6.72662e-05 -7.1422e-07 -1.88526e-05)
(6.45011e-05 -9.21362e-06 -2.00529e-05)
(5.75199e-05 -1.65563e-05 -1.92704e-05)
(4.46975e-05 -2.26695e-05 -1.82582e-05)
(3.17843e-05 -2.3734e-05 -1.70176e-05)
(1.55133e-05 -1.78054e-05 -1.53433e-05)
(-4.66416e-06 -1.01272e-05 -2.05022e-05)
(-2.68152e-05 -9.91055e-06 -3.2607e-05)
(-3.70308e-05 -2.61687e-05 -3.18795e-05)
(-0.000134937 -9.36166e-05 -4.71242e-05)
(-0.000284528 -0.000113571 -4.43303e-05)
(-0.000396499 -0.000134644 -5.2237e-05)
(-0.000508852 -0.000157553 -3.38663e-05)
(-0.000606025 -0.00016714 -1.03437e-05)
(-0.000692567 -0.000171567 1.38759e-05)
(-0.000764691 -0.000172958 3.63799e-05)
(-0.000822398 -0.000172992 5.56255e-05)
(-0.000869148 -0.000173314 7.16322e-05)
(-0.000905075 -0.000174808 8.39128e-05)
(-0.000931389 -0.000177434 9.26148e-05)
(-0.000948221 -0.000181434 9.69706e-05)
(-0.000959508 -0.000186384 9.67453e-05)
(-0.000968243 -0.000191126 9.30389e-05)
(-0.000974412 -0.00019596 8.80418e-05)
(-0.000975047 -0.000200933 7.62766e-05)
(-0.000988432 -0.00020543 6.08033e-05)
(-0.00100509 -0.000208654 4.85333e-05)
(-0.00100995 -0.000211866 3.29013e-05)
(-0.00100623 -0.000212955 1.17505e-05)
(5.26206e-05 1.30096e-05 4.42787e-05)
(7.37587e-05 1.0008e-05 -7.24325e-06)
(8.3513e-05 6.35898e-06 -1.57392e-05)
(8.88849e-05 -9.97331e-07 -2.115e-05)