/*--------------------------------*- C++ -*----------------------------------*\
  =========                 |
  \\      /  F ield         | OpenFOAM: The Open Source CFD Toolbox
   \\    /   O peration     | Website:  https://openfoam.org
    \\  /    A nd           | Version:  6
     \\/     M anipulation  |
\*---------------------------------------------------------------------------*/
FoamFile
{
    version     2.0;
    format      ascii;
    class       volVectorField;
    location    "0.4";
    object      wallShearStress;
}
// * * * * * * * * * * * * * * * * * * * * * * * * * * * * * * * * * * * * * //

dimensions      [0 2 -2 0 0 0 0];

internalField   uniform (0 0 0);

boundaryField
{
    inlet
    {
        type            calculated;
        value           uniform (0 0 0);
    }
    outlet
    {
        type            calculated;
        value           uniform (0 0 0);
    }
    roughCylinder
    {
        type            calculated;
        value           nonuniform List<vector> 
5120
(
(-0.000277392 -0.000346887 -0.000196519)
(-0.000277499 -0.000440763 -9.05214e-05)
(-0.000320452 -0.000523986 9.0921e-06)
(-0.000379963 -0.000587668 7.30418e-05)
(-0.000432953 -0.000614339 0.000116517)
(-0.000472682 -0.000613501 0.000141582)
(-0.000502115 -0.000600762 0.000153744)
(-0.00052584 -0.000588204 0.000160671)
(-0.000545565 -0.000578549 0.000166779)
(-0.000560088 -0.000570603 0.000171255)
(-0.000569687 -0.000563902 0.000173306)
(-0.000575193 -0.000558128 0.000173422)
(-0.00058259 -0.000557748 0.000173079)
(-0.000589202 -0.000559346 0.000171232)
(-0.000594237 -0.000561706 0.000167765)
(-0.000593379 -0.000560329 0.000161896)
(-0.000599231 -0.000565754 0.000156929)
(-0.000602403 -0.000569279 0.000150305)
(-0.000608974 -0.000576538 0.00014371)
(-0.000608148 -0.000577552 0.000134934)
(-0.000608658 -0.000579849 0.00012608)
(-0.000607711 -0.000580557 0.000116562)
(-0.000613124 -0.00058679 0.000107694)
(-0.00061071 -0.000586274 9.7252e-05)
(-0.000610523 -0.000587547 8.70433e-05)
(-0.00061051 -0.000588932 7.65896e-05)
(-0.000606546 -0.00058647 6.55102e-05)
(-0.000605164 -0.000586139 5.45571e-05)
(-0.000602514 -0.000584759 4.32994e-05)
(-0.000595923 -0.000579684 3.18139e-05)
(-0.000598047 -0.000582163 2.17304e-05)
(-0.000593097 -0.000576493 8.62244e-06)
(-0.000206854 -0.000230013 -0.000127703)
(-0.00028325 -0.000409966 -9.45525e-05)
(-0.000352804 -0.000531569 -3.52209e-07)
(-0.000413946 -0.000596639 6.63562e-05)
(-0.000469104 -0.000624535 0.00011187)
(-0.000510821 -0.000624829 0.000137552)
(-0.000542352 -0.000614359 0.000150051)
(-0.000568181 -0.000604277 0.000158108)
(-0.000588961 -0.000595215 0.000165428)
(-0.000603833 -0.000585927 0.000170445)
(-0.000613599 -0.000578422 0.000172707)
(-0.000620026 -0.000572749 0.000173117)
(-0.000628631 -0.000572767 0.000172929)
(-0.000635205 -0.000573952 0.000170858)
(-0.00063901 -0.00057507 0.000166969)
(-0.000639591 -0.000575021 0.000161465)
(-0.000645408 -0.000580202 0.000156305)
(-0.000648421 -0.000583558 0.00014955)
(-0.000654948 -0.000590593 0.000142835)
(-0.000654831 -0.000592344 0.000134245)
(-0.000657288 -0.000596329 0.000125746)
(-0.000656773 -0.000597567 0.000116305)
(-0.000661636 -0.000603156 0.000107303)
(-0.000660457 -0.00060391 9.71208e-05)
(-0.000661237 -0.000606099 8.70659e-05)
(-0.000662645 -0.000608719 7.67643e-05)
(-0.000659228 -0.000607055 6.57574e-05)
(-0.000657204 -0.000606273 5.4753e-05)
(-0.000656425 -0.000606709 4.36074e-05)
(-0.000649674 -0.000601905 3.20775e-05)
(-0.000653124 -0.000605434 2.19938e-05)
(-0.000647398 -0.000599358 8.75075e-06)
(-0.000431472 -0.000425382 -0.000220916)
(-0.000353449 -0.000458011 -0.000118324)
(-0.000384898 -0.000531271 -1.22126e-05)
(-0.00044979 -0.000600765 5.82782e-05)
(-0.000507564 -0.000630698 0.000106087)
(-0.000551763 -0.000633215 0.000132792)
(-0.000585897 -0.000625788 0.000146348)
(-0.000613805 -0.000617988 0.000155896)
(-0.000635434 -0.000609244 0.000164259)
(-0.000650803 -0.000599089 0.000169781)
(-0.000660837 -0.000590831 0.000172235)
(-0.000668244 -0.000585233 0.000172787)
(-0.000677498 -0.000585106 0.000172512)
(-0.000683758 -0.000585676 0.000170153)
(-0.000686676 -0.000585942 0.000165976)
(-0.000688864 -0.000587197 0.000160802)
(-0.00069446 -0.000591984 0.000155414)
(-0.000697432 -0.000595283 0.000148575)
(-0.000703978 -0.000602118 0.000141772)
(-0.000704882 -0.000604765 0.0001334)
(-0.000709188 -0.000610174 0.000125191)
(-0.000709545 -0.000612274 0.000115903)
(-0.000713557 -0.00061704 0.000106758)
(-0.000713723 -0.000619029 9.68388e-05)
(-0.00071573 -0.000622246 8.69611e-05)
(-0.000718685 -0.000626087 7.68173e-05)
(-0.000715494 -0.000624925 6.58684e-05)
(-0.000713437 -0.000624306 5.48923e-05)
(-0.000714234 -0.000626104 4.38328e-05)
(-0.000707396 -0.000621682 3.22847e-05)
(-0.000712183 -0.000626144 2.2218e-05)
(-0.000706012 -0.000620038 8.87179e-06)
(-0.00019393 -0.000166406 -7.83279e-05)
(-0.000342985 -0.000399141 -0.00011698)
(-0.0004184 -0.000527285 -2.40075e-05)
(-0.000486175 -0.000600463 4.90302e-05)
(-0.000546722 -0.000633106 9.90298e-05)
(-0.000594238 -0.000639194 0.000127234)
(-0.000631278 -0.000635301 0.000142476)
(-0.00066125 -0.000629592 0.000153805)
(-0.00068378 -0.00062111 0.000163162)
(-0.000699919 -0.000610607 0.000169274)
(-0.00071027 -0.00060142 0.000171912)
(-0.00071856 -0.000595739 0.000172457)
(-0.00072799 -0.000595074 0.000171929)
(-0.000733899 -0.000595057 0.000169288)
(-0.000736412 -0.000594923 0.000164949)
(-0.000740103 -0.000597238 0.000159999)
(-0.000745515 -0.000601711 0.000154407)
(-0.000748667 -0.000605131 0.000147537)
(-0.000755305 -0.000611812 0.000140665)
(-0.000757564 -0.000615511 0.000132533)
(-0.000763341 -0.000621879 0.00012451)
(-0.000764812 -0.000624957 0.000115399)
(-0.00076825 -0.000629234 0.000106188)
(-0.000770038 -0.000632545 9.65402e-05)
(-0.000773242 -0.000636653 8.68139e-05)
(-0.000777145 -0.000641123 7.67585e-05)
(-0.000775037 -0.00064115 6.59576e-05)
(-0.000772572 -0.000640397 5.49852e-05)
(-0.000775277 -0.000643686 4.40277e-05)
(-0.000768815 -0.000640044 3.24902e-05)
(-0.000774328 -0.000644829 2.24231e-05)
(-0.00076814 -0.000639065 8.99359e-06)
(-0.000575917 -0.000431375 -0.000173412)
(-0.000429127 -0.000443307 -0.000145532)
(-0.000451985 -0.000518583 -3.81523e-05)
(-0.000521917 -0.00059497 3.81688e-05)
(-0.000586308 -0.00063177 9.07033e-05)
(-0.00063762 -0.000642273 0.000120895)
(-0.000677877 -0.00064218 0.00013838)
(-0.000709973 -0.000638365 0.000151676)
(-0.000733617 -0.000630209 0.000162034)
(-0.000750554 -0.000619616 0.000168743)
(-0.000761378 -0.000609415 0.000171578)
(-0.000770302 -0.000603393 0.000172027)
(-0.000779605 -0.00060197 0.000171177)
(-0.000785293 -0.000601493 0.000168303)
(-0.000787893 -0.000601339 0.000163896)
(-0.000792812 -0.000604386 0.000159052)
(-0.000798186 -0.000608692 0.0001533)
(-0.000801716 -0.000612373 0.000146436)
(-0.000808515 -0.000618945 0.000139513)
(-0.000812209 -0.000623631 0.000131598)
(-0.000819126 -0.000630598 0.00012369)
(-0.0008221 -0.000634844 0.000114801)
(-0.000825238 -0.000638917 0.000105586)
(-0.000828506 -0.000643294 9.61662e-05)
(-0.000832893 -0.000648185 8.65801e-05)
(-0.000837804 -0.0006533 7.66301e-05)
(-0.000836769 -0.000654385 6.59752e-05)
(-0.000834749 -0.000654215 5.50751e-05)
(-0.000838657 -0.000658296 4.41728e-05)
(-0.000832883 -0.000655631 3.26695e-05)
(-0.000839043 -0.000660636 2.26106e-05)
(-0.000833302 -0.000655556 9.11599e-06)
(-0.000344107 -0.000220495 -6.96751e-05)
(-0.000419846 -0.000384718 -0.000143616)
(-0.000482989 -0.000502656 -5.16353e-05)
(-0.000557374 -0.000585221 2.61451e-05)
(-0.000625787 -0.000626829 8.11058e-05)
(-0.000681566 -0.000642497 0.000113862)
(-0.00072533 -0.000646182 0.000134052)
(-0.000759747 -0.000644071 0.000149429)
(-0.000784763 -0.000636258 0.000160825)
(-0.000802531 -0.000625606 0.000168047)
(-0.000814057 -0.000614588 0.000171106)
(-0.000823307 -0.000607913 0.000171453)
(-0.000832344 -0.000605638 0.000170262)
(-0.000838004 -0.000604833 0.000167206)
(-0.000841081 -0.000604892 0.000162779)
(-0.000846907 -0.000608352 0.000157937)
(-0.000852459 -0.000612658 0.000152079)
(-0.000856544 -0.000616688 0.000145246)
(-0.00086355 -0.000623175 0.000138283)
(-0.000868702 -0.000628745 0.000130562)
(-0.000876448 -0.000636019 0.000122723)
(-0.000881002 -0.000641346 0.000114054)
(-0.00088429 -0.000645569 0.000104909)
(-0.000889097 -0.000650933 9.57083e-05)
(-0.000894571 -0.000656449 8.62511e-05)
(-0.000900242 -0.000661982 7.63974e-05)
(-0.000900948 -0.000664492 6.59415e-05)
(-0.000899149 -0.000664716 5.51017e-05)
(-0.000904456 -0.000669655 4.42747e-05)
(-0.000899875 -0.000668261 3.28323e-05)
(-0.000906056 -0.000672995 2.2774e-05)
(-0.00090117 -0.000668834 9.23495e-06)
(-0.000645874 -0.000352147 -7.46139e-05)
(-0.000490325 -0.000395737 -0.000165311)
(-0.000515272 -0.000484006 -6.72323e-05)
(-0.000591364 -0.00057096 1.2336e-05)
(-0.000664622 -0.000618468 7.01921e-05)
(-0.000725314 -0.000639689 0.000106088)
(-0.000773013 -0.000647101 0.000129384)
(-0.000810045 -0.00064652 0.000146925)
(-0.000836802 -0.000639116 0.000159411)
(-0.000855563 -0.000628383 0.000167076)
(-0.000868022 -0.000616881 0.00017043)
(-0.000877365 -0.000609284 0.000170711)
(-0.000886098 -0.000606134 0.000169183)
(-0.000891903 -0.000605077 0.000165975)
(-0.000895689 -0.000605434 0.000161537)
(-0.000902156 -0.000609067 0.000156628)
(-0.000908104 -0.0006135 0.000150706)
(-0.000912871 -0.000617914 0.000143916)
(-0.000920161 -0.000624362 0.000136934)
(-0.000926685 -0.000630644 0.000129376)
(-0.000935087 -0.000638065 0.000121591)
(-0.000941339 -0.000644406 0.000113147)
(-0.00094515 -0.00064902 0.000104126)
(-0.000951304 -0.000655122 9.51173e-05)
(-0.000957763 -0.00066113 8.57896e-05)
(-0.000964469 -0.000667224 7.60723e-05)
(-0.000966816 -0.00067092 6.58049e-05)
(-0.000966004 -0.000672062 5.5084e-05)
(-0.000972141 -0.00067737 4.43129e-05)
(-0.000968822 -0.000677174 3.29451e-05)
(-0.000975221 -0.000681805 2.2913e-05)
(-0.000971421 -0.000678619 9.34785e-06)
(-0.000631472 -0.00028878 -2.05439e-05)
(-0.000510771 -0.000359034 -0.000169724)
(-0.000543878 -0.000458834 -8.29596e-05)
(-0.000623573 -0.000552479 -2.91284e-06)
(-0.000702053 -0.000606556 5.79944e-05)
(-0.000768193 -0.000633652 9.75679e-05)
(-0.00082018 -0.000644602 0.00012426)
(-0.000860229 -0.000645462 0.000144026)
(-0.000889086 -0.000638523 0.000157647)
(-0.000909157 -0.000627801 0.000165764)
(-0.000922718 -0.000616184 0.000169484)
(-0.000932103 -0.00060741 0.000169746)
(-0.000940549 -0.000603401 0.000167915)
(-0.000946641 -0.000602119 0.000164573)
(-0.000951244 -0.000602748 0.000160112)
(-0.000958204 -0.000606424 0.000155102)
(-0.000964716 -0.000611055 0.000149146)
(-0.000970263 -0.000615858 0.000142407)
(-0.000977925 -0.000622315 0.000135427)
(-0.000985739 -0.000629157 0.000128015)
(-0.000994745 -0.000636667 0.000120293)
(-0.00100265 -0.000643837 0.000112058)
(-0.00100725 -0.00064898 0.0001032)
(-0.00101476 -0.000655734 9.43863e-05)
(-0.00102221 -0.000662176 8.52017e-05)
(-0.00103 -0.000668795 7.56375e-05)
(-0.00103414 -0.000673631 6.5572e-05)
(-0.00103429 -0.000675594 5.49781e-05)
(-0.00104146 -0.000681362 4.42903e-05)
(-0.00103976 -0.00068248 3.30199e-05)
(-0.00104593 -0.000686731 2.30208e-05)
(-0.00104336 -0.000684492 9.4507e-06)
(-0.00084477 -0.000318959 3.39935e-05)
(-0.000568255 -0.000344338 -0.000183373)
(-0.000571793 -0.000430152 -9.96738e-05)
(-0.000653234 -0.000529856 -1.97936e-05)
(-0.000737312 -0.000591023 4.45291e-05)
(-0.000809304 -0.000624066 8.82335e-05)
(-0.000866149 -0.000638466 0.000118562)
(-0.00090961 -0.000640658 0.000140612)
(-0.000940956 -0.000634212 0.000155432)
(-0.000962643 -0.000623551 0.000164087)
(-0.000977277 -0.000611885 0.000168124)
(-0.000987105 -0.000602166 0.000168449)
(-0.00099531 -0.000597297 0.000166421)
(-0.00100173 -0.00059573 0.000162946)
(-0.00100716 -0.000596555 0.000158442)
(-0.00101455 -0.000600211 0.000153323)
(-0.00102171 -0.00060504 0.000147348)
(-0.0010281 -0.000610213 0.000140668)
(-0.00103625 -0.000616729 0.000133718)
(-0.00104525 -0.000623989 0.00012644)
(-0.00105489 -0.000631576 0.000118803)
(-0.00106435 -0.000639387 0.000110764)
(-0.00106995 -0.000645125 0.0001021)
(-0.00107872 -0.000652383 9.34803e-05)
(-0.0010871 -0.000659183 8.4455e-05)
(-0.00109616 -0.000666356 7.50728e-05)
(-0.00110197 -0.00067212 6.52086e-05)
(-0.00110355 -0.000675113 5.47835e-05)
(-0.00111145 -0.000681092 4.41851e-05)
(-0.00111122 -0.000683305 3.30235e-05)
(-0.0011175 -0.000687428 2.30927e-05)
(-0.00111622 -0.000686037 9.54045e-06)
(-0.000906534 -0.000277905 9.74272e-05)
(-0.00062802 -0.000321422 -0.000195298)
(-0.000597294 -0.000397456 -0.000116494)
(-0.00067936 -0.000502914 -3.81911e-05)
(-0.000769518 -0.000571685 2.98518e-05)
(-0.00084799 -0.00061084 7.80543e-05)
(-0.000910134 -0.000628485 0.000112177)
(-0.000957491 -0.000631932 0.000136584)
(-0.000991762 -0.000625993 0.000152681)
(-0.00101538 -0.000615422 0.000161969)
(-0.00103127 -0.000603712 0.000166294)
(-0.00104188 -0.000593452 0.000166782)
(-0.00104994 -0.000587661 0.000164665)
(-0.0010567 -0.000585763 0.000161051)
(-0.00106292 -0.000586666 0.000156487)
(-0.00107075 -0.000590283 0.000151269)
(-0.0010786 -0.000595277 0.000145284)
(-0.00108588 -0.000600787 0.000138672)
(-0.00109461 -0.000607406 0.00013178)
(-0.00110472 -0.000614965 0.000124636)
(-0.00111507 -0.000622644 0.000117111)
(-0.00112595 -0.000630903 0.000109257)
(-0.00113267 -0.000637243 0.00010081)
(-0.0011427 -0.000644934 9.23977e-05)
(-0.00115208 -0.00065209 8.35585e-05)
(-0.00116246 -0.000659746 7.43749e-05)
(-0.00116985 -0.000666276 6.47185e-05)
(-0.00117293 -0.000670235 5.44817e-05)
(-0.00118168 -0.000676473 4.40017e-05)
(-0.00118308 -0.000679752 3.29697e-05)
(-0.00118924 -0.00068364 2.31249e-05)
(-0.00118916 -0.000682902 9.61429e-06)
(-0.000904343 -0.000218657 0.000154738)
(-0.000696395 -0.000292391 -0.000206043)
(-0.000624604 -0.000363659 -0.000134352)
(-0.000701851 -0.000471944 -5.80119e-05)
(-0.000797997 -0.000548566 1.39379e-05)
(-0.000883311 -0.000593751 6.69151e-05)
(-0.000951466 -0.000614635 0.00010499)
(-0.00100324 -0.000619276 0.00013186)
(-0.0010408 -0.000613767 0.000149325)
(-0.00106666 -0.000603281 0.000159339)
(-0.00108404 -0.000591539 0.000163977)
(-0.00109568 -0.000581083 0.000164688)
(-0.00110389 -0.000574383 0.000162572)
(-0.00111096 -0.000572072 0.000158839)
(-0.00111788 -0.000572938 0.000154204)
(-0.0011262 -0.000576498 0.000148906)
(-0.00113472 -0.000581603 0.000142919)
(-0.0011429 -0.000587394 0.000136383)
(-0.00115231 -0.000594134 0.000129577)
(-0.00116342 -0.000601885 0.000122571)
(-0.00117457 -0.000609668 0.000115186)
(-0.00118669 -0.000618199 0.000107512)
(-0.00119459 -0.000625122 9.93058e-05)
(-0.00120582 -0.000633151 9.11134e-05)
(-0.00121622 -0.000640635 8.24853e-05)
(-0.00122789 -0.000648664 7.35161e-05)
(-0.00123679 -0.000655826 6.40807e-05)
(-0.00124149 -0.000660706 5.40582e-05)
(-0.0012509 -0.00066705 4.37163e-05)
(-0.00125375 -0.000671185 3.28321e-05)
(-0.00126006 -0.000675006 2.31085e-05)
(-0.00126107 -0.000674755 9.66824e-06)
(-0.000959588 -0.000169939 0.000222288)
(-0.000745544 -0.000250052 -0.000208987)
(-0.000649117 -0.00032523 -0.00015095)
(-0.000719277 -0.000436472 -7.869e-05)
(-0.000821534 -0.000521395 -3.21901e-06)
(-0.000914586 -0.000572841 5.47146e-05)
(-0.00098938 -0.000596922 9.68786e-05)
(-0.00104612 -0.000602698 0.000126351)
(-0.00108739 -0.000597546 0.000145311)
(-0.00111579 -0.00058708 0.000156149)
(-0.00113489 -0.000575286 0.000161183)
(-0.00114767 -0.000564736 0.00016209)
(-0.00115654 -0.00055742 0.00016006)
(-0.00116394 -0.000554617 0.000156283)
(-0.00117147 -0.000555331 0.000151572)
(-0.00118031 -0.000558809 0.000146216)
(-0.00118949 -0.00056398 0.000140238)
(-0.00119856 -0.000569997 0.000133792)
(-0.00120872 -0.000576874 0.000127099)
(-0.00122077 -0.000584745 0.000120245)
(-0.00123279 -0.000592634 0.000113025)
(-0.00124598 -0.00060131 0.000105535)
(-0.00125513 -0.000608766 9.75909e-05)
(-0.00126753 -0.00061706 8.96355e-05)
(-0.00127901 -0.000624858 8.12459e-05)
(-0.00129189 -0.000633172 7.25057e-05)
(-0.00130219 -0.00064088 6.33062e-05)
(-0.0013085 -0.000646617 5.3517e-05)
(-0.00131864 -0.000653138 4.33437e-05)
(-0.00132287 -0.000658078 3.26275e-05)
(-0.00132923 -0.000661808 2.30466e-05)
(-0.00133121 -0.000661744 9.70217e-06)
(-0.00104182 -0.000117779 0.000299947)
(-0.000801343 -0.000207126 -0.000210851)
(-0.000673247 -0.000283368 -0.000166572)
(-0.000732278 -0.000397536 -9.98733e-05)
(-0.000839888 -0.000490548 -2.15718e-05)
(-0.000940921 -0.000548084 4.13539e-05)
(-0.00102312 -0.000575454 8.77405e-05)
(-0.00108549 -0.000582367 0.000120005)
(-0.00113087 -0.000577433 0.000140599)
(-0.00116207 -0.000566873 0.00015236)
(-0.00118312 -0.000554962 0.000157874)
(-0.00119721 -0.000544315 0.000158975)
(-0.00120706 -0.000536774 0.000157086)
(-0.00121494 -0.000533374 0.000153333)
(-0.00122302 -0.000533865 0.00014857)
(-0.00123239 -0.000537221 0.000143178)
(-0.0012422 -0.000542403 0.000137227)
(-0.00125212 -0.000548585 0.000130884)
(-0.00126304 -0.00055557 0.000124326)
(-0.00127591 -0.000563471 0.000117637)
(-0.00128878 -0.000571467 0.000110607)
(-0.00130286 -0.000580268 0.000103314)
(-0.00131325 -0.000588287 9.56532e-05)
(-0.00132675 -0.00059687 8.79553e-05)
(-0.0013393 -0.000604998 7.98292e-05)
(-0.00135315 -0.000613433 7.13293e-05)
(-0.00136465 -0.000621479 6.23774e-05)
(-0.00137237 -0.000627849 5.28351e-05)
(-0.00138294 -0.000634364 4.2854e-05)
(-0.00138823 -0.000639825 3.23247e-05)
(-0.00139468 -0.000643495 2.29115e-05)
(-0.00139764 -0.000643581 9.70374e-06)
(-0.0009905 -4.91518e-05 0.000340087)
(-0.000834576 -0.00015566 -0.00020503)
(-0.000695592 -0.000237721 -0.000180212)
(-0.000739193 -0.000354571 -0.000120864)
(-0.000851385 -0.000455493 -4.10514e-05)
(-0.000961479 -0.00051957 2.67443e-05)
(-0.00105199 -0.000550436 7.74919e-05)
(-0.00112065 -0.000558478 0.000112758)
(-0.00117052 -0.000553603 0.000135152)
(-0.00120484 -0.000542815 0.000147943)
(-0.00122805 -0.00053069 0.000154023)
(-0.00124363 -0.000519908 0.000155391)
(-0.00125453 -0.000512254 0.00015361)
(-0.00126328 -0.000508574 0.000149941)
(-0.00127186 -0.000508671 0.000145188)
(-0.00128175 -0.000511847 0.000139788)
(-0.00129216 -0.000517002 0.000133889)
(-0.00130287 -0.00052335 0.000127669)
(-0.00131456 -0.000530521 0.000121276)
(-0.00132819 -0.000538524 0.00011478)
(-0.00134182 -0.000546566 0.00010796)
(-0.00135654 -0.000555335 0.000100869)
(-0.00136797 -0.000563726 9.34932e-05)
(-0.00138232 -0.000572419 8.60527e-05)
(-0.00139581 -0.000580761 7.81959e-05)
(-0.00141048 -0.000589206 6.9948e-05)
(-0.00142313 -0.000597464 6.12658e-05)
(-0.00143216 -0.000604293 5.19927e-05)
(-0.00144318 -0.000610751 4.22389e-05)
(-0.00144936 -0.000616491 3.19231e-05)
(-0.00145586 -0.000620069 2.27113e-05)
(-0.00145961 -0.000620283 9.67885e-06)
(-0.001042 1.37616e-05 0.000415899)
(-0.000874067 -0.000103001 -0.00019954)
(-0.000715982 -0.000188908 -0.000191691)
(-0.00074148 -0.000308693 -0.000141189)
(-0.0008565 -0.000417035 -6.15571e-05)
(-0.000975591 -0.000487578 1.0812e-05)
(-0.00107517 -0.000522094 6.60393e-05)
(-0.00115091 -0.000531327 0.000104553)
(-0.00120582 -0.0005264 0.000128945)
(-0.00124349 -0.000515179 0.000142883)
(-0.00126903 -0.00050269 0.000149611)
(-0.00128623 -0.000491686 0.000151316)
(-0.00129828 -0.000483901 0.000149687)
(-0.0013079 -0.000480085 0.000146079)
(-0.00131725 -0.000480016 0.000141387)
(-0.00132766 -0.000483034 0.000136053)
(-0.00133861 -0.000488128 0.000130245)
(-0.00134989 -0.0004945 0.000124161)
(-0.00136209 -0.000501687 0.000117933)
(-0.00137611 -0.0005096 0.000111603)
(-0.00139035 -0.000517592 0.000104986)
(-0.00140559 -0.000526223 9.81107e-05)
(-0.00141801 -0.000534812 9.10398e-05)
(-0.00143315 -0.000543445 8.38789e-05)
(-0.00144747 -0.00055183 7.63119e-05)
(-0.00146272 -0.000560134 6.83368e-05)
(-0.00147627 -0.000568404 5.99432e-05)
(-0.00148635 -0.000575504 5.09621e-05)
(-0.00149761 -0.000581794 4.14687e-05)
(-0.00150443 -0.000587613 3.14006e-05)
(-0.0015109 -0.000591057 2.24304e-05)
(-0.00151519 -0.000591289 9.62019e-06)
(-0.000998437 7.60155e-05 0.000454519)
(-0.000899704 -4.69938e-05 -0.000190246)
(-0.00073535 -0.000137883 -0.0002005)
(-0.000737754 -0.000259606 -0.000159819)
(-0.000853188 -0.000374736 -8.27407e-05)
(-0.00098207 -0.000452205 -6.47411e-06)
(-0.00109191 -0.000490768 5.33106e-05)
(-0.00117561 -0.00050129 9.53292e-05)
(-0.00123598 -0.000496133 0.00012193)
(-0.0012774 -0.000484306 0.000137157)
(-0.00130547 -0.000471281 0.000144621)
(-0.00132443 -0.000459942 0.000146739)
(-0.00133772 -0.00045197 0.000145319)
(-0.00134823 -0.000448025 0.000141814)
(-0.00135821 -0.000447848 0.000137197)
(-0.00136904 -0.000450702 0.000131936)
(-0.00138041 -0.000455689 0.00012623)
(-0.0013922 -0.000462001 0.00012029)
(-0.00140489 -0.000469094 0.000114245)
(-0.00141925 -0.000476772 0.000108107)
(-0.001434 -0.000484594 0.000101709)
(-0.00144964 -0.000493014 9.50688e-05)
(-0.00146296 -0.000501689 8.83187e-05)
(-0.00147877 -0.000510129 8.14568e-05)
(-0.0014938 -0.000518425 7.41999e-05)
(-0.00150947 -0.00052649 6.65248e-05)
(-0.00152376 -0.000534589 5.84417e-05)
(-0.0015347 -0.000541815 4.97743e-05)
(-0.00154611 -0.00054789 4.05734e-05)
(-0.00155332 -0.000553618 3.07804e-05)
(-0.00155965 -0.000556883 2.20814e-05)
(-0.00156439 -0.000557107 9.53249e-06)
(-0.00090759 0.000125732 0.000466735)
(-0.000913602 1.18842e-05 -0.000178656)
(-0.000751431 -8.51027e-05 -0.000206598)
(-0.000729872 -0.000208414 -0.000176197)
(-0.00084239 -0.000329628 -0.000104334)
(-0.000980548 -0.000414008 -2.51061e-05)
(-0.00110138 -0.00045684 3.92266e-05)
(-0.00119398 -0.000468783 8.50045e-05)
(-0.00126056 -0.000463336 0.000114078)
(-0.00130603 -0.000450666 0.000130749)
(-0.00133681 -0.00043688 0.000139047)
(-0.0013576 -0.000425032 0.000141647)
(-0.00137219 -0.000416773 0.000140497)
(-0.00138364 -0.00041266 0.000137144)
(-0.00139421 -0.000412337 0.000132627)
(-0.00140541 -0.000415006 0.000127461)
(-0.00141708 -0.000419805 0.000121871)
(-0.0014292 -0.000425954 0.00011608)
(-0.00144221 -0.000432848 0.000110222)
(-0.00145675 -0.000440188 0.000104293)
(-0.0014718 -0.000447691 9.81346e-05)
(-0.00148765 -0.000455769 9.17482e-05)
(-0.00150169 -0.000464376 8.53336e-05)
(-0.00151796 -0.000472469 7.8784e-05)
(-0.00153352 -0.000480557 7.18539e-05)
(-0.00154942 -0.000488282 6.45047e-05)
(-0.00156412 -0.000496003 5.67499e-05)
(-0.0015756 -0.000503178 4.84184e-05)
(-0.00158688 -0.000508927 3.95395e-05)
(-0.00159414 -0.000514383 3.00505e-05)
(-0.00160018 -0.000517425 2.16525e-05)
(-0.00160517 -0.000517585 9.40894e-06)
(-0.000933736 0.000189241 0.000537455)
(-0.000922641 7.01846e-05 -0.000167163)
(-0.000762439 -3.13315e-05 -0.000209002)
(-0.000717093 -0.000155373 -0.000189331)
(-0.000822381 -0.000281638 -0.00012563)
(-0.000969648 -0.000373139 -4.50352e-05)
(-0.00110265 -0.000420712 2.37008e-05)
(-0.00120532 -0.000434308 7.3496e-05)
(-0.00127875 -0.000428461 0.000105316)
(-0.00132875 -0.00041475 0.000123625)
(-0.00136251 -0.000399988 0.000132879)
(-0.00138527 -0.000387436 0.000136049)
(-0.00140121 -0.000378743 0.000135234)
(-0.00141358 -0.000374367 0.000132083)
(-0.0014247 -0.000373826 0.0001277)
(-0.00143616 -0.000376253 0.000122654)
(-0.001448 -0.000380776 0.0001172)
(-0.00146032 -0.000386653 0.000111574)
(-0.00147354 -0.000393247 0.00010592)
(-0.00148814 -0.000400179 0.000100218)
(-0.00150336 -0.000407265 9.43194e-05)
(-0.00151933 -0.000414922 8.82095e-05)
(-0.00153393 -0.000423329 8.21437e-05)
(-0.00155046 -0.000430933 7.59151e-05)
(-0.00156633 -0.000438712 6.93244e-05)
(-0.00158228 -0.000446026 6.2321e-05)
(-0.00159716 -0.000453219 5.49094e-05)
(-0.00160899 -0.000460245 4.69343e-05)
(-0.00162003 -0.000465621 3.84027e-05)
(-0.00162709 -0.000470702 2.92402e-05)
(-0.00163265 -0.000473472 2.11631e-05)
(-0.00163779 -0.00047357 9.2575e-06)
(-0.000839558 0.0002239 0.00053444)
(-0.000917599 0.00012637 -0.000153119)
(-0.000769324 2.27764e-05 -0.000207888)
(-0.000701339 -0.000101686 -0.000199028)
(-0.000794538 -0.000231803 -0.000145904)
(-0.000949262 -0.000330244 -6.60844e-05)
(-0.00109498 -0.000382888 6.69667e-06)
(-0.00120885 -0.000398384 6.07148e-05)
(-0.00129009 -0.000392152 9.55948e-05)
(-0.00134513 -0.000377193 0.000115768)
(-0.00138207 -0.000361187 0.000126114)
(-0.00140689 -0.000347701 0.000129951)
(-0.0014242 -0.00033838 0.000129546)
(-0.00143747 -0.000333601 0.000126652)
(-0.00144912 -0.000332752 0.000122451)
(-0.00146076 -0.000334855 0.000117561)
(-0.00147267 -0.000339017 0.000112268)
(-0.00148502 -0.000344524 0.000106827)
(-0.00149823 -0.000350706 0.000101389)
(-0.00151268 -0.000357138 9.5927e-05)
(-0.00152781 -0.000363697 9.02965e-05)
(-0.00154364 -0.00037082 8.44745e-05)
(-0.00155854 -0.000378878 7.87618e-05)
(-0.00157506 -0.000385859 7.28581e-05)
(-0.001591 -0.00039325 6.6617e-05)
(-0.0016068 -0.000400094 5.99779e-05)
(-0.00162151 -0.000406621 5.29204e-05)
(-0.00163335 -0.000413378 4.5317e-05)
(-0.00164384 -0.000418298 3.71544e-05)
(-0.00165035 -0.000422901 2.83411e-05)
(-0.00165529 -0.000425376 2.06055e-05)
(-0.00166044 -0.000425401 9.0737e-06)
(-0.000912149 0.000301957 0.000639644)
(-0.000922322 0.000184151 -0.000141899)
(-0.00077375 7.60729e-05 -0.000203935)
(-0.000683048 -4.82057e-05 -0.000204541)
(-0.000758253 -0.000180394 -0.000163873)
(-0.000918248 -0.000285592 -8.78498e-05)
(-0.00107738 -0.000343811 -1.17582e-05)
(-0.00120371 -0.000361562 4.65978e-05)
(-0.00129377 -0.00035499 8.4848e-05)
(-0.00135449 -0.000338609 0.000107137)
(-0.00139499 -0.000321128 0.000118744)
(-0.00142205 -0.000306475 0.000123368)
(-0.00144077 -0.000296328 0.000123468)
(-0.00145489 -0.000290966 0.000120901)
(-0.00146698 -0.000289673 0.00011693)
(-0.00147869 -0.000291357 0.000112235)
(-0.00149051 -0.000295069 0.000107136)
(-0.00150272 -0.000300119 0.000101904)
(-0.00151577 -0.000305817 9.66985e-05)
(-0.00152994 -0.000311701 9.14898e-05)
(-0.00154484 -0.000317683 8.61385e-05)
(-0.0015604 -0.00032422 8.06168e-05)
(-0.00157541 -0.000331819 7.52589e-05)
(-0.00159169 -0.00033809 6.96799e-05)
(-0.00160747 -0.000345032 6.37933e-05)
(-0.00162291 -0.000351358 5.75282e-05)
(-0.00163718 -0.000357144 5.08321e-05)
(-0.00164882 -0.000363567 4.36119e-05)
(-0.00165863 -0.000368022 3.58343e-05)
(-0.00166439 -0.000372116 2.73849e-05)
(-0.00166852 -0.000374286 1.99996e-05)
(-0.00167358 -0.000374229 8.86508e-06)
(-0.000834407 0.000331617 0.000639306)
(-0.000902104 0.000234634 -0.000126898)
(-0.000772944 0.000128299 -0.000196975)
(-0.000664416 4.08975e-06 -0.000206277)
(-0.00071588 -0.000128584 -0.000178696)
(-0.000876648 -0.000239919 -0.000109728)
(-0.00104911 -0.000304059 -3.15649e-05)
(-0.00118913 -0.000324472 3.10981e-05)
(-0.00128922 -0.000317705 7.30191e-05)
(-0.00135637 -0.000299762 9.77152e-05)
(-0.00140081 -0.000280553 0.000110772)
(-0.00143026 -0.000264498 0.000116317)
(-0.00145042 -0.000253302 0.00011703)
(-0.00146535 -0.000247168 0.000114875)
(-0.00147778 -0.000245281 0.000111199)
(-0.00148944 -0.000246439 0.000106745)
(-0.00150102 -0.000249624 0.000101874)
(-0.0015129 -0.00025414 9.68735e-05)
(-0.00152554 -0.000259289 9.19109e-05)
(-0.00153921 -0.00026458 8.69604e-05)
(-0.00155361 -0.000269938 8.18885e-05)
(-0.00156863 -0.000275828 7.66683e-05)
(-0.00158343 -0.000282847 7.16555e-05)
(-0.00159919 -0.000288355 6.63961e-05)
(-0.00161455 -0.000294796 6.08665e-05)
(-0.00162944 -0.000300571 5.4982e-05)
(-0.001643 -0.000305586 4.86517e-05)
(-0.00165413 -0.000311598 4.18216e-05)
(-0.00166299 -0.000315564 3.44413e-05)
(-0.00166772 -0.000319132 2.63694e-05)
(-0.00167091 -0.000321004 1.93411e-05)
(-0.00167584 -0.000320868 8.62841e-06)
(-0.000808635 0.000375957 0.000673901)
(-0.000880487 0.00028257 -0.000112174)
(-0.000766919 0.00017859 -0.00018778)
(-0.000643935 5.45021e-05 -0.000203745)
(-0.00066816 -7.71913e-05 -0.000189167)
(-0.000824135 -0.000193766 -0.000130678)
(-0.00100927 -0.000264134 -5.25049e-05)
(-0.00116404 -0.0002877 1.42033e-05)
(-0.00127553 -0.000280979 6.00471e-05)
(-0.0013501 -0.00026142 8.74713e-05)
(-0.00139898 -0.000240264 0.0001022)
(-0.00143107 -0.000222587 0.000108823)
(-0.00145273 -0.000210137 0.000110279)
(-0.00146843 -0.000203052 0.000108638)
(-0.00148109 -0.000200422 0.000105334)
(-0.00149256 -0.000200946 0.000101174)
(-0.00150371 -0.000203535 9.65649e-05)
(-0.00151507 -0.000207468 9.18167e-05)
(-0.00152715 -0.000212033 8.71065e-05)
(-0.00154016 -0.000216729 8.24187e-05)
(-0.0015539 -0.000221464 7.76241e-05)
(-0.00156822 -0.000226697 7.27025e-05)
(-0.00158263 -0.000233074 6.80256e-05)
(-0.00159764 -0.000237809 6.30746e-05)
(-0.0016124 -0.000243723 5.78994e-05)
(-0.00162653 -0.000248932 5.23919e-05)
(-0.00163914 -0.000253214 4.6428e-05)
(-0.00164955 -0.000258747 3.99898e-05)
(-0.00165734 -0.000262247 3.30117e-05)
(-0.00166091 -0.000265331 2.53232e-05)
(-0.00166307 -0.000266937 1.86486e-05)
(-0.00166781 -0.000266704 8.37029e-06)
(-0.000802635 0.000428276 0.000724014)
(-0.000863576 0.000329767 -9.83709e-05)
(-0.000760328 0.000227326 -0.000177849)
(-0.000625812 0.000102621 -0.000198389)
(-0.00061846 -2.75949e-05 -0.00019485)
(-0.000761431 -0.000147832 -0.00014943)
(-0.000957176 -0.000224645 -7.4143e-05)
(-0.00112772 -0.000251958 -4.01028e-06)
(-0.00125206 -0.000245631 4.59078e-05)
(-0.00133509 -0.000224481 7.63546e-05)
(-0.00138907 -0.000201272 9.30472e-05)
(-0.00142399 -0.000181676 0.000100962)
(-0.00144722 -0.000167761 0.000103277)
(-0.00146364 -0.000159569 0.000102261)
(-0.00147641 -0.000156069 9.94169e-05)
(-0.00148754 -0.000155871 9.56095e-05)
(-0.00149806 -0.000157806 9.12949e-05)
(-0.00150867 -0.000161116 8.68076e-05)
(-0.00151994 -0.000165106 8.23483e-05)
(-0.00153209 -0.000169236 7.79155e-05)
(-0.00154497 -0.000173412 7.33884e-05)
(-0.00155843 -0.000178058 6.87679e-05)
(-0.0015721 -0.000183708 6.44016e-05)
(-0.00158619 -0.000187763 5.97504e-05)
(-0.00160007 -0.000193097 5.4922e-05)
(-0.00161326 -0.000197725 4.97813e-05)
(-0.00162477 -0.000201331 4.41817e-05)
(-0.00163421 -0.000206315 3.81307e-05)
(-0.00164076 -0.00020936 3.15546e-05)
(-0.001643 -0.000211988 2.42516e-05)
(-0.00164403 -0.00021334 1.79224e-05)
(-0.0016486 -0.000212966 8.0894e-06)
(-0.000687452 0.000414061 0.00066914)
(-0.000829314 0.000368624 -8.32474e-05)
(-0.000747332 0.000272255 -0.000166396)