/*--------------------------------*- C++ -*----------------------------------*\
  =========                 |
  \\      /  F ield         | OpenFOAM: The Open Source CFD Toolbox
   \\    /   O peration     | Website:  https://openfoam.org
    \\  /    A nd           | Version:  6
     \\/     M anipulation  |
\*---------------------------------------------------------------------------*/
FoamFile
{
    version     2.0;
    format      ascii;
    class       volScalarField;
    location    "0.4";
    object      yPlus;
}
// * * * * * * * * * * * * * * * * * * * * * * * * * * * * * * * * * * * * * //

dimensions      [0 0 0 0 0 0 0];

internalField   uniform 0;

boundaryField
{
    inlet
    {
        type            calculated;
        value           uniform 0;
    }
    outlet
    {
        type            calculated;
        value           uniform 0;
    }
    roughCylinder
    {
        type            calculated;
        value           nonuniform List<scalar> 
5120
(
39.3824
36.1726
38.8106
41.4277
42.7126
43.2074
43.4349
43.6052
43.7488
43.8848
43.8191
43.5859
43.6724
43.7834
43.8194
43.3867
43.5413
43.456
43.6546
43.213
42.8671
42.3707
42.3747
41.7446
41.2905
40.8585
40.1211
39.6165
39.0693
38.2766
38.2104
37.6321
24.5232
33.2934
39.3346
41.7368
42.9472
43.414
43.6013
43.7403
43.8418
43.936
43.8754
43.7162
43.8754
43.9566
43.8717
43.5653
43.6826
43.5657
43.7212
43.3368
43.1331
42.6711
42.5973
42.0689
41.6824
41.3471
40.6653
40.1145
39.7098
38.9337
38.9452
38.3388
53.1842
39.0221
39.633
42.0891
43.2518
43.6884
43.8511
43.9628
44.019
44.0697
44.0258
43.9384
44.1194
44.1547
43.9913
43.8064
43.8757
43.7395
43.8592
43.5455
43.4566
43.0554
42.891
42.4573
42.1462
41.9019
41.2473
40.6977
40.3944
39.639
39.7174
39.1097
18.1018
34.1351
40.0632
42.5008
43.6024
44.0398
44.1918
44.283
44.296
44.3079
44.2751
44.2417
44.4071
44.3996
44.2012
44.1131
44.1421
44.0026
44.0933
43.8624
43.8461
43.5133
43.2869
42.9527
42.703
42.498
41.9223
41.3485
41.1533
40.445
40.5428
39.96
61.3411
40.8767
40.5786
42.901
44.0037
44.4488
44.6098
44.6891
44.6683
44.6433
44.6102
44.6067
44.7376
44.7005
44.5032
44.4809
44.4837
44.3534
44.4217
44.2673
44.2927
44.0438
43.7795
43.522
43.3245
43.1581
42.6498
42.1047
41.9619
41.3127
41.4222
40.888
30.2857
36.6944
40.8649
43.3442
44.4351
44.9127
45.0931
45.1681
45.1216
45.0666
45.0206
45.0238
45.1148
45.0633
44.8903
44.906
44.8987
44.7864
44.8368
44.7509
44.7943
44.6235
44.3512
44.1646
44.0071
43.8607
43.449
42.9158
42.8304
42.2607
42.3457
41.8758
59.3929
41.1701
41.3985
43.7701
44.8953
45.4145
45.6275
45.7028
45.6431
45.563
45.4985
45.4915
45.5441
45.4892
45.351
45.3842
45.3802
45.2906
45.3286
45.2988
45.3481
45.2533
44.9939
44.8593
44.7314
44.6183
44.286
43.8039
43.7394
43.2432
43.3166
42.9161
53.8517
40.4595
41.7126
44.1958
45.3741
45.9517
46.1981
46.2801
46.2173
46.1214
46.0377
46.0097
46.0282
45.9768
45.8749
45.9152
45.9228
45.8587
45.8906
45.9062
45.9579
45.9286
45.6946
45.6073
45.5061
45.4254
45.1716
44.7336
44.6985
44.2855
44.3258
43.994
71.3102
43.3769
42.1452
44.612
45.8667
46.5075
46.7965
46.887
46.8295
46.7264
46.6276
46.5765
46.5664
46.5192
46.4501
46.4935
46.5161
46.4783
46.51
46.5619
46.6181
46.6432
46.4423
46.3933
46.3138
46.2725
46.0835
45.7078
45.6846
45.3399
45.367
45.0994
73.4357
46.3636
42.5809
44.9882
46.359
47.0817
47.4087
47.5117
47.4683
47.3659
47.2592
47.1879
47.1542
47.1117
47.0695
47.117
47.155
47.1434
47.1813
47.2627
47.3276
47.3962
47.2319
47.2184
47.1633
47.1604
47.0268
46.7114
46.706
46.4304
46.4348
46.2214
70.4209
49.8316
43.3764
45.3632
46.8555
47.6574
48.0311
48.1498
48.1229
48.0282
47.9204
47.8358
47.7852
47.7446
47.7234
47.7767
47.8291
47.8427
47.8914
47.9965
48.0748
48.1757
48.0496
48.0677
48.0366
48.0688
47.9841
47.7301
47.7329
47.5141
47.5097
47.3414
73.4943
51.5291
44.1065
45.6679
47.3212
48.2359
48.6566
48.7924
48.7865
48.7039
48.6025
48.5131
48.4515
48.4135
48.4074
48.4687
48.5345
48.5725
48.6361
48.7619
48.8574
48.9828
48.8962
48.9439
48.9401
49.0032
48.9618
48.7656
48.7804
48.6122
48.5965
48.463
79.6336
53.8657
44.9735
45.9897
47.7872
48.805
49.2802
49.4398
49.4549
49.3866
49.2964
49.2092
49.1441
49.1083
49.1143
49.1843
49.263
49.3235
49.4037
49.5459
49.6601
49.804
49.7561
49.8317
49.856
49.9425
49.9391
49.7934
49.8126
49.6854
49.6628
49.5531
74.5628
54.6041
45.8509
46.2248
48.1812
49.3569
49.9018
50.0879
50.1229
50.0719
49.9965
49.918
49.8565
49.8253
49.84
49.9187
50.0102
50.0922
50.1917
50.35
50.4851
50.645
50.6354
50.7377
50.7909
50.8967
50.9285
50.8272
50.8522
50.7567
50.7263
50.6343
79.3466
56.1545
46.7254
46.4883
48.5748
49.8943
50.515
50.7362
50.7942
50.7579
50.6982
50.6323
50.5796
50.5567
50.5807
50.6681
50.7722
50.8736
50.9913
51.162
51.316
51.489
51.5154
51.6424
51.7221
51.8409
51.9007
51.8337
51.8577
51.7832
51.7435
51.6584
76.2777
57.0454
47.6729
46.6702
48.8604
50.3874
51.1184
51.3847
51.4614
51.4426
51.4
51.3501
51.3103
51.2981
51.3316
51.427
51.5438
51.664
51.8011
51.9849
52.1582
52.3451
52.406
52.5556
52.6591
52.7877
52.8713
52.8327
52.8549
52.7926
52.7402
52.6589
69.4386
57.4939
48.5486
46.8826
49.1263
50.8562
51.7083
52.0298
52.1328
52.1282
52.1006
52.0666
52.0424
52.0445
52.0896
52.1938
52.3231
52.4599
52.6135
52.8069
52.995
53.1924
53.2843
53.453
53.5764
53.711
53.8087
53.7876
53.8007
53.7385
53.6694
53.5834
73.7325
57.9601
49.242
47.0198
49.2589
51.2527
52.273
52.671
52.7996
52.8112
52.7995
52.7826
52.7759
52.7937
52.8512
52.9641
53.105
53.2573
53.4274
53.6316
53.8346
54.0437
54.1649
54.3491
54.4881
54.6261
54.7324
54.7246
54.7265
54.6566
54.5653
54.4708
67.2228
57.9662
49.8527
47.1526
49.3354
51.5986
52.8097
53.3032
53.4686
53.4966
53.4975
53.4954
53.5055
53.5404
53.6123
53.7355
53.8881
54.0543
54.238
54.4492
54.6617
54.8777
55.0228
55.2169
55.3674
55.5058
55.6109
55.6064
55.5884
55.4998
55.3811
55.2734
77.2583
59.168
50.5359
47.2403
49.2597
51.8374
53.2984
53.918
54.1304
54.178
54.193
54.206
54.2332
54.2853
54.3719
54.5051
54.6686
54.8473
55.0436
55.263
55.4853
55.7091
55.8764
56.0763
56.2344
56.3701
56.4673
56.4619
56.4212
56.3071
56.1549
56.0296
73.0203
58.9872
51.1052
47.3993
49.1128
51.9731
53.7305
54.5115
54.7884
54.859
54.8866
54.9131
54.9558
55.0242
55.1256
55.2697
55.4431
55.6325
55.8386
56.0626
56.2898
56.5165
56.6985
56.8987
57.0599
57.1898
57.2723
57.2576
57.1863
57.0369
56.846
56.701
74.3717
59.1568
51.5614
47.4475
48.8025
51.9594
54.0784
55.0625
55.4284
55.5335
55.5744
55.6153
55.6733
55.7577
55.8737
56.0281
56.2108
56.4098
56.6242
56.8532
57.0841
57.3125
57.5079
57.7041
57.8659
57.9864
58.0484
58.019
57.9138
57.7246
57.4914
57.3228
78.437
60.1358
52.2849
47.7031
48.4388
51.7719
54.3137
55.5662
56.0523
56.1995
56.2586
56.3096
56.3822
56.4822
56.6121
56.7761
56.9655
57.17
57.3897
57.6207
57.8537
58.083
58.2825
58.4729
58.6292
58.7365
58.775
58.7229
58.5774
58.341
58.0599
57.8665
69.977
60.1163
52.783
47.8739
47.99
51.3985
54.4058
55.9915
56.6365
56.8537
56.9372
57.0009
57.0834
57.1952
57.3373
57.5108
57.7085
57.9217
58.1475
58.382
58.6167
58.8456
59.0481
59.2309
59.3791
59.4698
59.4797
59.3985
59.2086
58.9212
58.5899
58.3674
71.5759
60.1444
53.3428
48.1455
47.479
50.7813
54.3004
56.3134
57.178
57.4925
57.6126
57.6886
57.78
57.9021
58.0547
58.2365
58.4408
58.6593
58.888
59.1231
59.356
59.5805
59.7806
59.9512
60.0871
60.1572
60.1362
60.022
59.7844
59.4427
59.0583
58.8077
75.9168
60.856
54.0167
48.6346
47.1038
49.9913
53.9608
56.4887
57.6416
58.0927
58.2699
58.3693
58.4731
58.6044
58.765
58.953
59.162
59.3842
59.6154
59.8506
60.0818
60.3019
60.4982
60.6564
60.7783
60.8261
60.7719
60.6206
60.3328
59.9344
59.4962
59.2155
79.7539
61.8422
54.4066
48.8718
46.6267
48.9476
53.3123
56.4665
58.0039
58.6479
58.9106
59.0421
59.1582
59.297
59.4638
59.6563
59.868
60.0911
60.3216
60.5538
60.7798
60.992
61.1802
61.3231
61.4273
61.4499
61.3614
61.1705
60.8321
60.3768
59.8845
59.5752
70.4113
61.9698
55.4461
49.748
46.5172
47.8759
52.3198
56.1726
58.2054
59.1104
59.4962
59.6839
59.8268
59.9778
60.1503
60.3452
60.5573
60.7797
61.0087
61.2377
61.459
61.6639
61.8435
61.9719
62.0587
62.0564
61.9332
61.7013
61.3118
60.799
60.2533
59.9147
67.3881
61.6093
55.6968
50.2516
46.4224
46.7895
50.9716
55.5397
58.1976
59.4496
60.0163
60.2899
60.4672
60.634
60.8147
61.0137
61.227
61.4481
61.674
61.8983
62.1131
62.3092
62.478
62.5901
62.6564
62.6268
62.4685
62.1946
61.7552
61.1862
60.5881
60.2204
76.642
63.4433
56.818
51.2212
46.6949
45.8808
49.4223
54.4463
57.8826
59.5885
60.395
60.7888
61.0314
61.2294
61.4239
61.6287
61.8435
62.0655
62.2919
62.5155
62.7282
62.92
63.0815
63.182
63.2329
63.1816
62.9925
62.6796
62.1924
61.569
60.9221
60.5255
74.0854
62.6086
57.0247
52.0458
47.1752
45.1486
47.7548
52.9642
57.1891
59.4691
60.5884
61.1647
61.4953
61.7368
61.9561
62.1753
62.3981
62.6243
62.8529
63.0776
63.29
63.4803
63.6377
63.7313
63.769
63.6983
63.4826
63.1357
62.6086
61.9373
61.246
60.8223
74.7793
62.9303
57.3394
52.8398
47.9639
44.7964
46.1464
51.1002
55.999
58.9691
60.4899
61.2768
61.7263
62.0346
62.2903
62.5321
62.7715
63.0136
63.2585
63.4988
63.7255
63.9287
64.0952
64.1952
64.2353
64.1631
63.9387
63.5734
63.0187
62.3101
61.5854
61.1417
73.7254
63.5182
57.9521
53.6199
48.8453
44.7098
44.664
48.9473
54.3334
57.9898
60.0128
61.0806
61.6853
62.0753
62.3777
62.6491
62.9105
63.1745
63.4429
63.7088
63.9624
64.1929
64.3848
64.5076
64.5629
64.5016
64.2833
63.9163
63.3543
62.6265
61.8838
61.4384
71.4636
63.5549
58.5982
54.5097
49.9689
45.0945
43.4433
46.5575
52.0528
56.3947
58.9386
60.3391
61.1291
61.6193
61.9733
62.2718
62.552
62.8357
63.1308
63.4307
63.7262
64.0045
64.2473
64.4242
64.5322
64.526
64.362
64.0406
63.5142
62.8044
62.0778
61.6604
67.7854
62.6467
58.7679
55.2039
51.0648
45.8255
42.5895
44.0204
49.065
53.994
57.0903
58.853
59.8447
60.4262
60.8117
61.1143
61.395
61.6901
62.0125
62.3568
62.7105
63.0573
63.3755
63.6348
63.8269
63.9129
63.8466
63.6204
63.1869
62.5519
61.8982
61.5842
64.4789
61.207
58.3355
55.5516
52.0781
46.9454
42.2694
41.3787
45.0905
50.243
53.9047
56.0479
57.2394
57.8844
58.25
58.4914
58.7067
58.9571
59.2712
59.6445
60.0624
60.5004
60.9332
61.3301
61.6721
61.9349
62.0683
62.0464
61.8195
61.3557
60.8672
60.7657
59.9775
59.2922
57.3389
55.3564
52.6928
48.2043
42.692
39.1481
40.1113
44.3892
48.2968
50.6333
51.8241
52.2589
52.2499
52.0335
51.7962
51.6591
51.681
51.863
52.1737
52.5761
53.0325
53.5085
53.9851
54.4787
54.9449
55.341
55.6036
55.5826
55.5876
56.4031
55.7786
57.4585
56.1217
54.8425
52.9839
49.4766
43.9093
38.1111
34.8519
35.7186
38.1103
39.3463
39.274
38.2541
36.7043
34.9776
33.7993
32.5633
31.7016
31.1414
30.8517
30.759
30.886
31.0044
31.3138
31.8589
32.6245
33.495
34.4905
35.2304
36.0574
38.5775
51.8503
55.5043
54.4613
53.6257
52.5751
50.2992
45.6644
39.1389
32.2043
26.6875
22.8776
19.6021
14.5543
6.3257
18.3861
18.5299
7.35114
7.65813
8.53315
9.06999
9.83903
8.38707
10.8354
9.28062
10.0508
10.2846
10.7892
11.1435
11.2152
11.4314
13.2031
12.9081
48.161
54.1922
53.5434
52.6476
51.8585
50.4898
47.2645
41.6862
34.0329
23.9385
7.27604
8.68573
14.1815
13.9466
9.63741
10.5601
16.0478
16.3403
16.2852
16.6113
3.91003
17.6796
12.4892
17.5798
18.2278
17.6185
17.7379
3.128
17.6179
3.76033
12.1429
8.89089
39.3376
33.0507
20.4178
7.18029
5.40257
4.30084
4.63202
7.3133
12.1828
13.2137
12.2499
11.4345
10.4256
8.74711
7.30563
5.86986
4.83234
4.21578
3.86782
3.73054
3.72537
3.88355
4.20957
4.77987
5.83864
7.18524
8.67089
10.2418
12.6287
12.5192
13.1771
12.1624
7.00617
5.8226
2.32207
4.78835
5.66876
19.106
32.8966
39.9258
49.2562
45.0621
37.9433
26.7507
12.5894
8.43529
10.524
13.5592
13.9763
14.541
14.2247
14.0634
13.7422
13.2278
12.7039
12.0868
11.7793
11.7529
11.5065
11.487
11.476
11.5591
11.5093
11.6214
11.9741
12.5926
13.1167
13.7012
14.0099
14.3068
14.4012
14.0845
13.2035
10.8813
2.38566
11.9422
25.5267
37.2868
45.0944
49.4168
50.0129
46.4414
42.1565
34.9473
24.7706
16.4398
15.1394
16.829
18.7398
20.0457
20.0767
19.551
18.7583
17.6573
16.5019
15.2878
14.2866
13.5219
13.0459
12.8978
12.8964
13.0719
13.556
14.3135
15.3184
16.5202
17.6559
18.7679
19.5379
20.1054
19.9969
18.783
16.8145
15.3958
16.6862
24.3201
34.0933
41.7661
46.4936
50.0074
49.7938
45.8131
41.8672
36.3485
28.4562
22.9776
22.5876
22.8223
23.1653
23.9023
24.0127
23.443
22.3823
20.9003
19.2692
17.6449
16.2542
15.2143
14.5683
14.3544
14.3611
14.602
15.2671
16.306
17.6921
19.3037
20.9158
22.3969
23.4492
24.0321
23.9108
23.2459
22.896
22.7472
23.168
28.0564
35.6309
41.6653
45.9201
49.7455
49.6201
45.5884
41.2728
36.1967
28.8293
24.0147
25.1559
26.359
26.6743
26.7975
26.524
25.7331
24.553
22.9988
21.1632
19.2908
17.6154
16.3552
15.5749
15.3139
15.3285
15.621
16.4172
17.6708
19.3323
21.1916
23.0133
24.569
25.7563
26.5667
26.8449
26.738
26.3973
25.2753
24.1902
28.374
35.5768
41.2701
45.7348
49.5665
49.054
45.5272
40.9029
35.7421
28.7101
23.7622
25.1618
26.9525
27.5741
27.7711
27.5028
26.7832
25.6723
24.1884
22.3783
20.3959
18.5346
17.088
16.1906
15.8986
15.9214
16.2504
17.157
18.5864
20.4256
22.3952
24.201
25.6973
26.8187
27.5395
27.794
27.5884
26.9484
25.2557
23.8602
28.1762
35.2582
41.0643
45.6642
49.0175
47.184
44.9336
40.8221
35.419
28.3281
23.1201
24.3539
26.346
27.0412
27.2006
26.9521
26.3605
25.4993
24.3197
22.7912
20.9191
19.0686
17.5309
16.5644
16.2703
16.3015
16.6378
17.6028
19.1098
20.9333
22.8003
24.3323
25.5219
26.379
26.9561
27.1878
27.0144
26.2989
24.4118
23.0999
27.7484
35.1325
41.0749
45.0447
47.1663
43.0642
42.664
40.1323
35.3888
28.2053
22.0349
22.712
24.973
25.8166
26.0126
25.7316
25.103
24.2834
23.3116
22.1267
20.6275
19.0614
17.6796
16.7812
16.5448
16.5845
16.8667
17.7495
19.0877
20.6269
22.1277
23.3159
24.2894
25.0966
25.7079
25.974
25.7554
24.8944
22.7341
21.8695
27.673
35.3146
40.4161
42.7773
43.093
36.1962
37.8533
37.6487
34.7776
28.727
21.6352
20.5691
22.6911
23.807
24.2064
24.1407
23.6084
22.8024
21.8488
20.8206
19.6657
18.505
17.4875
16.8419
16.7543
16.8024
16.9402
17.5581
18.526
19.6613
20.8161
21.8388
22.7866
23.5783
24.0943
24.1452
23.7179
22.5944
20.5363
21.37
28.3466
34.8554
37.938
38.0185
36.3058
25.5881
29.8775
32.2407
32.2983
28.6459
22.379
19.5506
20.5874
21.7587
22.3213
22.4288
22.0554
21.3524
20.4747
19.5258
18.6106
17.8314
17.2101
16.8363
16.8975
16.9537
16.9478
17.2876
17.8599
18.6165
19.5263
20.462
21.3301
22.0193
22.3756
22.2523
21.6613
20.4877
19.4555
22.0985
28.4042
32.4296
32.5407
30.1492
25.8419
16.5356
16.7755
24.2458
26.7219
26.451
22.5557
19.357
19.294
20.0183
20.634
20.9131
20.7472
20.3079
19.6892
18.9768
18.3236
17.7401
17.2197
16.8736
16.9519
17.0151
17.004
17.3117
17.777
18.3368
18.9834
19.6818
20.2898
20.7157
20.8697
20.5789
19.947
19.2246
19.2557
22.3119
26.2549
26.7946
24.4428
17.1869
16.6446
9.62522
12.3576
16.3019
23.9344
24.078
21.5775
19.406
18.7305
19.4142
20.2718
20.8338
20.9078
20.6419
20.1264
19.4724
18.7741
17.9809
17.2129
16.784
16.8067
16.8732
16.938
17.3548
18.0615
18.8123
19.4924
20.1317
20.6372
20.8916
20.8078
20.2403
19.383
18.7105
19.3537
21.4083
23.9225
23.8623
16.3741
12.4907
9.77556
4.49409
11.6426
18.5092
24.9127
22.3199
22.3022
20.452
20.3956
20.9793
21.6891
22.069
21.9808
21.5272
20.8039
19.9191
18.9408
17.9088
17.1024
16.7401
16.7539
16.8129
16.8924
17.2838
18.0627
19.0521
19.996
20.8544
21.5621
22.0046
22.0845
21.7055
21.0008
20.4444
20.4744
22.2682
22.2461
24.8277
18.4426
11.6377
4.66416
14.7729
15.1234
21.2863
23.9247
22.2332
22.4668
21.6192
21.9784
22.1396
22.3883
22.285
21.878
21.1677
20.259
19.259
18.2605
17.3664
16.7945
16.5695
16.6083
16.6496
16.6846
16.9499
17.5305
18.4119
19.3825
20.3504
21.2311
21.9211
22.3154
22.4144
22.1799
22.0245
21.6952
22.464
22.2593
23.8671
21.1672
15.1362
15.0397
3.04695
12.0094
23.3366
21.4294
22.1429
21.5097
22.3418
22.1458
22.2627
21.9892
21.626
21.0328
20.2379
19.3812
18.5444
17.8364
17.3047
17.0317
16.9698
17.0557
17.0847
17.0494
17.1445
17.4343
17.9707
18.6685
19.4812
20.3106
21.0768
21.6481
22.0025
22.261
22.1879
22.3155
21.6288
21.9716
21.6587
22.9835
11.9694
10.0809
12.2841
15.1601
22.269
22.3518
21.5907
22.7821
23.6289
23.5788
23.8016
23.3877
23.1302
22.5488
21.9545
21.3301
20.8029
20.3952
20.1126
19.9885
19.9942
20.1032
20.1316
20.0671
20.0946
20.2366
20.5282
20.9342
21.4527
22.0585
22.6338
23.1915
23.4336
23.8313
23.6063
23.6449
22.8288
21.5553
22.4089
22.2003
14.9048
11.8295
15.0252
16.6029
22.7956
23.678
22.7686
24.9437
26.0469
26.2753
26.833
26.5857
26.5306
26.0701
25.6545
25.1711
24.749
24.3724
24.0438
23.8562
23.8018
23.8793
23.9084
23.8787
23.9664
24.1738
24.5103
24.893
25.3056
25.7887
26.1806
26.6343
26.6764
26.8741
26.3862
25.9875
25.0933
22.7396
23.6009
22.9384
16.3954
14.7745
17.5249
16.6669
25.0146
24.003
24.1
26.9353
27.9568
28.6672
29.438
29.3499
29.4274
28.9809
28.6245
28.1067
27.6414
27.1625
26.7202
26.4301
26.3093
26.3435
26.3726
26.3871
26.5397
26.8469
27.2994
27.7783
28.2473
28.7464
29.1124
29.5166
29.4571
29.5118
28.6684
28.1358
26.7362
24.199
24.6636
23.1871
18.455
16.4598
10.0161
19.2396
24.0311
25.3395
24.4463
28.2639
29.043
30.1615
30.9919
31.0536
31.1464
30.6962
30.3315
29.7628
29.2513
28.708
28.1941
27.8484
27.6924
27.7015
27.7305
27.7694
27.9554
28.3174
28.84
29.3856
29.8938
30.4567
30.8066
31.2567
31.1158
31.1095
30.1081
29.237
28.0588
24.6958
25.165
24.2777
18.252
12.1734
12.1389
18.0722
25.3879
24.9519
25.1787
28.7675
29.7837
30.9016
31.8772
31.9569
32.0716
31.5956
31.2252
30.6263
30.1007
29.5367
28.9927
28.628
28.4574
28.4591
28.4882
28.5329
28.7315
29.1118
29.6631
30.2296
30.7498
31.3444
31.7012
32.1711
32.0319
31.9535
30.921
29.8513
28.7376
25.2305
24.9577
25.3277
18.053
11.7825
12.5376
18.8624
25.5849
24.9312
25.5288
29.1163
30.2259
31.294
32.3601
32.416
32.5419
32.035
31.6627
31.0468
30.522
29.9553
29.4111
29.0406
28.864
28.8672
28.8948
28.9357
29.1387
29.5247
30.0759
30.6449
31.1651
31.7759
32.1395
32.6327
32.5004
32.4172
31.3446
30.2566
29.1447
25.5529
24.9577
25.593
18.7214
12.4309
16.1066
19.1482
25.5394
25.1264
25.5131
29.5321
30.3862
31.5552
32.5596
32.6388
32.7301
32.21
31.828
31.2016
30.6819
30.1176
29.5952
29.2145
29.0385
29.0478
29.0745
29.107
29.3083
29.7037
30.2341
30.7994
31.3167
31.9351
32.3117
32.8173
32.7183
32.6245
31.5872
30.4601
29.507
25.6623
25.0558
25.6478
19.0983
15.862
9.89028
20.1065
26.9032
23.4639
26.8055
29.0988
30.8718
31.4432
32.7031
32.6295
32.754
32.192
31.8082
31.1711
30.6558
30.1013
29.608
29.214
29.0432
29.0617
29.0878
29.1098
29.3049
29.7147
30.2145
30.7712
31.2829
31.9113
32.2966
32.8227
32.7448
32.6879
31.6429
30.6135
29.7475
25.68
25.492
24.5916
21.6918
18.3481
17.1876
20.375
25.9896
24.675
25.8063
30.0288
30.4461
31.6428
32.5192
32.5523
32.6173
32.0168
31.6546
30.9754
30.4897
29.9307
29.4837
29.0647
28.9091
28.9387
28.9634
28.971
29.1518
29.5829
30.0456
30.5927
31.097
31.7411
32.1285
32.6942
32.6081
32.6612
31.4914
30.8809
29.4635
26.833
23.6547
26.8186
20.8953
11.5554
10.1311
23.5671
24.9431
24.8298
26.0683
29.9276
30.6032
31.3798
32.3726
32.3139
32.3359
31.7472
31.3314
30.6714
30.1678
29.6338
29.2128
28.7804
28.6428
28.6885
28.7114
28.7012
28.8621
29.3116
29.7402
30.2772
30.7773
31.4341
31.8367
32.4258
32.3733
32.466
31.3557
30.81
29.682
26.8589
23.7192
26.7296
20.8855
17.7443
14.3198
22.7645
25.3224
24.6821
26.0903
30.1097
30.4364
31.1709
32.0604
31.983
31.9439
31.3464
30.8981
30.2316
29.7228
29.199
28.797
28.3712
28.2528
28.3156
28.3371
28.308
28.4493
28.894
29.3021
29.8331
30.333
31.0049
31.4284
32.0397
32.0353
32.1569
31.1514
30.6275
29.9231
26.7916
23.8831
26.338
22.8145
12.131
18.5299
21.941
26.625
23.0133
27.2506
29.5684
30.5881
30.6868
31.7533
31.5113
31.4664
30.8335
30.3534
29.6786
29.1569
28.6398
28.253
27.8488
27.7499
27.8321
27.8514
27.7998
27.922
28.3462
28.7404
29.2651
29.7798
30.4563
30.9222
31.5438
31.6022
31.7659
30.8483
30.4199
30.065
26.7904
23.8839
26.2638
23.1041
13.3598
18.7638
22.1546
26.6749
22.975
26.9098
30.1001
29.8436
30.7435
30.9663
31.2228
30.7333
30.3303
29.6538
29.0583
28.4695
27.9829
27.5964
27.2355
27.15
27.2612
27.2777
27.1935
27.3041
27.6848
28.0824
28.5739
29.1622
29.752
30.4209
30.8132
31.2933
31.034
30.7802
29.9143
30.2224
27.019
23.2354
26.7963
22.2729
18.8858
14.6567
23.3347
26.2143
23.0941
26.7191
30.1724
29.5542
30.3217
30.4593
30.6482
30.0928
29.671
28.9438
28.3406
27.7272
27.2478
26.8738
26.5596
26.4908
26.6355
26.6484
26.5285
26.624
26.959
27.3459
27.8303
28.445
29.0402
29.7626
30.1703
30.7185
30.5287
30.3516
29.6373
30.2939
26.854
23.3709
26.3485
23.4709
14.943
15.4041
23.3522
25.9465
23.0765
26.5465
30.1415
29.3104
29.8371
29.9832
30.0316
29.4695
28.989
28.2406
27.6121
26.9867
26.5099
26.1581
25.8986
25.8502
26.0368
26.0468
25.882
25.9593
26.2423
26.6079
27.0907
27.7171
28.3368
29.0801
29.5449
30.0995
30.0526
29.8614
29.3973
30.2729
26.6902
23.3767
26.0918
23.5031
15.6831
17.0833
22.9954
25.6064
23.2106
26.2716
30.1669
29.0721
29.4238
29.5675
29.4938
28.9267
28.3968
27.6292
26.98
26.3494
25.8721
25.5489
25.332
25.3105
25.5351
25.5425
25.3375
25.3902
25.6331
25.9709
26.4553
27.0867
27.7266
28.4893
29.0023
29.5608
29.6415
29.439
29.1733
30.2959
26.4376
23.5202
25.7625
23.1795
17.2909
14.6487
23.3992
25.3145
23.14
26.0572
30.0549
28.9468
29.081
29.2815
29.1213
28.561
28.0099
27.2341
26.5787
25.947
25.4689
25.1593
24.9553
24.9391
25.1724
25.1781
24.9631
25.0122
25.2439
25.5686
26.0551
26.6877
27.3332
28.1053
28.636
29.1913
29.3557
29.0953
29.0563
30.1864
26.2364
23.4569
25.4811
23.5818
14.9433
22.5558
34.8259
38.9034
41.3948
42.6497
43.1124
43.3112
43.447
43.5646
43.7155
43.6987
43.6478
43.9132
43.8004
43.547
43.5092
43.9282
43.4688
43.3866
43.2866
42.671
42.4727
42.2507
42.0263
41.2342
40.2748
39.9461
39.5011
38.8023
38.2147
38.1985
37.8945
27.9407
35.1578
39.301
41.7278
42.9057
43.3386
43.499
43.6117
43.7089
43.8432
43.835
43.8043
44.0569
43.9175
43.7151
43.6253
43.9865
43.5737
43.4469
43.3824
42.8721
42.7864
42.5294
42.2533
41.5635
40.7477
40.4436
40.1083
39.4094
38.8492
38.8565
38.5572
44.8888
37.2721
39.6749
42.1025
43.2265
43.6383
43.7795
43.8783
43.9495
44.0551
44.0637
44.0548
44.259
44.1062
43.9745
43.8181
44.1433
43.7864
43.6354
43.5902
43.17
43.1646
42.9005
42.5697
41.9855
41.3352
41.0268
40.8191
40.0894
39.5681
39.5828
39.3094
21.8897
36.0428
40.1345
42.5072
43.5948
44.0088
44.1472
44.2364
44.2766
44.3486
44.3653
44.3718
44.5132
44.3658
44.2988
44.0872
44.3866
44.0891
43.933
43.9062
43.5555
43.5828
43.3478
42.9969
42.507
41.9883
41.7182
41.5644
40.851
40.3854
40.3709
40.128
46.6739
38.881
40.5325
42.9305
44.0016
44.4318
44.5843
44.6692
44.6802
44.7136
44.7247
44.7355
44.8174
44.6896
44.6701
44.4319
44.7047
44.4673
44.3256
44.3138
44.0258
44.0646
43.8633
43.5129
43.1161
42.7274
42.4743
42.3828
41.6812
41.2735
41.2449
41.0441
24.798
37.3799
40.9808
43.357
44.4383
44.903
45.0791
45.163
45.1475
45.1443
45.1359
45.1389
45.1732
45.0712
45.0807
44.8474
45.0887
44.9095
44.796
44.8042
44.5698
44.6002
44.4277
44.1131
43.8029
43.5098
43.2984
43.2146
42.5722
42.2292
42.1651
42.0027
44.2973
38.9678
41.3231
43.789
44.8971
45.408
45.6185
45.7035
45.6707
45.6337
45.5996
45.586
45.5858
45.5088
45.5328
45.3287
45.5362
45.4122
45.3367
45.3705
45.1806
45.2057
45.0486
44.7841
44.5527
44.348
44.1657
44.1036
43.518
43.2304
43.163
43.039
46.2958
39.4406
41.7384
44.2062
45.3737
45.9449
46.1898
46.2803
46.2387
46.1766
46.1162
46.0799
46.0549
45.9987
46.0281
45.8677
46.0423
45.9686
45.9366
46.0008
45.8441
45.8695
45.7137
45.515
45.354
45.2152
45.0687
45.0036
44.5014
44.2719
44.184
44.0844
60.1204
41.4667
42.0892
44.614
45.8618
46.499
46.7867
46.884
46.8424
46.7644
46.6828
46.6244
46.5817
46.5392
46.5702
46.4589
46.6056
46.5776
46.5904
46.6878
46.5545
46.5919
46.4324
46.3032
46.1992
46.1184
46.0051
45.9498
45.5259
45.3422
45.2642
45.1896
73.7184
44.369
42.395
44.9909
46.3511
47.0702
47.3959
47.504
47.4714
47.3867
47.292
47.2149
47.1585
47.1243
47.1548
47.0913
47.2166
47.2284
47.2835
47.4125
47.2941
47.3528
47.1906
47.1316
47.0738
47.0369
46.954
46.9042
46.5645
46.4235
46.3409
46.2753
74.7026
48.1642
43.1304
45.3514
46.8408
47.6436
48.0161
48.1383
48.1186
48.0362
47.9365
47.848
47.7827
47.7515
47.7822
47.7618
47.8735
47.9202
48.0133
48.1702
48.0644
48.1514
47.9961
48.0043
47.9822
47.9808
47.93
47.8927
47.6278
47.5224
47.4537
47.4003
68.342
50.4727
43.8277
45.6583
47.3081
48.2201
48.6391
48.7775
48.7758
48.701
48.6047
48.5124
48.4415
48.4118
48.4415
48.4568
48.562
48.6374
48.762
48.9407
48.8481
48.965
48.8283
48.8958
48.9015
48.9263
48.9031
48.8792
48.6837
48.6051
48.5394
48.4861
79.8151
53.5617
44.8203
45.9633
47.766
48.7879
49.2624
49.4237
49.4414
49.3782
49.2912
49.2024
49.1321
49.1035
49.1347
49.1788
49.2842
49.384
49.5336
49.728
49.6539
49.8005
49.6958
49.8159
49.8465
49.8917
49.8955
49.8881
49.7498
49.6947
49.6387
49.5884
69.6966
54.2236
45.6604
46.2141
48.1675
49.3401
49.8833
50.0707
50.1069
50.0586
49.9849
49.9049
49.8401
49.8142
49.846
49.9113
50.0207
50.14
50.3088
50.5144
50.4655
50.6378
50.5737
50.7347
50.7868
50.8475
50.8745
50.8819
50.79
50.7476
50.6924
50.6384
79.1858
55.8093
46.445
46.4356
48.5512
49.8772
50.4984
50.7203
50.7793
50.7447
50.6861
50.6195
50.5651
50.5464
50.5827
50.665
50.7823
50.918
51.1007
51.3129
51.2953
51.4888
51.472
51.6652
51.7399
51.8144
51.8618
51.8837
51.8261
51.7927
51.7387
51.6811
70.2383
56.3529
47.379
46.6414
48.8474
50.3724
51.1021
51.369
51.4461
51.4279
51.3857
51.3348
51.2937
51.2841
51.3258
51.4201
51.5462
51.6954
51.8884
52.1056
52.1247
52.3347
52.3653
52.5789
52.673
52.7586
52.8217
52.8539
52.8184
52.7839
52.7211
52.6561
74.2719
56.8508
48.0071
46.7862
49.104
50.8417
51.695
52.0171
52.1204
52.1163
52.0891
52.0546
52.0299
52.0341
52.0853
52.1912
52.3279
52.4888
52.6892
52.9086
52.9656
53.1868
53.2626
53.4897
53.6042
53.7015
53.7764
53.8146
53.7903
53.7491
53.6758
53.6019
74.1838
57.6424
48.8854
46.9283
49.2399
51.2395
52.2599
52.6586
52.7874
52.799
52.7871
52.7697
52.7623
52.7813
52.8426
52.9576
53.1037
53.2744
53.4808
53.7034
53.799
54.0287
54.1442
54.3762
54.5063
54.6118
54.6932
54.7322
54.7085
54.6512
54.5568
54.469
68.2425
57.905
49.608
47.0701
49.3178
51.5891
52.8008
53.2943
53.4596
53.4878
53.4888
53.4864
53.4964
53.5324
53.6074
53.7331
53.8899
54.0701
54.2812
54.5056
54.6349
54.8686
55.0162
55.2484
55.3926
55.5061
55.5895
55.6228
55.5899
55.511
55.3925
55.2906
73.9145
58.8259
50.3818
47.1548
49.2315
51.8242
53.2884
53.9089
54.1213
54.1688
54.1835
54.1962
54.2232
54.2758
54.3645
54.4998
54.6659
54.8543
55.0699
55.2975
55.458
55.6953
55.8685
56.0968
56.2487
56.3651
56.4442
56.4654
56.4149
56.3056
56.1535
56.031
72.1982
59.0849
51.1503
47.3854
49.1076
51.9708
53.7266
54.5062
54.7822
54.8525
54.8801
54.9065
54.9492
55.0183
55.1215
55.2676
55.443
55.639
55.8582
56.0876
56.2717
56.5086
56.6985
56.9195
57.0762
57.1933
57.2642
57.267
57.1916
57.0463
56.8572
56.7152
74.7175
59.4752
51.6854
47.4221
48.7698
51.9455
54.0718
55.0568
55.4221
55.5268
55.5674
55.6081
55.6661
55.751
55.8684
56.0243
56.208
56.4111
56.6338
56.8655
57.0688
57.3049
57.5064
57.7185
57.8738
57.9862
58.0422
58.0199
57.9132
57.7256
57.4932
57.3262
78.9732
60.5947
52.5406
47.7855
48.4579
51.7784
54.3159
55.5649
56.0485
56.1946
56.2533
56.3043
56.377
56.4775
56.6086
56.7738
56.9639
57.1706
57.3954
57.6281
57.844
58.0779
58.2838
58.4856
58.6364
58.739
58.7765
58.7252
58.581
58.3463
58.0668
57.8752
70.3117
60.4724
52.9728
47.8884
47.9606
51.3865
54.4045
55.9906
56.6338
56.8494
56.9322
56.9958
57.0784
57.1907
57.3339
57.5085
57.7066
57.9209
58.1496
58.3852
58.6104
58.8421
59.0498
59.2412
59.3834
59.4714
59.4842
59.3974
59.2098
58.9229
58.5924
58.3706
71.7195
60.353
53.5144
48.2355
47.5117
50.795
54.3097
56.3177
57.1773
57.4889
57.6078
57.6836
57.7752
57.8978
58.0511
58.2337
58.4381
58.6569
58.887
59.1225
59.3511
59.5773
59.7806
59.9586
60.0875
60.1568
60.1422
60.0177
59.7839
59.4429
59.0596
58.8099
76.1227
61.086
54.1212
48.6212
47.0691
49.9824
53.9674
56.4954
57.6444
58.0922
58.2676
58.3664
58.4704
58.6022
58.7637
58.9525
59.1617
59.3841
59.6161
59.8517
60.0823
60.304
60.5022
60.6673
60.7813
60.8294
60.7842
60.6185
60.3349
59.9367
59.4986
59.2181
79.4167
61.6545
54.3486
48.8724
46.6344
48.9592
53.3292
56.4785
58.0082
58.6466
58.9068
59.0376
59.1536
59.2928
59.4601
59.6531
59.8647
60.0876
60.3179
60.5499
60.7771
60.9905
61.1789
61.3285
61.4237
61.447
61.3693
61.1613
60.8278
60.3728
59.8808
59.572
70.6596
62.1816
55.5036
49.7059
46.4727
47.8645
52.3337
56.1896
58.2166
59.1159
59.4984
59.6846
59.8273
59.9786
60.1516
60.3472
60.5597
60.7822
61.0111
61.2401
61.4643
61.671
61.8502
61.9857
62.0631
62.0619
61.9506
61.6999
61.3155
60.8028
60.2567
59.918
67.5536
61.5316
55.5956
50.1811
46.3845
46.7901
50.9931
55.5605
58.2084
59.4524
60.0146
60.2865
60.4632
60.63
60.811
61.0103
61.2236
61.4445
61.6699
61.8936
62.1111
62.3088
62.4762
62.5955
62.6516
62.6228
62.4765
62.1829
61.7489
61.18
60.5816
60.2138
73.7439
62.8705
56.7263
51.1782
46.6484
45.8573
49.4352
54.4743
57.9047
59.6023
60.4034
60.7945
61.0362
61.2341
61.4288
61.6341
61.8495
62.0717
62.2979
62.5212
62.7371
62.9313
63.0917
63.1997
63.2408
63.1903
63.0138
62.6812
62.1992
61.576
60.9283
60.5313
71.5921
61.6254
56.7018
51.9218
47.1232
45.1429
47.7744
52.9924
57.2082
59.4772
60.5896
61.1628
61.4921
61.7332
61.9523
62.1715
62.3944
62.6206
62.8485
63.0722
63.2869
63.4796
63.6355
63.7365
63.7643
63.6938
63.4901
63.1236
62.6018
61.9306
61.2387
60.8147
74.9434
62.9401
57.348
52.7931
47.9037
44.7605
46.1504
51.1347
56.0333
58.9928
60.5055
61.2881
61.7358
62.0435
62.2991
62.5413
62.7812
63.0239
63.2684
63.5078
63.7368
63.9429
64.1087
64.2161
64.2473
64.1751
63.9626
63.579
63.0294
62.3211
61.5956
61.1515
74.0244
63.8472
58.201
53.6986
48.8337
44.6935
44.6731
48.9725
54.3585
58.0034
60.017
61.0797
61.682
62.0709
62.373
62.6442
62.9057
63.1699
63.4378
63.7018
63.9566
64.1898
64.3808
64.5106
64.558
64.496
64.2885
63.9045
63.3471
62.6197
61.8765
61.4308
72.1302
64.1156
59.0368
54.7338
50.0419
45.107
43.4504
46.5871
52.0922
56.4263
58.9605
60.3549
61.1422
61.6312
61.9848
62.2834
62.5641
62.8487
63.143
63.4411
63.7372
64.0185
64.2612
64.4453
64.5463
64.5388
64.3851
64.0489
63.5267
62.8177
62.0906
61.673
68.5799
63.109
59.1096
55.3921
51.13
45.8356
42.5911
44.0236
49.0732
54.0025
57.0934
58.8512
59.8405
60.4207
60.8058
61.1085
61.3893
61.6844
62.0064
62.3475
62.7001
63.0495
63.3672
63.6321
63.819
63.9026
63.8441
63.6053
63.1751