/*--------------------------------*- C++ -*----------------------------------*\
  =========                 |
  \\      /  F ield         | OpenFOAM: The Open Source CFD Toolbox
   \\    /   O peration     | Website:  https://openfoam.org
    \\  /    A nd           | Version:  6
     \\/     M anipulation  |
\*---------------------------------------------------------------------------*/
FoamFile
{
    version     2.0;
    format      ascii;
    class       volScalarField;
    location    "45";
    object      yPlus;
}
// * * * * * * * * * * * * * * * * * * * * * * * * * * * * * * * * * * * * * //

dimensions      [0 0 0 0 0 0 0];

internalField   uniform 0;

boundaryField
{
    inlet
    {
        type            calculated;
        value           uniform 0;
    }
    outlet
    {
        type            calculated;
        value           uniform 0;
    }
    roughCylinder
    {
        type            calculated;
        value           nonuniform List<scalar> 
5120
(
42.7324
50.5042
56.6791
62.6917
67.8343
71.9787
75.2863
77.9517
80.1299
81.9573
83.5536
84.9839
86.2867
87.4937
88.6348
89.7398
90.8384
91.9573
93.1186
94.3385
95.6251
96.9804
98.4011
99.88
101.407
102.969
104.549
106.124
107.655
109.073
110.236
110.919
42.0594
49.5466
55.5251
61.4012
66.4724
70.5813
73.8695
76.5256
78.7033
80.5373
82.1406
83.5732
84.8664
86.0585
87.1814
88.2652
89.3402
90.4344
91.5704
92.7633
94.0217
95.3475
96.7372
98.1835
99.6762
101.203
102.747
104.285
105.779
107.163
108.297
108.963
41.2888
48.5333
54.3306
60.0742
65.0775
69.158
72.4365
75.0946
77.2835
79.1337
80.7494
82.1856
83.4724
84.6529
85.7588
86.8223
87.8757
88.9465
90.0569
91.2234
92.4542
93.7508
95.1099
96.5243
97.9833
99.4749
100.983
102.484
103.942
105.292
106.397
107.045
40.525
47.5326
53.1447
58.7485
63.6797
67.7315
71.0023
73.6672
75.8748
77.748
79.3802
80.8231
82.1098
83.2803
84.3723
85.419
86.4518
87.5
88.5875
89.729
90.933
92.2016
93.5309
94.9137
96.34
97.7969
99.2684
100.734
102.155
103.471
104.548
105.179
39.6791
46.469
51.8983
57.3628
62.2279
66.2643
69.545
72.2338
74.4731
76.3769
78.0308
79.4852
80.7761
81.9416
83.0229
84.0536
85.0687
86.0975
87.162
88.2794
89.4582
90.6996
92.0003
93.3528
94.7468
96.17
97.6073
99.0372
100.423
101.706
102.755
103.369
38.8645
45.4311
50.6679
55.9835
60.7786
64.8007
68.093
70.8065
73.0789
75.0162
76.695
78.165
79.4649
80.6319
81.7063
82.7266
83.7263
84.7359
85.7814
86.8773
88.0319
89.2477
90.5207
91.8433
93.2061
94.5962
95.9984
97.3925
98.7443
99.9944
101.017
101.614
37.9524
44.3087
49.3489
54.5111
59.2403
63.2641
66.5918
69.3541
71.6768
73.6565
75.3671
76.8593
78.1737
79.349
80.423
81.4344
82.422
83.4179
84.444
85.5188
86.6513
87.8425
89.0889
90.3835
91.7156
93.0739
94.4431
95.8038
97.121
98.3403
99.3353
99.9155
37.0836
43.2194
48.0511
53.0475
57.7056
61.7324
65.0956
67.9018
70.2709
72.2957
74.0428
75.5625
76.8976
78.0861
79.1664
80.1768
81.1568
82.1386
83.1508
84.2084
85.3198
86.4881
87.7092
88.9757
90.2783
91.6043
92.9396
94.2656
95.5497
96.7367
97.7061
98.2705
36.0783
42.0025
46.6142
51.4307
56.0141
60.059
63.4901
66.3796
68.827
70.9131
72.7076
74.2646
75.6278
76.8373
77.9305
78.946
79.9223
80.8992
81.8972
82.9375
84.0305
85.1769
86.3736
87.6137
88.8868
90.1828
91.4858
92.7793
94.0296
95.1876
96.1301
96.6781
35.1188
40.8185
45.2
49.8216
54.3213
58.3844
61.8817
64.8427
67.3565
69.5084
71.3593
72.9615
74.3617
75.5986
76.7107
77.7368
78.7192
79.6899
80.6811
81.7103
82.7857
83.912
85.0856
86.299
87.5439
88.8074
90.077
91.3359
92.5532
93.6788
94.5971
95.1283
33.9378
39.424
43.5568
47.9541
52.3491
56.4383
60.0463
63.1495
65.7965
68.0463
69.9718
71.6338
73.0804
74.3549
75.4943
76.5398
77.5291
78.5066
79.4916
80.5086
81.5704
82.6777
83.8285
85.0163
86.2315
87.4652
88.7025
89.9288
91.1116
92.2091
93.1013
93.6167
32.7765
38.0549
41.9355
46.0956
50.3733
54.4853
58.1978
61.415
64.1632
66.5205
68.5398
70.2765
71.7847
73.1066
74.2833
75.3522
76.3611
77.3397
78.3265
79.3399
80.3883
81.4788
82.6085
83.7708
84.9585
86.1587
87.3612
88.5516
89.7019
90.7668
91.6344
92.1326
31.2725
36.3457
39.9301
43.7855
47.8837
52.0019
55.88
59.3498
62.3496
64.8787
67.0232
68.8588
70.4425
71.8254
73.047
74.1548
75.1834
76.1843
77.1736
78.1799
79.2203
80.2951
81.4041
82.5419
83.6994
84.8704
86.0399
87.198
88.3132
89.3503
90.1918
90.6743
29.7487
34.6455
37.9595
41.5178
45.4298
49.5451
53.5615
57.1978
60.349
63.0766
65.3951
67.3632
69.0516
70.5135
71.802
72.9515
74.0185
75.0281
76.0296
77.0426
78.0742
79.1361
80.2264
81.3393
82.4699
83.6053
84.7384
85.8584
86.9393
87.9434
88.7595
89.2233
27.614
32.3237
35.2732
38.3739
41.9243
45.9419
50.1831
54.3081
58.0005
61.054
63.601
65.7457
67.5649
69.1304
70.4872
71.702
72.8053
73.8607
74.8771
75.8886
76.9199
77.9699
79.0416
80.1307
81.2298
82.3357
83.4342
84.5203
85.5657
86.5401
87.3307
87.7792
25.3308
29.9767
32.7009
35.4712
38.7375
42.6765
47.0442
51.296
55.1375
58.6211
61.5368
63.9459
65.9594
67.6603
69.1388
70.4261
71.5969
72.6683
73.7102
74.7431
75.7709
76.8131
77.8684
78.9323
80.0042
81.0708
82.1288
83.1731
84.1796
85.1209
85.8831
86.3109
21.5943
26.1656
28.4176
30.4118
32.8239
36.2175
40.8034
46.3365
51.6306
55.7426
59.1287
61.8958
64.1654
66.0644
67.651
69.0433
70.2723
71.4282
72.5037
73.5411
74.5793
75.6135
76.6524
77.6928
78.7302
79.7655
80.7857
81.7936
82.7635
83.67
84.4092
84.8208
17.5102
22.6195
25.0933
26.9444
28.922
32.4026
37.1994
41.5854
46.368
51.7829
56.0545
59.42
62.0954
64.2457
66.0699
67.5987
68.9498
70.1277
71.2459
72.3278
73.3686
74.4017
75.4264
76.4395
77.4477
78.4371
79.4095
80.3677
81.2895
82.1651
82.867
83.2553
6.68466
11.9953
12.8539
13.6499
12.0486
11.8798
16.3489
30.6536
40.7049
46.5446
52.0918
56.3489
59.6192
62.2149
64.2344
65.9395
67.3803
68.7146
69.8994
70.9914
72.0587
73.0883
74.0986
75.0871
76.0556
77.009
77.9375
78.8551
79.7412
80.5679
81.255
81.6221
5.56729
9.19642
10.2002
13.6238
15.1582
14.7263
7.20502
2.64658
23.0131
39.1601
46.4712
52.2436
56.488
59.6031
62.1387
64.1354
65.8235
67.183
68.4351
69.6125
70.6909
71.7292
72.7278
73.684
74.6175
75.5127
76.3797
77.2318
78.049
78.8544
79.4842
79.8268
10.2929
14.8458
15.819
14.2917
15.5627
11.6084
12.1925
19.538
14.0409
18.3086
37.6772
46.3753
52.2803
56.6133
59.5783
61.9086
63.7345
65.4079
66.7956
67.9876
69.1204
70.1609
71.1469
72.0735
72.9584
73.8084
74.6189
75.4253
76.2147
76.9352
77.5727
77.8798
18.7942
23.0217
24.6341
25.0977
23.9616
21.7409
17.9726
14.4897
16.6579
20.1269
22.3242
37.6625
46.6583
52.0615
56.2785
59.3047
61.7138
63.4028
64.9009
66.2656
67.4225
68.4896
69.4681
70.3522
71.1869
71.9528
72.6753
73.3801
74.0492
74.7842
75.3139
75.6057
21.7437
26.6156
29.1919
30.9698
31.8355
31.6179
29.9614
26.4444
21.28
23.8942
27.0561
23.5206
35.7708
46.4721
51.9955
55.8362
58.4435
60.858
62.6587
64.0322
65.3055
66.3845
67.3506
68.1904
68.9612
69.6626
70.3004
70.9555
71.6402
72.1833
72.792
72.9958
22.7554
27.7617
30.6175
32.8627
34.4618
35.3934
35.5844
34.7752
32.2097
26.7107
26.533
20.1822
26.8734
36.4388
45.7388
51.2857
55.5245
57.8369
59.8373
61.6107
62.9237
64.0657
65.0402
65.8127
66.4909
67.0475
67.5371
67.9994
68.4068
69.0997
69.4585
69.7097
22.4015
27.5438
30.5771
33.079
35.014
36.3775
37.1741
37.384
36.8332
34.8144
29.3887
31.145
32.212
29.0933
36.2853
44.897
49.202
53.5907
56.3131
58.0006
59.6019
60.7793
61.7226
62.4148
62.9973
63.4363
63.7859
64.1994
64.8739
64.9878
65.6552
65.6334
21.0369
26.319
29.4581
32.1152
34.2655
35.9111
37.0751
37.7873
38.0481
37.7054
36.0302
31.1952
33.1497
29.6876
20.8737
34.1365
44.8316
48.0375
51.3411
54.1713
55.7683
57.0838
58.1121
58.6599
59.0111
59.1528
59.152
59.1233
58.8378
59.7156
59.7361
60.0853
19.1265
24.5183
27.6996
30.4242
32.6849
34.4983
35.8957
36.9345
37.6846
38.1712
38.2108
36.9363
32.7461
29.5553
22.0384
19.3225
28.4705
40.7589
45.0688
47.1415
49.5387
50.8922
51.7614
52.1117
52.2886
52.0647
51.969
51.8582
53.7876
52.0865
52.9894
53.0034
16.8952
22.3008
25.4326
28.1289
30.4081
32.3084
33.8736
35.1631
36.2598
37.2391
38.0939
38.5724
37.8739
33.8147
30.9192
12.0097
25.6874
24.1862
34.8068
41.0808
42.8741
44.732
45.7322
46.4026
45.3294
44.3203
42.9875
41.4545
39.9032
41.2754
41.1167
40.149
14.6096
19.8856
22.8594
25.4222
27.6237
29.5243
31.1838
32.6673
34.0523
35.4155
36.781
38.0476
38.876
38.2948
34.2367
24.5347
27.1242
18.3786
18.7602
23.6734
26.7039
27.8738
30.0775
27.7952
25.6292
21.5988
20.0504
18.3738
26.6904
21.4803
24.8261
42.469
12.5408
17.5526
20.2839
22.634
24.6851
26.5157
28.1962
29.7936
31.3754
33.0074
34.7295
36.4908
38.0947
39.0796
38.3916
34.3942
26.3161
27.8038
22.5123
29.5339
29.758
23.4152
15.915
23.7125
19.5791
32.1263
25.0404
12.7889
35.4479
31.6301
27.4347
46.7457
10.9382
15.5911
18.0491
20.156
22.0234
23.7426
25.3866
27.0162
28.6835
30.4367
32.3207
34.3372
36.3853
38.1726
39.1254
38.5661
33.8824
28.3855
22.5994
35.7144
35.115
27.9526
22.3528
34.7433
27.974
26.1977
34.0287
32.6589
39.737
41.3679
36.0374
37.6814
9.74756
14.1466
16.3678
18.2647
19.9714
21.5827
23.1646
24.7628
26.4134
28.1508
30.0162
32.0458
34.2332
36.4371
38.2772
39.2156
38.2548
35.7962
31.736
27.6491
33.8149
29.1949
26.2967
34.1911
31.4594
35.2813
36.3808
37.5426
33.5097
36.7956
37.0718
38.2345
9.1139
13.3098
15.361
17.1188
18.7253
20.2647
21.7856
23.3156
24.8766
26.4959
28.2126
30.0775
32.1353
34.3731
36.6163
38.4744
39.2853
39.1572
37.918
34.4806
34.8943
34.1056
35.2326
35.0896
39.3276
42.2622
42.5761
42.5663
39.3665
41.2814
41.4852
43.5728
8.93183
13.0329
15.0075
16.7132
18.2888
19.8008
21.2776
22.7314
24.1752
25.6332
27.1431
28.7554
30.53
32.5169
34.7
36.9062
38.7046
39.8233
39.9342
38.7105
39.3899
38.4693
39.5798
39.7831
41.6096
43.3902
43.5148
43.0865
41.7004
42.2463
42.3726
44.0493
9.12835
13.2185
15.1936
16.9179
18.5172
20.0384
21.493
22.8842
24.2222
25.5298
26.8407
28.1985
29.6566
31.2785
33.1171
35.1627
37.2294
39.0301
40.095
40.1645
40.8569
40.1535
40.8554
41.2398
41.8362
42.9304
42.9263
42.5156
41.8893
41.6051
41.9391
42.9682
9.59636
13.7301
15.7571
17.5478
19.208
20.7673
22.2256
23.5814
24.8446
26.0382
27.1929
28.3441
29.5332
30.8123
32.243
33.8786
35.6984
37.5653
39.1113
39.9986
40.8392
40.5182
40.936
41.2106
41.1622
41.563
41.3058
40.991
40.6441
40.0382
40.4883
41.1018
10.2706
14.4774
16.5807
18.4593
20.1972
21.809
23.2882
24.6329
25.8553
26.9792
28.0327
29.0435
30.0404
31.0593
32.1483
33.3645
34.7467
36.2779
37.7754
38.9539
39.9192
39.958
40.1992
40.2708
39.8793
39.7449
39.2792
39.0568
38.8374
38.2053
38.7057
39.0971
11.0923
15.3999
17.5923
19.5655
21.3834
23.0502
24.5572
25.9057
27.1125
28.2034
29.2042
30.1365
31.0181
31.8691
32.7204
33.6138
34.5941
35.6885
36.8403
37.8892
38.7714
39.003
39.1288
39.0252
38.4619
37.9916
37.4249
37.2662
37.1505
36.6911
37.2174
37.5252
11.966
16.4468
18.7369
20.8046
22.699
24.4184
25.9558
27.3178
28.5265
29.6102
30.5934
31.4928
32.3183
33.079
33.7898
34.4743
35.1655
35.8952
36.6593
37.3918
38.0191
38.2406
38.2423
37.9936
37.3506
36.715
36.1343
36.0161
36.0102
35.7931
36.3553
36.6593
12.9844
17.5868
19.9721
22.1306
24.0971
25.8667
27.4359
28.8178
30.0403
31.1341
32.1223
33.0184
33.8269
34.5499
35.1921
35.7621
36.2775
36.7598
37.2187
37.6341
37.9607
38.0331
37.8794
37.4962
36.8078
36.1068
35.5524
35.4602
35.5614
35.5832
36.1902
36.528
13.3217
13.7415
14.226
14.6184
14.9981
15.3034
15.5703
15.7803
15.9511
16.0763
16.1658
16.2168
16.2341
16.2199
16.1779
16.1092
16.0173
15.909
15.8013
15.7479
15.8391
15.9917
16.151
16.2975
16.4231
16.5231
16.5956
16.6381
16.646
16.6182
16.55
16.4426
16.2847
16.0832
15.8202
15.514
15.1264
14.7175
14.2117
13.759
18.0108
18.4461
18.9495
19.3588
19.7552
20.0807
20.3696
20.6041
20.8007
20.9538
21.0723
21.1539
21.2012
21.2153
21.1987
21.1516
21.076
20.9776
20.8739
20.8272
20.9352
21.0997
21.262
21.4029
21.5155
21.5966
21.6457
21.6606
21.6388
21.5805
21.4823
21.3451
21.159
20.9306
20.6427
20.313
19.9059
19.4783
18.9527
18.4843
20.4339
20.894
21.4268
21.8611
22.2855
22.6412
22.965
23.2377
23.476
23.6739
23.8394
23.9705
24.0682
24.1313
24.1614
24.1575
24.1204
24.0543
23.9755
23.9447
24.0542
24.209
24.3523
24.4664
24.5455
24.5882
24.5944
24.5632
24.4943
24.3893
24.2456
24.0644
23.837
23.5702
23.2467
22.8853
22.4491
21.9955
21.4397
20.9454
22.6121
23.0901
23.6448
24.0976
24.5457
24.9282
25.284
25.593
25.8719
26.1139
26.3257
26.5056
26.6534
26.7664
26.844
26.8848
26.8883
26.8586
26.8118
26.803
26.9041
27.0408
27.1599
27.2442
27.288
27.291
27.2538
27.1771
27.0623
26.9121
26.7243
26.5005
26.234
25.9316
25.5759
25.187
24.7262
24.2532
23.675
23.162
24.5881
25.0685
25.6293
26.0871
26.5458
26.9427
27.3184
27.6521
27.9605
28.2371
28.4865
28.7062
28.895
29.0492
29.1667
29.2452
29.2839
29.2865
29.2695
29.2808
29.3715
29.4886
29.5848
29.6423
29.6558
29.625
29.5514
29.4372
29.2848
29.0976
28.8748
28.6193
28.3252
27.9988
27.6231
27.2191
26.7467
26.2676
25.6821
25.166
26.3638
26.8298
27.3824
27.8329
28.2909
28.6924
29.079
29.4311
29.7631
30.0679
30.349
30.6022
30.8257
31.0148
31.1662
31.2769
31.3452
31.3751
31.3825
31.4087
31.4916
31.5919
31.6679
31.702
31.6888
31.6287
31.5239
31.3775
31.1929
30.974
30.7216
30.4394
30.1231
29.7801
29.3936
28.9843
28.5113
28.0379
27.4584
26.9549
27.9401
28.3803
28.917
29.3547
29.8079
30.2128
30.6101
30.9794
31.3334
31.6643
31.9738
32.2571
32.5112
32.731
32.912
33.0503
33.1437
33.1957
33.2216
33.2579
33.3361
33.4239
33.4834
33.4974
33.4611
33.375
33.2422
33.0668
32.8528
32.6051
32.3253
32.0182
31.6807
31.3207
30.9237
30.5115
30.042
29.579
29.0121
28.5314
29.3327
29.7435
30.2641
30.691
31.1428
31.5545
31.9642
32.3512
32.7263
33.0814
33.4168
33.7273
34.0088
34.2554
34.4619
34.6235
34.7376
34.8071
34.8461
34.8891
34.9649
35.0442
35.0908
35.0883
35.0322
34.9236
34.7662
34.5648
34.3243
34.0501
33.7449
33.4139
33.0555
32.6776
32.2682
31.8484
31.3796
30.9253
30.3706
29.9155
30.5701
30.9532
31.462
31.884
32.3383
32.7587
33.1813
33.5854
33.9799
34.3569
34.7153
35.0494
35.3545
35.6239
35.8517
36.0325
36.163
36.2453
36.2933
36.3407
36.4155
36.4895
36.5267
36.5112
36.4388
36.3114
36.133
35.9092
35.6456
35.3479
35.02
34.6673
34.2893
33.894
33.4711
33.0416
32.5685
32.118
31.5718
31.1402
31.6817
32.0408
32.5422
32.9625
33.4206
33.8501
34.2846
34.7039
35.1155
35.511
35.889
36.2429
36.5674
36.8555
37.1005
37.2965
37.4396
37.5314
37.5852
37.635
37.7098
37.7807
37.8112
37.7857
37.7004
37.5576
37.362
37.1197
36.8366
36.5191
36.1717
35.8002
35.405
34.9941
34.5586
34.119
33.6406
33.1897
32.6485
32.2376
32.6885
33.0251
33.5208
33.9401
34.4017
34.8392
35.2839
35.716
36.1417
36.5527
36.9466
37.3167
37.6569
37.9597
38.2181
38.4258
38.5784
38.6771
38.735
38.7865
38.8614
38.9301
38.9557
38.9224
38.8271
38.6722
38.4628
38.2055
37.9065
37.5728
37.2094
36.822
36.4124
35.9881
35.5418
35.0934
34.6102
34.1587
33.6208
33.229
33.6001
33.9135
34.4028
34.8203
35.2846
35.7286
36.1819
36.6246
37.0619
37.4854
37.8921
38.2749
38.6273
38.9416
39.2106
39.4272
39.5874
39.6921
39.754
39.8073
39.8815
39.9475
39.9683
39.9287
39.8252
39.6607
39.4404
39.1711
38.8595
38.5127
38.136
37.7359
37.3141
36.8788
36.4235
35.9676
35.4807
35.0296
34.496
34.1247
34.4185
34.706
35.1868
35.6018
36.0678
36.5174
36.9777
37.4294
37.8763
38.3101
38.7269
39.1197
39.4817
39.805
40.082
40.3061
40.4729
40.5836
40.6509
40.7072
40.7794
40.8406
40.8559
40.8101
40.6997
40.5273
40.2983
40.0194
39.6977
39.3402
38.9528
38.5419
38.1101
37.6653
37.2023
36.7404
36.2507
35.8009
35.2738
34.9259
35.1431
35.4001
35.8695
36.281
36.748
37.2025
37.6692
38.1289
38.5841
39.0265
39.4517
39.8526
40.2221
40.5524
40.8359
41.0663
41.2395
41.3571
41.4317
41.4923
41.5611
41.6153
41.6237
41.5713
41.4544
41.2753
41.039
40.7524
40.4224
40.056
39.6595
39.2394
38.7987
38.3454
37.8753
37.408
36.9163
36.4691
35.9508
35.6309
35.7738
35.9934
36.4473
36.8538
37.3209
37.7803
38.2533
38.7205
39.1835
39.6335
40.0659
40.4735
40.8492
41.1852
41.4743
41.7104
41.8902
42.0155
42.0987
42.1642
42.2288
42.2746
42.2747
42.2152
42.0919
41.9066
41.6641
41.3708
41.0336
40.6596
40.2548
39.8263
39.3772
38.9156
38.4386
37.9658
37.4725
37.0289
36.523
36.2382
36.3141
36.4842
36.9162
37.3149
37.7814
38.2454
38.7247
39.1997
39.6702
40.1276
40.5667
40.9804
41.3614
41.7024
41.9965
42.238
42.4243
42.5578
42.6496
42.7198
42.7803
42.8172
42.8086
42.7415
42.6117
42.4205
42.1722
41.8728
41.5289
41.1476
40.7352
40.2982
39.8405
39.3705
38.8862
38.4075
37.9131
37.4746
36.9853
36.7473
36.7687
36.87
37.2706
37.6576
38.1217
38.5898
39.0757
39.5587
40.0371
40.5019
40.9477
41.367
41.753
42.0986
42.3973
42.644
42.8366
42.9779
43.0777
43.1518
43.2086
43.2373
43.22
43.1453
43.0089
42.8118
42.5578
42.2524
41.9021
41.5136
41.0932
40.6474
40.1808
39.7015
39.2092
38.7241
38.229
37.7966
37.3337
37.1628
37.1473
37.1511
37.5041
37.8737
38.3316
38.8031
39.2953
39.7864
40.2731
40.7456
41.1982
41.6233
42.0142
42.3642
42.6673
42.9189
43.1174
43.2657
43.3722
43.4494
43.5031
43.5245
43.499
43.4169
43.274
43.0709
42.811
42.4994
42.1424
41.7462
41.3173
40.8622
40.3856
39.8962
39.3951
38.903
38.4077
37.9863
37.5668
37.4927
37.4598
37.3307
37.6117
37.9533
38.4
38.8722
39.3697
39.8689
40.364
40.8446
41.3043
41.7354
42.1315
42.4859
42.7931
43.0494
43.2532
43.4074
43.5193
43.5988
43.6498
43.665
43.6322
43.5429
43.3935
43.1841
42.9179
42.5997
42.2352
41.8309
41.3926
40.9271
40.4395
39.939
39.4281
38.9286
38.4349
38.035
37.6828
37.7427
37.7083
37.4117
37.5917
37.888
38.3162
38.785
39.2855
39.7918
40.2949
40.7835
41.2504
41.6878
42.0892
42.4481
42.7596
43.0201
43.2285
43.3876
43.5036
43.5847
43.6334
43.6431
43.6037
43.5076
43.3515
43.1356
42.8626
42.537
42.1644
41.7508
41.3022
40.8253
40.326
39.8128
39.2915
38.7826
38.2974
37.9352
37.6788
37.9084
37.8657
37.3851
37.442
37.6745
38.0729
38.5335
39.0335
39.5446
40.0544
40.5503
41.024
41.4674
41.8739
42.2371
42.5524
42.8166
43.0288
43.1916
43.3106
43.3927
43.4392
43.4443
43.3989
43.2964
43.1337
42.9109
42.6306
42.2971
41.9156
41.492
41.0324
40.5432
40.0306
39.5038
38.9686
38.4549
37.9893
37.6824
37.547
37.9689
37.8718
37.2231
37.1559
37.3151
37.6743
38.1202
38.6148
39.1271
39.6406
40.1417
40.6206
41.0689
41.4793
41.8461
42.1642
42.431
42.6457
42.8109
42.9317
43.0141
43.0588
43.0601
43.0096
42.9012
42.7321
42.5025
42.2148
41.8731
41.4827
41.049
40.5782
40.0767
39.5507
39.0089
38.4627
37.951
37.5144
37.2731
37.2583
37.8479
37.6471
36.8839
36.7216
36.8152
37.1334
37.5594
38.0461
38.5554
39.0691
39.5719
40.053
40.5033
40.9156
41.2837
41.6028
41.8702
42.0855
42.2512
42.3724
42.4546
42.498
42.4963
42.4418
42.3286
42.1542
41.9186
41.6244
41.2755
40.8769
40.4342
39.9533
39.4403
38.9019
38.345
37.7911
37.2869
36.8829
36.7063
36.7989
37.5288
37.1772
36.3591
36.1456
36.1961
36.4833
36.8904
37.367
37.8696
38.3793
38.8794
39.3587
39.8074
40.2179
40.584
40.901
41.166
41.379
41.5427
41.6626
41.7442
41.7868
41.7838
41.7273
41.6114
41.4335
41.194
40.8953
40.5413
40.1368
39.6874
39.1987
38.6763
38.1254
37.5596
37.0054
36.5139
36.1415
36.0196
36.1916
37.0236
36.4496
35.6637
35.4637
35.5093
35.7867
36.1828
36.6503
37.1442
37.6461
38.1391
38.6116
39.0538
39.4577
39.8173
40.1276
40.3861
40.5929
40.7514
40.8678
40.9485
40.9919
40.9903
40.9348
40.8194
40.6416
40.4019
40.1026
39.7477
39.3419
38.8907
38.3992
37.873
37.3159
36.7469
36.1956
35.7144
35.3595
35.261
35.4547
36.3089
35.7822
35.006
34.8164
34.8632
35.1371
35.5263
35.9859
36.4715
36.9645
37.4484
37.9114
38.3437
38.7376
39.0867
39.3863
39.634
39.8303
39.9798
40.0907
40.1709
40.2177
40.2212
40.1709
40.0603
39.887
39.6515
39.3564
39.0057
38.604
38.1565
37.6681
37.1445
36.5898
36.0247
35.4796
35.0065
34.6591
34.5649
34.7525
35.5985
35.2817
34.548
34.3847
34.4377
34.7074
35.0847
35.5292
35.9999
36.4783
36.9473
37.3953
37.8124
38.191
38.5246
38.8085
39.0404
39.2212
39.3569
39.4595
39.5401
39.5942
39.6077
39.5675
39.4667
39.3029
39.0773
38.7925
38.4523
38.0618
37.6259
37.1497
36.639
36.0981
35.5478
35.0172
34.5566
34.2151
34.1167
34.2806
35.0884
35.1444
34.4225
34.2672
34.3211
34.5839
34.9479
35.3751
35.8292
36.2904
36.7418
37.1716
37.5702
37.9299
38.2443
38.5089
38.7209
38.8816
38.9982
39.0885
39.1706
39.2362
39.2634
39.2364
39.1484
38.9978
38.7858
38.5156
38.1912
37.8173
37.3994
36.9429
36.4536
35.9374
35.4128
34.9069
34.4685
34.1437
34.0555
34.2173
35.0168
35.422
34.7295
34.5848
34.6286
34.8694
35.2036
35.6021
36.0287
36.4631
36.8887
37.2934
37.6675
38.0034
38.2948
38.5368
38.7265
38.8644
38.9583
39.0322
39.1168
39.1964
39.2384
39.2254
39.1515
39.0159
38.8204
38.5682
38.2636
37.9115
37.5172
37.0864
36.6256
36.1421
35.6487
35.1696
34.7508
34.4333
34.3365
34.4648
35.207
35.9899
35.3483
35.2256
35.2622
35.4832
35.7907
36.1598
36.555
36.9577
37.3516
37.7254
38.0698
38.3774
38.642
38.8587
39.0243
39.1385
39.2084
39.2621
39.3463
39.4363
39.4892
39.4871
39.4251
39.3032
39.1232
38.8889
38.604
38.2735
37.9024
37.4964
37.0618
36.6055
36.1371
35.6755
35.2615
34.9281
34.7855
34.8253
35.4262
36.5941
35.9875
35.8845
35.9222
36.1354
36.4274
36.7767
37.1495
37.5284
37.898
38.2476
38.5685
38.8535
39.0968
39.2936
39.4405
39.537
39.5897
39.6276
39.7088
39.8031
39.8612
39.8653
39.8111
39.6987
39.5303
39.3092
39.0396
38.7262
38.3739
37.9888
37.5773
37.1466
36.7077
36.2744
35.8852
35.57
35.4381
35.4759
36.0667
36.9133
36.3793
36.324
36.3892
36.6146
36.9071
37.25
37.6114
37.9764
38.3305
38.664
38.9688
39.2383
39.467
39.6502
39.7847
39.8699
39.912
39.9399
40.0156
40.1093
40.1686
40.1754
40.1252
40.018
39.8561
39.6426
39.3815
39.0774
38.7354
38.361
37.9608
37.5419
37.1152
36.6917
36.3086
35.9944
35.8556
35.878
36.4408
42.6008
50.365
56.5331
62.5417
67.6824
71.8259
75.1331
77.7988
79.9778
81.8058
83.4018
84.832
86.1344
87.3409
88.4812
89.5852
90.6827
91.8005
92.9605
94.1791
95.4645
96.8185
98.2378
99.7151
101.24
102.8
104.379
105.952
107.48
108.894
110.052
110.731
41.9032
49.3871
55.3611
61.2354
66.3072
70.4179
73.7082
76.3667
78.5463
80.3816
81.985
83.4174
84.7099
85.9012
87.0232
88.1062
89.1803
90.2733
91.4082
92.6001
93.8572
95.1817
96.5699
98.0147
99.5058
101.031
102.572
104.109
105.6
106.979
108.108
108.769
41.1467
48.3822
54.1716
59.9109
64.9123
68.9922
72.2705
74.9292
77.1193
78.9703
80.5859
82.0224
83.3098
84.4906
85.5962
86.6591
87.7117
88.7816
89.8909
91.056
92.2856
93.581
94.9387
96.3514
97.8089
99.2989
100.804
102.304
103.759
105.104
106.204
106.847
40.3464
47.3505
52.9573
58.5594
63.4923
67.548
70.8233
73.4922
75.7029
77.5784
79.2119
80.6558
81.9427
83.1126
84.2043
85.2507
86.2829
87.3303
88.4169
89.5576
90.7604
92.0276
93.3555
94.7366
96.1608
97.6161
99.0857
100.549
101.967
103.278
104.35
104.975
39.523
46.3021
51.7225
57.1822
62.0459
66.0822
69.363
72.0523
74.2931
76.1984
77.853
79.3083
80.6006
81.768
82.85
83.8806
84.8954
85.9239
86.9876
88.1037
89.2815
90.5217
91.8208
93.1716
94.5638
95.9855
97.4204
98.8485
100.232
101.509
102.552
103.16
38.6563
45.2177
50.4472
55.7605
60.5587
64.5877
67.8883
70.6093
72.887
74.828
76.51
77.9827
79.2845
80.4519
81.5269
82.5476
83.5475
84.5568
85.6017
86.6972
87.8509
89.0653
90.3367
91.6577
93.0183
94.4065
95.8069
97.1992
98.5476
99.7918
100.808
101.398
37.776
44.1193
49.1491
54.3063
59.0355
63.0606
66.3887
69.1512
71.476
73.4588
75.1717
76.6657
77.982
79.1614
80.238
81.2505
82.2383
83.2346
84.2605
85.3342
86.4657
87.6557
88.9006
90.1933
91.5235
92.8802
94.2473
95.6064
96.9205
98.1328
99.1214
99.6951
36.8355
42.9625
47.7828
52.7743
57.4362
61.4739
64.8522
67.6728
70.0518
72.0826
73.835
75.3601
76.7002
77.89
78.9727
79.9846
80.9665
81.9488
82.9608
84.0187
85.1295
86.2964
87.5158
88.7805
90.0806
91.4048
92.7385
94.0625
95.3428
96.5229
97.4847
98.0418
35.8691
41.7782
46.378
51.1901
55.7762
59.8257
63.2581
66.1472
68.5974
70.6898
72.4897
74.0502
75.4153
76.6319
77.7302
78.7488
79.7261
80.7043
81.7033
82.7427
83.8348
84.9801
86.1753
87.4133
88.6845
89.9789
91.2798
92.5718
93.8192
94.9682
95.904
96.4436
34.8153
40.5001
44.8625
49.4726
53.9736
58.0522
61.5761
64.5654
67.0986
69.2608
71.1197
72.7303
74.1417
75.3816
76.4971
77.5266
78.5134
79.4869
80.4785
81.5089
82.5843
83.7094
84.8811
86.0926
87.3342
88.5956
89.8641
91.1211
92.3339
93.4506
94.3594
94.8823
33.6717
39.1423
43.2626
47.6575
52.061
56.1614
59.7726
62.8729
65.5241
67.7866
69.7238
71.3943
72.8408
74.1258
75.2746
76.3256
77.3166
78.2968
79.2841
80.3007
81.3617
82.4682
83.6173
84.8029
86.016
87.2485
88.4829
89.7087
90.8892
91.9758
92.8589
93.3635
32.3886
37.6462
41.495
45.628
49.8959
54.0254
57.785
61.0601
63.8478
66.2227
68.2538
70.0011
71.533
72.8616
74.0423
75.1168
76.1342
77.1189
78.107
79.1231
80.1725
81.2618
82.3894
83.5494
84.733
85.9307
87.1325
88.3224
89.4671
90.5208
91.376
91.8649
30.9081
35.9681
39.5397
43.398
47.5183
51.6618
55.5412
58.9972
62.004
64.5617
66.7325
68.5906
70.1678
71.5641
72.8019
73.9198
74.951
75.9549
76.9488
77.9554
78.9949
80.0692
81.1763
82.3114
83.4664
84.6372
85.8038
86.962
88.0755
89.0997
89.9292
90.3973
29.2243
34.096
37.358
40.8536
44.7157
48.8345
52.9436
56.7119
59.9454
62.7017
65.0373
67.0123
68.7504
70.2298
71.5231
72.6799
73.7618
74.7834
75.788
76.8054
77.8398
78.9006
79.9883
81.0986
82.2238
83.3556
84.4887
85.6103
86.6853
87.6732
88.4737
88.9269
27.0748
31.7825
34.7223
37.842
41.4589
45.5437
49.7468
53.7933
57.5005
60.6302
63.2409
65.4512
67.247
68.8238
70.2073
71.4413
72.5484
73.6057
74.6297
75.6428
76.6728
77.7226
78.7918
79.8774
80.9729
82.0806
83.1765
84.2647
85.3084
86.2671
87.0417
87.4703
24.5372
29.1663
31.8127
34.4395
37.5024
41.3258
45.948
50.5887
54.5987
58.116
61.0574
63.4448
65.5689
67.3173
68.8059
70.101
71.2962
72.3906
73.4387
74.4788
75.5122
76.5527
77.6045
78.6655
79.7301
80.7906
81.8495
82.9
83.901
84.8175
85.5599
85.9753
20.7227
25.3512
27.6111
29.6728
32.3795
36.1309
40.332
45.3354
50.7293
55.0871
58.6325
61.6025
63.7981
65.6943
67.3201
68.7508
69.9861
71.1399
72.2266
73.2676
74.3029
75.3377
76.3727
77.4082
78.4397
79.4806
80.5001
81.5124
82.4803
83.3676
84.0827
84.4687
16.0484
21.2385
23.5899
25.2187
26.4984
28.9003
34.809
40.7835
45.6134
50.9869
55.333
58.5484
61.5191
63.794
65.6538
67.1894
68.5807
69.8026
70.9331
72.026
73.077
74.1073
75.1265
76.1363
77.1344
78.1131
79.0869
80.0603
80.9788
81.814
82.4914
82.8641
5.2212
11.4725
12.9005
12.0014
10.126
8.72699
10.8098
25.6504
38.73
45.4004
51.2854
56.2296
59.1933
61.7539
63.8202
65.6064
67.0609
68.3826
69.5828
70.6809
71.7419
72.7727
73.7766
74.7583
75.716
76.682
77.6156
78.54
79.4223
80.2258
80.874
81.2106
3.62836
8.11393
8.8362
10.9963
13.6005
9.29564
17.4836
2.99136
18.8867
37.172
45.1677
50.1193
55.4836
58.8975
61.574
63.5774
65.336
66.784
68.0615
69.2573
70.3531
71.3861
72.3745
73.3268
74.2453
75.1221
75.9886
76.8749
77.6948
78.4299
79.0302
79.3515
11.5473
16.0217
17.6758
18.4883
17.4495
12.076
12.1172
12.1469
12.6578
16.5293
36.3229
47.731
51.7145
56.0509
59.0039
61.5204
63.3825
65.018
66.4255
67.6263
68.7439
69.7865
70.7612
71.6786
72.5425
73.4174
74.2503
75.0627
75.8428
76.536
77.1056
77.3806
19.6394
23.915
25.6441
26.2833
25.957
24.4765
21.3847
14.9828
17.0971
21.2521
18.8323
29.128
44.6799
50.4317
55.3779
58.4394
60.9904
62.8721
64.4245
65.8256
67.0151
68.0705
69.0271
69.9068
70.7174
71.4503
72.1605
72.944
73.6332
74.2343
74.7324
74.9831
21.5939
26.5146
29.1952
31.1703
32.3599
32.6417
31.7133
29.2147
23.845
22.9806
17.0959
14.6828
31.8419
46.4173
51.0546
55.3873
58.0855
60.3948
62.2205
63.5987
64.8292
65.9113
66.8563
67.6844
68.4097
69.1614
69.877
70.5193
71.1776
71.6891
72.1675
72.3586
22.4661
27.4745
30.3493
32.64
34.3108
35.3324
35.6317
34.9895
32.7716
27.4391
22.7144
26.0362
15.5297
29.3441
44.2228
49.6935
54.2713
57.0388
59.1408
61.0093
62.4004
63.5136
64.43
65.2024
65.8382
66.3275
66.7561
67.4179
67.8984
68.3086
68.6446
68.768
21.8812
27.0396
30.0859
32.6168
34.595
36.0083
36.8489
37.0911
36.604
34.864
30.4606
27.3332
20.1407
13.3422
31.5124
44.4542
48.8891
53.0378
55.8641
57.4787
58.9255
60.1041
61.0101
61.6859
62.1535
62.7227
63.3299
63.6338
64.2232
64.2826
64.7041
64.7734
20.4485
25.7398
28.8783
31.5425
33.7066
35.3683
36.5443
37.2629
37.542
37.2964
35.9872
31.8419
26.5553
24.6795
15.9176
31.0646
42.9353
46.8098
49.9153
53.1615
55.0452
56.2719
57.1043
57.6804
57.9678
57.9103
57.7182
58.2348
58.2029
58.4632
58.4092
58.1289
18.5374
23.9223
27.089
29.8058
32.0671
33.8869
35.2903
36.3258
37.0564
37.5138
37.5643
36.5124
32.5335
30.1528
20.2023
32.2627
26.8801
39.6131
45.7008
46.551
48.3568
49.6534
50.4846
50.9084
50.6151
51.0187
51.5654
50.9982
52.7789
50.8152
51.9821
51.5201
16.3843
21.7517
24.8458
27.5119
29.7733
31.669
33.242
34.5472
35.6629
36.6585
37.5194
38.0036
37.4163
33.6067
24.4441
24.8199
18.0433
22.4442
29.7717
38.4989
41.8206
43.3394
43.5559
43.8383
43.2076
41.5336
40.8704
39.8558
38.2467
38.948
35.3968
34.9415
14.2092
19.4241
22.3434
24.8583
27.0247
28.9044
30.5576
32.0493
33.4564
34.8577
36.2766
37.5969
38.4673
37.9513
35.0763
25.1765
24.1845
17.7072
15.3281
19.5101
23.6846
23.1693
24.6086
24.454
20.8961
19.9095
19.2813
14.0249
28.78
40.7443
34.0134
18.7231
12.2861
17.2294
19.8992
22.1908
24.1925
25.9847
27.6391
29.2257
30.8155
32.4765
34.2511
36.0844
37.7626
38.814
38.6763
34.6511
26.6756
21.3737
25.9604
14.6181
28.6026
16.5008
0.288928
28.7578
32.2996
27.9632
23.8142
0.907695
33.8708
32.5552
35.2903
27.7155
10.7875
15.3879
17.7908
19.8399
21.652
23.3208
24.9229
26.5241
28.1828
29.951
31.8742
33.9535
36.0824
37.9625
39.1387
38.6323
35.3735
29.3885
27.4721
19.2001
28.6006
21.3155
13.49
30.0042
29.3817
32.8974
32.9108
31.1195
37.1656
33.9658
28.1755
30.5447
9.66357
14.0243
16.1994
18.0433
19.6952
21.2531
22.788
24.3518
25.9857
27.7277
29.6191
31.6946
33.9434
36.2249
38.2066
39.2959
39.0593
37.1983
32.0177
30.9088
26.6886
26.5349
28.1699
28.5813
31.9613
36.0152
34.159
38.7479
34.1057
38.9269
37.5087
40.8678
9.05428
13.2242
15.2376
16.9475
18.5026
19.9926
21.4718
22.9729
24.52
26.1415
27.8765
29.7749
31.8784
34.1718
36.4997
38.482
39.6832
39.7985
38.1515
38.4043
36.9189
37.5686
38.6298
38.6296
38.5866
41.782
39.2576
42.7976
39.5141
41.6677
41.3247
43.3831
8.86036
12.9401
14.8814
16.5429
18.0723
19.5439
20.9915
22.4295
23.8699
25.335
26.8615
28.5002
30.31
32.3392
34.5739
36.8476
38.8246
40.0623
40.215
40.7197
40.3627
40.6995
41.1933
41.2855
40.4155
42.6225
40.6458
42.8334
41.1237
41.5915
41.7324
43.2366
9.01418
13.0814
15.0246
16.7081
18.2681
19.7602
21.2
22.5898
23.9364
25.2587
26.5891
27.9713
29.4599
31.1174
32.9954
35.0798
37.2166
39.0584
40.2305
41.1036
41.2743
41.5382
41.7199
41.7394
40.7829