/*--------------------------------*- C++ -*----------------------------------*\
  =========                 |
  \\      /  F ield         | OpenFOAM: The Open Source CFD Toolbox
   \\    /   O peration     | Website:  https://openfoam.org
    \\  /    A nd           | Version:  6
     \\/     M anipulation  |
\*---------------------------------------------------------------------------*/
FoamFile
{
    version     2.0;
    format      ascii;
    class       volScalarField;
    location    "60";
    object      k;
}
// * * * * * * * * * * * * * * * * * * * * * * * * * * * * * * * * * * * * * //

dimensions      [0 2 -2 0 0 0 0];

internalField   nonuniform List<scalar> 
720
(
0.000279495
0.000279521
0.000279505
0.000216541
0.000216559
0.00021655
0.000168318
0.000168331
0.000168326
0.000130599
0.000130609
0.000130606
0.000100361
0.000100367
0.000100366
7.56084e-05
7.56116e-05
7.56124e-05
5.48748e-05
5.48762e-05
5.48779e-05
3.70263e-05
3.70268e-05
3.70282e-05
2.18385e-05
2.18386e-05
2.18394e-05
3.42763e-05
3.42763e-05
3.42773e-05
0.00100712
0.00100713
0.00100713
0.000962009
0.000962026
0.000962017
0.000910335
0.000910353
0.000910346
0.000851512
0.00085153
0.000851525
0.000784276
0.000784292
0.000784291
0.000706834
0.000706847
0.000706849
0.000615982
0.00061599
0.000615999
0.000505577
0.000505581
0.000505592
0.000370708
0.000370709
0.000370718
0.000104464
0.000104464
0.000104465
0.00107592
0.00107594
0.00107593
0.00103128
0.00103129
0.00103128
0.000982161
0.000982179
0.000982172
0.000927803
0.000927821
0.000927816
0.000866871
0.000866887
0.000866886
0.000797624
0.000797637
0.000797639
0.000717117
0.000717126
0.000717133
0.000620061
0.000620065
0.000620075
0.000512575
0.000512577
0.000512586
0.000143954
0.000143954
0.000143956
0.00109391
0.00109393
0.00109391
0.00104976
0.00104978
0.00104977
0.00100132
0.00100134
0.00100133
0.000947797
0.000947817
0.000947811
0.000887906
0.000887924
0.000887922
0.00082
0.000820014
0.000820015
0.000741473
0.000741483
0.00074149
0.000648794
0.000648801
0.000648811
0.000569187
0.00056919
0.000569199
0.000183192
0.000183192
0.000183194
0.00109571
0.00109573
0.00109571
0.00105181
0.00105183
0.00105182
0.0010037
0.00100372
0.00100371
0.000950632
0.000950654
0.000950646
0.000891397
0.000891416
0.000891413
0.000824579
0.000824595
0.000824596
0.000748315
0.000748327
0.000748334
0.000662542
0.000662549
0.00066256
0.000619971
0.000619974
0.000619985
0.000223409
0.000223409
0.000223412
0.00109052
0.00109054
0.00109052
0.00104681
0.00104683
0.00104682
0.000998983
0.000999005
0.000998992
0.000946377
0.000946399
0.00094639
0.000887929
0.00088795
0.000887946
0.000822649
0.000822667
0.000822668
0.00075
0.000750014
0.000750021
0.000675273
0.000675283
0.000675295
0.000674419
0.000674424
0.000674437
0.000265451
0.000265451
0.000265454
0.00108096
0.00108099
0.00108097
0.00103747
0.0010375
0.00103748
0.000990007
0.000990029
0.000990015
0.000938036
0.00093806
0.000938048
0.000880766
0.000880788
0.000880783
0.000817909
0.000817928
0.000817928
0.000750984
0.000751001
0.000751008
0.000692043
0.000692056
0.000692069
0.000731483
0.000731489
0.000731504
0.000309838
0.000309838
0.000309842
0.00106791
0.00106793
0.00106791
0.00102472
0.00102474
0.00102472
0.000977771
0.000977794
0.000977777
0.000926757
0.000926781
0.000926768
0.000871305
0.000871328
0.000871322
0.000812194
0.000812216
0.000812216
0.000753742
0.000753762
0.00075377
0.000714873
0.00071489
0.000714904
0.000787393
0.000787401
0.000787418
0.000356663
0.000356664
0.000356668
0.00105159
0.00105161
0.00105159
0.00100883
0.00100885
0.00100883
0.000962662
0.000962685
0.000962666
0.000913097
0.000913121
0.000913106
0.0008604
0.000860424
0.000860417
0.000806823
0.000806847
0.000806846
0.000759976
0.00076
0.000760009
0.000743932
0.000743953
0.000743969
0.000837945
0.000837956
0.000837975
0.000405493
0.000405494
0.000405499
0.00103197
0.00103199
0.00103196
0.000989843
0.000989864
0.000989839
0.000944833
0.000944855
0.000944835
0.000897426
0.000897449
0.000897433
0.000848768
0.000848792
0.000848784
0.000802944
0.000802969
0.000802969
0.000770769
0.000770798
0.000770807
0.000777901
0.000777926
0.000777944
0.000879429
0.000879442
0.000879463
0.000455358
0.000455358
0.000455364
0.00100886
0.00100887
0.00100885
0.000967668
0.000967687
0.00096766
0.000924362
0.000924382
0.000924359
0.000880092
0.000880114
0.000880096
0.000837133
0.000837156
0.000837148
0.000801554
0.000801582
0.000801582
0.000786428
0.000786462
0.000786473
0.000814253
0.000814284
0.000814304
0.000909119
0.000909136
0.000909158
0.0005049
0.000504902
0.000504908
0.000981996
0.000982012
0.00098198
0.000942172
0.000942187
0.000942157
0.000901328
0.000901345
0.000901321
0.000861493
0.000861512
0.000861492
0.000826232
0.000826254
0.000826244
0.000803353
0.000803383
0.000803384
0.000806294
0.000806334
0.000806346
0.000849603
0.000849641
0.000849662
0.000925603
0.000925624
0.000925647
0.000552685
0.000552687
0.000552694
0.00095109
0.0009511
0.000951066
0.000913224
0.000913234
0.000913203
0.000875867
0.000875881
0.000875854
0.000842096
0.000842113
0.000842091
0.000816727
0.000816748
0.000816737
0.000808501
0.000808533
0.000808535
0.000828632
0.000828679
0.000828693
0.000880149
0.000880194
0.000880216
0.000928975
0.000928999
0.000929023
0.000597562
0.000597565
0.000597573
0.000915837
0.000915841
0.000915806
0.000880746
0.00088075
0.000880717
0.000848204
0.000848212
0.000848184
0.000822403
0.000822414
0.000822391
0.000809028
0.000809046
0.000809034
0.000816358
0.000816393
0.000816396
0.000850696
0.000850749
0.000850765
0.000902228
0.000902279
0.000902303
0.000920896
0.000920924
0.000920948
0.000638951
0.000638954
0.000638963
0.000875984
0.000875981
0.000875943
0.000844752
0.000844749
0.000844714
0.000818652
0.000818653
0.000818623
0.000802831
0.000802837
0.000802812
0.000803035
0.00080305
0.000803038
0.000825303
0.00082534
0.000825344
0.000868997
0.000869055
0.000869074
0.000912961
0.000913018
0.000913043
0.000904465
0.000904497
0.000904521
0.000676919
0.000676922
0.000676931
0.000831384
0.000831375
0.000831334
0.00080539
0.00080538
0.000805342
0.00078757
0.000787565
0.000787532
0.000783533
0.000783531
0.000783504
0.000797884
0.000797897
0.000797884
0.000832717
0.000832757
0.000832762
0.000879805
0.000879868
0.000879889
0.000910881
0.000910943
0.00091097
0.000883804
0.00088384
0.000883862
0.000712023
0.000712026
0.000712036
0.000782083
0.000782067
0.000782023
0.00076297
0.000762955
0.000762913
0.00075526
0.000755248
0.000755211
0.000764147
0.00076414
0.00076411
0.000791777
0.000791788
0.000791775
0.000835225
0.000835266
0.000835274
0.000879832
0.000879898
0.000879922
0.000896383
0.000896449
0.000896477
0.000863322
0.00086336
0.000863382
0.000744998
0.000745002
0.000745011
0.000728414
0.000728394
0.000728346
0.000717961
0.000717941
0.000717895
0.000721801
0.000721784
0.000721743
0.000743597
0.000743586
0.000743553
0.000782022
0.000782032
0.000782019
0.000829209
0.00082925
0.000829261
0.00086699
0.000867057
0.000867084
0.000871795
0.000871862
0.000871891
0.000846824
0.000846863
0.000846884
0.000776432
0.000776435
0.000776445
0.000671122
0.000671099
0.000671048
0.000670954
0.000670931
0.000670881
0.000686902
0.000686881
0.000686836
0.000720057
0.000720042
0.000720007
0.000765404
0.000765413
0.000765401
0.000811599
0.000811638
0.000811653
0.00084104
0.000841106
0.000841136
0.000840977
0.000841043
0.000841074
0.000836776
0.000836814
0.000836835
0.000806552
0.000806555
0.000806565
0.000611495
0.000611471
0.000611418
0.000622646
0.000622622
0.000622569
0.0006499
0.000649878
0.00064983
0.00069127
0.000691255
0.000691219
0.000738959
0.000738966
0.000738957
0.000780811
0.000780847
0.000780867
0.000803946
0.000804009
0.000804042
0.000808531
0.000808595
0.000808627
0.000834002
0.000834038
0.000834059
0.000835154
0.000835157
0.000835167
0.000551566
0.000551544
0.00055149
0.000573991
0.000573968
0.000573915
0.000610177
0.000610155
0.000610107
0.000655441
0.000655426
0.000655392
0.000701192
0.000701198
0.000701192
0.000737729
0.000737762
0.000737786
0.000759832
0.000759891
0.000759928
0.000778845
0.000778905
0.000778939
0.000837782
0.000837815
0.000837836
0.000861606
0.000861609
0.000861619
0.000494538
0.000494519
0.000494468
0.000526789
0.000526769
0.000526719
0.000568284
0.000568265
0.00056822
0.000612901
0.000612888
0.000612858
0.000653806
0.000653812
0.000653811
0.000686665
0.000686695
0.000686724
0.000714636
0.000714692
0.000714732
0.000755243
0.000755301
0.000755337
0.00084609
0.00084612
0.000846143
0.000884836
0.000884838
0.000884849
0.000445721
0.000445708
0.000445664
0.000485063
0.000485048
0.000485004
0.000528073
0.000528058
0.000528018
0.000568747
0.000568737
0.000568714
0.000604065
0.000604071
0.000604076
0.000636445
0.000636475
0.000636509
0.000675665
0.000675721
0.000675764
0.00073946
0.000739516
0.000739553
0.000855832
0.000855858
0.000855884
0.000903226
0.000903228
0.000903239
0.000414183
0.000414174
0.000414137
0.000457206
0.000457196
0.000457157
0.000499528
0.000499516
0.000499482
0.000536051
0.000536045
0.000536027
0.000567489
0.000567495
0.000567507
0.000601556
0.000601586
0.000601625
0.000651335
0.000651392
0.000651437
0.000731678
0.000731733
0.000731771
0.00086304
0.000863064
0.000863092
0.000914348
0.000914349
0.000914361
)
;

boundaryField
{
    freeSurface
    {
        type            slip;
    }
    inlet
    {
        type            cyclic;
    }
    outlet
    {
        type            cyclic;
    }
    sidewalls
    {
        type            kqRWallFunction;
        value           nonuniform List<scalar> 
72
(
3.42763e-05
0.000104464
0.000143954
0.000183192
0.000223409
0.000265451
0.000309838
0.000356663
0.000405493
0.000455358
0.0005049
0.000552685
0.000597562
0.000638951
0.000676919
0.000712023
0.000744998
0.000776432
0.000806552
0.000835154
0.000861606
0.000884836
0.000903226
0.000914348
3.42763e-05
0.000104464
0.000143954
0.000183192
0.000223409
0.000265451
0.000309838
0.000356664
0.000405494
0.000455358
0.000504902
0.000552687
0.000597565
0.000638954
0.000676922
0.000712026
0.000745002
0.000776435
0.000806555
0.000835157
0.000861609
0.000884838
0.000903228
0.000914349
3.42773e-05
0.000104465
0.000143956
0.000183194
0.000223412
0.000265454
0.000309842
0.000356668
0.000405499
0.000455364
0.000504908
0.000552694
0.000597573
0.000638963
0.000676931
0.000712036
0.000745011
0.000776445
0.000806565
0.000835167
0.000861619
0.000884849
0.000903239
0.000914361
)
;
    }
    noSlipWalls
    {
        type            kqRWallFunction;
        value           nonuniform List<scalar> 
30
(
0.000279495
0.000216541
0.000168318
0.000130599
0.000100361
7.56084e-05
5.48748e-05
3.70263e-05
2.18385e-05
3.42763e-05
0.000279521
0.000216559
0.000168331
0.000130609
0.000100367
7.56116e-05
5.48762e-05
3.70268e-05
2.18386e-05
3.42763e-05
0.000279505
0.00021655
0.000168326
0.000130606
0.000100366
7.56124e-05
5.48779e-05
3.70282e-05
2.18394e-05
3.42773e-05
)
;
    }
    procBoundary2to1
    {
        type            processor;
        value           nonuniform List<scalar> 
72
(
0.000362696
0.000362725
0.000362705
0.00104586
0.00104587
0.00104586
0.00111651
0.00111652
0.00111651
0.00113416
0.00113418
0.00113416
0.00113578
0.00113579
0.00113578
0.00113046
0.00113047
0.00113046
0.00112077
0.00112079
0.00112077
0.00110755
0.00110756
0.00110755
0.00109098
0.001091
0.00109098
0.00107099
0.00107101
0.00107098
0.00104735
0.00104736
0.00104734
0.00101971
0.00101973
0.0010197
0.000987691
0.0009877
0.000987668
0.000950837
0.000950841
0.000950807
0.00090871
0.000908709
0.000908672
0.000860924
0.000860917
0.000860878
0.000807234
0.000807222
0.000807179
0.000747675
0.000747658
0.000747613
0.000682758
0.000682738
0.000682691
0.000613746
0.000613725
0.000613676
0.000543041
0.000543021
0.000542972
0.000474785
0.000474769
0.000474721
0.000415901
0.000415889
0.000415848
0.000377782
0.000377775
0.000377741
)
;
    }
}


// ************************************************************************* //
