/*--------------------------------*- C++ -*----------------------------------*\
  =========                 |
  \\      /  F ield         | OpenFOAM: The Open Source CFD Toolbox
   \\    /   O peration     | Website:  https://openfoam.org
    \\  /    A nd           | Version:  6
     \\/     M anipulation  |
\*---------------------------------------------------------------------------*/
FoamFile
{
    version     2.0;
    format      ascii;
    class       volScalarField;
    location    "60";
    object      nut;
}
// * * * * * * * * * * * * * * * * * * * * * * * * * * * * * * * * * * * * * //

dimensions      [0 2 -1 0 0 0 0];

internalField   nonuniform List<scalar> 
720
(
3.31188e-07
3.31218e-07
3.312e-07
2.56591e-07
2.56612e-07
2.56601e-07
1.99448e-07
1.99463e-07
1.99458e-07
1.54754e-07
1.54765e-07
1.54762e-07
1.18922e-07
1.18929e-07
1.18929e-07
8.95923e-08
8.9596e-08
8.95969e-08
6.50239e-08
6.50256e-08
6.50276e-08
4.38743e-08
4.38749e-08
4.38766e-08
2.58776e-08
2.58777e-08
2.58787e-08
8.08012e-08
8.08012e-08
8.08034e-08
3.82111e-06
3.82117e-06
3.82113e-06
3.67129e-06
3.67135e-06
3.67132e-06
3.50064e-06
3.5007e-06
3.50068e-06
3.30591e-06
3.30598e-06
3.30596e-06
3.08149e-06
3.08155e-06
3.08155e-06
2.81949e-06
2.81954e-06
2.81954e-06
2.50618e-06
2.50621e-06
2.50624e-06
2.11563e-06
2.11565e-06
2.11569e-06
1.63442e-06
1.63443e-06
1.63446e-06
1.33148e-05
1.33148e-05
1.33149e-05
8.47457e-06
8.4747e-06
8.47463e-06
8.20947e-06
8.20961e-06
8.20954e-06
7.91775e-06
7.91789e-06
7.91783e-06
7.59259e-06
7.59274e-06
7.5927e-06
7.22366e-06
7.2238e-06
7.22379e-06
6.79733e-06
6.79743e-06
6.79744e-06
6.29143e-06
6.29151e-06
6.29156e-06
5.67178e-06
5.67182e-06
5.67189e-06
5.08603e-06
5.08605e-06
5.08612e-06
1.56302e-05
1.56302e-05
1.56303e-05
1.44064e-05
1.44067e-05
1.44066e-05
1.40089e-05
1.40092e-05
1.40091e-05
1.35714e-05
1.35718e-05
1.35716e-05
1.30841e-05
1.30844e-05
1.30844e-05
1.25327e-05
1.25329e-05
1.25329e-05
1.18994e-05
1.18996e-05
1.18996e-05
1.116e-05
1.11601e-05
1.11602e-05
1.03076e-05
1.03077e-05
1.03078e-05
9.97857e-06
9.97859e-06
9.97873e-06
1.76322e-05
1.76322e-05
1.76323e-05
2.15214e-05
2.15219e-05
2.15217e-05
2.09679e-05
2.09685e-05
2.09682e-05
2.036e-05
2.03606e-05
2.03604e-05
1.96858e-05
1.96864e-05
1.96862e-05
1.89297e-05
1.89303e-05
1.89302e-05
1.80764e-05
1.80768e-05
1.80768e-05
1.7118e-05
1.71183e-05
1.71184e-05
1.61483e-05
1.61485e-05
1.61487e-05
1.6594e-05
1.65941e-05
1.65943e-05
1.94716e-05
1.94716e-05
1.94717e-05
2.98543e-05
2.98552e-05
2.98548e-05
2.9119e-05
2.91199e-05
2.91195e-05
2.83156e-05
2.83166e-05
2.83162e-05
2.7433e-05
2.7434e-05
2.74337e-05
2.64599e-05
2.64608e-05
2.64607e-05
2.53954e-05
2.5396e-05
2.53961e-05
2.42798e-05
2.42803e-05
2.42805e-05
2.34001e-05
2.34004e-05
2.34007e-05
2.49791e-05
2.49792e-05
2.49796e-05
2.12248e-05
2.12248e-05
2.1225e-05
3.94868e-05
3.94882e-05
3.94875e-05
3.85423e-05
3.85438e-05
3.85432e-05
3.752e-05
3.75215e-05
3.75209e-05
3.64141e-05
3.64157e-05
3.64152e-05
3.52273e-05
3.52287e-05
3.52285e-05
3.39921e-05
3.39932e-05
3.39932e-05
3.28392e-05
3.284e-05
3.28403e-05
3.23104e-05
3.23109e-05
3.23114e-05
3.49319e-05
3.49321e-05
3.49327e-05
2.29308e-05
2.29308e-05
2.29309e-05
5.05238e-05
5.05258e-05
5.05248e-05
4.93439e-05
4.9346e-05
4.93451e-05
4.80836e-05
4.80858e-05
4.8085e-05
4.67519e-05
4.67543e-05
4.67536e-05
4.53794e-05
4.53815e-05
4.53812e-05
4.40568e-05
4.40585e-05
4.40585e-05
4.30437e-05
4.30449e-05
4.30454e-05
4.30804e-05
4.30813e-05
4.30821e-05
4.60148e-05
4.60151e-05
4.60159e-05
2.46026e-05
2.46026e-05
2.46028e-05
6.30826e-05
6.30854e-05
6.3084e-05
6.16447e-05
6.16477e-05
6.16464e-05
6.01374e-05
6.01405e-05
6.01393e-05
5.8598e-05
5.86013e-05
5.86004e-05
5.71025e-05
5.71056e-05
5.71051e-05
5.58249e-05
5.58274e-05
5.58274e-05
5.51576e-05
5.51597e-05
5.51604e-05
5.57704e-05
5.57721e-05
5.57732e-05
5.76148e-05
5.76154e-05
5.76165e-05
2.62328e-05
2.62328e-05
2.62329e-05
7.72862e-05
7.72899e-05
7.72878e-05
7.55766e-05
7.55804e-05
7.55785e-05
7.383e-05
7.3834e-05
7.38324e-05
7.2132e-05
7.21363e-05
7.2135e-05
7.06206e-05
7.06247e-05
7.0624e-05
6.9563e-05
6.95666e-05
6.95667e-05
6.94045e-05
6.9408e-05
6.9409e-05
7.02212e-05
7.02241e-05
7.02257e-05
6.90206e-05
6.90216e-05
6.9023e-05
2.7799e-05
2.7799e-05
2.77992e-05
9.32581e-05
9.32625e-05
9.32598e-05
9.12789e-05
9.12834e-05
9.12808e-05
8.93276e-05
8.93324e-05
8.93302e-05
8.75625e-05
8.75677e-05
8.75659e-05
8.61889e-05
8.61941e-05
8.61933e-05
8.55366e-05
8.55417e-05
8.55419e-05
8.58847e-05
8.58904e-05
8.58919e-05
8.60172e-05
8.6022e-05
8.6024e-05
7.95098e-05
7.95114e-05
7.95131e-05
2.92722e-05
2.92722e-05
2.92724e-05
0.000111119
0.000111124
0.00011112
0.000108898
0.000108903
0.000108899
0.000106816
0.000106821
0.000106818
0.000105126
0.000105132
0.00010513
0.000104078
0.000104084
0.000104083
0.000103952
0.000103959
0.00010396
0.000104484
0.000104493
0.000104495
0.000102502
0.00010251
0.000102512
8.84474e-05
8.84498e-05
8.84519e-05
3.06261e-05
3.06261e-05
3.06263e-05
0.000130985
0.000130989
0.000130984
0.000128589
0.000128593
0.000128588
0.0001265
0.000126505
0.000126501
0.000125081
0.000125086
0.000125083
0.000124532
0.000124539
0.000124538
0.00012487
0.00012488
0.000124881
0.000124799
0.000124813
0.000124816
0.000118843
0.000118854
0.000118857
9.53877e-05
9.53911e-05
9.53934e-05
3.18452e-05
3.18452e-05
3.18455e-05
0.000152967
0.000152968
0.000152961
0.000150516
0.000150517
0.000150511
0.000148608
0.000148611
0.000148606
0.000147679
0.000147683
0.000147679
0.000147706
0.000147713
0.000147711
0.000148102
0.000148116
0.000148117
0.000146112
0.000146132
0.000146135
0.000134124
0.000134139
0.000134142
0.000100154
0.000100159
0.000100161
3.29296e-05
3.29296e-05
3.29299e-05
0.000177167
0.000177163
0.000177153
0.000174855
0.000174851
0.000174841
0.000173371
0.00017337
0.000173362
0.00017312
0.00017312
0.000173114
0.000173552
0.00017356
0.000173557
0.000173115
0.000173135
0.000173136
0.000167422
0.000167449
0.000167453
0.00014746
0.000147479
0.000147483
0.000102867
0.000102873
0.000102875
3.38938e-05
3.38939e-05
3.38941e-05
0.000203681
0.000203668
0.000203652
0.000201783
0.000201769
0.000201755
0.000200994
0.000200985
0.000200973
0.000201452
0.000201447
0.000201438
0.000201703
0.00020171
0.000201706
0.000198982
0.000199008
0.00019901
0.000187534
0.000187569
0.000187574
0.000158114
0.000158138
0.000158143
0.000103899
0.000103906
0.000103908
3.47615e-05
3.47616e-05
3.47619e-05
0.000232579
0.000232548
0.000232526
0.000231447
0.000231417
0.000231397
0.00023157
0.000231547
0.00023153
0.000232436
0.000232421
0.000232408
0.000231345
0.00023135
0.000231345
0.000224398
0.000224431
0.000224433
0.000205193
0.000205237
0.000205242
0.000165608
0.000165636
0.000165642
0.000103766
0.000103774
0.000103776
3.55574e-05
3.55575e-05
3.55577e-05
0.000263853
0.000263795
0.000263766
0.000263878
0.000263823
0.000263796
0.000264927
0.000264883
0.00026486
0.000265362
0.000265332
0.000265314
0.000261144
0.000261148
0.00026114
0.00024777
0.000247809
0.000247813
0.000219231
0.000219281
0.000219288
0.000169802
0.000169834
0.00016984
0.000102997
0.000103005
0.000103008
3.62998e-05
3.62998e-05
3.63001e-05
0.000297297
0.0002972
0.000297161
0.000298808
0.000298718
0.000298683
0.000300392
0.000300318
0.000300289
0.000298875
0.000298828
0.000298803
0.000289257
0.00028926
0.000289249
0.000267372
0.000267416
0.000267421
0.000228732
0.000228789
0.000228798
0.000170938
0.000170971
0.000170978
0.000102027
0.000102034
0.000102037
3.69972e-05
3.69972e-05
3.69975e-05
0.000332248
0.000332103
0.000332055
0.000335355
0.000335222
0.00033518
0.000336492
0.000336384
0.000336346
0.00033087
0.000330804
0.000330773
0.000313451
0.000313451
0.000313437
0.00028156
0.000281608
0.000281615
0.00023322
0.000233282
0.000233292
0.000169612
0.000169647
0.000169655
0.000101153
0.00010116
0.000101163
3.76474e-05
3.76475e-05
3.76477e-05
0.000367187
0.000366994
0.000366937
0.000371611
0.000371437
0.000371387
0.000370718
0.000370576
0.000370531
0.00035857
0.000358487
0.000358449
0.000331384
0.000331384
0.000331367
0.000289099
0.000289152
0.000289161
0.000232846
0.000232913
0.000232925
0.000166687
0.000166723
0.000166732
0.000100535
0.000100542
0.000100546
3.8239e-05
3.82391e-05
3.82393e-05
0.000399308
0.000399084
0.000399022
0.000404352
0.000404152
0.000404096
0.000399625
0.000399462
0.00039941
0.000378989
0.000378898
0.000378856
0.000341223
0.000341226
0.00034121
0.000289695
0.000289756
0.000289768
0.000228609
0.00022868
0.000228694
0.000163146
0.000163182
0.000163192
0.000100217
0.000100223
0.000100226
3.87511e-05
3.87511e-05
3.87513e-05
0.000424559
0.000424342
0.000424278
0.000429407
0.000429208
0.00042915
0.000419724
0.000419561
0.000419505
0.000390184
0.000390101
0.000390056
0.000342915
0.000342925
0.000342913
0.000284904
0.000284974
0.000284991
0.000222533
0.000222611
0.000222627
0.000159949
0.000159986
0.000159996
0.000100141
0.000100146
0.00010015
3.91517e-05
3.91517e-05
3.9152e-05
0.000438777
0.00043859
0.000438527
0.000443095
0.000442917
0.000442859
0.000429378
0.000429229
0.000429172
0.000393421
0.000393354
0.000393309
0.000340154
0.000340173
0.000340167
0.000279191
0.000279273
0.000279292
0.000217714
0.000217797
0.000217814
0.000157962
0.000157999
0.000158009
0.000100183
0.000100188
0.000100192
3.9392e-05
3.9392e-05
3.93923e-05
)
;

boundaryField
{
    freeSurface
    {
        type            slip;
    }
    inlet
    {
        type            cyclic;
    }
    outlet
    {
        type            cyclic;
    }
    sidewalls
    {
        type            nutkWallFunction;
        Cmu             0.09;
        kappa           0.41;
        E               9.8;
        value           nonuniform List<scalar> 
72
(
4.6512e-07
1.31045e-06
1.63881e-06
1.91744e-06
2.16976e-06
2.40734e-06
2.63608e-06
2.85812e-06
3.07278e-06
3.27743e-06
3.46861e-06
3.64324e-06
3.79967e-06
3.93819e-06
4.06088e-06
4.17093e-06
4.27156e-06
4.36519e-06
4.45293e-06
4.53456e-06
4.60867e-06
4.67271e-06
4.72274e-06
4.75272e-06
4.6512e-07
1.31045e-06
1.63881e-06
1.91744e-06
2.16976e-06
2.40734e-06
2.63608e-06
2.85813e-06
3.07279e-06
3.27744e-06
3.46862e-06
3.64325e-06
3.79968e-06
3.9382e-06
4.06089e-06
4.17094e-06
4.27158e-06
4.3652e-06
4.45294e-06
4.53457e-06
4.60868e-06
4.67272e-06
4.72274e-06
4.75272e-06
4.65136e-07
1.31046e-06
1.63883e-06
1.91746e-06
2.16977e-06
2.40736e-06
2.6361e-06
2.85814e-06
3.07281e-06
3.27746e-06
3.46864e-06
3.64328e-06
3.79971e-06
3.93822e-06
4.06092e-06
4.17097e-06
4.2716e-06
4.36523e-06
4.45297e-06
4.5346e-06
4.60871e-06
4.67274e-06
4.72277e-06
4.75275e-06
)
;
    }
    noSlipWalls
    {
        type            nutkWallFunction;
        Cmu             0.09;
        kappa           0.41;
        E               9.8;
        value           uniform 0;
    }
    procBoundary2to1
    {
        type            processor;
        value           nonuniform List<scalar> 
72
(
4.29777e-07
4.29811e-07
4.29787e-07
3.95208e-06
3.95212e-06
3.95209e-06
8.7176e-06
8.7177e-06
8.71763e-06
1.47706e-05
1.47708e-05
1.47706e-05
2.20287e-05
2.20291e-05
2.20288e-05
3.05306e-05
3.05312e-05
3.05309e-05
4.03606e-05
4.03616e-05
4.0361e-05
5.16254e-05
5.16268e-05
5.1626e-05
6.44418e-05
6.44439e-05
6.44427e-05
7.89288e-05
7.89317e-05
7.893e-05
9.52008e-05
9.52043e-05
9.5202e-05
0.000113361
0.000113365
0.000113361
0.000133495
0.000133498
0.000133494
0.000155667
0.000155668
0.000155662
0.000179913
0.000179911
0.000179902
0.000206238
0.000206227
0.000206213
0.000234595
0.00023457
0.000234549
0.000264852
0.000264802
0.000264774
0.000296692
0.000296606
0.000296567
0.000329412
0.000329277
0.000329228
0.000361578
0.000361391
0.000361332
0.000390643
0.000390419
0.000390353
0.000412989
0.000412767
0.000412698
0.000425147
0.000424958
0.000424891
)
;
    }
}


// ************************************************************************* //
