/*--------------------------------*- C++ -*----------------------------------*\
  =========                 |
  \\      /  F ield         | OpenFOAM: The Open Source CFD Toolbox
   \\    /   O peration     | Website:  https://openfoam.org
    \\  /    A nd           | Version:  6
     \\/     M anipulation  |
\*---------------------------------------------------------------------------*/
FoamFile
{
    version     2.0;
    format      ascii;
    class       volScalarField;
    location    "60";
    object      omega;
}
// * * * * * * * * * * * * * * * * * * * * * * * * * * * * * * * * * * * * * //

dimensions      [0 0 -1 0 0 0 0];

internalField   nonuniform List<scalar> 
720
(
843.917
843.917
843.917
843.917
843.917
843.917
843.917
843.917
843.917
843.917
843.917
843.917
843.917
843.917
843.917
843.917
843.917
843.917
843.917
843.917
843.917
843.917
843.917
843.917
843.917
843.917
843.917
424.206
424.206
424.206
263.567
263.567
263.567
262.036
262.036
262.036
260.048
260.049
260.049
257.572
257.573
257.573
254.512
254.512
254.512
250.696
250.696
250.696
245.786
245.786
245.786
238.972
238.972
238.973
226.813
226.813
226.813
7.84567
7.84568
7.84573
126.959
126.959
126.959
125.62
125.62
125.62
124.046
124.046
124.046
122.199
122.199
122.199
120.004
120.004
120.004
117.344
117.344
117.344
113.983
113.983
113.983
109.324
109.324
109.324
100.781
100.781
100.781
9.21
9.21
9.21006
75.9319
75.9317
75.9316
74.9352
74.9349
74.9349
73.781
73.7808
73.7808
72.4387
72.4384
72.4384
70.8474
70.8472
70.8472
68.9112
68.9112
68.9112
66.4403
66.4403
66.4405
62.9432
62.9433
62.9435
57.041
57.0411
57.0413
10.3897
10.3897
10.3897
50.9125
50.9122
50.9122
50.1629
50.1625
50.1625
49.2975
49.2971
49.2971
48.2902
48.2898
48.2898
47.0898
47.0895
47.0895
45.6163
45.6162
45.6162
43.715
43.715
43.7151
41.0285
41.0286
41.0288
37.3611
37.3612
37.3613
11.4736
11.4736
11.4736
36.5279
36.5275
36.5275
35.9495
35.949
35.949
35.2803
35.2799
35.2799
34.4978
34.4973
34.4973
33.5575
33.5572
33.5572
32.3937
32.3935
32.3935
30.8899
30.8899
30.8899
28.8577
28.8578
28.8579
26.9993
26.9994
26.9995
12.5066
12.5066
12.5067
27.3753
27.3749
27.3749
26.9178
26.9173
26.9173
26.3861
26.3857
26.3857
25.7603
25.7598
25.7598
25.0024
25.002
25.002
24.0617
24.0615
24.0615
22.8685
22.8685
22.8685
21.4186
21.4187
21.4187
20.9402
20.9403
20.9404
13.5119
13.5119
13.5119
21.1368
21.1364
21.1364
20.7669
20.7664
20.7664
20.3348
20.3343
20.3343
19.8229
19.8224
19.8224
19.2005
19.2001
19.2001
18.4352
18.435
18.435
17.5111
17.5111
17.511
16.5939
16.594
16.594
17.1117
17.1118
17.1118
14.497
14.497
14.4971
16.6701
16.6697
16.6697
16.3652
16.3648
16.3648
16.0077
16.0073
16.0073
15.5824
15.5819
15.5819
15.0676
15.0672
15.0672
14.4527
14.4525
14.4525
13.7783
13.7782
13.7782
13.3392
13.3392
13.3392
14.5439
14.544
14.544
15.4575
15.4575
15.4576
13.3526
13.3522
13.3522
13.0972
13.0968
13.0968
12.7974
12.797
12.797
12.4414
12.441
12.441
12.0187
12.0184
12.0184
11.5427
11.5424
11.5424
11.1055
11.1053
11.1053
11.0779
11.0778
11.0778
12.7415
12.7415
12.7416
16.3804
16.3804
16.3805
10.8179
10.8176
10.8176
10.6012
10.6009
10.6009
10.348
10.3477
10.3477
10.051
10.0507
10.0507
9.71276
9.71246
9.71245
9.37089
9.37065
9.37063
9.15678
9.15657
9.15654
9.46616
9.46601
9.46601
11.434
11.434
11.4341
17.2485
17.2485
17.2486
8.83733
8.8371
8.8371
8.65186
8.65164
8.65163
8.43817
8.43792
8.43792
8.19484
8.19457
8.19457
7.93861
7.93836
7.93835
7.72812
7.72787
7.72785
7.71691
7.71663
7.7166
8.28862
8.28839
8.28839
10.465
10.465
10.465
18.0462
18.0463
18.0464
7.26104
7.26092
7.26092
7.10188
7.10176
7.10177
6.92383
6.92368
6.92368
6.73244
6.73225
6.73225
6.55835
6.55815
6.55814
6.47475
6.47448
6.47445
6.63972
6.63936
6.63934
7.40597
7.40568
7.40568
9.73894
9.73885
9.73886
18.7646
18.7646
18.7648
5.98717
5.98715
5.98718
5.85149
5.85148
5.85152
5.70766
5.70761
5.70762
5.56886
5.56878
5.56878
5.4773
5.47715
5.47714
5.51215
5.51185
5.51183
5.82221
5.82178
5.82177
6.72682
6.72646
6.72646
9.19478
9.19466
9.19466
19.4036
19.4036
19.4037
4.9444
4.94449
4.94456
4.83115
4.83125
4.83131
4.72196
4.72201
4.72205
4.63744
4.63745
4.63747
4.62705
4.62694
4.62694
4.76737
4.76704
4.76703
5.19047
5.18998
5.18997
6.19124
6.19082
6.19082
8.79256
8.7924
8.7924
19.9718
19.9718
19.9719
4.0818
4.08202
4.08212
3.99137
3.99159
3.99168
3.91838
3.91853
3.91859
3.88942
3.88952
3.88956
3.95573
3.95567
3.95567
4.18489
4.18454
4.18453
4.69144
4.69089
4.69089
5.76089
5.76041
5.76041
8.50638
8.50618
8.50617
20.4831
20.4831
20.4832
3.36266
3.36304
3.36316
3.29653
3.29689
3.29699
3.26148
3.26176
3.26183
3.28756
3.28774
3.2878
3.4225
3.42246
3.42248
3.72207
3.72171
3.7217
4.28782
4.28724
4.28723
5.41268
5.41215
5.41215
8.31988
8.31964
8.31964
20.952
20.952
20.9522
2.76068
2.76121
2.76134
2.72081
2.7213
2.7214
2.72453
2.72492
2.725
2.8022
2.80247
2.80254
2.9946
2.99459
2.99463
3.34669
3.34633
3.34633
3.95469
3.95408
3.95408
5.13418
5.13362
5.13361
8.22184
8.22158
8.22158
21.3894
21.3895
21.3896
2.25742
2.25808
2.2582
2.24543
2.24604
2.24613
2.28668
2.28717
2.28725
2.40923
2.40956
2.40963
2.6461
2.64611
2.64617
3.03547
3.03512
3.03512
3.67696
3.67633
3.67633
4.91979
4.91921
4.91919
8.20155
8.20129
8.20126
21.8004
21.8004
21.8006
1.84048
1.84121
1.84132
1.85667
1.85734
1.85742
1.9314
1.93195
1.93203
2.08925
2.08962
2.08971
2.3575
2.35752
2.3576
2.77316
2.77281
2.77282
3.44716
3.44651
3.44651
4.76694
4.76633
4.76631
8.24499
8.24473
8.24469
22.1836
22.1836
22.1837
1.50214
1.50287
1.50295
1.5446
1.54526
1.54533
1.64593
1.6465
1.64658
1.82793
1.82831
1.82841
2.11595
2.11597
2.11606
2.55182
2.55147
2.55147
3.26323
3.26256
3.26255
4.67249
4.67185
4.67182
8.3332
8.33295
8.3329
22.5321
22.5322
22.5323
1.23849
1.23913
1.2392
1.3028
1.30339
1.30345
1.42204
1.42258
1.42265
1.6172
1.61755
1.61765
1.91607
1.91606
1.91615
2.3703
2.36991
2.36991
3.12602
3.12529
3.12527
4.62925
4.62858
4.62853
8.44261
8.44238
8.44232
22.8339
22.8339
22.834
1.04985
1.05035
1.05041
1.12961
1.1301
1.13015
1.25814
1.2586
1.25867
1.45764
1.45792
1.45803
1.76156
1.76152
1.7616
2.2339
2.23344
2.23344
3.03625
3.03543
3.03541
4.6231
4.62239
4.62233
8.54628
8.54607
8.54599
23.0699
23.0699
23.0701
0.943949
0.944332
0.944382
1.03185
1.03224
1.03229
1.16338
1.16375
1.16383
1.36254
1.36275
1.36287
1.66833
1.66826
1.66832
2.15464
2.15412
2.15411
2.9917
2.99082
2.9908
4.63199
4.63126
4.63119
8.61466
8.61449
8.6144
23.2115
23.2115
23.2117
)
;

boundaryField
{
    freeSurface
    {
        type            slip;
    }
    inlet
    {
        type            cyclic;
    }
    outlet
    {
        type            cyclic;
    }
    sidewalls
    {
        Cmu             0.09;
        kappa           0.41;
        E               9.8;
        beta1           0.075;
        blended         false;
        type            omegaWallFunction;
        value           nonuniform List<scalar> 
72
(
424.206
7.84567
9.21
10.3897
11.4736
12.5066
13.5119
14.497
15.4575
16.3804
17.2485
18.0462
18.7646
19.4036
19.9718
20.4831
20.952
21.3894
21.8004
22.1836
22.5321
22.8339
23.0699
23.2115
424.206
7.84568
9.21
10.3897
11.4736
12.5066
13.5119
14.497
15.4575
16.3804
17.2485
18.0463
18.7646
19.4036
19.9718
20.4831
20.952
21.3895
21.8004
22.1836
22.5322
22.8339
23.0699
23.2115
424.206
7.84573
9.21006
10.3897
11.4736
12.5067
13.5119
14.4971
15.4576
16.3805
17.2486
18.0464
18.7648
19.4037
19.9719
20.4832
20.9522
21.3896
21.8006
22.1837
22.5323
22.834
23.0701
23.2117
)
;
    }
    noSlipWalls
    {
        Cmu             0.09;
        kappa           0.41;
        E               9.8;
        beta1           0.075;
        blended         false;
        type            omegaWallFunction;
        value           nonuniform List<scalar> 
30
(
843.917
843.917
843.917
843.917
843.917
843.917
843.917
843.917
843.917
424.206
843.917
843.917
843.917
843.917
843.917
843.917
843.917
843.917
843.917
424.206
843.917
843.917
843.917
843.917
843.917
843.917
843.917
843.917
843.917
424.206
)
;
    }
    procBoundary2to1
    {
        type            processor;
        value           nonuniform List<scalar> 
72
(
843.917
843.917
843.917
264.635
264.635
264.635
128.075
128.075
128.075
76.7852
76.7852
76.785
51.559
51.5589
51.5588
37.0269
37.0268
37.0267
27.7689
27.7687
27.7687
21.4535
21.4533
21.4532
16.9297
16.9294
16.9294
13.5691
13.5688
13.5688
11.0015
11.0012
11.0012
8.99531
8.99512
8.99511
7.39873
7.39861
7.3986
6.10815
6.10812
6.10814
5.05082
5.05088
5.05094
4.17443
4.1746
4.1747
3.44097
3.44129
3.44141
2.82299
2.82346
2.82359
2.30123
2.30184
2.30198
1.86316
1.86386
1.86398
1.50186
1.50259
1.50269
1.2154
1.21605
1.21613
1.00705
1.00756
1.00763
0.888592
0.88897
0.889029
)
;
    }
}


// ************************************************************************* //
