/*--------------------------------*- C++ -*----------------------------------*\
  =========                 |
  \\      /  F ield         | OpenFOAM: The Open Source CFD Toolbox
   \\    /   O peration     | Website:  https://openfoam.org
    \\  /    A nd           | Version:  6
     \\/     M anipulation  |
\*---------------------------------------------------------------------------*/
FoamFile
{
    version     2.0;
    format      ascii;
    class       surfaceScalarField;
    location    "60";
    object      phi;
}
// * * * * * * * * * * * * * * * * * * * * * * * * * * * * * * * * * * * * * //

dimensions      [0 3 -1 0 0 0 0];

internalField   nonuniform List<scalar> 
1818
(
2.89607e-06
5.91881e-12
-9.39942e-12
2.89608e-06
-4.89885e-12
-1.02346e-11
-1.02206e-12
1.96326e-11
2.40191e-06
3.05649e-12
-5.30038e-12
2.40192e-06
-1.10093e-12
-1.25201e-11
-1.95819e-12
1.7821e-11
1.98103e-06
-9.03012e-13
-1.11412e-12
1.98104e-06
4.44729e-12
-1.5119e-11
-3.54506e-12
1.62313e-11
1.62241e-06
-5.64643e-12
1.94135e-12
1.62242e-06
1.14867e-11
-1.6972e-11
-5.84109e-12
1.50306e-11
1.31614e-06
-9.60185e-12
3.47181e-12
1.31615e-06
1.70821e-11
-1.46765e-11
-7.48193e-12
1.12056e-11
1.05368e-06
-1.06025e-11
2.58154e-12
1.05369e-06
1.76311e-11
-8.16922e-12
-7.03143e-12
5.58883e-12
8.26969e-07
-7.73175e-12
1.18655e-12
8.26976e-07
1.23027e-11
-1.86875e-12
-4.57482e-12
6.83238e-13
6.27472e-07
-3.65198e-12
1.69816e-13
6.27477e-07
5.35927e-12
1.36218e-12
-1.71073e-12
-1.53244e-12
4.4754e-07
-5.70676e-13
-1.98823e-14
4.47543e-07
8.56262e-13
1.15923e-12
-2.8593e-13
-1.14244e-12
4.67324e-07
1.46822e-12
4.67326e-07
-1.17994e-12
-2.88627e-13
5.86841e-06
1.12992e-11
-1.87136e-11
5.86842e-06
-8.92307e-12
-2.28906e-11
-2.3808e-12
4.16003e-11
4.94621e-06
5.77867e-12
-9.7837e-12
4.94622e-06
-1.87645e-12
-2.98583e-11
-3.90724e-12
3.96429e-11
4.15006e-06
-2.19912e-12
3.45997e-13
4.15007e-06
8.89825e-12
-3.78424e-11
-6.70121e-12
3.74916e-11
3.46399e-06
-1.18419e-11
7.79914e-12
3.464e-06
2.22462e-11
-4.31716e-11
-1.04058e-11
3.53718e-11
2.87247e-06
-2.00512e-11
1.10624e-11
2.87249e-06
3.40977e-11
-3.8619e-11
-1.40504e-11
2.756e-11
2.36132e-06
-2.23017e-11
7.28692e-12
2.36133e-06
3.62124e-11
-2.07612e-11
-1.39175e-11
1.34783e-11
1.91653e-06
-1.69059e-11
1.84418e-12
1.91654e-06
2.59457e-11
-1.89271e-12
-9.04891e-12
5.19156e-14
1.52252e-06
-8.39581e-12
-1.85884e-12
1.52253e-06
1.18963e-11
7.08862e-12
-3.50819e-12
-5.23167e-12
1.15832e-06
-1.78828e-12
-1.71228e-12
1.15833e-06
2.42092e-12
5.34793e-12
-6.3424e-13
-3.64481e-12
7.10427e-07
2.25733e-12
7.1043e-07
-1.33647e-12
-9.22813e-13
8.2816e-06
1.5294e-11
-3.01529e-11
8.28161e-06
-1.18211e-11
-3.80021e-11
-3.47959e-12
6.81476e-11
6.99591e-06
7.71057e-12
-1.47748e-11
6.99593e-06
-2.37984e-12
-5.10587e-11
-5.33753e-12
6.58346e-11
5.88673e-06
-3.3014e-12
3.23524e-12
5.88674e-06
1.21272e-11
-6.62561e-11
-8.82896e-12
6.30124e-11
4.9312e-06
-1.653e-11
1.63245e-11
4.93122e-06
2.98384e-11
-7.5929e-11
-1.33102e-11
5.96026e-11
4.10749e-06
-2.76869e-11
2.13435e-11
4.1075e-06
4.59921e-11
-6.89722e-11
-1.83108e-11
4.76358e-11
3.39575e-06
-3.06726e-11
1.34912e-11
3.39576e-06
4.91185e-11
-3.639e-11
-1.8456e-11
2.29072e-11
2.77661e-06
-2.34507e-11
2.24543e-12
2.77662e-06
3.53593e-11
-6.20635e-13
-1.19216e-11
-1.61854e-12
2.22829e-06
-1.18891e-11
-5.35683e-12
2.2283e-06
1.65267e-11
1.57212e-11
-4.64827e-12
-1.03684e-11
1.71489e-06
-2.78856e-12
-4.74044e-12
1.7149e-06
3.65593e-12
1.17231e-11
-8.6996e-13
-6.99996e-12
9.34327e-07
2.61697e-12
9.34331e-07
-8.36936e-13
-1.78457e-12
1.078e-05
1.91713e-11
-4.39919e-11
1.07801e-05
-1.4654e-11
-5.4584e-11
-4.52586e-12
9.85641e-11
9.11399e-06
9.52101e-12
-2.04093e-11
9.114e-06
-2.85091e-12
-7.51603e-11
-6.67866e-12
9.55708e-11
7.67681e-06
-4.47409e-12
7.42381e-12
7.67682e-06
1.52303e-11
-9.95115e-11
-1.07603e-11
9.20748e-11
6.43864e-06
-2.11634e-11
2.72656e-11
6.43865e-06
3.7091e-11
-1.14616e-10
-1.59298e-11
8.73467e-11
5.37103e-06
-3.50165e-11
3.40312e-11
5.37105e-06
5.71467e-11
-1.05191e-10
-2.21374e-11
7.11714e-11
4.4482e-06
-3.85688e-11
2.10698e-11
4.44822e-06
6.10669e-11
-5.50524e-11
-2.25112e-11
3.39969e-11
3.64484e-06
-2.95588e-11
2.6743e-12
3.64485e-06
4.40269e-11
1.36224e-12
-1.44846e-11
-4.02684e-12
2.93169e-06
-1.52219e-11
-9.78965e-12
2.9317e-06
2.08651e-11
2.63825e-11
-5.65678e-12
-1.65997e-11
2.25471e-06
-3.83477e-12
-8.71198e-12
2.25472e-06
4.93076e-12
1.96516e-11
-1.09959e-12
-1.0967e-11
1.21476e-06
2.67421e-12
1.21476e-06
1.75698e-13
-2.85805e-12
1.35734e-05
2.32617e-11
-6.0619e-11
1.35734e-05
-1.77285e-11
-7.14534e-11
-5.5438e-12
1.32055e-10
1.148e-05
1.13676e-11
-2.68407e-11
1.148e-05
-3.35691e-12
-1.01066e-10
-8.02111e-12
1.27907e-10
9.67431e-06
-5.8248e-12
1.29005e-11
9.67433e-06
1.85259e-11
-1.36777e-10
-1.2706e-11
1.23858e-10
8.11856e-06
-2.61735e-11
4.06616e-11
8.11858e-06
4.47458e-11
-1.58691e-10
-1.85751e-11
1.18024e-10
6.7768e-06
-4.2737e-11
4.90665e-11
6.77682e-06
6.87004e-11
-1.46882e-10
-2.59723e-11
9.78339e-11
5.61644e-06
-4.67635e-11
2.9901e-11
5.61645e-06
7.32997e-11
-7.66355e-11
-2.65524e-11
4.67561e-11
4.60519e-06
-3.58828e-11
3.19879e-12
4.60521e-06
5.29244e-11
3.79256e-12
-1.70618e-11
-6.97757e-12
3.70452e-06
-1.87719e-11
-1.49999e-11
3.70454e-06
2.5445e-11
3.86674e-11
-6.68977e-12
-2.36779e-11
2.84059e-06
-5.08781e-12
-1.34858e-11
2.8406e-06
6.44248e-12
2.88352e-11
-1.35944e-12
-1.53887e-11
1.56745e-06
2.43293e-12
1.56745e-06
1.71114e-12
-4.15698e-12
1.6798e-05
2.77115e-11
-8.06802e-11
1.6798e-05
-2.12293e-11
-8.71057e-11
-6.49503e-12
1.67762e-10
1.421e-05
1.33022e-11
-3.448e-11
1.42101e-05
-3.93846e-12
-1.27436e-10
-9.37627e-12
1.61917e-10
1.19779e-05
-7.43553e-12
1.94351e-11
1.19779e-05
2.2175e-11
-1.77094e-10
-1.4745e-11
1.57634e-10
1.00546e-05
-3.17954e-11
5.64874e-11
1.00546e-05
5.31658e-11
-2.07492e-10
-2.1374e-11
1.50997e-10
8.3953e-06
-5.11653e-11
6.64218e-11
8.39532e-06
8.11306e-11
-1.93563e-10
-2.99761e-11
1.27166e-10
6.95944e-06
-5.55716e-11
3.98694e-11
6.95946e-06
8.62884e-11
-1.00937e-10
-3.07362e-11
6.1098e-11
5.70639e-06
-4.26935e-11
3.80215e-12
5.70641e-06
6.24328e-11
6.43296e-12
-1.97635e-11
-1.02166e-11
4.5862e-06
-2.27263e-11
-2.09146e-11
4.58621e-06
3.05075e-11
5.22321e-11
-7.80124e-12
-3.1332e-11
3.50655e-06
-6.66511e-12
-1.89312e-11
3.50656e-06
8.32001e-12
3.90035e-11
-1.66114e-12
-2.01255e-11
2.01048e-06
1.83464e-12
2.01049e-06
3.84005e-12
-5.69383e-12
2.05747e-05
3.25954e-11
-1.05084e-10
2.05748e-05
-2.5329e-11
-9.94571e-11
-7.28201e-12
2.04509e-10
1.74069e-05
1.53312e-11
-4.39445e-11
1.74069e-05
-4.63587e-12
-1.52482e-10
-1.07102e-11
1.96427e-10
1.46745e-05
-9.39022e-12
2.66193e-11
1.46745e-05
2.62998e-11
-2.19175e-10
-1.6916e-11
1.92522e-10
1.23197e-05
-3.82103e-11
7.46179e-11
1.23197e-05
6.2612e-11
-2.59998e-10
-2.44063e-11
1.85371e-10
1.02875e-05
-6.04957e-11
8.59538e-11
1.02875e-05
9.46996e-11
-2.44474e-10
-3.42167e-11
1.58554e-10
8.52755e-06
-6.51558e-11
5.08597e-11
8.52757e-06
1.00241e-10
-1.27667e-10
-3.51087e-11
7.68478e-11
6.98923e-06
-5.01511e-11
4.39314e-12
6.98925e-06
7.2745e-11
9.0296e-12
-2.26224e-11
-1.33986e-11
5.60942e-06
-2.72335e-11
-2.74564e-11
5.60944e-06
3.62164e-11
6.67053e-11
-9.00673e-12
-3.92682e-11
4.28162e-06
-8.6834e-12
-2.48773e-11
4.28164e-06
1.0678e-11
4.98433e-11
-2.0027e-12
-2.50349e-11
2.56464e-06
7.71858e-13
2.56464e-06
6.65687e-12
-7.45598e-12
2.50302e-05
3.79435e-11
-1.34828e-10
2.50302e-05
-3.02318e-11
-1.05627e-10
-7.73056e-12
2.40412e-10
2.11774e-05
1.74273e-11
-5.6103e-11
2.11774e-05
-5.4982e-12
-1.73853e-10
-1.19461e-11
2.29954e-10
1.78541e-05
-1.17865e-11
3.40155e-11
1.78541e-05
3.1026e-11
-2.61296e-10
-1.92467e-11
2.27237e-10
1.49894e-05
-4.55877e-11
9.48394e-11
1.49895e-05
7.33351e-11
-3.14762e-10
-2.77528e-11
2.19912e-10
1.2516e-05
-7.08716e-11
1.07301e-10
1.2516e-05
1.09576e-10
-2.9844e-10
-3.87197e-11
1.91183e-10
1.03721e-05
-7.5612e-11
6.26495e-11
1.03721e-05
1.15234e-10
-1.56349e-10
-3.96487e-11
9.37518e-11
8.49504e-06
-5.83805e-11
4.83898e-12
8.49507e-06
8.39671e-11
1.13334e-11
-2.562e-11
-1.61417e-11
6.80779e-06
-3.24429e-11
-3.45034e-11
6.80782e-06
4.27081e-11
8.16565e-11
-1.02932e-11
-4.71778e-11
5.19611e-06
-1.12599e-11
-3.11088e-11
5.19613e-06
1.36159e-11
6.09735e-11
-2.36637e-12
-2.99513e-11
3.25333e-06
-8.99994e-13
3.25334e-06
1.02381e-11
-9.37578e-12
3.03058e-05
4.40419e-11
-1.71571e-10
3.03057e-05
-3.58811e-11
-1.01231e-10
-8.18335e-12
2.72747e-10
2.56411e-05
1.96953e-11
-7.20391e-11
2.56411e-05
-6.5102e-12
-1.8818e-10
-1.32052e-11
2.60214e-10
2.16172e-05
-1.47454e-11
4.1136e-11
2.16172e-05
3.65105e-11
-3.01222e-10
-2.17725e-11
2.6003e-10
1.81476e-05
-5.40917e-11
1.16752e-10
1.81476e-05
8.56216e-11
-3.6989e-10
-3.15364e-11
2.53126e-10
1.51502e-05
-8.23995e-11
1.29856e-10
1.51502e-05
1.25872e-10
-3.5371e-10
-4.34904e-11
2.23909e-10
1.25495e-05
-8.70001e-11
7.47794e-11
1.25496e-05
1.31235e-10
-1.86206e-10
-4.4266e-11
1.11492e-10
1.02695e-05
-6.74988e-11
4.9687e-12
1.02696e-05
9.61462e-11
1.3154e-11
-2.86861e-11
-1.80843e-11
8.21955e-06
-3.85176e-11
-4.1895e-11
8.21958e-06
5.01015e-11
9.6584e-11
-1.16166e-11
-5.47197e-11
6.28458e-06
-1.45023e-11
-3.73865e-11
6.2846e-06
1.72039e-11
7.19418e-11
-2.71468e-12
-3.46614e-11
4.1025e-06
-3.33894e-12
4.10251e-06
1.4583e-11
-1.12947e-11
3.65645e-05
5.01614e-11
-2.1765e-10
3.65645e-05
-4.16211e-11
-7.99638e-11
-8.56675e-12
2.97543e-10
3.09357e-05
2.1975e-11
-9.37775e-11
3.09356e-05
-7.37812e-12
-1.90273e-10
-1.46204e-11
2.84044e-10
2.60793e-05
-1.82684e-11
4.68727e-11
2.60792e-05
4.29795e-11
-3.35835e-10
-2.47226e-11
2.88894e-10
2.18904e-05
-6.38337e-11
1.39763e-10
2.18904e-05
9.9838e-11
-4.23122e-10
-3.60082e-11
2.83339e-10
1.82693e-05
-9.51158e-11
1.52729e-10
1.82693e-05
1.43644e-10
-4.07748e-10
-4.85492e-11
2.55091e-10
1.51247e-05
-9.93571e-11
8.65204e-11
1.51247e-05
1.48096e-10
-2.15994e-10
-4.87746e-11
1.29553e-10
1.23657e-05
-7.76317e-11
4.56238e-12
1.23657e-05
1.09273e-10
1.44292e-11
-3.16856e-11
-1.89437e-11
9.89015e-06
-4.56349e-11
-4.94082e-11
9.89018e-06
5.8493e-11
1.10921e-10
-1.28958e-11
-6.15499e-11
7.58779e-06
-1.84964e-11
-4.34956e-11
7.58781e-06
2.14693e-11
8.22286e-11
-2.98893e-12
-3.88607e-11
5.14057e-06
-6.67691e-12
5.14059e-06
1.95358e-11
-1.29257e-11
4.39968e-05
5.58728e-11
-2.76674e-10
4.39968e-05
-4.71068e-11
-3.37679e-11
-8.7963e-12
3.10353e-10
3.72214e-05
2.41609e-11
-1.24533e-10
3.72213e-05
-7.95506e-12
-1.73531e-10
-1.62323e-11
2.98052e-10
3.13746e-05
-2.21351e-11
4.93102e-11
3.13746e-05
5.03422e-11
-3.60582e-10
-2.82219e-11
3.11192e-10
2.63294e-05
-7.46431e-11
1.62942e-10
2.63294e-05
1.16127e-10
-4.71864e-10
-4.14852e-11
3.08889e-10
2.19653e-05
-1.09029e-10
1.74939e-10
2.19653e-05
1.62868e-10
-4.57522e-10
-5.38637e-11
2.82677e-10
1.81729e-05
-1.12708e-10
9.68244e-11
1.81729e-05
1.65513e-10
-2.43755e-10
-5.28443e-11
1.47025e-10
1.48461e-05
-8.89162e-11
3.35562e-12
1.48461e-05
1.23282e-10
1.5284e-11
-3.4417e-11
-1.85803e-11
1.18746e-05
-5.39772e-11
-5.67973e-11
1.18746e-05
6.79467e-11
1.24075e-10
-1.40126e-11
-6.73231e-11
9.15448e-06
-2.33013e-11
-4.93057e-11
9.15451e-06
2.63957e-11
9.12382e-11
-3.11361e-12
-4.20842e-11
6.39883e-06
-1.09771e-11
6.39885e-06
2.47022e-11
-1.3811e-11
5.28259e-05
6.04663e-11
-3.54216e-10
5.28257e-05
-5.17064e-11
4.68972e-11
-8.79513e-12
3.0721e-10
4.4686e-05
2.6127e-11
-1.69573e-10
4.46859e-05
-8.01736e-12
-1.30109e-10
-1.81391e-11
2.99664e-10
3.76602e-05
-2.53642e-11
4.45852e-11
3.76602e-05
5.79242e-11
-3.69252e-10
-3.25768e-11
3.24575e-10
3.1595e-05
-8.58783e-11
1.85103e-10
3.1595e-05
1.34298e-10
-5.13327e-10
-4.84184e-11
3.28172e-10
2.63457e-05
-1.24167e-10
1.95711e-10
2.63457e-05
1.83366e-10
-4.99876e-10
-5.92209e-11
3.04283e-10
2.17831e-05
-1.27083e-10
1.0425e-10
2.17831e-05
1.82974e-10
-2.66536e-10
-5.59345e-11
1.62403e-10
1.77863e-05
-1.01508e-10
1.0129e-12
1.77863e-05
1.38139e-10
1.5974e-11
-3.66894e-11
-1.69135e-11
1.42397e-05
-6.37281e-11
-6.38482e-11
1.42398e-05
7.85463e-11
1.35524e-10
-1.48668e-11
-7.17307e-11
1.10429e-05
-2.89573e-11
-5.48255e-11
1.10429e-05
3.19547e-11
9.84136e-11
-3.01935e-12
-4.37663e-11
7.91239e-06
-1.62033e-11
7.91242e-06
2.93753e-11
-1.328e-11
6.33136e-05
6.5651e-11
-4.58791e-10
6.33134e-05
-5.69783e-11
1.72752e-10
-8.71246e-12
2.85907e-10
5.35496e-05
2.85924e-11
-2.34257e-10
5.35494e-05
-8.01695e-12
-5.35199e-11
-2.0607e-11
2.87752e-10
4.51199e-05
-2.70284e-11
2.73076e-11
4.51198e-05
6.53028e-11
-3.55616e-10
-3.82847e-11
3.28195e-10
3.78397e-05
-9.43665e-11
2.01835e-10
3.78396e-05
1.51112e-10
-5.41734e-10
-5.67468e-11
3.39837e-10
3.15368e-05
-1.38248e-10
2.1464e-10
3.15368e-05
2.01641e-10
-5.30752e-10
-6.3412e-11
3.16249e-10
2.6061e-05
-1.42546e-10
1.09235e-10
2.6061e-05
1.9971e-10
-2.83118e-10
-5.72141e-11
1.7403e-10
2.12778e-05
-1.15586e-10
-2.9551e-12
2.12779e-05
1.53926e-10
1.66893e-11
-3.84043e-11
-1.36462e-11
1.70669e-05
-7.50751e-11
-7.04323e-11
1.7067e-05
9.0473e-11
1.44941e-10
-1.54515e-11
-7.45746e-11
1.33219e-05
-3.55035e-11
-6.01409e-11
1.3322e-05
3.82034e-11
1.03309e-10
-2.72402e-12
-4.33762e-11
9.72192e-06
-2.22294e-11
9.72196e-06
3.26262e-11
-1.05289e-11
7.57671e-05
7.14303e-11
-5.96174e-10
7.57669e-05
-6.24328e-11
3.50966e-10
-9.04168e-12
2.45051e-10
6.40697e-05
3.18241e-11
-3.22742e-10
6.40695e-05
-7.91524e-12
6.10578e-11
-2.39418e-11
2.61647e-10
5.39684e-05
-2.80568e-11
-6.70466e-12
5.39683e-05
7.34337e-11
-3.15543e-10
-4.53846e-11
3.22108e-10
4.5242e-05
-9.95019e-11
2.06643e-10
4.52419e-05
1.6606e-10
-5.50557e-10
-6.65543e-11
3.43841e-10
3.76879e-05
-1.50366e-10
2.30121e-10
3.76878e-05
2.19176e-10
-5.47484e-10
-6.88386e-11
3.17531e-10
3.11338e-05
-1.59391e-10
1.13044e-10
3.11338e-05
2.1809e-10
-2.9189e-10
-5.87541e-11
1.79021e-10
2.54319e-05
-1.3136e-10
-9.51217e-12
2.5432e-05
1.71065e-10
2.05327e-11
-3.97748e-11
-1.09177e-11
2.04541e-05
-8.81977e-11
-7.66401e-11
2.04542e-05
1.04116e-10
1.52469e-10
-1.59765e-11
-7.59069e-11
1.60726e-05
-4.29789e-11
-6.53595e-11
1.60727e-05
4.5383e-11
1.05582e-10
-2.42912e-12
-4.04629e-11
1.18759e-05
-2.87722e-11
1.1876e-05
3.34417e-11
-4.8266e-12
9.05457e-05
7.78008e-11
-7.66935e-10
9.05454e-05
-6.72658e-11
5.84942e-10
-1.05827e-11
1.81808e-10
7.6547e-05
3.62647e-11
-4.35267e-10
7.65468e-05
-7.65365e-12
2.15575e-10
-2.8644e-11
2.19641e-10
6.44567e-05
-2.76901e-11
-5.92525e-11
6.44565e-05
8.14916e-11
-2.46715e-10
-5.3804e-11
3.05798e-10
5.40115e-05
-1.03904e-10
1.97301e-10
5.40114e-05
1.81695e-10
-5.38259e-10
-7.7778e-11
3.40869e-10
4.4976e-05
-1.62694e-10
2.39142e-10
4.49759e-05
2.39657e-10
-5.47829e-10
-7.69765e-11
3.08882e-10
3.71545e-05
-1.76772e-10
1.12866e-10
3.71545e-05
2.38766e-10
-2.8601e-10
-6.20536e-11
1.73365e-10
3.03835e-05
-1.48999e-10
-1.91418e-11
3.03835e-05
1.90344e-10
3.15765e-11
-4.14194e-11
-1.23172e-11
2.45186e-05
-1.0332e-10
-8.2711e-11
2.45187e-05
1.20289e-10
1.58777e-10
-1.70297e-11
-7.61575e-11
1.93883e-05
-5.1493e-11
-7.05992e-11
1.93883e-05
5.40654e-11
1.05108e-10
-2.59701e-12
-3.47856e-11
1.44332e-05
-3.54478e-11
1.44332e-05
3.10329e-11
4.23311e-12
0.000108067
8.48288e-11
-9.64171e-10
0.000108067
-7.01802e-11
8.69921e-10
-1.46986e-11
9.40319e-11
9.1331e-05
4.26896e-11
-5.66889e-10
9.13307e-05
-7.22043e-12
4.06253e-10
-3.55001e-11
1.60566e-10
7.68769e-05
-2.45717e-11
-1.28322e-10
7.68767e-05
8.81531e-11
-1.50528e-10
-6.35745e-11
2.78643e-10
6.43944e-05
-1.05902e-10
1.73144e-10
6.43943e-05
1.95154e-10
-5.04095e-10
-8.92259e-11
3.30843e-10
5.3612e-05
-1.70209e-10
2.3472e-10
5.3612e-05
2.55914e-10
-5.24463e-10
-8.5718e-11
2.89978e-10
4.43074e-05
-1.91036e-10
1.06424e-10
4.43074e-05
2.57445e-10
-2.59934e-10
-6.64715e-11
1.53781e-10
3.62947e-05
-1.68592e-10
-2.92844e-11
3.62947e-05
2.12737e-10
4.96959e-11
-4.42181e-11
-2.02834e-11
2.93984e-05
-1.20792e-10
-8.88176e-11
2.93985e-05
1.40507e-10
1.64515e-10
-1.97764e-11
-7.58009e-11
2.33753e-05
-6.12821e-11
-7.59495e-11
2.33753e-05
6.52848e-11
1.02131e-10
-4.02512e-12
-2.64972e-11
1.74647e-05
-4.18361e-11
1.74647e-05
2.5363e-11
1.6269e-11
0.000128815
9.27801e-11
-1.17042e-09
0.000128814
-6.94312e-11
1.18498e-09
-2.33987e-11
-1.48046e-11
0.000108826
5.24221e-11
-7.05758e-10
0.000108826
-7.0368e-12
6.18544e-10
-4.54118e-11
8.71207e-11
9.1569e-05
-1.65546e-11
-2.07966e-10
9.15688e-05
9.10293e-11
-3.43766e-11
-7.44525e-11
2.42086e-10
7.66803e-05
-1.03276e-10
1.35627e-10
7.66801e-05
2.02958e-10
-4.49207e-10
-9.96368e-11
3.13449e-10
6.38476e-05
-1.7638e-10
2.15204e-10
6.38475e-05
2.71794e-10
-4.7658e-10
-9.54167e-11
2.61658e-10
5.2814e-05
-2.06869e-10
9.06192e-11
5.2814e-05
2.79154e-10
-2.07975e-10
-7.23484e-11
1.17687e-10
4.33585e-05
-1.90974e-10
-4.20312e-11
4.33585e-05
2.39769e-10
7.90818e-11
-4.88769e-11
-3.6904e-11
3.52534e-05
-1.41375e-10
-9.54779e-11
3.52535e-05
1.67353e-10
1.69433e-10
-2.60388e-11
-7.40804e-11
2.81531e-05
-7.28366e-11
-8.14353e-11
2.81532e-05
8.05875e-11
9.74806e-11
-7.76917e-12
-1.64027e-11
2.10549e-05
-4.78211e-11
2.1055e-05
1.78144e-11
2.97842e-11
0.000153344
1.0244e-10
-1.35524e-09
0.000153343
-6.37907e-11
1.48743e-09
-3.86941e-11
-1.32463e-10
0.000129498
6.77055e-11
-8.31211e-10
0.000129497
-8.85925e-12
8.23705e-10
-5.88649e-11
7.38616e-12
0.000108927
-2.55876e-13
-2.87106e-10
0.000108927
8.56746e-11
8.65917e-11
-8.5374e-11
2.00195e-10
9.12095e-05
-9.25318e-11
8.9026e-11
9.12093e-05
1.99729e-10
-3.77191e-10
-1.07128e-10
2.88009e-10
7.59814e-05
-1.78936e-10
1.81079e-10
7.59812e-05
2.8288e-10
-4.04266e-10
-1.0393e-10
2.23525e-10
6.29369e-05
-2.24248e-10
6.40889e-11
6.29368e-05
3.09089e-10
-1.34062e-10
-8.49004e-11
7.03784e-11
5.18003e-05
-2.17408e-10
-5.84155e-11
5.18002e-05
2.80643e-10
1.19889e-10
-6.33146e-11
-6.13065e-11
4.22653e-05
-1.66322e-10
-1.03491e-10
4.22654e-05
2.05501e-10
1.77115e-10
-3.92337e-11
-7.37756e-11
3.38549e-05
-8.68309e-11
-8.71643e-11
3.38551e-05
1.01883e-10
9.36807e-11
-1.50651e-11
-6.91475e-12
2.53022e-05
-5.35422e-11
2.53023e-05
1.18179e-11
4.14887e-11
0.000182285
1.15703e-10
-1.47648e-09
0.000182285
-5.47455e-11
1.71127e-09
-6.09891e-11
-2.35063e-10
0.000153877
9.22166e-11
-9.15114e-10
0.000153877
-1.74922e-11
9.78457e-10
-7.47301e-11
-6.34879e-11
0.000129407
2.95782e-11
-3.49558e-10
0.000129407
6.3962e-11
1.89689e-10
-9.3466e-11
1.5947e-10
0.00010838
-6.82928e-11
4.03985e-11
0.00010838
1.76977e-10
-2.9484e-10
-1.08586e-10
2.54261e-10
9.03644e-05
-1.73951e-10
1.35629e-10
9.03642e-05
2.83713e-10
-3.1176e-10
-1.09723e-10
1.76528e-10
7.49822e-05
-2.4224e-10
2.82349e-11
7.49821e-05
3.47558e-10
-4.92901e-11
-1.05348e-10
2.15284e-11
6.18769e-05
-2.49001e-10
-7.86201e-11
6.18768e-05
3.40169e-10
1.67036e-10
-9.12115e-11
-8.82354e-11
5.06353e-05
-1.97037e-10
-1.13042e-10
5.06354e-05
2.58764e-10
1.90046e-10
-6.17614e-11
-7.71644e-11
4.06277e-05
-1.03989e-10
-9.31683e-11
4.06278e-05
1.30249e-10
9.40879e-11
-2.62708e-11
-1.34138e-12
3.03184e-05
-5.9475e-11
3.03186e-05
1.20612e-11
4.71681e-11
0.000216348
1.36399e-10
-1.48682e-09
0.000216348
-5.12088e-11
1.77985e-09
-8.5182e-11
-2.93324e-10
0.000182567
1.31688e-10
-9.26008e-10
0.000182567
-4.32177e-11
1.02939e-09
-8.84537e-11
-1.03535e-10
0.00015353
8.06805e-11
-3.76362e-10
0.00015353
1.21881e-11
2.48614e-10
-9.27634e-11
1.2726e-10
0.000128651
-2.28725e-11
-8.87427e-13
0.000128651
1.21898e-10
-2.12826e-10
-9.88977e-11
2.1351e-10
0.0001074
-1.55736e-10
8.54874e-11
0.0001074
2.65112e-10
-2.09448e-10
-1.09309e-10
1.24419e-10
8.92965e-05
-2.58292e-10
-1.14987e-11
8.92963e-05
3.83727e-10
3.45036e-11
-1.25424e-10
-2.2475e-11
7.38718e-05
-2.85344e-10
-9.91334e-11
7.38717e-05
4.111e-10
2.08622e-10
-1.25758e-10
-1.09295e-10
6.05803e-05
-2.33875e-10
-1.21772e-10
6.05803e-05
3.24483e-10
2.02208e-10
-9.06057e-11
-8.06014e-11
4.86319e-05
-1.24296e-10
-9.83491e-11
4.86321e-05
1.63485e-10
9.9018e-11
-3.9196e-11
-1.08111e-12
3.62278e-05
-6.56154e-11
3.62279e-05
2.07617e-11
4.46003e-11
0.000256315
1.69841e-10
-1.35025e-09
0.000256315
-6.67441e-11
1.62604e-09
-1.03079e-10
-2.76069e-10
0.000216236
1.94098e-10
-8.41107e-10
0.000216237
-1.03835e-10
9.35866e-10
-9.02059e-11
-9.49498e-11
0.00018188
1.63191e-10
-3.51564e-10
0.00018188
-8.94403e-11
2.42865e-10
-7.35917e-11
1.08109e-10
0.000152536
5.35627e-11
-2.53059e-11
0.000152536
1.70451e-11
-1.43492e-10
-7.04576e-11
1.68604e-10
0.000127534
-1.16916e-10
4.02843e-11
0.000127534
2.14602e-10
-1.14434e-10
-9.75918e-11
7.4663e-11
0.000106254
-2.68094e-10
-4.50509e-11
0.000106254
4.10045e-10
9.88995e-11
-1.41888e-10
-5.32869e-11
8.80819e-05
-3.24229e-10
-1.11942e-10
8.80818e-05
4.86258e-10
2.2857e-10
-1.6197e-10
-1.16432e-10
7.23234e-05
-2.74997e-10
-1.23528e-10
7.23235e-05
3.94685e-10
2.03119e-10
-1.19635e-10
-7.97479e-11
5.80385e-05
-1.46243e-10
-9.89756e-11
5.80387e-05
1.96083e-10
1.03401e-10
-4.98321e-11
-4.79357e-12
4.31635e-05
-6.93759e-11
4.31637e-05
3.38632e-11
3.52681e-11
0.000303019
2.25199e-10
-1.03807e-09
0.000303019
-1.1562e-10
1.22593e-09
-1.09513e-10
-1.88098e-10
0.000255604
2.88566e-10
-6.45112e-10
0.000255604
-2.20552e-10
6.97269e-10
-6.79173e-11
-5.23786e-11
0.000215082
2.87197e-10
-2.70412e-10
0.000215082
-2.63071e-10
1.74218e-10
-2.40193e-11
9.55927e-11
0.000180574
1.70711e-10
-2.85703e-11
0.000180574
-1.55916e-10
-9.30961e-11
-1.46677e-11
1.21451e-10
0.000151224
-5.08881e-11
9.07583e-12
0.000151224
1.19478e-10
-4.36973e-11
-6.84867e-11
3.51597e-11
0.000126225
-2.68022e-10
-5.95864e-11
0.000126224
4.19525e-10
1.22666e-10
-1.51384e-10
-6.25326e-11
0.000104792
-3.63065e-10
-1.05364e-10
0.000104791
5.58296e-10
2.08452e-10
-1.95089e-10
-1.02915e-10
8.60789e-05
-3.17556e-10
-1.08967e-10
8.6079e-05
4.60979e-10
1.77699e-10
-1.43306e-10
-6.88651e-11
6.90193e-05
-1.67538e-10
-8.75557e-11
6.90195e-05
2.22953e-10
9.5855e-11
-5.53834e-11
-8.58106e-12
5.1261e-05
-6.42895e-11
5.12613e-05
4.14338e-11
2.26421e-11
0.00035728
3.08019e-10
-5.71715e-10
0.000357281
-2.15827e-10
6.49783e-10
-9.20388e-11
-7.82196e-11
0.000301373
4.18379e-10
-3.54265e-10
0.000301373
-4.00474e-10
3.63955e-10
-1.77831e-11
-9.87911e-12
0.00025373
4.54446e-10
-1.46187e-10
0.00025373
-5.12984e-10
7.8343e-11
5.85592e-11
6.73425e-11
0.000213257
3.29085e-10
-1.70575e-11
0.000213256
-3.98872e-10
-5.09142e-11
6.97893e-11
6.77758e-11
0.000178859
4.02126e-11
-4.83962e-12
0.000178859
-2.02579e-11
-4.95935e-12
-1.99078e-11
1.02923e-11
0.000149505
-2.60324e-10
-4.56039e-11
0.000149505
4.1439e-10
9.14631e-11
-1.53917e-10
-4.54139e-11
0.000124221
-4.02208e-10
-6.83738e-11
0.000124221
6.26561e-10
1.32379e-10
-2.24137e-10
-6.38995e-11
0.00010202
-3.60718e-10
-6.7951e-11
0.000102021
5.21055e-10
1.09884e-10
-1.60144e-10
-4.2044e-11
8.17262e-05
-1.87728e-10
-5.49212e-11
8.17265e-05
2.43736e-10
6.24357e-11
-5.5914e-11
-7.69739e-12
6.06415e-05
-4.26852e-11
6.06418e-05
3.28963e-11
9.66959e-12
0.000419745
4.11539e-10
0.000419746
-3.51568e-10
-5.97166e-11
0.000354081
5.69731e-10
0.000354082
-6.15335e-10
4.56695e-11
0.000298234
6.43081e-10
0.000298234
-7.99755e-10
1.56239e-10
0.000250861
5.00841e-10
0.00025086
-6.66091e-10
1.64618e-10
0.000210603
1.28128e-10
0.000210602
-1.61925e-10
3.36589e-11
0.000176182
-2.65099e-10
0.000176182
4.25957e-10
-1.60551e-10
0.000146428
-4.52893e-10
0.000146428
7.08435e-10
-2.55128e-10
0.000120218
-4.10116e-10
0.000120218
5.83715e-10
-1.73297e-10
9.62429e-05
-2.08729e-10
9.62433e-05
2.61819e-10
-5.29701e-11
7.13775e-05
7.13778e-05
)
;

boundaryField
{
    freeSurface
    {
        type            calculated;
        value           uniform 0;
    }
    inlet
    {
        type            cyclic;
        value           nonuniform List<scalar> 
240
(
-2.89606e-06
-2.4019e-06
-1.98102e-06
-1.62241e-06
-1.31614e-06
-1.05368e-06
-8.26973e-07
-6.27476e-07
-4.47543e-07
-4.67326e-07
-5.8684e-06
-4.9462e-06
-4.15005e-06
-3.46399e-06
-2.87247e-06
-2.36132e-06
-1.91653e-06
-1.52253e-06
-1.15833e-06
-7.1043e-07
-8.28159e-06
-6.9959e-06
-5.88672e-06
-4.9312e-06
-4.10748e-06
-3.39575e-06
-2.77662e-06
-2.2283e-06
-1.7149e-06
-9.34331e-07
-1.078e-05
-9.11397e-06
-7.6768e-06
-6.43863e-06
-5.37103e-06
-4.44821e-06
-3.64485e-06
-2.9317e-06
-2.25472e-06
-1.21476e-06
-1.35734e-05
-1.148e-05
-9.6743e-06
-8.11855e-06
-6.7768e-06
-5.61644e-06
-4.60521e-06
-3.70453e-06
-2.8406e-06
-1.56745e-06
-1.67979e-05
-1.421e-05
-1.19779e-05
-1.00546e-05
-8.3953e-06
-6.95945e-06
-5.7064e-06
-4.58621e-06
-3.50656e-06
-2.01049e-06
-2.05747e-05
-1.74068e-05
-1.46745e-05
-1.23197e-05
-1.02875e-05
-8.52755e-06
-6.98924e-06
-5.60943e-06
-4.28163e-06
-2.56464e-06
-2.50302e-05
-2.11773e-05
-1.78541e-05
-1.49894e-05
-1.2516e-05
-1.03721e-05
-8.49506e-06
-6.80781e-06
-5.19613e-06
-3.25334e-06
-3.03057e-05
-2.56411e-05
-2.16172e-05
-1.81476e-05
-1.51502e-05
-1.25495e-05
-1.02696e-05
-8.21957e-06
-6.28459e-06
-4.10251e-06
-3.65645e-05
-3.09356e-05
-2.60792e-05
-2.18904e-05
-1.82693e-05
-1.51247e-05
-1.23657e-05
-9.89017e-06
-7.58781e-06
-5.14059e-06
-4.39968e-05
-3.72213e-05
-3.13746e-05
-2.63294e-05
-2.19653e-05
-1.81729e-05
-1.48461e-05
-1.18746e-05
-9.15451e-06
-6.39885e-06
-5.28258e-05
-4.46859e-05
-3.76602e-05
-3.1595e-05
-2.63456e-05
-2.17831e-05
-1.77863e-05
-1.42398e-05
-1.10429e-05
-7.91241e-06
-6.33134e-05
-5.35495e-05
-4.51198e-05
-3.78396e-05
-3.15368e-05
-2.6061e-05
-2.12778e-05
-1.70669e-05
-1.3322e-05
-9.72195e-06
-7.5767e-05
-6.40696e-05
-5.39683e-05
-4.52419e-05
-3.76878e-05
-3.11338e-05
-2.5432e-05
-2.04542e-05
-1.60726e-05
-1.1876e-05
-9.05455e-05
-7.65468e-05
-6.44566e-05
-5.40114e-05
-4.49759e-05
-3.71544e-05
-3.03835e-05
-2.45186e-05
-1.93883e-05
-1.44332e-05
-0.000108067
-9.13308e-05
-7.68768e-05
-6.43943e-05
-5.3612e-05
-4.43074e-05
-3.62947e-05
-2.93984e-05
-2.33753e-05
-1.74647e-05
-0.000128815
-0.000108826
-9.15689e-05
-7.66802e-05
-6.38475e-05
-5.2814e-05
-4.33585e-05
-3.52535e-05
-2.81532e-05
-2.1055e-05
-0.000153344
-0.000129497
-0.000108927
-9.12094e-05
-7.59813e-05
-6.29369e-05
-5.18003e-05
-4.22653e-05
-3.3855e-05
-2.53023e-05
-0.000182285
-0.000153877
-0.000129407
-0.00010838
-9.03642e-05
-7.49821e-05
-6.18769e-05
-5.06354e-05
-4.06278e-05
-3.03185e-05
-0.000216348
-0.000182567
-0.00015353
-0.000128651
-0.0001074
-8.92963e-05
-7.38717e-05
-6.05803e-05
-4.8632e-05
-3.62279e-05
-0.000256315
-0.000216237
-0.00018188
-0.000152536
-0.000127534
-0.000106254
-8.80819e-05
-7.23235e-05
-5.80386e-05
-4.31637e-05
-0.000303019
-0.000255604
-0.000215082
-0.000180574
-0.000151224
-0.000126224
-0.000104792
-8.6079e-05
-6.90195e-05
-5.12612e-05
-0.000357281
-0.000301373
-0.00025373
-0.000213256
-0.000178859
-0.000149505
-0.000124221
-0.000102021
-8.17264e-05
-6.06418e-05
-0.000419746
-0.000354082
-0.000298234
-0.000250861
-0.000210603
-0.000176182
-0.000146428
-0.000120218
-9.62431e-05
-7.13777e-05
)
;
    }
    outlet
    {
        type            cyclic;
        value           nonuniform List<scalar> 
240
(
2.89606e-06
2.4019e-06
1.98102e-06
1.62241e-06
1.31614e-06
1.05368e-06
8.26973e-07
6.27476e-07
4.47543e-07
4.67326e-07
5.8684e-06
4.9462e-06
4.15005e-06
3.46399e-06
2.87247e-06
2.36132e-06
1.91653e-06
1.52253e-06
1.15833e-06
7.1043e-07
8.28159e-06
6.9959e-06
5.88672e-06
4.9312e-06
4.10748e-06
3.39575e-06
2.77662e-06
2.2283e-06
1.7149e-06
9.34331e-07
1.078e-05
9.11397e-06
7.6768e-06
6.43863e-06
5.37103e-06
4.44821e-06
3.64485e-06
2.9317e-06
2.25472e-06
1.21476e-06
1.35734e-05
1.148e-05
9.6743e-06
8.11855e-06
6.7768e-06
5.61644e-06
4.60521e-06
3.70453e-06
2.8406e-06
1.56745e-06
1.67979e-05
1.421e-05
1.19779e-05
1.00546e-05
8.3953e-06
6.95945e-06
5.7064e-06
4.58621e-06
3.50656e-06
2.01049e-06
2.05747e-05
1.74068e-05
1.46745e-05
1.23197e-05
1.02875e-05
8.52755e-06
6.98924e-06
5.60943e-06
4.28163e-06
2.56464e-06
2.50302e-05
2.11773e-05
1.78541e-05
1.49894e-05
1.2516e-05
1.03721e-05
8.49506e-06
6.80781e-06
5.19613e-06
3.25334e-06
3.03057e-05
2.56411e-05
2.16172e-05
1.81476e-05
1.51502e-05
1.25495e-05
1.02696e-05
8.21957e-06
6.28459e-06
4.10251e-06
3.65645e-05
3.09356e-05
2.60792e-05
2.18904e-05
1.82693e-05
1.51247e-05
1.23657e-05
9.89017e-06
7.58781e-06
5.14059e-06
4.39968e-05
3.72213e-05
3.13746e-05
2.63294e-05
2.19653e-05
1.81729e-05
1.48461e-05
1.18746e-05
9.15451e-06
6.39885e-06
5.28258e-05
4.46859e-05
3.76602e-05
3.1595e-05
2.63456e-05
2.17831e-05
1.77863e-05
1.42398e-05
1.10429e-05
7.91241e-06
6.33134e-05
5.35495e-05
4.51198e-05
3.78396e-05
3.15368e-05
2.6061e-05
2.12778e-05
1.70669e-05
1.3322e-05
9.72195e-06
7.5767e-05
6.40696e-05
5.39683e-05
4.52419e-05
3.76878e-05
3.11338e-05
2.5432e-05
2.04542e-05
1.60726e-05
1.1876e-05
9.05455e-05
7.65468e-05
6.44566e-05
5.40114e-05
4.49759e-05
3.71544e-05
3.03835e-05
2.45186e-05
1.93883e-05
1.44332e-05
0.000108067
9.13308e-05
7.68768e-05
6.43943e-05
5.3612e-05
4.43074e-05
3.62947e-05
2.93984e-05
2.33753e-05
1.74647e-05
0.000128815
0.000108826
9.15689e-05
7.66802e-05
6.38475e-05
5.2814e-05
4.33585e-05
3.52535e-05
2.81532e-05
2.1055e-05
0.000153344
0.000129497
0.000108927
9.12094e-05
7.59813e-05
6.29369e-05
5.18003e-05
4.22653e-05
3.3855e-05
2.53023e-05
0.000182285
0.000153877
0.000129407
0.00010838
9.03642e-05
7.49821e-05
6.18769e-05
5.06354e-05
4.06278e-05
3.03185e-05
0.000216348
0.000182567
0.00015353
0.000128651
0.0001074
8.92963e-05
7.38717e-05
6.05803e-05
4.8632e-05
3.62279e-05
0.000256315
0.000216237
0.00018188
0.000152536
0.000127534
0.000106254
8.80819e-05
7.23235e-05
5.80386e-05
4.31637e-05
0.000303019
0.000255604
0.000215082
0.000180574
0.000151224
0.000126224
0.000104792
8.6079e-05
6.90195e-05
5.12612e-05
0.000357281
0.000301373
0.00025373
0.000213256
0.000178859
0.000149505
0.000124221
0.000102021
8.17264e-05
6.06418e-05
0.000419746
0.000354082
0.000298234
0.000250861
0.000210603
0.000176182
0.000146428
0.000120218
9.62431e-05
7.13777e-05
)
;
    }
    sidewalls
    {
        type            calculated;
        value           uniform 0;
    }
    noSlipWalls
    {
        type            calculated;
        value           uniform 0;
    }
    procBoundary2to1
    {
        type            processor;
        value           nonuniform List<scalar> 
72
(
-7.49913e-12
6.9676e-12
5.34999e-13
-1.42137e-11
1.25837e-11
1.63713e-12
-1.92899e-11
1.67064e-11
2.59355e-12
-2.4264e-11
2.07766e-11
3.50038e-12
-2.95569e-11
2.52216e-11
4.35132e-12
-3.53665e-11
3.03073e-11
5.07889e-12
-4.18096e-11
3.62887e-11
5.54481e-12
-4.92007e-11
4.34456e-11
5.78429e-12
-5.7568e-11
5.16475e-11
5.95566e-12
-6.60593e-11