/*--------------------------------*- C++ -*----------------------------------*\
  =========                 |
  \\      /  F ield         | OpenFOAM: The Open Source CFD Toolbox
   \\    /   O peration     | Website:  https://openfoam.org
    \\  /    A nd           | Version:  6
     \\/     M anipulation  |
\*---------------------------------------------------------------------------*/
FoamFile
{
    version     2.0;
    format      ascii;
    class       volVectorField;
    location    "60";
    object      U;
}
// * * * * * * * * * * * * * * * * * * * * * * * * * * * * * * * * * * * * * //

dimensions      [0 1 -1 0 0 0 0];

internalField   nonuniform List<vector> 
720
(
(0.106484 1.40474e-08 -6.40402e-11)
(0.106486 -1.28862e-08 -1.0893e-10)
(0.106485 -1.16541e-09 1.72982e-10)
(0.102457 9.28286e-09 -5.21142e-11)
(0.102458 -6.48168e-09 -1.87582e-10)
(0.102457 -2.80695e-09 2.39859e-10)
(0.0980347 3.06752e-09 -8.66289e-12)
(0.0980361 1.70315e-09 -2.81329e-10)
(0.0980356 -4.77513e-09 2.90197e-10)
(0.0931443 -6.11879e-09 4.42617e-11)
(0.0931457 1.53876e-08 -3.80661e-10)
(0.0931454 -9.26991e-09 3.36605e-10)
(0.0876603 -1.53187e-08 8.47605e-11)
(0.0876616 2.78691e-08 -3.77598e-10)
(0.0876615 -1.25509e-08 2.92898e-10)
(0.0814175 -2.15831e-08 7.06527e-11)
(0.0814185 3.75023e-08 -2.43099e-10)
(0.0814187 -1.59248e-08 1.72405e-10)
(0.0741319 -1.92875e-08 4.69452e-11)
(0.0741325 3.1192e-08 -9.01238e-11)
(0.0741332 -1.19118e-08 4.324e-11)
(0.0652556 -1.13888e-08 3.58904e-11)
(0.0652559 1.73229e-08 1.09316e-12)
(0.0652567 -5.9427e-09 -3.69424e-11)
(0.0539961 -3.18533e-09 3.50291e-11)
(0.0539961 4.44402e-09 -7.52068e-12)
(0.0539968 -1.26255e-09 -2.75896e-11)
(0.0654117 1.94109e-10 1.48711e-10)
(0.0654117 -2.86013e-11 -1.09078e-10)
(0.0654123 -1.63947e-10 -3.96548e-11)
(0.184643 2.29607e-08 -4.17323e-10)
(0.184644 -2.01939e-08 -4.93701e-10)
(0.184644 -2.7738e-09 9.11074e-10)
(0.180547 1.52346e-08 -2.59739e-10)
(0.180549 -1.01725e-08 -7.2029e-10)
(0.180548 -5.07178e-09 9.80273e-10)
(0.175743 4.79606e-09 -2.13205e-11)
(0.175745 3.01944e-09 -1.03141e-09)
(0.175744 -7.82274e-09 1.05295e-09)
(0.17018 -1.11003e-08 2.12912e-10)
(0.170181 2.55274e-08 -1.35001e-09)
(0.170181 -1.44291e-08 1.13736e-09)
(0.163717 -2.7276e-08 3.75246e-10)
(0.163718 4.6688e-08 -1.37725e-09)
(0.163718 -1.94134e-08 1.00216e-09)
(0.156135 -3.87133e-08 2.93184e-10)
(0.156136 6.53018e-08 -8.57805e-10)
(0.156136 -2.65993e-08 5.64662e-10)
(0.147017 -3.5447e-08 9.73924e-11)
(0.147017 5.5814e-08 -1.22357e-10)
(0.147018 -2.03808e-08 2.51526e-11)
(0.135495 -2.19047e-08 -7.39506e-11)
(0.135495 3.21079e-08 3.46459e-10)
(0.135496 -1.02201e-08 -2.72522e-10)
(0.11959 -6.97705e-09 -7.8306e-11)
(0.11959 9.18343e-09 2.97332e-10)
(0.119591 -2.21469e-09 -2.1956e-10)
(0.0850926 1.22354e-10 2.01034e-10)
(0.0850926 1.07173e-10 -1.27811e-10)
(0.0850932 -2.27733e-10 -7.33477e-11)
(0.222978 2.66743e-08 -6.73147e-10)
(0.222979 -2.29825e-08 -8.46686e-10)
(0.222978 -3.70005e-09 1.51978e-09)
(0.218524 1.76035e-08 -3.94749e-10)
(0.218525 -1.15095e-08 -1.29927e-09)
(0.218524 -6.10528e-09 1.69422e-09)
(0.213321 5.3036e-09 6.01408e-11)
(0.213323 3.65096e-09 -1.93086e-09)
(0.213322 -8.96282e-09 1.87069e-09)
(0.207309 -1.34381e-08 5.11129e-10)
(0.207311 2.94213e-08 -2.55831e-09)
(0.207311 -1.59856e-08 2.04729e-09)
(0.200331 -3.23879e-08 8.01606e-10)
(0.200333 5.36537e-08 -2.67869e-09)
(0.200333 -2.12677e-08 1.87738e-09)
(0.192139 -4.56242e-08 6.00168e-10)
(0.19214 7.57303e-08 -1.65167e-09)
(0.19214 -3.0119e-08 1.05179e-09)
(0.182264 -4.18804e-08 1.38861e-10)
(0.182265 6.50108e-08 -8.79412e-11)
(0.182266 -2.31472e-08 -5.05855e-11)
(0.169693 -2.61901e-08 -2.77639e-10)
(0.169694 3.7684e-08 8.87495e-10)
(0.169695 -1.15142e-08 -6.10039e-10)
(0.151508 -8.87711e-09 -2.87894e-10)
(0.151508 1.13759e-08 7.7302e-10)
(0.15151 -2.50918e-09 -4.86305e-10)
(0.0957648 -1.38669e-11 2.49892e-10)
(0.0957648 2.90382e-10 -1.18179e-10)
(0.0957654 -2.74749e-10 -1.32017e-10)
(0.248372 2.86974e-08 -1.00545e-09)
(0.248373 -2.44428e-08 -1.27172e-09)
(0.248373 -4.26353e-09 2.27694e-09)
(0.243611 1.88187e-08 -5.54258e-10)
(0.243613 -1.21741e-08 -2.00572e-09)
(0.243612 -6.65694e-09 2.56007e-09)
(0.238054 5.41892e-09 1.93539e-10)
(0.238056 4.05577e-09 -3.04713e-09)
(0.238055 -9.48353e-09 2.85328e-09)
(0.23163 -1.49218e-08 9.22514e-10)
(0.231632 3.14217e-08 -4.05881e-09)
(0.231631 -1.65024e-08 3.13625e-09)
(0.224164 -3.52971e-08 1.36404e-09)
(0.224165 5.70204e-08 -4.30135e-09)
(0.224165 -2.17255e-08 2.9378e-09)
(0.215377 -4.91722e-08 9.89671e-10)
(0.215378 8.05972e-08 -2.62099e-09)
(0.215378 -3.14392e-08 1.63194e-09)
(0.204739 -4.50712e-08 1.64783e-10)
(0.204739 6.92037e-08 2.30705e-11)
(0.20474 -2.41509e-08 -1.87331e-10)
(0.19105 -2.83468e-08 -5.81538e-10)
(0.19105 4.0271e-08 1.62415e-09)
(0.191051 -1.19461e-08 -1.04302e-09)
(0.170461 -1.00736e-08 -6.02231e-10)
(0.170461 1.26948e-08 1.40981e-09)
(0.170463 -2.63282e-09 -8.09574e-10)
(0.106544 -2.6367e-10 2.80961e-10)
(0.106544 6.00178e-10 -4.6534e-11)
(0.106545 -3.34931e-10 -2.35059e-10)
(0.267612 2.98889e-08 -1.41698e-09)
(0.267614 -2.53525e-08 -1.732e-09)
(0.267613 -4.54589e-09 3.14858e-09)
(0.262582 1.94634e-08 -7.42385e-10)
(0.262584 -1.25696e-08 -2.80002e-09)
(0.262583 -6.9067e-09 3.54245e-09)
(0.256714 5.33409e-09 3.72971e-10)
(0.256716 4.34351e-09 -4.34249e-09)
(0.256715 -9.68676e-09 3.96896e-09)
(0.249928 -1.60021e-08 1.44163e-09)
(0.24993 3.25676e-08 -5.81976e-09)
(0.249929 -1.6568e-08 4.37796e-09)
(0.242029 -3.71666e-08 2.04741e-09)
(0.24203 5.87708e-08 -6.22298e-09)
(0.24203 -2.16067e-08 4.17631e-09)
(0.232707 -5.10971e-08 1.45846e-09)
(0.232708 8.28342e-08 -3.76991e-09)
(0.232709 -3.1752e-08 2.31247e-09)
(0.221362 -4.6726e-08 1.95741e-10)
(0.221363 7.10709e-08 1.72811e-10)
(0.221364 -2.43643e-08 -3.67781e-10)
(0.206583 -2.9535e-08 -9.55254e-10)
(0.206583 4.15532e-08 2.51123e-09)
(0.206585 -1.2041e-08 -1.55664e-09)
(0.183771 -1.09831e-08 -9.96196e-10)
(0.183771 1.36712e-08 2.17759e-09)
(0.183773 -2.70049e-09 -1.18437e-09)
(0.117644 -6.45413e-10 2.73748e-10)
(0.117644 1.05359e-09 8.66233e-11)
(0.117644 -4.06962e-10 -3.6144e-10)
(0.283406 3.0572e-08 -1.91714e-09)
(0.283407 -2.60146e-08 -2.18403e-09)
(0.283406 -4.56745e-09 4.10059e-09)
(0.278134 1.97532e-08 -9.65624e-10)
(0.278135 -1.28511e-08 -3.63461e-09)
(0.278134 -6.9155e-09 4.60026e-09)
(0.271986 5.11513e-09 5.94041e-10)
(0.271987 4.55895e-09 -5.77326e-09)
(0.271987 -9.68342e-09 5.17842e-09)
(0.264871 -1.68578e-08 2.06349e-09)
(0.264873 3.32532e-08 -7.8039e-09)
(0.264872 -1.63979e-08 5.74015e-09)
(0.256575 -3.84394e-08 2.8504e-09)
(0.256576 5.96359e-08 -8.41133e-09)
(0.256576 -2.11992e-08 5.56199e-09)
(0.246751 -5.20368e-08 1.99871e-09)
(0.246752 8.34985e-08 -5.0872e-09)
(0.246752 -3.1477e-08 3.08998e-09)
(0.234721 -4.7461e-08 2.33537e-10)
(0.234722 7.15645e-08 3.44099e-10)
(0.234723 -2.41234e-08 -5.76569e-10)
(0.218852 -3.01751e-08 -1.38682e-09)
(0.218852 4.21142e-08 3.5136e-09)
(0.218853 -1.19624e-08 -2.12773e-09)
(0.194126 -1.17572e-08 -1.45551e-09)
(0.194126 1.44836e-08 3.04608e-09)
(0.194128 -2.7395e-09 -1.5947e-09)
(0.129125 -1.16961e-09 2.30011e-10)
(0.129125 1.65454e-09 2.78165e-10)
(0.129126 -4.84265e-10 -5.09815e-10)
(0.297044 3.08889e-08 -2.52483e-09)
(0.297045 -2.65854e-08 -2.57788e-09)
(0.297044 -4.31415e-09 5.10189e-09)
(0.29155 1.97805e-08 -1.23907e-09)
(0.291551 -1.30977e-08 -4.45701e-09)
(0.29155 -6.69659e-09 5.69599e-09)
(0.285143 4.78728e-09 8.44466e-10)
(0.285144 4.7242e-09 -7.29252e-09)
(0.285143 -9.52088e-09 6.44695e-09)
(0.27772 -1.75739e-08 2.7897e-09)
(0.277721 3.36687e-08 -9.9696e-09)
(0.27772 -1.60973e-08 7.17953e-09)
(0.269043 -3.93226e-08 3.76514e-09)
(0.269044 5.99544e-08 -1.08313e-08)
(0.269044 -2.06347e-08 7.0676e-09)
(0.258728 -5.22784e-08 2.6029e-09)
(0.258729 8.30567e-08 -6.55456e-09)
(0.258729 -3.07938e-08 3.95368e-09)
(0.246011 -4.75581e-08 2.74065e-10)
(0.246012 7.11095e-08 5.20234e-10)
(0.246013 -2.35716e-08 -7.92885e-10)
(0.22906 -3.04688e-08 -1.86948e-09)
(0.229061 4.22089e-08 4.60056e-09)
(0.229062 -1.17634e-08 -2.73237e-09)
(0.202837 -1.24695e-08 -1.96654e-09)
(0.202837 1.52096e-08 3.98806e-09)
(0.202838 -2.75356e-09 -2.02698e-09)
(0.140952 -1.83094e-09 1.44469e-10)
(0.140952 2.38554e-09 5.3524e-10)
(0.140953 -5.54625e-10 -6.82087e-10)
(0.309233 3.09049e-08 -3.23912e-09)
(0.309234 -2.71687e-08 -2.84716e-09)
(0.309233 -3.74704e-09 6.08517e-09)
(0.303529 1.95851e-08 -1.56006e-09)
(0.30353 -1.33607e-08 -5.20539e-09)
(0.303529 -6.23815e-09 6.76534e-09)
(0.296874 4.35891e-09 1.10569e-09)
(0.296875 4.85383e-09 -8.84225e-09)
(0.296874 -9.22221e-09 7.73502e-09)
(0.289152 -1.8197e-08 3.6033e-09)
(0.289153 3.393e-08 -1.22592e-08)
(0.289152 -1.57355e-08 8.65539e-09)
(0.2801 -3.99252e-08 4.78155e-09)
(0.280101 5.99158e-08 -1.34348e-08)
(0.2801 -1.99935e-08 8.65521e-09)
(0.269289 -5.19722e-08 3.26028e-09)
(0.26929 8.17403e-08 -8.14966e-09)
(0.26929 -2.97835e-08 4.89201e-09)
(0.255874 -4.71729e-08 3.10369e-10)
(0.255874 6.99282e-08 6.84179e-10)
(0.255875 -2.27756e-08 -9.92732e-10)
(0.237888 -3.05339e-08 -2.39575e-09)
(0.237889 4.19612e-08 5.74033e-09)
(0.23789 -1.14506e-08 -3.34626e-09)
(0.210645 -1.31601e-08 -2.51227e-09)
(0.210646 1.58838e-08 4.97317e-09)
(0.210647 -2.73757e-09 -2.46785e-09)
(0.153006 -2.60336e-09 3.96463e-12)
(0.153006 3.20398e-09 8.68369e-10)
(0.153007 -6.01395e-10 -8.75666e-10)
(0.320392 3.07661e-08 -4.14156e-09)
(0.320393 -2.75654e-08 -2.89168e-09)
(0.320392 -3.21191e-09 7.03193e-09)
(0.314485 1.93897e-08 -1.99298e-09)
(0.314485 -1.35883e-08 -5.79584e-09)
(0.314484 -5.81517e-09 7.78874e-09)
(0.307587 3.82836e-09 1.39353e-09)
(0.307588 4.96244e-09 -1.03617e-08)
(0.307587 -8.79999e-09 8.96619e-09)
(0.299568 -1.87574e-08 4.48557e-09)
(0.299569 3.41278e-08 -1.45949e-08)
(0.299568 -1.53727e-08 1.01086e-08)
(0.290134 -4.02969e-08 5.8683e-09)
(0.290135 5.96452e-08 -1.61464e-08)
(0.290135 -1.93513e-08 1.02805e-08)
(0.278815 -5.12079e-08 3.95218e-09)
(0.278816 7.96661e-08 -9.83787e-09)
(0.278816 -2.84734e-08 5.88902e-09)
(0.264695 -4.64077e-08 3.31169e-10)
(0.264696 6.81522e-08 8.209e-10)
(0.264697 -2.17648e-08 -1.14978e-09)
(0.245782 -3.04467e-08 -2.95525e-09)
(0.245782 4.14321e-08 6.89693e-09)
(0.245784 -1.10084e-08 -3.94379e-09)
(0.218014 -1.38481e-08 -3.07224e-09)
(0.218014 1.65172e-08 5.96476e-09)
(0.218015 -2.68299e-09 -2.90113e-09)
(0.165106 -3.44033e-09 -2.08361e-10)
(0.165106 4.04549e-09 1.28333e-09)
(0.165107 -6.06614e-10 -1.07952e-09)
(0.330789 3.00192e-08 -5.2599e-09)
(0.33079 -2.73702e-08 -2.56397e-09)
(0.330789 -2.66031e-09 7.82231e-09)
(0.324681 1.8862e-08 -2.57596e-09)
(0.324681 -1.34719e-08 -6.07611e-09)
(0.32468 -5.40369e-09 8.65204e-09)
(0.317541 3.35815e-09 1.66502e-09)
(0.317541 5.0665e-09 -1.17769e-08)
(0.31754 -8.43348e-09 1.01096e-08)
(0.309218 -1.92809e-08 5.47089e-09)
(0.309218 3.43537e-08 -1.69206e-08)
(0.309218 -1.50747e-08 1.14489e-08)
(0.29939 -4.04124e-08 6.97832e-09)
(0.299391 5.92417e-08 -1.8848e-08)
(0.299391 -1.88322e-08 1.18726e-08)
(0.287548 -5.00473e-08 4.64391e-09)
(0.287548 7.688e-08 -1.15636e-08)
(0.287549 -2.68475e-08 6.92378e-09)
(0.272739 -4.53406e-08 3.24018e-10)
(0.272739 6.58686e-08 9.22058e-10)
(0.27274 -2.0548e-08 -1.24321e-09)
(0.253069 -3.02595e-08 -3.53082e-09)
(0.253069 4.06462e-08 8.02924e-09)
(0.253071 -1.04095e-08 -4.50104e-09)
(0.225246 -1.45358e-08 -3.62626e-09)
(0.225247 1.71034e-08 6.91927e-09)
(0.225248 -2.58164e-09 -3.30347e-09)
(0.177036 -4.28176e-09 -5.08661e-10)
(0.177036 4.83626e-09 1.77344e-09)
(0.177037 -5.56365e-10 -1.27085e-09)
(0.340602 2.86018e-08 -6.67968e-09)
(0.340602 -2.65531e-08 -1.65957e-09)
(0.340601 -2.06e-09 8.33724e-09)
(0.334291 1.79763e-08 -3.38514e-09)
(0.334291 -1.29955e-08 -5.8614e-09)
(0.33429 -4.994e-09 9.24644e-09)
(0.326902 2.96688e-09 1.84021e-09)
(0.326902 5.16474e-09 -1.28892e-08)
(0.326901 -8.13993e-09 1.10464e-08)
(0.318264 -1.95343e-08 6.51403e-09)
(0.318264 3.43909e-08 -1.91535e-08)
(0.318263 -1.48579e-08 1.26385e-08)
(0.308026 -4.02614e-08 8.05877e-09)
(0.308027 5.88018e-08 -2.13984e-08)
(0.308027 -1.85432e-08 1.33433e-08)
(0.295653 -4.85399e-08 5.27985e-09)
(0.295654 7.33668e-08 -1.32395e-08)
(0.295654 -2.48411e-08 7.96463e-09)
(0.280205 -4.40367e-08 2.73454e-10)
(0.280206 6.31445e-08 9.88501e-10)
(0.280207 -1.91273e-08 -1.2584e-09)
(0.260009 -3.00042e-08 -4.1058e-09)
(0.26001 3.96105e-08 9.08981e-09)
(0.260011 -9.62866e-09 -4.98721e-09)
(0.232547 -1.52114e-08 -4.15936e-09)
(0.232548 1.76248e-08 7.78645e-09)
(0.232549 -2.42724e-09 -3.63958e-09)
(0.188575 -5.06673e-09 -9.07864e-10)
(0.188575 5.51332e-09 2.31092e-09)
(0.188576 -4.48357e-10 -1.41095e-09)
(0.349951 2.64117e-08 -8.49672e-09)
(0.349951 -2.50276e-08 2.29664e-11)
(0.34995 -1.39568e-09 8.47116e-09)
(0.34343 1.66952e-08 -4.57154e-09)
(0.34343 -1.21153e-08 -4.92558e-09)
(0.343429 -4.59293e-09 9.49675e-09)
(0.335781 2.68922e-09 1.76637e-09)
(0.335781 5.25658e-09 -1.34545e-08)
(0.33578 -7.95376e-09 1.16851e-08)
(0.326813 -1.89369e-08 7.52036e-09)
(0.326813 3.37382e-08 -2.10952e-08)
(0.326812 -1.48018e-08 1.35732e-08)
(0.316152 -3.99166e-08 9.27088e-09)
(0.316152 5.84577e-08 -2.38139e-08)
(0.316152 -1.8543e-08 1.45483e-08)
(0.303257 -4.67361e-08 5.78861e-09)
(0.303258 6.90438e-08 -1.47309e-08)
(0.303258 -2.23211e-08 8.94847e-09)
(0.287266 -4.25498e-08 1.5972e-10)
(0.287267 6.00478e-08 1.02766e-09)
(0.287267 -1.75168e-08 -1.18295e-09)
(0.266813 -2.97006e-08 -4.66079e-09)
(0.266814 3.83739e-08 1.00363e-08)
(0.266815 -8.69526e-09 -5.37942e-09)
(0.240045 -1.58558e-08 -4.66639e-09)
(0.240046 1.80582e-08 8.51825e-09)
(0.240047 -2.21569e-09 -3.8666e-09)
(0.199538 -5.74738e-09 -1.40766e-09)
(0.199538 6.04795e-09 2.83817e-09)
(0.19954 -3.01401e-10 -1.44053e-09)
(0.358916 2.44269e-08 -1.09754e-08)
(0.358915 -2.36875e-08 2.82379e-09)
(0.358914 -7.50594e-10 8.14851e-09)
(0.352175 1.55905e-08 -6.2962e-09)
(0.352174 -1.13389e-08 -3.04597e-09)
(0.352173 -4.26379e-09 9.34169e-09)
(0.344252 2.54425e-09 1.3978e-09)
(0.344252 5.37309e-09 -1.34191e-08)
(0.344251 -7.92442e-09 1.20177e-08)
(0.334936 -1.73408e-08 8.24757e-09)
(0.334936 3.23369e-08 -2.24938e-08)
(0.334935 -1.49957e-08 1.4244e-08)
(0.323846 -3.78933e-08 1.02661e-08)
(0.323846 5.63766e-08 -2.56384e-08)
(0.323846 -1.84844e-08 1.53789e-08)
(0.310469 -4.47301e-08 6.13513e-09)
(0.31047 6.37594e-08 -1.57752e-08)
(0.31047 -1.90417e-08 9.64774e-09)
(0.294077 -4.09208e-08 -4.71894e-11)
(0.294077 5.66734e-08 1.05804e-09)
(0.294078 -1.57708e-08 -1.00537e-09)
(0.27365 -2.93596e-08 -5.18336e-09)
(0.27365 3.70254e-08 1.08364e-08)
(0.273651 -7.68735e-09 -5.65768e-09)
(0.247807 -1.64501e-08 -5.1484e-09)
(0.247808 1.8408e-08 9.06456e-09)
(0.247809 -1.97013e-09 -3.93338e-09)
(0.2098 -6.29889e-09 -1.99909e-09)
(0.2098 6.46299e-09 3.26671e-09)
(0.209801 -1.62823e-10 -1.28002e-09)
(0.367546 2.25785e-08 -1.42775e-08)
(0.367545 -2.22958e-08 6.9751e-09)
(0.367544 -2.93384e-10 7.29884e-09)
(0.36057 1.46433e-08 -8.71859e-09)
(0.360569 -1.05573e-08 -1.54095e-11)
(0.360568 -4.0972e-09 8.73336e-09)
(0.352357 2.59247e-09 4.63983e-10)
(0.352357 5.42596e-09 -1.24374e-08)
(0.352355 -8.02443e-09 1.19691e-08)
(0.342682 -1.57218e-08 8.76598e-09)
(0.342682 3.09805e-08 -2.3359e-08)
(0.342681 -1.52568e-08 1.45904e-08)
(0.331175 -3.40518e-08 1.09491e-08)
(0.331175 5.24696e-08 -2.66244e-08)
(0.331174 -1.84179e-08 1.5683e-08)
(0.317391 -4.27624e-08 6.35268e-09)
(0.317391 5.92683e-08 -1.65412e-08)
(0.317391 -1.65174e-08 1.01974e-08)
(0.300779 -3.91822e-08 -3.97356e-10)
(0.30078 5.31681e-08 1.18757e-09)
(0.30078 -1.40034e-08 -7.83716e-10)
(0.280644 -2.89893e-08 -5.67233e-09)
(0.280645 3.57019e-08 1.14829e-08)
(0.280646 -6.73376e-09 -5.81618e-09)
(0.255839 -1.69683e-08 -5.61764e-09)
(0.25584 1.87151e-08 9.38864e-09)
(0.255841 -1.75736e-09 -3.79096e-09)
(0.219309 -6.72253e-09 -2.66015e-09)
(0.219309 6.83292e-09 3.48981e-09)
(0.21931 -1.05388e-10 -8.44599e-10)
(0.375866 2.07978e-08 -1.85019e-08)
(0.375865 -2.06331e-08 1.2646e-08)
(0.375864 -1.74396e-10 5.85172e-09)
(0.368638 1.38495e-08 -1.19179e-08)
(0.368637 -9.67635e-09 4.2885e-09)
(0.368636 -4.18303e-09 7.62841e-09)
(0.360119 2.88599e-09 -1.12917e-09)
(0.360119 5.36835e-09 -1.04045e-08)
(0.360117 -8.25898e-09 1.15283e-08)
(0.350083 -1.39113e-08 8.69422e-09)
(0.350082 2.93048e-08 -2.32913e-08)
(0.350081 -1.53897e-08 1.45939e-08)
(0.338198 -3.05339e-08 1.16451e-08)
(0.338198 4.8896e-08 -2.71607e-08)
(0.338197 -1.83606e-08 1.55247e-08)
(0.324121 -4.04469e-08 6.61901e-09)
(0.324122 5.56132e-08 -1.67719e-08)
(0.324121 -1.51757e-08 1.01642e-08)
(0.307497 -3.7344e-08 -9.30435e-10)
(0.307497 4.96553e-08 1.66033e-09)
(0.307497 -1.23278e-08 -7.22721e-10)
(0.287876 -2.85947e-08 -6.13966e-09)
(0.287876 3.45793e-08 1.20095e-08)
(0.287877 -6.00541e-09 -5.87634e-09)
(0.264092 -1.74018e-08 -6.08231e-09)
(0.264092 1.90783e-08 9.46624e-09)
(0.264093 -1.68465e-09 -3.40693e-09)
(0.228079 -7.04754e-09 -3.35301e-09)
(0.228079 7.27099e-09 3.40599e-09)
(0.22808 -2.12591e-10 -7.05411e-11)
(0.383878 1.90347e-08 -2.35927e-08)
(0.383878 -1.84734e-08 1.98205e-08)
(0.383876 -5.69781e-10 3.76698e-09)
(0.376378 1.32306e-08 -1.58416e-08)
(0.376378 -8.61677e-09 9.82797e-09)
(0.376376 -4.62209e-09 6.01192e-09)
(0.367544 3.51179e-09 -3.40198e-09)
(0.367543 5.13059e-09 -7.31987e-09)
(0.367542 -8.64536e-09 1.07152e-08)
(0.357164 -1.17369e-08 7.96028e-09)
(0.357163 2.7054e-08 -2.22736e-08)
(0.357162 -1.53109e-08 1.43093e-08)
(0.344975 -2.70429e-08 1.1797e-08)
(0.344975 4.49352e-08 -2.66207e-08)
(0.344974 -1.78885e-08 1.48346e-08)
(0.330756 -3.64008e-08 6.30425e-09)
(0.330756 5.06713e-08 -1.56942e-08)
(0.330756 -1.42786e-08 9.40428e-09)
(0.314326 -3.54188e-08 -1.59439e-09)
(0.314327 4.61628e-08 2.64729e-09)
(0.314327 -1.07599e-08 -1.045e-09)
(0.295371 -2.81852e-08 -6.60103e-09)
(0.295371 3.38541e-08 1.24657e-08)
(0.295372 -5.68957e-09 -5.87222e-09)
(0.272463 -1.77631e-08 -6.55312e-09)
(0.272463 1.96603e-08 9.2945e-09)
(0.272465 -1.9018e-09 -2.76776e-09)
(0.236166 -7.32543e-09 -4.03081e-09)
(0.236166 7.90261e-09 2.96263e-09)
(0.236168 -5.57697e-10 1.048e-09)
(0.391562 1.72712e-08 -2.92154e-08)
(0.391561 -1.56076e-08 2.81703e-08)
(0.39156 -1.6704e-09 1.03789e-09)
(0.383773 1.28397e-08 -2.02193e-08)
(0.383772 -7.36255e-09 1.63263e-08)
(0.383771 -5.48357e-09 3.88986e-09)
(0.374624 4.58852e-09 -6.20036e-09)
(0.374624 4.56251e-09 -3.34682e-09)
(0.374623 -9.15203e-09 9.53865e-09)
(0.363946 -9.03514e-09 6.60817e-09)
(0.363946 2.39843e-08 -2.03395e-08)
(0.363945 -1.49396e-08 1.37263e-08)
(0.351564 -2.33567e-08 1.11952e-08)
(0.351564 4.02389e-08 -2.48242e-08)
(0.351563 -1.68753e-08 1.3642e-08)
(0.337377 -3.27812e-08 5.70403e-09)
(0.337377 4.68158e-08 -1.353e-08)
(0.337376 -1.40411e-08 7.8436e-09)
(0.321327 -3.35681e-08 -2.34248e-09)
(0.321327 4.26134e-08 4.18848e-09)
(0.321327 -9.06103e-09 -1.83693e-09)
(0.303096 -2.78295e-08 -7.08323e-09)
(0.303096 3.37747e-08 1.28567e-08)
(0.303097 -5.96613e-09 -5.78231e-09)
(0.28081 -1.81215e-08 -7.0258e-09)
(0.28081 2.0676e-08 8.90786e-09)
(0.280811 -2.55437e-09 -1.9123e-09)
(0.243638 -7.62639e-09 -4.6575e-09)
(0.243638 8.83472e-09 2.2182e-09)
(0.24364 -1.17658e-09 2.41642e-09)
(0.398874 1.5554e-08 -3.47042e-08)
(0.398873 -1.20339e-08 3.68619e-08)
(0.398872 -3.5247e-09 -2.1676e-09)
(0.390785 1.27775e-08 -2.45259e-08)
(0.390784 -6.05995e-09 2.30748e-08)
(0.390783 -6.72172e-09 1.44578e-09)
(0.381345 6.27441e-09 -9.20285e-09)
(0.381345 3.37935e-09 1.08768e-09)
(0.381344 -9.65243e-09 8.1037e-09)
(0.370449 -5.61973e-09 4.76572e-09)
(0.370449 1.97835e-08 -1.75984e-08)
(0.370448 -1.41499e-08 1.28263e-08)
(0.358016 -1.92717e-08 9.83924e-09)
(0.358015 3.46166e-08 -2.1794e-08)
(0.358014 -1.53339e-08 1.19703e-08)
(0.344038 -2.93092e-08 4.48928e-09)
(0.344038 4.30227e-08 -9.85213e-09)
(0.344037 -1.37186e-08 5.3845e-09)
(0.328503 -3.19205e-08 -3.30538e-09)
(0.328503 4.10002e-08 6.5365e-09)
(0.328503 -9.0965e-09 -3.22061e-09)
(0.310955 -2.76166e-08 -7.64026e-09)
(0.310955 3.46426e-08 1.33004e-08)
(0.310956 -7.04826e-09 -5.67071e-09)
(0.288963 -1.85427e-08 -7.5138e-09)
(0.288963 2.23681e-08 8.45401e-09)
(0.288965 -3.81877e-09 -9.74623e-10)
(0.250544 -8.01626e-09 -5.23484e-09)
(0.250545 1.01206e-08 1.42848e-09)
(0.250546 -2.05549e-09 3.78074e-09)
(0.405747 1.40293e-08 -3.90455e-08)
(0.405747 -8.10178e-09 4.44139e-08)
(0.405746 -5.92935e-09 -5.37959e-09)
(0.397361 1.32068e-08 -2.79679e-08)
(0.39736 -5.1428e-09 2.89176e-08)
(0.39736 -8.06598e-09 -9.58147e-10)
(0.387681 8.76897e-09 -1.18929e-08)
(0.387681 1.10189e-09 5.26067e-09)
(0.38768 -9.86683e-09 6.61646e-09)
(0.37668 -1.27905e-09 2.67848e-09)
(0.37668 1.4034e-08 -1.42764e-08)
(0.376679 -1.27354e-08 1.15898e-08)
(0.364357 -1.45374e-08 7.81764e-09)
(0.364356 2.78075e-08 -1.76396e-08)
(0.364355 -1.32536e-08 9.83996e-09)
(0.350747 -2.56846e-08 2.64151e-09)
(0.350747 3.87778e-08 -5.14676e-09)
(0.350746 -1.30974e-08 2.53097e-09)
(0.335792 -3.04479e-08 -4.5532e-09)
(0.335792 4.10773e-08 9.64067e-09)
(0.335792 -1.06493e-08 -5.07564e-09)
(0.318788 -2.75811e-08 -8.33127e-09)
(0.318788 3.63895e-08 1.41015e-08)
(0.318789 -8.83354e-09 -5.78232e-09)
(0.29674 -1.90616e-08 -8.03763e-09)
(0.296741 2.47003e-08 8.25686e-09)
(0.296742 -5.62357e-09 -2.57066e-10)
(0.256902 -8.51306e-09 -5.81509e-09)
(0.256903 1.16469e-08 1.078e-09)
(0.256904 -3.06209e-09 4.70928e-09)
(0.41209 1.29679e-08 -4.10068e-08)
(0.412089 -4.64565e-09 4.74748e-08)
(0.412089 -8.3212e-09 -6.47725e-09)
(0.403429 1.4354e-08 -2.95686e-08)
(0.403429 -5.44405e-09 3.22511e-08)
(0.403429 -8.91031e-09 -2.69274e-09)
(0.39359 1.22939e-08 -1.35977e-08)
(0.39359 -2.95784e-09 8.22924e-09)
(0.39359 -9.32901e-09 5.34795e-09)
(0.382623 4.19713e-09 7.0757e-10)
(0.382623 6.23632e-09 -1.07545e-08)
(0.382622 -1.04062e-08 1.00368e-08)
(0.370569 -8.90884e-09 5.38365e-09)
(0.370568 1.94548e-08 -1.27389e-08)
(0.370567 -1.05224e-08 7.37539e-09)
(0.357441 -2.1661e-08 3.85639e-10)
(0.357441 3.3631e-08 -1.54539e-10)
(0.35744 -1.19746e-08 -2.02334e-10)
(0.343048 -2.89033e-08 -5.98463e-09)
(0.343048 4.05302e-08 1.27304e-08)
(0.343048 -1.16531e-08 -6.73322e-09)
(0.326373 -2.75941e-08 -9.09945e-09)
(0.326373 3.8224e-08 1.51782e-08)
(0.326374 -1.06604e-08 -6.09189e-09)
(0.303956 -1.95868e-08 -8.57778e-09)
(0.303957 2.70499e-08 8.55748e-09)
(0.303958 -7.43787e-09 -1.87064e-11)
(0.262686 -9.02578e-09 -6.46249e-09)
(0.262687 1.30339e-08 1.5923e-09)
(0.262689 -3.90866e-09 4.84074e-09)
(0.417779 1.25035e-08 -3.92461e-08)
(0.417779 -2.70667e-09 4.66699e-08)
(0.41778 -9.79119e-09 -7.43513e-09)
(0.408892 1.64533e-08 -2.83842e-08)
(0.408892 -7.84395e-09 3.10248e-08)
(0.408892 -8.60964e-09 -2.65231e-09)
(0.398998 1.70183e-08 -1.36388e-08)
(0.398998 -9.52773e-09 9.04774e-09)
(0.398998 -7.48067e-09 4.56585e-09)
(0.388208 1.09281e-08 -7.26159e-10)
(0.388207 -4.03555e-09 -7.52308e-09)
(0.388207 -6.85533e-09 8.23809e-09)
(0.376553 -2.23034e-09 2.94695e-09)
(0.376553 9.25278e-09 -7.75137e-09)
(0.376551 -6.99025e-09 4.82688e-09)
(0.363957 -1.70415e-08 -1.83657e-09)
(0.363957 2.72702e-08 4.25774e-09)
(0.363955 -1.02357e-08 -2.39058e-09)
(0.350025 -2.70105e-08 -7.23257e-09)
(0.350024 3.87495e-08 1.49427e-08)
(0.350024 -1.17756e-08 -7.69752e-09)
(0.333424 -2.7387e-08 -9.62671e-09)
(0.333424 3.92115e-08 1.58646e-08)
(0.333425 -1.18634e-08 -6.25158e-09)
(0.310413 -1.98749e-08 -8.94019e-09)
(0.310414 2.85974e-08 9.13462e-09)
(0.310415 -8.68722e-09 -2.32233e-10)
(0.267823 -9.37355e-09 -7.06362e-09)
(0.267823 1.38432e-08 2.85762e-09)
(0.267825 -4.34163e-09 4.17468e-09)
(0.422646 1.31565e-08 -3.30883e-08)
(0.422646 -3.26801e-09 3.95016e-08)
(0.422647 -9.87867e-09 -6.42684e-09)
(0.4136 1.96143e-08 -2.38801e-08)
(0.413601 -1.26683e-08 2.60722e-08)
(0.413601 -6.94629e-09 -2.20407e-09)
(0.40376 2.28799e-08 -1.16352e-08)
(0.40376 -1.88603e-08 7.6867e-09)
(0.403761 -4.00592e-09 3.92236e-09)
(0.393262 1.87421e-08 -1.31632e-09)
(0.393262 -1.67216e-08 -4.91916e-09)
(0.393261 -1.96962e-09 6.22524e-09)
(0.38208 5.37952e-09 9.63839e-10)
(0.382079 -2.66585e-09 -3.47188e-09)
(0.382078 -2.67162e-09 2.53424e-09)
(0.369985 -1.18725e-08 -3.35765e-09)
(0.369984 1.96782e-08 6.99768e-09)
(0.369983 -7.8189e-09 -3.60826e-09)
(0.356347 -2.4718e-08 -7.58881e-09)
(0.356346 3.55923e-08 1.51225e-08)
(0.356346 -1.09274e-08 -7.52195e-09)
(0.339585 -2.67497e-08 -9.28096e-09)
(0.339586 3.88355e-08 1.51103e-08)
(0.339586 -1.21373e-08 -5.84329e-09)
(0.315885 -1.97238e-08 -8.59912e-09)
(0.315886 2.89891e-08 9.18769e-09)
(0.315887 -9.22247e-09 -6.23552e-10)
(0.272178 -9.41936e-09 -7.1195e-09)
(0.272178 1.389e-08 4.06945e-09)
(0.27218 -4.31827e-09 3.01733e-09)
(0.426433 1.49267e-08 -2.22892e-08)
(0.426434 -6.7919e-09 2.6075e-08)
(0.426435 -8.12189e-09 -3.79067e-09)
(0.417304 2.34959e-08 -1.60214e-08)
(0.417304 -1.95617e-08 1.70226e-08)
(0.417305 -3.93573e-09 -1.00762e-09)
(0.407593 2.91796e-08 -7.75777e-09)
(0.407593 -2.94395e-08 4.71525e-09)
(0.407593 2.77095e-10 3.02319e-09)
(0.397433 2.67756e-08 -1.10727e-09)
(0.397433 -3.04884e-08 -2.83377e-09)
(0.397432 3.78082e-09 3.93426e-09)
(0.386705 1.30728e-08 -2.15271e-10)
(0.386704 -1.48184e-08 -6.40475e-10)
(0.386703 1.79838e-09 8.83359e-10)
(0.375001 -6.77681e-09 -3.45834e-09)
(0.375 1.16896e-08 6.94788e-09)
(0.374998 -4.93887e-09 -3.46061e-09)
(0.361473 -2.23156e-08 -6.21807e-09)
(0.361473 3.16376e-08 1.20164e-08)
(0.361472 -9.39974e-09 -5.78941e-09)
(0.344409 -2.57643e-08 -7.21597e-09)
(0.344409 3.73789e-08 1.16082e-08)
(0.34441 -1.16829e-08 -4.40559e-09)
(0.320077 -1.91857e-08 -6.71913e-09)
(0.320078 2.84688e-08 7.46549e-09)
(0.320079 -9.23589e-09 -7.75785e-10)
(0.275531 -9.20376e-09 -5.80631e-09)
(0.275531 1.3396e-08 4.05502e-09)
(0.275533 -4.02173e-09 1.7204e-09)
(0.428709 1.70641e-08 -7.89876e-09)
(0.428709 -1.14076e-08 9.11652e-09)
(0.42871 -5.6435e-09 -1.21672e-09)
(0.419552 2.70436e-08 -5.65776e-09)
(0.419552 -2.61523e-08 5.90237e-09)
(0.419554 -8.96678e-10 -2.45614e-10)
(0.409965 3.43259e-08 -2.70839e-09)
(0.409965 -3.80331e-08 1.54713e-09)
(0.409965 3.72609e-09 1.15422e-09)
(0.400063 3.29127e-08 -4.23699e-10)
(0.400063 -4.14363e-08 -8.96622e-10)
(0.400063 8.60918e-09 1.31823e-09)
(0.389643 1.86475e-08 -3.05877e-10)
(0.389643 -2.36106e-08 2.25057e-10)
(0.389642 5.0255e-09 9.42514e-11)
(0.378157 -3.36717e-09 -1.53556e-09)
(0.378156 5.89065e-09 3.0777e-09)
(0.378155 -2.56711e-09 -1.52937e-09)
(0.364619 -2.06803e-08 -2.48858e-09)
(0.364619 2.84199e-08 4.73395e-09)
(0.364618 -7.84521e-09 -2.24205e-09)
(0.347288 -2.49347e-08 -2.8103e-09)
(0.347289 3.57483e-08 4.48687e-09)
(0.34729 -1.08996e-08 -1.68303e-09)
(0.32255 -1.86236e-08 -2.63112e-09)
(0.32255 2.76206e-08 2.98508e-09)
(0.322552 -8.94872e-09 -3.66984e-10)
(0.277521 -8.74846e-09 -2.342e-09)
(0.277521 1.27159e-08 1.78833e-09)
(0.277523 -3.78439e-09 5.39019e-10)
)
;

boundaryField
{
    freeSurface
    {
        type            slip;
    }
    inlet
    {
        type            cyclic;
    }
    outlet
    {
        type            cyclic;
    }
    sidewalls
    {
        type            fixedValue;
        value           uniform (0 0 0);
    }
    noSlipWalls
    {
        type            fixedValue;
        value           uniform (0 0 0);
    }
    procBoundary2to1
    {
        type            processor;
        value           nonuniform List<vector> 
72
(
(0.110157 1.51605e-08 -4.02027e-11)
(0.110158 -1.38751e-08 -2.13061e-11)
(0.110157 -1.29758e-09 6.14278e-11)
(0.188019 2.44896e-08 -4.59191e-10)
(0.18802 -2.15646e-08 -2.06629e-10)
(0.188019 -2.9445e-09 6.65733e-10)
(0.226676 2.84639e-08 -7.48904e-10)
(0.226677 -2.45993e-08 -3.16072e-10)
(0.226677 -3.88728e-09 1.06484e-09)
(0.252334 3.0667e-08 -1.15017e-09)
(0.252335 -2.62487e-08 -4.44917e-10)
(0.252334 -4.44301e-09 1.5948e-09)
(0.271806 3.20008e-08 -1.66282e-09)
(0.271807 -2.7333e-08 -5.66065e-10)
(0.271806 -4.69381e-09 2.22844e-09)
(0.287807 3.28049e-08 -2.3001e-09)
(0.287808 -2.81754e-08 -6.49725e-10)
(0.287808 -4.65663e-09 2.9492e-09)
(0.301637 3.32294e-08 -3.06495e-09)
(0.301638 -2.89464e-08 -6.52715e-10)
(0.301637 -4.3107e-09 3.71683e-09)
(0.314005 3.36919e-08 -4.01882e-09)
(0.314006 -2.97239e-08 -5.13797e-10)
(0.314005 -3.99622e-09 4.53158e-09)
(0.325335 3.3937e-08 -5.18616e-09)
(0.325336 -3.03025e-08 -1.44487e-10)
(0.325335 -3.66283e-09 5.32943e-09)
(0.3359 3.35417e-08 -6.60959e-09)
(0.335901 -3.03041e-08 5.75414e-10)
(0.3359 -3.26603e-09 6.03284e-09)
(0.345881 3.24556e-08 -8.37142e-09)
(0.345881 -2.97117e-08 1.8366e-09)
(0.34588 -2.77202e-09 6.53336e-09)
(0.355401 3.05864e-08 -1.05825e-08)
(0.355401 -2.84559e-08 3.87257e-09)
(0.355399 -2.15791e-09 6.70821e-09)
(0.364544 2.77955e-08 -1.33082e-08)
(0.364543 -2.64082e-08 6.85016e-09)
(0.364542 -1.41462e-09 6.45589e-09)
(0.373364 2.529e-08 -1.69475e-08)
(0.373364 -2.45837e-08 1.12582e-08)
(0.373362 -7.32388e-10 5.68688e-09)
(0.381891 2.29581e-08 -2.15294e-08)
(0.38189 -2.27017e-08 1.72387e-08)
(0.381889 -2.80992e-10 4.28815e-09)
(0.39013 2.06955e-08 -2.70836e-08)
(0.390129 -2.04729e-08 2.4903e-08)
(0.390127 -2.45345e-10 2.17768e-09)
(0.398064 1.84135e-08 -3.33582e-08)
(0.398063 -1.75889e-08 3.40871e-08)
(0.398062 -8.45084e-10 -7.33253e-10)
(0.405652 1.60648e-08 -3.97086e-08)
(0.405651 -1.37826e-08 4.3943e-08)
(0.40565 -2.3002e-09 -4.2426e-09)
(0.412823 1.36766e-08 -4.50104e-08)
(0.412823 -9.15355e-09 5.30151e-08)
(0.412822 -4.5377e-09 -8.01893e-09)
(0.419477 1.13403e-08 -4.77523e-08)
(0.419477 -4.15306e-09 5.88361e-08)
(0.419477 -7.19706e-09 -1.11027e-08)
(0.425475 9.15515e-09 -4.63329e-08)
(0.425475 -2.9799e-11 5.65839e-08)
(0.425476 -9.1321e-09 -1.02717e-08)
(0.430624 7.83161e-09 -3.96347e-08)
(0.430624 2.22799e-09 4.94528e-08)
(0.430625 -1.00616e-08 -9.83828e-09)
(0.434638 8.2128e-09 -2.71256e-08)
(0.434638 9.68876e-10 3.34105e-08)
(0.43464 -9.17814e-09 -6.29391e-09)
(0.437051 9.551e-09 -9.7101e-09)
(0.437051 -2.26101e-09 1.18243e-08)
(0.437052 -7.28427e-09 -2.11356e-09)
)
;
    }
}


// ************************************************************************* //
