/*--------------------------------*- C++ -*----------------------------------*\
  =========                 |
  \\      /  F ield         | OpenFOAM: The Open Source CFD Toolbox
   \\    /   O peration     | Website:  https://openfoam.org
    \\  /    A nd           | Version:  6
     \\/     M anipulation  |
\*---------------------------------------------------------------------------*/
FoamFile
{
    version     2.0;
    format      ascii;
    class       volScalarField;
    location    "20";
    object      nut;
}
// * * * * * * * * * * * * * * * * * * * * * * * * * * * * * * * * * * * * * //

dimensions      [0 2 -1 0 0 0 0];

internalField   nonuniform List<scalar> 
2880
(
6.16671e-09
6.16667e-09
6.16676e-09
6.10806e-09
6.10804e-09
6.10831e-09
9.07621e-09
9.07657e-09
9.07713e-09
1.23782e-08
1.23788e-08
1.23795e-08
1.57561e-08
1.5757e-08
1.57577e-08
1.91555e-08
1.91565e-08
1.91572e-08
2.2543e-08
2.25443e-08
2.25449e-08
2.58897e-08
2.58912e-08
2.58918e-08
2.91645e-08
2.91662e-08
2.91669e-08
3.2311e-08
3.23129e-08
3.23137e-08
3.52374e-08
3.52396e-08
3.52406e-08
3.78268e-08
3.7829e-08
3.78304e-08
3.99343e-08
3.99365e-08
3.99383e-08
4.13297e-08
4.13317e-08
4.13336e-08
4.20917e-08
4.20935e-08
4.20956e-08
4.20911e-08
4.20929e-08
4.2095e-08
4.13279e-08
4.13298e-08
4.13317e-08
3.99312e-08
3.99334e-08
3.99352e-08
3.7823e-08
3.78252e-08
3.78266e-08
3.52335e-08
3.52357e-08
3.52367e-08
3.23069e-08
3.23088e-08
3.23096e-08
2.91604e-08
2.91621e-08
2.91628e-08
2.58848e-08
2.58863e-08
2.58869e-08
2.25369e-08
2.25382e-08
2.25388e-08
1.91483e-08
1.91494e-08
1.915e-08
1.57489e-08
1.57497e-08
1.57504e-08
1.23723e-08
1.23729e-08
1.23736e-08
9.07262e-09
9.07298e-09
9.07354e-09
6.10595e-09
6.10593e-09
6.1062e-09
6.1656e-09
6.16555e-09
6.16565e-09
3.71866e-07
3.71866e-07
3.71868e-07
5.82862e-07
5.82862e-07
5.8288e-07
7.55293e-07
7.55315e-07
7.55345e-07
9.2182e-07
9.21854e-07
9.21887e-07
1.06904e-06
1.06908e-06
1.0691e-06
1.19932e-06
1.19937e-06
1.19939e-06
1.31523e-06
1.31528e-06
1.3153e-06
1.41873e-06
1.41878e-06
1.41879e-06
1.51121e-06
1.51126e-06
1.51128e-06
1.59312e-06
1.59318e-06
1.59319e-06
1.66401e-06
1.66406e-06
1.66409e-06
1.72297e-06
1.72302e-06
1.72305e-06
1.76863e-06
1.76868e-06
1.76872e-06
1.79471e-06
1.79475e-06
1.79479e-06
1.80836e-06
1.8084e-06
1.80844e-06
1.80835e-06
1.80839e-06
1.80843e-06
1.79468e-06
1.79472e-06
1.79475e-06
1.76856e-06
1.76862e-06
1.76865e-06
1.72289e-06
1.72294e-06
1.72297e-06
1.66392e-06
1.66398e-06
1.664e-06
1.59302e-06
1.59308e-06
1.5931e-06
1.5111e-06
1.51116e-06
1.51117e-06
1.41859e-06
1.41864e-06
1.41865e-06
1.31504e-06
1.31509e-06
1.3151e-06
1.19907e-06
1.19911e-06
1.19914e-06
1.06874e-06
1.06878e-06
1.06881e-06
9.21547e-07
9.21581e-07
9.21613e-07
7.55099e-07
7.55121e-07
7.55152e-07
5.82725e-07
5.82725e-07
5.82743e-07
3.7184e-07
3.71839e-07
3.71841e-07
9.09434e-07
9.09432e-07
9.09438e-07
2.53548e-06
2.53547e-06
2.53552e-06
2.80144e-06
2.8015e-06
2.80157e-06
3.12729e-06
3.12737e-06
3.12744e-06
3.41722e-06
3.41732e-06
3.41737e-06
3.67244e-06
3.67255e-06
3.67259e-06
3.89839e-06
3.89851e-06
3.89854e-06
4.09945e-06
4.09957e-06
4.0996e-06
4.27869e-06
4.27882e-06
4.27885e-06
4.43718e-06
4.4373e-06
4.43734e-06
4.57415e-06
4.57429e-06
4.57433e-06
4.68802e-06
4.68815e-06
4.6882e-06
4.77625e-06
4.77638e-06
4.77644e-06
4.83223e-06
4.83234e-06
4.83241e-06
4.86215e-06
4.86225e-06
4.86233e-06
4.86213e-06
4.86223e-06
4.86231e-06
4.83217e-06
4.83228e-06
4.83235e-06
4.77613e-06
4.77626e-06
4.77633e-06
4.68787e-06
4.688e-06
4.68805e-06
4.574e-06
4.57413e-06
4.57417e-06
4.437e-06
4.43713e-06
4.43716e-06
4.2785e-06
4.27862e-06
4.27866e-06
4.09919e-06
4.09931e-06
4.09934e-06
3.89802e-06
3.89814e-06
3.89818e-06
3.67195e-06
3.67206e-06
3.6721e-06
3.41665e-06
3.41675e-06
3.4168e-06
3.12674e-06
3.12683e-06
3.1269e-06
2.80105e-06
2.80111e-06
2.80118e-06
2.53518e-06
2.53517e-06
2.53522e-06
9.09364e-07
9.09362e-07
9.09368e-07
1.66456e-06
1.66456e-06
1.66457e-06
5.46046e-06
5.46043e-06
5.46053e-06
5.74697e-06
5.74707e-06
5.74719e-06
6.22198e-06
6.22213e-06
6.22224e-06
6.6519e-06
6.65208e-06
6.65217e-06
7.02906e-06
7.02926e-06
7.02932e-06
7.36113e-06
7.36134e-06
7.36139e-06
7.65523e-06
7.65545e-06
7.65549e-06
7.91643e-06
7.91666e-06
7.9167e-06
8.14669e-06
8.14692e-06
8.14697e-06
8.34525e-06
8.3455e-06
8.34555e-06
8.51007e-06
8.51031e-06
8.51038e-06
8.63792e-06
8.63814e-06
8.63824e-06
8.72126e-06
8.72145e-06
8.72155e-06
8.76608e-06
8.76625e-06
8.76636e-06
8.76605e-06
8.76622e-06
8.76633e-06
8.72117e-06
8.72136e-06
8.72146e-06
8.63777e-06
8.63799e-06
8.63808e-06
8.50988e-06
8.51011e-06
8.51018e-06
8.34506e-06
8.34531e-06
8.34536e-06
8.14646e-06
8.1467e-06
8.14674e-06
7.91619e-06
7.91642e-06
7.91646e-06
7.65489e-06
7.65511e-06
7.65515e-06
7.36062e-06
7.36084e-06
7.36088e-06
7.02836e-06
7.02856e-06
7.02862e-06
6.65107e-06
6.65125e-06
6.65134e-06
6.22117e-06
6.22133e-06
6.22144e-06
5.74639e-06
5.74649e-06
5.74661e-06
5.45999e-06
5.45997e-06
5.46007e-06
1.66443e-06
1.66443e-06
1.66444e-06
2.5936e-06
2.59359e-06
2.5936e-06
9.1294e-06
9.12936e-06
9.12954e-06
9.21457e-06
9.21474e-06
9.21494e-06
9.79724e-06
9.7975e-06
9.79767e-06
1.03702e-05
1.03705e-05
1.03707e-05
1.08856e-05
1.08859e-05
1.0886e-05
1.13448e-05
1.13452e-05
1.13452e-05
1.17545e-05
1.17549e-05
1.17549e-05
1.21203e-05
1.21206e-05
1.21207e-05
1.24439e-05
1.24443e-05
1.24444e-05
1.27238e-05
1.27243e-05
1.27243e-05
1.29568e-05
1.29572e-05
1.29573e-05
1.31383e-05
1.31387e-05
1.31388e-05
1.32578e-05
1.32581e-05
1.32582e-05
1.33222e-05
1.33225e-05
1.33227e-05
1.33222e-05
1.33225e-05
1.33226e-05
1.32577e-05
1.3258e-05
1.32581e-05
1.31381e-05
1.31384e-05
1.31386e-05
1.29566e-05
1.2957e-05
1.29571e-05
1.27236e-05
1.2724e-05
1.27241e-05
1.24436e-05
1.2444e-05
1.24441e-05
1.212e-05
1.21203e-05
1.21204e-05
1.17541e-05
1.17544e-05
1.17545e-05
1.13441e-05
1.13445e-05
1.13446e-05
1.08847e-05
1.0885e-05
1.08851e-05
1.03691e-05
1.03694e-05
1.03695e-05
9.79614e-06
9.79639e-06
9.79657e-06
9.21382e-06
9.21398e-06
9.21419e-06
9.1288e-06
9.12876e-06
9.12894e-06
2.5934e-06
2.59339e-06
2.59341e-06
3.54061e-06
3.5406e-06
3.54062e-06
1.3642e-05
1.3642e-05
1.36422e-05
1.33572e-05
1.33575e-05
1.33578e-05
1.39741e-05
1.39746e-05
1.39748e-05
1.46695e-05
1.467e-05
1.46702e-05
1.53209e-05
1.53214e-05
1.53216e-05
1.59128e-05
1.59134e-05
1.59135e-05
1.64474e-05
1.6448e-05
1.6448e-05
1.69285e-05
1.69291e-05
1.69292e-05
1.73568e-05
1.73574e-05
1.73575e-05
1.77289e-05
1.77296e-05
1.77297e-05
1.80398e-05
1.80404e-05
1.80405e-05
1.82831e-05
1.82836e-05
1.82838e-05
1.84451e-05
1.84456e-05
1.84458e-05
1.85329e-05
1.85333e-05
1.85335e-05
1.85328e-05
1.85332e-05
1.85335e-05
1.84449e-05
1.84454e-05
1.84456e-05
1.82828e-05
1.82834e-05
1.82836e-05
1.80395e-05
1.80401e-05
1.80402e-05
1.77287e-05
1.77293e-05
1.77294e-05
1.73565e-05
1.73571e-05
1.73572e-05
1.69282e-05
1.69288e-05
1.69289e-05
1.64469e-05
1.64475e-05
1.64475e-05
1.5912e-05
1.59126e-05
1.59127e-05
1.53197e-05
1.53202e-05
1.53204e-05
1.4668e-05
1.46685e-05
1.46687e-05
1.39727e-05
1.39731e-05
1.39734e-05
1.33563e-05
1.33566e-05
1.33569e-05
1.36413e-05
1.36413e-05
1.36416e-05
3.54038e-06
3.54036e-06
3.54039e-06
4.38729e-06
4.38728e-06
4.3873e-06
1.89594e-05
1.89594e-05
1.89598e-05
1.82263e-05
1.82269e-05
1.82273e-05
1.8783e-05
1.87837e-05
1.87841e-05
1.95639e-05
1.95647e-05
1.9565e-05
2.03404e-05
2.03412e-05
2.03414e-05
2.10663e-05
2.10671e-05
2.10673e-05
2.17329e-05
2.17338e-05
2.17339e-05
2.23399e-05
2.23408e-05
2.23409e-05
2.28844e-05
2.28853e-05
2.28854e-05
2.33602e-05
2.33611e-05
2.33613e-05
2.37594e-05
2.37603e-05
2.37605e-05
2.40737e-05
2.40745e-05
2.40748e-05
2.42853e-05
2.42859e-05
2.42863e-05
2.44006e-05
2.44011e-05
2.44015e-05
2.44005e-05
2.44011e-05
2.44014e-05
2.42851e-05
2.42858e-05
2.42861e-05
2.40734e-05
2.40742e-05
2.40745e-05
2.37591e-05
2.376e-05
2.37602e-05
2.33599e-05
2.33609e-05
2.3361e-05
2.28841e-05
2.2885e-05
2.28851e-05
2.23396e-05
2.23405e-05
2.23406e-05
2.17324e-05
2.17333e-05
2.17334e-05
2.10653e-05
2.10662e-05
2.10663e-05
2.0339e-05
2.03398e-05
2.034e-05
1.95621e-05
1.95629e-05
1.95632e-05
1.87812e-05
1.87819e-05
1.87823e-05
1.82253e-05
1.82259e-05
1.82263e-05
1.89587e-05
1.89587e-05
1.89592e-05
4.38703e-06
4.38701e-06
4.38704e-06
5.13464e-06
5.13462e-06
5.13466e-06
2.49956e-05
2.49957e-05
2.49963e-05
2.38828e-05
2.3884e-05
2.38846e-05
2.42798e-05
2.4281e-05
2.42816e-05
2.50933e-05
2.50946e-05
2.5095e-05
2.59731e-05
2.59744e-05
2.59747e-05
2.6828e-05
2.68293e-05
2.68295e-05
2.76309e-05
2.76323e-05
2.76324e-05
2.8373e-05
2.83743e-05
2.83745e-05
2.90451e-05
2.90465e-05
2.90467e-05
2.96366e-05
2.9638e-05
2.96382e-05
3.01354e-05
3.01368e-05
3.0137e-05
3.05303e-05
3.05315e-05
3.05319e-05
3.0799e-05
3.08001e-05
3.08005e-05
3.09466e-05
3.09475e-05
3.0948e-05
3.09465e-05
3.09474e-05
3.09479e-05
3.07988e-05
3.07999e-05
3.08003e-05
3.05299e-05
3.05312e-05
3.05316e-05
3.01351e-05
3.01364e-05
3.01367e-05
2.96364e-05
2.96378e-05
2.9638e-05
2.90448e-05
2.90462e-05
2.90464e-05
2.83727e-05
2.83741e-05
2.83742e-05
2.76304e-05
2.76317e-05
2.76319e-05
2.68269e-05
2.68283e-05
2.68284e-05
2.59715e-05
2.59727e-05
2.5973e-05
2.50911e-05
2.50923e-05
2.50928e-05
2.42776e-05
2.42789e-05
2.42794e-05
2.38818e-05
2.38829e-05
2.38836e-05
2.49951e-05
2.49952e-05
2.49958e-05
5.13435e-06
5.13434e-06
5.13437e-06
5.80945e-06
5.80944e-06
5.80948e-06
3.16201e-05
3.16204e-05
3.16211e-05
3.03776e-05
3.03796e-05
3.03804e-05
3.05338e-05
3.0536e-05
3.05367e-05
3.13135e-05
3.13155e-05
3.13161e-05
3.22627e-05
3.22647e-05
3.22651e-05
3.32336e-05
3.32356e-05
3.32359e-05
3.41725e-05
3.41746e-05
3.41748e-05
3.50568e-05
3.50588e-05
3.5059e-05
3.58674e-05
3.58695e-05
3.58697e-05
3.65864e-05
3.65885e-05
3.65887e-05
3.71963e-05
3.71984e-05
3.71987e-05
3.76818e-05
3.76837e-05
3.76842e-05
3.80156e-05
3.80174e-05
3.8018e-05
3.82007e-05
3.82023e-05
3.82029e-05
3.82006e-05
3.82023e-05
3.82029e-05
3.80154e-05
3.80172e-05
3.80177e-05
3.76814e-05
3.76834e-05
3.76839e-05
3.7196e-05
3.7198e-05
3.71984e-05
3.65863e-05
3.65884e-05
3.65886e-05
3.58672e-05
3.58693e-05
3.58695e-05
3.50566e-05
3.50587e-05
3.50589e-05
3.4172e-05
3.41741e-05
3.41743e-05
3.32325e-05
3.32345e-05
3.32348e-05
3.22608e-05
3.22627e-05
3.22631e-05
3.13109e-05
3.13129e-05
3.13134e-05
3.05312e-05
3.05333e-05
3.05341e-05
3.03767e-05
3.03787e-05
3.03796e-05
3.16199e-05
3.16202e-05
3.1621e-05
5.80916e-06
5.80914e-06
5.80918e-06
6.42605e-06
6.42604e-06
6.42608e-06
3.86628e-05
3.86632e-05
3.86642e-05
3.77364e-05
3.77396e-05
3.77407e-05
3.76192e-05
3.76226e-05
3.76236e-05
3.82915e-05
3.82947e-05
3.82954e-05
3.92632e-05
3.92662e-05
3.92667e-05
4.03276e-05
4.03306e-05
4.03309e-05
4.1396e-05
4.1399e-05
4.13992e-05
4.24262e-05
4.24293e-05
4.24295e-05
4.33846e-05
4.33877e-05
4.33879e-05
4.42423e-05
4.42455e-05
4.42458e-05
4.49747e-05
4.49778e-05
4.49783e-05
4.55608e-05
4.55638e-05
4.55645e-05
4.5968e-05
4.59708e-05
4.59716e-05
4.61962e-05
4.61988e-05
4.61996e-05
4.61961e-05
4.61988e-05
4.61996e-05
4.59677e-05
4.59706e-05
4.59713e-05
4.55605e-05
4.55635e-05
4.55641e-05
4.49744e-05
4.49775e-05
4.4978e-05
4.42424e-05
4.42456e-05
4.42459e-05
4.33845e-05
4.33876e-05
4.33878e-05
4.24263e-05
4.24294e-05
4.24296e-05
4.13956e-05
4.13987e-05
4.13989e-05
4.03265e-05
4.03295e-05
4.03298e-05
3.9261e-05
3.9264e-05
3.92645e-05
3.82884e-05
3.82915e-05
3.82922e-05
3.76161e-05
3.76195e-05
3.76205e-05
3.77358e-05
3.7739e-05
3.77401e-05
3.86631e-05
3.86635e-05
3.86645e-05
6.42574e-06
6.42573e-06
6.42577e-06
6.98699e-06
6.98699e-06
6.98703e-06
4.56876e-05
4.56877e-05
4.56889e-05
4.59496e-05
4.59544e-05
4.59558e-05
4.56061e-05
4.56114e-05
4.56127e-05
4.61019e-05
4.61067e-05
4.61077e-05
4.70375e-05
4.7042e-05
4.70426e-05
4.81613e-05
4.81657e-05
4.81661e-05
4.93447e-05
4.93491e-05
4.93494e-05
5.052e-05
5.05245e-05
5.05247e-05
5.16326e-05
5.16371e-05
5.16375e-05
5.2639e-05
5.26437e-05
5.26441e-05
5.35044e-05
5.35091e-05
5.35097e-05
5.42007e-05
5.42053e-05
5.42061e-05
5.4689e-05
5.46935e-05
5.46945e-05
5.49663e-05
5.49705e-05
5.49716e-05
5.49662e-05
5.49705e-05
5.49715e-05
5.46888e-05
5.46933e-05
5.46943e-05
5.42004e-05
5.4205e-05
5.42058e-05
5.35042e-05
5.35089e-05
5.35095e-05
5.26394e-05
5.2644e-05
5.26444e-05
5.16327e-05
5.16373e-05
5.16376e-05
5.05204e-05
5.05249e-05
5.05251e-05
4.93446e-05
4.9349e-05
4.93493e-05
4.81603e-05
4.81646e-05
4.81651e-05
4.7035e-05
4.70395e-05
4.70401e-05
4.60981e-05
4.61029e-05
4.61038e-05
4.56025e-05
4.56078e-05
4.5609e-05
4.59496e-05
4.59544e-05
4.59558e-05
4.56878e-05
4.56879e-05
4.56891e-05
6.98667e-06
6.98666e-06
6.98671e-06
7.48853e-06
7.48852e-06
7.48857e-06
5.17379e-05
5.1738e-05
5.17393e-05
5.49668e-05
5.49734e-05
5.49752e-05
5.45515e-05
5.45593e-05
5.45609e-05
5.48229e-05
5.483e-05
5.48312e-05
5.56558e-05
5.56622e-05
5.5663e-05
5.67927e-05
5.67989e-05
5.67995e-05
5.80666e-05
5.80728e-05
5.80732e-05
5.93794e-05
5.93857e-05
5.9386e-05
6.06489e-05
6.06553e-05
6.06557e-05
6.18112e-05
6.18178e-05
6.18183e-05
6.28187e-05
6.28255e-05
6.28262e-05
6.36335e-05
6.36404e-05
6.36414e-05
6.42104e-05
6.42172e-05
6.42184e-05
6.45426e-05
6.45491e-05
6.45504e-05
6.45425e-05
6.45491e-05
6.45504e-05
6.42102e-05
6.4217e-05
6.42182e-05
6.36333e-05
6.36402e-05
6.36412e-05
6.28187e-05
6.28255e-05
6.28262e-05
6.18119e-05
6.18186e-05
6.18191e-05
6.06494e-05
6.06558e-05
6.06562e-05
5.93803e-05
5.93865e-05
5.93869e-05
5.80669e-05
5.80731e-05
5.80735e-05
5.67918e-05
5.6798e-05
5.67985e-05
5.56529e-05
5.56593e-05
5.56602e-05
5.48183e-05
5.48253e-05
5.48265e-05
5.45472e-05
5.4555e-05
5.45566e-05
5.49677e-05
5.49743e-05
5.49761e-05
5.17383e-05
5.17383e-05
5.17397e-05
7.48819e-06
7.48818e-06
7.48823e-06
7.93214e-06
7.93214e-06
7.93219e-06
5.76898e-05
5.769e-05
5.76915e-05
6.4695e-05
6.47039e-05
6.47061e-05
6.44886e-05
6.44995e-05
6.45015e-05
6.4531e-05
6.4541e-05
6.45425e-05
6.51941e-05
6.5203e-05
6.52041e-05
6.6286e-05
6.62945e-05
6.62952e-05
6.76142e-05
6.76227e-05
6.76232e-05
6.90482e-05
6.90568e-05
6.90572e-05
7.04714e-05
7.04802e-05
7.04807e-05
7.17928e-05
7.1802e-05
7.18026e-05
7.2949e-05
7.29586e-05
7.29595e-05
7.38888e-05
7.38988e-05
7.39e-05
7.45604e-05
7.45704e-05
7.45718e-05
7.49532e-05
7.4963e-05
7.49645e-05
7.49533e-05
7.4963e-05
7.49646e-05
7.45604e-05
7.45704e-05
7.45718e-05
7.38888e-05
7.38988e-05
7.39e-05
7.29493e-05
7.29589e-05
7.29598e-05
7.17941e-05
7.18034e-05
7.1804e-05
7.04723e-05
7.04812e-05
7.04817e-05
6.90497e-05
6.90583e-05
6.90587e-05
6.7615e-05
6.76235e-05
6.7624e-05
6.62852e-05
6.62937e-05
6.62944e-05
6.51907e-05
6.51996e-05
6.52007e-05
6.45253e-05
6.45352e-05
6.45368e-05
6.44835e-05
6.44944e-05
6.44964e-05
6.46971e-05
6.47059e-05
6.47082e-05
5.76906e-05
5.76907e-05
5.76923e-05
7.93178e-06
7.93178e-06
7.93183e-06
8.32333e-06
8.32333e-06
8.32338e-06
6.37063e-05
6.37066e-05
6.37083e-05
7.49998e-05
7.50111e-05
7.50138e-05
7.54161e-05
7.54307e-05
7.54332e-05
7.52939e-05
7.53074e-05
7.53094e-05
7.57318e-05
7.57438e-05
7.57453e-05
7.67113e-05
7.67227e-05
7.67236e-05
7.80446e-05
7.80559e-05
7.80566e-05
7.95726e-05
7.9584e-05
7.95846e-05
8.11386e-05
8.11503e-05
8.1151e-05
8.26166e-05
8.26291e-05
8.26299e-05
8.39243e-05
8.39374e-05
8.39385e-05
8.4993e-05
8.50069e-05
8.50083e-05
8.57636e-05
8.57778e-05
8.57795e-05
8.62224e-05
8.62363e-05
8.62382e-05
8.62225e-05
8.62364e-05
8.62383e-05
8.57637e-05
8.57779e-05
8.57796e-05
8.49933e-05
8.50072e-05
8.50086e-05
8.39251e-05
8.39383e-05
8.39393e-05
8.26188e-05
8.26313e-05
8.2632e-05
8.11401e-05
8.11519e-05
8.11526e-05
7.9575e-05
7.95864e-05
7.9587e-05
7.80462e-05
7.80574e-05
7.80581e-05
7.67106e-05
7.6722e-05
7.67229e-05
7.57277e-05
7.57397e-05
7.57412e-05
7.52866e-05
7.53002e-05
7.53021e-05
7.54101e-05
7.54247e-05
7.54272e-05
7.50035e-05
7.50147e-05
7.50175e-05
6.37075e-05
6.37078e-05
6.37095e-05
8.32296e-06
8.32295e-06
8.32301e-06
8.66714e-06
8.66714e-06
8.6672e-06
6.97273e-05
6.97277e-05
6.97297e-05
8.57092e-05
8.57228e-05
8.57261e-05
8.72886e-05
8.73071e-05
8.73105e-05
8.71608e-05
8.71784e-05
8.7181e-05
8.73477e-05
8.73634e-05
8.73653e-05
8.81441e-05
8.81588e-05
8.816e-05
8.94204e-05
8.94349e-05
8.94358e-05
9.10022e-05
9.10168e-05
9.10177e-05
9.26895e-05
9.27047e-05
9.27056e-05
9.43142e-05
9.43305e-05
9.43315e-05
9.57708e-05
9.57882e-05
9.57895e-05
9.69684e-05
9.6987e-05
9.69887e-05
9.78399e-05
9.78592e-05
9.78612e-05
9.83691e-05
9.83883e-05
9.83904e-05
9.83693e-05
9.83885e-05
9.83907e-05
9.78403e-05
9.78596e-05
9.78616e-05
9.69691e-05
9.69877e-05
9.69894e-05
9.57722e-05
9.57896e-05
9.5791e-05
9.43174e-05
9.43337e-05
9.43347e-05
9.26918e-05
9.27071e-05
9.27079e-05
9.10057e-05
9.10202e-05
9.10211e-05
8.94228e-05
8.94372e-05
8.94381e-05
8.81435e-05
8.81582e-05
8.81594e-05
8.73425e-05
8.73582e-05
8.736e-05
8.71515e-05
8.71693e-05
8.71718e-05
8.72815e-05
8.73002e-05
8.73034e-05
8.57146e-05
8.57282e-05
8.57317e-05
6.9729e-05
6.97293e-05
6.97313e-05
8.66676e-06
8.66675e-06
8.66681e-06
8.96799e-06
8.96799e-06
8.96805e-06
7.56313e-05
7.56318e-05
7.5634e-05
9.66193e-05
9.66352e-05
9.66392e-05
0.000100009
0.000100032
0.000100036
0.000100152
0.000100174
0.000100177
0.000100114
0.000100134
0.000100136
0.000100663
0.000100682
0.000100683
0.00010181
0.000101828
0.000101829
0.00010339
0.000103408
0.00010341
0.000105165
0.000105184
0.000105185
0.000106916
0.000106936
0.000106938
0.000108512
0.000108534
0.000108536
0.000109833
0.000109857
0.000109859
0.000110804
0.00011083
0.000110832
0.000111407
0.000111433
0.000111435
0.000111408
0.000111433
0.000111436
0.000110805
0.00011083
0.000110833
0.000109834
0.000109859
0.000109861
0.000108514
0.000108536
0.000108538
0.00010692
0.000106941
0.000106942
0.000105168
0.000105187
0.000105188
0.000103395
0.000103413
0.000103414
0.000101813
0.000101831
0.000101832
0.000100663
0.000100681
0.000100683
0.000100107
0.000100127
0.000100129
0.00010014
0.000100162
0.000100165
0.000100001
0.000100024
0.000100028
9.66267e-05
9.66426e-05
9.66467e-05
7.56334e-05
7.56338e-05
7.56361e-05
8.96759e-06
8.96758e-06
8.96765e-06
9.23011e-06
9.23011e-06
9.23017e-06
8.12776e-05
8.12781e-05
8.12806e-05
0.000107504
0.000107521
0.000107526
0.000113427
0.000113453
0.000113459
0.000114245
0.000114272
0.000114276
0.000114086
0.000114111
0.000114114
0.000114349
0.000114371
0.000114373
0.000115286
0.000115307
0.000115309
0.000116795
0.000116817
0.000116818
0.000118607
0.00011863
0.000118631
0.000120452
0.000120477
0.000120478
0.000122168
0.000122195
0.000122197
0.000123602
0.000123632
0.000123634
0.000124668
0.0001247
0.000124702
0.000125346
0.000125378
0.000125382
0.000125347
0.000125379
0.000125382
0.000124669
0.000124701
0.000124704
0.000123604
0.000123634
0.000123636
0.000122171
0.000122198
0.0001222
0.000120458
0.000120483
0.000120484
0.000118612
0.000118634
0.000118636
0.000116801
0.000116823
0.000116824
0.00011529
0.000115311
0.000115313
0.000114347
0.000114369
0.000114372
0.000114077
0.000114101
0.000114104
0.000114229
0.000114256
0.000114261
0.000113416
0.000113443
0.000113448
0.000107513
0.000107531
0.000107536
8.12801e-05
8.12806e-05
8.1283e-05
9.22969e-06
9.22968e-06
9.22975e-06
9.45778e-06
9.45777e-06
9.45783e-06
8.65199e-05
8.65205e-05
8.65231e-05
0.000118122
0.000118141
0.000118147
0.000127334
0.000127365
0.000127371
0.000129365
0.000129397
0.000129402
0.000129295
0.000129324
0.000129328
0.000129274
0.0001293
0.000129303
0.000129926
0.000129951
0.000129953
0.00013128
0.000131305
0.000131307
0.000133062
0.000133089
0.000133091
0.000134952
0.000134981
0.000134983
0.000136758
0.00013679
0.000136793
0.000138285
0.000138321
0.000138325
0.000139436
0.000139475
0.000139478
0.00014019
0.000140229
0.000140233
0.000140191
0.00014023
0.000140234
0.000139438
0.000139476
0.00013948
0.000138288
0.000138324
0.000138327
0.000136762
0.000136795
0.000136797
0.000134959
0.000134989
0.000134991
0.000133068
0.000133095
0.000133097
0.000131288
0.000131313
0.000131315
0.000129931
0.000129956
0.000129958
0.000129271
0.000129297
0.0001293
0.000129282
0.000129311
0.000129315
0.000129345
0.000129376
0.000129382
0.000127321
0.000127353
0.000127359
0.000118133
0.000118153
0.000118158
8.65226e-05
8.65232e-05
8.65259e-05
9.45733e-06
9.45733e-06
9.45739e-06
9.65528e-06
9.65528e-06
9.65534e-06
9.12169e-05
9.12174e-05
9.12203e-05
0.000128234
0.000128254
0.00012826
0.000141478
0.000141512
0.00014152
0.000145375
0.000145411
0.000145418
0.000145731
0.000145763
0.000145769
0.0001455
0.000145529
0.000145533
0.00014581
0.000145838
0.000145841
0.000146915
0.000146942
0.000146945
0.000148581
0.00014861
0.000148613
0.000150448
0.000150481
0.000150483
0.000152299
0.000152336
0.00015234
0.000153892
0.000153934
0.000153938
0.000155112
0.000155157
0.000155162
0.00015594
0.000155986
0.00015599
0.000155941
0.000155987
0.000155991
0.000155115
0.00015516
0.000155164
0.000153897
0.000153938
0.000153942
0.000152305
0.000152342
0.000152346
0.000150457
0.00015049
0.000150493
0.000148589
0.000148618
0.00014862
0.000146924
0.000146952
0.000146954
0.000145815
0.000145843
0.000145846
0.000145495
0.000145524
0.000145528
0.000145712
0.000145745
0.000145751
0.000145349
0.000145385
0.000145392
0.000141462
0.000141497
0.000141504
0.000128246
0.000128267
0.000128273
9.12197e-05
9.12202e-05
9.12231e-05
9.65481e-06
9.65481e-06
9.65487e-06
9.82676e-06
9.82675e-06
9.82682e-06
9.52443e-05
9.52448e-05
9.52478e-05
0.000137609
0.00013763
0.000137637
0.000155565
0.000155602
0.000155611
0.00016207
0.00016211
0.000162119
0.000163327
0.000163363
0.00016337
0.000163062
0.000163093
0.000163098
0.000163014
0.000163043
0.000163047
0.000163774
0.000163803
0.000163806
0.000165219
0.00016525
0.000165253
0.000166975
0.00016701
0.000167014
0.00016881
0.000168851
0.000168855
0.000170429
0.000170475
0.00017048
0.000171697
0.000171747
0.000171753
0.000172592
0.000172644
0.00017265
0.000172594
0.000172645
0.000172651
0.0001717
0.000171751
0.000171756
0.000170435
0.000170481
0.000170486
0.000168818
0.000168858
0.000168862
0.000166986
0.000167021
0.000167025
0.000165228
0.000165259
0.000165262
0.000163784
0.000163813
0.000163817
0.000163018
0.000163048
0.000163052
0.000163053
0.000163085
0.00016309
0.000163302
0.000163338
0.000163345
0.000162036
0.000162076
0.000162084
0.000155544
0.000155582
0.000155591
0.000137622
0.000137643
0.00013765
9.5247e-05
9.52474e-05
9.52504e-05
9.82627e-06
9.82626e-06
9.82632e-06
9.97603e-06
9.97602e-06
9.97608e-06
9.85079e-05
9.85082e-05
9.85113e-05
0.000146045
0.000146066
0.000146073
0.000169279
0.000169318
0.000169328
0.000179179
0.000179222
0.000179233
0.000181954
0.000181992
0.000182001
0.000181957
0.00018199
0.000181997
0.000181601
0.000181631
0.000181635
0.000181932
0.000181962
0.000181966
0.000183037
0.000183068
0.000183072
0.00018457
0.000184606
0.000184611
0.000186309
0.000186351
0.000186356
0.000187903
0.000187951
0.000187957
0.000189188
0.000189242
0.000189249
0.000190143
0.000190199
0.000190206
0.000190145
0.0001902
0.000190208
0.000189193
0.000189246
0.000189253
0.00018791
0.000187958
0.000187964
0.000186318
0.00018636
0.000186365
0.000184583
0.000184619
0.000184624
0.000183048
0.000183078
0.000183083
0.000181944
0.000181973
0.000181977
0.000181603
0.000181633
0.000181638
0.000181943
0.000181976
0.000181982
0.000181919
0.000181957
0.000181966
0.000179134
0.000179177
0.000179188
0.000169252
0.000169292
0.000169303
0.000146058
0.000146079
0.000146087
9.85101e-05
9.85104e-05
9.85135e-05
9.9755e-06
9.97549e-06
9.97555e-06
1.01065e-05
1.01064e-05
1.01065e-05
0.000100956
0.000100956
0.000100959
0.000153379
0.000153399
0.000153408
0.000182294
0.000182335
0.000182346
0.00019637
0.000196415
0.000196427
0.000201401
0.000201442
0.000201452
0.000202127
0.000202161
0.000202168
0.00020161
0.000201639
0.000201645
0.000201464
0.000201491
0.000201496
0.000202097
0.000202126
0.000202131
0.000203275
0.000203309
0.000203315
0.000204815
0.000204856
0.000204862
0.000206317
0.000206365
0.000206373
0.000207583
0.000207638
0.000207646
0.000208585
0.000208641
0.00020865
0.000208587
0.000208644
0.000208652
0.000207589
0.000207643
0.000207652
0.000206326
0.000206374
0.000206382
0.000204826
0.000204866
0.000204873
0.000203289
0.000203323
0.000203329
0.000202109
0.000202138
0.000202143
0.000201475
0.000201502
0.000201507
0.00020161
0.000201638
0.000201644
0.000202104
0.000202138
0.000202146
0.000201354
0.000201394
0.000201404
0.000196311
0.000196356
0.000196369
0.00018226
0.000182302
0.000182314
0.000153391
0.000153412
0.00015342
0.000100957
0.000100958
0.000100961
1.01059e-05
1.01059e-05
1.01059e-05
1.0221e-05
1.02209e-05
1.0221e-05
0.000102588
0.000102588
0.000102591
0.000159502
0.00015952
0.00015953
0.000194291
0.000194334
0.000194346
0.000213262
0.000213309
0.000213323
0.000221381
0.000221422
0.000221434
0.000223442
0.000223474
0.000223483
0.000223043
0.000223069
0.000223076
0.000222425
0.000222448
0.000222455
0.00022246
0.000222485
0.000222491
0.000223129
0.000223158
0.000223165
0.000224345
0.000224382
0.00022439
0.000225675
0.00022572
0.000225729
0.000226875
0.000226926
0.000226937
0.000227906
0.000227959
0.00022797
0.000227908
0.000227962
0.000227972
0.000226882
0.000226934
0.000226944
0.000225686
0.000225731
0.00022574
0.000224357
0.000224394
0.000224402
0.000223142
0.000223172
0.000223179
0.000222474
0.000222498
0.000222504
0.000222435
0.000222458
0.000222464
0.000223036
0.000223062
0.000223069
0.000223407
0.000223439
0.000223449
0.000221316
0.000221358
0.00022137
0.000213187
0.000213234
0.000213248
0.000194247
0.000194291
0.000194303
0.000159511
0.00015953
0.00015954
0.000102589
0.000102589
0.000102592
1.02204e-05
1.02203e-05
1.02204e-05
1.0322e-05
1.03219e-05
1.0322e-05
0.000103461
0.00010346
0.000103463
0.000164361
0.000164378
0.000164388
0.000204967
0.000205011
0.000205024
0.000229445
0.000229493
0.000229509
0.000241524
0.000241564
0.000241578
0.000245684
0.000245714
0.000245725
0.000245837
0.000245859
0.000245868
0.000244843
0.000244861
0.000244868
0.000244172
0.00024419
0.000244196
0.000244162
0.000244185
0.000244192
0.000244909
0.000244938
0.000244947
0.00024597
0.000246008
0.000246018
0.000247048
0.000247092
0.000247103
0.000248082
0.000248129
0.000248141
0.000248086
0.000248132
0.000248144
0.000247056
0.0002471
0.000247112
0.000245983
0.000246021
0.000246031
0.000244921
0.000244951
0.00024496
0.000244174
0.000244197
0.000244204
0.000244185
0.000244203
0.000244209
0.000244849
0.000244867
0.000244873
0.000245821
0.000245843
0.000245851
0.000245634
0.000245664
0.000245675
0.000241439
0.00024148
0.000241493
0.000229349
0.000229398
0.000229413
0.000204912
0.000204957
0.000204971
0.000164367
0.000164384
0.000164395
0.00010346
0.00010346
0.000103462
1.03213e-05
1.03213e-05
1.03214e-05
1.04114e-05
1.04114e-05
1.04115e-05
0.000103676
0.000103675
0.000103677
0.000167956
0.000167971
0.000167983
0.00021406
0.000214105
0.00021412
0.000244495
0.000244546
0.000244562
0.000261393
0.000261433
0.000261448
0.00026854
0.000268567
0.000268578
0.000269847
0.000269864
0.000269872
0.000268688
0.0002687
0.000268705
0.000267239
0.000267251
0.000267254
0.000266377
0.000266392
0.000266398
0.000266489
0.00026651
0.000266518
0.000267173
0.0002672
0.000267211
0.00026806
0.000268093
0.000268106
0.000269067
0.000269102
0.000269115
0.000269071
0.000269106
0.000269119
0.000268071
0.000268104
0.000268116
0.000267187
0.000267214
0.000267225
0.000266502
0.000266522
0.00026653
0.000266384
0.0002664
0.000266405
0.00026725
0.000267263
0.000267265
0.000268687
0.000268699
0.000268703
0.000269818
0.000269834
0.000269843
0.000268469
0.000268496
0.000268508
0.000261282
0.000261322
0.000261338
0.000244375
0.000244426
0.000244442
0.000213993
0.000214039
0.000214054
0.00016796
0.000167976
0.000167988
0.000103674
0.000103673
0.000103676
1.04108e-05
1.04108e-05
1.04108e-05
1.04908e-05
1.04908e-05
1.04908e-05
0.000103362
0.000103361
0.000103364
0.000170324
0.000170338
0.000170351
0.000221373
0.000221419
0.000221436
0.000257997
0.000258049
0.000258067
0.000280497
0.000280537
0.000280553
0.00029159
0.000291612
0.000291625
0.000294809
0.00029482
0.000294827
0.000293831
0.000293838
0.000293838
0.000291595
0.000291601
0.000291598
0.000289711
0.00028972
0.000289719
0.000289012
0.000289024
0.000289026
0.000289196
0.000289212
0.000289218
0.000289816
0.000289836
0.000289846
0.000290752
0.000290774
0.000290784
0.000290756
0.000290779
0.000290789
0.000289828
0.000289849
0.000289858
0.000289211
0.000289227
0.000289233
0.000289022
0.000289034
0.000289036
0.000289711
0.000289719
0.000289719
0.000291601
0.000291608
0.000291605
0.000293818
0.000293826
0.000293825
0.000294762
0.000294772
0.000294779
0.000291494
0.000291516
0.000291528
0.000280356
0.000280395
0.000280411
0.000257847
0.0002579
0.000257918
0.000221291
0.000221339
0.000221356
0.000170327
0.000170341
0.000170354
0.00010336
0.000103359
0.000103361
1.04901e-05
1.04901e-05
1.04901e-05
1.05608e-05
1.05608e-05
1.05608e-05
0.000102661
0.00010266
0.000102662
0.000171541
0.000171555
0.000171569
0.000226797
0.000226845
0.000226864
0.000269579
0.000269633
0.000269653
0.000298317
0.000298356
0.000298372
0.000314305
0.000314323
0.000314335
0.0003203
0.000320307
0.000320308
0.000319985
0.000319988
0.000319981
0.00031703
0.00031703
0.00031702
0.000313976
0.000313976
0.000313967
0.00031228
0.000312282
0.000312276
0.000311831
0.000311837
0.000311834
0.000312096
0.000312105
0.000312104
0.000312905
0.000312916
0.000312916
0.000312911
0.000312921
0.000312921
0.00031211
0.000312119
0.000312119
0.000311847
0.000311853
0.00031185
0.000312285
0.000312287
0.000312281
0.000313963
0.000313963
0.000313954
0.000317029
0.000317029
0.000317018
0.000319956
0.000319959
0.000319952
0.000320229
0.000320236
0.000320237
0.000314178
0.000314196
0.000314208
0.000298139
0.000298178
0.000298194
0.000269396
0.000269451
0.000269471
0.000226698
0.000226748
0.000226767
0.000171539
0.000171554
0.000171568
0.000102658
0.000102656
0.000102659
1.05601e-05
1.05601e-05
1.05601e-05
1.06225e-05
1.06225e-05
1.06225e-05
0.00010175
0.000101749
0.000101751
0.000171812
0.000171827
0.000171842
0.000230357
0.000230408
0.000230429
0.000278967
0.000279024
0.000279046
0.00031433
0.000314369
0.000314386
0.000336038
0.000336052
0.000336064
0.000345684
0.000345687
0.000345683
0.00034661
0.000346607
0.000346592
0.000343084
0.000343076
0.000343057
0.000338737
0.000338729
0.00033871
0.000335861
0.000335852