/*--------------------------------*- C++ -*----------------------------------*\
  =========                 |
  \\      /  F ield         | OpenFOAM: The Open Source CFD Toolbox
   \\    /   O peration     | Website:  https://openfoam.org
    \\  /    A nd           | Version:  6
     \\/     M anipulation  |
\*---------------------------------------------------------------------------*/
FoamFile
{
    version     2.0;
    format      ascii;
    class       volScalarField;
    location    "20";
    object      omega;
}
// * * * * * * * * * * * * * * * * * * * * * * * * * * * * * * * * * * * * * //

dimensions      [0 0 -1 0 0 0 0];

internalField   nonuniform List<scalar> 
2880
(
736.722
736.722
736.722
1471.07
1471.07
1471.07
1471.07
1471.07
1471.07
1471.07
1471.07
1471.07
1471.07
1471.07
1471.07
1471.07
1471.07
1471.07
1471.07
1471.07
1471.07
1471.07
1471.07
1471.07
1471.07
1471.07
1471.07
1471.07
1471.07
1471.07
1471.07
1471.07
1471.07
1471.07
1471.07
1471.07
1471.07
1471.07
1471.07
1471.07
1471.07
1471.07
1471.07
1471.07
1471.07
1471.07
1471.07
1471.07
1471.07
1471.07
1471.07
1471.07
1471.07
1471.07
1471.07
1471.07
1471.07
1471.07
1471.07
1471.07
1471.07
1471.07
1471.07
1471.07
1471.07
1471.07
1471.07
1471.07
1471.07
1471.07
1471.07
1471.07
1471.07
1471.07
1471.07
1471.07
1471.07
1471.07
1471.07
1471.07
1471.07
1471.07
1471.07
1471.07
1471.07
1471.07
1471.07
736.722
736.722
736.722
5.94249
5.94247
5.94251
351.856
351.856
351.857
369.268
369.268
369.27
380.442
380.442
380.444
388.855
388.855
388.857
395.573
395.573
395.575
401.11
401.111
401.112
405.763
405.763
405.764
409.717
409.717
409.718
413.076
413.076
413.077
415.885
415.886
415.887
418.157
418.157
418.159
419.871
419.872
419.873
421.164
421.165
421.167
421.866
421.867
421.869
421.865
421.866
421.868
421.162
421.163
421.165
419.868
419.869
419.87
418.153
418.153
418.155
415.88
415.881
415.882
413.07
413.071
413.072
409.711
409.711
409.712
405.755
405.755
405.756
401.1
401.1
401.101
395.559
395.559
395.561
388.838
388.838
388.84
380.424
380.424
380.426
369.252
369.252
369.254
351.842
351.842
351.843
5.94203
5.94201
5.94205
7.93108
7.93106
7.93111
159.08
159.08
159.081
170.101
170.101
170.102
176.249
176.249
176.25
180.76
180.76
180.761
184.373
184.373
184.373
187.377
187.376
187.377
189.924
189.924
189.925
192.11
192.11
192.111
193.983
193.983
193.984
195.562
195.562
195.562
196.846
196.846
196.847
197.818
197.818
197.819
198.507
198.508
198.509
198.878
198.878
198.879
198.877
198.878
198.879
198.506
198.507
198.508
197.816
197.816
197.817
196.844
196.844
196.845
195.559
195.559
195.56
193.98
193.98
193.98
192.106
192.106
192.107
189.92
189.92
189.92
187.371
187.37
187.371
184.365
184.365
184.366
180.751
180.751
180.752
176.239
176.239
176.24
170.092
170.093
170.094
159.073
159.073
159.073
7.9305
7.93047
7.93052
9.29103
9.29101
9.29106
89.6153
89.6156
89.6158
97.2584
97.2588
97.2592
101.726
101.727
101.727
104.975
104.975
104.975
107.568
107.568
107.569
109.721
109.721
109.721
111.544
111.544
111.544
113.106
113.106
113.106
114.442
114.442
114.443
115.567
115.567
115.567
116.481
116.481
116.481
117.169
117.17
117.17
117.632
117.632
117.633
117.878
117.878
117.879
117.877
117.878
117.879
117.631
117.631
117.632
117.168
117.168
117.169
116.479
116.479
116.48
115.565
115.565
115.565
114.44
114.44
114.44
113.103
113.103
113.103
111.541
111.54
111.541
109.717
109.716
109.717
107.563
107.563
107.563
104.968
104.968
104.969
101.719
101.72
101.72
97.2524
97.2528
97.2533
89.6102
89.6105
89.6107
9.29038
9.29036
9.29041
10.3934
10.3934
10.3934
58.1878
58.1881
58.1882
63.5292
63.5297
63.5299
67.0254
67.0257
67.026
69.5464
69.5465
69.5468
71.5389
71.5389
71.5392
73.1801
73.18
73.1802
74.561
74.561
74.5612
75.738
75.7379
75.7382
76.7409
76.7409
76.7411
77.5813
77.5812
77.5816
78.2617
78.2618
78.2621
78.7716
78.7719
78.7723
79.1041
79.1046
79.1049
79.2799
79.2805
79.2809
79.2797
79.2803
79.2807
79.1035
79.104
79.1044
78.7706
78.7709
78.7713
78.2603
78.2604
78.2608
77.5796
77.5795
77.5799
76.739
76.739
76.7392
75.7359
75.7358
75.736
74.5584
74.5584
74.5586
73.1767
73.1766
73.1769
71.5346
71.5346
71.5349
69.5414
69.5415
69.5418
67.0202
67.0206
67.0208
63.5247
63.5251
63.5253
58.1839
58.1842
58.1843
10.3927
10.3927
10.3927
11.355
11.3549
11.355
41.4552
41.4555
41.4556
44.9948
44.9952
44.9952
47.8004
47.8007
47.8008
49.8395
49.8396
49.8398
51.4379
51.4378
51.438
52.7426
52.7425
52.7427
53.8318
53.8318
53.8319
54.7538
54.7538
54.7539
55.5352
55.5352
55.5353
56.1866
56.1866
56.1868
56.7117
56.7119
56.7121
57.1028
57.1031
57.1033
57.3525
57.353
57.3532
57.4837
57.4843
57.4845
57.4836
57.4842
57.4844
57.3521
57.3526
57.3528
57.102
57.1023
57.1025
56.7106
56.7108
56.711
56.1852
56.1852
56.1854
55.5337
55.5336
55.5338
54.7521
54.752
54.7522
53.8297
53.8296
53.8298
52.7399
52.7398
52.74
51.4345
51.4344
51.4346
49.8356
49.8357
49.8358
47.7963
47.7966
47.7968
44.9912
44.9915
44.9916
41.452
41.4523
41.4524
11.3542
11.3542
11.3543
12.2162
12.2162
12.2162
31.5376
31.5377
31.5378
33.6296
33.6297
33.6297
35.876
35.8761
35.8762
37.563
37.563
37.5631
38.8836
38.8836
38.8836
39.954
39.9539
39.9539
40.8406
40.8404
40.8405
41.5854
41.5853
41.5853
42.2128
42.2127
42.2128
42.7329
42.7328
42.7329
43.1502
43.1503
43.1504
43.4588
43.4591
43.4592
43.6526
43.653
43.6531
43.7534
43.7539
43.754
43.7533
43.7538
43.7539
43.6522
43.6526
43.6527
43.4582
43.4585
43.4586
43.1493
43.1494
43.1495
42.7317
42.7316
42.7318
42.2115
42.2114
42.2115
41.5839
41.5838
41.5839
40.8388
40.8387
40.8387
39.9517
39.9516
39.9517
38.8808
38.8808
38.8809
37.5598
37.5599
37.5599
35.8727
35.8729
35.8729
33.6265
33.6267
33.6267
31.5348
31.5349
31.535
12.2154
12.2154
12.2155
13.0221
13.0221
13.0222
25.1989
25.1989
25.199
26.1382
26.1381
26.1381
27.8978
27.8978
27.8977
29.3052
29.3051
29.3051
30.4172
30.4171
30.4171
31.3157
31.3155
31.3155
32.0551
32.0549
32.0549
32.6717
32.6715
32.6715
33.1878
33.1877
33.1877
33.6131
33.613
33.613
33.9528
33.9528
33.9529
34.2024
34.2025
34.2025
34.3566
34.3569
34.3569
34.4358
34.4362
34.4362
34.4357
34.4361
34.4361
34.3563
34.3566
34.3566
34.2018
34.202
34.202
33.952
33.952
33.9521
33.6121
33.612
33.612
33.1867
33.1865
33.1866
32.6704
32.6702
32.6702
32.0536
32.0533
32.0534
31.3138
31.3136
31.3136
30.4149
30.4148
30.4148
29.3026
29.3025
29.3025
27.8951
27.8951
27.8951
26.1356
26.1356
26.1356
25.1964
25.1964
25.1965
13.0213
13.0213
13.0213
13.7923
13.7923
13.7923
20.9153
20.9153
20.9154
20.9491
20.9488
20.9488
22.2712
22.271
22.2709
23.4411
23.4408
23.4408
24.387
24.3867
24.3867
25.1534
25.1531
25.1531
25.7817
25.7814
25.7814
26.3023
26.3019
26.3019
26.7354
26.7351
26.7351
27.0902
27.09
27.09
27.3724
27.3723
27.3723
27.5785
27.5785
27.5784
27.704
27.7041
27.7041
27.7674
27.7676
27.7676
27.7673
27.7675
27.7675
27.7037
27.7038
27.7038
27.578
27.578
27.578
27.3717
27.3716
27.3716
27.0893
27.0891
27.0891
26.7344
26.7341
26.7341
26.3011
26.3008
26.3008
25.7804
25.78
25.78
25.1518
25.1515
25.1515
24.385
24.3848
24.3847
23.4389
23.4387
23.4386
22.269
22.2688
22.2687
20.9468
20.9465
20.9465
20.913
20.913
20.9131
13.7914
13.7914
13.7915
14.5321
14.5321
14.5321
17.8966
17.8966
17.8967
17.2243
17.2239
17.2239
18.1511
18.1507
18.1506
19.1091
19.1087
19.1087
19.9153
19.9149
19.9149
20.5758
20.5753
20.5753
21.1172
21.1168
21.1168
21.5637
21.5633
21.5632
21.9333
21.9328
21.9328
22.2346
22.2342
22.2342
22.4732
22.4729
22.4729
22.6466
22.6464
22.6463
22.7509
22.7508
22.7507
22.8025
22.8025
22.8024
22.8025
22.8024
22.8024
22.7506
22.7505
22.7505
22.6462
22.646
22.6459
22.4726
22.4723
22.4723
22.2338
22.2334
22.2334
21.9324
21.932
21.9319
21.5627
21.5622
21.5622
21.1161
21.1156
21.1156
20.5744
20.5739
20.5739
19.9137
19.9133
19.9133
19.1073
19.1069
19.1069
18.1493
18.1488
18.1488
17.2223
17.2219
17.2219
17.8945
17.8945
17.8945
14.5312
14.5312
14.5312
15.2399
15.2399
15.2399
15.6962
15.6962
15.6962
14.4776
14.4771
14.4771
15.0505
15.0498
15.0498
15.8137
15.8131
15.8131
16.4968
16.4963
16.4962
17.0684
17.0678
17.0678
17.5397
17.5391
17.5391
17.9276
17.927
17.9269
18.2474
18.2468
18.2468
18.5073
18.5068
18.5067
18.7124
18.7119
18.7118
18.8609
18.8605
18.8604
18.9492
18.9489
18.9488
18.992
18.9918
18.9916
18.9919
18.9917
18.9916
18.949
18.9487
18.9486
18.8605
18.8601
18.86
18.7118
18.7113
18.7113
18.5065
18.506
18.506
18.2466
18.246
18.246
17.9266
17.926
17.926
17.5386
17.538
17.538
17.0672
17.0666
17.0666
16.4954
16.4949
16.4948
15.8122
15.8116
15.8116
15.0489
15.0483
15.0482
14.4757
14.4752
14.4752
15.6941
15.6941
15.6942
15.2389
15.2389
15.239
15.9118
15.9118
15.9119
14.0329
14.0328
14.0328
12.4077
12.407
12.407
12.6692
12.6684
12.6684
13.2507
13.25
13.25
13.8213
13.8206
13.8206
14.3153
14.3146
14.3145
14.7278
14.7271
14.7271
15.0681
15.0674
15.0674
15.3483
15.3477
15.3476
15.5757
15.575
15.575
15.7546
15.7539
15.7539
15.8839
15.8833
15.8832
15.9603
15.9598
15.9596
15.9963
15.9958
15.9957
15.9962
15.9958
15.9956
15.9601
15.9595
15.9594
15.8835
15.8829
15.8829
15.754
15.7534
15.7533
15.5749
15.5743
15.5742
15.3476
15.3469
15.3469
15.0673
15.0666
15.0665
14.7269
14.7262
14.7262
14.3142
14.3135
14.3135
13.8201
13.8194
13.8194
13.2495
13.2488
13.2488
12.6678
12.6671
12.6671
12.4059
12.4053
12.4053
14.0308
14.0308
14.0308
15.9108
15.9108
15.9109
16.5478
16.5477
16.5478
12.7355
12.7354
12.7354
10.8189
10.8182
10.8183
10.8121
10.8113
10.8113
11.2239
11.2231
11.223
11.6886
11.6878
11.6878
12.1122
12.1114
12.1114
12.4739
12.4731
12.4731
12.7745
12.7737
12.7737
13.0225
13.0217
13.0217
13.2239
13.2231
13.2231
13.3821
13.3814
13.3813
13.4966
13.4959
13.4958
13.5639
13.5632
13.5631
13.5948
13.5942
13.594
13.5948
13.5941
13.594
13.5637
13.563
13.5629
13.4963
13.4955
13.4954
13.3816
13.3809
13.3808
13.2232
13.2224
13.2224
13.0218
13.021
13.021
12.7737
12.7729
12.7729
12.473
12.4722
12.4722
12.1112
12.1105
12.1105
11.6876
11.6869
11.6868
11.2229
11.2221
11.2221
10.811
10.8101
10.8101
10.8173
10.8166
10.8166
12.7335
12.7334
12.7334
16.5467
16.5467
16.5468
17.1477
17.1477
17.1478
11.7061
11.706
11.706
9.58014
9.57941
9.57943
9.3465
9.34557
9.34557
9.60059
9.59969
9.59968
9.96424
9.9634
9.96338
10.3218
10.321
10.321
10.6378
10.637
10.637
10.9044
10.9035
10.9035
11.1256
11.1248
11.1247
11.3061
11.3052
11.3051
11.4479
11.447
11.447
11.5508
11.5498
11.5498
11.6112
11.6103
11.6102
11.6382
11.6374
11.6373
11.6382
11.6373
11.6372
11.611
11.6101
11.61
11.5504
11.5495
11.5494
11.4474
11.4465
11.4465
11.3054
11.3045
11.3045
11.125
11.1241
11.1241
10.9036
10.9028
10.9028
10.637
10.6362
10.6362
10.321
10.3202
10.3202
9.96346
9.96263
9.9626
9.59981
9.59891
9.59889
9.34551
9.34458
9.34459
9.57855
9.57784
9.57784
11.7041
11.704
11.704
17.1466
17.1466
17.1467
17.7112
17.7112
17.7113
10.881
10.8809
10.8809
8.60066
8.59994
8.59994
8.17843
8.17749
8.17748
8.28792
8.28698
8.28697
8.55455
8.55368
8.55366
8.84874
8.8479
8.84788
9.12217
9.12133
9.12131
9.35845
9.3576
9.35757
9.55698
9.55611
9.55608
9.72017
9.71925
9.71922
9.84882
9.84786
9.8478
9.94253
9.94152
9.94146
9.99776
9.99672
9.99664
10.0219
10.0209
10.0208
10.0218
10.0208
10.0207
9.99756
9.99652
9.99644
9.94221
9.94119
9.94113
9.84836
9.84739
9.84734
9.71954
9.71863
9.71859
9.5564
9.55552
9.55549
9.35776
9.35692
9.35689
9.12147
9.12064
9.12061
8.84806
8.84723
8.84721
8.55394
8.55307
8.55306
8.28732
8.28638
8.28637
8.1776
8.17664
8.17664
8.59913
8.59841
8.59841
10.879
10.8789
10.8789
17.7101
17.7101
17.7102
18.2382
18.2382
18.2383
10.2172
10.2171
10.2171
7.81657
7.81586
7.81586
7.23962
7.23868
7.23868
7.21854
7.21762
7.2176
7.39227
7.3914
7.39139
7.62455
7.62373
7.62371
7.85713
7.85631
7.85629
8.06559
8.06475
8.06473
8.2442
8.24334
8.24331
8.39289
8.39196
8.39193
8.51076
8.50977
8.50972
8.5972
8.59612
8.59607
8.64844
8.64732
8.64726
8.6704
8.66928
8.66921
8.67032
8.66921
8.66913
8.64825
8.64713
8.64707
8.59688
8.59581
8.59576
8.51032
8.50933
8.50928
8.3923
8.39137
8.39134
8.24367
8.2428
8.24277
8.06496
8.06413
8.06411
7.85652
7.8557
7.85568
7.62401
7.62319
7.62317
7.39183
7.39096
7.39095
7.21811
7.21717
7.21717
7.23892
7.23796
7.23797
7.8151
7.81439
7.81438
10.2153
10.2152
10.2152
18.2371
18.2371
18.2372
18.7295
18.7295
18.7296
9.68444
9.68437
9.68436
7.18198
7.1813
7.18129
6.4791
6.47819
6.47818
6.34219
6.34128
6.34127
6.42781
6.42696
6.42696
6.59924
6.59845
6.59844
6.79163
6.79085
6.79083
6.97356
6.97277
6.97275
7.13409
7.13327
7.13324
7.27022
7.26931
7.26929
7.37909
7.3781
7.37807
7.45962
7.45854
7.45849
7.50779
7.50664
7.50658
7.52811
7.52696
7.52689
7.52804
7.52689
7.52682
7.5076
7.50645
7.5064
7.45931
7.45823
7.45819
7.37868
7.37769
7.37765
7.26965
7.26875
7.26872
7.1336
7.13277
7.13275
6.973
6.97221
6.97219
6.7911
6.79033
6.79031
6.59882
6.59803
6.59802
6.42752
6.42667
6.42667
6.34191
6.34101
6.341
6.47852
6.47761
6.4776
7.18056
7.17986
7.17987
9.68258
9.68252
9.68251
18.7283
18.7283
18.7285
19.1867
19.1867
19.1868
9.26078
9.26073
9.26072
6.66349
6.66284
6.66284
5.85814
5.85727
5.85726
5.6203
5.61943
5.61943
5.62356
5.62276
5.62276
5.73529
5.73456
5.73456
5.88752
5.88681
5.8868
6.04336
6.04264
6.04262
6.1868
6.18604
6.18602
6.31161
6.31076
6.31074
6.41273
6.41179
6.41176
6.48831
6.48726
6.48722
6.53403
6.53291
6.53286
6.55313
6.55199
6.55194
6.55306
6.55193
6.55187
6.53385
6.53272
6.53268
6.48801
6.48696
6.48693
6.41234
6.4114
6.41137
6.31109
6.31024
6.31022
6.18635
6.18559
6.18557
6.04286
6.04214
6.04212
5.88709
5.88638
5.88637
5.735
5.73427
5.73427
5.62342
5.62262
5.62262
5.62017
5.61931
5.6193
5.85767
5.85679
5.85679
6.66213
6.66148
6.66147
9.25899
9.25895
9.25894
19.1854
19.1854
19.1855
19.6119
19.6119
19.612
8.92962
8.92959
8.92957
6.23657
6.23596
6.23595
5.34691
5.34609
5.34608
5.02266
5.02186
5.02185
4.95033
4.94961
4.9496
5.00404
5.00338
5.00338
5.11587
5.11525
5.11524
5.24539
5.24476
5.24475
5.37205
5.37138
5.37136
5.48617
5.48542
5.4854
5.5803
5.57944
5.57942
5.65153
5.65056
5.65053
5.69521
5.69415
5.69411
5.71337
5.71229
5.71224
5.7133
5.71223
5.71218
5.69503
5.69398
5.69394
5.65125
5.65028
5.65025
5.57993
5.57908
5.57905
5.4857
5.48494
5.48493
5.37164
5.37097
5.37096
5.24496
5.24434
5.24432
5.11554
5.11492
5.11491
5.00387
5.00321
5.00321
4.95033
4.94961
4.94959
5.02267
5.02186
5.02185
5.34656
5.34573
5.34573
6.23528
6.23467
6.23466
8.92792
8.92789
8.92787
19.6106
19.6106
19.6107
20.0076
20.0076
20.0077
8.67788
8.67788
8.67785
5.88302
5.88246
5.88245
4.92223
4.92146
4.92146
4.52513
4.52439
4.52439
4.38489
4.38423
4.38423
4.38306
4.3825
4.38249
4.45441
4.45389
4.45388
4.55698
4.55646
4.55645
4.66655
4.666
4.66598
4.77009
4.76945
4.76944
4.85754
4.8568
4.85678
4.92473
4.92387
4.92385
4.96655
4.9656
4.96557
4.98394
4.98297
4.98293
4.98388
4.98291
4.98287
4.96638
4.96543
4.9654
4.92446
4.9236
4.92358
4.85721
4.85647
4.85644
4.76967
4.76902
4.76901
4.6662
4.66564
4.66563
4.55662
4.5561
4.55609
4.45417
4.45365
4.45364
4.38301
4.38244
4.38244
4.38501
4.38436
4.38435
4.52528
4.52453
4.52453
4.922
4.92123
4.92122
5.8818
5.88124
5.88123
8.67627
8.67627
8.67624
20.0063
20.0063
20.0064
20.3764
20.3764
20.3765
8.49495
8.49496
8.49492
5.58924
5.58872
5.58871
4.56602
4.5653
4.5653
4.10824
4.10757
4.10756
3.90834
3.90776
3.90776
3.85447
3.85399
3.85398
3.88571
3.88528
3.88528
3.96056
3.96015
3.96014
4.05232
4.05189
4.05188
4.14488
4.14436
4.14435
4.22557
4.22496
4.22495
4.28871
4.288
4.28797
4.32869
4.32788
4.32786
4.34541
4.34457
4.34454
4.34535
4.34451
4.34448
4.32853
4.32772
4.32769
4.28846
4.28774
4.28773
4.22527
4.22466
4.22464
4.14451
4.14399
4.14399
4.05201
4.05158
4.05157
3.96027
3.95986
3.95986
3.88556
3.88513
3.88513
3.85453
3.85404
3.85404
3.90858
3.90801
3.908
4.10852
4.10785
4.10784
4.56591
4.56519
4.56518
5.58811
5.58758
5.58757
8.49342
8.49344
8.49341
20.375
20.375
20.3751
20.7204
20.7204
20.7205
8.37197
8.372
8.37196
5.34496
5.3445
5.34448
4.26418
4.26351
4.26351
3.75614
3.75553
3.75552
3.50506
3.50455
3.50455
3.40364
3.40324
3.40324
3.3959
3.39557
3.39557
3.44243
3.44213
3.44213
3.5154
3.51509
3.51508
3.59617
3.59579
3.59578
3.66966
3.66919
3.66917
3.72849
3.72792
3.7279
3.76647
3.76582
3.7658
3.78252
3.78184
3.78182
3.78246
3.78178
3.78176
3.76631
3.76566
3.76565
3.72826
3.72769
3.72767
3.66939
3.66892
3.66891
3.59587
3.59548
3.59548
3.51514
3.51483
3.51483
3.44222
3.44192
3.44192
3.39584
3.39551
3.39551
3.40379
3.4034
3.4034
3.50542
3.50491
3.50491
3.75655
3.75594
3.75593
4.2642
4.26353
4.26352
5.34393
5.34346
5.34343
8.37054
8.37057
8.37053
20.7189
20.7189
20.719
21.0414
21.0414
21.0415
8.30123
8.30127
8.30123
5.14236
5.14195
5.1419
4.00592
4.00528
4.00528
3.45596
3.45541
3.4554
3.16199
3.16156
3.16156
3.0184
3.01808
3.01808
2.97377
2.97353
2.97353
2.99186
2.99166
2.99166
3.04501
3.04481
3.0448
3.11288
3.11263
3.11262
3.17837
3.17804
3.17803
3.23238
3.23197
3.23196
3.26807
3.26758
3.26757
3.28339
3.28287
3.28286
3.28333
3.28282
3.28281
3.26793
3.26744
3.26743
3.23217
3.23176
3.23175
3.17815
3.17782
3.17781
3.11265
3.11239
3.11239
3.0448
3.0446
3.0446
2.99172
2.99152
2.99152
2.97379
2.97355
2.97355
3.01865
3.01833
3.01833
3.16246
3.16203
3.16203
3.45651
3.45596
3.45595
4.00608
4.00544
4.00543
5.14144
5.14101
5.14097
8.29988
8.29992
8.29988
21.0399
21.0398
21.0399
21.3407
21.3407
21.3408
8.27534
8.27539
8.27535
4.97544
4.97508
4.97501
3.78318
3.78258
3.78257
3.19738
3.19687
3.19686
2.86823
2.86787
2.86786
2.68848
2.68823
2.68823
2.61009
2.60993
2.60993
2.60033
2.60022
2.60022
2.63285
2.63274
2.63275
2.68659
2.68644
2.68644
2.74303
2.74283
2.74283
2.7915
2.79123
2.79122
2.82446
2.82414
2.82413
2.83892
2.83857
2.83856
2.83887
2.83853
2.83852
2.82433
2.82401
2.824
2.79132
2.79105
2.79104
2.74285
2.74265
2.74265
2.68643
2.68628
2.68628
2.63269
2.63258
2.63259
2.60026
2.60015
2.60015
2.61018
2.61002
2.61002
2.68881
2.68856
2.68856
2.86881
2.86844
2.86844
3.19807
3.19756
3.19755
3.78348
3.78286
3.78285
4.97463
4.97425
4.97419
8.27408
8.27413
8.27408
21.3391
21.3391
21.3392
21.6191
21.619
21.6191
8.28726
8.28734
8.28731
4.83986
4.83954
4.83945
3.5901
3.58953
3.58951
2.97232
2.97184
2.97184
2.61478
2.61446
2.61446
2.40519
2.40501
2.40501
2.29715
2.29705
2.29706
2.26108
2.26102
2.26104
2.27264
2.27259
2.27263
2.31107
2.311
2.31102
2.35728
2.35718
2.35719
2.39932
2.39918
2.39918
2.42903
2.42885
2.42885
2.44246
2.44226
2.44226
2.44242
2.44222
2.44222
2.42892
2.42874
2.42874
2.39917
2.39903
2.39903
2.35714
2.35705
2.35706
2.31098
2.31091
2.31093
2.27254
2.27248
2.27252
2.26107
2.26101
2.26103
2.2973
2.29721
2.29721
2.40559
2.4054
2.4054
2.61545
2.61514
2.61513
2.97316
2.97267
2.97267
3.59054
3.58995
3.58992
4.83911
4.83878
4.83869
8.28606
8.28614
8.28612
21.6174
21.6174
21.6174
21.8763
21.8762
21.8763
8.33231
8.33246
8.33245
4.73275
4.73246
4.73234
3.4226
3.42204
3.422
2.77483
2.77437
2.77436
2.39444
2.39417
2.39417
2.16132
2.16119
2.16119
2.02853
2.02848
2.02849
1.96871
1.96868
1.96873
1.95972
1.95971
1.95977
1.98198
1.98196
1.98202
2.0168
2.01676
2.01681
2.05149
2.05143
2.05147
2.07737
2.07729
2.07732
2.08956
2.08947
2.08949
2.08952
2.08943
2.08946
2.07727
2.07719
2.07722
2.05137
2.05131
2.05135
2.01671
2.01668
2.01673
1.98196
1.98194
1.982
1.95966
1.95964
1.95971
1.96874
1.96872
1.96877
2.02873
2.02868
2.02869
2.16177
2.16164
2.16164
2.39521
2.39493
2.39493
2.77581
2.77535
2.77534
3.42317
3.42259
3.42255
4.73204
4.73174
4.73162
8.33116
8.3313
8.3313
21.8745
21.8745
21.8746
22.1113
22.1113
22.1114
8.4091
8.40921
8.4092
4.6522
4.65191
4.65177
3.27806
3.2775
3.27744
2.60081
2.60037
2.60035
2.20186
2.20162
2.20162
1.95116
1.95107
1.95107
1.79904
1.79901
1.79905
1.71894
1.71893
1.719
1.69071
1.69072
1.69081
1.69655
1.69656
1.69665
1.71909
1.71909
1.71917
1.7456
1.7456
1.74567
1.76712
1.7671
1.76718
1.77785
1.77783
1.7779
1.77782
1.77779
1.77787
1.76704
1.76702
1.7671
1.74552
1.74551
1.74558
1.71905
1.71905
1.71914
1.69659
1.6966
1.69669
1.69068
1.6907
1.69078
1.71901
1.719
1.71907
1.79926
1.79924
1.79927
1.95165
1.95156
1.95156
2.20271
2.20247
2.20247
2.60193
2.60149
2.60147
3.27878
3.2782
3.27814
4.6516
4.6513
4.65116
8.40797
8.40809
8.40808
22.1096
22.1095
22.1096
22.3231
22.3231
22.3232
8.50756
8.50763
8.50757
4.59497
4.59466
4.59449
3.15494
3.15436
3.15428
2.44797
2.44754
2.44751
2.03364
2.03342
2.03342
1.77071
1.77064
1.77064
1.60478
1.60477
1.60481
1.50858
1.50859
1.50867
1.46337
1.4634
1.4635
1.45336
1.45341
1.4535
1.46327
1.46331
1.46341
1.48108
1.48112
1.48122
1.49785
1.49787
1.49798
1.50695
1.50696
1.50708
1.50692
1.50694
1.50705
1.49778
1.49781
1.49792
1.48103
1.48106
1.48116
1.46327
1.46331
1.46341
1.45345
1.45349
1.45359
1.46337
1.4634
1.4635
1.50867
1.50868
1.50876
1.60502
1.60501
1.60505
1.77122
1.77116
1.77116
2.03456
2.03434
2.03434
2.44923
2.4488
2.44877
3.15582
3.15522
3.15514
4.5945
4.59418
4.59401
8.50646
8.50653
8.50647
22.3214
22.3213
22.3214
22.5104
22.5103
22.5104
8.60754
8.60765
8.60763
4.55575
4.55545
4.55526
3.0526
3.052
3.0519
2.31603
2.3156
2.31556
1.88866
1.88845
1.88844
1.61801
1.61796
1.61796
1.44346
1.44346
1.44351
1.33565
1.33568
1.33576
1.2765
1.27655
1.27664
1.25219
1.25225
1.25234
1.24991
1.24997
1.25008
1.25903
1.2591
1.25921
1.27093
1.27099
1.27111
1.2783
1.27836
1.27848
1.27828
1.27834
1.27847
1.27088
1.27094
1.27106
1.259
1.25907
1.25918
1.24994
1.25
1.25011
1.25231
1.25237
1.25246
1.27652
1.27657
1.27666
1.33575
1.33578
1.33586
1.4437
1.4437
1.44375
1.61854
1.61849
1.61849
1.88964
1.88943
1.88942
2.31742
2.31698
2.31694
3.05361
3.05298
3.05288
4.55526
4.55496
4.55476
8.60642
8.60654
8.60652
22.5086
22.5086
22.5086
22.6683
22.6682
22.6683
8.69474
8.69516
8.69516
4.5311
4.53087
4.53064
2.97195
2.97132
2.9712
2.20706
2.20661
2.20656
1.76852
1.76831
1.76829
1.49364
1.49359
1.4936
1.31481
1.31482
1.31486
1.19967
1.19971
1.19978
1.13009
1.13014
1.13023
1.09393
1.09399
1.09409
1.08089
1.08096
1.08107
1.08208
1.08216
1.08227
1.08942
1.08949
1.08962
1.09513
1.0952
1.09533
1.09512
1.09519
1.09532
1.08939
1.08946
1.08958
1.08207
1.08215
1.08226
1.08095
1.08102
1.08112
1.09407
1.09413
1.09422
1.13012
1.13018
1.13026
1.19976
1.1998
1.19987
1.31504
1.31505
1.3151
1.49418
1.49413
1.49413
1.76954
1.76933
1.76931
2.20855
2.20808
2.20804
2.97302
2.97235
2.97224
4.53037
4.53013
4.5299
8.69356
8.69399
8.69399
22.6665
22.6665
22.6665
22.7842
22.7842
22.7842
8.78435
8.78476
8.78478
4.52401
4.52376
4.52351
2.91572
2.91504
2.91491
2.12568
2.12519
2.12514
1.67801
1.67779
1.67777
1.40127
1.40122
1.40122
1.22118
1.22119
1.22123
1.10221
1.10225
1.10232
1.0258
1.02585
1.02593
0.981035
0.981089
0.98118
0.959708
0.959769
0.959869
0.954585
0.954652
0.954764
0.958226
0.958294
0.958416
0.962549
0.962617
0.962745
0.96254
0.962608
0.962736
0.958204
0.958273
0.958394
0.954587
0.954654
0.954765
0.959772
0.959832
0.959933
0.981177
0.98123
0.981321
1.02584
1.02589
1.02597
1.1023
1.10234
1.10241
1.22141
1.22142
1.22146
1.40181
1.40176
1.40175
1.67906
1.67883
1.67882
2.12725
2.12674
2.1267
2.91687
2.91615
2.91602
4.52327
4.52301
4.52275
8.7831
8.78352
8.78354
22.7826
22.7825
22.7825
22.8479
22.8479
22.8479
8.84928
8.84952
8.84957
4.52694
4.52664
4.52639
2.8858
2.88509
2.88495
2.07912
2.07861
2.07856
1.62579
1.62555
1.62553
1.34854
1.34848
1.34848
1.1686
1.1686
1.16863
1.04818
1.04821
1.04827
0.968332
0.968373
0.96845
0.918819
0.91886
0.918948
0.892717
0.892762
0.892861
0.883877
0.883928
0.884038
0.885306
0.885359
0.885479
0.88878
0.888834
0.88896
0.888773
0.888827
0.888954
0.88529
0.885343
0.885463
0.883886
0.883937
0.884047
0.892785
0.89283
0.892929
0.918959
0.918999
0.919087
0.968371
0.968412
0.968489
1.04826
1.04829
1.04835
1.16881
1.16881
1.16884
1.34907
1.34901
1.34901
1.62684
1.62661
1.62659
2.08072
2.0802
2.08015
2.88699
2.88625
2.88612
4.5263
4.52599
4.52574
8.848
8.84826
8.8483
22.8462
22.8462
22.8462
)
;

boundaryField
{
    freeSurface
    {
        type            slip;
    }
    inlet
    {
        type            cyclic;
    }
    outlet
    {
        type            cyclic;
    }
    sidewalls
    {
        type            omegaWallFunction;
        Cmu             0.09;
        kappa           0.41;
        E               9.8;
        beta1           0.075;
        blended         false;
        value           nonuniform List<scalar> 
192
(
736.722
5.94249
7.93108
9.29103
10.3934
11.355
12.2162
13.0221
13.7923
14.5321
15.2399
15.9118
16.5478
17.1477
17.7112
18.2382
18.7295
19.1867
19.6119
20.0076
20.3764
20.7204
21.0414
21.3407
21.6191
21.8763
22.1113
22.3231
22.5104
22.6683
22.7842
22.8479
736.722
5.94247
7.93106
9.29101
10.3934
11.3549
12.2162
13.0221
13.7923
14.5321
15.2399
15.9118
16.5477
17.1477
17.7112
18.2382
18.7295
19.1867
19.6119
20.0076
20.3764
20.7204
21.0414
21.3407
21.619
21.8762
22.1113
22.3231
22.5103
22.6682
22.7842
22.8479
736.722
5.94251
7.93111
9.29106
10.3934
11.355
12.2162
13.0222
13.7923
14.5321
15.2399
15.9119
16.5478
17.1478
17.7113
18.2383
18.7296
19.1868
19.612
20.0077
20.3765
20.7205
21.0415
21.3408
21.6191
21.8763
22.1114
22.3232
22.5104
22.6683
22.7842
22.8479
736.722
5.94203
7.9305
9.29038
10.3927
11.3542
12.2154
13.0213
13.7914
14.5312
15.2389
15.9108
16.5467
17.1466
17.7101
18.2371
18.7283
19.1854
19.6106
20.0063
20.375
20.7189
21.0399
21.3391
21.6174
21.8745
22.1096
22.3214
22.5086
22.6665
22.7826
22.8462
736.722
5.94201
7.93047
9.29036
10.3927
11.3542
12.2154
13.0213
13.7914
14.5312
15.2389
15.9108
16.5467
17.1466
17.7101
18.2371
18.7283
19.1854
19.6106
20.0063
20.375
20.7189
21.0398
21.3391
21.6174
21.8745
22.1095
22.3213
22.5086
22.6665
22.7825
22.8462
736.722
5.94205
7.93052
9.29041
10.3927
11.3543
12.2155
13.0213
13.7915
14.5312
15.239
15.9109
16.5468
17.1467
17.7102
18.2372
18.7285
19.1855
19.6107
20.0064
20.3751
20.719
21.0399
21.3392
21.6174
21.8746
22.1096
22.3214
22.5086
22.6665
22.7825
22.8462
)
;
    }
    noSlipWalls
    {
        type            omegaWallFunction;
        Cmu             0.09;
        kappa           0.41;
        E               9.8;
        beta1           0.075;
        blended         false;
        value           nonuniform List<scalar> 
90
(
736.722
1471.07
1471.07
1471.07
1471.07
1471.07
1471.07
1471.07
1471.07
1471.07
1471.07
1471.07
1471.07
1471.07
1471.07
1471.07
1471.07
1471.07
1471.07
1471.07
1471.07
1471.07
1471.07
1471.07
1471.07
1471.07
1471.07
1471.07
1471.07
736.722
736.722
1471.07
1471.07
1471.07
1471.07
1471.07
1471.07
1471.07
1471.07
1471.07
1471.07
1471.07
1471.07
1471.07
1471.07
1471.07
1471.07
1471.07
1471.07
1471.07
1471.07
1471.07
1471.07
1471.07
1471.07
1471.07
1471.07
1471.07
1471.07
736.722
736.722
1471.07
1471.07
1471.07
1471.07
1471.07
1471.07
1471.07
1471.07
1471.07
1471.07
1471.07
1471.07
1471.07
1471.07
1471.07
1471.07
1471.07
1471.07
1471.07
1471.07
1471.07
1471.07
1471.07
1471.07
1471.07
1471.07
1471.07
1471.07
736.722
)
;
    }
}


// ************************************************************************* //
