/*--------------------------------*- C++ -*----------------------------------*\
  =========                 |
  \\      /  F ield         | OpenFOAM: The Open Source CFD Toolbox
   \\    /   O peration     | Website:  https://openfoam.org
    \\  /    A nd           | Version:  6
     \\/     M anipulation  |
\*---------------------------------------------------------------------------*/
FoamFile
{
    version     2.0;
    format      ascii;
    class       volScalarField;
    location    "20";
    object      p;
}
// * * * * * * * * * * * * * * * * * * * * * * * * * * * * * * * * * * * * * //

dimensions      [0 2 -2 0 0 0 0];

internalField   nonuniform List<scalar> 
2880
(
4.28933e-15
1.70594e-08
6.66568e-08
-1.22981e-11
1.70471e-08
6.66619e-08
-4.648e-11
1.68681e-08
6.68651e-08
-2.12804e-10
1.71785e-08
6.67152e-08
-4.74692e-10
1.77209e-08
6.64281e-08
-8.7326e-10
1.84954e-08
6.60341e-08
-1.26602e-09
1.92615e-08
6.56373e-08
-1.58636e-09
1.98351e-08
6.53531e-08
-1.80366e-09
2.00445e-08
6.53394e-08
-1.88765e-09
2.0136e-08
6.53268e-08
-1.82317e-09
1.98845e-08
6.55054e-08
-1.78826e-09
1.92673e-08
6.60785e-08
-1.6409e-09
1.87086e-08
6.64813e-08
-1.45606e-09
1.81083e-08
6.68834e-08
-1.49837e-09
1.79219e-08
6.71008e-08
-1.49644e-09
1.78953e-08
6.71141e-08
-1.47887e-09
1.80747e-08
6.69121e-08
-1.68428e-09
1.86422e-08
6.65449e-08
-1.83413e-09
1.91693e-08
6.61649e-08
-1.88405e-09
1.97549e-08
6.56258e-08
-1.96271e-09
1.99509e-08
6.55043e-08
-1.86221e-09
1.99708e-08
6.53804e-08
-1.67122e-09
1.96061e-08
6.55531e-08
-1.36123e-09
1.90108e-08
6.58367e-08
-9.76866e-10
1.82476e-08
6.62132e-08
-5.87051e-10
1.74697e-08
6.6599e-08
-3.30179e-10
1.69224e-08
6.68891e-08
-1.6445e-10
1.66067e-08
6.70394e-08
-1.38481e-10
1.67846e-08
6.68361e-08
-1.4583e-10
1.67996e-08
6.68289e-08
-1.02667e-13
1.70587e-08
6.6657e-08
-1.18662e-11
1.70464e-08
6.66622e-08
-4.63066e-11
1.68684e-08
6.68647e-08
-2.12248e-10
1.71782e-08
6.67149e-08
-4.73553e-10
1.77189e-08
6.6429e-08
-8.71515e-10
1.84922e-08
6.60356e-08
-1.26394e-09
1.92574e-08
6.56392e-08
-1.58433e-09
1.98309e-08
6.53553e-08
-1.8017e-09
2.00407e-08
6.53413e-08
-1.8858e-09
2.01321e-08
6.53288e-08
-1.82136e-09
1.98803e-08
6.55078e-08
-1.7861e-09
1.92637e-08
6.608e-08
-1.63849e-09
1.87044e-08
6.6483e-08
-1.45306e-09
1.81036e-08
6.68851e-08
-1.49519e-09
1.79172e-08
6.71024e-08
-1.49325e-09
1.78905e-08
6.71157e-08
-1.47588e-09
1.807e-08
6.69139e-08
-1.68187e-09
1.8638e-08
6.65466e-08
-1.83197e-09
1.91656e-08
6.61664e-08
-1.88223e-09
1.97507e-08
6.56282e-08
-1.96082e-09
1.99473e-08
6.55061e-08
-1.86031e-09
1.99667e-08
6.53827e-08
-1.66916e-09
1.96021e-08
6.5555e-08
-1.35913e-09
1.90068e-08
6.58386e-08
-9.7509e-10
1.82444e-08
6.62146e-08
-5.85852e-10
1.74677e-08
6.65999e-08
-3.29588e-10
1.69222e-08
6.68887e-08
-1.64252e-10
1.6607e-08
6.70389e-08
-1.38078e-10
1.67839e-08
6.68363e-08
-1.45267e-10
1.67988e-08
6.68292e-08
-3.74161e-13
1.70575e-08
6.66573e-08
-1.11951e-11
1.70451e-08
6.66629e-08
-4.60967e-11
1.68691e-08
6.68636e-08
-2.11143e-10
1.71779e-08
6.6714e-08
-4.71155e-10
1.7715e-08
6.64303e-08
-8.67857e-10
1.84858e-08
6.60382e-08
-1.2596e-09
1.92496e-08
6.56427e-08
-1.58009e-09
1.98226e-08
6.53594e-08
-1.7976e-09
2.00336e-08
6.53444e-08
-1.88195e-09
2.01248e-08
6.53323e-08
-1.81763e-09
1.98721e-08
6.55123e-08
-1.78158e-09
1.92569e-08
6.60823e-08
-1.63353e-09
1.86966e-08
6.64859e-08
-1.44711e-09
1.80947e-08
6.6888e-08
-1.48889e-09
1.79082e-08
6.7105e-08
-1.48693e-09
1.78816e-08
6.71183e-08
-1.46993e-09
1.80611e-08
6.69168e-08
-1.6769e-09
1.86302e-08
6.65495e-08
-1.82747e-09
1.91589e-08
6.61687e-08
-1.87847e-09
1.97425e-08
6.56326e-08
-1.95688e-09
1.99404e-08
6.5509e-08
-1.85634e-09
1.99586e-08
6.53868e-08
-1.66486e-09
1.95943e-08
6.55585e-08
-1.35474e-09
1.89992e-08
6.58419e-08
-9.71361e-10
1.82381e-08
6.62172e-08
-5.83313e-10
1.74638e-08
6.66012e-08
-3.28399e-10
1.6922e-08
6.68878e-08
-1.63983e-10
1.66079e-08
6.70378e-08
-1.37451e-10
1.67827e-08
6.68369e-08
-1.44411e-10
1.67977e-08
6.68295e-08
-8.30975e-13
1.7056e-08
6.66577e-08
-1.00924e-11
1.70426e-08
6.66642e-08
-4.54322e-11
1.68693e-08
6.68626e-08
-2.08928e-10
1.71766e-08
6.67129e-08
-4.66911e-10
1.77082e-08
6.64325e-08
-8.61784e-10
1.84756e-08
6.60422e-08
-1.25259e-09
1.92372e-08
6.5648e-08
-1.57332e-09
1.98096e-08
6.53658e-08
-1.79099e-09
2.00228e-08
6.53488e-08
-1.87574e-09
2.01137e-08
6.53374e-08
-1.81161e-09
1.98594e-08
6.5519e-08
-1.77417e-09
1.92468e-08
6.6085e-08
-1.62552e-09
1.86844e-08
6.649e-08
-1.43799e-09
1.80815e-08
6.68922e-08
-1.47929e-09
1.78947e-08
6.71089e-08
-1.4773e-09
1.78681e-08
6.71222e-08
-1.46083e-09
1.80478e-08
6.6921e-08
-1.6689e-09
1.86181e-08
6.65537e-08
-1.82009e-09
1.91489e-08
6.61714e-08
-1.8724e-09
1.97298e-08
6.56393e-08
-1.9505e-09
1.99301e-08
6.55129e-08
-1.85e-09
1.99459e-08
6.53932e-08
-1.65795e-09
1.95823e-08
6.55636e-08
-1.34765e-09
1.89873e-08
6.58467e-08
-9.65166e-10
1.82281e-08
6.6221e-08
-5.78811e-10
1.74573e-08
6.66033e-08
-3.26014e-10
1.69207e-08
6.68867e-08
-1.63182e-10
1.66082e-08
6.70366e-08
-1.36375e-10
1.67804e-08
6.68381e-08
-1.43289e-10
1.67962e-08
6.68298e-08
-1.32595e-12
1.70542e-08
6.66582e-08
-8.765e-12
1.7039e-08
6.66664e-08
-4.45673e-11
1.68687e-08
6.68619e-08
-2.05981e-10
1.71741e-08
6.67122e-08
-4.6128e-10
1.76994e-08
6.64352e-08
-8.53835e-10
1.84627e-08
6.60469e-08
-1.24353e-09
1.92217e-08
6.56543e-08
-1.56458e-09
1.97931e-08
6.53738e-08
-1.78235e-09
2.00095e-08
6.53538e-08
-1.86762e-09
2.00999e-08
6.53432e-08
-1.80377e-09
1.98432e-08
6.55276e-08
-1.76436e-09
1.92347e-08
6.60874e-08
-1.61514e-09
1.8669e-08
6.64951e-08
-1.42646e-09
1.80646e-08
6.68976e-08
-1.46722e-09
1.78773e-08
6.71143e-08
-1.46517e-09
1.78507e-08
6.71274e-08
-1.44933e-09
1.80309e-08
6.69264e-08
-1.65851e-09
1.86027e-08
6.65587e-08
-1.81034e-09
1.91368e-08
6.61737e-08
-1.86445e-09
1.97135e-08
6.56477e-08
-1.94208e-09
1.99177e-08
6.5517e-08
-1.84179e-09
1.99299e-08
6.5401e-08
-1.64901e-09
1.95675e-08
6.55696e-08
-1.33845e-09
1.89726e-08
6.58522e-08
-9.57036e-10
1.82156e-08
6.62254e-08
-5.72794e-10
1.74487e-08
6.6606e-08
-3.22786e-10
1.69184e-08
6.68859e-08
-1.6207e-10
1.66079e-08
6.70359e-08
-1.35002e-10
1.67771e-08
6.68402e-08
-1.41893e-10
1.67944e-08
6.68303e-08
-1.93091e-12
1.70521e-08
6.66587e-08
-7.43927e-12
1.70345e-08
6.66693e-08
-4.38466e-11
1.68678e-08
6.68617e-08
-2.02826e-10
1.7171e-08
6.67116e-08
-4.54871e-10
1.76892e-08
6.64382e-08
-8.44584e-10
1.84484e-08
6.60515e-08
-1.23302e-09
1.92043e-08
6.56611e-08
-1.5544e-09
1.97745e-08
6.53826e-08
-1.77219e-09
1.99951e-08
6.53586e-08
-1.85805e-09
2.00846e-08
6.53492e-08
-1.79458e-09
1.98246e-08
6.55373e-08
-1.75276e-09
1.92215e-08
6.60892e-08
-1.60312e-09
1.86513e-08
6.65009e-08
-1.41328e-09
1.80448e-08
6.69042e-08
-1.45344e-09
1.78568e-08
6.71211e-08
-1.45132e-09
1.78302e-08
6.71342e-08
-1.43618e-09
1.80111e-08
6.69331e-08
-1.64649e-09
1.85849e-08
6.65644e-08
-1.79879e-09
1.91236e-08
6.61754e-08
-1.8551e-09
1.96948e-08
6.56571e-08
-1.93212e-09
1.99043e-08
6.55205e-08
-1.83222e-09
1.99118e-08
6.54097e-08
-1.63857e-09
1.9551e-08
6.55756e-08
-1.32775e-09
1.89564e-08
6.58577e-08
-9.4754e-10
1.8202e-08
6.62297e-08
-5.6587e-10
1.7439e-08
6.66088e-08
-3.19223e-10
1.69155e-08
6.68853e-08
-1.60975e-10
1.66072e-08
6.70357e-08
-1.33496e-10
1.67729e-08
6.6843e-08
-1.40316e-10
1.67924e-08
6.68308e-08
-2.70531e-12
1.70501e-08
6.6659e-08
-6.22283e-12
1.70296e-08
6.66724e-08
-4.34084e-11
1.6867e-08
6.68614e-08
-1.99742e-10
1.7168e-08
6.6711e-08
-4.48033e-10
1.76786e-08
6.64411e-08
-8.34405e-10
1.84333e-08
6.6056e-08
-1.22144e-09
1.91858e-08
6.56678e-08
-1.54314e-09
1.97546e-08
6.53917e-08
-1.76086e-09
1.99803e-08
6.53627e-08
-1.84735e-09
2.00685e-08
6.53549e-08
-1.78436e-09
1.98041e-08
6.55478e-08
-1.73978e-09
1.92078e-08
6.60901e-08
-1.58987e-09
1.86318e-08
6.65072e-08
-1.39883e-09
1.80228e-08
6.69119e-08
-1.43836e-09
1.78334e-08
6.71294e-08
-1.43616e-09
1.78069e-08
6.71423e-08
-1.42178e-09
1.7989e-08
6.69408e-08
-1.63324e-09
1.85655e-08
6.65707e-08
-1.78588e-09
1.911e-08
6.61762e-08
-1.84468e-09
1.96743e-08
6.56672e-08
-1.92089e-09
1.98905e-08
6.55232e-08
-1.82162e-09
1.98923e-08
6.54187e-08
-1.62699e-09
1.95339e-08
6.55813e-08
-1.31585e-09
1.89396e-08
6.58628e-08
-9.37043e-10
1.81877e-08
6.62335e-08
-5.58387e-10
1.74289e-08
6.66116e-08
-3.15595e-10
1.69127e-08
6.68846e-08
-1.60021e-10
1.66067e-08
6.70353e-08
-1.31905e-10
1.67683e-08
6.6846e-08
-1.38693e-10
1.67904e-08
6.68312e-08
-3.61809e-12
1.70483e-08
6.66592e-08
-5.37772e-12
1.70252e-08
6.66752e-08
-4.33508e-11
1.68675e-08
6.686e-08
-1.96976e-10
1.71661e-08
6.67093e-08
-4.41058e-10
1.76685e-08
6.64431e-08
-8.2365e-10
1.84184e-08
6.60595e-08
-1.20906e-09
1.91673e-08
6.56737e-08
-1.53102e-09
1.97348e-08
6.54e-08
-1.74858e-09
1.99662e-08
6.53654e-08
-1.83577e-09
2.00527e-08
6.53596e-08
-1.7735e-09
1.97831e-08
6.55583e-08
-1.72579e-09
1.91946e-08
6.60896e-08
-1.57577e-09
1.86118e-08
6.65132e-08
-1.38337e-09
1.79996e-08
6.69197e-08
-1.42225e-09
1.78084e-08
6.71383e-08
-1.41998e-09
1.77819e-08
6.71512e-08
-1.40638e-09
1.79657e-08
6.69487e-08
-1.61913e-09
1.85455e-08
6.65766e-08
-1.77196e-09
1.90969e-08
6.61754e-08
-1.83357e-09
1.96532e-08
6.56773e-08
-1.90871e-09
1.98774e-08
6.55243e-08
-1.81019e-09
1.98728e-08
6.5427e-08
-1.61449e-09
1.95171e-08
6.55857e-08
-1.30302e-09
1.89231e-08
6.58665e-08
-9.25894e-10
1.81739e-08
6.62364e-08
-5.50638e-10
1.74196e-08
6.66135e-08
-3.12142e-10
1.69112e-08
6.68829e-08
-1.59295e-10
1.66076e-08
6.70339e-08
-1.3043e-10
1.67643e-08
6.68487e-08
-1.37095e-10
1.67888e-08
6.68314e-08
-4.59282e-12
1.7047e-08
6.66589e-08
-5.07583e-12
1.7022e-08
6.66771e-08
-4.38445e-11
1.68706e-08
6.68565e-08
-1.94797e-10
1.7167e-08
6.67053e-08
-4.34238e-10
1.76607e-08
6.64428e-08
-8.1259e-10
1.84055e-08
6.60607e-08
-1.19599e-09
1.91505e-08
6.56771e-08
-1.51814e-09
1.97166e-08
6.54059e-08
-1.73547e-09
1.99544e-08
6.53651e-08
-1.8235e-09
2.00389e-08
6.53616e-08
-1.76225e-09
1.97633e-08
6.55673e-08
-1.71123e-09
1.91837e-08
6.60864e-08
-1.56123e-09
1.85931e-08
6.65174e-08
-1.36726e-09
1.79771e-08
6.69262e-08
-1.40548e-09
1.77835e-08
6.71465e-08
-1.40313e-09
1.77571e-08
6.71592e-08
-1.39034e-09
1.79431e-08
6.69553e-08
-1.60458e-09
1.85268e-08
6.65808e-08
-1.75748e-09
1.9086e-08
6.6172e-08
-1.82201e-09
1.96334e-08
6.56856e-08
-1.89577e-09
1.98665e-08
6.55223e-08
-1.79801e-09
1.9855e-08
6.54328e-08
-1.6012e-09
1.95023e-08
6.55873e-08
-1.2895e-09
1.89087e-08
6.58675e-08
-9.14366e-10
1.81621e-08
6.62367e-08
-5.42923e-10
1.74127e-08
6.66129e-08
-3.09135e-10
1.69125e-08
6.68787e-08
-1.5896e-10
1.6611e-08
6.70303e-08
-1.29195e-10
1.67614e-08
6.68505e-08
-1.35533e-10
1.67876e-08
6.68311e-08
-5.59079e-12
1.70464e-08
6.66581e-08
-5.25553e-12
1.70201e-08
6.66779e-08
-4.51404e-11
1.68777e-08
6.68495e-08
-1.93472e-10
1.7173e-08
6.66968e-08
-4.27887e-10
1.76577e-08
6.6438e-08
-8.01547e-10
1.83967e-08
6.60576e-08
-1.18255e-09
1.91378e-08
6.56761e-08
-1.50474e-09
1.97025e-08
6.54073e-08
-1.72177e-09
1.99471e-08
6.53598e-08
-1.81075e-09
2.00295e-08
6.53589e-08
-1.75081e-09
1.97474e-08
6.55722e-08
-1.69655e-09
1.91775e-08
6.60782e-08
-1.54686e-09
1.85788e-08
6.65175e-08
-1.35134e-09
1.79585e-08
6.6929e-08
-1.38892e-09
1.77619e-08
6.71515e-08
-1.38647e-09
1.77356e-08
6.71641e-08
-1.37452e-09
1.79243e-08
6.69583e-08
-1.59016e-09
1.85125e-08
6.65808e-08
-1.74289e-09
1.90799e-08
6.61636e-08
-1.81021e-09
1.96176e-08
6.56897e-08
-1.88233e-09
1.98603e-08
6.55153e-08
-1.78529e-09
1.98414e-08
6.54339e-08
-1.58735e-09
1.94918e-08
6.5584e-08
-1.27559e-09
1.88986e-08
6.58638e-08
-9.02782e-10
1.81548e-08
6.62326e-08
-5.35566e-10
1.74107e-08
6.66078e-08
-3.06845e-10
1.6919e-08
6.68702e-08
-1.59262e-10
1.66185e-08
6.70233e-08
-1.28112e-10
1.67599e-08
6.68512e-08
-1.34027e-10
1.6787e-08
6.68303e-08
-6.60918e-12
1.70467e-08
6.66563e-08
-5.8855e-12
1.70185e-08
6.66785e-08
-4.7511e-11
1.68903e-08
6.68379e-08
-1.93277e-10
1.71868e-08
6.66815e-08
-4.22355e-10
1.76626e-08
6.6426e-08
-7.90995e-10
1.83952e-08
6.60476e-08
-1.16926e-09
1.91321e-08
6.56683e-08
-1.49124e-09
1.96956e-08
6.54015e-08
-1.70789e-09
1.99472e-08
6.5347e-08
-1.79801e-09
2.00276e-08
6.53487e-08
-1.73956e-09
1.9739e-08
6.55699e-08
-1.68227e-09
1.91797e-08
6.60621e-08
-1.53332e-09
1.85727e-08
6.65102e-08
-1.3366e-09
1.7948e-08
6.69249e-08
-1.37365e-09
1.77479e-08
6.71502e-08
-1.37105e-09
1.77218e-08
6.71625e-08
-1.35989e-09
1.79136e-08
6.69544e-08
-1.57654e-09
1.85064e-08
6.65733e-08
-1.72871e-09
1.90822e-08
6.61472e-08
-1.79857e-09
1.96093e-08
6.56864e-08
-1.8689e-09
1.98617e-08
6.55007e-08
-1.7724e-09
1.98351e-08
6.54276e-08
-1.57338e-09
1.94886e-08
6.55735e-08
-1.26179e-09
1.88959e-08
6.58529e-08
-8.91605e-10
1.8155e-08
6.62215e-08
-5.28943e-10
1.74167e-08
6.65955e-08
-3.05581e-10
1.69333e-08
6.68549e-08
-1.60472e-10
1.66316e-08
6.70117e-08
-1.27166e-10
1.67585e-08
6.68518e-08
-1.32607e-10
1.67875e-08
6.68286e-08
-7.65922e-12
1.70483e-08
6.66535e-08
-6.83574e-12
1.7017e-08
6.66792e-08
-5.12942e-11
1.69099e-08
6.68205e-08
-1.94628e-10
1.72112e-08
6.66571e-08
-4.18094e-10
1.7679e-08
6.64037e-08
-7.81538e-10
1.84047e-08
6.60277e-08
-1.15675e-09
1.91371e-08
6.56504e-08
-1.47828e-09
1.96996e-08
6.53854e-08
-1.6945e-09
1.99583e-08
6.53237e-08
-1.78583e-09
2.00371e-08
6.53278e-08
-1.72902e-09
1.97424e-08
6.55565e-08
-1.66901e-09
1.91948e-08
6.60342e-08
-1.52123e-09
1.85801e-08
6.64908e-08
-1.3238e-09
1.79514e-08
6.69089e-08
-1.36049e-09
1.77475e-08
6.71375e-08
-1.35769e-09
1.77215e-08
6.71495e-08
-1.34719e-09
1.79167e-08
6.69387e-08
-1.56434e-09
1.85139e-08
6.65537e-08
-1.71555e-09
1.90974e-08
6.6119e-08
-1.78762e-09
1.9613e-08
6.56719e-08
-1.85605e-09
1.98745e-08
6.54753e-08
-1.75994e-09
1.98398e-08
6.54107e-08
-1.5599e-09
1.94962e-08
6.55526e-08
-1.24873e-09
1.89041e-08
6.58317e-08
-8.81418e-10
1.81662e-08
6.62002e-08
-5.23544e-10
1.74343e-08
6.65728e-08
-3.05807e-10
1.69583e-08
6.68304e-08
-1.62925e-10
1.66516e-08
6.69944e-08
-1.26286e-10
1.67572e-08
6.68525e-08
-1.31303e-10
1.67891e-08
6.68258e-08
-8.76064e-12
1.70514e-08
6.66491e-08
-7.91717e-12
1.70169e-08
6.66784e-08
-5.66639e-11
1.69377e-08
6.67964e-08
-1.98232e-10
1.7249e-08
6.66213e-08
-4.15764e-10
1.77108e-08
6.63679e-08
-7.73975e-10
1.84291e-08
6.59946e-08
-1.14582e-09
1.91569e-08
6.56193e-08
-1.46658e-09
1.97185e-08
6.53557e-08
-1.68235e-09
1.99846e-08
6.52866e-08
-1.77491e-09
2.00624e-08
6.52925e-08
-1.7198e-09
1.97627e-08
6.55276e-08
-1.65756e-09
1.92283e-08
6.59898e-08
-1.51137e-09
1.86074e-08
6.64539e-08
-1.31374e-09
1.79753e-08
6.6875e-08
-1.35026e-09
1.77676e-08
6.71072e-08
-1.34722e-09
1.77418e-08
6.71188e-08
-1.33719e-09
1.79404e-08
6.6905e-08
-1.55436e-09
1.85411e-08
6.65166e-08
-1.70413e-09
1.91309e-08
6.60741e-08
-1.77799e-09
1.96337e-08
6.56418e-08
-1.84446e-09
1.9903e-08
6.54354e-08
-1.74867e-09
1.98598e-08
6.53797e-08
-1.54765e-09
1.95186e-08
6.55181e-08
-1.23716e-09
1.89274e-08
6.57972e-08
-8.7299e-10
1.81927e-08
6.61656e-08
-5.20061e-10
1.74675e-08
6.65365e-08
-3.08207e-10
1.69968e-08
6.67947e-08
-1.66844e-10
1.66798e-08
6.69704e-08
-1.25353e-10
1.67572e-08
6.68518e-08
-1.30141e-10
1.67924e-08
6.68215e-08
-9.94157e-12
1.70568e-08
6.66427e-08
-8.89268e-12
1.7019e-08
6.66753e-08
-6.36528e-11
1.69744e-08
6.67648e-08
-2.05193e-10
1.73031e-08
6.65725e-08
-4.16422e-10
1.7762e-08
6.63156e-08
-7.69359e-10
1.84725e-08
6.59454e-08
-1.13749e-09
1.91955e-08
6.5572e-08
-1.45709e-09
1.97564e-08
6.53091e-08
-1.67235e-09
2.003e-08
6.52326e-08
-1.76618e-09
2.0108e-08
6.5239e-08
-1.71274e-09
1.98053e-08
6.54786e-08
-1.64894e-09
1.92861e-08
6.59239e-08
-1.50469e-09
1.86615e-08
6.63932e-08
-1.3075e-09
1.80279e-08
6.68164e-08
-1.34402e-09
1.78166e-08
6.7052e-08
-1.34077e-09
1.77911e-08
6.70632e-08
-1.33098e-09
1.79926e-08
6.68467e-08
-1.54764e-09
1.85953e-08
6.64558e-08
-1.69542e-09
1.91888e-08
6.60077e-08
-1.77053e-09
1.96768e-08
6.55914e-08
-1.83503e-09
1.99518e-08
6.53774e-08
-1.73955e-09
1.98994e-08
6.53313e-08
-1.53764e-09
1.95599e-08
6.5467e-08
-1.2281e-09
1.89695e-08
6.57461e-08
-8.67372e-10
1.82383e-08
6.61147e-08
-5.19514e-10
1.752e-08
6.64838e-08
-3.13735e-10
1.70515e-08
6.67458e-08
-1.72531e-10
1.67169e-08
6.69393e-08
-1.24199e-10
1.67593e-08
6.68488e-08
-1.29146e-10
1.67979e-08
6.68151e-08
-1.12414e-11
1.70652e-08
6.66335e-08
-9.63261e-12
1.70241e-08
6.66688e-08
-7.2768e-11
1.70205e-08
6.6726e-08
-2.17104e-10
1.73757e-08
6.651e-08
-4.21755e-10
1.78371e-08
6.6244e-08
-7.69034e-10
1.85392e-08
6.58772e-08
-1.13311e-09
1.92567e-08
6.5506e-08
-1.45103e-09
1.98169e-08
6.52434e-08
-1.6657e-09
2.00983e-08
6.51591e-08
-1.7609e-09
2.01784e-08
6.51643e-08
-1.70892e-09
1.98752e-08
6.54056e-08
-1.64458e-09
1.93743e-08
6.58318e-08
-1.50254e-09
1.875e-08
6.63028e-08
-1.3065e-09
1.81174e-08
6.67261e-08
-1.3432e-09
1.79033e-08
6.69645e-08
-1.33988e-09
1.78781e-08
6.69753e-08
-1.33004e-09
1.80817e-08
6.67566e-08
-1.54559e-09
1.86836e-08
6.63655e-08
-1.69078e-09
1.92771e-08
6.59149e-08
-1.76632e-09
1.97472e-08
6.55169e-08
-1.82895e-09
2.00252e-08
6.52982e-08
-1.73378e-09
1.99622e-08
6.5263e-08
-1.53117e-09
1.96235e-08
6.53971e-08
-1.22286e-09
1.90344e-08
6.56762e-08
-8.65956e-10
1.83072e-08
6.60446e-08
-5.2338e-10
1.75967e-08
6.64114e-08
-3.2356e-10
1.7125e-08
6.66826e-08
-1.80397e-10
1.67633e-08
6.69012e-08
-1.2277e-10
1.67644e-08
6.68425e-08
-1.28343e-10
1.68064e-08
6.6806e-08
-1.27112e-11
1.70774e-08
6.66207e-08
-1.00961e-11
1.70333e-08
6.66579e-08
-8.43342e-11
1.70757e-08
6.66803e-08
-2.35002e-10
1.74686e-08
6.64331e-08
-4.33813e-10
1.7942e-08
6.61492e-08
-7.74477e-10
1.86358e-08
6.57848e-08
-1.13426e-09
1.93468e-08
6.54167e-08
-1.44992e-09
1.99062e-08
6.51539e-08
-1.66382e-09
2.01946e-08
6.50623e-08
-1.76055e-09
2.02778e-08
6.50655e-08
-1.70975e-09
1.99765e-08
6.53059e-08
-1.64655e-09
1.94985e-08
6.57101e-08
-1.50669e-09
1.8879e-08
6.61781e-08
-1.31255e-09
1.82517e-08
6.65981e-08
-1.34992e-09
1.80364e-08
6.68381e-08
-1.34683e-09
1.80116e-08
6.68488e-08
-1.33631e-09
1.82155e-08
6.66291e-08
-1.54991e-09
1.88125e-08
6.6241e-08
-1.69229e-09
1.94014e-08
6.57923e-08
-1.76673e-09
1.98491e-08
6.54156e-08
-1.82762e-09
2.01273e-08
6.5195e-08
-1.7327e-09
2.00536e-08
6.51708e-08
-1.52974e-09
1.97156e-08
6.53039e-08
-1.22311e-09
1.91282e-08
6.55829e-08
-8.70285e-10
1.84062e-08
6.59502e-08
-5.33292e-10
1.77033e-08
6.6315e-08
-3.38978e-10
1.72187e-08
6.66047e-08
-1.90388e-10
1.68187e-08
6.68561e-08
-1.21049e-10
1.67736e-08
6.68319e-08
-1.27763e-10
1.68187e-08
6.67933e-08
-1.44145e-11
1.70947e-08
6.6603e-08
-1.02528e-11
1.70477e-08
6.66414e-08
-9.80652e-11
1.71397e-08
6.66281e-08
-2.58651e-10
1.75812e-08
6.63421e-08
-4.51088e-10
1.80802e-08
6.60265e-08
-7.86621e-10
1.8774e-08
6.56574e-08
-1.14238e-09
1.94812e-08
6.529e-08
-1.45534e-09
2.00396e-08
6.50266e-08
-1.66818e-09
2.03313e-08
6.49313e-08
-1.76533e-09
2.04135e-08
6.49356e-08
-1.7169e-09
2.01162e-08
6.51741e-08
-1.65685e-09
1.96644e-08
6.55551e-08
-1.5194e-09
1.90536e-08
6.60165e-08
-1.32811e-09
1.84369e-08
6.64286e-08
-1.36748e-09
1.82238e-08
6.66683e-08
-1.36506e-09
1.81993e-08
6.66795e-08
-1.35223e-09
1.84003e-08
6.64603e-08
-1.56259e-09
1.89869e-08
6.60795e-08
-1.70213e-09
1.95674e-08
6.56363e-08
-1.77335e-09
1.99895e-08
6.5282e-08
-1.83147e-09
2.02652e-08
6.50612e-08
-1.73765e-09
2.0186e-08
6.50438e-08
-1.53484e-09
1.98514e-08
6.51734e-08
-1.23045e-09
1.92661e-08
6.54526e-08
-8.81223e-10
1.85469e-08
6.58209e-08
-5.48865e-10
1.78435e-08
6.61908e-08
-3.60558e-10
1.73324e-08
6.6513e-08
-2.02046e-10
1.68829e-08
6.6804e-08
-1.19006e-10
1.6788e-08
6.68158e-08
-1.27444e-10
1.68361e-08
6.67758e-08
-1.64303e-11
1.71183e-08
6.65792e-08
-1.00778e-11
1.70688e-08
6.6618e-08
-1.13163e-10
1.72109e-08
6.65701e-08
-2.82983e-10
1.77061e-08
6.62396e-08
-4.64661e-10
1.82429e-08
6.58756e-08
-8.0504e-10
1.89565e-08
6.54921e-08
-1.15787e-09
1.96638e-08
6.51225e-08
-1.4684e-09
2.02202e-08
6.48599e-08
-1.67987e-09
2.05145e-08
6.47611e-08
-1.77209e-09
2.05925e-08
6.47644e-08
-1.73204e-09
2.03135e-08
6.49927e-08
-1.67245e-09
1.98787e-08
6.5357e-08
-1.54312e-09
1.92826e-08
6.58115e-08
-1.35601e-09
1.86806e-08
6.6213e-08
-1.39913e-09
1.84723e-08
6.64515e-08
-1.39777e-09
1.84482e-08
6.64633e-08
-1.38044e-09
1.86434e-08
6.62454e-08
-1.58578e-09
1.92153e-08
6.58744e-08
-1.71775e-09
1.97826e-08
6.54369e-08
-1.78781e-09
2.01872e-08
6.5099e-08
-1.83836e-09
2.04473e-08
6.48864e-08
-1.74983e-09
2.03655e-08
6.48768e-08
-1.54752e-09
2.00341e-08
6.50037e-08
-1.24546e-09
1.94523e-08
6.52818e-08
-8.97946e-10
1.87317e-08
6.56531e-08
-5.61936e-10
1.80085e-08
6.60394e-08
-3.8282e-10
1.74586e-08
6.64095e-08
-2.1499e-10
1.69543e-08
6.67458e-08
-1.16591e-10
1.68089e-08
6.67927e-08
-1.27427e-10
1.68598e-08
6.67522e-08
-1.88499e-11
1.71498e-08
6.65478e-08
-9.51502e-12
1.70976e-08
6.65864e-08
-1.26957e-10
1.72855e-08
6.65073e-08
-3.03992e-10
1.7836e-08
6.61287e-08
-4.85251e-10
1.84346e-08
6.57027e-08
-8.35534e-10
1.9176e-08
6.53018e-08
-1.18323e-09
1.9866e-08
6.49453e-08
-1.49137e-09
2.04175e-08
6.46863e-08
-1.70062e-09
2.07176e-08
6.45801e-08
-1.78737e-09
2.07994e-08
6.45738e-08
-1.75617e-09
2.0568e-08
6.47631e-08
-1.67717e-09
2.01369e-08
6.51041e-08
-1.57955e-09
1.95918e-08
6.55388e-08
-1.39756e-09
1.89999e-08
6.59354e-08
-1.43967e-09
1.87888e-08
6.61756e-08
-1.4395e-09
1.87647e-08
6.61886e-08
-1.42185e-09
1.89617e-08
6.59685e-08
-1.62124e-09
1.95229e-08
6.56023e-08
-1.72396e-09
2.00425e-08
6.51834e-08
-1.81122e-09
2.04421e-08
6.48676e-08
-1.85388e-09
2.06573e-08
6.46921e-08
-1.77106e-09
2.05657e-08
6.46982e-08
-1.5701e-09
2.02335e-08
6.48272e-08
-1.2706e-09
1.96581e-08
6.51014e-08
-9.27313e-10
1.89542e-08
6.54603e-08
-5.81208e-10
1.82028e-08
6.58646e-08
-4.01223e-10
1.759e-08
6.62968e-08
-2.26957e-10
1.70292e-08
6.66832e-08
-1.13846e-10
1.68378e-08
6.67614e-08
-1.27769e-10
1.68915e-08
6.67212e-08
-2.17533e-11
1.71908e-08
6.65073e-08
-8.49745e-12
1.71355e-08
6.65453e-08
-1.37835e-10
1.7361e-08
6.64409e-08
-3.26624e-10
1.79736e-08
6.60118e-08
-5.27181e-10
1.86613e-08
6.55163e-08
-8.83231e-10
1.94108e-08
6.51135e-08
-1.22396e-09
2.00755e-08
6.47762e-08
-1.52632e-09
2.0619e-08
6.45204e-08
-1.73235e-09
2.0924e-08
6.44067e-08
-1.81935e-09
2.10172e-08
6.4389e-08
-1.79186e-09
2.08361e-08
6.45315e-08
-1.69241e-09
2.04259e-08
6.48309e-08
-1.62786e-09
1.99764e-08
6.52029e-08
-1.44863e-09
1.93994e-08
6.55872e-08
-1.46162e-09
1.91606e-08
6.58257e-08
-1.46234e-09
1.91366e-08
6.58397e-08
-1.47187e-09
1.93594e-08
6.56209e-08
-1.66857e-09
1.99057e-08
6.5267e-08
-1.7414e-09
2.03324e-08
6.49111e-08
-1.84607e-09
2.07107e-08
6.46341e-08
-1.88492e-09
2.08766e-08
6.45042e-08
-1.80327e-09
2.07697e-08
6.45267e-08
-1.60469e-09
2.0437e-08
6.46586e-08
-1.31015e-09
1.98711e-08
6.49282e-08
-9.75277e-10
1.91924e-08
6.52704e-08
-6.20919e-10
1.84329e-08
6.56747e-08
-4.22203e-10
1.77296e-08
6.61787e-08
-2.36003e-10
1.71048e-08
6.66169e-08
-1.10725e-10
1.68757e-08
6.67207e-08
-1.28524e-10
1.69326e-08
6.66811e-08
-2.5173e-11
1.72426e-08
6.64562e-08
-6.88702e-12
1.71834e-08
6.64936e-08
-1.44491e-10
1.74357e-08
6.63712e-08
-3.5567e-10
1.81207e-08
6.58919e-08
-5.84401e-10
1.88978e-08
6.53356e-08
-9.46607e-10
1.96498e-08
6.49367e-08
-1.28014e-09
2.03054e-08
6.46021e-08
-1.57373e-09
2.08362e-08
6.43512e-08
-1.7756e-09
2.11418e-08
6.42334e-08
-1.86357e-09
2.12468e-08
6.42046e-08
-1.83944e-09
2.10985e-08
6.43174e-08
-1.74531e-09
2.07379e-08
6.45724e-08
-1.69161e-09
2.03702e-08
6.48731e-08
-1.51656e-09
1.98301e-08
6.52247e-08
-1.49873e-09
1.95709e-08
6.54527e-08
-1.49959e-09
1.95473e-08
6.54665e-08
-1.53875e-09
1.97887e-08
6.52586e-08
-1.73114e-09
2.02988e-08
6.49367e-08
-1.7955e-09
2.06443e-08
6.46535e-08
-1.89281e-09
2.09737e-08
6.44181e-08
-1.92825e-09
2.1107e-08
6.43174e-08
-1.84687e-09
2.09856e-08
6.43548e-08
-1.65181e-09
2.06559e-08
6.44871e-08
-1.36411e-09
2.01045e-08
6.47492e-08
-1.03843e-09
1.94351e-08
6.50912e-08
-6.77577e-10
1.86734e-08
6.54913e-08
-4.50976e-10
1.78789e-08
6.60585e-08
-2.40905e-10
1.71797e-08
6.65471e-08
-1.07065e-10
1.69237e-08
6.66694e-08
-1.2971e-10
1.69847e-08
6.66305e-08
-2.90583e-11
1.73064e-08
6.63934e-08
-4.53973e-12
1.7242e-08
6.64303e-08
-1.47653e-10
1.75116e-08
6.62967e-08
-3.90182e-10
1.82713e-08
6.57741e-08
-6.53642e-10
1.91309e-08
6.51703e-08
-1.02363e-09
1.99037e-08
6.47587e-08
-1.3499e-09
2.05536e-08
6.44234e-08
-1.63374e-09
2.10651e-08
6.41829e-08
-1.83044e-09
2.13645e-08
6.40666e-08
-1.91838e-09
2.14787e-08
6.40286e-08
-1.89842e-09
2.13627e-08
6.41129e-08
-1.81738e-09
2.10599e-08
6.4323e-08
-1.77303e-09
2.07457e-08
6.45793e-08
-1.61046e-09
2.02567e-08
6.48922e-08
-1.59432e-09
2.0012e-08
6.51071e-08
-1.59475e-09
1.9989e-08
6.51199e-08
-1.63253e-09
2.02148e-08
6.49263e-08
-1.81069e-09
2.06736e-08
6.46415e-08
-1.8675e-09
2.0966e-08
6.4404e-08
-1.95114e-09
2.12384e-08
6.4212e-08
-1.98266e-09
2.13393e-08
6.414e-08
-1.90176e-09
2.1207e-08
6.41887e-08
-1.71165e-09
2.08864e-08
6.43169e-08
-1.4328e-09
2.03561e-08
6.45666e-08
-1.11429e-09
1.96931e-08
6.49095e-08
-7.47758e-10
1.8911e-08
6.53243e-08
-4.85815e-10
1.80322e-08
6.59404e-08
-2.42543e-10
1.72561e-08
6.64727e-08
-1.02702e-10
1.69825e-08
6.66065e-08
-1.31275e-10
1.70487e-08
6.65682e-08
-3.33064e-11
1.73825e-08
6.63185e-08
-1.65228e-12
1.73118e-08
6.63552e-08
-1.47995e-10
1.75887e-08
6.62184e-08
-4.25804e-10
1.84152e-08
6.56641e-08
-7.33459e-10
1.93644e-08
6.50153e-08
-1.11171e-09
2.01693e-08
6.45803e-08
-1.43213e-09
2.08109e-08
6.42482e-08
-1.70539e-09
2.12944e-08
6.40258e-08
-1.89528e-09
2.15785e-08
6.39185e-08
-1.98189e-09
2.16966e-08
6.38752e-08
-1.96736e-09
2.16155e-08
6.39299e-08
-1.90058e-09
2.13717e-08
6.4095e-08
-1.86939e-09
2.11118e-08
6.43099e-08
-1.72425e-09
2.06802e-08
6.45827e-08
-1.71654e-09
2.04593e-08
6.4782e-08
-1.71722e-09
2.04368e-08
6.47945e-08
-1.74633e-09
2.06379e-08
6.46169e-08
-1.905e-09
2.10389e-08
6.43707e-08
-1.94989e-09
2.12774e-08
6.41752e-08
-2.0195e-09
2.14916e-08
6.40274e-08
-2.04589e-09
2.15572e-08
6.39856e-08
-1.96647e-09
2.14201e-08
6.40408e-08
-1.78313e-09
2.11171e-08
6.4158e-08
-1.51519e-09
2.06167e-08
6.43888e-08
-1.20115e-09
1.9963e-08
6.47268e-08
-8.28163e-10
1.91496e-08
6.51665e-08
-5.22688e-10
1.81792e-08
6.58306e-08
-2.41744e-10
1.73338e-08
6.63945e-08
-9.78451e-11
1.70527e-08
6.65318e-08
-1.33141e-10
1.71252e-08
6.64939e-08
-3.78607e-11
1.74704e-08
6.62318e-08
1.41184e-12
1.73924e-08
6.62691e-08
-1.46756e-10
1.76668e-08
6.61374e-08
-4.64096e-10
1.85494e-08
6.55667e-08
-8.20402e-10
1.95946e-08
6.48709e-08
-1.20926e-09
2.04379e-08
6.44083e-08
-1.52378e-09
2.10671e-08
6.40835e-08
-1.78547e-09
2.15128e-08
6.3888e-08
-1.96473e-09
2.177e-08
6.37975e-08
-2.04636e-09
2.18831e-08
6.37541e-08
-2.04034e-09
2.18352e-08
6.37839e-08
-1.98935e-09
2.16488e-08
6.39073e-08
-1.97503e-09
2.14479e-08
6.40797e-08
-1.85153e-09
2.10767e-08
6.43135e-08
-1.85099e-09
2.08798e-08
6.4496e-08
-1.85271e-09
2.0858e-08
6.45089e-08
-1.87355e-09
2.10342e-08
6.43479e-08
-2.00905e-09
2.13742e-08
6.41395e-08
-2.03791e-09
2.15539e-08
6.39869e-08
-2.092e-09
2.17117e-08
6.388e-08
-2.10992e-09
2.17436e-08
6.38636e-08
-2.03568e-09
2.16109e-08
6.39195e-08
-1.86302e-09
2.13368e-08
6.40186e-08
-1.60705e-09
2.08764e-08
6.42214e-08
-1.29655e-09
2.02367e-08
6.45489e-08
-9.15322e-10
1.93855e-08
6.50181e-08
-5.62056e-10
1.83166e-08
6.57328e-08
-2.39836e-10
1.74127e-08
6.63139e-08
-9.29094e-11
1.71338e-08
6.64462e-08
-1.35322e-10
1.72137e-08
6.64079e-08
-4.2783e-11
1.75683e-08
6.61354e-08
4.01128e-12
1.7482e-08
6.61744e-08
-1.4642e-10
1.7746e-08
6.60563e-08
-5.06016e-10
1.8676e-08
6.54804e-08
-9.07396e-10
1.98181e-08
6.47334e-08
-1.30999e-09
2.07028e-08
6.42434e-08
-1.61823e-09
2.13157e-08
6.39293e-08
-1.86739e-09
2.17136e-08
6.37695e-08
-2.02602e-09
2.19302e-08
6.36996e-08
-2.09483e-09
2.20252e-08
6.36614e-08
-2.10072e-09
2.20026e-08
6.36776e-08
-2.06942e-09
2.18664e-08
6.37702e-08
-2.07657e-09
2.17222e-08
6.3907e-08
-1.98018e-09
2.14118e-08
6.41071e-08
-1.98674e-09
2.12378e-08
6.42735e-08
-1.98926e-09
2.12167e-08
6.42867e-08
-2.00212e-09
2.1369e-08
6.41415e-08
-2.10959e-09
2.1648e-08
6.39662e-08
-2.11742e-09
2.17709e-08
6.38495e-08
-2.15222e-09
2.18794e-08
6.37728e-08
-2.15767e-09
2.18856e-08
6.37698e-08
-2.09652e-09
2.17708e-08
6.38209e-08
-1.94471e-09
2.1539e-08
6.38985e-08
-1.70201e-09
2.11286e-08
6.40646e-08
-1.39695e-09
2.0507e-08
6.43794e-08
-1.00203e-09
1.96155e-08
6.48752e-08
-6.03757e-10
1.8447e-08
6.56443e-08
-2.39065e-10
1.74928e-08
6.62334e-08
-8.85516e-11
1.7224e-08
6.63519e-08
-1.37981e-10
1.73124e-08
6.63121e-08
-4.81295e-11
1.76723e-08
6.60333e-08
5.09825e-12
1.75768e-08
6.60759e-08
-1.47989e-10
1.78221e-08
6.59801e-08
-5.48305e-10
1.87981e-08
6.53993e-08
-9.90437e-10
2.00404e-08
6.45933e-08
-1.40675e-09
2.09618e-08
6.40806e-08
-1.70903e-09
2.15541e-08
6.37817e-08
-1.94017e-09
2.18934e-08
6.3663e-08
-2.0616e-09
2.2052e-08
6.36143e-08
-2.10851e-09
2.21135e-08
6.35878e-08
-2.12322e-09
2.21027e-08
6.36007e-08
-2.11297e-09
2.20045e-08
6.36761e-08
-2.14568e-09
2.19092e-08
6.37893e-08
-2.08269e-09
2.16564e-08
6.39649e-08
-2.09752e-09
2.15043e-08
6.41176e-08
-2.10053e-09
2.1484e-08
6.41304e-08
-2.10458e-09
2.16133e-08
6.39994e-08
-2.17813e-09
2.18345e-08
6.38483e-08
-2.16045e-09
2.19085e-08
6.37551e-08
-2.17477e-09
2.19799e-08
6.36951e-08
-2.17045e-09
2.1974e-08
6.36947e-08
-2.13153e-09
2.1893e-08
6.37344e-08
-2.01723e-09
2.17202e-08
6.37903e-08
-1.79335e-09
2.13707e-08
6.39143e-08
-1.49623e-09
2.0772e-08
6.4214e-08
-1.08519e-09
1.98449e-08
6.47293e-08
-6.45488e-10
1.85727e-08
6.55605e-08
-2.40274e-10
1.75697e-08
6.6158e-08
-8.58188e-11
1.73196e-08
6.62539e-08
-1.41257e-10
1.74176e-08
6.62105e-08
-5.38237e-11
1.77767e-08
6.59313e-08
3.55824e-12
1.76728e-08
6.59789e-08
-1.5297e-10
1.78994e-08
6.59061e-08
-5.8953e-10
1.89189e-08
6.53184e-08
-1.06816e-09
2.02609e-08
6.44498e-08
-1.49624e-09
2.1215e-08
6.39165e-08
-1.79147e-09
2.17784e-08
6.36399e-08
-1.99002e-09
2.20445e-08
6.35622e-08
-2.06054e-09
2.21277e-08
6.35386e-08
-2.07667e-09
2.21375e-08
6.35329e-08
-2.08985e-09
2.21204e-08
6.35504e-08
-2.09581e-09
2.20448e-08
6.36192e-08
-2.15171e-09
2.19878e-08
6.37169e-08
-2.12072e-09
2.17846e-08
6.38748e-08
-2.14365e-09
2.16515e-08
6.40163e-08
-2.14708e-09
2.16321e-08
6.40287e-08
-2.14271e-09
2.1741e-08
6.39097e-08
-2.18383e-09
2.19129e-08
6.37756e-08
-2.14278e-09
2.19485e-08
6.36977e-08
-2.14167e-09