/*--------------------------------*- C++ -*----------------------------------*\
  =========                 |
  \\      /  F ield         | OpenFOAM: The Open Source CFD Toolbox
   \\    /   O peration     | Website:  https://openfoam.org
    \\  /    A nd           | Version:  6
     \\/     M anipulation  |
\*---------------------------------------------------------------------------*/
FoamFile
{
    version     2.0;
    format      ascii;
    class       volVectorField;
    location    "20";
    object      U;
}
// * * * * * * * * * * * * * * * * * * * * * * * * * * * * * * * * * * * * * //

dimensions      [0 1 -1 0 0 0 0];

internalField   nonuniform List<vector> 
2880
(
(0.0161366 -5.7319e-10 -5.83928e-12)
(0.0161365 7.43901e-10 -2.93796e-11)
(0.0161366 -2.35725e-10 7.02939e-12)
(0.0396524 -8.68262e-10 4.15587e-11)
(0.0396523 3.83594e-09 -5.30129e-11)
(0.0396529 -3.12066e-09 1.30332e-11)
(0.046019 2.7442e-09 6.54806e-11)
(0.0460195 -4.87593e-10 -8.87729e-11)
(0.0460205 -2.44174e-09 2.33133e-11)
(0.0514665 7.74377e-09 7.98591e-11)
(0.0514673 -1.10532e-08 -1.55874e-10)
(0.0514684 3.11632e-09 7.58384e-11)
(0.0561642 1.10196e-08 7.71671e-11)
(0.0561651 -1.58217e-08 -1.89707e-10)
(0.0561661 4.67611e-09 1.11673e-10)
(0.0602883 1.16332e-08 7.94111e-11)
(0.0602893 -1.588e-08 -2.18123e-10)
(0.0602901 4.15338e-09 1.38496e-10)
(0.0639503 8.80951e-09 7.76398e-11)
(0.0639515 -1.04905e-08 -2.40644e-10)
(0.0639521 1.63042e-09 1.62779e-10)
(0.0672226 4.76713e-09 7.60629e-11)
(0.0672238 -3.38079e-09 -2.51107e-10)
(0.0672244 -1.42873e-09 1.75407e-10)
(0.0701526 9.70874e-10 7.84867e-11)
(0.0701539 2.80345e-09 -2.57298e-10)
(0.0701545 -3.81518e-09 1.79278e-10)
(0.0727544 -2.28134e-09 8.46636e-11)
(0.0727558 8.30088e-09 -2.73481e-10)
(0.0727565 -6.05266e-09 1.88894e-10)
(0.0750125 -4.15895e-09 9.60211e-11)
(0.075014 1.15875e-08 -2.97707e-10)
(0.0750148 -7.43941e-09 2.0181e-10)
(0.0768958 -4.82426e-09 1.20842e-10)
(0.0768972 1.27255e-08 -3.08385e-10)
(0.0768983 -7.90506e-09 1.87642e-10)
(0.0783564 -4.85198e-09 1.47314e-10)
(0.0783578 1.19797e-08 -3.28857e-10)
(0.078359 -7.13686e-09 1.81559e-10)
(0.0793166 -3.15492e-09 1.50067e-10)
(0.0793178 7.97955e-09 -3.03629e-10)
(0.0793192 -4.84821e-09 1.53601e-10)
(0.0798319 -9.09955e-10 1.61842e-10)
(0.079833 2.56977e-09 -3.00868e-10)
(0.0798344 -1.70274e-09 1.39011e-10)
(0.0798315 8.34243e-10 1.62338e-10)
(0.0798326 -2.47498e-09 -3.00851e-10)
(0.079834 1.57997e-09 1.3852e-10)
(0.0793154 3.15568e-09 1.50019e-10)
(0.0793166 -7.88973e-09 -3.03275e-10)
(0.0793179 4.65731e-09 1.53244e-10)
(0.0783543 4.79858e-09 1.47063e-10)
(0.0783557 -1.18624e-08 -3.28625e-10)
(0.0783569 6.97856e-09 1.81587e-10)
(0.076893 4.73603e-09 1.20419e-10)
(0.0768945 -1.25971e-08 -3.08033e-10)
(0.0768955 7.76664e-09 1.87631e-10)
(0.0750096 4.12014e-09 9.56258e-11)
(0.075011 -1.14634e-08 -2.98002e-10)
(0.0750118 7.2549e-09 2.02373e-10)
(0.072751 2.22435e-09 8.42043e-11)
(0.0727524 -8.26884e-09 -2.71076e-10)
(0.0727531 5.97309e-09 1.86861e-10)
(0.070149 -1.07006e-09 7.73023e-11)
(0.0701503 -2.70927e-09 -2.63582e-10)
(0.0701509 3.72998e-09 1.86325e-10)
(0.0672179 -4.86259e-09 7.6415e-11)
(0.0672191 3.59948e-09 -2.4691e-10)
(0.0672197 1.22718e-09 1.70477e-10)
(0.0639439 -8.95796e-09 7.69438e-11)
(0.0639451 1.07237e-08 -2.39522e-10)
(0.0639457 -1.78909e-09 1.62576e-10)
(0.06028 -1.18613e-08 7.92923e-11)
(0.060281 1.61817e-08 -2.1761e-10)
(0.0602818 -4.33918e-09 1.38343e-10)
(0.0561547 -1.13347e-08 7.76146e-11)
(0.0561556 1.62388e-08 -1.89356e-10)
(0.0561566 -4.92307e-09 1.11895e-10)
(0.0514574 -8.11482e-09 8.04392e-11)
(0.0514582 1.1414e-08 -1.56081e-10)
(0.0514593 -3.32101e-09 7.57132e-11)
(0.0460123 -2.9935e-09 6.62928e-11)
(0.0460128 6.35257e-10 -8.87166e-11)
(0.0460138 2.33419e-09 2.2488e-11)
(0.0396473 7.54736e-10 4.01907e-11)
(0.0396472 -3.86182e-09 -5.25551e-11)
(0.0396478 3.08771e-09 1.24162e-11)
(0.0161349 5.33386e-10 2.28972e-11)
(0.0161349 -7.79822e-10 -3.0069e-11)
(0.016135 2.41155e-10 7.2011e-12)
(0.0447445 -1.60344e-09 1.57506e-10)
(0.0447443 1.97608e-09 -2.12215e-10)
(0.0447446 -6.26392e-10 6.21996e-11)
(0.105095 -2.45126e-09 2.2489e-10)
(0.105095 9.01855e-09 -2.95645e-10)
(0.105096 -7.07792e-09 7.9326e-11)
(0.117392 6.09875e-09 2.68026e-10)
(0.117393 -7.86326e-10 -2.90284e-10)
(0.117395 -5.82171e-09 2.33488e-11)
(0.12689 1.73707e-08 3.46412e-10)
(0.126891 -2.38248e-08 -5.54648e-10)
(0.126893 5.95826e-09 2.07063e-10)
(0.134633 2.42116e-08 3.93229e-10)
(0.134634 -3.35829e-08 -8.46182e-10)
(0.134636 9.02734e-09 4.50659e-10)
(0.141166 2.50053e-08 4.45362e-10)
(0.141168 -3.29889e-08 -1.03475e-09)
(0.141169 7.70319e-09 5.88368e-10)
(0.146796 1.85241e-08 4.5704e-10)
(0.146798 -2.11324e-08 -1.13598e-09)
(0.146799 2.42401e-09 6.7779e-10)
(0.15171 9.67211e-09 4.32592e-10)
(0.151711 -6.22205e-09 -1.12398e-09)
(0.151712 -3.60219e-09 6.90903e-10)
(0.156025 1.61394e-09 4.11768e-10)
(0.156027 6.51752e-09 -1.11271e-09)
(0.156028 -8.2477e-09 7.00447e-10)
(0.159798 -5.11885e-09 4.11581e-10)
(0.159799 1.76884e-08 -1.12432e-09)
(0.1598 -1.26524e-08 7.11989e-10)
(0.163029 -8.95867e-09 4.40998e-10)
(0.163031 2.39543e-08 -1.16713e-09)
(0.163032 -1.50305e-08 7.25646e-10)
(0.165696 -1.02615e-08 5.17709e-10)
(0.165698 2.60309e-08 -1.21233e-09)
(0.165699 -1.57879e-08 6.94476e-10)
(0.167747 -1.01552e-08 6.13368e-10)
(0.167749 2.43796e-08 -1.26084e-09)
(0.167751 -1.4255e-08 6.47499e-10)
(0.169177 -6.6224e-09 6.68816e-10)
(0.169178 1.6228e-08 -1.23956e-09)
(0.16918 -9.66623e-09 5.70869e-10)
(0.169949 -1.95317e-09 7.13852e-10)
(0.16995 5.25286e-09 -1.227e-09)
(0.169952 -3.39912e-09 5.13247e-10)
(0.169948 1.78344e-09 7.15691e-10)
(0.16995 -5.07812e-09 -1.2273e-09)
(0.169952 3.16013e-09 5.1171e-10)
(0.169175 6.59725e-09 6.68566e-10)
(0.169176 -1.60552e-08 -1.23776e-09)
(0.169178 9.29136e-09 5.69237e-10)
(0.167744 1.00278e-08 6.12482e-10)
(0.167746 -2.41653e-08 -1.26014e-09)
(0.167747 1.39532e-08 6.47732e-10)
(0.165692 1.0062e-08 5.16307e-10)
(0.165694 -2.57969e-08 -1.21146e-09)
(0.165695 1.55302e-08 6.95097e-10)
(0.163025 8.85195e-09 4.38896e-10)
(0.163027 -2.37475e-08 -1.16731e-09)
(0.163028 1.47011e-08 7.28119e-10)
(0.159793 4.99633e-09 4.08497e-10)
(0.159794 -1.75722e-08 -1.12552e-09)
(0.159795 1.24154e-08 7.1647e-10)
(0.15602 -1.84271e-09 4.10807e-10)
(0.156022 -6.37222e-09 -1.11922e-09)
(0.156023 8.10211e-09 7.07868e-10)
(0.151703 -9.92543e-09 4.3288e-10)
(0.151704 6.52636e-09 -1.12078e-09)
(0.151705 3.31533e-09 6.87397e-10)
(0.146787 -1.88855e-08 4.5549e-10)
(0.146788 2.16256e-08 -1.13781e-09)
(0.146789 -2.799e-09 6.81933e-10)
(0.141153 -2.55565e-08 4.46954e-10)
(0.141154 3.3664e-08 -1.03784e-09)
(0.141156 -8.15869e-09 5.90671e-10)
(0.134617 -2.49752e-08 3.96382e-10)
(0.134619 3.45204e-08 -8.48253e-10)
(0.13462 -9.5951e-09 4.51878e-10)
(0.126875 -1.82685e-08 3.4736e-10)
(0.126876 2.46435e-08 -5.51795e-10)
(0.126878 -6.42825e-09 2.0443e-10)
(0.11738 -6.74086e-09 2.67e-10)
(0.117381 1.1228e-09 -2.82839e-10)
(0.117383 5.56036e-09 1.56996e-11)
(0.105085 2.04999e-09 2.16883e-10)
(0.105085 -9.07935e-09 -2.90585e-10)
(0.105086 6.98225e-09 7.28201e-11)
(0.0447403 1.41943e-09 1.53713e-10)
(0.0447401 -2.06228e-09 -2.1603e-10)
(0.0447404 6.30115e-10 6.11358e-11)
(0.0677087 -2.35188e-09 4.06015e-10)
(0.0677084 2.89452e-09 -5.4766e-10)
(0.0677089 -9.4001e-10 1.55227e-10)
(0.142365 -3.23685e-09 4.66593e-10)
(0.142365 1.13025e-08 -6.2862e-10)
(0.142366 -8.77201e-09 1.78731e-10)
(0.15722 7.59194e-09 5.24438e-10)
(0.157221 -7.74062e-10 -5.38097e-10)
(0.157223 -7.49147e-09 1.30753e-11)
(0.16785 2.17104e-08 7.01598e-10)
(0.167851 -2.90234e-08 -1.03725e-09)
(0.167853 6.66839e-09 3.30817e-10)
(0.17635 3.01002e-08 8.39073e-10)
(0.176351 -4.09249e-08 -1.7188e-09)
(0.176353 1.03735e-08 8.72503e-10)
(0.183458 3.08819e-08 9.70725e-10)
(0.183459 -4.00159e-08 -2.13763e-09)
(0.183461 8.76592e-09 1.16334e-09)
(0.18955 2.27138e-08 1.00531e-09)
(0.189552 -2.54059e-08 -2.34013e-09)
(0.189553 2.44734e-09 1.33178e-09)
(0.194846 1.16702e-08 9.42883e-10)
(0.194848 -7.17495e-09 -2.29018e-09)
(0.194849 -4.69492e-09 1.34672e-09)
(0.199486 1.69054e-09 8.8294e-10)
(0.199487 8.32848e-09 -2.2226e-09)
(0.199488 -1.01689e-08 1.33936e-09)
(0.203532 -6.60274e-09 8.63228e-10)
(0.203534 2.18518e-08 -2.21524e-09)
(0.203535 -1.53549e-08 1.35094e-09)
(0.206993 -1.13042e-08 9.06386e-10)
(0.206995 2.93459e-08 -2.27467e-09)
(0.206996 -1.80867e-08 1.3677e-09)
(0.209846 -1.28877e-08 1.04914e-09)
(0.209848 3.18105e-08 -2.33671e-09)
(0.20985 -1.89473e-08 1.2876e-09)
(0.212037 -1.26738e-08 1.22628e-09)
(0.212039 2.96944e-08 -2.4251e-09)
(0.212041 -1.70603e-08 1.19907e-09)
(0.213589 -8.28378e-09 1.35512e-09)
(0.213591 1.97792e-08 -2.42294e-09)
(0.213593 -1.15723e-08 1.06829e-09)
(0.214429 -2.47166e-09 1.44011e-09)
(0.21443 6.41918e-09 -2.39939e-09)
(0.214433 -4.07239e-09 9.59643e-10)
(0.214428 2.25717e-09 1.44375e-09)
(0.21443 -6.20794e-09 -2.40011e-09)
(0.214432 3.78296e-09 9.56729e-10)
(0.213587 8.23985e-09 1.35449e-09)
(0.213589 -1.9565e-08 -2.41944e-09)
(0.213591 1.11176e-08 1.0652e-09)
(0.212034 1.2509e-08 1.22473e-09)
(0.212036 -2.9435e-08 -2.42382e-09)
(0.212038 1.66966e-08 1.19938e-09)
(0.209842 1.26351e-08 1.04645e-09)
(0.209844 -3.1527e-08 -2.33509e-09)
(0.209845 1.86361e-08 1.28868e-09)
(0.206988 1.11615e-08 9.02681e-10)
(0.20699 -2.90954e-08 -2.27501e-09)
(0.206992 1.76901e-08 1.37181e-09)
(0.203526 6.4454e-09 8.5841e-10)
(0.203528 -2.17073e-08 -2.21575e-09)
(0.203529 1.50599e-08 1.35629e-09)
(0.19948 -1.97886e-09 8.80587e-10)
(0.199481 -8.15597e-09 -2.24056e-09)
(0.199482 9.99199e-09 1.35897e-09)
(0.194839 -1.1998e-08 9.44262e-10)
(0.19484 7.53285e-09 -2.28232e-09)
(0.194841 4.35867e-09 1.33709e-09)
(0.189539 -2.31761e-08 1.00392e-09)
(0.189541 2.601e-08 -2.34296e-09)
(0.189542 -2.90998e-09 1.33836e-09)
(0.183444 -3.15842e-08 9.76144e-10)
(0.183445 4.08507e-08 -2.14398e-09)
(0.183446 -9.33328e-09 1.16756e-09)
(0.176333 -3.10752e-08 8.48503e-10)
(0.176334 4.2084e-08 -1.72257e-09)
(0.176336 -1.10739e-08 8.74341e-10)
(0.167833 -2.28533e-08 7.0449e-10)
(0.167834 3.00362e-08 -1.0284e-09)
(0.167836 -7.25193e-09 3.24169e-10)
(0.157206 -8.42424e-09 5.22543e-10)
(0.157207 1.19142e-09 -5.1805e-10)
(0.157209 7.15798e-09 -4.57044e-12)
(0.142354 2.67702e-09 4.49933e-10)
(0.142354 -1.13786e-08 -6.14686e-10)
(0.142355 8.63921e-09 1.62808e-10)
(0.0677028 2.05887e-09 4.02156e-10)
(0.0677025 -3.01365e-09 -5.56336e-10)
(0.067703 9.35765e-10 1.51529e-10)
(0.085969 -2.87162e-09 7.88629e-10)
(0.0859686 3.5819e-09 -1.01632e-09)
(0.0859692 -1.21085e-09 2.8417e-10)
(0.16356 -3.53259e-09 6.9925e-10)
(0.16356 1.22194e-08 -9.80504e-10)
(0.163561 -9.4864e-09 3.05906e-10)
(0.18048 8.29959e-09 7.65796e-10)
(0.180481 -6.90321e-10 -7.61661e-10)
(0.180483 -8.3616e-09 -6.28025e-12)
(0.192065 2.37707e-08 1.06844e-09)
(0.192066 -3.11156e-08 -1.49732e-09)
(0.192068 6.62635e-09 4.20142e-10)
(0.201228 3.29607e-08 1.33776e-09)
(0.201229 -4.41242e-08 -2.64551e-09)
(0.201231 1.06581e-08 1.29588e-09)
(0.208855 3.37641e-08 1.57934e-09)
(0.208856 -4.31694e-08 -3.35361e-09)
(0.208858 8.99592e-09 1.76802e-09)
(0.215374 2.47747e-08 1.65389e-09)
(0.215375 -2.73282e-08 -3.68433e-09)
(0.215376 2.28245e-09 2.02532e-09)
(0.221029 1.26036e-08 1.55096e-09)
(0.221031 -7.4972e-09 -3.59455e-09)
(0.221032 -5.32588e-09 2.0421e-09)
(0.225974 1.60888e-09 1.44254e-09)
(0.225976 9.36732e-09 -3.46839e-09)
(0.225977 -1.11422e-08 2.02477e-09)
(0.230282 -7.52725e-09 1.3973e-09)
(0.230284 2.40495e-08 -3.4343e-09)
(0.230285 -1.66399e-08 2.03509e-09)
(0.233963 -1.26896e-08 1.45567e-09)
(0.233965 3.21794e-08 -3.50413e-09)
(0.233966 -1.95392e-08 2.04731e-09)
(0.236994 -1.44358e-08 1.6701e-09)
(0.236996 3.4867e-08 -3.60472e-09)
(0.236998 -2.04579e-08 1.9346e-09)
(0.23932 -1.41427e-08 1.94008e-09)
(0.239322 3.24689e-08 -3.73957e-09)
(0.239324 -1.837e-08 1.79998e-09)
(0.240963 -9.26417e-09 2.16411e-09)
(0.240965 2.16524e-08 -3.78948e-09)
(0.240967 -1.24733e-08 1.62622e-09)
(0.241852 -2.78842e-09 2.29411e-09)
(0.241854 7.04282e-09 -3.75779e-09)
(0.241856 -4.39295e-09 1.46441e-09)
(0.241851 2.54818e-09 2.2998e-09)
(0.241853 -6.81015e-09 -3.75918e-09)
(0.241855 4.07588e-09 1.4601e-09)
(0.240961 9.20655e-09 2.16308e-09)
(0.240963 -2.14123e-08 -3.78389e-09)
(0.240965 1.19753e-08 1.62134e-09)
(0.239316 1.39552e-08 1.93768e-09)
(0.239318 -3.21826e-08 -3.7377e-09)
(0.23932 1.79727e-08 1.80056e-09)
(0.23699 1.41529e-08 1.66607e-09)
(0.236991 -3.45531e-08 -3.60256e-09)
(0.236993 2.01155e-08 1.9366e-09)
(0.233958 1.25252e-08 1.44998e-09)
(0.23396 -3.18983e-08 -3.50431e-09)
(0.233961 1.91015e-08 2.05346e-09)
(0.230276 7.34712e-09 1.39007e-09)
(0.230278 -2.38996e-08 -3.43868e-09)
(0.230279 1.63274e-08 2.0468e-09)
(0.225968 -1.92855e-09 1.44003e-09)
(0.22597 -9.1738e-09 -3.49032e-09)
(0.225971 1.09427e-08 2.0485e-09)
(0.221021 -1.29693e-08 1.5531e-09)
(0.221022 7.90535e-09 -3.58708e-09)
(0.221023 4.94476e-09 2.03236e-09)
(0.215362 -2.52898e-08 1.65314e-09)
(0.215364 2.79855e-08 -3.69077e-09)
(0.215365 -2.78082e-09 2.03652e-09)
(0.208839 -3.4543e-08 1.58957e-09)
(0.208841 4.40769e-08 -3.36553e-09)
(0.208842 -9.60856e-09 1.77554e-09)
(0.201209 -3.40408e-08 1.35419e-09)
(0.20121 4.53805e-08 -2.65245e-09)
(0.201212 -1.14129e-08 1.29862e-09)
(0.192047 -2.50293e-08 1.07271e-09)
(0.192048 3.22105e-08 -1.48107e-09)
(0.19205 -7.25871e-09 4.08785e-10)
(0.180465 -9.22032e-09 7.61346e-10)
(0.180466 1.14249e-09 -7.2643e-10)
(0.180468 7.99394e-09 -3.51059e-11)
(0.163547 2.89743e-09 6.73702e-10)
(0.163547 -1.23009e-08 -9.56527e-10)
(0.163548 9.33219e-09 2.79488e-10)
(0.0859619 2.50059e-09 7.50693e-10)
(0.0859616 -3.7206e-09 -1.03172e-09)
(0.0859622 1.19557e-09 2.76042e-10)
(0.100729 -3.22135e-09 1.2445e-09)
(0.100728 4.11289e-09 -1.59182e-09)
(0.100729 -1.46398e-09 4.42561e-10)
(0.177779 -3.59037e-09 9.3964e-10)
(0.177779 1.25716e-08 -1.38091e-09)
(0.17778 -9.82988e-09 4.73781e-10)
(0.196522 8.698e-09 1.02652e-09)
(0.196523 -5.86526e-10 -1.02477e-09)
(0.196525 -8.90604e-09 -5.68792e-12)
(0.208987 2.48603e-08 1.48668e-09)
(0.208988 -3.18928e-08 -2.01802e-09)
(0.20899 6.27167e-09 5.18044e-10)
(0.218752 3.45165e-08 1.92595e-09)
(0.218753 -4.5553e-08 -3.70951e-09)
(0.218755 1.04977e-08 1.76621e-09)
(0.226848 3.53501e-08 2.3049e-09)
(0.226849 -4.46548e-08 -4.7593e-09)
(0.226851 8.87067e-09 2.44481e-09)
(0.233752 2.59165e-08 2.43081e-09)
(0.233753 -2.82258e-08 -5.24121e-09)
(0.233754 2.02247e-09 2.80276e-09)
(0.23973 1.30841e-08 2.28126e-09)
(0.239732 -7.53681e-09 -5.10902e-09)
(0.239733 -5.77862e-09 2.82519e-09)
(0.244952 1.47453e-09 2.11459e-09)
(0.244953 1.00881e-08 -4.91029e-09)
(0.244954 -1.17391e-08 2.79371e-09)
(0.249495 -8.18302e-09 2.03797e-09)
(0.249496 2.54235e-08 -4.84305e-09)
(0.249498 -1.73661e-08 2.80219e-09)
(0.253373 -1.36274e-08 2.1147e-09)
(0.253375 3.39167e-08 -4.9241e-09)
(0.253376 -2.03416e-08 2.80761e-09)
(0.256564 -1.54848e-08 2.41354e-09)
(0.256566 3.67533e-08 -5.07674e-09)
(0.256568 -2.12967e-08 2.66314e-09)
(0.25901 -1.51242e-08 2.78993e-09)
(0.259012 3.41589e-08 -5.27539e-09)
(0.259014 -1.90811e-08 2.48627e-09)
(0.260732 -9.92818e-09 3.1213e-09)
(0.260734 2.28105e-08 -5.39356e-09)
(0.260736 -1.29729e-08 2.27357e-09)
(0.261662 -3.01078e-09 3.30208e-09)
(0.261664 7.43609e-09 -5.35819e-09)
(0.261666 -4.5732e-09 2.05727e-09)
(0.261661 2.7529e-09 3.31032e-09)
(0.261663 -7.19018e-09 -5.36045e-09)
(0.261665 4.23876e-09 2.05125e-09)
(0.260729 9.8592e-09 3.11978e-09)
(0.260731 -2.25534e-08 -5.38554e-09)
(0.260734 1.24482e-08 2.26661e-09)
(0.259006 1.49206e-08 2.78634e-09)
(0.259008 -3.3856e-08 -5.27284e-09)
(0.25901 1.86635e-08 2.48735e-09)
(0.256559 1.51813e-08 2.40799e-09)
(0.256561 -3.64201e-08 -5.0741e-09)
(0.256563 2.09345e-08 2.66632e-09)
(0.253367 1.34474e-08 2.10687e-09)
(0.253369 -3.36156e-08 -4.92418e-09)
(0.253371 1.98777e-08 2.81602e-09)
(0.249488 7.98601e-09 2.02821e-09)
(0.24949 -2.52738e-08 -4.85217e-09)
(0.249491 1.70472e-08 2.82124e-09)
(0.244945 -1.81404e-09 2.1119e-09)
(0.244946 -9.88013e-09 -4.93555e-09)
(0.244947 1.15231e-08 2.82091e-09)
(0.239721 -1.34736e-08 2.28423e-09)
(0.239723 7.98241e-09 -5.10243e-09)
(0.239724 5.36347e-09 2.81578e-09)
(0.233739 -2.64649e-08 2.43101e-09)
(0.233741 2.89112e-08 -5.2519e-09)
(0.233742 -2.53749e-09 2.81925e-09)
(0.226832 -3.61753e-08 2.3211e-09)
(0.226833 4.55994e-08 -4.77804e-09)
(0.226835 -9.50384e-09 2.45638e-09)
(0.218732 -3.56575e-08 1.9507e-09)
(0.218733 4.68556e-08 -3.72039e-09)
(0.218735 -1.12762e-08 1.77014e-09)
(0.208967 -2.61801e-08 1.49232e-09)
(0.208969 3.30243e-08 -1.99307e-09)
(0.208971 -6.9271e-09 5.01394e-10)
(0.196506 -9.66456e-09 1.01854e-09)
(0.196507 1.05546e-09 -9.7165e-10)
(0.196509 8.51971e-09 -4.72167e-11)
(0.177765 2.91538e-09 9.04805e-10)
(0.177765 -1.26538e-08 -1.34522e-09)
(0.177767 9.66113e-09 4.3545e-10)
(0.100721 2.79577e-09 1.1788e-09)
(0.10072 -4.2617e-09 -1.61499e-09)
(0.100721 1.43659e-09 4.28263e-10)
(0.113225 -3.44779e-09 1.78329e-09)
(0.113225 4.54572e-09 -2.27613e-09)
(0.113225 -1.71838e-09 6.35765e-10)
(0.188425 -3.50421e-09 1.1928e-09)
(0.188425 1.26274e-08 -1.84441e-09)
(0.188426 -1.00014e-08 6.91908e-10)
(0.208825 8.94885e-09 1.3152e-09)
(0.208826 -4.74149e-10 -1.36195e-09)
(0.208828 -9.29396e-09 4.07513e-11)
(0.222134 2.5434e-08 1.96599e-09)
(0.222135 -3.19527e-08 -2.64006e-09)
(0.222137 5.73088e-09 6.55535e-10)
(0.232456 3.53689e-08 2.61374e-09)
(0.232457 -4.60126e-08 -4.94394e-09)
(0.232459 1.00806e-08 2.30647e-09)
(0.240977 3.62331e-08 3.15749e-09)
(0.240978 -4.52221e-08 -6.38253e-09)
(0.24098 8.53625e-09 3.21144e-09)
(0.248223 2.65616e-08 3.34375e-09)
(0.248224 -2.85508e-08 -7.0357e-09)
(0.248225 1.68892e-09 3.6813e-09)
(0.254486 1.33224e-08 3.14073e-09)
(0.254487 -7.40803e-09 -6.85576e-09)
(0.254488 -6.15591e-09 3.71112e-09)
(0.259947 1.31761e-09 2.90564e-09)
(0.259949 1.06543e-08 -6.57207e-09)
(0.25995 -1.21572e-08 3.66333e-09)
(0.264693 -8.68274e-09 2.79234e-09)
(0.264695 2.63736e-08 -6.46508e-09)
(0.264696 -1.78229e-08 3.66867e-09)
(0.268742 -1.43092e-08 2.89295e-09)
(0.268743 3.50719e-08 -6.56084e-09)
(0.268745 -2.08175e-08 3.66528e-09)
(0.27207 -1.62508e-08 3.28934e-09)
(0.272072 3.80166e-08 -6.7863e-09)
(0.272073 -2.17954e-08 3.49684e-09)
(0.274618 -1.58277e-08 3.78676e-09)
(0.27462 3.52725e-08 -7.07233e-09)
(0.274622 -1.94937e-08 3.28673e-09)
(0.276405 -1.04118e-08 4.23589e-09)
(0.276407 2.35899e-08 -7.27866e-09)
(0.27641 -1.32732e-08 3.0446e-09)
(0.27737 -3.17929e-09 4.47377e-09)
(0.277372 7.70821e-09 -7.24678e-09)
(0.277374 -4.68422e-09 2.77467e-09)
(0.277369 2.90803e-09 4.48512e-09)
(0.277371 -7.4543e-09 -7.25015e-09)
(0.277374 4.33808e-09 2.7666e-09)
(0.276403 1.03327e-08 4.23383e-09)
(0.276405 -2.33219e-08 -7.26787e-09)
(0.276407 1.27311e-08 3.03525e-09)
(0.274614 1.56113e-08 3.78148e-09)
(0.274616 -3.496e-08 -7.069e-09)
(0.274618 1.90636e-08 3.28873e-09)
(0.272064 1.59316e-08 3.28206e-09)
(0.272066 -3.7671e-08 -6.78327e-09)
(0.272068 2.14202e-08 3.50152e-09)
(0.268736 1.41168e-08 2.88282e-09)
(0.268737 -3.47589e-08 -6.56097e-09)
(0.268739 2.03373e-08 3.67634e-09)
(0.264687 8.47219e-09 2.77996e-09)
(0.264688 -2.62253e-08 -6.48009e-09)
(0.26469 1.75007e-08 3.6963e-09)
(0.259939 -1.67127e-09 2.90271e-09)
(0.259941 -1.04376e-08 -6.59955e-09)
(0.259942 1.1929e-08 3.69294e-09)
(0.254476 -1.37295e-08 3.14457e-09)
(0.254477 7.87706e-09 -6.85061e-09)
(0.254479 5.71805e-09 3.70264e-09)
(0.248209 -2.71339e-08 3.3453e-09)
(0.248211 2.92503e-08 -7.05131e-09)
(0.248212 -2.21243e-09 3.70371e-09)
(0.24096 -3.70901e-08 3.18077e-09)
(0.240961 4.61861e-08 -6.40936e-09)
(0.240962 -9.17962e-09 3.2278e-09)
(0.232436 -3.6549e-08 2.64812e-09)
(0.232437 4.73358e-08 -4.95955e-09)
(0.232439 -1.08686e-08 2.31196e-09)
(0.222113 -2.67878e-08 1.97305e-09)
(0.222114 3.30985e-08 -2.60536e-09)
(0.222116 -6.39726e-09 6.33202e-10)
(0.208808 -9.94081e-09 1.30297e-09)
(0.208809 9.51241e-10 -1.28851e-09)
(0.208811 8.89658e-09 -1.4945e-11)
(0.18841 2.80436e-09 1.14829e-09)
(0.18841 -1.27075e-08 -1.79545e-09)
(0.188412 9.82141e-09 6.40371e-10)
(0.113217 2.9856e-09 1.68303e-09)
(0.113216 -4.69834e-09 -2.30796e-09)
(0.113217 1.67871e-09 6.13333e-10)
(0.124413 -3.58059e-09 2.41309e-09)
(0.124413 4.91542e-09 -3.08686e-09)
(0.124413 -1.98572e-09 8.73808e-10)
(0.196971 -3.30916e-09 1.45729e-09)
(0.196971 1.24892e-08 -2.37009e-09)
(0.196972 -1.00773e-08 9.60955e-10)
(0.218831 9.12116e-09 1.62735e-09)
(0.218832 -3.59491e-10 -1.78165e-09)
(0.218834 -9.59541e-09 1.45897e-10)
(0.232964 2.56831e-08 2.49912e-09)
(0.232965 -3.15412e-08 -3.37583e-09)
(0.232967 5.05239e-09 8.52302e-10)
(0.243824 3.57688e-08 3.3939e-09)
(0.243825 -4.58311e-08 -6.35457e-09)
(0.243827 9.47963e-09 2.92963e-09)
(0.252744 3.66607e-08 4.1315e-09)
(0.252745 -4.51806e-08 -8.2234e-09)
(0.252747 8.05081e-09 4.0736e-09)
(0.260306 2.68867e-08 4.38648e-09)
(0.260307 -2.84918e-08 -9.06808e-09)
(0.260309 1.29125e-09 4.66746e-09)
(0.266828 1.34063e-08 4.12435e-09)
(0.26683 -7.15889e-09 -8.8349e-09)
(0.266831 -6.49971e-09 4.70508e-09)
(0.272506 1.14922e-09 3.81155e-09)
(0.272508 1.11341e-08 -8.45612e-09)
(0.272509 -1.24771e-08 4.6402e-09)
(0.277435 -9.07745e-09 3.65869e-09)
(0.277437 2.70669e-08 -8.30743e-09)
(0.277438 -1.81272e-08 4.6433e-09)
(0.281634 -1.48204e-08 3.7896e-09)
(0.281636 3.58631e-08 -8.42636e-09)
(0.281638 -2.11002e-08 4.63322e-09)
(0.285084 -1.68303e-08 4.29752e-09)
(0.285086 3.88911e-08 -8.75051e-09)
(0.285087 -2.20921e-08 4.4528e-09)
(0.287722 -1.63465e-08 4.92993e-09)
(0.287724 3.60261e-08 -9.15421e-09)
(0.287726 -1.97311e-08 4.22585e-09)
(0.289566 -1.07761e-08 5.50868e-09)
(0.289568 2.41346e-08 -9.4755e-09)
(0.28957 -1.34579e-08 3.96925e-09)
(0.29056 -3.31245e-09 5.81004e-09)
(0.290562 7.90618e-09 -9.45774e-09)
(0.290565 -4.75545e-09 3.64992e-09)
(0.290559 3.03046e-09 5.82494e-09)
(0.290561 -7.64803e-09 -9.46242e-09)
(0.290564 4.40123e-09 3.63957e-09)
(0.289563 1.06878e-08 5.506e-09)
(0.289565 -2.38602e-08 -9.46159e-09)
(0.289568 1.29043e-08 3.95723e-09)
(0.287718 1.61196e-08 4.9223e-09)
(0.287719 -3.57091e-08 -9.14997e-09)
(0.287722 1.92936e-08 4.22929e-09)
(0.285078 1.64984e-08 4.28831e-09)
(0.28508 -3.85383e-08 -8.74714e-09)
(0.285082 2.17086e-08 4.45926e-09)
(0.281628 1.46175e-08 3.7771e-09)
(0.28163 -3.55448e-08 -8.4269e-09)
(0.281631 2.06109e-08 4.64738e-09)
(0.277428 8.85544e-09 3.64382e-09)
(0.27743 -2.69196e-08 -8.32899e-09)
(0.277431 1.78022e-08 4.68004e-09)
(0.272499 -1.51368e-09 3.80815e-09)
(0.2725 -1.09132e-08 -8.48508e-09)
(0.272501 1.22399e-08 4.67166e-09)
(0.266818 -1.38276e-08 4.12916e-09)
(0.26682 7.63885e-09 -8.8314e-09)
(0.266821 6.04889e-09 4.69769e-09)
(0.260292 -2.74774e-08 4.39159e-09)
(0.260294 2.91963e-08 -9.0892e-09)
(0.260295 -1.81901e-09 4.69452e-09)
(0.252726 -3.75409e-08 4.1631e-09)
(0.252727 4.61531e-08 -8.25953e-09)
(0.252729 -8.69919e-09 4.09538e-09)
(0.243802 -3.6975e-08 3.4392e-09)
(0.243804 4.71594e-08 -6.37562e-09)
(0.243806 -1.02692e-08 2.93704e-09)
(0.232942 -2.70546e-08 2.50773e-09)
(0.232943 3.26882e-08 -3.33042e-09)
(0.232946 -5.72283e-09 8.23839e-10)
(0.218813 -1.01268e-08 1.61041e-09)
(0.218814 8.39724e-10 -1.68578e-09)
(0.218816 9.19171e-09 7.47383e-11)
(0.196956 2.59222e-09 1.40275e-09)
(0.196956 -1.25654e-08 -2.30665e-09)
(0.196957 9.88806e-09 8.95135e-10)
(0.124404 3.09475e-09 2.27115e-09)
(0.124404 -5.06741e-09 -3.12814e-09)
(0.124404 1.93393e-09 8.40918e-10)
(0.134848 -3.63273e-09 3.13947e-09)
(0.134848 5.23421e-09 -4.03926e-09)
(0.134849 -2.26882e-09 1.1661e-09)
(0.204208 -3.01575e-09 1.72894e-09)
(0.204208 1.21947e-08 -2.94904e-09)
(0.204209 -1.00884e-08 1.27628e-09)
(0.227306 9.2534e-09 1.96009e-09)
(0.227307 -2.49479e-10 -2.2818e-09)
(0.227309 -9.84521e-09 3.10627e-10)
(0.242241 2.57093e-08 3.07959e-09)
(0.242242 -3.07836e-08 -4.22911e-09)
(0.242244 4.25719e-09 1.1187e-09)
(0.25363 3.58454e-08 4.26035e-09)
(0.253632 -4.51708e-08 -7.94689e-09)
(0.253634 8.72605e-09 3.64736e-09)
(0.262938 3.6758e-08 5.22432e-09)
(0.262939 -4.46825e-08 -1.02893e-08)
(0.262941 7.43969e-09 5.04126e-09)
(0.270802 2.69806e-08 5.55842e-09)
(0.270803 -2.81419e-08 -1.13459e-08)
(0.270805 8.32711e-10 5.76929e-09)
(0.277568 1.33798e-08 5.23247e-09)
(0.277569 -6.81241e-09 -1.1053e-08)
(0.277571 -6.83152e-09 5.81323e-09)
(0.283447 9.74162e-10 4.83256e-09)
(0.283449 1.15617e-08 -1.05702e-08)
(0.28345 -1.27385e-08 5.73178e-09)
(0.288544 -9.39425e-09 4.63598e-09)
(0.288545 2.75864e-08 -1.03798e-08)
(0.288547 -1.83353e-08 5.73678e-09)
(0.292881 -1.52051e-08 4.80311e-09)
(0.292883 3.63992e-08 -1.05359e-08)
(0.292884 -2.12545e-08 5.7282e-09)
(0.29644 -1.72739e-08 5.4377e-09)
(0.296442 3.94949e-08 -1.09908e-08)
(0.296444 -2.22545e-08 5.55284e-09)
(0.299159 -1.6729e-08 6.21999e-09)
(0.299161 3.65275e-08 -1.15485e-08)
(0.299164 -1.98527e-08 5.33052e-09)
(0.301054 -1.10531e-08 6.94334e-09)
(0.301056 2.45171e-08 -1.20181e-08)
(0.301059 -1.35676e-08 5.07782e-09)
(0.302074 -3.42017e-09 7.31549e-09)
(0.302076 8.05386e-09 -1.20294e-08)
(0.302079 -4.8013e-09 4.71675e-09)
(0.302073 3.12925e-09 7.33425e-09)
(0.302075 -7.79436e-09 -1.20355e-08)
(0.302078 4.44152e-09 4.70398e-09)
(0.301051 1.09562e-08 6.93992e-09)
(0.301053 -2.42397e-08 -1.20008e-08)
(0.301056 1.30069e-08 5.06297e-09)
(0.299155 1.64932e-08 6.20933e-09)
(0.299157 -3.62101e-08 -1.15432e-08)
(0.299159 1.94118e-08 5.33594e-09)
(0.296435 1.69313e-08 5.42636e-09)
(0.296436 -3.91389e-08 -1.09871e-08)
(0.296438 2.18662e-08 5.56134e-09)
(0.292874 1.49932e-08 4.78813e-09)
(0.292876 -3.6081e-08 -1.05373e-08)
(0.292878 2.07617e-08 5.74606e-09)
(0.288536 9.1621e-09 4.61874e-09)
(0.288538 -2.74395e-08 -1.04085e-08)
(0.288539 1.80072e-08 5.78309e-09)
(0.283439 -1.3472e-09 4.82851e-09)
(0.283441 -1.13406e-08 -1.06004e-08)
(0.283442 1.24947e-08 5.76503e-09)
(0.277557 -1.3813e-08 5.23836e-09)
(0.277559 7.29269e-09 -1.10516e-08)
(0.27756 6.37567e-09 5.80732e-09)
(0.270787 -2.75864e-08 5.56843e-09)
(0.270789 2.88445e-08 -1.13733e-08)
(0.27079 -1.36208e-09 5.80087e-09)
(0.262919 -3.7656e-08 5.2655e-09)
(0.262921 4.56559e-08 -1.03361e-08)
(0.262922 -8.0899e-09 5.06925e-09)
(0.253608 -3.70688e-08 4.31781e-09)
(0.25361 4.64934e-08 -7.97425e-09)
(0.253611 -9.51193e-09 3.65712e-09)
(0.242219 -2.70873e-08 3.08981e-09)
(0.24222 3.19231e-08 -4.17197e-09)
(0.242222 -4.92714e-09 1.08359e-09)
(0.227288 -1.0265e-08 1.93806e-09)
(0.227289 7.29461e-10 -2.16167e-09)
(0.227291 9.43869e-09 2.22827e-10)
(0.204192 2.28705e-09 1.66418e-09)
(0.204192 -1.22659e-08 -2.87025e-09)
(0.204194 9.89115e-09 1.1952e-09)
(0.134839 3.13327e-09 2.94916e-09)
(0.134838 -5.38209e-09 -4.09069e-09)
(0.134839 2.20542e-09 1.12007e-09)
(0.144782 -3.60859e-09 3.96593e-09)
(0.144781 5.50049e-09 -5.14427e-09)
(0.144782 -2.56333e-09 1.51988e-09)
(0.210604 -2.69586e-09 2.02171e-09)
(0.210604 1.18221e-08 -3.58701e-09)
(0.210605 -1.00418e-08 1.63017e-09)
(0.234705 9.37123e-09 2.3102e-09)
(0.234706 -1.54183e-10 -2.85056e-09)
(0.234708 -1.00606e-08 5.26261e-10)
(0.25041 2.55753e-08 3.70012e-09)
(0.250411 -2.97549e-08 -5.19078e-09)
(0.250413 3.35606e-09 1.45294e-09)
(0.262327 3.56742e-08 5.20595e-09)
(0.262328 -4.41212e-08 -9.7163e-09)
(0.26233 7.83296e-09 4.46224e-09)
(0.272018 3.65959e-08 6.43168e-09)
(0.272019 -4.3809e-08 -1.25809e-08)
(0.272021 6.7129e-09 6.11944e-09)
(0.280176 2.68929e-08 6.85728e-09)
(0.280178 -2.75502e-08 -1.38695e-08)
(0.280179 3.12668e-10 6.98951e-09)
(0.287177 1.32667e-08 6.46273e-09)
(0.287179 -6.37991e-09 -1.35098e-08)
(0.28718 -7.16419e-09 7.03761e-09)
(0.293248 7.9485e-10 5.96625e-09)
(0.29325 1.19562e-08 -1.29149e-08)
(0.293251 -1.2963e-08 6.94099e-09)
(0.298502 -9.64864e-09 5.72355e-09)
(0.298504 2.79766e-08 -1.26873e-08)
(0.298505 -1.84765e-08 6.95478e-09)
(0.302968 -1.54878e-08 5.93193e-09)
(0.30297 3.67389e-08 -1.28996e-08)
(0.302972 -2.13148e-08 6.96177e-09)
(0.30663 -1.761e-08 6.70794e-09)
(0.306632 3.9893e-08 -1.35228e-08)
(0.306634 -2.23189e-08 6.81452e-09)
(0.309424 -1.70022e-08 7.65651e-09)
(0.309426 3.68345e-08 -1.42765e-08)
(0.309428 -1.98896e-08 6.62261e-09)
(0.311364 -1.12607e-08 8.5442e-09)
(0.311366 2.4777e-08 -1.49348e-08)
(0.311369 -1.3624e-08 6.39447e-09)
(0.312408 -3.50826e-09 8.9954e-09)
(0.31241 8.16458e-09 -1.49947e-08)
(0.312412 -4.8295e-09 6.00295e-09)
(0.312407 3.20977e-09 9.01829e-09)
(0.312409 -7.90607e-09 -1.50025e-08)
(0.312411 4.46608e-09 5.98761e-09)
(0.311361 1.11558e-08 8.53985e-09)
(0.311363 -2.44997e-08 -1.49139e-08)
(0.311366 1.30597e-08 6.37673e-09)
(0.309419 1.67586e-08 7.64217e-09)
(0.309421 -3.65204e-08 -1.427e-08)
(0.309423 1.94484e-08 6.63048e-09)
(0.306624 1.72582e-08 6.69423e-09)
(0.306626 -3.95367e-08 -1.35188e-08)
(0.306628 2.19284e-08 6.82529e-09)
(0.302961 1.52681e-08 5.9145e-09)
(0.302963 -3.64256e-08 -1.29022e-08)
(0.302965 2.08229e-08 6.98379e-09)
(0.298494 9.40713e-09 5.70404e-09)
(0.298496 -2.78295e-08 -1.27232e-08)
(0.298497 1.8145e-08 7.01082e-09)
(0.293239 -1.17485e-09 5.96133e-09)
(0.293241 -1.17382e-08 -1.29465e-08)
(0.293242 1.27144e-08 6.97653e-09)
(0.287166 -1.37102e-08 6.46986e-09)
(0.287167 6.85149e-09 -1.35109e-08)
(0.287169 6.70977e-09 7.0336e-09)
(0.280161 -2.7511e-08 6.87497e-09)
(0.280163 2.82451e-08 -1.39043e-08)
(0.280164 -8.41593e-10 7.0243e-09)
(0.271998 -3.75077e-08 6.48378e-09)
(0.272 4.47772e-08 -1.26401e-08)
(0.272001 -7.36252e-09 6.15452e-09)
(0.262303 -3.69083e-08 5.2769e-09)
(0.262305 4.54299e-08 -9.75098e-09)
(0.262307 -8.61116e-09 4.4748e-09)
(0.250387 -2.69513e-08 3.71204e-09)
(0.250388 3.08807e-08 -5.12102e-09)
(0.25039 -4.02217e-09 1.41068e-09)
(0.234686 -1.03832e-08 2.28286e-09)
(0.234687 6.32194e-10 -2.70445e-09)
(0.234689 9.65335e-09 4.20648e-10)
(0.210587 1.95712e-09 1.94614e-09)
(0.210587 -1.1885e-08 -3.49218e-09)
(0.210588 9.83842e-09 1.53298e-09)
(0.144771 3.1042e-09 3.72082e-09)
(0.144771 -5.64141e-09 -5.2064e-09)
(0.144772 2.48936e-09 1.45773e-09)
(0.1543 -3.50912e-09 4.89816e-09)
(0.1543 5.70757e-09 -6.41175e-09)
(0.1543 -2.86199e-09 1.93928e-09)
(0.216457 -2.33188e-09 2.33293e-09)
(0.216457 1.13497e-08 -4.27603e-09)
(0.216458 -9.93348e-09 2.01752e-09)
(0.241326 9.49506e-09 2.67097e-09)
(0.241327 -9.09743e-11 -3.46819e-09)
(0.241329 -1.02452e-08 7.79801e-10)
(0.257751 2.53259e-08 4.35202e-09)
(0.257752 -2.85095e-08 -6.23607e-09)
(0.257754 2.3577e-09 1.83901e-09)
(0.270193 3.53051e-08 6.22139e-09)