/*--------------------------------*- C++ -*----------------------------------*\
  =========                 |
  \\      /  F ield         | OpenFOAM: The Open Source CFD Toolbox
   \\    /   O peration     | Website:  https://openfoam.org
    \\  /    A nd           | Version:  6
     \\/     M anipulation  |
\*---------------------------------------------------------------------------*/
FoamFile
{
    version     2.0;
    format      ascii;
    class       volScalarField;
    location    "0";
    object      k;
}
// * * * * * * * * * * * * * * * * * * * * * * * * * * * * * * * * * * * * * //

dimensions      [0 2 -2 0 0 0 0];

internalField   nonuniform List<scalar> 
63400
(
0.000446054
0.000444192
0.000442352
0.00051479
0.000513309
0.000511783
0.000510216
0.00050861
0.000445695
0.000443916
0.000442142
0.000440367
0.000438586
0.000436796
0.000509821
0.000508267
0.000445196
0.000443516
0.000441821
0.00044011
0.000438382
0.000436634
0.000434866
0.000433074
0.000385454
0.000383585
0.000381736
0.000379895
0.00043809
0.000436392
0.000434664
0.000432906
0.000385233
0.000383422
0.000381618
0.000379815
0.000378006
0.000376187
0.000374353
0.000432671
0.000335345
0.000383143
0.000381397
0.00037964
0.000377869
0.000376081
0.000374272
0.000372439
0.000335281
0.000333476
0.000331682
0.00032989
0.000328094
0.000326288
0.000374119
0.000372311
0.000335094
0.000333335
0.000331577
0.000329814
0.000328041
0.000326254
0.000324448
0.000322619
0.000292138
0.000290407
0.000288683
0.000286959
0.000285229
0.000326155
0.000324368
0.000322554
0.000292059
0.000290352
0.000288648
0.000286939
0.000285221
0.000283488
0.000281736
0.00027996
0.000253206
0.000251586
0.000249969
0.000286864
0.000285161
0.000283441
0.000281699
0.000279932
0.000253178
0.000251571
0.000249965
0.000248353
0.000246729
0.000245091
0.000243432
0.00024175
0.000216427
0.00021495
0.000213472
0.000248313
0.000246699
0.000245068
0.000243415
0.000241737
0.000216419
0.00021495
0.000213478
0.000211999
0.000210508
0.000209
0.000207472
0.000205921
0.000179893
0.000178593
0.00017729
0.000211976
0.00021049
0.000208986
0.000207462
0.000205912
0.00017989
0.000178595
0.000177296
0.000175988
0.000174667
0.00017333
0.000171974
0.000170596
0.00014147
0.000140392
0.000139309
0.000138218
0.000137116
0.000173318
0.000171964
0.000170586
0.000141465
0.00014039
0.000139309
0.00013822
0.000137118
0.000136003
0.00013487
0.000133717
0.000105257
0.000104403
0.000103542
0.000102674
0.000101796
0.000100905
0.0001
9.90791e-05
0.000105264
0.000104409
0.000103548
0.00010268
0.000101801
0.00010091
0.000100004
9.90817e-05
5.06951e-05
5.04782e-05
5.02612e-05
5.00435e-05
4.98246e-05
4.96038e-05
4.93809e-05
4.91551e-05
0.000884987
0.000886201
0.000887385
0.000935072
0.000936178
0.000937278
0.000938377
0.000939479
0.000884701
0.000885928
0.000887123
0.000888298
0.000889462
0.000890619
0.000938288
0.000939383
0.000884506
0.000885731
0.000886928
0.000888105
0.000889272
0.000890433
0.000891594
0.000892761
0.000836698
0.00083789
0.000839061
0.00084022
0.000889137
0.000890296
0.000891457
0.000892624
0.00083642
0.000837629
0.000838815
0.000839986
0.000841151
0.000842316
0.000843486
0.00089253
0.000786264
0.000837441
0.000838632
0.000839809
0.000840979
0.000842149
0.000843324
0.000844508
0.000785953
0.000787105
0.000788242
0.000789371
0.0007905
0.000791633
0.000843207
0.000844392
0.000785717
0.000786885
0.000788036
0.000789177
0.000790316
0.000791459
0.000792609
0.000793772
0.000731726
0.0007328
0.000733867
0.000734932
0.000736002
0.000791336
0.000792492
0.000793659
0.000731508
0.000732602
0.000733684
0.000734763
0.000735844
0.000736932
0.00073803
0.000739143
0.00067222
0.000673199
0.000674176
0.000734635
0.000735724
0.000736819
0.000737923
0.000739042
0.000672013
0.000673012
0.000674007
0.000675001
0.000676001
0.000677009
0.000678031
0.000679067
0.000605427
0.000606295
0.000607166
0.000674879
0.000675888
0.000676905
0.000677933
0.000678977
0.000605236
0.000606125
0.000607013
0.000607904
0.000608802
0.00060971
0.000610631
0.000611567
0.00052822
0.000528961
0.000529707
0.00060779
0.000608698
0.000609615
0.000610543
0.000611487
0.000528044
0.000528805
0.000529568
0.000530335
0.000531108
0.000531892
0.000532689
0.0005335
0.000436263
0.000436844
0.000437429
0.00043802
0.00043862
0.000531806
0.00053261
0.000533428
0.000436099
0.0004367
0.000437302
0.000437907
0.000438518
0.000439138
0.000439768
0.00044041
0.000308858
0.000309371
0.000309889
0.000310415
0.000310949
0.000311492
0.000312047
0.000312614
0.000308655
0.000309194
0.000309734
0.000310277
0.000310826
0.000311381
0.000311947
0.000312523
0.000156401
0.000155893
0.000155375
0.000154849
0.000154312
0.000153766
0.000153208
0.000152639
0.00106539
0.00106553
0.00106566
0.00110577
0.00110594
0.00110611
0.00110626
0.00110641
0.00106517
0.00106533
0.00106548
0.00106562
0.00106575
0.00106588
0.00110614
0.0011063
0.00106495
0.00106514
0.00106531
0.00106546
0.00106561
0.00106574
0.00106587
0.001066
0.00102049
0.00102061
0.00102073
0.00102085
0.00106547
0.00106562
0.00106576
0.00106589
0.00102027
0.00102042
0.00102056
0.00102069
0.00102081
0.00102093
0.00102105
0.00106579
0.000970899
0.00102023
0.00102039
0.00102054
0.00102068
0.00102081
0.00102093
0.00102105
0.000970684
0.000970816
0.000970939
0.000971056
0.000971169
0.00097128
0.00102082
0.00102095
0.000970476
0.000970632
0.000970776
0.00097091
0.000971037
0.00097116
0.000971279
0.000971396
0.000915443
0.000915566
0.000915684
0.000915798
0.000915911
0.000971051
0.000971179
0.000971304
0.000915267
0.000915411
0.000915547
0.000915676
0.000915801
0.000915923
0.000916043
0.000916162
0.000853311
0.000853432
0.00085355
0.000915562
0.000915698
0.000915829
0.000915957
0.000916083
0.00085315
0.000853291
0.000853426
0.000853557
0.000853685
0.000853812
0.000853938
0.000854065
0.000782383
0.000782511
0.000782638
0.000853453
0.000853592
0.000853727
0.000853861
0.000853994
0.000782233
0.00078238
0.000782523
0.000782664
0.000782803
0.000782942
0.000783081
0.000783222
0.0006995
0.000699645
0.00069979
0.000782568
0.000782717
0.000782864
0.00078301
0.000783157
0.000699358
0.000699521
0.000699681
0.000699839
0.000699998
0.000700157
0.000700317
0.00070048
0.000601994
0.000602142
0.000602292
0.000602443
0.000602596
0.000700083
0.00070025
0.000700419
0.000601863
0.000602028
0.000602191
0.000602353
0.000602516
0.000602679
0.000602844
0.000603011
0.000449248
0.000449768
0.000450294
0.000450828
0.000451372
0.000451926
0.000452492
0.000453072
0.000449012
0.000449562
0.000450114
0.000450668
0.000451229
0.000451798
0.000452376
0.000452966
0.000225313
0.000224513
0.000223699
0.000222872
0.000222031
0.000221174
0.000220299
0.000219406
0.00108977
0.00108985
0.00108991
0.00113004
0.00113016
0.00113026
0.00113035
0.00113043
0.00108955
0.00108965
0.00108974
0.00108982
0.00108989
0.00108996
0.00113023
0.00113032
0.00108933
0.00108946
0.00108957
0.00108967
0.00108975
0.00108983
0.0010899
0.00108997
0.00104532
0.00104538
0.00104544
0.0010455
0.00108962
0.0010897
0.00108979
0.00108986
0.0010451
0.0010452
0.00104528
0.00104535
0.00104542
0.00104548
0.00104553
0.00108976
0.000996681
0.00104501
0.00104511
0.0010452
0.00104528
0.00104536
0.00104542
0.00104549
0.000996474
0.000996545
0.000996609
0.000996667
0.000996721
0.000996772
0.00104531
0.00104539
0.000996269
0.000996366
0.00099645
0.000996525
0.000996593
0.000996656
0.000996715
0.000996771
0.000942668
0.000942727
0.000942781
0.000942832
0.000942881
0.000996549
0.000996617
0.000996681
0.000942496
0.000942577
0.000942649
0.000942715
0.000942775
0.000942832
0.000942887
0.000942939
0.000882477
0.000882527
0.000882575
0.000942603
0.000942675
0.000942741
0.000942804
0.000942863
0.000882321
0.000882391
0.000882456
0.000882515
0.000882572
0.000882627
0.000882679
0.000882731
0.000814143
0.000814191
0.000814238
0.000882414
0.000882481
0.000882544
0.000882604
0.000882663
0.000813999
0.000814066
0.000814128
0.000814187
0.000814244
0.000814299
0.000814353
0.000814408
0.000735118
0.000735168
0.000735217
0.000814094
0.00081416
0.000814224
0.000814285
0.000814345
0.000734983
0.00073505
0.000735114
0.000735175
0.000735235
0.000735294
0.000735352
0.000735411
0.000647879
0.000647884
0.000647889
0.000647893
0.000647897
0.000735223
0.000735288
0.000735352
0.00064777
0.000647789
0.000647806
0.000647819
0.000647831
0.000647842
0.000647851
0.000647859
0.000512095
0.000512559
0.00051303
0.000513509
0.000513997
0.000514495
0.000515003
0.000515524
0.000511866
0.00051236
0.000512856
0.000513354
0.000513859
0.00051437
0.000514891
0.000515422
0.000268654
0.000267813
0.000266959
0.00026609
0.000265206
0.000264305
0.000263386
0.000262448
0.0010933
0.00109336
0.00109341
0.00113332
0.00113342
0.0011335
0.00113358
0.00113364
0.00109308
0.00109317
0.00109324
0.00109331
0.00109336
0.00109341
0.00113346
0.00113353
0.00109286
0.00109298
0.00109307
0.00109315
0.00109322
0.00109329
0.00109334
0.00109339
0.00104914
0.0010492
0.00104924
0.00104928
0.00109309
0.00109316
0.00109323
0.00109328
0.00104893
0.00104901
0.00104908
0.00104913
0.00104918
0.00104923
0.00104927
0.00109318
0.0010009
0.00104883
0.00104891
0.00104899
0.00104905
0.00104911
0.00104916
0.0010492
0.0010007
0.00100075
0.0010008
0.00100084
0.00100088
0.00100092
0.00104905
0.0010491
0.0010005
0.00100058
0.00100064
0.0010007
0.00100076
0.0010008
0.00100084
0.00100088
0.000947433
0.000947475
0.000947512
0.000947547
0.000947579
0.0010007
0.00100075
0.00100079
0.000947263
0.000947327
0.000947382
0.000947431
0.000947474
0.000947515
0.000947552
0.000947587
0.000888028
0.000888061
0.000888092
0.00094732
0.000947375
0.000947424
0.00094747
0.000947512
0.000887875
0.000887927
0.000887974
0.000888016
0.000888055
0.000888091
0.000888126
0.000888159
0.000821036
0.000821064
0.000821091
0.000887916
0.000887965
0.00088801
0.000888052
0.000888091
0.000820896
0.000820942
0.000820984
0.000821024
0.00082106
0.000821095
0.000821129
0.000821162
0.000745082
0.000745105
0.000745128
0.000820933
0.000820979
0.000821022
0.000821062
0.000821101
0.000744955
0.000744995
0.000745031
0.000745065
0.000745098
0.000745129
0.000745159
0.000745189
0.000669633
0.000669573
0.000669511
0.000669448
0.000669383
0.000745063
0.000745099
0.000745134
0.000669552
0.000669502
0.000669449
0.000669393
0.000669334
0.000669273
0.000669209
0.000669143
0.00055596
0.000556479
0.000557006
0.000557543
0.000558089
0.000558647
0.000559217
0.000559801
0.000555746
0.000556293
0.000556843
0.000557397
0.000557959
0.00055853
0.000559111
0.000559705
0.000311376
0.00031051
0.000309631
0.000308736
0.000307825
0.000306898
0.000305952
0.000304987
0.00108865
0.0010887
0.00108875
0.00112849
0.00112859
0.00112867
0.00112874
0.0011288
0.00108843
0.00108851
0.00108858
0.00108864
0.00108869
0.00108873
0.00112862
0.00112869
0.00108821
0.00108832
0.00108841
0.00108849
0.00108855
0.00108861
0.00108866
0.0010887
0.00104471
0.00104475
0.00104479
0.00104483
0.00108842
0.00108848
0.00108854
0.0010886
0.0010445
0.00104457
0.00104463
0.00104468
0.00104473
0.00104477
0.0010448
0.00108849
0.000996792
0.00104439
0.00104447
0.00104454
0.0010446
0.00104465
0.0010447
0.00104474
0.00099659
0.00099664
0.000996682
0.000996719
0.000996752
0.000996781
0.00104459
0.00104464
0.000996389
0.000996463
0.000996526
0.00099658
0.000996627
0.000996668
0.000996706
0.000996739
0.00094384
0.000943876
0.000943908
0.000943937
0.000943964
0.000996563
0.000996609
0.000996651
0.000943672
0.00094373
0.00094378
0.000943823
0.000943861
0.000943895
0.000943927
0.000943956
0.000885339
0.000885366
0.00088539
0.000943713
0.000943763
0.000943806
0.000943846
0.000943882
0.000885189
0.000885235
0.000885275
0.00088531
0.000885342
0.000885372
0.0008854
0.000885426
0.000820193
0.000820212
0.00082023
0.000885212
0.000885254
0.000885293
0.000885327
0.00088536
0.000820058
0.000820095
0.000820127
0.000820157
0.000820184
0.00082021
0.000820234
0.000820257
0.000748944
0.000748949
0.000748954
0.000820069
0.000820106
0.000820139
0.000820169
0.000820198
0.000748828
0.000748849
0.000748866
0.000748881
0.000748894
0.000748906
0.000748916
0.000748926
0.000688835
0.000688722
0.000688606
0.000688489
0.000688369
0.000748845
0.000748861
0.000748876
0.000688786
0.00068868
0.00068857
0.000688456
0.00068834
0.00068822
0.000688096
0.00068797
0.000600383
0.000600982
0.000601592
0.000602212
0.000602844
0.000603489
0.000604149
0.000604824
0.000600184
0.00060081
0.00060144
0.000602077
0.000602724
0.000603381
0.000604051
0.000604735
0.000356255
0.000355361
0.000354453
0.000353529
0.000352589
0.000351632
0.000350655
0.000349658
0.00107931
0.00107936
0.00107941
0.001119
0.00111909
0.00111917
0.00111924
0.0011193
0.00107909
0.00107917
0.00107924
0.0010793
0.00107935
0.00107939
0.00111912
0.00111919
0.00107888
0.00107898
0.00107907
0.00107915
0.00107921
0.00107926
0.00107931
0.00107936
0.00103561
0.00103566
0.0010357
0.00103573
0.00107907
0.00107914
0.0010792
0.00107925
0.0010354
0.00103548
0.00103553
0.00103558
0.00103563
0.00103567
0.0010357
0.00107915
0.000988098
0.00103529
0.00103537
0.00103544
0.0010355
0.00103555
0.00103559
0.00103563
0.000987898
0.000987945
0.000987985
0.00098802
0.00098805
0.000988077
0.00103548
0.00103553
0.000987698
0.00098777
0.000987831
0.000987882
0.000987927
0.000987966
0.000988001
0.000988032
0.000935854
0.000935888
0.000935917
0.000935943
0.000935967
0.000987862
0.000987905
0.000987945
0.000935689
0.000935744
0.000935791
0.000935831
0.000935866
0.000935897
0.000935926
0.000935952
0.000878695
0.000878717
0.000878737
0.000935723
0.000935769
0.00093581
0.000935846
0.000935879
0.000878549
0.00087859
0.000878625
0.000878656
0.000878684
0.000878709
0.000878732
0.000878754
0.000816409
0.00081642
0.000816431
0.000878561
0.000878598
0.000878632
0.000878662
0.000878689
0.000816281
0.00081631
0.000816334
0.000816355
0.000816373
0.00081639
0.000816406
0.00081642
0.000752205
0.000752192
0.000752179
0.000816272
0.000816299
0.000816323
0.000816345
0.000816364
0.000752106
0.000752106
0.000752103
0.000752098
0.00075209
0.000752081
0.00075207
0.000752059
0.000710396
0.000710244
0.000710089
0.000709931
0.000709769
0.000752029
0.000752023
0.000752015
0.000710382
0.000710232
0.000710079
0.000709922
0.000709762
0.000709598
0.00070943
0.000709257
0.000647133
0.000647815
0.000648509
0.000649216
0.000649936
0.000650671
0.000651423
0.000652193
0.000646949
0.000647655
0.000648369
0.000649091
0.000649824
0.000650571
0.000651332
0.000652111
0.000403443
0.000402522
0.000401585
0.000400632
0.000399663
0.000398676
0.000397669
0.000396641
0.00106636
0.00106642
0.00106646
0.00110585
0.00110595
0.00110602
0.00110609
0.00110615
0.00106615
0.00106623
0.00106629
0.00106635
0.0010664
0.00106644
0.00110598
0.00110605
0.00106593
0.00106604
0.00106612
0.0010662
0.00106626
0.00106632
0.00106636
0.0010664
0.001023
0.00102304
0.00102308
0.00102311
0.00106613
0.00106619
0.00106625
0.0010663
0.00102279
0.00102286
0.00102292
0.00102296
0.00102301
0.00102304
0.00102308
0.0010662
0.000976055
0.00102268
0.00102276
0.00102282
0.00102288
0.00102293
0.00102297
0.00102301
0.000975858
0.000975903
0.000975942
0.000975975
0.000976004
0.000976029
0.00102286
0.00102291
0.000975661
0.000975731
0.00097579
0.000975839
0.000975882
0.000975919
0.000975953
0.000975982
0.000924873
0.000924904
0.000924931
0.000924954
0.000924976
0.000975817
0.000975859
0.000975896
0.000924712
0.000924764
0.000924807
0.000924845
0.000924877
0.000924906
0.000924932
0.000924955
0.000869766
0.000869784
0.000869799
0.000924739
0.000924783
0.00092482
0.000924854
0.000924884
0.000869627
0.000869663
0.000869693
0.000869719
0.000869741
0.000869761
0.000869779
0.000869796
0.0008118
0.000811802
0.000811804
0.000869628
0.00086966
0.000869688
0.000869712
0.000869735
0.000811685
0.000811702
0.000811716
0.000811727
0.000811735
0.000811741
0.000811746
0.00081175
0.000757366
0.000757333
0.0007573
0.000811652
0.000811668
0.000811681
0.000811691
0.0008117
0.000757289
0.000757267
0.000757241
0.000757214
0.000757184
0.000757152
0.000757119
0.000757085
0.000735592
0.000735421
0.000735246
0.000735067
0.000734886
0.000757112
0.000757083
0.000757051
0.000735612
0.000735438
0.000735261
0.000735081
0.000734898
0.000734711
0.00073452
0.000734325
0.000694611
0.000695362
0.000696125
0.000696902
0.000697694
0.000698503
0.00069933
0.000700177
0.00069444
0.000695213
0.000695994
0.000696786
0.00069759
0.00069841
0.000699246
0.000700101
0.000452158
0.000451218
0.000450262
0.00044929
0.000448301
0.000447293
0.000446266
0.000445217
0.00105011
0.00105016
0.00105021
0.00108932
0.00108942
0.00108949
0.00108956
0.00108962
0.00104989
0.00104997
0.00105004
0.00105009
0.00105014
0.00105018
0.00108945
0.00108951
0.00104968
0.00104979
0.00104987
0.00104995
0.00105001
0.00105006
0.00105011
0.00105015
0.00100722
0.00100726
0.0010073
0.00100733
0.00104987
0.00104994
0.00105
0.00105005
0.00100702
0.00100708
0.00100714
0.00100719
0.00100723
0.00100726
0.0010073
0.00104995
0.000961133
0.00100691
0.00100698
0.00100705
0.0010071
0.00100715
0.00100719
0.00100723
0.00096094
0.000960984
0.00096102
0.000961052
0.000961079
0.000961103
0.00100709
0.00100713
0.000960748
0.000960816
0.000960872
0.000960919
0.00096096
0.000960996
0.000961027
0.000961055
0.000911549
0.000911577
0.000911601
0.000911621
0.000911639
0.000960895
0.000960936
0.000960971
0.000911394
0.000911442
0.000911482
0.000911516
0.000911545
0.00091157
0.000911593
0.000911613
0.000859511
0.000859523
0.000859533
0.000911415
0.000911454
0.000911488
0.000911518
0.000911545
0.000859382
0.000859411
0.000859434
0.000859453
0.00085947
0.000859483
0.000859495
0.000859506
0.000807735
0.000807727
0.000807717
0.000859369
0.000859394
0.000859415
0.000859433
0.000859449
0.000807637
0.000807641
0.000807642
0.00080764
0.000807636
0.00080763
0.000807622
0.000807614
0.000765811
0.000765761
0.000765709
0.000807576
0.000807578
0.000807578
0.000807575
0.000807571
0.000765762
0.000765718
0.000765671
0.000765623
0.000765572
0.000765519
0.000765465
0.000765409
0.00076415
0.000763982
0.000763811
0.000763637
0.000763459
0.000765493
0.000765441
0.000765387
0.000764197
0.000764023
0.000763847
0.000763669
0.000763488
0.000763304
0.000763116
0.000762923
0.000740263
0.000741053
0.000741857
0.000742675
0.000743509
0.000744361
0.000745232
0.000746124
0.000740103
0.000740913
0.000741734
0.000742566
0.000743411
0.000744273
0.000745152
0.000746052
0.000501132
0.000500189
0.000499232
0.000498258
0.000497267
0.000496258
0.000495229
0.000494177
0.00103054
0.00103059
0.00103063
0.00106936
0.00106945
0.00106952
0.00106959
0.00106965
0.00103033
0.0010304
0.00103047
0.00103052
0.00103057
0.00103061
0.00106948
0.00106955
0.00103012
0.00103022
0.0010303
0.00103038
0.00103044
0.00103049
0.00103054
0.00103058
0.000988352
0.000988393
0.000988428
0.000988457
0.00103031
0.00103037
0.00103043
0.00103048
0.000988151
0.000988218
0.000988273
0.000988319
0.000988359
0.000988394
0.000988424
0.00103038
0.000943531
0.000988044
0.000988119
0.000988181
0.000988235
0.000988281
0.000988322
0.000988357
0.000943345
0.000943386
0.00094342
0.000943449
0.000943474
0.000943496
0.000988219
0.000988263
0.000943159
0.000943223
0.000943276
0.000943321
0.000943359
0.000943392
0.000943421
0.000943447
0.000896307
0.000896331
0.00089635
0.000896367
0.000896381
0.000943295
0.000943333
0.000943366
0.000896162
0.000896204
0.000896239
0.000896268
0.000896292
0.000896313
0.000896332
0.000896348
0.000848689
0.000848693
0.000848696
0.000896173
0.000896207
0.000896236
0.000896261
0.000896283
0.000848574
0.000848593
0.000848608
0.000848619
0.000848627
0.000848632
0.000848636
0.000848638
0.000805278
0.000805257
0.000805235
0.000848543
0.000848559
0.000848571
0.000848581
0.000848588
0.000805201
0.000805191
0.000805177
0.000805161
0.000805143
0.000805123
0.000805101
0.000805078
0.000778179
0.000778115
0.00077805
0.000805111
0.000805098
0.000805082
0.000805065
0.000805045
0.000778158
0.000778097
0.000778035
0.00077797
0.000777904
0.000777835
0.000777765
0.000777693
0.000794807
0.000794666
0.000794522
0.000794375
0.000794225
0.000777824
0.000777755
0.000777684
0.000794874
0.000794724
0.000794573
0.000794421
0.000794266
0.00079411
0.00079395
0.000793787
0.0007814
0.000782193
0.000783
0.000783821
0.000784658
0.000785513
0.000786386
0.000787281
0.000781247
0.00078206
0.000782882
0.000783717
0.000784565
0.000785429
0.000786311
0.000787213
0.00054882
0.000547899
0.000546962
0.00054601
0.000545042
0.000544055
0.000543049
0.000542022
0.00100749
0.00100754
0.00100758
0.00104573
0.00104582
0.0010459
0.00104597
0.00104603
0.00100728
0.00100736
0.00100742
0.00100748
0.00100752
0.00100756
0.00104585
0.00104592
0.00100708
0.00100718
0.00100726
0.00100733
0.00100739
0.00100744
0.00100749
0.00100753
0.00096633
0.000966369
0.000966402
0.00096643
0.00100726
0.00100733
0.00100738
0.00100743
0.000966135
0.000966199
0.000966252
0.000966296
0.000966335
0.000966368
0.000966396
0.00100733
0.000923359
0.00096603
0.000966102
0.000966163
0.000966214
0.000966258
0.000966297
0.000966331
0.000923183
0.00092322
0.000923251
0.000923276
0.000923298
0.000923317
0.000966198
0.000966239
0.000923006
0.000923066
0.000923115
0.000923155
0.00092319
0.000923219
0.000923245
0.000923267
0.000879527
0.000879545
0.000879559
0.00087957
0.000879579
0.000923127
0.000923161
0.00092319
0.000879395
0.00087943
0.000879457
0.00087948
0.000879498
0.000879513
0.000879525
0.000879536
0.000838006
0.000838002
0.000837996
0.000879393
0.00087942
0.000879443
0.000879462
0.000879477
0.00083791
0.000837918
0.000837922
0.000837923
0.000837921
0.000837917
0.000837911
0.000837903
0.000805227
0.000805194
0.000805161
0.00083786
0.000837865
0.000837866
0.000837864
0.000837861
0.000805177
0.000805151
0.000805123
0.000805093
0.000805061
0.000805028
0.000804993
0.000804956
0.000794357
0.000794289
0.000794219
0.00080506
0.000805032
0.000805001
0.000804968
0.000804934
0.000794367
0.000794297
0.000794227
0.000794155
0.000794082
0.000794007
0.000793931
0.000793853
0.000825583
0.000825487
0.000825388
0.000825288
0.000825186
0.000794012
0.000793935
0.000793857
0.000825659
0.000825553
0.000825446
0.00082534
0.000825232
0.000825124
0.000825013
0.000824901
0.000815642
0.000816398
0.000817167
0.00081795
0.000818748
0.000819563
0.000820397
0.00082125
0.000815495
0.00081627
0.000817055
0.00081785
0.000818659
0.000819483
0.000820324
0.000821185
0.000593633
0.000592758
0.000591869
0.000590964
0.000590044
0.000589107
0.000588152
0.000587176
0.000980722
0.000980772
0.000980814
0.00101813
0.00101822
0.00101829
0.00101836
0.00101842
0.000980519
0.000980594
0.000980657
0.000980709
0.000980754
0.000980793
0.00101825
0.00101832
0.000980319
0.000980417
0.000980499
0.000980568
0.000980627
0.000980678
0.000980722
0.000980761
0.000941045
0.000941082
0.000941113
0.000941139
0.000980501
0.000980563
0.000980617
0.000980664
0.000940859
0.00094092
0.000940969
0.000941011
0.000941046
0.000941077
0.000941104
0.000980568
0.000900726
0.000940758
0.000940826
0.000940883
0.000940931
0.000940972
0.000941008
0.00094104
0.000900564
0.000900596
0.000900622
0.000900643
0.00090066
0.000900675
0.000940913
0.000940952
0.000900401
0.000900454
0.000900496
0.000900531
0.00090056
0.000900585
0.000900605
0.000900623
0.000861615
0.000861626
0.000861632
0.000861637
0.000861639
0.0009005
0.000900528
0.000900552
0.000861501
0.000861526
0.000861545
0.000861559
0.000861569
0.000861576
0.000861581
0.000861584
0.000828118
0.000828104
0.000828088
0.000861484
0.000861502
0.000861516
0.000861526
0.000861533
0.000828046
0.000828042
0.000828033
0.000828022
0.000828009
0.000827994
0.000827977
0.000827959
0.000808003
0.000807962
0.00080792
0.000827975
0.000827967
0.000827956
0.000827943
0.000827927
0.000807983
0.000807945
0.000807905
0.000807863
0.00080782
0.000807776
0.000807731
0.000807684
0.000813426
0.000813364
0.000813301
0.00080785
0.000807808
0.000807765
0.000807721
0.000807675
0.000813462
0.000813395
0.000813328
0.000813261
0.000813192
0.000813123
0.000813052
0.00081298
0.000854026
0.000853986
0.000853944
0.000853902
0.000853859
0.000813141
0.000813069
0.000812995
0.000854101
0.00085405
0.000854001
0.000853952
0.000853904
0.000853856
0.000853807
0.000853758
0.000841248
0.000841931
0.000842625
0.000843332
0.000844052
0.000844787
0.000845539
0.000846309
0.000841107
0.000841808
0.000842517
0.000843235
0.000843966
0.00084471
0.000845469
0.000846246
0.000634221
0.000633417
0.000632599
0.000631768
0.000630922
0.000630061
0.000629182
0.000628284
0.000949952
0.000950001
0.000950041
0.000986162
0.000986249
0.000986324
0.000986389
0.000986447
0.000949757
0.000949829
0.000949889
0.00094994
0.000949983
0.00095002
0.00098628
0.000986346
0.000949565
0.000949659
0.000949738
0.000949804
0.00094986
0.000949909
0.000949951
0.000949988
0.000912397
0.00091243
0.000912457
0.00091248
0.000949739
0.000949798
0.00094985
0.000949895
0.000912223
0.000912278
0.000912323
0.000912361
0.000912392
0.000912419
0.000912442
0.000949803
0.000875786
0.000912128
0.00091219
0.000912241
0.000912285
0.000912322
0.000912353
0.000912381
0.000875642
0.000875667
0.000875687
0.000875702
0.000875714
0.000875723
0.000912265
0.000912299
0.000875499
0.000875542
0.000875576
0.000875603
0.000875625
0.000875643
0.000875657
0.000875669
0.000843008
0.000843009
0.000843007
0.000843003
0.000842997
0.000875568
0.000875588
0.000875606
0.000842918
0.00084293
0.000842938
0.000842941
0.000842942
0.00084294
0.000842936
0.00084293
0.00081953
0.000819506
0.000819481
0.000842882
0.000842889
0.000842892
0.000842892
0.00084289
0.000819488
0.00081947
0.00081945
0.000819427
0.000819403
0.000819377
0.00081935
0.000819321
0.000813473
0.000813429
0.000813383
0.0008194
0.000819378
0.000819355
0.00081933
0.000819303
0.000813485
0.000813438
0.000813391
0.000813344
0.000813295
0.000813246
0.000813196
0.000813144
0.000833636
0.00083359
0.000833544
0.000813351
0.000813302
0.000813252
0.000813201
0.000813149
0.000833691
0.000833639
0.000833587
0.000833535
0.000833483
0.000833431
0.000833379
0.000833325
0.000877516
0.000877533
0.00087755
0.000877567
0.000877584
0.00083346
0.000833405
0.000833349
0.000877579
0.000877587
0.000877597
0.000877609
0.000877622
0.000877637
0.000877652
0.000877668
0.000857392
0.000857971
0.00085856
0.00085916
0.000859771
0.000860394
0.000861031
0.000861684
0.000857257
0.000857853
0.000858456
0.000859067
0.000859688
0.00086032
0.000860965
0.000861624
0.000669773
0.00066906
0.000668335
0.000667598
0.000666849
0.000666085
0.000665306
0.000664511
0.000914909
0.000914954
0.000914991
0.000949406
0.00094949
0.000949563
0.000949627
0.000949682
0.000914725
0.000914792
0.000914848
0.000914895
0.000914935
0.000914969
0.000949521
0.000949585
0.000914544
0.000914632
0.000914706
0.000914768
0.00091482
0.000914865
0.000914904
0.000914938
0.000880328
0.000880356
0.000880378
0.000880396
0.000914706
0.000914761
0.000914809
0.00091485
0.000880171
0.000880219
0.000880257
0.000880289
0.000880315
0.000880336
0.000880355
0.000914763
0.000848756
0.000880083
0.000880137
0.000880181
0.000880218
0.000880248
0.000880274
0.000880297
0.000848637
0.000848653
0.000848664
0.000848671
0.000848675
0.000848678
0.000880195
0.000880223
0.000848519
0.00084855
0.000848573
0.00084859
0.000848603
0.000848612
0.000848618
0.000848622
0.000824119
0.00082411
0.000824098
0.000824085
0.00082407
0.00084855
0.000848561
0.00084857
0.000824058
0.000824057
0.000824052
0.000824044
0.000824034
0.000824021
0.000824007
0.000823992
0.000812436
0.000812405
0.000812373
0.000824004
0.000823998
0.000823989
0.000823978
0.000823965
0.000812428
0.000812398
0.000812367
0.000812335
0.000812302
0.000812268
0.000812233
0.000812197
0.000820778
0.000820736
0.000820694
0.00081233
0.000812297
0.000812264
0.000812229
0.000812193
0.000820818
0.000820772
0.000820725
0.000820679
0.000820633
0.000820586
0.000820539
0.000820491
0.000852507
0.000852487
0.000852467
0.000820705
0.000820656
0.000820607
0.000820558
0.000820508
0.000852574
0.000852546
0.000852519
0.000852493
0.000852467
0.000852442
0.000852418
0.000852393
0.000893637
0.000893702
0.000893768
0.000893836
0.000893905
0.000852477
0.000852449
0.000852422
0.000893681
0.00089374
0.000893802
0.000893865
0.000893931
0.000893999
0.000894069
0.00089414
0.000864337
0.000864794
0.000865259
0.000865733
0.000866215
0.000866707
0.00086721
0.000867725
0.000864209
0.000864684
0.000865162
0.000865646
0.000866137
0.000866637
0.000867147
0.000867668
0.00070022
0.000699614
0.000698999
0.000698373
0.000697736
0.000697087
0.000696425
0.00069575
0.000875361
0.000875401
0.000875434
0.000907449
0.000907529
0.000907598
0.000907658
0.000907711
0.000875193
0.000875254
0.000875304
0.000875346
0.000875381
0.000875411
0.000907558
0.000907618
0.000875027
0.000875108
0.000875174
0.000875229
0.000875276
0.000875315
0.00087535
0.000875379
0.000844864
0.000844884
0.0008449
0.000844912
0.000875171
0.00087522
0.000875262
0.000875299
0.000844731
0.000844768
0.000844797
0.000844821
0.000844839
0.000844854
0.000844866
0.00087522
0.000819904
0.000844653
0.000844695
0.000844729
0.000844757
0.000844779
0.000844798
0.000844813
0.000819819
0.000819823
0.000819824
0.000819822
0.000819818
0.000819811
0.00084473
0.00084475
0.000819733
0.000819748
0.000819758
0.000819763
0.000819765
0.000819764
0.00081976
0.000819755
0.000805221
0.000805202
0.000805182
0.00080516
0.000805138
0.000819719
0.000819719
0.000819717
0.000805196
0.000805181
0.000805163
0.000805144
0.000805123
0.000805101
0.000805077
0.000805053
0.000806515
0.000806481
0.000806446
0.000805127
0.000805108
0.000805087
0.000805065
0.000805042
0.000806541
0.000806504
0.000806467
0.000806429
0.000806392
0.000806354
0.000806315
0.000806276
0.000828237
0.000828207
0.000828176
0.000806446
0.000806407
0.000806368
0.000806328
0.000806288
0.000828301
0.000828262
0.000828225
0.000828189
0.000828153
0.000828118
0.000828082
0.000828047
0.000867093
0.000867104
0.000867114
0.00082823
0.00082819
0.000828151
0.000828113
0.000828075
0.000867162
0.000867163
0.000867167
0.000867172
0.000867178
0.000867186
0.000867194
0.000867204
0.000900595
0.000900691
0.000900789
0.000900888
0.00090099
0.000867222
0.000867227
0.000867234
0.000900618
0.000900711
0.000900806
0.000900903
0.000901003
0.000901106
0.000901211
0.000901318
0.00086347
0.000863801
0.000864138
0.00086448
0.000864829
0.000865185