/*--------------------------------*- C++ -*----------------------------------*\
  =========                 |
  \\      /  F ield         | OpenFOAM: The Open Source CFD Toolbox
   \\    /   O peration     | Website:  https://openfoam.org
    \\  /    A nd           | Version:  6
     \\/     M anipulation  |
\*---------------------------------------------------------------------------*/
FoamFile
{
    version     2.0;
    format      ascii;
    class       volVectorField;
    location    "0";
    object      U;
}
// * * * * * * * * * * * * * * * * * * * * * * * * * * * * * * * * * * * * * //

dimensions      [0 1 -1 0 0 0 0];

internalField   nonuniform List<vector> 
63400
(
(0.123846 -1.09535e-08 -1.72838e-10)
(0.123645 -1.08167e-08 -1.69739e-10)
(0.123449 -1.06811e-08 -1.66635e-10)
(0.126886 -1.18091e-08 -7.02373e-11)
(0.126705 -1.16668e-08 -6.89354e-11)
(0.126521 -1.15251e-08 -6.76325e-11)
(0.126336 -1.13838e-08 -6.63227e-11)
(0.126148 -1.12427e-08 -6.50013e-11)
(0.123833 -1.09341e-08 -1.7346e-10)
(0.123638 -1.08022e-08 -1.70326e-10)
(0.123446 -1.06706e-08 -1.67195e-10)
(0.123255 -1.05393e-08 -1.64048e-10)
(0.123064 -1.04084e-08 -1.60873e-10)
(0.122874 -1.02777e-08 -1.57661e-10)
(0.126319 -1.13804e-08 -6.65241e-11)
(0.126135 -1.12413e-08 -6.5197e-11)
(0.123805 -1.09066e-08 -1.73919e-10)
(0.123617 -1.07799e-08 -1.70771e-10)
(0.123431 -1.06528e-08 -1.67626e-10)
(0.123245 -1.05253e-08 -1.64468e-10)
(0.123058 -1.03977e-08 -1.61284e-10)
(0.122871 -1.02698e-08 -1.58061e-10)
(0.122682 -1.01417e-08 -1.5479e-10)
(0.122492 -1.00133e-08 -1.51465e-10)
(0.119739 -5.70873e-09 -2.74565e-10)
(0.119546 -5.6533e-09 -2.69944e-10)
(0.119355 -5.59811e-09 -2.65291e-10)
(0.119165 -5.54335e-09 -2.60589e-10)
(0.123043 -1.03807e-08 -1.61582e-10)
(0.122859 -1.02559e-08 -1.58359e-10)
(0.122674 -1.01304e-08 -1.55086e-10)
(0.122486 -1.00043e-08 -1.51755e-10)
(0.119725 -5.66927e-09 -2.75151e-10)
(0.119536 -5.6198e-09 -2.70509e-10)
(0.119349 -5.56951e-09 -2.65839e-10)
(0.119162 -5.51881e-09 -2.61124e-10)
(0.118976 -5.46796e-09 -2.56349e-10)
(0.118788 -5.41715e-09 -2.51501e-10)
(0.118599 -5.3665e-09 -2.4657e-10)
(0.122473 -9.99001e-09 -1.51957e-10)
(0.11518 2.97325e-09 -3.95286e-10)
(0.119515 -5.58285e-09 -2.7086e-10)
(0.119333 -5.5375e-09 -2.66194e-10)
(0.11915 -5.49094e-09 -2.61482e-10)
(0.118967 -5.44361e-09 -2.56709e-10)
(0.118782 -5.39578e-09 -2.51861e-10)
(0.118596 -5.34768e-09 -2.46926e-10)
(0.118407 -5.29945e-09 -2.41895e-10)
(0.115172 3.02801e-09 -3.96037e-10)
(0.114986 2.96189e-09 -3.89708e-10)
(0.114802 2.89599e-09 -3.83332e-10)
(0.114617 2.82977e-09 -3.76889e-10)
(0.114433 2.76287e-09 -3.70361e-10)
(0.114247 2.69496e-09 -3.63733e-10)
(0.118584 -5.32619e-09 -2.47136e-10)
(0.118398 -5.28021e-09 -2.42109e-10)
(0.115152 3.08068e-09 -3.96469e-10)
(0.114971 3.00821e-09 -3.9014e-10)
(0.11479 2.93716e-09 -3.83766e-10)
(0.114609 2.86674e-09 -3.77325e-10)
(0.114427 2.79632e-09 -3.70797e-10)
(0.114243 2.72543e-09 -3.64167e-10)
(0.114057 2.65368e-09 -3.5742e-10)
(0.11387 2.58076e-09 -3.50542e-10)
(0.110083 1.47752e-08 -4.94629e-10)
(0.109901 1.45336e-08 -4.86913e-10)
(0.109721 1.42913e-08 -4.79129e-10)
(0.10954 1.40476e-08 -4.71256e-10)
(0.109358 1.38019e-08 -4.63276e-10)
(0.114232 2.75249e-09 -3.64374e-10)
(0.114049 2.67849e-09 -3.57635e-10)
(0.113862 2.60358e-09 -3.50759e-10)
(0.110069 1.48238e-08 -4.94864e-10)
(0.109891 1.45773e-08 -4.87169e-10)
(0.109712 1.43312e-08 -4.79403e-10)
(0.109534 1.40844e-08 -4.71545e-10)
(0.109354 1.38361e-08 -4.63575e-10)
(0.109172 1.35853e-08 -4.55476e-10)
(0.108989 1.33316e-08 -4.4723e-10)
(0.108803 1.30742e-08 -4.38821e-10)
(0.104334 2.64283e-08 -4.89842e-10)
(0.104157 2.6025e-08 -4.82485e-10)
(0.103981 2.56198e-08 -4.75062e-10)
(0.109522 1.4113e-08 -4.71602e-10)
(0.109344 1.38626e-08 -4.63658e-10)
(0.109164 1.36101e-08 -4.55577e-10)
(0.108982 1.33548e-08 -4.47344e-10)
(0.108797 1.30959e-08 -4.3894e-10)
(0.104323 2.64651e-08 -4.89778e-10)
(0.104148 2.60591e-08 -4.82471e-10)
(0.103974 2.56519e-08 -4.75086e-10)
(0.103798 2.52423e-08 -4.67609e-10)
(0.103622 2.48293e-08 -4.60022e-10)
(0.103443 2.4412e-08 -4.5231e-10)
(0.103262 2.39895e-08 -4.44458e-10)
(0.103079 2.3561e-08 -4.3645e-10)
(0.0977277 3.32113e-08 -3.27641e-10)
(0.0975562 3.27009e-08 -3.22871e-10)
(0.0973847 3.21879e-08 -3.18055e-10)
(0.103789 2.52612e-08 -4.67481e-10)
(0.103614 2.48475e-08 -4.59929e-10)
(0.103436 2.44294e-08 -4.52244e-10)
(0.103256 2.40061e-08 -4.44411e-10)
(0.103074 2.35765e-08 -4.36415e-10)
(0.0977171 3.3223e-08 -3.27406e-10)
(0.0975478 3.27132e-08 -3.22687e-10)
(0.097378 3.22007e-08 -3.17912e-10)
(0.0972071 3.16844e-08 -3.13072e-10)
(0.0970347 3.11631e-08 -3.08158e-10)
(0.0968602 3.06357e-08 -3.03161e-10)
(0.0966833 3.01013e-08 -2.98071e-10)
(0.0965036 2.95587e-08 -2.92879e-10)
(0.089915 2.91095e-08 -1.02178e-10)
(0.0897504 2.86779e-08 -1.00683e-10)
(0.0895854 2.8244e-08 -9.91745e-11)
(0.0971981 3.16859e-08 -3.12866e-10)
(0.0970269 3.11654e-08 -3.07983e-10)
(0.0968535 3.06386e-08 -3.0301e-10)
(0.0966774 3.01044e-08 -2.97939e-10)
(0.0964983 2.95617e-08 -2.92759e-10)
(0.089904 2.90964e-08 -1.01973e-10)
(0.0897414 2.86679e-08 -1.0051e-10)
(0.089578 2.82364e-08 -9.9027e-11)
(0.0894132 2.78013e-08 -9.75226e-11)
(0.0892467 2.73616e-08 -9.59954e-11)
(0.0890781 2.69166e-08 -9.4443e-11)
(0.088907 2.64654e-08 -9.2863e-11)
(0.0887329 2.6007e-08 -9.12528e-11)
(0.0802773 1.75731e-08 4.08846e-11)
(0.0801217 1.73217e-08 4.03473e-11)
(0.0799655 1.7069e-08 3.97996e-11)
(0.079808 1.68144e-08 3.92394e-11)
(0.079649 1.65574e-08 3.86648e-11)
(0.0890711 2.69064e-08 -9.43251e-11)
(0.0889007 2.64562e-08 -9.27565e-11)
(0.0887271 2.59985e-08 -9.11551e-11)
(0.0802649 1.75551e-08 4.09609e-11)
(0.0801113 1.73067e-08 4.04145e-11)
(0.0799566 1.70563e-08 3.98594e-11)
(0.0798004 1.68035e-08 3.9293e-11)
(0.0796424 1.65479e-08 3.87131e-11)
(0.0794821 1.6289e-08 3.81177e-11)
(0.0793193 1.60264e-08 3.75049e-11)
(0.0791535 1.57596e-08 3.6873e-11)
(0.0735377 6.48317e-09 2.82371e-11)
(0.0733383 6.40066e-09 2.7888e-11)
(0.0731372 6.31756e-09 2.75295e-11)
(0.0729342 6.23373e-09 2.71603e-11)
(0.0727286 6.14903e-09 2.67793e-11)
(0.0725201 6.06329e-09 2.63852e-11)
(0.0723082 5.97633e-09 2.5977e-11)
(0.0720923 5.88799e-09 2.55535e-11)
(0.073539 6.47266e-09 2.81817e-11)
(0.0733396 6.39164e-09 2.78405e-11)
(0.0731385 6.30973e-09 2.74883e-11)
(0.0729355 6.22686e-09 2.71241e-11)
(0.0727298 6.14292e-09 2.67471e-11)
(0.0725211 6.05778e-09 2.63562e-11)
(0.072309 5.9713e-09 2.59505e-11)
(0.0720928 5.88332e-09 2.5529e-11)
(0.0677354 1.2392e-09 -7.01019e-11)
(0.0677033 1.22281e-09 -6.89936e-11)
(0.0676713 1.20621e-09 -6.79192e-11)
(0.0676395 1.1894e-09 -6.68759e-11)
(0.0676076 1.17234e-09 -6.58613e-11)
(0.0675755 1.15503e-09 -6.48731e-11)
(0.0675432 1.13743e-09 -6.39093e-11)
(0.0675106 1.11951e-09 -6.29677e-11)
(0.177191 -1.47489e-08 -4.04861e-10)
(0.177266 -1.46003e-08 -3.96532e-10)
(0.177339 -1.44523e-08 -3.87999e-10)
(0.180857 -1.59361e-08 -1.82919e-10)
(0.180929 -1.57812e-08 -1.77275e-10)
(0.181002 -1.56267e-08 -1.71462e-10)
(0.181073 -1.54726e-08 -1.65462e-10)
(0.181145 -1.53187e-08 -1.59264e-10)
(0.177168 -1.47234e-08 -4.06281e-10)
(0.177244 -1.45805e-08 -3.97873e-10)
(0.177319 -1.44374e-08 -3.8928e-10)
(0.177391 -1.42941e-08 -3.80475e-10)
(0.177463 -1.41508e-08 -3.71434e-10)
(0.177535 -1.40075e-08 -3.6214e-10)
(0.181066 -1.54695e-08 -1.65964e-10)
(0.181137 -1.53176e-08 -1.59752e-10)
(0.17715 -1.46892e-08 -4.07371e-10)
(0.177227 -1.45524e-08 -3.9891e-10)
(0.177302 -1.44145e-08 -3.9028e-10)
(0.177375 -1.42757e-08 -3.81448e-10)
(0.177448 -1.41363e-08 -3.72386e-10)
(0.17752 -1.39964e-08 -3.63071e-10)
(0.177591 -1.38559e-08 -3.53484e-10)
(0.177663 -1.37149e-08 -3.43607e-10)
(0.173036 -7.61646e-09 -6.37355e-10)
(0.173108 -7.56024e-09 -6.26469e-10)
(0.173179 -7.50411e-09 -6.15338e-10)
(0.173249 -7.44837e-09 -6.0394e-10)
(0.177436 -1.41148e-08 -3.73077e-10)
(0.177508 -1.39785e-08 -3.6376e-10)
(0.17758 -1.38412e-08 -3.54167e-10)
(0.177652 -1.37029e-08 -3.44276e-10)
(0.173012 -7.56459e-09 -6.38678e-10)
(0.173086 -7.51589e-09 -6.27737e-10)
(0.173159 -7.46596e-09 -6.16569e-10)
(0.17323 -7.41538e-09 -6.05145e-10)
(0.173301 -7.36456e-09 -5.93437e-10)
(0.173371 -7.31378e-09 -5.81424e-10)
(0.173442 -7.26324e-09 -5.69083e-10)
(0.177643 -1.36849e-08 -3.4473e-10)
(0.168231 4.23547e-09 -9.02669e-10)
(0.173069 -7.46791e-09 -6.28574e-10)
(0.173142 -7.42412e-09 -6.17396e-10)
(0.173214 -7.37872e-09 -6.05969e-10)
(0.173286 -7.3323e-09 -5.94261e-10)
(0.173357 -7.28529e-09 -5.82245e-10)
(0.173428 -7.23799e-09 -5.69896e-10)
(0.1735 -7.19062e-09 -5.57189e-10)
(0.168205 4.30798e-09 -9.04351e-10)
(0.168275 4.225e-09 -8.90314e-10)
(0.168345 4.14188e-09 -8.76022e-10)
(0.168414 4.05797e-09 -8.61442e-10)
(0.168483 3.97278e-09 -8.46544e-10)
(0.168552 3.88589e-09 -8.31299e-10)
(0.173418 -7.20974e-09 -5.70383e-10)
(0.17349 -7.1652e-09 -5.5768e-10)
(0.168183 4.37808e-09 -9.05406e-10)
(0.168256 4.2867e-09 -8.91343e-10)
(0.168327 4.1968e-09 -8.77039e-10)
(0.168397 4.10733e-09 -8.62454e-10)
(0.168467 4.0175e-09 -8.47551e-10)
(0.168537 3.92668e-09 -8.32297e-10)
(0.168607 3.83438e-09 -8.16661e-10)
(0.168678 3.74016e-09 -8.00611e-10)
(0.162663 2.06336e-08 -1.12349e-09)
(0.162731 2.03433e-08 -1.10685e-09)
(0.162799 2.00511e-08 -1.08991e-09)
(0.162866 1.97559e-08 -1.07265e-09)
(0.162933 1.94572e-08 -1.05504e-09)
(0.168526 3.96306e-09 -8.32802e-10)
(0.168597 3.86777e-09 -8.17177e-10)
(0.168668 3.77093e-09 -8.01126e-10)
(0.162644 2.06989e-08 -1.12401e-09)
(0.162714 2.0402e-08 -1.1074e-09)
(0.162782 2.01045e-08 -1.09051e-09)
(0.162851 1.98051e-08 -1.07328e-09)
(0.162919 1.95028e-08 -1.05569e-09)
(0.162988 1.91966e-08 -1.0377e-09)
(0.163057 1.88856e-08 -1.01927e-09)
(0.163127 1.8569e-08 -1.00038e-09)
(0.156256 3.72468e-08 -1.10701e-09)
(0.156321 3.67605e-08 -1.09111e-09)
(0.156386 3.62702e-08 -1.07496e-09)
(0.162839 1.98442e-08 -1.07342e-09)
(0.162908 1.9539e-08 -1.05588e-09)
(0.162978 1.92303e-08 -1.03793e-09)
(0.163048 1.89171e-08 -1.01953e-09)
(0.163118 1.85985e-08 -1.00064e-09)
(0.156237 3.72983e-08 -1.10662e-09)
(0.156304 3.68079e-08 -1.09087e-09)
(0.156371 3.63144e-08 -1.07482e-09)
(0.156438 3.58163e-08 -1.05846e-09)
(0.156505 3.53125e-08 -1.04177e-09)
(0.156572 3.48017e-08 -1.02469e-09)
(0.15664 3.42829e-08 -1.00721e-09)
(0.156709 3.37548e-08 -9.89292e-10)
(0.148742 4.71963e-08 -7.18936e-10)
(0.148806 4.65631e-08 -7.09021e-10)
(0.148869 4.59241e-08 -6.98948e-10)
(0.156426 3.5844e-08 -1.05803e-09)
(0.156494 3.53387e-08 -1.04142e-09)
(0.156562 3.48266e-08 -1.02442e-09)
(0.156631 3.43065e-08 -1.007e-09)
(0.156701 3.3777e-08 -9.8911e-10)
(0.148724 4.72132e-08 -7.17907e-10)
(0.148789 4.65805e-08 -7.0817e-10)
(0.148855 4.5942e-08 -6.98241e-10)
(0.14892 4.52963e-08 -6.88108e-10)
(0.148985 4.46421e-08 -6.77757e-10)
(0.149052 4.39779e-08 -6.6717e-10)
(0.149119 4.33024e-08 -6.5633e-10)
(0.149187 4.26141e-08 -6.45213e-10)
(0.139673 4.18762e-08 -1.58627e-10)
(0.139735 4.13334e-08 -1.56873e-10)
(0.139797 4.07858e-08 -1.55098e-10)
(0.148909 4.52999e-08 -6.87328e-10)
(0.148975 4.46465e-08 -6.77077e-10)
(0.149043 4.39829e-08 -6.66572e-10)
(0.149111 4.33076e-08 -6.55795e-10)
(0.14918 4.26191e-08 -6.44727e-10)
(0.139655 4.18569e-08 -1.57733e-10)
(0.139719 4.13184e-08 -1.56104e-10)
(0.139783 4.07742e-08 -1.54427e-10)
(0.139848 4.02233e-08 -1.52709e-10)
(0.139912 3.96647e-08 -1.5095e-10)
(0.139978 3.90973e-08 -1.4915e-10)
(0.140045 3.852e-08 -1.47309e-10)
(0.140113 3.79315e-08 -1.45424e-10)
(0.128089 2.56779e-08 2.05271e-10)
(0.128151 2.53572e-08 2.01969e-10)
(0.128214 2.50336e-08 1.9861e-10)
(0.128277 2.47067e-08 1.95186e-10)
(0.128341 2.43757e-08 1.91689e-10)
(0.139969 3.9083e-08 -1.48669e-10)
(0.140037 3.85071e-08 -1.46872e-10)
(0.140106 3.79196e-08 -1.45025e-10)
(0.128071 2.56513e-08 2.05566e-10)
(0.128135 2.53348e-08 2.02232e-10)
(0.128199 2.50146e-08 1.98847e-10)
(0.128264 2.46903e-08 1.95401e-10)
(0.12833 2.43613e-08 1.91884e-10)
(0.128396 2.40272e-08 1.88286e-10)
(0.128463 2.3687e-08 1.84598e-10)
(0.128532 2.33403e-08 1.8081e-10)
(0.110042 9.78862e-09 1.90215e-10)
(0.110121 9.68041e-09 1.8732e-10)
(0.110201 9.57116e-09 1.84374e-10)
(0.110283 9.46069e-09 1.81371e-10)
(0.110365 9.34879e-09 1.78303e-10)
(0.11045 9.23525e-09 1.75163e-10)
(0.110535 9.11983e-09 1.71942e-10)
(0.110623 9.00227e-09 1.68635e-10)
(0.110016 9.77256e-09 1.90008e-10)
(0.110099 9.66659e-09 1.87144e-10)
(0.110182 9.55913e-09 1.84222e-10)
(0.110265 9.45009e-09 1.81238e-10)
(0.11035 9.33934e-09 1.78184e-10)
(0.110436 9.22672e-09 1.75056e-10)
(0.110523 9.11203e-09 1.71844e-10)
(0.110612 8.99504e-09 1.68541e-10)
(0.090684 2.03732e-09 -2.2379e-11)
(0.0906294 2.01616e-09 -2.20533e-11)
(0.0905738 1.99461e-09 -2.17717e-11)
(0.090517 1.97267e-09 -2.15324e-11)
(0.0904592 1.9503e-09 -2.13341e-11)
(0.0904002 1.92747e-09 -2.11759e-11)
(0.09034 1.90414e-09 -2.10574e-11)
(0.0902785 1.88027e-09 -2.09783e-11)
(0.220431 -1.7454e-08 -7.25707e-10)
(0.220459 -1.72806e-08 -7.11265e-10)
(0.220485 -1.71081e-08 -6.96498e-10)
(0.224168 -1.88314e-08 -3.18118e-10)
(0.224198 -1.86513e-08 -3.08808e-10)
(0.224226 -1.84721e-08 -2.9924e-10)
(0.224255 -1.82933e-08 -2.89386e-10)
(0.224282 -1.81149e-08 -2.79222e-10)
(0.220408 -1.74251e-08 -7.28439e-10)
(0.220438 -1.72583e-08 -7.13827e-10)
(0.220467 -1.70914e-08 -6.98931e-10)
(0.220494 -1.69246e-08 -6.837e-10)
(0.220521 -1.6758e-08 -6.68089e-10)
(0.220547 -1.65915e-08 -6.52065e-10)
(0.224245 -1.82896e-08 -2.90335e-10)
(0.224273 -1.81136e-08 -2.80142e-10)
(0.220387 -1.73858e-08 -7.30584e-10)
(0.22042 -1.72261e-08 -7.15853e-10)
(0.22045 -1.70653e-08 -7.0087e-10)
(0.220479 -1.69038e-08 -6.85573e-10)
(0.220507 -1.67416e-08 -6.69908e-10)
(0.220534 -1.6579e-08 -6.53834e-10)
(0.220561 -1.64159e-08 -6.37313e-10)
(0.220587 -1.62523e-08 -6.20314e-10)
(0.215969 -8.94701e-09 -1.16699e-09)
(0.215995 -8.88184e-09 -1.14746e-09)
(0.21602 -8.81689e-09 -1.12752e-09)
(0.216045 -8.7525e-09 -1.10713e-09)
(0.220494 -1.6717e-08 -6.7127e-10)
(0.220522 -1.65586e-08 -6.55179e-10)
(0.220549 -1.63991e-08 -6.38635e-10)
(0.220576 -1.62387e-08 -6.21603e-10)
(0.215945 -8.88768e-09 -1.16965e-09)
(0.215974 -8.83114e-09 -1.14999e-09)
(0.216002 -8.7733e-09 -1.12995e-09)
(0.216028 -8.71482e-09 -1.10949e-09)
(0.216054 -8.65616e-09 -1.08854e-09)
(0.21608 -8.59762e-09 -1.06708e-09)
(0.216105 -8.53944e-09 -1.04505e-09)
(0.220566 -1.62181e-08 -6.22515e-10)
(0.210765 5.11886e-09 -1.6805e-09)
(0.215955 -8.77616e-09 -1.15173e-09)
(0.215985 -8.7254e-09 -1.13165e-09)
(0.216013 -8.67287e-09 -1.11116e-09)
(0.21604 -8.61926e-09 -1.0902e-09)
(0.216066 -8.56505e-09 -1.06872e-09)
(0.216092 -8.51059e-09 -1.04666e-09)
(0.216118 -8.45611e-09 -1.02399e-09)
(0.210741 5.20211e-09 -1.6838e-09)
(0.210767 5.10439e-09 -1.65796e-09)
(0.210793 5.00652e-09 -1.63168e-09)
(0.210817 4.90775e-09 -1.60489e-09)
(0.210842 4.80751e-09 -1.57754e-09)
(0.210866 4.70532e-09 -1.54958e-09)
(0.216081 -8.47824e-09 -1.04768e-09)
(0.216108 -8.42702e-09 -1.02501e-09)
(0.210718 5.28245e-09 -1.68595e-09)
(0.210747 5.17512e-09 -1.66003e-09)
(0.210775 5.0695e-09 -1.63371e-09)
(0.210801 4.96438e-09 -1.60689e-09)
(0.210827 4.85884e-09 -1.57953e-09)
(0.210852 4.75216e-09 -1.55154e-09)
(0.210877 4.64377e-09 -1.52288e-09)
(0.210903 4.53317e-09 -1.49348e-09)
(0.204709 2.4765e-08 -2.11424e-09)
(0.204733 2.44244e-08 -2.08321e-09)
(0.204757 2.40818e-08 -2.05167e-09)
(0.204781 2.3736e-08 -2.01955e-09)
(0.204805 2.33861e-08 -1.98679e-09)
(0.21084 4.79384e-09 -1.55257e-09)
(0.210867 4.68204e-09 -1.52392e-09)
(0.210892 4.56843e-09 -1.49451e-09)
(0.204689 2.484e-08 -2.11536e-09)
(0.204716 2.44919e-08 -2.08438e-09)
(0.204742 2.41433e-08 -2.05289e-09)
(0.204767 2.37926e-08 -2.02082e-09)
(0.204792 2.34387e-08 -1.98809e-09)
(0.204816 2.30804e-08 -1.95465e-09)
(0.204841 2.27167e-08 -1.92042e-09)
(0.204866 2.23467e-08 -1.88533e-09)
(0.197698 4.47715e-08 -2.09564e-09)
(0.197721 4.41997e-08 -2.06544e-09)
(0.197744 4.36234e-08 -2.03475e-09)
(0.204754 2.38374e-08 -2.02117e-09)
(0.20478 2.34802e-08 -1.98853e-09)
(0.204806 2.31192e-08 -1.95515e-09)
(0.204831 2.2753e-08 -1.92096e-09)
(0.204857 2.23806e-08 -1.88588e-09)
(0.197679 4.48319e-08 -2.09494e-09)
(0.197704 4.42553e-08 -2.06499e-09)
(0.197729 4.36753e-08 -2.03452e-09)
(0.197754 4.30904e-08 -2.00346e-09)
(0.197778 4.2499e-08 -1.97177e-09)
(0.197803 4.18998e-08 -1.93937e-09)
(0.197827 4.12913e-08 -1.90622e-09)
(0.197851 4.06724e-08 -1.87225e-09)
(0.189433 5.73264e-08 -1.33401e-09)
(0.189456 5.65723e-08 -1.31545e-09)
(0.189479 5.58117e-08 -1.2966e-09)
(0.197742 4.31228e-08 -2.00266e-09)
(0.197767 4.25297e-08 -1.97113e-09)
(0.197793 4.1929e-08 -1.93888e-09)
(0.197818 4.1319e-08 -1.90582e-09)
(0.197843 4.06984e-08 -1.87191e-09)
(0.189415 5.73475e-08 -1.33185e-09)
(0.18944 5.65939e-08 -1.31365e-09)
(0.189465 5.58337e-08 -1.29509e-09)
(0.189489 5.50653e-08 -1.27615e-09)
(0.189514 5.42869e-08 -1.25681e-09)
(0.189538 5.3497e-08 -1.23702e-09)
(0.189563 5.26937e-08 -1.21676e-09)
(0.189588 5.18755e-08 -1.19599e-09)
(0.179383 5.108e-08 -2.02748e-10)
(0.179407 5.04305e-08 -2.00906e-10)
(0.179431 4.97753e-08 -1.99046e-10)
(0.189478 5.50701e-08 -1.27454e-09)
(0.189503 5.42927e-08 -1.2554e-09)
(0.189529 5.35033e-08 -1.23578e-09)
(0.189554 5.27003e-08 -1.21565e-09)
(0.18958 5.18818e-08 -1.19498e-09)
(0.179365 5.10585e-08 -2.00838e-10)
(0.179391 5.04139e-08 -1.99256e-10)
(0.179417 4.97626e-08 -1.97603e-10)
(0.179443 4.91036e-08 -1.95892e-10)
(0.179469 4.84355e-08 -1.94132e-10)
(0.179495 4.77571e-08 -1.92325e-10)
(0.179521 4.7067e-08 -1.90476e-10)
(0.179547 4.63636e-08 -1.88583e-10)
(0.166277 3.15487e-08 5.35943e-10)
(0.166305 3.11623e-08 5.27619e-10)
(0.166333 3.07727e-08 5.19167e-10)
(0.166362 3.03792e-08 5.10567e-10)
(0.166391 2.99808e-08 5.01797e-10)
(0.179485 4.77407e-08 -1.91311e-10)
(0.179512 4.70522e-08 -1.89555e-10)
(0.17954 4.635e-08 -1.87741e-10)
(0.166257 3.15184e-08 5.36558e-10)
(0.166288 3.11369e-08 5.28169e-10)
(0.166318 3.07511e-08 5.19664e-10)
(0.166349 3.03605e-08 5.1102e-10)
(0.166379 2.99645e-08 5.02211e-10)
(0.16641 2.95623e-08 4.93215e-10)
(0.166441 2.91532e-08 4.84008e-10)
(0.166473 2.87361e-08 4.74567e-10)
(0.142281 1.21838e-08 5.00137e-10)
(0.142357 1.205e-08 4.9277e-10)
(0.142434 1.19151e-08 4.85291e-10)
(0.142512 1.17788e-08 4.77682e-10)
(0.142591 1.16408e-08 4.69926e-10)
(0.142672 1.15008e-08 4.62004e-10)
(0.142755 1.13586e-08 4.53898e-10)
(0.142839 1.12138e-08 4.45587e-10)
(0.142244 1.21651e-08 4.99694e-10)
(0.142325 1.2034e-08 4.92394e-10)
(0.142406 1.19011e-08 4.84967e-10)
(0.142487 1.17665e-08 4.774e-10)
(0.142569 1.16298e-08 4.69675e-10)
(0.142652 1.14909e-08 4.61777e-10)
(0.142737 1.13495e-08 4.53688e-10)
(0.142823 1.12054e-08 4.45387e-10)
(0.108083 2.63427e-09 8.24379e-11)
(0.107962 2.60651e-09 8.1484e-11)
(0.107838 2.57829e-09 8.04512e-11)
(0.107713 2.54958e-09 7.934e-11)
(0.107585 2.52035e-09 7.81499e-11)
(0.107455 2.49056e-09 7.68794e-11)
(0.107322 2.46014e-09 7.55262e-11)
(0.107187 2.42906e-09 7.40875e-11)
(0.247054 -1.87125e-08 -1.08368e-09)
(0.24707 -1.85279e-08 -1.06204e-09)
(0.247085 -1.83445e-08 -1.03992e-09)
(0.251026 -2.02273e-08 -4.51069e-10)
(0.251045 -2.00357e-08 -4.37391e-10)
(0.251063 -1.9845e-08 -4.23338e-10)
(0.25108 -1.96549e-08 -4.08864e-10)
(0.251096 -1.94653e-08 -3.93933e-10)
(0.24703 -1.86814e-08 -1.08801e-09)
(0.247049 -1.8504e-08 -1.06609e-09)
(0.247067 -1.83265e-08 -1.04375e-09)
(0.247083 -1.81493e-08 -1.02092e-09)
(0.247099 -1.79723e-08 -9.97531e-10)
(0.247114 -1.77956e-08 -9.73527e-10)
(0.251069 -1.96508e-08 -4.10359e-10)
(0.251086 -1.94638e-08 -3.95375e-10)
(0.247008 -1.86393e-08 -1.09147e-09)
(0.24703 -1.84695e-08 -1.06934e-09)
(0.247049 -1.82985e-08 -1.04685e-09)
(0.247067 -1.81269e-08 -1.02389e-09)
(0.247084 -1.79547e-08 -1.00041e-09)
(0.2471 -1.77821e-08 -9.76312e-10)
(0.247116 -1.76091e-08 -9.51557e-10)
(0.24713 -1.74356e-08 -9.26094e-10)
(0.242279 -9.52737e-09 -1.79275e-09)
(0.242294 -9.45869e-09 -1.76287e-09)
(0.242308 -9.3903e-09 -1.73238e-09)
(0.242322 -9.32254e-09 -1.70122e-09)
(0.24707 -1.79284e-08 -1.0026e-09)
(0.247087 -1.77602e-08 -9.78464e-10)
(0.247103 -1.75911e-08 -9.53664e-10)
(0.247119 -1.7421e-08 -9.28139e-10)
(0.242254 -9.46396e-09 -1.79709e-09)
(0.242273 -9.40449e-09 -1.76698e-09)
(0.242289 -9.34369e-09 -1.73631e-09)
(0.242305 -9.28224e-09 -1.70501e-09)
(0.24232 -9.22064e-09 -1.673e-09)
(0.242334 -9.15921e-09 -1.6402e-09)
(0.242348 -9.0982e-09 -1.60656e-09)
(0.247109 -1.73989e-08 -9.29621e-10)
(0.236717 5.59e-09 -2.62521e-09)
(0.242252 -9.34574e-09 -1.76988e-09)
(0.242271 -9.29249e-09 -1.73912e-09)
(0.242288 -9.2374e-09 -1.70776e-09)
(0.242305 -9.1812e-09 -1.6757e-09)
(0.24232 -9.12439e-09 -1.64286e-09)
(0.242335 -9.06735e-09 -1.60916e-09)
(0.24235 -9.01034e-09 -1.57454e-09)
(0.236692 5.67872e-09 -2.63053e-09)
(0.236708 5.57337e-09 -2.59033e-09)
(0.236723 5.4679e-09 -2.54947e-09)
(0.236736 5.36149e-09 -2.50785e-09)
(0.23675 5.25355e-09 -2.46538e-09)
(0.236763 5.14356e-09 -2.42198e-09)
(0.242323 -9.03279e-09 -1.61085e-09)
(0.242339 -8.97926e-09 -1.57622e-09)
(0.236668 5.76424e-09 -2.63404e-09)
(0.236687 5.64868e-09 -2.59371e-09)
(0.236704 5.53497e-09 -2.55276e-09)
(0.23672 5.42181e-09 -2.51109e-09)
(0.236735 5.30824e-09 -2.46857e-09)
(0.236749 5.19348e-09 -2.42512e-09)
(0.236763 5.0769e-09 -2.38064e-09)
(0.236777 4.95798e-09 -2.33504e-09)
(0.230246 2.66448e-08 -3.33159e-09)
(0.23026 2.62817e-08 -3.28296e-09)
(0.230273 2.59165e-08 -3.23356e-09)
(0.230286 2.55481e-08 -3.18327e-09)
(0.230299 2.51756e-08 -3.132e-09)
(0.236737 5.23783e-09 -2.42682e-09)
(0.236752 5.11764e-09 -2.38235e-09)
(0.236767 4.99553e-09 -2.33673e-09)
(0.230225 2.67243e-08 -3.33345e-09)
(0.230242 2.63532e-08 -3.28489e-09)
(0.230257 2.59817e-08 -3.23555e-09)
(0.230272 2.56082e-08 -3.18533e-09)
(0.230286 2.52314e-08 -3.13411e-09)
(0.2303 2.48501e-08 -3.08179e-09)
(0.230313 2.44631e-08 -3.02826e-09)
(0.230327 2.40696e-08 -2.97341e-09)
(0.222746 4.80485e-08 -3.31798e-09)
(0.222759 4.74402e-08 -3.27013e-09)
(0.222771 4.68275e-08 -3.22152e-09)
(0.230258 2.56556e-08 -3.18596e-09)
(0.230273 2.52754e-08 -3.13486e-09)
(0.230288 2.48911e-08 -3.08263e-09)
(0.230303 2.45016e-08 -3.02916e-09)
(0.230317 2.41056e-08 -2.97433e-09)
(0.222726 4.81128e-08 -3.31686e-09)
(0.222741 4.74994e-08 -3.26941e-09)
(0.222756 4.68827e-08 -3.22114e-09)
(0.22277 4.62609e-08 -3.17197e-09)
(0.222784 4.56325e-08 -3.12179e-09)
(0.222797 4.4996e-08 -3.07053e-09)
(0.22281 4.435e-08 -3.01808e-09)
(0.222824 4.3693e-08 -2.96434e-09)
(0.213884 6.16173e-08 -2.08137e-09)
(0.213897 6.08116e-08 -2.05232e-09)
(0.213909 5.99992e-08 -2.02282e-09)
(0.222757 4.62954e-08 -3.17068e-09)
(0.222772 4.56652e-08 -3.12078e-09)
(0.222787 4.50271e-08 -3.06973e-09)
(0.222801 4.43795e-08 -3.01744e-09)
(0.222815 4.37207e-08 -2.96381e-09)
(0.213865 6.164e-08 -2.07773e-09)
(0.21388 6.08349e-08 -2.04928e-09)
(0.213894 6.00229e-08 -2.02027e-09)
(0.213908 5.92023e-08 -1.99066e-09)
(0.213922 5.83712e-08 -1.96042e-09)
(0.213936 5.7528e-08 -1.92949e-09)
(0.21395 5.66707e-08 -1.89782e-09)
(0.213964 5.57976e-08 -1.86536e-09)
(0.203049 5.49425e-08 -2.17367e-10)
(0.203063 5.42481e-08 -2.16047e-10)
(0.203076 5.35478e-08 -2.1472e-10)
(0.213896 5.92075e-08 -1.98797e-09)
(0.213911 5.83775e-08 -1.95806e-09)
(0.213926 5.75349e-08 -1.9274e-09)
(0.213941 5.66778e-08 -1.89595e-09)
(0.213955 5.58044e-08 -1.86366e-09)
(0.20303 5.49197e-08 -2.14146e-10)
(0.203046 5.42306e-08 -2.13257e-10)
(0.203062 5.35345e-08 -2.12277e-10)
(0.203077 5.28302e-08 -2.11229e-10)
(0.203092 5.21164e-08 -2.1013e-10)
(0.203108 5.13917e-08 -2.08992e-10)
(0.203123 5.06545e-08 -2.07822e-10)
(0.203139 4.99034e-08 -2.06626e-10)
(0.188674 3.4084e-08 9.94248e-10)
(0.188693 3.36697e-08 9.7907e-10)
(0.188713 3.32519e-08 9.63672e-10)
(0.188732 3.283e-08 9.48017e-10)
(0.188752 3.24031e-08 9.32068e-10)
(0.203098 5.13742e-08 -2.07293e-10)
(0.203114 5.06389e-08 -2.06281e-10)
(0.203131 4.98889e-08 -2.05218e-10)
(0.188652 3.40521e-08 9.95254e-10)
(0.188674 3.36429e-08 9.79974e-10)
(0.188696 3.32292e-08 9.64492e-10)
(0.188718 3.28105e-08 9.48765e-10)
(0.188739 3.23861e-08 9.32753e-10)
(0.188761 3.19551e-08 9.16413e-10)
(0.188783 3.15168e-08 8.99704e-10)
(0.188805 3.10701e-08 8.82583e-10)
(0.161516 1.34301e-08 9.29863e-10)
(0.16159 1.32828e-08 9.16464e-10)
(0.161664 1.31344e-08 9.02875e-10)
(0.16174 1.29844e-08 8.89067e-10)
(0.161816 1.28327e-08 8.75008e-10)
(0.161895 1.26789e-08 8.60665e-10)
(0.161975 1.25227e-08 8.46004e-10)
(0.162057 1.23637e-08 8.3099e-10)
(0.161475 1.34103e-08 9.29119e-10)
(0.161553 1.32658e-08 9.15833e-10)
(0.161632 1.31196e-08 9.02334e-10)
(0.161711 1.29714e-08 8.88595e-10)
(0.161791 1.28211e-08 8.74589e-10)
(0.161872 1.26684e-08 8.60286e-10)
(0.161954 1.25131e-08 8.45652e-10)
(0.162038 1.23548e-08 8.30654e-10)
(0.120717 3.10575e-09 2.49685e-10)
(0.120578 3.07219e-09 2.46493e-10)
(0.120436 3.03813e-09 2.43172e-10)
(0.120291 3.00353e-09 2.3972e-10)
(0.120144 2.96835e-09 2.36133e-10)
(0.119995 2.93253e-09 2.32406e-10)
(0.119842 2.89601e-09 2.28531e-10)
(0.119686 2.85872e-09 2.24499e-10)
(0.266779 -1.9464e-08 -1.47684e-09)
(0.266791 -1.92726e-08 -1.44713e-09)
(0.266802 -1.90824e-08 -1.41676e-09)
(0.270971 -2.10916e-08 -5.85101e-10)
(0.270986 -2.08924e-08 -5.66509e-10)
(0.271 -2.06941e-08 -5.47397e-10)
(0.271013 -2.04966e-08 -5.27703e-10)
(0.271025 -2.02995e-08 -5.07376e-10)
(0.266754 -1.94314e-08 -1.48304e-09)
(0.266769 -1.92475e-08 -1.4529e-09)
(0.266783 -1.90635e-08 -1.42221e-09)
(0.266795 -1.88798e-08 -1.39084e-09)
(0.266806 -1.86964e-08 -1.35871e-09)
(0.266816 -1.85132e-08 -1.32573e-09)
(0.271001 -2.04922e-08 -5.29816e-10)
(0.271014 -2.02979e-08 -5.09408e-10)
(0.266731 -1.93873e-08 -1.48804e-09)
(0.266748 -1.92113e-08 -1.45759e-09)
(0.266764 -1.90342e-08 -1.42665e-09)
(0.266778 -1.88563e-08 -1.3951e-09)
(0.26679 -1.86779e-08 -1.36281e-09)
(0.266802 -1.84991e-08 -1.32969e-09)
(0.266813 -1.83198e-08 -1.29567e-09)
(0.266824 -1.81401e-08 -1.26068e-09)
(0.26173 -9.85152e-09 -2.50503e-09)
(0.261741 -9.78069e-09 -2.46338e-09)
(0.261751 -9.71014e-09 -2.4209e-09)
(0.26176 -9.64023e-09 -2.37748e-09)
(0.266775 -1.86503e-08 -1.36598e-09)
(0.266789 -1.84762e-08 -1.33279e-09)
(0.266801 -1.8301e-08 -1.2987e-09)
(0.266812 -1.81248e-08 -1.26361e-09)
(0.261705 -9.7855e-09 -2.51139e-09)
(0.261719 -9.72424e-09 -2.46937e-09)
(0.261731 -9.66158e-09 -2.42661e-09)
(0.261743 -9.59825e-09 -2.38298e-09)
(0.261753 -9.53475e-09 -2.33837e-09)
(0.261764 -9.47143e-09 -2.29269e-09)
(0.261773 -9.40853e-09 -2.24585e-09)
(0.266801 -1.81017e-08 -1.26576e-09)
(0.255853 5.88314e-09 -3.72523e-09)
(0.261697 -9.6631e-09 -2.47369e-09)
(0.261712 -9.6083e-09 -2.43077e-09)
(0.261725 -9.55158e-09 -2.38702e-09)
(0.261738 -9.49369e-09 -2.34233e-09)
(0.261749 -9.43517e-09 -2.29656e-09)
(0.26176 -9.3764e-09 -2.24963e-09)
(0.26177 -9.31765e-09 -2.20142e-09)
(0.255827 5.97501e-09 -3.73298e-09)
(0.255839 5.86531e-09 -3.67615e-09)
(0.255849 5.75553e-09 -3.61841e-09)
(0.255859 5.64485e-09 -3.55962e-09)
(0.255868 5.5326e-09 -3.49967e-09)
(0.255877 5.41829e-09 -3.43842e-09)
(0.261747 -9.34043e-09 -2.25215e-09)
(0.261759 -9.2853e-09 -2.2039e-09)
(0.255802 6.06351e-09 -3.73817e-09)
(0.255816 5.94326e-09 -3.68112e-09)
(0.255829 5.82496e-09 -3.62324e-09)
(0.255841 5.70729e-09 -3.56436e-09)
(0.255852 5.58923e-09 -3.50432e-09)
(0.255863 5.46999e-09 -3.44299e-09)
(0.255873 5.34891e-09 -3.38023e-09)
(0.255882 5.22544e-09 -3.31591e-09)
(0.249012 2.76648e-08 -4.76461e-09)
(0.249022 2.72902e-08 -4.69542e-09)
(0.249031 2.69136e-08 -4.62516e-09)
(0.24904 2.65339e-08 -4.55367e-09)
(0.249049 2.615e-08 -4.48081e-09)
(0.255849 5.51589e-09 -3.44551e-09)
(0.25586 5.39108e-09 -3.38275e-09)
(0.255871 5.26432e-09 -3.3184e-09)
(0.24899 2.77465e-08 -4.76738e-09)
(0.249003 2.73637e-08 -4.69827e-09)
(0.249014 2.69807e-08 -4.6281e-09)
(0.249025 2.65957e-08 -4.55669e-09)
(0.249035 2.62074e-08 -4.48389e-09)
(0.249045 2.58146e-08 -4.40955e-09)
(0.249054 2.54161e-08 -4.33352e-09)
(0.249063 2.50111e-08 -4.25565e-09)
(0.24107 4.96774e-08 -4.76434e-09)
(0.241079 4.90521e-08 -4.69565e-09)
(0.241088 4.84225e-08 -4.62589e-09)
(0.24901 2.66443e-08 -4.55765e-09)
(0.249022 2.62526e-08 -4.48502e-09)
(0.249033 2.58568e-08 -4.41081e-09)
(0.249043 2.54556e-08 -4.33486e-09)
(0.249053 2.5048e-08 -4.25701e-09)
(0.241049 4.97432e-08 -4.76274e-09)
(0.241061 4.91128e-08 -4.69463e-09)
(0.241071 4.84791e-08 -4.62535e-09)
(0.241082 4.78404e-08 -4.55478e-09)
(0.241091 4.71952e-08 -4.4828e-09)
(0.241101 4.65418e-08 -4.40928e-09)
(0.24111 4.58789e-08 -4.33406e-09)
(0.241119 4.52049e-08 -4.25701e-09)
(0.231656 6.35869e-08 -2.96156e-09)
(0.231665 6.27586e-08 -2.92013e-09)
(0.231674 6.19234e-08 -2.87807e-09)
(0.241068 4.78757e-08 -4.55295e-09)
(0.241079 4.72287e-08 -4.48135e-09)
(0.24109 4.65736e-08 -4.40814e-09)
(0.2411 4.59091e-08 -4.33315e-09)
(0.24111 4.52333e-08 -4.25625e-09)
(0.231636 6.36101e-08 -2.95614e-09)
(0.231647 6.27823e-08 -2.91561e-09)
(0.231658 6.19477e-08 -2.87426e-09)
(0.231668 6.11042e-08 -2.83206e-09)
(0.231679 6.02502e-08 -2.78896e-09)
(0.231688 5.93839e-08 -2.74488e-09)
(0.231698 5.85032e-08 -2.69976e-09)
(0.231708 5.76064e-08 -2.6535e-09)
(0.220071 5.6662e-08 -2.17282e-10)
(0.220081 5.59485e-08 -2.16829e-10)
(0.220092 5.52292e-08 -2.16388e-10)
(0.231655 6.11095e-08 -2.82807e-09)
(0.231667 6.02565e-08 -2.78546e-09)
(0.231678 5.93908e-08 -2.74179e-09)
(0.231689 5.85104e-08 -2.69699e-09)
(0.231699 5.76133e-08 -2.65098e-09)
(0.22005 5.66386e-08 -2.12487e-10)
(0.220063 5.59306e-08 -2.12671e-10)
(0.220076 5.52155e-08 -2.12741e-10)
(0.220088 5.44921e-08 -2.12737e-10)
(0.2201 5.3759e-08 -2.12686e-10)
(0.220112 5.30149e-08 -2.1261e-10)
(0.220124 5.22581e-08 -2.12523e-10)
(0.220136 5.14871e-08 -2.12437e-10)
(0.204466 3.53001e-08 1.55746e-09)
(0.204483 3.48729e-08 1.53393e-09)
(0.2045 3.44423e-08 1.51006e-09)
(0.204517 3.40075e-08 1.48581e-09)
(0.204535 3.35676e-08 1.46112e-09)
(0.220101 5.2997e-08 -2.10093e-10)
(0.220114 5.22421e-08 -2.10238e-10)
(0.220127 5.14722e-08 -2.1035e-10)
(0.204442 3.52678e-08 1.55893e-09)
(0.204462 3.48458e-08 1.53525e-09)
(0.204482 3.44193e-08 1.51127e-09)
(0.204501 3.39877e-08 1.48691e-09)
(0.204521 3.35504e-08 1.46213e-09)
(0.20454 3.31064e-08 1.43684e-09)
(0.20456 3.26548e-08 1.411e-09)
(0.204579 3.21948e-08 1.38452e-09)
(0.175315 1.42351e-08 1.46154e-09)