/*--------------------------------*- C++ -*----------------------------------*\
  =========                 |
  \\      /  F ield         | OpenFOAM: The Open Source CFD Toolbox
   \\    /   O peration     | Website:  https://openfoam.org
    \\  /    A nd           | Version:  6
     \\/     M anipulation  |
\*---------------------------------------------------------------------------*/
FoamFile
{
    version     2.0;
    format      ascii;
    class       volScalarField;
    location    "40";
    object      p;
}
// * * * * * * * * * * * * * * * * * * * * * * * * * * * * * * * * * * * * * //

dimensions      [0 2 -2 0 0 0 0];

internalField   nonuniform List<scalar> 
720
(
4.12677e-10
5.07088e-08
2.02349e-08
1.05427e-09
4.9643e-08
2.06596e-08
1.60598e-09
4.86132e-08
2.11352e-08
2.17629e-09
4.78651e-08
2.13172e-08
2.39364e-09
4.78646e-08
2.11122e-08
2.39764e-09
4.78603e-08
2.11134e-08
2.1895e-09
4.78535e-08
2.1326e-08
1.6286e-09
4.85813e-08
2.11596e-08
1.07357e-09
4.96135e-08
2.06823e-08
4.44015e-10
5.06201e-08
2.03058e-08
4.12608e-10
5.07085e-08
2.02353e-08
1.0553e-09
4.96433e-08
2.06584e-08
1.60855e-09
4.86126e-08
2.11332e-08
2.18189e-09
4.78583e-08
2.13183e-08
2.4095e-09
4.78436e-08
2.11174e-08
2.41356e-09
4.78392e-08
2.11186e-08
2.19514e-09
4.78468e-08
2.13271e-08
1.63119e-09
4.85808e-08
2.11575e-08
1.07464e-09
4.96136e-08
2.06811e-08
4.43908e-10
5.062e-08
2.0306e-08
4.0924e-10
5.07077e-08
2.02395e-08
1.05212e-09
4.96438e-08
2.06611e-08
1.60645e-09
4.8613e-08
2.1135e-08
2.18071e-09
4.78593e-08
2.13184e-08
2.41097e-09
4.78412e-08
2.11183e-08
2.41504e-09
4.78369e-08
2.11194e-08
2.19396e-09
4.78478e-08
2.13273e-08
1.62909e-09
4.85812e-08
2.11593e-08
1.07155e-09
4.96139e-08
2.06839e-08
4.40484e-10
5.06196e-08
2.03098e-08
4.04114e-10
5.07066e-08
2.02457e-08
1.04683e-09
4.96444e-08
2.06657e-08
1.6027e-09
4.86126e-08
2.11392e-08
2.17713e-09
4.78612e-08
2.13202e-08
2.40784e-09
4.78424e-08
2.11202e-08
2.41192e-09
4.78381e-08
2.11213e-08
2.19036e-09
4.78496e-08
2.13291e-08
1.62533e-09
4.85808e-08
2.11634e-08
1.06633e-09
4.96141e-08
2.06889e-08
4.3527e-10
5.06192e-08
2.03154e-08
3.98323e-10
5.07056e-08
2.02526e-08
1.04043e-09
4.96453e-08
2.06712e-08
1.59873e-09
4.86105e-08
2.11453e-08
2.17294e-09
4.78601e-08
2.13254e-08
2.4048e-09
4.78385e-08
2.11271e-08
2.40889e-09
4.78342e-08
2.11282e-08
2.18615e-09
4.78486e-08
2.13344e-08
1.62137e-09
4.85788e-08
2.11694e-08
1.06002e-09
4.96144e-08
2.0695e-08
4.29344e-10
5.06193e-08
2.03213e-08
3.92474e-10
5.07055e-08
2.02586e-08
1.03336e-09
4.96471e-08
2.06765e-08
1.59425e-09
4.86073e-08
2.11531e-08
2.16824e-09
4.78556e-08
2.13345e-08
2.40179e-09
4.78277e-08
2.11409e-08
2.40589e-09
4.78235e-08
2.11419e-08
2.18142e-09
4.78441e-08
2.13436e-08
1.61689e-09
4.85756e-08
2.1177e-08
1.05309e-09
4.96152e-08
2.07011e-08
4.233e-10
5.06205e-08
2.03261e-08
3.86687e-10
5.07074e-08
2.02625e-08
1.02583e-09
4.96508e-08
2.06803e-08
1.58834e-09
4.8604e-08
2.11624e-08
2.1634e-09
4.78479e-08
2.1347e-08
2.39802e-09
4.7811e-08
2.11613e-08
2.40214e-09
4.78068e-08
2.11622e-08
2.17652e-09
4.78364e-08
2.13562e-08
1.61099e-09
4.85724e-08
2.11861e-08
1.04571e-09
4.96178e-08
2.07058e-08
4.17255e-10
5.06241e-08
2.03285e-08
3.81023e-10
5.07134e-08
2.02623e-08
1.01761e-09
4.96584e-08
2.06809e-08
1.58131e-09
4.86025e-08
2.11711e-08
2.1589e-09
4.78381e-08
2.13613e-08
2.39403e-09
4.77893e-08
2.1187e-08
2.39819e-09
4.77852e-08
2.11878e-08
2.17191e-09
4.78266e-08
2.13706e-08
1.60398e-09
4.85709e-08
2.11946e-08
1.03766e-09
4.96241e-08
2.07076e-08
4.11269e-10
5.06319e-08
2.03267e-08
3.75781e-10
5.07256e-08
2.02554e-08
1.00895e-09
4.96722e-08
2.06757e-08
1.57332e-09
4.86049e-08
2.11768e-08
2.15395e-09
4.78283e-08
2.13759e-08
2.3902e-09
4.77646e-08
2.12154e-08
2.3944e-09
4.77607e-08
2.1216e-08
2.16682e-09
4.78169e-08
2.13854e-08
1.59599e-09
4.85733e-08
2.12002e-08
1.02918e-09
4.96366e-08
2.07036e-08
4.05661e-10
5.06461e-08
2.03182e-08
3.71338e-10
5.0746e-08
2.02395e-08
1.00052e-09
4.96948e-08
2.06615e-08
1.56344e-09
4.86149e-08
2.11768e-08
2.14604e-09
4.78225e-08
2.13895e-08
2.38635e-09
4.77406e-08
2.12431e-08
2.39062e-09
4.77369e-08
2.12436e-08
2.15875e-09
4.78113e-08
2.13991e-08
1.58608e-09
4.85833e-08
2.12001e-08
1.02094e-09
4.96578e-08
2.06906e-08
4.00822e-10
5.06685e-08
2.03006e-08
3.68642e-10
5.07748e-08
2.02135e-08
9.92912e-10
4.97276e-08
2.06363e-08
1.55221e-09
4.86358e-08
2.11673e-08
2.13282e-09
4.78249e-08
2.14004e-08
2.38113e-09
4.77216e-08
2.12673e-08
2.38548e-09
4.7718e-08
2.12676e-08
2.14539e-09
4.78137e-08
2.14101e-08
1.57484e-09
4.86042e-08
2.11905e-08
1.01351e-09
4.96892e-08
2.06667e-08
3.97718e-10
5.06992e-08
2.02729e-08
3.72073e-10
5.08054e-08
2.01796e-08
9.87181e-10
4.97686e-08
2.06011e-08
1.54084e-09
4.86689e-08
2.11457e-08
2.11455e-09
4.78381e-08
2.14053e-08
2.37253e-09
4.77117e-08
2.12856e-08
2.37699e-09
4.77082e-08
2.12858e-08
2.12703e-09
4.78269e-08
2.14153e-08
1.56345e-09
4.86373e-08
2.11689e-08
1.00798e-09
4.97287e-08
2.06327e-08
4.00801e-10
5.07316e-08
2.02375e-08
3.83933e-10
5.0828e-08
2.01452e-08
9.90348e-10
4.98048e-08
2.05617e-08
1.5316e-09
4.87107e-08
2.11134e-08
2.09358e-09
4.78635e-08
2.14009e-08
2.36065e-09
4.77121e-08
2.12969e-08
2.36524e-09
4.77087e-08
2.1297e-08
2.10599e-09
4.78521e-08
2.14111e-08
1.55415e-09
4.86789e-08
2.11366e-08
1.01145e-09
4.97635e-08
2.05945e-08
4.12429e-10
5.07558e-08
2.02016e-08
4.08268e-10
5.08283e-08
2.01207e-08
1.00994e-09
4.98176e-08
2.05293e-08
1.53632e-09
4.87416e-08
2.1078e-08
2.0754e-09
4.78953e-08
2.13873e-08
2.35227e-09
4.77142e-08
2.1303e-08
2.35701e-09
4.77107e-08
2.13031e-08
2.08771e-09
4.78836e-08
2.1398e-08
1.55857e-09
4.87094e-08
2.11016e-08
1.03141e-09
4.97749e-08
2.05631e-08
4.3661e-10
5.07575e-08
2.01757e-08
4.59456e-10
5.07812e-08
2.01166e-08
1.05544e-09
4.97846e-08
2.05169e-08
1.56811e-09
4.87339e-08
2.1054e-08
2.08086e-09
4.79049e-08
2.13723e-08
2.37086e-09
4.76864e-08
2.13119e-08
2.37581e-09
4.76827e-08
2.13123e-08
2.09317e-09
4.78924e-08
2.13837e-08
1.59004e-09
4.87013e-08
2.10783e-08
1.07727e-09
4.97406e-08
2.05516e-08
4.87665e-10
5.07118e-08
2.01704e-08
5.57967e-10
5.06468e-08
2.01525e-08
1.14913e-09
4.96638e-08
2.05441e-08
1.63964e-09
4.8657e-08
2.10596e-08
2.13313e-09
4.78535e-08
2.13715e-08
2.43788e-09
4.75923e-08
2.13388e-08
2.4431e-09
4.7588e-08
2.13396e-08
2.14561e-09
4.78398e-08
2.13838e-08
1.66162e-09
4.86237e-08
2.10843e-08
1.1713e-09
4.96184e-08
2.05798e-08
5.85995e-10
5.05787e-08
2.02051e-08
7.27979e-10
5.03651e-08
2.02642e-08
1.31993e-09
4.93901e-08
2.06468e-08
1.78067e-09
4.84524e-08
2.11232e-08
2.24958e-09
4.76962e-08
2.14123e-08
2.56809e-09
4.73909e-08
2.14096e-08
2.57362e-09
4.73858e-08
2.14111e-08
2.26239e-09
4.76808e-08
2.1426e-08
1.80288e-09
4.84181e-08
2.11485e-08
1.3424e-09
4.93435e-08
2.06834e-08
7.55717e-10
5.02982e-08
2.03158e-08
9.96537e-10
4.98533e-08
2.05074e-08
1.60551e-09
4.88704e-08
2.08807e-08
2.03166e-09
4.80309e-08
2.12936e-08
2.46719e-09
4.7351e-08
2.15398e-08
2.7981e-09
4.70029e-08
2.15669e-08
2.80396e-09
4.69968e-08
2.15693e-08
2.48043e-09
4.73334e-08
2.1555e-08
2.05421e-09
4.79952e-08
2.13198e-08
1.62816e-09
4.88227e-08
2.09182e-08
1.02377e-09
4.97877e-08
2.05582e-08
1.38392e-09
4.90032e-08
2.09703e-08
2.03803e-09
4.79959e-08
2.13227e-08
2.43373e-09
4.72749e-08
2.16475e-08
2.83132e-09
4.66999e-08
2.1827e-08
3.17296e-09
4.63104e-08
2.18843e-08
3.17912e-09
4.6303e-08
2.18879e-08
2.84502e-09
4.66797e-08
2.18441e-08
2.45668e-09
4.72375e-08
2.16748e-08
2.06061e-09
4.79474e-08
2.1361e-08
1.41026e-09
4.89391e-08
2.10204e-08
1.89252e-09
4.76677e-08
2.17975e-08
2.5908e-09
4.66971e-08
2.20697e-08
2.98231e-09
4.60749e-08
2.22997e-08
3.35757e-09
4.55958e-08
2.24067e-08
3.70672e-09
4.51671e-08
2.24951e-08
3.71306e-09
4.51582e-08
2.25002e-08
3.37159e-09
4.55728e-08
2.2426e-08
3.00505e-09
4.60363e-08
2.23283e-08
2.61294e-09
4.66483e-08
2.21086e-08
1.9175e-09
4.76055e-08
2.1847e-08
2.48916e-09
4.58876e-08
2.2981e-08
3.07981e-09
4.50387e-08
2.32379e-08
3.56181e-09
4.43902e-08
2.34042e-08
3.97818e-09
4.38785e-08
2.35037e-08
4.33237e-09
4.34147e-08
2.36215e-08
4.33872e-09
4.34046e-08
2.36279e-08
3.99212e-09
4.38534e-08
2.35249e-08
3.5811e-09
4.43537e-08
2.34339e-08
3.10114e-09
4.49903e-08
2.32771e-08
2.51283e-09
4.58278e-08
2.30294e-08
3.11112e-09
4.40479e-08
2.41993e-08
3.59709e-09
4.31454e-08
2.46146e-08
4.19352e-09
4.23432e-08
2.48207e-08
4.67268e-09
4.17122e-08
2.49723e-08
5.03269e-09
4.12173e-08
2.51148e-08
5.03885e-09
4.12068e-08
2.5122e-08
4.68616e-09
4.16864e-08
2.49943e-08
4.2088e-09
4.231e-08
2.48509e-08
3.61755e-09
4.30983e-08
2.46534e-08
3.13367e-09
4.39908e-08
2.4246e-08
3.64332e-09
4.25723e-08
2.51431e-08
4.21759e-09
4.14117e-08
2.57291e-08
4.86528e-09
4.04346e-08
2.60588e-08
5.37326e-09
3.97161e-08
2.62703e-08
5.73803e-09
3.91898e-08
2.6439e-08
5.74379e-09
3.91795e-08
2.64464e-08
5.38605e-09
3.9691e-08
2.6292e-08
4.87979e-09
4.04024e-08
2.60886e-08
4.23718e-09
4.13666e-08
2.57667e-08
3.66479e-09
4.25179e-08
2.51882e-08
3.95614e-09
4.17469e-08
2.56549e-08
4.61258e-09
4.03979e-08
2.6347e-08
5.29359e-09
3.92786e-08
2.67863e-08
5.82411e-09
3.84829e-08
2.70536e-08
6.19309e-09
3.79313e-08
2.72432e-08
6.19849e-09
3.79215e-08
2.72505e-08
5.83632e-09
3.84585e-08
2.70749e-08
5.30802e-09
3.92468e-08
2.68155e-08
4.63155e-09
4.03543e-08
2.63837e-08
3.97682e-09
4.16944e-08
2.56989e-08
)
;

boundaryField
{
    freeSurface
    {
        type            slip;
    }
    inlet
    {
        type            cyclic;
    }
    outlet
    {
        type            cyclic;
    }
    sidewalls
    {
        type            zeroGradient;
    }
    noSlipWalls
    {
        type            zeroGradient;
    }
    procBoundary1to0
    {
        type            processor;
        value           nonuniform List<scalar> 
72
(
-1.69067e-10
5.17056e-08
1.98204e-08
-1.69357e-10
5.17043e-08
1.9822e-08
-1.72012e-10
5.17014e-08
1.98276e-08
-1.75863e-10
5.16979e-08
1.9835e-08
-1.80149e-10
5.1695e-08
1.98421e-08
-1.84268e-10
5.16939e-08
1.98473e-08
-1.86952e-10
5.16961e-08
1.98479e-08
-1.87407e-10
5.17034e-08
1.98411e-08
-1.86069e-10
5.17187e-08
1.98245e-08
-1.8313e-10
5.17441e-08
1.97962e-08
-1.7882e-10
5.17797e-08
1.97563e-08
-1.71051e-10
5.18194e-08
1.97089e-08
-1.56452e-10
5.18507e-08
1.96631e-08
-1.28849e-10
5.1857e-08
1.96293e-08
-7.25311e-11
5.18106e-08
1.96194e-08
3.23888e-11
5.16691e-08
1.9656e-08
2.08117e-10
5.13713e-08
1.9778e-08
4.76124e-10
5.0842e-08
2.00393e-08
8.46033e-10
4.99951e-08
2.05167e-08
1.29679e-09
4.8727e-08
2.13341e-08
1.82175e-09
4.71163e-08
2.24189e-08
2.38879e-09
4.55039e-08
2.34652e-08
2.86711e-09
4.42239e-08
2.42672e-08
3.1468e-09
4.35092e-08
2.47016e-08
)
;
    }
    procBoundary1to2
    {
        type            processor;
        value           nonuniform List<scalar> 
72
(
-1.33124e-10
5.16226e-08
1.98799e-08
-1.33443e-10
5.16214e-08
1.98814e-08
-1.36162e-10
5.16187e-08
1.98868e-08
-1.40129e-10
5.16156e-08
1.98939e-08
-1.44586e-10
5.16133e-08
1.99006e-08
-1.48918e-10
5.1613e-08
1.99053e-08
-1.5187e-10
5.16159e-08
1.99053e-08
-1.52662e-10
5.16243e-08
1.98977e-08
-1.5171e-10
5.16406e-08
1.98805e-08
-1.4917e-10
5.1667e-08
1.98515e-08
-1.45298e-10
5.17037e-08
1.9811e-08
-1.38254e-10
5.17441e-08
1.97636e-08
-1.24349e-10
5.1776e-08
1.97177e-08
-9.68735e-11
5.17831e-08
1.96832e-08
-4.0385e-11
5.17374e-08
1.96724e-08
6.47995e-11
5.1596e-08
1.97086e-08
2.40894e-10
5.12977e-08
1.98306e-08
5.09319e-10
5.07677e-08
2.00922e-08
8.79036e-10
4.99201e-08
2.05707e-08
1.32658e-09
4.86514e-08
2.13918e-08
1.84786e-09
4.70414e-08
2.24795e-08
2.414e-09
4.54313e-08
2.35244e-08
2.89168e-09
4.41541e-08
2.43242e-08
3.17071e-09
4.34417e-08
2.47571e-08
)
;
    }
}


// ************************************************************************* //
