/*--------------------------------*- C++ -*----------------------------------*\
  =========                 |
  \\      /  F ield         | OpenFOAM: The Open Source CFD Toolbox
   \\    /   O peration     | Website:  https://openfoam.org
    \\  /    A nd           | Version:  6
     \\/     M anipulation  |
\*---------------------------------------------------------------------------*/
FoamFile
{
    version     2.0;
    format      ascii;
    class       volVectorField;
    location    "40";
    object      U;
}
// * * * * * * * * * * * * * * * * * * * * * * * * * * * * * * * * * * * * * //

dimensions      [0 1 -1 0 0 0 0];

internalField   nonuniform List<vector> 
720
(
(0.110327 -1.5407e-08 -4.25035e-11)
(0.110328 1.51153e-08 -1.15036e-11)
(0.110327 3.24232e-10 5.41426e-11)
(0.113608 -1.37838e-08 1.90341e-11)
(0.113609 1.38198e-08 1.26912e-11)
(0.113608 -8.68321e-12 -3.17094e-11)
(0.116354 -1.13027e-08 1.00855e-10)
(0.116355 1.0953e-08 -3.99833e-12)
(0.116354 3.51863e-10 -9.63687e-11)
(0.118502 -6.29614e-09 2.41423e-10)
(0.118501 4.92241e-09 -2.73611e-10)
(0.1185 1.38048e-09 3.14806e-11)
(0.119946 -1.62515e-09 6.90798e-10)
(0.119945 6.6184e-10 -9.09789e-10)
(0.119942 9.64517e-10 2.17166e-10)
(0.119945 1.47328e-09 6.93119e-10)
(0.119944 -5.34286e-10 -9.12383e-10)
(0.119942 -9.54296e-10 2.17385e-10)
(0.118497 6.15439e-09 2.42831e-10)
(0.118497 -4.7445e-09 -2.74512e-10)
(0.118496 -1.41629e-09 3.10941e-11)
(0.116345 1.11028e-08 1.0125e-10)
(0.116346 -1.08023e-08 -3.77602e-12)
(0.116345 -3.15503e-10 -9.71124e-11)
(0.113596 1.35387e-08 1.78871e-11)
(0.113597 -1.37073e-08 1.11901e-11)
(0.113596 1.45963e-10 -2.90501e-11)
(0.110312 1.52904e-08 -4.37423e-11)
(0.110313 -1.50226e-08 -8.43023e-12)
(0.110312 -2.85282e-10 5.21205e-11)
(0.188163 -2.48438e-08 -5.51693e-10)
(0.188163 2.35747e-08 -5.84578e-11)
(0.188163 1.32323e-09 6.10433e-10)
(0.190704 -2.2129e-08 -5.97762e-10)
(0.190705 2.12973e-08 4.60903e-11)
(0.190704 8.76597e-10 5.5192e-10)
(0.19236 -1.77087e-08 -5.965e-10)
(0.19236 1.6611e-08 2.40964e-10)
(0.19236 1.10231e-09 3.55915e-10)
(0.193273 -9.79732e-09 -7.31867e-10)
(0.193272 7.53385e-09 9.61761e-10)
(0.193272 2.2807e-09 -2.30003e-10)
(0.193676 -2.51196e-09 -1.37853e-09)
(0.193676 1.05847e-09 1.94437e-09)
(0.193675 1.46008e-09 -5.66365e-10)
(0.193676 2.27518e-09 -1.38277e-09)
(0.193676 -8.62705e-10 1.94881e-09)
(0.193675 -1.43754e-09 -5.66596e-10)
(0.193271 9.5774e-09 -7.35541e-10)
(0.193271 -7.2637e-09 9.64259e-10)
(0.193271 -2.32471e-09 -2.28843e-10)
(0.192355 1.73828e-08 -5.9715e-10)
(0.192356 -1.63796e-08 2.44186e-10)
(0.192355 -1.02817e-09 3.53222e-10)
(0.190696 2.16843e-08 -5.97235e-10)
(0.190696 -2.11465e-08 5.05109e-11)
(0.190696 -5.75019e-10 5.46758e-10)
(0.18815 2.46681e-08 -5.53712e-10)
(0.18815 -2.34598e-08 -4.93483e-11)
(0.18815 -1.23686e-09 6.02906e-10)
(0.226834 -2.883e-08 -8.90462e-10)
(0.226835 2.69461e-08 -9.56355e-11)
(0.226834 1.94822e-09 9.86759e-10)
(0.229654 -2.58122e-08 -9.07172e-10)
(0.229655 2.43211e-08 8.32732e-11)
(0.229654 1.54383e-09 8.24411e-10)
(0.231528 -2.0457e-08 -8.32276e-10)
(0.231528 1.87418e-08 3.53099e-10)
(0.231527 1.72108e-09 4.79597e-10)
(0.232589 -1.14633e-08 -9.05526e-10)
(0.232589 8.67398e-09 1.19758e-09)
(0.232589 2.81015e-09 -2.91907e-10)
(0.233077 -2.94734e-09 -1.47615e-09)
(0.233077 1.25645e-09 2.14787e-09)
(0.233076 1.69875e-09 -6.70915e-10)
(0.233077 2.6663e-09 -1.48051e-09)
(0.233077 -1.02975e-09 2.15211e-09)
(0.233076 -1.66643e-09 -6.70981e-10)
(0.232588 1.12055e-08 -9.09632e-10)
(0.232587 -8.36758e-09 1.20069e-09)
(0.232587 -2.8512e-09 -2.90783e-10)
(0.231522 2.0071e-08 -8.32814e-10)
(0.231523 -1.84784e-08 3.58057e-10)
(0.231522 -1.6224e-09 4.7496e-10)
(0.229645 2.54276e-08 -9.11025e-10)
(0.229645 -2.4149e-08 8.95338e-11)
(0.229645 -1.32297e-09 8.21539e-10)
(0.22682 2.86346e-08 -8.94793e-10)
(0.226821 -2.68231e-08 -8.00256e-11)
(0.22682 -1.84502e-09 9.74517e-10)
(0.252501 -3.09993e-08 -1.35875e-09)
(0.252502 2.87903e-08 -1.3489e-10)
(0.252501 2.27971e-09 1.49463e-09)
(0.255536 -2.78972e-08 -1.35501e-09)
(0.255537 2.59702e-08 1.3045e-10)
(0.255536 1.98473e-09 1.22549e-09)
(0.25757 -2.197e-08 -1.19308e-09)
(0.25757 1.97399e-08 4.92132e-10)
(0.25757 2.23652e-09 7.01657e-10)
(0.258739 -1.25003e-08 -1.21763e-09)
(0.258739 9.34209e-09 1.55836e-09)
(0.258738 3.18074e-09 -3.40622e-10)
(0.259288 -3.22598e-09 -1.806e-09)
(0.259288 1.39773e-09 2.63138e-09)
(0.259287 1.83647e-09 -8.24674e-10)
(0.259288 2.91552e-09 -1.81117e-09)
(0.259287 -1.15281e-09 2.63615e-09)
(0.259287 -1.79546e-09 -8.24537e-10)
(0.258736 1.22193e-08 -1.22284e-09)
(0.258736 -9.01841e-09 1.56264e-09)
(0.258736 -3.21555e-09 -3.39583e-10)
(0.257564 2.15511e-08 -1.19422e-09)
(0.257564 -1.94592e-08 4.99272e-10)
(0.257564 -2.12449e-09 6.95379e-10)
(0.255526 2.75403e-08 -1.36076e-09)
(0.255527 -2.5783e-08 1.40687e-10)
(0.255526 -1.80567e-09 1.22015e-09)
(0.252486 3.07984e-08 -1.36506e-09)
(0.252487 -2.86635e-08 -1.12939e-10)
(0.252486 -2.17162e-09 1.47749e-09)
(0.271982 -3.22652e-08 -1.9446e-09)
(0.271982 3.00038e-08 -1.6294e-10)
(0.271982 2.33634e-09 2.10914e-09)
(0.275209 -2.91906e-08 -1.93316e-09)
(0.27521 2.70518e-08 1.93737e-10)
(0.275209 2.20013e-09 1.74094e-09)
(0.277388 -2.29747e-08 -1.655e-09)
(0.277389 2.03076e-08 6.34096e-10)
(0.277388 2.6738e-09 1.02206e-09)
(0.278655 -1.3272e-08 -1.64187e-09)
(0.278655 9.85181e-09 1.96775e-09)
(0.278655 3.44385e-09 -3.25969e-10)
(0.279261 -3.44183e-09 -2.29441e-09)
(0.279261 1.52942e-09 3.23519e-09)
(0.27926 1.92103e-09 -9.39923e-10)
(0.279261 3.10829e-09 -2.30096e-09)
(0.279261 -1.27134e-09 3.24102e-09)
(0.27926 -1.87163e-09 -9.39703e-10)
(0.278653 1.29746e-08 -1.64868e-09)
(0.278653 -9.51811e-09 1.97381e-09)
(0.278653 -3.47201e-09 -3.25057e-10)
(0.277382 2.25401e-08 -1.65724e-09)
(0.277382 -2.00141e-08 6.4387e-10)
(0.277382 -2.56025e-09 1.01417e-09)
(0.275198 2.8852e-08 -1.94149e-09)
(0.275198 -2.68533e-08 2.08615e-10)
(0.275198 -2.04997e-09 1.73296e-09)
(0.271965 3.20669e-08 -1.95333e-09)
(0.271966 -2.98766e-08 -1.33543e-10)
(0.271965 -2.22901e-09 2.08611e-09)
(0.287989 -3.32587e-08 -2.67521e-09)
(0.28799 3.09307e-08 -1.56935e-10)
(0.287989 2.40627e-09 2.83431e-09)
(0.291391 -2.99956e-08 -2.64262e-09)
(0.291392 2.78826e-08 2.888e-10)
(0.291391 2.17652e-09 2.35594e-09)
(0.293703 -2.37827e-08 -2.22722e-09)
(0.293703 2.07381e-08 7.73853e-10)
(0.293703 3.0518e-09 1.45485e-09)
(0.295057 -1.37307e-08 -2.15128e-09)
(0.295058 1.01347e-08 2.35168e-09)
(0.295057 3.62088e-09 -2.0046e-10)
(0.295713 -3.63326e-09 -2.91273e-09)
(0.295713 1.6703e-09 3.85812e-09)
(0.295712 1.972e-09 -9.44238e-10)
(0.295713 3.27933e-09 -2.92105e-09)
(0.295713 -1.40015e-09 3.86559e-09)
(0.295712 -1.91503e-09 -9.44063e-10)
(0.295055 1.34259e-08 -2.16025e-09)
(0.295055 -9.79912e-09 2.36006e-09)
(0.295055 -3.64301e-09 -1.99705e-10)
(0.293696 2.33439e-08 -2.231e-09)
(0.293696 -2.04317e-08 7.86641e-10)
(0.293696 -2.94778e-09 1.44542e-09)
(0.291378 2.96737e-08 -2.65414e-09)
(0.291379 -2.76752e-08 3.09069e-10)
(0.291378 -2.05163e-09 2.34519e-09)
(0.287971 3.30574e-08 -2.68654e-09)
(0.287972 -3.0797e-08 -1.1963e-10)
(0.287971 -2.30094e-09 2.80511e-09)
(0.301824 -3.40362e-08 -3.56409e-09)
(0.301825 3.16693e-08 -7.61616e-11)
(0.301824 2.44743e-09 3.64319e-09)
(0.305386 -3.07177e-08 -3.53345e-09)
(0.305387 2.86039e-08 4.49849e-10)
(0.305386 2.17922e-09 3.08657e-09)
(0.30782 -2.42724e-08 -2.92122e-09)
(0.30782 2.11401e-08 9.28711e-10)
(0.30782 3.13987e-09 1.99441e-09)
(0.309254 -1.39558e-08 -2.75336e-09)
(0.309254 1.02535e-08 2.68601e-09)
(0.309254 3.72841e-09 6.72714e-11)
(0.309952 -3.7734e-09 -3.6272e-09)
(0.309952 1.78508e-09 4.41218e-09)
(0.309952 1.99807e-09 -7.83385e-10)
(0.309952 3.40533e-09 -3.63776e-09)
(0.309952 -1.50698e-09 4.4219e-09)
(0.309951 -1.93496e-09 -7.83512e-10)
(0.309251 1.36506e-08 -2.76554e-09)
(0.309251 -9.92237e-09 2.69784e-09)
(0.309251 -3.74501e-09 6.78456e-11)
(0.307812 2.38421e-08 -2.92704e-09)
(0.307813 -2.08221e-08 9.45006e-10)
(0.307812 -3.0565e-09 1.98342e-09)
(0.305373 3.04036e-08 -3.54863e-09)
(0.305373 -2.83826e-08 4.75956e-10)
(0.305373 -2.07562e-09 3.07282e-09)
(0.301805 3.38268e-08 -3.57881e-09)
(0.301806 -3.15236e-08 -3.03395e-11)
(0.301805 -2.34496e-09 3.60773e-09)
(0.314196 -3.45203e-08 -4.64478e-09)
(0.314197 3.21755e-08 1.46876e-10)
(0.314196 2.42675e-09 4.50182e-09)
(0.317909 -3.1328e-08 -4.6408e-09)
(0.317909 2.92275e-08 7.36926e-10)
(0.317908 2.16696e-09 3.90779e-09)
(0.320456 -2.45141e-08 -3.77314e-09)
(0.320457 2.15862e-08 1.13942e-09)
(0.320456 2.93559e-09 2.63629e-09)
(0.321963 -1.40456e-08 -3.46399e-09)
(0.321963 1.02979e-08 2.97816e-09)
(0.321963 3.77508e-09 4.8582e-10)
(0.322699 -3.87422e-09 -4.47189e-09)
(0.322699 1.882e-09 4.89511e-09)
(0.322699 2.00278e-09 -4.21101e-10)
(0.322699 3.49701e-09 -4.48522e-09)
(0.322699 -1.59903e-09 4.90797e-09)
(0.322698 -1.93488e-09 -4.21878e-10)
(0.32196 1.3739e-08 -3.48006e-09)
(0.32196 -9.96961e-09 2.99419e-09)
(0.32196 -3.78653e-09 4.86119e-10)
(0.320448 2.40985e-08 -3.78155e-09)
(0.320449 -2.12565e-08 1.15972e-09)
(0.320448 -2.87865e-09 2.62376e-09)
(0.317895 3.10145e-08 -4.66e-09)
(0.317895 -2.89872e-08 7.69424e-10)
(0.317894 -2.08269e-09 3.89076e-09)
(0.314176 3.42974e-08 -4.66389e-09)
(0.314177 -3.20119e-08 2.01729e-10)
(0.314175 -2.32809e-09 4.46034e-09)
(0.325531 -3.44239e-08 -5.95646e-09)
(0.325531 3.2193e-08 6.08083e-10)
(0.32553 2.31368e-09 5.35346e-09)
(0.329387 -3.16585e-08 -6.01808e-09)
(0.329388 2.96216e-08 1.24549e-09)
(0.329387 2.10378e-09 4.77768e-09)
(0.332044 -2.48159e-08 -4.88275e-09)
(0.332044 2.20992e-08 1.48499e-09)
(0.332044 2.72482e-09 3.40084e-09)
(0.333617 -1.41367e-08 -4.33172e-09)
(0.333618 1.03997e-08 3.28145e-09)
(0.333617 3.76555e-09 1.0502e-09)
(0.334387 -3.9417e-09 -5.47481e-09)
(0.334388 1.96499e-09 5.33256e-09)
(0.334387 1.98815e-09 1.45053e-10)
(0.334387 3.55977e-09 -5.49151e-09)
(0.334387 -1.67963e-09 5.34956e-09)
(0.334387 -1.91685e-09 1.43122e-10)
(0.333614 1.38241e-08 -4.35298e-09)
(0.333615 -1.00691e-08 3.30335e-09)
(0.333614 -3.7722e-09 1.04991e-09)
(0.332035 2.44081e-08 -4.89419e-09)
(0.332036 -2.17537e-08 1.5098e-09)
(0.332035 -2.69124e-09 3.38672e-09)
(0.329372 3.13392e-08 -6.04143e-09)
(0.329373 -2.93568e-08 1.2846e-09)
(0.329372 -2.03787e-09 4.75711e-09)
(0.325509 3.41822e-08 -5.98041e-09)
(0.32551 -3.20051e-08 6.71783e-10)
(0.325509 -2.22006e-09 5.30641e-09)
(0.3361 -3.36106e-08 -7.55901e-09)
(0.3361 3.16103e-08 1.45713e-09)
(0.336099 2.08306e-09 6.10834e-09)
(0.340097 -3.13508e-08 -7.7075e-09)
(0.340097 2.94622e-08 2.1006e-09)
(0.340096 1.95529e-09 5.61344e-09)
(0.342859 -2.50184e-08 -6.31234e-09)
(0.342859 2.25456e-08 2.08048e-09)
(0.342859 2.48094e-09 4.23585e-09)
(0.344497 -1.42572e-08 -5.43446e-09)
(0.344497 1.05869e-08 3.68869e-09)
(0.344497 3.69991e-09 1.74566e-09)
(0.345297 -3.97784e-09 -6.67853e-09)
(0.345298 2.03486e-09 5.79789e-09)
(0.345297 1.95531e-09 8.84248e-10)
(0.345297 3.59535e-09 -6.69911e-09)
(0.345297 -1.74923e-09 5.82023e-09)
(0.345297 -1.88221e-09 8.80436e-10)
(0.344493 1.39321e-08 -5.46224e-09)
(0.344494 -1.02471e-08 3.71855e-09)
(0.344493 -3.70221e-09 1.74401e-09)
(0.34285 2.46118e-08 -6.32739e-09)
(0.34285 -2.21815e-08 2.11053e-09)
(0.34285 -2.46655e-09 4.21996e-09)
(0.340081 3.10316e-08 -7.73576e-09)
(0.340082 -2.91793e-08 2.14684e-09)
(0.340081 -1.90746e-09 5.58938e-09)
(0.336077 3.33579e-08 -7.58871e-09)
(0.336078 -3.14046e-08 1.52965e-09)
(0.336077 -1.99635e-09 6.05642e-09)
(0.346084 -3.20178e-08 -9.53749e-09)
(0.346084 3.03806e-08 2.89707e-09)
(0.346083 1.71881e-09 6.64855e-09)
(0.350221 -3.03556e-08 -9.79667e-09)
(0.350221 2.87264e-08 3.51115e-09)
(0.35022 1.69499e-09 6.29371e-09)
(0.353088 -2.46959e-08 -8.1212e-09)
(0.353088 2.25297e-08 3.06862e-09)
(0.353087 2.17445e-09 5.05753e-09)
(0.354789 -1.43201e-08 -6.88072e-09)
(0.354789 1.07773e-08 4.33485e-09)
(0.354789 3.57308e-09 2.54566e-09)
(0.355617 -3.98039e-09 -8.16181e-09)
(0.355618 2.08914e-09 6.42871e-09)
(0.355617 1.90437e-09 1.73763e-09)
(0.355617 3.6016e-09 -8.18661e-09)
(0.355617 -1.80516e-09 6.45771e-09)
(0.355616 -1.83136e-09 1.73092e-09)
(0.354785 1.39755e-08 -6.9146e-09)
(0.354786 -1.04203e-08 4.37374e-09)
(0.354785 -3.57193e-09 2.54122e-09)
(0.353078 2.42934e-08 -8.1405e-09)
(0.353079 -2.21532e-08 3.10502e-09)
(0.353078 -2.17552e-09 5.03942e-09)
(0.350204 3.00425e-08 -9.83062e-09)
(0.350205 -2.84312e-08 3.56479e-09)
(0.350204 -1.66544e-09 6.26649e-09)
(0.346061 3.17619e-08 -9.57342e-09)
(0.346061 -3.01628e-08 2.97731e-09)
(0.34606 -1.64148e-09 6.59294e-09)
(0.355608 -2.95347e-08 -1.19273e-08)
(0.355608 2.83967e-08 5.09228e-09)
(0.355607 1.21836e-09 6.84462e-09)
(0.359886 -2.85835e-08 -1.23978e-08)
(0.359886 2.7342e-08 5.73321e-09)
(0.359884 1.30537e-09 6.67453e-09)
(0.362859 -2.37825e-08 -1.04316e-08)
(0.362859 2.20065e-08 4.70802e-09)
(0.362858 1.78401e-09 5.72967e-09)
(0.364623 -1.41064e-08 -8.77566e-09)
(0.364624 1.07601e-08 5.39532e-09)
(0.364623 3.37708e-09 3.38025e-09)
(0.365479 -3.94193e-09 -1.00465e-08)
(0.365479 2.12156e-09 7.44338e-09)
(0.365478 1.83407e-09 2.60878e-09)
(0.365478 3.57142e-09 -1.00758e-08)
(0.365478 -1.84114e-09 7.48058e-09)
(0.365477 -1.76352e-09 2.59777e-09)
(0.36462 1.3752e-08 -8.81723e-09)
(0.36462 -1.03939e-08 5.44685e-09)
(0.364619 -3.37423e-09 3.37101e-09)
(0.362849 2.33904e-08 -1.04558e-08)
(0.362849 -2.1626e-08 4.75229e-09)
(0.362848 -1.79806e-09 5.70845e-09)
(0.359868 2.82831e-08 -1.24378e-08)
(0.359869 -2.70404e-08 5.79421e-09)
(0.359867 -1.29477e-09 6.64442e-09)
(0.355584 2.92838e-08 -1.19684e-08)
(0.355584 -2.81726e-08 5.17782e-09)
(0.355582 -1.15352e-09 6.78664e-09)
(0.364754 -2.7267e-08 -1.50496e-08)
(0.364754 2.67309e-08 8.4679e-09)
(0.364753 6.13289e-10 6.5934e-09)
(0.369178 -2.59037e-08 -1.55466e-08)
(0.369178 2.5184e-08 8.94282e-09)
(0.369176 7.82078e-10 6.61573e-09)
(0.372262 -2.21807e-08 -1.33805e-08)
(0.372262 2.08877e-08 7.30447e-09)
(0.37226 1.30011e-09 6.08333e-09)
(0.374092 -1.35732e-08 -1.12954e-08)
(0.374092 1.04943e-08 7.1704e-09)
(0.374091 3.10935e-09 4.12511e-09)
(0.374972 -3.84992e-09 -1.25025e-08)
(0.374973 2.1215e-09 9.14087e-09)
(0.374972 1.74237e-09 3.36846e-09)
(0.374972 3.4931e-09 -1.25361e-08)
(0.374972 -1.84681e-09 9.18782e-09)
(0.374971 -1.67725e-09 3.35161e-09)
(0.374087 1.32195e-08 -1.13453e-08)
(0.374088 -1.01271e-08 7.23716e-09)
(0.374087 -3.10748e-09 4.10918e-09)
(0.372251 2.18072e-08 -1.34095e-08)
(0.372251 -2.0512e-08 7.358e-09)
(0.37225 -1.3264e-09 6.05752e-09)
(0.36916 2.56235e-08 -1.55917e-08)
(0.36916 -2.48826e-08 9.01005e-09)
(0.369158 -7.9158e-10 6.58251e-09)
(0.364729 2.70199e-08 -1.50952e-08)
(0.364729 -2.6497e-08 8.55669e-09)
(0.364727 -5.63579e-10 6.53392e-09)
(0.373577 -2.51367e-08 -1.90299e-08)
(0.373577 2.5121e-08 1.32453e-08)
(0.373575 8.84577e-11 5.79853e-09)
(0.378154 -2.34618e-08 -1.97224e-08)
(0.378153 2.32648e-08 1.37279e-08)
(0.378152 2.55913e-10 6.00883e-09)
(0.381355 -1.97574e-08 -1.69707e-08)
(0.381355 1.90353e-08 1.10325e-08)
(0.381353 7.29537e-10 5.94637e-09)
(0.383255 -1.26568e-08 -1.46167e-08)
(0.383255 9.90995e-09 1.00201e-08)
(0.383254 2.77638e-09 4.59672e-09)
(0.384161 -3.68656e-09 -1.57182e-08)
(0.384161 2.07185e-09 1.18789e-08)
(0.38416 1.62837e-09 3.84737e-09)
(0.38416 3.35006e-09 -1.57563e-08)
(0.38416 -1.80568e-09 1.19367e-08)
(0.384159 -1.5724e-09 3.8235e-09)
(0.383251 1.2316e-08 -1.46759e-08)
(0.383251 -9.55045e-09 1.01045e-08)
(0.383249 -2.77915e-09 4.57271e-09)
(0.381344 1.94138e-08 -1.70078e-08)
(0.381344 -1.86741e-08 1.1096e-08)
(0.381342 -7.69186e-10 5.91856e-09)
(0.378135 2.31967e-08 -1.97714e-08)
(0.378135 -2.29575e-08 1.38004e-08)
(0.378133 -2.86401e-10 5.97232e-09)
(0.373551 2.48912e-08 -1.90773e-08)
(0.373551 -2.48747e-08 1.33342e-08)
(0.373549 -5.50983e-11 5.7378e-09)
(0.382105 -2.30575e-08 -2.39834e-08)
(0.382105 2.33149e-08 1.96621e-08)
(0.382103 -1.9064e-10 4.33748e-09)
(0.386846 -2.11639e-08 -2.49737e-08)
(0.386846 2.13203e-08 2.02758e-08)
(0.386844 -1.02123e-10 4.71525e-09)
(0.390174 -1.75477e-08 -2.17566e-08)
(0.390173 1.73449e-08 1.65814e-08)
(0.390172 2.08596e-10 5.18498e-09)
(0.392151 -1.12767e-08 -1.86715e-08)
(0.392151 8.90723e-09 1.41099e-08)
(0.39215 2.3987e-09 4.56207e-09)
(0.393082 -3.42539e-09 -1.96082e-08)
(0.393082 1.94367e-09 1.57733e-08)
(0.393081 1.49526e-09 3.84433e-09)
(0.393081 3.11791e-09 -1.96498e-08)
(0.393081 -1.69006e-09 1.58421e-08)
(0.39308 -1.45292e-09 3.81247e-09)
(0.392146 1.09631e-08 -1.87394e-08)
(0.392146 -8.5657e-09 1.4212e-08)
(0.392144 -2.41063e-09 4.52922e-09)
(0.390162 1.72272e-08 -2.18008e-08)
(0.390162 -1.69897e-08 1.66566e-08)
(0.39016 -2.63024e-10 5.15256e-09)
(0.386827 2.09094e-08 -2.50236e-08)
(0.386826 -2.10028e-08 2.0351e-08)
(0.386824 5.06979e-11 4.6748e-09)
(0.382078 2.28114e-08 -2.4029e-08)
(0.382078 -2.30533e-08 1.97477e-08)
(0.382076 2.06213e-10 4.27524e-09)
(0.390344 -2.09513e-08 -2.98917e-08)
(0.390343 2.10379e-08 2.77917e-08)
(0.390341 -2.76566e-11 2.11831e-09)
(0.395264 -1.89146e-08 -3.13766e-08)
(0.395263 1.90823e-08 2.87596e-08)
(0.395261 -1.19505e-10 2.63762e-09)
(0.398731 -1.54637e-08 -2.77222e-08)
(0.39873 1.55572e-08 2.41059e-08)
(0.398729 -8.99996e-11 3.62788e-09)
(0.400794 -1.00793e-08 -2.40789e-08)
(0.400794 8.04897e-09 2.03044e-08)
(0.400792 2.05701e-09 3.77529e-09)
(0.401752 -3.22808e-09 -2.48022e-08)
(0.401752 1.88152e-09 2.16652e-08)
(0.40175 1.35871e-09 3.14825e-09)
(0.401751 2.94048e-09 -2.48478e-08)
(0.40175 -1.62801e-09 2.17444e-08)
(0.401749 -1.33346e-09 3.10947e-09)
(0.400788 9.7862e-09 -2.41564e-08)
(0.400788 -7.71485e-09 2.0424e-08)
(0.400786 -2.08249e-09 3.73483e-09)
(0.398718 1.51614e-08 -2.77766e-08)
(0.398718 -1.52028e-08 2.41927e-08)
(0.398716 2.09281e-11 3.59396e-09)
(0.395243 1.86672e-08 -3.14241e-08)
(0.395243 -1.87523e-08 2.8834e-08)
(0.395241 4.79885e-11 2.59348e-09)
(0.390316 2.07026e-08 -2.99315e-08)
(0.390315 -2.07578e-08 2.78707e-08)
(0.390313 2.33065e-11 2.0537e-09)
(0.398274 -1.87582e-08 -3.64371e-08)
(0.398273 1.7991e-08 3.74084e-08)
(0.398272 8.1625e-10 -9.52282e-10)
(0.403393 -1.66334e-08 -3.86965e-08)
(0.403392 1.6263e-08 3.90664e-08)
(0.40339 4.10844e-10 -3.46886e-10)
(0.407015 -1.342e-08 -3.48236e-08)
(0.407014 1.34137e-08 3.36736e-08)
(0.407013 6.37898e-12 1.16257e-09)
(0.409175 -9.00376e-09 -3.06703e-08)
(0.409175 7.16214e-09 2.86423e-08)
(0.409173 1.86494e-09 2.02896e-09)
(0.410163 -3.07747e-09 -3.11089e-08)
(0.410162 1.84807e-09 2.95671e-08)
(0.410161 1.23948e-09 1.55449e-09)
(0.410161 2.80166e-09 -3.11569e-08)
(0.41016 -1.58477e-09 2.96538e-08)
(0.410159 -1.23321e-09 1.51007e-09)
(0.409169 8.72563e-09 -3.07543e-08)
(0.409168 -6.82861e-09 2.87742e-08)
(0.409167 -1.9057e-09 1.98276e-09)
(0.407002 1.31324e-08 -3.4885e-08)
(0.407001 -1.30572e-08 3.37705e-08)
(0.406999 -8.92451e-11 1.12543e-09)
(0.403371 1.63908e-08 -3.87375e-08)
(0.403371 -1.59213e-08 3.91352e-08)
(0.403369 -4.99623e-10 -3.94008e-10)
(0.398245 1.85057e-08 -3.64669e-08)
(0.398245 -1.76909e-08 3.74763e-08)
(0.398243 -8.41857e-10 -1.01875e-09)
(0.405853 -1.6468e-08 -4.29047e-08)
(0.405853 1.39942e-08 4.76619e-08)
(0.405852 2.511e-09 -4.73967e-09)
(0.411193 -1.42781e-08 -4.62191e-08)
(0.411192 1.25945e-08 5.03552e-08)
(0.411191 1.71451e-09 -4.11514e-09)
(0.41499 -1.13671e-08 -4.25417e-08)
(0.414989 1.0681e-08 4.48788e-08)
(0.414987 6.8159e-10 -2.32853e-09)
(0.41726 -8.00404e-09 -3.81127e-08)
(0.41726 6.08196e-09 3.89999e-08)
(0.417258 1.9414e-09 -8.90665e-10)
(0.418281 -2.95764e-09 -3.82237e-08)
(0.41828 1.79942e-09 3.94016e-08)
(0.418279 1.1657e-09 -1.16859e-09)
(0.418278 2.68706e-09 -3.8271e-08)
(0.418278 -1.52051e-09 3.9491e-08)
(0.418276 -1.17774e-09 -1.21663e-09)
(0.417253 7.737e-09 -3.81971e-08)
(0.417252 -5.74699e-09 3.91351e-08)
(0.417251 -1.99589e-09 -9.39599e-10)
(0.414975 1.10925e-08 -4.26042e-08)
(0.414975 -1.03241e-08 4.49785e-08)
(0.414973 -7.74587e-10 -2.36739e-09)
(0.411171 1.40387e-08 -4.62488e-08)
(0.41117 -1.22465e-08 5.04111e-08)
(0.411169 -1.81384e-09 -4.16244e-09)
(0.405824 1.62119e-08 -4.2921e-08)
(0.405823 -1.36772e-08 4.77138e-08)
(0.405822 -2.55624e-09 -4.80641e-09)
(0.413011 -1.4148e-08 -4.81124e-08)
(0.41301 9.22187e-09 5.69301e-08)
(0.413009 4.94857e-09 -8.80309e-09)
(0.418597 -1.18834e-08 -5.25558e-08)
(0.418596 8.10022e-09 6.09269e-08)
(0.418595 3.8019e-09 -8.35763e-09)
(0.422588 -9.34892e-09 -4.96284e-08)
(0.422587 7.28239e-09 5.61593e-08)
(0.422586 2.05588e-09 -6.53305e-09)
(0.424982 -7.08163e-09 -4.53985e-08)
(0.424982 4.69812e-09 5.02786e-08)
(0.424981 2.39888e-09 -4.89217e-09)
(0.42604 -2.8592e-09 -4.5178e-08)
(0.42604 1.69e-09 5.0097e-08)
(0.426039 1.17384e-09 -4.91661e-09)
(0.426038 2.58922e-09 -4.52202e-08)
(0.426037 -1.39733e-09 5.01796e-08)
(0.426036 -1.19777e-09 -4.96302e-09)
(0.424974 6.82412e-09 -4.54747e-08)
(0.424973 -4.36797e-09 5.04022e-08)
(0.424972 -2.45946e-09 -4.93777e-09)
(0.422572 9.08667e-09 -4.96833e-08)
(0.422572 -6.93501e-09 5.62501e-08)
(0.422571 -2.14855e-09 -6.57061e-09)
(0.418574 1.16449e-08 -5.25702e-08)
(0.418573 -7.75414e-09 6.09639e-08)
(0.418573 -3.90178e-09 -8.40271e-09)
(0.41298 1.38913e-08 -4.81144e-08)
(0.41298 -8.89592e-09 5.69623e-08)
(0.412979 -5.00991e-09 -8.86618e-09)
(0.419643 -1.19247e-08 -5.04609e-08)
(0.419643 4.22582e-09 6.08534e-08)
(0.419643 7.70283e-09 -1.0378e-08)
(0.425501 -9.57225e-09 -5.59626e-08)
(0.4255 3.16826e-09 6.80821e-08)
(0.4255 6.40726e-09 -1.21035e-08)
(0.429705 -7.58034e-09 -5.42543e-08)
(0.429704 3.66126e-09 6.50421e-08)
(0.429704 3.90091e-09 -1.0794e-08)
(0.432236 -6.34373e-09 -5.07512e-08)
(0.432236 3.12698e-09 6.00741e-08)
(0.432235 3.22946e-09 -9.32224e-09)
(0.433338 -2.79231e-09 -5.02685e-08)
(0.433338 1.50023e-09 5.94701e-08)
(0.433337 1.29424e-09 -9.18427e-09)
(0.433335 2.51987e-09 -5.03009e-08)
(0.433334 -1.20243e-09 5.95382e-08)
(0.433334 -1.31837e-09 -9.22587e-09)
(0.432227 6.09678e-09 -5.08099e-08)
(0.432226 -2.81558e-09 6.01718e-08)
(0.432226 -3.28319e-09 -9.35952e-09)
(0.429689 7.32985e-09 -5.42945e-08)
(0.429688 -3.33529e-09 6.51119e-08)
(0.429688 -3.98082e-09 -1.08252e-08)
(0.425477 9.32833e-09 -5.59612e-08)
(0.425477 -2.83084e-09 6.80964e-08)
(0.425477 -6.49518e-09 -1.21421e-08)
(0.419613 1.16743e-08 -5.04548e-08)
(0.419613 -3.90697e-09 6.08629e-08)
(0.419613 -7.7724e-09 -1.04266e-08)
(0.425614 -9.80583e-09 -4.85989e-08)
(0.425614 3.02708e-12 5.98845e-08)
(0.425614 9.7863e-09 -1.12733e-08)
(0.431759 -7.57923e-09 -5.82198e-08)
(0.431759 -9.23126e-10 6.95627e-08)
(0.431759 8.48307e-09 -1.13284e-08)
(0.43619 -6.4983e-09 -5.64195e-08)
(0.436189 8.63987e-10 6.75604e-08)
(0.43619 5.60642e-09 -1.11554e-08)
(0.438867 -6.07218e-09 -5.30522e-08)
(0.438867 1.81775e-09 6.23369e-08)
(0.438867 4.27485e-09 -9.2386e-09)
(0.440018 -2.81668e-09 -5.2454e-08)
(0.440018 1.26077e-09 6.15849e-08)
(0.440018 1.55865e-09 -9.06804e-09)
(0.440014 2.53732e-09 -5.24731e-08)
(0.440014 -9.74744e-10 6.16286e-08)
(0.440014 -1.56184e-09 -9.09797e-09)
(0.438856 5.83824e-09 -5.30879e-08)
(0.438856 -1.5468e-09 6.2394e-08)
(0.438856 -4.30245e-09 -9.25877e-09)
(0.436173 6.25587e-09 -5.65028e-08)
(0.436172 -5.72399e-10 6.76581e-08)
(0.436173 -5.65707e-09 -1.11713e-08)
(0.431735 7.31141e-09 -5.82069e-08)
(0.431735 1.25145e-09 6.95545e-08)
(0.431735 -8.54058e-09 -1.13547e-08)
(0.425583 9.5591e-09 -4.85903e-08)
(0.425583 3.19586e-10 5.98789e-08)
(0.425584 -9.87315e-09 -1.13076e-08)
(0.430731 -8.51543e-09 -4.11531e-08)
(0.430732 -2.015e-09 5.14016e-08)
(0.430733 1.04929e-08 -1.02411e-08)
(0.437165 -5.70436e-09 -4.6486e-08)
(0.437166 -3.95049e-09 5.78756e-08)
(0.437167 9.63478e-09 -1.13993e-08)
(0.441823 -5.56417e-09 -4.75247e-08)
(0.441823 -1.27618e-09 5.9315e-08)
(0.441824 6.8226e-09 -1.18252e-08)
(0.444645 -5.16712e-09 -4.65584e-08)
(0.444645 9.76752e-10 5.81682e-08)
(0.444646 4.19988e-09 -1.15781e-08)
(0.445849 -2.48129e-09 -4.60929e-08)
(0.445849 1.08163e-09 5.74986e-08)
(0.44585 1.39256e-09 -1.1359e-08)
(0.445845 2.22022e-09 -4.61003e-08)
(0.445845 -7.91488e-10 5.75234e-08)
(0.445846 -1.41622e-09 -1.13809e-08)
(0.444634 4.9643e-09 -4.65709e-08)
(0.444634 -7.24895e-10 5.8194e-08)
(0.444635 -4.24052e-09 -1.15906e-08)
(0.441805 5.34864e-09 -4.75243e-08)
(0.441805 1.53758e-09 5.93265e-08)
(0.441806 -6.86846e-09 -1.18387e-08)
(0.437141 5.46562e-09 -4.64685e-08)
(0.437141 4.24327e-09 5.78557e-08)
(0.437142 -9.68959e-09 -1.14154e-08)
(0.430701 8.26605e-09 -4.11428e-08)
(0.430701 2.34608e-09 5.13798e-08)
(0.430702 -1.05961e-08 -1.02565e-08)
(0.434716 -8.96263e-09 -2.78822e-08)
(0.434716 -1.93661e-10 3.42406e-08)
(0.434718 9.09878e-09 -6.34613e-09)
(0.441408 -5.52034e-09 -3.23319e-08)
(0.441409 -3.51812e-09 3.98417e-08)
(0.441411 9.00929e-09 -7.51523e-09)
(0.446269 -5.24336e-09 -3.37744e-08)
(0.446269 -1.85242e-09 4.23518e-08)
(0.446271 7.07548e-09 -8.60216e-09)
(0.449219 -4.7343e-09 -3.36884e-08)
(0.44922 5.83488e-10 4.26567e-08)
(0.449221 4.14651e-09 -8.98558e-09)
(0.450473 -2.30466e-09 -3.34262e-08)
(0.450474 9.99598e-10 4.23095e-08)
(0.450475 1.28968e-09 -8.89048e-09)
(0.450469 2.05385e-09 -3.34249e-08)
(0.450469 -7.00939e-10 4.23149e-08)
(0.450471 -1.33204e-09 -8.90016e-09)
(0.449207 4.54599e-09 -3.36861e-08)
(0.449207 -3.34646e-10 4.26542e-08)
(0.449209 -4.20065e-09 -8.98466e-09)
(0.44625 5.04655e-09 -3.37737e-08)
(0.446251 2.09555e-09 4.23524e-08)
(0.446252 -7.12124e-09 -8.60443e-09)
(0.441384 5.30223e-09 -3.23153e-08)
(0.441385 3.78224e-09 3.98162e-08)
(0.441386 -9.0598e-09 -7.51948e-09)
(0.434686 8.71157e-09 -2.78711e-08)
(0.434686 5.16064e-10 3.42142e-08)
(0.434688 -9.2013e-09 -6.3497e-09)
(0.437108 -1.03436e-08 -9.91116e-09)
(0.437109 3.59526e-09 1.20321e-08)
(0.43711 6.67957e-09 -2.11161e-09)
(0.443975 -6.39457e-09 -1.17035e-08)
(0.443975 -8.93891e-10 1.42744e-08)
(0.443977 7.25186e-09 -2.56616e-09)
(0.44897 -5.49401e-09 -1.24006e-08)
(0.448971 -9.54382e-10 1.54849e-08)
(0.448973 6.41993e-09 -3.08917e-09)
(0.452005 -4.67544e-09 -1.25129e-08)
(0.452006 7.55959e-10 1.58151e-08)
(0.452007 3.90108e-09 -3.3119e-09)
(0.453294 -2.24715e-09 -1.24444e-08)
(0.453294 1.02217e-09 1.57364e-08)
(0.453296 1.20253e-09 -3.29815e-09)
(0.453289 2.00174e-09 -1.24426e-08)
(0.45329 -7.24513e-10 1.57362e-08)
(0.453291 -1.25152e-09 -3.30095e-09)
(0.451993 4.49172e-09 -1.25097e-08)
(0.451993 -5.10818e-10 1.58107e-08)
(0.451995 -3.95911e-09 -3.31027e-09)
(0.448952 5.30795e-09 -1.24007e-08)
(0.448952 1.18285e-09 1.54842e-08)
(0.448954 -6.46261e-09 -3.08855e-09)
(0.44395 6.18978e-09 -1.16963e-08)
(0.443951 1.13411e-09 1.42626e-08)
(0.443952 -7.29496e-09 -2.56634e-09)
(0.437079 1.00933e-08 -9.90589e-09)
(0.437079 -3.28918e-09 1.20195e-08)
(0.437081 -6.7734e-09 -2.11119e-09)
)
;

boundaryField
{
    freeSurface
    {
        type            slip;
    }
    inlet
    {
        type            cyclic;
    }
    outlet
    {
        type            cyclic;
    }
    sidewalls
    {
        type            fixedValue;
        value           nonuniform 0();
    }
    noSlipWalls
    {
        type            fixedValue;
        value           uniform (0 0 0);
    }
    procBoundary1to0
    {
        type            processor;
        value           nonuniform List<vector> 
72
(
(0.106664 -1.43437e-08 -7.63668e-11)
(0.106665 1.31234e-08 -7.82147e-11)
(0.106664 1.26776e-09 1.54775e-10)
(0.184818 -2.34349e-08 -5.01946e-10)
(0.184819 2.06546e-08 -3.40758e-10)
(0.184818 2.86049e-09 8.43358e-10)
(0.223169 -2.72183e-08 -8.17687e-10)
(0.22317 2.35629e-08 -6.04259e-10)
(0.223169 3.75057e-09 1.42324e-09)
(0.248576 -2.92722e-08 -1.23339e-09)
(0.248577 2.51119e-08 -9.25947e-10)
(0.248576 4.2648e-09 2.16147e-09)
(0.267827 -3.04737e-08 -1.75204e-09)
(0.267828 2.61031e-08 -1.27952e-09)
(0.267827 4.48168e-09 3.0348e-09)
(0.283628 -3.11519e-08 -2.38061e-09)
(0.283629 2.68491e-08 -1.62799e-09)
(0.283628 4.41856e-09 4.01314e-09)
(0.297274 -3.145e-08 -3.11168e-09)
(0.297275 2.75124e-08 -1.92135e-09)
(0.297274 4.05632e-09 5.03921e-09)
(0.30947 -3.1664e-08 -4.00784e-09)
(0.309471 2.80644e-08 -2.08329e-09)
(0.309469 3.72039e-09 6.09928e-09)
(0.320635 -3.14673e-08 -5.09116e-09)
(0.320636 2.82228e-08 -1.9974e-09)
(0.320634 3.36587e-09 7.09909e-09)
(0.331038 -3.06485e-08 -6.42615e-09)
(0.331038 2.78101e-08 -1.49351e-09)
(0.331037 2.9593e-09 7.93289e-09)
(0.340857 -2.91513e-08 -8.11633e-09)
(0.340857 2.67894e-08 -3.44438e-10)
(0.340855 2.48065e-09 8.47706e-09)
(0.350211 -2.68801e-08 -1.02575e-08)
(0.35021 2.50702e-08 1.65471e-09)
(0.350209 1.92573e-09 8.62229e-09)
(0.35918 -2.48309e-08 -1.31353e-08)
(0.359179 2.35396e-08 4.87444e-09)
(0.359178 1.4017e-09 8.28414e-09)
(0.367813 -2.29329e-08 -1.68621e-08)
(0.367813 2.19593e-08 9.50838e-09)
(0.367811 1.07654e-09 7.38123e-09)
(0.376135 -2.11248e-08 -2.15177e-08)
(0.376134 2.0107e-08 1.57207e-08)
(0.376133 1.11098e-09 5.82874e-09)
(0.384146 -1.93709e-08 -2.70118e-08)
(0.384146 1.7757e-08 2.34767e-08)
(0.384144 1.69442e-09 3.57047e-09)
(0.391825 -1.76746e-08 -3.29481e-08)
(0.391825 1.47221e-08 3.23701e-08)
(0.391823 3.01741e-09 6.15416e-10)
(0.399128 -1.61198e-08 -3.85903e-08)
(0.399127 1.10903e-08 4.15181e-08)
(0.399126 5.07576e-09 -2.88954e-09)
(0.405985 -1.49172e-08 -4.28946e-08)
(0.405984 7.32302e-09 4.9323e-08)
(0.405984 7.61853e-09 -6.38469e-09)
(0.412304 -1.44546e-08 -4.50088e-08)
(0.412304 4.45253e-09 5.21155e-08)
(0.412304 1.00052e-08 -7.05251e-09)
(0.417964 -1.37726e-08 -4.231e-08)
(0.417964 3.22921e-09 5.08936e-08)
(0.417965 1.05129e-08 -8.53844e-09)
(0.422798 -1.43957e-08 -3.54503e-08)
(0.422798 4.35806e-09 4.2661e-08)
(0.4228 9.97595e-09 -7.18379e-09)
(0.426554 -1.61686e-08 -2.37483e-08)
(0.426555 8.34049e-09 2.79806e-08)
(0.426556 7.7401e-09 -4.20883e-09)
(0.428809 -1.82624e-08 -8.38446e-09)
(0.428809 1.32144e-08 9.75413e-09)
(0.42881 4.94531e-09 -1.35769e-09)
)
;
    }
    procBoundary1to2
    {
        type            processor;
        value           nonuniform List<vector> 
72
(
(0.106651 1.43144e-08 -7.71521e-11)
(0.106652 -1.31247e-08 -7.53641e-11)
(0.106651 -1.20187e-09 1.52559e-10)
(0.184805 2.3389e-08 -5.03747e-10)
(0.184806 -2.06405e-08 -3.29527e-10)
(0.184805 -2.76923e-09 8.33374e-10)
(0.223154 2.71695e-08 -8.21833e-10)
(0.223156 -2.35457e-08 -5.85077e-10)
(0.223155 -3.64837e-09 1.40699e-09)
(0.24856 2.92256e-08 -1.24102e-09)
(0.248561 -2.50959e-08 -8.97963e-10)
(0.24856 -4.15673e-09 2.13902e-09)