/*--------------------------------*- C++ -*----------------------------------*\
  =========                 |
  \\      /  F ield         | OpenFOAM: The Open Source CFD Toolbox
   \\    /   O peration     | Website:  https://openfoam.org
    \\  /    A nd           | Version:  6
     \\/     M anipulation  |
\*---------------------------------------------------------------------------*/
FoamFile
{
    version     2.0;
    format      ascii;
    class       volVectorField;
    location    "48";
    object      wallShearStress;
}
// * * * * * * * * * * * * * * * * * * * * * * * * * * * * * * * * * * * * * //

dimensions      [0 2 -2 0 0 0 0];

internalField   uniform (0 0 0);

boundaryField
{
    inlet
    {
        type            calculated;
        value           uniform (0 0 0);
    }
    outlet
    {
        type            calculated;
        value           uniform (0 0 0);
    }
    roughCylinder
    {
        type            calculated;
        value           nonuniform List<vector> 
5120
(
(-0.00024098 -0.000342265 -0.000172404)
(-0.000295361 -0.000444414 -3.94553e-05)
(-0.000328545 -0.000535291 1.62751e-06)
(-0.000373597 -0.000621848 5.53501e-05)
(-0.000429364 -0.000696323 0.000116677)
(-0.000492348 -0.000754389 0.000177783)
(-0.000558971 -0.000793593 0.000234387)
(-0.000624626 -0.000814591 0.000283834)
(-0.000685451 -0.0008201 0.000324181)
(-0.00073984 -0.00081552 0.000355054)
(-0.000788293 -0.000809379 0.00037836)
(-0.000830611 -0.000805654 0.000395392)
(-0.000864617 -0.000805122 0.000405249)
(-0.000893335 -0.000809645 0.000408902)
(-0.000917955 -0.00081858 0.000407416)
(-0.000939791 -0.000831222 0.000401803)
(-0.000960187 -0.000846838 0.000393069)
(-0.000980287 -0.000864819 0.000382044)
(-0.00100097 -0.000884725 0.000369344)
(-0.00102281 -0.000906286 0.000355351)
(-0.00104611 -0.000929337 0.000340239)
(-0.00107099 -0.000953764 0.000324023)
(-0.00109737 -0.000979436 0.000306607)
(-0.00112509 -0.00100619 0.000287809)
(-0.00115391 -0.00103379 0.000267376)
(-0.0011835 -0.00106191 0.000244969)
(-0.00121344 -0.00109011 0.000220122)
(-0.00124315 -0.00111775 0.000192191)
(-0.00127176 -0.00114393 0.000160064)
(-0.00129793 -0.00116735 0.00012238)
(-0.00131885 -0.00118618 7.7229e-05)
(-0.00133057 -0.00119722 2.60978e-05)
(-0.000258819 -0.000331136 -0.000162832)
(-0.000316284 -0.000430633 -4.19471e-05)
(-0.000351952 -0.000520304 -4.06409e-06)
(-0.000399029 -0.00060668 4.64004e-05)
(-0.000456407 -0.000682209 0.000105263)
(-0.000520865 -0.000742021 0.000164714)
(-0.00058881 -0.000783297 0.000220258)
(-0.000655918 -0.000806631 0.000269143)
(-0.000718991 -0.00081521 0.000309589)
(-0.000776835 -0.000814926 0.000341665)
(-0.000829277 -0.000812384 0.000366885)
(-0.00087511 -0.000809951 0.000385711)
(-0.000911445 -0.000807923 0.000396445)
(-0.000941613 -0.000811419 0.000400593)
(-0.000967687 -0.000819706 0.000399398)
(-0.000990902 -0.00083202 0.000393997)
(-0.00101265 -0.000847519 0.000385424)
(-0.00103412 -0.000865507 0.000374563)
(-0.0010562 -0.000885495 0.000362054)
(-0.00107949 -0.000907153 0.000348293)
(-0.0011043 -0.000930303 0.000333469)
(-0.00113072 -0.000954806 0.000317595)
(-0.00115868 -0.000980526 0.000300573)
(-0.00118802 -0.0010073 0.000282218)
(-0.00121847 -0.00103488 0.000262272)
(-0.00124967 -0.00106295 0.000240391)
(-0.0012812 -0.00109108 0.000216104)
(-0.00131245 -0.00111862 0.000188776)
(-0.00134248 -0.00114466 0.000157289)
(-0.00136993 -0.00116794 0.000120302)
(-0.00139185 -0.00118665 7.59409e-05)
(-0.00140412 -0.0011976 2.56644e-05)
(-0.000276487 -0.00031501 -0.000146414)
(-0.000336712 -0.000411587 -4.49415e-05)
(-0.000374665 -0.000499322 -1.04103e-05)
(-0.000423371 -0.000584868 3.6589e-05)
(-0.000482073 -0.000660946 9.26997e-05)
(-0.000547866 -0.000722302 0.00015026)
(-0.000617226 -0.000765858 0.00020468)
(-0.000686173 -0.000792226 0.000253181)
(-0.000752004 -0.000804775 0.000294177)
(-0.000813496 -0.00080894 0.000327738)
(-0.000869672 -0.000809633 0.000354654)
(-0.000918586 -0.000808465 0.000374693)
(-0.000958172 -0.00080601 0.000386528)
(-0.000989905 -0.000808239 0.000391191)
(-0.00101749 -0.000815698 0.000390279)
(-0.00104216 -0.000827517 0.000385128)
(-0.00106535 -0.000842745 0.000376776)
(-0.00108826 -0.000860596 0.000366134)
(-0.0011118 -0.000880504 0.000353869)
(-0.00113658 -0.000902111 0.000340404)
(-0.00116292 -0.000925196 0.000325921)
(-0.00119092 -0.000949609 0.000310449)
(-0.00122049 -0.000975204 0.000293881)
(-0.00125145 -0.00100181 0.000276028)
(-0.00128352 -0.00102919 0.000256627)
(-0.00131633 -0.00105702 0.000235328)
(-0.00134942 -0.00108487 0.000211661)
(-0.00138217 -0.00111211 0.000184996)
(-0.0014136 -0.00113783 0.000154214)
(-0.00144229 -0.00116083 0.000117997)
(-0.00146519 -0.00117928 7.45144e-05)
(-0.00147798 -0.00119004 2.5186e-05)
(-0.000292163 -0.000295078 -0.000125796)
(-0.000354735 -0.000388221 -4.80097e-05)
(-0.000394537 -0.000473312 -1.70014e-05)
(-0.000444309 -0.000557403 2.63502e-05)
(-0.000503922 -0.000633563 7.94363e-05)
(-0.000570855 -0.000696305 0.000134852)
(-0.000641733 -0.000742358 0.000188006)
(-0.000712861 -0.000772284 0.000236156)
(-0.00078173 -0.000789275 0.000277842)
(-0.000846832 -0.000797858 0.000312908)
(-0.00090656 -0.00080157 0.000341386)
(-0.000958745 -0.000801898 0.000362534)
(-0.00100202 -0.000800176 0.000375661)
(-0.00103584 -0.00080071 0.000380875)
(-0.00106504 -0.000807242 0.000380347)
(-0.00109131 -0.000818424 0.0003755)
(-0.00111603 -0.000833246 0.000367427)
(-0.00114043 -0.000850834 0.000357069)
(-0.00116549 -0.000870561 0.000345118)
(-0.00119179 -0.000891997 0.000331998)
(-0.00121967 -0.000914899 0.000317915)
(-0.00124923 -0.000939092 0.000302892)
(-0.00128037 -0.000964422 0.000286825)
(-0.00131289 -0.000990713 0.000269518)
(-0.00134651 -0.00101773 0.000250703)
(-0.00138084 -0.00104515 0.000230024)
(-0.00141541 -0.00107256 0.00020701)
(-0.00144958 -0.00109935 0.000181043)
(-0.00148229 -0.00112461 0.000150998)
(-0.00151215 -0.00114717 0.000115585)
(-0.00153594 -0.00116526 7.3026e-05)
(-0.0015492 -0.00117578 2.46891e-05)
(-0.000304893 -0.0002717 -0.000102994)
(-0.00036941 -0.000360879 -5.08146e-05)
(-0.000410574 -0.000442688 -2.35091e-05)
(-0.000460854 -0.000524731 1.6006e-05)
(-0.000520986 -0.00060051 6.5775e-05)
(-0.000588935 -0.000664504 0.000118731)
(-0.000661482 -0.000713259 0.000170415)
(-0.000735088 -0.000747054 0.000218151)
(-0.00080714 -0.000768543 0.000260479)
(-0.000875708 -0.00078124 0.000296893)
(-0.000938833 -0.000787752 0.000326807)
(-0.0009944 -0.000789664 0.000349128)
(-0.00104108 -0.000788922 0.000363331)
(-0.00107843 -0.00078866 0.000369538)
(-0.00110948 -0.000793905 0.000369564)
(-0.00113747 -0.000804198 0.000365117)
(-0.00116381 -0.000818455 0.000357422)
(-0.0011898 -0.000835632 0.000347425)
(-0.00121637 -0.000855015 0.000335847)
(-0.00124419 -0.000876134 0.000323141)
(-0.00127359 -0.000898702 0.000309513)
(-0.00130466 -0.000922524 0.000294993)
(-0.0013373 -0.000947432 0.000279476)
(-0.00137132 -0.000973246 0.000262759)
(-0.00140639 -0.000999737 0.000244568)
(-0.00144213 -0.00102659 0.000224545)
(-0.00147807 -0.00105339 0.000202213)
(-0.00151351 -0.00107955 0.000176971)
(-0.0015474 -0.00110419 0.000147688)
(-0.00157832 -0.00112617 0.000113103)
(-0.00160293 -0.00114378 7.14995e-05)
(-0.00161656 -0.00115399 2.41817e-05)
(-0.000314546 -0.00024616 -7.96373e-05)
(-0.000380503 -0.000330841 -5.32158e-05)
(-0.000422479 -0.000408818 -2.97282e-05)
(-0.000472678 -0.000488247 5.78268e-06)
(-0.000532887 -0.000563173 5.19318e-05)
(-0.000601645 -0.000628192 0.000102085)
(-0.000675875 -0.000679634 0.000152028)
(-0.000752046 -0.000717288 0.000199182)
(-0.000827327 -0.000743056 0.000242003)
(-0.000899373 -0.000759514 0.000279575)
(-0.000965969 -0.000768663 0.000310811)
(-0.00102506 -0.000772195 0.000334353)
(-0.00107532 -0.000772461 0.000349593)
(-0.00111672 -0.00077243 0.000357015)
(-0.00115039 -0.000775922 0.000357818)
(-0.00118027 -0.000785238 0.000353953)
(-0.00120837 -0.000798626 0.000346719)
(-0.001236 -0.000815176 0.000337179)
(-0.00126416 -0.000834065 0.00032607)
(-0.00129352 -0.00085472 0.000313848)
(-0.00132441 -0.000876798 0.000300742)
(-0.00135693 -0.000900086 0.000286782)
(-0.001391 -0.000924411 0.000271865)
(-0.0014264 -0.00094958 0.000255782)
(-0.0014628 -0.000975368 0.000238254)
(-0.00149982 -0.00100147 0.000218915)
(-0.00153696 -0.00102749 0.000197291)
(-0.00157355 -0.00105286 0.0001728)
(-0.00160846 -0.00107671 0.000144296)
(-0.00164032 -0.00109798 0.00011056)
(-0.00166562 -0.001115 6.99423e-05)
(-0.00167955 -0.00112484 2.36674e-05)
(-0.000320074 -0.000218855 -5.66637e-05)
(-0.00038695 -0.00029857 -5.50549e-05)
(-0.000429158 -0.000372173 -3.54665e-05)
(-0.000478642 -0.000448406 -4.15768e-06)
(-0.000538411 -0.000521964 3.8016e-05)
(-0.000607693 -0.000587717 8.49507e-05)
(-0.000683577 -0.000641779 0.00013281)
(-0.000762418 -0.000683247 0.000179135)
(-0.000841022 -0.000713094 0.000222227)
(-0.000916616 -0.000733002 0.000260734)
(-0.000986788 -0.000744618 0.000293149)
(-0.00104956 -0.000749806 0.000317938)
(-0.00110367 -0.000751157 0.000334369)
(-0.00114908 -0.000751765 0.000342973)
(-0.00118696 -0.000754649 0.000345042)
(-0.00121898 -0.000761955 0.000341883)
(-0.00124903 -0.000774384 0.000335287)
(-0.00127847 -0.000790128 0.000326325)
(-0.00130825 -0.00080829 0.000315769)
(-0.00133914 -0.000828286 0.000304113)
(-0.00137149 -0.00084972 0.000291602)
(-0.00140542 -0.000872327 0.000278268)
(-0.00144083 -0.000895919 0.000264006)
(-0.0014775 -0.000920305 0.000248606)
(-0.0015151 -0.00094525 0.000231781)
(-0.00155325 -0.000970469 0.00021316)
(-0.00159145 -0.000995578 0.000192269)
(-0.00162901 -0.00102001 0.000168549)
(-0.00166478 -0.00104295 0.00014084)
(-0.00169745 -0.00106338 0.000107968)
(-0.00172334 -0.00107972 6.83631e-05)
(-0.00173747 -0.00108912 2.31497e-05)
(-0.000321382 -0.00019074 -3.49796e-05)
(-0.00038855 -0.000265066 -5.63127e-05)
(-0.000430395 -0.000333854 -4.06141e-05)
(-0.000478511 -0.000406355 -1.36362e-05)
(-0.000537228 -0.000477984 2.42435e-05)
(-0.000606602 -0.000544021 6.75344e-05)
(-0.000683875 -0.000600367 0.000112882)
(-0.000765204 -0.000645308 0.000157998)
(-0.000847046 -0.000678873 0.000201015)
(-0.000926311 -0.000702017 0.000240197)
(-0.00100036 -0.000716084 0.000273678)
(-0.00106711 -0.000723019 0.000299748)
(-0.00112533 -0.000725546 0.000317548)
(-0.00117485 -0.000726796 0.000327453)
(-0.00121674 -0.00072965 0.000330762)
(-0.0012527 -0.000735809 0.000328832)
(-0.00128489 -0.000746385 0.00032303)
(-0.00131626 -0.0007608 0.000314767)
(-0.00134779 -0.000778104 0.000304915)
(-0.00138027 -0.0007973 0.000293934)
(-0.00141407 -0.000817927 0.0002821)
(-0.00144933 -0.000839708 0.000269462)
(-0.00148597 -0.00086242 0.000255917)
(-0.00152375 -0.000885863 0.000241246)
(-0.00156237 -0.000909818 0.000225162)
(-0.00160143 -0.000933986 0.000207284)
(-0.00164047 -0.000958026 0.000187147)
(-0.00167882 -0.000981466 0.000164225)
(-0.00171523 -0.0010034 0.000137321)
(-0.00174856 -0.00102291 0.000105329)
(-0.00177489 -0.00103849 6.67651e-05)
(-0.00178908 -0.00104752 2.2631e-05)
(-0.000317424 -0.000162018 -1.51157e-05)
(-0.0003843 -0.000230647 -5.68423e-05)
(-0.000425157 -0.000294165 -4.49979e-05)
(-0.000471166 -0.000362343 -2.2455e-05)
(-0.000528071 -0.000431349 1.08041e-05)
(-0.000596922 -0.000497059 4.99633e-05)
(-0.000675243 -0.000555279 9.22805e-05)
(-0.000759005 -0.000603454 0.000135719)
(-0.000844209 -0.000640592 0.000178263)
(-0.000927301 -0.000666834 0.000217814)
(-0.00100541 -0.000683267 0.000252181)
(-0.00107639 -0.000691953 0.000279497)
(-0.00113897 -0.000695725 0.000298782)
(-0.0011929 -0.000697716 0.00031024)
(-0.00123895 -0.000700639 0.000314951)
(-0.00127877 -0.000706279 0.000314326)
(-0.00131451 -0.000715586 0.00030973)
(-0.00134863 -0.00072872 0.000302546)
(-0.00138193 -0.000744632 0.000293528)
(-0.00141597 -0.000762694 0.000283319)
(-0.00145118 -0.000782331 0.000272261)
(-0.00148769 -0.000803157 0.000260402)
(-0.00152542 -0.000824914 0.000247641)
(-0.00156417 -0.000847386 0.000233761)
(-0.00160361 -0.000870332 0.000218462)
(-0.00164341 -0.000893481 0.000201364)
(-0.0016831 -0.000916473 0.000182005)
(-0.00172186 -0.000938775 0.000159876)
(-0.00175862 -0.00095961 0.000133775)
(-0.00179239 -0.000978104 0.000102663)
(-0.00181897 -0.000992871 6.51635e-05)
(-0.00183295 -0.00100141 2.21157e-05)
(-0.000308522 -0.000133837 2.31826e-06)
(-0.000374168 -0.000196076 -5.68604e-05)
(-0.000413464 -0.000254303 -4.85425e-05)
(-0.000456742 -0.000317622 -3.04145e-05)
(-0.000511042 -0.00038332 -1.99946e-06)
(-0.000578634 -0.000447992 3.25808e-05)
(-0.00065744 -0.00050746 7.12927e-05)
(-0.000743195 -0.000558329 0.000112445)
(-0.000831479 -0.000598613 0.000153963)
(-0.000918489 -0.000627828 0.000193487)
(-0.00100105 -0.000646733 0.000228565)
(-0.00107671 -0.000657277 0.000257115)
(-0.00114404 -0.000662352 0.00027799)
(-0.00120258 -0.000665044 0.000291161)
(-0.00125299 -0.000668065 0.00029752)
(-0.00129672 -0.000673222 0.000298375)
(-0.00133594 -0.000681638 0.000295151)
(-0.00137284 -0.000693591 0.00028919)
(-0.00140855 -0.000708194 0.000281265)
(-0.00144449 -0.000725069 0.000272059)
(-0.00148112 -0.000743557 0.000261922)
(-0.00151874 -0.000763253 0.000250938)
(-0.0015573 -0.000783879 0.000239027)
(-0.00159662 -0.000805175 0.000225974)
(-0.00163645 -0.000826924 0.000211484)
(-0.00167645 -0.000848842 0.000195174)
(-0.00171625 -0.00087058 0.000176593)
(-0.00175516 -0.000891618 0.000155292)
(-0.00179193 -0.000911174 0.000130022)
(-0.00182592 -0.000928573 9.9836e-05)
(-0.00185253 -0.000942427 6.34709e-05)
(-0.00186615 -0.000950385 2.15744e-05)
(-0.000291959 -0.000105785 1.69165e-05)
(-0.000358234 -0.000162232 -5.60582e-05)
(-0.000394553 -0.000214637 -5.12072e-05)
(-0.000434185 -0.000272469 -3.72735e-05)
(-0.000484833 -0.000333997 -1.38429e-05)
(-0.000550091 -0.000396629 1.56955e-05)
(-0.000628585 -0.000456544 5.01069e-05)
(-0.000716054 -0.000509728 8.82542e-05)
(-0.000807632 -0.00055317 0.000128149)
(-0.000898793 -0.000585413 0.000167191)
(-0.000985959 -0.000606788 0.000202681)
(-0.00106658 -0.00061922 0.00023236)
(-0.00113895 -0.00062557 0.000254854)
(-0.00120253 -0.000629 0.000269922)
(-0.00125764 -0.000632133 0.00027818)
(-0.00130567 -0.000636901 0.000280811)
(-0.00134857 -0.000644482 0.000279189)
(-0.00138848 -0.000655313 0.000274643)
(-0.00142653 -0.000668615 0.000267974)
(-0.00146423 -0.000684171 0.000259913)
(-0.00150225 -0.000701372 0.000250834)
(-0.00154086 -0.00071978 0.000240841)
(-0.00158007 -0.000739081 0.000229872)
(-0.00161981 -0.000759042 0.000217727)
(-0.00165978 -0.000779413 0.000204106)
(-0.00169976 -0.000799934 0.000188633)
(-0.00173946 -0.000820275 0.000170873)
(-0.00177815 -0.00083987 0.000150437)
(-0.00181474 -0.00085811 0.000126048)
(-0.0018487 -0.000874318 9.68347e-05)
(-0.00187516 -0.000887209 6.16818e-05)
(-0.00188826 -0.000894531 2.1006e-05)
(-0.000268743 -7.8899e-05 2.86402e-05)
(-0.00033612 -0.00013013 -5.4424e-05)
(-0.000369201 -0.000176366 -5.29006e-05)
(-0.000404299 -0.000228363 -4.28383e-05)
(-0.000450315 -0.000284968 -2.43192e-05)
(-0.000512199 -0.000344605 -1.48375e-07)
(-0.000589484 -0.000404081 2.93041e-05)
(-0.000677874 -0.000458833 6.3609e-05)
(-0.000771984 -0.000504831 0.000101047)
(-0.00086713 -0.000539968 0.000138991)
(-0.000959332 -0.000564052 0.000174562)
(-0.00104539 -0.000578572 0.000205243)
(-0.00112338 -0.000586332 0.000229413)
(-0.00119229 -0.000590401 0.000246491)
(-0.00125245 -0.000593568 0.000256866)
(-0.00130492 -0.000597819 0.000261504)
(-0.00135169 -0.000604506 0.000261735)
(-0.00139462 -0.000614072 0.000258805)
(-0.00143519 -0.000626038 0.000253608)
(-0.00147483 -0.000640225 0.000246883)
(-0.00151418 -0.000656001 0.000239004)
(-0.00155367 -0.000672975 0.000230125)
(-0.00159339 -0.000690824 0.000220203)
(-0.00163324 -0.000709287 0.000209041)
(-0.00167305 -0.000728142 0.00019635)
(-0.00171264 -0.000747114 0.000181754)
(-0.00175182 -0.000765898 0.000164845)
(-0.00179009 -0.000784009 0.000145332)
(-0.00182603 -0.000800776 0.000121848)
(-0.00185973 -0.000815744 9.36556e-05)
(-0.00188577 -0.000827599 5.97961e-05)
(-0.00189816 -0.000834239 2.0412e-05)
(-0.000238721 -5.4097e-05 3.72959e-05)
(-0.000306425 -9.97996e-05 -5.17918e-05)
(-0.000336399 -0.000139867 -5.33578e-05)
(-0.000366246 -0.000185616 -4.67594e-05)
(-0.000406321 -0.000236314 -3.29555e-05)
(-0.000463143 -0.000291546 -1.43671e-05)
(-0.000537615 -0.000349195 9.40435e-06)
(-0.000626151 -0.000404818 3.88892e-05)
(-0.00072314 -0.000453567 7.29833e-05)
(-0.00082261 -0.000491886 0.000109116)
(-0.000919865 -0.000518781 0.000144242)
(-0.00101163 -0.000535554 0.000175656)
(-0.00109543 -0.000544745 0.000201408)
(-0.00117022 -0.000549538 0.000220626)
(-0.00123581 -0.000552688 0.000233329)
(-0.0012933 -0.000556431 0.000240289)
(-0.00134428 -0.00056215 0.00024266)
(-0.00139069 -0.000570457 0.000241658)
(-0.00143383 -0.000580947 0.000238151)
(-0.00147527 -0.000593556 0.000232922)
(-0.0015159 -0.000607782 0.000226407)
(-0.00155613 -0.000623186 0.000218778)
(-0.00159612 -0.000639452 0.000210008)
(-0.00163588 -0.000656335 0.000199926)
(-0.00167522 -0.000673577 0.000188232)
(-0.00171415 -0.000690941 0.000174564)
(-0.00175258 -0.000708135 0.000158552)
(-0.00178994 -0.000724631 0.000139991)
(-0.00182505 -0.000739964 0.000117455)
(-0.00185822 -0.000753627 9.03188e-05)
(-0.00188365 -0.000764442 5.7832e-05)
(-0.00189514 -0.000770398 1.98006e-05)
(-0.000203329 -3.25287e-05 4.27528e-05)
(-0.000269932 -7.21515e-05 -4.82189e-05)
(-0.00029733 -0.000106382 -5.26239e-05)
(-0.000321956 -0.000145875 -4.89715e-05)
(-0.000355402 -0.000190126 -3.93871e-05)
(-0.000405979 -0.000239937 -2.62429e-05)
(-0.000476475 -0.000294675 -8.62958e-06)
(-0.000563739 -0.000350048 1.50735e-05)
(-0.000661628 -0.000400331 4.46691e-05)
(-0.000764543 -0.000441475 7.80146e-05)
(-0.000867184 -0.000471573 0.000112068)
(-0.000965005 -0.000490933 0.000143838)
(-0.00105531 -0.000501926 0.000171083)
(-0.00113628 -0.000507469 0.000192467)
(-0.00120778 -0.000510606 0.000207688)
(-0.00127035 -0.000513625 0.000217178)
(-0.00132575 -0.000518212 0.000221958)
(-0.00137556 -0.000525001 0.000223108)
(-0.0014215 -0.000533925 0.000221561)
(-0.00146503 -0.000544939 0.000218085)
(-0.00150691 -0.000557491 0.000213115)
(-0.00154776 -0.000571228 0.000206881)
(-0.00158783 -0.000585835 0.000199383)
(-0.00162713 -0.000601029 0.000190458)
(-0.00166562 -0.000616586 0.000179815)
(-0.00170341 -0.00063226 0.000167101)
(-0.00174057 -0.000647765 0.000151997)
(-0.00177683 -0.000662691 0.000134444)
(-0.00181051 -0.000676475 0.000112861)
(-0.00184289 -0.000688822 8.68173e-05)
(-0.00186738 -0.000698554 5.57856e-05)
(-0.00187773 -0.000703831 1.91711e-05)
(-0.000162716 -1.49339e-05 4.4775e-05)
(-0.000226144 -4.77959e-05 -4.33999e-05)
(-0.000251248 -7.62569e-05 -5.03544e-05)
(-0.000270668 -0.000109335 -4.91152e-05)
(-0.000296501 -0.000146373 -4.30315e-05)
(-0.000338653 -0.000189144 -3.49204e-05)
(-0.00040188 -0.000238455 -2.37576e-05)
(-0.00048597 -0.000292089 -6.81398e-06)
(-0.000585639 -0.00034437 1.70398e-05)
(-0.000692479 -0.000388855 4.64376e-05)
(-0.000800119 -0.000422315 7.84809e-05)
(-0.00090423 -0.000444719 0.000110029)
(-0.00100098 -0.000457709 0.000138406)
(-0.00108866 -0.000464336 0.000161915)
(-0.0011663 -0.000467521 0.000179749)
(-0.0012347 -0.000469958 0.000192058)
(-0.00129492 -0.000473359 0.000199542)
(-0.0013488 -0.000478675 0.000203202)
(-0.00139761 -0.000485887 0.000203868)
(-0.00144294 -0.000495058 0.000202326)
(-0.001486 -0.000505831 0.00019909)
(-0.00152731 -0.00051781 0.000194403)
(-0.00156715 -0.00053068 0.00018829)
(-0.00160576 -0.000544177 0.000180624)
(-0.00164305 -0.000558063 0.000171097)
(-0.0016794 -0.000572072 0.000159376)
(-0.00171507 -0.000585961 0.000145218)
(-0.00174963 -0.000599251 0.00012869)
(-0.00178175 -0.000611615 0.000108093)
(-0.00181306 -0.000622641 8.31677e-05)
(-0.00183645 -0.000631346 5.36764e-05)
(-0.00184545 -0.00063599 1.85328e-05)
(-0.000118862 -1.31037e-06 4.37871e-05)
(-0.000176774 -2.70321e-05 -3.75442e-05)
(-0.000200275 -4.99437e-05 -4.67513e-05)
(-0.000215725 -7.69545e-05 -4.75153e-05)
(-0.000234102 -0.000106698 -4.41748e-05)
(-0.000265674 -0.00014148 -3.97075e-05)
(-0.00032312 -0.00018553 -3.433e-05)
(-0.000402599 -0.000235896 -2.51809e-05)
(-0.000498599 -0.000287213 -8.46629e-06)
(-0.0006068 -0.000334081 1.56281e-05)
(-0.000719521 -0.000371488 4.45176e-05)
(-0.000829696 -0.000397397 7.49826e-05)
(-0.00093359 -0.000413158 0.000104055)
(-0.00102806 -0.00042118 0.000129441)
(-0.00111243 -0.000424749 0.000149923)
(-0.00118646 -0.000426511 0.000165125)
(-0.00125165 -0.000428675 0.00017553)
(-0.00130924 -0.00043225 0.000181885)
(-0.0013611 -0.000437671 0.000185037)
(-0.00140871 -0.000445059 0.000185728)
(-0.00145289 -0.000453988 0.000184422)
(-0.00149451 -0.000464168 0.000181442)
(-0.00153394 -0.0004753 0.000176841)
(-0.0015714 -0.000487079 0.000170507)
(-0.00160699 -0.00049929 0.000162139)
(-0.00164134 -0.000511644 0.000151417)
(-0.00167488 -0.000523882 0.000138196)
(-0.00170756 -0.000535663 0.000122745)
(-0.00173736 -0.000546564 0.000103123)
(-0.00176733 -0.000556294 7.93448e-05)
(-0.00178921 -0.00056397 5.14862e-05)
(-0.00179653 -0.000568027 1.78791e-05)
(-7.43724e-05 6.64623e-06 3.96793e-05)
(-0.000124405 -1.13931e-05 -2.94885e-05)
(-0.000146293 -2.83524e-05 -4.02802e-05)
(-0.000158515 -4.93686e-05 -4.1915e-05)
(-0.000172908 -7.12556e-05 -3.7588e-05)
(-0.000205163 -9.72947e-05 -3.93688e-05)
(-0.00023731 -0.000130113 -4.3963e-05)
(-0.000302484 -0.000175698 -3.93302e-05)
(-0.000398726 -0.000227839 -2.97653e-05)
(-0.000508493 -0.00027709 -1.27914e-05)
(-0.000624513 -0.000318271 1.14468e-05)
(-0.00074091 -0.000348539 3.96833e-05)
(-0.000851163 -0.000367485 6.85517e-05)
(-0.000952786 -0.000377682 9.5362e-05)
(-0.00104357 -0.000381955 0.00011823)
(-0.00112403 -0.000383566 0.000136416)
(-0.00119453 -0.000384676 0.000149908)
(-0.00125676 -0.000386806 0.000159286)
(-0.00131176 -0.000390422 0.000165167)
(-0.00136107 -0.00039581 0.000168242)
(-0.00140623 -0.000402856 0.000169056)
(-0.00144792 -0.000411219 0.000167934)
(-0.00148655 -0.000420604 0.000164955)
(-0.0015226 -0.000430741 0.00016006)
(-0.00155611 -0.000441385 0.000152906)
(-0.00158814 -0.000452211 0.000143203)
(-0.00161938 -0.000462969 0.000130948)
(-0.00164952 -0.000473256 0.00011659)
(-0.00167694 -0.000482894 9.79706e-05)
(-0.0017053 -0.000491395 7.53597e-05)
(-0.00172557 -0.000498163 4.92351e-05)
(-0.00173105 -0.00050174 1.7221e-05)
(-3.51244e-05 1.08353e-05 3.40962e-05)
(-7.23418e-05 -7.2884e-07 -2.23197e-05)
(-9.46176e-05 -1.34257e-05 -3.20325e-05)
(-0.000108254 -2.90622e-05 -3.97854e-05)
(-0.000109547 -4.49104e-05 -5.32823e-05)
(-0.000104413 -7.80974e-05 -3.82559e-05)
(-0.000154277 -9.58911e-05 -2.05962e-05)
(-0.000215856 -0.000121936 -3.87263e-05)
(-0.000292423 -0.000166059 -4.41821e-05)
(-0.000399351 -0.000217451 -3.5653e-05)
(-0.000518476 -0.000262938 -1.83847e-05)
(-0.000639018 -0.000297849 5.89441e-06)
(-0.000756401 -0.00032144 3.34075e-05)
(-0.000864656 -0.00033452 6.07623e-05)
(-0.000962617 -0.000340471 8.56158e-05)
(-0.00104878 -0.000342147 0.000106492)
(-0.00112447 -0.00034246 0.000123051)
(-0.00119038 -0.00034301 0.000135459)
(-0.00124846 -0.00034489 0.000144258)
(-0.00130015 -0.000348549 0.00015001)
(-0.00134621 -0.000353764 0.000153121)
(-0.00138777 -0.000360364 0.000154006)
(-0.00142537 -0.0003681 0.00015277)
(-0.00145948 -0.000376652 0.000149379)
(-0.00149029 -0.000385819 0.00014346)
(-0.00151933 -0.000395187 0.000134748)
(-0.00154754 -0.000404494 0.000123431)
(-0.00157497 -0.000413475 0.000110221)
(-0.00159911 -0.000421856 9.25777e-05)
(-0.00162558 -0.000429194 7.11619e-05)
(-0.0016437 -0.000435072 4.6882e-05)
(-0.00164688 -0.000438207 1.65419e-05)
(-1.31962e-05 9.86033e-06 2.31303e-05)
(-2.44697e-05 2.33671e-06 -1.72456e-05)
(-2.75367e-05 -5.28424e-06 -2.80089e-05)
(-3.00988e-05 -2.05864e-05 -2.5258e-05)
(-4.44773e-05 -2.84373e-05 -2.44663e-05)
(-4.03657e-05 -3.51532e-05 -2.14723e-05)
(-5.78961e-05 -4.20469e-05 -1.37916e-05)
(-0.000112155 -6.63056e-05 -2.58355e-05)
(-0.000200574 -0.000108531 -4.51782e-05)
(-0.000285767 -0.000154457 -5.20728e-05)
(-0.000400883 -0.000204434 -4.21675e-05)
(-0.000526731 -0.000245253 -2.40983e-05)
(-0.000647917 -0.000273436 9.4806e-08)
(-0.000762629 -0.000290709 2.6755e-05)
(-0.000866096 -0.000298882 5.25968e-05)
(-0.000958736 -0.000301792 7.57301e-05)
(-0.00103975 -0.000301965 9.5147e-05)
(-0.00111065 -0.000301721 0.000110721)
(-0.00117188 -0.000302146 0.000122561)
(-0.0012248 -0.000303979 0.000131023)
(-0.00127142 -0.000307466 0.000136554)
(-0.00131254 -0.000312407 0.000139563)
(-0.00134859 -0.000318578 0.000140153)
(-0.00138046 -0.000325718 0.000138359)
(-0.0014082 -0.000333617 0.000133715)
(-0.001434 -0.000341737 0.000125989)
(-0.0014591 -0.000349824 0.00011563)
(-0.00148316 -0.000357575 0.00010359)
(-0.00150408 -0.000364958 8.69533e-05)
(-0.00152847 -0.000371249 6.67562e-05)
(-0.00154452 -0.000376437 4.44523e-05)
(-0.00154539 -0.000379289 1.58554e-05)
(1.14553e-05 8.75232e-06 1.84752e-05)
(-8.51753e-07 2.33521e-06 -1.31469e-05)
(-6.52408e-06 -5.13867e-06 -1.52358e-05)
(-7.71275e-06 -6.10693e-06 -1.39146e-05)
(-1.70418e-05 -8.05373e-06 -1.33337e-05)
(-2.65466e-05 -7.46832e-06 -2.10623e-05)
(-2.62945e-05 -1.63271e-05 -2.35058e-05)
(-5.05575e-05 -3.98012e-05 -3.49049e-05)
(-5.81928e-05 -4.69217e-05 -2.23285e-05)
(-0.000176851 -9.80979e-05 -3.88942e-05)
(-0.000282112 -0.000141623 -5.65674e-05)
(-0.000401413 -0.000188451 -4.75135e-05)
(-0.000530039 -0.000224108 -2.82876e-05)
(-0.000649831 -0.000246261 -4.598e-06)
(-0.000760279 -0.000258624 2.08952e-05)
(-0.00085755 -0.000263305 4.52583e-05)
(-0.00094327 -0.000264045 6.69965e-05)
(-0.00101705 -0.000263102 8.53529e-05)
(-0.00108087 -0.000262437 0.000100186)
(-0.00113602 -0.000263084 0.000111546)
(-0.00118306 -0.000265116 0.000119578)
(-0.00122342 -0.000268599 0.000124791)
(-0.0012577 -0.000273424 0.000127289)
(-0.00128672 -0.000279299 0.000127134)
(-0.00131059 -0.000286076 0.000123739)
(-0.0013324 -0.000293045 0.000116915)
(-0.00135363 -0.000299969 0.000107472)
(-0.00137417 -0.000306706 9.66656e-05)
(-0.00139083 -0.000313047 8.09976e-05)
(-0.0014129 -0.00031843 6.20589e-05)
(-0.0014261 -0.000322904 4.18648e-05)
(-0.00142402 -0.000325421 1.51259e-05)
(2.17594e-05 6.70743e-06 2.20374e-05)
(2.71523e-05 3.31143e-06 2.50835e-06)
(1.75359e-05 7.52907e-06 4.86678e-06)
(4.9502e-06 1.30241e-05 -1.29485e-05)
(3.46394e-06 -7.08742e-07 -1.95287e-05)
(-7.15668e-06 -4.11654e-06 -1.59729e-05)
(-1.07616e-05 -7.31166e-06 -2.324e-05)
(-1.61259e-05 -1.79332e-05 -2.47692e-05)
(-2.7483e-05 -3.05885e-05 -2.31033e-05)
(-4.53084e-05 -3.58252e-05 -1.80052e-05)
(-0.000164983 -8.51501e-05 -4.39995e-05)
(-0.000286466 -0.000130026 -5.86451e-05)
(-0.00040378 -0.000170777 -5.05929e-05)
(-0.000527134 -0.00020027 -3.14164e-05)
(-0.000639526 -0.00021639 -8.17073e-06)
(-0.000742555 -0.000225005 1.60815e-05)
(-0.000832718 -0.000227546 3.91789e-05)
(-0.000911415 -0.000227448 6.00086e-05)
(-0.000977879 -0.00022643 7.76681e-05)
(-0.00103305 -0.000225987 9.16815e-05)
(-0.0010798 -0.000226881 0.000102145)
(-0.00111896 -0.000229186 0.000109565)
(-0.00115081 -0.000232849 0.000113972)
(-0.00117668 -0.000237709 0.000115513)
(-0.00119642 -0.000243658 0.000113372)
(-0.00121421 -0.000249719 0.000107403)
(-0.00123166 -0.000255699 9.88956e-05)
(-0.00124814 -0.000261525 8.9365e-05)
(-0.001261 -0.000267087 7.4719e-05)
(-0.00128053 -0.000271697 5.707e-05)
(-0.00129147 -0.000275742 3.916e-05)
(-0.00128682 -0.000278097 1.43751e-05)
(3.53738e-05 1.30272e-05 3.77864e-05)
(4.57717e-05 1.06246e-05 -7.75976e-06)
(4.50953e-05 4.52896e-06 -1.29714e-05)
(4.10895e-05 -5.06755e-06 -1.57597e-05)
(4.00706e-05 -1.05315e-05 -1.4619e-05)
(2.82714e-05 -1.45159e-05 -1.0336e-05)
(1.34101e-05 -1.0196e-05 -9.81201e-06)
(1.50082e-06 -6.72359e-06 -1.31648e-05)
(-1.36467e-05 -5.08983e-06 -2.20642e-05)
(-1.68197e-05 -1.75686e-05 -2.31682e-05)
(-3.88769e-05 -2.64457e-05 -1.86335e-05)
(-0.000151881 -7.16568e-05 -4.73015e-05)
(-0.000280188 -0.000115792 -5.86517e-05)
(-0.000397092 -0.000150881 -5.04906e-05)
(-0.000517733 -0.000175748 -3.21395e-05)
(-0.000621396 -0.000187746 -1.02525e-05)
(-0.000714683 -0.000193147 1.29697e-05)
(-0.000794053 -0.000194053 3.53167e-05)
(-0.000861649 -0.000193354 5.53335e-05)
(-0.000918431 -0.000193024 7.19187e-05)
(-0.000964759 -0.000193354 8.46469e-05)
(-0.00100225 -0.000194864 9.41866e-05)
(-0.00103146 -0.000197678 0.000100483)
(-0.00105354 -0.000201736 0.000103704)
(-0.00106815 -0.000206974 0.000102701)
(-0.00108104 -0.000212157 9.74144e-05)
(-0.00109411 -0.000217196 8.97988e-05)
(-0.00110644 -0.000222287 8.16198e-05)
(-0.00111407 -0.00022669 6.79459e-05)
(-0.00113127 -0.000230916 5.16693e-05)
(-0.00113859 -0.000234354 3.61861e-05)
(-0.00113044 -0.000236229 1.35284e-05)
(4.60263e-05 1.51662e-05 4.49751e-05)
(6.30223e-05 1.27903e-05 -8.05045e-06)
(6.96011e-05 8.84878e-06 -1.58633e-05)
(7.17442e-05 1.236e-06 -2.00813e-05)
(7.00237e-05 -7.39103e-06 -2.14839e-05)
(6.36403e-05 -1.55154e-05 -2.06298e-05)
(5.22851e-05 -2.16902e-05 -1.88611e-05)
(3.83354e-05 -2.35855e-05 -1.68302e-05)
(1.99909e-05 -2.12612e-05 -1.20419e-05)
(-5.63359e-06 -6.61442e-06 -2.10383e-05)
(-1.55781e-05 -1.28809e-05 -2.1909e-05)
(-5.07462e-05 -2.95229e-05 -2.5595e-05)
(-0.000158987 -6.48528e-05 -4.3728e-05)
(-0.000280176 -9.79978e-05 -5.69609e-05)
(-0.000377325 -0.000126226 -5.01727e-05)
(-0.000489313 -0.000148942 -3.11802e-05)
(-0.000585291 -0.00015812 -1.03384e-05)
(-0.000669109 -0.00016264 1.24256e-05)
(-0.00073808 -0.000163446 3.41286e-05)
(-0.00079217 -0.000163324 5.25467e-05)
(-0.000836716 -0.000163606 6.70762e-05)
(-0.000871937 -0.000164771 7.84921e-05)
(-0.000897715 -0.000166934 8.65024e-05)
(-0.00091579 -0.000170479 9.13789e-05)
(-0.000925334 -0.000175272 9.14556e-05)
(-0.000933965 -0.000179829 8.67624e-05)
(-0.000942967 -0.00018404 8.00688e-05)
(-0.00095093 -0.0001885 7.33286e-05)
(-0.000955151 -0.000191996 6.07536e-05)
(-0.000968999 -0.000195852 4.58571e-05)
(-0.000974501 -0.000199111 3.30381e-05)
(-0.000964172 -0.0002007 1.26372e-05)
(5.37354e-05 1.45709e-05 4.68849e-05)
(7.54647e-05 1.22686e-05 -7.24106e-06)
(8.57629e-05 8.62987e-06 -1.61076e-05)
(9.15214e-05 1.21451e-06 -2.162e-05)