/*--------------------------------*- C++ -*----------------------------------*\
  =========                 |
  \\      /  F ield         | OpenFOAM: The Open Source CFD Toolbox
   \\    /   O peration     | Website:  https://openfoam.org
    \\  /    A nd           | Version:  6
     \\/     M anipulation  |
\*---------------------------------------------------------------------------*/
FoamFile
{
    version     2.0;
    format      ascii;
    class       volScalarField;
    location    "0.6";
    object      yPlus;
}
// * * * * * * * * * * * * * * * * * * * * * * * * * * * * * * * * * * * * * //

dimensions      [0 0 0 0 0 0 0];

internalField   uniform 0;

boundaryField
{
    inlet
    {
        type            calculated;
        value           uniform 0;
    }
    outlet
    {
        type            calculated;
        value           uniform 0;
    }
    roughCylinder
    {
        type            calculated;
        value           nonuniform List<scalar> 
5120
(
24.7556
27.5479
38.6484
41.799
44.1617
45.2634
45.931
46.2328
46.4967
46.6303
46.7552
46.8498
46.9374
47.0827
47.2643
47.0956
46.8905
46.9065
46.9794
46.6387
46.306
45.9544
45.3359
44.6367
44.3837
43.3639
42.2179
42.4021
41.664
40.9889
40.3556
40.1287
64.8779
35.3156
38.2642
41.8144
44.1338
45.2512
45.9066
46.225
46.5039
46.6578
46.7878
46.8644
46.909
47.0329
47.2218
47.083
46.9416
46.9769
47.1321
46.8137
46.4987
46.1536
45.5751
44.9324
44.7381
43.7946
42.7287
42.911
42.2193
41.5964
41.0242
40.8107
43.1726
30.6164
38.3807
41.8515
44.1179
45.2606
45.9214
46.2726
46.5745
46.7452
46.8612
46.8968
46.8933
47.0101
47.2099
47.1029
47.0397
47.0923
47.3146
47.0319
46.7148
46.3711
45.8681
45.2799
45.1298
44.2638
43.2927
43.4383
42.8017
42.2236
41.7114
41.5078
60.7437
35.0452
38.345
41.8694
44.1243
45.2997
45.982
46.3812
46.7088
46.8865
46.9714
46.9597
46.923
47.0492
47.2534
47.1734
47.1966
47.2673
47.5362
47.2947
46.9613
46.6284
46.2415
45.7016
45.5846
44.7978
43.9318
44.0244
43.4558
42.9173
42.4615
42.2709
56.8783
33.9018
38.3187
41.9163
44.1584
45.371
46.0967
46.5471
46.8919
47.0623
47.11
47.0579
47.0159
47.1606
47.3571
47.2943
47.404
47.493
47.7881
47.5788
47.2234
46.916
46.6688
46.1651
46.0721
45.3628
44.5977
44.6386
44.1386
43.6348
43.2313
43.053
66.2317
36.6834
38.3104
41.9617
44.2087
45.4785
46.2549
46.7546
47.1103
47.2677
47.282
47.2114
47.1877
47.3481
47.5227
47.4689
47.6603
47.7661
48.0702
47.8794
47.5128
47.2502
47.1501
46.6747
46.6012
45.9692
45.2991
45.304
44.8711
44.4024
44.049
43.8849
75.0904
38.8526
38.3188
42.0187
44.2941
45.6221
46.4577
47.0019
47.3603
47.5014
47.4949
47.428
47.4398
47.6063
47.7488
47.7005
47.9617
48.0791
48.3777
48.1897
47.8287
47.62
47.6516
47.1987
47.1414
46.5882
46.0053
45.9903
45.616
45.1832
44.8803
44.728
72.5492
41.4411
38.4872
42.0672
44.396
45.7962
46.6917
47.275
47.6357
47.769
47.7586
47.7181
47.7685
47.925
48.0317
47.9893
48.3041
48.4268
48.7113
48.52
48.1893
48.0394
48.1794
47.7516
47.7089
47.2366
46.7343
46.7144
46.3935
46.0001
45.7504
45.6057
79.9263
44.8682
38.7233
42.1121
44.5219
45.999
46.9574
47.5771
47.942
48.0759
48.0784
48.0748
48.1576
48.2933
48.3656
48.3364
48.6836
48.8054
49.0702
48.8741
48.5924
48.4935
48.7077
48.3108
48.2834
47.8958
47.4689
47.452
47.1792
46.8254
46.6325
46.4907
76.1798
47.3564
39.2993
42.155
44.6571
46.2225
47.2428
47.8987
48.2749
48.4227
48.4507
48.4888
48.5946
48.6994
48.7465
48.7348
49.0931
49.2106
49.4564
49.2652
49.0498
48.9931
49.2537
48.8973
48.8865
48.5848
48.2258
48.2163
47.9922
47.6786
47.546
47.4002
80.0896
49.5403
39.8482
42.1571
44.7868
46.4585
47.5503
48.246
48.6401
48.8108
48.8715
48.946
49.0642
49.1377
49.1667
49.1811
49.5308
49.6422
49.8704
49.6939
49.5514
49.5254
49.8021
49.4973
49.5061
49.2893
48.9939
48.9917
48.8168
48.5414
48.469
48.3175
72.13
51.5944
40.9236
42.1959
44.9148
46.7035
47.8692
48.6091
49.0297
49.2313
49.3267
49.4338
49.5561
49.603
49.625
49.6666
49.9921
50.1
50.3165
50.1687
50.1005
50.0964
50.3732
50.1289
50.161
50.0262
49.7875
49.7932
49.6716
49.4328
49.4182
49.2601
72.4785
52.4457
41.8947
42.1931
44.9858
46.9308
48.1947
48.9907
49.4453
49.6817
49.8123
49.9422
50.0627
50.0911
50.1161
50.1854
50.4775
50.584
50.7929
50.6844
50.6869
50.7023
50.9617
50.784
50.8405
50.7774
50.5949
50.6069
50.5373
50.3356
50.3719
50.2121
80.7889
54.5351
42.9633
42.2413
45.0467
47.147
48.5155
49.3765
49.8737
50.1477
50.3102
50.4599
50.5785
50.6002
50.6355
50.731
50.9882
51.0979
51.3035
51.2405
51.3023
51.3343
51.5747
51.4664
51.5505
51.5536
51.4224
51.4433
51.4273
51.2624
51.3419
51.185
72.0527
55.5675
44.2
42.263
44.9857
47.2926
48.8126
49.7623
50.3135
50.628
50.8218
50.9855
51.1034
51.1267
51.177
51.2955
51.5197
51.6353
51.8417
51.8297
51.943
51.9953
52.2119
52.1705
52.279
52.3321
52.2556
52.2862
52.3179
52.1936
52.3059
52.1614
75.7566
56.4706
45.3417
42.387
44.9061
47.3935
49.0747
50.1292
50.7464
51.1055
51.3297
51.5084
51.6287
51.6661
51.7368
51.8747
52.0727
52.1965
52.4033
52.4375
52.5881
52.6637
52.8639
52.8882
53.0242
53.1247
53.1009
53.1463
53.2222
53.1409
53.2767
53.1515
69.2157
56.8849
46.5124
42.5091
44.6448
47.3593
49.2647
50.4656
51.1702
51.5809
51.8358
52.0295
52.1623
52.2182
52.307
52.4596
52.6394
52.7747
52.9871
53.0687
53.248
53.3468
53.5331
53.6118
53.7687
53.9038
53.9343
53.9993
54.1142
54.0778
54.2292
54.1317
73.6919
57.4753
47.4717
42.744
44.3626
47.2221
49.3679
50.746
51.5605
52.0344
52.3272
52.5421
52.6851
52.7644
52.8779
53.0441
53.213
53.3574
53.5701
53.6889
53.8895
54.0193
54.2025
54.3347
54.5159
54.6813
54.7679
54.8575
55.0008
55.0159
55.1755
55.1136
65.7149
57.602
48.7149
43.0938
43.8999
46.8741
49.3354
50.9497
51.9145
52.4693
52.8006
53.0341
53.2038
53.3193
53.4527
53.6268
53.7929
53.9507
54.1692
54.3204
54.5293
54.68
54.863
55.0324
55.2334
55.4314
55.5667
55.6892
55.8644
55.9256
56.0919
56.066
76.9265
58.6857
49.4735
43.4731
43.4314
46.3417
49.1272
51.0387
52.1962
52.8595
53.2462
53.514
53.7041
53.8402
53.9934
54.1804
54.3484
54.5137
54.7319
54.9113
55.1333
55.3119
55.5081
55.7151
55.9376
56.165
56.3479
56.5072
56.7092
56.8162
56.9877
57.0007
73.1495
59.1607
50.6485
44.047
42.8825
45.5431
48.6839
50.9779
52.395
53.2082
53.673
53.9875
54.2037
54.3659
54.538
54.7301
54.903
55.079
55.3003
55.5006
55.7305
55.9342
56.1478
56.3855
56.6295
56.8825
57.1081
57.3074
57.5308
57.6813
57.8571
57.9072
69.3987
58.335
51.0259
44.5244
42.3702
44.4985
47.915
50.6918
52.4599
53.4754
54.0495
54.4273
54.6797
54.8701
55.0582
55.2556
55.4356
55.6218
55.846
56.0607
56.2946
56.5185
56.7537
57.0162
57.2813
57.5588
57.8231
58.0641
58.3072
58.4975
58.6794
58.7663
72.7027
59.636
52.0841
45.201
41.9024
43.1809
46.7627
50.1075
52.3499
53.653
54.3828
54.8421
55.1422
55.3656
55.5708
55.773
55.9593
56.1528
56.3787
56.6033
56.8384
57.077
57.3345
57.6158
57.9014
58.1995
58.4983
58.7831
59.042
59.2684
59.4566
59.5761
69.8959
58.3033
52.0207
45.6429
41.5195
41.6797
45.047
49.0776
51.973
53.6751
54.6225
55.1877
55.5537
55.8129
56.0353
56.2442
56.4368
56.6344
56.8577
57.0852
57.3197
57.5691
57.8502
58.1444
58.4473
58.7618
59.086
59.4129
59.6869
59.9454
60.1428
60.2951
73.9631
59.4322
52.443
46.0201
41.1442
40.0609
42.8153
47.378
51.2056
53.5059
54.77
55.4885
55.933
56.2388
56.4802
56.6918
56.8857
57.0851
57.3043
57.5269
57.7524
58.0034
58.3068
58.6118
58.9345
59.262
59.6131
59.9841
60.2677
60.5533
60.7587
60.9402
74.5764
60.4474
53.1366
46.5278
40.9118
38.4079
39.9892
44.8373
49.8095
53.0071
54.7361
55.6738
56.217
56.5739
56.8415
57.0602
57.2511
57.44
57.6486
57.8645
58.084
58.3352
58.6572
58.9634
59.2997
59.6336
60.0009
60.4146
60.7068
61.0137
61.2294
61.4429
72.4373
59.9934
53.124
46.6807
40.5855
36.6882
36.5248
41.1009
47.4891
52.0698
54.5077
55.7667
56.4565
56.8768
57.1622
57.3778
57.5627
57.7438
57.934
58.1273
58.3268
58.5694
58.9069
59.2045
59.5492
59.8834
60.2519
60.7049
60.9984
61.3168
61.5405
61.7886
69.9323
58.9653
52.6801
46.5442
40.1308
34.8091
32.1512
35.2171
43.6791
50.3116
53.9179
55.6498
56.5274
57.0297
57.3487
57.568
57.7356
57.8931
58.0557
58.2139
58.3748
58.5832
58.9182
59.1906
59.5362
59.8636
60.2194
60.7123
61.0048
61.326
61.5586
61.8531
67.3952
57.685
51.9062
46.0405
39.4038
32.6349
26.5304
25.9751
37.2001
47.4876
52.9082
55.3704
56.5212
57.1187
57.4536
57.6532
57.7878
57.8955
57.9944
58.088
58.1929
58.3582
58.6761
58.8894
59.2106
59.5044
59.8096
60.3321
60.6069
60.9149
61.154
61.5176
65.6688
56.9246
51.4469
45.6838
38.7909
30.6226
21.381
16.386
28.03
43.2663
51.2436
54.7469
56.2175
56.9419
57.3108
57.4798
57.5435
57.5775
57.5924
57.5683
57.5362
57.575
57.8337
57.955
58.2404
58.4907
58.7131
59.2686
59.5111
59.7784
60.0186
60.4867
63.003
55.94
51.0231
45.4956
38.5961
30.1002
21.4693
17.266
22.7871
38.9899
49.3716
53.9268
55.7994
56.6049
56.9346
57.0281
56.9732
56.8226
56.6338
56.434
56.237
56.1228
56.2652
56.2087
56.4029
56.5524
56.5908
57.138
57.2891
57.4346
57.6515
58.3056
60.3428
55.073
50.8596
45.7981
39.3364
31.7528
23.8952
21.9456
26.2766
37.3941
47.8867
52.8422
54.9272
55.7907
56.0552
55.945
55.6358
55.2303
54.7618
54.2556
53.7441
53.3048
53.1413
52.6852
52.5804
52.4168
51.993
52.3134
52.1659
51.935
52.0377
53.2066
56.156
53.4172
50.2249
45.868
40.0218
33.8471
24.1503
24.6425
31.3263
39.3619
47.6362
51.9804
53.8078
54.4058
54.3563
53.921
53.2195
52.3167
51.207
49.9218
48.5326
47.1539
46.0824
44.6219
43.6297
42.6581
41.3152
40.8877
39.9912
39.0338
38.8739
41.154
52.2899
51.5509
49.2562
45.5422
40.1259
32.2461
22.0275
28.1475
35.6749
41.8034
47.2773
50.2831
51.5701
51.8103
51.2633
49.9053
47.7234
44.905
41.72
38.4351
34.9799
31.5088
29.0536
25.9988
24.1658
22.4903
20.4486
18.878
15.4287
14.2877
13.9257
18.3379
48.7563
49.3604
47.6646
44.2921
38.756
23.7243
21.8624
32.2133
38.0657
42.5996
45.9902
47.4456
47.1546
45.1386
41.4269
36.4711
30.5976
24.2919
17.9943
12.8605
3.96392
20.0589
20.5267
21.1212
18.1695
19.984
21.7237
22.5395
12.2021
15.7477
16.6084
16.199
47.4331
47.9762
46.3547
42.6811
34.8557
14.0899
23.2585
30.1855
33.0455
34.9703
34.4248
31.5642
26.024
17.5609
6.19546
17.2637
12.6638
11.3176
13.4901
19.4903
23.7105
20.1427
25.3664
28.4447
27.1688
29.9319
32.4909
33.5224
35.9197
36.9026
37.2388
36.7985
47.0155
46.7886
44.7134
39.4629
26.196
17.3742
6.86309
10.9597
16.9446
12.7559
17.962
14.4881
9.25196
17.402
20.3742
24.3699
28.4633
32.4809
35.2292
35.9875
34.6518
36.5858
37.5128
38.1573
40.2285
40.7587
41.3284
42.0793
42.2339
42.4493
42.6268
42.1234
48.3286
46.4683
43.6334
36.3961
20.1834
9.42209
9.75715
11.5841
15.3825
12.9884
12.3877
16.7358
21.2351
22.5411
29.1143
35.9357
41.8247
43.7464
43.7034
43.0481
43.8862
43.5938
43.3783
44.0336
45.0501
45.5704
46.0521
46.7646
47.0851
47.2469
47.3938
47.2271
50.8184
46.7557
43.0836
35.9045
19.7432
5.7061
19.3354
15.6344
19.1484
25.112
28.1053
30.5293
32.104
34.4245
34.6832
39.2018
44.7877
47.4744
47.9142
47.711
46.8453
46.8766
47.2879
47.9587
47.8775
48.8164
49.4888
48.961
49.1963
49.4797
49.5473
49.8158
51.1252
50.1297
47.04
42.1461
33.5525
23.6233
22.3441
25.1629
29.5238
32.7826
34.7732
36.9105
38.0352
38.1999
38.2119
39.8224
44.3066
46.2414
46.2464
45.8844
45.2986
45.0208
45.1087
45.6552
46.712
46.5065
47.0364
47.0469
47.2441
47.7101
48.0452
48.903
34.5979
14.0247
15.7555
11.479
9.25941
14.732
27.704
25.8031
22.1195
21.0599
17.3476
16.4896
14.4912
13.3184
11.9852
12.2583
8.51711
8.21063
6.61611
6.42366
6.41826
6.66764
8.04242
8.89524
11.6528
12.8915
12.8674
14.7526
15.9334
17.4312
20.964
22.1593
25.6969
27.7619
15.0071
9.60269
6.20944
16.0739
13.2544
33.9657
45.291
33.7105
23.8445
10.8589
6.14952
22.6444
23.7218
21.3404
21.1744
20.2351
19.214
18.5
17.6013
17.1494
16.5368
16.5175
16.1709
16.5312
16.7236
17.0966
17.0904
16.7921
16.417
16.3637
16.3672
16.739
17.1089
17.6885
18.5757
19.1952
20.3599
21.1463
21.437
23.6228
22.7682
6.22914
11.3047
23.396
33.3365
44.9798
47.1175
39.6327
27.0752
11.2976
13.6463
24.2302
22.623
23.504
23.816
23.5561
22.9948
22.1506
21.2192
20.8153
20.246
20.1607
19.9574
20.2451
20.5629
20.9471
20.9491
20.604
20.2131
20.0575
20.1289
20.352
20.8289
21.2782
22.2369
22.9863
23.6845
23.7744
23.6398
22.5167
24.2785
13.9163
11.2913
26.4464
39.3903
46.9793
46.0126
42.2805
28.8095
13.0092
16.64
25.8872
24.3482
26.5666
26.9751
27.628
26.3685
25.109
23.9927
23.2121
22.5975
22.2775
22.0348
22.219
22.5326
22.9193
22.9272
22.5701
22.2254
22.1089
22.2892
22.6756
23.2441
24.0503
25.1777
26.3954
27.728
26.9773
26.6128
24.4421
25.6227
17.3361
13.0867
28.1524
42.1327
46.0015
42.8969
43.1279
30.4722
14.7991
18.9332
28.217
27.7352
30.6124
31.3404
31.7261
29.9724
27.6393
26.0901
24.9063
24.0756
23.5957
23.2668
23.3997
23.7449
24.1696
24.183
23.7869
23.4298
23.3369
23.6294
24.1455
24.9488
26.1472
27.7109
30.0152
31.8167
31.3154
30.7414
27.524
28.5556
18.1399
3.93792
29.9137
43.0655
42.984
38.4347
42.7933
32.1291
6.71569
18.1069
31.1359
30.876
34.2079
35.6188
36.1083
33.9202
30.6423
28.0588
26.3281
25.2034
24.5123
24.1061
24.2152
24.6274
25.1311
25.1492
24.6759
24.2627
24.1782
24.5592
25.2707
26.3754
28.123
30.7117
33.9716
36.168
35.6371
34.1768
31.1466
30.3292
20.5834
15.9486
31.5703
42.7926
38.586
34.8167
41.8288
33.2772
16.5208
18.0893
33.0947
33.2034
36.5737
38.331
39.1981
37.3971
33.863
30.3274
27.825
26.185
25.2803
24.842
24.9567
25.4957
26.1153
26.1374
25.5503
25.0166
24.916
25.3351
26.2516
27.876
30.3922
33.9288
37.4409
39.2458
38.3354
36.6
33.166
33.257
16.693
7.18222
32.809
41.8638
34.9694
32.8827
40.6696
34.0345
16.9824
15.728
33.6994
34.5703
37.904
39.4118
40.5384
39.0877
36.1216
32.3937
29.2669
27.2352
26.0784
25.6366
25.8426
26.5227
27.2858
27.311
26.5827
25.9109
25.713
26.1374
27.2992
29.3135
32.457
36.1717
39.1206
40.576
39.3909
37.9691
34.3951
33.9219
15.2862
17.1075
33.6549
40.7136
32.987
32.9389
39.7151
34.3065
18.4046
17.1383
33.3488
35.084
38.455
39.2435
40.4494
39.2179
36.668
33.4292
30.2228
28.0964
26.9518
26.6209
26.9389
27.7897
28.6764
28.704
27.8542
27.0154
26.6997
27.0147
28.1512
30.2683
33.4776
36.7057
39.2389
40.4761
39.2054
38.5176
34.8526
33.6709
18.3526
18.4387
33.9184
39.7529
32.9904
34.3786
39.323
33.7661
10.4491
11.2435
31.7549
34.212
37.986
38.4824
38.9999
38.3117
35.8899
33.1031
30.4309
28.5506
27.8661
27.775
28.267
29.2941
30.2469
30.2753
29.363
28.3489
27.8636
27.9289
28.6072
30.4663
33.1404
35.9159
38.3169
39.0295
38.4151
38.0456
33.9932
31.7955
15.1693
10.6165
33.4814
39.3491
34.4036
36.7411
39.6676
33.2028
20.1289
15.4942
28.3951
32.1543
37.2166
37.019
37.2412
36.2278
34.0706
31.7733
29.8969
28.8881
28.8015
29.1602
29.7763
31.0021
31.9427
31.9703
31.0697
29.867
29.2549
28.8809
28.943
29.933
31.795
34.088
36.2149
37.2642
36.9194
37.2627
31.8453
28.7503
18.0294
19.5573
32.8923
39.6691
36.7385
39.4609
40.2862
29.7516
19.3321
17.2952
23.1836
31.0803
34.3032
35.6842
33.931
32.9889
31.4048
30.1234
29.5355
29.4812
30.0765
30.7402
31.5498
32.8523
33.7362
33.7604
32.9165
31.6368
30.8469
30.1685
29.5587
29.5734
30.1353
31.4106
32.9348
33.9575
35.5335
34.3009
30.8641
22.7905
16.4296
19.2948
29.5602
40.2609
39.4653
41.1053
40.2611
27.5564
18.4484
14.6705
13.9157
28.7314
31.8734
32.1965
29.4663
29.9117
29.4306
29.7786
30.0316
30.8238
31.7149
32.7001
33.5668
34.8935
35.6248
35.645
34.9472
33.6483
32.801
31.8165
30.9204
30.1004
29.8073
29.4431
29.8352
29.466
31.9784
31.9302
28.1477
14.5945
14.7137
18.4069
27.3226
40.287
41.1277
41.4916
35.8258
22.6138
14.6268
12.511
21.3207
31.269
30.0291
29.1597
28.3152
29.3652
30.0175
30.8687
31.6417
32.7654
33.8142
34.9687
35.8417
37.0593
37.6176
37.6335
37.1018
35.9118
35.0562
33.9118
32.8545
31.739
30.9218
30.0718
29.3465
28.2963
29.0819
29.7952
31.348
20.7322
12.2227
14.5692
22.5784
35.8507
41.5816
35.2508
26.0452
5.64036
9.11839
20.9526
31.5371
31.7433
28.4146
29.5989
29.4307
30.7177
31.7756
32.6821
33.9627
34.9864
36.2708
37.2887
38.2093
39.1971
39.6486
39.6617
39.2317
38.2628
37.3765
36.3402
35.087
34.0199
32.7707
31.822
30.7444
29.5046
29.4944
28.5888
31.1228
31.4719
19.7687
7.98739
5.3278
26.3226
35.2279
23.9223
8.64437
11.8488
21.2266
29.7113
31.0857
27.6011
28.7289
30.5419
30.9918
33.1639
34.0353
35.54
36.5688
37.75
38.789
39.8076
40.5972
41.4218
41.7612
41.7737
41.4489
40.6518
39.8711
38.8824
37.8002
36.6746
35.5476
34.1474
33.1136
31.1213
30.4281
28.8961
27.3257
31.0616
29.4204
20.8317
8.41053
10.1578
24.2992
20.605
12.8963
25.8481
27.3194
28.1062
26.3447
28.1605
32.1527
32.595
35.3762
36.384
37.9203
38.7698
39.785
40.5746
41.4692
42.2901
42.9745
43.5786
43.8377
43.8512
43.6041
43.0267
42.3645
41.5454
40.6654
39.8466
38.8484
37.959
36.4237
35.3859
32.6008
32.1156
28.1417
26.2046
27.8331
27.2251
25.6931
13.0031
20.8316
25.2134
22.1057
31.4117
27.2775
24.6465
29.2454
33.4395
35.6714
37.2215
39.2379
40.1099
41.0878
41.714
42.2671
42.9324
43.5187
44.2616
44.7579
45.2071
45.4163
45.4323
45.2271
44.8311
44.3177
43.6404
42.99
42.4005
41.7518
41.2072
40.1214
39.3163
37.2023
35.6903
33.4235
29.0086
24.9288
26.3829
31.0867
22.0461
25.4251
27.1846
23.37
31.2427
24.4937
25.5471
33.5938
37.016
38.3297
40.7553
41.4909
42.623
42.961
43.5386
43.8579
44.3646
44.8939
45.4802
45.982
46.2658
46.5166
46.5281
46.3027
46.0378
45.5729
44.9962
44.4689
43.975
43.6288
43.0679
42.692
41.5659
40.7896
38.366
37.0071
33.5645
25.4341
24.269
31.0794
23.2807
27.3071
29.3089
23.1036
29.8553
23.0519
24.626
36.2208
37.7973
40.2655
42.1418
42.8085
43.8383
43.9814
44.5589
44.7515
45.25
45.7177
46.3163
46.8377
47.072
47.3854
47.3973
47.1067
46.8974
46.4145
45.8267
45.3683
44.8785
44.6655
44.1032
43.9201
42.9055
42.1848
40.329
37.7909
36.271
24.3719
23.1193
29.4759
23.33
29.4361
29.6477
22.8609
28.1313
19.7575
24.4873
35.9307
38.4565
40.8778
42.7505
43.4392
44.4144
44.5433
45.1162
45.2796
45.8297
46.297
46.9998
47.5696
47.8252
48.198
48.211
47.8531
47.6415
47.095
46.4207
45.952
45.418
45.2314
44.6752
44.5015
43.5477
42.7949
40.945
38.4735
35.9407
24.3593
19.6398
27.9649
22.8456
29.8035
29.8667
21.6755
27.6511
18.2246
20.4125
36.7781
37.8669
41.5688
42.8724
43.8114
44.7625
44.8502
45.5111
45.6472
46.3066
46.8499
47.6582
48.3599
48.6109
49.0467
49.0555
48.6532
48.4182
47.7851
46.9611
46.4625
45.7783
45.6549
44.9743
44.8792
43.9008
42.9504
41.6151
37.9012
36.8059
20.2238
18.1
27.5142
21.5639
29.9605
30.0423
20.9211
27.0909
15.6638
18.1523
36.01
38.4951
41.378
43.3723
43.8222
45.204
44.987
45.9422
45.9286
46.8667
47.3631
48.4558
49.1583
49.5313
49.9398
49.9641
49.5252
49.2995
48.5116
47.5813
46.9561
46.1555
46.0328
45.1901
45.2747
43.9679
43.4408
41.3816
38.7042
35.7346
18.752
14.8545
26.9665
20.9204
30.4964
31.6053
22.6988
26.5211
15.1387
13.7717
35.7834
38.7887
41.5182
43.4325
44.1991
45.2672
45.3956
46.1724
46.3947
47.3324
48.0451
49.2037
50.1086
50.4643
50.9132
50.921
50.5207
50.1721
49.3835
48.1521
47.6047
46.4446
46.5323
45.3189
45.672
44.0701
43.6404
41.7099
38.381
36.46
12.0954
14.9793
27.0952
21.8331
31.4906
32.3287
22.2571
27.2121
16.4965
7.87015
36.3499
38.5981
41.5298
43.8309
44.1594
45.5824
45.6223
46.4812
46.8611
47.8049
48.7576
49.9734
51.067
51.4885
51.9182
51.9238
51.5602
51.1295
50.1848
48.8857
48.0842
46.9958
46.7628
45.7243
45.8257
44.2094
43.9898
41.5658
38.6552
36.4107
7.59666
15.9957
27.1155
22.3856
32.236
33.2583
21.6079
26.9869
16.0069
1.88995
35.3847
39.1903
41.5028
43.9158
44.4135
45.6143
46.0166
46.6613
47.3843
48.2529
49.4907
50.7623
52.0596
52.555
52.9459
52.9526
52.6292
52.1462
50.9782
49.6721
48.5247
47.6006
46.912
46.2177
45.8077
44.5496
44.0378
41.5606
39.2673
35.4925
22.5224
15.6134
26.9131
21.6414
33.3072
33.7683
24.2464
27.0193
18.2837
20.3126
34.0725
39.4537
41.8033
43.7319
44.7449
45.5905
46.3589
46.8597
47.8433
48.76
50.1538
51.6308
52.9924
53.6856
53.9583
53.9814
53.7162
53.1589
51.7935
50.4348
48.9963
48.1455
47.1002
46.6171
45.7912
44.9042
43.8642
41.8669
39.5246
34.2362
20.3623
17.9391
27.0882
23.5801
34.6885
34.6194
23.9235
27.8244
20.5674
20.2811
33.8255
39.9176
41.4583
44.0636
44.6929
45.7261
46.6086
47.0349
48.339
49.1779
50.8923
52.3869
53.9981
54.7221
55.0044
55.0222
54.7757
54.1515
52.5984
51.1668
49.4757
48.6407
47.3393
46.8683
45.9692
44.8826
44.1475
41.6318
39.9148
33.9428
20.2608
20.2653
28.5548
19.7628
32.7395
32.7845
20.4944
28.3125
22.6366
20.4979
33.6856
40.0305
41.3951
44.2949
44.4814
46.1087
46.4929
47.5402
48.4986
49.7949
51.431
53.1725
54.8922
55.7193
55.983
55.9997
55.7813
55.0541
53.4028
51.7302
50.1132
48.8408
47.8585
46.798
46.3653
44.6773
44.4477
41.459
40.1115
33.855
20.5284
22.3058
28.3232
20.6053
33.011
34.4
22.7932
29.1377
23.4326
20.0015
32.3019
40.482
41.8054
43.7689
45.0359
45.8062
46.9389
47.5668
48.9583
50.1455
52.0311
53.8284
55.7275
56.646
56.8989
56.9151
56.7128
55.8974
54.0776
52.3454
50.4952
49.318
47.9251
47.2554
46.1061
45.225
43.9614
41.8417
40.5889
32.5449
20.0297
23.135
29.1485
23.1069
34.7025
35.3354
23.8716
28.6305
23.6509
22.7817
33.8066
39.9747
41.8147
44.0246
44.7898
46.1747
46.7744
48.0372
48.9659
50.6885
52.3265
54.4176
56.355
57.3321
57.6045
57.6179
57.4082
56.5241
54.6844
52.6469
51.0691
49.3209
48.4597
47.0581
46.5263
45.0429
44.0631
41.9727
40.5341
32.415
20.061
23.4193
28.7709
24.2881
35.6546
37.812
23.8532
28.7479
25.1157
22.9247
32.1246
40.2898
41.5133
43.9956
44.8867
46.1353
46.9691
48.1415
49.1719
50.9237
52.5812
54.7264
56.6964
57.6814
57.9207
57.9337
57.7584
56.8689
54.994
52.9139
51.2986
49.5638
48.5302
47.3191
46.4663
45.0917
44.2096
41.5665
40.3276
32.4735
22.8676
24.8538
28.8292
24.2483
38.0861
21.9433
29.9309
38.5307
41.7349
44.0958
45.2005
45.9013
46.246
46.5548
46.7267
46.8981
47.0625
47.2318
47.3381
47.3415
47.2315
47.1218
47.0187
46.7867
46.6438
46.2321
45.931
45.5387
45.1484
44.3361
43.5832
42.8888
42.3935
41.6296
41.0114
40.4336
40.212
39.6276
31.5758
38.3134
41.7453
44.0357
45.1602
45.8429
46.2005
46.5226
46.7254
46.9322
47.1292
47.3005
47.3881
47.374
47.2385
47.1987
47.117
46.9262
46.7711
46.4005
46.1325
45.7997
45.4225
44.6543
43.9943
43.3524
42.8871
42.1783
41.5993
41.073
40.8567
29.2257
31.8641
38.3963
41.7451
44.0101
45.1521
45.8385
46.2255
46.5721
46.8075
47.0367
47.2417
47.3964
47.4626
47.4394
47.2944
47.3503
47.2587
47.1326
46.9519
46.6222
46.3892
46.1286
45.7505
45.0312
44.4589
43.877
43.4358
42.7821
42.2508
41.774
41.5692
30.2204
31.0617
38.3172
41.7777
44.0065
45.1842
45.8879
46.3177
46.6916
46.9511
47.1827
47.3763
47.5057
47.5545
47.5336
47.4033
47.5614
47.4326
47.3896
47.1746
46.8794
46.679
46.5039
46.1227
45.4505
44.9503
44.4391
44.0163
43.4157
42.9345
42.4963
42.3036
43.5414
33.8397
38.4011
41.8118
44.0455
45.2578
45.9984
46.4742
46.8678
47.1357
47.3556
47.5264
47.635
47.6734
47.6673
47.5774
47.8233
47.6447
47.6929
47.4443
47.1726
46.9998
46.9181
46.5442
45.916
45.4703
45.0431
44.6385
44.0917
43.668
43.2701
43.0943
36.4453
31.5518
38.2431
41.8734
44.1038
45.3699
46.154
46.6729
47.0788
47.3445
47.5436
47.6928
47.7853
47.8147
47.8315
47.8015
48.1055
47.8792
48.0149
47.7431
47.4857
47.3392
47.3514
47.0022
46.4132
46.0027
45.667
45.2821
44.79
44.4248
44.0676
43.9088
53.0081
34.9958
38.3928
41.9404
44.2026
45.5216
46.3575
46.916
47.3256
47.5798
47.7573
47.89
47.9737
47.9951
48.04
48.0787
48.4066
48.1464
48.3553
48.0757
47.8248
47.704
47.7963
47.4897
46.9393
46.5518
46.3098
45.9501
45.5153
45.209
44.9022
44.7623
61.4538
36.7571
38.2902
42.005
44.3201
45.7061
46.5956
47.1892
47.5997
47.843
48.0033
48.13
48.207
48.2156
48.2888
48.3903
48.7137
48.4386
48.7009
48.4344
48.1918
48.1031
48.2571
48.007
47.4958
47.1244
46.9692
46.642
46.2654
46.0131
45.7637
45.6394
66.1388
37.9122
38.4709
42.0927
44.4664
45.9257
46.8725
47.4993
47.911
48.146
48.2971
48.4229
48.4937
48.4899
48.5874
48.7387
49.0398
48.7673
49.0604
48.8233
48.5924
48.5393
48.7276
48.5403
48.0742
47.7208
47.6418
47.3565
47.0364
46.8311
46.647
46.5385
67.1007
42.1797
38.5219
42.1298
44.6238
46.1695
47.176
47.8363
48.2534
48.4883
48.6374
48.7672
48.8331
48.8157
48.9332
49.1117
49.3856
49.1301
49.4357
49.244
49.036
49.0262
49.2279
49.1018
48.6867
48.3584
48.3406
48.106
47.838
47.6734
47.5561
47.4582
77.7463
46.6082
39.3887
42.194
44.7815
46.4316
47.5067
48.2039
48.632
48.8737
49.0272
49.1605
49.2229
49.1971
49.3249
49.5133
49.764
49.5336
49.8349
49.6955
49.5174
49.5528
49.7473
49.6765
49.3197
49.0262
49.0562
48.8797
48.6568
48.5258
48.4723
48.3856
82.768
49.1919
39.836
42.2033
44.9342
46.7016
47.8506
48.5895
49.0364
49.2922
49.4542
49.5937
49.6553
49.6283
49.7611
49.942
50.1777
49.9785
50.2675
50.1848
50.0466
50.1282
50.3082
50.2828
49.991
49.7449
49.8111
49.6976
49.5133
49.4127
49.4153
49.3378
73.4012
51.6228
41.0503
42.2095
45.0276
46.9523
48.1979
48.99
49.4635
49.7395
49.9149
50.0582
50.1212
50.1005
50.2343
50.3988
50.6279
50.4614
50.7325
50.7056
50.6106
50.736
50.8967
50.9072
50.6828
50.4908
50.5838
50.5321
50.381
50.3079
50.3556
50.2893
76.4714
52.9125
41.9742
42.2383
45.1071
47.1859
48.5365
49.3913
49.9008
50.2022
50.3926
50.5436
50.6132
50.6082
50.7408
50.8875
51.1179
50.9873
51.2398
51.2628
51.2136
51.3757
51.5233
51.5623
51.4088
51.2796
51.3951
51.4032
51.2824
51.2376
51.3196
51.265
70.9512
54.6923
43.3234
42.1954
45.0479
47.3412
48.8422
49.7829
50.3411
50.6744
50.8847
51.0431
51.1232
51.1377
51.2685
51.4002
51.634
51.5402
51.778
51.8476
51.8415
52.0338
52.172
52.2344
52.1472
52.0795
52.2121
52.2708
52.1815
52.165
52.2708
52.2306
73.2771
55.3862
44.5455
42.317
44.9741
47.4469
49.1087
50.1525
50.773
51.1445
51.3777
51.5488
51.6428
51.6846
51.818
51.9417
52.1796
52.124
52.348
52.4533
52.4878
52.7028
52.842
52.9293
52.9097
52.9069
53.0583
53.1615
53.1064
53.12
53.2415
53.2168
77.3937
56.621
45.6575
42.2961
44.6874
47.4067
49.2931
50.4819
51.1867
51.6064
51.8668
52.0535
52.1702
52.2392
52.3739
52.495
52.7355
52.7207
52.941
53.0801
53.1481
53.3761
53.5185
53.6274
53.6659
53.7199
53.888
54.0257
54.0106
54.055
54.1873
54.1812
78.5888
58.1436
47.266
42.6221
44.3941
47.2633
49.3919
50.7571
51.57
52.0505
52.347
52.5568
52.6922
52.7892
52.9346
53.063
53.3023
53.3251
53.5393
53.7025
53.8021
54.0439
54.1995
54.3384
54.4348
54.5448
54.7317
54.8952
54.9271
55.0025
55.142
55.1533
75.9719
57.9544
48.2343
42.8827
43.9048
46.9007
49.3461
50.9477
51.9096
52.4696
52.8051
53.0367
53.2047
53.3393
53.4944
53.6306
53.8685
53.9314
54.1492
54.331
54.4511
54.6924
54.859
55.0219
55.1661
55.3241
55.532
55.72
55.8023
55.9098
56.0577
56.0906
67.7518
57.9951
49.1691
43.2661
43.405
46.3572
49.1322
51.0311
52.1849
52.8527
53.2437
53.512
53.7047
53.8596
54.0267
54.1816
54.4143
54.5097
54.7275
54.9275
55.0719
55.3212
55.5097
55.7049
55.894
56.0958
56.3263
56.5346
56.6709
56.8091
56.966
57.0205
71.862
58.1621
50.1321
43.8134
42.8326
45.5395
48.6746
50.9577
52.3707
53.1877
53.6578
53.9756
54.1973
54.3763
54.5575
54.7249
54.9526
55.0791
55.3006
55.5123
55.6776
55.9326
56.1439
56.3694
56.5977
56.8363
57.0888
57.3148
57.504
57.6703
57.8369
57.9106
75.8481
58.7691
50.6737
44.28
42.3049
44.4912
47.9047
50.6711
52.4344
53.4531
54.033
54.415
54.6741
54.8788
55.073
55.2535
55.4771
55.6305
55.8551
56.0739
56.2584
56.516
56.7541
57.0069
57.2693
57.5407
57.8169
58.0606
58.3013
58.4934
58.6716
58.7662
78.2668
60.6143
51.8943
44.9377
41.7928
43.1484
46.7401
50.0783
52.3159
53.6212
54.3567
54.8221
55.1297
55.3647
55.5745
55.7671
55.9849
56.1578
56.3835
56.6054
56.8085
57.0653
57.3304
57.6037
57.8955
58.196
58.4953
58.7572
59.0444
59.2595
59.4493
59.5627
73.4571
59.3953
52.0954
45.4912
41.4213
41.6464
45.0275
49.054
51.9444
53.6476
54.6004
55.1718
55.5447
55.8125
56.0382
56.2432
56.4566
56.6414
56.8617
57.0809
57.3033
57.5572
57.852
58.1379
58.4525
58.7764
59.0971
59.3766
59.7063
59.9415
60.1453
60.2805
73.5662
59.3067
52.2673
45.8605
41.0432
40.0128
42.7858
47.3485
51.1727
53.4732
54.7421
55.4669
55.9181
56.2306
56.4749
56.6872
56.8924
57.0825
57.2941
57.5035
57.7401
57.9827
58.3077
58.5995
58.9379
59.2885
59.6318
59.9298
60.2942
60.5452
60.7606
60.9164
73.012
59.4883
52.5793
46.2424
40.7686
38.3443
39.9585
44.8155
49.7854
52.9834
54.7163
55.6599
56.2085
56.5696
56.8389
57.0603
57.255
57.4346
57.6275
57.8255
58.084
58.3137
58.6652
58.9497
59.3034
59.6757
60.0383
60.353
60.7465
61.0092
61.2375
61.4204
71.3064
59.004
52.4539
46.3228
40.406
36.5955
36.4675
41.0642
47.4612
52.0436
54.4849
55.7495
56.4442
56.8674
57.1544
57.3747
57.5568
57.7262
57.8917
58.0624
58.3343
58.5425
58.9169
59.1802
59.5416
59.9325
60.3073
60.6339
61.0432
61.3106
61.5487
61.7635
69.4181
58.2769
52.1057
46.1811
39.9352
34.7108
32.0871
35.1625
43.6539
50.2954
53.9058
55.6422
56.5234
57.0264
57.3453
57.5686
57.7287
57.8691
57.9948
58.1259
58.3963
58.5562
58.9348
59.1572
59.5164
59.922
60.3057
60.6379
61.0576
61.3227
61.5706
61.8321
67.2991
57.4024
51.5914
45.7941
39.2571
32.5635
26.4683
25.8758
37.1412
47.4649
52.8948
55.3619
56.516
57.1138
57.4486
57.6522
57.7754
57.8604
57.9091
57.9707
58.2305
58.3323
58.6969
58.8441
59.1707
59.5691
59.9348
60.2536
60.6662
60.9146
61.1697
61.5007
65.5002
56.7247
51.2455
45.5209
38.7036
30.6148
21.3996
16.3591
27.9536
43.2459
51.2418
54.7497
56.2213
56.9435
57.3104
57.4819
57.5314
57.5349
57.4863
57.4253
57.5933
57.5536
57.861
57.8982
58.1741
58.5609
58.9018
59.1888
59.5746
59.7833
60.0386
60.4797
63.134
55.9633
50.9851
45.4408
38.5776
30.1396
21.5406
17.348
22.7659
38.9619
49.3695
53.9309
55.8047
56.6085
56.9363
57.0305
56.9607
56.7745
56.5034
56.2618
56.323
56.1152
56.2981
56.1507
56.3
56.6198
56.8711
57.0593
57.347
57.4471
57.6755
58.3128
60.1297
54.9964
50.8162
45.7642
39.3366
31.8133
23.9667
22.0209
26.3432
37.408
47.9045
52.8602
54.9415
55.7994
56.0607
55.9519
55.6265
55.1782
54.6154
54.064
53.8581
53.3211
53.1774
52.6604
52.4462
52.4619
52.3885
52.2293
52.2029
51.9522
52.0611
53.2303
56.1304
53.4314
50.2493
45.8962
40.063
33.9057
24.1852
24.6832
31.3737
39.3963
47.6625
52.0017
53.8258
54.4205
54.3679
53.9314
53.2185
52.2781
51.0742
49.7309
48.6532
47.2118
46.1268
44.6996
43.5195
42.7016
41.7761
40.7849
40.0099
39.0537
38.894
41.1875
52.029
51.4767
49.2265
45.5396
40.1484
32.225
22.0433
28.2212
35.746
41.8593
47.3199
50.3146
51.5922
51.8258
51.2802
49.9362
47.7673
44.9412
41.6661
38.2495
35.0521
31.6138
29.599
26.1904
23.634
22.7911
20.6807
18.6288
15.5109
14.2806
13.9048
18.3278
48.6949
49.3166
47.6478
44.2979
38.7693
23.633
21.9138
32.2721
38.1143
42.6407
46.0241
47.4761
47.1867
45.173
41.462
36.5025
30.8019
24.4033
18.0085
12.5284
3.97754
20.3745
15.7438
21.045
21.4407
20.334
21.4078
22.5232
12.4079
15.7153
16.5626
16.1151