/*--------------------------------*- C++ -*----------------------------------*\
  =========                 |
  \\      /  F ield         | OpenFOAM: The Open Source CFD Toolbox
   \\    /   O peration     | Website:  https://openfoam.org
    \\  /    A nd           | Version:  6
     \\/     M anipulation  |
\*---------------------------------------------------------------------------*/
FoamFile
{
    version     2.0;
    format      ascii;
    class       volScalarField;
    location    "49";
    object      omega;
}
// * * * * * * * * * * * * * * * * * * * * * * * * * * * * * * * * * * * * * //

dimensions      [0 0 -1 0 0 0 0];

internalField   nonuniform List<scalar> 
380496
(
843.917
843.917
843.917
843.917
843.917
843.917
843.917
843.917
843.917
843.917
843.917
843.917
843.917
843.917
843.917
843.917
843.917
843.917
843.917
843.917
843.917
843.917
843.917
843.917
843.917
843.917
843.917
843.917
843.917
843.917
843.917
843.917
843.917
843.917
843.917
843.917
843.917
843.917
843.917
843.917
843.917
843.917
843.917
843.917
843.917
843.917
843.917
843.917
843.917
843.917
843.917
843.917
843.917
843.917
843.917
843.917
843.917
843.917
843.917
843.917
843.917
843.917
843.917
843.917
843.917
843.917
843.917
843.917
843.917
843.917
843.917
843.917
843.917
843.917
843.917
843.917
843.917
843.917
843.917
843.917
843.917
843.917
843.917
843.917
843.917
843.917
843.917
843.917
843.917
843.917
843.917
843.917
843.917
843.917
843.917
843.917
843.917
843.917
843.917
843.917
843.917
843.917
843.917
843.917
843.917
843.917
843.917
843.917
843.917
843.917
843.917
843.917
843.917
843.917
843.917
843.917
843.917
843.917
843.917
843.917
843.917
843.917
843.917
843.917
843.917
843.917
843.917
843.917
843.917
843.917
843.917
843.917
843.917
843.917
843.917
843.917
843.917
843.917
843.917
843.917
843.917
843.917
843.917
843.917
843.917
843.917
843.917
843.917
843.917
843.917
843.917
843.917
843.917
843.917
843.917
843.917
843.917
843.917
843.917
843.917
843.917
843.917
843.917
843.917
843.917
843.917
843.917
843.917
843.917
843.917
843.917
843.917
843.917
843.917
843.917
843.917
843.917
843.917
843.917
843.917
843.917
843.917
843.917
843.917
843.917
843.917
843.917
843.917
843.917
843.917
843.917
843.917
843.917
843.917
843.917
843.917
843.917
843.917
843.917
843.917
843.917
843.917
843.917
843.917
843.917
843.917
843.917
843.917
843.917
843.917
843.917
843.917
843.917
843.917
843.917
843.917
843.917
843.917
843.917
843.917
843.917
843.917
843.917
843.917
843.917
843.917
843.917
843.917
843.917
843.917
843.917
843.917
843.917
843.917
843.917
843.917
843.917
843.917
843.917
843.917
843.917
843.917
843.917
843.917
843.917
843.917
843.917
843.917
843.917
843.917
843.917
843.917
843.917
843.917
843.917
843.917
843.917
843.917
843.917
843.917
843.917
843.917
843.917
843.917
843.917
843.917
843.917
843.917
843.917
843.917
843.917
843.917
843.917
843.917
843.917
843.917
843.917
843.917
843.917
843.917
843.917
843.917
843.917
843.917
843.917
843.917
843.917
843.917
843.917
843.917
843.917
843.917
843.917
843.917
843.917
843.917
843.917
843.917
843.917
843.917
843.917
843.917
843.917
843.917
843.917
843.917
843.917
843.917
843.917
843.917
843.917
843.917
843.917
843.917
843.917
843.917
843.917
843.917
843.917
843.917
843.917
843.917
843.917
843.917
843.917
843.917
843.917
843.917
843.917
843.917
843.917
843.917
843.917
843.917
843.917
843.917
843.917
843.917
843.917
843.917
843.917
843.917
843.917
843.917
843.917
843.917
843.917
843.917
843.917
843.917
843.917
843.917
843.917
843.917
843.917
843.917
843.917
843.917
843.917
843.917
843.917
843.917
843.917
843.917
843.917
843.917
843.917
843.917
843.917
843.917
843.917
843.917
843.917
843.917
843.917
843.917
843.917
843.917
843.917
843.917
843.917
843.917
843.917
843.917
843.917
843.917
843.917
843.917
843.917
843.917
843.917
843.917
843.917
843.917
843.917
843.917
843.917
843.917
843.917
843.917
843.917
843.917
843.917
843.917
843.917
843.917
843.917
843.917
843.917
843.917
843.917
843.917
843.917
843.917
843.917
843.917
843.917
843.917
843.917
843.917
843.917
843.917
843.917
843.917
843.917
843.917
843.917
843.917
843.917
843.917
843.917
843.917
843.917
843.917
843.917
843.917
843.917
843.917
843.917
843.917
843.917
843.917
843.917
843.917
843.917
843.917
843.917
843.917
843.917
843.917
843.917
843.917
843.917
843.917
843.917
843.917
843.917
843.917
843.917
843.917
843.917
843.917
843.917
843.917
843.917
843.917
843.917
843.917
843.917
843.917
843.917
843.917
843.917
843.917
843.917
843.917
843.917
843.917
843.917
843.917
843.917
843.917
843.917
843.917
843.917
843.917
843.917
843.917
843.917
843.917
843.917
843.917
843.917
843.917
843.917
843.917
843.917
843.917
843.917
843.917
843.917
843.917
843.917
843.917
843.917
843.917
843.917
843.917
843.917
843.917
843.917
843.917
843.917
843.917
843.917
843.917
843.917
843.917
843.917
843.917
843.917
843.917
843.917
843.917
843.917
843.917
843.917
843.917
843.917
843.917
843.917
843.917
843.917
843.917
843.917
843.917
843.917
843.917
843.917
843.917
843.917
843.917
843.917
843.917
843.917
843.917
843.917
843.917
843.917
843.917
843.917
843.917
843.917
843.917
843.917
843.917
843.917
843.917
843.917
843.917
843.917
843.917
843.917
843.917
843.917
843.917
843.917
843.917
843.917
843.917
843.917
843.917
843.917
843.917
843.917
843.917
843.917
843.917
843.917
843.917
843.917
843.917
843.917
843.917
843.917
843.917
843.917
843.917
843.917
843.917
843.917
843.917
843.917
843.917
843.917
843.917
843.917
843.917
843.917
843.917
843.917
843.917
843.917
843.917
843.917
843.917
843.917
843.917
843.917
843.917
843.917
843.917
843.917
843.917
843.917
843.917
843.917
843.917
843.917
843.917
843.917
843.917
843.917
843.917
843.917
843.917
843.917
843.917
843.917
843.917
843.917
843.917
843.917
843.917
843.917
843.917
843.917
843.917
843.917
843.917
843.917
843.917
843.917
843.917
843.917
843.917
843.917
843.917
843.917
843.917
843.917
843.917
843.917
843.917
843.917
843.917
843.917
843.917
843.917
843.917
843.917
843.917
843.917
843.917
843.917
843.917
843.917
843.917
843.917
843.917
843.917
843.917
843.917
843.917
843.917
843.917
843.917
843.917
843.917
843.917
843.917
843.917
843.917
843.917
843.917
843.917
843.917
843.917
843.917
843.917
843.917
843.917
843.917
843.917
843.917
843.917
843.917
843.917
843.917
843.917
423.923
423.923
423.923
423.923
423.923
423.923
423.923
423.923
423.923
423.923
423.923
423.923
423.923
423.923
423.923
423.923
423.923
423.923
423.923
423.923
423.923
423.923
423.923
423.923
423.923
423.923
423.923
423.923
423.923
423.923
423.923
423.923
423.923
423.923
423.923
281.629
267.587
268.724
269.796
269.88
269.708
269.583
269.5
269.453
269.415
269.393
269.372
269.363
269.352
269.349
269.345
269.345
269.344
269.344
269.345
269.344
269.349
269.348
269.357
269.355
269.372
269.367
269.394
269.387
269.426
269.413
269.466
269.439
269.519
269.448
281.467
267.572
268.646
269.671
269.727
269.55
269.417
269.337
269.284
269.252
269.226
269.214
269.201
269.202
269.195
269.203
269.198
269.211
269.207
269.224
269.22
269.241
269.238
269.265
269.263
269.298
269.296
269.34
269.337
269.392
269.384
269.452
269.424
269.528
269.396
281.133
267.397
268.47
269.46
269.489
269.305
269.166
269.088
269.034
269.006
268.982
268.977
268.967
268.975
268.973
268.99
268.992
269.015
269.018
269.047
269.052
269.087
269.095
269.137
269.147
269.198
269.211
269.272
269.286
269.359
269.371
269.46
269.451
269.584
269.473
280.565
267.018
268.171
269.133
269.128
268.929
268.786
268.708
268.658
268.635
268.617
268.619
268.617
268.634
268.641
268.667
268.678
268.712
268.726
268.766
268.783
268.83
268.85
268.907
268.931
268.998
269.025
269.104
269.134
269.226
269.253
269.364
269.367
269.53
269.418
280.148
266.781
267.822
268.715
268.689
268.484
268.34
268.261
268.213
268.193
268.18
268.186
268.191
268.214
268.229
268.263
268.283
268.326
268.351
268.402
268.43
268.491
268.524
268.595
268.634
268.717
268.761
268.857
268.905
269.016
269.063
269.196
269.219
269.411
269.31
279.341
266.189
267.265
268.11
268.051
267.834
267.691
267.617
267.576
267.565
267.562
267.579
267.595
267.629
267.655
267.7
267.733
267.788
267.826
267.891
267.934
268.009
268.058
268.145
268.2
268.3
268.361
268.477
268.543
268.675
268.74
268.896
268.935
269.158
269.061
278.499
265.57
266.583
267.356
267.268
267.043
266.901
266.83
266.796
266.793
266.799
266.826
266.852
266.896
266.934
266.991
267.036
267.103
267.154
267.232
267.29
267.379
267.444
267.547
267.619
267.738
267.817
267.951
268.036
268.189
268.273
268.452
268.509
268.763
268.673
277.444
264.751
265.696
266.393
266.274
266.044
265.905
265.841
265.817
265.823
265.842
265.879
265.918
265.973
266.024
266.092
266.15
266.229
266.295
266.386
266.458
266.563
266.644
266.763
266.852
266.988
267.085
267.239
267.342
267.515
267.618
267.819
267.893
268.175
268.088
276.19
263.731
264.617
265.233
265.081
264.847
264.716
264.663
264.654
264.674
264.708
264.758
264.812
264.88
264.945
265.025
265.098
265.19
265.27
265.376
265.463
265.583
265.68
265.816
265.922
266.075
266.189
266.361
266.482
266.674
266.795
267.017
267.106
267.414
267.332
274.956
262.702
263.437
263.962
263.789
263.556
263.432
263.389
263.39
263.42
263.465
263.526
263.59
263.669
263.745
263.836
263.92
264.023
264.116
264.233
264.335
264.467
264.579
264.729
264.85
265.019
265.149
265.337
265.473
265.682
265.819
266.058
266.162
266.493
266.411
273.278
261.257
261.94
262.385
262.182
261.953
261.848
261.825
261.848
261.899
261.964
262.042
262.124
262.218
262.309
262.414
262.514
262.631
262.738
262.869
262.986
263.133
263.26
263.426
263.563
263.747
263.894
264.098
264.251
264.477
264.629
264.886
265.003
265.355
265.275
271.661
259.848
260.297
260.637
260.417
260.197
260.104
260.094
260.13
260.192
260.269
260.358
260.451
260.555
260.658
260.773
260.884
261.012
261.132
261.275
261.406
261.566
261.708
261.887
262.039
262.239
262.401
262.62
262.788
263.03
263.196
263.469
263.599
263.972
263.892
269.373
257.801
258.169
258.429
258.191
257.99
257.93
257.953
258.02
258.11
258.212
258.323
258.437
258.558
258.679
258.809
258.937
259.079
259.216
259.374
259.521
259.696
259.855
260.05
260.219
260.434
260.613
260.849
261.033
261.29
261.472
261.762
261.905
262.297
262.217
267.103
255.732
255.806
255.958
255.711
255.532
255.496
255.541
255.628
255.736
255.854
255.98
256.108
256.242
256.377
256.519
256.661
256.816
256.968
257.138
257.301
257.49
257.665
257.874
258.061
258.29
258.486
258.737
258.937
259.21
259.407
259.712
259.868
260.279
260.198
264.033
252.894
252.794
252.868
252.624
252.487
252.5
252.59
252.715
252.857
253.004
253.154
253.305
253.458
253.612
253.772
253.932
254.103
254.272
254.458
254.639
254.843
255.037
255.262
255.467
255.712
255.926
256.192
256.41
256.698
256.911
257.231
257.401
257.83
257.748
260.551
249.609
249.218
249.217
248.988
248.903
248.964
249.1
249.261
249.437
249.61
249.786
249.956
250.129
250.3
250.476
250.653
250.838
251.024
251.224
251.423
251.641
251.853
252.091
252.315
252.574
252.806
253.087
253.323
253.624
253.855
254.188
254.372
254.817
254.733
256.377
245.602
244.832
244.749
244.548
244.531
244.651
244.837
245.033
245.241
245.435
245.633
245.818
246.008
246.191
246.382
246.569
246.768
246.967
247.18
247.392
247.623
247.851
248.102
248.343
248.615
248.865
249.16
249.413
249.729
249.977
250.324
250.528
250.985
250.91
249.996
239.618
238.798
238.763
238.626
238.705
238.909
239.171
239.421
239.677
239.902
240.13
240.331
240.543
240.735
240.942
241.137
241.352
241.559
241.787
242.01
242.257
242.499
242.768
243.026
243.318
243.589
243.905
244.182
244.525
244.795
245.168
245.396
245.869
245.829
240.797
231.452
230.459
230.594
230.63
230.843
231.12
231.413
231.671
231.923
232.134
232.352
232.539
232.745
232.928
233.138
233.33
233.553
233.761
234.002
234.23
234.492
234.742
235.025
235.304
235.628
235.941
236.291
236.617
236.987
237.312
237.705
237.997
238.475
238.544
214.287
212.107
212.339
213.228
213.826
214.526
215.213
215.849
216.41
216.938
217.409
217.871
218.293
218.721
219.117
219.53
219.915
220.324
220.708
221.12
221.509
221.928
222.325
222.752
223.158
223.591
224.005
224.44
224.859
225.287
225.706
226.117
226.532
226.873
227.47
9.02053
7.65989
7.58584
7.55091
7.60126
7.67085
7.76011
7.84936
7.94774
8.0371
8.13087
8.21292
8.29908
8.3734
8.45329
8.52177
8.59776
8.66234
8.73666
8.79858
8.87309
8.93269
9.0091
9.06555
9.1457
9.19677
9.28332
9.32489
9.42194
9.44704
9.56113
9.55696
9.6998
9.63592
9.82887
135.248
128.88
128.552
129.039
129.228
129.211
129.148
129.089
129.042
129.005
128.978
128.957
128.941
128.93
128.922
128.917
128.913
128.912
128.911
128.912
128.915
128.918
128.924
128.929
128.939
128.947
128.964
128.974
129.001
129.013
129.052
129.067
129.118
129.143
129.203
135.076
128.68
128.313
128.776
128.952
128.929
128.862
128.801
128.752
128.716
128.689
128.67
128.656
128.647
128.642
128.64
128.64
128.641
128.645
128.65
128.657
128.664
128.676
128.685
128.702
128.714
128.739
128.754
128.787
128.805
128.848
128.871
128.916
128.965
128.966
134.794
128.387
128.005
128.453
128.619
128.592
128.522
128.46
128.411
128.376
128.351
128.334
128.324
128.319
128.317
128.32
128.325
128.332
128.342
128.353
128.367
128.381
128.4
128.417
128.443
128.463
128.496
128.521
128.563
128.592
128.645
128.68
128.734
128.8
128.81
134.361
127.976
127.613
128.058
128.213
128.177
128.104
128.041
127.993
127.961
127.939
127.926
127.92
127.92
127.924
127.932
127.943
127.956
127.973
127.99
128.011
128.031
128.058
128.082
128.115
128.143
128.185
128.217
128.268
128.304
128.365
128.408
128.468
128.541
128.555
134.043
127.651
127.238
127.646
127.784
127.741
127.663
127.598
127.549
127.516
127.495
127.485
127.481
127.484
127.492
127.504
127.519
127.537
127.558
127.581
127.607
127.634
127.667
127.698
127.738
127.774
127.822
127.862
127.92
127.966
128.034
128.087
128.153
128.24
128.256
133.489
127.123
126.72
127.115
127.238
127.186
127.104
127.038
126.991
126.962
126.946
126.94
126.942
126.951
126.964
126.983
127.004
127.029
127.056
127.086
127.119
127.153
127.192
127.231
127.278
127.322
127.377
127.426
127.492
127.545
127.62
127.682
127.753
127.85
127.867
132.924
126.586
126.159
126.522
126.624
126.561
126.475
126.407
126.361
126.334
126.321
126.32
126.326
126.34
126.358
126.382
126.409
126.439
126.472
126.508
126.548
126.588
126.634
126.68
126.734
126.785
126.848
126.905
126.977
127.039
127.12
127.191
127.267
127.375
127.393
132.248
125.944
125.496
125.823
125.903
125.828
125.737
125.669
125.625
125.601
125.592
125.595
125.607
125.626
125.65
125.68
125.712
125.749
125.788
125.83
125.876
125.923
125.976
126.028
126.089
126.147
126.217
126.281
126.36
126.429
126.517
126.596
126.676
126.795
126.81
131.463
125.21
124.746
125.038
125.091
125.004
124.909
124.841
124.8
124.782
124.779
124.789
124.807
124.833
124.863
124.899
124.938
124.98
125.026
125.074
125.126
125.18
125.239
125.299
125.366
125.431
125.507
125.579
125.664
125.741
125.834
125.921
126.005
126.134
126.148
130.701
124.497
123.978
124.217
124.243
124.144
124.045
123.978
123.939
123.925
123.926
123.94
123.963
123.994
124.029
124.07
124.113
124.161
124.212
124.266
124.323
124.382
124.447
124.513
124.585
124.657
124.739
124.817
124.908
124.991
125.09
125.183
125.27
125.408
125.419
129.711
123.57
123.041
123.244
123.242
123.13
123.029
122.966
122.935
122.928
122.938
122.961
122.992
123.03
123.073
123.121
123.171
123.225
123.282
123.343
123.406
123.472
123.543
123.615
123.694
123.773
123.861
123.945
124.043
124.132
124.236
124.337
124.426
124.574
124.582
128.745
122.678
122.059
122.189
122.154
122.029
121.926
121.864
121.837
121.835
121.85
121.878
121.914
121.958
122.006
122.059
122.114
122.174
122.236
122.301
122.37
122.442
122.519
122.597
122.682
122.767
122.861
122.952
123.055
123.151
123.259
123.367
123.459
123.616
123.62
127.449
121.461
120.819
120.905
120.839
120.703
120.603
120.55
120.535
120.545
120.572
120.61
120.657
120.709
120.766
120.827
120.89
120.957
121.026
121.099
121.174
121.254
121.337
121.423
121.514
121.606
121.707
121.805
121.914
122.017
122.131
122.246
122.341
122.508
122.508
126.136
120.248
119.482
119.48
119.373
119.227
119.128
119.081
119.073
119.092
119.127
119.174
119.228
119.288
119.352
119.419
119.489
119.562
119.637
119.717
119.799
119.885
119.975
120.068
120.166
120.265
120.372
120.477
120.593
120.703
120.823
120.944
121.043
121.22
121.215
124.43
118.649
117.807
117.741
117.599
117.447
117.357
117.325
117.334
117.368
117.418
117.477
117.543
117.614
117.687
117.763
117.841
117.923
118.006
118.093
118.183
118.277
118.375
118.475
118.581
118.688
118.803
118.915
119.038
119.155
119.282
119.411
119.513
119.701
119.691
122.481
116.821
115.839
115.687
115.508
115.351
115.272
115.256
115.282
115.332
115.397
115.47
115.547
115.628
115.71
115.795
115.882
115.971
116.062
116.157
116.254
116.355
116.46
116.568
116.681
116.796
116.918
117.038
117.168
117.292
117.425
117.562
117.668
117.866
117.849
120.129
114.623
113.439
113.17
112.944
112.787
112.725
112.73
112.773
112.841
112.917
113.002
113.088
113.176
113.265
113.357
113.449
113.543
113.64
113.741
113.844
113.952
114.064
114.179
114.299
114.421
114.55
114.677
114.815
114.947
115.088
115.233
115.348
115.557
115.54
116.507
111.183
109.999
109.742
109.514
109.374
109.334
109.364
109.425
109.509
109.596
109.691
109.782
109.878
109.972
110.07
110.167
110.269
110.372
110.48
110.591
110.707
110.828
110.953
111.084
111.218
111.36
111.502
111.654
111.801
111.958
112.116
112.249
112.466
112.469
111.045
106.316
104.826
104.477
104.232
104.116
104.099
104.151
104.227
104.329
104.429
104.543
104.65
104.769
104.882
105.007
105.128
105.26
105.388
105.529
105.668
105.817
105.968
106.129
106.297
106.464
106.634
106.805
106.983
107.158
107.341
107.523
107.691
107.922
107.995
95.7336
95.7743
94.6472
94.3416
94.1184
94.0769
94.1759
94.3573
94.5732
94.814
95.0556
95.3052
95.5476
95.7947
96.0329
96.2757
96.5102
96.7498
96.9826
97.221
97.454
97.6929
97.9276
98.1677
98.4046
98.646
98.8847
99.1268
99.3659
99.6064
99.8443
100.075
100.324
100.505
100.847
11.441
9.87178
9.8351
9.87712
9.99038
10.1105
10.243
10.367
10.4965
10.6114
10.7291
10.8307
10.9361
11.0262
11.1223
11.2039
11.2941
11.3701
11.4574
11.5295
11.6164
11.6853
11.7738
11.8389
11.9313
11.9901
12.0894
12.1376
12.2483
12.2787
12.4078
12.4078
12.5664
12.5115
12.7103
79.7825
77.2369
76.6749
76.7651
76.8865
76.9246
76.912
76.8836
76.8522
76.8256
76.8022
76.7842
76.769
76.7581
76.749
76.743
76.7384
76.7354
76.7341
76.7329
76.7344
76.7341
76.7388
76.7387
76.7477
76.747
76.762
76.7595
76.7831
76.7777
76.8124
76.8044
76.8512
76.8423
76.9074
79.5949
77.0496
76.4714
76.5464
76.6595
76.6916
76.6758
76.6439
76.6116
76.5829
76.5604
76.5415
76.5287
76.5174
76.5117
76.5053
76.5048
76.5014
76.5048
76.5031
76.51
76.5092
76.5198
76.5194
76.5346
76.5341
76.5553
76.5539
76.5828
76.5804
76.6171
76.6164
76.6542
76.666
76.6921
79.3539
76.8074
76.2196
76.2855
76.3928
76.4207
76.4023
76.3683
76.3353
76.306
76.284
76.2655
76.2541
76.244
76.2406
76.2361
76.2386
76.2376
76.2446
76.2457
76.2568
76.2591
76.2743
76.2773
76.2975
76.3009
76.3271
76.3305
76.3642
76.3677
76.4088
76.4159
76.4576
76.4804
76.5102
79.0383
76.4939
75.9102
75.9755
76.0789
76.1025
76.0807
76.0446
76.0107
75.9815
75.9604
75.9435
75.9342
75.9265
75.9258
75.9243
75.9299
75.9323
75.9428
75.9474
75.9622
75.9683
75.9876
75.9945
76.019
76.0265
76.0574
76.0648
76.1035
76.1106
76.1572
76.1667
76.2139
76.237
76.2729
78.7524
76.2188
75.6178
75.6636
75.7537
75.7692
75.7419
75.7022
75.6657
75.6352
75.6134
75.5968
75.588
75.5816
75.5823
75.5827
75.5903
75.5949
75.6078
75.6151
75.6327
75.6418
75.6641
75.6744
75.7023
75.7134
75.7479
75.7593
75.8017
75.8132
75.8633
75.878
75.9284
75.9578
75.9969
78.3534
75.825
75.2284
75.2702
75.3531
75.3619
75.3298
75.2876
75.25
75.2199
75.1991
75.1843
75.1777
75.174
75.1774
75.181
75.1917
75.1998
75.216
75.227
75.2481
75.261
75.287
75.3012
75.3329
75.3479
75.3865
75.4018
75.4484
75.4637
75.518
75.5361
75.5902
75.6226
75.6648
77.9278
75.4151
74.8132
74.8407
74.9101
74.9091
74.8704
74.8242
74.7845
74.7537
74.7333
74.7198
74.7147
74.7132
74.719
74.7252
74.7385
74.7496
74.7686
74.7828
74.8068
74.823
74.8522
74.8699
74.905
74.9236
74.9658
74.9848
75.035
75.054
75.1118
75.1339
75.191
75.2279
75.2725
77.4331
74.9373
74.3326
74.3454
74.3999
74.3878
74.3419
74.2916
74.2499
74.2188
74.199
74.1871
74.184
74.185
74.1933
74.2024
74.2185
74.2328
74.2548
74.2722
74.2993
74.3189
74.3513
74.3724
74.411
74.4331
74.4788
74.5014
74.5552
74.5778
74.6389
74.6647
74.7242
74.765
74.8107
76.8734
74.4032
73.8004
73.7989
73.837
73.8122
73.7583
73.7038
73.6607
73.6301
73.6118
73.6023
73.6019
73.6059
73.6172
73.6296
73.6487
73.6663
73.6914
73.7121
73.7424
73.7653
73.801
73.8255
73.8674
73.893
73.9421
73.9681
74.0253
74.0514
74.1156
74.1451
74.2068
74.2519
74.2984
76.3102
73.8752
73.2606
73.234
73.251
73.2123
73.1503
73.0917
73.0468
73.0161
72.9988
72.9911
72.9926
72.9991
73.0127
73.0278
73.0495
73.0698
73.0974
73.121
73.1539
73.1798
73.2182
73.2458
73.2906
73.3194
73.3715
73.4007
73.461
73.4901
73.5572
73.5899
73.6535
73.7023
73.7491
75.6268
73.2238
72.6159
72.576
72.5748
72.5218
72.4515
72.3896
72.3444
72.3155
72.3009
72.2966
72.3017
72.312
72.3291
72.348
72.3729
72.3968
72.4276
72.4546
72.4907
72.52
72.5616
72.5926
72.6407
72.6728
72.7283
72.7608
72.8244
72.8568
72.9269
72.9629
73.0285
73.0813
73.1284
74.9226
72.5733
71.9413
71.8628
71.8319
71.7608
71.6813
71.6152
71.5689
71.541
71.5282
71.5265
71.5342
71.5476
71.5675
71.5894
71.617
71.644
71.6774
71.7076
71.7465
71.779
71.8236
71.8579
71.9091
71.9447
72.0034
72.0392
72.1061
72.1417
72.2148
72.2542
72.3217
72.3786
72.4255
74.0385
71.7354
71.1068
71.0097
70.9558
70.8683
70.7807
70.7126
70.6678
70.6434
70.6349
70.6379
70.6502
70.6683
70.6924
70.7187
70.7502
70.7812
70.8183
70.8524
70.8947
70.9312
70.9793
71.0176
71.0724
71.1118
71.1742
71.2138
71.2843
71.3235
71.4
71.443
71.5128
71.5741
71.621
73.1013
70.8719
70.205
70.0567
69.9646
69.8554
69.7583
69.6873
69.6435
69.622
69.6174
69.6247
69.6412
69.6636
69.6917
69.7221
69.7572
69.7922
69.8327
69.8708
69.9165
69.9571
70.0087
70.0511
70.1096
70.153
70.2192
70.2627
70.337
70.38
70.46
70.5067
70.5789
70.6449
70.6912
71.9313
69.7763
69.0919
68.9079
68.7826
68.6535
68.549
68.4779
68.4379
68.4218
68.4231
68.4364
68.4586
68.4865
68.5195
68.5548
68.5942
68.6339
68.6783
68.721
68.7705
68.8156
68.871
68.918
68.9803
69.0282
69.0984
69.1461
69.2245
69.2713
69.3553
69.4059
69.481
69.5522
69.5983
70.5746
68.5126
67.7798
67.54
67.3724
67.2208
67.1084
67.0372
67.0014
66.991
66.9989
67.0185
67.0466
67.0799
67.1178
67.1578
67.2013
67.2453
67.2933
67.3402
67.3931
67.4425
67.5012
67.5526
67.6183
67.6707
67.7444
67.7964
67.8786
67.9295
68.0175
68.0717
68.1502
68.2258
68.2719
68.9301
66.9878
66.1763
65.8542
65.6289
65.4501
65.3302
65.2599
65.2286
65.2231
65.2358
65.2589
65.2904
65.3259
65.366
65.4077
65.453
65.4988
65.5486
65.5981
65.6531
65.7059
65.7673
65.8227
65.8915
65.9482
66.0258
66.0822
66.169
66.2243
66.3176
66.3767
66.4606
66.543
66.5935
66.5748
64.67
63.8512
63.5243
63.2797
63.086
62.9584
62.8835
62.849
62.8397
62.8494
62.8687
62.8978
62.9305
62.97
63.0111
63.0581
63.1057
63.1591
63.2123
63.2723
63.3307
63.3981
63.461
63.5371
63.6027
63.6889
63.7542
63.8515
63.9132
64.0199
64.0817
64.1821
64.2644
64.3318
63.0737
61.5357
60.4577
59.9479
59.5914
59.3403
59.1851
59.098
59.0615
59.0563
59.0758
59.1082
59.1547
59.2063
59.2683
59.3319
59.4045
59.4768
59.5577
59.637
59.7249
59.8104
59.9056
59.9988
60.1046
60.1983
60.3034
60.3931
60.5047
60.5922
60.7119
60.7977
60.9188
61.0124
61.1234
55.483
57.2181
56.1459
55.3529
54.7474
54.3307
54.0873
53.9585
53.9157
53.9201
53.9656
54.0274
54.1125
54.2007
54.305
54.406
54.5204
54.6279
54.7483
54.86
54.9844
55.0993
55.2268
55.3447
55.474
55.5952
55.7252
55.8501
55.9799
56.1068
56.2382
56.3579
56.5067
56.5919
56.8021
13.0125
11.403
11.4141
11.5404
11.7218
11.8916
12.0622
12.2129
12.364
12.4938
12.6247
12.7352
12.8493
12.9448
13.0469
13.1318
13.2265
13.3044
13.3951
13.4682
13.5578
13.6272
13.7181
13.7833
13.8779
13.9366
14.038
14.0864
14.1989
14.2305
14.3603
14.3647
14.5202
14.4806
14.665
52.8624
51.8614
51.4552
51.3874
51.4226
51.4545
51.4612
51.4528
51.4359
51.4189
51.4017
51.3875
51.3745
51.3645
51.3558
51.3493
51.3441
51.3399
51.3377
51.3346
51.3351
51.3322
51.3355
51.3318
51.3389
51.333
51.3453
51.3358
51.3554
51.3408
51.3695
51.3496
51.3885
51.363
51.4175
52.6911
51.7003
51.2916
51.2162
51.2465
51.2733
51.2776
51.2655
51.2479
51.2281
51.2117
51.1955
51.1846
51.1729
51.1673
51.159
51.1576
51.1514
51.1535
51.1482
51.1534
51.1483
51.1567
51.1509
51.1632
51.1557
51.1729
51.1631
51.1862
51.1736
51.2024
51.1889
51.2202
51.2082
51.2426
52.4925
51.5067
51.0951
51.0147
51.0415
51.0649
51.0671
51.0526
51.0339
51.0127
50.996
50.979
50.9686
50.9566
50.9521
50.944
50.9442
50.9386
50.9427
50.9383
50.946
50.9418
50.953
50.9483
50.9634
50.9576
50.9773
50.9699
50.9949
50.986
51.016
51.008
51.0393
51.036
51.0691
52.2549
51.2698
50.8599
50.7796
50.8053
50.8265
50.8262
50.8095
50.7893
50.7671
50.75
50.7332
50.7232
50.7121
50.7087
50.7019
50.7036
50.6996
50.7056
50.7029
50.7127
50.7104
50.7239
50.7212
50.7389
50.735
50.7577
50.7521
50.7806
50.773
50.807
50.7992
50.8354
50.83
50.8693
52.0123
51.0417
50.6296
50.5411
50.5586
50.5733
50.5679
50.5476
50.5244
50.5003
50.4818
50.4643
50.4539
50.443
50.4399
50.4338
50.4363
50.4332
50.4404
50.4389
50.45
50.449
50.4641
50.4628
50.4823
50.48
50.5046
50.5008
50.5312
50.5258
50.5618
50.5565
50.5947
50.5923
50.634
51.7112
50.7443
50.3359
50.2473
50.2619
50.2726
50.2633
50.24
50.2146
50.1893
50.17
50.1526
50.1425
50.1325
50.1302
50.1255
50.1294
50.128
50.1367
50.137
50.15
50.1509
50.168
50.1686
50.1902
50.1899
50.2169
50.2149
50.2481
50.2442
50.2831
50.279
50.3202
50.3183
50.3633
51.3808
50.4252
50.0191
49.926
49.9334
49.9373
49.9221
49.8945
49.8659
49.8387
49.8183
49.8006
49.7905
49.7811
49.7796
49.7759
49.7809
49.7808
49.7909
49.7927
49.8071
49.8095
49.8282
49.8304
49.8539
49.8552
49.8842
49.8838
49.9191
49.9169
49.958
49.9555
49.999
49.9986
50.0462
51.0011
50.0575
49.6556
49.5586
49.5583
49.5543
49.5323
49.4999
49.4679
49.4387
49.4171
49.3991
49.3892
49.3806
49.3799
49.3776
49.3837
49.3852
49.3967
49.4001
49.4161
49.4202
49.4407
49.4446
49.47
49.473
49.5041
49.5054
49.5429
49.5424
49.5857
49.5849
49.6304
49.6315
49.6808
50.5802
49.6507
49.2561
49.1563
49.1479
49.135
49.1055
49.0678
49.0322
49.0012
48.9787
48.9608
48.9513
48.9437
48.944
48.9431
48.9506
48.9537
48.9666
48.9717
48.9892
48.995
49.0171
49.0228
49.05
49.0547
49.0877
49.0907
49.1303
49.1314
49.1769
49.1777
49.2251
49.2277
49.2787
50.1472
49.239
48.8478
48.7395
48.7188
48.6949
48.6571
48.6138
48.5747
48.5419
48.5184
48.5007
48.4915
48.4849
48.4861
48.4866
48.4952
48.4998
48.514
48.5206
48.5396
48.5469
48.5706
48.5778
48.6067
48.613
48.648
48.6526
48.6942
48.6968
48.7443
48.7465
48.7957
48.7998
48.8523
49.6401
48.7501
48.3702
48.2608
48.2314
48.1972
48.1509
48.1019
48.0593
48.0249
48.0009
47.9836
47.9751
47.9698
47.9724
47.9745
47.9845
47.9909
48.0066
48.015
48.0355
48.0446
48.07
48.079
48.1097
48.1177
48.1547
48.161
48.2048
48.2089
48.2586
48.2623
48.3134
48.319
48.3729
49.0983
48.2409
47.8611
47.7362
47.6878
47.6381
47.5811
47.5258
47.4796
47.4438
47.4194
47.4029
47.3954
47.3917
47.3955
47.3995
47.411
47.4192
47.4363
47.4466
47.4687
47.4797
47.5068
47.5177
47.5504
47.5603
47.5994
47.6074
47.6535
47.6593
47.7112
47.7166
47.7696
47.7768
47.8322
48.4417
47.6142
47.2475
47.1197
47.0591
46.9961
46.929
46.8674
46.8177
46.7808
46.7564
46.7409
46.7346
46.7327
46.7381
46.7441
46.7572
46.7675
46.7863
46.7987
46.8225
46.8358
46.8647
46.8778
46.9125
46.9245
46.9659
46.9759
47.0244
47.032
47.0864
47.0935
47.1486
47.1576
47.2147
47.7234
46.943
46.572
46.4214
46.335
46.2519
46.1723
46.1039
46.0511
46.0136
45.9898
45.976
45.9715
45.972
45.9793
45.9879
46.0028
46.0157
46.0363
46.0513
46.0769
46.0927
46.1237
46.1392
46.1762
46.1906
46.2344
46.2466
46.2976
46.3072
46.3643
46.3732
46.4306
46.4415
46.5001
46.8458
46.1183
45.7552
45.5918
45.4839
45.3817
45.2897
45.2142
45.1584
45.1202
45.097
45.0847
45.0817
45.0843
45.0934
45.1042
45.1208
45.136
45.1582
45.1757
45.2028
45.2212
45.2538
45.272
45.3109
45.3277
45.3737
45.3881
45.4418
45.4532
45.5131
45.5237
45.5837
45.5963
45.6574
45.8225
45.1596
44.7889
44.5983
44.4593
44.3329
44.2264
44.1428
44.0838
44.0447
44.0224
44.0114
44.0102
44.0146
44.0251
44.0379
44.0556
44.0729
44.096
44.1157
44.1437
44.1646
44.1981
44.2188
44.2588
44.2782
44.3258
44.3425
44.3983
44.4117
44.4743
44.4863
44.5495
44.563
44.6272
44.5797
44.0031
43.6118
43.376
43.192
43.0336
42.9094
42.8158
42.7525
42.7103
42.6868
42.674
42.6718
42.6744
42.6838
42.6952
42.7118
42.7286
42.7507
42.771
42.7985
42.8209
42.8545
42.8776
42.9183
42.9404
42.9895
43.009
43.0671
43.0833
43.1491
43.164
43.2311
43.2476
43.3176
43.029
42.4152
41.9913
41.7339
41.5218
41.3353
41.1896
41.0765
40.9987
40.9418
40.9078
40.8834
40.8739
40.8684
40.8738
40.8805
40.8961
40.9114
40.9347
40.9563
40.9862
41.0121
41.0488
41.0775
41.1219
41.151
41.2043
41.2309
41.294
41.3159
41.388
41.4067
41.4821
41.5009
41.5802
40.8415
40.5287
39.9132
39.4677
39.1177
38.8403
38.6404
38.493
38.3985
38.3314
38.2979
38.275
38.2754
38.2779
38.2985
38.3168
38.3506
38.3794
38.422
38.4585
38.5076
38.5497
38.6043
38.6522
38.7138
38.7621
38.8246
38.8692
38.9368
38.9781
39.0537
39.0907
39.1735
39.2057
39.2994
37.8603
40.6894
39.8767
38.9226
38.1184
37.5004
37.0627
36.7495
36.5417
36.3934
36.3047
36.2407
36.2147
36.1959
36.205
36.2118
36.2415
36.2635
36.3059
36.3375
36.3881
36.4266
36.4824
36.5266
36.5853
36.635
36.695
36.7503
36.8109
36.8699
36.9338
36.9883
37.0688
37.1011
37.2285
14.2717
12.6871
12.7639
12.9729
13.2207
13.4367
13.641
13.8134
13.9807
14.1201
14.2589
14.373
14.491
14.5871
14.6909
14.7747
14.8698
14.9455
15.0359
15.1061
15.1949
15.261
15.3507
15.4124
15.5055
15.5611
15.6605
15.7066
15.8161
15.8473
15.9721
15.9803
16.1263
16.1
16.2672
37.6238
37.2104
36.9827
36.89
36.8747
36.8846
36.8912
36.891
36.8833
36.8737
36.8622
36.8518
36.8415
36.833
36.8252
36.8187
36.8136
36.8084
36.8058
36.8012
36.801
36.7961
36.7985
36.7922
36.7981
36.7889
36.7996
36.7859
36.8031
36.7836
36.8082
36.7828