/*--------------------------------*- C++ -*----------------------------------*\
  =========                 |
  \\      /  F ield         | OpenFOAM: The Open Source CFD Toolbox
   \\    /   O peration     | Website:  https://openfoam.org
    \\  /    A nd           | Version:  6
     \\/     M anipulation  |
\*---------------------------------------------------------------------------*/
FoamFile
{
    version     2.0;
    format      ascii;
    class       volVectorField;
    location    "9";
    object      wallShearStress;
}
// * * * * * * * * * * * * * * * * * * * * * * * * * * * * * * * * * * * * * //

dimensions      [0 2 -2 0 0 0 0];

internalField   uniform (0 0 0);

boundaryField
{
    inlet
    {
        type            calculated;
        value           uniform (0 0 0);
    }
    outlet
    {
        type            calculated;
        value           uniform (0 0 0);
    }
    roughCylinder
    {
        type            calculated;
        value           nonuniform List<vector> 
5120
(
(-0.000533012 -0.000763336 -0.000397423)
(-0.000396016 -0.000570379 -3.97008e-05)
(-0.000350969 -0.000547228 2.03783e-06)
(-0.000390439 -0.000611845 5.04717e-05)
(-0.000458281 -0.000691043 0.000106541)
(-0.000529656 -0.000751387 0.000159382)
(-0.000601609 -0.000791015 0.000205773)
(-0.000669756 -0.000812154 0.000244469)
(-0.00073167 -0.000819019 0.000274788)
(-0.000787521 -0.000819756 0.000297807)
(-0.000838195 -0.00082112 0.00031547)
(-0.000880524 -0.000823623 0.000326835)
(-0.000916344 -0.000830565 0.000332403)
(-0.000946861 -0.00084185 0.000333184)
(-0.000973226 -0.000856924 0.000330343)
(-0.000997011 -0.000874927 0.00032496)
(-0.00101978 -0.000895104 0.000317888)
(-0.00104285 -0.000916966 0.00030969)
(-0.00106687 -0.000940094 0.000300576)
(-0.0010923 -0.000964437 0.000290642)
(-0.00111924 -0.000989938 0.000279863)
(-0.00114763 -0.00101653 0.000268155)
(-0.00117734 -0.00104412 0.000255401)
(-0.00120816 -0.00107252 0.00024143)
(-0.00123983 -0.00110148 0.000225987)
(-0.00127201 -0.00113064 0.000208701)
(-0.00130422 -0.00115954 0.000189016)
(-0.0013358 -0.00118753 0.000166186)
(-0.00136573 -0.00121369 0.000139086)
(-0.00139255 -0.00123676 0.000106565)
(-0.00141352 -0.00125503 6.69061e-05)
(-0.001425 -0.00126568 2.23751e-05)
(-0.00057091 -0.000742424 -0.000390008)
(-0.000426456 -0.000565169 -4.30357e-05)
(-0.000376824 -0.000538286 -3.78679e-06)
(-0.000411008 -0.0005953 4.1353e-05)
(-0.000479734 -0.000674103 9.52181e-05)
(-0.000553078 -0.000736169 0.000146795)
(-0.000627003 -0.00077795 0.000192371)
(-0.000697576 -0.000801802 0.000230685)
(-0.000763014 -0.000812696 0.000261446)
(-0.000823268 -0.000817686 0.000285811)
(-0.000877548 -0.000821133 0.000304843)
(-0.000923276 -0.000823191 0.000317363)
(-0.000960707 -0.000828847 0.000323505)
(-0.000992797 -0.00083917 0.000324589)
(-0.00102064 -0.00085357 0.000321957)
(-0.00104585 -0.000871133 0.000316718)
(-0.00107002 -0.000891017 0.000309772)
(-0.00109431 -0.000912526 0.000301672)
(-0.00111972 -0.000935468 0.000292749)
(-0.00114657 -0.000959615 0.00028306)
(-0.00117495 -0.000984885 0.000272579)
(-0.0012048 -0.00101121 0.000261225)
(-0.00123596 -0.00103848 0.00024887)
(-0.00126826 -0.00106652 0.000235348)
(-0.00130141 -0.00109509 0.000220392)
(-0.00133504 -0.00112385 0.000203631)
(-0.00136868 -0.00115233 0.00018451)
(-0.00140161 -0.00117989 0.000162292)
(-0.00143281 -0.00120565 0.000135869)
(-0.00146072 -0.00122835 0.000104118)
(-0.00148255 -0.00124634 6.53607e-05)
(-0.0014945 -0.0012568 2.18473e-05)
(-0.000606707 -0.000706545 -0.000367794)
(-0.000446476 -0.000541816 -4.59063e-05)
(-0.000395925 -0.000514983 -1.01245e-05)
(-0.000429504 -0.000571694 3.15542e-05)
(-0.000499565 -0.000650833 8.30484e-05)
(-0.000574578 -0.000714171 0.00013316)
(-0.000650446 -0.000758177 0.000177903)
(-0.000723935 -0.000785552 0.000216153)
(-0.000793211 -0.000800827 0.000247689)
(-0.000857437 -0.000809527 0.000273267)
(-0.000915399 -0.000815192 0.000293339)
(-0.000964847 -0.000818163 0.000307007)
(-0.0010042 -0.000822068 0.000313653)
(-0.00103781 -0.000831283 0.00031506)
(-0.00106718 -0.000844816 0.000312672)
(-0.00109383 -0.000861711 0.000307624)
(-0.00111933 -0.000881032 0.000300838)
(-0.00114516 -0.00090224 0.00029297)
(-0.00117189 -0.000924746 0.000284261)
(-0.00120005 -0.000948438 0.000274839)
(-0.00122978 -0.000973248 0.000264693)
(-0.00126103 -0.000999092 0.000253734)
(-0.00129363 -0.00102586 0.000241833)
(-0.00132736 -0.00105336 0.000228805)
(-0.00136193 -0.00108136 0.000214383)
(-0.00139695 -0.0011095 0.000198191)
(-0.00143192 -0.00113736 0.000179677)
(-0.00146613 -0.0011643 0.000158116)
(-0.0014985 -0.00118948 0.00013242)
(-0.00152744 -0.00121165 0.000101496)
(-0.00155006 -0.00122922 6.37075e-05)
(-0.00156245 -0.00123942 2.12837e-05)
(-0.000543659 -0.000570673 -0.000283032)
(-0.00046832 -0.000512468 -4.91297e-05)
(-0.000416933 -0.000493685 -1.72714e-05)
(-0.000444328 -0.000543029 2.12686e-05)
(-0.000514225 -0.000620628 7.00722e-05)
(-0.000591045 -0.000685598 0.000118549)
(-0.000669383 -0.000732607 0.000162449)
(-0.000745927 -0.000763848 0.000200645)
(-0.000818919 -0.000783516 0.000232968)
(-0.000887344 -0.000796172 0.000259838)
(-0.000948851 -0.000803928 0.000280888)
(-0.00100165 -0.000808154 0.000295435)
(-0.00104437 -0.000811324 0.000302916)
(-0.0010797 -0.00081915 0.000304782)
(-0.0011107 -0.000831591 0.000302694)
(-0.00113891 -0.000847691 0.000297923)
(-0.00116599 -0.000866442 0.000291411)
(-0.001193 -0.000886918 0.000283741)
(-0.00122115 -0.000908926 0.000275332)
(-0.00125075 -0.000932148 0.000266268)
(-0.00128189 -0.000956427 0.00025652)
(-0.00131451 -0.000981689 0.000246008)
(-0.00134845 -0.00100779 0.000234592)
(-0.0013835 -0.00103458 0.00022209)
(-0.00141936 -0.00106184 0.000208229)
(-0.00145565 -0.00108921 0.00019263)
(-0.00149183 -0.00111628 0.000174744)
(-0.00152719 -0.00114245 0.000153858)
(-0.00156062 -0.00116688 0.000128907)
(-0.00159048 -0.00118839 9.88261e-05)
(-0.00161381 -0.00120545 6.20251e-05)
(-0.00162657 -0.00121533 2.07113e-05)
(-0.000666188 -0.00062909 -0.000288922)
(-0.000499859 -0.000489856 -5.4495e-05)
(-0.000432305 -0.000464811 -2.4235e-05)
(-0.000454472 -0.000509413 1.08658e-05)
(-0.000524336 -0.000585952 5.67636e-05)
(-0.000602582 -0.000652126 0.00010331)
(-0.000682923 -0.000701657 0.000146079)
(-0.000762692 -0.000736923 0.000184143)
(-0.000839637 -0.000761105 0.00021722)
(-0.000911487 -0.000776949 0.000245097)
(-0.000976692 -0.000786955 0.000267201)
(-0.00103298 -0.000792493 0.000282559)
(-0.00107969 -0.000796174 0.000291072)
(-0.00111752 -0.000802235 0.000293602)
(-0.00115031 -0.000813547 0.000291993)
(-0.00118019 -0.000828581 0.000287573)
(-0.00120866 -0.000846361 0.000281365)
(-0.00123741 -0.00086633 0.000274105)
(-0.0012669 -0.000887637 0.000266047)
(-0.00129772 -0.000910093 0.000257357)
(-0.0013301 -0.000933616 0.000248043)
(-0.00136396 -0.000958087 0.000238016)
(-0.00139917 -0.000983398 0.000227138)
(-0.00143545 -0.00100934 0.000215204)
(-0.0014725 -0.00103569 0.000201939)
(-0.00150992 -0.00106213 0.00018696)
(-0.00154717 -0.00108825 0.000169724)
(-0.00158354 -0.00111348 0.000149531)
(-0.0016179 -0.00113703 0.00012534)
(-0.00164856 -0.00115776 9.6118e-05)
(-0.00167251 -0.0011742 6.03222e-05)
(-0.00168561 -0.00118371 2.01331e-05)
(-0.000662435 -0.000550088 -0.000244719)
(-0.000507219 -0.000455311 -5.54588e-05)
(-0.000444357 -0.00043197 -3.05309e-05)
(-0.000459183 -0.000471686 4.19251e-07)
(-0.000527196 -0.00054582 4.29271e-05)
(-0.000606852 -0.000613151 8.72196e-05)
(-0.000690005 -0.000665996 0.000128759)
(-0.000773076 -0.00070522 0.000166528)
(-0.000853351 -0.000733082 0.000200043)
(-0.0009294 -0.000752565 0.000228981)
(-0.000998172 -0.000764641 0.000252079)
(-0.00105816 -0.00077154 0.00026836)
(-0.00110874 -0.000776118 0.000277806)
(-0.00115071 -0.000781714 0.000281421)
(-0.00118554 -0.000790902 0.000280415)
(-0.00121726 -0.00080475 0.000276515)
(-0.00124768 -0.000821678 0.000270819)
(-0.00127757 -0.000840464 0.000263914)
(-0.00130849 -0.000860925 0.000256308)
(-0.00134079 -0.000882649 0.000248125)
(-0.00137452 -0.000905366 0.000239339)
(-0.00140966 -0.000928961 0.000229866)
(-0.00144599 -0.000953288 0.000219559)
(-0.00148336 -0.000978206 0.000208226)
(-0.00152144 -0.00100349 0.000195581)
(-0.00155984 -0.00102883 0.000181243)
(-0.00159802 -0.00105385 0.000164671)
(-0.00163526 -0.00107799 0.000145181)
(-0.00167041 -0.00110052 0.000121757)
(-0.00170175 -0.00112032 9.33997e-05)
(-0.00172622 -0.00113603 5.86148e-05)
(-0.00173956 -0.00114513 1.95545e-05)
(-0.000632443 -0.00047019 -0.000188264)
(-0.000528991 -0.000423068 -5.81463e-05)
(-0.00045371 -0.000398991 -3.76479e-05)
(-0.000458562 -0.00043155 -9.98678e-06)
(-0.000524476 -0.000503192 2.90077e-05)
(-0.000605047 -0.000571417 7.06916e-05)
(-0.000689714 -0.000626356 0.000110519)
(-0.000775709 -0.000669069 0.000147683)
(-0.000860325 -0.000701201 0.000181629)
(-0.000939614 -0.000723233 0.000211206)
(-0.0010123 -0.000737522 0.000235305)
(-0.00107624 -0.000745861 0.000252644)
(-0.00113082 -0.000751319 0.000263127)
(-0.00117677 -0.000757099 0.000267767)
(-0.00121554 -0.000765213 0.000267824)
(-0.00124946 -0.000777119 0.000264634)
(-0.00128141 -0.000792282 0.000259459)
(-0.00131342 -0.000810289 0.000253242)
(-0.00134583 -0.000829748 0.000246187)
(-0.00137926 -0.000850356 0.000238527)
(-0.0014141 -0.000871984 0.000230303)
(-0.0014503 -0.000894484 0.000221429)
(-0.00148773 -0.000917724 0.000211759)
(-0.00152609 -0.000941497 0.000201075)
(-0.00156509 -0.000965585 0.000189089)
(-0.00160432 -0.000989703 0.00017542)
(-0.00164327 -0.00101348 0.000159534)
(-0.0016812 -0.00103641 0.000140763)
(-0.001717 -0.00105779 0.000118122)
(-0.00174891 -0.00107658 9.06445e-05)
(-0.00177382 -0.0010915 5.68879e-05)
(-0.00178731 -0.00110012 1.89712e-05)
(-0.000709069 -0.000468423 -0.000162916)
(-0.000541967 -0.000385017 -6.1935e-05)
(-0.000455724 -0.000362159 -4.36602e-05)
(-0.000450974 -0.000388827 -1.97856e-05)
(-0.000512184 -0.000456039 1.50102e-05)
(-0.000592795 -0.000524396 5.34695e-05)
(-0.000680193 -0.000582518 9.13106e-05)
(-0.000769723 -0.000629099 0.000127592)
(-0.000857063 -0.00066396 0.000161327)
(-0.000941087 -0.000689492 0.00019162)
(-0.00101783 -0.000705909 0.000216614)
(-0.00108598 -0.000715782 0.000235102)
(-0.00114491 -0.000722211 0.000246838)
(-0.00119496 -0.000728217 0.000252638)
(-0.00123762 -0.000735911 0.000253806)
(-0.00127499 -0.000746487 0.000251638)
(-0.00131025 -0.00076055 0.000247523)
(-0.00134344 -0.0007766 0.000241924)
(-0.00137734 -0.000794665 0.000235524)
(-0.0014124 -0.000814186 0.000228573)
(-0.00144862 -0.000834709 0.000221043)
(-0.001486 -0.000856052 0.000212859)
(-0.00152435 -0.000878024 0.000203866)
(-0.00156353 -0.0009005 0.000193865)
(-0.00160325 -0.000923264 0.000182564)
(-0.00164312 -0.000946039 0.000169583)
(-0.00168266 -0.000968465 0.000154393)
(-0.00172115 -0.000990078 0.000136347)
(-0.00175742 -0.00101019 0.000114489)
(-0.00178974 -0.00102783 8.78906e-05)
(-0.00181494 -0.00104187 5.51663e-05)
(-0.00182853 -0.00105005 1.83922e-05)
(-0.000605694 -0.000352811 -0.0001069)
(-0.000530153 -0.000336166 -6.1627e-05)
(-0.000449142 -0.000321916 -4.88269e-05)
(-0.000435578 -0.000344084 -2.88411e-05)
(-0.000492758 -0.000407847 1.35295e-06)
(-0.00057345 -0.000476375 3.61158e-05)
(-0.000661265 -0.000535636 7.12782e-05)
(-0.0007526 -0.000584559 0.000106006)
(-0.000845101 -0.00062385 0.000139565)
(-0.000932421 -0.000651581 0.00017)
(-0.00101367 -0.000670254 0.000195821)
(-0.00108648 -0.000681775 0.000215513)
(-0.00114995 -0.00068915 0.000228646)
(-0.00120443 -0.000695444 0.000235857)
(-0.00125107 -0.000702763 0.000238313)
(-0.00129222 -0.000712588 0.000237391)
(-0.00132972 -0.000725079 0.00023425)
(-0.00136614 -0.00074008 0.000229758)
(-0.00140216 -0.000756841 0.000224276)
(-0.00143848 -0.000774847 0.000218104)
(-0.00147577 -0.00079393 0.000211334)
(-0.00151407 -0.000813872 0.000203906)
(-0.00155332 -0.000834516 0.000195679)
(-0.00159322 -0.000855619 0.000186426)
(-0.00163351 -0.000876972 0.000175857)
(-0.00167383 -0.000898309 0.000163595)
(-0.00171373 -0.000919303 0.000149126)
(-0.00175254 -0.000939499 0.000131824)
(-0.00178916 -0.000958295 0.000110772)
(-0.00182182 -0.000974777 8.50806e-05)
(-0.00184722 -0.000987903 5.34159e-05)
(-0.00186068 -0.000995555 1.7805e-05)
(-0.000616541 -0.000316187 -7.74204e-05)
(-0.00051622 -0.00028937 -6.24864e-05)
(-0.000438542 -0.000282999 -5.30541e-05)
(-0.000414184 -0.000299625 -3.6955e-05)
(-0.000461949 -0.000356141 -1.17066e-05)
(-0.000539968 -0.000422673 1.85715e-05)
(-0.000629921 -0.000484459 5.05119e-05)
(-0.000725506 -0.000537531 8.33456e-05)
(-0.00081956 -0.000578475 0.00011567)
(-0.000912376 -0.000609878 0.000146244)
(-0.000998468 -0.000630884 0.000172722)
(-0.00107622 -0.000644033 0.000193597)
(-0.00114483 -0.000652501 0.000208294)
(-0.0012041 -0.000659117 0.000217152)
(-0.00125521 -0.000666176 0.000221197)
(-0.00129991 -0.000675044 0.00022167)
(-0.00134144 -0.00068683 0.000219955)
(-0.00137954 -0.000700023 0.000216465)
(-0.00141739 -0.000715303 0.000212022)
(-0.00145575 -0.000732142 0.000206898)
(-0.00149462 -0.00075 0.000201095)
(-0.00153408 -0.000768615 0.000194564)
(-0.00157401 -0.000787778 0.000187164)
(-0.00161437 -0.000807365 0.00017871)
(-0.00165496 -0.000827172 0.000168912)
(-0.00169546 -0.000846959 0.000157402)
(-0.00173548 -0.000866424 0.000143681)
(-0.00177441 -0.000885161 0.000127153)
(-0.00181111 -0.000902575 0.000106933)
(-0.00184386 -0.000917837 8.21768e-05)
(-0.00186927 -0.000929999 5.16084e-05)
(-0.00188253 -0.000937059 1.71999e-05)
(-0.000565933 -0.000250527 -5.00927e-05)
(-0.000485813 -0.000243876 -6.02526e-05)
(-0.000415251 -0.000240167 -5.55366e-05)
(-0.000383166 -0.000253837 -4.3632e-05)
(-0.00042315 -0.000304796 -2.35512e-05)
(-0.000499785 -0.000370233 1.68589e-06)
(-0.000588374 -0.000431774 2.95462e-05)
(-0.000683118 -0.000485222 5.93359e-05)
(-0.000783801 -0.000531379 9.04253e-05)
(-0.000879939 -0.000564891 0.000120334)
(-0.000971186 -0.000588343 0.000147244)
(-0.00105468 -0.000603435 0.000169319)
(-0.00112864 -0.000612872 0.000185635)
(-0.00119315 -0.000619796 0.000196345)
(-0.00124891 -0.000626467 0.000202213)
(-0.00129822 -0.000634742 0.000204478)
(-0.00134193 -0.000644709 0.000204095)
(-0.00138389 -0.000657055 0.000202145)
(-0.00142422 -0.000671042 0.000198989)
(-0.00146371 -0.000686144 0.000194919)
(-0.00150338 -0.000702291 0.000190106)
(-0.00154347 -0.00071927 0.000184528)
(-0.00158402 -0.000736894 0.000178064)
(-0.00162475 -0.000754912 0.000170494)
(-0.00166548 -0.000773118 0.000161536)
(-0.00170595 -0.000791292 0.000150834)
(-0.00174584 -0.000809148 0.000137907)
(-0.00178456 -0.000826318 0.000122192)
(-0.00182114 -0.000842304 0.000102856)
(-0.0018538 -0.000856323 7.90939e-05)
(-0.00187908 -0.000867487 4.96913e-05)
(-0.00189202 -0.000873909 1.65595e-05)
(-0.000489835 -0.000185471 -2.70469e-05)
(-0.000446527 -0.000200236 -5.68573e-05)
(-0.000387783 -0.000200413 -5.71265e-05)
(-0.000347908 -0.000210928 -4.90073e-05)
(-0.000372371 -0.000251546 -3.35556e-05)
(-0.000441112 -0.000311155 -1.39688e-05)
(-0.000530373 -0.000373863 8.86729e-06)
(-0.000631295 -0.00043262 3.50587e-05)
(-0.00073101 -0.000478901 6.33494e-05)
(-0.000833512 -0.000516642 9.23632e-05)
(-0.000930624 -0.000542999 0.000119385)
(-0.00101982 -0.000559948 0.000142462)
(-0.00110006 -0.00057069 0.000160522)
(-0.00117038 -0.000577974 0.00017328)
(-0.00123163 -0.000584418 0.000181298)
(-0.00128486 -0.000591519 0.000185478)
(-0.00133391 -0.000600945 0.000187136)
(-0.00137758 -0.000611245 0.000186615)
(-0.00141973 -0.000623462 0.000184839)
(-0.00146159 -0.000637279 0.000182155)
(-0.00150305 -0.000652087 0.000178597)
(-0.00154427 -0.000667593 0.000174145)
(-0.0015852 -0.000683556 0.000168684)
(-0.001626 -0.000699874 0.000162047)
(-0.00166655 -0.000716374 0.000153964)
(-0.00170671 -0.000732843 0.000144097)
(-0.0017462 -0.000749044 0.000131988)
(-0.00178457 -0.000764638 0.000117111)
(-0.00182075 -0.000779139 9.86755e-05)
(-0.00185306 -0.000791862 7.59301e-05)
(-0.00187801 -0.000801987 4.77254e-05)
(-0.00189057 -0.000807762 1.59047e-05)
(-0.000454736 -0.000146978 -8.09162e-06)
(-0.000404162 -0.000159321 -5.43381e-05)
(-0.000347089 -0.000160587 -5.71528e-05)
(-0.000301464 -0.000167704 -5.15885e-05)
(-0.000314334 -0.000200246 -4.0685e-05)
(-0.000379279 -0.000256695 -2.75482e-05)
(-0.000464209 -0.000316958 -1.05766e-05)
(-0.000558392 -0.000372395 1.06091e-05)
(-0.000667638 -0.000425897 3.57982e-05)
(-0.000773019 -0.000465834 6.27485e-05)
(-0.000875722 -0.000495113 8.93429e-05)
(-0.000972009 -0.000514743 0.000113304)
(-0.00105858 -0.00052674 0.000133023)
(-0.00113519 -0.000534455 0.000147973)
(-0.00120186 -0.000540406 0.000158306)
(-0.001261 -0.000546985 0.000164911)
(-0.00131207 -0.000554162 0.000168391)
(-0.00136061 -0.000563614 0.000169966)
(-0.00140598 -0.000574494 0.000169946)
(-0.00144888 -0.000586308 0.000168646)
(-0.00149083 -0.000599129 0.000166337)
(-0.00153233 -0.00061276 0.000163051)
(-0.00157361 -0.000627038 0.000158706)
(-0.00161441 -0.000641666 0.000153097)
(-0.00165466 -0.000656455 0.000145963)
(-0.00169429 -0.000671217 0.000136984)
(-0.00173311 -0.000685719 0.000125734)
(-0.00177072 -0.000699669 0.00011173)
(-0.0018063 -0.000712678 9.42473e-05)
(-0.0018381 -0.000724106 7.25796e-05)
(-0.00186258 -0.000733195 4.56472e-05)
(-0.00187461 -0.000738297 1.5215e-05)
(-0.000349859 -9.61814e-05 7.64553e-06)
(-0.000339864 -0.000116644 -5.03212e-05)
(-0.000298556 -0.000124582 -5.57187e-05)
(-0.00025357 -0.00013016 -5.23636e-05)
(-0.000245483 -0.000148743 -4.36046e-05)
(-0.000292676 -0.00019249 -3.61659e-05)
(-0.000376397 -0.000252079 -2.65856e-05)
(-0.00048192 -0.000316019 -1.21543e-05)
(-0.000583903 -0.000366319 8.04288e-06)
(-0.000696798 -0.000411799 3.22288e-05)
(-0.000806393 -0.000445128 5.76832e-05)
(-0.00090881 -0.000467216 8.19569e-05)
(-0.00100292 -0.000481234 0.000103262)
(-0.00108638 -0.000489658 0.000120461)
(-0.0011598 -0.000495601 0.000133413)
(-0.00122306 -0.000500706 0.000142422)
(-0.00128127 -0.000507576 0.000148612)
(-0.00133149 -0.000514661 0.000152102)
(-0.00137854 -0.000523428 0.000153862)
(-0.0014243 -0.00053386 0.00015435)
(-0.00146842 -0.000545279 0.000153632)
(-0.00151117 -0.00055738 0.000151734)
(-0.00155254 -0.000569883 0.000148575)
(-0.00159297 -0.000582724 0.000144033)
(-0.00163255 -0.000595738 0.000137871)
(-0.00167131 -0.000608751 0.000129797)
(-0.0017092 -0.000621571 0.000119416)
(-0.00174597 -0.000633935 0.000106301)
(-0.00178065 -0.000645439 8.97724e-05)
(-0.00181166 -0.000655549 6.91896e-05)
(-0.00183546 -0.000663578 4.35476e-05)
(-0.00184691 -0.000668048 1.45208e-05)
(-0.000216024 -4.89824e-05 1.5801e-05)
(-0.000249651 -7.43337e-05 -4.2955e-05)
(-0.000232094 -8.81154e-05 -5.15664e-05)
(-0.000194604 -9.34677e-05 -4.937e-05)
(-0.000176164 -0.000103036 -4.15042e-05)
(-0.000217582 -0.000140535 -4.09936e-05)
(-0.000288635 -0.000192146 -3.90696e-05)
(-0.000373059 -0.000244428 -3.06761e-05)
(-0.0004927 -0.000307651 -1.7505e-05)
(-0.000605941 -0.000354879 2.04262e-06)
(-0.000720931 -0.000392136 2.52971e-05)
(-0.000832026 -0.000418569 4.93367e-05)
(-0.000933153 -0.000434746 7.17647e-05)
(-0.00102398 -0.000444347 9.11161e-05)
(-0.00110333 -0.00045002 0.000106628)
(-0.00117419 -0.000455034 0.000118576)
(-0.00123377 -0.000459221 0.000127011)
(-0.00129008 -0.000465529 0.000133137)
(-0.00134138 -0.000473018 0.000137161)
(-0.00138799 -0.000481213 0.000139386)
(-0.00143217 -0.000490409 0.000140189)
(-0.00147464 -0.000500431 0.000139664)
(-0.00151606 -0.000511184 0.000137808)
(-0.0015561 -0.00052231 0.000134431)
(-0.00159491 -0.000533627 0.000129316)
(-0.00163259 -0.000544951 0.000122197)
(-0.00166924 -0.000556105 0.000112724)
(-0.00170466 -0.000566841 0.000100526)
(-0.00173823 -0.000576887 8.50086e-05)
(-0.00176832 -0.000585733 6.55825e-05)
(-0.00179132 -0.000592748 4.13181e-05)
(-0.00180202 -0.000596574 1.37863e-05)
(-9.2308e-05 -1.59419e-05 1.4087e-05)
(-0.000149589 -3.97369e-05 -3.03997e-05)
(-0.00015466 -5.33911e-05 -4.3358e-05)
(-0.000138045 -6.2481e-05 -4.53126e-05)
(-9.39215e-05 -5.41355e-05 -3.07549e-05)
(-7.62155e-05 -4.99135e-05 -2.14447e-05)
(-0.000167831 -0.000113725 -3.67102e-05)
(-0.000282497 -0.000186781 -4.47218e-05)
(-0.000374982 -0.00023652 -3.85248e-05)
(-0.000499804 -0.00029373 -2.53269e-05)
(-0.000622616 -0.00033714 -6.09734e-06)
(-0.000739124 -0.000367221 1.64572e-05)
(-0.000848872 -0.000387141 3.93786e-05)
(-0.000947051 -0.000398507 6.04643e-05)
(-0.00103439 -0.000405121 7.85656e-05)
(-0.00110881 -0.000408682 9.30815e-05)
(-0.00117784 -0.000413254 0.000104693)
(-0.00123545 -0.000417024 0.000113124)
(-0.00128787 -0.000422112 0.00011927)
(-0.00133793 -0.00042895 0.000123663)
(-0.00138478 -0.000436795 0.000126388)
(-0.0014289 -0.000445396 0.000127535)
(-0.00147006 -0.000454366 0.000127039)
(-0.00150925 -0.000463732 0.000124852)
(-0.00154679 -0.000473324 0.000120786)
(-0.00158304 -0.000482991 0.000114622)
(-0.00161818 -0.000492556 0.000106053)
(-0.00165229 -0.00050182 9.47777e-05)
(-0.00168446 -0.000510444 8.02587e-05)
(-0.00171329 -0.000518034 6.19784e-05)
(-0.00173526 -0.000524056 3.90928e-05)
(-0.0017452 -0.000527317 1.30566e-05)
(-1.90584e-05 -1.51643e-06 9.04843e-06)
(-5.55091e-05 -1.36337e-05 -1.2617e-05)
(-6.75528e-05 -2.0111e-05 -2.68267e-05)
(-5.3779e-05 -2.31888e-05 -2.68204e-05)
(-4.4834e-05 -2.73481e-05 -2.30457e-05)
(-5.09793e-05 -3.71805e-05 -2.20458e-05)
(-6.39296e-05 -4.67784e-05 -2.14305e-05)
(-0.000110936 -7.62615e-05 -2.8896e-05)
(-0.000268741 -0.000171518 -5.1399e-05)
(-0.000380829 -0.000226491 -4.78134e-05)
(-0.000507058 -0.000276385 -3.39684e-05)
(-0.000633975 -0.000314125 -1.4637e-05)
(-0.000750327 -0.00033806 7.4806e-06)
(-0.000856617 -0.00035252 2.95551e-05)
(-0.000949498 -0.000359861 4.96244e-05)
(-0.00103353 -0.000364704 6.69793e-05)
(-0.00110209 -0.000366484 8.08966e-05)
(-0.00116712 -0.00036998 9.22471e-05)
(-0.00122516 -0.000374203 0.000101035)
(-0.00127561 -0.000378746 0.000107443)
(-0.00132183 -0.000384272 0.000111914)
(-0.00136463 -0.000390648 0.000114582)
(-0.00140548 -0.000397947 0.000115548)
(-0.00144385 -0.000405716 0.000114642)
(-0.00148015 -0.000413764 0.000111701)
(-0.00151472 -0.0004219 0.000106537)
(-0.001548 -0.000429959 9.89057e-05)
(-0.00158009 -0.000437729 8.8579e-05)
(-0.00161066 -0.000445032 7.51281e-05)
(-0.00163814 -0.000451481 5.80866e-05)
(-0.00165897 -0.000456584 3.66932e-05)
(-0.00166792 -0.000459293 1.22707e-05)
(3.75558e-07 2.66577e-06 1.50383e-05)
(-6.57621e-06 -8.37288e-07 -1.7482e-06)
(-1.28839e-05 -2.95367e-06 -1.26187e-05)
(-2.18634e-05 -1.25331e-05 -2.30521e-05)
(-2.23642e-05 -1.84606e-05 -2.12311e-05)
(-3.53811e-05 -3.35754e-05 -2.74077e-05)
(-5.03991e-05 -4.49912e-05 -2.91509e-05)
(-5.40417e-05 -4.23938e-05 -2.29503e-05)
(-7.88138e-05 -5.23975e-05 -2.44887e-05)
(-0.00025196 -0.000151836 -5.66529e-05)
(-0.000384158 -0.000211916 -5.48922e-05)
(-0.000513443 -0.000255967 -4.11643e-05)
(-0.000639408 -0.000287256 -2.18408e-05)
(-0.000752327 -0.000305644 -1.87365e-07)
(-0.000854241 -0.000316184 2.11128e-05)
(-0.000939555 -0.000320201 4.03238e-05)
(-0.00102049 -0.000324073 5.71664e-05)
(-0.00108559 -0.000325304 7.08218e-05)
(-0.00114321 -0.000327116 8.18013e-05)
(-0.00119774 -0.000330667 9.05969e-05)
(-0.00124721 -0.00033515 9.72234e-05)
(-0.00129244 -0.000340484 0.000101808)
(-0.00133263 -0.000346167 0.000104271)
(-0.00136954 -0.000352344 0.000104637)
(-0.00140387 -0.000358857 0.000102787)
(-0.00143638 -0.000365562 9.85996e-05)
(-0.00146759 -0.000372268 9.18834e-05)
(-0.00149794 -0.000378807 8.25038e-05)
(-0.0015266 -0.00038489 7.00876e-05)
(-0.00155236 -0.000390245 5.42535e-05)
(-0.00157181 -0.000394489 3.43315e-05)
(-0.00157985 -0.000396742 1.15014e-05)
(5.98842e-06 7.20952e-06 2.36745e-05)
(1.28754e-05 5.5384e-06 -1.38458e-06)
(1.47047e-05 2.94716e-06 -1.22008e-05)
(1.23022e-05 -5.12695e-06 -1.84298e-05)
(5.19504e-06 -1.37514e-05 -2.18677e-05)
(-4.43217e-06 -2.28081e-05 -2.44081e-05)
(-1.77589e-05 -3.09201e-05 -2.582e-05)
(-3.79033e-05 -3.94759e-05 -2.99372e-05)
(-6.95652e-05 -5.37527e-05 -3.63732e-05)
(-7.62621e-05 -4.80131e-05 -2.69435e-05)
(-0.000242436 -0.00013512 -5.83783e-05)
(-0.000385904 -0.000194133 -5.92364e-05)
(-0.000515136 -0.000232543 -4.57002e-05)
(-0.000636632 -0.000257785 -2.6753e-05)
(-0.000741873 -0.000271009 -5.77207e-06)
(-0.000839494 -0.000279223 1.46758e-05)
(-0.000915769 -0.000280674 3.30659e-05)
(-0.000989691 -0.000283022 4.92245e-05)
(-0.00105478 -0.000285107 6.28008e-05)
(-0.0011085 -0.000286636 7.3621e-05)
(-0.00115606 -0.000288984 8.20416e-05)
(-0.00119816 -0.000292124 8.81523e-05)
(-0.00123748 -0.000296406 9.21455e-05)
(-0.00127311 -0.000301302 9.38494e-05)
(-0.00130569 -0.000306593 9.31543e-05)
(-0.00133587 -0.000312058 8.99728e-05)
(-0.00136456 -0.000317542 8.41991e-05)
(-0.00139217 -0.00032283 7.57856e-05)
(-0.0014187 -0.00032784 6.44996e-05)
(-0.00144272 -0.000332274 5.00043e-05)
(-0.00146069 -0.000335772 3.17129e-05)
(-0.00146752 -0.000337577 1.06468e-05)
(1.30338e-05 1.11204e-05 3.08038e-05)
(2.59006e-05 1.05806e-05 -3.16525e-06)
(3.06621e-05 7.13324e-06 -1.24578e-05)
(3.1941e-05 2.05068e-07 -1.65765e-05)
(2.50855e-05 -6.79906e-06 -1.5486e-05)
(1.8496e-05 -1.30986e-05 -1.46387e-05)
(8.05964e-06 -1.5626e-05 -1.21629e-05)
(-3.98111e-06 -1.75361e-05 -1.33819e-05)
(-2.06062e-05 -2.1813e-05 -1.82899e-05)
(-4.5283e-05 -3.09204e-05 -2.46183e-05)
(-9.35063e-05 -5.23943e-05 -3.46459e-05)
(-0.000241715 -0.000122463 -6.01669e-05)
(-0.000384917 -0.000174945 -6.03296e-05)
(-0.000509344 -0.000207196 -4.74886e-05)
(-0.000625133 -0.000227762 -2.9231e-05)
(-0.000718661 -0.000236205 -9.05233e-06)
(-0.000811712 -0.000243076 1.04713e-05)
(-0.000882735 -0.000243999 2.81397e-05)
(-0.000944003 -0.000244087 4.34058e-05)
(-0.00100257 -0.000245649 5.64127e-05)
(-0.00105407 -0.000247736 6.6952e-05)
(-0.00109982 -0.000250611 7.50696e-05)
(-0.00113801 -0.000253713 8.05835e-05)
(-0.0011713 -0.000257359 8.35467e-05)
(-0.00120107 -0.000261456 8.39122e-05)
(-0.00122858 -0.000265863 8.16825e-05)
(-0.00125466 -0.000270348 7.68038e-05)
(-0.00128022 -0.000274762 6.93502e-05)
(-0.00130439 -0.000278846 5.91324e-05)
(-0.00132624 -0.00028244 4.5908e-05)
(-0.00134252 -0.000285279 2.91882e-05)
(-0.00134834 -0.000286764 9.82709e-06)
(2.35346e-05 1.32284e-05 3.47757e-05)
(4.57976e-05 1.47575e-05 -4.74412e-06)
(5.97981e-05 1.22771e-05 -1.72076e-05)
(6.05353e-05 4.10064e-06 -2.17222e-05)
(4.05002e-05 -4.14196e-06 -1.59845e-05)
(4.27055e-05 -1.29718e-05 -1.73669e-05)
(4.30039e-05 -2.44938e-05 -1.84496e-05)
(2.372e-05 -2.69417e-05 -1.34124e-05)
(1.71207e-06 -2.5814e-05 -1.35611e-05)
(-2.98682e-05 -2.66465e-05 -2.42123e-05)
(-7.3649e-05 -4.24798e-05 -4.02406e-05)
(-0.000113575 -5.73573e-05 -4.20761e-05)
(-0.000237387 -0.00010796 -5.83127e-05)
(-0.000376432 -0.000154374 -5.93436e-05)
(-0.000489666 -0.000179807 -4.63318e-05)
(-0.000600609 -0.000197506 -2.93497e-05)
(-0.000680249 -0.000202167 -1.00672e-05)
(-0.000762155 -0.000206881 8.36268e-06)
(-0.000833708 -0.000209486 2.52623e-05)
(-0.000888734 -0.000209703 3.97714e-05)
(-0.000935907 -0.000210199 5.17675e-05)
(-0.000975535 -0.00021118 6.11174e-05)
(-0.00101182 -0.000213395 6.80099e-05)
(-0.00104348 -0.000216328 7.22326e-05)
(-0.00107104 -0.000219695 7.36842e-05)
(-0.0010955 -0.00022327 7.2396e-05)
(-0.00111838 -0.000226908 6.84275e-05)
(-0.00114036 -0.00023038 6.19449e-05)
(-0.00116191 -0.000233711 5.29343e-05)
(-0.00118164 -0.000236675 4.11773e-05)
(-0.00119615 -0.000238994 2.62632e-05)
(-0.00120054 -0.000240135 8.87e-06)
(3.20054e-05 1.46729e-05 3.85122e-05)
(6.97441e-05 2.01182e-05 -4.3741e-06)
(9.36871e-05 1.86906e-05 -2.15458e-05)
(0.000106474 9.92539e-06 -3.16401e-05)
(0.00010802 -3.25014e-06 -3.56122e-05)
(9.16229e-05 -1.54383e-05 -3.22874e-05)
(5.10622e-05 -1.78926e-05 -1.88245e-05)
(2.88307e-05 -1.80794e-05 -1.04313e-05)
(2.55228e-05 -2.87576e-05 -8.84581e-06)
(2.17123e-06 -1.52919e-05 -4.75794e-06)
(-2.01999e-05 -1.66234e-05 -1.42613e-05)
(-5.25881e-05 -2.61195e-05 -2.69689e-05)
(-9.58888e-05 -4.29393e-05 -3.49816e-05)
(-0.000230303 -9.48274e-05 -5.56275e-05)
(-0.000362371 -0.000134608 -5.62754e-05)
(-0.000457477 -0.000152594 -4.30016e-05)
(-0.000563593 -0.00016861 -2.72906e-05)
(-0.000636092 -0.000172663 -9.15935e-06)
(-0.000697065 -0.00017381 8.12159e-06)
(-0.000758392 -0.000176026 2.3788e-05)
(-0.00081068 -0.000177768 3.73097e-05)
(-0.000855703 -0.000179784 4.83906e-05)
(-0.00089054 -0.000181602 5.66063e-05)
(-0.000918461 -0.000183757 6.18806e-05)
(-0.0009422 -0.000186381 6.42325e-05)
(-0.000963464 -0.000189359 6.3794e-05)
(-0.00098334 -0.000192418 6.0657e-05)
(-0.00100327 -0.000195449 5.51361e-05)
(-0.00102211 -0.000198202 4.72208e-05)
(-0.00103929 -0.000200623 3.67973e-05)
(-0.00105185 -0.000202517 2.3551e-05)
(-0.00105533 -0.000203466 7.98701e-06)
(3.89083e-05 1.55962e-05 4.25123e-05)
(7.84345e-05 2.16547e-05 -2.41301e-06)
(0.000108085 2.25094e-05 -2.07443e-05)
(0.000126189 1.58586e-05 -3.27685e-05)
(0.000131528 3.4352e-06 -3.98732e-05)
(0.000126367 -1.12488e-05 -4.2074e-05)
(0.000113367 -2.56013e-05 -3.94861e-05)
(7.68391e-05 -3.12485e-05 -2.67461e-05)
(4.00832e-05 -2.66761e-05 -1.32072e-05)
(2.87198e-05 -3.42137e-05 -8.07358e-06)
(2.38919e-06 -2.31374e-05 -4.36767e-06)
(-3.29398e-05 -2.17831e-05 -2.09409e-05)
(-7.38455e-05 -3.21419e-05 -3.77944e-05)
(-9.41445e-05 -3.87892e-05 -3.35698e-05)
(-0.000208729 -7.8393e-05 -4.89033e-05)
(-0.000337217 -0.000114351 -5.12721e-05)
(-0.000409402 -0.000125697 -3.74713e-05)
(-0.000499266 -0.000138283 -2.26934e-05)
(-0.000575801 -0.000145444 -6.41849e-06)
(-0.000627916 -0.000146944 9.47177e-06)
(-0.000671005 -0.000147681 2.34695e-05)
(-0.000705403 -0.000148248 3.49739e-05)
(-0.000736275 -0.000149818 4.39648e-05)
(-0.000762653 -0.00015208 5.01557e-05)
(-0.00078388 -0.00015457 5.33375e-05)
(-0.00080139 -0.000157139 5.36566e-05)
(-0.000817423 -0.000159704 5.13418e-05)
(-0.000832774 -0.000162042 4.67775e-05)
(-0.000848564 -0.000164352 4.01764e-05)
(-0.000863342 -0.000166456 3.13948e-05)
(-0.00087391 -0.000168056 2.01801e-05)
(-0.000875753 -0.000168711 6.87073e-06)
(4.3443e-05 1.58311e-05 4.59165e-05)
(7.98594e-05 2.12916e-05 -6.43147e-07)
(0.000111183 2.36864e-05 -1.90207e-05)