/*--------------------------------*- C++ -*----------------------------------*\
  =========                 |
  \\      /  F ield         | OpenFOAM: The Open Source CFD Toolbox
   \\    /   O peration     | Website:  https://openfoam.org
    \\  /    A nd           | Version:  6
     \\/     M anipulation  |
\*---------------------------------------------------------------------------*/
FoamFile
{
    version     2.0;
    format      ascii;
    class       volScalarField;
    location    "9";
    object      yPlus;
}
// * * * * * * * * * * * * * * * * * * * * * * * * * * * * * * * * * * * * * //

dimensions      [0 0 0 0 0 0 0];

internalField   uniform 0;

boundaryField
{
    inlet
    {
        type            calculated;
        value           uniform 0;
    }
    outlet
    {
        type            calculated;
        value           uniform 0;
    }
    roughCylinder
    {
        type            calculated;
        value           nonuniform List<scalar> 
5120
(
96.5829
61.4944
52.604
55.939
61.9704
67.0471
71.2603
74.7897
77.7877
80.4127
82.7913
84.9766
87.0234
88.9645
90.8311
92.6596
94.4917
96.3724
98.3135
100.338
102.45
104.65
106.93
109.277
111.676
114.1
116.515
118.869
121.087
123.063
124.611
125.476
95.3322
61.6658
52.248
54.5227
60.3058
65.3408
69.5317
73.0417
76.0382
78.6752
81.037
83.1969
85.2018
87.092
88.9006
90.6683
92.4385
94.2381
96.1131
98.069
100.109
102.233
104.431
106.697
109.013
111.353
113.684
115.957
118.098
120.006
121.501
122.335
93.611
60.2343
50.9114
53.0124
58.6752
63.6381
67.7874
71.3029
74.3146
76.9425
79.3088
81.4464
83.4131
85.2545
87.0085
88.7147
90.4149
92.164
93.9653
95.8433
97.8065
99.852
101.974
104.159
106.393
108.65
110.898
113.09
115.156
116.997
118.439
119.241
76.5474
59.3019
50.4272
51.5465
56.9254
61.8639
66.0315
69.5556
72.5797
75.2498
77.6067
79.7301
81.664
83.4635
85.1666
86.8185
88.469
90.1346
91.8739
93.6915
95.5878
97.5621
99.6066
101.713
103.866
106.042
108.209
110.322
112.314
114.089
115.478
116.25
91.6303
60.142
49.6322
50.0611
55.2464
60.1325
64.2632
67.8143
70.8927
73.5517
75.9246
78.0389
79.9522
81.7162
83.3764
84.9779
86.559
88.1913
89.8657
91.608
93.4309
95.3314
97.3053
99.3375
101.414
103.511
105.601
107.637
109.558
111.269
112.608
113.35
86.3039
58.9326
48.9318
48.5317
53.384
58.2537
62.4563
66.0524
69.1351
71.87
74.2493
76.3644
78.2673
80.0073
81.6315
83.189
84.7421
86.2902
87.9084
89.6031
91.3697
93.2081
95.1097
97.0684
99.0691
101.091
103.104
105.068
106.919
108.568
109.858
110.571
79.3998
59.9841
48.6306
47.0568
51.6105
56.4606
60.6235
64.2463
67.4411
70.1608
72.5716
74.6971
76.5972
78.3265
79.9257
81.4525
82.9361
84.4739
86.0411
87.6634
89.3603
91.1296
92.9675
94.8585
96.789
98.7385
100.679
102.571
104.355
105.945
107.189
107.873
89.5391
60.557
48.1313
45.5127
49.5592
54.3696
58.677
62.4185
65.588
68.428
70.8702
73.0173
74.9315
76.6583
78.2479
79.7439
81.2334
82.6864
84.2028
85.7935
87.448
89.1655
90.9376
92.7608
94.6209
96.4997
98.3696
100.193
101.912
103.444
104.641
105.298
74.5733
59.2577
47.4487
43.8623
47.565
52.4195
56.6872
60.4194
63.8072
66.637
69.1358
71.3246
73.2563
74.994
76.5782
78.0755
79.4946
80.9682
82.4544
83.9758
85.5625
87.2149
88.9303
90.6925
92.488
94.2993
96.1009
97.8561
99.5132
100.99
102.144
102.773
78.4946
58.5496
47.2103
42.3546
45.1615
49.8833
54.4033
58.4303
61.7372
64.7583
67.3326
69.5693
71.55
73.3123
74.9137
76.3892
77.8594
79.2482
80.6881
82.199
83.7618
85.375
87.0308
88.7292
90.4587
92.2025
93.9368
95.6288
97.2236
98.6456
99.7551
100.356
75.1656
57.1891
46.3605
40.5542
42.7257
47.5816
52.088
55.9941
59.7377
62.7719
65.4423
67.7752
69.8029
71.6051
73.2213
74.7379
76.1231
77.5705
79.0079
80.4506
81.944
83.4937
85.0993
86.7428
88.4123
90.0925
91.7615
93.3869
94.9225
96.2932
97.3607
97.9333
69.6194
56.042
46.116
39.1072
39.6863
44.1081
49.0421
53.6782
57.2224
60.5834
63.4188
65.8389
67.9691
69.8358
71.5107
73.0091
74.5098
75.866
77.2543
78.7116
80.205
81.7312
83.2829
84.8662
86.4723
88.0874
89.6917
91.2573
92.7324
94.0493
95.0736
95.6197
73.2968
56.0903
45.3207
37.0092
36.395
41.0538
46.0425
50.2455
54.7581
58.1915
61.1982
63.8198
66.0473
68.0004
69.7152
71.3182
72.7055
74.1716
75.5981
76.9853
78.4025
79.8625
81.3706
82.9049
84.4558
86.0104
87.5511
89.0502
90.4682
91.7361
92.7199
93.2371
65.8242
54.2325
44.762
35.5348
31.9556
35.2208
41.1418
47.3177
51.2808
55.3835
58.7478
61.527
63.9557
66.0349
67.876
69.4551
71.0586
72.4215
73.7872
75.2231
76.6736
78.1352
79.5951
81.0722
82.5604
84.0513
85.5292
86.9718
88.3307
89.5445
90.4856
90.9766
50.2053
48.2907
42.1683
32.8258
27.0913
30.7166
36.4268
41.1312
47.814
52.0894
55.8252
59.0532
61.6782
63.9369
65.8539
67.6464
69.0816
70.6296
72.098
73.4581
74.819
76.1997
77.6237
79.0577
80.4962
81.9286
83.3429
84.7164
86.0189
87.1851
88.0863
88.5472
29.4676
38.34
36.8204
30.4776
17.6726
11.6077
24.8724
37.076
41.6329
47.8872
52.5072
56.0567
59.1051
61.5975
63.7659
65.5083
67.3278
68.7477
70.1245
71.5824
73.024
74.4517
75.8327
77.2107
78.5844
79.9527
81.3047
82.6258
83.8683
84.9793
85.8369
86.2717
11.2431
22.858
23.6201
15.8119
10.1243
1.15926
11.5605
16.5085
35.9692
42.2789
47.9531
52.6277
56.1044
58.9963
61.3018
63.4675
65.0101
66.7365
68.3267
69.6934
71.0205
72.3276
73.6809
75.0233
76.3534
77.6631
78.9492
80.1938
81.3794
82.4434
83.2608
83.6624
10.1055
11.5319
9.11935
14.4555
4.79273
15.9354
16.8409
4.65915
10.4914
33.639
42.3454
48.0102
52.5606
55.9299
58.7665
60.8085
63.0478
64.5928
66.0187
67.564
69.0451
70.4833
71.7999
73.0824
74.3399
75.5831
76.8055
78.0032
79.1262
80.131
80.9024
81.2787
1.16957
9.52789
12.5895
14.1995
15.6526
17.1052
17.7979
18.1766
18.4713
8.13361
32.2248
42.165
47.9101
52.3096
55.4152
58.3465
60.0793
62.1588
64.0094
65.4218
66.7386
67.971
69.2662
70.5264
71.7492
72.9297
74.0791
75.1844
76.2467
77.2043
77.9339
78.2699
5.85525
9.50244
5.56236
12.538
1.16655
12.3716
10.4147
10.5179
7.63917
9.89
15.1005
32.0402
42.0303
47.6145
52.0242
54.6476
57.7596
59.5334
61.051
62.8041
64.4069
65.9256
67.1984
68.3813
69.5138
70.6233
71.7061
72.775
73.7701
74.661
75.3397
75.652
5.40773
14.3427
17.3382
17.4639
11.3542
15.2917
22.0218
21.8515
22.3068
20.8923
21.3677
19.3161
31.5634
41.5448
46.6452
51.4074
53.4492
56.2829
58.6857
60.1885
61.5175
62.6636
63.9101
65.1052
66.2191
67.2543
68.249
69.1928
70.1189
70.9613
71.5947
71.8527
7.65539
17.9761
22.949
26.549
28.6311
26.5429
15.8735
11.4503
19.9908
4.24288
13.5087
14.2167
15.822
31.0864
41.2255
45.2131
50.5497
52.722
54.3871
56.6262
58.5351
60.2643
61.5398
62.6019
63.5878
64.5465
65.4716
66.4057
67.2583
68.0223
68.5972
68.8364
7.06522
17.4028
23.2489
27.5271
30.1967
31.6257
32.042
24.9404
16.4492
22.6318
19.8805
24.4709
21.7207
15.8838
28.9904
40.4029
42.83
47.7495
51.46
53.1062
54.4425
55.478
56.671
57.8513
58.8582
59.7181
60.5231
61.2588
62.0283
62.7422
63.2651
63.4199
6.69014
16.0805
22.2504
27.0534
30.6508
32.8571
33.1762
32.8731
27.6769
19.0791
11.4428
21.327
24.9309
14.6002
14.0978
24.7788
39.2092
41.819
43.8465
47.4335
50.2085
52.4738
53.9075
54.7828
55.5744
56.3492
57.0885
57.899
58.5874
59.2056
59.6607
59.8157
5.9758
14.252
20.0453
24.6179
28.1975
30.9483
32.9263
33.2774
32.6488
29.3514
9.28794
11.7822
20.8835
16.9027
15.077
8.52548
14.1727
32.85
40.1668
41.9985
43.2946
43.9703
45.0243
46.3927
47.32
47.9563
48.4967
48.8845
49.4758
50.0435
50.4453
50.4135
5.44107
13.3117
18.3576
22.5122
25.9311
28.6692
30.5926
31.8882
32.1976
31.4259
31.8502
13.7233
29.8657
21.6171
18.4743
23.9133
13.8486
0.898915
18.2047
29.4514
34.8798
39.9506
42.1866
42.6184
43.109
43.5273
44.035
44.9466
45.4162
45.8978
46.105
46.2817
4.62544
11.9624
15.6867
19.1589
22.2993
25.0595
27.3693
29.0059
30.1244
30.9663
29.9577
31.7552
18.3207
13.7252
28.2486
19.2727
14.9792
15.1104
24.0788
8.03506
21.1741
11.9008
12.2755
17.0443
18.6722
20.2973
20.1884
17.4586
17.7714
18.466
20.4714
17.7864
4.698
12.0578
13.5014
15.5785
18.0762
20.6337
22.9581
25.0024
26.7232
28.1268
29.9708
29.4311
31.2472
19.3427
26.8263
18.4302
21.0755
9.93512
24.101
18.5563
8.24759
26.5766
18.3488
20.2915
4.82878
28.2186
28.9663
9.81932
22.9411
11.2505
31.483
10.968
4.24621
12.3857
11.9054
12.5621
14.0025
15.9865
18.2115
20.4233
22.6092
24.7899
26.5336
29.0849
29.2808
31.1734
21.6124
13.8485
10.4905
9.43316
24.9695
12.1257
27.0578
20.6397
10.47
2.13354
22.2783
4.6451
10.146
30.415
12.1141
30.0278
21.5251
30.4549
4.05643
11.6086
11.8272
11.977
12.5406
13.6574
15.1645
16.956
18.958
21.1107
23.5481
25.4047
28.2012
28.9425
30.9764
23.87
22.8712
4.81502
6.9769
13.1045
23.959
15.717
29.3967
18.2059
10.2083
25.0352
4.75333
24.5197
30.6923
3.45094
31.7933
30.8942
3.71881
11.6481
11.6083
11.6366
12.2358
13.2874
14.5358
15.838
17.2325
18.8169
20.5323
22.869
24.7433
27.6486
28.8321
30.8538
27.5714
12.4779
7.45618
13.1359
22.816
23.1544
26.7619
19.5003
11.4933
26.7285
18.594
28.1218
32.7187
25.9686
32.6855
34.0978
3.6985
11.3167
11.7494
11.7134
12.5195
13.7482
15.05
16.2745
17.3708
18.3667
19.4607
20.5282
22.44
24.2127
27.194
28.9075
30.5096
31.4322
25.2669
11.3559
22.1055
23.96
28.4857
16.6291
29.4832
33.7773
28.4394
13.91
20.5234
27.7665
18.2833
31.5166
3.64482
11.1971
11.4751
11.9727
13.067
14.4259
15.7641
16.9772
18.0477
18.9623
19.6706
20.4281
21.0057
22.4312
23.9913
26.8419
29.1281
30.1329
31.0895
31.0078
26.536
22.7475
19.9786
17.8492
18.1562
20.0983
19.3115
19.5869
18.4097
19.4176
19.3889
20.4764
3.67853
11.582
11.6242
12.5961
14.0476
15.5388
16.8866
18.0585
19.0467
19.8577
20.5323
20.9639
21.4384
21.673
22.6797
24.0361
26.5035
29.1058
30.2309
30.4078
30.6793
30.6211
30.6131
30.5652
30.4414
30.2643
30.1228
30.2544
30.4413
30.3781
30.5456
30.6135
3.74175
11.8155
12.2142
13.6735
15.3167
16.8118
18.1184
19.26
20.2402
21.0421
21.64
22.1061
22.3121
22.5577
22.5586
23.178
24.3287
26.2043
28.4328
29.8703
30.1571
29.82
29.0698
28.3528
27.7454
27.4041
27.1821
27.1346
27.0638
27.17
27.314
27.41
3.77551
11.8718
13.1663
15.0546
16.7773
18.2463
19.5241
20.6415
21.5925
22.3746
22.9918
23.3959
23.6689
23.679
23.731
23.6032
23.8819
24.7926
26.1161
27.5565
28.61
29.0475
28.9926
28.6129
28.1026
27.6381
27.3459
27.3172
27.4132
27.5494
27.7108
27.8637
3.91956
11.4588
14.2839
16.5053
18.252
19.6857
20.9406
22.0559
23.026
23.836
24.4692
24.9345
25.173
25.2754
25.1206
24.9829
24.7809
24.7762
25.3225
26.2301
27.0345
27.4111
27.2558
26.7419
26.1093
25.6069
25.3259
25.3174
25.4248
25.6599
25.9126
26.1142
4.41432
12.4846
15.7554
18.0402
19.7218
21.1258
22.3887
23.5231
24.5159
25.3607
26.0489
26.5496
26.8745
26.9624
26.9109
26.6308
26.3158
26.0453
25.8706
25.9785
26.3599
26.7043
26.769
26.532
26.1265
25.7553
25.5804
25.6623
25.9205
26.2355
26.5435
26.7883
5.48489
14.1441
17.2615
19.4143
21.0681
22.5
23.8001
24.9765
26.0228
26.9296
27.6808
28.2633
28.6415
28.8344
28.7849
28.5845
28.2073
27.7413
27.339
27.0593
26.893
26.7941
26.6166
26.2922
25.8951
25.5938
25.5
25.6599
25.9726
26.3753
26.7581
27.0532
6.45656
15.2972
18.5006
20.6815
22.3667
23.8452
25.1992
26.4332
27.5413
28.5166
29.3445
30.0001
30.4739
30.7318
30.7967
30.6273
30.2873
29.8167
29.246
28.6787
28.2157
27.8479
27.5171
27.1746
26.8427
26.6178
26.6044
26.8272
27.2286
27.6928
28.124
28.4465
7.58108
8.78678
10.0948
11.1104
11.1274
11.7219
11.304
11.4482
11.7612
11.8522
11.445
11.5102
11.4838
10.356
9.72787
9.1034
8.66466
8.32647
8.11167
8.00776
8.01031
8.11947
8.33958
8.68237
9.12757
9.75525
10.3721
11.5622
11.3928
11.4802
11.56
11.7527
11.5821
11.6692
11.7359
11.1263
11.1129
10.1012
8.79575
7.59058
16.3023
17.0032
17.5746
17.9572
18.1808
18.347
18.415
18.4484
18.4235
18.3702
18.2678
18.1407
18.0042
17.8238
17.7123
17.5935
17.5182
17.4526
17.414
17.3953
17.3962
17.4167
17.4573
17.5243
17.6021
17.7217
17.8326
18.0214
18.157
18.2808
18.3782
18.4327
18.4669
18.4318
18.3545
18.1855
17.9618
17.5793
17.0088
16.3087
19.3975
19.9206
20.2998
20.5593
20.7327
20.8377
20.8858
20.8891
20.8613
20.8088
20.7408
20.6627
20.5897
20.52
20.4664
20.4175
20.3855
20.3603
20.3463
20.3401
20.3409
20.3486
20.3642
20.3909
20.4246
20.4745
20.5291
20.6006
20.6741
20.7516
20.8191
20.8707
20.8982
20.8934
20.844
20.7372
20.5629
20.3023
19.9235
19.4007
21.5194
21.9397
22.2649
22.4982
22.6765
22.7908
22.8732
22.9152
22.9444
22.9541
22.9617
22.961
22.9662
22.9717
22.9835
22.9973
23.0148
23.0311
23.045
23.0531
23.0536
23.0466
23.0339
23.0189
23.0028
22.9903
22.9795
22.9749
22.9704
22.9711
22.9634
22.953
22.9232
22.8798
22.7963
22.6802
22.5006
22.2658
21.94
21.5197
23.2292
23.6042
23.9451
24.185
24.4009
24.5519
24.6936
24.799
24.9049
24.9917
25.0838
25.1674
25.2579
25.3462
25.4375
25.5248
25.6066
25.6757
25.7268
25.7537
25.7536
25.7266
25.6757
25.6073
25.5264
25.4402
25.3501
25.2628
25.1731
25.0899
24.998
24.9108
24.8046
24.6983
24.5556
24.4033
24.186
23.9448
23.6027
23.2276
24.7613
25.1134
25.4896
25.7452
26.0117
26.2094
26.419
26.5895
26.7721
26.9355
27.1099
27.2764
27.4507
27.6211
27.791
27.951
28.0965
28.2172
28.3043
28.3489
28.3483
28.3022
28.2144
28.0937
27.9487
27.7894
27.6206
27.4512
27.2779
27.112
26.9381
26.7746
26.5919
26.4207
26.2104
26.0117
25.7439
25.4873
25.1099
24.7576
26.1702
26.5114
26.9278
27.2049
27.5263
27.77
28.0424
28.2739
28.5261
28.7601
29.0088
29.2507
29.5004
29.7443
29.9842
30.2079
30.4084
30.5728
30.69
30.7489
30.7478
30.6867
30.568
30.4029
30.2023
29.9792
29.7402
29.4972
29.2486
29.0075
28.7594
28.5256
28.2733
28.0414
27.7683
27.5236
27.2012
26.923
26.5058
26.1639
27.4612
27.8009
28.2596
28.563
28.9339
29.221
29.549
29.8357
30.1488
30.4451
30.7583
31.0655
31.3795
31.686
31.984
32.2602
32.5051
32.7041
32.8445
32.9142
32.9129
32.8404
32.6981
32.4978
32.2525
31.9766
31.6794
31.3739
31.0609
30.7546
30.442
30.1458
29.8329
29.5457
29.2172
28.9291
28.5573
28.2526
27.7933
27.4526
28.6316
28.9759
29.4778
29.8066
30.2222
30.549
30.9252
31.2607
31.6257
31.9757
32.3429
32.7044
33.0708
33.4272
33.7708
34.0871
34.3651
34.5894
34.7461
34.8231
34.8217
34.7417
34.5827
34.357
34.0785
33.7622
33.4193
33.0637
32.6983
32.3377
31.9711
31.6215
31.2565
30.9206
30.5439
30.216
29.7996
29.4693
28.9668
28.6213
29.6716
30.0244
30.5686
30.9225
31.3784
31.7414
32.1593
32.5371
32.9459
33.3403
33.7513
34.1558
34.5624
34.9561
35.3322
35.6763
35.976
36.216
36.3823
36.4633
36.4619
36.3781
36.2095
35.9681
35.6676
35.3236
34.9479
34.5551
34.1493
33.7456
33.3353
32.9411
32.5324
32.1541
31.7357
31.3716
30.9148
30.5595
30.0147
29.6606
30.5645
30.9316
31.5169
31.8973
32.39
32.7867
33.2413
33.6559
34.1011
34.5319
34.9772
35.4144
35.8501
36.2696
36.667
37.0276
37.3393
37.5868
37.7571
37.8392
37.838
37.7533
37.581
37.3321
37.0198
36.659
36.2621
35.8434
35.4083
34.9719
34.5273
34.0967
33.6515
33.2365
32.7813
32.3835
31.8899
31.508
30.922
30.5536
31.2937
31.6801
32.3097
32.7184
33.2475
33.6766
34.1647
34.6118
35.0882
35.549
36.0211
36.4825
36.9387
37.3746
37.784
38.1527
38.4686
38.7177
38.8878
38.969
38.968
38.8847
38.713
38.4628
38.1463
37.7775
37.3685
36.9333
36.4778
36.0171
35.5453
35.0848
34.6085
34.1607
33.6721
33.2418
32.7117
32.3016
31.6712
31.2837
31.8365
32.2593
32.9338
33.378
33.9432
34.4065
34.9264
35.4045
35.9083
36.3945
36.8882
37.3679
37.8379
38.2837
38.6987
39.0696
39.3848
39.6316
39.7988
39.8781
39.8774
39.7966
39.628
39.3806
39.065
38.6942
38.2796
37.8344
37.3652
36.886
36.3926
35.9065
35.4026
34.924
34.4035
33.939
33.3729
32.9272
32.2519
31.8278
32.1907
32.6508
33.3856
33.8673
34.4754
34.9734
35.527
36.0347
36.5649
37.074
37.5862
38.0803
38.5602
39.0117
39.4285
39.7982
40.1099
40.3522
40.5156
40.5925
40.5921
40.5142
40.3502
40.1075
39.7956
39.4263
39.01
38.5591
38.0799
37.5862
37.0744
36.5654
36.0351
35.5268
34.9724
34.4733
33.8641
33.381
32.6454
32.1841
32.3241
32.855
33.6501
34.1859
34.8379
35.3775
35.9655
36.505
37.061
37.5924
38.1214
38.6283
39.116
39.5713
39.9882
40.355
40.6622
40.8998
41.0589
41.1335
41.1334
41.0584
40.8991
40.6617
40.3547
39.9884
39.5722
39.1176
38.6306
38.1242
37.5954
37.0641
36.5079
35.9678
35.3791
34.8381
34.1851
33.6479
32.8518
32.3194
32.2603
32.8466
33.7265
34.3214
35.0286
35.6131
36.2403
36.813
37.3967
37.9507
38.4968
39.0161
39.5112
39.9699
40.3865
40.7506
41.0537
41.2866
41.4421
41.5148
41.515
41.4425
41.2874
41.055
40.7527
40.3894
39.9737
39.5157
39.0214
38.5026
37.9568
37.4028
36.819
36.2456
35.6176
35.0318
34.3234
33.727
32.846
32.2579
31.9844
32.6383
33.5982
34.268
35.0365
35.6735
36.3435
36.9534
37.5668
38.1452
38.7096
39.2423
39.7458
40.2087
40.626
40.9885
41.2882
41.5177
41.6704
41.7418
41.7423
41.6718
41.52
41.2916
40.9928
40.6316
40.2153
39.7534
39.2507
38.7188
38.1546
37.5763
36.9627
36.3521
35.6812
35.0429
34.273
33.6014
32.6404
31.9833
31.5176
32.2396
33.2618
34.0153
34.85
35.548
36.2642
36.916
37.5617
38.1677
38.7525
39.3007
39.8144
40.2835
40.7035
41.0659
41.3643
41.5918
41.7429
41.8136
41.8144
41.7451
41.5956
41.3696
41.0726
40.7117
40.2931
39.8252
39.3125
38.7651
38.1806
37.5748
36.9287
36.2761
35.5589
34.8595
34.0231
33.2678
32.2429
31.5206
30.9328
31.6529
32.7329
33.5512
34.4581
35.2232
35.9917
36.6892
37.3713
38.008
38.6165
39.1832
39.71
40.188
40.6131
40.9783
41.2774
41.5048
41.6556
41.7264
41.7275
41.6586
41.5099
41.2846
40.9873
40.6241
40.2006
39.7239
39.1984
38.6325
38.0244
37.3878
36.7054
36.0069
35.2372
34.4703
33.5617
32.7404
31.6589
30.9331
30.2724
30.9395
32.0396
32.901
33.8691
34.6993
35.5231
36.2686
36.9903
37.6606
38.2961
38.8846
39.4277
39.9178
40.3513
40.7218
41.0243
41.2536
41.4056
41.4774
41.4787
41.4095
41.2601
41.0333
40.7332
40.3649
39.9333
39.4448
38.903
38.3155
37.6804
37.01
36.2878
35.5414
34.716
33.8838
32.913
32.0493
30.9445
30.276
29.5978
30.1699
31.2309
32.1066
33.1092
33.9942
34.8712
35.6643
36.4262
37.1319
37.7967
38.4095
38.9719
39.4771
39.9218
40.3004
40.6085
40.8418
40.9964
41.0698
41.0713
41.001
40.8495
40.6193
40.3139
39.9378
39.4953
38.992
38.4311
37.8193
37.1551
36.4492
35.6867
34.8923
34.0133
33.1257
32.1203
31.2409
30.1756
29.6002
28.9703
29.4091
30.3843
31.2384
32.2448
33.1633
34.0798
34.9141
35.7117
36.4508
37.144
37.7814
38.364
38.8857
39.3433
39.7318
40.0473
40.2858
40.444
40.5196
40.5215
40.4495
40.2948
40.0597
39.7473
39.3617
38.9066
38.3871
37.806
37.1697
36.477
35.7376
34.9392
34.1032
33.1846
32.2629
31.2536
30.3949
29.4164
28.971
28.4012
28.7126
29.5753
30.3802
31.3598
32.2856
33.2209
34.0855
34.9097
35.6757
36.3924
37.0512
37.6518
38.1886
38.6585
39.0568
39.3798
39.6237
39.7857
39.8638
39.8659
39.7919
39.6339
39.3938
39.0744
38.6793
38.2123
37.6777
37.0789
36.4212
35.705
34.9388
34.1136
33.2471
32.3092
31.3803
30.3969
29.588
28.7202
28.4045
27.8965
28.1193
28.8801
29.6264
30.5625
31.4734
32.4066
33.2821
34.1183
34.8987
35.6294
36.3016
36.9141
37.4612
37.9397
38.3449
38.6733
38.9215
39.0865
39.1666
39.1689
39.0934
38.9328
38.689
38.3645
37.9629
37.4876
36.943
36.3325
35.6615
34.9315
34.1508
33.3135
32.4359
31.5003
30.586
29.6463
28.8958
28.1306
27.9036
27.4906
27.6771
28.3683
29.0655
29.9553
30.8382
31.7518
32.6191
33.4514
34.232
34.964
35.6388
36.2537
36.8034
37.2838
37.6908
38.0207
38.2701
38.4361
38.5171
38.5197
38.4438
38.2826
38.0381
37.7126
37.3095
36.8326
36.2858
35.6732
34.9999
34.2687
33.488
32.6547
31.7853
30.8689
29.9827
29.0896
28.3876
27.6939
27.5012
27.2605
27.4456
28.1025
28.7658
29.6169
30.4673
31.352
32.197
33.0123
33.78
34.5014
35.1673
35.7746
36.3177
36.7926
37.195
37.5211
37.7678
37.9324
38.0131
38.016
37.9408
37.7816
37.54
37.2188
36.8208
36.3498
35.81
35.2052
34.5411
33.8208
33.0531
32.2369
31.39
30.5027
29.6492
28.7944
28.1275
27.4666
27.2779
27.2717
27.4728
28.1184
28.7614
29.5834
30.4026
31.2551
32.0702
32.8604
33.6064
34.3083
34.9568
35.5484
36.0775
36.5402
36.9321
37.25
37.4905
37.6511
37.7302
37.7333
37.6602
37.5053
37.2704
36.9578
36.5705
36.1121
35.5866
34.9979
34.3514
33.6508
32.9051
32.1141
31.2972
30.442
29.6198
28.794
28.1474
27.4975
27.2935
27.5358
27.7507
28.3973
29.0273
29.8285
30.6203
31.4426
32.2275
32.9907
33.7119
34.3906
35.0174
35.5892
36.1002
36.5469
36.9252
37.2319
37.4641
37.6193
37.6958
37.699
37.6288
37.4797
37.2533
36.9521
36.5788
36.1365
35.6293
35.0607
34.4361
33.7588
33.0381
32.2743
31.4877
30.6624
29.867
29.0615
28.4277
27.7757
27.5591
27.9815
28.2122
28.8656
29.4892
30.2755
31.045
31.8411
32.6013
33.3408
34.0388
34.695
35.3004
35.852
36.3446
36.7748
37.139
37.434
37.6572
37.8064
37.8799
37.8832
37.8161
37.6731
37.4559
37.1664
36.8075
36.3819
35.8931
35.3448
34.7417
34.087
33.3896
32.6496
31.8876
31.088
30.3144
29.5235
28.8942
28.2369
27.997
28.4908
28.7475
29.4117
30.0372
30.816
31.5709
32.348
33.0894
33.81
34.4888
35.1264
35.7136
36.2478
36.7244
37.14
37.4915
37.7762
37.9914
38.1351
38.2059
38.2091
38.1448
38.0071
37.7977
37.5186
37.1721
36.7609
36.2882
35.7571
35.1722
34.5362
33.8578
33.1367
32.3933
31.6129
30.8543
30.0705
29.4408
28.7702
28.5117
28.9739
29.2462
29.9263
30.5554
31.3328
32.079
32.8441
33.5731
34.2808
34.9467
35.5709
36.1451
36.6669
37.1319
37.5371
37.8794
38.1564
38.3656
38.5052
38.5738
38.5769
38.5146
38.3809
38.1773
37.9056
37.5681
37.1672
36.706
36.1871
35.6149
34.9918
34.3264
33.6177
32.8866
32.1177
31.3675
30.5848
29.9513
29.2647
28.9895
29.3369
29.6142
30.3045
30.9326
31.7082
32.4474
33.2058
33.9276
34.6283
35.2867
35.9037
36.4709
36.9859
37.4447
37.8441
38.1815
38.4544
38.6604
38.7978
38.8653
38.8684
38.8071
38.6755
38.4749
38.2071
37.8744
37.479
37.0238
36.5114
35.9461
35.33
34.6717
33.9698
33.2457
32.4836
31.739
30.9572
30.3229
29.6261
29.344
95.5359
62.085
53.0338
55.984
61.9684
67.0455
71.2582
74.7873
77.7854
80.4105
82.7893
84.9742
87.0205
88.9617
90.8286
92.6567
94.4888
96.3692
98.3102
100.334
102.447
104.646
106.926
109.273
111.672
114.096
116.51
118.864
121.082
123.058
124.606
125.471
93.0263
59.9279
51.5316
54.4465
60.3039
65.3391
69.5306
73.041
76.0371
78.6732
81.0343
83.1943
85.1998
87.0896
88.8976
90.6654
92.4353
94.235
96.1099
98.0657
100.106
102.228
104.428
106.693
109.008
111.348
113.679
115.952
118.093
120.001
121.495
122.329
94.9911
61.7098
51.487
53.071
58.6761
63.637
67.7847
71.2988
74.3104
76.9393
79.3068
81.4441
83.4098
85.2514
87.0057
88.7116
90.4118
92.1607
93.9618
95.8395
97.8027
99.8482
101.97
104.155
106.389
108.646
110.894
113.085
115.151
116.992
118.434
119.235
90.8935
59.471
50.1604
51.5085
56.9257
61.8639
66.0317
69.5568
72.5807
75.2488
77.6032
79.7262
81.6612
83.4606
85.1632
86.8151
88.4654
90.1311
91.8702
93.6878
95.584
97.5578
99.6024
101.709
103.861
106.037
108.204
110.317
112.309
114.083
115.472
116.244
80.2037
60.1303
49.8062
50.0766
55.2456
60.13
64.2587
67.807
70.8843
73.5452
75.9213
78.0368
79.9488
81.7124
83.373
84.9744
86.5555
88.1875
89.8618
91.6039
93.4266
95.3277
97.3007
99.333
101.409
103.506
105.595
107.632
109.552
111.263
112.602
113.344
70.4212
58.2278
49.0343
48.5464
53.3865
58.2533
62.4561
66.0545
69.1386
71.8714
74.2464
76.359
78.263
80.0037
81.6275
83.1849
84.7379
86.2861
87.9042
89.5988
91.3654
93.2036
95.1051
97.0634
99.0643
101.086
103.099
105.062
106.913
108.562
109.851
110.564
97.2237
60.175
48.3342
47.0332
51.608
56.4576
60.6176
64.2363
67.4282
70.1493
72.5642
74.6939
76.5934
78.3219
79.9213
81.4485
82.9321
84.4695
86.0368
87.6591
89.3559
91.1248
92.9625
94.8536
96.7837
98.7329
100.673
102.565
104.349
105.939
107.182
107.866
80.9364
60.0878
47.9512
45.4759
49.5539
54.3636
58.6728
62.4184
65.5914
68.4306
70.8698
73.0116
74.9256
76.6535
78.2431
79.7387
81.2283
82.6816
84.1979
85.7884
87.4425
89.1607
90.9323
92.755
94.6152
96.4937
98.3633
100.187
101.905
103.437
104.634
105.29
87.7627
60.7413
47.6322
43.8726
47.5634
52.4169
56.6811
60.408
63.7914
66.6221
69.1221
71.3171
73.2507
74.9882
76.5722
78.0705
79.4897
80.9628
82.4493
83.971
85.5581
87.2089
88.9246
90.6867
92.4823
94.2929
96.0942
97.8491
99.5058
100.983
102.136
102.764
71.7692
59.3977
47.7055
42.4015
45.1484
49.8684
54.3926
58.4263
61.7391
64.7584
67.3346
69.5662
71.5439
73.3056
74.9083
76.3827
77.8531
79.2426
80.682
82.1924
83.7542
85.3696
87.0246
88.7227
90.4517
92.1956
93.9296
95.6209
97.2154
98.6376
99.7467
100.347
81.8841
58.9014
46.9506
40.6939
42.7384
47.5866
52.0843
55.9803
59.7157
62.7547
65.4223
67.7595
69.7923
71.598
73.2125
74.7314
76.1169
77.5635
79.0016
80.445
81.94
83.4861
85.0922
86.7358
88.4053
90.0843
91.753
93.3781
94.9134
96.2843
97.3507
97.923
69.1644
57.7369
46.8068
39.2677
39.6912
44.0736
49.0172
53.6689
57.2278
60.581
63.4202
65.8394
67.9648
69.8259
71.505
73.0011
74.5018
75.8594
77.247
78.7033
80.1942
81.725
83.2757
84.8583
86.4638
88.0791
89.6827
91.2476
92.7225
94.0392
95.0636
95.6085
72.4645
55.968
45.2765
36.9731
36.3784
41.0751
46.0443
50.2238
54.7157
58.1657
61.1728
63.7948
66.0293
67.9931
69.702
71.3091
72.6976
74.1624
75.5897
76.9781
78.399
79.8528
81.3615
82.8963
84.447
86.0001
87.5408
89.0392
90.4573
91.7246
92.7073
93.2241
65.2534
53.9239
44.5508
35.381
31.8716
35.1005
41.0676
47.2934
51.298
55.3759
58.7422
61.527
63.9508
66.0174
67.8701
69.4455
71.0483
72.4135
73.7788
75.2134
76.659
78.1274
79.5867
81.0621
82.5499
84.0415
85.5182
86.9603
88.3185
89.532
90.4728
90.9627
49.9518
48.0781
41.9429
32.5568
26.9248
30.7606
36.4529
41.0974
47.7258
52.065
55.8027
59.0237
61.6576
63.9346
65.8355
67.6336
69.0715
70.6174
72.0861
73.4477
74.8149
76.188
77.6117
79.0472
80.4852
81.9154
83.33
84.7028
86.0049
87.1711
88.0709
88.5306
28.7455
38.1147
36.5756
30.1346
17.0988
10.7847
24.7088
36.9745
41.7035
47.8315
52.4643
56.0421
59.0845
61.5604
63.7565
65.4961
67.3142
68.7376
70.1158
71.5723
73.0066
74.4408
75.8226
77.1977
78.571
79.9407
81.2909
82.6113
83.8534
84.9636
85.8213
86.2549
14.4936
22.8491
23.584
15.4491
9.84253
3.25697
3.67305
17.0756
35.5239
42.251
47.9777
52.6042
56.0988
59.0127
61.2825
63.4511
64.9967
66.7203
68.308
69.6769
71.0123
72.3145
73.6653
75.0104
76.3392
77.6456
78.9323
80.1761
81.3611
82.4254
83.2405
83.6406
9.62474
9.40139
9.88314
7.42206
4.68903
15.9585
16.5568
18.228
14.6481
33.7196
42.0977
47.9547
52.4956
55.8478
58.7407
60.7889
63.029
64.5793
66.0122
67.5542
69.027
70.4662
71.7864
73.0649
74.3229
75.5683
76.7878
77.9848
79.1072
80.111
80.8833
81.257
2.23954
3.11488
11.9979
14.0183
15.917
16.9021
3.72276
18.165
7.18593
8.09413
33.2124
42.178
47.9259
52.3702
55.4084
58.3296
60.0621
62.1375
63.9773
65.3973
66.7222
67.9584
69.2474
70.5101
71.7297
72.9057
74.0567
75.1607
76.222
77.181
77.9063
78.2403
10.1229
10.9989
3.40137
15.8747
11.8876
19.2351
19.6282
19.5837
19.6386
6.81449
23.4033
31.724
41.9056
47.4399
51.9543
54.6091
57.7314
59.5136
61.052
62.7916
64.3874
65.8964
67.1761
68.3576
69.4925
70.6048
71.6828
72.7512
73.746
74.6348
75.316
75.6239
5.49057
14.0641
17.3522
17.6395
11.805
18.237
16.9108
22.8295
22.3184
20.8118
20.9201
18.9667
31.7745
41.6734
46.6717
51.3914
53.4256
56.2539
58.6287
60.1564
61.4937
62.6551
63.8938
65.0835
66.1902
67.2198
68.2177
69.1594
70.0835
70.9303
71.5555
71.811
7.70025
18.0645
22.9947
26.5698
28.6308
26.6698
15.6613
16.3965
21.3392
4.68951
14.0116
14.0493
10.8568
30.7905
41.0405
45.1467
50.505
52.6945
54.4008
56.6047
58.4985
60.2118
61.49
62.5683
63.5617
64.5234
65.4402
66.3742
67.2281
67.9863
68.5673
68.7985
7.03295
17.3436
23.2052
27.5008
30.1869
31.6226
32.0521
24.9242
20.4613
27.0633
24.8968
3.41506
21.4722
14.6277
29.0001
40.3254
42.7906
47.6764
51.3649
53.055
54.4393
55.4819
56.6832
57.8213
58.8105
59.6635
60.4749
61.2075
61.9714
62.699
63.2057
63.3568
6.69646
16.0714
22.2309
27.0265
30.6214
32.8297
33.1602
32.8483
27.6242
19.4137
27.566
25.3894
6.4797
22.443
20.4516
25.1646
39.1054
41.8927
43.8643
47.4268
50.071
52.3712
53.7681
54.7292
55.5402
56.321
57.0474
57.8538
58.5491
59.1505
59.6208
59.7612
5.96297
14.2091
20.0016
24.5763
28.1591
30.9147
32.8992
33.2675
32.5998
29.4446
9.84204
27.8542
5.31412
23.5918
22.5437
23.0113
14.693
32.2839
40.0263
41.8051
43.4157
44.0151
45.1661
46.3522
47.2407
47.8461
48.3892
48.8003
49.37
49.9857
50.3398
50.296
5.43255
13.2576
18.3265
22.4876
25.9084
28.6483
30.5737
31.8704
32.2044
31.4133
31.9319
14.6886
14.9083
17.4732
7.53765
22.1008
22.3765
2.37483
17.9976
29.6961
34.773
39.6822
41.7401
42.4518
42.9557
43.5681
44.0946
44.8341
45.2958
45.7567
46.0536
46.2043
4.57869
11.7421
15.6296
19.1422
22.2894
25.0507
27.3617
28.9994
30.1131
30.961
29.9125
31.6718
17.5275
6.73005
22.6617
24.7354
23.4549
16.2314
24.8407
7.30828
15.9454
12.2377
14.1516
18.5119
19.8142
18.0356
18.0082
16.9542
19.1244
18.1955
20.017
17.1115
4.48931
11.4594
13.3906
15.584
18.0952
20.6502
22.9706
25.0116
26.7286
28.1282
29.9932
29.4625
31.3123
19.6549
26.5528
13.6152
12.8645
25.3822
17.9957
25.5649
18.087
18.2326
6.52677
27.6658
27.8271
21.2089
3.13352
22.1659
31.0589
22.9621
31.5207
10.7608
4.31961
11.9922
11.9364
12.5991
14.0404
16.0182
18.2365
20.4426
22.6251
24.7983
26.5198
29.0705
29.2617
31.1748
21.602
16.5832
21.0241
16.8874
11.2446
18.959
26.9161
8.05495
27.0758
18.8579
3.42379
29.965
22.8926
7.98131
22.4017
7.40344
20.8013
30.4575
4.0454
11.587
11.8139
11.9865
12.5551
13.6732
15.1815
16.9738
18.9736
21.1295
23.5748
25.4238
28.2186
28.9538
30.9872
23.9272
22.7018
17.6828
24.2936
11.6607
17.3155
16.7618
15.4583
28.9377
15.6506
19.6554
9.35142
27.1099
18.0513
17.7247
26.0931
1.20898
3.72748
11.6569
11.5558
11.6311
12.2349
13.2807
14.5284
15.8347
17.2361
18.8219
20.5399
22.886
24.7597
27.6667
28.8595
30.8513
27.8573
6.73195
26.3306
28.1103
6.66216
12.9548
22.2128
4.38565
22.7803
18.7703
31.127
19.8215
32.5778
24.5383
2.76391
21.1209
3.62965
11.5087
11.8808
11.7124
12.5138
13.7391
15.0415
16.268
17.3666
18.3692
19.4666
20.5376
22.4594
24.2349
27.2114
28.9664
30.3509
32.4313
25.7324
12.6358
10.0853
10.9847
25.3769
12.701
30.5083
23.6596
5.52195
28.9031
9.97164
16.1184
26.5589
19.0793
3.65874
11.7577
11.5216
11.9659
13.0443
14.403
15.7466
16.9658
18.0413
18.9582
19.6729
20.4364
21.018
22.4521
24.0224
26.853
29.2987
29.8405
30.8509
31.4727
27.124
22.8738
19.9057
18.1215
18.5964
18.8832
20.274
19.518
20.1151
18.7783
18.9333
19.6163
3.66088
11.5204
11.5652
12.5558
14.0201
15.5185
16.8716
18.0478
19.0397
19.8545
20.5298
20.9642
21.445
21.6853
22.6973
24.0801
26.4451
29.451
30.4964
30.2734
30.6699
30.7175
30.5878
30.6203
30.3776
30.2286
30.1453
30.1928
30.3135
30.5314
30.5218
30.5906
3.72463
11.7227
12.2081
13.6562
15.2945
16.7934
18.1058
19.2527
20.2364
21.0402
21.6411
22.109
22.3166
22.566
22.5739
23.1901
24.4345
26.098
28.3436
30.0794
30.1814
29.7713
29.0965
28.3317
27.7602
27.3851
27.1752
27.1021
27.1065
27.1101
27.2814
27.399