/*--------------------------------*- C++ -*----------------------------------*\
  =========                 |
  \\      /  F ield         | OpenFOAM: The Open Source CFD Toolbox
   \\    /   O peration     | Website:  https://openfoam.org
    \\  /    A nd           | Version:  6
     \\/     M anipulation  |
\*---------------------------------------------------------------------------*/
FoamFile
{
    version     2.0;
    format      ascii;
    class       volScalarField;
    location    "1.4";
    object      yPlus;
}
// * * * * * * * * * * * * * * * * * * * * * * * * * * * * * * * * * * * * * //

dimensions      [0 0 0 0 0 0 0];

internalField   uniform 0;

boundaryField
{
    inlet
    {
        type            calculated;
        value           uniform 0;
    }
    outlet
    {
        type            calculated;
        value           uniform 0;
    }
    roughCylinder
    {
        type            calculated;
        value           nonuniform List<scalar> 
5120
(
103.443
64.8196
56.6071
60.2891
66.0866
70.9011
74.8669
78.1918
81.066
83.6445
86.0092
88.2179
90.3044
92.2912
94.2075
96.0938
97.9928
99.9398
101.957
104.054
106.236
108.5
110.84
113.247
115.705
118.189
120.66
123.065
125.323
127.323
128.882
129.76
83.4154
64.1147
56.1974
59.1126
64.7111
69.4573
73.3837
76.6896
79.5542
82.1164
84.4462
86.606
88.6326
90.5532
92.3991
94.2116
96.0345
97.9032
99.8396
101.854
103.951
106.128
108.381
110.698
113.065
115.457
117.84
120.161
122.34
124.271
125.777
126.625
101.33
64.6745
55.6619
57.9083
63.3384
68.0275
71.9267
75.2261
78.0887
80.6355
82.9324
85.0415
87.0099
88.8658
90.6425
92.3824
94.1294
95.9195
97.7752
99.7079
101.72
103.811
105.975
108.203
110.48
112.783
115.078
117.314
119.415
121.278
122.731
123.549
90.5486
65.5774
55.4254
56.7858
61.9876
66.6246
70.5081
73.8112
76.6769
79.2103
81.4767
83.5371
85.4473
87.2392
88.9483
90.6176
92.292
94.0073
95.7861
97.6387
99.5693
101.577
103.655
105.795
107.984
110.199
112.407
114.561
116.587
118.384
119.785
120.573
75.539
63.9025
54.8765
55.6414
60.6535
65.2508
69.1276
72.441
75.3129
77.8357
80.075
82.0911
83.9484
85.681
87.3258
88.9276
90.5309
92.1723
93.8751
95.6504
97.5015
99.4274
101.423
103.479
105.582
107.713
109.838
111.912
113.864
115.597
116.949
117.708
96.5784
64.5316
54.4688
54.5856
59.354
63.9104
67.7858
71.1116
73.9914
76.5063
78.7216
80.7019
82.5081
84.1829
85.7669
87.3048
88.8424
90.4159
92.0478
93.7491
95.5239
97.371
99.2855
101.26
103.281
105.329
107.373
109.371
111.252
112.924
114.228
114.96
79.7776
63.4265
53.9267
53.5202
58.0686
62.5928
66.4727
69.8152
72.7055
75.2158
77.414
79.3658
81.1279
82.7522
84.2794
85.7566
87.2294
88.7348
90.2969
91.927
93.6289
95.4009
97.2381
99.1334
101.075
103.044
105.01
106.933
108.746
110.359
111.618
112.323
98.2468
63.9678
53.4705
52.5204
56.8151
61.303
65.189
68.5471
71.4482
73.9595
76.1456
78.0731
79.7991
81.3763
82.8519
84.2741
85.6894
87.1346
88.6323
90.1942
91.8241
93.522
95.2841
97.1031
98.967
100.859
102.751
104.604
106.352
107.908
109.123
109.802
86.9586
64.4101
53.2093
51.5535
55.5619
60.0138
63.9111
67.2915
70.2116
72.7287
74.9094
76.8229
78.5235
80.0614
81.4906
82.8599
84.2173
85.6009
87.0354
88.5327
90.0964
91.7255
93.4152
95.1598
96.9497
98.7675
100.587
102.37
104.054
105.556
106.728
107.383
72.4897
62.5081
52.7985
50.6283
54.3237
58.7316
62.6433
66.0471
68.9856
71.5149
73.7006
75.6024
77.2819
78.7907
80.1807
81.5066
82.8163
84.1474
85.5232
86.9559
88.451
90.009
91.6274
93.2995
95.0159
96.7609
98.5114
100.229
101.854
103.305
104.438
105.069
90.6818
62.9829
52.4823
49.7241
53.059
57.4207
61.3526
64.7865
67.7574
70.3112
72.5033
74.4088
76.0773
77.5614
78.9204
80.2031
81.4633
82.7402
84.0597
85.4349
86.8692
88.3629
89.9119
91.5126
93.157
94.8312
96.5112
98.1628
99.7281
101.127
102.221
102.828
75.5438
61.9585
52.2216
48.8717
51.7836
56.0736
60.0293
63.509
66.5197
69.0984
71.3192
73.2273
74.8908
76.3636
77.697
78.9513
80.1756
81.4067
82.6703
83.9805
85.3456
86.7673
88.2447
89.7732
91.3454
92.9491
94.5633
96.1544
97.6654
99.0192
100.077
100.661
90.4932
62.5733
52.0236
48.0429
50.4491
54.6662
58.6621
62.187
65.2422
67.8764
70.1178
72.0521
73.7203
75.1792
76.4939
77.7146
78.8962
80.0806
81.2967
82.5573
83.8666
85.2274
86.6381
88.0964
89.5973
91.1314
92.6776
94.2044
95.6576
96.9623
97.9825
98.5436
74.964
61.1909
51.5573
47.1642
49.0554
53.1425
57.1695
60.7776
63.9273
66.6069
68.9089
70.8628
72.5483
74.0181
75.3229
76.5268
77.6813
78.8239
79.983
81.1761
82.4151
83.7023
85.0399
86.4267
87.8579
89.3237
90.8068
92.2773
93.6815
94.9459
95.934
96.4755
87.0919
62.1883
51.6088
46.387
47.5668
51.5202
55.6263
59.3191
62.5173
65.2947
67.6432
69.6561
71.3628
72.8307
74.1276
75.3093
76.4294
77.5358
78.6596
79.813
81.0007
82.2309
83.504
84.8205
86.1798
87.576
88.9937
90.4009
91.7494
92.9661
93.9183
94.4367
73.3704
61.3933
51.537
45.6057
45.973
49.6583
53.792
57.6053
61.0072
63.8831
66.3349
68.3902
70.1493
71.6555
72.9685
74.147
75.2491
76.3141
77.3741
78.4536
79.5674
80.7192
81.9157
83.1599
84.4516
85.7814
87.1361
88.4925
89.7962
90.9789
91.903
92.4061
80.5672
61.1884
51.3894
44.8212
44.2226
47.6158
51.8632
55.8789
59.3391
62.3571
64.9118
67.0802
68.8784
70.4046
71.7148
72.8849
73.9655
75.0111
76.0536
77.1041
78.1708
79.2687
80.4005
81.5715
82.7847
84.0444
85.3382
86.6316
87.8818
89.0173
89.9073
90.3861
67.1968
58.8934
50.6603
43.9316
42.2841
45.1599
49.4293
53.5682
57.3983
60.6609
63.3805
65.6318
67.5452
69.1379
70.5095
71.6969
72.767
73.7641
74.7275
75.6931
76.6773
77.686
78.7356
79.833
80.9846
82.1775
83.4022
84.6487
85.8579
86.9665
87.8337
88.3025
71.7392
59.0266
50.6021
43.1565
40.1447
42.27
46.5751
51.2317
55.2566
58.6847
61.6422
64.1002
66.0782
67.7447
69.1111
70.3023
71.3712
72.3758
73.3467
74.2935
75.2348
76.1927
77.1705
78.1833
79.2389
80.3594
81.5356
82.7203
83.881
84.9415
85.7756
86.2184
74.232
57.9222
49.3835
41.846
37.5781
38.7631
43.1536
47.8048
52.3538
56.4401
59.6503
62.2958
64.5115
66.2648
67.7689
69.0149
70.0772
71.0128
71.877
72.7198
73.5592
74.4074
75.2993
76.2421
77.2499
78.2993
79.386
80.5247
81.6402
82.6839
83.5009
83.9434
73.041
58.1162
48.9552
40.6335
34.576
33.7855
37.6037
43.7293
49.2623
53.4683
57.3099
60.314
62.6482
64.6153
66.1125
67.3678
68.4591
69.4432
70.3462
71.1811
71.9829
72.7814
73.5739
74.3993
75.2745
76.248
77.3152
78.3981
79.4884
80.4821
81.2677
81.6762
62.6225
55.0313
47.6408
39.1587
31.0981
28.3845
32.5766
37.9772
43.7965
50.1119
54.2971
57.8421
60.6647
62.7163
64.4753
65.8595
66.9434
67.818
68.5689
69.2622
69.9233
70.5806
71.3011
72.0781
72.9314
73.8253
74.7586
75.7877
76.7939
77.7831
78.5573
78.9857
46.2349
48.1117
44.1251
36.7307
26.5466
13.2235
11.8816
26.9365
38.5018
44.2601
50.7394
54.8877
58.0188
60.6197
62.4003
63.7902
64.9493
65.9291
66.7568
67.4604
68.0902
68.6766
69.2148
69.7956
70.4565
71.2663
72.2329
73.2274
74.2983
75.2411
75.9971
76.3737
27.9913
38.3472
37.8625
32.3576
19.9066
18.7026
17.6444
20.404
19.5309
38.4864
44.7777
51.0759
55.2383
57.9276
60.1709
61.8291
62.9715
63.7775
64.3746
64.8514
65.2663
65.7045
66.2371
66.8292
67.4968
68.2207
68.9865
69.9044
70.7528
71.6997
72.423
72.8575
2.42072
24.2597
26.276
22.8655
16.0757
18.6175
18.4063
18.8873
20.1934
13.0754
38.6043
45.4574
51.0136
55.0071
57.4157
59.0724
60.3689
61.3466
62.0703
62.6037
62.9874
63.1901
63.3424
63.5752
63.9752
64.5877
65.463
66.3982
67.5642
68.5029
69.323
69.6797
13.5471
6.64893
4.44603
10.2484
17.8241
18.6405
19.5803
20.2803
20.5084
20.5763
11.2078
38.7912
46.2012
50.7615
53.9716
56.1724
57.4146
58.1051
58.4337
58.5182
58.5459
58.8302
59.1045
59.4674
59.8876
60.4294
61.0236
61.8589
62.4934
63.4193
63.9453
64.4132
6.7524
10.9111
6.66263
10.0234
18.8887
11.5979
21.3745
22.0258
10.2906
22.2093
21.59
17.8849
38.8123
46.0182
50.0734
52.2033
53.7465
54.714
55.2558
55.5528
55.4893
54.6947
54.2308
53.888
53.8907
54.261
55.1195
56.0495
57.5002
58.5799
59.9944
60.413
2.70216
12.6145
7.55554
14.2706
8.62963
4.84822
7.35805
24.1082
14.1806
15.5424
23.2646
23.2041
24.7617
38.5746
43.6783
47.1618
48.5174
48.8133
48.4802
47.5455
46.7788
47.3538
47.2251
47.1302
47.3593
47.6595
48.0101
49.1152
49.5727
50.613
49.9425
50.4539
12.0953
19.2291
21.2879
16.6721
16.4726
21.2627
8.88121
10.965
22.4393
13.4814
17.8051
13.8577
9.79431
27.5099
38.0424
40.5429
42.4848
43.4499
43.559
43.5797
42.4536
38.5018
35.0513
34.4695
32.5948
32.9804
34.9216
35.2663
38.3412
40.1125
44.9821
45.822
13.279
22.9308
25.3979
24.1984
17.5779
20.2955
10.604
19.036
25.6987
20.8182
28.1984
3.23967
15.2352
19.3149
18.0706
28.4531
29.0769
27.1636
22.8153
14.0064
30.4682
30.7408
19.2895
30.707
30.7146
32.1086
32.1171
13.857
10.3509
16.3897
36.0764
36.6414
12.6929
24.0754
27.8325
27.3827
20.732
3.98512
9.64824
21.9172
31.0814
23.1636
19.5847
22.2107
25.2669
23.6198
15.152
25.0912
11.8581
6.14416
18.2575
26.8494
14.8199
17.7375
20.7157
29.8409
29.5439
20.0866
31.4802
22.9001
32.1553
32.0218
17.9505
21.1345
13.5301
25.6923
29.7326
30.1808
26.0724
16.3749
21.5829
14.5473
18.0108
4.6437
3.27242
16.0945
19.3983
12.7285
23.7602
24.6875
17.5905
15.6252
17.1073
27.6844
20.1211
10.4732
30.8742
22.1645
11.7598
32.6417
23.9072
33.7031
23.0312
14.4601
25.2392
13.5624
13.9403
26.791
31.1653
32.3141
29.775
22.3536
23.0188
12.3635
19.8877
26.2565
21.2943
15.8017
10.4642
20.0187
25.9616
18.8606
5.19925
22.6384
21.6044
29.9482
23.7141
25.6511
12.7271
34.1986
31.5748
21.0266
16.2897
22.9137
34.1887
11.7419
7.71601
35.3993
14.2069
27.464
32.0034
33.684
32.2239
26.5924
13.0932
3.74748
12.5719
16.4968
11.9931
24.8727
27.9944
16.6033
15.2102
23.7416
5.0894
24.9551
30.8277
14.3565
9.5505
12.1055
35.6887
25.3826
32.6028
37.0831
17.0362
25.6902
6.8312
16.421
34.6442
30.7079
14.2354
27.9427
32.6596
34.7198
34.1735
30.5886
23.247
14.3832
18.5888
21.6197
19.3062
14.6495
11.3661
14.7098
23.9055
25.9028
32.7279
37.2418
39.9906
42.4831
45.0963
46.4432
44.8931
42.6329
39.935
36.182
28.1855
18.5425
10.3277
21.6316
8.44542
9.44982
13.8081
27.8628
32.8285
35.3278
35.5798
33.5337
29.3059
25.4084
28.2301
33.1779
35.8292
38.9738
41.7155
44.0474
45.8924
48.9366
49.9898
50.3922
50.8629
51.0646
51.0686
50.9138
50.8471
50.5162
49.1998
47.5828
45.2049
42.7417
39.3692
33.0963
31.4313
28.8861
13.115
27.3951
32.5248
35.2415
35.9023
34.6637
31.7587
28.4253
29.1491
34.6195
39.3028
42.1528
45.2395
48.0494
50.4776
51.8809
52.7486
52.5826
51.1996
50.5902
50.1772
50.2385
50.2691
49.6942
48.4777
46.2285
44.2526
42.3095
41.2136
41.4595
40.8087
39.7195
12.692
27.1424
32.4207
35.4125
36.623
36.3768
34.9297
32.6999
31.9516
36.6904
42.262
46.1352
49.1316
51.3155
52.4152
52.3412
51.051
49.286
46.768
45.2775
44.4007
44.1703
44.7911
45.3982
45.6664
44.8635
43.0586
41.1256
39.4059
37.7412
37.0461
37.4969
12.5634
26.8176
31.7203
34.5516
36.0293
36.6262
36.5598
35.982
35.8469
38.4106
43.5107
47.4499
49.561
49.9581
48.5382
45.5663
42.5506
41.2571
38.8042
37.7154
36.4855
35.6734
35.3256
35.9174
36.6825
36.9862
36.9931
36.4664
35.6293
35.7522
35.1495
34.6122
12.3707
25.7064
29.4017
31.7216
33.5946
35.2442
36.3507
36.7958
37.0388
38.77
43.351
47.4995
48.9309
47.3419
42.8687
36.8826
33.7452
37.1746
37.822
38.528
38.0016
36.2089
33.8808
31.6257
30.6189
30.4389
30.158
29.8504
29.807
29.2756
29.6541
30.3215
10.8567
11.5731
8.91423
7.36339
30.8585
59.1824
82.7715
77.9749
80.2155
70.9936
76.0397
84.6731
59.4106
47.6923
52.5952
19.0991
35.7456
15.2062
22.2603
20.043
20.364
19.6256
24.8831
27.1342
19.1921
61.6822
9.02494
77.9381
73.0202
71.776
71.56
68.8687
76.3026
73.989
59.6536
30.7534
6.73485
9.00479
11.4917
10.8547
22.4563
24.3799
17.7792
18.9819
41.5851
55.7462
61.7963
56.8839
55.171
53.229
51.948
48.9294
42.5325
37.6488
40.217
33.5973
39.6512
35.7534
38.2816
38.0108
38.1377
37.4757
37.7119
38.3357
32.1536
43.0811
35.2816
43.3652
45.7502
50.1326
52.4652
55.0764
56.0547
59.7856
56.2417
41.5729
18.1691
17.7714
24.3343
22.4394
26.4436
29.1146
18.4007
25.0325
45.5757
51.3028
50.5542
46.9176
45.5689
44.2637
43.4569
42.6793
41.575
41.7166
42.4824
42.2929
44.3345
44.1092
45.5786
45.8355
45.895
45.2939
44.7447
44.1149
42.0085
42.9719
41.8286
41.5172
42.056
43.2114
43.794
46.0231
46.8138
50.25
51.6999
45.6116
24.3708
18.217
29.1371
26.4272
30.5514
33.1867
24.4983
35.9488
47.3535
46.6459
45.4667
44.0975
44.1994
44.2196
44.7558
45.3423
45.7257
46.4752
47.2919
48.2112
49.5132
50.4962
51.6772
52.1956
52.226
51.6057
50.7145
49.5505
48.2106
47.3958
46.6233
45.8357
45.3302
44.8553
44.1655
44.3966
44.233
45.568
46.9854
47.52
35.7025
24.3257
33.112
30.5322
34.3257
37.8203
33.6184
43.1977
47.2184
45.2591
45.9871
45.2377
46.5515
47.0285
48.3484
49.2507
50.1121
50.7183
51.6798
52.6947
53.9933
55.3449
56.5298
57.1891
57.209
56.5346
55.4477
54.0772
52.7583
51.7733
50.8253
50.2402
49.3511
48.4828
47.1186
46.6801
45.3791
46.124
45.4732
47.4117
43.193
33.5208
37.8181
34.3031
36.8558
41.3183
39.225
45.7076
47.7824
46.3506
48.0502
47.5789
49.5011
50.2755
51.9911
52.9741
54.0658
54.3687
55.325
56.2172
57.5858
59.0492
60.3131
61.0648
61.082
60.3452
59.1245
57.6769
56.2971
55.4306
54.4686
54.1899
53.1008
52.1266
50.4138
49.6356
47.7227
48.1879
46.4828
47.9317
45.7699
39.2182
41.2683
36.8196
37.4123
42.3502
41.3205
45.5293
49.6109
48.0334
50.2937
50.2361
52.3034
53.4287
55.248
56.2828
57.4472
57.476
58.2894
58.9656
60.3416
61.8192
63.1623
63.9846
64.0017
63.2056
61.8911
60.4353
59.0525
58.3999
57.5779
57.5698
56.415
55.3882
53.5731
52.445
50.3779
50.4361
48.1405
49.7213
45.5716
41.2773
42.2812
37.3761
36.6573
40.9206
41.3842
44.3473
51.4137
49.7684
52.1271
52.8264
54.7468
56.2411
57.9447
59.0756
60.1439
60.0343
60.6102
61.0226
62.3211
63.7612
65.1648
66.0471
66.0653
65.2147
63.8363
62.418
61.1147
60.7222
60.139
60.2654
59.2093
58.0848
56.3829
54.8958
52.9568
52.2706
49.8463
51.5353
44.2358
41.2625
40.8247
36.6378
35.8642
36.9526
40.037
41.8611
52.0933
50.2758
53.4926
54.9575
56.6484
58.5585
59.9853
61.2585
62.0863
61.9829
62.2664
62.4276
63.5737
64.9519
66.4018
67.343
67.3629
66.4578
65.0327
63.6753
62.5246
62.3791
62.0911
62.2061
61.3925
60.1207
58.6994
56.78
55.0943
53.5996
50.3099
52.249
41.487
39.8727
36.8802
35.8746
36.3448
32.855
34.7106
35.8155
49.0448
49.2782
54.2347
55.9889
58.0067
60.1484
61.3251
62.6966
63.2379
63.2189
63.2059
63.2087
64.1556
65.4857
66.9828
67.9922
68.0145
67.0459
65.5744
64.2632
63.3123
63.3187
63.3319
63.3551
62.8306
61.452
60.296
58.1077
56.1336
54.2847
49.2786
49.0689
35.3742
34.1133
32.8605
36.3769
39.3335
33.3685
27.3928
21.6997
40.5296
46.8477
53.3324
55.841
58.6462
60.7604
61.8991
63.2554
63.5732
63.6188
63.4234
63.3635
64.16
65.4843
67.0559
68.1525
68.1778
67.1278
65.584
64.2756
63.4773
63.537
63.7402
63.6834
63.3991
61.9982
60.9304
58.6971
56.0047
53.2937
46.8231
40.291
20.5729
27.051
33.5735
39.5147
44.067
37.5908
26.4617
16.4077
15.7185
41.7191
49.9639
54.4232
58.0036
60.2831
61.4905
62.8947
62.9157
63.2181
62.835
62.9658
63.6771
65.1052
66.7944
68.005
68.0343
66.877
65.2205
63.804
63.0945
62.9532
63.3515
63.0184
63.0504
61.5644
60.4616
58.0261
54.5755
49.8477
41.6535
13.645
16.1684
26.6663
37.8259
44.2358
46.1371
41.0699
32.5278
9.29428
9.95782
14.8803
46.6546
49.4723
56.7052
57.7408
60.453
60.9377
61.6068
61.7169
61.6591
62.0119
62.8776
64.5086
66.3829
67.73
67.7639
66.4797
64.6413
63.0257
62.1572
61.7942
61.8626
61.7148
61.0936
60.5316
57.8875
56.758
49.5183
46.6482
13.4074
18.9603
9.86738
32.7787
41.2665
46.2469
43.7377
40.1533
35.3709
20.1092
14.0671
12.7376
28.3363
46.2117
51.0822
54.89
57.08
58.2545
59.1141
59.5403
59.9532
60.7173
61.9455
63.891
66.0053
67.4903
67.5292
66.1166
64.0469
62.1148
60.8982
60.1018
59.7256
59.2237
58.4403
57.1472
55.0647
51.0705
46.3682
28.0049
22.1663
20.3791
20.3352
35.8867
40.2555
43.8431
37.4028
34.5202
33.9022
27.6416
22.1184
6.02465
24.7415
36.982
45.1624
49.5537
52.8228
54.5134
56.0993
57.0263
58.1674
59.433
61.2112
63.4941
65.8711
67.4454
67.4881
65.9931
63.6727
61.4027
59.6496
58.3508
57.2408
56.2645
54.7023
52.9821
49.6487
45.4873
35.7788
14.5413
11.1132
22.0055
27.8524
34.1459
34.687
37.5425
30.184
26.9951
25.4772
13.4157
20.1722
11.0456
22.1466
27.9423
40.4653
44.4773
49.1082
51.1749
53.6791
55.1531
57.0339
58.8027
61.1073
63.6874
66.2453
67.7992
67.842
66.3693
63.8716
61.3196
59.0299
57.2602
55.3803
53.9007
51.3902
49.3148
44.6662
40.6247
28.0182
22.6075
10.9927
20.0826
14.584
25.6212
27.1591
30.3571
28.5173
20.4385
12.3336
14.2421
17.8275
16.0449
24.7545
34.813
40.6067
44.9466
48.2475
50.9406
53.2394
55.3161
57.3934
59.6463
62.1882
64.9317
67.4195
68.8251
68.8627
67.5291
65.0969
62.3885
59.8572
57.6154
55.5286
53.4577
51.1345
48.4456
45.0897
40.7445
34.7972
24.5883
15.1871
13.588
12.4223
12.1855
20.7409
28.7041
36.8803
34.2836
32.9936
32.5994
34.8892
37.8668
41.3376
44.4651
47.2385
49.7274
51.921
53.9798
55.9276
57.9106
60.0123
62.3322
64.8527
67.3983
69.5515
70.7106
70.7382
69.6322
67.5215
65.0021
62.4927
60.1737
58.0658
56.0695
54.1046
52.0188
49.7955
47.2574
44.4326
41.2213
37.6677
34.616
32.2929
32.7462
34.131
36.7918
39.7914
40.4478
42.3908
43.99
46.1741
48.2106
50.3285
52.2226
54.0394
55.7048
57.3398
58.9516
60.6471
62.4482
64.4149
66.5303
68.7293
70.81
72.472
73.343
73.3595
72.52
70.8816
68.8148
66.6199
64.5004
62.5244
60.7092
58.9978
57.365
55.7071
54.0166
52.1727
50.2512
48.104
46.0501
43.8538
42.2756
40.3523
39.7394
41.5589
43.5988
46.8059
49.3789
52.0636
54.2736
56.3779
58.1819
59.887
61.4549
63.0243
64.5854
66.2015
67.869
69.6025
71.3652
73.0836
74.617
75.7797
76.3729
76.3801
75.8005
74.6456
73.1149
71.3937
69.6238
67.8801
66.201
64.5731
62.9998
61.4193
59.8382
58.1218
56.3054
54.193
51.9707
49.2868
46.7016
43.5217
41.4671
41.7742
44.8536
49.0352
52.4203
55.6854
58.3198
60.7087
62.7303
64.5998
66.3311
68.0221
69.6646
71.2843
72.8644
74.3952
75.8416
77.1518
78.2476
79.0339
79.4153
79.4169
79.038
78.2507
77.1515
75.8358
74.3823
72.8435
71.2554
69.6284
67.9794
66.2828
64.5459
62.6706
60.6418
58.2476
55.6051
52.3378
48.9423
44.7766
41.6826
40.4501
44.1094
49.1843
53.3363
57.2533
60.4104
63.2067
65.5567
67.6797
69.6202
71.4767
73.2426
74.9296
76.5114
77.9677
79.2655
80.3698
81.2388
81.8281
82.0952
82.094
81.8241
81.2301
80.3557
79.2455
77.9416
76.4791
74.8917
73.1997
71.43
69.5697
67.6266
65.4984
63.1454
60.3408
57.183
53.2489
49.1101
43.9926
40.4274
37.7903
41.4695
47.3114
52.2199
56.8462
60.612
63.9014
66.6597
69.0929
71.2613
73.2928
75.1939
76.9792
78.6228
80.1015
81.3838
82.4409
83.2453
83.7726
84.0014
83.999
83.7647
83.231
82.42
81.3564
80.0676
78.583
76.9341
75.1446
73.2394
71.2051
69.0329
66.5964
63.8307
60.5365
56.7591
52.1276
47.2031
41.3699
37.6993
34.3098
37.4325
43.6213
49.2677
54.5713
59.0125
62.8391
66.0779
68.881
71.3343
73.5558
75.6087
77.5053
79.2381
80.7808
82.1074
83.1892
84.0039
84.5325
84.7601
84.7567
84.522
83.9858
83.1635
82.0742
80.7405
79.1914
77.4527
75.5513
73.494
71.2683
68.8094
65.9997
62.753
58.9152
54.4621
49.1391
43.4865
37.2741
34.2524
31.2001
33.0087
38.8347
44.9959
50.8275
55.9087
60.254
63.9789
67.1693
69.943
72.3752
74.5873
76.6044
78.4349
80.0562
81.4458
82.5764
83.4263
83.9777
84.2171
84.2135
83.9659
83.406
82.5477
81.409
80.0117
78.3833
76.5465
74.5234
72.3055
69.8657
67.0831
63.8821
60.144
55.7829
50.6792
44.8289
38.6373
32.864
31.0392
29.1905
29.7052
34.3076
40.5154
46.5489
52.0561
56.7817
60.884
64.3935
67.4466
70.101
72.4685
74.6067
76.5336
78.2361
79.6926
80.8779
81.7697
82.3502
82.6062
82.6027
82.3385
81.7495
80.8495
79.6561
78.1919
76.4823
74.5488
72.4041
70.0295
67.3655
64.2999
60.7763
56.6535
51.9083
46.3624
40.3202
34.0327
29.5998
28.9282
28.3979
28.0038
31.3486
36.9996
42.9005
48.4993
53.4016
57.701
61.4085
64.6401
67.451
69.9314
72.1628
74.1673
75.9379
77.453
78.6877
79.6186
80.2274
80.5004
80.4974
80.2175
79.6013
78.663
77.4212
75.899
74.1217
72.1107
69.8723
67.3835
64.5609
61.3122
57.5863
53.2574
48.3324
42.6783
36.7779
31.0273
27.8928
28.202
27.9975
27.6838
29.9551
35.0239
40.4923
45.9622
50.8241
55.1567
58.9224
62.2246
65.1072
67.6458
69.9282
71.9794
73.7935
75.3481
76.6175
77.577
78.2075
78.4947
78.493
78.2013
77.5656
76.6007
75.326
73.766
71.9464
69.8892
67.5998
65.0507
62.1552
58.8362
55.0505
50.6905
45.7965
40.2858
34.7809
29.6949
27.4903
27.9279
27.8942
27.8722
29.5902
34.1982
39.2372
44.4782
49.2026
53.4666
57.2004
60.4921
63.3782
65.927
68.2231
70.2903
72.1219
73.6946
74.9813
75.9564
76.5998
76.8967
76.8966
76.5989
75.9536
74.9764
73.6873
72.1121
70.2773
68.2063
65.9049
63.3479
60.4501
57.1445
53.3901
49.1042
44.3439
39.0751
33.9875
29.3818
27.7326
27.7022
27.917
28.1651
29.7871
33.9335
38.7272
43.694
48.2914
52.4409
56.1173
59.3607
62.2213
64.7522
67.0408
69.1049
70.938
72.5142
73.8061
74.7871
75.4367
75.7395
75.7414
75.4422
74.7949
73.8156
72.5251
70.9496
69.1167
67.0515
64.7609
62.2245
59.3564
56.0981
52.408
48.2287
43.6142
38.5887
33.8041
29.5905
28.0189
28.0628
28.1653
28.527
29.9846
33.8999
38.4304
43.213
47.6772
51.7368
55.3511
58.5519
61.3836
63.8968
66.1741
68.2323
70.0628
71.6395
72.9337
73.9183
74.5719
74.8792
74.8835
74.5848
73.9381
72.9601
71.6717
70.1002
68.2736
66.2184
63.942
61.4284
58.5917
55.3835
51.7546
47.6776
43.1833
38.3685
33.7975
29.8416
28.4461
27.9887
27.7776
28.8093
29.8023
33.6206
37.9648
42.6506
47.0618
51.0852
54.6874
57.8786
60.7103
63.2217
65.5012
67.5623
69.3983
70.9811
72.2821
73.2731
73.9324
74.2441
74.2501
73.9504
73.3017
72.3206
71.0288
69.454
67.6249
65.5692
63.2931
60.7832
57.9492
54.7532
51.1378
47.1006
42.6542
37.9478
33.527
29.7272
28.652
27.7713
108.343
66.474
56.898
60.2924
66.0816
70.8967
74.863
78.1882
81.0625
83.641
86.0057
88.2143
90.3007
92.2875
94.2038
96.09
97.989
99.9362
101.953
104.051
106.233
108.497
110.838
113.246
115.705
118.189
120.663
123.07
125.33
127.332
128.892
129.772
84.1045
63.4282
56.008
59.0982
64.7063
69.4534
73.3801
76.686
79.5506
82.1126
84.4424
86.6021
88.6286
90.5492
92.395
94.2076
96.0306
97.8994
99.8362
101.851
103.948
106.126
108.379
110.697
113.065
115.459
117.844
120.166
122.347
124.281
125.788
126.637
106.374
65.9538
55.7001
57.9036
63.3354
68.0245
71.9237
75.223
78.0853
80.632
82.9286
85.0376
87.0059
88.8617
90.6383
92.3782
94.1254
95.9157
97.7718
99.7046
101.717
103.809
105.974
108.203
110.481
112.785
115.081
117.319
119.423
121.289
122.744
123.562
87.3792
65.6546
55.4613
56.7774
61.9849
66.6221
70.5054
73.8084
76.6737
79.2068
81.473
83.5332
85.4432
87.235
88.944
90.6134
92.2879
94.0034
95.7823
97.6354
99.5665
101.574
103.653
105.794
107.984
110.201
112.412
114.567
116.595
118.394
119.798
120.587
103.762
65.3719
54.8563
55.643
60.6547
65.2503
69.1262
72.4386
75.3099
77.8324
80.0711
82.0869
83.9442
85.6766
87.3214
88.9231
90.5266
92.1682
93.8712
95.6466
97.4983
99.4251
101.421
103.478
105.583
107.715
109.841
111.918
113.872
115.608
116.962
117.722
90.1802
64.8222
54.2479
54.5513
59.3514
63.9078
67.7828
71.1085
73.9879
76.5025
78.7176
80.6978
82.5036
84.1783
85.7622
87.3003
88.8381
90.4117
92.0439
93.7458
95.5212
97.3688
99.2842
101.259
103.281
105.331
107.378
109.377
111.261
112.935
114.242
114.975
73.8421
62.5199
53.5904
53.481
58.0686
62.5924
66.4715
69.8131
72.7026
75.2124
77.4099
79.3611
81.1232
82.7475
84.2746
85.7518
87.2247
88.7303
90.2927
91.923
93.6252
95.3983
97.2368
99.1325
101.075
103.046
105.014
106.94
108.755
110.371
111.632
112.338
93.6324
62.7898
53.0349
52.4643
56.8119
61.2999
65.1854
68.5432
71.4439
73.9547
76.141
78.0687
79.7943
81.3713
82.8468
84.2691
85.6846
87.1301
88.6281
90.1907
91.8214
93.5198
95.2823
97.1022
98.9675
100.861
102.756
104.611
106.361
107.92
109.138
109.818
77.2271
61.514
52.4864
51.4621
55.5603
60.0138
63.9102
67.2895
70.2088
72.7254
74.905
76.8175
78.5183
80.0562
81.4854
82.8547
84.2122
85.5959
87.0308
88.5281
90.0923
91.7224
93.4139
95.1594
96.9505
98.7695
100.591
102.376
104.064
105.568
106.744
107.4
95.7219
62.7709
52.2909
50.5527
54.3188
58.7282
62.6391
66.0423
68.9802
71.5089
73.695
75.5976
77.2765
78.7851
80.175
81.5011
82.8111
84.1425
85.5186
86.9523
88.4483
90.0064
91.6248
93.2983
95.0159
96.7634
98.5158
100.236
101.864
103.318
104.454
105.086
78.5965
61.6344
51.8091
49.5938
53.0544
57.4202
61.3504
64.7832
67.7538
70.3074
72.4984
74.4024
76.0711
77.5554
78.9146
80.1974
81.4577
82.7346
84.0546
85.4296
86.8641
88.3594
89.9101
91.5117
93.1578
94.8329
96.5156
98.1696
99.7382
101.141
102.237
102.846
95.0087
63.1114
51.8632
48.7808
51.7736
56.0683
60.0244
63.5035
66.5133
69.0911
71.3123
73.2216
74.8847
76.3573
77.6906
78.945
80.1696
81.4012
82.6651
83.9764
85.3427
86.7641
88.2417
89.772
91.3454
92.9516
94.5681
96.1619
97.6764
99.0332
100.094
100.68
77.9422
61.7409
51.3424
47.8164
50.4297
54.6614
58.6551
62.1797
65.2356
67.8705
70.1115
72.0442
73.7128
75.1721
76.487
77.708
78.8898
80.0742
81.2908
82.5513
83.8606
85.2235
86.6356
88.0947
89.5978
91.1331
92.6821
94.2116
95.6682
96.977
98.0006
98.5635
91.6453
63.3404
51.7379
47.0983
49.0292
53.132
57.1639
60.7722
63.9208
66.5996
68.9012
70.8567
72.5417
74.0107
75.3158
76.5196
77.6741
78.8175
79.9769
81.1711
82.4113
83.698
85.0365
86.425
87.8584
89.3262
90.8117
92.2853
93.6934
94.9612
95.953
96.4971
75.0208
61.2582
51.126
46.175
47.5411
51.5107
55.612
59.3059
62.5066
65.2843
67.6342
69.6454
71.353
72.8225
74.1191
75.3015
76.4222
77.5285
78.6529
79.8064
80.9941
82.2264
83.5005
84.8179
86.1785
87.5773
88.9974
90.4087
91.7606
92.9823
93.9386
94.4592
86.3223
62.9801
51.7087
45.4842
45.9074
49.6412
53.7888
57.6012
61
63.8776
66.3272
68.3844
70.1424
71.6465
72.9603
74.1385
75.2402
76.306
77.366
78.4463
79.5618
80.7133
81.9117
83.1584
84.4526
85.784
87.1419
88.5003
89.8095
90.9956
91.9255
92.4304
67.8744
59.3245
50.9657
44.7744
44.2274
47.6006
51.8371
55.8588
59.3262
62.3404
64.8991
67.0651
68.8649
70.3949
71.7043
72.8754
73.9574
75.0031
76.0468
77.0976
78.1638
79.2632
80.3949
81.5659
82.7804
84.0449
85.3403
86.6404
87.8937
89.0355
89.9305
90.412
85.6226
60.9125
50.3601
43.5984
42.1843
45.1435
49.4328
53.5625
57.3829
60.6553
63.3704
65.6265
67.5389
69.1265
70.4999
71.6866
72.7552
73.7528
74.7156
75.6817
76.6685
77.6786
78.7317
79.8338
80.9878
82.1799
83.41
84.6563
85.8734
86.9859
87.8602
88.3313
70.8405
59.8678
50.5326
42.954
40.0455
42.2142
46.5234
51.206
55.25
58.6631
61.6288
64.0796
66.0583
67.7326
69.0975
70.2903
71.3624
72.3679
73.3407
74.2878
75.2274
76.1846
77.1602
78.1699
79.2287
80.358
81.5333
82.7301
83.8935
84.9612
85.8022
86.2494
67.0617
58.36
49.6407
41.7961
37.5291
38.7594
43.1642
47.7817
52.3109
56.4271
59.6279
62.2874
64.5058
66.2502
67.7572
69.0021
70.0606
70.9951
71.8581
72.7024
73.5457
74.3989
75.2977
76.25
77.257
78.3024
79.3994
80.5307
81.6586
82.708
83.5337
83.9774
64.0882
57.7779
49.2713
40.6575
34.4746
33.6827
37.5237
43.7156
49.2776
53.4418
57.3038
60.2894
62.6194
64.5987
66.0945
67.3521
68.4498
69.4377
70.3426
71.1759
71.9751
72.7676
73.5526
74.3697
75.2555
76.2427
77.3021
78.4106
79.5002
80.5012
81.2992
81.7163
62.76
55.8737
48.4398
39.6051
31.1977
28.3955
32.5775
37.9133
43.6992
50.0903
54.2458
57.8224
60.6577
62.6986
64.4594
65.8423
66.9193
67.7876
68.5388
69.2372
69.9023
70.5721
71.3087
72.1006
72.9422
73.8298
74.7834
75.7885
76.8183
77.8187
78.5989
79.0246
46.3719
48.5879
44.6748
37.2168
26.9295
12.7687
10.6511
26.4929
38.5036
44.1804
50.7411
54.8583
57.9755
60.5917
62.3771
63.7704
64.9377
65.9309
66.7565
67.4525
68.0809
68.6521
69.169
69.7403
70.4279
71.255
72.2015
73.246
74.3038
75.25
76.0369
76.4303
27.4353
38.0691
37.6942
32.2645
19.5051
10.6292
2.15754
13.2042
19.0894
38.5325
44.6755
51.036
55.2333
57.9116
60.1452
61.8009
62.9402
63.7236
64.3278
64.8185
65.2356
65.6973
66.2672
66.867
67.5057
68.224
69.0247
69.8942
70.7964
71.7688
72.4763
72.9014
17.1417
23.3994
25.4934
22.0701
15.161
6.85351
18.6878
19.4819
7.98735
11.2542
38.6095
45.4067
50.9251
54.9492
57.3888
59.055
60.3448
61.3597
62.0719
62.586
62.9686
63.1465
63.248
63.4948
63.9406
64.5751
65.4127
66.427
67.541
68.4693
69.3809
69.7654
1.63926
11.1605
14.1804
8.88545
17.9358
3.96837
5.99577
4.74142
5.54741
5.82473
9.65867
38.6912
46.2393
50.7553
53.9222
56.1081
57.3809
58.019
58.3616
58.4755
58.5157
58.8257
59.1813
59.505
59.8825
60.4191
61.0629
61.8259
62.5885
63.5753
64.0184
64.471
13.2992
6.5004
13.2237
16.3659
11.37
20.1107
20.9321
22.1641
22.6532
7.26299
7.71034
17.8988
38.5655
45.9338
50.0465
52.2178
53.6946
54.7192
55.2569
55.5123
55.4095
54.6109
54.0284
53.7632
53.8461
54.2536
55.0531
56.1141
57.4492
58.4812
60.059
60.5397
7.94197
12.4276
9.26279
4.36154
14.656
6.00912
5.50338
15.6839
15.9697
14.3787
12.9065
23.2522
24.6846
38.4358
43.5864
46.9804
48.4562
48.7202
48.3397
47.4765
46.8406
47.369
47.3963
47.3546
47.383
47.6671
48.1439
48.9517
49.5383
50.7272
50.3805
50.5918
11.9561
19.3074
20.8799
15.9156
10.6282
14.2046
13.4879
25.8325
4.62842
21.2108
2.29163
22.8806
18.9446
27.8284
37.9458
40.6716
42.3795
43.2819
43.5983
43.4947
42.07
38.2666
35.0795
32.6393
31.6957
32.7317
33.4256
35.6922
39.2331
40.7811
43.1114
46.0185
13.3812
23.0061
25.6921
24.2847
12.8757
2.57588
25.0258
9.82029
23.2021
14.2716
4.26577
24.5763
23.2494
18.3411
18.231
27.9542
29.5105
27.7882
22.3952
13.4861
29.956
29.8576
9.38513
17.4584
23.7431
31.861
25.6604
12.727
34.4953
10.3391
31.9286
36.0627
12.8125
24.1109
27.7897
27.5879
22.7943
7.06147
11.4324
19.1848
26.0432
3.54899
8.51266
21.5762
25.1589
13.8213
12.5847
24.7212
25.7308
25.9224
26.1214
26.215
26.6303
28.2817
2.60253
22.5875
22.0072
31.2589
23.1202
31.257
20.8102
32.4943
22.8239
31.5219
13.4323
25.7168
29.8401
30.3736
26.5448
17.9641
13.8866
24.5199
29.9398
29.008
7.79875
16.2289
19.5804
13.7311
13.3755
24.1545
13.8779
26.2085
26.066
28.3162
28.9031
21.6721
30.0489
12.9552
12.629
24.3741
10.3235
11.9577
32.7893
22.7376
25.9353
33.8121
13.9829
26.7665
31.0227
31.9612
29.1393
22.0072
11.9441
16.5972
18.3506
20.203
17.0652
4.74399
13.3467
17.5215
26.3057
7.15713
19.8713
19.2878
28.6846
25.2616
17.1577
25.5176
14.0973
28.3192
33.4709
15.0709
19.7954
29.4104
11.0657
29.6218
19.9782
28.1033
14.253
27.5911
32.1828
33.8881
32.232
25.4455
10.5381
18.2278
0.344772
25.0219
30.2016
25.8431
21.3552
28.329
23.142
19.1309
12.7691
31.8998
0.0440137
20.6326
18.0863
13.8462
24.6612
16.6178
21.8127
15.6473
36.188
30.5807
4.72256
23.6557
13.5538
21.4816
14.2607
27.9594
32.6985
34.8541
34.5549
31.3573
23.3542
8.43934
20.0855
20.3389
17.4778
17.8514
17.6851
19.3882
15.7455
29.0992
33.7463
37.6573
40.7005
42.085
44.2769
46.0722
44.2515