/*--------------------------------*- C++ -*----------------------------------*\
  =========                 |
  \\      /  F ield         | OpenFOAM: The Open Source CFD Toolbox
   \\    /   O peration     | Website:  https://openfoam.org
    \\  /    A nd           | Version:  6
     \\/     M anipulation  |
\*---------------------------------------------------------------------------*/
FoamFile
{
    version     2.0;
    format      ascii;
    class       volScalarField;
    location    "7";
    object      yPlus;
}
// * * * * * * * * * * * * * * * * * * * * * * * * * * * * * * * * * * * * * //

dimensions      [0 0 0 0 0 0 0];

internalField   uniform 0;

boundaryField
{
    inlet
    {
        type            calculated;
        value           uniform 0;
    }
    outlet
    {
        type            calculated;
        value           uniform 0;
    }
    roughCylinder
    {
        type            calculated;
        value           nonuniform List<scalar> 
5120
(
13.8095
22.1803
34.9324
38.993
42.3426
43.8458
44.7975
44.9284
45.0102
44.9007
44.9015
44.9812
44.9642
44.934
44.8901
44.8025
44.6696
44.3835
43.7964
43.1635
43.2452
42.9042
42.2383
41.5935
42.3702
41.4995
41.6591
41.3808
40.3901
39.9978
39.714
39.4485
15.9269
21.922
34.5101
38.7038
42.0963
43.6147
44.6109
44.8428
44.9361
44.8964
45.0694
45.1285
45.0455
44.9316
44.8969
44.8233
44.7331
44.5206
43.9981
43.4409
43.5259
43.2018
42.6963
42.3769
42.5978
41.9557
41.9837
41.7286
40.8124
40.4184
40.1901
39.938
11.5482
20.5684
33.9328
38.313
41.7412
43.3805
44.4459
44.6756
44.9
44.989
45.1023
45.1779
45.15
45.1375
45.1071
45.0246
44.925
44.7108
44.2147
43.6639
43.6427
43.2894
42.9637
42.9685
42.8389
42.5573
42.5008
42.3077
41.4732
41.0765
40.8552
40.5897
16.7225
20.181
33.279
37.9087
41.4456
43.1482
44.2493
44.6588
44.9569
45.0642
45.344
45.449
45.3958
45.2959
45.2677
45.2176
45.1506
44.991
44.552
44.0377
43.9481
43.6774
43.5513
43.7276
43.1754
43.0937
42.9014
42.7341
41.9745
41.5834
41.404
41.1529
14.3615
18.7921
32.4424
37.3708
40.977
42.8605
44.1268
44.5696
44.9728
45.2623
45.4779
45.5524
45.5404
45.5693
45.5888
45.5511
45.4675
45.2949
44.8863
44.3541
44.1313
43.8737
43.9134
44.251
43.5476
43.7431
43.4884
43.3765
42.6886
42.3068
42.1215
41.8553
9.59349
18.3247
31.4912
36.7724
40.601
42.624
43.9134
44.5789
45.1179
45.3701
45.7127
45.8584
45.8762
45.8286
45.8336
45.8269
45.7633
45.6453
45.311
44.7976
44.514
44.3412
44.5566
44.9391
44.0129
44.3031
43.9475
43.8551
43.2358
42.8688
42.7158
42.4686
7.82137
16.6149
30.3401
36.0177
39.9662
42.2314
43.7977
44.5386
45.1219
45.5793
45.8781
45.973
46.002
46.0913
46.1818
46.1967
46.119
45.9989
45.7095
45.1788
44.7958
44.611
44.9511
45.388
44.5028
44.9493
44.5805
44.5334
43.9746
43.63
43.4672
43.2074
11.3483
15.605
28.9685
35.0915
39.4323
41.9465
43.5245
44.4954
45.2801
45.6642
46.0469
46.2457
46.3618
46.3909
46.4496
46.4862
46.4324
46.3807
46.1774
45.678
45.2753
45.1299
45.6119
46.0196
45.0745
45.4959
45.0743
45.0361
44.5386
44.2166
44.0824
43.8489
12.4431
14.0345
27.4556
34.0018
38.5083
41.3319
43.328
44.4337
45.198
45.8036
46.1915
46.3477
46.4408
46.5982
46.7692
46.8416
46.7947
46.7554
46.5963
46.1006
45.6396
45.4435
46.0118
46.4092
45.6388
46.1086
45.7257
45.722
45.275
44.987
44.8425
44.6015
14.4393
13.2435
25.573
32.5478
37.6551
40.8718
42.8796
44.2209
45.2811
45.8159
46.2606
46.544
46.782
46.9052
47.0254
47.1071
47.095
47.1363
47.0608
46.6223
46.179
45.9968
46.6668
46.9926
46.2558
46.6058
46.2114
46.2051
45.8134
45.5529
45.4357
45.2298
17.3022
12.0168
23.5581
30.9128
36.1833
39.8109
42.4509
44.0273
45.0234
45.8139
46.337
46.6089
46.7913
47.0257
47.2813
47.4186
47.4393
47.4942
47.4426
47.0281
46.5528
46.3197
47.0325
47.3117
46.8089
47.1541
46.8369
46.8565
46.5093
46.2931
46.1661
45.9591
20.3875
12.2156
21.263
28.7074
34.7726
38.9401
41.588
43.4635
44.9234
45.6927
46.2687
46.6816
47.0679
47.3056
47.4931
47.6284
47.6883
47.8246
47.8485
47.5096
47.0829
46.8881
47.6486
47.8379
47.3909
47.5603
47.2529
47.2554
46.9581
46.7702
46.6701
46.5066
22.6617
12.3622
18.6429
26.2098
32.2212
36.9934
40.6872
42.9574
44.3387
45.4539
46.2139
46.6677
46.962
47.2859
47.6355
47.854
47.969
48.1081
48.1296
47.8196
47.3769
47.166
47.9109
48.039
47.8204
47.9971
47.787
47.8087
47.5537
47.4193
47.3105
47.1527
24.2731
13.6397
16.4299
23.0294
30.0335
35.3101
38.8762
41.6802
43.8656
45.0633
45.924
46.5539
47.1245
47.4955
47.7464
47.9438
48.0912
48.309
48.4026
48.1787
47.8194
47.7006
48.428
48.4722
48.2781
48.2667
48.0714
48.0639
47.8542
47.7478
47.6706
47.5608
24.0159
14.6892
13.0059
19.2023
25.0937
31.4663
37.0725
40.491
42.5899
44.3709
45.5948
46.3759
46.8496
47.2847
47.7409
48.0489
48.2562
48.4531
48.5232
48.3163
47.9598
47.861
48.5271
48.5235
48.525
48.5797
48.4892
48.4979
48.3328
48.2845
48.199
48.0982
22.7293
15.4129
11.872
14.0336
22.4487
28.1965
32.7986
37.552
41.317
43.3651
44.8319
45.9011
46.8057
47.3793
47.7132
47.9834
48.2113
48.4892
48.6328
48.5289
48.3014
48.3402
48.9273
48.8521
48.7857
48.6512
48.5437
48.4988
48.3765
48.3407
48.2935
48.242
20.4109
15.541
12.1579
7.25895
2.79068
18.3378
28.8528
34.5905
38.2513
41.6512
43.891
45.3133
46.1459
46.8222
47.4691
47.9048
48.208
48.4363
48.532
48.4194
48.2069
48.2565
48.6964
48.5846
48.7089
48.734
48.748
48.7218
48.6522
48.6707
48.6143
48.5725
17.8389
14.6237
8.10725
10.4812
10.0662
12.2135
13.3522
25.7164
34.8997
39.0698
41.9888
44.0486
45.642
46.6107
47.1154
47.5045
47.8242
48.1525
48.3523
48.3775
48.3541
48.565
48.8872
48.7277
48.5889
48.4073
48.2913
48.1281
48.0702
48.048
48.0296
48.0203
14.9669
13.9764
11.2301
9.91777
10.4635
10.6687
11.6271
7.95028
24.1
34.4458
39.6217
42.4904
44.0649
45.2606
46.332
47.0263
47.4847
47.7517
47.8291
47.7835
47.7369
47.8285
47.8466
47.5964
47.7207
47.8053
47.8735
47.7603
47.786
47.7945
47.7646
47.7619
11.7935
11.9324
6.56652
10.855
7.85277
7.33265
6.71309
11.6478
15.8641
26.735
34.5154
39.3169
42.5503
44.3417
45.1632
45.7744
46.2312
46.6064
46.8904
47.0617
47.2852
47.5469
47.4688
47.2227
46.6475
46.3942
45.9617
45.435
45.3146
45.0866
45.0364
44.9669
11.6247
11.3056
9.85421
2.02573
8.55779
12.748
8.14478
5.932
4.16983
8.31369
29.3752
35.4236
38.4674
40.8734
43.0253
44.3225
45.0822
45.4048
45.3078
45.1829
45.1877
44.9145
44.0681
43.3392
43.3099
43.5129
43.5102
43.1595
43.2083
42.9513
42.8495
42.7545
5.96115
10.9768
8.72789
11.3614
7.58354
12.4
11.7311
9.59608
5.47715
13.2743
13.1944
24.4187
33.9948
38.1565
39.5079
40.509
41.1715
41.5307
41.9694
42.2875
42.7252
42.7043
42.0006
41.5366
39.1177
37.6255
34.8455
31.7211
29.6342
26.443
24.4571
21.9129
7.55808
11.3011
7.32802
1.32542
12.3931
21.3081
22.4812
16.2743
4.29651
9.3316
8.66329
15.7558
15.8293
22.599
31.7862
35.8118
37.7072
38.1417
36.5241
35.2507
33.7685
30.6652
24.7586
15.2981
9.88651
16.9381
14.3179
16.0544
18.9632
15.9239
11.1143
15.0311
6.27858
12.1691
11.2798
8.25363
8.72534
15.3969
21.1774
23.4313
24.6245
19.6719
10.9527
10.1408
6.30441
15.4485
13.4879
16.0518
8.94489
19.1696
15.6078
3.69597
13.0144
18.9538
17.7661
16.6154
12.26
17.6478
15.0856
19.0357
18.5347
15.4922
12.9322
15.3466
10.0549
15.9661
16.3336
15.3647
14.5258
15.8781
19.0804
21.8547
22.9705
21.2605
12.4773
4.95266
14.6644
0.21008
15.3399
15.1933
15.2705
14.7429
15.8048
10.9729
5.96039
13.964
8.80873
6.63315
11.6066
11.8728
16.6188
20.7191
22.8971
23.1401
23.0586
23.0438
10.027
18.7378
21.2004
22.1912
22.4022
22.71
23.5896
24.5524
24.5349
21.7305
16.8973
12.8728
12.0853
14.3744
15.9031
10.0715
16.03
11.1124
4.91884
5.21582
11.5159
15.7236
19.8513
23.8691
26.4142
28.6707
29.217
29.3274
29.3086
28.8558
28.1642
27.5318
8.52039
18.7802
22.407
24.5386
25.622
26.0042
25.9412
25.3475
23.7013
21.1426
19.9303
21.1312
22.3636
22.1523
21.7184
21.0688
21.4836
22.5945
24.6298
26.6753
27.5049
28.2485
28.9738
29.563
29.8708
30.313
31.0297
31.2647
31.1474
30.5554
29.4347
28.3761
6.50295
16.9997
21.1067
23.7091
25.2163
25.7934
25.5106
24.3918
22.4576
20.3933
18.8221
18.7069
20.7394
22.9263
24.323
25.2363
25.8578
26.5166
27.2039
27.7931
28.7255
29.8846
30.7456
31.3343
31.6016
31.9539
31.7956
31.1864
30.3714
29.4153
27.6749
25.7212
4.64777
14.0524
18.1859
21.0257
22.8281
23.6781
23.5965
22.535
20.5016
17.5583
14.0134
14.0783
18.0606
21.7403
23.7632
24.99
26.059
27.1346
28.173
29.0635
29.6964
30.2646
30.3772
30.1026
29.7213
29.5718
29.233
28.6335
27.9305
27.1203
25.4758
23.3482
3.69832
11.6002
15.2565
18.047
20.0145
21.1376
21.3947
20.705
18.9082
15.957
12.0177
9.6364
10.539
14.9846
18.5774
20.7681
22.3768
23.9128
25.3177
26.3768
27.136
27.7409
28.0022
28.0837
28.1627
28.2983
28.1016
27.5736
26.8312
25.9553
24.4172
22.3184
3.877
11.4636
13.9235
16.2728
18.1066
19.2977
19.7011
19.2178
17.7174
15.1783
12.5681
12.2324
12.7643
13.3323
14.6649
16.486
18.6215
20.9776
23.159
24.7355
25.7119
26.4263
26.8436
26.9889
26.8688
26.7644
26.2779
25.4043
24.2331
23.0603
21.6004
19.8884
3.888
10.8703
12.9678
15.0291
16.7409
17.8755
18.2764
17.8205
16.3588
13.9954
11.901
11.509
11.825
13.2637
14.4891
15.8004
17.4305
19.324
21.2216
22.6356
23.5492
24.1977
24.5722
24.8462
25.1469
25.3433
25.1639
24.4903
23.3268
21.9381
20.4034
18.7783
3.4885
9.71748
11.8614
13.8287
15.454
16.4986
16.8044
16.2277
14.6725
12.6363
11.5403
11.5356
12.2722
12.7902
13.5326
14.5551
15.8999
17.4588
19.0445
20.4305
21.6869
22.7615
23.6407
24.3551
24.8883
25.2026
25.0714
24.368
23.0632
21.343
19.5544
18.1073
3.11507
8.84614
11.1183
12.5911
13.9726
14.8513
15.0232
14.3604
13.0023
11.8002
11.5601
12.0479
12.6303
13.2076
13.7548
14.4703
15.4671
16.7166
18.1545
19.6737
21.0859
22.3483
23.448
24.3821
25.1072
25.5459
25.5169
24.8617
23.4858
21.4546
19.2422
17.7333
2.57133
7.70742
9.77128
11.4049
12.4317
13.0998
13.1781
12.6548
11.913
11.6224
12.0127
12.6951
13.2585
13.7123
14.1717
14.7557
15.6038
16.7864
18.2033
19.7032
21.2108
22.6324
23.9298
25.0532
25.926
26.4656
26.512
25.8846
24.4284
22.0924
19.3684
17.6727
2.07747
6.85308
8.72532
10.2779
11.435
11.7284
11.7027
11.5386
11.5221
11.9994
12.7904
13.4181
13.9584
14.4285
14.8939
15.494
16.3361
17.441
18.7909
20.324
21.9107
23.4534
24.9017
26.1996
27.2456
27.9196
28.0742
27.5095
26.0183
23.44
20.2296
18.1909
1.86845
6.45528
8.05605
9.26513
10.2209
10.9042
11.2949
11.5303
12.0466
12.8426
13.5126
14.1768
14.7808
15.3145
15.8485
16.4894
17.3424
18.4725
19.8678
21.4512
23.1378
24.8273
26.4388
27.8958
29.0901
29.8878
30.1451
29.6475
28.1493
25.4163
21.8494
19.44
1.98509
6.81634
8.41901
9.64532
10.7156
11.5046
11.5766
11.9334
12.651
13.4527
14.2848
15.0365
15.7028
16.328
16.9822
17.7562
18.7328
19.954
21.4164
23.0803
24.8655
26.6775
28.4274
30.0264
31.3596
32.2819
32.6458
32.2259
30.7496
27.935
24.1248
21.3925
2.12575
7.31583
9.14005
10.4461
11.2888
11.5485
11.6977
12.4574
13.3996
14.3515
15.2417
16.0733
16.8563
17.6218
18.4292
19.3512
20.4547
21.7834
23.3431
25.0988
26.9854
28.9159
30.7948
32.522
33.9798
35.0184
35.4837
35.143
33.7082
30.8738
26.9404
23.9745
2.3198
7.79093
9.63572
10.7533
11.3922
11.5662
12.2648
13.2678
14.3223
15.3528
16.3411
17.2855
18.2037
19.1292
20.109
21.199
22.4534
23.9085
25.5721
27.4226
29.4056
31.4409
33.4338
35.2772
36.8497
37.9984
38.5612
38.2999
36.9194
34.1081
30.1424
27.0427
2.67461
2.85421
3.04749
3.22428
3.36576
3.57032
3.80036
3.86592
3.95002
4.07521
4.19411
4.44381
4.76151
5.03243
5.31476
5.55763
5.64342
5.6996
5.73597
5.75558
5.75736
5.73823
5.66138
5.41835
5.17258
4.92475
4.66765
4.34024
4.17809
4.04301
3.97195
3.88705
3.80527
3.6008
3.40353
3.2663
3.10642
2.93361
2.7389
2.55067
8.64148
9.02078
9.48864
9.97253
10.3477
10.8119
11.3248
11.4504
11.4811
11.5123
11.5289
11.8122
12.1568
12.3783
12.564
12.7333
12.9296
13.0555
13.1266
13.1427
13.1039
13.0112
12.8613
12.7204
12.5482
12.3347
12.0654
11.6453
11.578
11.5428
11.5791
11.4684
11.2679
10.7889
10.3421
9.95737
9.48131
9.01816
8.58086
8.22857
10.4661
10.7644
11.0806
11.4195
11.4734
11.5518
12.1665
12.5954
13.0675
13.5272
13.9461
14.3798
14.7781
15.1038
15.3725
15.6073
15.8505
16.0133
16.1032
16.1179
16.0587
15.9281
15.731
15.5303
15.2821
14.981
14.632
14.2117
13.8006
13.3661
12.9382
12.4881
12.0696
11.5102
11.4204
11.358
11.0173
10.704
10.3716
10.0538
11.3835
11.4413
11.514
11.7372
12.1916
12.7829
13.5014
14.1592
14.8198
15.4439
16.0258
16.5692
17.0726
17.5275
17.922
18.2594
18.5384
18.7325
18.839
18.8545
18.7808
18.6211
18.3815
18.081
17.723
17.3097
16.8595
16.3621
15.8248
15.2479
14.6412
14.0048
13.3711
12.7033
12.1522
11.701
11.4758
11.482
11.287
11.0843
11.552
11.8284
12.204
12.7804
13.4935
14.2894
15.1097
15.9063
16.6774
17.407
18.0991
18.7367
19.3198
19.843
20.3001
20.6868
20.9951
21.212
21.3306
21.3468
21.2621
21.0807
20.8111
20.4648
20.0508
19.5763
19.0475
18.468
17.8397
17.1713
16.4637
15.7194
14.9527
14.1728
13.4164
12.7287
12.1609
11.788
11.5697
11.4902
12.3411
12.7666
13.3849
14.141
14.9938
15.8933
16.7973
17.684
18.5323
19.3331
20.0812
20.7713
21.4016
21.9678
22.464
22.8833
23.2164
23.4514
23.5795
23.5954
23.5006
23.3003
23.005
22.6264
22.1749
21.659
21.0847
20.4564
19.7765
19.0475
18.2726
17.4566
16.6086
15.7441
14.8845
14.0666
13.3271
12.7302
12.2584
11.9857
13.4417
13.9909
14.7508
15.6076
16.5446
17.5107
18.4723
19.4071
20.2988
21.1392
21.9237
22.6493
23.3133
23.9112
24.4375
24.884
25.2392
25.49
25.6259
25.6407
25.5358
25.3173
24.9981
24.5916
24.1099
23.5614
22.953
22.2896
21.5739
20.8076
19.9931
19.1344
18.2392
17.3213
16.4001
15.5058
14.6716
13.9503
13.3363
12.9254
14.6603
15.3035
16.1529
17.0767
18.0686
19.0779
20.0764
21.043
21.9642
22.8325
23.6439
24.3956
25.0849
25.7088
26.2609
26.731
27.1058
27.3705
27.5127
27.5257
27.4107
27.1748
26.8329
26.4009
25.8925
25.3177
24.6828
23.9925
23.2496
22.4558
21.6128
20.7241
19.7963
18.8416
17.8779
16.9325
16.0358
15.2371
14.532
14.0285
15.8967
16.613
17.5319
18.5084
19.5438
20.5869
21.614
22.6048
23.5477
24.4358
25.2658
26.0355
26.7446
27.3898
27.9633
28.453
28.8438
29.1193
29.266
29.2767
29.1522
28.9005
28.5385
28.0837
27.5522
26.9556
26.3011
25.5919
24.8298
24.0162
23.1525
22.2414
21.2885
20.3048
19.3065
18.3195
17.3715
16.5122
15.7362
15.1644
17.1111
17.8939
18.8786
19.903
20.9782
22.0502
23.1004
24.1085
25.0653
25.9646
26.8044
27.586
28.3093
28.97
29.5588
30.0627
30.4646
30.7472
30.896
30.904
30.7712
30.5063
30.1276
29.6546
29.1048
28.4915
27.8232
27.1032
26.3308
25.5061
24.6299
23.704
22.7329
21.7262
20.6981
19.6735
18.6771
17.7611
16.9158
16.2831
18.2972
19.1476
20.1995
21.2705
22.3825
23.4789
24.5455
25.5633
26.5249
27.4259
28.2687
29.0556
29.7861
30.4549
31.0519
31.5627
31.9698
32.255
32.4034
32.408
32.2687
31.9942
31.6039
31.1186
30.557
29.9335
29.2578
28.5336
27.7605
26.9345
26.0549
25.1229
24.1414
23.1183
22.0656
21.007
19.9636
18.9905
18.071
17.3719
19.4596
20.3816
21.5024
22.6191
23.7637
24.8787
25.9545
26.9732
27.93
28.8248
29.6634
30.448
31.1774
31.8454
32.4419
32.9516
33.3568
33.6393
33.7843
33.7855
33.6421
33.3624
32.9668
32.4768
31.9113
31.286
30.6106
29.8899
29.1235
28.3063
27.4338
26.5051
25.5217
24.4898
23.419
22.3308
21.2425
20.2112
19.2124
18.4366
20.6058
21.6045
22.7938
23.9537
25.1258
26.2529
27.3297
28.3405
29.2839
30.1657
30.9925
31.7661
32.4848
33.1426
33.7287
34.2284
34.6241
34.8981
35.0367
35.0345
34.8901
34.6109
34.2178
33.7318
33.1722
32.5545
31.8886
31.18
30.4285
29.6289
28.7731
27.8573
26.8812
25.8487
24.7668
23.6548
22.5254
21.4363
20.355
19.4926
21.7496
22.8269
24.0815
25.2799
26.4728
27.6047
28.6745
29.6692
30.593
31.4552
32.2621
33.0157
33.7141
34.3515
34.9175
35.3979
35.7762
36.0362
36.1657
36.1606
36.0189
35.7469
35.3648
34.8929
34.3498
33.7502
33.1041
32.4166
31.688
30.9134
30.0838
29.1902
28.2299
27.2052
26.1201
24.9911
23.8264
22.6832
21.5203
20.5663
22.9127
24.0638
25.3774
26.6069
27.8135
28.9429
29.9983
30.9701
31.869
32.7048
33.4843
34.2094
34.8787
35.4865
36.0232
36.476
36.8302
37.0718
37.1901
37.1835
37.0488
36.7908
36.4288
35.9814
35.4656
34.8948
34.2785
33.6213
32.9235
32.1808
31.3839
30.52
29.5838
28.5751
27.4948
26.357
25.165
23.9755
22.7373
21.6955
24.1213
25.335
26.6974
27.9488
29.1613
30.2813
31.3166
32.2605
33.1296
33.934
34.6801
35.3704
36.0038
36.5753
37.0764
37.4962
37.8221
38.0428
38.1501
38.1442
38.0213
37.7841
37.4504
37.0367
36.5576
36.0248
35.4467
34.8273
34.1667
33.4608
32.7005
31.8728
30.9674
29.9815
28.9137
27.7759
26.5667
25.3427
24.0413
22.9249
25.4034
26.6635
28.0619
29.3247
30.535
31.6395
32.6506
33.5646
34.4016
35.1721
35.8827
36.536
37.1312
37.6643
38.1283
38.5143
38.8123
39.0136
39.1123
39.1109
39.0044
38.7934
38.4943
38.1206
37.6844
37.1952
36.66
36.0822
35.4616
34.7943
34.0724
33.2833
32.412
31.4539
30.4052
29.2765
28.0612
26.8167
25.4689
24.2977
26.7841
28.0722
29.4926
30.7564
31.9576
33.0425
34.028
34.9136
35.721
36.4604
37.1387
37.7586
38.3199
38.8194
39.2516
39.6095
39.8857
40.0737
40.1697
40.1775
40.0913
39.91
39.6478
39.3158
38.9231
38.4774
37.9841
37.446
36.8628
36.2313
35.5445
34.7911
33.9538
33.0259
32.0013
30.8887
29.6773
28.4262
27.0496
25.8462
28.2802
29.5785
31.0088
32.2658
33.4545
34.5198
35.4831
36.3462
37.1314
37.8484
38.5043
39.1017
39.6408
40.119
40.532
40.8742
41.1403
41.3253
41.4267
41.4489
41.3855
41.2339
41.0066
40.712
40.3572
39.948
39.4887
38.9816
38.427
37.8223
37.1615
36.4354
35.6285
34.7292
33.7286
32.6356
31.4348
30.1882
28.798
27.5828
29.8947
31.1899
32.6231
33.8702
35.048
36.0984
37.0473
37.8987
38.6743
39.3835
40.0327
40.6246
41.159
41.6337
42.0449
42.3881
42.6586
42.8526
42.9679
43.0088
42.9683
42.8434
42.6447
42.3784
42.0501
41.6647
41.2258
40.7359
40.1957
39.6037
38.9555
38.2445
37.4575
36.579
35.598
34.5236
33.3363
32.1012
30.7072
29.4936
31.6137
32.9002
34.3346
35.5742
36.7468
37.7916
38.7378
39.5914
40.3737
41.0922
41.7531
42.3579
42.9064
43.396
43.823
44.1828
44.4711
44.684
44.8195
44.8808
44.8612
44.7577
44.5786
44.3293
44.0144
43.638
43.2041
42.7155
42.1738
41.5786
40.9275
40.2155
39.4326
38.5661
37.5986
36.538
35.3615
34.1372
32.7419
31.5342
33.4023
34.6804
36.1201
37.3588
38.5355
39.5859
40.5423
41.4126
42.2163
42.9595
43.6473
44.2803
44.8576
45.3757
45.8307
46.2176
46.5318
46.7693
46.9273
47.008
47.0057
46.9174
46.7496
46.5069
46.1937
45.8139
45.372
44.8716
44.3149
43.7033
43.0357
42.3093
41.5171
40.6496
39.6843
38.628
37.4549
36.2365
34.8362
33.6319
35.1967
36.4733
37.926
39.1728
40.3639
41.4306
42.4086
43.3061
44.1413
44.9186
45.642
46.3111
46.9238
47.4764
47.9642
48.3817
48.7239
48.9863
49.1655
49.2627
49.2735
49.195
49.0321
48.7891
48.47
48.0792
47.6215
47.1012
46.5217
45.8854
45.1927
44.4425
43.6294
42.7472
41.776
40.7171
39.5398
38.319
36.9056
35.696
36.9097
38.1929
39.6665
40.9298
42.1434
43.2344
44.242
45.1723
46.0428
46.8563
47.6163
48.3214
48.9691
49.5549
50.0735
50.5192
50.8864
51.1701
51.3666
51.4762
51.496
51.4238
51.2625
51.0157
50.6877
50.2832
49.8074
49.2651
48.6606
47.9973
47.2767
46.4992
45.6607
44.7576
43.7724
42.7014
41.5097
40.2761
38.8399
37.6155
38.4254
39.727
41.231
42.5191
43.7609
44.8799
45.9181
46.8801
47.7829
48.6287
49.4203
50.1559
50.8325
51.4452
51.9882
52.4555
52.841
53.1394
53.3472
53.464
53.4895
53.4222
53.2622
53.0124
52.6768
52.2601
51.7679
51.2058
50.5786
49.8904
49.1436
48.3393
47.4744
46.5468
45.5394
44.4499
43.2378
41.9842
40.5175
39.2679
39.6077
40.9392
42.4807
43.7992
45.0719
46.2191
47.2851
48.2739
49.2025
50.0733
50.8887
51.6467
52.3437
52.9746
53.533
54.0122
54.4056
54.7077
54.9156
55.0311
55.0596
55.0003
54.8475
54.6012
54.2639
53.8405
53.337
52.7598
52.1143
51.4056
50.6365
49.8087
48.9195
47.9673
46.9354
45.8221
44.5823
43.2979
41.7897
40.5002
40.271
41.6446
43.2302
44.5861
45.8932
47.0699
48.1616
49.1729
50.122
51.0113
51.8436
52.6168
53.3271
53.9687
54.5344
55.0157
55.4042
55.693
55.8804
55.9769
56.0057
55.967
55.8384
55.6094
55.2801
54.8567
54.347
53.7589
53.0995
52.3741
51.5863
50.738
49.8266
48.8503
47.7916
46.6484
45.3728
44.0475
42.4884
41.1449
40.1852
41.618
43.2579
44.6627
46.0127
47.2258
48.3455
49.379
50.3465
51.2513
52.0968
52.8814
53.6013
54.2505
54.821
55.3034
55.6868
55.9626
56.1312
56.2145
56.2418
56.2146
56.1058
55.8908
55.5667
55.1413
54.6247
54.0262
53.3533
52.6122
51.8062
50.937
50.0015
48.9968
47.904
46.7182
45.392
44.0081
42.3828
40.964
39.025
40.5483
42.2679
43.7512
45.1707
46.4461
47.6158
48.6867
49.6827
50.61
51.4736
52.2728
53.0051
53.6652
54.2456
54.7374
55.1301
55.4146
55.5895
55.6746
55.7001
55.6683
55.5515
55.3259
54.9898
54.5514
54.0208
53.4065
52.7157
51.9537
51.1232
50.2249
49.2542
48.2063
47.0589
45.8018
44.3943
42.9174
41.1959
39.6662
36.5
38.1651
40.0129
41.6305
43.1713
44.5602
45.8269
46.9709
48.0223
48.9935
49.8917
50.7193
51.475
52.1555
52.7557
53.2691
53.6884
54.0057
54.2149
54.3189
54.3439
54.2913
54.1361
53.8719
53.5028
53.0362
52.4789
51.8371
51.1157
50.3178
49.4445
48.4937
47.4584
46.3271
45.0712
43.6876
42.1443
40.5161
38.6466
36.95
32.8117
34.6666
36.6961
38.5113
40.2369
41.8035
43.2306
44.5107
45.6647
46.7152
47.6761
48.5531
49.348
50.0594
50.684
51.2173
51.6544
51.9904
52.221
52.3438
52.3674
52.292
52.108
51.817
51.4226
50.9288
50.3401
49.6605
48.8929
48.0387
47.0959
46.0589
44.9148
43.6415
42.2149
40.6407
38.8978
37.0546
34.9848
33.0773
29.8582
31.8182
33.968
35.9302
37.8031
39.5176
41.0852
42.4941
43.752
44.8815
45.9046
46.8307
47.6644
48.4061
49.0541
49.605
50.0546
50.3988
50.6338
50.7572
50.7779
50.6958
50.5015
50.1963
49.7831
49.2658
48.6477
47.9318
47.1197
46.2107
45.2
44.0792
42.8266
41.4163
39.8389
38.1054
36.2034
34.2011
31.9996
29.9754
9.0977
22.2039
34.947
38.8475
41.9882
43.3521
44.2093
44.4127
44.636
44.7242
44.7737
44.79
44.9437
45.1412
45.163
45.2329
44.7988
43.5401
42.3054
42.4305
43.0376
43.6854
43.3112
40.2382
43.6004
41.6442
41.5794
40.9905
40.4796
40.026
39.6323
39.3471
11.9102
22.1887
34.5783
38.689
41.8755
43.2812
44.1662
44.4497
44.6296
44.6842
44.8618
44.8735
44.9675
45.0667
45.1271
45.1945
44.759
43.6777
42.6665
42.8349
43.4432
44.1617
43.6824
40.7485
43.9104
41.9374
41.9243
41.362
40.88
40.4328
40.1207
39.8701
11.1057
21.4743
34.0318
38.4303
41.6736
43.2296
44.1993
44.4417
44.6676
44.7977
44.8535
44.8824
44.9831
45.1591
45.2327
45.2415
44.8255
43.8537
42.97
43.0834
43.6643
44.4314
43.8774
41.163
44.2563
42.4011
42.4619
41.9819
41.5164
41.0579
40.7908
40.5493
6.82542
21.2952
33.5277
38.148
41.5205
43.181
44.1684
44.5564
44.8222
44.8656
45.0514
45.1056
45.1707
45.2026
45.2537
45.2751
44.9259
44.1703
43.476
43.5695
44.1357
44.9531
44.3301
41.7346
44.622
42.8032
42.8811
42.4353
41.9952
41.5459
41.3519
41.1428
11.4016
20.0452
32.6085
37.6846
41.1916
43.025
44.2063
44.6103
44.896
45.1046
45.1899
45.2112
45.2419
45.3584
45.4344
45.42
45.1415
44.5021
43.8947
43.8978
44.4104
45.2548
44.5847
42.2119
45.0264
43.3613
43.4847
43.1174
42.6909
42.2363
42.0732
41.8678
10.9868
19.7322
31.9028
37.1544
40.8597
42.9023
44.0995
44.683
45.1275
45.226
45.43
45.5073
45.5698
45.5407
45.5504
45.5628
45.3582
44.9126
44.4577
44.441
44.921
45.808
45.0975
42.8258
45.4417
43.8439
43.9534
43.621
43.221
42.7848
42.6777
42.5039
12.4195
17.7345
30.4152
36.3374
40.3131
42.5367
44.0338
44.7345
45.1533
45.4934
45.6491
45.6853
45.6714
45.7399
45.8111
45.8028
45.6686
45.3064
44.9075
44.819
45.2328
46.1211
45.3844
43.3407
45.8892
44.458
44.5965
44.334
43.9518
43.5234
43.4301
43.2565
12.1464
17.2181
29.4293
35.4303
39.648
42.2467
43.7962
44.6705
45.3819
45.6087
45.8664
45.9816
46.085
46.0405
46.019
46.0371
45.9512
45.7363
45.4663
45.3951
45.7844
46.689
45.9435
43.9941
46.342
44.985
45.0909
44.8581
44.5066
44.1083
44.0528
43.9109
13.3241
14.7148
27.2098
34.0775
38.776
41.5654
43.5199
44.653
45.2788
45.8109
46.0877
46.1938
46.1822
46.2405
46.3251
46.3358
46.3041
46.1333
45.9
45.7986
46.1342
46.994
46.2455
44.5352
46.8137
45.6176
45.7482
45.5713
45.2451
44.8679
44.8112
44.6668
14.3058
14.0353
25.7847
32.5785
37.5357
40.9514
43.0555
44.3315
45.4158
45.8467
46.2176
46.4126
46.6131
46.616
46.5887
46.6175
46.6031
46.5385
46.421
46.3811
46.7184
47.5538
46.8301
45.2133
47.2686
46.1386
46.2276
46.0717
45.7805
45.4427
45.4102
45.2981
16.7481
11.3714
22.7537
30.4611
36.156
39.7463
42.3904
44.1468
45.0732
45.8865
46.352
46.6032
46.6536
46.7519
46.8824
46.9222
46.9531
46.9027
46.805
46.7662
47.0677
47.811
47.1083
45.7408
47.7164
46.7397
46.8581
46.7442
46.4858
46.1791
46.1365
46.0199
19.3172
10.6553
20.3831
27.9752
33.8692
38.5291
41.497
43.351
45.0052
45.7487
46.325
46.6582
47.019
47.1365
47.1421
47.1957
47.2259
47.255
47.2636
47.3133
47.6392
48.3305
47.6817
46.4065
48.1201
47.1908
47.261
47.1571
46.9341
46.671
46.6462
46.5621
21.4731
8.5149
17.1642
24.817
31.7282
36.3331
40.0779
42.8302
44.2195
45.503
46.2728
46.7644
46.9287
47.1126
47.338
47.4364
47.5227
47.5516
47.5614
47.6152
47.9079
48.4768
47.8656
46.8455
48.4672
47.6921
47.8011
47.7285
47.5435
47.3174
47.2809
47.1914
23.5449
9.77974
12.514
20.6825
27.3113
33.9772
38.3266
41.0814
43.7564
45.0127
45.9819
46.5582
47.1523
47.4405
47.5075
47.6185
47.7003
47.8005
47.9106
48.0596
48.3869
48.9029
48.3643
47.4283
48.7541
48.0039
48.0645
47.9987
47.8463
47.6615
47.6489
47.5922
22.9494
10.1063
7.63833
15.4572
24.1269
29.5002
35.2442
39.9018
42.0334
44.2383
45.5589
46.4858
46.8556
47.1759
47.546
47.7324
47.8855
47.9795
48.0728
48.2106
48.4929
48.8783
48.3824
47.7154
48.9601
48.3789
48.4904
48.4531
48.3388
48.1928
48.1689
48.106
21.2736
11.8879
5.57511
11.962
12.006
25.0016
31.5144
35.7737
40.8012
42.9622
44.7311
45.7866
46.8234
47.3938
47.5722
47.7804
47.9307
48.0994
48.2945
48.528
48.8499
49.1982
48.7852
48.1849
49.0535
48.4702
48.511
48.4661
48.3731
48.2665
48.2727
48.2406
18.3281
10.6389
7.36717
6.59234
5.7984
15.0745
22.6322
33.2094
36.5139
41.0685
43.517
45.3043
46.0617
46.6658
47.3249
47.6754
47.9424
48.1073
48.254
48.4261
48.6438
48.8304
48.4651
48.1723
48.9753
48.6139
48.7238
48.7124
48.6569
48.5865
48.5807
48.5411
15.9645
12.699
11.3141
10.6815
5.02471
1.52673
9.64865
17.1382
33.6432
37.6718
41.4598
43.5323
45.4911
46.6042
47.0029
47.4029
47.6759
47.9383
48.212
48.4928
48.775
48.9687
48.6987
48.4261
48.6803
48.2466
48.2019
48.1186
48.0331
47.9787
47.9982
47.975
11.6798
7.05372
7.48781
6.01561
6.90182
11.523
11.533
13.0618
13.2055
32.8804
38.3303
42.1864
43.6616
44.8287
46.0988
46.7892
47.2891
47.5723
47.7514
47.8766
47.9075
47.8028
47.4997
47.5951
47.824
47.7289
47.7944
47.7723
47.7323
47.7096
47.7091
47.676
11.4261
10.408
1.43973
9.28337
0.715698
11.6133
11.9165
4.79749
14.2006
19.8074
33.0377
37.6533
41.9143
44.1837
44.9338
45.6829
46.1646
46.5806
46.9528
47.2278
47.403
47.4117
47.2587
47.2756
46.5239
46.0985
45.7247
45.3782
45.1137
44.9962
44.9381
44.84
10.742
5.21647
6.60866
3.74126
9.83062
0.740772
2.64384
12.9872
6.95582
8.55263
24.7729
34.7803
37.2717
39.5434
42.3531
43.7895
44.7601
45.2273
45.3871
45.2879
44.7978
44.0048
43.4117
43.8231
43.1779
43.417
43.2956
43.1296
42.9388
42.8278
42.6814
42.5578
4.68255
5.58629
8.95657
9.49191
11.1194
9.57676
7.19691
12.2747
4.03556
12.7603
15.1605
14.9523
31.5278
37.7783
38.8796
40.2748
41.076
41.7256
42.1835
42.3241
42.2833
41.9766
41.8368
41.8403
38.0239
36.4022
33.7472
30.8069
28.0126
25.7842
23.2679
20.9379
11.8666
9.1799
6.29705
11.2641
12.0679
20.8463
24.4012
20.4089
2.13327
14.2167
13.5533
6.5931
16.7323
12.5496
28.7529
33.6005
36.0785
36.9213
36.8095
35.3327
32.258
27.271
20.4653
15.6373
17.1359
18.0503
17.1681
12.848
14.9047
2.15409
14.1268
17.763
7.3962
11.2007
11.3368
9.45084
10.2145
15.018
20.6012
22.7281
24.2614
19.5549
9.99426
10.7195
14.695
14.1017
16.5163
8.33748
12.8477
12.1475
7.83968
16.7483
6.84743
18.7735
5.67623
16.7224
13.4894
17.7685
6.45241
9.81322
19.4632
16.3058
8.55197
12.6554
10.2585
16.8575
17.7941
17.3171
17.1001
18.0864
20.5415
22.6435
23.2896
21.3473
6.9163
9.03089
13.406
15.4693
2.84381
0.991074
10.5576
3.49872
15.4302
10.5377
16.4039
13.7047
5.12284
12.9885
9.63889
12.1119
17.7484
20.8797
23.1403
23.4235
23.627
23.4481
9.70246
19.0999
22.0622
23.5413
24.1947
24.6373
25.2436
25.6606
24.9491
21.7139
18.348
14.4655
12.1062
11.2128
17.4668
7.40457
17.9491
16.2506
8.24479
5.31307
2.96214
12.9769
20.0711
24.4627
26.7592
29.0941
29.2656
29.3399
29.279
28.9346
28.2248
27.6369
8.19947
18.7692
22.6348
24.9853
26.2932
26.8163
26.6875
25.8417
23.9518
21.444
20.1313
21.4332
23.0759
22.851
22.666
21.1556
21.2857
21.997
23.386
25.5592
27.9317
28.6809
29.1648
29.2717
30.0395
30.2871
31.0091
31.2062
31.1151
30.5605
29.4613
28.4921
6.30861
16.858
21.063
23.7526
25.3531
26.0076
25.7121
24.4483
22.2577
19.7643
17.7155
18.0813
20.8946
23.3626
24.6081
25.5746
26.2488
26.8157
27.5665
28.3103
28.943
29.9712
30.684
31.0689
31.5611
31.7194
31.5367
30.968
30.2181
29.2565
27.6059
25.8696
4.53542
13.8101
17.9393
20.7854
22.5934
23.4364
23.2824
22.0057
19.4926
15.7348
11.3711
11.8307
17.2518
21.4114
23.768
25.0504
26.0542
27.1432
28.2355
29.238
29.9689
30.138
30.0087
29.7261
29.5728
29.1008
28.9311
28.4435
27.8136
26.9982
25.4935
23.6268
3.74338
11.6482
14.9509
17.6178
19.5046
20.5484
20.6707
19.7446
17.6235
14.3323
11.5833
10.1868
9.89194
14.2087
18.1277
20.5531
22.2533
23.8267
25.3352
26.4784
27.0082
27.2666
27.499
27.7409
27.9112
27.8438
27.8029
27.3589
26.6921
25.7872
24.3572
22.5053
3.9708
11.4743
13.635
15.8004
17.5096
18.569
18.8171
18.1456
16.426
13.8641
11.6202
12.0192
13.0272
13.5581
14.6149
16.1713
18.0217
20.2169
22.457
24.2844
25.3321
25.8319
26.2374
26.4612
26.3741
26.0334
25.7619
25.0275
23.9868
22.9474
21.5813
20.0216
3.75967
10.5056
12.591
14.5612
16.1693
17.1705
17.4166
16.7861
15.1534
12.852
11.5601
11.4695
11.6648
13.1152
14.3466
15.5232
16.9496
18.6532
20.4771
22.0306
22.8317
23.2514
23.6719
24.125
24.4515
24.5786
24.6032
24.097
23.1081
21.8687
20.4237
18.9364
3.35461
9.39778
11.5326
13.4367
14.9524
15.8552
15.9878
15.2277
13.5891
11.8931
11.6102
11.5772
12.4608
12.8796
13.4795
14.3363
15.4741
16.8631
18.3328
19.6676
20.7312
21.7026
22.6449
23.4735
24.0397
24.3462
24.4075
23.8961
22.7978
21.2923
19.6083
18.2549
3.01862
8.63238
10.813
12.2448
13.4871
14.2128
14.2176
13.4417
12.2454
11.5939
11.5822
12.3217
12.8388
13.3669
13.841
14.4172
15.2288
16.2862
17.5067
18.808
20.0899
21.2623
22.3834
23.3975
24.1564
24.6318
24.7852
24.3298
23.1791
21.3951
19.3196
17.9022
2.49355
7.66447
9.66522
11.2391
12.1009
12.6376
12.5922
12.0568
11.5996
11.6213
12.3257
12.9711
13.5067
13.9357
14.3551
14.8483
15.5253
16.4688
17.6618
18.9711
20.2994
21.6144
22.8847
24.0319
24.9266
25.5146
25.7219
25.2892
24.063
22.0013
19.4562
17.8557