/*--------------------------------*- C++ -*----------------------------------*\
  =========                 |
  \\      /  F ield         | OpenFOAM: The Open Source CFD Toolbox
   \\    /   O peration     | Website:  https://openfoam.org
    \\  /    A nd           | Version:  6
     \\/     M anipulation  |
\*---------------------------------------------------------------------------*/
FoamFile
{
    version     2.0;
    format      ascii;
    class       volVectorField;
    location    "0";
    object      U;
}
// * * * * * * * * * * * * * * * * * * * * * * * * * * * * * * * * * * * * * //

dimensions      [0 1 -1 0 0 0 0];

internalField   nonuniform List<vector> 
63280
(
(0.126158 -1.20561e-08 -2.04294e-10)
(0.126801 -1.22467e-08 -2.10924e-10)
(0.127745 -1.24584e-08 -2.19983e-10)
(0.129245 -1.2738e-08 -2.32444e-10)
(0.131444 -1.31445e-08 -2.46849e-10)
(0.131444 -1.31467e-08 -2.46815e-10)
(0.129245 -1.27475e-08 -2.323e-10)
(0.127745 -1.24803e-08 -2.19649e-10)
(0.126801 -1.22861e-08 -2.10323e-10)
(0.126158 -1.21182e-08 -2.03347e-10)
(0.125686 -1.1961e-08 -1.97867e-10)
(0.125314 -1.18094e-08 -1.93316e-10)
(0.125005 -1.16612e-08 -1.89343e-10)
(0.124735 -1.15157e-08 -1.85734e-10)
(0.124492 -1.13725e-08 -1.82352e-10)
(0.124266 -1.12312e-08 -1.7911e-10)
(0.124052 -1.10916e-08 -1.75952e-10)
(0.122027 -6.45769e-09 -3.11294e-10)
(0.122753 -6.64705e-09 -3.17528e-10)
(0.123964 -6.89349e-09 -3.26614e-10)
(0.126253 -7.2188e-09 -3.42863e-10)
(0.130363 -7.55686e-09 -3.7303e-10)
(0.130363 -7.55829e-09 -3.72995e-10)
(0.126253 -7.22573e-09 -3.42695e-10)
(0.123964 -6.90987e-09 -3.26216e-10)
(0.122753 -6.6769e-09 -3.16803e-10)
(0.122027 -6.50508e-09 -3.10142e-10)
(0.121534 -6.37045e-09 -3.04658e-10)
(0.121163 -6.25834e-09 -2.99728e-10)
(0.124907 -1.15928e-08 -1.90273e-10)
(0.12467 -1.14629e-08 -1.8659e-10)
(0.124447 -1.13313e-08 -1.83135e-10)
(0.124236 -1.11989e-08 -1.79829e-10)
(0.124031 -1.10664e-08 -1.76618e-10)
(0.122057 -6.24506e-09 -3.15324e-10)
(0.122833 -6.3473e-09 -3.23406e-10)
(0.124206 -6.47304e-09 -3.35837e-10)
(0.127106 -6.70152e-09 -3.58754e-10)
(0.134218 -7.32242e-09 -4.09321e-10)
(0.134218 -7.32335e-09 -4.09298e-10)
(0.127106 -6.70802e-09 -3.58596e-10)
(0.124206 -6.48899e-09 -3.35449e-10)
(0.122833 -6.37662e-09 -3.22693e-10)
(0.122057 -6.29177e-09 -3.14189e-10)
(0.121548 -6.21531e-09 -3.0762e-10)
(0.121171 -6.1424e-09 -3.02014e-10)
(0.120867 -6.07172e-09 -2.96919e-10)
(0.120605 -6.00288e-09 -2.92105e-10)
(0.120368 -5.93574e-09 -2.87445e-10)
(0.120149 -5.87021e-09 -2.82863e-10)
(0.11994 -5.80621e-09 -2.78312e-10)
(0.121875 -6.01151e-09 -3.17659e-10)
(0.122473 -6.01406e-09 -3.2595e-10)
(0.123402 -5.97729e-09 -3.37509e-10)
(0.125044 -5.93652e-09 -3.54732e-10)
(0.127995 -6.08714e-09 -3.78662e-10)
(0.127995 -6.08859e-09 -3.78626e-10)
(0.125044 -5.94336e-09 -3.54565e-10)
(0.123402 -5.99351e-09 -3.37115e-10)
(0.122473 -6.04362e-09 -3.25231e-10)
(0.121875 -6.0584e-09 -3.16519e-10)
(0.121446 -6.04537e-09 -3.09577e-10)
(0.12111 -6.01456e-09 -3.03642e-10)
(0.120828 -5.97295e-09 -2.98292e-10)
(0.12058 -5.92489e-09 -2.93288e-10)
(0.120353 -5.87308e-09 -2.88488e-10)
(0.12014 -5.81915e-09 -2.83803e-10)
(0.119936 -5.76415e-09 -2.79175e-10)
(0.117282 3.1796e-09 -4.47296e-10)
(0.11792 3.11591e-09 -4.55983e-10)
(0.11901 2.98447e-09 -4.68475e-10)
(0.121214 2.75816e-09 -4.91297e-10)
(0.125857 2.55574e-09 -5.3963e-10)
(0.125857 2.55498e-09 -5.39599e-10)
(0.121214 2.75419e-09 -4.91135e-10)
(0.11901 2.97487e-09 -4.68086e-10)
(0.11792 3.09822e-09 -4.55265e-10)
(0.117282 3.15133e-09 -4.46149e-10)
(0.116849 3.16434e-09 -4.38578e-10)
(0.116517 3.1544e-09 -4.31731e-10)
(0.120744 -5.8694e-09 -2.99118e-10)
(0.120522 -5.84183e-09 -2.94049e-10)
(0.120313 -5.80533e-09 -2.89189e-10)
(0.120111 -5.76315e-09 -2.84455e-10)
(0.119916 -5.71735e-09 -2.7979e-10)
(0.117251 3.49991e-09 -4.51261e-10)
(0.117887 3.57985e-09 -4.61791e-10)
(0.119015 3.67713e-09 -4.77674e-10)
(0.121509 3.73572e-09 -5.07283e-10)
(0.128284 3.38057e-09 -5.76467e-10)
(0.128284 3.37999e-09 -5.76444e-10)
(0.121509 3.7319e-09 -5.07129e-10)
(0.119015 3.66771e-09 -4.77292e-10)
(0.117887 3.56239e-09 -4.61082e-10)
(0.117251 3.47194e-09 -4.50126e-10)
(0.116824 3.39563e-09 -4.41488e-10)
(0.1165 3.32815e-09 -4.33986e-10)
(0.116231 3.26573e-09 -4.27083e-10)
(0.115993 3.20607e-09 -4.2051e-10)
(0.115775 3.14775e-09 -4.14118e-10)
(0.11557 3.08987e-09 -4.07818e-10)
(0.115372 3.03184e-09 -4.01554e-10)
(0.117041 3.81648e-09 -4.53023e-10)
(0.117479 4.03925e-09 -4.63295e-10)
(0.118083 4.38564e-09 -4.76902e-10)
(0.118911 4.92557e-09 -4.95311e-10)
(0.119709 5.60816e-09 -5.14814e-10)
(0.119709 5.60729e-09 -5.14779e-10)
(0.118911 4.92151e-09 -4.95146e-10)
(0.118083 4.37595e-09 -4.76509e-10)
(0.117479 4.02151e-09 -4.62575e-10)
(0.117041 3.78825e-09 -4.51877e-10)
(0.116703 3.62446e-09 -4.43069e-10)
(0.116423 3.50052e-09 -4.35345e-10)
(0.11618 3.40002e-09 -4.28255e-10)
(0.115958 3.31369e-09 -4.21538e-10)
(0.11575 3.23611e-09 -4.1504e-10)
(0.115552 3.16393e-09 -4.08664e-10)
(0.11536 3.09503e-09 -4.02345e-10)
(0.112009 1.66364e-08 -5.60624e-10)
(0.112566 1.69179e-08 -5.7248e-10)
(0.113563 1.72664e-08 -5.90321e-10)
(0.11586 1.78158e-08 -6.25864e-10)
(0.122673 1.90893e-08 -7.23388e-10)
(0.122673 1.90891e-08 -7.23366e-10)
(0.11586 1.78145e-08 -6.25721e-10)
(0.113563 1.7263e-08 -5.89963e-10)
(0.112566 1.69117e-08 -5.71813e-10)
(0.112009 1.66264e-08 -5.59549e-10)
(0.111631 1.6368e-08 -5.49665e-10)
(0.111338 1.61222e-08 -5.40888e-10)
(0.11109 1.5883e-08 -5.32678e-10)
(0.110868 1.56473e-08 -5.2477e-10)
(0.110662 1.54134e-08 -5.17024e-10)
(0.110465 1.51802e-08 -5.09354e-10)
(0.115334 3.15568e-09 -4.02779e-10)
(0.111883 1.6963e-08 -5.6174e-10)
(0.112337 1.73953e-08 -5.73553e-10)
(0.11307 1.79951e-08 -5.90199e-10)
(0.114527 1.88947e-08 -6.18254e-10)
(0.118085 1.99908e-08 -6.73659e-10)
(0.118085 1.99906e-08 -6.73632e-10)
(0.114527 1.88934e-08 -6.18108e-10)
(0.11307 1.79917e-08 -5.89839e-10)
(0.112337 1.73891e-08 -5.72883e-10)
(0.111883 1.6953e-08 -5.60665e-10)
(0.111553 1.6603e-08 -5.50645e-10)
(0.111286 1.62993e-08 -5.41738e-10)
(0.111054 1.60219e-08 -5.3343e-10)
(0.110843 1.57599e-08 -5.25456e-10)
(0.110643 1.55075e-08 -5.17666e-10)
(0.110452 1.52607e-08 -5.09969e-10)
(0.110266 1.50171e-08 -5.02304e-10)
(0.10612 2.95702e-08 -5.52679e-10)
(0.106593 3.00057e-08 -5.63535e-10)
(0.107412 3.04895e-08 -5.79242e-10)
(0.109259 3.11759e-08 -6.0939e-10)
(0.114569 3.29181e-08 -6.88872e-10)
(0.114569 3.29183e-08 -6.88856e-10)
(0.109259 3.11775e-08 -6.09294e-10)
(0.107412 3.04935e-08 -5.79001e-10)
(0.106593 3.00132e-08 -5.63084e-10)
(0.10612 2.95822e-08 -5.5195e-10)
(0.105788 2.91686e-08 -5.42756e-10)
(0.105524 2.87631e-08 -5.34473e-10)
(0.105295 2.83622e-08 -5.26661e-10)
(0.105086 2.7964e-08 -5.19103e-10)
(0.110612 1.55811e-08 -5.17819e-10)
(0.110428 1.53235e-08 -5.10154e-10)
(0.110248 1.50719e-08 -5.02516e-10)
(0.106042 2.98063e-08 -5.52003e-10)
(0.10647 3.03604e-08 -5.62395e-10)
(0.107204 3.10668e-08 -5.77233e-10)
(0.108902 3.21595e-08 -6.05947e-10)
(0.11463 3.42472e-08 -6.91905e-10)
(0.11463 3.42475e-08 -6.9189e-10)
(0.108902 3.21611e-08 -6.05853e-10)
(0.107204 3.10708e-08 -5.76994e-10)
(0.10647 3.03678e-08 -5.61946e-10)
(0.106042 2.98183e-08 -5.51278e-10)
(0.105736 2.93373e-08 -5.42357e-10)
(0.105487 2.8891e-08 -5.34248e-10)
(0.105268 2.84638e-08 -5.26557e-10)
(0.105067 2.8048e-08 -5.19089e-10)
(0.104877 2.7639e-08 -5.11738e-10)
(0.104692 2.7234e-08 -5.0444e-10)
(0.104512 2.68309e-08 -4.97152e-10)
(0.0993944 3.73433e-08 -3.68614e-10)
(0.0997998 3.79634e-08 -3.75537e-10)
(0.10047 3.86958e-08 -3.85159e-10)
(0.101891 3.97662e-08 -4.02087e-10)
(0.105573 4.20233e-08 -4.38258e-10)
(0.105573 4.20238e-08 -4.3825e-10)
(0.101891 3.97691e-08 -4.02044e-10)
(0.10047 3.87032e-08 -3.8505e-10)
(0.0997998 3.79772e-08 -3.7533e-10)
(0.0993944 3.73658e-08 -3.68279e-10)
(0.0990999 3.68027e-08 -3.62357e-10)
(0.105425 2.8985e-08 -5.33401e-10)
(0.105224 2.85382e-08 -5.25968e-10)
(0.105035 2.8109e-08 -5.18673e-10)
(0.104852 2.76907e-08 -5.11446e-10)
(0.104673 2.72791e-08 -5.04243e-10)
(0.104497 2.68713e-08 -4.97029e-10)
(0.0993291 3.74097e-08 -3.66845e-10)
(0.0997071 3.8064e-08 -3.72806e-10)
(0.100354 3.8882e-08 -3.80771e-10)
(0.101927 4.02489e-08 -3.95905e-10)
(0.108162 4.42532e-08 -4.4999e-10)
(0.108162 4.42536e-08 -4.49984e-10)
(0.101927 4.02517e-08 -3.95863e-10)
(0.100354 3.88893e-08 -3.80662e-10)
(0.0997071 3.80777e-08 -3.72601e-10)
(0.0993291 3.7432e-08 -3.66513e-10)
(0.0990537 3.68523e-08 -3.61162e-10)
(0.0988254 3.63044e-08 -3.56142e-10)
(0.0986216 3.5774e-08 -3.5129e-10)
(0.0984317 3.52539e-08 -3.46524e-10)
(0.09825 3.47399e-08 -3.41801e-10)
(0.0980734 3.42294e-08 -3.37092e-10)
(0.0978997 3.37204e-08 -3.32377e-10)
(0.0992112 3.74131e-08 -3.64498e-10)
(0.0994975 3.80555e-08 -3.68983e-10)
(0.0998958 3.88151e-08 -3.73528e-10)
(0.10052 3.98291e-08 -3.7789e-10)
(0.101167 4.10786e-08 -3.78302e-10)
(0.101167 4.10791e-08 -3.78294e-10)
(0.10052 3.9832e-08 -3.77847e-10)
(0.0998958 3.88225e-08 -3.73418e-10)
(0.0994975 3.80693e-08 -3.68776e-10)
(0.0992112 3.74355e-08 -3.64164e-10)
(0.0989786 3.68586e-08 -3.59582e-10)
(0.0987737 3.63117e-08 -3.55016e-10)
(0.0985841 3.57819e-08 -3.50455e-10)
(0.0984035 3.52625e-08 -3.4589e-10)
(0.0982283 3.47493e-08 -3.4131e-10)
(0.0980564 3.42396e-08 -3.36709e-10)
(0.0978863 3.37314e-08 -3.32077e-10)
(0.0914049 3.26027e-08 -1.13807e-10)
(0.0917305 3.31137e-08 -1.15162e-10)
(0.0922728 3.37062e-08 -1.16352e-10)
(0.0936024 3.46032e-08 -1.17079e-10)
(0.0994536 3.73915e-08 -1.17072e-10)
(0.0994536 3.7392e-08 -1.17073e-10)
(0.0936024 3.46066e-08 -1.17081e-10)
(0.0922728 3.37149e-08 -1.16357e-10)
(0.0917305 3.31303e-08 -1.15171e-10)
(0.0914049 3.26297e-08 -1.13822e-10)
(0.0911602 3.21621e-08 -1.12411e-10)
(0.0909523 3.17108e-08 -1.10973e-10)
(0.0907635 3.12689e-08 -1.09523e-10)
(0.0905854 3.08328e-08 -1.08067e-10)
(0.0904136 3.04002e-08 -1.06605e-10)
(0.0902456 2.99696e-08 -1.05137e-10)
(0.0900798 2.95398e-08 -1.03662e-10)
(0.091299 3.24639e-08 -1.12241e-10)
(0.0915496 3.28913e-08 -1.12716e-10)
(0.091899 3.3299e-08 -1.12126e-10)
(0.0925107 3.36587e-08 -1.08763e-10)
(0.0937729 3.39476e-08 -9.95025e-11)
(0.0937729 3.39482e-08 -9.95028e-11)
(0.0925107 3.36622e-08 -1.08765e-10)
(0.091899 3.33078e-08 -1.12131e-10)
(0.0915496 3.2908e-08 -1.12725e-10)
(0.091299 3.2491e-08 -1.12256e-10)
(0.091091 3.20682e-08 -1.11331e-10)
(0.0909037 3.16439e-08 -1.10189e-10)
(0.0907277 3.12195e-08 -1.08931e-10)
(0.0905581 3.07954e-08 -1.07605e-10)
(0.0903923 3.03716e-08 -1.06237e-10)
(0.0902287 2.99475e-08 -1.04838e-10)
(0.0900662 2.95227e-08 -1.03416e-10)
(0.0816444 1.95853e-08 4.58334e-11)
(0.081919 1.98662e-08 4.69138e-11)
(0.0823581 2.01691e-08 4.89939e-11)
(0.0834221 2.05632e-08 5.47806e-11)
(0.0886334 2.17188e-08 8.3917e-11)
(0.0886334 2.17191e-08 8.39131e-11)
(0.0834221 2.05655e-08 5.47528e-11)
(0.0823581 2.01752e-08 4.8921e-11)
(0.081919 1.98779e-08 4.67741e-11)
(0.0816444 1.96044e-08 4.56057e-11)
(0.0814303 1.93407e-08 4.47915e-11)
(0.0812436 1.90825e-08 4.41312e-11)
(0.081071 1.88277e-08 4.35447e-11)
(0.0809062 1.85751e-08 4.29953e-11)
(0.0807462 1.8324e-08 4.24636e-11)
(0.0805887 1.80737e-08 4.19388e-11)
(0.0804328 1.78235e-08 4.1414e-11)
(0.0815381 1.94398e-08 4.62932e-11)
(0.081741 1.96344e-08 4.75887e-11)
(0.0820018 1.97508e-08 4.99766e-11)
(0.0824196 1.96408e-08 5.54346e-11)
(0.0831049 1.88557e-08 6.8573e-11)
(0.0831049 1.88561e-08 6.85684e-11)
(0.0824196 1.96432e-08 5.54061e-11)
(0.0820018 1.9757e-08 4.99028e-11)
(0.081741 1.96461e-08 4.74483e-11)
(0.0815381 1.94589e-08 4.60649e-11)
(0.0813598 1.92416e-08 4.51182e-11)
(0.0811935 1.9011e-08 4.43741e-11)
(0.0810337 1.8774e-08 4.37324e-11)
(0.0808775 1.85335e-08 4.3145e-11)
(0.0807235 1.82911e-08 4.25863e-11)
(0.0805705 1.80471e-08 4.20416e-11)
(0.0804178 1.78018e-08 4.15018e-11)
(0.0749505 7.04058e-09 3.09687e-11)
(0.0751765 7.12066e-09 3.13632e-11)
(0.0754321 7.19365e-09 3.19846e-11)
(0.075767 7.24754e-09 3.32196e-11)
(0.0764072 7.23525e-09 3.6866e-11)
(0.0792691 6.95015e-09 5.9338e-11)
(0.0792691 6.95026e-09 5.93347e-11)
(0.0764072 7.23606e-09 3.68426e-11)
(0.075767 7.2497e-09 3.31577e-11)
(0.0754321 7.19779e-09 3.18656e-11)
(0.0751765 7.12743e-09 3.11689e-11)
(0.0749505 7.05059e-09 3.06809e-11)
(0.0747381 6.97119e-09 3.02808e-11)
(0.0745328 6.8907e-09 2.99211e-11)
(0.0743314 6.80971e-09 2.95802e-11)
(0.0741323 6.72845e-09 2.92466e-11)
(0.0739341 6.64697e-09 2.89141e-11)
(0.0737362 6.56524e-09 2.85785e-11)
(0.0679496 1.35776e-09 -7.76944e-11)
(0.067987 1.37271e-09 -7.95878e-11)
(0.0680304 1.38681e-09 -8.1494e-11)
(0.0680901 1.39798e-09 -8.3466e-11)
(0.0682162 1.39587e-09 -8.57557e-11)
(0.0689574 1.2669e-09 -9.11419e-11)
(0.0689574 1.26687e-09 -9.11551e-11)
(0.0682162 1.3957e-09 -8.58541e-11)
(0.0680901 1.3975e-09 -8.37314e-11)
(0.0680304 1.38589e-09 -8.20063e-11)
(0.067987 1.3712e-09 -8.0425e-11)
(0.0679496 1.35553e-09 -7.89328e-11)
(0.067915 1.33948e-09 -7.75102e-11)
(0.0678819 1.32327e-09 -7.61473e-11)
(0.0678497 1.30698e-09 -7.48379e-11)
(0.0678182 1.29064e-09 -7.35771e-11)
(0.067787 1.27424e-09 -7.23609e-11)
(0.0677561 1.25776e-09 -7.11859e-11)
(0.0680002 1.34729e-09 -7.79402e-11)
(0.0680622 1.35716e-09 -7.99538e-11)
(0.0681533 1.36147e-09 -8.20959e-11)
(0.0683228 1.35019e-09 -8.46189e-11)
(0.0687829 1.28008e-09 -8.86071e-11)
(0.0709511 8.61885e-10 -1.01386e-10)
(0.0709511 8.61861e-10 -1.014e-10)
(0.0687829 1.2799e-09 -8.87078e-11)
(0.0683228 1.34971e-09 -8.48869e-11)
(0.0681533 1.36054e-09 -8.26105e-11)
(0.0680622 1.35565e-09 -8.07925e-11)
(0.0680002 1.34506e-09 -7.91795e-11)
(0.0679513 1.33198e-09 -7.76878e-11)
(0.0679092 1.31764e-09 -7.6282e-11)
(0.0678711 1.30261e-09 -7.49441e-11)
(0.0678354 1.28714e-09 -7.36635e-11)
(0.0678012 1.27139e-09 -7.2433e-11)
(0.067768 1.25539e-09 -7.12472e-11)
(0.17623 -1.58329e-08 -4.74549e-10)
(0.175943 -1.59871e-08 -4.83076e-10)
(0.175539 -1.61264e-08 -4.93259e-10)
(0.174961 -1.62777e-08 -5.04266e-10)
(0.174265 -1.64978e-08 -5.11516e-10)
(0.174265 -1.65005e-08 -5.11374e-10)
(0.174961 -1.629e-08 -5.03636e-10)
(0.175539 -1.61553e-08 -4.9178e-10)
(0.175943 -1.60398e-08 -4.80385e-10)
(0.17623 -1.59164e-08 -4.70281e-10)
(0.17644 -1.57827e-08 -4.61195e-10)
(0.176602 -1.56415e-08 -4.52755e-10)
(0.176733 -1.54957e-08 -4.44678e-10)
(0.176845 -1.53473e-08 -4.36773e-10)
(0.176942 -1.51978e-08 -4.28914e-10)
(0.177031 -1.50479e-08 -4.21013e-10)
(0.177113 -1.48982e-08 -4.1301e-10)
(0.172407 -8.41349e-09 -7.11341e-10)
(0.172214 -8.6071e-09 -7.16581e-10)
(0.171893 -8.83837e-09 -7.20852e-10)
(0.171262 -9.08876e-09 -7.24398e-10)
(0.170081 -9.21777e-09 -7.29563e-10)
(0.170081 -9.21954e-09 -7.29454e-10)
(0.171262 -9.09769e-09 -7.23847e-10)
(0.171893 -8.85994e-09 -7.19523e-10)
(0.172214 -8.64687e-09 -7.1413e-10)
(0.172407 -8.47708e-09 -7.07422e-10)
(0.172541 -8.33883e-09 -6.99755e-10)
(0.172646 -8.2213e-09 -6.91422e-10)
(0.176702 -1.54154e-08 -4.47252e-10)
(0.176813 -1.52836e-08 -4.38949e-10)
(0.176913 -1.51469e-08 -4.30802e-10)
(0.177004 -1.50073e-08 -4.22693e-10)
(0.177088 -1.48658e-08 -4.1454e-10)
(0.172241 -8.13325e-09 -7.18491e-10)
(0.171971 -8.21241e-09 -7.26374e-10)
(0.171512 -8.28276e-09 -7.34457e-10)
(0.170621 -8.3845e-09 -7.41938e-10)
(0.168724 -8.6873e-09 -7.45856e-10)
(0.168724 -8.68841e-09 -7.45787e-10)
(0.170621 -8.39278e-09 -7.41428e-10)
(0.171512 -8.30366e-09 -7.33169e-10)
(0.171971 -8.25138e-09 -7.23973e-10)
(0.172241 -8.19583e-09 -7.14635e-10)
(0.172421 -8.13374e-09 -7.0525e-10)
(0.172555 -8.06747e-09 -6.95788e-10)
(0.172664 -7.99925e-09 -6.8621e-10)
(0.172757 -7.93052e-09 -6.76481e-10)
(0.172841 -7.86216e-09 -6.66576e-10)
(0.172919 -7.79468e-09 -6.56474e-10)
(0.172993 -7.72838e-09 -6.46154e-10)
(0.172144 -7.83984e-09 -7.24919e-10)
(0.171869 -7.80291e-09 -7.35317e-10)
(0.171455 -7.69698e-09 -7.47257e-10)
(0.170806 -7.54907e-09 -7.59923e-10)
(0.169887 -7.57299e-09 -7.67129e-10)
(0.169887 -7.57481e-09 -7.67017e-10)
(0.170806 -7.55793e-09 -7.59378e-10)
(0.171455 -7.71834e-09 -7.45941e-10)
(0.171869 -7.84227e-09 -7.32891e-10)
(0.172144 -7.9027e-09 -7.21046e-10)
(0.172339 -7.91727e-09 -7.10052e-10)
(0.172487 -7.90301e-09 -6.99542e-10)
(0.172607 -7.87116e-09 -6.89265e-10)
(0.172709 -7.82867e-09 -6.79063e-10)
(0.1728 -7.77977e-09 -6.68832e-10)
(0.172883 -7.7271e-09 -6.58502e-10)
(0.172961 -7.67231e-09 -6.48022e-10)
(0.167619 4.44139e-09 -1.0047e-09)
(0.167452 4.33428e-09 -1.0144e-09)
(0.167169 4.12244e-09 -1.02378e-09)
(0.166574 3.7518e-09 -1.0339e-09)
(0.165243 3.34188e-09 -1.05003e-09)
(0.165243 3.34098e-09 -1.04995e-09)
(0.166574 3.74688e-09 -1.03346e-09)
(0.167169 4.11031e-09 -1.02267e-09)
(0.167452 4.3117e-09 -1.01235e-09)
(0.167619 4.40509e-09 -1.0014e-09)
(0.167737 4.43793e-09 -9.89892e-10)
(0.167832 4.43633e-09 -9.77964e-10)
(0.172567 -7.7399e-09 -6.91611e-10)
(0.172673 -7.72247e-09 -6.81028e-10)
(0.172768 -7.69251e-09 -6.70536e-10)
(0.172854 -7.65447e-09 -6.60028e-10)
(0.172935 -7.6112e-09 -6.49428e-10)
(0.167461 4.85473e-09 -1.01248e-09)
(0.16722 4.92837e-09 -1.02541e-09)
(0.166808 4.99693e-09 -1.04e-09)
(0.165988 4.94564e-09 -1.05709e-09)
(0.164151 4.21915e-09 -1.07554e-09)
(0.164151 4.21849e-09 -1.07548e-09)
(0.165988 4.94097e-09 -1.05666e-09)
(0.166808 4.98507e-09 -1.03892e-09)
(0.16722 4.90612e-09 -1.02339e-09)
(0.167461 4.81886e-09 -1.00922e-09)
(0.167624 4.73791e-09 -9.95741e-10)
(0.167746 4.66249e-09 -9.82565e-10)
(0.167847 4.59039e-09 -9.69491e-10)
(0.167935 4.51989e-09 -9.56402e-10)
(0.168015 4.44982e-09 -9.43223e-10)
(0.16809 4.37941e-09 -9.299e-10)
(0.168161 4.30809e-09 -9.16393e-10)
(0.167364 5.27187e-09 -1.01863e-09)
(0.167116 5.53604e-09 -1.03407e-09)
(0.16675 5.94337e-09 -1.05264e-09)
(0.166217 6.57108e-09 -1.0757e-09)
(0.165628 7.36263e-09 -1.09997e-09)
(0.165628 7.36155e-09 -1.09988e-09)
(0.166217 6.56599e-09 -1.07523e-09)
(0.16675 5.93109e-09 -1.05152e-09)
(0.167116 5.51339e-09 -1.03201e-09)
(0.167364 5.23564e-09 -1.01534e-09)
(0.167543 5.03907e-09 -1.00028e-09)
(0.16768 4.88935e-09 -9.8609e-10)
(0.167793 4.76722e-09 -9.72354e-10)
(0.167889 4.66173e-09 -9.58822e-10)
(0.167976 4.5664e-09 -9.45344e-10)
(0.168056 4.47723e-09 -9.31817e-10)
(0.168132 4.39165e-09 -9.18171e-10)
(0.162031 2.27282e-08 -1.25259e-09)
(0.161849 2.29834e-08 -1.2684e-09)
(0.161533 2.32274e-08 -1.28656e-09)
(0.16083 2.34434e-08 -1.31133e-09)
(0.158917 2.35969e-08 -1.35749e-09)
(0.158917 2.35968e-08 -1.35744e-09)
(0.16083 2.34424e-08 -1.31098e-09)
(0.161533 2.3225e-08 -1.28566e-09)
(0.161849 2.29788e-08 -1.26672e-09)
(0.162031 2.27207e-08 -1.24986e-09)
(0.162156 2.24573e-08 -1.23379e-09)
(0.162255 2.21909e-08 -1.21801e-09)
(0.162339 2.19225e-08 -1.20232e-09)
(0.162416 2.16525e-08 -1.1866e-09)
(0.162487 2.13806e-08 -1.17078e-09)
(0.162556 2.11066e-08 -1.15481e-09)
(0.168108 4.47233e-09 -9.19271e-10)
(0.161906 2.31638e-08 -1.25554e-09)
(0.161678 2.36259e-08 -1.27246e-09)
(0.161307 2.42295e-08 -1.29217e-09)
(0.160638 2.5027e-08 -1.31735e-09)
(0.159448 2.55645e-08 -1.34987e-09)
(0.159448 2.55643e-08 -1.34981e-09)
(0.160638 2.50261e-08 -1.31699e-09)
(0.161307 2.42271e-08 -1.29127e-09)
(0.161678 2.36213e-08 -1.27077e-09)
(0.161906 2.31564e-08 -1.25281e-09)
(0.162063 2.27695e-08 -1.23604e-09)
(0.162183 2.24257e-08 -1.21984e-09)
(0.162283 2.21063e-08 -1.20389e-09)
(0.16237 2.18013e-08 -1.18801e-09)
(0.162449 2.15047e-08 -1.1721e-09)
(0.162523 2.12127e-08 -1.15608e-09)
(0.162594 2.09229e-08 -1.13989e-09)
(0.155715 4.0822e-08 -1.23422e-09)
(0.155592 4.12234e-08 -1.25131e-09)
(0.15539 4.15449e-08 -1.27184e-09)
(0.154926 4.17087e-08 -1.30158e-09)
(0.15345 4.18018e-08 -1.35598e-09)
(0.15345 4.18023e-08 -1.35594e-09)
(0.154926 4.1712e-08 -1.30135e-09)
(0.15539 4.15533e-08 -1.27126e-09)
(0.155592 4.12393e-08 -1.25021e-09)
(0.155715 4.08478e-08 -1.23243e-09)
(0.155807 4.04205e-08 -1.21601e-09)
(0.155885 3.99754e-08 -1.2002e-09)
(0.155956 3.95207e-08 -1.18467e-09)
(0.156024 3.906e-08 -1.16924e-09)
(0.162419 2.16046e-08 -1.17253e-09)
(0.162498 2.12977e-08 -1.15653e-09)
(0.162572 2.09967e-08 -1.14037e-09)
(0.155586 4.11448e-08 -1.23089e-09)
(0.155397 4.17071e-08 -1.24605e-09)
(0.155075 4.23281e-08 -1.26306e-09)
(0.1544 4.30182e-08 -1.2868e-09)
(0.152725 4.32792e-08 -1.34336e-09)
(0.152725 4.32797e-08 -1.34333e-09)
(0.1544 4.30215e-08 -1.28657e-09)
(0.155075 4.23364e-08 -1.26248e-09)
(0.155397 4.17229e-08 -1.24495e-09)
(0.155586 4.11704e-08 -1.22911e-09)
(0.155716 4.06511e-08 -1.21383e-09)
(0.155817 4.01499e-08 -1.19874e-09)
(0.155904 3.96591e-08 -1.18369e-09)
(0.155981 3.91742e-08 -1.16861e-09)
(0.156054 3.86923e-08 -1.15344e-09)
(0.156123 3.82114e-08 -1.13814e-09)
(0.15619 3.773e-08 -1.12267e-09)
(0.148272 5.21177e-08 -8.02567e-10)
(0.148197 5.27723e-08 -8.15464e-10)
(0.148098 5.34445e-08 -8.32273e-10)
(0.147899 5.41853e-08 -8.58217e-10)
(0.147138 5.52553e-08 -8.95284e-10)
(0.147138 5.52562e-08 -8.95268e-10)
(0.147899 5.41902e-08 -8.58124e-10)
(0.148098 5.34569e-08 -8.32034e-10)
(0.148197 5.27957e-08 -8.15011e-10)
(0.148272 5.21557e-08 -8.01831e-10)
(0.148339 5.1525e-08 -7.9035e-10)
(0.155762 4.02894e-08 -1.19636e-09)
(0.15586 3.97679e-08 -1.18192e-09)
(0.155946 3.92625e-08 -1.16728e-09)
(0.156024 3.87664e-08 -1.15243e-09)
(0.156098 3.82756e-08 -1.13739e-09)
(0.156168 3.77869e-08 -1.12212e-09)
(0.148143 5.22058e-08 -7.94958e-10)
(0.147995 5.28996e-08 -8.03565e-10)
(0.147742 5.36558e-08 -8.12064e-10)
(0.14717 5.46117e-08 -8.21762e-10)
(0.145386 5.63996e-08 -8.51163e-10)
(0.145386 5.64003e-08 -8.51151e-10)
(0.14717 5.46163e-08 -8.21672e-10)
(0.147742 5.36679e-08 -8.11829e-10)
(0.147995 5.29227e-08 -8.03118e-10)
(0.148143 5.22434e-08 -7.94229e-10)
(0.148249 5.1592e-08 -7.85166e-10)
(0.148336 5.09544e-08 -7.75984e-10)
(0.148412 5.03246e-08 -7.6671e-10)
(0.148483 4.96988e-08 -7.57351e-10)
(0.14855 4.90749e-08 -7.47905e-10)
(0.148615 4.84508e-08 -7.38363e-10)
(0.148679 4.78251e-08 -7.28711e-10)
(0.148038 5.2237e-08 -7.86922e-10)
(0.147843 5.29444e-08 -7.9119e-10)
(0.147521 5.37178e-08 -7.91074e-10)
(0.146917 5.46376e-08 -7.80676e-10)
(0.145903 5.5718e-08 -7.4864e-10)
(0.145903 5.57188e-08 -7.48623e-10)
(0.146917 5.46425e-08 -7.80582e-10)
(0.147521 5.37301e-08 -7.90835e-10)
(0.147843 5.29677e-08 -7.90738e-10)
(0.148038 5.22748e-08 -7.86188e-10)
(0.148174 5.16154e-08 -7.79576e-10)
(0.148279 5.09735e-08 -7.71901e-10)
(0.148368 5.03415e-08 -7.63618e-10)
(0.148447 4.97148e-08 -7.54947e-10)
(0.148521 4.90907e-08 -7.45997e-10)
(0.148591 4.84668e-08 -7.36826e-10)
(0.148658 4.78415e-08 -7.27459e-10)
(0.139122 4.61119e-08 -1.71001e-10)
(0.139005 4.66647e-08 -1.71723e-10)
(0.138813 4.72095e-08 -1.71078e-10)
(0.138371 4.77456e-08 -1.6618e-10)
(0.136749 4.84646e-08 -1.46008e-10)
(0.136749 4.84653e-08 -1.4601e-10)
(0.138371 4.7751e-08 -1.66201e-10)
(0.138813 4.72236e-08 -1.71134e-10)
(0.139005 4.66918e-08 -1.71831e-10)
(0.139122 4.61561e-08 -1.71176e-10)
(0.139211 4.56202e-08 -1.69995e-10)
(0.139288 4.50853e-08 -1.68573e-10)
(0.139357 4.45516e-08 -1.67029e-10)
(0.139423 4.40184e-08 -1.65415e-10)
(0.139487 4.34852e-08 -1.63758e-10)
(0.139549 4.2951e-08 -1.62071e-10)
(0.139611 4.2415e-08 -1.6036e-10)
(0.139011 4.59264e-08 -1.64791e-10)
(0.138836 4.63761e-08 -1.62098e-10)
(0.138539 4.67132e-08 -1.5468e-10)
(0.137928 4.67658e-08 -1.35192e-10)
(0.136657 4.62314e-08 -9.1014e-11)
(0.136657 4.62323e-08 -9.10176e-11)
(0.137928 4.67713e-08 -1.35214e-10)
(0.138539 4.67275e-08 -1.54737e-10)
(0.138836 4.64034e-08 -1.62206e-10)
(0.139011 4.59708e-08 -1.64967e-10)
(0.139134 4.54927e-08 -1.65691e-10)
(0.13923 4.49933e-08 -1.65426e-10)
(0.139313 4.4483e-08 -1.64632e-10)
(0.139388 4.39661e-08 -1.6353e-10)
(0.139458 4.34447e-08 -1.62237e-10)
(0.139525 4.29195e-08 -1.60818e-10)
(0.139591 4.23903e-08 -1.59309e-10)
(0.127561 2.81624e-08 2.31941e-10)
(0.127461 2.84763e-08 2.35872e-10)
(0.127309 2.87604e-08 2.41318e-10)
(0.12697 2.89489e-08 2.52192e-10)
(0.125627 2.87916e-08 2.93719e-10)
(0.125627 2.87921e-08 2.93711e-10)
(0.12697 2.89529e-08 2.52136e-10)
(0.127309 2.87709e-08 2.41169e-10)
(0.127461 2.84964e-08 2.35584e-10)
(0.127561 2.81953e-08 2.3147e-10)
(0.127641 2.78855e-08 2.27894e-10)
(0.127712 2.75725e-08 2.2455e-10)
(0.127778 2.72584e-08 2.21311e-10)
(0.127842 2.69439e-08 2.18118e-10)
(0.127904 2.66289e-08 2.14935e-10)
(0.127966 2.63132e-08 2.11743e-10)
(0.128028 2.59964e-08 2.08526e-10)
(0.12744 2.79568e-08 2.33713e-10)
(0.127273 2.8153e-08 2.38601e-10)
(0.126984 2.8193e-08 2.45867e-10)
(0.126355 2.77927e-08 2.59761e-10)
(0.124835 2.61963e-08 2.90321e-10)
(0.124835 2.61969e-08 2.90312e-10)
(0.126355 2.77967e-08 2.59703e-10)
(0.126984 2.82036e-08 2.45716e-10)
(0.127273 2.81732e-08 2.38312e-10)
(0.12744 2.79898e-08 2.33242e-10)
(0.127557 2.77443e-08 2.29128e-10)
(0.127651 2.74701e-08 2.25459e-10)
(0.127731 2.71812e-08 2.22012e-10)
(0.127805 2.68838e-08 2.18678e-10)
(0.127874 2.65811e-08 2.15397e-10)
(0.127941 2.62745e-08 2.12133e-10)
(0.128006 2.59645e-08 2.08862e-10)
(0.109483 1.04982e-08 2.10217e-10)
(0.109392 1.05968e-08 2.12924e-10)
(0.109287 1.06783e-08 2.15851e-10)
(0.109147 1.07145e-08 2.19362e-10)
(0.10889 1.05902e-08 2.25226e-10)
(0.1083 9.66093e-09 2.51206e-10)
(0.1083 9.66114e-09 2.51201e-10)
(0.10889 1.05918e-08 2.25188e-10)
(0.109147 1.07187e-08 2.19259e-10)
(0.109287 1.06865e-08 2.15652e-10)
(0.109392 1.06103e-08 2.12598e-10)
(0.109483 1.05182e-08 2.09734e-10)
(0.109567 1.04193e-08 2.06945e-10)
(0.109648 1.03172e-08 2.04186e-10)
(0.109728 1.02133e-08 2.01431e-10)
(0.109806 1.01083e-08 1.98666e-10)
(0.109885 1.00025e-08 1.95881e-10)
(0.109963 9.89594e-09 1.93066e-10)
(0.0910794 2.18794e-09 -2.42416e-11)
(0.0911276 2.20659e-09 -2.54243e-11)
(0.0911678 2.22347e-09 -2.6657e-11)
(0.0911848 2.23499e-09 -2.80994e-11)
(0.0911034 2.22338e-09 -3.05269e-11)
(0.0901125 1.99708e-09 -4.23145e-11)
(0.0901125 1.99707e-09 -4.23288e-11)
(0.0911034 2.22325e-09 -3.06344e-11)
(0.0911848 2.23464e-09 -2.83907e-11)
(0.0911678 2.2228e-09 -2.72212e-11)
(0.0911276 2.20549e-09 -2.63491e-11)
(0.0910794 2.1863e-09 -2.56139e-11)
(0.0910279 2.16633e-09 -2.49652e-11)
(0.0909748 2.14595e-09 -2.43824e-11)
(0.0909208 2.12532e-09 -2.38554e-11)
(0.0908661 2.1045e-09 -2.33784e-11)
(0.090811 2.08349e-09 -2.29479e-11)
(0.0907554 2.06229e-09 -2.25613e-11)
(0.0910023 2.1697e-09 -2.50386e-11)
(0.0910133 2.17956e-09 -2.66034e-11)
(0.0909821 2.17954e-09 -2.85742e-11)
(0.0908358 2.15248e-09 -3.17077e-11)
(0.0902656 2.02545e-09 -3.92131e-11)
(0.0873209 1.33832e-09 -7.13848e-11)
(0.0873209 1.33831e-09 -7.13988e-11)
(0.0902656 2.02532e-09 -3.93221e-11)
(0.0908358 2.15213e-09 -3.20006e-11)
(0.0909821 2.17887e-09 -2.91396e-11)
(0.0910133 2.17846e-09 -2.75288e-11)
(0.0910023 2.16807e-09 -2.64106e-11)
(0.0909725 2.15322e-09 -2.55394e-11)
(0.090933 2.13608e-09 -2.48163e-11)
(0.0908882 2.11763e-09 -2.41954e-11)
(0.09084 2.09834e-09 -2.36526e-11)
(0.0907895 2.07845e-09 -2.31741e-11)
(0.0907374 2.05809e-09 -2.27514e-11)
(0.220014 -1.87472e-08 -8.48914e-10)
(0.219879 -1.89439e-08 -8.65167e-10)
(0.21969 -1.91325e-08 -8.84835e-10)
(0.219441 -1.93501e-08 -9.06512e-10)
(0.219193 -1.96623e-08 -9.21509e-10)
(0.219193 -1.96656e-08 -9.21275e-10)
(0.219441 -1.93646e-08 -9.05474e-10)
(0.21969 -1.91667e-08 -8.82401e-10)
(0.219879 -1.90061e-08 -8.60736e-10)
(0.220014 -1.88457e-08 -8.4189e-10)
(0.220113 -1.86792e-08 -8.25225e-10)
(0.220187 -1.85075e-08 -8.09961e-10)
(0.220245 -1.83327e-08 -7.95519e-10)
(0.220293 -1.81566e-08 -7.81509e-10)
(0.220333 -1.798e-08 -7.67672e-10)
(0.220369 -1.78039e-08 -7.53834e-10)
(0.220401 -1.76285e-08 -7.39875e-10)
(0.215843 -9.8772e-09 -1.29823e-09)
(0.215805 -1.01088e-08 -1.3076e-09)
(0.215739 -1.03909e-08 -1.31511e-09)
(0.215579 -1.07108e-08 -1.32144e-09)
(0.215209 -1.09172e-08 -1.33168e-09)
(0.215209 -1.09192e-08 -1.3315e-09)
(0.215579 -1.07212e-08 -1.32051e-09)
(0.215739 -1.0416e-08 -1.31288e-09)
(0.215805 -1.01552e-08 -1.30349e-09)
(0.215843 -9.95139e-09 -1.29166e-09)
(0.21587 -9.78729e-09 -1.27802e-09)
(0.215894 -9.64883e-09 -1.26314e-09)
(0.2202 -1.82396e-08 -8.00551e-10)
(0.220254 -1.80831e-08 -7.85762e-10)
(0.2203 -1.79217e-08 -7.71357e-10)
(0.22034 -1.77574e-08 -7.57102e-10)
(0.220375 -1.75916e-08 -7.42835e-10)
(0.215704 -9.55849e-09 -1.3127e-09)
(0.215607 -9.66054e-09 -1.32747e-09)
(0.215448 -9.76179e-09 -1.34278e-09)
(0.215159 -9.92121e-09 -1.3572e-09)
(0.214596 -1.03644e-08 -1.36515e-09)
(0.214596 -1.03657e-08 -1.36503e-09)
(0.215159 -9.93086e-09 -1.35634e-09)
(0.215448 -9.78618e-09 -1.34061e-09)
(0.215607 -9.70601e-09 -1.32344e-09)
(0.215704 -9.6315e-09 -1.30623e-09)
(0.215769 -9.55387e-09 -1.28908e-09)
(0.215817 -9.47371e-09 -1.27189e-09)
(0.215855 -9.39257e-09 -1.25455e-09)
(0.215888 -9.31163e-09 -1.23699e-09)
(0.215917 -9.23161e-09 -1.21915e-09)
(0.215944 -9.15296e-09 -1.20099e-09)
(0.215969 -9.07591e-09 -1.18247e-09)
(0.215586 -9.22137e-09 -1.32581e-09)
(0.215454 -9.18837e-09 -1.34568e-09)
(0.215258 -9.08191e-09 -1.36875e-09)
(0.214975 -8.93836e-09 -1.39351e-09)
(0.21466 -9.00896e-09 -1.4077e-09)
(0.21466 -9.01109e-09 -1.40751e-09)
(0.214975 -8.94869e-09 -1.39259e-09)
(0.215258 -9.10683e-09 -1.36654e-09)
(0.215454 -9.2343e-09 -1.34161e-09)
(0.215586 -9.29471e-09 -1.31931e-09)
(0.215678 -9.30568e-09 -1.29888e-09)
(0.215746 -9.28539e-09 -1.27953e-09)
(0.215799 -9.24604e-09 -1.26075e-09)
(0.215842 -9.1952e-09 -1.2422e-09)
(0.215879 -9.13749e-09 -1.22367e-09)
(0.215911 -9.07579e-09 -1.20503e-09)
(0.215941 -9.01191e-09 -1.18615e-09)
(0.210625 5.37871e-09 -1.86749e-09)
(0.210595 5.26143e-09 -1.88536e-09)
(0.210544 5.02654e-09 -1.90236e-09)
(0.210407 4.61564e-09 -1.92043e-09)
(0.210001 4.17212e-09 -1.94973e-09)
(0.210001 4.1711e-09 -1.94959e-09)
(0.210407 4.6101e-09 -1.91968e-09)
(0.210544 5.01287e-09 -1.90051e-09)
(0.210595 5.23597e-09 -1.88191e-09)
(0.210625 5.33776e-09 -1.86194e-09)
(0.210648 5.3713e-09 -1.84083e-09)
(0.210669 5.36594e-09 -1.81888e-09)
(0.215749 -9.09524e-09 -1.26563e-09)
(0.2158 -9.07335e-09 -1.24628e-09)
(0.215843 -9.03747e-09 -1.22719e-09)
(0.215881 -8.99261e-09 -1.20815e-09)
(0.215914 -8.94198e-09 -1.18901e-09)
(0.210481 5.85314e-09 -1.88304e-09)
(0.210386 5.94338e-09 -1.90738e-09)
(0.210228 6.03067e-09 -1.93482e-09)
(0.209942 5.98812e-09 -1.96668e-09)
(0.20941 5.19291e-09 -1.99967e-09)
(0.20941 5.19217e-09 -1.99957e-09)
(0.209942 5.98284e-09 -1.96596e-09)
(0.210228 6.01729e-09 -1.93301e-09)