/*--------------------------------*- C++ -*----------------------------------*\
  =========                 |
  \\      /  F ield         | OpenFOAM: The Open Source CFD Toolbox
   \\    /   O peration     | Website:  https://openfoam.org
    \\  /    A nd           | Version:  6
     \\/     M anipulation  |
\*---------------------------------------------------------------------------*/
FoamFile
{
    version     2.0;
    format      ascii;
    class       volVectorField;
    location    "26";
    object      wallShearStress;
}
// * * * * * * * * * * * * * * * * * * * * * * * * * * * * * * * * * * * * * //

dimensions      [0 2 -2 0 0 0 0];

internalField   uniform (0 0 0);

boundaryField
{
    inlet
    {
        type            calculated;
        value           uniform (0 0 0);
    }
    outlet
    {
        type            calculated;
        value           uniform (0 0 0);
    }
    roughCylinder
    {
        type            calculated;
        value           nonuniform List<vector> 
3840
(
(-0.000414735 -0.000598852 -0.000253966)
(-0.000329393 -0.00050268 -1.71129e-05)
(-0.000365011 -0.000578665 4.09863e-05)
(-0.000451813 -0.000683559 0.000109914)
(-0.000544034 -0.000754891 0.000175771)
(-0.000634956 -0.000794513 0.000231456)
(-0.000717493 -0.000807903 0.000273973)
(-0.000789509 -0.000808952 0.000303778)
(-0.000851105 -0.000811997 0.00032346)
(-0.000899771 -0.000820517 0.000332766)
(-0.000939987 -0.000836568 0.000333603)
(-0.000974096 -0.000858645 0.000328539)
(-0.00100565 -0.000885089 0.000319791)
(-0.00103762 -0.000914722 0.000308828)
(-0.00107165 -0.000946887 0.000296264)
(-0.00110835 -0.0009813 0.000282204)
(-0.00114783 -0.00101787 0.000266541)
(-0.00118974 -0.00105627 0.000248967)
(-0.00123355 -0.00109595 0.00022891)
(-0.00127837 -0.00113598 0.000205357)
(-0.00132282 -0.00117503 0.000176478)
(-0.00136466 -0.00121104 0.000139677)
(-0.00139958 -0.00124099 9.09939e-05)
(-0.00142058 -0.00125948 3.13676e-05)
(-0.000450427 -0.00059464 -0.000252895)
(-0.00035528 -0.000495453 -2.17927e-05)
(-0.000383555 -0.000561791 3.29616e-05)
(-0.00047271 -0.000666863 9.88885e-05)
(-0.000567365 -0.000740406 0.000163029)
(-0.000661224 -0.000783302 0.000217884)
(-0.000747726 -0.000801219 0.000260588)
(-0.000825003 -0.000807244 0.000292019)
(-0.000891851 -0.000812116 0.000313741)
(-0.00094313 -0.000818648 0.00032377)
(-0.000985125 -0.000833423 0.000324894)
(-0.00102121 -0.000854782 0.000320053)
(-0.00105469 -0.000880815 0.000311488)
(-0.00108844 -0.000910045 0.000300697)
(-0.00112428 -0.000941821 0.000288389)
(-0.00116301 -0.000975955 0.000274731)
(-0.00120452 -0.00101214 0.000259556)
(-0.00124852 -0.0010501 0.000242566)
(-0.00129441 -0.00108926 0.00022317)
(-0.00134129 -0.00112874 0.000200358)
(-0.00138772 -0.00116722 0.000172307)
(-0.00143136 -0.00120269 0.000136451)
(-0.00146776 -0.00123219 8.89103e-05)
(-0.00148964 -0.00125039 3.06431e-05)
(-0.000482789 -0.000577042 -0.000239304)
(-0.000378123 -0.000477565 -2.74112e-05)
(-0.000401063 -0.00053959 2.44481e-05)
(-0.000491637 -0.000643437 8.69549e-05)
(-0.000588666 -0.000719142 0.000149223)
(-0.000685455 -0.000765548 0.000203369)
(-0.000776491 -0.000788695 0.000246724)
(-0.000859102 -0.000799782 0.000279747)
(-0.000930523 -0.000806854 0.00030288)
(-0.000985161 -0.000811573 0.000313607)
(-0.0010294 -0.000825161 0.000315294)
(-0.00106749 -0.000845493 0.00031071)
(-0.00110276 -0.000870708 0.000302352)
(-0.00113845 -0.000899395 0.000291845)
(-0.00117627 -0.000930685 0.000279903)
(-0.00121681 -0.000964127 0.00026666)
(-0.00126027 -0.000999638 0.000252027)
(-0.00130625 -0.00103686 0.000235672)
(-0.00135415 -0.00107524 0.000217004)
(-0.00140301 -0.0011139 0.000194993)
(-0.00145129 -0.00115154 0.000167831)
(-0.00149663 -0.00118622 0.000132991)
(-0.00153443 -0.00121508 8.66774e-05)
(-0.00155713 -0.00123285 2.98676e-05)
(-0.000454795 -0.000489031 -0.00019469)
(-0.000396571 -0.000453707 -3.3211e-05)
(-0.000414216 -0.00051123 1.56742e-05)
(-0.000505844 -0.000613962 7.43357e-05)
(-0.000605181 -0.000691881 0.0001345)
(-0.000705637 -0.000742808 0.000188028)
(-0.000801271 -0.000771375 0.000232112)
(-0.000888734 -0.000786968 0.000266527)
(-0.000964184 -0.000795844 0.000290615)
(-0.00102417 -0.000801034 0.000302729)
(-0.00107044 -0.000812538 0.00030491)
(-0.00111064 -0.000831596 0.00030067)
(-0.00114808 -0.000856015 0.0002927)
(-0.0011856 -0.000883865 0.000282522)
(-0.00122515 -0.000914301 0.000270967)
(-0.00126771 -0.00094708 0.000258268)
(-0.00131309 -0.000981768 0.000244244)
(-0.001361 -0.00101808 0.000228586)
(-0.00141076 -0.00105545 0.000210677)
(-0.00146141 -0.00109306 0.000189501)
(-0.00151139 -0.00112964 0.000163259)
(-0.00155826 -0.00116332 0.00012946)
(-0.00159731 -0.00119135 8.44006e-05)
(-0.00162074 -0.00120859 2.90785e-05)
(-0.000567347 -0.000542361 -0.000213373)
(-0.000409233 -0.0004288 -3.7111e-05)
(-0.000423819 -0.000478557 6.81947e-06)
(-0.000514728 -0.000579327 6.11485e-05)
(-0.000616356 -0.000659522 0.000118976)
(-0.000719927 -0.000714346 0.000171551)
(-0.000820158 -0.000748302 0.000216236)
(-0.00091264 -0.000768442 0.000252013)
(-0.00099311 -0.000779901 0.000277316)
(-0.00105751 -0.000785667 0.000290599)
(-0.00110755 -0.000795275 0.000293671)
(-0.00115012 -0.000812986 0.00029002)
(-0.00118947 -0.000836016 0.000282449)
(-0.00122903 -0.000862928 0.000272754)
(-0.00127064 -0.000892569 0.00026175)
(-0.00131482 -0.000924224 0.000249592)
(-0.00136194 -0.000957819 0.000236226)
(-0.00141156 -0.00099295 0.0002213)
(-0.00146305 -0.00102911 0.000204206)
(-0.00151533 -0.00106544 0.000183903)
(-0.00156685 -0.00110074 0.000158609)
(-0.00161508 -0.00113323 0.000125874)
(-0.00165526 -0.00116026 8.20931e-05)
(-0.0016793 -0.00117686 2.82798e-05)
(-0.000529972 -0.000454034 -0.000168308)
(-0.000425586 -0.000401962 -4.23082e-05)
(-0.000427524 -0.000442186 -2.41707e-06)
(-0.000517308 -0.000540066 4.76382e-05)
(-0.000620683 -0.000621977 0.000102615)
(-0.000728237 -0.000681567 0.00015412)
(-0.000833119 -0.000720684 0.000199184)
(-0.00093026 -0.000744738 0.000236073)
(-0.00101475 -0.000757888 0.000262372)
(-0.00108493 -0.000765628 0.000277143)
(-0.00113987 -0.000774218 0.000281437)
(-0.00118494 -0.000789475 0.000278501)
(-0.00122691 -0.000811335 0.000271642)
(-0.00126845 -0.000836947 0.00026252)
(-0.00131165 -0.000865217 0.000252074)
(-0.00135786 -0.000895849 0.000240637)
(-0.00140675 -0.000928224 0.000228015)
(-0.00145807 -0.000962046 0.000213899)
(-0.00151107 -0.000996736 0.000197649)
(-0.00156479 -0.00103155 0.000178245)
(-0.00161764 -0.00106536 0.000153918)
(-0.00166705 -0.00109642 0.000122262)
(-0.00170819 -0.00112228 7.97715e-05)
(-0.00173276 -0.00113815 2.74781e-05)
(-0.000612471 -0.000466561 -0.000162025)
(-0.000430404 -0.000367096 -4.69198e-05)
(-0.000425801 -0.00040315 -1.0892e-05)
(-0.00051286 -0.000497231 3.38976e-05)
(-0.000618221 -0.000581138 8.56114e-05)
(-0.000728452 -0.000644122 0.00013543)
(-0.000837744 -0.000687919 0.000180488)
(-0.000939908 -0.000715869 0.000218342)
(-0.00103052 -0.000732128 0.000246184)
(-0.00110487 -0.000740525 0.000262079)
(-0.00116544 -0.000749387 0.000267861)
(-0.00121516 -0.000762964 0.000266193)
(-0.00125932 -0.000782316 0.000260086)
(-0.00130313 -0.000806409 0.000251746)
(-0.00134865 -0.000833556 0.000242119)
(-0.00139626 -0.000862597 0.000231386)
(-0.00144666 -0.000893454 0.000219561)
(-0.00149937 -0.000925654 0.000206287)
(-0.00155379 -0.000958737 0.000190944)
(-0.00160879 -0.000991874 0.000172482)
(-0.00166277 -0.001024 0.000149152)
(-0.0017132 -0.0010535 0.000118597)
(-0.00175517 -0.00107806 7.74215e-05)
(-0.00178015 -0.00109312 2.66683e-05)
(-0.000556142 -0.000375063 -0.000124547)
(-0.000431753 -0.000333546 -4.98119e-05)
(-0.000417357 -0.000361573 -1.94475e-05)
(-0.000500321 -0.000451229 1.99917e-05)
(-0.000605884 -0.000535584 6.77268e-05)
(-0.000720044 -0.000603003 0.000115569)
(-0.000834135 -0.000651472 0.000160284)
(-0.000941564 -0.000683138 0.000198874)
(-0.00103615 -0.000700778 0.000227707)
(-0.00111735 -0.000711476 0.000245486)
(-0.00118301 -0.000720394 0.00025277)
(-0.00123736 -0.000732791 0.000252503)
(-0.00128605 -0.00075065 0.000247792)
(-0.0013324 -0.000772748 0.000240458)
(-0.00137938 -0.000797789 0.000231622)
(-0.00142914 -0.000825391 0.000221836)
(-0.00148119 -0.000854631 0.000210926)
(-0.0015354 -0.000885162 0.000198589)
(-0.00159096 -0.000916383 0.000184182)
(-0.00164697 -0.000947637 0.000166685)
(-0.00170186 -0.00097788 0.000144365)
(-0.00175308 -0.00100559 0.000114917)
(-0.00179569 -0.00102866 7.50638e-05)
(-0.00182095 -0.00104286 2.58584e-05)
(-0.000523036 -0.000313089 -9.18672e-05)
(-0.000424349 -0.000292276 -5.33686e-05)
(-0.000401865 -0.000318945 -2.73145e-05)
(-0.000478551 -0.000402282 6.33542e-06)
(-0.000585364 -0.000488009 4.94851e-05)
(-0.000701105 -0.000557824 9.44112e-05)
(-0.000819342 -0.000610279 0.000138119)
(-0.00093193 -0.000645387 0.000177047)
(-0.00103447 -0.000666913 0.00020759)
(-0.00112021 -0.000678133 0.000226854)
(-0.00119194 -0.000687559 0.000236068)
(-0.00125181 -0.000699471 0.000237606)
(-0.00130402 -0.000715566 0.000234288)
(-0.00135359 -0.00073584 0.00022825)
(-0.00140373 -0.000759438 0.00022067)
(-0.00145487 -0.000784952 0.000211856)
(-0.00150827 -0.000812263 0.000201939)
(-0.00156353 -0.000840795 0.000190589)
(-0.00162017 -0.000870103 0.000177203)
(-0.00167704 -0.000899378 0.000160729)
(-0.00173267 -0.00092767 0.000139465)
(-0.00178461 -0.000953558 0.000111164)
(-0.00182779 -0.00097513 7.2671e-05)
(-0.00185312 -0.000988403 2.50381e-05)
(-0.00048082 -0.000253391 -6.63991e-05)
(-0.000406392 -0.000250064 -5.53047e-05)
(-0.000378069 -0.000274892 -3.41128e-05)
(-0.000447718 -0.000351834 -6.78929e-06)
(-0.000551601 -0.000435539 3.07562e-05)
(-0.000670884 -0.000509247 7.21526e-05)
(-0.000794017 -0.000566083 0.000114293)
(-0.000913106 -0.000605308 0.000153361)
(-0.00101935 -0.000627712 0.000184609)
(-0.0011135 -0.000641587 0.00020618)
(-0.00119128 -0.000651248 0.000217536)
(-0.00125598 -0.000662134 0.000221015)
(-0.00131324 -0.000677189 0.000219592)
(-0.00136618 -0.00069572 0.000215077)
(-0.0014179 -0.00071699 0.000208702)
(-0.00147157 -0.000740957 0.00020121)
(-0.00152664 -0.000766454 0.000192474)
(-0.00158321 -0.000793104 0.000182261)
(-0.00164052 -0.000820287 0.000169949)
(-0.0016979 -0.000847447 0.000154549)
(-0.00175391 -0.000873682 0.000134383)
(-0.00180618 -0.000897687 0.000107271)
(-0.00184962 -0.000917692 7.01895e-05)
(-0.00187487 -0.000929963 2.41892e-05)
(-0.000511213 -0.00023482 -5.46884e-05)
(-0.000391146 -0.000215037 -5.7986e-05)
(-0.000347469 -0.000231531 -3.97121e-05)
(-0.000405018 -0.000298814 -1.87575e-05)
(-0.000509246 -0.000382884 1.23895e-05)
(-0.00062816 -0.000457404 4.90034e-05)
(-0.000754974 -0.000517721 8.85765e-05)
(-0.000878881 -0.000559965 0.000126921)
(-0.000995893 -0.000587521 0.000159819)
(-0.00109518 -0.000601765 0.000183103)
(-0.00117992 -0.000611854 0.000196968)
(-0.00125141 -0.00062247 0.000203008)
(-0.0013125 -0.000635619 0.000203535)
(-0.00136887 -0.000652264 0.000200793)
(-0.00142435 -0.000672143 0.000196139)
(-0.00147907 -0.000693692 0.000189914)
(-0.00153507 -0.000716938 0.000182408)
(-0.00159217 -0.000741284 0.000173372)
(-0.00165009 -0.000766317 0.000162247)
(-0.00170771 -0.000791281 0.000148)
(-0.0017638 -0.000815379 0.000129)
(-0.00181612 -0.000837438 0.000103148)
(-0.00185957 -0.000855832 6.75618e-05)
(-0.00188457 -0.000867052 2.32915e-05)
(-0.000402243 -0.000159655 -3.20294e-05)
(-0.000355338 -0.000174366 -5.7408e-05)
(-0.000308976 -0.000188724 -4.39203e-05)
(-0.000354619 -0.000246976 -2.90811e-05)
(-0.000449872 -0.000324484 -5.21325e-06)
(-0.000571817 -0.000402288 2.5535e-05)
(-0.000703309 -0.000466842 6.15464e-05)
(-0.000835749 -0.000514467 9.89391e-05)
(-0.000955413 -0.000542255 0.000131915)
(-0.00106512 -0.000559719 0.000157712)
(-0.00115736 -0.000570198 0.000174338)
(-0.00123417 -0.000579502 0.000182978)
(-0.00130147 -0.00059164 0.000186137)
(-0.0013619 -0.000606456 0.000185519)
(-0.00141861 -0.000623567 0.000182444)
(-0.0014762 -0.000643427 0.000177915)
(-0.00153392 -0.000664695 0.00017188)
(-0.00159211 -0.00068697 0.0001642)
(-0.00165015 -0.00070965 0.000154306)
(-0.00170764 -0.000732299 0.000141258)
(-0.00176343 -0.000754177 0.00012346)
(-0.00181543 -0.000774209 9.88968e-05)
(-0.00185859 -0.000790916 6.48519e-05)
(-0.00188316 -0.000801056 2.23677e-05)
(-0.000353733 -0.00012003 -1.85146e-05)
(-0.000310468 -0.000136173 -5.56367e-05)
(-0.000261381 -0.000146751 -4.56119e-05)
(-0.000288731 -0.000191326 -3.58962e-05)
(-0.000384525 -0.00026854 -2.08978e-05)
(-0.000502077 -0.000344404 2.5423e-06)
(-0.0006364 -0.000412232 3.35838e-05)
(-0.000771961 -0.000462334 6.84496e-05)
(-0.000906444 -0.000497646 0.000102458)
(-0.00102185 -0.000515671 0.000129954)
(-0.00112199 -0.00052656 0.000149529)
(-0.00120732 -0.000535783 0.000161505)
(-0.00127885 -0.000545691 0.0001673)
(-0.00134306 -0.000558328 0.000169044)
(-0.00140464 -0.000574071 0.000168248)
(-0.00146293 -0.000591155 0.000165314)
(-0.00152112 -0.000609849 0.00016076)
(-0.00157931 -0.000629566 0.000154454)
(-0.00163747 -0.000649942 0.000145915)
(-0.0016946 -0.000670265 0.000134146)
(-0.00174977 -0.000689892 0.000117616)
(-0.00180119 -0.000707889 9.44109e-05)
(-0.00184385 -0.000722912 6.19952e-05)
(-0.00186781 -0.000731949 2.1396e-05)
(-0.00027084 -7.74473e-05 -9.92478e-06)
(-0.00025641 -0.000102673 -5.1022e-05)
(-0.000209804 -0.000108847 -4.49714e-05)
(-0.00022301 -0.000141767 -3.97641e-05)
(-0.000296829 -0.000203566 -3.23896e-05)
(-0.000418095 -0.00028303 -1.82304e-05)
(-0.000555633 -0.000354754 5.97276e-06)
(-0.000702845 -0.000412881 3.76421e-05)
(-0.000836973 -0.000447624 7.0478e-05)
(-0.000964985 -0.000470211 0.000100153)
(-0.0010743 -0.000482153 0.000122841)
(-0.00116514 -0.000489824 0.000137961)
(-0.00124429 -0.000498777 0.00014711)
(-0.00131353 -0.000509533 0.000151634)
(-0.00137571 -0.000521996 0.000152826)
(-0.00143748 -0.000537318 0.000152012)
(-0.00149762 -0.000553967 0.000149249)
(-0.0015568 -0.000571531 0.000144533)
(-0.0016145 -0.000589428 0.000137381)
(-0.00167083 -0.000607357 0.000126924)
(-0.001725 -0.00062471 0.000111681)
(-0.00177541 -0.000640635 8.98476e-05)
(-0.0018172 -0.000653924 5.90875e-05)
(-0.00184039 -0.00066188 2.04094e-05)
(-0.000191012 -4.63301e-05 2.67967e-07)
(-0.000196863 -7.11302e-05 -4.70222e-05)
(-0.000154411 -7.54893e-05 -4.18505e-05)
(-0.000132345 -8.18705e-05 -3.28223e-05)
(-0.00021524 -0.000146536 -3.91565e-05)
(-0.000321237 -0.000217735 -3.48954e-05)
(-0.000460337 -0.000293347 -1.94929e-05)
(-0.000606088 -0.000352823 6.55569e-06)
(-0.000761019 -0.000399673 3.82703e-05)
(-0.000894375 -0.000423686 6.88532e-05)
(-0.00101197 -0.00043669 9.43914e-05)
(-0.00111332 -0.000445041 0.000113298)
(-0.00119681 -0.000451635 0.000125621)
(-0.00126994 -0.000459951 0.000133022)
(-0.00133858 -0.00047123 0.000137068)
(-0.00140052 -0.00048345 0.00013818)
(-0.0014605 -0.000497261 0.000137142)
(-0.00151901 -0.000512107 0.000133992)
(-0.00157638 -0.000527677 0.000128362)
(-0.0016317 -0.000543282 0.000119303)
(-0.00168454 -0.000558407 0.000105413)
(-0.0017337 -0.00057232 8.50231e-05)
(-0.00177445 -0.000583941 5.6016e-05)
(-0.00179666 -0.000590831 1.93696e-05)
(-7.77151e-05 -1.54506e-05 8.16771e-06)
(-0.000116454 -3.7902e-05 -3.63326e-05)
(-9.90018e-05 -4.58212e-05 -3.75922e-05)
(-6.14352e-05 -3.83743e-05 -2.28246e-05)
(-7.45853e-05 -5.22867e-05 -2.13688e-05)
(-0.000211713 -0.000146621 -4.14612e-05)
(-0.000350261 -0.000225616 -3.92206e-05)
(-0.00051415 -0.000299514 -2.22253e-05)
(-0.000661104 -0.000344157 6.08301e-06)
(-0.000809407 -0.000375778 3.70637e-05)
(-0.00093744 -0.000391627 6.50383e-05)
(-0.0010435 -0.00039884 8.7015e-05)
(-0.00113598 -0.00040511 0.000103028)
(-0.00121522 -0.000411823 0.000113684)
(-0.00128317 -0.000419388 0.000120023)
(-0.00134946 -0.000429948 0.000123654)
(-0.00141184 -0.000441806 0.000124724)
(-0.00147143 -0.000454581 0.000123403)
(-0.0015277 -0.000467699 0.000119307)
(-0.00158149 -0.000480984 0.000111658)
(-0.00163258 -0.000493938 9.91228e-05)
(-0.00168002 -0.000505864 8.01693e-05)
(-0.00171934 -0.000515825 5.29229e-05)
(-0.00174042 -0.000521709 1.83252e-05)
(-7.41917e-06 3.4935e-07 8.92276e-06)
(-2.58418e-05 -7.2093e-06 -1.22049e-05)
(-4.1784e-05 -1.93491e-05 -2.73312e-05)
(-4.99875e-05 -3.53725e-05 -3.11072e-05)
(-4.98489e-05 -3.9425e-05 -2.28079e-05)
(-0.00010066 -7.38561e-05 -3.17179e-05)
(-0.000236315 -0.000154038 -4.86926e-05)
(-0.000382613 -0.000225234 -4.42277e-05)
(-0.000561618 -0.000292384 -2.30199e-05)
(-0.000711851 -0.000326695 6.24962e-06)
(-0.000847212 -0.000345535 3.54871e-05)
(-0.000965657 -0.00035549 6.05652e-05)
(-0.00106162 -0.000359933 7.96467e-05)
(-0.00114423 -0.000364404 9.33291e-05)
(-0.00122082 -0.000371406 0.000102927)
(-0.00128631 -0.000378731 0.000108722)
(-0.00134763 -0.000387647 0.00011171)
(-0.00140556 -0.000397665 0.000112104)
(-0.00146102 -0.000408605 0.000109681)
(-0.00151313 -0.000419749 0.000103531)
(-0.00156212 -0.000430668 9.2417e-05)
(-0.00160761 -0.000440764 7.49851e-05)
(-0.00164535 -0.000449202 4.96201e-05)
(-0.00166508 -0.000454137 1.72111e-05)
(6.4749e-06 6.24636e-06 1.51741e-05)
(4.44723e-06 6.23878e-07 -7.34701e-06)
(-4.18553e-06 -8.24729e-06 -2.0697e-05)
(-1.70466e-05 -2.31236e-05 -2.76046e-05)
(-3.4903e-05 -3.74384e-05 -3.00689e-05)
(-4.40461e-05 -3.6624e-05 -2.3208e-05)
(-0.000132458 -9.00094e-05 -4.48126e-05)
(-0.000281152 -0.000166059 -5.7655e-05)
(-0.00043087 -0.000225622 -4.56118e-05)
(-0.000601231 -0.00027523 -2.12783e-05)
(-0.000747156 -0.000300259 7.34376e-06)
(-0.00086741 -0.000310534 3.39205e-05)
(-0.000973539 -0.000316486 5.59502e-05)
(-0.00106307 -0.000320403 7.27466e-05)
(-0.00113636 -0.000323577 8.46158e-05)
(-0.00120729 -0.000329751 9.3165e-05)
(-0.00127162 -0.00033708 9.84966e-05)
(-0.001331 -0.000345383 0.000100932)
(-0.00138464 -0.000354086 0.000100158)
(-0.0014344 -0.000363174 9.54912e-05)
(-0.00148084 -0.000372203 8.57767e-05)
(-0.00152387 -0.000380568 6.98313e-05)
(-0.00155956 -0.000387543 4.63294e-05)
(-0.00157784 -0.000391636 1.6104e-05)
(1.28873e-05 1.13122e-05 2.17898e-05)
(2.38385e-05 7.45736e-06 -7.66652e-06)
(2.90488e-05 -1.61415e-07 -1.95063e-05)
(1.24276e-05 -9.58195e-06 -1.59007e-05)
(-1.01741e-06 -2.44933e-05 -2.38548e-05)
(-2.89302e-05 -3.35242e-05 -2.93317e-05)
(-6.85464e-05 -5.21632e-05 -3.76276e-05)
(-8.15394e-05 -4.88429e-05 -2.59476e-05)
(-0.000321738 -0.000168134 -5.93787e-05)
(-0.000479946 -0.000220455 -4.32397e-05)
(-0.00063126 -0.000252622 -1.76699e-05)
(-0.000765505 -0.000269423 8.94544e-06)
(-0.000872392 -0.000275046 3.25984e-05)
(-0.000963747 -0.000277793 5.1743e-05)
(-0.00104866 -0.000281936 6.67727e-05)
(-0.00111694 -0.000285101 7.74621e-05)
(-0.00117868 -0.000289692 8.47451e-05)
(-0.00123481 -0.000295404 8.8928e-05)
(-0.00128707 -0.000302312 8.99228e-05)
(-0.00133442 -0.000309657 8.68169e-05)
(-0.00137792 -0.000317033 7.85695e-05)
(-0.0014183 -0.00032391 6.42192e-05)
(-0.00145189 -0.000329639 4.27433e-05)
(-0.00146842 -0.000332968 1.48958e-05)
(2.31116e-05 1.33607e-05 2.37601e-05)
(3.72335e-05 1.01361e-05 -9.30669e-06)
(4.01973e-05 2.62572e-06 -1.51794e-05)
(2.97895e-05 -6.32121e-06 -1.29545e-05)
(1.81641e-05 -1.22914e-05 -1.05502e-05)
(3.53455e-06 -2.46332e-05 -1.79792e-05)
(-2.00393e-05 -1.9783e-05 -1.72848e-05)
(-5.21276e-05 -3.29443e-05 -2.43808e-05)
(-0.000143559 -7.41468e-05 -3.98638e-05)
(-0.000353698 -0.000162701 -5.54619e-05)
(-0.000510496 -0.000205311 -3.76912e-05)
(-0.000641877 -0.000225136 -1.33307e-05)
(-0.000759702 -0.00023553 1.0567e-05)
(-0.000858093 -0.000239856 3.14785e-05)
(-0.000934547 -0.000240489 4.81261e-05)
(-0.00100956 -0.000243747 6.1383e-05)
(-0.00107516 -0.000247646 7.10172e-05)
(-0.00113346 -0.000252392 7.73416e-05)
(-0.001183 -0.000257542 8.00201e-05)
(-0.00122708 -0.000263303 7.84105e-05)
(-0.00126719 -0.00026926 7.15687e-05)
(-0.00130433 -0.000274818 5.8737e-05)
(-0.00133527 -0.000279413 3.92266e-05)
(-0.00135009 -0.000282123 1.37138e-05)
(3.28921e-05 1.41613e-05 2.5101e-05)
(7.39584e-05 1.63485e-05 -1.37491e-05)
(8.24541e-05 6.22732e-06 -2.33712e-05)
(6.06675e-05 -7.18523e-06 -1.94326e-05)
(3.31763e-05 -1.27359e-05 -1.07089e-05)
(1.9066e-05 -1.64392e-05 -5.72854e-06)
(6.26892e-07 -2.1036e-05 -7.75688e-06)
(-4.32695e-05 -2.9895e-05 -2.72255e-05)
(-0.000107763 -5.67352e-05 -4.33812e-05)
(-0.000205188 -9.49113e-05 -4.84777e-05)
(-0.000377193 -0.000153482 -4.89118e-05)
(-0.000521282 -0.000184537 -3.14449e-05)
(-0.000635772 -0.000197128 -9.10848e-06)
(-0.000732822 -0.000202252 1.21468e-05)
(-0.000825521 -0.000206843 3.08174e-05)
(-0.000894387 -0.000207813 4.56877e-05)
(-0.000954433 -0.000209538 5.6946e-05)
(-0.00100692 -0.000212165 6.48032e-05)
(-0.00105438 -0.000216202 6.92001e-05)
(-0.00109524 -0.000220839 6.91245e-05)
(-0.00113153 -0.00022569 6.37477e-05)
(-0.00116531 -0.000230252 5.2581e-05)
(-0.00119364 -0.000233997 3.52675e-05)
(-0.00120636 -0.000236162 1.23755e-05)
(3.92394e-05 1.45282e-05 2.70202e-05)
(9.21005e-05 1.91487e-05 -1.261e-05)
(0.000112092 9.89108e-06 -2.71921e-05)
(0.000112461 -7.11196e-06 -3.21934e-05)
(8.22403e-05 -2.18684e-05 -2.39891e-05)
(6.17816e-05 -3.44169e-05 -1.46353e-05)
(2.03034e-05 -2.26808e-05 -1.8203e-06)
(-4.28059e-06 -1.33949e-05 -3.82984e-06)
(-3.99514e-05 -2.33575e-05 -2.03979e-05)
(-8.17379e-05 -3.85319e-05 -2.73208e-05)
(-0.000241551 -9.97373e-05 -4.82047e-05)
(-0.000383067 -0.000138619 -4.20856e-05)
(-0.000506104 -0.000159638 -2.49469e-05)
(-0.000610224 -0.000169648 -4.96035e-06)
(-0.000684521 -0.000170988 1.38415e-05)
(-0.00076195 -0.000174377 3.02397e-05)
(-0.000827576 -0.000177167 4.33774e-05)
(-0.000883478 -0.000180146 5.32002e-05)
(-0.000926947 -0.000183152 5.91272e-05)
(-0.000963482 -0.000186856 6.0442e-05)
(-0.000995586 -0.000190895 5.641e-05)
(-0.00102542 -0.000194657 4.67624e-05)
(-0.00105051 -0.000197681 3.15017e-05)
(-0.00106137 -0.00019947 1.11054e-05)
(4.45107e-05 1.46905e-05 2.93849e-05)
(0.000102431 2.15174e-05 -1.04568e-05)
(0.00012893 1.50268e-05 -2.82154e-05)
(0.000133841 -1.28937e-06 -3.62747e-05)
(0.000121458 -2.11665e-05 -3.52145e-05)
(8.2954e-05 -3.26126e-05 -2.23953e-05)
(4.28396e-05 -3.14227e-05 -7.25898e-06)
(1.19114e-05 -1.85082e-05 1.45474e-06)
(-1.43384e-05 -1.85566e-05 -6.13645e-06)
(-5.31188e-05 -2.64607e-05 -2.32922e-05)
(-9.13541e-05 -3.88276e-05 -2.66579e-05)
(-0.000249938 -9.36989e-05 -4.37157e-05)
(-0.000370669 -0.00012108 -3.49788e-05)
(-0.000466238 -0.000133685 -1.84206e-05)
(-0.000565708 -0.000144154 -6.59992e-07)
(-0.000630394 -0.000146034 1.60988e-05)
(-0.000684763 -0.000147335 2.99142e-05)
(-0.000730164 -0.000148748 4.05475e-05)
(-0.000770998 -0.000151657 4.78401e-05)
(-0.000803507 -0.000155003 5.04671e-05)
(-0.000830893 -0.000158532 4.7808e-05)
(-0.000856722 -0.00016184 3.98912e-05)
(-0.000878801 -0.000164463 2.70341e-05)
(-0.000887252 -0.000165891 9.57908e-06)
(4.85834e-05 1.49794e-05 3.28636e-05)
(0.000101281 2.18993e-05 -7.38493e-06)
(0.000130112 1.90478e-05 -2.65779e-05)
(0.000142844 6.01234e-06 -3.77533e-05)
(0.000136985 -1.33524e-05 -4.00161e-05)
(0.000116802 -3.20041e-05 -3.4033e-05)
(7.11268e-05 -3.65744e-05 -1.73966e-05)
(3.58165e-05 -3.28567e-05 -3.15831e-06)
(1.19488e-05 -3.01421e-05 4.71793e-06)
(-1.512e-05 -1.15471e-05 -6.91284e-06)
(-4.42626e-05 -2.0948e-05 -1.86177e-05)
(-0.00010328 -4.06718e-05 -2.71639e-05)
(-0.000233688 -7.99546e-05 -3.64229e-05)
(-0.000342402 -0.00010311 -2.8017e-05)
(-0.000403004 -0.000108352 -1.19812e-05)
(-0.000481131 -0.00011652 3.57294e-06)
(-0.000544166 -0.00012149 1.78073e-05)
(-0.000597546 -0.000125735 2.97819e-05)
(-0.000632214 -0.000128291 3.80851e-05)
(-0.000659302 -0.000131367 4.17886e-05)
(-0.000681972 -0.000134626 4.02994e-05)
(-0.000703323 -0.000137643 3.38381e-05)
(-0.000721662 -0.000139916 2.30608e-05)
(-0.000728453 -0.000141174 8.22665e-06)
(4.96403e-05 1.44093e-05 3.5488e-05)
(9.61636e-05 2.12695e-05 -4.30253e-06)
(0.000124741 2.08664e-05 -2.3385e-05)
(0.000137799 1.15542e-05 -3.51489e-05)
(0.000139702 -4.66133e-06 -4.06045e-05)
(0.000127349 -2.32336e-05 -3.81493e-05)
(0.000106605 -3.91052e-05 -2.97327e-05)
(5.88593e-05 -3.6348e-05 -1.23011e-05)
(2.3193e-05 -2.43869e-05 -9.18424e-07)
(6.00412e-06 -2.83637e-05 -6.47822e-07)
(-2.85237e-05 -1.89988e-05 -1.62342e-05)
(-4.60774e-05 -1.98987e-05 -1.82092e-05)
(-8.93206e-05 -3.28604e-05 -2.20459e-05)
(-0.000184563 -5.97347e-05 -2.60665e-05)
(-0.000298194 -8.48135e-05 -2.05819e-05)
(-0.000349954 -9.06819e-05 -6.42193e-06)
(-0.000395021 -9.45676e-05 6.82871e-06)
(-0.000423861 -9.65922e-05 1.78488e-05)
(-0.000456553 -0.000100136 2.65713e-05)
(-0.000478847 -0.000103455 3.09422e-05)
(-0.000496177 -0.00010654 3.05644e-05)
(-0.000513018 -0.000109608 2.59216e-05)
(-0.000528268 -0.000111866 1.78351e-05)
(-0.000532042 -0.000112597 6.40146e-06)
(4.96436e-05 1.42204e-05 3.88936e-05)
(8.80935e-05 2.0545e-05 -1.91525e-06)
(0.000115351 2.1693e-05 -2.01509e-05)
(0.00012836 1.47544e-05 -3.13907e-05)
(0.000131648 2.1418e-06 -3.75272e-05)
(0.000127963 -1.43111e-05 -3.85504e-05)
(0.000113524 -3.02447e-05 -3.31624e-05)
(9.64105e-05 -4.29701e-05 -2.52026e-05)
(4.99556e-05 -3.44994e-05 -1.06577e-05)
(3.15046e-05 -3.8893e-05 -4.93754e-06)
(-9.71714e-07 -1.44305e-05 -5.80122e-06)
(-3.86991e-05 -2.26512e-05 -2.60934e-05)
(-4.39843e-05 -1.92241e-05 -1.76562e-05)
(-0.000104597 -3.77971e-05 -2.41744e-05)
(-8.91419e-05 -2.71232e-05 -1.14513e-05)
(-0.000196026 -5.54615e-05 -1.13877e-05)
(-0.000250931 -6.69859e-05 -1.38974e-06)
(-0.000305735 -7.59038e-05 9.64044e-06)
(-0.000331295 -8.02951e-05 1.81798e-05)
(-0.000347261 -8.31951e-05 2.3085e-05)
(-0.000360318 -8.65823e-05 2.35057e-05)
(-0.000370714 -8.88913e-05 2.01024e-05)
(-0.00038172 -9.08458e-05 1.39131e-05)
(-0.000386754 -9.17873e-05 5.06275e-06)
(4.80912e-05 1.51651e-05 4.29051e-05)
(7.87225e-05 2.07485e-05 -8.59037e-07)
(0.000101856 2.21129e-05 -1.73634e-05)
(0.000113199 1.65809e-05 -2.67009e-05)
(0.000117852 6.39541e-06 -3.24876e-05)
(0.000117378 -7.02051e-06 -3.47942e-05)
(0.000113526 -2.25811e-05 -3.33477e-05)
(0.000101636 -3.52938e-05 -2.77032e-05)
(8.98678e-05 -4.53386e-05 -2.26044e-05)
(4.51954e-05 -3.32564e-05 -1.13258e-05)
(1.96607e-05 -2.76041e-05 -9.93189e-06)
(-5.33267e-06 -1.41209e-05 -1.34095e-05)
(-3.10938e-05 -1.83271e-05 -2.32026e-05)
(-7.2195e-05 -3.18975e-05 -3.06034e-05)
(-9.9679e-05 -3.88398e-05 -2.3952e-05)
(-6.3914e-05 -2.17791e-05 -7.92868e-06)
(-0.000110119 -3.49019e-05 -4.64681e-06)
(-0.000114818 -3.16739e-05 1.41763e-06)
(-0.000122116 -3.47911e-05 5.77227e-06)
(-0.00013826 -3.86463e-05 9.35385e-06)
(-0.000142905 -4.14637e-05 1.00878e-05)
(-0.000161171 -4.50247e-05 9.60045e-06)
(-0.000171028 -4.74792e-05 6.7663e-06)
(-0.000162175 -4.61238e-05 2.29537e-06)
(4.42449e-05 1.72016e-05 4.66745e-05)
(6.4714e-05 2.05351e-05 -7.83801e-07)
(8.21332e-05 2.12144e-05 -1.4197e-05)
(9.1447e-05 1.66207e-05 -2.07623e-05)
(9.68117e-05 8.62201e-06 -2.51927e-05)
(9.99237e-05 -2.41513e-06 -2.81034e-05)
(0.000101095 -1.59566e-05 -2.84835e-05)
(0.000102437 -2.97729e-05 -2.72172e-05)
(9.42987e-05 -3.83463e-05 -2.39931e-05)
(8.32286e-05 -4.52412e-05 -2.2622e-05)
(3.90025e-05 -3.07203e-05 -1.45599e-05)
(1.15865e-05 -1.8465e-05 -1.31001e-05)
(-8.032e-06 -1.4742e-05 -2.28564e-05)
(-2.46958e-05 -1.58573e-05 -2.3836e-05)
(-4.38485e-05 -2.29361e-05 -2.22979e-05)
(-3.83658e-05 -1.68719e-05 -1.02034e-05)
(-7.65145e-05 -3.04752e-05 -9.78553e-06)
(-0.000107869 -4.21641e-05 -3.82795e-06)
(-8.97451e-05 -3.40041e-05 2.77461e-06)
(-5.67282e-05 -2.22082e-05 3.78057e-06)
(-9.98737e-05 -3.91293e-05 7.83432e-06)
(-0.000129345 -5.10099e-05 8.48765e-06)
(-0.000134675 -5.26373e-05 5.895e-06)
(-6.00114e-05 -2.46865e-05 9.5848e-07)
(3.80943e-05 1.95703e-05 4.89085e-05)
(5.14454e-05 2.04989e-05 -1.31336e-06)
(6.05079e-05 1.8937e-05 -1.12289e-05)
(6.55777e-05 1.44023e-05 -1.46048e-05)
(7.04615e-05 8.2029e-06 -1.70654e-05)
(7.59269e-05 -6.80245e-07 -1.93693e-05)
(8.34162e-05 -1.2352e-05 -2.10802e-05)
(9.07106e-05 -2.42093e-05 -2.18368e-05)
(9.67355e-05 -3.45799e-05 -2.30234e-05)
(8.84868e-05 -3.93861e-05 -2.30242e-05)
(7.4675e-05 -4.31125e-05 -2.52989e-05)
(3.36276e-05 -2.84765e-05 -1.99517e-05)
(9.81571e-06 -1.69421e-05 -1.99686e-05)
(-2.51299e-06 -7.72529e-06 -1.65934e-05)
(-1.35351e-05 -1.11971e-05 -2.1226e-05)
(-3.42325e-05 -2.21124e-05 -2.63677e-05)
(-2.45506e-05 -1.40742e-05 -9.81237e-06)
(-4.33983e-05 -2.56804e-05 -7.42126e-06)
(-6.16688e-05 -3.28405e-05 -1.46618e-06)
(-4.98783e-05 -2.9427e-05 2.75837e-06)
(-6.57177e-05 -3.74194e-05 5.8063e-06)
(-3.08057e-05 -1.92732e-05 2.28482e-06)
(-3.20147e-05 -2.00389e-05 1.75723e-06)
(-5.78046e-05 -3.51777e-05 1.34111e-06)
(3.05664e-05 2.15242e-05 4.89139e-05)
(3.9912e-05 2.05538e-05 -2.28079e-06)
(4.32745e-05 1.66012e-05 -9.75314e-06)
(4.40473e-05 1.1301e-05 -1.06583e-05)
(4.63425e-05 5.71524e-06 -1.10827e-05)
(5.28789e-05 -1.852e-06 -1.21175e-05)
(6.36869e-05 -1.1813e-05 -1.3376e-05)
(7.75075e-05 -2.19096e-05 -1.5456e-05)
(8.65958e-05 -2.98867e-05 -1.79705e-05)
(9.14675e-05 -3.68869e-05 -2.15815e-05)
(8.16419e-05 -3.91321e-05 -2.45694e-05)
(6.62158e-05 -4.03304e-05 -3.03816e-05)
(3.1496e-05 -2.68326e-05 -2.82012e-05)
(7.88627e-06 -1.16515e-05 -1.90504e-05)
(1.13287e-06 -1.86707e-05 -4.3044e-05)
(-4.59369e-06 -1.02622e-05 -2.15263e-05)
(-7.63862e-06 -1.04602e-05 -1.5689e-05)
(-1.28717e-05 -1.54893e-05 -1.35642e-05)
(-2.16423e-05 -2.62209e-05 -1.07101e-05)
(-1.76026e-05 -2.2588e-05 -3.07465e-06)
(-9.3191e-06 -1.36433e-05 -2.11533e-07)
(-1.31366e-05 -1.95605e-05 4.62994e-07)
(-1.94007e-05 -2.80931e-05 9.01002e-07)
(-2.17169e-05 -3.0899e-05 8.01124e-07)
(2.29856e-05 2.25782e-05 4.62429e-05)
(3.0479e-05 2.04559e-05 -3.85771e-06)
(3.15327e-05 1.47492e-05 -9.82474e-06)
(3.15593e-05 8.91038e-06 -9.84581e-06)
(3.27691e-05 2.61961e-06 -9.14287e-06)
(3.9492e-05 -5.55198e-06 -8.78247e-06)
(5.19833e-05 -1.50999e-05 -8.73608e-06)
(6.54296e-05 -2.2947e-05 -9.89736e-06)
(7.8122e-05 -2.92608e-05 -1.31645e-05)
(8.33598e-05 -3.36158e-05 -1.71029e-05)
(8.48195e-05 -3.78149e-05 -2.25738e-05)
(7.49313e-05 -3.84214e-05 -2.88915e-05)
(6.02252e-05 -3.78444e-05 -3.86141e-05)
(3.51033e-05 -2.87393e-05 -4.08609e-05)
(1.32614e-05 -1.66436e-05 -3.05804e-05)
(7.07443e-06 -1.47947e-05 -3.33889e-05)
(3.43443e-06 -1.4474e-05 -3.21425e-05)