/*--------------------------------*- C++ -*----------------------------------*\
  =========                 |
  \\      /  F ield         | OpenFOAM: The Open Source CFD Toolbox
   \\    /   O peration     | Website:  https://openfoam.org
    \\  /    A nd           | Version:  6
     \\/     M anipulation  |
\*---------------------------------------------------------------------------*/
FoamFile
{
    version     2.0;
    format      ascii;
    class       volScalarField;
    location    "4";
    object      omega;
}
// * * * * * * * * * * * * * * * * * * * * * * * * * * * * * * * * * * * * * //

dimensions      [0 0 -1 0 0 0 0];

internalField   nonuniform List<scalar> 
380496
(
843.917
843.917
843.917
843.917
843.917
843.917
843.917
843.917
843.917
843.917
843.917
843.917
843.917
843.917
843.917
843.917
843.917
843.917
843.917
843.917
843.917
843.917
843.917
843.917
843.917
843.917
843.917
843.917
843.917
843.917
843.917
843.917
843.917
843.917
843.917
843.917
843.917
843.917
843.917
843.917
843.917
843.917
843.917
843.917
843.917
843.917
843.917
843.917
843.917
843.917
843.917
843.917
843.917
843.917
843.917
843.917
843.917
843.917
843.917
843.917
843.917
843.917
843.917
843.917
843.917
843.917
843.917
843.917
843.917
843.917
843.917
843.917
843.917
843.917
843.917
843.917
843.917
843.917
843.917
843.917
843.917
843.917
843.917
843.917
843.917
843.917
843.917
843.917
843.917
843.917
843.917
843.917
843.917
843.917
843.917
843.917
843.917
843.917
843.917
843.917
843.917
843.917
843.917
843.917
843.917
843.917
843.917
843.917
843.917
843.917
843.917
843.917
843.917
843.917
843.917
843.917
843.917
843.917
843.917
843.917
843.917
843.917
843.917
843.917
843.917
843.917
843.917
843.917
843.917
843.917
843.917
843.917
843.917
843.917
843.917
843.917
843.917
843.917
843.917
843.917
843.917
843.917
843.917
843.917
843.917
843.917
843.917
843.917
843.917
843.917
843.917
843.917
843.917
843.917
843.917
843.917
843.917
843.917
843.917
843.917
843.917
843.917
843.917
843.917
843.917
843.917
843.917
843.917
843.917
843.917
843.917
843.917
843.917
843.917
843.917
843.917
843.917
843.917
843.917
843.917
843.917
843.917
843.917
843.917
843.917
843.917
843.917
843.917
843.917
843.917
843.917
843.917
843.917
843.917
843.917
843.917
843.917
843.917
843.917
843.917
843.917
843.917
843.917
843.917
843.917
843.917
843.917
843.917
843.917
843.917
843.917
843.917
843.917
843.917
843.917
843.917
843.917
843.917
843.917
843.917
843.917
843.917
843.917
843.917
843.917
843.917
843.917
843.917
843.917
843.917
843.917
843.917
843.917
843.917
843.917
843.917
843.917
843.917
843.917
843.917
843.917
843.917
843.917
843.917
843.917
843.917
843.917
843.917
843.917
843.917
843.917
843.917
843.917
843.917
843.917
843.917
843.917
843.917
843.917
843.917
843.917
843.917
843.917
843.917
843.917
843.917
843.917
843.917
843.917
843.917
843.917
843.917
843.917
843.917
843.917
843.917
843.917
843.917
843.917
843.917
843.917
843.917
843.917
843.917
843.917
843.917
843.917
843.917
843.917
843.917
843.917
843.917
843.917
843.917
843.917
843.917
843.917
843.917
843.917
843.917
843.917
843.917
843.917
843.917
843.917
843.917
843.917
843.917
843.917
843.917
843.917
843.917
843.917
843.917
843.917
843.917
843.917
843.917
843.917
843.917
843.917
843.917
843.917
843.917
843.917
843.917
843.917
843.917
843.917
843.917
843.917
843.917
843.917
843.917
843.917
843.917
843.917
843.917
843.917
843.917
843.917
843.917
843.917
843.917
843.917
843.917
843.917
843.917
843.917
843.917
843.917
843.917
843.917
843.917
843.917
843.917
843.917
843.917
843.917
843.917
843.917
843.917
843.917
843.917
843.917
843.917
843.917
843.917
843.917
843.917
843.917
843.917
843.917
843.917
843.917
843.917
843.917
843.917
843.917
843.917
843.917
843.917
843.917
843.917
843.917
843.917
843.917
843.917
843.917
843.917
843.917
843.917
843.917
843.917
843.917
843.917
843.917
843.917
843.917
843.917
843.917
843.917
843.917
843.917
843.917
843.917
843.917
843.917
843.917
843.917
843.917
843.917
843.917
843.917
843.917
843.917
843.917
843.917
843.917
843.917
843.917
843.917
843.917
843.917
843.917
843.917
843.917
843.917
843.917
843.917
843.917
843.917
843.917
843.917
843.917
843.917
843.917
843.917
843.917
843.917
843.917
843.917
843.917
843.917
843.917
843.917
843.917
843.917
843.917
843.917
843.917
843.917
843.917
843.917
843.917
843.917
843.917
843.917
843.917
843.917
843.917
843.917
843.917
843.917
843.917
843.917
843.917
843.917
843.917
843.917
843.917
843.917
843.917
843.917
843.917
843.917
843.917
843.917
843.917
843.917
843.917
843.917
843.917
843.917
843.917
843.917
843.917
843.917
843.917
843.917
843.917
843.917
843.917
843.917
843.917
843.917
843.917
843.917
843.917
843.917
843.917
843.917
843.917
843.917
843.917
843.917
843.917
843.917
843.917
843.917
843.917
843.917
843.917
843.917
843.917
843.917
843.917
843.917
843.917
843.917
843.917
843.917
843.917
843.917
843.917
843.917
843.917
843.917
843.917
843.917
843.917
843.917
843.917
843.917
843.917
843.917
843.917
843.917
843.917
843.917
843.917
843.917
843.917
843.917
843.917
843.917
843.917
843.917
843.917
843.917
843.917
843.917
843.917
843.917
843.917
843.917
843.917
843.917
843.917
843.917
843.917
843.917
843.917
843.917
843.917
843.917
843.917
843.917
843.917
843.917
843.917
843.917
843.917
843.917
843.917
843.917
843.917
843.917
843.917
843.917
843.917
843.917
843.917
843.917
843.917
843.917
843.917
843.917
843.917
843.917
843.917
843.917
843.917
843.917
843.917
843.917
843.917
843.917
843.917
843.917
843.917
843.917
843.917
843.917
843.917
843.917
843.917
843.917
843.917
843.917
843.917
843.917
843.917
843.917
843.917
843.917
843.917
843.917
843.917
843.917
843.917
843.917
843.917
843.917
843.917
843.917
843.917
843.917
843.917
843.917
843.917
843.917
843.917
843.917
843.917
843.917
843.917
843.917
843.917
843.917
843.917
843.917
843.917
843.917
843.917
843.917
843.917
843.917
843.917
843.917
843.917
843.917
843.917
843.917
843.917
843.917
843.917
843.917
843.917
843.917
843.917
843.917
843.917
843.917
843.917
843.917
843.917
843.917
843.917
843.917
843.917
843.917
843.917
843.917
843.917
843.917
843.917
843.917
843.917
843.917
843.917
843.917
843.917
843.917
843.917
843.917
843.917
843.917
843.917
843.917
843.917
843.917
843.917
843.917
843.917
843.917
843.917
843.917
843.917
843.917
423.923
423.923
423.923
423.923
423.923
423.923
423.923
423.923
423.923
423.923
423.923
423.923
423.923
423.923
423.923
423.923
423.923
423.923
423.923
423.923
423.923
423.923
423.923
423.923
423.923
423.923
423.923
423.923
423.923
423.923
423.923
423.923
423.923
423.923
423.923
281.626
267.588
268.721
269.804
269.892
269.734
269.616
269.548
269.509
269.483
269.465
269.452
269.443
269.44
269.439
269.446
269.455
269.471
269.489
269.516
269.54
269.575
269.603
269.644
269.674
269.718
269.747
269.796
269.822
269.874
269.895
269.955
269.964
270.038
270.007
281.466
267.571
268.644
269.676
269.741
269.575
269.452
269.384
269.34
269.318
269.296
269.29
269.28
269.286
269.284
269.301
269.308
269.336
269.352
269.392
269.415
269.467
269.495
269.555
269.586
269.652
269.683
269.754
269.78
269.855
269.873
269.954
269.946
270.058
269.934
281.132
267.394
268.47
269.466
269.506
269.33
269.203
269.133
269.088
269.068
269.048
269.046
269.038
269.049
269.053
269.078
269.093
269.132
269.158
269.209
269.244
269.307
269.348
269.421
269.466
269.546
269.593
269.68
269.725
269.821
269.859
269.966
269.978
270.126
270.025
280.564
267.015
268.172
269.141
269.146
268.955
268.823
268.754
268.711
268.694
268.68
268.683
268.683
268.701
268.713
268.747
268.771
268.821
268.857
268.923
268.969
269.048
269.101
269.191
269.249
269.347
269.406
269.513
269.572
269.686
269.739
269.864
269.891
270.056
269.972
280.147
266.779
267.823
268.723
268.707
268.51
268.376
268.304
268.263
268.246
268.236
268.242
268.249
268.275
268.297
268.342
268.381
268.446
268.5
268.583
268.649
268.747
268.822
268.932
269.012
269.131
269.212
269.34
269.42
269.555
269.628
269.777
269.82
270.022
269.939
279.34
266.187
267.267
268.121
268.071
267.862
267.728
267.66
267.624
267.614
267.61
267.623
267.636
267.668
267.697
267.749
267.796
267.87
267.934
268.03
268.109
268.222
268.313
268.441
268.538
268.679
268.78
268.932
269.033
269.197
269.291
269.474
269.535
269.782
269.697
278.498
265.569
266.585
267.367
267.288
267.071
266.936
266.871
266.839
266.835
266.837
266.858
266.88
266.923
266.963
267.029
267.091
267.182
267.263
267.378
267.475
267.609
267.718
267.868
267.984
268.146
268.265
268.44
268.559
268.749
268.862
269.075
269.155
269.445
269.363
277.443
264.75
265.699
266.405
266.295
266.073
265.941
265.88
265.856
265.856
265.864
265.889
265.914
265.959
266.002
266.07
266.135
266.231
266.318
266.44
266.547
266.692
266.814
266.979
267.111
267.292
267.429
267.626
267.766
267.98
268.117
268.358
268.462
268.788
268.719
276.188
263.73
264.62
265.245
265.103
264.877
264.752
264.701
264.688
264.699
264.718
264.752
264.789
264.845
264.902
264.983
265.065
265.176
265.281
265.421
265.547
265.71
265.852
266.035
266.187
266.387
266.544
266.76
266.92
267.155
267.313
267.579
267.703
268.06
268.003
274.954
262.701
263.44
263.975
263.811
263.587
263.469
263.425
263.418
263.432
263.453
263.487
263.522
263.574
263.628
263.706
263.785
263.895
264.002
264.144
264.277
264.448
264.602
264.799
264.967
265.185
265.363
265.601
265.785
266.044
266.228
266.519
266.669
267.056
267.015
273.276
261.256
261.943
262.399
262.206
261.987
261.886
261.862
261.874
261.903
261.937
261.981
262.026
262.086
262.15
262.237
262.328
262.449
262.569
262.725
262.874
263.062
263.234
263.451
263.64
263.881
264.082
264.344
264.552
264.836
265.044
265.361
265.534
265.95
265.923
271.659
259.846
260.298
260.649
260.442
260.232
260.145
260.131
260.15
260.181
260.214
260.25
260.286
260.334
260.387
260.461
260.542
260.654
260.77
260.924
261.078
261.275
261.462
261.697
261.911
262.177
262.408
262.701
262.942
263.257
263.497
263.843
264.046
264.49
264.484
269.371
257.798
258.17
258.443
258.22
258.033
257.981
257.999
258.044
258.093
258.136
258.179
258.218
258.269
258.326
258.405
258.493
258.614
258.744
258.915
259.091
259.314
259.532
259.801
260.051
260.355
260.626
260.955
261.233
261.581
261.852
262.228
262.457
262.927
262.94
267.1
255.726
255.804
255.971
255.745
255.584
255.56
255.6
255.657
255.708
255.745
255.773
255.793
255.822
255.857
255.913
255.983
256.09
256.215
256.389
256.581
256.828
257.084
257.396
257.699
258.055
258.381
258.761
259.088
259.481
259.792
260.201
260.461
260.955
260.987
264.03
252.886
252.792
252.885
252.668
252.557
252.588
252.673
252.761
252.826
252.864
252.886
252.896
252.915
252.941
252.992
253.063
253.179
253.327
253.537
253.782
254.094
254.425
254.815
255.197
255.627
256.021
256.459
256.836
257.268
257.611
258.044
258.323
258.832
258.87
260.549
249.596
249.214
249.239
249.054
249.012
249.109
249.241
249.353
249.421
249.443
249.438
249.408
249.385
249.361
249.369
249.409
249.515
249.68
249.933
250.25
250.65
251.084
251.576
252.06
252.577
253.048
253.548
253.975
254.442
254.812
255.261
255.554
256.071
256.106
256.374
245.586
244.83
244.783
244.646
244.694
244.875
245.067
245.208
245.276
245.267
245.215
245.119
245.042
244.961
244.945
244.982
245.129
245.37
245.74
246.192
246.743
247.317
247.941
248.524
249.125
249.646
250.186
250.625
251.106
251.47
251.926
252.209
252.735
252.759
249.987
239.598
238.809
238.845
238.837
239.057
239.392
239.683
239.86
239.905
239.82
239.656
239.411
239.197
238.985
238.913
238.936
239.153
239.502
240.023
240.62
241.306
241.984
242.682
243.316
243.938
244.472
245.001
245.439
245.904
246.272
246.718
247.02
247.539
247.598
240.786
231.451
230.523
230.785
231.067
231.597
232.211
232.715
232.991
232.987
232.716
232.294
231.829
231.516
231.38
231.576
231.919
232.463
233.031
233.658
234.256
234.862
235.384
235.893
236.324
236.778
237.184
237.622
238.006
238.434
238.797
239.233
239.562
240.061
240.223
214.354
212.326
212.9
214.449
216.009
217.732
219.208
220.124
220.427
220.293
220.025
219.92
220.089
220.565
221.206
222.018
222.798
223.651
224.377
225.075
225.629
226.118
226.531
226.952
227.315
227.666
227.981
228.32
228.663
229.029
229.403
229.784
230.169
230.509
231.095
9.05164
7.94663
8.12526
8.39476
8.69709
8.97714
9.20232
9.35707
9.43283
9.42891
9.37587
9.31339
9.28187
9.2858
9.33095
9.39132
9.47341
9.54347
9.62273
9.68014
9.74532
9.79221
9.8512
9.89347
9.95245
9.98966
10.0528
10.0834
10.1562
10.1747
10.2634
10.2579
10.3728
10.3151
10.4748
135.247
128.88
128.553
129.046
129.239
129.229
129.17
129.114
129.069
129.033
129.004
128.98
128.961
128.947
128.938
128.935
128.936
128.942
128.953
128.967
128.985
129.005
129.028
129.051
129.077
129.102
129.133
129.16
129.197
129.227
129.273
129.309
129.365
129.411
129.48
135.076
128.679
128.314
128.781
128.963
128.946
128.884
128.826
128.78
128.744
128.714
128.691
128.674
128.662
128.655
128.654
128.658
128.667
128.682
128.7
128.724
128.75
128.782
128.812
128.849
128.881
128.924
128.957
129.005
129.039
129.095
129.133
129.188
129.254
129.263
134.794
128.387
128.006
128.459
128.631
128.609
128.544
128.485
128.437
128.402
128.373
128.351
128.335
128.325
128.321
128.323
128.332
128.346
128.367
128.391
128.42
128.451
128.488
128.523
128.566
128.604
128.652
128.693
128.749
128.792
128.858
128.907
128.975
129.054
129.081
134.361
127.976
127.614
128.063
128.225
128.195
128.126
128.065
128.019
127.985
127.959
127.94
127.928
127.922
127.921
127.928
127.941
127.961
127.987
128.018
128.055
128.094
128.139
128.182
128.233
128.28
128.337
128.385
128.449
128.5
128.572
128.63
128.699
128.787
128.812
134.043
127.651
127.239
127.652
127.796
127.758
127.684
127.621
127.573
127.538
127.511
127.494
127.483
127.48
127.483
127.496
127.515
127.542
127.577
127.617
127.665
127.715
127.771
127.828
127.892
127.951
128.021
128.083
128.16
128.223
128.308
128.378
128.459
128.563
128.595
133.489
127.122
126.721
127.121
127.25
127.203
127.125
127.061
127.015
126.982
126.959
126.944
126.935
126.934
126.94
126.954
126.976
127.006
127.044
127.088
127.139
127.193
127.255
127.317
127.387
127.453
127.531
127.6
127.686
127.758
127.852
127.932
128.022
128.139
128.173
132.923
126.585
126.16
126.527
126.635
126.577
126.495
126.429
126.382
126.35
126.328
126.315
126.309
126.312
126.322
126.342
126.371
126.409
126.456
126.509
126.569
126.633
126.703
126.773
126.849
126.922
127.006
127.081
127.173
127.251
127.351
127.438
127.533
127.662
127.697
132.247
125.943
125.496
125.829
125.914
125.844
125.757
125.69
125.644
125.614
125.594
125.582
125.576
125.579
125.589
125.608
125.637
125.675
125.722
125.776
125.838
125.903
125.974
126.046
126.125
126.201
126.287
126.366
126.461
126.545
126.649
126.743
126.841
126.98
127.012
131.462
125.209
124.747
125.043
125.102
125.019
124.928
124.862
124.818
124.792
124.774
124.766
124.764
124.771
124.786
124.813
124.849
124.896
124.952
125.016
125.086
125.159
125.238
125.317
125.402
125.484
125.575
125.66
125.76
125.849
125.958
126.06
126.161
126.312
126.344
130.7
124.495
123.978
124.221
124.252
124.158
124.064
123.998
123.956
123.931
123.915
123.906
123.903
123.908
123.921
123.945
123.978
124.023
124.077
124.138
124.206
124.278
124.357
124.436
124.523
124.608
124.703
124.794
124.9
124.998
125.113
125.226
125.333
125.496
125.529
129.71
123.568
123.04
123.247
123.25
123.144
123.049
122.988
122.953
122.934
122.923
122.918
122.919
122.928
122.947
122.977
123.017
123.067
123.126
123.192
123.264
123.34
123.422
123.507
123.599
123.692
123.795
123.895
124.01
124.118
124.243
124.367
124.482
124.659
124.696
128.744
122.676
122.057
122.19
122.159
122.041
121.944
121.886
121.854
121.838
121.828
121.822
121.821
121.827
121.841
121.866
121.9
121.944
121.994
122.053
122.117
122.188
122.268
122.353
122.449
122.549
122.661
122.774
122.902
123.026
123.165
123.305
123.432
123.625
123.667
127.447
121.458
120.815
120.904
120.843
120.716
120.625
120.578
120.559
120.553
120.55
120.55
120.553
120.564
120.583
120.612
120.649
120.693
120.742
120.799
120.864
120.939
121.025
121.121
121.231
121.349
121.48
121.613
121.762
121.906
122.064
122.222
122.363
122.57
122.621
126.134
120.244
119.475
119.473
119.372
119.236
119.151
119.113
119.104
119.104
119.105
119.106
119.108
119.117
119.131
119.15
119.172
119.199
119.231
119.272
119.326
119.397
119.488
119.598
119.728
119.872
120.032
120.196
120.375
120.548
120.729
120.91
121.067
121.291
121.348
124.427
118.643
117.798
117.733
117.599
117.46
117.39
117.374
117.385
117.402
117.415
117.425
117.434
117.447
117.46
117.472
117.481
117.492
117.509
117.543
117.602
117.69
117.809
117.956
118.13
118.32
118.526
118.732
118.946
119.15
119.355
119.553
119.723
119.958
120.018
122.478
116.811
115.821
115.666
115.497
115.363
115.318
115.331
115.368
115.405
115.434
115.454
115.466
115.472
115.463
115.44
115.406
115.375
115.36
115.378
115.442
115.555
115.717
115.92
116.153
116.402
116.661
116.914
117.164
117.396
117.621
117.834
118.012
118.254
118.309
120.125
114.61
113.419
113.149
112.939
112.816
112.805
112.861
112.942
113.021
113.081
113.119
113.124
113.104
113.045
112.963
112.869
112.792
112.755
112.785
112.888
113.069
113.314
113.602
113.915
114.231
114.542
114.832
115.109
115.354
115.588
115.802
115.982
116.227
116.279
116.498
111.157
109.955
109.69
109.499
109.442
109.532
109.695
109.873
110.022
110.113
110.137
110.075
109.951
109.759
109.553
109.356
109.223
109.179
109.251
109.429
109.696
110.021
110.38
110.747
111.103
111.439
111.742
112.021
112.266
112.498
112.711
112.896
113.14
113.208
111.028
106.284
104.796
104.468
104.338
104.446
104.769
105.204
105.626
105.929
106.034
105.934
105.652
105.29
104.907
104.667
104.572
104.654
104.846
105.13
105.46
105.81
106.155
106.482
106.778
107.053
107.316
107.562
107.799
108.017
108.234
108.44
108.634
108.872
108.991
95.7437
95.7473
94.6459
94.5701
94.9321
95.81
96.9657
98.0337
98.7232
98.9266
98.7154
98.3114
97.949
97.7779
97.8107
98.0346
98.3415
98.7444
99.1629
99.586
99.9619
100.288
100.584
100.886
101.172
101.428
101.647
101.852
102.051
102.252
102.461
102.661
102.897
103.052
103.401
11.4707
10.1649
10.3927
10.7622
11.1575
11.5235
11.83
12.0621
12.2122
12.2716
12.2582
12.1985
12.1451
12.1173
12.1422
12.1932
12.2834
12.367
12.4654
12.5385
12.617
12.6724
12.7392
12.7874
12.8551
12.8985
12.9715
13.0074
13.0909
13.1138
13.2145
13.213
13.3405
13.2923
13.4553
79.7823
77.2362
76.6757
76.7678
76.8931
76.9338
76.9238
76.8958
76.8645
76.8353
76.8085
76.7849
76.764
76.7467
76.7332
76.7234
76.7182
76.7163
76.7192
76.7239
76.7333
76.7419
76.7553
76.7652
76.7811
76.7903
76.8086
76.8163
76.8385
76.8448
76.8734
76.8797
76.9174
76.9238
76.9807
79.5948
77.0491
76.4715
76.5488
76.6654
76.7008
76.6876
76.6567
76.6242
76.5933
76.567
76.5424
76.5233
76.5057
76.4946
76.4844
76.4822
76.4796
76.4864
76.4906
76.5055
76.5145
76.5358
76.5468
76.5726
76.5832
76.6126
76.6209
76.6545
76.6603
76.6985
76.7054
76.7428
76.763
76.7882
79.3538
76.8071
76.2196
76.2881
76.3988
76.43
76.414
76.381
76.3473
76.3152
76.2881
76.2627
76.2431
76.2251
76.2146
76.2054
76.2054
76.2056
76.2158
76.2235
76.2418
76.2539
76.2777
76.2911
76.3187
76.3313
76.3628
76.3735
76.4103
76.419
76.4623
76.4728
76.5179
76.5434
76.5795
79.0383
76.4935
75.9102
75.9779
76.0849
76.1119
76.0925
76.0577
76.0232
75.9915
75.9652
75.9411
75.9232
75.9069
75.8981
75.8906
75.8929
75.8949
75.9083
75.9187
75.9415
75.957
75.9863
76.0036
76.0372
76.0538
76.0911
76.1059
76.1474
76.1608
76.2071
76.2232
76.2684
76.2996
76.3322
78.7524
76.2183
75.6176
75.6658
75.7595
75.7782
75.7534
75.7149
75.6774
75.6438
75.6159
75.5911
75.5727
75.557
75.5493
75.5438
75.5483
75.5538
75.5706
75.5855
75.6128
75.6343
75.6694
75.6938
75.7343
75.7589
75.804
75.8268
75.8767
75.8976
75.953
75.9761
76.0309
76.0696
76.1139
78.3533
75.8245
75.2282
75.2724
75.3588
75.371
75.3417
75.3008
75.2626
75.2291
75.2018
75.1778
75.1601
75.1449
75.1377
75.1327
75.138
75.1443
75.1623
75.1784
75.2071
75.2297
75.2664
75.292
75.3347
75.3607
75.409
75.4336
75.4882
75.5111
75.5728
75.598
75.6597
75.7006
75.7509
77.9277
75.4144
74.8127
74.8426
74.9155
74.9178
74.8818
74.8369
74.7962
74.7611
74.7327
74.7079
74.6898
74.6748
74.6687
74.666
74.6746
74.6852
74.7082
74.7296
74.7638
74.7912
74.8326
74.8615
74.9079
74.9357
74.9869
75.0123
75.0699
75.0931
75.1581
75.1841
75.2497
75.2929
75.3483
77.4329
74.9365
74.332
74.3469
74.4047
74.396
74.3532
74.3048
74.2627
74.2273
74.1989
74.1742
74.1559
74.1406
74.1339
74.1307
74.139
74.1496
74.1726
74.1939
74.228
74.2548
74.2955
74.3232
74.3684
74.3945
74.4445
74.4685
74.5254
74.5483
74.6131
74.6402
74.7056
74.7516
74.8052
76.8731
74.4022
73.7995
73.8
73.8413
73.8199
73.7695
73.7175
73.6737
73.6379
73.6091
73.5843
73.5658
73.5513
73.5461
73.5461
73.5582
73.5737
73.6017
73.6283
73.6667
73.6977
73.7416
73.772
73.8191
73.847
73.8984
73.9238
73.9821
74.0069
74.0733
74.1035
74.1703
74.221
74.2764
76.3098
73.874
73.2592
73.2341
73.2539
73.2188
73.1611
73.1058
73.0611
73.0255
72.997
72.9724
72.9536
72.9389
72.9331
72.9326
72.9437
72.958
72.9839
73.0079
73.0428
73.0702
73.11
73.1372
73.1813
73.2075
73.2578
73.2839
73.3432
73.3708
73.4398
73.4748
73.5444
73.6013
73.6577
75.6261
73.2223
72.614
72.5752
72.5768
72.5278
72.4629
72.4053
72.361
72.3268
72.2993
72.2758
72.258
72.245
72.2416
72.2445
72.2587
72.2759
72.3032
72.3278
72.3619
72.3882
72.4267
72.4534
72.4976
72.5254
72.5783
72.6084
72.6726
72.7061
72.7812
72.8233
72.899
72.9636
73.0254
74.9217
72.5714
71.9382
71.8598
71.8308
71.7641
71.6912
71.6315
71.588
71.5556
71.53
71.508
71.4914
71.4795
71.4766
71.479
71.4906
71.5031
71.5231
71.539
71.5633
71.5805
71.6109
71.6322
71.6735
71.7018
71.7575
71.7934
71.8647
71.9076
71.9916
72.0443
72.1281
72.203
72.2695
74.0373
71.7331
71.1027
71.0052
70.9534
70.8712
70.7924
70.7334
70.6941
70.6666
70.6454
70.6274
70.6144
70.6065
70.6069
70.6111
70.6214
70.6298
70.6425
70.65
70.6657
70.6769
70.7042
70.7269
70.7734
70.811
70.8786
70.9289
71.0152
71.0738
71.1725
71.2394
71.3351
71.4215
71.4966
73.0997
70.8685
70.198
70.0468
69.9552
69.8518
69.7664
69.7092
69.6759
69.6552
69.6408
69.6295
69.6227
69.6198
69.6218
69.6223
69.6222
69.6146
69.6071
69.594
69.5911
69.5895
69.6107
69.6356
69.6906
69.7433
69.8297
69.9018
70.0098
70.0901
70.2076
70.2921
70.4013
70.5004
70.5821
71.929
69.772
69.0832
68.8958
68.7711
68.6498
68.5617
68.5113
68.4899
68.4827
68.4821
68.4834
68.4873
68.4908
68.4921
68.4826
68.463
68.4295
68.3939
68.357
68.3387
68.334
68.3637
68.4084
68.4915
68.5776
68.6989
68.805
68.944
69.051
69.1908
69.2925
69.415
69.5237
69.6123
70.5714
68.505
67.7631
67.5141
67.344
67.2027
67.1164
67.0805
67.0804
67.0961
67.1193
67.1425
67.1627
67.1713
67.1615
67.1234
67.0612
66.9789
66.897
66.8256
66.7891
66.7858
66.8339
66.9114
67.0342
67.1641
67.3272
67.4714
67.6425
67.7747
67.9342
68.0489
68.1813
68.2953
68.3868
68.9254
66.9783
66.1576
65.826
65.5988
65.4345
65.3531
65.3418
65.381
65.4437
65.5145
65.5727
65.6066
65.5988
65.5441
65.4379
65.2987
65.1427
65.0054
64.9036
64.8682
64.891
64.9879
65.1223
65.308
65.4917
65.7053
65.8833
66.0856
66.231
66.4068
66.5218
66.6627
66.7753
66.8707
66.567
64.6496
63.8073
63.4528
63.2022
63.05
63.0232
63.0966
63.2342
63.3882
63.5271
63.6118
63.6244
63.5442
63.3836
63.1539
62.9032
62.6604
62.4819
62.3797
62.3798
62.457
62.6144
62.8074
63.0405
63.2643
63.5018
63.6986
63.9049
64.0543
64.2266
64.34
64.4817
64.5918
64.6962
63.06
61.503
60.4041
59.8724
59.5411
59.4124
59.5062
59.7783
60.1496
60.5093
60.7614
60.8283
60.701
60.3989
60.0105
59.6287
59.3661
59.2305
59.2315
59.3266
59.5076
59.7201
59.9672
60.1992
60.4295
60.6225
60.8188
60.9776
61.1479
61.2743
61.4261
61.5309
61.6707
61.7765
61.9026
55.4841
57.1102
55.9132
55.0808
54.6617
54.7518
55.2666
55.9692
56.5839
56.8909
56.8252
56.447
55.9734
55.5726
55.3679
55.3178
55.41
55.5685
55.7981
56.0337
56.2704
56.4664
56.6519
56.8326
57.0294
57.2061
57.3635
57.4961
57.6211
57.7366
57.861
57.9634
58.1194
58.1761
58.4171
13.0361
11.6605
11.9091
12.3382
12.7879
13.2042
13.5636
13.8546
14.0742
14.2087
14.2658
14.2465
14.1973
14.1399
14.1293
14.1461
14.2194
14.2971
14.4005
14.4816
14.5671
14.626
14.6941
14.7412
14.8097
14.8535
14.9285
14.9659
15.0514
15.077
15.1788
15.1834
15.3083
15.277
15.4262
52.8626
51.8608
51.4555
51.3879
51.4259
51.4591
51.4677
51.4591
51.4421
51.4226
51.4024
51.3827
51.3642
51.3471
51.3326
51.3201
51.3117
51.3052
51.3036
51.3028
51.3071
51.3097
51.318
51.3213
51.3316
51.3331
51.3447
51.3427
51.3564
51.3503
51.3679
51.3577
51.3823
51.3663
51.4064
52.6911
51.7
51.2913
51.2168
51.2492
51.2781
51.2842
51.2727
51.2549
51.2332
51.2135
51.1923
51.1754
51.1571
51.145
51.131
51.1253
51.1165
51.118
51.1142
51.1227
51.1224
51.1366
51.1374
51.1554
51.1547
51.1755
51.1713
51.1944
51.1862
51.2115
51.2013
51.2268
51.2178
51.2457
52.4924
51.5065
51.0947
51.0155
51.0442
51.07
51.0738
51.0601
51.0409
51.0174
50.9965
50.9734
50.9551
50.9351
50.9222
50.9077
50.9029
50.8956
50.8995
50.8985
50.9099
50.9124
50.9285
50.9311
50.95
50.95
50.9711
50.9672
50.9909
50.9828
51.0098
51.0002
51.0289
51.0222
51.055
52.2549
51.2697
50.8594
50.7803
50.8079
50.8317
50.8332
50.8178
50.7973
50.7734
50.7523
50.7297
50.712
50.6927
50.6807
50.6665
50.6627
50.6554
50.661
50.6602
50.6742
50.6775
50.6972
50.7011
50.7241
50.7258
50.7508
50.7489
50.7759
50.7703
50.7996
50.7931
50.8224
50.8189
50.85
52.0123
51.0414
50.629
50.5417
50.5611
50.5785
50.575
50.5561
50.5325
50.5065
50.4833
50.4593
50.4403
50.4202
50.4077
50.3937
50.3898
50.3834
50.3893
50.3899
50.4047
50.4101
50.4317
50.4387
50.4648
50.4705
50.4999
50.5023
50.5348
50.5335
50.5692
50.5667
50.6037
50.6039
50.6454
51.7111
50.7439
50.3352
50.2478
50.2644
50.2779
50.2709
50.2492
50.2242
50.1973
50.1738
50.1495
50.1304
50.1102
50.0978
50.0838
50.0804
50.0744
50.0811
50.0822
50.0978
50.1034
50.1255
50.132
50.1588
50.1636
50.1944
50.1958
50.2308
50.2285
50.2681
50.2646
50.3066
50.3055
50.3527
51.3807
50.4248
50.0182
49.9263
49.9358
49.9425
49.9298
49.904
49.876
49.8466
49.8211
49.7946
49.7737
49.752
49.7386
49.7246
49.7222
49.7179
49.7274
49.7313
49.7504
49.7584
49.7836
49.7913
49.8203
49.8248
49.8571
49.8572
49.8938
49.8896
49.9315
49.9262
49.9715
49.9692
50.0215
51.001
50.057
49.6546
49.5585
49.5603
49.5591
49.5402
49.5104
49.4799
49.4495
49.4232
49.3966
49.3754
49.3535
49.3401
49.3263
49.3244
49.3207
49.331
49.3353
49.3547
49.3619
49.3863
49.3919
49.419
49.4204
49.4503
49.4469
49.4814
49.4743
49.5146
49.5076
49.552
49.549
49.6006
50.5801
49.6499
49.2549
49.1559
49.1495
49.1396
49.1136
49.0793
49.0455
49.0131
48.9847
48.9563
48.933
48.9099
48.8956
48.8823
48.8816
48.8801
48.8928
48.8998
48.9212
48.9301
48.9554
48.9614
48.9884
48.9893
49.0187
49.0147
49.049
49.0418
49.0826
49.0764
49.1219
49.1209
49.1746
50.1469
49.2381
48.8462
48.7384
48.7194
48.6985
48.6648
48.6262
48.5904
48.5574
48.5289
48.5011
48.4783
48.4561
48.4426
48.4305
48.4305
48.4295
48.4413
48.4466
48.4649
48.4701
48.4907
48.4921
48.5144
48.5114
48.5375
48.5314
48.5643
48.5571
48.5983
48.5939
48.6409
48.6428
48.6982
49.6398
48.7489
48.3682
48.259
48.2313
48.2003
48.1591
48.1161
48.0779
48.0439
48.0144
47.9858
47.9621
47.94
47.927
47.9163
47.9174
47.9172
47.9285
47.9321
47.9473
47.9487
47.9651
47.9627
47.982
47.9773
48.003
47.9978
48.033
48.0291
48.0746
48.075
48.1271
48.1345
48.195
49.0978
48.2395
47.8583
47.7327
47.6852
47.6385
47.5877
47.5403
47.5012
47.4683
47.4408
47.4149
47.3942
47.3757
47.3659
47.3578
47.3592
47.357
47.363
47.3592
47.3647
47.3561
47.3627
47.3524
47.3656
47.3576
47.3824
47.3791
47.4179
47.4196
47.4712
47.4792
47.5376
47.5526
47.6179
48.4409
47.6124
47.244
47.115
47.055
46.9956
46.9365
46.8855
46.8462
46.815
46.7897
46.7665
46.7485
46.7329
46.7252
46.7177
46.7162
46.7079
46.7038
46.688
46.6805
46.6606
46.6583
46.6432
46.6556
46.6511
46.6829
46.6894
46.7397
46.754
46.8182
46.8383
46.9077
46.9331
47.0068
47.7223
46.9405
46.5665
46.4125
46.3247
46.2446
46.1746
46.1209
46.0843
46.059
46.0411
46.0267
46.018
46.0113
46.0092
46.0025
45.9945
45.9734
45.9505
45.914
45.8856
45.8489
45.8347
45.8152
45.8293
45.833
45.877
45.8993
45.9664
45.9981
46.0782
46.1132
46.195
46.2312
46.3125
46.8441
46.1152
45.7483
45.581
45.4711
45.3726
45.2933
45.2388
45.208
45.1925
45.187
45.1855
45.1885
45.1893
45.1871
45.1707
45.1419
45.0921
45.0357
44.9674
44.9128
44.8605
44.8418
44.8294
44.8598
44.8868
44.958
45.0084
45.103
45.1588
45.2608
45.3125
45.4091
45.4549
45.5458
45.82
45.1543
44.776
44.5759
44.4296
44.306
44.2175
44.1675
44.1513
44.1565
44.176
44.2001
44.2252
44.238
44.2329
44.1955
44.1293
44.0325
43.9267
43.8162
43.7314
43.6666
43.6508
43.6564
43.7134
43.7735
43.8786
43.9614
44.085
44.1642
44.286
44.3504
44.4591
44.5091
44.6075
44.576
43.9964
43.597
43.3511
43.1576
43.0026
42.9036
42.8631
42.8756
42.9226
42.991
43.0557
43.1048
43.111
43.071
42.9706
42.8276
42.6505
42.4759
42.3162
42.2089
42.1456
42.1541
42.1972
42.3009
42.4064
42.5557
42.6731
42.8274
42.9253
43.064
43.135
43.2514
43.3033
43.4059
43.0231
42.4007
41.9554
41.6683
41.4314
41.2562
41.1752
41.1887
41.2813
41.4149
41.562
41.6737
41.733
41.6978
41.583
41.3789
41.1356
40.8711
40.6444
40.4668
40.3754
40.3504
40.4067
40.5024
40.6494
40.7956
40.9686
41.108
41.2664
41.3707
41.5028
41.5731
41.6828
41.734
41.8339
40.8317
40.4996
39.854
39.3674
38.9875
38.7457
38.6847
38.8022
39.0645
39.3838
39.6743
39.8288
39.8194
39.6114
39.2926
38.9047
38.5848
38.3472
38.2385
38.221
38.3012
38.4243
38.5979
38.7678
38.9487
39.0967
39.2496
39.365
39.4921
39.5756
39.6833
39.743
39.8414
39.8903
39.9917
37.8661
40.5571
39.5736
38.4528
37.6068
37.1773
37.1632
37.4389
37.8099
38.0555
38.0543
37.769
37.3351
36.8745
36.5694
36.3872
36.3693
36.4112
36.5361
36.6727
36.8247
36.9453
37.0588
37.1591
37.2819
37.3994
37.5088
37.5981
37.6766
37.7443
37.8155
37.8671
37.9599
37.9832
38.1301
14.2891
12.9001
13.1729
13.644
14.1281
14.5748
14.9676
15.2993
15.5728
15.772
15.9028
15.9454
15.9342
15.8701
15.8288
15.7988
15.8352
15.8874
15.9819
16.0641
16.1552
16.2181
16.2882
16.333
16.3995
16.4408
16.5143
16.5511
16.6348
16.6623
16.7605
16.7717
16.8885
16.8735
17.0068
37.6241
37.2099
36.9828
36.8897
36.8762
36.887
36.8953
36.8952
36.8878
36.8767
36.8633
36.8488
36.8343
36.8194
36.8063
36.7935
36.7842
36.7755
36.7717
36.7675
36.7693
36.7685
36.7744
36.7743
36.7825
36.7804
36.7897
36.7834