/*--------------------------------*- C++ -*----------------------------------*\
  =========                 |
  \\      /  F ield         | OpenFOAM: The Open Source CFD Toolbox
   \\    /   O peration     | Website:  https://openfoam.org
    \\  /    A nd           | Version:  6
     \\/     M anipulation  |
\*---------------------------------------------------------------------------*/
FoamFile
{
    version     2.0;
    format      ascii;
    class       volScalarField;
    location    "4";
    object      p;
}
// * * * * * * * * * * * * * * * * * * * * * * * * * * * * * * * * * * * * * //

dimensions      [0 2 -2 0 0 0 0];

internalField   nonuniform List<scalar> 
380496
(
0.0125436
0.0128962
0.0126555
0.0125863
0.0125374
0.0124854
0.0124362
0.0123861
0.0123343
0.0122814
0.0122272
0.0121721
0.012116
0.012059
0.012001
0.011942
0.0118816
0.0118198
0.011756
0.01169
0.0116214
0.0115495
0.0114741
0.0113943
0.0113098
0.0112198
0.011124
0.0110213
0.0109119
0.0107945
0.0106702
0.0105359
0.010399
0.0102459
0.0101102
0.0125146
0.0128582
0.0126286
0.0125649
0.0125199
0.0124705
0.0124225
0.0123722
0.0123194
0.0122646
0.0122079
0.0121495
0.0120894
0.0120279
0.0119648
0.0119
0.0118335
0.0117647
0.0116936
0.0116198
0.0115428
0.0114621
0.0113776
0.0112883
0.0111943
0.0110945
0.010989
0.0108766
0.0107579
0.0106309
0.0104978
0.0103528
0.0102072
0.0100329
0.00988987
0.0124819
0.012819
0.0126001
0.0125424
0.0125016
0.0124549
0.0124078
0.0123572
0.012303
0.0122458
0.0121859
0.0121235
0.0120589
0.0119921
0.0119231
0.0118518
0.0117781
0.0117016
0.011622
0.0115391
0.0114524
0.0113615
0.011266
0.0111655
0.0110596
0.0109477
0.0108298
0.010705
0.0105738
0.0104344
0.0102898
0.0101333
0.00997941
0.00979594
0.00965297
0.0124419
0.0127763
0.01257
0.0125201
0.0124845
0.0124411
0.0123955
0.0123449
0.0122896
0.0122305
0.0121679
0.0121022
0.0120337
0.0119624
0.0118885
0.0118116
0.0117319
0.0116488
0.0115623
0.0114718
0.0113773
0.0112781
0.0111742
0.0110649
0.0109502
0.0108294
0.0107026
0.010569
0.0104293
0.0102816
0.0101291
0.00996424
0.00980289
0.00960926
0.00945725
0.0124048
0.0127302
0.0125396
0.0124983
0.0124683
0.0124282
0.0123839
0.0123333
0.0122768
0.0122154
0.0121499
0.0120806
0.012008
0.0119321
0.011853
0.0117705
0.0116845
0.0115948
0.0115012
0.0114032
0.0113006
0.0111931
0.0110805
0.0109622
0.0108383
0.0107082
0.0105722
0.0104295
0.010281
0.0101246
0.00996434
0.00979182
0.00962534
0.00942528
0.0092757
0.0123557
0.0126806
0.0125079
0.0124767
0.0124533
0.0124172
0.0123746
0.012324
0.0122664
0.0122031
0.0121349
0.0120624
0.011986
0.0119059
0.0118222
0.0117347
0.0116433
0.0115477
0.0114478
0.0113432
0.0112338
0.0111191
0.0109991
0.0108733
0.0107418
0.0106042
0.0104608
0.0103108
0.0101554
0.00999242
0.00982623
0.00964764
0.00947677
0.00926973
0.0091199
0.012305
0.0126276
0.0124757
0.0124561
0.01244
0.0124081
0.0123671
0.0123165
0.0122576
0.0121922
0.0121213
0.0120455
0.0119654
0.0118812
0.0117929
0.0117005
0.0116039
0.0115027
0.0113969
0.011286
0.01117
0.0110485
0.0109215
0.0107887
0.0106501
0.0105054
0.0103551
0.0101983
0.0100365
0.00986747
0.00969597
0.00951223
0.0093383
0.00912649
0.00897951
0.012246
0.0125715
0.012444
0.0124374
0.0124292
0.0124015
0.0123621
0.0123113
0.0122513
0.0121838
0.0121103
0.0120315
0.011948
0.01186
0.0117677
0.0116709
0.0115695
0.0114634
0.0113523
0.0112359
0.0111141
0.0109867
0.0108537
0.0107147
0.0105701
0.0104194
0.0102632
0.0101009
0.00993395
0.00976
0.00958424
0.00939633
0.00921947
0.00900334
0.00885552
0.0121794
0.0125139
0.0124133
0.0124211
0.0124215
0.0123979
0.01236
0.012309
0.0122476
0.0121782
0.0121022
0.0120205
0.0119338
0.0118424
0.0117465
0.0116458
0.0115404
0.0114299
0.0113143
0.0111932
0.0110666
0.0109342
0.0107961
0.010652
0.0105022
0.0103466
0.0101856
0.0100187
0.00984745
0.00966958
0.00949052
0.0092995
0.00912085
0.00890214
0.0087557
0.0121149
0.0124617
0.012388
0.0124094
0.0124174
0.0123972
0.0123601
0.0123087
0.012246
0.0121747
0.0120965
0.0120124
0.0119231
0.0118288
0.0117299
0.011626
0.0115173
0.0114033
0.0112841
0.0111591
0.0110286
0.0108921
0.0107499
0.0106017
0.0104479
0.0102883
0.0101235
0.00995303
0.00977852
0.0095977
0.00941613
0.0092228
0.00904257
0.00882169
0.0086748
0.0120347
0.012407
0.0123625
0.0123996
0.012416
0.0123991
0.0123629
0.0123108
0.0122467
0.0121735
0.0120931
0.0120066
0.0119148
0.0118179
0.0117162
0.0116096
0.0114979
0.0113808
0.0112583
0.0111301
0.0109962
0.0108562
0.0107105
0.0105589
0.0104016
0.0102387
0.0100707
0.00989733
0.00972018
0.00953701
0.00935353
0.00915854
0.00897744
0.00875545
0.00860973
0.0119563
0.012358
0.0123421
0.0123942
0.0124178
0.0124031
0.0123671
0.0123141
0.0122485
0.0121735
0.0120911
0.0120025
0.0119084
0.0118093
0.0117053
0.0115962
0.0114821
0.0113625
0.0112374
0.0111064
0.0109696
0.0108268
0.0106782
0.0105237
0.0103636
0.0101978
0.0100273
0.00985146
0.00967216
0.00948713
0.00930214
0.00910592
0.0089239
0.00870107
0.00855444
0.0118569
0.012309
0.0123227
0.0123918
0.0124232
0.0124104
0.0123743
0.01232
0.0122526
0.0121757
0.0120912
0.0120006
0.0119044
0.0118032
0.0116971
0.0115859
0.0114696
0.0113478
0.0112203
0.011087
0.0109479
0.0108026
0.0106516
0.0104946
0.0103322
0.0101642
0.00999154
0.00981384
0.00963289
0.00944652
0.00926049
0.00906359
0.00888122
0.00865842
0.00851224
0.0117577
0.0122677
0.012308
0.0123929
0.0124303
0.0124184
0.0123817
0.0123261
0.012257
0.0121784
0.0120921
0.0119996
0.0119016
0.0117986
0.0116907
0.0115779
0.0114598
0.0113363
0.011207
0.0110719
0.0109308
0.0107837
0.0106307
0.0104718
0.0103075
0.0101377
0.00996329
0.00978404
0.00960175
0.00941433
0.00922753
0.00903024
0.00884747
0.00862482
0.00847745
0.0116383
0.0122321
0.0122972
0.0123996
0.0124426
0.0124305
0.0123925
0.0123349
0.0122637
0.0121831
0.012095
0.0120008
0.0119011
0.0117965
0.0116871
0.0115727
0.0114531
0.011328
0.0111971
0.0110604
0.0109176
0.0107688
0.0106142
0.0104537
0.0102878
0.0101166
0.00994104
0.00976072
0.00957757
0.00938957
0.00920243
0.00900526
0.00882268
0.00860101
0.00845435
0.0115113
0.0122049
0.0122879
0.0124066
0.0124537
0.0124411
0.0124019
0.0123426
0.0122699
0.0121876
0.0120979
0.012002
0.0119008
0.0117947
0.011684
0.0115685
0.0114478
0.0113216
0.0111896
0.0110517
0.0109079
0.010758
0.0106023
0.0104408
0.0102739
0.0101018
0.0099252
0.00974402
0.00956012
0.00937168
0.00918429
0.0089874
0.00880482
0.00858402
0.00843656
0.011374
0.0121912
0.012288
0.0124233
0.0124722
0.0124571
0.0124153
0.0123533
0.0122782
0.012194
0.0121028
0.0120056
0.0119031
0.0117958
0.0116839
0.0115673
0.0114455
0.0113181
0.0111851
0.0110461
0.0109013
0.0107504
0.0105938
0.0104315
0.0102639
0.0100912
0.0099141
0.00973252
0.00954829
0.00935975
0.00917239
0.00897625
0.00879423
0.00857593
0.00842983
0.0112182
0.012184
0.0122826
0.0124345
0.012485
0.0124683
0.0124251
0.0123615
0.0122852
0.0121996
0.0121068
0.012008
0.011904
0.0117953
0.0116824
0.011565
0.0114427
0.0113148
0.0111814
0.0110422
0.0108973
0.0107466
0.0105901
0.0104277
0.01026
0.0100869
0.00990921
0.00972696
0.00954199
0.00935304
0.00916536
0.00896992
0.00878748
0.00857137
0.00842041
0.0110681
0.0121996
0.0122938
0.012459
0.0125071
0.0124864
0.0124397
0.012373
0.0122942
0.0122068
0.0121128
0.0120131
0.0119082
0.0117986
0.0116847
0.0115666
0.0114438
0.0113158
0.0111824
0.0110433
0.0108984
0.0107473
0.0105902
0.0104272
0.0102586
0.0100848
0.00990648
0.00972374
0.00953837
0.00934928
0.00916169
0.00896742
0.00878609
0.00857613
0.00842183
0.0109083
0.012205
0.0122905
0.0124718
0.0125187
0.0124964
0.0124488
0.0123816
0.0123025
0.0122144
0.0121191
0.0120176
0.011911
0.0118
0.0116853
0.0115672
0.011445
0.0113178
0.011185
0.0110463
0.0109017
0.0107508
0.0105935
0.0104299
0.0102606
0.010086
0.00990678
0.00972321
0.00953693
0.00934752
0.0091596
0.00896681
0.00878463
0.00858061
0.00841159
0.0108288
0.012232
0.0123052
0.0124965
0.0125407
0.0125158
0.0124655
0.0123956
0.0123143
0.0122248
0.012129
0.0120278
0.0119219
0.0118116
0.0116973
0.0115791
0.0114565
0.0113281
0.0111934
0.0110521
0.0109044
0.0107503
0.0105904
0.0104251
0.0102548
0.0100801
0.00990139
0.00971873
0.00953355
0.00934502
0.00915834
0.00896682
0.00879033
0.00859134
0.00846531
0.0125429
0.0128948
0.0126554
0.0125863
0.0125374
0.0124854
0.0124362
0.0123861
0.0123342
0.0122814
0.0122272
0.0121721
0.012116
0.012059
0.012001
0.011942
0.0118816
0.0118198
0.011756
0.01169
0.0116214
0.0115495
0.0114741
0.0113943
0.0113099
0.0112198
0.011124
0.0110214
0.010912
0.0107946
0.0106703
0.0105361
0.0103991
0.0102461
0.0101105
0.0125137
0.0128568
0.0126286
0.0125649
0.0125199
0.0124705
0.0124225
0.0123722
0.0123194
0.0122646
0.0122079
0.0121495
0.0120894
0.0120279
0.0119648
0.0119001
0.0118335
0.0117647
0.0116937
0.0116198
0.0115428
0.0114622
0.0113776
0.0112884
0.0111943
0.0110945
0.010989
0.0108767
0.010758
0.010631
0.0104979
0.0103529
0.0102073
0.0100331
0.00989017
0.0124809
0.0128177
0.0126
0.0125425
0.0125017
0.0124548
0.0124078
0.0123572
0.012303
0.0122458
0.0121858
0.0121235
0.0120589
0.0119921
0.0119231
0.0118518
0.0117781
0.0117016
0.0116221
0.0115391
0.0114524
0.0113615
0.0112661
0.0111655
0.0110596
0.0109478
0.0108299
0.0107051
0.0105739
0.0104345
0.01029
0.0101334
0.00997957
0.00979617
0.00965321
0.012441
0.0127749
0.0125699
0.0125201
0.0124846
0.0124411
0.0123955
0.0123449
0.0122896
0.0122305
0.0121679
0.0121022
0.0120337
0.0119624
0.0118885
0.0118116
0.0117319
0.0116488
0.0115623
0.0114719
0.0113773
0.0112782
0.0111743
0.0110649
0.0109502
0.0108294
0.0107027
0.0105691
0.0104294
0.0102817
0.0101293
0.00996441
0.00980306
0.00960949
0.00945749
0.0124037
0.0127289
0.0125396
0.0124983
0.0124683
0.0124282
0.0123839
0.0123333
0.0122767
0.0122154
0.0121499
0.0120806
0.012008
0.0119321
0.011853
0.0117705
0.0116845
0.0115948
0.0115012
0.0114032
0.0113007
0.0111931
0.0110805
0.0109622
0.0108384
0.0107083
0.0105723
0.0104296
0.0102811
0.0101247
0.00996446
0.00979198
0.00962549
0.0094255
0.00927593
0.0123546
0.0126793
0.0125078
0.0124767
0.0124533
0.0124172
0.0123746
0.012324
0.0122663
0.012203
0.0121349
0.0120624
0.011986
0.0119059
0.0118222
0.0117347
0.0116433
0.0115477
0.0114479
0.0113432
0.0112338
0.0111191
0.0109991
0.0108733
0.0107419
0.0106043
0.0104609
0.0103109
0.0101555
0.00999254
0.00982635
0.00964779
0.00947691
0.00926994
0.00912011
0.0123039
0.0126263
0.0124757
0.0124562
0.0124401
0.012408
0.0123671
0.0123165
0.0122576
0.0121922
0.0121213
0.0120455
0.0119654
0.0118812
0.0117929
0.0117005
0.0116039
0.0115027
0.0113969
0.011286
0.01117
0.0110485
0.0109216
0.0107887
0.0106502
0.0105055
0.0103551
0.0101984
0.0100366
0.00986757
0.00969608
0.00951236
0.00933842
0.00912667
0.00897969
0.0122448
0.0125702
0.012444
0.0124374
0.0124293
0.0124015
0.0123621
0.0123113
0.0122512
0.0121838
0.0121103
0.0120315
0.011948
0.01186
0.0117677
0.0116709
0.0115695
0.0114634
0.0113523
0.0112359
0.0111142
0.0109868
0.0108537
0.0107148
0.0105701
0.0104195
0.0102633
0.010101
0.00993403
0.00976009
0.00958434
0.00939645
0.00921957
0.00900351
0.00885567
0.0121783
0.0125127
0.0124133
0.0124211
0.0124215
0.0123979
0.01236
0.012309
0.0122476
0.0121782
0.0121022
0.0120205
0.0119338
0.0118424
0.0117465
0.0116458
0.0115404
0.0114299
0.0113143
0.0111932
0.0110666
0.0109342
0.0107961
0.010652
0.0105023
0.0103466
0.0101856
0.0100188
0.00984752
0.00966967
0.0094906
0.00929961
0.00912094
0.00890229
0.00875583
0.0121137
0.0124605
0.0123879
0.0124095
0.0124174
0.0123972
0.0123601
0.0123087
0.012246
0.0121747
0.0120965
0.0120124
0.0119231
0.0118288
0.0117299
0.0116261
0.0115173
0.0114033
0.0112841
0.0111591
0.0110286
0.0108921
0.0107499
0.0106018
0.010448
0.0102883
0.0101235
0.0099531
0.00977859
0.00959778
0.00941621
0.00922289
0.00904265
0.00882182
0.00867491
0.0120336
0.012406
0.0123624
0.0123996
0.012416
0.0123991
0.0123629
0.0123108
0.0122467
0.0121735
0.0120931
0.0120066
0.0119148
0.0118179
0.0117162
0.0116096
0.0114979
0.0113808
0.0112583
0.0111301
0.0109962
0.0108563
0.0107106
0.0105589
0.0104017
0.0102387
0.0100708
0.0098974
0.00972024
0.00953708
0.0093536
0.00915863
0.00897751
0.00875557
0.00860983
0.0119551
0.0123569
0.012342
0.0123942
0.0124179
0.0124031
0.0123671
0.0123141
0.0122485
0.0121735
0.0120911
0.0120025
0.0119084
0.0118093
0.0117053
0.0115963
0.0114821
0.0113625
0.0112374
0.0111064
0.0109697
0.0108269
0.0106783
0.0105237
0.0103636
0.0101979
0.0100273
0.00985153
0.00967222
0.0094872
0.0093022
0.009106
0.00892396
0.00870118
0.00855452
0.0118558
0.012308
0.0123227
0.0123918
0.0124232
0.0124104
0.0123743
0.01232
0.0122526
0.0121757
0.0120912
0.0120006
0.0119044
0.0118032
0.0116971
0.0115859
0.0114696
0.0113478
0.0112204
0.0110871
0.0109479
0.0108027
0.0106516
0.0104946
0.0103322
0.0101642
0.0099916
0.00981391
0.00963295
0.00944658
0.00926055
0.00906365
0.00888127
0.00865851
0.00851231
0.0117565
0.0122668
0.0123079
0.0123929
0.0124303
0.0124183
0.0123816
0.0123261
0.012257
0.0121784
0.0120921
0.0119996
0.0119016
0.0117986
0.0116907
0.0115779
0.0114598
0.0113363
0.0112071
0.0110719
0.0109309
0.0107838
0.0106308
0.0104719
0.0103075
0.0101377
0.00996335
0.0097841
0.0096018
0.00941439
0.00922758
0.0090303
0.00884751
0.00862489
0.0084775
0.0116372
0.0122313
0.0122972
0.0123996
0.0124426
0.0124305
0.0123925
0.0123349
0.0122637
0.0121831
0.012095
0.0120008
0.0119011
0.0117965
0.0116871
0.0115727
0.0114531
0.011328
0.0111972
0.0110604
0.0109177
0.0107689
0.0106142
0.0104537
0.0102879
0.0101167
0.00994108
0.00976077
0.00957761
0.00938962
0.00920246
0.0090053
0.0088227
0.00860107
0.00845439
0.0115103
0.0122042
0.0122879
0.0124066
0.0124537
0.012441
0.0124018
0.0123426
0.0122699
0.0121876
0.0120979
0.012002
0.0119008
0.0117947
0.011684
0.0115686
0.0114479
0.0113217
0.0111897
0.0110518
0.010908
0.0107581
0.0106024
0.0104408
0.010274
0.0101018
0.00992522
0.00974404
0.00956014
0.0093717
0.0091843
0.00898742
0.00880483
0.00858406
0.00843658
0.011373
0.0121906
0.012288
0.0124233
0.0124722
0.0124571
0.0124153
0.0123533
0.0122782
0.012194
0.0121028
0.0120056
0.0119031
0.0117958
0.011684
0.0115674
0.0114456
0.0113182
0.0111852
0.0110462
0.0109013
0.0107505
0.0105939
0.0104315
0.0102639
0.0100912
0.00991409
0.00973251
0.00954828
0.00935974
0.00917239
0.00897625
0.00879422
0.00857596
0.00842985
0.0112174
0.0121835
0.0122826
0.0124345
0.012485
0.0124683
0.012425
0.0123615
0.0122852
0.0121996
0.0121069
0.0120081
0.0119041
0.0117954
0.0116825
0.0115651
0.0114428
0.0113149
0.0111815
0.0110423
0.0108973
0.0107466
0.01059
0.0104277
0.0102599
0.0100868
0.00990915
0.00972692
0.00954194
0.00935301
0.00916533
0.00896991
0.00878746
0.00857139
0.00842041
0.0110672
0.0121993
0.0122937
0.012459
0.012507
0.0124864
0.0124396
0.012373
0.0122942
0.0122069
0.012113
0.0120132
0.0119084
0.0117988
0.0116849
0.0115667
0.0114439
0.0113158
0.0111824
0.0110433
0.0108983
0.0107472
0.0105901
0.010427
0.0102585
0.0100847
0.00990639
0.00972368
0.00953832
0.00934925
0.00916166
0.00896741
0.00878608
0.00857614
0.00842179
0.0109073
0.012205
0.0122906
0.0124719
0.0125188
0.0124965
0.012449
0.0123819
0.0123028
0.0122147
0.0121195
0.0120179
0.0119113
0.0118002
0.0116854
0.0115671
0.0114449
0.0113176
0.0111848
0.0110461
0.0109015
0.0107506
0.0105933
0.0104298
0.0102605
0.0100859
0.00990672
0.00972318
0.00953691
0.00934751
0.0091596
0.00896682
0.00878465
0.00858061
0.00841151
0.01083
0.0122325
0.0123054
0.0124966
0.0125408
0.0125159
0.0124655
0.0123956
0.0123143
0.0122248
0.0121289
0.0120276
0.0119217
0.0118113
0.0116971
0.0115789
0.0114563
0.0113279
0.0111933
0.011052
0.0109044
0.0107503
0.0105904
0.0104251
0.0102548
0.0100801
0.00990139
0.00971873
0.00953354
0.00934501
0.00915833
0.00896681
0.00879031
0.00859135
0.00846538
0.0125454
0.0128922
0.0126552
0.0125864
0.0125375
0.0124854
0.0124362
0.0123861
0.0123342
0.0122814
0.0122272
0.0121721
0.012116
0.012059
0.012001
0.011942
0.0118816
0.0118198
0.011756
0.01169
0.0116214
0.0115495
0.0114741
0.0113943
0.0113099
0.0112198
0.011124
0.0110214
0.010912
0.0107946
0.0106703
0.0105361
0.0103992
0.0102462
0.0101106
0.0125162
0.0128543
0.0126284
0.012565
0.01252
0.0124705
0.0124225
0.0123722
0.0123194
0.0122646
0.0122079
0.0121495
0.0120894
0.0120279
0.0119648
0.0119001
0.0118335
0.0117647
0.0116937
0.0116198
0.0115428
0.0114622
0.0113776
0.0112884
0.0111943
0.0110946
0.0109891
0.0108768
0.010758
0.0106311
0.010498
0.010353
0.0102074
0.0100332
0.00989025
0.0124834
0.0128152
0.0125998
0.0125425
0.0125017
0.0124549
0.0124078
0.0123572
0.0123029
0.0122458
0.0121858
0.0121235
0.0120589
0.0119921
0.0119231
0.0118518
0.0117781
0.0117016
0.0116221
0.0115391
0.0114524
0.0113615
0.0112661
0.0111655
0.0110597
0.0109478
0.0108299
0.0107051
0.0105739
0.0104346
0.01029
0.0101335
0.00997959
0.00979622
0.00965328
0.0124435
0.0127725
0.0125698
0.0125202
0.0124846
0.0124411
0.0123955
0.0123449
0.0122896
0.0122305
0.0121679
0.0121022
0.0120337
0.0119624
0.0118885
0.0118116
0.0117319
0.0116488
0.0115623
0.0114719
0.0113774
0.0112782
0.0111743
0.011065
0.0109503
0.0108294
0.0107027
0.0105691
0.0104295
0.0102817
0.0101293
0.00996447
0.00980311
0.00960956
0.00945756
0.0124061
0.0127266
0.0125394
0.0124984
0.0124683
0.0124282
0.0123839
0.0123333
0.0122767
0.0122154
0.0121499
0.0120806
0.012008
0.0119321
0.0118529
0.0117705
0.0116845
0.0115948
0.0115012
0.0114032
0.0113007
0.0111931
0.0110805
0.0109622
0.0108384
0.0107083
0.0105723
0.0104296
0.0102811
0.0101247
0.0099645
0.00979203
0.00962553
0.00942557
0.00927604
0.012357
0.012677
0.0125076
0.0124768
0.0124534
0.0124172
0.0123746
0.0123239
0.0122663
0.012203
0.0121349
0.0120624
0.011986
0.0119059
0.0118222
0.0117347
0.0116433
0.0115477
0.0114479
0.0113432
0.0112338
0.0111191
0.0109991
0.0108733
0.0107419
0.0106043
0.0104609
0.010311
0.0101556
0.00999259
0.0098264
0.00964785
0.00947696
0.00927003
0.00912022
0.0123062
0.0126241
0.0124755
0.0124562
0.0124401
0.0124081
0.0123671
0.0123164
0.0122576
0.0121922
0.0121213
0.0120455
0.0119654
0.0118812
0.0117929
0.0117005
0.0116039
0.0115027
0.0113969
0.011286
0.01117
0.0110486
0.0109216
0.0107887
0.0106502
0.0105055
0.0103552
0.0101985
0.0100367
0.00986763
0.00969613
0.00951243
0.00933847
0.00912677
0.00897982
0.0122471
0.0125681
0.0124438
0.0124375
0.0124293
0.0124015
0.0123621
0.0123113
0.0122512
0.0121838
0.0121103
0.0120315
0.011948
0.01186
0.0117677
0.0116709
0.0115695
0.0114634
0.0113523
0.0112359
0.0111142
0.0109868
0.0108538
0.0107148
0.0105702
0.0104195
0.0102634
0.0101011
0.00993408
0.00976016
0.00958439
0.00939652
0.00921963
0.00900361
0.0088558
0.0121805
0.0125107
0.0124131
0.0124212
0.0124215
0.0123979
0.01236
0.012309
0.0122476
0.0121782
0.0121022
0.0120205
0.0119338
0.0118424
0.0117465
0.0116458
0.0115404
0.0114299
0.0113143
0.0111932
0.0110666
0.0109342
0.0107961
0.010652
0.0105023
0.0103467
0.0101857
0.0100188
0.00984757
0.00966974
0.00949066
0.00929968
0.009121
0.0089024
0.00875597
0.0121158
0.0124586
0.0123877
0.0124095
0.0124175
0.0123972
0.0123601
0.0123087
0.012246
0.0121747
0.0120965
0.0120124
0.011923
0.0118288
0.0117299
0.0116261
0.0115173
0.0114034
0.0112841
0.0111592
0.0110286
0.0108922
0.01075
0.0106018
0.010448
0.0102884
0.0101236
0.00995316
0.00977865
0.00959785
0.00941627
0.00922297
0.00904271
0.00882192
0.00867504
0.0120356
0.0124041
0.0123623
0.0123996
0.0124161
0.0123991
0.0123629
0.0123108
0.0122466
0.0121735
0.0120931
0.0120066
0.0119147
0.0118179
0.0117162
0.0116096
0.0114979
0.0113808
0.0112584
0.0111301
0.0109962
0.0108563
0.0107106
0.010559
0.0104017
0.0102388
0.0100708
0.00989746
0.0097203
0.00953715
0.00935365
0.0091587
0.00897756
0.00875567
0.00860997
0.011957
0.0123552
0.0123419
0.0123942
0.0124179
0.0124031
0.0123671
0.0123141
0.0122484
0.0121735
0.0120911
0.0120025
0.0119084
0.0118093
0.0117053
0.0115963
0.0114821
0.0113625
0.0112374
0.0111064
0.0109697
0.0108269
0.0106783
0.0105238
0.0103637
0.010198
0.0100274
0.0098516
0.00967228
0.00948727
0.00930226
0.00910607
0.00892401
0.00870128
0.00855464
0.0118577
0.0123064
0.0123226
0.0123918
0.0124232
0.0124104
0.0123742
0.01232
0.0122526
0.0121756
0.0120912
0.0120006
0.0119044
0.0118032
0.0116971
0.011586
0.0114696
0.0113478
0.0112204
0.0110871
0.010948
0.0108027
0.0106517
0.0104947
0.0103323
0.0101643
0.00999166
0.00981398
0.00963301
0.00944665
0.0092606
0.00906372
0.00888131
0.0086586
0.00851243
0.0117582
0.0122653
0.0123078
0.0123929
0.0124303
0.0124183
0.0123816
0.012326
0.012257
0.0121783
0.0120921
0.0119996
0.0119016
0.0117986
0.0116907
0.0115779
0.0114599
0.0113363
0.0112071
0.011072
0.0109309
0.0107838
0.0106309
0.0104719
0.0103076
0.0101378
0.00996341
0.00978417
0.00960186
0.00941445
0.00922763
0.00903036
0.00884754
0.00862498
0.0084776
0.0116388
0.01223
0.0122971
0.0123996
0.0124426
0.0124305
0.0123925
0.0123348
0.0122637
0.0121831
0.012095
0.0120008
0.0119012
0.0117965
0.0116871
0.0115728
0.0114532
0.0113281
0.0111973
0.0110605
0.0109178
0.010769
0.0106143
0.0104538
0.010288
0.0101168
0.00994115
0.00976084
0.00957766
0.00938967
0.0092025
0.00900534
0.00882272
0.00860114
0.00845448
0.0115117
0.012203
0.0122878
0.0124066
0.0124537
0.012441
0.0124018
0.0123426
0.0122698
0.0121876
0.0120979
0.012002
0.0119008
0.0117948
0.0116841
0.0115686
0.011448
0.0113218
0.0111898
0.0110519
0.0109081
0.0107582
0.0106025
0.0104409
0.010274
0.0101019
0.00992527
0.00974408
0.00956016
0.00937173
0.0091843
0.00898744
0.00880482
0.00858412
0.00843664
0.0113742
0.0121896
0.0122879
0.0124233
0.0124722
0.0124571
0.0124152
0.0123532
0.0122782
0.012194
0.0121028
0.0120056
0.0119032
0.0117959
0.0116841
0.0115675
0.0114457
0.0113184
0.0111853
0.0110463
0.0109014
0.0107506
0.0105939
0.0104315
0.0102639
0.0100912
0.00991407
0.00973249
0.00954825
0.00935972
0.00917235
0.00897624
0.00879419
0.008576
0.00842992
0.0112186
0.0121826
0.0122825
0.0124344
0.0124849
0.0124682
0.0124249
0.0123614
0.0122851
0.0121996
0.0121069
0.0120082
0.0119042
0.0117956
0.0116827
0.0115653
0.011443
0.0113151
0.0111816
0.0110423
0.0108974
0.0107466
0.01059
0.0104276
0.0102598
0.0100867
0.00990904
0.00972682
0.00954185
0.00935294
0.00916526
0.00896987
0.00878741
0.00857141
0.00842044
0.0110681
0.0121988
0.0122937
0.0124589
0.012507
0.0124863
0.0124396
0.012373
0.0122943
0.012207
0.0121132
0.0120135
0.0119087
0.0117991
0.0116852
0.011567
0.0114441
0.011316
0.0111824
0.0110432
0.0108981
0.0107469
0.0105898
0.0104268
0.0102583
0.0100845
0.00990621
0.00972353
0.0095382
0.00934916
0.00916159
0.00896737
0.00878603
0.00857614
0.00842176
0.0109079
0.0122047
0.0122907
0.012472
0.0125188
0.0124965
0.0124492
0.0123822
0.0123034
0.0122154
0.0121202
0.0120186
0.0119119
0.0118007
0.0116857
0.0115672
0.0114448
0.0113173
0.0111844
0.0110456
0.010901
0.0107501
0.0105929
0.0104294
0.0102602
0.0100857
0.00990656
0.00972306
0.00953683
0.00934745
0.00915956
0.0089668
0.00878463
0.00858053
0.00841087
0.010831
0.0122328
0.0123056
0.0124966
0.0125409
0.012516
0.0124656
0.0123957
0.0123144
0.0122247
0.0121288
0.0120275
0.0119215
0.0118111
0.0116968
0.0115786
0.011456
0.0113276
0.0111931
0.0110519
0.0109043
0.0107503
0.0105904
0.0104251
0.0102548
0.0100801
0.00990137
0.00971871
0.00953352
0.00934499
0.0091583
0.0089668
0.00879028
0.00859141
0.00846576
0.0125489
0.0128887
0.012655
0.0125864
0.0125375
0.0124855
0.0124362
0.0123861
0.0123342
0.0122814
0.0122272
0.0121721
0.012116
0.012059
0.012001
0.011942
0.0118816
0.0118197
0.011756
0.01169
0.0116214
0.0115495
0.0114741
0.0113943
0.0113099
0.0112198
0.011124
0.0110214
0.010912
0.0107946
0.0106703
0.0105362
0.0103992
0.0102462
0.0101109
0.0125195
0.0128509
0.0126282
0.0125651
0.01252
0.0124705
0.0124225
0.0123722
0.0123194
0.0122646
0.0122079
0.0121494
0.0120894
0.0120279
0.0119648
0.0119
0.0118335
0.0117647
0.0116937
0.0116198
0.0115428
0.0114622
0.0113776
0.0112884
0.0111944
0.0110946
0.0109891
0.0108768
0.0107581
0.0106311
0.010498
0.0103531
0.0102075
0.0100333
0.00989045
0.0124867
0.0128118
0.0125996
0.0125426
0.0125018
0.0124549
0.0124078
0.0123572
0.0123029
0.0122457
0.0121858
0.0121235
0.0120589
0.0119921
0.0119231
0.0118518
0.0117781
0.0117016
0.011622
0.0115391
0.0114524
0.0113615
0.0112661
0.0111655
0.0110597
0.0109478
0.0108299
0.0107051
0.0105739
0.0104346
0.01029
0.0101335
0.00997964
0.00979631
0.00965343
0.0124467
0.0127691
0.0125696
0.0125202
0.0124847
0.0124411
0.0123955
0.0123449
0.0122896
0.0122305
0.0121679
0.0121022
0.0120336
0.0119624
0.0118884
0.0118116
0.0117319
0.0116488
0.0115623
0.0114719
0.0113774
0.0112782
0.0111743
0.011065
0.0109503
0.0108295
0.0107027
0.0105692
0.0104295
0.0102818
0.0101294
0.00996455
0.00980318
0.00960968
0.00945774
0.0124093
0.0127234
0.0125392
0.0124984
0.0124684
0.0124282
0.0123839
0.0123333
0.0122767
0.0122154
0.0121499
0.0120806
0.012008
0.011932
0.0118529
0.0117704
0.0116845
0.0115948
0.0115012
0.0114032
0.0113007
0.0111931
0.0110805
0.0109623
0.0108384
0.0107084
0.0105724
0.0104297
0.0102811
0.0101248
0.00996455
0.00979211
0.0096256
0.00942569
0.00927625
0.0123601
0.0126739
0.0125074
0.0124768
0.0124534
0.0124172
0.0123746
0.0123239
0.0122663
0.012203
0.0121349
0.0120624
0.011986
0.0119059
0.0118222
0.0117347
0.0116433
0.0115477
0.0114479
0.0113433
0.0112338
0.0111191
0.0109991
0.0108734
0.0107419
0.0106044
0.010461
0.010311
0.0101556
0.00999267
0.00982646
0.00964795
0.00947704
0.00927017
0.00912046
0.0123092
0.0126211
0.0124753
0.0124562
0.0124401
0.0124081
0.0123671
0.0123164
0.0122576
0.0121922
0.0121213
0.0120455
0.0119654
0.0118812
0.0117929
0.0117005
0.0116039
0.0115027
0.0113969
0.011286
0.0111701
0.0110486
0.0109216
0.0107888
0.0106502
0.0105056
0.0103552
0.0101985
0.0100367
0.0098677
0.00969619
0.00951252
0.00933854
0.00912691
0.00898009
0.01225
0.0125652
0.0124436
0.0124375
0.0124293
0.0124015
0.012362
0.0123113
0.0122512
0.0121838
0.0121103
0.0120315
0.011948
0.01186
0.0117676
0.0116708
0.0115695
0.0114634
0.0113523
0.0112359
0.0111142
0.0109868
0.0108538
0.0107148
0.0105702
0.0104196
0.0102634
0.0101011
0.00993413
0.00976023
0.00958446
0.00939662
0.0092197
0.00900376
0.00885606
0.0121833
0.0125078
0.012413
0.0124212
0.0124216
0.0123979
0.01236
0.012309
0.0122476
0.0121782
0.0121022
0.0120205
0.0119338
0.0118424
0.0117464
0.0116458
0.0115404
0.0114299
0.0113143
0.0111932
0.0110666
0.0109342
0.0107961
0.0106521
0.0105024
0.0103467
0.0101857
0.0100189
0.00984763
0.00966982
0.00949073
0.00929978
0.00912107
0.00890254
0.00875626
0.0121184
0.0124559
0.0123876
0.0124095
0.0124175
0.0123972
0.0123601
0.0123087
0.012246
0.0121747
0.0120965
0.0120124
0.011923
0.0118288
0.0117299
0.011626
0.0115173
0.0114034
0.0112841
0.0111592
0.0110286
0.0108922
0.01075
0.0106018
0.010448
0.0102884
0.0101236
0.00995323
0.00977871
0.00959793
0.00941634
0.00922307
0.00904278
0.00882207
0.00867532
0.0120382
0.0124015
0.0123621
0.0123996
0.0124161
0.0123991
0.0123629
0.0123108
0.0122466
0.0121735
0.0120931
0.0120066
0.0119147
0.0118179
0.0117162
0.0116096
0.0114979
0.0113808
0.0112584
0.0111302
0.0109962
0.0108563
0.0107106
0.010559
0.0104018
0.0102388
0.0100709
0.00989754
0.00972037
0.00953724
0.00935372
0.0091588
0.00897763
0.00875581
0.00861026
0.0119594
0.0123528
0.0123417
0.0123942
0.0124179
0.0124031
0.0123671
0.0123141
0.0122484
0.0121735
0.0120911
0.0120025
0.0119084
0.0118093
0.0117053
0.0115963
0.0114821
0.0113625
0.0112374
0.0111065
0.0109697
0.010827
0.0106784
0.0105238
0.0103637
0.010198
0.0100275
0.00985168
0.00967235
0.00948735
0.00930232
0.00910616
0.00892407
0.00870141
0.00855491
0.01186
0.0123041
0.0123225
0.0123918
0.0124232
0.0124104
0.0123742
0.01232
0.0122525
0.0121756
0.0120912
0.0120006
0.0119044
0.0118032
0.0116971
0.011586
0.0114696
0.0113478
0.0112204
0.0110871
0.010948
0.0108028
0.0106517
0.0104948
0.0103323
0.0101644
0.00999174
0.00981406
0.00963309
0.00944674
0.00926067
0.00906381
0.00888136
0.00865873
0.00851269
0.0117603
0.0122632
0.0123077
0.0123929
0.0124303
0.0124183
0.0123816
0.012326
0.012257
0.0121783
0.0120921
0.0119996
0.0119016
0.0117986
0.0116908
0.0115779
0.0114599
0.0113363
0.0112071
0.011072
0.010931
0.0107839
0.0106309
0.010472
0.0103077
0.0101379
0.0099635
0.00978426
0.00960193
0.00941453
0.00922768
0.00903043
0.00884758
0.00862509
0.00847782
0.0116408
0.012228
0.012297
0.0123996
0.0124426
0.0124305
0.0123924
0.0123348
0.0122637
0.0121831
0.012095
0.0120008
0.0119012
0.0117966
0.0116872
0.0115728
0.0114532
0.0113281
0.0111973
0.0110606
0.0109179
0.0107691
0.0106144
0.0104539
0.0102881
0.0101169
0.00994123
0.00976092
0.00957772
0.00938973
0.00920254
0.0090054
0.00882273
0.00860123
0.00845469
0.0115135
0.0122013
0.0122877
0.0124065
0.0124536
0.0124409
0.0124017
0.0123425
0.0122698
0.0121876
0.0120979
0.012002
0.0119008
0.0117948
0.0116842
0.0115687
0.0114481
0.0113219
0.0111899
0.011052
0.0109082
0.0107583
0.0106026
0.010441
0.0102741
0.0101019
0.00992532
0.00974413
0.00956018
0.00937175
0.0091843
0.00898745
0.00880479
0.00858417
0.0084368
0.0113757
0.0121882
0.0122879
0.0124233
0.0124722
0.012457
0.0124152
0.0123532
0.0122781
0.012194
0.0121028
0.0120057
0.0119033
0.011796
0.0116842
0.0115677
0.0114459
0.0113186
0.0111855
0.0110465
0.0109016
0.0107507
0.010594
0.0104316
0.0102639
0.0100912
0.00991403
0.00973244
0.00954818
0.00935967
0.00917228
0.00897619
0.00879411
0.00857602
0.00843007
0.01122
0.0121813
0.0122825
0.0124344
0.0124849
0.0124681
0.0124248
0.0123613
0.0122851
0.0121997
0.012107
0.0120083
0.0119044
0.0117959
0.011683
0.0115656
0.0114433
0.0113154
0.0111818
0.0110425
0.0108974
0.0107465
0.0105899
0.0104275
0.0102596
0.0100865
0.00990884
0.00972664
0.00954168
0.0093528
0.00916513
0.00896978
0.00878729
0.00857139
0.0084205
0.0110694
0.0121981
0.0122938
0.0124589
0.0125069
0.0124862
0.0124394
0.0123729
0.0122943
0.0122072
0.0121135
0.012014
0.0119093
0.0117997
0.0116857
0.0115674
0.0114445
0.0113162
0.0111825
0.0110431
0.0108979
0.0107466
0.0105894
0.0104264
0.0102579
0.0100841
0.00990588
0.00972326
0.00953797
0.00934899
0.00916144
0.00896727
0.00878591
0.0085761
0.00842175
0.0109099
0.0122041
0.0122908
0.0124719
0.0125186
0.0124963
0.0124492
0.0123825
0.0123039
0.0122162
0.0121212
0.0120197
0.0119129
0.0118015
0.0116863
0.0115675
0.0114447
0.011317
0.0111838
0.0110449
0.0109002
0.0107493
0.0105922
0.0104288
0.0102597
0.0100853
0.00990624
0.00972281
0.00953664
0.0093473
0.00915944
0.00896669
0.00878452
0.00858032
0.00840961
0.0108309
0.0122334
0.0123059
0.0124967
0.012541
0.0125161