/*--------------------------------*- C++ -*----------------------------------*\
  =========                 |
  \\      /  F ield         | OpenFOAM: The Open Source CFD Toolbox
   \\    /   O peration     | Website:  https://openfoam.org
    \\  /    A nd           | Version:  6
     \\/     M anipulation  |
\*---------------------------------------------------------------------------*/
FoamFile
{
    version     2.0;
    format      ascii;
    class       volScalarField;
    location    "4";
    object      yPlus;
}
// * * * * * * * * * * * * * * * * * * * * * * * * * * * * * * * * * * * * * //

dimensions      [0 0 0 0 0 0 0];

internalField   uniform 0;

boundaryField
{
    inlet
    {
        type            calculated;
        value           uniform 0;
    }
    outlet
    {
        type            calculated;
        value           uniform 0;
    }
    roughCylinder
    {
        type            calculated;
        value           nonuniform List<scalar> 
3840
(
8.51393
28.8725
39.8194
42.6944
45.209
45.2834
45.8452
45.718
46.2127
45.8562
45.9083
45.9785
45.8998
45.3216
43.951
44.6142
43.8131
43.5135
42.0835
40.7477
42.5757
41.541
41.1878
39.7389
4.29322
28.2412
39.3001
42.3199
44.8723
45.1669
45.8613
45.8384
46.3096
45.9184
45.8746
46.0739
45.9531
45.3177
44.1981
44.9618
44.0543
43.8756
42.5289
41.4891
42.8263
42.1159
41.3169
41.4851
9.24865
27.8478
38.9809
42.2229
44.871
45.2308
45.9323
45.981
46.4384
45.9896
46.0101
46.1563
46.0728
45.3603
44.5306
45.3441
44.3526
44.3037
42.8707
42.2996
43.3343
42.423
42.2416
40.8348
9.95628
27.1596
38.4656
41.9196
44.5502
45.0951
45.9606
46.0826
46.5406
46.1989
46.1686
46.2159
46.2007
45.4502
44.9479
45.6826
44.6678
44.7484
43.375
43.1269
43.6575
43.0713
42.4426
42.5981
4.66818
26.5118
37.9896
41.6927
44.5011
45.206
46.0419
46.2573
46.7626
46.3732
46.3045
46.4499
46.3537
45.694
45.4204
46.031
45.0517
45.2332
43.7872
43.9697
44.2306
43.4686
43.4193
42.1168
15.3811
25.6408
37.3499
41.4097
44.2272
45.0503
46.0766
46.335
46.8092
46.5977
46.6517
46.5002
46.5601
45.9588
45.9185
46.3323
45.465
45.7168
44.3552
44.7724
44.6261
44.1772
43.6804
43.7613
2.55728
24.4924
36.614
40.9635
44.0169
45.1397
46.1147
46.4806
47.0851
46.8781
46.7241
46.8668
46.7957
46.3987
46.4219
46.6517
45.9293
46.221
44.8377
45.5655
45.2559
44.6326
44.6608
43.5191
5.70457
23.3686
35.6727
40.5592
43.7844
44.9627
46.1763
46.5783
47.0828
46.9943
47.2311
46.9548
47.0946
46.7818
46.897
46.948
46.4159
46.718
45.4661
46.2963
45.7113
45.3846
44.9738
44.9377
9.91566
21.4665
34.4931
39.7901
43.283
44.958
46.1181
46.6356
47.3496
47.405
47.2111
47.4165
47.4224
47.3114
47.3606
47.2835
46.9333
47.2288
46.0079
47.0189
46.3861
45.8687
45.9177
44.973
11.3424
20.3438
33.0449
38.994
42.9806
44.6708
46.1786
46.7781
47.3447
47.3276
47.8277
47.5486
47.7774
47.7056
47.7761
47.6269
47.4654
47.728
46.6783
47.6665
46.8697
46.634
46.258
46.0685
12.194
17.1109
31.0694
37.7005
41.9523
44.4621
45.9321
46.6608
47.4898
47.88
47.6984
48.023
48.1347
48.2142
48.1888
48.0128
48.0046
48.2278
47.2385
48.3077
47.5538
47.0976
47.1143
46.3839
11.4671
15.9851
28.8186
36.0231
41.3368
43.8122
45.8741
46.8083
47.5299
47.5326
48.347
48.1616
48.4732
48.5379
48.5476
48.4131
48.5414
48.7016
47.9096
48.8571
48.0127
47.8347
47.4388
47.0554
13.6309
10.4529
25.4251
33.8254
39.2513
43.2202
45.2769
46.4024
47.3885
48.2068
48.0735
48.5519
48.7783
48.9634
48.9139
48.8267
49.053
49.1585
48.4345
49.397
48.6537
48.2072
48.1361
47.6146
14.6048
14.1822
21.7652
30.1611
37.9162
41.6131
44.8305
46.4069
47.5104
47.499
48.657
48.6297
49.0307
49.1746
49.2122
49.2323
49.5334
49.5595
49.0476
49.8048
49.0061
48.8515
48.3929
47.7748
11.8756
13.5497
15.0114
26.3949
33.2009
40.2856
43.5087
45.5184
46.8388
48.2717
48.1989
48.8435
49.1999
49.4765
49.508
49.5912
49.9399
49.9151
49.4564
50.221
49.5624
49.0871
48.8899
48.566
13.6381
6.00013
11.4915
15.6472
30.5043
35.944
42.0516
44.9681
46.9847
47.0556
48.6469
48.8242
49.3339
49.5514
49.7152
49.9366
50.3256
50.2094
49.9806
50.4694
49.7595
49.613
49.013
48.0979
17.3691
5.74688
11.7178
12.6945
11.13
32.9865
38.7413
43.0875
45.269
47.8228
47.9318
48.8194
49.3326
49.7359
49.9338
50.1858
50.5784
50.4444
50.2335
50.7238
50.1763
49.5837
49.2006
49.0135
18.7369
13.421
3.19979
11.7181
3.72501
10.2795
34.4559
40.8349
45.1638
45.6006
48.0656
48.6
49.3092
49.6565
50.0138
50.3836
50.7841
50.5778
50.5714
50.7021
50.064
49.886
48.9717
47.4965
18.4484
6.65708
7.78802
12.3475
12.5401
7.65795
20.9062
36.1536
40.8312
46.157
46.7057
48.2095
49.0273
49.6663
50.0706
50.4166
50.7673
50.5661
50.5115
50.6687
50.2121
49.2349
48.4097
48.1762
16.0248
8.39441
12.1895
1.7186
12.895
6.4077
12.8665
27.3967
39.8557
41.1153
46.1346
47.4081
48.6593
49.2864
49.8754
50.3015
50.6406
50.3857
50.4585
50.0657
49.2802
48.9068
47.1112
44.0044
14.2525
11.3573
3.92382
13.0646
2.0022
13.4986
13.4898
16.1521
17.1388
40.7266
42.6176
46.1502
47.7074
48.8845
49.5393
49.8899
50.0206
49.6811
49.5245
49.2816
48.7275
46.4838
44.3337
43.7072
9.18414
2.94918
4.73927
9.99451
14.8869
10.236
4.3767
14.3609
15.9384
20.1093
40.3304
43.5744
46.4512
47.6871
48.5625
48.9246
49.0556
48.6814
48.4858
47.0628
45.2636
44.1927
38.5321
20.0496
6.21122
10.6174
10.8861
7.95637
9.9078
15.0187
13.344
14.6619
14.5931
10.0381
19.1491
39.875
43.6873
46.2691
47.2115
47.3483
46.6566
45.781
44.7286
43.9336
42.6554
33.0782
19.6793
14.0199
5.40128
11.0471
9.20736
11.9718
13.2462
17.0576
21.7059
25.9174
29.5109
11.923
17.3236
27.0736
39.8746
42.5754
43.7979
43.7107
43.172
42.1692
40.5911
34.2077
20.7208
14.3983
14.3779
27.659
6.64986
13.1788
18.9429
21.338
23.5405
25.9029
28.7244
32.4356
34.4117
32.6696
6.51136
1.96427
28.864
38.4982
39.532
37.6784
31.3036
23.5689
22.1232
14.5535
9.71678
21.8347
31.7047
37.3387
10.9581
19.6265
20.9603
20.1061
20.2162
21.9055
24.2846
28.3698
36.717
36.5241
26.3496
17.4534
10.8039
19.2937
19.4492
16.4095
20.2548
15.7651
18.3402
9.86192
18.4979
33.3759
38.0703
43.6507
15.6287
18.4102
15.8382
12.8826
15.7025
18.4518
19.3024
18.523
24.4767
34.9802
24.3975
14.2418
6.95137
12.6279
7.63886
15.9022
9.36175
20.2425
19.4379
29.0249
33.9983
38.2144
43.8834
49.2569
15.5927
17.1676
12.1014
11.6511
18.0999
21.815
23.6477
24.8969
25.397
26.9875
17.3946
10.7455
13.1096
19.6843
17.108
23.3729
30.7116
32.3611
33.6367
34.8989
38.7225
43.3155
48.2723
52.5531
17.5567
18.0882
11.5628
8.46527
15.8498
21.361
24.9998
27.0777
27.6984
27.1308
26.2736
23.1842
26.0928
27.7837
31.2493
33.9905
34.2688
35.6812
37.2629
39.5379
42.614
46.7448
50.7496
55.0725
17.8411
16.5465
9.61278
8.62125
17.1363
22.8124
26.2901
29.4462
31.6193
31.9739
31.7662
31.2914
31.5776
33.808
36.131
37.9389
39.19
39.1099
40.0819
42.1179
45.1838
48.6642
52.6435
57.3389
18.3817
18.0637
6.83012
7.49112
9.92161
18.4389
24.1595
28.0501
31.267
32.5858
33.2715
34.2933
36.0014
38.1046
40.162
41.1424
40.6661
40.1578
41.3996
43.5901
46.5131
50.0481
54.5577
59.8005
19.1767
18.1491
10.4522
5.71703
9.36157
14.4741
24.0182
27.0309
31.4862
33.1042
35.08
36.8213
39.4025
41.4489
42.8535
42.196
40.9817
40.3461
41.7866
44.5354
47.376
51.4895
56.7144
62.5727
19.6088
20.112
10.8613
1.82306
6.75518
13.2941
25.0071
27.5719
32.7521
34.5941
37.7333
39.7689
42.5908
43.5955
43.9927
42.9065
41.8523
40.8359
41.8734
44.972
48.458
53.2454
59.1475
65.653
20.4028
21.6053
10.2939
4.75145
7.90052
16.3553
26.5154
29.7394
34.757
37.143
40.5865
42.6949
44.9574
45.394
45.7225
44.6248
42.8549
41.0788
41.8997
46.0042
49.9269
55.2931
61.9362
69.0741
20.4274
23.082
13.7742
10.9793
2.0244
20.9014
28.3742
32.6266
37.0369
39.8587
43.0603
44.9231
46.667
46.9998
47.015
45.8368
44.3864
42.4507
42.2674
47.2828
51.783
57.7032
65.1457
72.7259
21.3099
24.7011
16.2215
11.9345
14.2459
24.9856
30.4658
35.372
39.1787
42.2771
45.0153
46.8272
48.2225
48.5471
48.1709
46.7955
45.8869
44.2684
43.0063
48.5436
54.0082
60.5577
68.6828
76.4586
21.2546
26.0046
18.9612
4.5464
10.629
27.4717
32.5449
37.7234
41.2013
44.3856
46.8333
48.5823
49.5716
49.3918
47.9522
45.9017
46.0974
45.9222
44.3622
49.5886
56.5773
63.7992
72.3917
80.1391
21.2154
27.188
21.087
14.6612
11.708
30.0867
34.2856
39.8245
43.1049
46.2553
48.4672
49.8801
50.0964
48.6017
45.0377
41.3638
43.6388
46.1582
46.4191
50.4886
59.271
67.2878
76.1287
83.6698
21.1616
28.3675
23.1817
6.2407
14.4616
31.4813
35.9748
41.5049
44.7007
47.7352
49.5832
50.3352
49.2706
45.4648
38.0092
31.4211
37.5236
43.7921
48.3708
51.5009
61.8442
70.8658
79.784
86.9818
21.4624
29.5054
24.976
4.17134
17.3367
33.2666
37.8438
43.301
46.3733
49.1251
50.4084
50.1461
47.2322
39.9818
26.1569
19.4011
28.8017
38.2759
49.0048
52.8518
64.1134
74.369
83.2606
89.987
21.9232
22.4098
23.0929
24.0246
24.8344
25.2395
25.1588
24.605
23.3354
20.4983
14.0861
6.63934
4.27966
4.1374
11.3249
11.5537
11.1062
10.9737
8.99613
10.3965
10.6307
9.57438
9.58878
11.1554
11.6571
11.2383
7.97596
4.38383
3.57353
11.8559
18.9466
22.6892
24.2096
24.91
24.9897
24.6807
23.7756
22.9378
22.2792
21.8171
30.2498
30.7784
31.2219
31.6157
31.8378
31.9434
31.8064
31.3119
30.4026
28.7595
25.622
19.9724
6.01449
12.1285
15.3614
14.8366
15.993
16.3341
17.8399
20.3087
21.1958
18.8099
17.0675
16.0883
15.7392
14.8337
14.7827
6.52178
13.4825
24.8891
27.9984
30.1751
31.1347
31.6962
31.8615
31.8066
31.5731
31.217
30.7903
30.2944
26.4018
27.9516
29.5563
30.8937
31.8914
32.6186
33.0991
33.0817
32.7493
31.5286
29.7908
24.553
10.6854
14.5447
17.581
17.7387
19.0477
19.8502
20.982
23.503
24.5745
21.9629
20.4674
19.4617
18.8123
17.2178
17.7993
3.03099
18.2757
29.6289
30.982
32.6907
33.046
33.1188
32.7084
32.0386
31.0888
29.8145
28.2706
26.6501
16.378
11.831
18.2543
22.4658
25.5872
28.1612
30.2915
31.6182
32.5133
32.0768
31.4747
27.8957
11.3566
15.1378
19.4997
20.0053
21.2215
22.3477
23.3693
26.0457
27.2656
24.4644
22.9759
21.8414
21.0283
19.4212
19.1655
6.33436
22.5899
31.9252
31.6648
32.7346
31.8458
30.6187
28.6795
26.2123
23.3532
19.183
13.0635
5.13933
17.4462
15.0843
16.0534
14.1576
11.9756
12.69
18.7097
23.9187
28.5146
30.4289
31.2023
30.0856
13.7502
14.7831
20.9569
21.9069
23.0447
24.381
25.6265
28.4282
29.7333
26.9104
25.1878
23.8246
22.8288
21.4206
19.4182
10.7091
25.5703
32.359
30.2605
29.5263
25.0759
20.1943
14.3863
11.6882
14.5718
13.958
13.3584
17.7943
33.586
32.4697
30.7209
28.632
26.1301
20.7964
15.3724
7.42524
13.1523
22.4133
27.9905
31.0044
17.8698
13.3996
21.6959
23.6068
24.8389
26.3254
27.8532
30.6828
31.9681
29.3169
27.3457
25.7815
24.5456
22.993
18.6497
12.0882
28.1989
30.5056
23.9518
17.249
9.78313
15.2934
19.9312
25.0655
27.8259
30.258
31.9334
32.6466
38.585
38.1468
37.3657
36.1862
34.7811
33.0178
30.8047
26.5659
19.9177
8.55468
17.2373
28.6164
20.6944
12.4947
21.5892
25.0524
26.666
28.3508
30.0829
32.7531
33.9219
31.6257
29.5694
27.8102
26.2309
23.9843
17.2754
14.8899
27.8707
23.1122
5.00244
18.8261
24.7556
29.9946
32.2693
34.4183
35.7612
36.8453
37.6091
38.2322
43.9
42.8392
41.6645
40.3132
38.893
37.1894
35.1818
33.0071
29.8035
25.5056
4.39799
22.7535
21.4559
12.2444
21.0995
26.2841
28.5326
30.5203
32.3366
34.634
35.6186
33.824
31.8988
29.9686
27.8795
24.6851
15.6146
15.5801
24.9129
12.7298
19.2566
30.1944
31.7422
35.0226
36.5373
38.4687
39.8266
41.2693
42.366
43.3154
46.6971
45.7406
44.5747
43.4851
42.3085
41.1823
39.6051
38.1595
34.8423
33.1259
23.1946
18.8031
19.613
10.7723
20.9239
27.5745
30.515
32.825
34.5663
36.3036
37.0479
35.8514
34.2879
32.2746
29.6797
25.5264
15.0256
15.8502
21.1574
19.5053
31.3964
34.3918
37.3011
39.3922
40.7858
42.1401
43.2371
44.2914
45.4006
46.3503
48.9544
47.3873
46.0187
44.9092
44.0537
43.3428
42.4576
41.4788
39.5662
37.3014
32.8176
24.4508
20.1111
11.1262
21.8872
29.318
32.7636
35.2451
36.7307
37.8254
38.3109
37.7097
36.6634
34.7908
31.8562
27.2887
15.3662
13.1738
23.5978
29.7741
36.3881
38.7999
41.0617
42.2367
43.2134
43.9634
44.8804
45.9543
47.2481
48.6627
49.3415
47.4399
46.0469
45.338
45.1218
45.0824
44.9564
44.5058
43.4204
41.454
38.0901
31.9072
22.1896
12.1416
24.6605
31.8046
35.3425
37.7267
38.8363
39.3495
39.6039
39.4762
38.9715
37.4722
34.5358
30.3115
18.4881
16.1103
28.9449
35.922
40.4166
42.7238
44.2377
44.8541
45.1579
45.2848
45.5579
46.244
47.5492
49.3368
47.7473
45.2287
44.1788
44.481
45.4798
46.5757
47.3222
47.5068
46.9554
45.1946
42.1368
37.6991
26.9711
15.5146
29.8781
34.9279
38.2693
40.2523
40.974
41.1104
41.2059
41.3539
41.2526
40.2449
37.7165
34.169
25.8795
14.8767
33.3994
40.9047
43.9542
46.1496
47.2237
47.2399
46.7006
45.7936
44.9559
44.7499
45.734
48.0353
42.8498
40.3975
41.2579
43.9633
46.8368
48.9621
50.183
50.4099
49.81
48.6244
46.4296
39.7405
24.9251
26.3531
35.1698
38.4828
41.3099
42.7418
43.2277
43.2364
43.2736
43.4813
43.538
42.9282
41.165
38.1248
34.0028
22.7779
29.2601
43.4158
48.0354
49.3026
49.8348
49.8473
48.9346
47.0436
44.4755
42.0406
41.325
43.609
32.9231
33.0116
39.3977
45.5576
49.776
52.4329
54.0502
54.8649
54.5645
52.1097
45.7934
35.3573
31.0002
36.1153
39.9519
42.4064
44.2884
45.2842
45.7193
45.8573
45.9237
45.9792
45.9503
45.5382
44.5259
42.4575
40.0569
35.2607
30.7877
38.0658
47.7288
53.21
54.8529
54.3256
52.5618
49.7676
45.5838
39.8245
34.0682
34.0962
18.7973
33.101
48.0321
54.5997
57.2571
58.3493
57.9505
55.7568
51.7599
46.2475
40.5757
37.8752
39.7517
42.2552
44.0983
45.5774
46.6855
47.4825
48.0317
48.3418
48.4072
48.3626
48.0894
47.6554
47.0505
46.0412
44.6287
42.9472
39.7657
38.8544
41.8042
47.0072
52.2888
56.0646
57.6118
57.0336
54.3442
47.3192
31.7805
18.2412
27.1263
38.0696
45.3527
49.1369
50.1584
49.7431
48.5774
46.6577
44.7462
43.4155
43.0513
43.8898
45.1213
46.0851
47.04
47.8602
48.6893
49.4302
49.9749
50.0787
50.134
50.179
49.9617
49.4694
48.9046
48.3903
47.6747
47.0968
46.0251
44.7702
44.0744
44.1535
45.0078
46.4841
47.6567
48.3269
47.5648
43.8745
36.4355
24.9657
24.8665
30.7724
36.6395
39.3465
41.5562
42.8494
43.8415
44.4864
45.1385
45.7719
46.4078
47.0796
47.6366
48.1841
48.7699
49.3254
49.8687
50.2589
50.5479
50.69
50.7427
50.7085
50.5636
50.2991
49.934
49.5665
49.1296
48.7596
48.3735
47.81
47.1695
46.4151
45.4818
44.4967
43.19
41.6773
39.3849
36.7628
31.1232
25.5472
31.6566
27.4028
30.0523
33.4078
37.4111
40.2938
42.885
44.8317
46.4508
47.681
48.609
49.2972
49.8133
50.2573
50.6132
50.8595
51.097
51.2824
51.4354
51.5364
51.5713
51.5415
51.4628
51.3475
51.1719
50.9839
50.7517
50.4076
49.9926
49.4041
48.5613
47.4097
45.8428
43.9311
41.3302
38.4217
34.3956
30.8207
27.9923
31.4206
46.5072
40.3448
33.9178
28.9902
27.873
29.6389
33.3101
37.4108
41.2339
44.45
47.1189
49.2602
50.831
51.9026
52.6111
53.0781
53.3924
53.5917
53.6458
53.6325
53.653
53.7036
53.6656
53.4812
53.1684
52.6888
51.956
50.8439
49.2274
47.0661
44.4129
41.2015
37.3667
33.2949
29.676
27.974
29.1339
33.946
40.3702
46.661
53.5422
52.2733
50.4399
47.4469
43.4898
38.6164
32.9384
27.1701
25.3922
28.5077
32.7575
36.6667
40.2007
43.1138
45.4635
47.2624
48.5199
49.3547
49.8411
50.0368
49.9942
49.7117
49.1344
48.2056
46.8424
44.9273
42.4938
39.55
36.0179
32.0036
27.6373
25.0103
27.6514
33.6128
39.1752
43.9059
47.7295
50.6181
52.3699
53.5475
65.0112
63.8201
62.5766
60.8678
58.7273
56.0071
52.6261
48.5244
43.667
38.1109
31.9267
25.327
22.3627
25.0891
28.4278
31.0862
33.2562
34.895
35.9902
36.521
36.488
35.8914
34.7337
33.0426
30.8086
28.0752
24.64
21.7535
24.799
31.6019
37.8855
43.5095
48.4117
52.5399
55.9312
58.6512
60.79
62.4993
63.749
64.9557
76.4116
76.2438
76.0451
75.346
74.2187
72.5508
70.267
67.279
63.5008
58.8353
53.2096
46.6684
39.4914
32.2928
25.9608
21.5943
19.5871
19.7614
20.278
20.6247
20.6219
20.2636
19.7169
19.368
21.1547
25.3664
31.6503
38.8952
46.1622
52.8074
58.5269
63.2665
67.1018
70.1348
72.4559
74.1554
75.3102
76.0332
76.2531
76.4402
85.1171
84.5357
84.0605
83.0692
81.6743
79.7579
77.2917
74.298
70.9319
67.2749
63.3205
58.9811
54.3272
49.4024
44.3277
39.4683
35.3658
32.4217
30.678
29.8928
29.839
30.5016
32.0892
34.8695
38.8587
43.6898
48.8044
53.7956
58.5175
62.9223
66.9432
70.6512
74.0617
77.1005
79.6133
81.574
83.0082
84.0335
84.5375
85.1445
91.0929
89.3506
87.6492
85.2786
82.628
79.8198
77.0042
74.2843
71.7264
69.3495
67.1322
65.0234
62.9652
60.9813
59.1455
57.5216
56.1557
55.0843
54.3418
53.9552
53.9205
54.2409
54.9226
55.9426
57.2676
58.8609
60.6781
62.6568
64.7265
66.8479
69.0769
71.4669
74.0423
76.7868
79.635
82.4829
85.1765
87.599
89.3493
91.1348
6.99303
28.8644
39.7479
42.697
45.2435
45.3794
45.8936
45.6763
46.2186
46.1855
46.0598
45.471
45.0549
45.293
43.3521
42.7712
41.9414
42.5675
43.4652
40.4779
42.5176
41.5417
40.9892
39.9441
15.1783
28.1908
39.2866
42.3702
44.958
45.2827
45.8795
45.7715
46.3125
46.216
45.9953
45.6214
45.1449
45.3764
43.5473
42.978
42.2237
42.9764
43.863
40.9801
42.8276
42.1434
41.1
41.5919
11.4356
27.844
38.958
42.2637
44.9324
45.3082
45.9323
45.8988
46.4286
46.2664
46.1138
45.6729
45.3737
45.4395
43.8383
43.292
42.6038
43.4405
44.1395
41.6103
43.3624
42.4613
42.0127
41.0093
16.1527
27.1047
38.4445
41.9688
44.6394
45.2222
46.0018
46.0578
46.5584
46.3939
46.172
45.8394
45.5853
45.5651
44.2016
43.6364
43.0157
43.9329
44.5234
42.2749
43.7489
43.1437
42.2012
42.672
6.03754
26.4908
37.9629
41.7261
44.5959
45.3448
46.1429
46.2757
46.762
46.4806
46.2952
46.1018
45.9011
45.7567
44.6338
44.0753
43.4841
44.4528
44.8072
43.047
44.34
43.5505
43.1765
42.257
13.2822
25.4197
37.2704
41.4276
44.3154
45.2317
46.2248
46.4322
46.8506
46.6368
46.5432
46.3221
46.2393
45.971
45.0984
44.522
43.9743
44.977
45.2134
43.8032
44.7849
44.2877
43.4374
43.8056
10.0839
24.6715
36.5565
40.9478
44.1159
45.3309
46.342
46.6346
47.1116
46.826
46.6616
46.7681
46.6406
46.2837
45.5905
45.038
44.4986
45.5117
45.5384
44.6358
45.4139
44.7442
44.4247
43.6259
13.3467
22.8239
35.4998
40.5336
43.8357
45.1596
46.3926
46.7687
47.1507
46.9499
47.1201
47.0368
47.047
46.5649
46.0786
45.545
45.0528
46.0432
46.0072
45.4077
45.9001
45.5141
44.7504
44.9592
12.3401
22.238
34.4705
39.708
43.3411
45.1222
46.3855
46.867
47.4184
47.2993
47.2
47.5738
47.4781
46.9574
46.5745
46.0984
45.6258
46.5858
46.4112
46.2347
46.5562
45.9884
45.7052
45.0519
12.1888
19.0791
32.7589
38.9446
42.9603
44.8176
46.369
46.9814
47.4313
47.3021
47.8043
47.8329
47.8745
47.2733
47.0493
46.6349
46.2345
47.1238
46.9701
46.9576
47.0565
46.7595
46.0704
46.075
12.2775
18.5255
31.2053
37.5734
41.9678
44.5327
46.143
46.8848
47.5978
47.8088
47.7805
48.3389
48.2637
47.7032
47.5262
47.1901
46.8329
47.6689
47.4485
47.7176
47.7109
47.2036
46.9373
46.442
13.0639
15.2102
28.4914
36.052
41.2636
43.9014
45.9796
46.9606
47.6105
47.5692
48.4202
48.5273
48.5926
48.0224
47.9728
47.7199
47.4577
48.1993
48.0732
48.3371
48.1787
47.9365
47.2972
47.0542
14.8907
10.8992
25.8005
33.7143
39.3398
43.2134
45.4026
46.558
47.5094
48.187
48.2177
48.9046
48.8926
48.4506
48.4169
48.2372
48.0339
48.7236
48.569
48.983
48.785
48.2832
48.0037
47.6599
13.9845
12.4331
21.7561
30.6069
37.892
41.7594
44.8677
46.4883
47.5517
47.5772
48.7818
48.9716
49.1204
48.7325
48.8144
48.7185
48.616
49.203
49.1803
49.4457
49.1426
48.9175
48.3003
47.7705
14.396
5.22117
16.5438
26.3708
33.7242
40.3141
43.62
45.5864
46.9355
48.2717
48.3497
49.1533
49.2836
49.0971
49.1861
49.1429
49.0978
49.6439
49.5773
49.947
49.6652
49.1243
48.8066
48.6061
13.7694
3.44755
6.78937
18.5687
30.718
36.4698
42.1077
45.0105
46.9597
47.1312
48.769
49.0884
49.3999
49.2708
49.4754
49.5213
49.5748
50.0264
50.1091
50.2469
49.8636
49.6397
48.9698
48.0889
11.8017
4.95295
7.08263
13.5772
15.4296
33.282
39.0601
43.1003
45.3262
47.7977
48.0362
49.0399
49.4045
49.5439
49.7631
49.8415
49.9313
50.348
50.3316
50.5825
50.2452
49.5808
49.1753
49.0544
11.6669
5.4713
11.4906
11.5493
6.71708
14.0685
34.6213
40.9408
45.0644
45.6474
48.1349
48.7612
49.3688
49.562
49.9142
50.0825
50.2503
50.5514
50.6596
50.6247
50.1263
49.8775
48.9769
47.4626
6.4454
8.5793
7.01275
11.9725
12.2146
14.5823
22.8313
36.1743
40.9015
46.0857
46.7454
48.3206
49.0981
49.6484
50.0253
50.2073
50.3666
50.6151
50.5337
50.6808
50.2397
49.1866
48.4539
48.2378
12.0854
4.83434
7.89905
12.6545
7.75305
12.5876
16.4777
27.9542
39.6425
41.0888
46.1025
47.4638
48.7065
49.3216
49.88
50.1351
50.3498
50.4522
50.4487
50.1747
49.2844
48.8704
47.1814
43.8563
5.89655
10.5765
2.82827
0.84398
5.59096
13.1688
13.1482
16.444
17.3564
41.0042
42.6454
46.1327
47.7523
48.9563
49.5814
49.8031
49.8599
49.8207
49.4432
49.4884
48.7045
46.3657
44.383
43.8858
4.15163
6.43622
4.1025
6.23252
16.2845
9.4758
11.8951
9.93679
6.81127
2.14541
40.0215
43.5326
46.4395
47.7419
48.6374
48.858
48.9821
48.7419
48.3743
47.4534
45.1575
44.1661
39.2345
18.8175
10.3755
6.90077
7.98233
8.08777
9.46896
14.8929
11.5668
12.8315
4.47546
7.77667
20.0922
39.6689
43.6588
46.3213
47.3286
47.258
46.6903
46.029
44.6742
44.425
42.576
32.777
22.3258
9.85376
7.64245
11.4084
11.038
12.2365
13.7432
17.2392
21.9445
26.1626
30.3556
8.85343
17.605
27.4377
39.7294
42.5394
43.9604
43.6381
43.26
42.0901
40.6151
35.4054
19.65
9.72588
14.3022
27.6138
4.50692
13.8494
19.1761
21.4702
23.457
25.8731
28.7465
32.4747
34.3369
32.5348
10.2822
14.9065
29.0683
38.427
39.7915
36.9238
30.9732
26.0673
11.3539
14.6792
15.3434
20.4323
31.7146
37.405
11.5875
19.7658
20.8614
19.8053
19.8949
21.6568
24.1485
28.387
36.9122
36.3963
25.3594
14.1547
15.6449
19.4084
20.2417
9.34509
16.7916
19.5427
18.3415
15.5751
18.3705
33.204
38.0903
43.7421
15.8133
18.3685
15.6968
12.8489
15.826
18.5269
19.2411
18.2836
25.2708
34.9789
23.8119
11.5422
7.27798
12.786
13.6235
10.6645
15.7968
15.6396
18.0592
29.0387
34.0183
38.2921
43.8995
49.3498
15.808
17.2623
12.0742
11.6105
18.0617
21.8902
23.7273
25.0208
25.4381
27.4222
17.6214
10.5387
13.0328
7.81067
14.1794
21.7408
31.1429
32.4668
33.9548
34.8688
38.7166
43.418
48.2767
52.6617
17.825
18.0322
10.691
9.08314
15.7195
21.6405
25.2215
27.4711
28.2239
27.8177
26.7273
22.3931
24.6871
27.0286
31.5214
33.5043
33.8828
35.6117
37.3354
39.6081
42.5956
46.8904
50.7452
55.1806
18.0175
16.3911
9.68633
5.83984
16.9429
22.9575
26.3392
29.5682
31.6885
32.0419
31.8588
31.4066
31.7722
33.6439
35.7344
37.8186
38.836
38.9909
40.4222
42.2058
45.112
48.8427
52.6438
57.4301
18.5608
17.9279
7.93171
7.47839
10.1741
18.6229
24.3618
28.2854
31.5069
32.8172
33.519
34.4487
36.0577
38.0676
39.9875
40.7805
40.4799
40.4003
41.7521
43.6339
46.4915
50.1863
54.562
59.8546
19.3286
17.971
9.17944
1.78114
4.84173
14.9033
24.2838
27.3326
31.8021
33.378
35.3757
37.0196
39.4998
41.3683
42.622
41.9974
41.0611
40.6254
42.1002
44.5803
47.4002
51.594
56.7091
62.5793
19.7317
19.906
6.57301
8.82718
10.2003
14.3441
25.3664
27.9849
33.1289
34.9306
38.0542
39.9743
42.6726
43.4598
43.7938
42.7649
41.884
41.0567
42.2078
45.0577
48.4935
53.3102
59.1202
65.6105
20.516
21.3158
7.7923
3.3752
11.5674
17.4988
26.9435
30.2072
35.1807
37.5072
40.9167
42.8659
45.0008
45.2127
45.5603
44.4579
42.8
41.1555
42.2132
46.0914
49.9572
55.3162
61.8824
68.991
20.454
22.8611
12.8726
10.9719
4.45373
21.4785
28.8587
33.0933
37.4892
40.2284
43.3913
45.0729
46.7259
46.8701
46.8827
45.6781
44.2683
42.3032
42.5548
47.3823
51.7876
57.6917
65.0713
72.6168
21.3443
24.4653
15.2153
11.814
2.42766
25.5315
30.9407
35.8357
39.6267
42.6569
45.3143
46.9936
48.2681
48.4589
48.0684
46.7296
45.8013
43.9465
43.177
48.6794
53.9857
60.5216
68.598
76.3383
21.3545
25.8825
18.1642
2.55509
10.7209
28.1549
32.9644
38.2064
41.6623
44.7529
47.1484
48.7432
49.6157
49.3128
47.8844
46.0347
46.2078
45.5862
44.3127
49.775
56.5404
63.749
72.3066
80.0195
21.2905
27.0622
20.4072
4.38919
10.4586
31.1807
34.4511
40.4764
43.4773
46.6725
48.7494
50.0232
50.0899
48.4601
45.0019
41.8336
44.0447
46.0468
46.132
50.7052
59.2398
67.2323
76.0515
83.5598
21.2818
28.2771
22.6046
16.1108
15.6047
31.9627
36.5186
41.9981
45.1547
48.1117
49.8331
50.4027
49.1275
45.137
37.9329
32.5628
38.1083
44.0924
47.9767
51.689
61.8364
70.8123
79.7199
86.8876
21.553
29.4436
24.7085
12.3154
17.4461
34.1455
38.1674
43.9173
46.7549
49.481
50.5598
50.0542
46.8109
39.2416
25.9101
21.7726
28.8875
38.9246
48.672
52.9532
64.1378
74.3236
83.2117
89.9133
7.5909
12.7222
16.8864
16.4559
11.7496
10.7274
13.6748
10.1772
13.3513
12.319
12.1402
10.461
9.24372
5.16987
4.04324
7.87229
6.85478
6.89921
3.04455
6.28117
6.1766
3.06205
3.95414
7.02885
7.94991
7.53445
4.92901
9.53037
10.59
11.6243
11.2676
6.69726
5.02781
4.16681
5.9117
6.41975
12.8533
2.3295
8.0175
16.6705
28.6196
26.7227
25.9709
23.8898
23.2609
20.9659
20.4482
17.8621
17.6073
14.8837
14.9624
13.0116
12.9021
11.7954
11.5291
11.4295
11.0323
11.29
10.2738
9.67448
9.19449
10.7391
11.3182
11.4579
11.6877
11.925
11.3879
12.8405
13.1831
15.2993
15.4881
17.6401
17.9758
20.4358
21.1437
23.1789
23.9271
25.9716
26.707
28.6231
39.4562
38.0456
37.1249
35.7699
34.8883
33.5542
32.692
31.3983
30.484
29.4119
28.3785
27.6721
26.7189
26.2653
25.4829
24.9659
24.4701
24.134
23.9912
24.0168
24.0487
24.0627
24.2136
24.4224
24.8221
25.1957
26.1058
26.8111
27.8984
28.6863
29.6104
30.6138
31.5116
32.6905
33.6325
34.9079
35.9039
37.1866
38.1818
39.515
42.1731
40.7028
39.598
38.1516
37.1765
35.7502
34.8506
33.5142
32.616
31.4867
30.6274
29.7947
29.1642
28.6242
28.1753
27.6447
27.1356
26.9731
26.5679
26.4952
26.3157
26.716
26.785
26.9746
27.3584
27.8069
28.4169
29.2537
30.0811
30.9144
31.627
32.6513
33.4842
34.8033
35.7663
37.1514
38.2177
39.5869
40.7572
42.1433
44.72
43.313
42.2272
40.8569
39.8522
38.5688
37.5563
36.4405
35.3954
34.4847
33.4328
32.7253
31.9527
31.5393
31.0272
30.6283
30.0887
29.849
29.537
29.5389
29.3519
29.5366
29.423
29.6563
30.135
30.5203
31.3194
32.1363
33.0682
33.6571
34.488
35.3013
36.3201
37.4613
38.5054
39.7803
40.8268
42.144
43.2905
44.625
44.8565
43.4469
42.3424
41.0369
39.9648
38.7747
37.6998
36.6909
35.6951
34.8722
33.9515
33.1795
32.5457
32.0791
31.6922
31.3139
30.8564
30.6487
30.2496
30.2429
29.8578
30.1144
29.9435
30.3202
30.7898
31.238
31.9707
32.8502
33.5536
34.0254
34.7333
35.5124
36.546
37.6188
38.6686
39.8341
40.8688
42.1458
43.285
44.6752
45.328
44.0097
42.8534
41.65
40.5197
39.3992
38.2627
37.3181
36.3327
35.622
34.7545
34.0156
33.316
32.9023
32.5008
32.2851
31.8933
31.6612
31.3169
31.3406
30.8422
30.976
30.7469
31.2633
31.7889
32.1298
32.934
33.7472
34.3006
34.6591
35.3999
36.1828
37.3022
38.2805
39.3226
40.3685
41.4085
42.614
43.8033
45.1817
45.0492
43.7159
42.5243
41.3323
40.1645
39.0939
37.9141
37.0205
36.0675
35.4292
34.7314
34.0206
33.3169
32.7372
32.3433
32.2136
32.0689
31.784
31.471
31.5408
30.8744
30.9558
30.8344
31.6236
32.0221
32.288
33.0769
33.7651
34.1378
34.5099
35.2873
36.1414
37.2693
38.1269
39.1388
40.0902
41.1324
42.3479
43.5713
44.9999
45.5273
44.2074
42.8743
41.736
40.4218
39.421
38.1852
37.2847
36.3183
35.5868
34.9851
34.3981
33.7063
32.9429
32.3635
32.297
32.4308
32.1198
31.8887
32.0637
31.5135
31.4456
31.5226
32.3695
32.4992
32.5939
33.3442
33.861
34.282
34.8468
35.741
36.7036
37.786
38.5836
39.6636
40.5146
41.7083
42.8302
44.1422
45.5058
45.4811
44.2536
42.9163
41.8574
40.6268
39.6102
38.5064
37.4658
36.5659
35.679
35.0361
34.5638
33.9407
33.1489
32.2594
31.8386
32.1751
32.0177
31.7608
32.0883
31.8717
31.8933
32.0539
32.6557
32.3167
32.3151
33.0246
33.6964
34.381
35.0647
35.9513
37.038
37.9612
38.8255
39.7386
40.5752
41.7066
42.711
43.997
45.2026
45.3218
44.1144
42.8189
41.7004
40.6253
39.5562
38.6154
37.5424
36.6485
35.8026
35.108
34.6144
33.969
33.6186
32.8032
31.7486
31.6301
32.1752
31.5822
31.9831
32.2
32.1304
32.0738
32.2805
31.8807
31.929
33.1218
33.9226
34.6208
35.1856
35.9642
36.8116
37.5647
38.4549
39.295
40.3408
41.4865
42.6434
43.9852
45.1799
44.9172
43.4404
42.2872
40.9089
39.8889
38.7248
37.7919
36.829
35.88
35.1887
34.4329
34.0549
33.2494
32.9549
32.568
31.3486
30.61
31.9226
30.9252
31.098
31.0866
30.7578
31.4374
31.3848
31.361
31.9616
32.7917
33.1513
33.9454
34.3976
35.2057
35.9198
36.8916
37.8795
38.8947
40.1545
41.2642
42.7022
43.8971
45.3798
44.1808
42.9041
41.3525
40.3019
38.9472
38.2328
37.1078
36.5072
35.3512
34.5907
33.5561
33.0563
32.4763
31.9832
31.8287
31.4466
29.8625
30.4599
30.4761
30.1925
29.688
29.8708
30.3037
30.4899
31.1905
31.8343
32.0195
32.4183
33.2904
33.8991
35.02
35.9367
37.352
38.1472
39.4378
40.2095
41.5137
42.4965
43.8928
45.1308
44.6181
43.167
41.773
40.3646
39.1343
37.9477
37.0047
35.9979
35.1923
34.3129
33.6367
32.8131
32.177
31.5648
30.9788
30.5512
29.6121
28.9964
29.5223
29.3294
28.7979
29.1081
30.1269
30.1544
31.5239
31.6351
31.989
32.577
33.1788
34.1111
34.8832
35.9721
36.693
37.5262
38.2652
39.3265
40.5195
41.8925
43.2771
44.682
42.5863
41.3746
40.0366
38.941
37.6951
36.7743
35.7179
35.0707
34.1724
33.5883
32.4712
31.8161
30.9615
30.5142
29.5764
29.7247
29.774
27.8051
27.747
28.1996
27.7775
28.3857
29.1382
29.825
29.8414
30.2554
31.3614
31.717
32.8738
33.604
34.2971
34.7396
35.6181
36.2388
37.2109
38.1113
39.3449
40.4892
41.8508
43.1423
41.9692
40.7629
39.4062
38.3156
37.0658
36.0949
34.978
34.1543
33.2197
32.5589
31.6014
30.771
30.0301
29.5184
28.5749
27.8735
26.9855
27.0674
27.093
27.7794
27.2995
27.1336
27.038
27.0987
28.0466
28.6753
29.1276
29.6391
30.6731
31.4787
32.6937
33.8286
35.156
36.1747
37.345
38.3128
39.5094
40.6652
42.1145
43.5901
41.1021
39.9735
38.7146
37.8271
36.7113
35.9219
34.7716
33.9194
32.6442
31.7519
30.6069
30.1326
29.2209
28.5913
28.0172
28.0438
27.5628
27.597
27.6406
26.2488
26.5753
26.2202
26.7538
26.6221
27.4379
27.7543
28.3785
28.6661
29.8002
30.6337
31.7852
32.4707
33.4897
34.2675
35.5419
36.6955
38.2822
39.6988
41.3732
42.8694
41.5908
40.2333
38.7746
37.6461
36.3642
35.4481
34.2441
33.3869
32.0649
31.1209
29.707
28.9986
28.1347
27.8624
27.2692
27.2962
26.6191
27.1815
27.7176
26.3638
25.9294
26.5709
26.984
27.2971
28.0895
28.1068
28.6448
28.8806
29.7706
30.2938
31.3326
32.039
33.2107
34.1583
35.5097
36.6859
38.18
39.5127
41.0854
42.524
42.5379
40.9388
39.3461
37.8706
36.4028
35.1717
33.9024
32.93
31.7941
30.9342
29.7635
28.7699
27.4292
26.5439
25.6606
25.1395
24.5418
24.3518
24.0611
24.4934
25.6939
26.1072
26.2236
26.675
27.3729
27.7047
28.4266
28.9852
29.766
30.1727
30.8107
31.294
32.1361
32.9698
34.1563
35.3396
36.7602
38.1563
39.6728
41.1734
39.4514
38.1902
36.7706
35.7372
34.5685
33.7667
32.8317
32.2161
31.3907
30.8036
29.8903
29.2115
28.2789
27.8176
27.1287
26.8323
26.3135
26.2346
25.9803
25.6342
25.4034
25.3834
25.6782
25.5488
26.1708
26.5695
27.2668
27.5093
28.112
28.4356
29.1904
29.7649
30.7225
31.5531
32.7026
33.7487
35.099
36.365
37.9711
39.4771
41.4254
40.1007