/*--------------------------------*- C++ -*----------------------------------*\
  =========                 |
  \\      /  F ield         | OpenFOAM: The Open Source CFD Toolbox
   \\    /   O peration     | Website:  https://openfoam.org
    \\  /    A nd           | Version:  6
     \\/     M anipulation  |
\*---------------------------------------------------------------------------*/
FoamFile
{
    version     2.0;
    format      ascii;
    class       volVectorField;
    location    "29";
    object      wallShearStress;
}
// * * * * * * * * * * * * * * * * * * * * * * * * * * * * * * * * * * * * * //

dimensions      [0 2 -2 0 0 0 0];

internalField   uniform (0 0 0);

boundaryField
{
    inlet
    {
        type            calculated;
        value           uniform (0 0 0);
    }
    outlet
    {
        type            calculated;
        value           uniform (0 0 0);
    }
    roughCylinder
    {
        type            calculated;
        value           nonuniform List<vector> 
3840
(
(-0.000271012 -0.000396947 -0.000163003)
(-0.000327088 -0.000510525 -2.25266e-05)
(-0.000376333 -0.000632028 4.18064e-05)
(-0.000451514 -0.0007355 0.000123763)
(-0.000539608 -0.000809515 0.000206193)
(-0.00063094 -0.000849862 0.000278337)
(-0.000715857 -0.000860587 0.000335058)
(-0.000789614 -0.000853043 0.000374894)
(-0.000852683 -0.000846628 0.000402174)
(-0.000901263 -0.000845228 0.000416481)
(-0.000939949 -0.000852889 0.000419832)
(-0.000972104 -0.00086804 0.000414385)
(-0.00100081 -0.000889072 0.00040269)
(-0.00102897 -0.000914492 0.000386807)
(-0.00105862 -0.000943368 0.000368176)
(-0.00109088 -0.000975175 0.000347444)
(-0.00112608 -0.0010096 0.000324703)
(-0.00116404 -0.00104631 0.000299622)
(-0.00120426 -0.00108477 0.000271653)
(-0.00124585 -0.00112413 0.000239855)
(-0.00128779 -0.00116326 0.00020291)
(-0.00132787 -0.00119996 0.000158516)
(-0.00136261 -0.0012314 0.000103055)
(-0.0013843 -0.00125118 3.58967e-05)
(-0.000290495 -0.000384541 -0.000155507)
(-0.000350079 -0.000494943 -2.63883e-05)
(-0.000401873 -0.000616096 3.32008e-05)
(-0.00047938 -0.000720837 0.000111707)
(-0.00056941 -0.000797468 0.000192223)
(-0.000662729 -0.000840778 0.000263303)
(-0.000750665 -0.000855608 0.000319991)
(-0.000829357 -0.0008542 0.000361866)
(-0.000897365 -0.000850979 0.000391682)
(-0.000949927 -0.000848354 0.000407501)
(-0.000990587 -0.000854679 0.000411496)
(-0.00102468 -0.000869176 0.000406364)
(-0.00105527 -0.000890005 0.000394899)
(-0.00108535 -0.000915444 0.000379242)
(-0.00111699 -0.000944436 0.000360898)
(-0.00115134 -0.000976367 0.000340546)
(-0.00118873 -0.00101089 0.000318281)
(-0.00122894 -0.00104763 0.000293777)
(-0.00127143 -0.00108608 0.000266473)
(-0.00131527 -0.00112535 0.000235408)
(-0.00135941 -0.00116436 0.000199278)
(-0.00140148 -0.00120086 0.000155772)
(-0.00143791 -0.00123213 0.000101318)
(-0.00146061 -0.00125173 3.53071e-05)
(-0.00031007 -0.00036687 -0.000142592)
(-0.000372484 -0.000473864 -3.07424e-05)
(-0.000426658 -0.000593487 2.38454e-05)
(-0.000505972 -0.000698753 9.84721e-05)
(-0.000597811 -0.00077783 0.000176763)
(-0.000693464 -0.000824834 0.000246908)
(-0.000785117 -0.000844908 0.000304234)
(-0.000868719 -0.000849438 0.000348226)
(-0.000941272 -0.000849127 0.000379919)
(-0.000998511 -0.000846501 0.000397408)
(-0.00104127 -0.000851146 0.000402039)
(-0.00107738 -0.000864786 0.000397241)
(-0.00110996 -0.000885184 0.000386075)
(-0.00114205 -0.000910443 0.000370724)
(-0.00117576 -0.000939329 0.000352745)
(-0.00121225 -0.000971168 0.000332848)
(-0.00125185 -0.00100555 0.000311145)
(-0.00129432 -0.00104208 0.000287298)
(-0.0013391 -0.00108025 0.000260742)
(-0.00138517 -0.00111917 0.00023049)
(-0.00143147 -0.00115777 0.000195258)
(-0.00147547 -0.00119382 0.000152731)
(-0.00151356 -0.00122469 9.93922e-05)
(-0.00153721 -0.00124398 3.46541e-05)
(-0.00032754 -0.000344855 -0.00012599)
(-0.000391941 -0.000447848 -3.53012e-05)
(-0.000447973 -0.000564955 1.41054e-05)
(-0.000528528 -0.000670189 8.44784e-05)
(-0.000622088 -0.000751684 0.000160203)
(-0.000720423 -0.000803013 0.000229388)
(-0.000816111 -0.000828972 0.000287563)
(-0.000904552 -0.000839211 0.000333597)
(-0.000981779 -0.000841973 0.000367032)
(-0.00104412 -0.000840684 0.000386385)
(-0.00108963 -0.000843138 0.000391667)
(-0.00112789 -0.000855711 0.000387317)
(-0.00116261 -0.000875498 0.000376533)
(-0.00119679 -0.000900397 0.00036157)
(-0.00123262 -0.000929031 0.000344039)
(-0.00127126 -0.000960604 0.000324674)
(-0.00131305 -0.000994658 0.000303602)
(-0.00135771 -0.00103077 0.000280473)
(-0.00140467 -0.00106844 0.000254723)
(-0.00145285 -0.00110678 0.000225335)
(-0.00150119 -0.00114476 0.00019105)
(-0.001547 -0.00118016 0.000149552)
(-0.00158663 -0.00121043 9.73807e-05)
(-0.00161113 -0.00122929 3.39741e-05)
(-0.000341973 -0.000319048 -0.000107391)
(-0.00040773 -0.000417541 -3.97272e-05)
(-0.000464938 -0.000531182 4.30281e-06)
(-0.000546119 -0.000635761 7.004e-05)
(-0.000641317 -0.000719564 0.000142806)
(-0.000742586 -0.000775545 0.000210859)
(-0.000842471 -0.000807514 0.000269797)
(-0.000935661 -0.000823114 0.000317695)
(-0.00101764 -0.000828966 0.0003529)
(-0.00108458 -0.000829174 0.000373819)
(-0.00113459 -0.00083009 0.000380245)
(-0.00117522 -0.000841414 0.000376604)
(-0.00121224 -0.000860311 0.000366303)
(-0.0012486 -0.000884658 0.00035184)
(-0.00128654 -0.00091283 0.000334845)
(-0.0013273 -0.000943928 0.000316094)
(-0.00137121 -0.00097744 0.000295723)
(-0.00141799 -0.00101292 0.000273377)
(-0.001467 -0.00104986 0.000248489)
(-0.00151714 -0.00108738 0.000220012)
(-0.00156734 -0.0011245 0.000186714)
(-0.00161477 -0.00115901 0.00014628)
(-0.0016558 -0.00118851 9.53132e-05)
(-0.00168105 -0.00120681 3.32785e-05)
(-0.000353315 -0.000290832 -8.80724e-05)
(-0.000419383 -0.000383913 -4.38433e-05)
(-0.000476954 -0.000493276 -5.36055e-06)
(-0.000558164 -0.000596609 5.53613e-05)
(-0.000654831 -0.000682522 0.000124726)
(-0.00075915 -0.000743194 0.000191368)
(-0.0008633 -0.000780943 0.000250821)
(-0.000961276 -0.000801496 0.000300346)
(-0.00104809 -0.000810333 0.000337307)
(-0.00111988 -0.00081211 0.00035971)
(-0.0011756 -0.00081306 0.00036785)
(-0.00121895 -0.000822087 0.000365007)
(-0.00125843 -0.000839869 0.000355356)
(-0.00129707 -0.00086335 0.000341518)
(-0.00133719 -0.000890849 0.000325172)
(-0.00138006 -0.000921264 0.000307128)
(-0.00142601 -0.000954014 0.000287536)
(-0.00147476 -0.000988631 0.000266039)
(-0.00152566 -0.00102459 0.000242068)
(-0.00157754 -0.00106105 0.000214541)
(-0.00162942 -0.00109708 0.000182267)
(-0.00167827 -0.00113048 0.000142929)
(-0.00172052 -0.00115903 9.31988e-05)
(-0.00174637 -0.00117667 3.25703e-05)
(-0.000360011 -0.000260265 -6.8699e-05)
(-0.00042604 -0.000347713 -4.74193e-05)
(-0.00048317 -0.000451996 -1.46984e-05)
(-0.00056367 -0.000553434 4.05624e-05)
(-0.000661469 -0.000641117 0.000106006)
(-0.000768821 -0.000706339 0.000170832)
(-0.000877353 -0.000749616 0.000230462)
(-0.000980259 -0.000774778 0.000281349)
(-0.00107215 -0.000786538 0.000320032)
(-0.00114911 -0.000789957 0.000344069)
(-0.00121034 -0.000791597 0.000353932)
(-0.00125833 -0.000798685 0.000352395)
(-0.00130052 -0.000814743 0.00034363)
(-0.00134165 -0.000837157 0.00033059)
(-0.00138397 -0.000863693 0.000315014)
(-0.0014289 -0.000893196 0.000297776)
(-0.00147681 -0.000924977 0.000279054)
(-0.00152739 -0.000958527 0.000258476)
(-0.00158001 -0.000993324 0.000235483)
(-0.00163346 -0.00102852 0.000208951)
(-0.00168677 -0.00106326 0.000177732)
(-0.0017368 -0.00109536 0.000139514)
(-0.00178009 -0.00112278 9.1049e-05)
(-0.0018064 -0.00113966 3.18541e-05)
(-0.000363166 -0.000229263 -5.0177e-05)
(-0.000427566 -0.000310086 -5.04949e-05)
(-0.00048317 -0.000408483 -2.35062e-05)
(-0.000562056 -0.000507179 2.58986e-05)
(-0.000660421 -0.000596027 8.6813e-05)
(-0.00077056 -0.0006654 0.000149264)
(-0.000883401 -0.000713779 0.000208585)
(-0.000991437 -0.000743308 0.00026052)
(-0.00108873 -0.00075797 0.000300865)
(-0.00117129 -0.000763161 0.000326744)
(-0.00123808 -0.000765584 0.000338374)
(-0.00129171 -0.000771905 0.000338569)
(-0.00133761 -0.000785822 0.000331051)
(-0.00138136 -0.000806418 0.000318975)
(-0.001426 -0.000831806 0.000304348)
(-0.001473 -0.000860186 0.000288043)
(-0.00152276 -0.000890789 0.000270285)
(-0.001575 -0.000923057 0.000250701)
(-0.00162908 -0.000956464 0.00022874)
(-0.00168377 -0.000990211 0.00020324)
(-0.00173825 -0.00102357 0.000173115)
(-0.0017892 -0.0010543 0.000136045)
(-0.00183329 -0.00108049 8.88688e-05)
(-0.00185986 -0.00109661 3.11327e-05)
(-0.000359442 -0.000196646 -3.26466e-05)
(-0.000422522 -0.000270954 -5.26045e-05)
(-0.000475808 -0.000362788 -3.1609e-05)
(-0.000552097 -0.00045798 1.15148e-05)
(-0.000650296 -0.000547283 6.7259e-05)
(-0.000762921 -0.000620362 0.000126648)
(-0.000880173 -0.000673618 0.00018509)
(-0.000993539 -0.000707333 0.000237678)
(-0.00109662 -0.000724923 0.000279575)
(-0.00118512 -0.000731922 0.000307441)
(-0.0012579 -0.000735275 0.000321121)
(-0.00131715 -0.000741347 0.00032322)
(-0.00136792 -0.000753803 0.000317367)
(-0.0014154 -0.000772721 0.000306723)
(-0.00146237 -0.00079638 0.000293209)
(-0.00151137 -0.000823333 0.000277964)
(-0.00156285 -0.000852597 0.000261281)
(-0.00161654 -0.000883506 0.000242779)
(-0.00167187 -0.000915512 0.000221921)
(-0.00172751 -0.000947786 0.000197493)
(-0.00178264 -0.000979527 0.000168455)
(-0.00183402 -0.00100868 0.000132533)
(-0.00187858 -0.00103353 8.66633e-05)
(-0.00190507 -0.00104877 3.04059e-05)
(-0.000352935 -0.000165399 -1.6936e-05)
(-0.000411824 -0.000232313 -5.44795e-05)
(-0.000461492 -0.000316833 -3.85768e-05)
(-0.000533962 -0.000407238 -2.06375e-06)
(-0.000630914 -0.000495909 4.77212e-05)
(-0.000745342 -0.000571926 0.000103188)
(-0.000866614 -0.000629512 0.000159978)
(-0.000985541 -0.000667332 0.00021275)
(-0.00109484 -0.000687904 0.000256026)
(-0.00118986 -0.000696841 0.000286006)
(-0.00126889 -0.00070106 0.000301987)
(-0.00133391 -0.000706948 0.000306261)
(-0.00138964 -0.000718347 0.000302342)
(-0.0014409 -0.000735726 0.000293348)
(-0.00149082 -0.000757661 0.000281261)
(-0.00154194 -0.000783018 0.000267305)
(-0.00159493 -0.000810698 0.00025183)
(-0.00164964 -0.000839987 0.000234485)
(-0.00170559 -0.000870303 0.000214771)
(-0.00176148 -0.000900796 0.000191429)
(-0.00181692 -0.000930717 0.000163532)
(-0.00186838 -0.000958125 0.00012882)
(-0.00191304 -0.000981458 8.43259e-05)
(-0.00193919 -0.000995682 2.96373e-05)
(-0.000336345 -0.000134548 -3.01025e-06)
(-0.000393856 -0.0001923 -5.37433e-05)
(-0.000438627 -0.000269549 -4.47224e-05)
(-0.000505992 -0.000354453 -1.48983e-05)
(-0.000600408 -0.000441474 2.84075e-05)
(-0.000715979 -0.000519778 7.90019e-05)
(-0.000841449 -0.000581686 0.000133293)
(-0.000966101 -0.000623611 0.000185639)
(-0.00108207 -0.000647307 0.000230051)
(-0.00118397 -0.000658147 0.000262146)
(-0.00126994 -0.000663336 0.00028073)
(-0.00134125 -0.000669123 0.000287544)
(-0.00140211 -0.000679452 0.000285853)
(-0.00145735 -0.000695289 0.000278771)
(-0.00151017 -0.000715434 0.000268332)
(-0.00156331 -0.000738996 0.000255855)
(-0.00161764 -0.000764868 0.000241744)
(-0.00167312 -0.000792291 0.000225677)
(-0.00172943 -0.000820694 0.000207205)
(-0.0017853 -0.000849226 0.000185023)
(-0.00184062 -0.000877124 0.000158324)
(-0.00189169 -0.000902626 0.000124883)
(-0.00193621 -0.00092437 8.18496e-05)
(-0.00196181 -0.000937518 2.88261e-05)
(-0.000314931 -0.000106494 5.28036e-06)
(-0.000372244 -0.000157062 -5.0252e-05)
(-0.000410207 -0.000223619 -4.89426e-05)
(-0.000470168 -0.000302013 -2.62456e-05)
(-0.000560163 -0.000385926 9.90749e-06)
(-0.000675447 -0.000465332 5.45918e-05)
(-0.000803921 -0.000530701 0.000105258)
(-0.000934364 -0.000576777 0.000156435)
(-0.00105738 -0.000603778 0.000201619)
(-0.00116699 -0.000616786 0.000235873)
(-0.00126019 -0.000622752 0.000257214)
(-0.00133808 -0.000628269 0.00026687)
(-0.00140455 -0.000637531 0.000267789)
(-0.00146393 -0.000651675 0.000262914)
(-0.00151983 -0.000669937 0.000254404)
(-0.00157501 -0.000691562 0.000243626)
(-0.00163053 -0.000715427 0.000231046)
(-0.0016865 -0.000740797 0.000216382)
(-0.0017427 -0.000767053 0.000199236)
(-0.00179796 -0.000793388 0.000178268)
(-0.00185279 -0.000819159 0.000152836)
(-0.00190309 -0.000842673 0.000120735)
(-0.00194695 -0.000862664 7.92323e-05)
(-0.00197167 -0.000874659 2.79711e-05)
(-0.000283632 -7.77608e-05 1.26141e-05)
(-0.000342539 -0.000124411 -4.83669e-05)
(-0.000373003 -0.000179756 -5.06595e-05)
(-0.000423684 -0.000249579 -3.49913e-05)
(-0.000507253 -0.00032836 -6.99228e-06)
(-0.000620901 -0.00040765 3.04772e-05)
(-0.00075277 -0.000476684 7.62767e-05)
(-0.000888995 -0.000527044 0.000125282)
(-0.00101954 -0.000557724 0.000170726)
(-0.00113701 -0.000572907 0.000206932)
(-0.00123836 -0.000579847 0.000231272)
(-0.00132363 -0.000585112 0.000244158)
(-0.00139596 -0.000593094 0.000248034)
(-0.00145992 -0.000605457 0.000245756)
(-0.00151894 -0.00062164 0.000239459)
(-0.00157601 -0.000641089 0.000230597)
(-0.00163252 -0.000662774 0.000219729)
(-0.00168865 -0.000685923 0.000206603)
(-0.00174444 -0.000709959 0.0001909)
(-0.00179879 -0.000734058 0.000171225)
(-0.00185258 -0.000757572 0.000147105)
(-0.00190153 -0.000778985 0.00011639)
(-0.00194454 -0.000797247 7.64976e-05)
(-0.00196815 -0.00080809 2.70831e-05)
(-0.00024783 -5.14943e-05 1.88234e-05)
(-0.000307565 -9.53281e-05 -4.75059e-05)
(-0.000331482 -0.000140786 -5.08499e-05)
(-0.000371511 -0.000200697 -4.11344e-05)
(-0.000446083 -0.00027232 -2.14869e-05)
(-0.000555699 -0.000349536 7.67863e-06)
(-0.000687988 -0.000420338 4.70331e-05)
(-0.000829626 -0.000475004 9.26467e-05)
(-0.0009677 -0.000509643 0.000137574)
(-0.00109418 -0.000527668 0.000175578)
(-0.00120391 -0.00053552 0.000202934)
(-0.00129669 -0.00054029 0.000219286)
(-0.00137557 -0.000546923 0.000226556)
(-0.00144424 -0.00055725 0.000227228)
(-0.00150663 -0.000571232 0.000223495)
(-0.00156575 -0.000588418 0.000216833)
(-0.00162306 -0.000607779 0.000207873)
(-0.00167901 -0.000628604 0.000196424)
(-0.00173377 -0.000650251 0.000182237)
(-0.00178645 -0.000671966 0.000163886)
(-0.00183877 -0.000693212 0.000141135)
(-0.00188599 -0.000712561 0.000111866)
(-0.00192749 -0.000728959 7.36354e-05)
(-0.00194958 -0.000738633 2.61573e-05)
(-0.000203853 -2.83825e-05 2.31519e-05)
(-0.000262453 -6.80168e-05 -4.54148e-05)
(-0.000280886 -0.000104488 -4.91632e-05)
(-0.000309558 -0.000153316 -4.39966e-05)
(-0.000372453 -0.000215643 -3.24243e-05)
(-0.000475163 -0.000288411 -1.26492e-05)
(-0.000608947 -0.000361542 1.85966e-05)
(-0.000755377 -0.000420576 5.91955e-05)
(-0.000901502 -0.000459972 0.000102621)
(-0.00103642 -0.000480921 0.000141778)
(-0.0011554 -0.000490183 0.000172164)
(-0.00125683 -0.000494761 0.000192319)
(-0.00134238 -0.000499824 0.000203307)
(-0.00141632 -0.000508041 0.000207362)
(-0.00148211 -0.000519609 0.00020652)
(-0.00154297 -0.0005343 0.000202299)
(-0.00160085 -0.000551227 0.000195452)
(-0.00165621 -0.000569645 0.000185819)
(-0.00170965 -0.000588956 0.000173265)
(-0.00176033 -0.000608378 0.000156309)
(-0.00181061 -0.000627348 0.000134957)
(-0.00185535 -0.000644581 0.00010716)
(-0.00189526 -0.000659275 7.06701e-05)
(-0.00191559 -0.000667852 2.52053e-05)
(-0.000158123 -1.06415e-05 2.54269e-05)
(-0.000214827 -4.52849e-05 -4.28304e-05)
(-0.000230215 -7.4572e-05 -4.7135e-05)
(-0.000247835 -0.00011238 -4.45448e-05)
(-0.000294317 -0.000162526 -3.91847e-05)
(-0.000388665 -0.000229541 -2.90325e-05)
(-0.000516702 -0.000300586 -7.70584e-06)
(-0.000666742 -0.000363949 2.61098e-05)
(-0.000819701 -0.000408307 6.65269e-05)
(-0.000964666 -0.00043367 0.00010622)
(-0.00109309 -0.000444774 0.000139317)
(-0.00120278 -0.000449088 0.000163265)
(-0.00129583 -0.000452762 0.00017835)
(-0.00137504 -0.000458689 0.00018612)
(-0.00144449 -0.000467774 0.000188538)
(-0.00150734 -0.000479972 0.000187082)
(-0.00156556 -0.00049441 0.000182555)
(-0.00161994 -0.000510426 0.000174879)
(-0.00167128 -0.000527342 0.00016402)
(-0.0017191 -0.000544435 0.000148468)
(-0.00176676 -0.00056119 0.000128547)
(-0.00180874 -0.000576501 0.000102281)
(-0.00184612 -0.000589373 6.75727e-05)
(-0.00186422 -0.000596885 2.42141e-05)
(-0.000105123 2.83294e-06 2.55445e-05)
(-0.000156826 -2.49687e-05 -3.76456e-05)
(-0.000170673 -4.76855e-05 -4.2614e-05)
(-0.000180784 -7.47897e-05 -3.85345e-05)
(-0.000225256 -0.000112037 -3.92266e-05)
(-0.000289766 -0.00016591 -4.18803e-05)
(-0.000414236 -0.000238675 -2.97775e-05)
(-0.000564648 -0.000304871 -4.97555e-06)
(-0.000725005 -0.000355642 3.07366e-05)
(-0.000877692 -0.000385396 6.95111e-05)
(-0.00101557 -0.000399211 0.00010471)
(-0.00113487 -0.000404204 0.000132473)
(-0.00123515 -0.000406536 0.000151774)
(-0.00132016 -0.000410331 0.000163619)
(-0.0013932 -0.000416844 0.000169603)
(-0.00145751 -0.000426389 0.000171132)
(-0.00151573 -0.00043832 0.000169127)
(-0.00156864 -0.000451964 0.000163545)
(-0.00161757 -0.00046666 0.000154487)
(-0.00166215 -0.000481632 0.000140391)
(-0.00170675 -0.000496327 0.000121934)
(-0.00174497 -0.000509712 9.72064e-05)
(-0.00178002 -0.000521066 6.43678e-05)
(-0.00179568 -0.000527655 2.31965e-05)
(-5.8123e-05 1.13331e-05 2.46544e-05)
(-0.000103649 -1.02122e-05 -3.29086e-05)
(-0.000120151 -2.63693e-05 -3.96405e-05)
(-0.000127752 -4.41345e-05 -5.07669e-05)
(-0.000132558 -9.05227e-05 -4.24341e-05)
(-0.00020595 -0.000119963 -2.80548e-05)
(-0.000301393 -0.000171199 -4.32791e-05)
(-0.000450788 -0.000243239 -3.12967e-05)
(-0.000613873 -0.000299128 -3.07614e-06)
(-0.000776443 -0.000336103 3.31114e-05)
(-0.00092433 -0.000354111 6.92997e-05)
(-0.00105196 -0.000360169 0.000100273)
(-0.00116022 -0.000361909 0.000123857)
(-0.00125068 -0.000363702 0.000139914)
(-0.00132745 -0.000367798 0.00014975)
(-0.00139357 -0.000374914 0.000154575)
(-0.00145152 -0.000384423 0.000155282)
(-0.00150246 -0.000395807 0.000151916)
(-0.00154808 -0.000408351 0.000144698)
(-0.00158847 -0.000421278 0.000132044)
(-0.00162916 -0.000434017 0.000115053)
(-0.00166356 -0.000445792 9.1931e-05)
(-0.001695 -0.000455515 6.09957e-05)
(-0.00170764 -0.000461234 2.21257e-05)
(-1.34723e-05 1.10157e-05 1.96161e-05)
(-4.10704e-05 1.59204e-06 -2.31532e-05)
(-5.84835e-05 -1.04079e-05 -4.23926e-05)
(-6.66739e-05 -3.66696e-05 -5.1972e-05)
(-6.27411e-05 -6.16178e-05 -3.46736e-05)
(-9.21675e-05 -7.15303e-05 -1.71211e-05)
(-0.000202362 -0.000114626 -3.52894e-05)
(-0.000329467 -0.000175776 -4.96297e-05)
(-0.000496705 -0.000242712 -3.2184e-05)
(-0.000663161 -0.000285508 -1.32287e-06)
(-0.000818547 -0.000308639 3.40986e-05)
(-0.000955745 -0.000317594 6.75391e-05)
(-0.00107093 -0.000319293 9.49963e-05)
(-0.00116719 -0.000319757 0.000115316)
(-0.00124736 -0.000321669 0.000129143)
(-0.00131422 -0.000326355 0.000137369)
(-0.0013714 -0.000333575 0.00014093)
(-0.00141985 -0.0003429 0.000139892)
(-0.00146179 -0.000353563 0.000134589)
(-0.00149765 -0.000364719 0.000123408)
(-0.00153425 -0.00037582 0.000107925)
(-0.0015636 -0.000386005 8.64006e-05)
(-0.00159203 -0.000394518 5.7484e-05)
(-0.00160168 -0.000399567 2.10185e-05)
(1.16079e-05 8.94594e-06 1.26547e-05)
(1.06015e-06 1.351e-06 -1.37045e-05)
(-1.14769e-05 -6.25809e-06 -2.53945e-05)
(-1.99392e-05 -1.91222e-05 -2.68358e-05)
(-3.55608e-05 -2.83888e-05 -2.73992e-05)
(-4.63686e-05 -3.65535e-05 -2.50265e-05)
(-8.00457e-05 -5.49112e-05 -2.44949e-05)
(-0.000215947 -0.000113811 -4.96056e-05)
(-0.000361707 -0.000175969 -5.30353e-05)
(-0.00053659 -0.000232412 -3.07649e-05)
(-0.000701364 -0.00026291 1.02153e-06)
(-0.000845487 -0.000275635 3.51756e-05)
(-0.000968076 -0.000278904 6.58692e-05)
(-0.00106896 -0.000278681 9.00852e-05)
(-0.00115233 -0.00027897 0.000107902)
(-0.0012205 -0.000281853 0.000119728)
(-0.00127658 -0.000287082 0.000126243)
(-0.00132184 -0.000294582 0.000127593)
(-0.00135916 -0.000303552 0.000124193)
(-0.00138947 -0.000313034 0.000114435)
(-0.00142096 -0.000322638 0.000100438)
(-0.00144546 -0.000331579 8.05901e-05)
(-0.00146927 -0.00033876 5.37307e-05)
(-0.00147509 -0.000343084 1.98243e-05)
(2.88952e-05 6.07368e-06 1.66053e-05)
(2.66539e-05 1.75968e-06 -3.13423e-06)
(1.55391e-05 -5.63677e-07 -3.18804e-06)
(-5.75225e-06 1.44344e-06 -6.33497e-06)
(-2.24711e-05 3.11928e-07 -1.72726e-05)
(-3.315e-05 -5.62389e-06 -3.14739e-05)
(-2.44171e-05 -2.05622e-05 -2.37777e-05)
(-8.04571e-05 -5.19765e-05 -2.92625e-05)
(-0.000257572 -0.000116525 -5.45053e-05)
(-0.000404909 -0.000173305 -5.45702e-05)
(-0.000572623 -0.00021559 -2.8279e-05)
(-0.000725135 -0.000234549 4.79622e-06)
(-0.000852607 -0.000240404 3.7395e-05)
(-0.000958211 -0.000240914 6.48848e-05)
(-0.00104413 -0.000240313 8.64261e-05)
(-0.00111147 -0.000241624 0.000101657)
(-0.00116564 -0.000245198 0.000111098)
(-0.00120721 -0.000251226 0.000114868)
(-0.00123957 -0.00025886 0.000113379)
(-0.00126437 -0.000266947 0.000105067)
(-0.00129063 -0.000275425 9.25901e-05)
(-0.0013091 -0.000283046 7.44096e-05)
(-0.00132943 -0.000289447 4.97671e-05)
(-0.001332 -0.000293253 1.85686e-05)
(4.20283e-05 1.25659e-05 2.91649e-05)
(4.89142e-05 5.80435e-06 -7.89264e-06)
(4.59299e-05 -1.83659e-06 -9.75876e-06)
(3.17705e-05 -1.15339e-05 -1.07141e-05)
(1.47534e-05 -1.46774e-05 -1.38986e-05)
(-1.34586e-06 -1.13666e-05 -2.0099e-05)
(-9.30627e-06 -9.9851e-06 -2.24331e-05)
(-2.52641e-05 -1.77768e-05 -2.52125e-05)
(-0.000105472 -7.06278e-05 -4.38962e-05)
(-0.000285504 -0.000119856 -5.18823e-05)
(-0.000440551 -0.000164957 -5.1855e-05)
(-0.00059452 -0.000192684 -2.22878e-05)
(-0.000727138 -0.000203394 1.08407e-05)
(-0.000834618 -0.000205646 4.03126e-05)
(-0.000922113 -0.000205179 6.4972e-05)
(-0.00098983 -0.000206137 8.35336e-05)
(-0.00104176 -0.000208614 9.5779e-05)
(-0.00107876 -0.000213503 0.000101889)
(-0.00110511 -0.000220014 0.000102183)
(-0.00112293 -0.000226494 9.51838e-05)
(-0.00114356 -0.000234165 8.42403e-05)
(-0.00115642 -0.000240599 6.78077e-05)
(-0.00117126 -0.000246072 4.54339e-05)
(-0.00116961 -0.00024905 1.71649e-05)
(5.45723e-05 1.43982e-05 3.33491e-05)
(6.85385e-05 7.766e-06 -1.10869e-05)
(7.20233e-05 1.10988e-06 -1.7618e-05)
(6.79702e-05 -9.65465e-06 -2.083e-05)
(5.78366e-05 -1.93071e-05 -2.19592e-05)
(4.18162e-05 -2.44159e-05 -2.04886e-05)
(2.01589e-05 -1.91137e-05 -2.27739e-05)
(-2.17803e-05 -1.86905e-05 -3.77907e-05)
(-5.75325e-05 -4.46441e-05 -4.86149e-05)
(-0.000142557 -7.69396e-05 -4.42893e-05)
(-0.00030519 -0.000117101 -5.42459e-05)
(-0.000462215 -0.000150034 -4.27354e-05)
(-0.000593833 -0.000166711 -1.23045e-05)
(-0.000703274 -0.000172776 1.75194e-05)
(-0.000791541 -0.000173676 4.43033e-05)
(-0.00085539 -0.000174549 6.54535e-05)
(-0.000903772 -0.000176393 8.01201e-05)
(-0.000935786 -0.000180579 8.84281e-05)
(-0.000956253 -0.000186379 9.04138e-05)
(-0.000968997 -0.000191579 8.4827e-05)
(-0.00098257 -0.000198457 7.5331e-05)
(-0.000989258 -0.00020331 6.0673e-05)
(-0.0010009 -0.000208786 4.07965e-05)
(-0.000995946 -0.000210832 1.56521e-05)
(6.61307e-05 1.31828e-05 3.4636e-05)
(8.56037e-05 6.39938e-06 -1.15432e-05)
(9.35541e-05 -4.91272e-07 -1.98699e-05)
(9.4635e-05 -1.15613e-05 -2.45872e-05)
(8.9404e-05 -2.25144e-05 -2.62441e-05)
(7.80366e-05 -3.07655e-05 -2.46079e-05)
(5.86142e-05 -3.156e-05 -1.92303e-05)
(2.92957e-05 -2.86828e-05 -1.62913e-05)
(-3.57309e-05 -5.26773e-06 -3.82139e-05)
(-7.52652e-05 -5.04455e-05 -4.87138e-05)
(-0.000177616 -7.11223e-05 -4.25767e-05)
(-0.000324016 -0.000104109 -5.41746e-05)
(-0.000459103 -0.000130578 -3.01055e-05)
(-0.000564058 -0.000140364 -2.51918e-06)
(-0.000650761 -0.000143892 2.48644e-05)
(-0.000713651 -0.000146488 4.80622e-05)
(-0.000758409 -0.00014845 6.46217e-05)
(-0.000784461 -0.000152152 7.47976e-05)
(-0.000797521 -0.000157293 7.80906e-05)
(-0.00080092 -0.000159545 7.35612e-05)
(-0.000810938 -0.000166992 6.57818e-05)
(-0.000811445 -0.000169147 5.29187e-05)
(-0.000816995 -0.000174964 3.5589e-05)
(-0.000808805 -0.000175283 1.39123e-05)
(7.25723e-05 1.20116e-05 3.5915e-05)
(9.66145e-05 5.63402e-06 -1.10836e-05)
(0.000107976 -7.72939e-07 -2.09632e-05)
(0.000112177 -1.19091e-05 -2.68939e-05)
(0.000110066 -2.38139e-05 -2.91736e-05)
(0.000102081 -3.37666e-05 -2.78152e-05)
(8.73171e-05 -4.04848e-05 -2.36858e-05)
(6.28484e-05 -3.42859e-05 -1.4897e-05)
(-2.49157e-06 -3.10979e-05 -2.39103e-05)
(-4.00552e-05 -1.02036e-05 -3.61905e-05)
(-6.94426e-05 -3.0393e-05 -3.30479e-05)
(-0.000211931 -6.17978e-05 -5.17534e-05)
(-0.000322188 -9.14047e-05 -4.19416e-05)
(-0.000426747 -0.000109118 -1.81929e-05)
(-0.000511598 -0.000116033 7.73384e-06)
(-0.00056527 -0.000119897 3.14834e-05)
(-0.000604234 -0.000122211 4.90445e-05)
(-0.000624301 -0.000125736 6.06525e-05)
(-0.000631902 -0.000130863 6.52058e-05)
(-0.000636063 -0.000131463 6.21555e-05)
(-0.000633193 -0.000137423 5.53857e-05)
(-0.000631213 -0.000137901 4.46197e-05)
(-0.000634505 -0.000144651 3.00736e-05)
(-0.000623195 -0.000143239 1.20011e-05)
(7.27558e-05 9.73438e-06 3.55228e-05)
(9.92109e-05 4.48949e-06 -9.34385e-06)
(0.000112049 -8.54369e-07 -2.00642e-05)
(0.000119117 -1.13869e-05 -2.69932e-05)
(0.000120103 -2.39144e-05 -3.00606e-05)
(0.000115402 -3.57111e-05 -2.90928e-05)
(0.000104597 -4.50124e-05 -2.41672e-05)
(8.65792e-05 -4.76852e-05 -1.45011e-05)
(5.03069e-05 -4.14866e-05 4.04064e-07)
(-2.57465e-05 6.25064e-06 -2.52712e-05)
(-3.6277e-05 -1.69803e-05 -4.31147e-05)
(-9.0164e-05 -3.62336e-05 -3.40626e-05)
(-0.000212574 -5.36524e-05 -3.9174e-05)
(-0.000287003 -7.01221e-05 -2.964e-05)
(-0.000369044 -8.79992e-05 -6.46429e-06)
(-0.0004211 -9.48432e-05 1.69392e-05)
(-0.000455485 -9.82109e-05 3.43261e-05)
(-0.000468119 -0.000100998 4.66318e-05)
(-0.000466588 -0.000105645 5.12763e-05)
(-0.000450402 -0.00010057 4.90649e-05)
(-0.000458602 -0.000108963 4.45616e-05)
(-0.0004349 -9.5628e-05 3.53841e-05)
(-0.000443312 -0.000113088 2.3745e-05)
(-0.000425541 -0.000102259 9.8328e-06)
(6.69675e-05 6.77631e-06 3.29455e-05)
(9.44517e-05 2.59242e-06 -6.87163e-06)
(0.000107985 -1.72439e-06 -1.72239e-05)
(0.000116342 -1.05735e-05 -2.45079e-05)
(0.000120605 -2.22798e-05 -2.86823e-05)
(0.000119669 -3.45122e-05 -2.91791e-05)
(0.000113203 -4.49213e-05 -2.58908e-05)
(9.96017e-05 -5.0851e-05 -1.89233e-05)
(7.354e-05 -4.74114e-05 -9.15642e-06)
(2.21353e-05 -3.73743e-05 -1.08435e-05)
(-1.37249e-05 -1.02226e-05 -3.63425e-05)
(-4.46778e-05 -2.5485e-05 -3.65472e-05)
(-9.42824e-05 -3.19642e-05 -2.55948e-05)
(-0.000212367 -3.29737e-05 -2.86662e-05)
(-0.000244681 -5.89535e-05 -1.78048e-05)
(-0.000277144 -6.66941e-05 3.95503e-06)
(-0.000302475 -7.19285e-05 2.00811e-05)
(-0.000309816 -7.09892e-05 3.24376e-05)
(-0.000309551 -7.92108e-05 3.92055e-05)
(-0.000318327 -5.45625e-05 3.87451e-05)
(-0.000286726 -7.31587e-05 3.32534e-05)
(-0.00033857 -3.41851e-05 2.75512e-05)
(-0.000287462 -7.61369e-05 1.738e-05)
(-0.000311382 -5.18225e-05 7.8953e-06)
(5.79768e-05 3.82323e-06 2.91245e-05)
(8.49888e-05 1.50265e-07 -4.57627e-06)
(9.85691e-05 -3.5428e-06 -1.34977e-05)
(0.000107635 -1.0918e-05 -2.01015e-05)
(0.000113666 -2.07197e-05 -2.46482e-05)
(0.000116597 -3.20935e-05 -2.65497e-05)
(0.000115047 -4.29033e-05 -2.52667e-05)
(0.000107689 -5.06646e-05 -2.09058e-05)
(9.09546e-05 -5.29697e-05 -1.46274e-05)
(5.94026e-05 -4.56807e-05 -1.00897e-05)
(2.22463e-05 -2.8542e-05 -1.15234e-05)
(-2.24268e-05 -7.98818e-07 -3.48191e-05)
(-4.92673e-05 -1.40614e-05 -4.46225e-05)
(-9.4071e-05 -7.77547e-05 -3.33562e-05)
(-0.000134695 -3.65486e-05 -5.75458e-06)
(-0.000176728 -3.65031e-05 -4.24609e-06)
(-0.000191115 -4.09785e-05 8.61169e-06)
(-0.00021045 -3.94063e-05 1.87788e-05)
(-0.00017125 -5.13362e-05 2.41266e-05)
(-0.000185803 -4.1062e-05 2.35011e-05)
(-0.00017792 -3.14735e-05 1.58226e-05)
(-0.000186035 -8.89049e-05 1.4419e-05)
(-0.00014286 -4.52738e-05 1.13028e-05)
(-0.000149066 -8.91205e-05 3.59333e-06)
(4.85336e-05 1.85942e-06 2.54665e-05)
(7.37036e-05 -1.92304e-06 -3.25512e-06)
(8.6466e-05 -5.6021e-06 -1.04137e-05)
(9.54794e-05 -1.19765e-05 -1.56666e-05)
(0.000102308 -2.01889e-05 -1.96416e-05)
(0.000107601 -2.97244e-05 -2.20462e-05)
(0.000110347 -3.96532e-05 -2.23215e-05)
(0.000108678 -4.79168e-05 -2.03432e-05)
(0.000100002 -5.26497e-05 -1.63733e-05)
(8.0389e-05 -5.23125e-05 -1.24637e-05)
(5.05298e-05 -3.79962e-05 -8.19539e-06)
(7.39519e-06 -1.87255e-05 -2.07757e-05)
(-4.30958e-05 -1.41825e-05 -4.68379e-05)
(-4.08063e-05 -3.52765e-05 -4.14064e-05)
(-5.45743e-05 -1.65379e-05 -1.52903e-05)
(-6.21188e-05 -3.01487e-05 -1.01922e-05)
(-7.41087e-05 -2.67395e-05 -3.61554e-06)
(-8.66874e-05 -5.80506e-05 6.70551e-06)
(-6.49669e-05 -2.36787e-05 4.07823e-06)
(-7.78438e-05 -4.80263e-05 7.83136e-06)
(-7.27704e-05 -5.40291e-05 -2.65208e-07)
(-8.98828e-05 -9.77125e-05 1.69612e-05)
(-5.2722e-05 -3.9589e-05 1.53579e-05)
(-5.79948e-05 -6.37038e-05 5.40608e-06)
(3.91676e-05 7.51671e-07 2.18078e-05)
(6.18755e-05 -3.41487e-06 -2.78234e-06)
(7.33986e-05 -7.49269e-06 -8.33255e-06)
(8.19412e-05 -1.34609e-05 -1.21288e-05)
(8.90379e-05 -2.06477e-05 -1.50134e-05)
(9.54821e-05 -2.85604e-05 -1.70818e-05)
(0.000101116 -3.68759e-05 -1.80688e-05)
(0.000103819 -4.4459e-05 -1.77363e-05)
(0.000101545 -5.01861e-05 -1.61588e-05)
(9.08335e-05 -5.25545e-05 -1.36228e-05)
(6.99884e-05 -4.76745e-05 -1.11314e-05)
(3.40943e-05 -3.27934e-05 -1.28166e-05)
(9.21244e-06 -2.64277e-05 -1.46723e-05)
(-3.38621e-05 3.83934e-05 -3.70785e-05)
(-2.14499e-05 -7.97515e-06 -2.90913e-05)
(-3.452e-05 -3.14626e-05 -2.16871e-05)
(-3.00237e-05 -2.70326e-05 -1.02059e-05)
(-3.97854e-05 -4.24391e-05 3.53621e-06)
(-1.74347e-05 -1.88295e-05 1.65312e-06)
(-3.25635e-05 -1.87894e-05 -5.78135e-07)
(-1.57574e-05 -3.92049e-05 5.41697e-06)
(-3.15682e-05 -1.1038e-05 2.05437e-05)
(-1.13082e-05 -2.93823e-05 1.36686e-05)
(-3.35438e-05 2.1166e-05 8.46788e-06)
(3.15003e-05 -5.01251e-08 1.84474e-05)
(5.1408e-05 -4.78039e-06 -2.82753e-06)
(6.14885e-05 -9.44473e-06 -7.02859e-06)
(6.93137e-05 -1.53778e-05 -9.52643e-06)
(7.6328e-05 -2.1995e-05 -1.127e-05)
(8.32579e-05 -2.88072e-05 -1.2632e-05)
(9.00439e-05 -3.54625e-05 -1.36596e-05)
(9.54936e-05 -4.18278e-05 -1.42177e-05)
(9.75832e-05 -4.71653e-05 -1.42302e-05)
(9.39088e-05 -5.10957e-05 -1.38322e-05)
(8.13949e-05 -5.07404e-05 -1.31358e-05)
(5.65926e-05 -4.39885e-05 -1.54033e-05)
(2.8081e-05 -3.04365e-05 -2.01121e-05)
(-1.58697e-05 -2.06114e-05 -2.56428e-05)
(-6.25495e-06 -9.9079e-06 -3.44509e-05)
(-7.35917e-06 1.41291e-06 -2.60628e-05)
(-7.9899e-06 -5.27794e-06 -1.55985e-05)