/*--------------------------------*- C++ -*----------------------------------*\
  =========                 |
  \\      /  F ield         | OpenFOAM: The Open Source CFD Toolbox
   \\    /   O peration     | Website:  https://openfoam.org
    \\  /    A nd           | Version:  6
     \\/     M anipulation  |
\*---------------------------------------------------------------------------*/
FoamFile
{
    version     2.0;
    format      ascii;
    class       volScalarField;
    location    "23";
    object      omega;
}
// * * * * * * * * * * * * * * * * * * * * * * * * * * * * * * * * * * * * * //

dimensions      [0 0 -1 0 0 0 0];

internalField   nonuniform List<scalar> 
380496
(
843.917
843.917
843.917
843.917
843.917
843.917
843.917
843.917
843.917
843.917
843.917
843.917
843.917
843.917
843.917
843.917
843.917
843.917
843.917
843.917
843.917
843.917
843.917
843.917
843.917
843.917
843.917
843.917
843.917
843.917
843.917
843.917
843.917
843.917
843.917
843.917
843.917
843.917
843.917
843.917
843.917
843.917
843.917
843.917
843.917
843.917
843.917
843.917
843.917
843.917
843.917
843.917
843.917
843.917
843.917
843.917
843.917
843.917
843.917
843.917
843.917
843.917
843.917
843.917
843.917
843.917
843.917
843.917
843.917
843.917
843.917
843.917
843.917
843.917
843.917
843.917
843.917
843.917
843.917
843.917
843.917
843.917
843.917
843.917
843.917
843.917
843.917
843.917
843.917
843.917
843.917
843.917
843.917
843.917
843.917
843.917
843.917
843.917
843.917
843.917
843.917
843.917
843.917
843.917
843.917
843.917
843.917
843.917
843.917
843.917
843.917
843.917
843.917
843.917
843.917
843.917
843.917
843.917
843.917
843.917
843.917
843.917
843.917
843.917
843.917
843.917
843.917
843.917
843.917
843.917
843.917
843.917
843.917
843.917
843.917
843.917
843.917
843.917
843.917
843.917
843.917
843.917
843.917
843.917
843.917
843.917
843.917
843.917
843.917
843.917
843.917
843.917
843.917
843.917
843.917
843.917
843.917
843.917
843.917
843.917
843.917
843.917
843.917
843.917
843.917
843.917
843.917
843.917
843.917
843.917
843.917
843.917
843.917
843.917
843.917
843.917
843.917
843.917
843.917
843.917
843.917
843.917
843.917
843.917
843.917
843.917
843.917
843.917
843.917
843.917
843.917
843.917
843.917
843.917
843.917
843.917
843.917
843.917
843.917
843.917
843.917
843.917
843.917
843.917
843.917
843.917
843.917
843.917
843.917
843.917
843.917
843.917
843.917
843.917
843.917
843.917
843.917
843.917
843.917
843.917
843.917
843.917
843.917
843.917
843.917
843.917
843.917
843.917
843.917
843.917
843.917
843.917
843.917
843.917
843.917
843.917
843.917
843.917
843.917
843.917
843.917
843.917
843.917
843.917
843.917
843.917
843.917
843.917
843.917
843.917
843.917
843.917
843.917
843.917
843.917
843.917
843.917
843.917
843.917
843.917
843.917
843.917
843.917
843.917
843.917
843.917
843.917
843.917
843.917
843.917
843.917
843.917
843.917
843.917
843.917
843.917
843.917
843.917
843.917
843.917
843.917
843.917
843.917
843.917
843.917
843.917
843.917
843.917
843.917
843.917
843.917
843.917
843.917
843.917
843.917
843.917
843.917
843.917
843.917
843.917
843.917
843.917
843.917
843.917
843.917
843.917
843.917
843.917
843.917
843.917
843.917
843.917
843.917
843.917
843.917
843.917
843.917
843.917
843.917
843.917
843.917
843.917
843.917
843.917
843.917
843.917
843.917
843.917
843.917
843.917
843.917
843.917
843.917
843.917
843.917
843.917
843.917
843.917
843.917
843.917
843.917
843.917
843.917
843.917
843.917
843.917
843.917
843.917
843.917
843.917
843.917
843.917
843.917
843.917
843.917
843.917
843.917
843.917
843.917
843.917
843.917
843.917
843.917
843.917
843.917
843.917
843.917
843.917
843.917
843.917
843.917
843.917
843.917
843.917
843.917
843.917
843.917
843.917
843.917
843.917
843.917
843.917
843.917
843.917
843.917
843.917
843.917
843.917
843.917
843.917
843.917
843.917
843.917
843.917
843.917
843.917
843.917
843.917
843.917
843.917
843.917
843.917
843.917
843.917
843.917
843.917
843.917
843.917
843.917
843.917
843.917
843.917
843.917
843.917
843.917
843.917
843.917
843.917
843.917
843.917
843.917
843.917
843.917
843.917
843.917
843.917
843.917
843.917
843.917
843.917
843.917
843.917
843.917
843.917
843.917
843.917
843.917
843.917
843.917
843.917
843.917
843.917
843.917
843.917
843.917
843.917
843.917
843.917
843.917
843.917
843.917
843.917
843.917
843.917
843.917
843.917
843.917
843.917
843.917
843.917
843.917
843.917
843.917
843.917
843.917
843.917
843.917
843.917
843.917
843.917
843.917
843.917
843.917
843.917
843.917
843.917
843.917
843.917
843.917
843.917
843.917
843.917
843.917
843.917
843.917
843.917
843.917
843.917
843.917
843.917
843.917
843.917
843.917
843.917
843.917
843.917
843.917
843.917
843.917
843.917
843.917
843.917
843.917
843.917
843.917
843.917
843.917
843.917
843.917
843.917
843.917
843.917
843.917
843.917
843.917
843.917
843.917
843.917
843.917
843.917
843.917
843.917
843.917
843.917
843.917
843.917
843.917
843.917
843.917
843.917
843.917
843.917
843.917
843.917
843.917
843.917
843.917
843.917
843.917
843.917
843.917
843.917
843.917
843.917
843.917
843.917
843.917
843.917
843.917
843.917
843.917
843.917
843.917
843.917
843.917
843.917
843.917
843.917
843.917
843.917
843.917
843.917
843.917
843.917
843.917
843.917
843.917
843.917
843.917
843.917
843.917
843.917
843.917
843.917
843.917
843.917
843.917
843.917
843.917
843.917
843.917
843.917
843.917
843.917
843.917
843.917
843.917
843.917
843.917
843.917
843.917
843.917
843.917
843.917
843.917
843.917
843.917
843.917
843.917
843.917
843.917
843.917
843.917
843.917
843.917
843.917
843.917
843.917
843.917
843.917
843.917
843.917
843.917
843.917
843.917
843.917
843.917
843.917
843.917
843.917
843.917
843.917
843.917
843.917
843.917
843.917
843.917
843.917
843.917
843.917
843.917
843.917
843.917
843.917
843.917
843.917
843.917
843.917
843.917
843.917
843.917
843.917
843.917
843.917
843.917
843.917
843.917
843.917
843.917
843.917
843.917
843.917
843.917
843.917
843.917
843.917
843.917
843.917
843.917
843.917
843.917
843.917
843.917
843.917
843.917
843.917
843.917
843.917
843.917
843.917
843.917
843.917
843.917
843.917
843.917
843.917
843.917
843.917
843.917
843.917
843.917
843.917
843.917
843.917
843.917
843.917
843.917
843.917
843.917
843.917
843.917
843.917
843.917
843.917
843.917
843.917
843.917
843.917
843.917
843.917
423.923
423.923
423.923
423.923
423.923
423.923
423.923
423.923
423.923
423.923
423.923
423.923
423.923
423.923
423.923
423.923
423.923
423.923
423.923
423.923
423.923
423.923
423.923
423.923
423.923
423.923
423.923
423.923
423.923
423.923
423.923
423.923
423.923
423.923
423.923
281.629
267.584
268.718
269.795
269.889
269.731
269.623
269.558
269.529
269.508
269.503
269.498
269.503
269.506
269.517
269.523
269.537
269.546
269.562
269.575
269.592
269.611
269.63
269.654
269.674
269.707
269.727
269.768
269.785
269.835
269.844
269.906
269.896
269.98
269.926
281.467
267.569
268.641
269.671
269.74
269.579
269.464
269.402
269.37
269.355
269.348
269.351
269.354
269.368
269.376
269.396
269.407
269.433
269.445
269.478
269.491
269.531
269.546
269.594
269.612
269.666
269.687
269.748
269.77
269.835
269.855
269.924
269.924
270.012
269.912
281.132
267.394
268.467
269.464
269.508
269.34
269.221
269.163
269.13
269.122
269.118
269.13
269.139
269.162
269.177
269.209
269.228
269.266
269.29
269.335
269.362
269.415
269.446
269.509
269.543
269.617
269.651
269.738
269.77
269.868
269.892
270.006
270.001
270.155
270.039
280.564
267.015
268.169
269.141
269.152
268.971
268.85
268.794
268.765
268.764
268.767
268.789
268.806
268.841
268.865
268.909
268.939
268.991
269.025
269.087
269.125
269.197
269.24
269.322
269.371
269.464
269.518
269.62
269.677
269.787
269.843
269.964
269.995
270.156
270.072
280.148
266.779
267.822
268.725
268.716
268.532
268.411
268.356
268.332
268.335
268.345
268.373
268.399
268.442
268.477
268.53
268.572
268.636
268.684
268.759
268.812
268.9
268.959
269.06
269.126
269.24
269.311
269.438
269.512
269.651
269.722
269.879
269.922
270.132
270.048
279.34
266.187
267.267
268.125
268.085
267.891
267.772
267.723
267.708
267.721
267.743
267.783
267.822
267.878
267.927
267.995
268.051
268.13
268.193
268.285
268.356
268.461
268.54
268.659
268.746
268.88
268.973
269.121
269.218
269.382
269.475
269.659
269.723
269.969
269.895
278.499
265.569
266.586
267.374
267.306
267.107
266.99
266.947
266.94
266.964
266.996
267.048
267.099
267.168
267.23
267.312
267.383
267.478
267.557
267.666
267.755
267.878
267.977
268.116
268.223
268.379
268.494
268.666
268.786
268.974
269.092
269.303
269.391
269.672
269.611
277.443
264.75
265.701
266.414
266.318
266.115
266.004
265.969
265.974
266.009
266.055
266.119
266.185
266.267
266.344
266.44
266.527
266.637
266.734
266.859
266.966
267.109
267.227
267.386
267.514
267.692
267.829
268.024
268.166
268.379
268.52
268.759
268.868
269.183
269.131
276.189
263.73
264.624
265.258
265.131
264.925
264.824
264.802
264.823
264.873
264.936
265.016
265.098
265.195
265.288
265.4
265.503
265.63
265.744
265.887
266.013
266.174
266.312
266.492
266.641
266.839
266.998
267.215
267.379
267.616
267.778
268.043
268.172
268.519
268.476
274.955
262.702
263.446
263.991
263.844
263.64
263.548
263.537
263.57
263.632
263.707
263.799
263.893
264.002
264.109
264.233
264.352
264.492
264.622
264.78
264.923
265.1
265.256
265.453
265.621
265.838
266.016
266.253
266.437
266.694
266.876
267.163
267.31
267.685
267.648
273.277
261.257
261.95
262.417
262.242
262.044
261.972
261.983
262.04
262.123
262.22
262.331
262.444
262.57
262.695
262.835
262.971
263.128
263.276
263.451
263.613
263.808
263.983
264.198
264.386
264.622
264.82
265.076
265.28
265.558
265.759
266.068
266.232
266.633
266.601
271.661
259.848
260.308
260.671
260.482
260.294
260.236
260.261
260.331
260.427
260.538
260.66
260.787
260.924
261.063
261.216
261.367
261.537
261.701
261.891
262.07
262.28
262.474
262.706
262.912
263.167
263.383
263.659
263.881
264.178
264.398
264.726
264.907
265.332
265.305
269.373
257.802
258.183
258.467
258.261
258.094
258.071
258.13
258.233
258.358
258.494
258.639
258.788
258.946
259.104
259.275
259.445
259.633
259.817
260.024
260.223
260.452
260.665
260.916
261.143
261.416
261.652
261.947
262.189
262.506
262.745
263.093
263.29
263.739
263.716
267.102
255.732
255.821
255.998
255.786
255.642
255.644
255.726
255.85
255.994
256.148
256.309
256.475
256.647
256.822
257.008
257.195
257.398
257.599
257.823
258.04
258.286
258.519
258.787
259.033
259.325
259.581
259.894
260.156
260.491
260.749
261.116
261.331
261.802
261.781
264.032
252.895
252.811
252.913
252.704
252.605
252.656
252.785
252.947
253.126
253.31
253.497
253.687
253.881
254.078
254.284
254.492
254.713
254.936
255.178
255.417
255.681
255.935
256.222
256.49
256.8
257.078
257.411
257.693
258.047
258.325
258.711
258.943
259.436
259.419
260.551
249.61
249.236
249.265
249.074
249.028
249.129
249.303
249.503
249.716
249.928
250.142
250.354
250.571
250.787
251.012
251.24
251.479
251.722
251.981
252.24
252.521
252.797
253.102
253.391
253.719
254.019
254.37
254.674
255.046
255.344
255.748
255.999
256.512
256.498
256.376
245.604
244.852
244.801
244.64
244.664
244.825
245.05
245.285
245.531
245.766
246.005
246.234
246.47
246.702
246.945
247.187
247.443
247.702
247.977
248.255
248.552
248.847
249.169
249.48
249.825
250.147
250.515
250.841
251.239
251.554
251.987
252.255
252.796
252.795
249.996
239.622
238.821
238.822
238.726
238.847
239.093
239.395
239.685
239.981
240.248
240.521
240.77
241.031
241.276
241.539
241.793
242.068
242.339
242.634
242.926
243.244
243.558
243.907
244.243
244.618
244.968
245.369
245.725
246.15
246.499
246.955
247.26
247.814
247.853
240.797
231.458
230.486
230.655
230.73
230.984
231.3
231.632
231.927
232.219
232.472
232.735
232.969
233.225
233.46
233.725
233.974
234.256
234.527
234.832
235.134
235.488
235.837
236.226
236.604
237.018
237.417
237.855
238.265
238.729
239.137
239.632
240.009
240.586
240.743
214.294
212.128
212.386
213.314
213.954
214.696
215.424
216.103
216.709
217.284
217.805
218.32
218.797
219.283
219.74
220.217
220.67
221.149
221.606
222.094
222.561
223.062
223.542
224.054
224.546
225.067
225.569
226.092
226.601
227.118
227.627
228.128
228.63
229.064
229.727
9.02159
7.66365
7.59134
7.55865
7.61167
7.68408
7.77647
7.86912
7.97135
8.06492
8.16345
8.25072
8.34265
8.42321
8.50992
8.58569
8.66953
8.74243
8.82557
8.8968
8.98112
9.05096
9.13799
9.20552
9.29701
9.35995
9.45839
9.51261
9.62202
9.66048
9.7874
9.79759
9.95312
9.90684
10.1099
135.248
128.879
128.551
129.044
129.242
129.237
129.186
129.139
129.105
129.08
129.062
129.051
129.045
129.043
129.044
129.048
129.054
129.063
129.073
129.087
129.102
129.119
129.14
129.162
129.19
129.217
129.253
129.284
129.332
129.367
129.431
129.467
129.553
129.588
129.709
135.076
128.679
128.312
128.78
128.966
128.955
128.902
128.853
128.817
128.793
128.776
128.767
128.763
128.763
128.767
128.774
128.784
128.797
128.812
128.829
128.851
128.872
128.9
128.926
128.961
128.993
129.036
129.074
129.126
129.171
129.232
129.288
129.346
129.439
129.44
134.794
128.386
128.004
128.459
128.634
128.62
128.563
128.514
128.479
128.456
128.442
128.436
128.436
128.441
128.45
128.462
128.478
128.497
128.519
128.543
128.572
128.602
128.638
128.673
128.717
128.757
128.813
128.857
128.925
128.973
129.056
129.108
129.201
129.275
129.338
134.361
127.975
127.612
128.063
128.228
128.206
128.146
128.097
128.063
128.043
128.033
128.031
128.036
128.047
128.061
128.08
128.102
128.128
128.157
128.188
128.224
128.261
128.305
128.348
128.401
128.45
128.512
128.568
128.64
128.702
128.785
128.856
128.938
129.042
129.075
134.043
127.65
127.238
127.652
127.8
127.771
127.707
127.656
127.621
127.601
127.593
127.594
127.602
127.616
127.635
127.658
127.685
127.716
127.751
127.788
127.831
127.875
127.926
127.976
128.037
128.094
128.165
128.228
128.31
128.378
128.473
128.549
128.645
128.752
128.801
133.489
127.122
126.72
127.121
127.255
127.217
127.15
127.098
127.065
127.05
127.046
127.053
127.066
127.087
127.112
127.143
127.177
127.214
127.256
127.301
127.351
127.403
127.462
127.521
127.589
127.655
127.734
127.806
127.896
127.973
128.074
128.159
128.259
128.378
128.425
132.924
126.585
126.159
126.528
126.642
126.593
126.521
126.469
126.437
126.424
126.424
126.436
126.454
126.48
126.511
126.547
126.588
126.632
126.68
126.733
126.79
126.849
126.915
126.982
127.058
127.132
127.219
127.299
127.397
127.482
127.591
127.685
127.789
127.921
127.968
132.248
125.942
125.496
125.831
125.922
125.862
125.786
125.733
125.703
125.694
125.699
125.715
125.74
125.772
125.808
125.851
125.897
125.948
126.003
126.063
126.127
126.194
126.267
126.342
126.425
126.507
126.601
126.689
126.794
126.888
127.003
127.106
127.214
127.356
127.401
131.463
125.209
124.747
125.046
125.111
125.039
124.959
124.906
124.881
124.877
124.888
124.912
124.943
124.982
125.025
125.075
125.128
125.186
125.248
125.315
125.386
125.461
125.541
125.624
125.715
125.804
125.906
126.002
126.114
126.216
126.336
126.448
126.559
126.712
126.756
130.701
124.496
123.978
124.225
124.264
124.18
124.097
124.045
124.022
124.022
124.038
124.066
124.102
124.146
124.195
124.25
124.309
124.373
124.441
124.514
124.591
124.672
124.759
124.849
124.946
125.043
125.15
125.253
125.371
125.48
125.606
125.725
125.839
126.002
126.042
129.711
123.569
123.042
123.253
123.264
123.168
123.083
123.035
123.02
123.028
123.053
123.09
123.134
123.186
123.243
123.306
123.372
123.443
123.519
123.598
123.683
123.771
123.865
123.962
124.066
124.171
124.285
124.396
124.52
124.636
124.767
124.894
125.012
125.185
125.222
128.745
122.677
122.06
122.199
122.176
122.068
121.981
121.935
121.924
121.937
121.967
122.009
122.059
122.117
122.18
122.248
122.32
122.397
122.479
122.565
122.656
122.751
122.852
122.955
123.066
123.177
123.298
123.416
123.547
123.67
123.806
123.941
124.061
124.244
124.278
127.448
121.46
120.82
120.916
120.863
120.744
120.66
120.624
120.624
120.649
120.691
120.744
120.805
120.872
120.944
121.021
121.101
121.187
121.276
121.37
121.469
121.572
121.681
121.792
121.911
122.03
122.158
122.283
122.421
122.552
122.694
122.836
122.961
123.154
123.184
126.136
120.248
119.484
119.491
119.399
119.269
119.187
119.156
119.164
119.198
119.249
119.31
119.379
119.454
119.533
119.617
119.705
119.798
119.895
119.997
120.103
120.214
120.33
120.449
120.575
120.702
120.838
120.971
121.116
121.254
121.403
121.553
121.681
121.885
121.911
124.43
118.648
117.81
117.753
117.627
117.491
117.418
117.403
117.427
117.477
117.541
117.616
117.697
117.783
117.873
117.967
118.064
118.166
118.272
118.383
118.498
118.617
118.742
118.87
119.004
119.14
119.284
119.426
119.578
119.725
119.881
120.04
120.173
120.388
120.41
122.481
116.821
115.841
115.7
115.536
115.397
115.335
115.336
115.377
115.443
115.522
115.61
115.703
115.801
115.901
116.005
116.112
116.223
116.337
116.456
116.58
116.708
116.841
116.978
117.12
117.265
117.417
117.567
117.728
117.883
118.047
118.214
118.353
118.58
118.597
120.129
114.623
113.443
113.185
112.974
112.835
112.79
112.812
112.871
112.953
113.046
113.146
113.248
113.354
113.462
113.574
113.687
113.805
113.927
114.054
114.185
114.321
114.462
114.607
114.758
114.911
115.072
115.231
115.401
115.566
115.742
115.919
116.069
116.31
116.33
116.507
111.184
110.004
109.759
109.547
109.425
109.403
109.449
109.526
109.626
109.729
109.84
109.949
110.065
110.179
110.298
110.419
110.546
110.675
110.811
110.951
111.097
111.249
111.408
111.573
111.742
111.92
112.096
112.284
112.465
112.658
112.85
113.019
113.272
113.311
111.045
106.318
104.833
104.498
104.271
104.174
104.176
104.246
104.339
104.458
104.576
104.709
104.837
104.978
105.115
105.264
105.411
105.571
105.729
105.9
106.076
106.257
106.441
106.631
106.826
107.027
107.233
107.44
107.657
107.869
108.093
108.315
108.525
108.795
108.91
95.737
95.7828
94.6636
94.3732
94.1683
94.1451
94.2616
94.4605
94.6943
94.9537
95.2156
95.487
95.7527
96.0247
96.2895
96.5607
96.8253
97.0968
97.363
97.6364
97.9055
98.1819
98.4554
98.7355
99.0133
99.2964
99.5774
99.8621
100.144
100.428
100.709
100.983
101.276
101.502
101.884
11.4422
9.87618
9.84159
9.8862
10.0026
10.1261
10.2622
10.3901
10.5241
10.6438
10.767
10.8746
10.9866
11.0837
11.1875
11.2774
11.3765
11.4618
11.559
11.6416
11.7394
11.8198
11.9202
11.9975
12.1024
12.1744
12.2868
12.3489
12.4731
12.5181
12.661
12.6769
12.8486
12.8132
13.0226
79.7826
77.2363
76.6743
76.7666
76.8928
76.9374
76.9319
76.9104
76.8856
76.8647
76.8463
76.833
76.8218
76.815
76.8096
76.8078
76.8069
76.809
76.8119
76.8171
76.8238
76.8314
76.8424
76.8518
76.8682
76.8785
76.9022
76.912
76.9461
76.9528
77.0024
77.0027
77.075
77.0623
77.1755
79.595
77.0489
76.4703
76.5473
76.6651
76.704
76.6956
76.6712
76.6456
76.623
76.6054
76.5912
76.5821
76.5748
76.5726
76.5704
76.5739
76.5752
76.5837
76.5878
76.6012
76.6076
76.626
76.6345
76.6582
76.669
76.6983
76.712
76.7468
76.7649
76.8031
76.832
76.8621
76.9196
76.9189
79.3539
76.8067
76.2184
76.2863
76.3984
76.4332
76.4222
76.3957
76.3694
76.3462
76.3294
76.3159
76.3087
76.3031
76.3035
76.3037
76.3103
76.3147
76.3267
76.3344
76.3518
76.362
76.3853
76.3971
76.4276
76.44
76.4793
76.491
76.5416
76.5513
76.6147
76.6237
76.6962
76.7136
76.7866
79.0384
76.4932
75.9088
75.976
76.0844
76.1148
76.1006
76.072
76.045
76.022
76.0064
75.9944
75.9897
75.9863
75.99
75.9928
76.0033
76.0106
76.027
76.0377
76.0598
76.0735
76.1014
76.1177
76.1518
76.1707
76.2114
76.2328
76.2807
76.3051
76.3592
76.39
76.4425
76.4922
76.5292
78.7525
76.218
75.6162
75.6638
75.7589
75.7812
75.7616
75.7295
75.7001
75.676
75.6598
75.6483
75.6442
75.6423
75.6475
75.6524
75.6649
75.6748
75.6937
75.7074
75.7325
75.7493
75.7809
75.8003
75.839
75.8604
75.9071
75.9298
75.9857
76.0091
76.0743
76.1009
76.1684
76.2099
76.2673
78.3535
75.8243
75.2268
75.2704
75.3583
75.3741
75.3498
75.315
75.2845
75.2606
75.2456
75.236
75.2344
75.2352
75.2435
75.2516
75.2675
75.281
75.3034
75.321
75.3497
75.3708
75.406
75.4299
75.4723
75.4983
75.5489
75.576
75.6358
75.6634
75.7322
75.7627
75.8327
75.878
75.9365
77.928
75.4143
74.8114
74.8406
74.915
74.921
74.8901
74.8515
74.8189
74.7945
74.78
74.7718
74.7718
74.7749
74.7855
74.7965
74.815
74.8316
74.857
74.878
74.91
74.9346
74.9734
75.0009
75.0471
75.0769
75.1312
75.1623
75.2256
75.2573
75.3293
75.3642
75.4364
75.4864
75.5466
77.4333
74.9366
74.3307
74.3452
74.4048
74.3997
74.3616
74.3188
74.2843
74.2596
74.2458
74.2393
74.2413
74.2471
74.2602
74.2742
74.2957
74.3155
74.3441
74.3685
74.4039
74.4321
74.4745
74.5057
74.5556
74.589
74.6472
74.6818
74.749
74.784
74.8594
74.8977
74.9723
75.0258
75.0868
76.8736
74.4024
73.7984
73.7987
73.8419
73.8242
73.778
73.7312
73.6951
73.6709
73.6586
73.6545
73.6592
73.6681
73.6843
73.7017
73.7263
73.7497
73.7815
73.8096
73.8483
73.8802
73.9261
73.9611
74.0145
74.0517
74.1135
74.1517
74.2224
74.261
74.3395
74.3814
74.458
74.5155
74.5774
76.3104
73.8744
73.2586
73.2338
73.256
73.2244
73.1701
73.1191
73.0812
73.057
73.0456
73.0432
73.0499
73.0613
73.0798
73.1
73.1273
73.1537
73.1883
73.2195
73.2611
73.2963
73.3452
73.3836
73.4402
73.4807
73.5457
73.5872
73.661
73.7027
73.784
73.8291
73.9075
73.9686
74.0306
75.627
73.223
72.6138
72.5758
72.58
72.5342
72.4716
72.4171
72.3788
72.3563
72.3476
72.3486
72.3588
72.3741
72.3962
72.4203
72.451
72.4813
72.5193
72.5544
72.5994
72.6384
72.6908
72.7328
72.7929
72.8371
72.9056
72.9506
73.0278
73.0728
73.1571
73.2057
73.2859
73.3511
73.4133
74.9228
72.5725
71.9392
71.8627
71.8372
71.7734
71.7015
71.6429
71.6035
71.5818
71.5748
71.5783
71.5911
71.6094
71.6344
71.6617
71.6954
71.729
71.7701
71.8086
71.8569
71.8994
71.955
72.0008
72.0642
72.112
72.1839
72.2324
72.3129
72.3614
72.4486
72.5007
72.5829
72.6522
72.7142
74.0388
71.7346
71.1047
71.0099
70.9616
70.8813
70.8013
70.7404
70.7023
70.684
70.6811
70.6894
70.7068
70.7298
70.7592
70.7912
70.829
70.867
70.9121
70.955
71.0071
71.054
71.1135
71.1634
71.2307
71.2826
71.3584
71.4108
71.4952
71.5473
71.6381
71.694
71.7784
71.8525
71.9146
73.1016
70.8711
70.2029
70.0569
69.9705
69.8687
69.7792
69.7154
69.6781
69.6625
69.6633
69.6758
69.6973
69.7248
69.7583
69.7947
69.8365
69.8789
69.9279
69.9752
70.0312
70.0824
70.1458
70.2001
70.2714
70.3276
70.4073
70.4639
70.5523
70.6084
70.7029
70.7628
70.8498
70.9288
70.9906
71.9316
69.7755
69.09
68.9085
68.7891
68.6674
68.5704
68.5062
68.4724
68.462
68.4686
68.487
68.5143
68.5474
68.5862
68.6279
68.6745
68.7221
68.7754
68.8277
68.888
68.9442
69.0118
69.071
69.1465
69.2074
69.2914
69.3525
69.4453
69.5057
69.6044
69.6686
69.7588
69.8435
69.9058
70.5749
68.512
67.7779
67.5408
67.3793
67.2352
67.1302
67.0658
67.0359
67.0309
67.0439
67.0684
67.1018
67.1407
67.1848
67.2317
67.2829
67.3354
67.3929
67.45
67.5141
67.5751
67.6464
67.7106
67.7899
67.8558
67.9438
68.0097
68.1068
68.1717
68.275
68.3434
68.4377
68.5273
68.5905
68.9304
66.9873
66.1749
65.8557
65.6365
65.4652
65.3525
65.2887
65.263
65.2626
65.2804
65.3087
65.3458
65.3875
65.4344
65.4836
65.5373
65.5923
65.6524
65.7128
65.7797
65.8448
65.9193
65.9882
66.0711
66.1421
66.2349
66.305
66.4093
66.476
66.5891
66.6584
66.7626
66.857
66.9248
66.5752
64.6698
63.8504
63.5268
63.2885
63.1022
62.9816
62.9127
62.8835
62.8794
62.8944
62.9194
62.9547
62.9944
63.0417
63.0912
63.1474
63.205
63.2694
63.3343
63.4071
63.4784
63.5604
63.636
63.7275
63.806
63.9084
63.9871
64.1013
64.1777
64.3015
64.3792
64.4971
64.5958
64.6818
63.0741
61.5357
60.4582
59.9531
59.6042
59.3614
59.2139
59.1336
59.1032
59.1042
59.1304
59.1701
59.2247
59.2852
59.357
59.4312
59.5153
59.6
59.6941
59.7876
59.8929
59.9924
60.1002
60.2022
60.3156
60.421
60.5422
60.6481
60.7794
60.8812
61.0222
61.1206
61.2624
61.3715
61.5011
55.4843
57.2199
56.1492
55.3618
54.7638
54.3539
54.1163
53.9925
53.9549
53.965
54.0172
54.0867
54.1803
54.2778
54.3922
54.5041
54.6305
54.7507
54.8848
55.0109
55.1505
55.2811
55.4251
55.5604
55.7078
55.8479
55.9973
56.1418
56.2919
56.4386
56.5915
56.7307
56.903
57.0047
57.2466
13.0137
11.4073
11.4205
11.5495
11.7339
11.9071
12.0813
12.2359
12.3913
12.5261
12.6623
12.7788
12.8995
13.002
13.1118
13.2049
13.3084
13.3956
13.4961
13.5797
13.6802
13.761
13.8635
13.9409
14.0479
14.1198
14.234
14.2964
14.4221
14.4684
14.6115
14.6319
14.7999
14.7797
14.9741
52.8625
51.8611
51.4543
51.3867
51.4238
51.4588
51.4691
51.4645
51.4508
51.4367
51.4214
51.409
51.397
51.3884
51.3802
51.3751
51.3702
51.3679
51.3661
51.3656
51.367
51.3674
51.3723
51.3728
51.3821
51.3812
51.3966
51.3924
51.4165
51.4061
51.4432
51.4228
51.4794
51.4419
51.5315
52.6912
51.7
51.2904
51.2151
51.247
51.2772
51.2853
51.2774
51.2631
51.2465
51.2318
51.2176
51.2074
51.1969
51.1916
51.1844
51.1836
51.1788
51.1821
51.1787
51.186
51.1836
51.1947
51.193
51.2077
51.2068
51.2249
51.2252
51.2458
51.2492
51.2693
51.2813
51.2927
51.3224
51.3174
52.4926
51.5063
51.0938
51.0134
51.0419
51.0686
51.0746
51.0642
51.0487
51.0305
51.0157
51.0007
50.9912
50.9807
50.9766
50.97
50.9707
50.967
50.972
50.9701
50.9796
50.9783
50.9928
50.991
51.0114
51.0078
51.0354
51.0288
51.0648
51.0543
51.0997
51.086
51.1393
51.1237
51.189
52.255
51.2695
50.8585
50.778
50.8053
50.8298
50.8335
50.8208
50.804
50.7847
50.7698
50.7546
50.746
50.736
50.7336
50.7277
50.7308
50.7279
50.7357
50.7348
50.7472
50.7476
50.7645
50.7658
50.787
50.789
50.8146
50.8173
50.8472
50.8511
50.8843
50.8914
50.9241
50.9377
50.9703
52.0124
51.0413
50.628
50.5392
50.5583
50.5762
50.5748
50.5584
50.5388
50.5176
50.5013
50.4856
50.4765
50.4668
50.4646
50.4596
50.4632
50.4615
50.4704
50.4707
50.4847
50.4862
50.5053
50.5074
50.5318
50.5338
50.564
50.5652
50.602
50.6019
50.645
50.6453
50.6914
50.695
50.7452
51.7113
50.7439
50.3342
50.2453
50.2614
50.2754
50.27
50.2505
50.2286
50.206
50.1891
50.1733
50.1648
50.1558
50.1548
50.151
50.1562
50.156
50.1667
50.169
50.1847
50.1885
50.2093
50.2139
50.2402
50.2446
50.2772
50.2805
50.3199
50.3216
50.3676
50.3692
50.4181
50.4223
50.4753
51.3809
50.4249
50.0172
49.9237
49.9327
49.9397
49.9284
49.9046
49.8795
49.8551
49.837
49.8208
49.8123
49.8039
49.8036
49.8009
49.8072
49.8084
49.8204
49.8242
49.8415
49.8469
49.8695
49.8758
49.9041
49.9103
49.9449
49.9501
49.9915
49.9952
50.0431
50.0468
50.0974
50.1036
50.1585
51.0013
50.0572
49.6536
49.5561
49.5573
49.5564
49.5384
49.5097
49.481
49.4546
49.4352
49.4189
49.4105
49.4029
49.4034
49.4019
49.4094
49.4122
49.4257
49.4312
49.4502
49.4574
49.482
49.49
49.5205
49.5283
49.5654
49.5721
49.6161
49.6212
49.6716
49.6766
49.7295
49.7367
49.7935
50.5804
49.6503
49.254
49.1536
49.1468
49.137
49.1114
49.0773
49.045
49.0166
48.9962
48.9799
48.9718
48.9653
48.9667
48.9668
48.9756
48.98
48.995
49.0023
49.0229
49.032
49.0584
49.0683
49.1007
49.1104
49.1495
49.158
49.2042
49.2109
49.2635
49.2699
49.3249
49.3333
49.3921
50.1474
49.2387
48.8457
48.7368
48.7176
48.6968
48.6628
48.6231
48.5872
48.5569
48.5355
48.5192
48.5114
48.5058
48.5081
48.5095
48.5195
48.5255
48.5418
48.5508
48.573
48.5838
48.6119
48.6235
48.6578
48.6692
48.7103
48.7204
48.7687
48.7769
48.8315
48.8394
48.896
48.9058
48.9659
49.6404
48.7497
48.3679
48.258
48.2302
48.1992
48.1566
48.1111
48.0714
48.0394
48.0172
48.0014
47.9942
47.9899
47.9935
47.9966
48.0081
48.016
48.0339
48.0449
48.0688
48.0816
48.1115
48.1251
48.1613
48.1746
48.2177
48.2296
48.28
48.2899
48.3466
48.3561
48.4145
48.4258
48.4874
49.0985
48.2406
47.8588
47.7334
47.6866
47.64
47.5867
47.5348
47.4914
47.4579
47.4353
47.4201
47.4137
47.411
47.4158
47.4209
47.4339
47.4438
47.4634
47.4764
47.5021
47.517
47.5487
47.5644
47.6027
47.6179
47.6633
47.677
47.7297
47.7413
47.8002
47.8114
47.8716
47.8847
47.9476
48.4419
47.6138
47.2452
47.1169
47.058
46.9982
46.9347
46.8763
46.8292
46.7943
46.7714
46.7571
46.7519
46.751
46.7575
46.7647
46.7795
46.7917
46.8132
46.8286
46.8562
46.8735
46.9073
46.9252
46.9657
46.9832
47.0309
47.0466
47.1018
47.1153
47.1767
47.1897
47.2521
47.267
47.3317
47.7237
46.9426
46.5697
46.4186
46.3339
46.254
46.178
46.1126
46.0623
46.0266
46.0042
45.9915
45.988
45.9895
45.998
46.0079
46.0247
46.0398
46.0633
46.0815
46.1112
46.1312
46.1672
46.1878
46.2306
46.2506
46.3008
46.3188
46.3767
46.3922
46.4564
46.4714
46.5361
46.5531
46.6195
46.846
46.1179
45.7528
45.5891
45.4831
45.3842
45.2955
45.2228
45.1691
45.1324
45.1104
45.0991
45.0972
45.1009
45.1113
45.1238
45.1425
45.1603
45.1856
45.2066
45.2381
45.261
45.2989
45.3223
45.3671
45.3897
45.4423
45.4627
45.5233
45.5409
45.608
45.625
45.6925
45.7116
45.7807
45.8228
45.1593
44.7867
44.5957
44.4587
44.3356
44.2323
44.1514
44.0942
44.0563
44.035
44.025
44.0248
44.0305
44.0427
44.0575
44.0777
44.0979
44.1245
44.148
44.1807
44.2062
44.2453
44.2715
44.3178
44.3432
44.3976
44.4207
44.4837
44.5036
44.5738
44.5924
44.6636
44.6839
44.7567
44.58
44.0028
43.6097
43.3738
43.1918
43.0366
42.9155
42.8242
42.7624
42.7213
42.6987
42.6869
42.6859
42.6903
42.7017
42.7156
42.7352
42.7552
42.7814
42.8059
42.8384
42.866
42.9054
42.9345
42.9817
43.0102
43.0668
43.0922
43.1596
43.1804
43.2562
43.2758
43.3523
43.3754
43.4532
43.0293
42.415
41.9894
41.732
41.5223
41.339
41.196
41.0848
41.0082
40.9522
40.9191
40.8961
40.8884
40.8851
40.8931
40.9029
40.9218
40.941
40.9686
40.9948
41.0302
41.0615
41.1048
41.1389
41.1901
41.2246
41.2852
41.3177
41.3889
41.4176
41.4983
41.5243
41.6087
41.6353
41.7242
40.8418
40.528
39.9111
39.4667
39.1199
38.8462
38.6493
38.5038
38.4106
38.3447
38.3127
38.2919
38.295
38.3007
38.325
38.3473
38.3855
38.4194
38.4674
38.5096
38.5662
38.6148
38.6746
38.7254
38.7891
38.8414
38.9109
38.9624
39.0401
39.0876
39.1734
39.216
39.308
39.3475
39.4494
37.8608
40.6879
39.8747
38.9228
38.1222
37.5067
37.0703
36.7572
36.5495
36.4016
36.3142
36.2521
36.2285
36.2124
36.2246
36.2346
36.2681
36.294
36.3409
36.3773
36.433
36.4771
36.5387
36.5895
36.6551
36.7124
36.78
36.8433
36.9123
36.9793
37.0529
37.1145
37.2072
37.2434
37.3882
14.2727
12.6912
12.7702
12.9816
13.2324
13.4516
13.6594
13.8354
14.007
14.151
14.2951
14.4149
14.5392
14.6421
14.7533
14.8449
14.9484
15.0331
15.1328
15.2131
15.3123
15.3893
15.4902
15.5637
15.6685
15.7368
15.8484
15.908
16.0301
16.0756
16.2129
16.2368
16.3943
16.3868
16.5633
37.6239
37.2103
36.9819
36.8887
36.8737
36.8849
36.8932
36.8951
36.8889
36.8808
36.8698
36.8601
36.8495
36.8412
36.8325
36.8262
36.8198
36.8151
36.8112
36.8073
36.8061
36.8023
36.8042
36.7994
36.8053
36.7979
36.8091
36.7972
36.816
36.7969