/*--------------------------------*- C++ -*----------------------------------*\
  =========                 |
  \\      /  F ield         | OpenFOAM: The Open Source CFD Toolbox
   \\    /   O peration     | Website:  https://openfoam.org
    \\  /    A nd           | Version:  6
     \\/     M anipulation  |
\*---------------------------------------------------------------------------*/
FoamFile
{
    version     2.0;
    format      ascii;
    class       volScalarField;
    location    "23";
    object      p;
}
// * * * * * * * * * * * * * * * * * * * * * * * * * * * * * * * * * * * * * //

dimensions      [0 2 -2 0 0 0 0];

internalField   nonuniform List<scalar> 
380496
(
0.0128272
0.01318
0.0129404
0.0128729
0.0128266
0.0127781
0.0127334
0.0126887
0.0126433
0.0125979
0.0125524
0.012507
0.0124619
0.0124171
0.0123725
0.0123283
0.012284
0.0122396
0.0121946
0.0121487
0.0121014
0.0120523
0.0120006
0.0119458
0.0118872
0.011824
0.0117557
0.0116813
0.0116007
0.0115122
0.0114173
0.0113124
0.0112048
0.0110811
0.0109742
0.0128044
0.0131482
0.0129197
0.0128578
0.0128153
0.0127694
0.0127259
0.012681
0.0126346
0.0125873
0.0125391
0.0124903
0.0124412
0.0123917
0.012342
0.0122918
0.0122412
0.0121897
0.0121372
0.0120832
0.0120274
0.0119691
0.011908
0.0118433
0.0117746
0.0117011
0.0116225
0.0115376
0.0114467
0.0113478
0.0112429
0.0111261
0.0110082
0.0108623
0.0107445
0.0127779
0.0131152
0.0128972
0.0128414
0.0128031
0.0127598
0.0127172
0.012672
0.0126242
0.0125745
0.0125231
0.0124704
0.0124167
0.0123619
0.0123063
0.0122495
0.0121917
0.0121324
0.0120714
0.0120083
0.0119427
0.011874
0.011802
0.0117259
0.0116453
0.0115595
0.0114682
0.0113705
0.0112667
0.0111549
0.0110379
0.0109088
0.0107818
0.0106255
0.0105072
0.012744
0.0130785
0.0128732
0.0128249
0.0127919
0.0127519
0.0127107
0.0126655
0.0126166
0.0125648
0.0125106
0.0124544
0.0123966
0.0123372
0.0122764
0.0122139
0.0121498
0.0120838
0.0120156
0.0119448
0.0118712
0.0117941
0.0117133
0.0116281
0.0115383
0.0114431
0.0113425
0.0112355
0.0111226
0.0110018
0.0108761
0.0107379
0.0106031
0.0104355
0.0103111
0.0127129
0.0130383
0.0128486
0.0128089
0.0127813
0.0127446
0.0127048
0.0126594
0.0126091
0.012555
0.0124978
0.0124379
0.0123758
0.0123116
0.0122453
0.012177
0.0121065
0.0120336
0.0119581
0.0118795
0.0117976
0.0117119
0.0116223
0.0115279
0.0114287
0.011324
0.0112139
0.0110973
0.0109751
0.010845
0.0107109
0.0105642
0.0104229
0.0102477
0.0101219
0.0126696
0.0129945
0.0128225
0.0127929
0.0127719
0.0127391
0.0127008
0.0126553
0.0126038
0.0125476
0.0124875
0.0124242
0.0123581
0.0122894
0.0122182
0.0121446
0.0120684
0.0119893
0.0119073
0.0118218
0.0117329
0.0116398
0.0115425
0.0114404
0.0113335
0.011221
0.0111031
0.010979
0.0108495
0.0107124
0.0105717
0.0104185
0.0102719
0.0100898
0.0099616
0.0126247
0.0129471
0.0127959
0.0127777
0.0127639
0.0127352
0.0126984
0.0126527
0.0125999
0.0125414
0.0124783
0.0124115
0.0123414
0.0122682
0.0121923
0.0121134
0.0120316
0.0119465
0.0118582
0.0117662
0.0116704
0.0115703
0.0114658
0.0113564
0.0112421
0.0111223
0.0109972
0.010866
0.0107298
0.0105861
0.0104396
0.0102806
0.0101298
0.00994231
0.00981355
0.0125714
0.0128964
0.0127695
0.0127642
0.0127583
0.0127337
0.0126983
0.0126523
0.012598
0.0125372
0.0124713
0.0124011
0.0123272
0.0122499
0.0121695
0.0120858
0.0119989
0.0119086
0.0118147
0.0117168
0.011615
0.0115087
0.011398
0.0112823
0.0111618
0.0110358
0.0109048
0.0107678
0.0106261
0.0104773
0.0103262
0.0101627
0.0100087
0.00981684
0.00968791
0.0125101
0.0128439
0.0127436
0.0127526
0.0127551
0.0127346
0.0127004
0.0126541
0.0125982
0.0125352
0.0124665
0.0123931
0.0123158
0.0122347
0.0121503
0.0120623
0.011971
0.0118759
0.0117771
0.0116742
0.0115672
0.0114556
0.0113395
0.0112185
0.0110927
0.0109616
0.0108256
0.0106839
0.0105378
0.0103848
0.01023
0.010063
0.00990656
0.00971122
0.00958258
0.0124504
0.0127962
0.0127225
0.0127452
0.0127552
0.0127378
0.0127045
0.0126574
0.0126
0.0125348
0.0124636
0.0123874
0.012307
0.0122228
0.0121349
0.0120434
0.0119483
0.0118493
0.0117465
0.0116395
0.0115282
0.0114124
0.0112921
0.0111668
0.0110369
0.0109017
0.0107619
0.0106166
0.0104671
0.0103111
0.0101537
0.00998404
0.00982608
0.00962808
0.00950004
0.0123748
0.0127457
0.012701
0.0127391
0.0127574
0.0127433
0.0127105
0.0126626
0.0126034
0.0125361
0.0124624
0.0123836
0.0123004
0.0122132
0.0121222
0.0120275
0.011929
0.0118266
0.0117202
0.0116095
0.0114946
0.011375
0.011251
0.0111221
0.0109886
0.0108501
0.0107071
0.0105587
0.0104066
0.010248
0.0100885
0.00991691
0.00975783
0.00955774
0.00943055
0.0123009
0.0127006
0.0126843
0.0127374
0.0127628
0.0127508
0.012718
0.0126689
0.0126079
0.0125384
0.0124624
0.0123811
0.0122954
0.0122055
0.0121118
0.0120143
0.0119129
0.0118075
0.011698
0.0115842
0.0114662
0.0113435
0.0112164
0.0110845
0.0109481
0.0108068
0.0106612
0.0105105
0.0103563
0.0101958
0.0100349
0.00986179
0.00970206
0.00950037
0.0093742
0.012206
0.0126552
0.0126682
0.012738
0.0127709
0.0127607
0.0127277
0.0126771
0.012614
0.0125423
0.012464
0.0123803
0.0122922
0.0121999
0.0121038
0.0120037
0.0118997
0.0117917
0.0116796
0.0115632
0.0114424
0.0113171
0.0111874
0.011053
0.0109141
0.0107706
0.0106229
0.0104703
0.0103144
0.0101526
0.00999056
0.00981649
0.00965646
0.00945369
0.00932864
0.0121111
0.0126172
0.0126567
0.0127424
0.0127812
0.0127717
0.0127378
0.0126855
0.0126204
0.0125466
0.0124661
0.0123804
0.0122901
0.0121957
0.0120974
0.0119952
0.0118891
0.0117789
0.0116645
0.0115459
0.0114229
0.0112954
0.0111635
0.0110271
0.0108863
0.0107409
0.0105916
0.0104376
0.0102805
0.0101177
0.00995499
0.00978038
0.0096203
0.00941689
0.00929286
0.011996
0.0125845
0.0126484
0.0127513
0.0127954
0.0127857
0.0127503
0.0126958
0.0126284
0.0125523
0.0124697
0.0123819
0.0122897
0.0121934
0.0120931
0.0119891
0.011881
0.0117689
0.0116527
0.0115322
0.0114074
0.0112781
0.0111444
0.0110063
0.0108639
0.0107171
0.0105665
0.0104114
0.0102534
0.01009
0.00992701
0.00975229
0.00959245
0.00938917
0.00926624
0.0118735
0.0125602
0.0126419
0.0127612
0.0128093
0.0127989
0.0127619
0.0127053
0.0126357
0.0125576
0.0124731
0.0123836
0.0122897
0.0121918
0.01209
0.0119844
0.0118748
0.0117612
0.0116435
0.0115214
0.0113951
0.0112644
0.0111294
0.0109899
0.0108463
0.0106984
0.0105468
0.010391
0.0102325
0.0100688
0.00990568
0.00973123
0.00957158
0.00936886
0.00924595
0.0117405
0.0125483
0.0126434
0.0127789
0.0128285
0.0128157
0.012776
0.0127166
0.0126446
0.0125643
0.0124779
0.0123867
0.0122912
0.0121918
0.0120887
0.0119817
0.0118709
0.011756
0.011637
0.0115138
0.0113863
0.0112545
0.0111184
0.0109779
0.0108334
0.0106847
0.0105324
0.010376
0.0102172
0.0100534
0.00989048
0.00971676
0.00955763
0.00935717
0.00923441
0.0115897
0.0125437
0.0126407
0.0127931
0.012844
0.0128292
0.0127872
0.0127255
0.0126515
0.0125695
0.0124816
0.0123891
0.0122925
0.0121921
0.0120879
0.01198
0.0118682
0.0117524
0.0116326
0.0115085
0.0113802
0.0112475
0.0111106
0.0109695
0.0108243
0.010675
0.0105222
0.0103656
0.0102066
0.010043
0.00988023
0.00970756
0.00954826
0.00935024
0.00922259
0.011444
0.0125596
0.0126515
0.0128167
0.0128647
0.0128461
0.0128009
0.0127364
0.0126601
0.0125763
0.012487
0.0123932
0.0122955
0.0121941
0.0120891
0.0119804
0.0118679
0.0117514
0.0116309
0.0115062
0.0113773
0.011244
0.0111066
0.0109649
0.0108193
0.0106697
0.0105166
0.0103599
0.0102008
0.0100375
0.00987516
0.00970389
0.0095457
0.00935345
0.00922312
0.0112898
0.0125675
0.0126513
0.0128329
0.0128791
0.012858
0.0128105
0.012744
0.0126663
0.0125814
0.0124913
0.0123967
0.0122985
0.0121965
0.012091
0.0119818
0.0118689
0.0117519
0.0116311
0.0115059
0.0113767
0.0112431
0.0111054
0.0109634
0.0108176
0.0106677
0.0105145
0.0103577
0.0101986
0.0100357
0.00987348
0.00970388
0.00954494
0.00935856
0.00921512
0.0112127
0.0125926
0.012663
0.0128531
0.0128959
0.0128723
0.0128225
0.012754
0.0126748
0.0125887
0.0124976
0.0124022
0.0123033
0.0122008
0.0120949
0.0119853
0.011872
0.0117548
0.0116337
0.0115083
0.0113789
0.0112451
0.0111073
0.0109652
0.0108193
0.0106694
0.0105162
0.0103594
0.0102005
0.0100377
0.00987618
0.00970735
0.00955279
0.00937093
0.00926211
0.0128265
0.0131785
0.0129403
0.0128729
0.0128266
0.0127781
0.0127334
0.0126887
0.0126433
0.0125979
0.0125524
0.012507
0.0124619
0.0124171
0.0123725
0.0123283
0.012284
0.0122396
0.0121946
0.0121487
0.0121015
0.0120523
0.0120006
0.0119458
0.0118872
0.011824
0.0117558
0.0116814
0.0116008
0.0115124
0.0114174
0.0113126
0.011205
0.0110813
0.0109745
0.0128035
0.0131468
0.0129197
0.0128578
0.0128154
0.0127694
0.0127258
0.012681
0.0126346
0.0125873
0.0125391
0.0124903
0.0124412
0.0123917
0.012342
0.0122918
0.0122412
0.0121897
0.0121372
0.0120832
0.0120274
0.0119691
0.011908
0.0118433
0.0117747
0.0117012
0.0116225
0.0115377
0.0114468
0.011348
0.011243
0.0111263
0.0110084
0.0108626
0.0107449
0.0127769
0.0131138
0.0128972
0.0128414
0.0128031
0.0127598
0.0127172
0.012672
0.0126242
0.0125745
0.0125231
0.0124704
0.0124167
0.0123619
0.0123063
0.0122495
0.0121917
0.0121324
0.0120714
0.0120083
0.0119427
0.0118741
0.0118021
0.0117259
0.0116453
0.0115595
0.0114683
0.0113706
0.0112668
0.011155
0.011038
0.0109089
0.010782
0.0106257
0.0105075
0.0127431
0.0130771
0.0128731
0.012825
0.0127919
0.0127519
0.0127107
0.0126655
0.0126166
0.0125648
0.0125106
0.0124544
0.0123966
0.0123372
0.0122764
0.0122139
0.0121499
0.0120838
0.0120156
0.0119448
0.0118712
0.0117941
0.0117133
0.0116281
0.0115384
0.0114432
0.0113426
0.0112356
0.0111227
0.0110019
0.0108763
0.0107381
0.0106033
0.0104358
0.0103114
0.0127118
0.013037
0.0128485
0.0128089
0.0127813
0.0127446
0.0127047
0.0126593
0.0126091
0.012555
0.0124978
0.0124379
0.0123758
0.0123116
0.0122453
0.012177
0.0121065
0.0120336
0.0119581
0.0118795
0.0117977
0.011712
0.0116223
0.0115279
0.0114288
0.0113241
0.011214
0.0110974
0.0109752
0.0108451
0.010711
0.0105644
0.010423
0.0102479
0.0101221
0.0126686
0.0129932
0.0128224
0.0127929
0.0127719
0.0127391
0.0127008
0.0126553
0.0126038
0.0125476
0.0124875
0.0124242
0.0123581
0.0122894
0.0122183
0.0121446
0.0120684
0.0119893
0.0119073
0.0118219
0.0117329
0.0116398
0.0115426
0.0114405
0.0113335
0.011221
0.0111032
0.0109791
0.0108496
0.0107125
0.0105718
0.0104186
0.010272
0.01009
0.0099618
0.0126236
0.0129458
0.0127958
0.0127777
0.0127639
0.0127352
0.0126984
0.0126527
0.0125999
0.0125414
0.0124783
0.0124115
0.0123414
0.0122682
0.0121923
0.0121134
0.0120316
0.0119466
0.0118583
0.0117663
0.0116705
0.0115703
0.0114659
0.0113565
0.0112422
0.0111223
0.0109973
0.0108661
0.0107298
0.0105862
0.0104396
0.0102807
0.0101299
0.00994249
0.00981372
0.0125702
0.0128952
0.0127694
0.0127643
0.0127583
0.0127337
0.0126983
0.0126523
0.012598
0.0125372
0.0124713
0.0124011
0.0123272
0.0122499
0.0121695
0.0120858
0.0119989
0.0119086
0.0118147
0.0117168
0.011615
0.0115087
0.011398
0.0112823
0.0111618
0.0110358
0.0109048
0.0107679
0.0106262
0.0104774
0.0103263
0.0101628
0.0100088
0.009817
0.00968805
0.0125089
0.0128427
0.0127436
0.0127527
0.0127551
0.0127346
0.0127004
0.0126541
0.0125982
0.0125352
0.0124665
0.0123931
0.0123158
0.0122347
0.0121503
0.0120624
0.011971
0.0118759
0.0117771
0.0116742
0.0115672
0.0114556
0.0113396
0.0112186
0.0110928
0.0109617
0.0108257
0.010684
0.0105378
0.0103849
0.0102301
0.010063
0.00990664
0.00971136
0.0095827
0.0124492
0.0127951
0.0127225
0.0127452
0.0127552
0.0127378
0.0127045
0.0126574
0.0126
0.0125348
0.0124636
0.0123874
0.012307
0.0122228
0.012135
0.0120434
0.0119483
0.0118494
0.0117465
0.0116395
0.0115283
0.0114124
0.0112921
0.0111669
0.0110369
0.0109018
0.010762
0.0106167
0.0104672
0.0103112
0.0101537
0.00998412
0.00982614
0.0096282
0.00950014
0.0123737
0.0127446
0.0127009
0.0127391
0.0127574
0.0127433
0.0127105
0.0126626
0.0126034
0.0125361
0.0124624
0.0123836
0.0123004
0.0122132
0.0121222
0.0120275
0.011929
0.0118266
0.0117202
0.0116095
0.0114946
0.011375
0.011251
0.0111222
0.0109887
0.0108501
0.0107071
0.0105588
0.0104066
0.0102481
0.0100886
0.00991698
0.00975789
0.00955785
0.00943064
0.0122997
0.0126996
0.0126843
0.0127374
0.0127628
0.0127508
0.012718
0.0126689
0.0126079
0.0125384
0.0124624
0.0123811
0.0122954
0.0122055
0.0121118
0.0120143
0.0119129
0.0118075
0.011698
0.0115842
0.0114662
0.0113435
0.0112164
0.0110845
0.0109481
0.0108069
0.0106612
0.0105106
0.0103563
0.0101959
0.0100349
0.00986185
0.00970211
0.00950047
0.00937428
0.0122049
0.0126542
0.0126682
0.0127381
0.012771
0.0127607
0.0127277
0.0126771
0.012614
0.0125423
0.012464
0.0123803
0.0122922
0.0121999
0.0121038
0.0120037
0.0118997
0.0117917
0.0116796
0.0115632
0.0114424
0.0113171
0.0111874
0.011053
0.0109142
0.0107706
0.0106229
0.0104703
0.0103144
0.0101526
0.0099906
0.00981655
0.0096565
0.00945377
0.0093287
0.0121099
0.0126164
0.0126566
0.0127424
0.0127812
0.0127717
0.0127378
0.0126855
0.0126204
0.0125466
0.0124661
0.0123804
0.0122901
0.0121957
0.0120974
0.0119952
0.0118891
0.0117789
0.0116645
0.0115459
0.0114229
0.0112954
0.0111636
0.0110271
0.0108863
0.0107409
0.0105916
0.0104376
0.0102805
0.0101177
0.00995503
0.00978043
0.00962034
0.00941697
0.00929291
0.0119949
0.0125837
0.0126484
0.0127513
0.0127954
0.0127857
0.0127503
0.0126958
0.0126284
0.0125523
0.0124697
0.0123819
0.0122897
0.0121934
0.0120932
0.0119891
0.011881
0.0117689
0.0116527
0.0115322
0.0114074
0.0112781
0.0111444
0.0110063
0.0108639
0.0107171
0.0105665
0.0104114
0.0102534
0.0100901
0.00992704
0.00975234
0.00959248
0.00938924
0.00926629
0.0118724
0.0125595
0.0126419
0.0127612
0.0128093
0.0127989
0.0127619
0.0127053
0.0126357
0.0125576
0.0124731
0.0123836
0.0122897
0.0121918
0.01209
0.0119844
0.0118748
0.0117612
0.0116435
0.0115215
0.0113952
0.0112644
0.0111294
0.0109899
0.0108464
0.0106985
0.0105469
0.010391
0.0102325
0.0100688
0.00990571
0.00973127
0.00957161
0.00936893
0.00924599
0.0117395
0.0125477
0.0126433
0.012779
0.0128285
0.0128157
0.0127759
0.0127166
0.0126446
0.0125643
0.0124779
0.0123867
0.0122912
0.0121918
0.0120887
0.0119817
0.0118709
0.011756
0.011637
0.0115138
0.0113864
0.0112545
0.0111184
0.0109779
0.0108334
0.0106847
0.0105324
0.0103761
0.0102172
0.0100535
0.00989051
0.00971681
0.00955766
0.00935724
0.00923446
0.0115889
0.0125432
0.0126407
0.0127931
0.012844
0.0128292
0.0127872
0.0127255
0.0126515
0.0125695
0.0124816
0.0123891
0.0122925
0.0121921
0.0120879
0.01198
0.0118682
0.0117524
0.0116326
0.0115085
0.0113802
0.0112475
0.0111106
0.0109695
0.0108243
0.010675
0.0105223
0.0103656
0.0102066
0.010043
0.00988027
0.00970761
0.0095483
0.00935032
0.00922264
0.0114431
0.0125593
0.0126515
0.0128167
0.0128647
0.0128461
0.0128009
0.0127364
0.0126601
0.0125763
0.012487
0.0123932
0.0122956
0.0121941
0.0120892
0.0119804
0.0118679
0.0117514
0.0116309
0.0115062
0.0113773
0.0112441
0.0111066
0.0109649
0.0108193
0.0106697
0.0105167
0.0103599
0.0102008
0.0100375
0.00987521
0.00970395
0.00954574
0.00935352
0.00922314
0.0112888
0.0125675
0.0126514
0.0128331
0.0128792
0.0128581
0.0128106
0.0127441
0.0126664
0.0125815
0.0124913
0.0123968
0.0122985
0.0121965
0.0120911
0.0119818
0.0118689
0.011752
0.0116311
0.011506
0.0113767
0.0112431
0.0111054
0.0109634
0.0108176
0.0106678
0.0105146
0.0103577
0.0101986
0.0100357
0.00987353
0.00970393
0.009545
0.0093586
0.0092151
0.011214
0.0125931
0.0126631
0.0128532
0.0128959
0.0128722
0.0128224
0.012754
0.0126748
0.0125886
0.0124975
0.0124022
0.0123033
0.0122007
0.0120948
0.0119852
0.0118719
0.0117547
0.0116336
0.0115083
0.0113788
0.0112451
0.0111072
0.0109652
0.0108192
0.0106694
0.0105162
0.0103594
0.0102004
0.0100376
0.00987611
0.00970729
0.00955272
0.00937088
0.00926211
0.012829
0.0131759
0.0129401
0.012873
0.0128267
0.0127781
0.0127334
0.0126887
0.0126433
0.0125979
0.0125524
0.012507
0.0124619
0.0124171
0.0123725
0.0123283
0.012284
0.0122396
0.0121946
0.0121487
0.0121015
0.0120523
0.0120006
0.0119458
0.0118872
0.0118241
0.0117558
0.0116814
0.0116008
0.0115124
0.0114174
0.0113127
0.011205
0.0110814
0.0109746
0.012806
0.0131443
0.0129195
0.0128579
0.0128154
0.0127694
0.0127258
0.012681
0.0126346
0.0125873
0.0125391
0.0124903
0.0124412
0.0123917
0.012342
0.0122918
0.0122412
0.0121897
0.0121372
0.0120832
0.0120274
0.0119691
0.011908
0.0118433
0.0117747
0.0117012
0.0116226
0.0115377
0.0114468
0.011348
0.0112431
0.0111264
0.0110085
0.0108626
0.010745
0.0127794
0.0131114
0.012897
0.0128415
0.0128032
0.0127598
0.0127172
0.012672
0.0126242
0.0125745
0.0125231
0.0124704
0.0124167
0.0123619
0.0123063
0.0122495
0.0121917
0.0121324
0.0120714
0.0120083
0.0119427
0.0118741
0.0118021
0.0117259
0.0116454
0.0115595
0.0114683
0.0113706
0.0112668
0.0111551
0.011038
0.010909
0.010782
0.0106258
0.0105075
0.0127456
0.0130747
0.0128729
0.012825
0.012792
0.0127519
0.0127107
0.0126655
0.0126166
0.0125648
0.0125106
0.0124544
0.0123966
0.0123372
0.0122764
0.0122139
0.0121499
0.0120838
0.0120156
0.0119448
0.0118712
0.0117941
0.0117133
0.0116282
0.0115384
0.0114432
0.0113426
0.0112356
0.0111228
0.0110019
0.0108763
0.0107381
0.0106033
0.0104358
0.0103114
0.0127142
0.0130346
0.0128483
0.012809
0.0127814
0.0127447
0.0127047
0.0126593
0.0126091
0.012555
0.0124978
0.0124379
0.0123758
0.0123116
0.0122453
0.012177
0.0121065
0.0120336
0.0119581
0.0118795
0.0117977
0.011712
0.0116223
0.0115279
0.0114288
0.0113241
0.011214
0.0110974
0.0109752
0.0108452
0.010711
0.0105644
0.0104231
0.0102479
0.0101222
0.012671
0.0129909
0.0128223
0.012793
0.012772
0.0127391
0.0127008
0.0126553
0.0126038
0.0125476
0.0124875
0.0124242
0.0123581
0.0122894
0.0122183
0.0121446
0.0120684
0.0119893
0.0119073
0.0118219
0.0117329
0.0116398
0.0115426
0.0114405
0.0113335
0.011221
0.0111032
0.0109791
0.0108496
0.0107125
0.0105718
0.0104186
0.0102721
0.0100901
0.00996189
0.0126259
0.0129436
0.0127956
0.0127778
0.012764
0.0127352
0.0126984
0.0126527
0.0125999
0.0125414
0.0124783
0.0124115
0.0123414
0.0122682
0.0121923
0.0121134
0.0120316
0.0119466
0.0118583
0.0117663
0.0116705
0.0115704
0.0114659
0.0113565
0.0112422
0.0111224
0.0109973
0.0108661
0.0107299
0.0105863
0.0104397
0.0102807
0.0101299
0.00994255
0.00981381
0.0125725
0.0128931
0.0127693
0.0127643
0.0127584
0.0127337
0.0126983
0.0126523
0.012598
0.0125372
0.0124713
0.0124011
0.0123272
0.0122499
0.0121695
0.0120858
0.0119989
0.0119086
0.0118147
0.0117168
0.011615
0.0115088
0.011398
0.0112824
0.0111618
0.0110359
0.0109048
0.0107679
0.0106262
0.0104775
0.0103263
0.0101629
0.0100088
0.00981707
0.00968816
0.0125111
0.0128407
0.0127434
0.0127527
0.0127551
0.0127346
0.0127004
0.0126541
0.0125982
0.0125352
0.0124665
0.0123931
0.0123158
0.0122347
0.0121503
0.0120624
0.011971
0.0118759
0.0117771
0.0116742
0.0115672
0.0114556
0.0113396
0.0112186
0.0110928
0.0109617
0.0108257
0.010684
0.0105379
0.0103849
0.0102301
0.0100631
0.00990667
0.00971143
0.0095828
0.0124512
0.0127931
0.0127223
0.0127453
0.0127552
0.0127378
0.0127044
0.0126574
0.0125999
0.0125348
0.0124636
0.0123874
0.012307
0.0122228
0.012135
0.0120435
0.0119483
0.0118494
0.0117465
0.0116395
0.0115283
0.0114124
0.0112921
0.0111669
0.0110369
0.0109018
0.010762
0.0106167
0.0104672
0.0103112
0.0101537
0.00998417
0.00982617
0.00962828
0.00950026
0.0123757
0.0127428
0.0127008
0.0127392
0.0127574
0.0127433
0.0127105
0.0126626
0.0126034
0.0125361
0.0124624
0.0123836
0.0123004
0.0122132
0.0121222
0.0120275
0.011929
0.0118266
0.0117202
0.0116095
0.0114946
0.0113751
0.011251
0.0111222
0.0109887
0.0108502
0.0107071
0.0105588
0.0104066
0.0102481
0.0100886
0.00991702
0.00975791
0.00955793
0.00943076
0.0123016
0.0126978
0.0126841
0.0127374
0.0127628
0.0127508
0.012718
0.0126689
0.0126079
0.0125384
0.0124624
0.0123811
0.0122953
0.0122055
0.0121118
0.0120143
0.0119129
0.0118075
0.011698
0.0115842
0.0114662
0.0113436
0.0112164
0.0110846
0.0109482
0.0108069
0.0106613
0.0105106
0.0103563
0.0101959
0.0100349
0.0098619
0.00970213
0.00950055
0.00937439
0.0122067
0.0126526
0.0126681
0.0127381
0.012771
0.0127607
0.0127276
0.0126771
0.012614
0.0125423
0.012464
0.0123803
0.0122922
0.0121999
0.0121038
0.0120037
0.0118997
0.0117917
0.0116796
0.0115632
0.0114424
0.0113171
0.0111874
0.011053
0.0109142
0.0107706
0.0106229
0.0104704
0.0103145
0.0101527
0.00999062
0.00981659
0.00965652
0.00945386
0.00932882
0.0121116
0.0126149
0.0126565
0.0127424
0.0127812
0.0127717
0.0127378
0.0126855
0.0126204
0.0125466
0.0124661
0.0123803
0.0122901
0.0121957
0.0120974
0.0119952
0.0118891
0.0117789
0.0116645
0.0115459
0.0114229
0.0112954
0.0111636
0.0110271
0.0108863
0.010741
0.0105916
0.0104376
0.0102805
0.0101178
0.00995505
0.00978048
0.00962036
0.00941706
0.00929303
0.0119965
0.0125824
0.0126483
0.0127513
0.0127954
0.0127857
0.0127503
0.0126958
0.0126284
0.0125523
0.0124697
0.0123819
0.0122896
0.0121933
0.0120931
0.011989
0.011881
0.0117689
0.0116527
0.0115322
0.0114074
0.0112781
0.0111444
0.0110063
0.0108639
0.0107171
0.0105665
0.0104114
0.0102535
0.0100901
0.00992706
0.00975239
0.0095925
0.00938934
0.0092664
0.0118738
0.0125583
0.0126418
0.0127612
0.0128093
0.0127989
0.0127618
0.0127052
0.0126357
0.0125576
0.0124731
0.0123835
0.0122896
0.0121917
0.01209
0.0119844
0.0118748
0.0117612
0.0116435
0.0115215
0.0113952
0.0112644
0.0111294
0.01099
0.0108464
0.0106985
0.0105469
0.0103911
0.0102325
0.0100689
0.00990574
0.00973132
0.00957164
0.00936903
0.00924611
0.0117407
0.0125468
0.0126433
0.012779
0.0128285
0.0128156
0.0127759
0.0127165
0.0126445
0.0125643
0.0124779
0.0123866
0.0122912
0.0121918
0.0120887
0.0119817
0.0118709
0.011756
0.011637
0.0115138
0.0113864
0.0112545
0.0111184
0.0109779
0.0108334
0.0106847
0.0105324
0.0103761
0.0102172
0.0100535
0.00989054
0.00971687
0.0095577
0.00935735
0.0092346
0.0115901
0.0125423
0.0126407
0.0127931
0.012844
0.0128292
0.0127872
0.0127255
0.0126514
0.0125694
0.0124816
0.0123891
0.0122925
0.0121921
0.0120879
0.01198
0.0118682
0.0117524
0.0116326
0.0115085
0.0113802
0.0112476
0.0111107
0.0109695
0.0108243
0.0106751
0.0105223
0.0103657
0.0102066
0.0100431
0.00988031
0.00970768
0.00954834
0.00935043
0.00922276
0.011444
0.0125588
0.0126515
0.0128167
0.0128647
0.0128461
0.0128009
0.0127364
0.0126601
0.0125763
0.012487
0.0123932
0.0122956
0.0121942
0.0120892
0.0119804
0.011868
0.0117515
0.011631
0.0115063
0.0113774
0.0112441
0.0111067
0.010965
0.0108194
0.0106698
0.0105167
0.01036
0.0102009
0.0100376
0.00987527
0.00970402
0.0095458
0.00935363
0.00922323
0.0112895
0.0125673
0.0126517
0.0128333
0.0128794
0.0128583
0.0128108
0.0127443
0.0126666
0.0125816
0.0124915
0.0123969
0.0122986
0.0121966
0.0120912
0.0119819
0.011869
0.011752
0.0116312
0.011506
0.0113768
0.0112432
0.0111055
0.0109635
0.0108176
0.0106678
0.0105146
0.0103578
0.0101987
0.0100358
0.00987359
0.00970398
0.00954505
0.00935859
0.00921464
0.0112151
0.0125935
0.0126633
0.0128532
0.0128958
0.0128722
0.0128223
0.0127539
0.0126747
0.0125885
0.0124974
0.0124021
0.0123032
0.0122007
0.0120947
0.0119851
0.0118719
0.0117546
0.0116335
0.0115082
0.0113788
0.011245
0.0111072
0.0109651
0.0108192
0.0106693
0.0105161
0.0103593
0.0102003
0.0100376
0.00987602
0.00970722
0.00955262
0.00937087
0.00926236
0.0128324
0.0131724
0.0129399
0.0128731
0.0128268
0.0127782
0.0127334
0.0126887
0.0126433
0.0125979
0.0125524
0.012507
0.0124619
0.0124171
0.0123725
0.0123283
0.012284
0.0122396
0.0121946
0.0121487
0.0121015
0.0120523
0.0120006
0.0119458
0.0118872
0.0118241
0.0117558
0.0116814
0.0116008
0.0115124
0.0114175
0.0113127
0.011205
0.0110815
0.0109749
0.0128094
0.0131409
0.0129192
0.0128579
0.0128155
0.0127695
0.0127259
0.012681
0.0126346
0.0125873
0.0125391
0.0124903
0.0124412
0.0123917
0.012342
0.0122918
0.0122412
0.0121897
0.0121372
0.0120833
0.0120274
0.0119692
0.0119081
0.0118434
0.0117747
0.0117012
0.0116226
0.0115378
0.0114469
0.0113481
0.0112431
0.0111264
0.0110086
0.0108627
0.0107451
0.0127827
0.013108
0.0128968
0.0128415
0.0128033
0.0127599
0.0127172
0.012672
0.0126242
0.0125745
0.0125231
0.0124704
0.0124167
0.0123619
0.0123062
0.0122495
0.0121917
0.0121324
0.0120714
0.0120083
0.0119427
0.0118741
0.0118021
0.0117259
0.0116454
0.0115595
0.0114683
0.0113706
0.0112668
0.0111551
0.011038
0.010909
0.010782
0.0106259
0.0105076
0.0127488
0.0130713
0.0128727
0.0128251
0.0127921
0.012752
0.0127107
0.0126655
0.0126166
0.0125648
0.0125106
0.0124544
0.0123966
0.0123372
0.0122764
0.0122139
0.0121499
0.0120838
0.0120156
0.0119449
0.0118712
0.0117941
0.0117133
0.0116282
0.0115384
0.0114433
0.0113427
0.0112357
0.0111228
0.011002
0.0108763
0.0107382
0.0106034
0.0104359
0.0103116
0.0127173
0.0130314
0.0128481
0.012809
0.0127814
0.0127447
0.0127047
0.0126593
0.0126091
0.012555
0.0124978
0.0124379
0.0123758
0.0123115
0.0122453
0.012177
0.0121065
0.0120336
0.0119581
0.0118795
0.0117977
0.011712
0.0116223
0.011528
0.0114288
0.0113241
0.011214
0.0110974
0.0109752
0.0108452
0.010711
0.0105644
0.0104231
0.010248
0.0101223
0.0126741
0.0129877
0.012822
0.012793
0.012772
0.0127391
0.0127008
0.0126553
0.0126038
0.0125476
0.0124875
0.0124242
0.0123581
0.0122894
0.0122183
0.0121446
0.0120684
0.0119893
0.0119073
0.0118219
0.0117329
0.0116399
0.0115426
0.0114405
0.0113335
0.0112211
0.0111032
0.0109791
0.0108496
0.0107125
0.0105718
0.0104187
0.0102721
0.0100902
0.00996209
0.0126289
0.0129406
0.0127954
0.0127778
0.012764
0.0127352
0.0126984
0.0126527
0.0125998
0.0125414
0.0124783
0.0124115
0.0123414
0.0122682
0.0121923
0.0121134
0.0120316
0.0119466
0.0118583
0.0117663
0.0116705
0.0115704
0.0114659
0.0113565
0.0112422
0.0111224
0.0109973
0.0108662
0.0107299
0.0105863
0.0104397
0.0102808
0.0101299
0.00994265
0.00981402
0.0125754
0.0128901
0.0127691
0.0127644
0.0127584
0.0127337
0.0126982
0.0126523
0.012598
0.0125372
0.0124713
0.0124011
0.0123272
0.0122499
0.0121695
0.0120858
0.0119989
0.0119086
0.0118147
0.0117169
0.011615
0.0115088
0.011398
0.0112824
0.0111618
0.0110359
0.0109049
0.0107679
0.0106262
0.0104775
0.0103263
0.0101629
0.0100089
0.00981718
0.00968838
0.0125139
0.0128378
0.0127432
0.0127527
0.0127552
0.0127346
0.0127004
0.0126541
0.0125982
0.0125352
0.0124665
0.0123931
0.0123157
0.0122347
0.0121503
0.0120624
0.011971
0.0118759
0.0117771
0.0116742
0.0115672
0.0114557
0.0113396
0.0112186
0.0110928
0.0109617
0.0108257
0.010684
0.0105379
0.010385
0.0102301
0.0100631
0.0099067
0.00971154
0.00958303
0.0124539
0.0127904
0.0127221
0.0127453
0.0127552
0.0127378
0.0127044
0.0126574
0.0125999
0.0125347
0.0124635
0.0123874
0.012307
0.0122228
0.0121349
0.0120434
0.0119483
0.0118494
0.0117465
0.0116395
0.0115283
0.0114125
0.0112921
0.0111669
0.0110369
0.0109018
0.010762
0.0106167
0.0104672
0.0103112
0.0101538
0.00998422
0.0098262
0.00962839
0.00950049
0.0123783
0.0127402
0.0127006
0.0127392
0.0127575
0.0127433
0.0127105
0.0126626
0.0126034
0.0125361
0.0124624
0.0123836
0.0123004
0.0122132
0.0121222
0.0120275
0.011929
0.0118266
0.0117202
0.0116095
0.0114946
0.0113751
0.011251
0.0111222
0.0109887
0.0108502
0.0107071
0.0105588
0.0104066
0.0102482
0.0100886
0.00991707
0.00975794
0.00955803
0.00943099
0.012304
0.0126954
0.012684
0.0127374
0.0127628
0.0127508
0.012718
0.0126689
0.0126079
0.0125384
0.0124624
0.0123811
0.0122953
0.0122055
0.0121118
0.0120143
0.0119129
0.0118075
0.011698
0.0115842
0.0114662
0.0113436
0.0112164
0.0110846
0.0109482
0.0108069
0.0106613
0.0105106
0.0103563
0.010196
0.010035
0.00986195
0.00970215
0.00950066
0.00937463
0.012209
0.0126502
0.0126679
0.0127381
0.012771
0.0127607
0.0127276
0.0126771
0.012614
0.0125423
0.0124639
0.0123803
0.0122922
0.0121999
0.0121037
0.0120037
0.0118997
0.0117917
0.0116796
0.0115632
0.0114424
0.0113172
0.0111874
0.011053
0.0109142
0.0107706
0.0106229
0.0104704
0.0103145
0.0101527
0.00999063
0.00981664
0.00965654
0.00945396
0.00932907
0.0121137
0.0126128
0.0126564
0.0127424
0.0127813
0.0127717
0.0127378
0.0126855
0.0126204
0.0125465
0.0124661
0.0123803
0.0122901
0.0121957
0.0120974
0.0119952
0.0118891
0.0117789
0.0116645
0.0115459
0.0114229
0.0112954
0.0111636
0.0110271
0.0108863
0.010741
0.0105916
0.0104376
0.0102805
0.0101178
0.00995507
0.00978052
0.00962038
0.00941717
0.00929328
0.0119985
0.0125804
0.0126482
0.0127513
0.0127955
0.0127857
0.0127503
0.0126958
0.0126284
0.0125523
0.0124697
0.0123819
0.0122896
0.0121933
0.0120931
0.011989
0.011881
0.0117689
0.0116527
0.0115322
0.0114074
0.0112781
0.0111444
0.0110063
0.0108639
0.0107171
0.0105665
0.0104114
0.0102535
0.0100901
0.00992708
0.00975243
0.00959252
0.00938945
0.00926665
0.0118756
0.0125566
0.0126418
0.0127612
0.0128094
0.0127989
0.0127618
0.0127052
0.0126356
0.0125575
0.012473
0.0123835
0.0122896
0.0121917
0.01209
0.0119843
0.0118748
0.0117612
0.0116434
0.0115214
0.0113951
0.0112644
0.0111294
0.01099
0.0108464
0.0106985
0.0105469
0.0103911
0.0102325
0.0100689
0.00990575
0.00973137
0.00957165
0.00936914
0.00924637
0.0117422
0.0125453
0.0126433
0.012779
0.0128285
0.0128156
0.0127759
0.0127165
0.0126445
0.0125642
0.0124779
0.0123866
0.0122912
0.0121918
0.0120887
0.0119817
0.0118709
0.011756
0.011637
0.0115138
0.0113864
0.0112545
0.0111184
0.0109779
0.0108334
0.0106847
0.0105324
0.0103761
0.0102172
0.0100536
0.00989056
0.00971692
0.00955772
0.00935747
0.00923486
0.0115914
0.012541
0.0126407
0.0127931
0.012844
0.0128291
0.0127871
0.0127254
0.0126514
0.0125694
0.0124816
0.012389
0.0122925
0.012192
0.0120879
0.01198
0.0118682
0.0117524
0.0116326
0.0115085
0.0113802
0.0112476
0.0111107
0.0109695
0.0108244
0.0106751
0.0105223
0.0103657
0.0102067
0.0100432
0.00988035
0.00970775
0.00954838
0.00935056
0.00922298
0.0114452
0.0125582
0.0126517
0.0128167
0.0128647
0.0128461
0.0128009
0.0127363
0.0126601
0.0125763
0.012487
0.0123932
0.0122956
0.0121942
0.0120892
0.0119805
0.011868
0.0117515
0.011631
0.0115063
0.0113774
0.0112441
0.0111067
0.010965
0.0108194
0.0106698
0.0105168
0.01036
0.0102009
0.0100377
0.00987532
0.0097041
0.00954584
0.00935375
0.00922342
0.0112914
0.0125668
0.0126519
0.0128335
0.0128797
0.0128585
0.012811
0.0127444
0.0126667
0.0125817
0.0124916
0.012397
0.0122987
0.0121967
0.0120912
0.011982
0.0118691
0.0117521
0.0116312
0.0115061
0.0113768
0.0112432
0.0111055
0.0109635
0.0108177
0.0106678
0.0105146
0.0103578
0.0101987
0.0100358
0.00987361
0.00970399
0.00954505
0.00935849
0.00921367
0.0112149
0.0125941
0.0126636
0.0128533
0.0128959
0.0128721
0.0128223
0.0127538
0.0126746
0.0125885
0.0124974
0.012402
0.0123031
0.0122006
0.0120947
0.011985
0.0118718
0.0117546
0.0116335
0.0115081
0.0113787
0.0112449
0.0111071
0.010965
0.0108191
0.0106692
0.010516
0.0103592
0.0102003
0.0100375