/*--------------------------------*- C++ -*----------------------------------*\
  =========                 |
  \\      /  F ield         | OpenFOAM: The Open Source CFD Toolbox
   \\    /   O peration     | Website:  https://openfoam.org
    \\  /    A nd           | Version:  6
     \\/     M anipulation  |
\*---------------------------------------------------------------------------*/
FoamFile
{
    version     2.0;
    format      ascii;
    class       volVectorField;
    location    "23";
    object      wallShearStress;
}
// * * * * * * * * * * * * * * * * * * * * * * * * * * * * * * * * * * * * * //

dimensions      [0 2 -2 0 0 0 0];

internalField   uniform (0 0 0);

boundaryField
{
    inlet
    {
        type            calculated;
        value           uniform (0 0 0);
    }
    outlet
    {
        type            calculated;
        value           uniform (0 0 0);
    }
    roughCylinder
    {
        type            calculated;
        value           nonuniform List<vector> 
3840
(
(-0.00011835 -0.000154024 -7.02328e-05)
(-0.000176862 -0.00030706 -4.25245e-05)
(-0.000260169 -0.000457789 3.07144e-05)
(-0.000318901 -0.000523323 8.81655e-05)
(-0.000383725 -0.000567276 0.000137681)
(-0.000427959 -0.000567556 0.000169692)
(-0.000466947 -0.00056043 0.000191687)
(-0.000492647 -0.000545251 0.00020426)
(-0.000516172 -0.000537943 0.000214448)
(-0.000530053 -0.000530821 0.000218751)
(-0.000543002 -0.000530357 0.000219662)
(-0.00054918 -0.000528801 0.000215001)
(-0.000557084 -0.000532307 0.000208065)
(-0.000571093 -0.000544234 0.000200373)
(-0.000558605 -0.000534201 0.000181795)
(-0.000551713 -0.000529789 0.000163921)
(-0.00054511 -0.000526429 0.000145741)
(-0.000558549 -0.000541011 0.000131708)
(-0.000572587 -0.000556726 0.000116184)
(-0.00056823 -0.000554665 9.61098e-05)
(-0.000573425 -0.000562079 7.70126e-05)
(-0.000558983 -0.000550336 5.50526e-05)
(-0.000559003 -0.000551869 3.40444e-05)
(-0.000549672 -0.000544009 1.14193e-05)
(-9.4292e-05 -0.000108873 -4.82356e-05)
(-0.000187097 -0.000294057 -4.7729e-05)
(-0.000277318 -0.00045054 2.20709e-05)
(-0.000339189 -0.000521271 7.98401e-05)
(-0.000406851 -0.00056901 0.00012983)
(-0.00045413 -0.000573719 0.000162951)
(-0.00049734 -0.000571698 0.000186521)
(-0.000524879 -0.000558142 0.000200412)
(-0.000552255 -0.00055284 0.000212755)
(-0.000567486 -0.000543982 0.000217847)
(-0.000580014 -0.000541495 0.000218685)
(-0.000587302 -0.000540013 0.00021454)
(-0.000596672 -0.000544187 0.000208122)
(-0.000611189 -0.000555905 0.000200456)
(-0.000600057 -0.000547765 0.000182737)
(-0.000592621 -0.000543286 0.000164946)
(-0.000587125 -0.000541391 0.000147261)
(-0.000601515 -0.000556287 0.000133239)
(-0.000617093 -0.000572713 0.000117725)
(-0.000610169 -0.000568691 9.71612e-05)
(-0.000616065 -0.000576673 7.79818e-05)
(-0.000601139 -0.000565277 5.58526e-05)
(-0.000601476 -0.000567223 3.4583e-05)
(-0.00059246 -0.000560183 1.16225e-05)
(-0.000102556 -0.000103536 -4.2871e-05)
(-0.000199983 -0.000281628 -5.3665e-05)
(-0.00029406 -0.000437968 1.24791e-05)
(-0.000359203 -0.000513953 7.02195e-05)
(-0.000429842 -0.000565717 0.000120643)
(-0.000480349 -0.000575317 0.000155045)
(-0.000525266 -0.000575762 0.000179545)
(-0.000557474 -0.000567403 0.000195938)
(-0.000586325 -0.000562291 0.000209328)
(-0.000603986 -0.000552822 0.000215525)
(-0.000619021 -0.000550712 0.000217471)
(-0.000627307 -0.000548914 0.000213779)
(-0.000637486 -0.000552962 0.00020766)
(-0.000651098 -0.000563144 0.000199659)
(-0.000641298 -0.000556687 0.000182798)
(-0.00063281 -0.000551816 0.000165098)
(-0.000628758 -0.000551528 0.000148059)
(-0.00064488 -0.000567291 0.000134296)
(-0.000662938 -0.000585134 0.000119023)
(-0.000654393 -0.000580292 9.8219e-05)
(-0.000663639 -0.000591118 7.92731e-05)
(-0.00064824 -0.000580184 5.68935e-05)
(-0.00064895 -0.000582592 3.52767e-05)
(-0.000640275 -0.0005764 1.18782e-05)
(-0.000138419 -0.000120898 -4.4712e-05)
(-0.000208164 -0.000261721 -5.85121e-05)
(-0.000307306 -0.000418626 2.23575e-06)
(-0.000375697 -0.000499862 5.92509e-05)
(-0.00044939 -0.000556002 0.000109827)
(-0.000503553 -0.000571375 0.00014557)
(-0.00055455 -0.000579391 0.000172635)
(-0.000588881 -0.000573512 0.000190755)
(-0.000621748 -0.000571137 0.00020597)
(-0.000642871 -0.000562637 0.000213708)
(-0.00065784 -0.000557614 0.00021577)
(-0.000666895 -0.000555159 0.000212522)
(-0.000678417 -0.000559283 0.000206908)
(-0.000692326 -0.000568947 0.00019904)
(-0.000684987 -0.000564931 0.000183285)
(-0.000675948 -0.000560228 0.000165838)
(-0.000673863 -0.000561799 0.000149485)
(-0.00069129 -0.000577933 0.000135818)
(-0.00070933 -0.000594975 0.000120293)
(-0.000697884 -0.000588489 9.91184e-05)
(-0.000708716 -0.000600404 8.02105e-05)
(-0.000692861 -0.000590047 5.76778e-05)
(-0.000693951 -0.000592948 3.58167e-05)
(-0.000685862 -0.000587796 1.20848e-05)
(-0.000117979 -8.81978e-05 -2.72418e-05)
(-0.000213173 -0.000238038 -6.23315e-05)
(-0.000317454 -0.000394592 -8.27662e-06)
(-0.000388793 -0.000480565 4.73322e-05)
(-0.000465673 -0.000541336 9.78143e-05)
(-0.000524918 -0.000564098 0.000135146)
(-0.000577601 -0.00057507 0.000163475)
(-0.00061745 -0.000575203 0.000184404)
(-0.000652699 -0.000574147 0.000200946)
(-0.000675752 -0.000566004 0.000209718)
(-0.000695149 -0.000561865 0.000213402)
(-0.000706141 -0.000558931 0.000211029)
(-0.000718514 -0.000562562 0.000205826)
(-0.000731297 -0.000570451 0.000197787)
(-0.000725756 -0.00056809 0.000182968)
(-0.000716378 -0.000563806 0.000165957)
(-0.000716428 -0.000567173 0.000150364)
(-0.000735907 -0.000584215 0.000137019)
(-0.000754876 -0.000601349 0.000121493)
(-0.000741992 -0.000594699 0.000100213)
(-0.000756557 -0.000609297 8.15323e-05)
(-0.000740431 -0.000599747 5.8759e-05)
(-0.000741744 -0.000603018 3.65382e-05)
(-0.000734103 -0.000598761 1.23494e-05)
(-0.000124578 -7.86721e-05 -1.7831e-05)
(-0.000215901 -0.000212654 -6.52496e-05)
(-0.00032224 -0.000364482 -1.86428e-05)
(-0.000396516 -0.000455021 3.44708e-05)
(-0.000476997 -0.000521101 8.44755e-05)
(-0.000539992 -0.000549788 0.000122846)
(-0.000600355 -0.000569633 0.00015398)
(-0.00064313 -0.000572923 0.000176912)
(-0.000683023 -0.000575147 0.000195537)
(-0.000710702 -0.000569648 0.000206186)
(-0.000731557 -0.000564559 0.000210657)
(-0.000744145 -0.00056025 0.000209098)
(-0.000757874 -0.000563064 0.000204525)
(-0.000770878 -0.000570244 0.000196811)
(-0.000768004 -0.00057 0.000183124)
(-0.00075945 -0.00056702 0.000166818)
(-0.000761583 -0.000571946 0.000151894)
(-0.000782101 -0.000588993 0.000138631)
(-0.000798865 -0.000603896 0.000122607)
(-0.000783915 -0.000597009 0.000101204)
(-0.000799546 -0.000612252 8.24961e-05)
(-0.000783334 -0.000603947 5.96003e-05)
(-0.000784879 -0.000607824 3.71245e-05)
(-0.000777958 -0.000604768 1.25724e-05)
(-0.000130158 -6.82448e-05 -7.91522e-06)
(-0.000211896 -0.000182784 -6.57708e-05)
(-0.000322211 -0.000330557 -2.84604e-05)
(-0.000399119 -0.00042513 2.09877e-05)
(-0.000482595 -0.00049605 6.99273e-05)
(-0.0005527 -0.000533851 0.00010982)
(-0.000614913 -0.000556494 0.000142179)
(-0.000664268 -0.000565974 0.000167898)
(-0.000707843 -0.000570555 0.000188311)
(-0.000737134 -0.000565448 0.000200077)
(-0.000762582 -0.000562399 0.000206349)
(-0.000779525 -0.000559223 0.00020648)
(-0.00079515 -0.000561269 0.000202831)
(-0.000807134 -0.00056637 0.000195265)
(-0.000805964 -0.000567196 0.000182531)
(-0.00079862 -0.000565759 0.000167112)
(-0.000802669 -0.000572145 0.000152906)
(-0.000824848 -0.000589862 0.000139956)
(-0.000841025 -0.000604289 0.000123828)
(-0.000825469 -0.000598506 0.000102508)
(-0.00084316 -0.000615147 8.38189e-05)
(-0.000827022 -0.000608317 6.07143e-05)
(-0.000828149 -0.000612399 3.78581e-05)
(-0.000821472 -0.000610189 1.28371e-05)
(-0.000134576 -5.73766e-05 2.05558e-06)
(-0.000204868 -0.000153251 -6.49799e-05)
(-0.000315896 -0.000292757 -3.71429e-05)
(-0.00039431 -0.000389775 7.12458e-06)
(-0.000482056 -0.00046708 5.43459e-05)
(-0.000555546 -0.000510179 9.47286e-05)
(-0.000627008 -0.000542038 0.000129647)
(-0.00068056 -0.000554972 0.000157383)
(-0.00072932 -0.000562869 0.00017994)
(-0.000765136 -0.000561833 0.000194276)
(-0.000792922 -0.000559144 0.0002019)
(-0.000811589 -0.000555622 0.000203181)
(-0.000829321 -0.000557443 0.000200662)
(-0.000842285 -0.000561884 0.000193905)
(-0.000843849 -0.000564302 0.000182445)
(-0.000838711 -0.000564941 0.000168126)
(-0.000843965 -0.00057223 0.000154467)
(-0.000865936 -0.000589342 0.000141502)
(-0.00087763 -0.000600893 0.000124734)
(-0.000861237 -0.00059598 0.000103504)
(-0.000877762 -0.000611509 8.45692e-05)
(-0.000862071 -0.000606269 6.14195e-05)
(-0.000862854 -0.000610537 3.83445e-05)
(-0.000856822 -0.000609365 1.30217e-05)
(-0.00013689 -4.62096e-05 1.17518e-05)
(-0.000193961 -0.000123455 -6.21303e-05)
(-0.00030253 -0.000251945 -4.43314e-05)
(-0.000382655 -0.000350714 -6.56786e-06)
(-0.00047197 -0.000432086 3.76848e-05)
(-0.000554542 -0.000485618 7.88841e-05)
(-0.000628359 -0.000520075 0.000114738)
(-0.000689753 -0.00053898 0.000144976)
(-0.000743939 -0.000549998 0.000169603)
(-0.000781501 -0.000549436 0.000185377)
(-0.000814078 -0.000549097 0.000195184)
(-0.000837937 -0.000547874 0.000198693)
(-0.000857929 -0.000549908 0.000197544)
(-0.000870764 -0.000553362 0.000191573)
(-0.000873882 -0.000556563 0.000181277)
(-0.000870759 -0.00055891 0.000168114)
(-0.000877068 -0.000566818 0.000155075)
(-0.000899372 -0.000583585 0.000142316)
(-0.000909258 -0.000594255 0.000125436)
(-0.000893673 -0.000591192 0.000104516)
(-0.000909978 -0.000606333 8.54433e-05)
(-0.000895334 -0.000602983 6.22498e-05)
(-0.000895168 -0.000607039 3.88911e-05)
(-0.000889268 -0.0006065 1.32181e-05)
(-0.000140536 -3.58302e-05 2.13991e-05)
(-0.000177234 -9.37142e-05 -5.62311e-05)
(-0.000283598 -0.000210468 -4.96456e-05)
(-0.000361476 -0.000306595 -1.93636e-05)
(-0.000455167 -0.000394767 2.06925e-05)
(-0.000540079 -0.000452728 6.10851e-05)
(-0.000624576 -0.000496575 9.87467e-05)
(-0.000691677 -0.000518996 0.000130801)
(-0.000751589 -0.000532756 0.000157447)
(-0.000797877 -0.000537225 0.000176338)
(-0.000834498 -0.000538475 0.000188337)
(-0.000859963 -0.000537216 0.000193443)
(-0.000881873 -0.000539448 0.000193806)
(-0.000895888 -0.000542985 0.000189109)
(-0.000901294 -0.00054742 0.000180217)
(-0.000900664 -0.000551602 0.000168313)
(-0.000907363 -0.000559644 0.00015579)
(-0.000928123 -0.00057484 0.000142978)
(-0.000932468 -0.0005825 0.000125562)
(-0.000917226 -0.000580806 0.00010499)
(-0.000930021 -0.00059356 8.56094e-05)
(-0.00091658 -0.000591999 6.25588e-05)
(-0.000915521 -0.000595919 3.91264e-05)
(-0.000910201 -0.00059628 1.33144e-05)
(-0.000139108 -2.44853e-05 3.01459e-05)
(-0.000160024 -6.84734e-05 -4.92343e-05)
(-0.000255456 -0.000166683 -5.15355e-05)
(-0.000332951 -0.000260462 -3.04124e-05)
(-0.000424222 -0.000349592 3.69603e-06)
(-0.000519364 -0.000418726 4.26722e-05)
(-0.000606667 -0.000465528 8.036e-05)
(-0.000683247 -0.000494074 0.000114456)
(-0.000751046 -0.000511369 0.000143401)
(-0.000799605 -0.000515892 0.000163971)
(-0.000841082 -0.000519265 0.000178474)
(-0.000872677 -0.000520938 0.000186432)
(-0.000897381 -0.000524082 0.000188765)
(-0.000911863 -0.000527476 0.000185426)
(-0.000918277 -0.000532403 0.000177853)
(-0.000919206 -0.000537725 0.000167167)
(-0.00092611 -0.000545754 0.00015528)
(-0.000945733 -0.000559707 0.00014267)
(-0.000948151 -0.000566925 0.000125406)
(-0.000934499 -0.000567169 0.000105371)
(-0.000944765 -0.000578521 8.58308e-05)
(-0.000932906 -0.000578764 6.29242e-05)
(-0.000930194 -0.000582168 3.93787e-05)
(-0.000924705 -0.000582924 1.34055e-05)
(-0.000135973 -1.34545e-05 3.82349e-05)
(-0.000132373 -4.45017e-05 -3.87004e-05)
(-0.000225897 -0.00012672 -5.05962e-05)
(-0.000292826 -0.000210082 -3.81532e-05)
(-0.000387382 -0.000304185 -1.21223e-05)
(-0.000482122 -0.000376036 2.33004e-05)
(-0.000581149 -0.000433045 6.09155e-05)
(-0.00066475 -0.000465809 9.61646e-05)
(-0.000739138 -0.000485291 0.000127087)
(-0.000799031 -0.000494691 0.000151193)
(-0.000846478 -0.000500123 0.00016855)
(-0.000879549 -0.000501789 0.000178623)
(-0.000906037 -0.000505348 0.000182984)
(-0.000921956 -0.000509316 0.000181427)
(-0.000929978 -0.000515154 0.000175439)
(-0.000932456 -0.000521588 0.000166041)
(-0.000938637 -0.000529096 0.000154684)
(-0.000955228 -0.000540792 0.000142058)
(-0.000951708 -0.000545513 0.00012451)
(-0.000938274 -0.000546689 0.000104979)
(-0.000943227 -0.000555373 8.52079e-05)
(-0.000932613 -0.000556885 6.26265e-05)
(-0.00092838 -0.000559988 3.92348e-05)
(-0.000923194 -0.000561424 1.33676e-05)
(-0.000132514 -3.04953e-06 4.60247e-05)
(-0.000145784 -3.69802e-05 -3.96929e-05)
(-0.000185353 -8.65198e-05 -4.41736e-05)
(-0.00024878 -0.000162006 -4.20062e-05)
(-0.000332181 -0.00024926 -2.52052e-05)
(-0.000436557 -0.000331819 4.45394e-06)
(-0.00053738 -0.00039191 3.97411e-05)
(-0.000632039 -0.0004323 7.56619e-05)
(-0.000717364 -0.000457054 0.000108951)
(-0.000780783 -0.000465821 0.000135284)
(-0.000833058 -0.00047177 0.000155362)
(-0.000872903 -0.000476057 0.000168693)
(-0.000902439 -0.000480855 0.000175569)
(-0.000919137 -0.000485236 0.000175941)
(-0.000927314 -0.000491329 0.000171489)
(-0.000930013 -0.000498171 0.000163306)
(-0.000935267 -0.000505106 0.000152582)
(-0.000949227 -0.000515114 0.000140191)
(-0.000944201 -0.000520335 0.000123167)
(-0.000932011 -0.000522942 0.000104331)
(-0.000932851 -0.00053054 8.45373e-05)
(-0.000923366 -0.000532991 6.22787e-05)
(-0.000916787 -0.000535554 3.90414e-05)
(-0.000910938 -0.000537082 1.32992e-05)
(-0.000127683 6.86704e-06 5.30889e-05)
(-0.000127932 -2.33737e-05 -3.19426e-05)
(-0.000151404 -5.63867e-05 -3.60701e-05)
(-0.000190984 -0.000110962 -3.87044e-05)
(-0.000275498 -0.000198006 -3.47426e-05)
(-0.000372438 -0.0002786 -1.28965e-05)
(-0.000485591 -0.000350028 1.86073e-05)
(-0.000587438 -0.000395648 5.37839e-05)
(-0.000679384 -0.000423462 8.83571e-05)
(-0.000756767 -0.000438323 0.000118627)
(-0.000817477 -0.000446339 0.000142397)
(-0.000858752 -0.000449511 0.000158289)
(-0.000889585 -0.000454001 0.000167538)
(-0.000907406 -0.000458723 0.000170028)
(-0.000916105 -0.00046541 0.000167298)
(-0.000918638 -0.000472877 0.000160368)
(-0.000921673 -0.000479165 0.000150154)
(-0.00093131 -0.000487214 0.000137881)
(-0.000920229 -0.00049061 0.000120887)
(-0.000906758 -0.000493166 0.000102612)
(-0.000901417 -0.000498954 8.28393e-05)
(-0.00089215 -0.000501453 6.10854e-05)
(-0.000883537 -0.000503722 3.83397e-05)
(-0.000877507 -0.000505536 1.30626e-05)
(-0.000117972 1.49574e-05 5.64757e-05)
(-0.000138202 -1.7336e-05 -3.10536e-05)
(-8.96287e-05 -2.53709e-05 -1.92544e-05)
(-0.000141167 -7.07343e-05 -3.15718e-05)
(-0.000197427 -0.000136466 -3.65401e-05)
(-0.000301017 -0.000224807 -2.71632e-05)
(-0.000411575 -0.000297114 -2.20569e-06)
(-0.000525859 -0.000352475 3.08937e-05)
(-0.000631281 -0.000388458 6.68151e-05)
(-0.00071215 -0.000404131 9.92976e-05)
(-0.000777122 -0.0004127 0.000126091)
(-0.000825798 -0.00041813 0.000145677)
(-0.000859734 -0.000423342 0.000157759)
(-0.000878145 -0.000428153 0.000162439)
(-0.000885775 -0.000434629 0.000161303)
(-0.000886724 -0.000441979 0.000155521)
(-0.00088738 -0.00044778 0.00014594)
(-0.000892945 -0.000454389 0.000134021)
(-0.000881062 -0.000458766 0.000117929)
(-0.000867714 -0.000462072 0.000100477)
(-0.000857506 -0.000467157 8.09321e-05)
(-0.000847876 -0.000469249 5.96785e-05)
(-0.000836389 -0.000470818 3.74742e-05)
(-0.000829126 -0.000472228 1.27523e-05)
(-0.000105328 2.00403e-05 5.55867e-05)
(-0.000117723 -9.5794e-06 -2.34897e-05)
(-8.06113e-05 -1.6966e-05 -1.31335e-05)
(-6.43471e-05 -2.59699e-05 -1.35939e-05)
(-0.000131742 -8.79804e-05 -3.37209e-05)
(-0.000211411 -0.000161574 -3.54769e-05)
(-0.000333926 -0.000245776 -2.09173e-05)
(-0.000453435 -0.0003062 8.50882e-06)
(-0.000564005 -0.000346095 4.4383e-05)
(-0.000659679 -0.000370362 8.01133e-05)
(-0.000734044 -0.000383321 0.000110716)
(-0.000783433 -0.0003883 0.000132992)
(-0.000817741 -0.000393088 0.000147511)
(-0.000836358 -0.000397957 0.000154392)
(-0.000843263 -0.000404511 0.000155003)
(-0.000842313 -0.000411568 0.000150339)
(-0.00083909 -0.000416336 0.000141129)
(-0.00083923 -0.000421217 0.000129398)
(-0.000820949 -0.000423583 0.000113524)
(-0.000803918 -0.000425529 9.66505e-05)
(-0.000787663 -0.000429011 7.75096e-05)
(-0.000776147 -0.000429591 5.70046e-05)
(-0.000762377 -0.000430483 3.58223e-05)
(-0.000754365 -0.000431535 1.21761e-05)
(-9.27856e-05 2.16914e-05 4.98794e-05)
(-0.000119171 -6.93335e-06 -2.10967e-05)
(-7.06467e-05 -1.1377e-05 -5.82282e-06)
(-4.211e-05 -1.22462e-05 -4.85992e-06)
(-3.71826e-05 -2.49027e-05 -1.28477e-05)
(-0.00012394 -0.000101689 -3.75981e-05)
(-0.000231379 -0.000178689 -3.46793e-05)
(-0.000364912 -0.000251911 -1.15341e-05)
(-0.000489988 -0.00030294 2.38224e-05)
(-0.000586264 -0.000329081 6.06341e-05)
(-0.000661688 -0.0003439 9.30383e-05)
(-0.000717387 -0.000352917 0.000118274)
(-0.000754 -0.000359299 0.000135286)
(-0.000772298 -0.000364482 0.000144196)
(-0.000776593 -0.000370334 0.000146219)
(-0.000772158 -0.000376271 0.000142424)
(-0.000764992 -0.000379992 0.000133642)
(-0.000759864 -0.000383228 0.000122261)
(-0.000741684 -0.000386281 0.000107683)
(-0.000723976 -0.000388156 9.18888e-05)
(-0.000703518 -0.00039061 7.3447e-05)
(-0.000689854 -0.000389363 5.37868e-05)
(-0.000673367 -0.000389013 3.37766e-05)
(-0.000663816 -0.000389073 1.14467e-05)
(-7.88758e-05 1.87152e-05 3.83165e-05)
(-0.000105825 -5.31977e-06 -1.63759e-05)
(-6.07112e-05 -7.63249e-06 1.61211e-06)
(-2.21773e-05 -3.00619e-06 4.67264e-06)
(-7.59255e-06 -8.75173e-06 -5.49769e-06)
(-2.33884e-05 -2.60872e-05 -1.73644e-05)
(-0.000142525 -0.000119749 -4.386e-05)
(-0.000272154 -0.000194705 -2.67216e-05)
(-0.000396828 -0.000249943 7.02597e-06)
(-0.000506161 -0.000287387 4.43952e-05)
(-0.000589054 -0.000308937 7.83452e-05)
(-0.000642447 -0.000318775 0.000104459)
(-0.000677139 -0.000325605 0.000122726)
(-0.00069372 -0.000330953 0.000133136)
(-0.000695894 -0.000336539 0.00013652)
(-0.000688304 -0.000341553 0.000133534)
(-0.000676468 -0.000343826 0.000124922)
(-0.000665895 -0.000345115 0.00011377)
(-0.000640832 -0.000344604 9.9458e-05)
(-0.000617198 -0.000343211 8.42843e-05)
(-0.000591912 -0.000343405 6.69091e-05)
(-0.000574221 -0.000338922 4.85065e-05)
(-0.000555811 -0.000337136 3.03931e-05)
(-0.000545219 -0.000336133 1.02591e-05)
(-7.35576e-05 1.72786e-05 2.98087e-05)
(-0.000102957 -4.02288e-06 -1.44232e-05)
(-5.25008e-05 -1.63429e-06 7.21886e-06)
(-7.7591e-06 6.26582e-06 9.29054e-06)
(2.00043e-05 1.03576e-05 -1.71928e-06)
(1.02192e-05 7.28288e-07 -1.31748e-05)
(-2.96144e-05 -2.74269e-05 -2.13248e-05)
(-0.000174174 -0.000129216 -3.10979e-05)
(-0.000306533 -0.00019859 -1.46572e-06)
(-0.000406942 -0.000237294 3.23496e-05)
(-0.000484521 -0.000261214 6.34468e-05)
(-0.000541925 -0.000276784 8.91824e-05)
(-0.000577166 -0.000286207 0.000107857)
(-0.000591869 -0.000292076 0.000119042)
(-0.000589601 -0.000296349 0.000122937)
(-0.000576768 -0.000299231 0.000120135)
(-0.000560131 -0.000299558 0.000111616)
(-0.000543962 -0.000298162 0.000100733)
(-0.000520428 -0.000297582 8.81887e-05)
(-0.000497342 -0.000295819 7.4707e-05)
(-0.000469934 -0.00029437 5.89456e-05)
(-0.000450124 -0.00028731 4.22179e-05)
(-0.000430264 -0.000283773 2.62841e-05)
(-0.000418558 -0.00028134 8.8094e-06)
(-6.6896e-05 1.67162e-05 2.32187e-05)
(-9.36042e-05 -1.35977e-06 -1.28597e-05)
(-4.83297e-05 3.45327e-06 6.17104e-06)
(1.0408e-05 7.75371e-06 3.45048e-06)
(2.87843e-05 1.43019e-05 6.83336e-06)
(1.67942e-05 1.49907e-05 2.64351e-06)
(-1.02109e-05 -5.19352e-06 -1.2949e-05)
(-8.90311e-05 -6.67161e-05 -1.6547e-05)
(-0.000199298 -0.000135495 2.32587e-06)
(-0.000305956 -0.000188082 2.83735e-05)
(-0.000386793 -0.000220225 5.42348e-05)
(-0.000436961 -0.000236161 7.5755e-05)
(-0.000467523 -0.000245901 9.25189e-05)
(-0.000478418 -0.000251469 0.000103212)
(-0.000473129 -0.000255026 0.000107308)
(-0.00045717 -0.000256563 0.000104706)
(-0.000436939 -0.000255004 9.62124e-05)
(-0.000417434 -0.000251304 8.57227e-05)
(-0.000386765 -0.000244875 7.32569e-05)
(-0.000357135 -0.000237528 6.05239e-05)
(-0.000326789 -0.000232341 4.69179e-05)
(-0.000302912 -0.000220501 3.25873e-05)
(-0.000282468 -0.000214641 1.98997e-05)
(-0.000270213 -0.000210489 6.57502e-06)
(-5.61381e-05 1.44609e-05 1.74279e-05)
(-8.54108e-05 9.05601e-07 -1.11234e-05)
(-4.01842e-05 1.5325e-06 6.86077e-06)
(1.46023e-05 9.20555e-06 1.23872e-05)
(2.35995e-05 1.16445e-05 1.85529e-05)
(2.18634e-05 1.08186e-05 2.21383e-05)
(7.05963e-06 2.05521e-06 2.03238e-05)
(-2.00685e-05 -1.73184e-05 8.94179e-06)
(-0.000112786 -8.76735e-05 1.98061e-05)
(-0.000189291 -0.000131446 3.03606e-05)
(-0.000255141 -0.000162229 4.44069e-05)
(-0.000308794 -0.000184766 6.01155e-05)
(-0.000339071 -0.000197082 7.35478e-05)
(-0.000347203 -0.000202559 8.25044e-05)
(-0.000336529 -0.000203473 8.52185e-05)
(-0.000314912 -0.000201207 8.1587e-05)
(-0.000290541 -0.000196022 7.28501e-05)
(-0.000266474 -0.000187649 6.25746e-05)
(-0.000241352 -0.000181359 5.2715e-05)
(-0.000216922 -0.000174413 4.28858e-05)
(-0.000188529 -0.000167383 3.25335e-05)
(-0.000167578 -0.000154162 2.17981e-05)
(-0.000148629 -0.000146571 1.26591e-05)
(-0.000137286 -0.000141101 4.0624e-06)
(-4.27162e-05 1.26177e-05 1.21826e-05)
(-7.72942e-05 3.21144e-06 -1.14297e-05)
(-4.30867e-05 5.44973e-06 4.98422e-06)
(-1.24486e-06 1.62945e-05 1.67673e-05)
(1.73612e-05 1.74364e-05 2.17254e-05)
(2.97913e-05 1.39403e-05 2.84355e-05)
(3.494e-05 4.43529e-06 3.85188e-05)
(1.7683e-05 -1.02726e-05 3.56511e-05)
(-1.16164e-05 -2.32993e-05 2.12305e-05)
(-7.9972e-05 -8.08317e-05 3.56072e-05)
(-0.000148313 -0.000119122 4.05187e-05)
(-0.000189218 -0.000136487 4.54783e-05)
(-0.000212686 -0.000146541 5.28885e-05)
(-0.000216414 -0.000150018 5.8358e-05)
(-0.000204095 -0.00014934 5.94499e-05)
(-0.000182512 -0.000145464 5.5493e-05)
(-0.000159157 -0.000138451 4.74155e-05)
(-0.000137994 -0.000128582 3.85514e-05)
(-0.000107207 -0.0001124 2.79364e-05)
(-7.95378e-05 -9.61359e-05 1.91165e-05)
(-5.17189e-05 -8.15638e-05 1.19917e-05)
(-3.31486e-05 -6.04413e-05 5.9948e-06)
(-1.9188e-05 -4.82092e-05 2.09641e-06)
(-1.16247e-05 -3.9195e-05 4.20592e-07)
(-1.80859e-05 1.14256e-05 1.03999e-05)
(-5.90461e-05 6.16698e-06 -1.53742e-05)
(-5.41592e-05 1.09982e-05 -9.38248e-06)
(-3.94829e-05 2.85789e-05 1.51783e-06)
(-9.54406e-06 4.74312e-05 7.35685e-06)
(2.14427e-05 3.71893e-05 8.24814e-06)
(3.31087e-05 1.79683e-05 1.46178e-05)
(3.91036e-05 5.98372e-06 2.36668e-05)
(3.65551e-05 -7.68887e-06 3.29961e-05)
(8.37258e-06 -2.01532e-05 2.19879e-05)
(-1.4011e-05 -2.89793e-05 1.38596e-05)
(-5.71293e-05 -6.647e-05 2.15668e-05)
(-8.31539e-05 -8.19031e-05 2.51092e-05)
(-8.61636e-05 -8.43525e-05 2.64697e-05)
(-7.109e-05 -7.81131e-05 2.38185e-05)
(-4.79752e-05 -6.58396e-05 1.73889e-05)
(-2.66424e-05 -4.97439e-05 9.47096e-06)
(-8.63574e-06 -2.34523e-05 2.3279e-06)
(-1.11803e-06 -2.70058e-05 -1.75503e-06)
(7.42726e-06 -1.49023e-05 -4.61826e-06)
(1.53462e-05 -4.95439e-06 -6.54888e-06)
(2.16856e-05 -4.01333e-07 -7.41256e-06)
(2.50245e-05 6.13041e-06 -6.09233e-06)
(2.31971e-05 8.21289e-06 -2.03431e-06)
(1.21751e-05 1.12249e-05 2.04931e-05)
(-2.02737e-05 1.018e-05 -1.41952e-05)
(-3.97704e-05 1.11111e-05 -1.98732e-05)
(-4.05429e-05 1.7877e-05 -1.8985e-05)
(-3.57295e-05 3.60251e-05 -2.58296e-05)
(-8.45466e-06 4.85366e-05 -3.19181e-05)
(2.43354e-05 4.3842e-05 -2.78478e-05)
(3.12345e-05 1.8419e-05 -6.3878e-06)
(3.88953e-05 1.28847e-05 1.01372e-05)
(4.39814e-05 7.45108e-06 1.66233e-05)
(2.93836e-05 -3.86828e-06 1.02272e-05)
(1.00759e-05 -1.13286e-05 2.78667e-06)
(1.72315e-06 -1.51828e-05 -1.03256e-06)
(8.61221e-07 -1.4536e-05 -3.54086e-06)
(6.96293e-06 -1.33776e-05 -8.42232e-06)
(1.14182e-05 -4.82403e-06 -9.80366e-06)
(1.86571e-05 4.51841e-07 -1.42833e-05)
(1.81006e-05 4.26144e-06 -1.32957e-05)
(2.04561e-05 9.48288e-06 -1.36453e-05)
(3.00447e-05 1.81632e-05 -1.75247e-05)
(3.29842e-05 2.22654e-05 -1.48665e-05)
(3.37002e-05 2.37555e-05 -1.16109e-05)
(2.38729e-05 1.70363e-05 -5.56306e-06)
(3.06596e-05 2.17815e-05 -2.53566e-06)
(1.53342e-05 1.6729e-05 3.36735e-05)
(9.89058e-06 2.06742e-05 -8.13549e-06)
(-1.13495e-05 1.71687e-05 -1.86665e-05)
(-2.52984e-05 1.76031e-05 -2.47077e-05)
(-2.68193e-05 2.40097e-05 -3.35428e-05)
(-1.19766e-05 2.93467e-05 -4.29531e-05)
(1.3271e-05 2.72283e-05 -4.25309e-05)
(3.25973e-05 2.12926e-05 -2.9499e-05)
(3.47107e-05 1.39234e-05 -6.50346e-06)
(3.26459e-05 1.19438e-05 3.1626e-06)
(3.47542e-05 1.24109e-05 3.30924e-06)
(4.10295e-05 1.38261e-05 -7.58147e-07)
(2.4687e-05 8.81904e-06 -6.26595e-06)
(2.36007e-05 1.01047e-05 -1.23325e-05)
(2.28926e-05 1.18949e-05 -1.48381e-05)
(2.76965e-05 1.61989e-05 -1.73103e-05)
(2.39495e-05 1.45919e-05 -1.35095e-05)
(3.63164e-05 2.19106e-05 -1.90557e-05)
(2.45902e-05 1.4195e-05 -1.18449e-05)
(2.51657e-05 1.29086e-05 -1.13322e-05)
(3.36058e-05 1.49016e-05 -1.2821e-05)
(3.74616e-05 1.42356e-05 -1.15152e-05)
(4.19885e-05 1.38945e-05 -9.05748e-06)
(4.37345e-05 1.29206e-05 -3.41968e-06)
(9.55715e-06 1.99765e-05 3.8064e-05)
(8.48931e-06 2.99769e-05 -2.95323e-06)
(2.59653e-06 2.84402e-05 -1.01472e-05)
(-6.88212e-06 2.61342e-05 -1.74572e-05)
(-1.10982e-05 2.52041e-05 -2.57453e-05)
(-5.07536e-06 2.35817e-05 -3.37082e-05)
(8.22802e-06 1.75841e-05 -3.59725e-05)
(2.35955e-05 7.06415e-06 -2.52359e-05)
(3.97441e-05 1.45563e-06 -8.1397e-06)
(6.12148e-05 7.66121e-06 1.00782e-06)
(6.96044e-05 1.58311e-05 -3.26e-07)
(5.61656e-05 1.60398e-05 -5.30915e-06)
(3.55311e-05 1.1925e-05 -7.34666e-06)
(2.73115e-05 1.06413e-05 -8.95662e-06)
(2.59408e-05 1.06101e-05 -1.07614e-05)
(3.10053e-05 1.13104e-05 -1.37221e-05)
(3.88381e-05 1.15415e-05 -1.74311e-05)
(4.44353e-05 9.57495e-06 -2.00929e-05)
(4.95173e-05 6.85928e-06 -2.19916e-05)
(5.57228e-05 2.49445e-06 -2.36683e-05)
(5.82759e-05 -1.08118e-06 -2.15379e-05)
(5.83682e-05 -4.18562e-06 -1.74287e-05)
(5.89085e-05 -6.29281e-06 -1.2283e-05)
(5.92824e-05 -7.68801e-06 -4.46705e-06)
(5.15048e-06 1.66021e-05 3.09476e-05)
(3.33778e-06 2.88329e-05 -7.32006e-07)
(-7.31698e-07 3.16055e-05 -7.43793e-06)
(-4.4987e-06 3.00229e-05 -1.21869e-05)
(-6.15065e-06 2.54725e-05 -1.83886e-05)
(-3.08304e-06 1.75603e-05 -2.4657e-05)
(4.69498e-06 4.52858e-06 -2.63329e-05)
(1.79105e-05 -9.05556e-06 -1.71611e-05)
(3.89071e-05 -1.3359e-05 -4.4247e-06)
(6.5354e-05 -4.50959e-06 7.39568e-07)
(8.14643e-05 5.88347e-06 -4.10201e-06)
(7.8503e-05 7.10857e-06 -1.18531e-05)
(6.91375e-05 4.8788e-06 -1.64146e-05)
(6.01201e-05 2.98678e-06 -1.89722e-05)
(5.63518e-05 7.40607e-07 -2.14163e-05)
(5.71678e-05 -2.57368e-06 -2.33098e-05)
(5.84727e-05 -5.65392e-06 -2.43974e-05)
(6.0432e-05 -8.86545e-06 -2.53477e-05)
(6.2269e-05 -1.22194e-05 -2.55387e-05)
(6.54916e-05 -1.49189e-05 -2.54799e-05)
(6.58889e-05 -1.76624e-05 -2.30721e-05)
(6.5272e-05 -1.84724e-05 -1.86721e-05)
(6.50222e-05 -1.90048e-05 -1.30393e-05)
(6.47908e-05 -1.91015e-05 -4.71292e-06)
(1.49199e-06 1.11878e-05 1.96534e-05)
(-2.67672e-06 2.18016e-05 -2.50874e-07)
(-7.08535e-06 2.5342e-05 -7.55874e-06)
(-9.94147e-06 2.43656e-05 -1.29806e-05)
(-1.01322e-05 1.84891e-05 -1.84717e-05)
(-7.07564e-06 7.45343e-06 -2.26576e-05)
(-1.98697e-07 -7.52546e-06 -2.10524e-05)
(1.16396e-05 -1.7978e-05 -1.13149e-05)
(2.67457e-05 -1.55399e-05 -2.57417e-06)
(4.85331e-05 -7.23597e-06 1.35837e-07)
(6.91988e-05 1.79974e-06 -5.06035e-06)
(7.67322e-05 3.87528e-07 -1.3777e-05)
(7.32274e-05 -5.14475e-06 -1.8673e-05)
(6.70216e-05 -9.46425e-06 -2.09416e-05)
(6.32176e-05 -1.25198e-05 -2.26734e-05)
(6.27069e-05 -1.48811e-05 -2.40434e-05)
(6.33325e-05 -1.65796e-05 -2.51732e-05)
(6.44027e-05 -1.79594e-05 -2.59666e-05)
(6.50283e-05 -1.909e-05 -2.57792e-05)
(6.61158e-05 -1.87141e-05 -2.53728e-05)
(6.48245e-05 -1.96323e-05 -2.27031e-05)
(6.08688e-05 -1.81077e-05 -1.76867e-05)
(5.77246e-05 -1.69939e-05 -1.1783e-05)
(5.57123e-05 -1.60844e-05 -4.14593e-06)
(4.26482e-08 5.17619e-06 7.65201e-06)
(-4.72129e-06 9.59021e-06 -1.26879e-06)
(-9.69354e-06 1.25039e-05 -6.58315e-06)
(-1.29098e-05 1.19721e-05 -1.26644e-05)
(-1.28949e-05 6.55361e-06 -1.87917e-05)
(-9.05546e-06 -4.32262e-06 -2.21581e-05)
(-7.99275e-07 -1.61332e-05 -1.8863e-05)
(8.07874e-06 -1.76984e-05 -9.39416e-06)
(1.71043e-05 -1.65731e-05 -5.06456e-06)
(2.48218e-05 -1.11585e-05 -1.8836e-06)
(3.11719e-05 -3.62018e-06 -1.92044e-06)
(4.4768e-05 -1.39907e-06 -7.25395e-06)
(5.89682e-05 -5.36629e-06 -1.53801e-05)
(6.07349e-05 -1.06287e-05 -1.9574e-05)
(5.89496e-05 -1.39302e-05 -2.1464e-05)
(5.69466e-05 -1.50249e-05 -2.21786e-05)
(5.46202e-05 -1.50869e-05 -2.20791e-05)
(5.36403e-05 -1.51912e-05 -2.19697e-05)
(5.23416e-05 -1.52349e-05 -2.11141e-05)
(5.16673e-05 -1.47902e-05 -2.04035e-05)
(5.07217e-05 -1.54441e-05 -1.83822e-05)
(4.76296e-05 -1.46114e-05 -1.45612e-05)
(4.58519e-05 -1.42193e-05 -9.86657e-06)
(4.46263e-05 -1.37537e-05 -3.52056e-06)
(-3.92875e-07 -5.72513e-08 -2.78302e-06)
(-2.94899e-06 -8.43695e-07 -2.55089e-06)
(-6.5072e-06 -6.56099e-07 -4.16897e-06)
(-8.82815e-06 -1.78454e-06 -8.32157e-06)
(-7.95018e-06 -5.99367e-06 -1.26519e-05)
(-2.5229e-06 -1.293e-05 -1.43725e-05)
(6.07749e-06 -1.7493e-05 -1.13105e-05)
(1.42675e-05 -1.76855e-05 -7.73199e-06)
(2.18526e-05 -1.70288e-05 -6.36137e-06)
(2.72077e-05 -1.52343e-05 -5.07619e-06)
(3.50181e-05 -1.43997e-05 -4.0673e-06)
(3.61945e-05 -9.36629e-06 -5.12319e-06)
(3.6686e-05 -7.89936e-06 -8.46735e-06)
(4.08623e-05 -9.97828e-06 -1.26754e-05)
(4.23843e-05 -1.2173e-05 -1.54883e-05)
(4.23694e-05 -1.33433e-05 -1.68889e-05)
(4.27381e-05 -1.40837e-05 -1.77254e-05)
(4.39911e-05 -1.44857e-05 -1.84616e-05)
(4.56987e-05 -1.50058e-05 -1.88943e-05)
(4.75099e-05 -1.51644e-05 -1.92422e-05)
(4.83889e-05 -1.57693e-05 -1.8062e-05)
(4.64154e-05 -1.53166e-05 -1.46983e-05)
(4.499e-05 -1.49526e-05 -9.97775e-06)
(4.37396e-05 -1.44484e-05 -3.5614e-06)
(4.03891e-08 -2.71567e-06 -6.77554e-06)
(1.81407e-07 -4.5685e-06 -2.21904e-06)
(-7.26632e-07 -5.93205e-06 -2.70381e-06)
(-9.82944e-07 -7.4475e-06 -5.21826e-06)
(1.25472e-06 -1.03749e-05 -7.96179e-06)
(6.95689e-06 -1.41256e-05 -9.38113e-06)
(1.46515e-05 -1.62579e-05 -9.27147e-06)
(2.10475e-05 -1.63618e-05 -9.21708e-06)
(2.52239e-05 -1.65554e-05 -8.56632e-06)
(2.50158e-05 -1.37492e-05 -5.0758e-06)
(2.83525e-05 -1.20442e-05 -3.67406e-06)