/*--------------------------------*- C++ -*----------------------------------*\
  =========                 |
  \\      /  F ield         | OpenFOAM: The Open Source CFD Toolbox
   \\    /   O peration     | Website:  https://openfoam.org
    \\  /    A nd           | Version:  6
     \\/     M anipulation  |
\*---------------------------------------------------------------------------*/
FoamFile
{
    version     2.0;
    format      ascii;
    class       volVectorField;
    location    "60";
    object      U;
}
// * * * * * * * * * * * * * * * * * * * * * * * * * * * * * * * * * * * * * //

dimensions      [0 1 -1 0 0 0 0];

internalField   nonuniform List<vector> 
2160
(
(0.0214056 -2.23334e-09 -8.2382e-11)
(0.0214056 -3.61763e-09 3.67369e-10)
(0.0214055 5.8847e-09 -3.06298e-10)
(0.0564621 6.97303e-10 -1.26158e-09)
(0.0564605 -5.86181e-09 4.20032e-09)
(0.0564599 4.88465e-09 -2.93501e-09)
(0.0657709 2.25967e-08 -1.537e-09)
(0.0657696 -2.30768e-08 4.46359e-09)
(0.065769 2.42819e-10 -2.9221e-09)
(0.0731613 4.76039e-08 -9.38115e-10)
(0.0731604 -5.01583e-08 2.93616e-09)
(0.0731599 2.42125e-09 -1.99643e-09)
(0.0794557 4.4247e-08 1.86027e-11)
(0.0794553 -4.65571e-08 8.9423e-10)
(0.0794552 2.07495e-09 -9.15321e-10)
(0.0849703 3.15545e-08 5.6354e-10)
(0.0849704 -3.25826e-08 -7.57261e-10)
(0.0849706 9.39602e-10 1.91972e-10)
(0.0898683 1.96771e-08 1.07845e-09)
(0.0898686 -1.81609e-08 -1.68076e-09)
(0.0898692 -1.56016e-09 5.96476e-10)
(0.0942794 1.1312e-08 1.2081e-09)
(0.0942798 -9.70853e-09 -1.98037e-09)
(0.0942806 -1.62976e-09 7.7084e-10)
(0.0983386 6.1968e-09 1.20646e-09)
(0.0983392 -6.21573e-09 -2.09642e-09)
(0.09834 2.2861e-11 8.87774e-10)
(0.102106 1.6799e-10 9.41673e-10)
(0.102107 -1.86864e-09 -1.68292e-09)
(0.102107 1.70706e-09 7.45768e-10)
(0.105612 -9.5642e-10 6.4681e-10)
(0.105612 -1.81717e-09 -7.17412e-10)
(0.105613 2.78332e-09 7.19841e-11)
(0.108871 -5.65087e-11 1.06641e-10)
(0.108871 -5.23472e-09 -9.25767e-11)
(0.108871 5.30122e-09 -1.79512e-11)
(0.111785 3.92363e-09 -1.53786e-10)
(0.111784 -1.53877e-08 3.11406e-10)
(0.111784 1.14519e-08 -1.56461e-10)
(0.114318 1.12751e-08 2.48536e-10)
(0.114317 -2.79878e-08 -4.38423e-10)
(0.114316 1.66932e-08 1.43045e-10)
(0.115776 6.84807e-09 1.68614e-09)
(0.115775 -1.33087e-08 -2.05429e-09)
(0.115773 6.44523e-09 2.90555e-10)
(0.115776 -6.73357e-09 1.68997e-09)
(0.115775 1.31064e-08 -2.05292e-09)
(0.115772 -6.41265e-09 2.8541e-10)
(0.114314 -1.13814e-08 2.47043e-10)
(0.114313 2.79418e-08 -4.39386e-10)
(0.114312 -1.65973e-08 1.45201e-10)
(0.111778 -3.80587e-09 -1.49916e-10)
(0.111778 1.52899e-08 3.11377e-10)
(0.111778 -1.14827e-08 -1.60804e-10)
(0.108863 -2.67519e-12 1.10257e-10)
(0.108863 5.29829e-09 -1.16362e-10)
(0.108863 -5.32717e-09 2.22105e-12)
(0.105603 9.49856e-10 6.31974e-10)
(0.105603 1.72924e-09 -6.97113e-10)
(0.105604 -2.68323e-09 6.65027e-11)
(0.102099 -2.87219e-10 9.27776e-10)
(0.102099 1.52461e-09 -1.64034e-09)
(0.1021 -1.24901e-09 7.16584e-10)
(0.0983306 -6.17803e-09 1.22167e-09)
(0.0983311 5.99089e-09 -2.0202e-09)
(0.0983319 1.71723e-10 7.96884e-10)
(0.0942705 -1.10538e-08 1.15555e-09)
(0.0942709 9.86617e-09 -1.90489e-09)
(0.0942716 1.19213e-09 7.45529e-10)
(0.0898576 -1.9591e-08 1.04574e-09)
(0.0898578 1.82627e-08 -1.60352e-09)
(0.0898584 1.34196e-09 5.52751e-10)
(0.0849568 -3.3928e-08 5.55623e-10)
(0.0849567 3.39535e-08 -5.72647e-10)
(0.084957 3.23791e-12 1.5508e-11)
(0.0794402 -4.40572e-08 -3.51711e-10)
(0.0794399 4.70788e-08 9.93134e-10)
(0.0794396 -2.86268e-09 -6.43696e-10)
(0.0731461 -4.85804e-08 -1.00112e-09)
(0.0731452 5.10748e-08 3.01529e-09)
(0.0731447 -2.48251e-09 -2.01342e-09)
(0.0657584 -2.31959e-08 -1.59729e-09)
(0.065757 2.29167e-08 4.57247e-09)
(0.0657564 4.08254e-10 -2.9706e-09)
(0.056452 -6.90543e-10 -1.26422e-09)
(0.0564504 6.03171e-09 4.27753e-09)
(0.0564497 -5.18027e-09 -3.01154e-09)
(0.0214024 2.05348e-09 -6.66406e-11)
(0.0214023 4.08076e-09 3.84332e-10)
(0.0214023 -6.19514e-09 -3.18939e-10)
(0.0570002 -3.12825e-09 -5.90408e-10)
(0.0570002 -6.67532e-09 1.61288e-09)
(0.057 9.795e-09 -1.02045e-09)
(0.123198 2.37706e-09 -4.23864e-09)
(0.123196 -1.07045e-08 1.18953e-08)
(0.123195 7.66818e-09 -7.63445e-09)
(0.137494 3.34114e-08 -5.0505e-09)
(0.137493 -3.14941e-08 1.30027e-08)
(0.137492 -2.44165e-09 -7.94238e-09)
(0.148226 6.8668e-08 -2.92098e-09)
(0.148225 -6.65387e-08 8.31261e-09)
(0.148224 -2.41589e-09 -5.3863e-09)
(0.156931 6.25457e-08 1.72011e-12)
(0.156931 -5.87986e-08 2.06642e-09)
(0.156931 -4.19814e-09 -2.07693e-09)
(0.164217 4.39366e-08 2.0537e-09)
(0.164217 -4.13558e-08 -2.57798e-09)
(0.164218 -2.76558e-09 5.1862e-10)
(0.170373 2.6588e-08 3.71782e-09)
(0.170373 -2.23687e-08 -5.39965e-09)
(0.170374 -4.31543e-09 1.67144e-09)
(0.175593 1.49444e-08 4.25308e-09)
(0.175594 -1.16165e-08 -6.47819e-09)
(0.175595 -3.38514e-09 2.2193e-09)
(0.180041 8.21892e-09 4.61861e-09)
(0.180041 -7.59194e-09 -7.26458e-09)
(0.180042 -6.2425e-10 2.63848e-09)
(0.183761 4.08592e-10 4.24017e-09)
(0.183761 -2.53435e-09 -6.66126e-09)
(0.183762 2.14323e-09 2.41702e-09)
(0.186758 -8.94198e-10 3.42101e-09)
(0.186758 -2.76903e-09 -3.8949e-09)
(0.186758 3.68839e-09 4.72703e-10)
(0.189037 3.85198e-10 1.6509e-09)
(0.189037 -7.04564e-09 -1.36346e-09)
(0.189037 6.67618e-09 -2.91452e-10)
(0.190586 6.98423e-09 -5.64232e-10)
(0.190586 -1.88107e-08 2.9748e-09)
(0.190586 1.18041e-08 -2.4104e-09)
(0.191526 1.632e-08 -5.717e-09)
(0.191526 -3.63894e-08 1.03054e-08)
(0.191525 2.00358e-08 -4.6056e-09)
(0.192046 9.53194e-09 -1.11058e-08)
(0.192044 -1.72601e-08 1.71443e-08)
(0.192043 7.70157e-09 -6.05973e-09)
(0.192045 -9.39135e-09 -1.11535e-08)
(0.192044 1.70056e-08 1.71556e-08)
(0.192043 -7.68928e-09 -6.02342e-09)
(0.191525 -1.64521e-08 -5.76188e-09)
(0.191525 3.63018e-08 1.03073e-08)
(0.191524 -1.99203e-08 -4.56295e-09)
(0.190584 -6.73158e-09 -5.6703e-10)
(0.190584 1.86033e-08 2.99034e-09)
(0.190584 -1.1867e-08 -2.42362e-09)
(0.189032 -4.59535e-10 1.74302e-09)
(0.189032 7.16759e-09 -1.57048e-09)
(0.189032 -6.75831e-09 -1.77147e-10)
(0.186751 8.98975e-10 3.33962e-09)
(0.186751 2.66403e-09 -3.77909e-09)
(0.186751 -3.56565e-09 4.3861e-10)
(0.183753 -4.93341e-10 4.16472e-09)
(0.183754 2.0193e-09 -6.48655e-09)
(0.183755 -1.54149e-09 2.31743e-09)
(0.180032 -8.16488e-09 4.64005e-09)
(0.180033 7.22039e-09 -6.95791e-09)
(0.180033 9.21612e-10 2.31199e-09)
(0.175583 -1.46857e-08 4.16173e-09)
(0.175583 1.189e-08 -6.21027e-09)
(0.175584 2.8065e-09 2.04205e-09)
(0.170359 -2.65221e-08 3.61022e-09)
(0.170359 2.25572e-08 -5.18567e-09)
(0.17036 3.98931e-09 1.56668e-09)
(0.164199 -4.45468e-08 1.94163e-09)
(0.164199 4.11535e-08 -2.13781e-09)
(0.164199 3.45154e-09 1.91642e-10)
(0.156909 -6.24487e-08 -7.61886e-10)
(0.156909 5.9547e-08 2.32545e-09)
(0.156909 3.19087e-09 -1.56994e-09)
(0.148203 -7.00318e-08 -3.10526e-09)
(0.148202 6.78097e-08 8.51196e-09)
(0.148202 2.25022e-09 -5.40132e-09)
(0.137475 -3.42277e-08 -5.20885e-09)
(0.137473 3.10879e-08 1.32899e-08)
(0.137473 3.38496e-09 -8.06917e-09)
(0.123182 -2.52711e-09 -4.2324e-09)
(0.12318 1.098e-08 1.20801e-08)
(0.12318 -8.13882e-09 -7.83273e-09)
(0.0569924 2.70227e-09 -6.0841e-10)
(0.0569924 7.46428e-09 1.66913e-09)
(0.0569922 -1.02949e-08 -1.06145e-09)
(0.0831021 -2.88636e-09 -1.48177e-09)
(0.0831021 -6.68807e-09 3.44186e-09)
(0.0831019 9.51199e-09 -1.94366e-09)
(0.155951 3.07618e-09 -7.54631e-09)
(0.155951 -1.21407e-08 1.89118e-08)
(0.15595 8.25294e-09 -1.13201e-08)
(0.172598 3.47809e-08 -8.92148e-09)
(0.172597 -3.13495e-08 2.08986e-08)
(0.172596 -4.07502e-09 -1.1973e-08)
(0.184581 7.09882e-08 -5.04848e-09)
(0.18458 -6.54873e-08 1.31108e-08)
(0.18458 -5.8557e-09 -8.05592e-09)
(0.194192 6.4678e-08 1.96302e-10)
(0.194192 -5.56788e-08 2.67306e-09)
(0.194192 -9.53738e-09 -2.88416e-09)
(0.20219 4.52703e-08 3.81843e-09)
(0.20219 -4.10059e-08 -4.72153e-09)
(0.20219 -4.49217e-09 8.9321e-10)
(0.208918 2.70428e-08 6.44736e-09)
(0.208918 -2.15983e-08 -9.10977e-09)
(0.208919 -5.5639e-09 2.65179e-09)
(0.214601 1.50628e-08 7.15777e-09)
(0.214601 -1.09905e-08 -1.04229e-08)
(0.214602 -4.14313e-09 3.26046e-09)
(0.219421 8.29702e-09 7.46357e-09)
(0.219421 -7.24196e-09 -1.13899e-08)
(0.219422 -1.05315e-09 3.91862e-09)
(0.223424 4.43688e-10 6.87492e-09)
(0.223425 -2.4443e-09 -1.03118e-08)
(0.223425 2.02256e-09 3.43049e-09)
(0.226615 -7.82993e-10 5.25547e-09)
(0.226615 -2.94083e-09 -6.40097e-09)
(0.226615 3.75518e-09 1.14353e-09)
(0.228992 6.38924e-10 2.91831e-09)
(0.228992 -7.2194e-09 -2.74801e-09)
(0.228992 6.59899e-09 -1.71567e-10)
(0.230544 8.89353e-09 -2.93934e-10)
(0.230544 -1.95615e-08 3.2898e-09)
(0.230544 1.06414e-08 -2.99486e-09)
(0.231408 1.73342e-08 -6.85767e-09)
(0.231407 -3.6541e-08 1.40145e-08)
(0.231407 1.9167e-08 -7.14403e-09)
(0.2319 1.0062e-08 -1.38858e-08)
(0.231898 -1.75056e-08 2.34861e-08)
(0.231897 7.41188e-09 -9.57578e-09)
(0.231899 -9.92304e-09 -1.39556e-08)
(0.231898 1.72465e-08 2.35137e-08)
(0.231897 -7.41383e-09 -9.53391e-09)
(0.231407 -1.74677e-08 -6.91493e-09)
(0.231407 3.64384e-08 1.40425e-08)
(0.231406 -1.90564e-08 -7.11534e-09)
(0.230541 -8.50231e-09 -2.93528e-10)
(0.230541 1.92247e-08 3.32077e-09)
(0.230541 -1.07168e-08 -3.02701e-09)
(0.228987 -7.06504e-10 3.05402e-09)
(0.228987 7.30634e-09 -3.06913e-09)
(0.228987 -6.65907e-09 1.24927e-11)
(0.226607 7.91167e-10 5.13575e-09)
(0.226607 2.84029e-09 -6.21168e-09)
(0.226607 -3.63435e-09 1.07402e-09)
(0.223416 -4.98274e-10 6.7566e-09)
(0.223416 1.913e-09 -1.00497e-08)
(0.223417 -1.43256e-09 3.2865e-09)
(0.21941 -8.23184e-09 7.4914e-09)
(0.21941 6.83602e-09 -1.0895e-08)
(0.219411 1.36985e-09 3.39826e-09)
(0.214588 -1.48467e-08 6.99416e-09)
(0.214588 1.13118e-08 -1.002e-08)
(0.214589 3.54844e-09 3.02226e-09)
(0.208901 -2.69993e-08 6.27556e-09)
(0.208902 2.18136e-08 -8.79885e-09)
(0.208902 5.21519e-09 2.51561e-09)
(0.202168 -4.54076e-08 3.66981e-09)
(0.202168 4.08567e-08 -4.1739e-09)
(0.202169 4.62264e-09 4.96368e-10)
(0.194167 -6.46702e-08 -8.42886e-10)
(0.194166 5.63728e-08 3.05315e-09)
(0.194166 8.63599e-09 -2.21921e-09)
(0.184555 -7.22983e-08 -5.38316e-09)
(0.184554 6.67771e-08 1.3388e-08)
(0.184554 5.56027e-09 -7.99603e-09)
(0.172575 -3.56035e-08 -9.17299e-09)
(0.172574 3.08893e-08 2.13279e-08)
(0.172573 5.00425e-09 -1.21452e-08)
(0.155933 -3.31458e-09 -7.51604e-09)
(0.155932 1.24243e-08 1.91865e-08)
(0.155931 -8.7404e-09 -1.16382e-08)
(0.0830918 2.37002e-09 -1.52237e-09)
(0.0830917 7.48832e-09 3.54598e-09)
(0.0830915 -1.00098e-08 -2.02143e-09)
(0.102676 -2.80448e-09 -2.62488e-09)
(0.102676 -5.01134e-09 5.72736e-09)
(0.102676 7.70356e-09 -3.04709e-09)
(0.1756 3.18549e-09 -1.04015e-08)
(0.1756 -1.21608e-08 2.4128e-08)
(0.1756 8.10556e-09 -1.36616e-08)
(0.194414 3.42851e-08 -1.22902e-08)
(0.194413 -2.97498e-08 2.79668e-08)
(0.194413 -5.23107e-09 -1.56888e-08)
(0.207463 6.96307e-08 -7.02136e-09)
(0.207463 -6.16495e-08 1.74306e-08)
(0.207463 -8.37053e-09 -1.04102e-08)
(0.217816 6.41297e-08 4.9003e-10)
(0.217816 -5.0079e-08 2.75141e-09)
(0.217816 -1.46311e-08 -3.26048e-09)
(0.226393 4.44495e-08 5.88241e-09)
(0.226393 -3.93025e-08 -7.21871e-09)
(0.226393 -5.39852e-09 1.32007e-09)
(0.233591 2.62895e-08 9.49246e-09)
(0.233591 -2.0233e-08 -1.32339e-08)
(0.233592 -6.18881e-09 3.73067e-09)
(0.239667 1.45363e-08 1.02259e-08)
(0.239667 -1.0102e-08 -1.46906e-08)
(0.239667 -4.51249e-09 4.4631e-09)
(0.244821 7.98161e-09 1.06243e-08)
(0.244821 -6.59695e-09 -1.57532e-08)
(0.244822 -1.38341e-09 5.12355e-09)
(0.249111 3.79052e-10 9.65652e-09)
(0.249111 -2.13597e-09 -1.42937e-08)
(0.249112 1.78088e-09 4.63593e-09)
(0.252542 -7.56445e-10 7.53643e-09)
(0.252542 -2.73687e-09 -9.32685e-09)
(0.252543 3.52764e-09 1.78973e-09)
(0.255119 7.30576e-10 4.63846e-09)
(0.255119 -6.99687e-09 -4.85862e-09)
(0.255119 6.28658e-09 2.20795e-10)
(0.256825 1.00056e-08 3.97577e-10)
(0.256825 -1.97427e-08 3.04127e-09)
(0.256825 9.70824e-09 -3.43803e-09)
(0.2578 1.69515e-08 -7.87205e-09)
(0.257799 -3.41968e-08 1.79017e-08)
(0.257799 1.7202e-08 -1.00227e-08)
(0.258347 9.89403e-09 -1.74666e-08)
(0.258346 -1.67057e-08 3.13812e-08)
(0.258345 6.77692e-09 -1.39077e-08)
(0.258346 -9.76334e-09 -1.75675e-08)
(0.258345 1.64539e-08 3.14294e-08)
(0.258344 -6.78932e-09 -1.38555e-08)
(0.257799 -1.70827e-08 -7.939e-09)
(0.257798 3.40919e-08 1.79644e-08)
(0.257798 -1.71032e-08 -1.00195e-08)
(0.256821 -9.77313e-09 3.70197e-10)
(0.256821 1.9543e-08 3.12108e-09)
(0.256822 -9.76423e-09 -3.4917e-09)
(0.255113 -7.84536e-10 4.79141e-09)
(0.255113 6.9836e-09 -5.15868e-09)
(0.255114 -6.26383e-09 3.66578e-10)
(0.252533 7.62106e-10 7.3718e-09)
(0.252533 2.65522e-09 -9.06531e-09)
(0.252534 -3.42091e-09 1.69278e-09)
(0.249101 -4.16372e-10 9.50087e-09)
(0.249102 1.64027e-09 -1.39536e-08)
(0.249102 -1.24343e-09 4.45138e-09)
(0.244809 -7.92088e-09 1.06947e-08)
(0.244809 6.22678e-09 -1.50777e-08)
(0.24481 1.66636e-09 4.38064e-09)
(0.239652 -1.43599e-08 1.00674e-08)
(0.239652 1.04604e-08 -1.41975e-08)
(0.239653 3.91444e-09 4.12997e-09)
(0.233573 -2.62592e-08 9.26294e-09)
(0.233573 2.04454e-08 -1.28619e-08)
(0.233574 5.84627e-09 3.59274e-09)
(0.226369 -4.44441e-08 5.71307e-09)
(0.226369 3.93447e-08 -6.65083e-09)
(0.226369 5.17966e-09 9.25344e-10)
(0.217788 -6.42042e-08 -5.34324e-10)
(0.217788 5.06301e-08 3.2447e-09)
(0.217788 1.39345e-08 -2.71903e-09)
(0.207434 -7.07465e-08 -7.53999e-09)
(0.207434 6.2877e-08 1.77471e-08)
(0.207434 7.91565e-09 -1.02019e-08)
(0.194388 -3.50863e-08 -1.26049e-08)
(0.194387 2.93263e-08 2.85093e-08)
(0.194387 6.06816e-09 -1.59066e-08)
(0.175579 -3.47727e-09 -1.0318e-08)
(0.175579 1.24218e-08 2.44621e-08)
(0.175578 -8.55634e-09 -1.40987e-08)
(0.102665 2.28665e-09 -2.71671e-09)
(0.102664 5.70303e-09 5.89573e-09)
(0.102664 -8.13881e-09 -3.1723e-09)
(0.118555 -3.22521e-09 -4.01847e-09)
(0.118555 -2.25131e-09 8.35705e-09)
(0.118555 5.32166e-09 -4.24284e-09)
(0.189439 2.81999e-09 -1.28797e-08)
(0.189439 -1.09682e-08 2.75672e-08)
(0.189439 7.26382e-09 -1.46016e-08)
(0.210219 3.34567e-08 -1.55973e-08)
(0.210219 -2.77263e-08 3.36137e-08)
(0.210219 -6.44585e-09 -1.80485e-08)
(0.224298 6.76516e-08 -8.7973e-09)
(0.224298 -5.73188e-08 2.09189e-08)
(0.224298 -1.07395e-08 -1.21337e-08)
(0.235344 6.39519e-08 1.0782e-09)
(0.235344 -4.66899e-08 2.48848e-09)
(0.235344 -1.78627e-08 -3.58928e-09)
(0.244449 4.31696e-08 8.20706e-09)
(0.244449 -3.72094e-08 -9.9733e-09)
(0.244449 -6.22701e-09 1.74102e-09)
(0.252071 2.52909e-08 1.27395e-08)
(0.252071 -1.89233e-08 -1.75758e-08)
(0.252072 -6.50833e-09 4.8228e-09)
(0.258496 1.38822e-08 1.35323e-08)
(0.258497 -9.26784e-09 -1.9054e-08)
(0.258497 -4.69753e-09 5.51979e-09)
(0.26395 7.56834e-09 1.38637e-08)
(0.26395 -5.93147e-09 -2.01095e-08)
(0.26395 -1.63648e-09 6.24021e-09)
(0.268497 2.5535e-10 1.27626e-08)
(0.268497 -1.75249e-09 -1.83674e-08)
(0.268497 1.52216e-09 5.60512e-09)
(0.272148 -8.03869e-10 9.85519e-09)
(0.272148 -2.39847e-09 -1.24438e-08)
(0.272148 3.23842e-09 2.58932e-09)
(0.274912 7.11917e-10 6.68942e-09)
(0.274912 -6.69104e-09 -7.37868e-09)
(0.274912 6.00062e-09 6.90638e-10)
(0.276765 9.41048e-09 1.54783e-09)
(0.276765 -1.86505e-08 2.23359e-09)
(0.276765 9.20977e-09 -3.78115e-09)
(0.277846 1.59183e-08 -8.88984e-09)
(0.277846 -3.05502e-08 2.16804e-08)
(0.277845 1.45863e-08 -1.27907e-08)
(0.278446 9.408e-09 -2.07717e-08)
(0.278445 -1.5434e-08 3.88907e-08)
(0.278444 5.9892e-09 -1.81232e-08)
(0.278445 -9.28779e-09 -2.09158e-08)
(0.278444 1.51937e-08 3.89563e-08)
(0.278444 -6.01018e-09 -1.80452e-08)
(0.277844 -1.60466e-08 -8.96705e-09)
(0.277844 3.04507e-08 2.17745e-08)
(0.277844 -1.45035e-08 -1.28095e-08)
(0.276761 -9.27762e-09 1.50195e-09)
(0.276761 1.85236e-08 2.34708e-09)
(0.276761 -9.24057e-09 -3.85086e-09)
(0.274905 -7.57114e-10 6.82135e-09)
(0.274905 6.62466e-09 -7.66802e-09)
(0.274905 -5.93596e-09 8.46208e-10)
(0.272138 8.03504e-10 9.65998e-09)
(0.272138 2.33949e-09 -1.21244e-08)
(0.272138 -3.14719e-09 2.46477e-09)
(0.268486 -2.82294e-10 1.25739e-08)
(0.268486 1.30796e-09 -1.79699e-08)
(0.268486 -1.0463e-09 5.39665e-09)
(0.263936 -7.5227e-09 1.39648e-08)
(0.263936 5.63469e-09 -1.92767e-08)
(0.263937 1.85945e-09 5.31067e-09)
(0.25848 -1.37369e-08 1.3329e-08)
(0.25848 9.63151e-09 -1.85003e-08)
(0.258481 4.12138e-09 5.17133e-09)
(0.252051 -2.52652e-08 1.24859e-08)
(0.252051 1.90944e-08 -1.71818e-08)
(0.252051 6.20552e-09 4.68909e-09)
(0.244423 -4.31172e-08 8.04116e-09)
(0.244423 3.73954e-08 -9.43339e-09)
(0.244423 5.80815e-09 1.37335e-09)
(0.235314 -6.4145e-08 4.72846e-11)
(0.235314 4.71479e-08 3.04721e-09)
(0.235314 1.73659e-08 -3.10094e-09)
(0.224267 -6.84669e-08 -9.54259e-09)
(0.224266 5.84253e-08 2.12162e-08)
(0.224266 1.00916e-08 -1.16759e-08)
(0.210191 -3.4236e-08 -1.59657e-08)
(0.210191 2.73959e-08 3.42359e-08)
(0.210191 7.15237e-09 -1.82871e-08)
(0.189416 -3.16035e-09 -1.27253e-08)
(0.189416 1.11899e-08 2.79291e-08)
(0.189416 -7.63959e-09 -1.51444e-08)
(0.118542 2.75356e-09 -4.16715e-09)
(0.118542 2.76236e-09 8.59906e-09)
(0.118542 -5.6476e-09 -4.4192e-09)
(0.132631 -4.22259e-09 -5.62013e-09)
(0.132631 1.32917e-09 1.12516e-08)
(0.13263 2.70427e-09 -5.48685e-09)
(0.20023 1.82835e-09 -1.47097e-08)
(0.20023 -8.2937e-09 2.86369e-08)
(0.20023 5.59034e-09 -1.38089e-08)
(0.222682 3.28387e-08 -1.81932e-08)
(0.222682 -2.5265e-08 3.64072e-08)
(0.222682 -8.29027e-09 -1.82583e-08)
(0.237763 6.60933e-08 -1.02114e-08)
(0.237763 -5.28515e-08 2.26915e-08)
(0.237763 -1.3656e-08 -1.24913e-08)
(0.249484 6.13969e-08 1.85197e-09)
(0.249484 -4.52056e-08 1.84941e-09)
(0.249484 -1.67981e-08 -3.72709e-09)
(0.259093 4.19728e-08 1.05875e-08)
(0.259093 -3.49389e-08 -1.27168e-08)
(0.259093 -7.31082e-09 2.09293e-09)
(0.267112 2.43164e-08 1.59988e-08)
(0.267113 -1.77893e-08 -2.18462e-08)
(0.267113 -6.67396e-09 5.82953e-09)
(0.273862 1.32421e-08 1.67681e-08)
(0.273862 -8.52014e-09 -2.3265e-08)
(0.273862 -4.80885e-09 6.4928e-09)
(0.279589 7.14639e-09 1.70577e-08)
(0.279589 -5.30297e-09 -2.4279e-08)
(0.279589 -1.84421e-09 7.21388e-09)
(0.284371 8.80775e-11 1.57738e-08)
(0.284371 -1.31458e-09 -2.23044e-08)
(0.284372 1.25208e-09 6.53e-09)
(0.288225 -9.092e-10 1.23238e-08)
(0.288225 -2.02402e-09 -1.569e-08)
(0.288225 2.97047e-09 3.36728e-09)
(0.291163 6.03853e-10 9.1248e-09)
(0.291163 -6.27433e-09 -1.03793e-08)
(0.291163 5.69281e-09 1.25576e-09)
(0.293155 7.48777e-09 3.22904e-09)
(0.293155 -1.66665e-08 6.48693e-10)
(0.293155 9.14768e-09 -3.87692e-09)
(0.294335 1.45945e-08 -9.16796e-09)
(0.294335 -2.58571e-08 2.3158e-08)
(0.294335 1.12155e-08 -1.39894e-08)
(0.294983 8.74974e-09 -2.31689e-08)
(0.294983 -1.38313e-08 4.41492e-08)
(0.294982 5.04338e-09 -2.09834e-08)
(0.294982 -8.64088e-09 -2.33615e-08)
(0.294982 1.36046e-08 4.42215e-08)
(0.294982 -5.07197e-09 -2.0864e-08)
(0.294333 -1.47195e-08 -9.25463e-09)
(0.294333 2.57691e-08 2.32708e-08)
(0.294333 -1.11531e-08 -1.40183e-08)
(0.29315 -7.42206e-09 3.17163e-09)
(0.29315 1.65821e-08 7.81597e-10)
(0.293151 -9.15513e-09 -3.95518e-09)
(0.291155 -6.48736e-10 9.21232e-09)
(0.291155 6.2196e-09 -1.05615e-08)
(0.291156 -5.64169e-09 1.34775e-09)
(0.288213 9.01365e-10 1.21074e-08)
(0.288213 1.9839e-09 -1.53313e-08)
(0.288214 -2.8899e-09 3.22425e-09)
(0.284359 -1.08713e-10 1.55669e-08)
(0.284359 9.32767e-10 -2.18758e-08)
(0.28436 -8.45266e-10 6.30919e-09)
(0.279574 -7.12267e-09 1.72034e-08)
(0.279574 5.09586e-09 -2.33288e-08)
(0.279574 1.99819e-09 6.12411e-09)
(0.273844 -1.3116e-08 1.65348e-08)
(0.273844 8.85975e-09 -2.26884e-08)
(0.273844 4.27318e-09 6.15281e-09)
(0.26709 -2.42911e-08 1.57446e-08)
(0.26709 1.78885e-08 -2.14462e-08)
(0.267091 6.43896e-09 5.6931e-09)
(0.259065 -4.18869e-08 1.04475e-08)
(0.259065 3.51922e-08 -1.22407e-08)
(0.259065 6.78569e-09 1.7664e-09)
(0.249451 -6.14657e-08 9.56505e-10)
(0.249451 4.56101e-08 2.44143e-09)
(0.249451 1.62231e-08 -3.40205e-09)
(0.23773 -6.6463e-08 -1.1063e-08)
(0.23773 5.37427e-08 2.29505e-08)
(0.23773 1.27733e-08 -1.18856e-08)
(0.222652 -3.35994e-08 -1.8589e-08)
(0.222652 2.50754e-08 3.70694e-08)
(0.222652 8.83459e-09 -1.85046e-08)
(0.200205 -2.24246e-09 -1.44572e-08)
(0.200205 8.46209e-09 2.8802e-08)
(0.200205 -5.83713e-09 -1.42595e-08)
(0.132616 3.82339e-09 -5.83897e-09)
(0.132616 -1.07492e-09 1.15679e-08)
(0.132616 -2.85386e-09 -5.70874e-09)
(0.145796 -5.69815e-09 -7.2614e-09)
(0.145796 5.29942e-09 1.42146e-08)
(0.145796 1.88129e-10 -6.75365e-09)
(0.209297 8.65112e-11 -1.55449e-08)
(0.209297 -4.34726e-09 2.84889e-08)
(0.209297 3.41488e-09 -1.27859e-08)
(0.233068 2.96621e-08 -2.00445e-08)
(0.233068 -2.34486e-08 3.82335e-08)
(0.233068 -6.91568e-09 -1.82553e-08)
(0.249108 6.23471e-08 -1.09665e-08)
(0.249108 -5.12291e-08 2.38936e-08)
(0.249108 -1.15291e-08 -1.29378e-08)
(0.261499 5.79619e-08 2.86228e-09)
(0.261499 -4.51562e-08 8.52744e-10)
(0.261499 -1.34087e-08 -3.74394e-09)
(0.271607 4.11931e-08 1.28253e-08)
(0.271607 -3.27586e-08 -1.51599e-08)
(0.271607 -8.71788e-09 2.28463e-09)
(0.280014 2.34724e-08 1.90789e-08)
(0.280014 -1.68396e-08 -2.57461e-08)
(0.280014 -6.78396e-09 6.64393e-09)
(0.287074 1.26725e-08 1.98118e-08)
(0.287074 -7.85288e-09 -2.71463e-08)
(0.287074 -4.90932e-09 7.32839e-09)
(0.29306 6.75671e-09 2.00191e-08)
(0.29306 -4.7016e-09 -2.8094e-08)
(0.293061 -2.05741e-09 8.06551e-09)
(0.298064 -1.13728e-10 1.8649e-08)
(0.298064 -8.31043e-10 -2.60125e-08)
(0.298064 9.70471e-10 7.36219e-09)
(0.302107 -1.06575e-09 1.48217e-08)
(0.302107 -1.581e-09 -1.89685e-08)
(0.302108 2.68476e-09 4.14731e-09)
(0.30521 4.23168e-10 1.17717e-08)
(0.30521 -5.73491e-09 -1.375e-08)
(0.30521 5.33471e-09 1.97967e-09)
(0.307333 6.19664e-09 5.52994e-09)
(0.307333 -1.54696e-08 -1.95626e-09)
(0.307333 9.24148e-09 -3.57125e-09)
(0.308604 1.32718e-08 -8.49182e-09)
(0.308604 -2.30214e-08 2.29608e-08)
(0.308604 9.70172e-09 -1.44669e-08)
(0.309296 8.00965e-09 -2.39571e-08)
(0.309296 -1.18942e-08 4.47697e-08)
(0.309296 3.84541e-09 -2.0813e-08)
(0.309295 -7.91229e-09 -2.41776e-08)
(0.309295 1.16824e-08 4.48385e-08)
(0.309295 -3.88152e-09 -2.06624e-08)
(0.308602 -1.33932e-08 -8.58356e-09)
(0.308602 2.29388e-08 2.30847e-08)
(0.308602 -9.65225e-09 -1.4503e-08)
(0.307328 -6.16808e-09 5.46132e-09)
(0.307328 1.54087e-08 -1.81308e-09)
(0.307328 -9.23627e-09 -3.64964e-09)
(0.305201 -4.72643e-10 1.17926e-08)
(0.305202 5.70904e-09 -1.38327e-08)
(0.305202 -5.30874e-09 2.03788e-09)
(0.302095 1.04991e-09 1.4597e-08)
(0.302095 1.55718e-09 -1.85915e-08)
(0.302095 -2.61201e-09 3.99388e-09)
(0.298051 9.45769e-11 1.8437e-08)
(0.298051 5.25502e-10 -2.55762e-08)
(0.298051 -6.4141e-10 7.13965e-09)
(0.293044 -6.75693e-09 2.01082e-08)
(0.293044 4.58395e-09 -2.7175e-08)
(0.293044 2.14496e-09 7.06547e-09)
(0.287055 -1.25454e-08 1.95702e-08)
(0.287055 8.13955e-09 -2.65766e-08)
(0.287055 4.42368e-09 7.00523e-09)
(0.27999 -2.34514e-08 1.88455e-08)
(0.27999 1.68639e-08 -2.535e-08)
(0.279991 6.62501e-09 6.49392e-09)
(0.271577 -4.1051e-08 1.27319e-08)
(0.271577 3.30071e-08 -1.47775e-08)
(0.271577 8.13852e-09 2.00896e-09)
(0.261464 -5.80511e-08 2.09011e-09)
(0.261464 4.55134e-08 1.45173e-09)
(0.261464 1.28979e-08 -3.54301e-09)
(0.249072 -6.30173e-08 -1.193e-08)
(0.249072 5.18691e-08 2.4099e-08)
(0.249072 1.11996e-08 -1.21596e-08)
(0.233036 -3.03237e-08 -2.04423e-08)
(0.233036 2.33744e-08 3.89281e-08)
(0.233037 7.24854e-09 -1.85259e-08)
(0.209269 -6.48499e-10 -1.51711e-08)
(0.20927 4.69952e-09 2.88013e-08)
(0.20927 -3.68568e-09 -1.35109e-08)
(0.14578 5.37176e-09 -7.56165e-09)
(0.14578 -5.35479e-09 1.46137e-08)
(0.14578 -9.52189e-11 -7.02438e-09)
(0.158319 -7.26915e-09 -8.59273e-09)
(0.158319 8.70263e-09 1.67929e-08)
(0.158318 -1.64853e-09 -7.9446e-09)
(0.217375 -2.51999e-09 -1.53272e-08)
(0.217375 1.40534e-09 2.6239e-08)
(0.217376 3.12267e-10 -1.07075e-08)
(0.242086 2.68301e-08 -2.09057e-08)
(0.242087 -2.13584e-08 3.85696e-08)
(0.242087 -6.14709e-09 -1.77619e-08)
(0.259004 5.96899e-08 -1.0947e-08)
(0.259004 -5.12435e-08 2.36221e-08)
(0.259004 -8.84504e-09 -1.26939e-08)
(0.272062 5.60148e-08 4.29234e-09)
(0.272062 -4.59491e-08 -6.34733e-10)
(0.272062 -1.06566e-08 -3.69089e-09)
(0.282675 4.1228e-08 1.48252e-08)
(0.282675 -3.12548e-08 -1.71891e-08)
(0.282675 -1.02594e-08 2.29784e-09)
(0.291472 2.28308e-08 2.17867e-08)
(0.291472 -1.61035e-08 -2.8884e-08)
(0.291472 -6.88115e-09 7.06734e-09)
(0.29884 1.22173e-08 2.24539e-08)
(0.29884 -7.26241e-09 -3.04714e-08)
(0.29884 -5.04679e-09 8.00942e-09)
(0.305079 6.43792e-09 2.24992e-08)
(0.305079 -4.11947e-09 -3.13461e-08)
(0.305079 -2.32256e-09 8.83575e-09)
(0.310296 -3.37542e-10 2.11899e-08)
(0.310296 -3.11211e-10 -2.9346e-08)
(0.310296 6.74208e-10 8.15481e-09)
(0.314521 -1.26585e-09 1.71614e-08)
(0.314521 -1.05806e-09 -2.21481e-08)
(0.314521 2.36234e-09 4.98796e-09)
(0.317781 1.88246e-10 1.46045e-08)
(0.317781 -5.11377e-09 -1.73557e-08)
(0.317781 4.94894e-09 2.75402e-09)
(0.320029 5.21711e-09 8.46839e-09)
(0.320029 -1.442e-08 -5.52407e-09)
(0.320029 9.17123e-09 -2.9407e-09)
(0.321385 1.20651e-08 -6.5441e-09)
(0.321385 -2.16348e-08 2.07574e-08)
(0.321386 9.52166e-09 -1.42132e-08)
(0.322116 7.2978e-09 -2.28882e-08)
(0.322116 -1.09435e-08 4.44418e-08)
(0.322116 3.60631e-09 -2.1556e-08)
(0.322115 -7.21088e-09 -2.31231e-08)
(0.322115 1.0733e-08 4.45105e-08)
(0.322116 -3.63546e-09 -2.13907e-08)
(0.321382 -1.21807e-08 -6.64247e-09)
(0.321383 2.15527e-08 2.08889e-08)
(0.321383 -9.48102e-09 -1.42515e-08)
(0.320023 -5.20854e-09 8.39386e-09)
(0.320023 1.4368e-08 -5.38235e-09)
(0.320024 -9.15558e-09 -3.01284e-09)
(0.317772 -2.43627e-10 1.45648e-08)
(0.317772 5.11398e-09 -1.73727e-08)
(0.317772 -4.94348e-09 2.80597e-09)
(0.314507 1.24132e-09 1.69444e-08)
(0.314507 1.049e-09 -2.17718e-08)
(0.314507 -2.29539e-09 4.82691e-09)
(0.310281 3.11098e-10 2.09854e-08)
(0.310281 9.74884e-11 -2.89227e-08)
(0.310282 -4.29623e-10 7.93865e-09)
(0.305061 -6.46055e-09 2.25537e-08)
(0.305061 4.06006e-09 -3.06041e-08)
(0.305062 2.3736e-09 8.04943e-09)
(0.298819 -1.20527e-08 2.22308e-08)
(0.298819 7.46977e-09 -2.99321e-08)
(0.298819 4.60172e-09 7.7002e-09)
(0.291446 -2.28318e-08 2.15907e-08)
(0.291446 1.60692e-08 -2.85089e-08)
(0.291447 6.80086e-09 6.90462e-09)
(0.282643 -4.09748e-08 1.47864e-08)
(0.282643 3.14126e-08 -1.68829e-08)
(0.282644 9.65916e-09 2.04823e-09)
(0.272026 -5.61415e-08 3.63669e-09)
(0.272026 4.62641e-08 -4.0581e-11)
(0.272026 1.02254e-08 -3.59434e-09)
(0.258966 -6.04619e-08 -1.17722e-08)
(0.258967 5.16068e-08 2.38025e-08)
(0.258967 8.90154e-09 -1.20211e-08)
(0.242053 -2.74149e-08 -2.12888e-08)
(0.242053 2.13693e-08 3.92377e-08)
(0.242053 6.32937e-09 -1.80148e-08)
(0.217346 1.72631e-09 -1.49436e-08)
(0.217347 -8.80294e-10 2.64549e-08)
(0.217347 -5.02892e-10 -1.13545e-08)
(0.158301 7.00257e-09 -9.00084e-09)
(0.158301 -9.07187e-09 1.74105e-08)
(0.158301 2.0122e-09 -8.38004e-09)
(0.170188 -8.35549e-09 -8.9719e-09)
(0.170188 1.02042e-08 1.7131e-08)
(0.170188 -2.04178e-09 -7.83737e-09)
(0.224983 -6.06199e-09 -1.45432e-08)
(0.224983 8.68098e-09 2.40757e-08)
(0.224983 -3.3611e-09 -9.26841e-09)
(0.250193 2.37336e-08 -2.06585e-08)
(0.250193 -1.78009e-08 3.70166e-08)
(0.250193 -6.5711e-09 -1.64799e-08)
(0.26786 5.74569e-08 -9.85781e-09)
(0.26786 -5.14816e-08 2.17752e-08)
(0.267861 -6.35115e-09 -1.19453e-08)
(0.281571 5.4885e-08 6.17963e-09)
(0.281571 -4.71726e-08 -2.80966e-09)
(0.281571 -8.28314e-09 -3.40948e-09)
(0.292697 4.26761e-08 1.68977e-08)
(0.292697 -3.09074e-08 -1.88939e-08)
(0.292697 -1.20559e-08 1.91258e-09)
(0.301893 2.24762e-08 2.39882e-08)
(0.301893 -1.57533e-08 -3.09275e-08)
(0.301894 -6.8778e-09 6.8999e-09)
(0.309575 1.1948e-08 2.44931e-08)
(0.309575 -6.78344e-09 -3.27777e-08)
(0.309575 -5.25758e-09 8.27185e-09)
(0.316067 6.25934e-09 2.43e-08)
(0.316067 -3.57923e-09 -3.35277e-08)
(0.316067 -2.6858e-09 9.21259e-09)
(0.321495 -5.58741e-10 2.31708e-08)
(0.321495 2.21128e-10 -3.19876e-08)
(0.321495 3.62417e-10 8.81532e-09)
(0.325897 -1.49426e-09 1.92406e-08)
(0.325897 -4.85811e-10 -2.50844e-08)
(0.325897 2.01851e-09 5.84775e-09)
(0.329311 -8.65144e-11 1.73803e-08)
(0.329311 -4.43049e-09 -2.09358e-08)
(0.329312 4.54073e-09 3.56122e-09)
(0.331681 4.36411e-09 1.1825e-08)
(0.331681 -1.32685e-08 -9.72896e-09)
(0.331681 8.87292e-09 -2.09042e-09)
(0.333118 1.08389e-08 -3.29491e-09)
(0.333118 -1.98392e-08 1.60617e-08)
(0.333118 8.95248e-09 -1.27667e-08)
(0.333884 6.5716e-09 -2.00036e-08)
(0.333884 -9.81708e-09 3.9622e-08)
(0.333884 3.20607e-09 -1.96217e-08)
(0.333883 -6.49478e-09 -2.02244e-08)
(0.333883 9.60491e-09 3.96664e-08)
(0.333883 -3.22464e-09 -1.94463e-08)
(0.333114 -1.09468e-08 -3.39863e-09)
(0.333115 1.97536e-08 1.61922e-08)
(0.333115 -8.91729e-09 -1.28002e-08)
(0.331675 -4.36586e-09 1.17558e-08)
(0.331675 1.32191e-08 -9.59741e-09)
(0.331675 -8.85003e-09 -2.15914e-09)
(0.329301 2.6349e-11 1.72945e-08)
(0.329301 4.44777e-09 -2.09171e-08)
(0.329301 -4.54735e-09 3.62246e-09)
(0.325882 1.45926e-09 1.90435e-08)
(0.325882 4.89221e-10 -2.47202e-08)
(0.325883 -1.95367e-09 5.67819e-09)
(0.321479 5.14918e-10 2.29836e-08)
(0.321479 -3.35628e-10 -3.16009e-08)
(0.321479 -1.99734e-10 8.61977e-09)
(0.316048 -6.29368e-09 2.42564e-08)
(0.316048 3.53307e-09 -3.30033e-08)
(0.316048 2.73486e-09 8.74394e-09)
(0.309553 -1.16851e-08 2.43091e-08)
(0.309553 6.89656e-09 -3.23043e-08)
(0.309553 4.80812e-09 7.9923e-09)
(0.301866 -2.25394e-08 2.38332e-08)
(0.301866 1.5678e-08 -3.06119e-08)
(0.301866 6.89989e-09 6.75978e-09)
(0.292664 -4.22119e-08 1.68517e-08)
(0.292664 3.09928e-08 -1.86829e-08)
(0.292664 1.13184e-08 1.76971e-09)
(0.281533 -5.50549e-08 5.64543e-09)
(0.281533 4.74529e-08 -2.22208e-09)
(0.281533 7.93313e-09 -3.41952e-09)
(0.267821 -5.82027e-08 -1.06151e-08)
(0.267822 5.15947e-08 2.19147e-08)
(0.267822 6.64452e-09 -1.12914e-08)
(0.250157 -2.4283e-08 -2.10804e-08)
(0.250157 1.79245e-08 3.76769e-08)
(0.250158 6.62271e-09 -1.66805e-08)
(0.224952 4.66481e-09 -1.41027e-08)
(0.224953 -7.89226e-09 2.42539e-08)
(0.224953 3.54093e-09 -9.95304e-09)
(0.170169 8.14873e-09 -9.47359e-09)
(0.170169 -1.06099e-08 1.77479e-08)
(0.170168 2.41112e-09 -8.23767e-09)
(0.18137 -8.57384e-09 -8.2868e-09)
(0.18137 1.03645e-08 1.64689e-08)
(0.18137 -1.91689e-09 -7.78528e-09)
(0.232483 -1.05143e-08 -1.46643e-08)
(0.232483 1.43921e-08 2.23183e-08)
(0.232483 -4.54236e-09 -7.33763e-09)
(0.257705 1.99528e-08 -1.96703e-08)
(0.257705 -1.26148e-08 3.46914e-08)
(0.257706 -7.9291e-09 -1.51597e-08)
(0.275955 5.49508e-08 -7.63448e-09)