/*--------------------------------*- C++ -*----------------------------------*\
  =========                 |
  \\      /  F ield         | OpenFOAM: The Open Source CFD Toolbox
   \\    /   O peration     | Website:  https://openfoam.org
    \\  /    A nd           | Version:  6
     \\/     M anipulation  |
\*---------------------------------------------------------------------------*/
FoamFile
{
    version     2.0;
    format      ascii;
    class       volScalarField;
    location    "1.4";
    object      nut;
}
// * * * * * * * * * * * * * * * * * * * * * * * * * * * * * * * * * * * * * //

dimensions      [0 2 -1 0 0 0 0];

internalField   nonuniform List<scalar> 
63400
(
5.33496e-07
5.09602e-07
4.9556e-07
4.78177e-07
4.69342e-07
4.58066e-07
4.50688e-07
4.4662e-07
4.83541e-07
4.71111e-07
4.60057e-07
4.49735e-07
4.391e-07
4.34122e-07
4.22925e-07
4.265e-07
4.1822e-07
4.13658e-07
4.08156e-07
4.05387e-07
3.99071e-07
3.99689e-07
3.90841e-07
3.98e-07
3.80749e-07
3.76102e-07
3.69896e-07
3.68178e-07
3.6265e-07
3.64728e-07
3.57628e-07
3.65847e-07
3.38581e-07
3.37757e-07
3.34396e-07
3.34454e-07
3.30803e-07
3.33616e-07
3.28014e-07
3.3654e-07
2.94846e-07
2.94963e-07
2.93311e-07
2.94813e-07
2.93234e-07
2.97429e-07
2.94126e-07
3.03456e-07
2.71027e-07
2.69861e-07
2.67162e-07
2.67289e-07
2.65045e-07
2.68168e-07
2.65362e-07
2.74036e-07
2.39759e-07
2.40751e-07
2.3997e-07
2.412e-07
2.39456e-07
2.42056e-07
2.38809e-07
2.4594e-07
2.09972e-07
2.11881e-07
2.12198e-07
2.1449e-07
2.14123e-07
2.17196e-07
2.1443e-07
2.20606e-07
1.80434e-07
1.82787e-07
1.83752e-07
1.86285e-07
1.86575e-07
1.89997e-07
1.88159e-07
1.94627e-07
1.56121e-07
1.58053e-07
1.58971e-07
1.61295e-07
1.61467e-07
1.64255e-07
1.62646e-07
1.68423e-07
1.3274e-07
1.34222e-07
1.34904e-07
1.37082e-07
1.37844e-07
1.41018e-07
1.40794e-07
1.46392e-07
1.15541e-07
1.1614e-07
1.16029e-07
1.17438e-07
1.18004e-07
1.21121e-07
1.21804e-07
1.27335e-07
1.05604e-07
1.05885e-07
1.05468e-07
1.06292e-07
1.06177e-07
1.08215e-07
1.08079e-07
1.12241e-07
9.11707e-08
9.20386e-08
9.22337e-08
9.33523e-08
9.33038e-08
9.48444e-08
9.40612e-08
9.69189e-08
7.64624e-08
7.73027e-08
7.76194e-08
7.87081e-08
7.88683e-08
8.02026e-08
7.95673e-08
8.18383e-08
6.11283e-08
6.18335e-08
6.21722e-08
6.31263e-08
6.33608e-08
6.457e-08
6.41443e-08
6.603e-08
4.7384e-08
4.79053e-08
4.8213e-08
4.88955e-08
4.91448e-08
5.02087e-08
5.0189e-08
5.19306e-08
3.21013e-08
3.24816e-08
3.27583e-08
3.32379e-08
3.35015e-08
3.44518e-08
3.47287e-08
3.65199e-08
1.60997e-08
1.63091e-08
1.64949e-08
1.653e-08
1.61545e-08
1.60804e-08
1.61717e-08
1.74998e-08
9.27266e-08
9.47106e-08
9.63777e-08
9.77633e-08
9.70214e-08
9.85845e-08
9.93717e-08
1.0558e-07
4.14383e-06
4.12479e-06
4.12648e-06
4.10998e-06
4.10797e-06
4.09616e-06
4.08175e-06
4.08157e-06
4.07988e-06
4.0732e-06
4.06901e-06
4.06489e-06
4.05591e-06
4.05871e-06
4.04122e-06
4.05283e-06
4.00677e-06
4.00831e-06
4.00375e-06
4.00756e-06
3.99668e-06
4.00505e-06
3.98679e-06
4.00545e-06
3.94467e-06
3.94914e-06
3.94204e-06
3.9497e-06
3.93975e-06
3.95079e-06
3.93483e-06
3.95548e-06
3.87433e-06
3.88166e-06
3.87661e-06
3.8854e-06
3.87768e-06
3.89098e-06
3.87704e-06
3.90358e-06
3.79517e-06
3.80384e-06
3.80019e-06
3.8104e-06
3.80312e-06
3.81748e-06
3.80382e-06
3.83337e-06
3.72966e-06
3.73639e-06
3.73164e-06
3.74002e-06
3.73167e-06
3.74382e-06
3.73051e-06
3.75982e-06
3.64843e-06
3.65919e-06
3.65718e-06
3.66995e-06
3.66393e-06
3.67867e-06
3.66481e-06
3.69078e-06
3.54675e-06
3.5625e-06
3.56411e-06
3.5811e-06
3.58098e-06
3.60329e-06
3.59438e-06
3.62635e-06
3.43823e-06
3.45681e-06
3.46217e-06
3.48171e-06
3.48244e-06
3.50695e-06
3.49641e-06
3.53493e-06
3.31585e-06
3.33423e-06
3.34185e-06
3.36641e-06
3.37037e-06
3.39568e-06
3.38316e-06
3.4209e-06
3.18942e-06
3.20336e-06
3.20418e-06
3.22182e-06
3.22238e-06
3.24692e-06
3.24094e-06
3.28297e-06
3.06956e-06
3.07927e-06
3.07375e-06
3.08463e-06
3.07955e-06
3.10295e-06
3.10317e-06
3.15216e-06
2.96754e-06
2.97523e-06
2.96938e-06
2.9806e-06
2.97508e-06
2.99692e-06
2.99392e-06
3.03942e-06
2.83997e-06
2.85345e-06
2.85414e-06
2.87217e-06
2.87047e-06
2.89431e-06
2.88627e-06
2.92617e-06
2.65761e-06
2.67319e-06
2.67714e-06
2.69737e-06
2.69993e-06
2.72528e-06
2.71869e-06
2.7598e-06
2.44986e-06
2.46507e-06
2.47013e-06
2.49042e-06
2.49371e-06
2.52023e-06
2.51492e-06
2.55702e-06
2.17571e-06
2.1896e-06
2.19651e-06
2.21418e-06
2.21803e-06
2.24492e-06
2.24644e-06
2.29464e-06
1.82428e-06
1.8369e-06
1.8445e-06
1.85892e-06
1.86279e-06
1.89146e-06
1.89824e-06
1.95889e-06
1.25692e-06
1.26746e-06
1.2789e-06
1.28363e-06
1.26085e-06
1.2482e-06
1.23756e-06
1.28951e-06
1.00787e-05
1.02861e-05
1.0497e-05
1.07167e-05
1.08619e-05
1.10956e-05
1.12972e-05
1.17052e-05
9.07167e-06
9.04509e-06
9.0764e-06
9.05361e-06
9.06957e-06
9.05894e-06
9.03935e-06
9.04894e-06
8.93378e-06
8.93659e-06
8.94647e-06
8.95663e-06
8.9495e-06
8.97608e-06
8.94639e-06
8.98636e-06
8.78877e-06
8.80885e-06
8.80949e-06
8.83699e-06
8.8194e-06
8.85721e-06
8.82171e-06
8.87625e-06
8.66394e-06
8.69397e-06
8.68749e-06
8.72342e-06
8.70709e-06
8.74799e-06
8.71641e-06
8.77042e-06
8.53214e-06
8.56357e-06
8.55866e-06
8.59488e-06
8.58218e-06
8.62782e-06
8.59949e-06
8.6662e-06
8.39357e-06
8.42644e-06
8.42196e-06
8.45868e-06
8.44348e-06
8.48897e-06
8.45685e-06
8.52732e-06
8.2656e-06
8.29676e-06
8.29298e-06
8.32748e-06
8.3116e-06
8.35122e-06
8.31966e-06
8.38527e-06
8.12382e-06
8.1614e-06
8.15885e-06
8.20094e-06
8.18889e-06
8.2338e-06
8.20456e-06
8.26022e-06
7.93728e-06
7.98458e-06
7.98831e-06
8.03687e-06
8.03434e-06
8.09642e-06
8.07927e-06
8.15317e-06
7.76586e-06
7.81523e-06
7.82466e-06
7.87694e-06
7.87237e-06
7.93809e-06
7.91179e-06
8.00044e-06
7.5496e-06
7.59769e-06
7.61097e-06
7.67688e-06
7.68456e-06
7.75755e-06
7.72951e-06
7.81798e-06
7.36623e-06
7.40109e-06
7.39556e-06
7.43916e-06
7.43115e-06
7.49023e-06
7.46813e-06
7.55932e-06
7.17753e-06
7.21e-06
7.196e-06
7.22579e-06
7.20029e-06
7.24472e-06
7.22572e-06
7.32036e-06
6.96475e-06
6.99444e-06
6.98136e-06
7.01636e-06
6.99698e-06
7.04679e-06
7.02934e-06
7.12043e-06
6.78812e-06
6.82317e-06
6.81781e-06
6.86523e-06
6.85505e-06
6.91559e-06
6.89488e-06
6.98114e-06
6.46031e-06
6.50056e-06
6.50421e-06
6.55575e-06
6.55651e-06
6.62314e-06
6.60494e-06
6.70061e-06
6.17845e-06
6.21524e-06
6.22112e-06
6.27047e-06
6.26976e-06
6.33327e-06
6.31568e-06
6.41363e-06
5.67128e-06
5.70352e-06
5.71489e-06
5.75934e-06
5.75857e-06
5.8169e-06
5.80816e-06
5.91815e-06
5.2963e-06
5.32185e-06
5.33037e-06
5.35799e-06
5.34602e-06
5.38935e-06
5.37083e-06
5.4843e-06
4.65745e-06
4.66627e-06
4.69087e-06
4.73074e-06
4.68137e-06
4.61909e-06
4.49967e-06
4.49891e-06
1.19334e-05
1.21609e-05
1.23967e-05
1.26517e-05
1.28236e-05
1.308e-05
1.32943e-05
1.37228e-05
1.5188e-05
1.51637e-05
1.52516e-05
1.52356e-05
1.52868e-05
1.52968e-05
1.52809e-05
1.53146e-05
1.49764e-05
1.50013e-05
1.50406e-05
1.50843e-05
1.50891e-05
1.51601e-05
1.513e-05
1.52115e-05
1.47598e-05
1.48126e-05
1.48254e-05
1.48965e-05
1.4877e-05
1.49628e-05
1.49177e-05
1.50212e-05
1.45623e-05
1.46361e-05
1.46365e-05
1.47199e-05
1.4703e-05
1.47892e-05
1.475e-05
1.48455e-05
1.4369e-05
1.4438e-05
1.44366e-05
1.45168e-05
1.45039e-05
1.45969e-05
1.45617e-05
1.46757e-05
1.41687e-05
1.42381e-05
1.42356e-05
1.43143e-05
1.42931e-05
1.43843e-05
1.43373e-05
1.44556e-05
1.39619e-05
1.40315e-05
1.40335e-05
1.41113e-05
1.4092e-05
1.41713e-05
1.41249e-05
1.42289e-05
1.37486e-05
1.38298e-05
1.38286e-05
1.39147e-05
1.39015e-05
1.3987e-05
1.39516e-05
1.40354e-05
1.34543e-05
1.35512e-05
1.35605e-05
1.3655e-05
1.3651e-05
1.37634e-05
1.37494e-05
1.38659e-05
1.32158e-05
1.33099e-05
1.3326e-05
1.34273e-05
1.34168e-05
1.35367e-05
1.35019e-05
1.36428e-05
1.2881e-05
1.29702e-05
1.29868e-05
1.31094e-05
1.31244e-05
1.32665e-05
1.32343e-05
1.3386e-05
1.26439e-05
1.27088e-05
1.26953e-05
1.27768e-05
1.2761e-05
1.28656e-05
1.28296e-05
1.29777e-05
1.23669e-05
1.24347e-05
1.24158e-05
1.24798e-05
1.24351e-05
1.25023e-05
1.24578e-05
1.25912e-05
1.19968e-05
1.2061e-05
1.2041e-05
1.21117e-05
1.20796e-05
1.21605e-05
1.21296e-05
1.22563e-05
1.17717e-05
1.18369e-05
1.18209e-05
1.19066e-05
1.18882e-05
1.19918e-05
1.19655e-05
1.20914e-05
1.12594e-05
1.13329e-05
1.13351e-05
1.14267e-05
1.14267e-05
1.15465e-05
1.15212e-05
1.16643e-05
1.09202e-05
1.09838e-05
1.09918e-05
1.1079e-05
1.10768e-05
1.1184e-05
1.11551e-05
1.1303e-05
1.01669e-05
1.0218e-05
1.02314e-05
1.03096e-05
1.03051e-05
1.03932e-05
1.03672e-05
1.05144e-05
1.00622e-05
1.01008e-05
1.01068e-05
1.01486e-05
1.01164e-05
1.01616e-05
1.00913e-05
1.01927e-05
9.68417e-06
9.67185e-06
9.6978e-06
9.80667e-06
9.74576e-06
9.64255e-06
9.38386e-06
9.2568e-06
1.34724e-05
1.37162e-05
1.39732e-05
1.42653e-05
1.44695e-05
1.47487e-05
1.49733e-05
1.54084e-05
2.23537e-05
2.23362e-05
2.24977e-05
2.25033e-05
2.25985e-05
2.2654e-05
2.26488e-05
2.27257e-05
2.20737e-05
2.21277e-05
2.22043e-05
2.22985e-05
2.23222e-05
2.24543e-05
2.24372e-05
2.25731e-05
2.17847e-05
2.18791e-05
2.19065e-05
2.2038e-05
2.20232e-05
2.21713e-05
2.21271e-05
2.22927e-05
2.1504e-05
2.16333e-05
2.16447e-05
2.17902e-05
2.1781e-05
2.19239e-05
2.18877e-05
2.20345e-05
2.12525e-05
2.13665e-05
2.13705e-05
2.15058e-05
2.14999e-05
2.16497e-05
2.16181e-05
2.17849e-05
2.09881e-05
2.10987e-05
2.10999e-05
2.12323e-05
2.121e-05
2.13574e-05
2.13033e-05
2.1475e-05
2.06859e-05
2.08021e-05
2.08129e-05
2.09473e-05
2.09334e-05
2.1062e-05
2.10075e-05
2.11524e-05
2.0389e-05
2.05267e-05
2.05308e-05
2.06694e-05
2.06649e-05
2.07961e-05
2.07675e-05
2.08815e-05
1.99701e-05
2.0129e-05
2.01495e-05
2.02994e-05
2.02989e-05
2.04615e-05
2.04642e-05
2.06215e-05
1.96672e-05
1.98135e-05
1.98392e-05
2.00009e-05
1.99891e-05
2.01659e-05
2.01352e-05
2.03236e-05
1.92037e-05
1.9339e-05
1.9355e-05
1.9538e-05
1.95625e-05
1.97835e-05
1.97633e-05
1.99883e-05
1.89297e-05
1.90257e-05
1.90042e-05
1.91284e-05
1.91099e-05
1.92651e-05
1.92186e-05
1.94296e-05
1.85529e-05
1.86592e-05
1.86416e-05
1.87505e-05
1.86998e-05
1.87905e-05
1.87184e-05
1.88808e-05
1.79957e-05
1.81003e-05
1.80772e-05
1.81876e-05
1.81519e-05
1.82595e-05
1.82202e-05
1.8367e-05
1.77397e-05
1.78361e-05
1.78074e-05
1.79272e-05
1.7906e-05
1.80466e-05
1.80279e-05
1.81811e-05
1.70519e-05
1.71583e-05
1.71581e-05
1.72852e-05
1.72866e-05
1.74583e-05
1.74401e-05
1.7613e-05
1.67167e-05
1.68002e-05
1.68112e-05
1.69314e-05
1.69347e-05
1.70802e-05
1.70499e-05
1.72303e-05
1.58496e-05
1.59077e-05
1.59159e-05
1.60174e-05
1.60139e-05
1.61141e-05
1.60773e-05
1.62136e-05
1.64229e-05
1.64677e-05
1.64666e-05
1.65187e-05
1.64709e-05
1.65053e-05
1.63889e-05
1.63993e-05
1.63669e-05
1.63238e-05
1.63334e-05
1.6559e-05
1.65258e-05
1.64167e-05
1.6024e-05
1.57484e-05
1.48366e-05
1.50943e-05
1.53677e-05
1.56954e-05
1.59371e-05
1.62421e-05
1.64793e-05
1.69118e-05
3.05972e-05
3.05866e-05
3.08257e-05
3.08678e-05
3.10051e-05
3.11315e-05
3.11421e-05
3.12809e-05
3.02603e-05
3.03456e-05
3.04573e-05
3.06144e-05
3.06594e-05
3.08634e-05
3.08704e-05
3.1071e-05
2.99039e-05
3.00425e-05
3.008e-05
3.02819e-05
3.02774e-05
3.0497e-05
3.04624e-05
3.07004e-05
2.95308e-05
2.97194e-05
2.97408e-05
2.9956e-05
2.99623e-05
3.017e-05
3.01446e-05
3.03538e-05
2.92296e-05
2.93877e-05
2.93952e-05
2.95894e-05
2.95968e-05
2.98093e-05
2.97889e-05
3.00136e-05
2.89024e-05
2.90497e-05
2.90516e-05
2.92433e-05
2.92246e-05
2.94355e-05
2.93807e-05
2.96107e-05
2.84847e-05
2.86501e-05
2.86678e-05
2.88653e-05
2.88659e-05
2.9053e-05
2.89961e-05
2.91866e-05
2.80931e-05
2.82931e-05
2.83071e-05
2.84991e-05
2.85137e-05
2.86946e-05
2.8682e-05
2.8835e-05
2.75404e-05
2.77638e-05
2.78006e-05
2.80098e-05
2.80204e-05
2.82278e-05
2.82553e-05
2.84547e-05
2.71801e-05
2.73774e-05
2.74132e-05
2.76404e-05
2.76356e-05
2.78665e-05
2.78508e-05
2.808e-05
2.65912e-05
2.67695e-05
2.67806e-05
2.70186e-05
2.70497e-05
2.73484e-05
2.73498e-05
2.76541e-05
2.63056e-05
2.64235e-05
2.63929e-05
2.65569e-05
2.65398e-05
2.67492e-05
2.66912e-05
2.69691e-05
2.5823e-05
2.59575e-05
2.59451e-05
2.61012e-05
2.6062e-05
2.61838e-05
2.6084e-05
2.62729e-05
2.50651e-05
2.52049e-05
2.51841e-05
2.53293e-05
2.53025e-05
2.54319e-05
2.53874e-05
2.55442e-05
2.48065e-05
2.49258e-05
2.48859e-05
2.50239e-05
2.5005e-05
2.51676e-05
2.51667e-05
2.53378e-05
2.40002e-05
2.41286e-05
2.41259e-05
2.42715e-05
2.42726e-05
2.44821e-05
2.44867e-05
2.46731e-05
2.37578e-05
2.38427e-05
2.38549e-05
2.399e-05
2.40033e-05
2.41722e-05
2.41525e-05
2.43455e-05
2.30247e-05
2.3071e-05
2.30643e-05
2.31659e-05
2.31659e-05
2.32515e-05
2.32202e-05
2.33049e-05
2.44937e-05
2.4542e-05
2.45312e-05
2.46002e-05
2.45452e-05
2.45737e-05
2.44459e-05
2.43503e-05
2.41792e-05
2.41206e-05
2.40962e-05
2.44975e-05
2.4541e-05
2.44977e-05
2.39852e-05
2.36244e-05
1.60848e-05
1.63566e-05
1.66425e-05
1.70014e-05
1.72834e-05
1.76191e-05
1.78754e-05
1.83036e-05
4.00422e-05
4.00351e-05
4.03424e-05
4.04326e-05
4.0601e-05
4.08178e-05
4.08474e-05
4.10637e-05
3.966e-05
3.97757e-05
3.99108e-05
4.0136e-05
4.01996e-05
4.04797e-05
4.05175e-05
4.07887e-05
3.92444e-05
3.94264e-05
3.94624e-05
3.97354e-05
3.97438e-05
4.00387e-05
4.00192e-05
4.03347e-05
3.87706e-05
3.90167e-05
3.90409e-05
3.93247e-05
3.93505e-05
3.96289e-05
3.96179e-05
3.98991e-05
3.84307e-05
3.86262e-05
3.86304e-05
3.88794e-05
3.89018e-05
3.91801e-05
3.91754e-05
3.94616e-05
3.80443e-05
3.82196e-05
3.8212e-05
3.84614e-05
3.84476e-05
3.87262e-05
3.86756e-05
3.89657e-05
3.74869e-05
3.77015e-05
3.77185e-05
3.79765e-05
3.79961e-05
3.82516e-05
3.81971e-05
3.84373e-05
3.69921e-05
3.72527e-05
3.72796e-05
3.75203e-05
3.7559e-05
3.77947e-05
3.7802e-05
3.80063e-05
3.63079e-05
3.65867e-05
3.66408e-05
3.69069e-05
3.6936e-05
3.71826e-05
3.72352e-05
3.74804e-05
3.59011e-05
3.6139e-05
3.61808e-05
3.64698e-05
3.64809e-05
3.67599e-05
3.67682e-05
3.70303e-05
3.52049e-05
3.54138e-05
3.54149e-05
3.56966e-05
3.57263e-05
3.6091e-05
3.61154e-05
3.64934e-05
3.49391e-05
3.50613e-05
3.50169e-05
3.52115e-05
3.51935e-05
3.54597e-05
3.53867e-05
3.57253e-05
3.43561e-05
3.44955e-05
3.44855e-05
3.46814e-05
3.46657e-05
3.48327e-05
3.47082e-05
3.49269e-05
3.34044e-05
3.35608e-05
3.3545e-05
3.37128e-05
3.3704e-05
3.38534e-05
3.38044e-05
3.39674e-05
3.31837e-05
3.33061e-05
3.32587e-05
3.33915e-05
3.33758e-05
3.35386e-05
3.35587e-05
3.37384e-05
3.23636e-05
3.24941e-05
3.24877e-05
3.26278e-05
3.26207e-05
3.28402e-05
3.28787e-05
3.30639e-05
3.2316e-05
3.23792e-05
3.23866e-05
3.25098e-05
3.25298e-05
3.2698e-05
3.26994e-05
3.28826e-05
3.19783e-05
3.20003e-05
3.19711e-05
3.20537e-05
3.20564e-05
3.2103e-05
3.20946e-05
3.21157e-05
3.41059e-05
3.41745e-05
3.41537e-05
3.42734e-05
3.42203e-05
3.4274e-05
3.41681e-05
3.40416e-05
3.23445e-05
3.23115e-05
3.22301e-05
3.28719e-05
3.30377e-05
3.31705e-05
3.25372e-05
3.22019e-05
1.72363e-05
1.75248e-05
1.78213e-05
1.82056e-05
1.85269e-05
1.88973e-05
1.91812e-05
1.96103e-05
5.08621e-05
5.0855e-05
5.12125e-05
5.1356e-05
5.15393e-05
5.18551e-05
5.19054e-05
5.22111e-05
5.04407e-05
5.05861e-05
5.07282e-05
5.10192e-05
5.10936e-05
5.14472e-05
5.15177e-05
5.18624e-05
4.99717e-05
5.01982e-05
5.02188e-05
5.05544e-05
5.05732e-05
5.09423e-05
5.09411e-05
5.13326e-05
4.939e-05
4.96911e-05
4.97072e-05
5.00504e-05
5.00929e-05
5.04464e-05
5.04493e-05
5.0809e-05
4.90215e-05
4.92475e-05
4.92383e-05
4.95319e-05
4.95641e-05
4.99083e-05
4.99206e-05
5.02713e-05
4.85776e-05
4.87769e-05
4.87455e-05
4.90431e-05
4.90303e-05
4.93772e-05
4.93352e-05
4.96843e-05
4.78563e-05
4.81219e-05
4.81279e-05
4.84357e-05
4.84696e-05
4.88015e-05
4.87554e-05
4.90482e-05
4.72555e-05
4.75695e-05
4.76098e-05
4.7891e-05
4.79505e-05
4.82452e-05
4.82722e-05
4.85399e-05
4.64566e-05
4.67727e-05
4.68386e-05
4.71529e-05
4.72044e-05
4.74863e-05
4.7558e-05
4.78536e-05
4.6019e-05
4.62804e-05
4.63189e-05
4.66558e-05
4.66885e-05
4.70064e-05
4.70461e-05
4.73351e-05
4.525e-05
4.54688e-05
4.54528e-05
4.57639e-05
4.57817e-05
4.61906e-05
4.62343e-05
4.66653e-05
4.50364e-05
4.51425e-05
4.50755e-05
4.52876e-05
4.52588e-05
4.5579e-05
4.54919e-05
4.58693e-05
4.43752e-05
4.4489e-05
4.44703e-05
4.46897e-05
4.46978e-05
4.49233e-05
4.47832e-05
4.5034e-05
4.32648e-05
4.34074e-05
4.33927e-05
4.35642e-05
4.35756e-05
4.3744e-05
4.36914e-05
4.38605e-05
4.31323e-05
4.32287e-05
4.31761e-05
4.32778e-05
4.32623e-05
4.33979e-05
4.34341e-05
4.36095e-05
4.24335e-05
4.25422e-05
4.25297e-05
4.26389e-05
4.26145e-05
4.28045e-05
4.28785e-05
4.30474e-05
4.26548e-05
4.26814e-05
4.26772e-05
4.27645e-05
4.27816e-05
4.29187e-05
4.29466e-05
4.30992e-05
4.28084e-05
4.28198e-05
4.27688e-05
4.284e-05
4.28466e-05
4.28518e-05
4.28754e-05
4.28617e-05
4.48068e-05
4.49456e-05
4.49161e-05
4.51524e-05
4.51134e-05
4.52569e-05
4.51772e-05
4.51554e-05
4.00488e-05
4.01108e-05
3.99347e-05
4.08711e-05
4.11919e-05
4.16439e-05
4.08822e-05
4.06814e-05
1.82919e-05
1.85996e-05
1.89073e-05
1.93121e-05
1.96685e-05
2.0074e-05
2.03919e-05
2.08305e-05
6.32356e-05
6.32283e-05
6.36182e-05
6.38137e-05
6.39966e-05
6.4408e-05
6.4478e-05
6.48814e-05
6.27735e-05
6.29507e-05
6.30858e-05
6.34351e-05
6.35099e-05
6.39287e-05
6.40277e-05
6.44489e-05
6.22487e-05
6.25263e-05
6.25238e-05
6.29086e-05
6.29308e-05
6.33673e-05
6.33857e-05
6.38484e-05
6.15541e-05
6.19116e-05
6.19118e-05
6.23008e-05
6.23492e-05
6.27788e-05
6.27933e-05
6.32342e-05
6.11629e-05
6.14189e-05
6.13881e-05
6.17138e-05
6.17437e-05
6.21494e-05
6.21767e-05
6.25948e-05
6.06575e-05
6.08896e-05
6.0824e-05
6.11554e-05
6.11342e-05
6.15443e-05
6.15149e-05
6.19211e-05
5.97578e-05
6.00796e-05
6.00684e-05
6.04112e-05
6.04442e-05
6.08528e-05
6.08233e-05
6.11714e-05
5.90576e-05
5.94157e-05
5.94676e-05
5.97807e-05
5.98486e-05
6.02023e-05
6.02455e-05
6.05851e-05
5.81773e-05
5.85099e-05
5.85768e-05
5.89233e-05
5.89949e-05
5.93097e-05
5.93899e-05
5.97391e-05
5.77335e-05
5.79978e-05
5.80218e-05
5.83822e-05
5.84363e-05
5.87783e-05
5.88527e-05
5.91677e-05
5.69428e-05
5.71475e-05
5.71055e-05
5.74283e-05
5.74269e-05
5.78483e-05
5.79057e-05
5.83574e-05
5.68089e-05
5.68845e-05
5.67848e-05
5.69993e-05
5.69467e-05
5.73056e-05
5.7214e-05
5.75956e-05
5.61124e-05
5.61738e-05
5.61295e-05
5.63489e-05
5.63689e-05
5.6656e-05
5.65155e-05
5.67937e-05
5.49132e-05
5.50071e-05
5.49817e-05
5.51324e-05
5.51575e-05
5.53412e-05
5.52868e-05
5.54621e-05
5.49191e-05
5.49602e-05
5.49007e-05
5.49468e-05
5.49278e-05
5.50073e-05
5.50476e-05
5.51995e-05
5.4465e-05
5.45364e-05
5.45159e-05
5.45744e-05
5.45291e-05
5.46503e-05
5.47491e-05
5.48848e-05
5.49286e-05
5.49295e-05
5.49138e-05
5.49609e-05
5.49664e-05
5.50502e-05
5.51005e-05
5.52155e-05
5.53273e-05
5.53847e-05
5.53264e-05
5.54363e-05
5.54561e-05
5.54622e-05
5.55137e-05
5.55405e-05
5.59567e-05
5.62575e-05
5.62226e-05
5.6665e-05
5.66564e-05
5.69937e-05
5.69156e-05
5.71496e-05
4.65864e-05
4.68504e-05
4.65263e-05
4.77748e-05
4.82616e-05
4.91946e-05
4.83177e-05
4.83309e-05
1.92484e-05
1.95765e-05
1.98966e-05
2.03184e-05
2.07055e-05
2.1143e-05
2.14972e-05
2.19506e-05
7.73141e-05
7.73105e-05
7.77224e-05
7.79647e-05
7.81382e-05
7.86329e-05
7.87192e-05
7.92232e-05
7.68036e-05
7.70172e-05
7.71393e-05
7.75392e-05
7.76046e-05
7.80776e-05
7.81939e-05
7.86952e-05
7.62123e-05
7.65517e-05
7.65298e-05
7.69523e-05
7.69691e-05
7.74615e-05
7.74979e-05
7.80264e-05
7.54035e-05
7.58223e-05
7.58073e-05
7.62314e-05
7.6269e-05
7.67705e-05
7.6793e-05
7.73138e-05
7.49896e-05
7.52843e-05
7.52311e-05
7.55794e-05
7.55912e-05
7.60488e-05
7.60839e-05
7.65707e-05
7.44135e-05
7.46996e-05
7.4603e-05
7.49544e-05
7.49128e-05
7.53732e-05
7.53576e-05
7.58194e-05
7.33429e-05
7.37261e-05
7.36998e-05
7.40659e-05
7.40772e-05
7.45493e-05
7.45427e-05
7.4949e-05
7.25653e-05
7.29554e-05
7.30159e-05
7.3354e-05
7.34129e-05
7.38163e-05
7.38681e-05
7.42802e-05
7.16538e-05
7.19833e-05
7.20398e-05
7.23964e-05
7.24771e-05
7.28205e-05
7.28958e-05
7.32955e-05
7.12419e-05
7.14882e-05
7.14896e-05
7.18408e-05
7.19091e-05
7.22526e-05
7.23553e-05
7.26973e-05
7.0496e-05
7.06657e-05
7.05907e-05
7.09018e-05
7.08808e-05
7.12754e-05
7.134e-05
7.17756e-05
7.04596e-05
7.05033e-05
7.03649e-05
7.05659e-05
7.04809e-05
7.08472e-05
7.07676e-05
7.11146e-05
6.97891e-05
6.97862e-05
6.97e-05
6.98926e-05
6.99046e-05
7.02388e-05
7.01168e-05
7.04075e-05
6.86041e-05
6.86219e-05
6.85697e-05
6.86719e-05
6.86965e-05
6.88856e-05
6.88318e-05
6.90094e-05
6.8776e-05
6.87462e-05
6.8676e-05
6.86476e-05
6.8623e-05
6.86253e-05
6.86536e-05
6.87589e-05
6.86088e-05
6.86514e-05
6.86285e-05
6.86321e-05
6.85701e-05
6.86045e-05
6.87083e-05
6.87978e-05
6.90964e-05
6.91226e-05
6.91112e-05
6.91521e-05
6.91472e-05
6.91875e-05
6.92454e-05
6.93469e-05
6.90688e-05
6.92754e-05
6.92403e-05
6.9485e-05
6.95366e-05
6.96419e-05
6.97077e-05
6.98979e-05
6.68394e-05
6.7436e-05
6.74084e-05
6.81557e-05
6.81918e-05
6.8863e-05
6.87553e-05
6.93894e-05
5.14516e-05
5.20762e-05
5.15536e-05
5.30677e-05
5.36929e-05
5.52666e-05
5.43422e-05
5.46232e-05
2.01091e-05
2.04576e-05
2.07893e-05
2.12245e-05
2.16396e-05
2.21051e-05
2.24955e-05
2.29628e-05
9.32117e-05
9.32168e-05
9.36496e-05
9.39328e-05
9.40973e-05
9.46582e-05
9.47566e-05
9.5358e-05
9.26433e-05
9.28979e-05
9.30091e-05
9.34544e-05
9.35047e-05
9.40219e-05
9.41381e-05
9.47208e-05
9.19732e-05
9.23825e-05
9.23556e-05
9.28109e-05
9.28167e-05
9.335e-05
9.33981e-05
9.39869e-05
9.10554e-05
9.15384e-05
9.15179e-05
9.19739e-05
9.19851e-05
9.25465e-05
9.25716e-05
9.31662e-05
9.06137e-05
9.09611e-05
9.08937e-05
9.1262e-05
9.12417e-05
9.17369e-05
9.17674e-05
9.23167e-05
8.99615e-05
9.03241e-05
9.02158e-05
9.05801e-05
9.05083e-05
9.09984e-05
9.09921e-05
9.15047e-05
8.87577e-05
8.91998e-05
8.91679e-05
8.95522e-05
8.95244e-05
9.00326e-05
9.00468e-05
9.05111e-05
8.79464e-05
8.83517e-05
8.84139e-05
8.87713e-05
8.88043e-05
8.92374e-05
8.9285e-05
8.97562e-05
8.70707e-05
8.73792e-05
8.74166e-05
8.77584e-05
8.78283e-05
8.81885e-05
8.82449e-05
8.8678e-05
8.67436e-05
8.69525e-05
8.69302e-05
8.72359e-05
8.73053e-05
8.76208e-05
8.77318e-05
8.80917e-05
8.61183e-05
8.62419e-05
8.61345e-05
8.64042e-05
8.63715e-05
8.6697e-05
8.67604e-05
8.71425e-05
8.61847e-05
8.62094e-05
8.60375e-05
8.62084e-05
8.60946e-05
8.64248e-05
8.63737e-05
8.66525e-05
8.56079e-05
8.55493e-05
8.54147e-05
8.55557e-05
8.554e-05
8.58877e-05
8.58015e-05
8.6083e-05
8.45506e-05
8.44849e-05
8.43936e-05
8.4424e-05
8.44295e-05
8.46086e-05
8.4557e-05
8.47278e-05
8.48521e-05
8.4765e-05
8.46852e-05
8.45783e-05
8.45473e-05
8.44719e-05
8.44739e-05
8.45157e-05
8.48473e-05
8.49065e-05
8.49014e-05
8.4877e-05
8.48086e-05
8.47809e-05
8.48717e-05
8.49209e-05
8.48711e-05
8.50186e-05
8.50457e-05
8.51662e-05
8.51679e-05
8.52314e-05
8.52756e-05
8.54352e-05
8.33665e-05
8.38609e-05
8.38938e-05
8.44065e-05
8.45151e-05
8.48667e-05
8.49313e-05
8.54506e-05
7.67594e-05
7.78123e-05
7.78244e-05
7.89745e-05
7.90569e-05
8.02186e-05
8.00689e-05
8.12421e-05
5.43976e-05
5.55938e-05
5.48775e-05
5.65374e-05
5.72017e-05
5.95328e-05
5.8712e-05
5.93302e-05
2.08856e-05
2.12556e-05
2.15979e-05
2.20394e-05
2.24794e-05
2.29703e-05
2.33988e-05
2.38755e-05
0.000111018
0.000111034
0.000111491
0.000111808
0.000111973
0.000112581
0.000112689
0.000113377
0.000110384
0.000110681
0.000110788
0.000111275
0.000111309
0.000111863
0.00011196
0.000112617
0.000109633
0.00011011
0.000110096
0.000110585
0.00011058
0.000111139
0.000111187
0.000111827
0.000108621
0.000109163
0.000109149
0.000109641
0.000109618
0.000110219
0.000110239
0.000110895
0.000108145
0.000108556
0.000108489
0.000108881
0.000108822
0.000109337
0.000109348
0.000109941
0.000107428
0.000107876
0.000107785
0.000108163
0.000108059
0.000108553
0.000108545
0.000109094
0.000106163
0.000106646
0.000106618
0.00010702
0.000106948
0.000107455
0.000107476
0.000107988
0.000105387
0.000105783
0.000105833
0.0001062
0.000106196
0.000106628
0.000106655
0.000107154
0.00010463
0.000104898
0.000104911
0.000105213
0.000105248
0.0001056
0.000105624
0.000106055
0.000104449
0.000104604
0.000104565
0.000104792
0.000104846
0.0001051
0.00010519
0.000105534
0.000104015
0.000104094
0.00010397
0.000104166
0.000104136
0.000104355
0.000104408
0.000104699
0.000104173
0.000104201
0.000104016
0.000104143
0.000104019
0.000104271
0.000104257
0.000104448
0.000103738
0.000103649
0.000103476
0.000103552
0.000103498
0.000103817
0.000103774
0.000104028
0.00010288
0.000102751
0.000102622
0.000102575
0.000102546
0.000102701
0.000102652
0.000102807
0.000103152
0.000103058
0.000102985
0.000102826
0.00010279
0.000102669
0.00010264
0.000102626
0.000102937
0.000103099
0.000103151
0.000103174
0.000103113
0.000103104
0.000103177
0.000103236
0.000101713
0.000102117
0.000102231
0.000102568
0.000102609
0.00010283
0.000102845
0.000103188
9.74532e-05
9.83867e-05
9.85391e-05
9.94734e-05
9.96698e-05
0.000100442
0.000100492
0.000101533
8.51365e-05
8.67959e-05
8.69043e-05
8.85531e-05
8.86657e-05
9.04528e-05
9.0276e-05
9.21275e-05
5.54923e-05
5.74637e-05
5.66901e-05
5.83545e-05
5.88535e-05
6.19326e-05
6.14375e-05
6.25461e-05
2.1596e-05
2.19889e-05
2.23446e-05
2.27843e-05
2.32424e-05
2.37545e-05
2.42261e-05
2.47113e-05
0.000130816
0.000130838
0.000131321
0.000131662
0.00013184
0.000132474
0.000132592
0.000133348
0.000130114
0.000130448
0.000130557
0.000131078
0.0001311
0.000131683
0.000131746
0.00013246
0.000129297
0.000129826
0.000129839
0.00013036
0.000130351
0.000130922
0.000130955
0.000131631
0.000128221
0.000128804
0.000128806
0.000129335
0.000129282
0.000129899
0.000129902
0.000130598
0.000127709
0.000128183
0.000128133
0.000128553
0.000128457
0.000128971
0.000128951
0.000129556
0.00012697
0.000127484
0.000127437
0.000127833
0.000127707
0.000128177
0.000128153
0.000128711
0.000125745
0.000126234
0.000126212
0.000126624
0.000126519
0.000126988
0.000126991
0.000127525
0.000125096
0.000125451
0.000125471
0.000125826
0.00012578
0.000126173
0.000126162
0.000126639
0.000124553
0.000124759
0.000124745
0.000124983
0.000124964
0.000125264
0.000125247
0.000125618
0.000124569
0.000124662
0.000124621
0.000124747
0.000124772
0.000124929
0.000124972
0.000125238
0.000124368
0.000124418
0.000124311
0.000124412
0.000124402
0.000124492
0.000124528
0.000124693
0.000124582
0.000124634
0.000124472
0.000124549
0.000124445
0.000124599
0.000124622
0.000124725
0.000124276
0.000124188
0.000124
0.000124021
0.000123933
0.000124195
0.00012419
0.000124413
0.000123564
0.000123422
0.000123272
0.000123178
0.00012311
0.000123249
0.0001232
0.000123348
0.000123459
0.000123447
0.000123414
0.00012328
0.000123245
0.000123156
0.000123101
0.00012309
0.000122371
0.000122755
0.000122916
0.000123122
0.000123089
0.000123232
0.000123304
0.000123493
0.00011887
0.000119685
0.00011994
0.000120663
0.000120791
0.000121362
0.000121347
0.000122044
0.000110557
0.000112068
0.000112385
0.000113891
0.000114211
0.000115582
0.000115607
0.000117355
9.16094e-05
9.39622e-05
9.42292e-05
9.64696e-05
9.65911e-05
9.9078e-05
9.88992e-05
0.000101552
5.51759e-05
5.79596e-05
5.74048e-05
5.90458e-05
5.91212e-05
6.27158e-05
6.2718e-05
6.45689e-05
2.22606e-05
2.26737e-05
2.30503e-05
2.34854e-05
2.39525e-05
2.44761e-05
2.49936e-05
2.54932e-05
0.000152681
0.000152703
0.000153206
0.000153553
0.000153758
0.000154392
0.00015452
0.000155319
0.000151921
0.000152279
0.000152395
0.000152935
0.000152947
0.000153548
0.000153571
0.000154311
0.000151077
0.000151631
0.000151675
0.000152219
0.000152212
0.000152782
0.000152788
0.000153471
0.000149983
0.000150582
0.0001506
0.000151157
0.000151087
0.000151693
0.000151667
0.000152369
0.000149451
0.000149972
0.000149949
0.000150395
0.000150275
0.000150764
0.000150708
0.000151282
0.000148767
0.000149303
0.000149311
0.000149722
0.000149594
0.000150012
0.000149962
0.000150485
0.00014771
0.000148156
0.000148132
0.000148532
0.000148413
0.000148811
0.000148772
0.000149282
0.000147292
0.000147573
0.000147543
0.000147848
0.00014776
0.000148071
0.000148009
0.000148405
0.00014705
0.000147178
0.000147138
0.000147289
0.000147209
0.000147405
0.00014734
0.000147584
0.000147279
0.000147313
0.000147295
0.000147314
0.000147311
0.000147342
0.000147331
0.00014744
0.000147293
0.000147336
0.000147294
0.000147303
0.000147337
0.000147301
0.00014733
0.000147344
0.000147478
0.000147565
0.000147463
0.00014751
0.000147459
0.000147539
0.000147593
0.00014764
0.000147163
0.000147106
0.000146933
0.000146943
0.000146845
0.000147067
0.000147081
0.000147303
0.000146327
0.000146251
0.000146113
0.00014605
0.00014596
0.000146133
0.000146082
0.00014627
0.000145261
0.00014545
0.000145509
0.000145534
0.00014552
0.00014559
0.000145529
0.000145643
0.000142369
0.000143121
0.000143447
0.000144018
0.000144048
0.000144519
0.000144621
0.000145133
0.00013545
0.000136834
0.000137277
0.000138561
0.000138825
0.000139963
0.000139943
0.000141191
0.000121991
0.000124184
0.00012469
0.000126882
0.000127362
0.000129492
0.000129486
0.00013208
9.61094e-05
9.91419e-05
9.95951e-05
0.000102494
0.000102625
0.000105812
0.000105638
0.000109152
5.4176e-05
5.75215e-05
5.74287e-05
5.9218e-05
5.87441e-05
6.2442e-05
6.2887e-05
6.56777e-05
2.28964e-05
2.3321e-05
2.37239e-05
2.41598e-05
2.46317e-05
2.51546e-05
2.57117e-05
2.62327e-05
0.000176675
0.000176685
0.000177197
0.000177522
0.000177764
0.000178366
0.000178503
0.000179308
0.000175887
0.000176246
0.00017637
0.000176903
0.00017691
0.000177505
0.000177488
0.000178216
0.000175077
0.000175619
0.00017569
0.000176234
0.000176234
0.000176782
0.000176756
0.000177404
0.000174037
0.000174615
0.000174648
0.000175203
0.000175132
0.000175696
0.000175635
0.000176295
0.00017353
0.000174058
0.000174069
0.000174523
0.0001744
0.000174833
0.000174743
0.000175238
0.000173006
0.000173501
0.000173557
0.00017396
0.000173855
0.000174195
0.000174114
0.000174551
0.000172254
0.000172605
0.000172565
0.000172912
0.000172793
0.000173096
0.000173
0.000173427
0.000172156
0.00017234
0.000172251
0.00017246
0.000172332
0.000172518
0.000172396
0.000172648
0.000172261
0.000172312
0.000172257
0.000172305
0.00017218
0.000172225
0.00017211
0.000172161
0.000172653
0.00017265
0.000172686
0.000172618
0.000172611
0.000172508
0.000172462
0.000172355
0.00017276
0.000172823
0.000172894
0.000172857
0.000172965
0.000172846
0.000172897
0.000172777
0.000172736
0.000172861
0.000172844
0.000172918
0.000172946
0.000173034
0.000173119
0.000173191
0.000172084
0.000172097
0.000171954
0.000172038
0.00017196
0.000172233
0.000172247
0.000172552
0.000170566
0.000170666
0.000170577
0.000170674
0.000170597
0.000170924
0.000170875
0.000171212
0.000167718
0.000168257