/*--------------------------------*- C++ -*----------------------------------*\
  =========                 |
  \\      /  F ield         | OpenFOAM: The Open Source CFD Toolbox
   \\    /   O peration     | Website:  https://openfoam.org
    \\  /    A nd           | Version:  6
     \\/     M anipulation  |
\*---------------------------------------------------------------------------*/
FoamFile
{
    version     2.0;
    format      ascii;
    class       volVectorField;
    location    "1.4";
    object      U;
}
// * * * * * * * * * * * * * * * * * * * * * * * * * * * * * * * * * * * * * //

dimensions      [0 1 -1 0 0 0 0];

internalField   nonuniform List<vector> 
63400
(
(0.112822 -0.00596595 -4.15312e-06)
(0.112206 -0.00588354 -3.45051e-06)
(0.111774 -0.00573884 -2.58506e-06)
(0.111308 -0.0055431 -1.88871e-06)
(0.111002 -0.00529009 -1.10307e-06)
(0.110672 -0.00503292 -4.63381e-07)
(0.110408 -0.00466194 3.4958e-07)
(0.110265 -0.00448778 -3.68201e-06)
(0.111643 -0.00525137 2.628e-08)
(0.111237 -0.00520175 4.55861e-07)
(0.11086 -0.00509882 9.21658e-07)
(0.110519 -0.00495641 1.31923e-06)
(0.110184 -0.00475485 1.69069e-06)
(0.109997 -0.00455348 2.03345e-06)
(0.109663 -0.00424562 2.81317e-06)
(0.109761 -0.00404677 -2.27967e-07)
(0.109792 -0.0048154 -6.35077e-09)
(0.10957 -0.00476985 4.49883e-07)
(0.109334 -0.00467839 9.03481e-07)
(0.109172 -0.00455652 1.4028e-06)
(0.108935 -0.0043878 1.68683e-06)
(0.108888 -0.00421857 1.82752e-06)
(0.1086 -0.00397776 2.44048e-06)
(0.108825 -0.00380392 -1.0116e-06)
(0.108461 -0.00434207 2.25875e-07)
(0.10822 -0.004323 5.55602e-07)
(0.107959 -0.00425815 8.12282e-07)
(0.107829 -0.00416148 1.17143e-06)
(0.107618 -0.00402124 1.42067e-06)
(0.107634 -0.00387377 1.45675e-06)
(0.107384 -0.0036704 2.11283e-06)
(0.107687 -0.00352051 -1.84261e-06)
(0.106801 -0.00385155 4.23217e-07)
(0.106681 -0.00384616 7.90008e-07)
(0.106503 -0.0038052 1.06149e-06)
(0.106434 -0.00373803 1.38458e-06)
(0.106271 -0.00363432 1.51426e-06)
(0.106334 -0.00351999 1.53099e-06)
(0.106113 -0.00335934 2.0122e-06)
(0.106481 -0.00323758 -2.30771e-06)
(0.104712 -0.00348158 3.29738e-07)
(0.104643 -0.00347329 7.58431e-07)
(0.104531 -0.00343352 1.11292e-06)
(0.104538 -0.00337261 1.47603e-06)
(0.104453 -0.00328375 1.54232e-06)
(0.104607 -0.00318564 1.48716e-06)
(0.104458 -0.0030508 1.79282e-06)
(0.104924 -0.00294654 -2.8863e-06)
(0.103339 -0.00307468 7.14167e-07)
(0.103194 -0.00308787 9.60514e-07)
(0.103012 -0.00307295 1.23981e-06)
(0.102954 -0.00303758 1.55684e-06)
(0.102818 -0.00297665 1.44826e-06)
(0.102947 -0.00290261 1.16099e-06)
(0.102801 -0.00279275 1.22137e-06)
(0.103301 -0.00269827 -3.82295e-06)
(0.10132 -0.00269743 3.44019e-07)
(0.101316 -0.00270929 6.0058e-07)
(0.10124 -0.00270318 6.44699e-07)
(0.101256 -0.00268488 1.07366e-06)
(0.101137 -0.00264724 1.19186e-06)
(0.101253 -0.00260007 1.3231e-06)
(0.101053 -0.002514 1.60422e-06)
(0.10152 -0.00244515 -3.16682e-06)
(0.0989852 -0.00238761 2.3883e-07)
(0.0990723 -0.00238938 5.12261e-07)
(0.0990882 -0.00237269 4.32868e-07)
(0.0992045 -0.00234642 6.09499e-07)
(0.0991754 -0.00230649 7.13616e-07)
(0.0993541 -0.00226932 1.40572e-06)
(0.0991463 -0.00219882 2.12031e-06)
(0.0996146 -0.00217021 -2.08369e-06)
(0.0961535 -0.00210815 -2.20962e-07)
(0.0963196 -0.00210456 2.30507e-07)
(0.0964066 -0.00207978 5.74208e-07)
(0.0965868 -0.00204058 1.15099e-06)
(0.0966195 -0.00198402 1.39925e-06)
(0.0968833 -0.00193334 2.25063e-06)
(0.0967248 -0.00185769 2.77926e-06)
(0.0973148 -0.0018471 -2.21298e-06)
(0.0933358 -0.00185804 -1.56424e-08)
(0.0934894 -0.00184227 2.17274e-07)
(0.0935765 -0.00180983 6.12538e-07)
(0.09376 -0.00176714 1.7156e-06)
(0.0937738 -0.00171298 2.48316e-06)
(0.094033 -0.00166516 3.37471e-06)
(0.0938687 -0.00160485 3.52277e-06)
(0.0945325 -0.00158685 -3.03237e-06)
(0.0899502 -0.00157767 1.03054e-06)
(0.0901156 -0.00155692 1.56364e-06)
(0.09024 -0.0015166 1.56126e-06)
(0.0905095 -0.00146783 1.67652e-06)
(0.0906505 -0.00141898 1.34352e-06)
(0.0910567 -0.00138516 1.21481e-06)
(0.0910416 -0.00136393 1.07015e-06)
(0.0918079 -0.00136305 -5.55539e-06)
(0.0869483 -0.00141727 1.34083e-06)
(0.0869897 -0.0014206 1.78519e-06)
(0.0870159 -0.00140759 1.39971e-06)
(0.0872487 -0.00138001 6.6645e-07)
(0.0874243 -0.00133976 -8.20221e-07)
(0.0879378 -0.00129464 -1.85717e-06)
(0.0880632 -0.00125636 -2.14859e-06)
(0.0889345 -0.0012235 -7.83296e-06)
(0.0851627 -0.00116097 9.62182e-07)
(0.0851363 -0.00118876 9.8953e-07)
(0.0850654 -0.00120854 5.04528e-07)
(0.085164 -0.00121675 1.00969e-07)
(0.0851743 -0.00120583 -9.41375e-07)
(0.0855119 -0.00117281 -1.37847e-06)
(0.0854687 -0.0011277 -1.51143e-06)
(0.0861937 -0.00108545 -5.85258e-06)
(0.0817797 -0.000961697 2.2571e-08)
(0.0819076 -0.000983799 6.83526e-08)
(0.0819567 -0.000998619 -1.33553e-07)
(0.0821192 -0.000999874 2.20695e-07)
(0.0821083 -0.000979046 4.10463e-08)
(0.0823541 -0.000929468 7.59739e-07)
(0.082128 -0.000863671 1.21568e-06)
(0.0826831 -0.000808088 -2.8078e-06)
(0.0779496 -0.000771197 3.55453e-08)
(0.0780973 -0.000784518 2.48688e-08)
(0.0781783 -0.000786103 -1.33479e-07)
(0.0783726 -0.000767431 2.22922e-07)
(0.0783932 -0.000721101 2.63509e-07)
(0.0786326 -0.000642294 1.2291e-06)
(0.078366 -0.000565233 1.80164e-06)
(0.0788533 -0.000515742 -1.35222e-06)
(0.0726052 -0.000588102 8.68615e-08)
(0.0727745 -0.000597851 9.93976e-08)
(0.0728954 -0.000590807 -1.70474e-07)
(0.0731349 -0.000555601 1.94144e-07)
(0.0732021 -0.000485027 2.3665e-07)
(0.0734828 -0.000358865 1.62439e-06)
(0.0732085 -0.000237455 2.66381e-06)
(0.0736836 -0.000122023 -8.84658e-07)
(0.0673126 -0.000423378 2.31586e-07)
(0.067459 -0.000426857 2.35963e-07)
(0.0675732 -0.000413608 1.26145e-07)
(0.0677973 -0.000360517 3.09172e-07)
(0.0679022 -0.000260885 -3.3019e-07)
(0.0682282 -9.52214e-05 6.49219e-07)
(0.0680327 3.29653e-05 1.73574e-06)
(0.0685244 0.000169696 4.54836e-07)
(0.0583695 -0.000264478 1.98051e-07)
(0.0585509 -0.000269032 4.2065e-07)
(0.0587273 -0.000251541 3.26215e-07)
(0.0590245 -0.000202673 3.97475e-07)
(0.0592595 -0.000107467 -2.16245e-07)
(0.0597447 8.57494e-05 1.62521e-06)
(0.0597092 0.000256795 2.69759e-06)
(0.0604027 0.000495114 1.48156e-06)
(0.0445954 -4.83894e-05 -8.62571e-06)
(0.0446766 -4.59981e-05 -8.87336e-06)
(0.0446494 -2.56975e-05 -6.33982e-06)
(0.0446011 2.93814e-05 -5.08915e-06)
(0.0446038 0.000128001 -6.80561e-06)
(0.0452074 0.000318278 -9.33902e-06)
(0.0459614 0.000427601 -1.29841e-05)
(0.0476859 0.000751114 -1.78186e-05)
(0.0641034 7.79688e-05 -1.68133e-05)
(0.0645082 0.000102008 -1.87299e-05)
(0.0649432 0.000110499 -1.84274e-05)
(0.0653688 3.81704e-05 -1.66027e-05)
(0.0655733 -0.000153546 -1.92799e-05)
(0.0659368 -0.000351697 -2.44917e-05)
(0.0662959 -0.000502413 -3.51983e-05)
(0.0673152 -0.000313637 -3.15652e-05)
(0.190469 -0.0089418 3.89101e-06)
(0.189932 -0.00897885 2.87173e-06)
(0.189497 -0.00891089 2.9843e-06)
(0.189083 -0.00875758 2.46447e-06)
(0.188755 -0.00851135 3.12789e-06)
(0.188441 -0.00822814 2.62884e-06)
(0.188171 -0.00780504 4.32377e-06)
(0.187964 -0.00753191 -5.44172e-06)
(0.189591 -0.00792761 7.8953e-06)
(0.189184 -0.00799078 8.06465e-06)
(0.188797 -0.00797104 8.27255e-06)
(0.188448 -0.00788051 8.4059e-06)
(0.188118 -0.00770005 8.04004e-06)
(0.187889 -0.0074874 8.10312e-06)
(0.187604 -0.00714196 8.69028e-06)
(0.187571 -0.0068822 -4.93586e-07)
(0.188068 -0.00725877 4.78771e-06)
(0.187801 -0.00731015 5.3174e-06)
(0.18754 -0.0072906 5.79978e-06)
(0.187329 -0.00721431 6.87151e-06)
(0.187088 -0.00706747 6.72679e-06)
(0.186963 -0.00689207 7.48973e-06)
(0.186719 -0.00662414 7.868e-06)
(0.186784 -0.00640252 -1.3128e-06)
(0.186828 -0.0065614 3.69103e-06)
(0.186541 -0.00663915 3.8953e-06)
(0.186268 -0.0066464 3.83264e-06)
(0.186083 -0.0065948 4.61067e-06)
(0.185877 -0.00647765 4.38239e-06)
(0.185813 -0.00632726 5.15622e-06)
(0.185611 -0.00610305 5.61945e-06)
(0.185757 -0.00591573 -4.31746e-06)
(0.185258 -0.00584367 2.13249e-06)
(0.185076 -0.00592665 2.81075e-06)
(0.184879 -0.00595563 3.13193e-06)
(0.18475 -0.00593629 4.08366e-06)
(0.184582 -0.00586117 3.80432e-06)
(0.184563 -0.00575189 4.61037e-06)
(0.184385 -0.00557883 4.82442e-06)
(0.184591 -0.00543083 -6.14991e-06)
(0.183196 -0.0052966 4.31298e-08)
(0.183067 -0.00536835 6.90936e-07)
(0.182941 -0.00538823 1.19399e-06)
(0.182894 -0.00536729 2.28461e-06)
(0.182807 -0.00530353 2.02675e-06)
(0.182878 -0.00521218 2.84622e-06)
(0.18277 -0.00506955 3.01832e-06)
(0.183075 -0.0049456 -8.42025e-06)
(0.181747 -0.00468778 9.69748e-07)
(0.181544 -0.00478168 1.24635e-06)
(0.181347 -0.00482791 1.48613e-06)
(0.181241 -0.00483493 2.35975e-06)
(0.181107 -0.00480356 1.74144e-06)
(0.181157 -0.00474441 1.91464e-06)
(0.181046 -0.00463717 1.57169e-06)
(0.181384 -0.00453144 -1.07415e-05)
(0.179602 -0.00413197 -1.50364e-06)
(0.179552 -0.00421138 -8.48943e-07)
(0.179458 -0.00426019 -7.42346e-07)
(0.179422 -0.00428387 5.09009e-07)
(0.179312 -0.00428075 5.81575e-07)
(0.17936 -0.00425907 1.59697e-06)
(0.179215 -0.00419063 1.80647e-06)
(0.179527 -0.00412517 -9.65832e-06)
(0.177047 -0.00368596 -1.46479e-06)
(0.177106 -0.00374166 -8.6752e-07)
(0.177123 -0.00376967 -1.07828e-06)
(0.177193 -0.00377634 -4.2901e-07)
(0.177171 -0.003762 -5.92039e-07)
(0.177289 -0.00374374 1.20453e-06)
(0.177153 -0.0036884 2.21754e-06)
(0.177476 -0.00366862 -8.52525e-06)
(0.173866 -0.00328969 -3.32353e-06)
(0.174015 -0.00332948 -2.26152e-06)
(0.174124 -0.0033409 -1.56513e-06)
(0.17429 -0.00332671 -1.02915e-07)
(0.174361 -0.00328473 2.47985e-08)
(0.17459 -0.00323722 2.08498e-06)
(0.174525 -0.00315694 3.04522e-06)
(0.174974 -0.0031391 -9.84995e-06)
(0.170652 -0.00294025 -2.5746e-06)
(0.170777 -0.00295539 -2.0388e-06)
(0.170873 -0.00294536 -1.50938e-06)
(0.171041 -0.00291313 5.39552e-07)
(0.171112 -0.00285859 1.54535e-06)
(0.17136 -0.00279981 3.79582e-06)
(0.171304 -0.00272365 4.55356e-06)
(0.171839 -0.00269087 -1.15762e-05)
(0.16672 -0.00253246 -1.2688e-06)
(0.16689 -0.00254064 -1.16806e-07)
(0.167057 -0.00251351 1.73564e-07)
(0.167325 -0.00245989 1.00596e-06)
(0.167515 -0.00239258 5.48433e-07)
(0.167895 -0.00233391 1.03837e-06)
(0.167968 -0.00229521 1.16182e-06)
(0.168615 -0.00229216 -1.58713e-05)
(0.163157 -0.00226877 -1.497e-06)
(0.16318 -0.00230102 -4.1679e-07)
(0.163236 -0.00230593 -5.23293e-07)
(0.163451 -0.00228756 -8.51145e-07)
(0.16366 -0.00224824 -3.10921e-06)
(0.16413 -0.00219415 -4.40257e-06)
(0.16434 -0.00214461 -4.99969e-06)
(0.165113 -0.00210546 -2.05308e-05)
(0.161001 -0.0018612 -1.92939e-06)
(0.160921 -0.00192692 -1.54904e-06)
(0.160835 -0.00197925 -2.10457e-06)
(0.16088 -0.00202176 -2.33296e-06)
(0.160898 -0.002046 -4.27324e-06)
(0.161177 -0.00203716 -4.87249e-06)
(0.161213 -0.001998 -5.31503e-06)
(0.161831 -0.00194558 -1.80211e-05)
(0.156847 -0.00155129 -4.10653e-06)
(0.156949 -0.00160826 -3.92349e-06)
(0.157008 -0.00165707 -4.41954e-06)
(0.157144 -0.0016969 -3.86391e-06)
(0.157171 -0.00171633 -4.6938e-06)
(0.157379 -0.00169405 -3.33755e-06)
(0.157244 -0.00162764 -2.23804e-06)
(0.157671 -0.00154808 -1.36547e-05)
(0.152135 -0.00126375 -3.36364e-06)
(0.152263 -0.001311 -3.51863e-06)
(0.152368 -0.00134295 -4.27149e-06)
(0.152555 -0.00135433 -4.04044e-06)
(0.15263 -0.00133254 -4.73095e-06)
(0.152854 -0.00125659 -2.99289e-06)
(0.152673 -0.00114658 -1.74151e-06)
(0.153022 -0.00104319 -1.28041e-05)
(0.145333 -0.000980534 -4.21973e-06)
(0.145501 -0.00102361 -4.4834e-06)
(0.145661 -0.00104567 -5.55141e-06)
(0.145914 -0.00103494 -5.39153e-06)
(0.14606 -0.0009781 -6.15059e-06)
(0.146352 -0.000834456 -3.70837e-06)
(0.146195 -0.000641488 -1.06587e-06)
(0.146555 -0.000423913 -1.17607e-05)
(0.138539 -0.00072523 -2.20263e-06)
(0.138679 -0.000757946 -2.89658e-06)
(0.138834 -0.000770286 -4.28568e-06)
(0.139086 -0.000737393 -4.37239e-06)
(0.13926 -0.000636316 -5.75119e-06)
(0.139596 -0.000418787 -3.77167e-06)
(0.139506 -0.0001723 -1.52857e-06)
(0.139897 0.000108956 -1.00246e-05)
(0.126363 -0.000466247 -3.98097e-06)
(0.126568 -0.000506727 -4.91556e-06)
(0.126827 -0.000507061 -6.92513e-06)
(0.127211 -0.000469204 -7.67458e-06)
(0.127571 -0.000376866 -8.97332e-06)
(0.128134 -0.000129691 -4.42912e-06)
(0.128279 0.000199949 -3.3223e-07)
(0.12896 0.000668125 -6.61817e-06)
(0.105961 -0.00011676 -1.41019e-05)
(0.105988 -0.000141402 -1.77732e-05)
(0.106046 -0.000132341 -1.33968e-05)
(0.106146 -8.07641e-05 -6.82293e-06)
(0.106231 3.58499e-05 -7.19308e-06)
(0.106868 0.000323671 -1.16044e-05)
(0.107831 0.000618287 -2.10141e-05)
(0.109964 0.00117527 -3.23643e-05)
(0.0881247 8.54397e-05 -1.89407e-05)
(0.0883083 0.000110035 -2.26026e-05)
(0.0885379 0.000126242 -2.18071e-05)
(0.0887791 5.64162e-05 -1.72392e-05)
(0.0888443 -0.00016587 -1.95017e-05)
(0.0889695 -0.000424297 -2.46691e-05)
(0.0891028 -0.000643415 -4.04976e-05)
(0.0898342 -0.000460094 -2.83958e-05)
(0.229814 -0.00992481 -1.83332e-05)
(0.229206 -0.0100688 -1.82884e-05)
(0.228688 -0.0100931 -1.69535e-05)
(0.228212 -0.0100175 -1.61447e-05)
(0.227814 -0.00983671 -1.41407e-05)
(0.227444 -0.00960136 -1.29256e-05)
(0.227117 -0.00922162 -9.49287e-06)
(0.226841 -0.00895123 -2.11332e-05)
(0.22882 -0.00881332 -7.63801e-06)
(0.228349 -0.00897334 -7.40038e-06)
(0.227896 -0.00904027 -6.79317e-06)
(0.227483 -0.00902367 -5.93407e-06)
(0.227097 -0.00890603 -5.26188e-06)
(0.226804 -0.00873914 -4.44528e-06)
(0.226486 -0.00843239 -1.22842e-06)
(0.226381 -0.00819232 -1.41045e-05)
(0.22715 -0.0080422 -6.43414e-06)
(0.226832 -0.00818156 -6.02968e-06)
(0.226527 -0.00824059 -5.4223e-06)
(0.226267 -0.00823218 -3.84941e-06)
(0.225992 -0.00814404 -3.14115e-06)
(0.22581 -0.0080127 -2.09281e-06)
(0.225545 -0.00777947 5.64483e-07)
(0.225541 -0.00757983 -1.26803e-05)
(0.225748 -0.00726078 -6.71696e-06)
(0.225414 -0.00741888 -6.5488e-06)
(0.225108 -0.007498 -6.45209e-06)
(0.224879 -0.00750802 -5.22358e-06)
(0.224651 -0.00744399 -4.66219e-06)
(0.22454 -0.00733436 -3.63442e-06)
(0.224331 -0.00714222 -1.1504e-06)
(0.224416 -0.00697651 -1.58226e-05)
(0.224016 -0.00646704 -6.06301e-06)
(0.223794 -0.00662143 -5.70075e-06)
(0.223572 -0.00671525 -5.44962e-06)
(0.223405 -0.00675242 -4.20283e-06)
(0.22322 -0.0067264 -3.93078e-06)
(0.223156 -0.00665544 -2.99599e-06)
(0.222977 -0.00651219 -1.06645e-06)
(0.223121 -0.00638529 -1.76981e-05)
(0.221778 -0.00584791 -7.71164e-06)
(0.221611 -0.0059883 -7.47954e-06)
(0.221469 -0.00606704 -7.01052e-06)
(0.221396 -0.00609574 -5.45025e-06)
(0.221302 -0.00607513 -5.07168e-06)
(0.221335 -0.00601877 -3.90652e-06)
(0.221234 -0.00590441 -2.07715e-06)
(0.221478 -0.00580146 -1.92905e-05)
(0.220153 -0.00517213 -5.74879e-06)
(0.219917 -0.00532888 -5.74934e-06)
(0.219703 -0.00542884 -5.66543e-06)
(0.219571 -0.00547992 -4.34784e-06)
(0.219435 -0.00548626 -4.30084e-06)
(0.219449 -0.00545922 -3.72578e-06)
(0.219345 -0.00538079 -2.59664e-06)
(0.219619 -0.00529848 -2.09921e-05)
(0.217809 -0.00456139 -8.45658e-06)
(0.217743 -0.00469221 -7.84667e-06)
(0.21764 -0.00478703 -7.89318e-06)
(0.217576 -0.00484957 -6.47849e-06)
(0.217469 -0.00488084 -6.03123e-06)
(0.217484 -0.00489034 -4.72809e-06)
(0.21736 -0.00485411 -3.01634e-06)
(0.217609 -0.00481764 -1.98764e-05)
(0.215024 -0.00407918 -6.95082e-06)
(0.215081 -0.00417547 -6.52061e-06)
(0.215105 -0.0042427 -6.98841e-06)
(0.215159 -0.004284 -6.44532e-06)
(0.215145 -0.00430018 -6.99917e-06)
(0.215233 -0.0043082 -5.6588e-06)
(0.215131 -0.00428025 -3.74625e-06)
(0.215397 -0.00428623 -2.03191e-05)
(0.211583 -0.00365414 -9.35771e-06)
(0.211735 -0.00372669 -8.27497e-06)
(0.211863 -0.00377138 -7.70818e-06)
(0.212031 -0.00378855 -6.11396e-06)
(0.21213 -0.00377494 -6.30796e-06)
(0.212345 -0.00374962 -4.5248e-06)
(0.212334 -0.00368785 -2.51488e-06)
(0.212725 -0.00368258 -2.22014e-05)
(0.208118 -0.00328247 -7.47026e-06)
(0.208237 -0.00332506 -7.03132e-06)
(0.208346 -0.0033419 -7.04051e-06)
(0.208511 -0.00333346 -5.38895e-06)
(0.208617 -0.00329769 -4.88124e-06)
(0.208864 -0.00324964 -2.41118e-06)
(0.208875 -0.00317824 2.1038e-07)
(0.209354 -0.00314594 -2.28659e-05)
(0.203911 -0.00283708 -6.43766e-06)
(0.204078 -0.00287578 -5.21651e-06)
(0.204266 -0.00287424 -4.556e-06)
(0.20453 -0.0028384 -2.93988e-06)
(0.204747 -0.00277796 -2.84739e-06)
(0.205108 -0.00271392 -1.77553e-06)
(0.20523 -0.00266327 -8.58524e-08)
(0.205813 -0.00265116 -2.5332e-05)
(0.200088 -0.00252506 -7.73892e-06)
(0.200094 -0.00258508 -6.38895e-06)
(0.200161 -0.00260737 -5.57299e-06)
(0.200357 -0.00260214 -4.32431e-06)
(0.200572 -0.0025735 -5.4132e-06)
(0.200996 -0.00252515 -6.15833e-06)
(0.20124 -0.00247647 -6.06046e-06)
(0.201948 -0.0024368 -3.03828e-05)
(0.197703 -0.00206552 -7.47003e-06)
(0.197596 -0.00215744 -6.63354e-06)
(0.197505 -0.00222509 -6.62644e-06)
(0.197515 -0.00228236 -6.01194e-06)
(0.197532 -0.00232812 -7.71083e-06)
(0.197761 -0.00234565 -8.46094e-06)
(0.197838 -0.00233037 -8.81939e-06)
(0.198393 -0.00229208 -2.95662e-05)
(0.193224 -0.0017168 -1.04333e-05)
(0.193308 -0.00179629 -9.97688e-06)
(0.193369 -0.00186149 -1.05681e-05)
(0.193482 -0.00192104 -1.00712e-05)
(0.193531 -0.00197017 -1.16009e-05)
(0.193713 -0.00198517 -1.06441e-05)
(0.193645 -0.00195179 -9.10848e-06)
(0.194012 -0.00189087 -2.71287e-05)
(0.18813 -0.0013998 -8.23802e-06)
(0.188243 -0.00146914 -8.46065e-06)
(0.188358 -0.00152006 -9.85851e-06)
(0.188533 -0.00155402 -1.03177e-05)
(0.188642 -0.00156248 -1.22666e-05)
(0.188858 -0.0015198 -1.1063e-05)
(0.188761 -0.00142969 -9.4743e-06)
(0.18905 -0.00132601 -2.82863e-05)
(0.180752 -0.00108676 -1.02481e-05)
(0.180909 -0.00114993 -1.08197e-05)
(0.181082 -0.00119298 -1.28473e-05)
(0.181327 -0.00120765 -1.35328e-05)
(0.181517 -0.00118335 -1.57414e-05)
(0.181813 -0.00107557 -1.3919e-05)
(0.181765 -0.000897773 -1.061e-05)
(0.182088 -0.00066677 -2.75133e-05)
(0.173293 -0.000802381 -5.0512e-06)
(0.173422 -0.000855241 -6.41815e-06)
(0.173592 -0.00088896 -9.69703e-06)
(0.173845 -0.00088452 -1.0981e-05)
(0.174063 -0.000819095 -1.33602e-05)
(0.174402 -0.000633814 -1.15583e-05)
(0.174427 -0.000382414 -8.96068e-06)
(0.174792 -5.94329e-05 -2.56797e-05)
(0.159588 -0.000503387 -7.55548e-06)
(0.159787 -0.000571595 -1.02335e-05)
(0.16007 -0.000595739 -1.55105e-05)
(0.160478 -0.000580019 -1.85904e-05)
(0.160905 -0.00052334 -2.15906e-05)
(0.161502 -0.000326007 -1.67339e-05)
(0.161819 -6.86584e-06 -1.10422e-05)
(0.162536 0.000511125 -2.13662e-05)
(0.136349 -0.000129678 -1.23947e-05)
(0.136363 -0.000181195 -2.11841e-05)
(0.136445 -0.000194667 -1.94322e-05)
(0.136634 -0.00016509 -8.18709e-06)
(0.136823 -8.42164e-05 -2.707e-06)
(0.137429 0.000160027 -6.37245e-06)
(0.138379 0.000466776 -2.25023e-05)
(0.140472 0.00107994 -4.24037e-05)
(0.101174 8.21716e-05 -1.49932e-05)
(0.101239 0.000102537 -2.10728e-05)
(0.101351 0.000122605 -2.03763e-05)
(0.101494 6.7552e-05 -1.34936e-05)
(0.101492 -0.000146373 -1.72587e-05)
(0.101502 -0.000422782 -2.44168e-05)
(0.101508 -0.000684475 -4.84841e-05)
(0.102067 -0.000538531 -2.0468e-05)
(0.256273 -0.0102652 -3.16115e-05)
(0.255621 -0.0105023 -3.2016e-05)
(0.255044 -0.0106141 -3.08589e-05)
(0.254522 -0.010619 -3.01209e-05)
(0.254066 -0.0105135 -2.79267e-05)
(0.253646 -0.0103435 -2.62546e-05)
(0.253263 -0.0100288 -2.18536e-05)
(0.252925 -0.00979733 -3.49989e-05)
(0.255158 -0.00912555 -1.77419e-05)
(0.254646 -0.00936753 -1.80075e-05)
(0.254146 -0.00951269 -1.77261e-05)
(0.253686 -0.00956857 -1.69024e-05)
(0.253257 -0.00951893 -1.60517e-05)
(0.252912 -0.00941034 -1.52258e-05)
(0.252558 -0.00915948 -1.05032e-05)
(0.252396 -0.00896339 -2.73748e-05)
(0.253368 -0.0083064 -1.42175e-05)
(0.253016 -0.00852151 -1.43339e-05)
(0.252677 -0.00865218 -1.41869e-05)
(0.252378 -0.00871019 -1.26326e-05)
(0.252074 -0.00868448 -1.16616e-05)
(0.251846 -0.00860723 -1.04826e-05)
(0.251556 -0.00842264 -6.37534e-06)
(0.251501 -0.00826402 -2.35515e-05)
(0.25181 -0.0074899 -1.41171e-05)
(0.251449 -0.00771488 -1.44925e-05)
(0.251121 -0.00785803 -1.4881e-05)
(0.250861 -0.00792759 -1.37146e-05)
(0.250615 -0.00791937 -1.29706e-05)
(0.250468 -0.00785879 -1.17263e-05)
(0.250245 -0.00771033 -7.95328e-06)
(0.250289 -0.00758174 -2.67758e-05)
(0.249931 -0.00667062 -1.22385e-05)
(0.249682 -0.00688387 -1.24433e-05)
(0.249443 -0.00703394 -1.26927e-05)
(0.24925 -0.00712374 -1.15081e-05)
(0.249053 -0.00714717 -1.11436e-05)
(0.248957 -0.00711999 -1.00351e-05)
(0.248771 -0.00701546 -6.97663e-06)
(0.248877 -0.00692158 -2.85297e-05)
(0.247545 -0.00601464 -1.43922e-05)
(0.247352 -0.00621389 -1.48487e-05)
(0.247197 -0.00634578 -1.49506e-05)
(0.247103 -0.00642183 -1.33263e-05)
(0.247003 -0.00644461 -1.2701e-05)
(0.247009 -0.00642716 -1.10319e-05)
(0.246905 -0.00634789 -7.86127e-06)
(0.247114 -0.00627555 -2.98304e-05)
(0.245739 -0.00531491 -1.14199e-05)
(0.245488 -0.00552363 -1.19683e-05)
(0.245262 -0.005671 -1.25597e-05)
(0.245113 -0.00576304 -1.13242e-05)
(0.244976 -0.00580549 -1.10522e-05)
(0.244967 -0.00581111 -9.8743e-06)
(0.244863 -0.00576433 -7.43409e-06)
(0.245102 -0.00571204 -3.05731e-05)
(0.243211 -0.00469034 -1.50829e-05)
(0.24314 -0.00486226 -1.47328e-05)
(0.243035 -0.00499628 -1.50646e-05)
(0.242955 -0.00509346 -1.36787e-05)
(0.242851 -0.00515533 -1.3133e-05)
(0.242847 -0.00519288 -1.14218e-05)
(0.242731 -0.00518674 -8.55579e-06)
(0.242953 -0.0051816 -2.95301e-05)
(0.24021 -0.00420485 -1.19437e-05)
(0.240273 -0.00433203 -1.2033e-05)
(0.240311 -0.00443157 -1.29121e-05)
(0.240362 -0.0045038 -1.24685e-05)
(0.24036 -0.00454829 -1.33975e-05)
(0.240435 -0.00458126 -1.24875e-05)
(0.240354 -0.00457929 -1.03232e-05)
(0.240598 -0.00461237 -3.18726e-05)
(0.236534 -0.00377878 -1.52926e-05)
(0.236698 -0.00387577 -1.43979e-05)
(0.236848 -0.00394708 -1.4147e-05)
(0.237027 -0.00399226 -1.25894e-05)
(0.237154 -0.00400666 -1.32276e-05)
(0.237368 -0.00400634 -1.19132e-05)
(0.237391 -0.00396743 -9.50576e-06)
(0.237763 -0.00398124 -3.51978e-05)
(0.232826 -0.00340626 -1.22863e-05)
(0.232955 -0.00347086 -1.1942e-05)
(0.233086 -0.00351079 -1.24863e-05)
(0.233261 -0.00352623 -1.16074e-05)
(0.233399 -0.00351282 -1.23337e-05)
(0.233652 -0.00348202 -1.04442e-05)
(0.233705 -0.00342211 -6.74805e-06)
(0.234168 -0.003397 -3.5657e-05)
(0.228371 -0.0029472 -1.2295e-05)
(0.228533 -0.00301325 -1.14926e-05)
(0.228737 -0.0030368 -1.07874e-05)
(0.229004 -0.00302339 -8.58009e-06)
(0.229244 -0.00297874 -7.977e-06)
(0.229603 -0.00291937 -6.11298e-06)
(0.229758 -0.00286231 -2.71097e-06)
(0.230326 -0.00284024 -3.46138e-05)
(0.224306 -0.00260222 -1.51465e-05)
(0.224295 -0.00269155 -1.42716e-05)
(0.224364 -0.00273129 -1.29558e-05)
(0.224547 -0.00273851 -1.00464e-05)
(0.224765 -0.00272084 -9.21317e-06)
(0.225168 -0.00268072 -8.19006e-06)
(0.225433 -0.00263531 -6.4181e-06)
(0.226129 -0.00259465 -3.76581e-05)
(0.22165 -0.00212065 -1.40994e-05)
(0.221529 -0.00223823 -1.30897e-05)
(0.221438 -0.00231741 -1.23832e-05)
(0.22143 -0.00238063 -1.05767e-05)
(0.221448 -0.00243652 -1.13198e-05)
(0.221653 -0.00247233 -1.14158e-05)
(0.221755 -0.00247985 -1.11411e-05)
(0.2223 -0.00246059 -3.86786e-05)
(0.216863 -0.00175599 -1.78722e-05)
(0.216942 -0.00185603 -1.7166e-05)
(0.217011 -0.00193188 -1.74878e-05)
(0.217115 -0.00200025 -1.68557e-05)
(0.217182 -0.00206593 -1.88924e-05)
(0.217357 -0.00210971 -1.84336e-05)
(0.217335 -0.00211182 -1.67128e-05)
(0.217701 -0.00208212 -4.04956e-05)
(0.21135 -0.00143004 -1.38008e-05)
(0.211469 -0.00151686 -1.40431e-05)
(0.211601 -0.00158058 -1.57929e-05)
(0.211778 -0.00162853 -1.6924e-05)
(0.211916 -0.00165902 -2.0283e-05)
(0.212144 -0.00164843 -2.01487e-05)
(0.212113 -0.00159037 -1.85865e-05)
(0.212413 -0.00150842 -4.48519e-05)
(0.203397 -0.0011095 -1.70511e-05)
(0.203562 -0.00118593 -1.78515e-05)
(0.203752 -0.00124279 -2.06678e-05)
(0.204001 -0.00127539 -2.24215e-05)
(0.204228 -0.00127795 -2.63713e-05)
(0.204547 -0.001209 -2.59257e-05)
(0.204583 -0.00106789 -2.27334e-05)
(0.20494 -0.000858012 -4.58554e-05)
(0.195098 -0.000813838 -8.08416e-06)
(0.195243 -0.000879302 -9.66179e-06)
(0.195439 -0.000927663 -1.47837e-05)
(0.195708 -0.00094456 -1.79273e-05)
(0.195974 -0.00091178 -2.15792e-05)
(0.196348 -0.000769928 -2.0346e-05)
(0.196481 -0.000549213 -1.75747e-05)
(0.196913 -0.000231457 -4.30907e-05)
(0.179674 -0.000494658 -1.01062e-05)
(0.179891 -0.000578822 -1.40482e-05)
(0.180201 -0.000622511 -2.30557e-05)
(0.180634 -0.000625312 -2.97538e-05)
(0.181116 -0.000596879 -3.52526e-05)
(0.181773 -0.000453276 -3.14595e-05)
(0.182247 -0.000188146 -2.54629e-05)
(0.183117 0.000306306 -4.06619e-05)
(0.153994 -0.000126309 -4.16598e-06)
(0.154037 -0.000193261 -1.71204e-05)
(0.154136 -0.000226767 -2.05521e-05)
(0.154364 -0.00021567 -7.99088e-06)
(0.154601 -0.000163725 3.70217e-06)
(0.155177 2.66029e-05 3.41531e-06)
(0.156072 0.000288666 -1.87899e-05)
(0.158132 0.000882577 -4.8965e-05)
(0.113886 7.55998e-05 1.23008e-06)
(0.113866 8.75651e-05 -7.93215e-06)
(0.113881 0.000108437 -8.24188e-06)
(0.113946 7.73403e-05 7.62448e-07)
(0.113903 -0.000103001 -4.73211e-06)
(0.113844 -0.000374313 -1.49182e-05)
(0.113752 -0.000676035 -4.98895e-05)
(0.114149 -0.000595853 -1.84671e-06)
(0.276609 -0.010306 -4.42949e-05)
(0.275937 -0.0106238 -4.5431e-05)
(0.275325 -0.0108152 -4.49288e-05)
(0.274771 -0.0108967 -4.46364e-05)
(0.274272 -0.0108662 -4.2774e-05)
(0.273808 -0.0107658 -4.09228e-05)
(0.273377 -0.0105224 -3.59844e-05)
(0.272983 -0.0103459 -4.98593e-05)
(0.27536 -0.00917012 -2.81363e-05)
(0.27483 -0.00948194 -2.91033e-05)
(0.274303 -0.00969632 -2.94789e-05)
(0.273812 -0.00981933 -2.90732e-05)
(0.273354 -0.00983574 -2.83413e-05)
(0.272972 -0.00978806 -2.77775e-05)
(0.272585 -0.00959786 -2.18609e-05)
(0.272379 -0.0094558 -4.21733e-05)
(0.273457 -0.00833123 -2.22211e-05)
(0.273088 -0.00861148 -2.30249e-05)
(0.27273 -0.00880584 -2.36436e-05)
(0.272404 -0.00892522 -2.25554e-05)
(0.272078 -0.00895949 -2.15651e-05)
(0.271819 -0.00893785 -2.04857e-05)
(0.271505 -0.0088058 -1.51415e-05)
(0.271414 -0.00869557 -3.56451e-05)
(0.271746 -0.00750419 -2.13243e-05)
(0.271375 -0.00778539 -2.24835e-05)
(0.271038 -0.00798473 -2.37072e-05)
(0.27076 -0.00810908 -2.30774e-05)
(0.270502 -0.00815433 -2.24347e-05)
(0.270334 -0.00814384 -2.1196e-05)
(0.270097 -0.00804218 -1.63373e-05)
(0.270115 -0.00795649 -3.84109e-05)
(0.269725 -0.00668291 -1.81151e-05)
(0.269465 -0.00694554 -1.90303e-05)
(0.269218 -0.00714434 -2.00686e-05)
(0.269011 -0.00728163 -1.938e-05)
(0.268807 -0.00735149 -1.91755e-05)
(0.268695 -0.0073681 -1.80998e-05)
(0.268501 -0.0073044 -1.408e-05)
(0.268587 -0.00724782 -3.94345e-05)
(0.26721 -0.00600681 -2.08478e-05)
(0.267006 -0.00625673 -2.20964e-05)
(0.266842 -0.00643634 -2.31133e-05)
(0.266735 -0.00655625 -2.188e-05)
(0.266632 -0.00662005 -2.12225e-05)
(0.266623 -0.00664099 -1.92055e-05)
(0.266514 -0.00659791 -1.47767e-05)
(0.266704 -0.00655917 -4.02496e-05)
(0.26522 -0.0053033 -1.65824e-05)
(0.264971 -0.00555552 -1.78616e-05)
(0.264745 -0.00574519 -1.94709e-05)
(0.264586 -0.00587538 -1.88466e-05)
(0.26445 -0.00595173 -1.86421e-05)
(0.264431 -0.00598842 -1.69631e-05)
(0.264326 -0.00597219 -1.3238e-05)
(0.26455 -0.00595068 -3.96322e-05)
(0.262519 -0.00468546 -2.11668e-05)
(0.262458 -0.00489056 -2.13653e-05)
(0.262361 -0.00505835 -2.22144e-05)
(0.262276 -0.00518686 -2.12254e-05)
(0.262176 -0.00527639 -2.08406e-05)
(0.262166 -0.00533879 -1.88498e-05)
(0.262054 -0.00535877 -1.49982e-05)
(0.262266 -0.00538246 -3.86489e-05)
(0.259317 -0.00421317 -1.6088e-05)
(0.259399 -0.00436399 -1.7065e-05)
(0.259456 -0.00448976 -1.86403e-05)
(0.259515 -0.00458892 -1.85833e-05)
(0.25953 -0.00465893 -1.99493e-05)
(0.259608 -0.00471454 -1.95764e-05)
(0.259543 -0.00473544 -1.74679e-05)
(0.259785 -0.00479318 -4.26045e-05)
(0.255438 -0.00379913 -2.05657e-05)
(0.255623 -0.00391473 -2.01342e-05)
(0.255799 -0.00400666 -2.04747e-05)
(0.255995 -0.00407529 -1.93043e-05)
(0.256149 -0.00411483 -2.0464e-05)
(0.256375 -0.00413869 -1.97758e-05)
(0.256425 -0.00412288 -1.72914e-05)
(0.2568 -0.00415764 -4.74633e-05)
(0.251508 -0.0034342 -1.64942e-05)
(0.251654 -0.00351712 -1.63767e-05)
(0.251816 -0.00357561 -1.74888e-05)
(0.252014 -0.00361209 -1.75824e-05)
(0.252184 -0.00362076 -1.98222e-05)
(0.252452 -0.00360968 -1.90635e-05)
(0.252536 -0.00356485 -1.50067e-05)
(0.253005 -0.00355112 -4.82957e-05)
(0.246849 -0.00297035 -1.81176e-05)
(0.247004 -0.00306156 -1.79421e-05)
(0.247221 -0.00310767 -1.74421e-05)
(0.247497 -0.00311659 -1.49227e-05)
(0.247757 -0.00309141 -1.3966e-05)
(0.248125 -0.0030434 -1.13651e-05)
(0.248307 -0.00298603 -6.34697e-06)
(0.248882 -0.00295641 -4.3084e-05)
(0.242577 -0.00259725 -2.25715e-05)
(0.242551 -0.00271843 -2.26364e-05)
(0.24262 -0.00277735 -2.13078e-05)
(0.242793 -0.00279702 -1.71409e-05)
(0.243012 -0.00278982 -1.43791e-05)
(0.243404 -0.00275849 -1.10784e-05)
(0.243682 -0.00271737 -7.02188e-06)
(0.244385 -0.00267525 -4.27393e-05)
(0.23962 -0.00210712 -2.04902e-05)
(0.239498 -0.00225276 -1.97576e-05)
(0.239414 -0.00234484 -1.84794e-05)
(0.239402 -0.00241107 -1.54484e-05)
(0.239425 -0.00246979 -1.49224e-05)
(0.239621 -0.00251558 -1.38648e-05)
(0.239738 -0.00254057 -1.26121e-05)
(0.240295 -0.00253921 -4.49099e-05)
(0.234558 -0.00173846 -2.53193e-05)
(0.234645 -0.00186037 -2.46522e-05)
(0.234727 -0.00194639 -2.44724e-05)
(0.234833 -0.00201836 -2.33831e-05)
(0.234916 -0.0020907 -2.56107e-05)
(0.235098 -0.00215268 -2.55979e-05)
(0.235111 -0.00218467 -2.40909e-05)
(0.235501 -0.00218826 -5.20464e-05)
(0.228622 -0.00141455 -1.89488e-05)
(0.228762 -0.00151753 -1.94033e-05)
(0.228918 -0.00159151 -2.12307e-05)
(0.22911 -0.00164785 -2.27606e-05)
(0.229277 -0.00169212 -2.74273e-05)
(0.229525 -0.00170662 -2.8757e-05)
(0.229552 -0.00168077 -2.78852e-05)
(0.229896 -0.0016295 -6.00964e-05)
(0.220143 -0.00109817 -2.33652e-05)
(0.220331 -0.00118475 -2.43759e-05)
(0.220545 -0.0012511 -2.77425e-05)
(0.220809 -0.00129557 -3.05836e-05)
(0.221067 -0.00131738 -3.65227e-05)
(0.221416 -0.0012812 -3.81078e-05)
(0.221522 -0.00118005 -3.61248e-05)
(0.221941 -0.00100595 -6.43392e-05)
(0.21089 -0.000800669 -1.01608e-05)
(0.211073 -0.000873776 -1.1498e-05)
(0.211307 -0.000931835 -1.80855e-05)
(0.211609 -0.000963602 -2.34971e-05)
(0.211922 -0.000955921 -2.91805e-05)
(0.212344 -0.000853846 -2.94556e-05)
(0.212574 -0.000673992 -2.75361e-05)
(0.213116 -0.000384763 -6.04225e-05)
(0.193855 -0.00047285 -1.04725e-05)
(0.194106 -0.000563994 -1.48914e-05)
(0.194442 -0.000622297 -2.75115e-05)
(0.194899 -0.000640136 -3.87914e-05)