/*--------------------------------*- C++ -*----------------------------------*\
  =========                 |
  \\      /  F ield         | OpenFOAM: The Open Source CFD Toolbox
   \\    /   O peration     | Website:  https://openfoam.org
    \\  /    A nd           | Version:  6
     \\/     M anipulation  |
\*---------------------------------------------------------------------------*/
FoamFile
{
    version     2.0;
    format      ascii;
    class       volScalarField;
    location    "40";
    object      p;
}
// * * * * * * * * * * * * * * * * * * * * * * * * * * * * * * * * * * * * * //

dimensions      [0 2 -2 0 0 0 0];

internalField   nonuniform List<scalar> 
2160
(
-2.83871e-16
-2.11768e-08
-3.10037e-09
1.99977e-10
-2.10331e-08
-3.47126e-09
6.45011e-11
-2.09849e-08
-3.39504e-09
-2.69102e-09
-1.73245e-08
-4.31478e-09
-6.4792e-09
-1.17357e-08
-6.11077e-09
-9.61981e-09
-6.67869e-09
-8.03727e-09
-1.26731e-08
-2.57739e-09
-9.0881e-09
-1.45925e-08
-8.82676e-12
-9.7622e-09
-1.62988e-08
2.73299e-09
-1.07994e-08
-1.69119e-08
4.21853e-09
-1.1685e-08
-1.68449e-08
4.7541e-09
-1.23184e-08
-1.63757e-08
5.27522e-09
-1.33084e-08
-1.51412e-08
6.06522e-09
-1.5315e-08
-1.53686e-08
1.19416e-08
-2.09689e-08
-1.65355e-08
1.86341e-08
-2.65609e-08
-1.66685e-08
1.87372e-08
-2.65366e-08
-1.53642e-08
1.19807e-08
-2.10021e-08
-1.51118e-08
6.06066e-09
-1.53296e-08
-1.63077e-08
5.21916e-09
-1.32913e-08
-1.67444e-08
4.6464e-09
-1.2284e-08
-1.68731e-08
4.25646e-09
-1.17863e-08
-1.62876e-08
2.65214e-09
-1.07661e-08
-1.45503e-08
3.74408e-11
-9.89497e-09
-1.26573e-08
-2.59791e-09
-9.1562e-09
-9.63684e-09
-6.6755e-09
-8.10433e-09
-6.39313e-09
-1.1842e-08
-6.18169e-09
-2.63618e-09
-1.73986e-08
-4.3927e-09
8.5053e-11
-2.10802e-08
-3.43109e-09
2.15444e-10
-2.11593e-08
-3.49353e-09
-6.78389e-12
-2.13127e-08
-3.11593e-09
-2.76505e-12
-2.11743e-08
-3.10136e-09
1.85389e-10
-2.10291e-08
-3.46079e-09
4.79874e-11
-2.09712e-08
-3.39242e-09
-2.70097e-09
-1.73179e-08
-4.3115e-09
-6.47627e-09
-1.1739e-08
-6.11045e-09
-9.6119e-09
-6.68514e-09
-8.03872e-09
-1.26644e-08
-2.58544e-09
-9.08875e-09
-1.45851e-08
-1.30079e-11
-9.76535e-09
-1.62955e-08
2.73072e-09
-1.08004e-08
-1.69121e-08
4.21826e-09
-1.16845e-08
-1.68459e-08
4.75254e-09
-1.23157e-08
-1.63789e-08
5.27285e-09
-1.33027e-08
-1.51408e-08
6.05679e-09
-1.5307e-08
-1.53456e-08
1.19247e-08
-2.09746e-08
-1.64847e-08
1.85761e-08
-2.65526e-08
-1.66172e-08
1.86793e-08
-2.65289e-08
-1.53412e-08
1.1964e-08
-2.1008e-08
-1.51113e-08
6.05233e-09
-1.53217e-08
-1.63108e-08
5.21712e-09
-1.3286e-08
-1.67456e-08
4.64519e-09
-1.22816e-08
-1.68733e-08
4.25569e-09
-1.17853e-08
-1.6284e-08
2.64977e-09
-1.07674e-08
-1.45443e-08
3.24966e-11
-9.89609e-09
-1.26485e-08
-2.60564e-09
-9.15721e-09
-9.62937e-09
-6.68205e-09
-8.10522e-09
-6.39266e-09
-1.18448e-08
-6.17935e-09
-2.64611e-09
-1.73924e-08
-4.38899e-09
6.84935e-11
-2.10666e-08
-3.42823e-09
2.0088e-10
-2.11553e-08
-3.48294e-09
-8.2763e-12
-2.13102e-08
-3.11693e-09
-7.65661e-12
-2.11715e-08
-3.10156e-09
1.63022e-10
-2.10442e-08
-3.42347e-09
2.07378e-11
-2.09711e-08
-3.36557e-09
-2.71744e-09
-1.73206e-08
-4.29252e-09
-6.47291e-09
-1.17487e-08
-6.10428e-09
-9.59847e-09
-6.69189e-09
-8.04537e-09
-1.26486e-08
-2.59182e-09
-9.09813e-09
-1.45708e-08
-1.3244e-11
-9.77907e-09
-1.62833e-08
2.73083e-09
-1.08125e-08
-1.69051e-08
4.21697e-09
-1.169e-08
-1.68398e-08
4.74526e-09
-1.23144e-08
-1.63751e-08
5.26511e-09
-1.32987e-08
-1.5141e-08
6.05042e-09
-1.53005e-08
-1.53506e-08
1.19447e-08
-2.099e-08
-1.64984e-08
1.85862e-08
-2.65498e-08
-1.66307e-08
1.86893e-08
-2.65263e-08
-1.53462e-08
1.19842e-08
-2.10235e-08
-1.51115e-08
6.0461e-09
-1.53152e-08
-1.63072e-08
5.21014e-09
-1.32828e-08
-1.674e-08
4.63885e-09
-1.22809e-08
-1.68665e-08
4.25311e-09
-1.17894e-08
-1.62714e-08
2.649e-09
-1.07791e-08
-1.45305e-08
3.00047e-11
-9.90719e-09
-1.26335e-08
-2.61202e-09
-9.1658e-09
-9.61668e-09
-6.68976e-09
-8.11015e-09
-6.39356e-09
-1.1854e-08
-6.16926e-09
-2.66233e-09
-1.73966e-08
-4.36862e-09
4.12078e-11
-2.10672e-08
-3.40046e-09
1.78826e-10
-2.11709e-08
-3.44522e-09
-1.1017e-11
-2.13073e-08
-3.1171e-09
-1.43737e-11
-2.11697e-08
-3.09958e-09
1.45132e-10
-2.11013e-08
-3.34866e-09
-9.04995e-12
-2.10147e-08
-3.29273e-09
-2.73215e-09
-1.73495e-08
-4.24904e-09
-6.46964e-09
-1.17631e-08
-6.09338e-09
-9.58705e-09
-6.68329e-09
-8.06536e-09
-1.26363e-08
-2.57208e-09
-9.13026e-09
-1.45612e-08
1.66949e-11
-9.81816e-09
-1.62758e-08
2.76079e-09
-1.08498e-08
-1.69005e-08
4.23783e-09
-1.17152e-08
-1.68339e-08
4.74429e-09
-1.23191e-08
-1.63678e-08
5.25562e-09
-1.32963e-08
-1.51373e-08
6.01935e-09
-1.52734e-08
-1.53674e-08
1.1921e-08
-2.09501e-08
-1.65243e-08
1.85204e-08
-2.64583e-08
-1.66565e-08
1.86232e-08
-2.64346e-08
-1.5363e-08
1.19605e-08
-2.09833e-08
-1.51077e-08
6.01493e-09
-1.52877e-08
-1.63003e-08
5.20165e-09
-1.32813e-08
-1.67351e-08
4.63909e-09
-1.22862e-08
-1.68619e-08
4.27097e-09
-1.18117e-08
-1.62628e-08
2.67608e-09
-1.08147e-08
-1.45198e-08
5.54962e-11
-9.94329e-09
-1.26222e-08
-2.59392e-09
-9.19516e-09
-9.60586e-09
-6.68432e-09
-8.1263e-09
-6.39601e-09
-1.18692e-08
-6.1516e-09
-2.67637e-09
-1.74286e-08
-4.32254e-09
1.1287e-11
-2.11121e-08
-3.32568e-09
1.62042e-10
-2.12293e-08
-3.36977e-09
-1.48172e-11
-2.13055e-08
-3.11499e-09
-2.17553e-11
-2.1171e-08
-3.09406e-09
1.37237e-10
-2.12205e-08
-3.22189e-09
-2.79999e-11
-2.11274e-08
-3.16159e-09
-2.73975e-09
-1.74174e-08
-4.17356e-09
-6.46294e-09
-1.17767e-08
-6.08673e-09
-9.58656e-09
-6.64083e-09
-8.10823e-09
-1.26401e-08
-2.50209e-09
-9.19661e-09
-1.4568e-08
1.00413e-10
-9.89441e-09
-1.62892e-08
2.84338e-09
-1.09187e-08
-1.69108e-08
4.30222e-09
-1.1769e-08
-1.68349e-08
4.765e-09
-1.23385e-08
-1.63625e-08
5.25067e-09
-1.32964e-08
-1.51316e-08
5.94903e-09
-1.52094e-08
-1.53701e-08
1.17841e-08
-2.08109e-08
-1.65269e-08
1.82883e-08
-2.62234e-08
-1.6659e-08
1.83901e-08
-2.61988e-08
-1.53657e-08
1.18233e-08
-2.08435e-08
-1.51022e-08
5.94415e-09
-1.52226e-08
-1.62953e-08
5.19786e-09
-1.32827e-08
-1.67373e-08
4.66095e-09
-1.23061e-08
-1.68718e-08
4.3306e-09
-1.18611e-08
-1.62709e-08
2.75366e-09
-1.08842e-08
-1.45258e-08
1.32597e-10
-1.00144e-08
-1.26246e-08
-2.52738e-09
-9.25926e-09
-9.60561e-09
-6.6476e-09
-8.16312e-09
-6.39685e-09
-1.18852e-08
-6.13461e-09
-2.68304e-09
-1.75012e-08
-4.24315e-09
-7.81164e-12
-2.12272e-08
-3.19167e-09
1.55509e-10
-2.13508e-08
-3.24137e-09
-1.89264e-11
-2.13071e-08
-3.10927e-09
-2.86349e-11
-2.11779e-08
-3.0836e-09
1.41281e-10
-2.1411e-08
-3.03598e-09
-2.58701e-11
-2.13485e-08
-2.94295e-09
-2.7371e-09
-1.75514e-08
-4.04193e-09
-6.45678e-09
-1.17879e-08
-6.08186e-09
-9.60601e-09
-6.54595e-09
-8.18352e-09
-1.26693e-08
-2.36067e-09
-9.30904e-09
-1.46013e-08
2.58352e-10
-1.00182e-08
-1.63321e-08
2.99663e-09
-1.10286e-08
-1.69477e-08
4.42938e-09
-1.18587e-08
-1.68477e-08
4.82627e-09
-1.23864e-08
-1.63667e-08
5.26793e-09
-1.3309e-08
-1.51285e-08
5.85633e-09
-1.512e-08
-1.53408e-08
1.15286e-08
-2.05851e-08
-1.64855e-08
1.786e-08
-2.58362e-08
-1.66173e-08
1.796e-08
-2.581e-08
-1.53363e-08
1.15674e-08
-2.06171e-08
-1.50992e-08
5.85054e-09
-1.51316e-08
-1.62999e-08
5.21652e-09
-1.3297e-08
-1.67517e-08
4.72321e-09
-1.23543e-08
-1.69083e-08
4.45147e-09
-1.19451e-08
-1.63009e-08
2.90352e-09
-1.10039e-08
-1.45581e-08
2.81789e-10
-1.01311e-08
-1.26493e-08
-2.38912e-09
-9.37281e-09
-9.62477e-09
-6.56089e-09
-8.23043e-09
-6.39786e-09
-1.18995e-08
-6.11908e-09
-2.6794e-09
-1.76414e-08
-4.10612e-09
-3.66367e-12
-2.14533e-08
-2.96932e-09
1.58629e-10
-2.15441e-08
-3.05057e-09
-2.23788e-11
-2.13142e-08
-3.0986e-09
-3.40869e-11
-2.11921e-08
-3.06739e-09
1.6323e-10
-2.16516e-08
-2.81832e-09
-5.96338e-12
-2.16857e-08
-2.62661e-09
-2.72057e-09
-1.77728e-08
-3.83725e-09
-6.46193e-09
-1.17999e-08
-6.06506e-09
-9.65431e-09
-6.37903e-09
-8.302e-09
-1.27304e-08
-2.12482e-09
-9.48396e-09
-1.46682e-08
5.11574e-10
-1.02035e-08
-1.64074e-08
3.23973e-09
-1.11959e-08
-1.70147e-08
4.64127e-09
-1.2003e-08
-1.68822e-08
4.95431e-09
-1.24792e-08
-1.6391e-08
5.33839e-09
-1.33548e-08
-1.51311e-08
5.78021e-09
-1.50419e-08
-1.52804e-08
1.11761e-08
-2.02938e-08
-1.63946e-08
1.72112e-08
-2.5278e-08
-1.65252e-08
1.73106e-08
-2.52523e-08
-1.52754e-08
1.12143e-08
-2.03251e-08
-1.51015e-08
5.77304e-09
-1.50516e-08
-1.63248e-08
5.28864e-09
-1.33446e-08
-1.6788e-08
4.85205e-09
-1.24471e-08
-1.69748e-08
4.65565e-09
-1.20823e-08
-1.63628e-08
3.14972e-09
-1.11881e-08
-1.46236e-08
5.2449e-10
-1.0308e-08
-1.27055e-08
-2.15381e-09
-9.55175e-09
-9.67177e-09
-6.40402e-09
-8.34003e-09
-6.40933e-09
-1.19145e-08
-6.09254e-09
-2.66246e-09
-1.78711e-08
-3.89356e-09
2.80898e-11
-2.18058e-08
-2.64911e-09
1.77641e-10
-2.17893e-08
-2.82416e-09
-2.44657e-11
-2.13288e-08
-3.08198e-09
-3.78521e-11
-2.12154e-08
-3.04382e-09
1.97601e-10
-2.18871e-08
-2.61835e-09
4.06667e-11
-2.20835e-08
-2.27609e-09
-2.68917e-09
-1.80584e-08
-3.58304e-09
-6.48285e-09
-1.18124e-08
-6.032e-09
-9.73255e-09
-6.128e-09
-8.47453e-09
-1.28306e-08
-1.76314e-09
-9.74561e-09
-1.47762e-08
8.84782e-10
-1.04674e-08
-1.65196e-08
3.59668e-09
-1.14399e-08
-1.71169e-08
4.96435e-09
-1.22231e-08
-1.69507e-08
5.17815e-09
-1.26335e-08
-1.64492e-08
5.50168e-09
-1.34593e-08
-1.51634e-08
5.77315e-09
-1.50032e-08
-1.51994e-08
1.07879e-08
-1.99873e-08
-1.62689e-08
1.64412e-08
-2.46338e-08
-1.63931e-08
1.65398e-08
-2.46136e-08
-1.51939e-08
1.08255e-08
-2.0018e-08
-1.51334e-08
5.76466e-09
-1.50111e-08
-1.63838e-08
5.45378e-09
-1.34511e-08
-1.68588e-08
5.07657e-09
-1.26013e-08
-1.70767e-08
4.9696e-09
-1.22938e-08
-1.64677e-08
3.51618e-09
-1.14495e-08
-1.47298e-08
8.86017e-10
-1.05632e-08
-1.28031e-08
-1.79052e-09
-9.81731e-09
-9.74743e-09
-6.1634e-09
-8.5046e-09
-6.43513e-09
-1.19297e-08
-6.0514e-09
-2.63257e-09
-1.8167e-08
-3.62743e-09
8.91483e-11
-2.22191e-08
-2.29654e-09
2.14877e-10
-2.20307e-08
-2.61951e-09
-2.48087e-11
-2.13538e-08
-3.05681e-09
-3.97322e-11
-2.12581e-08
-3.00254e-09
2.31665e-10
-2.20383e-08
-2.50266e-09
1.14028e-10
-2.24917e-08
-1.94177e-09
-2.64695e-09
-1.83651e-08
-3.31847e-09
-6.51865e-09
-1.18166e-08
-5.99244e-09
-9.8254e-09
-5.79527e-09
-8.71404e-09
-1.29785e-08
-1.238e-09
-1.01231e-08
-1.49308e-08
1.41277e-09
-1.08397e-08
-1.66743e-08
4.10321e-09
-1.17911e-08
-1.72654e-08
5.43218e-09
-1.25417e-08
-1.70646e-08
5.52234e-09
-1.28626e-08
-1.65565e-08
5.79779e-09
-1.36475e-08
-1.52491e-08
5.88809e-09
-1.50332e-08
-1.51265e-08
1.04498e-08
-1.97229e-08
-1.61102e-08
1.57114e-08
-2.40626e-08
-1.62237e-08
1.58057e-08
-2.40484e-08
-1.51202e-08
1.04865e-08
-1.97528e-08
-1.52194e-08
5.87878e-09
-1.50391e-08
-1.64922e-08
5.75191e-09
-1.36414e-08
-1.69753e-08
5.42137e-09
-1.283e-08
-1.72249e-08
5.42672e-09
-1.26021e-08
-1.66185e-08
4.03387e-09
-1.18165e-08
-1.48829e-08
1.40176e-09
-1.09257e-08
-1.29494e-08
-1.2656e-09
-1.01959e-08
-9.83785e-09
-5.84e-09
-8.73717e-09
-6.47348e-09
-1.19361e-08
-6.00659e-09
-2.59222e-09
-1.84834e-08
-3.35115e-09
1.69031e-10
-2.26306e-08
-1.96448e-09
2.57982e-10
-2.21858e-08
-2.50715e-09
-2.26896e-11
-2.13998e-08
-3.01282e-09
-4.2241e-11
-2.13248e-08
-2.93622e-09
2.42945e-10
-2.21105e-08
-2.44371e-09
1.76763e-10
-2.28535e-08
-1.64318e-09
-2.60836e-09
-1.86279e-08
-3.09422e-09
-6.571e-09
-1.17848e-08
-5.97223e-09
-9.9438e-09
-5.38909e-09
-9.00125e-09
-1.31811e-08
-5.45959e-10
-1.06125e-08
-1.512e-08
2.13554e-09
-1.13721e-08
-1.68512e-08
4.81475e-09
-1.23254e-08
-1.7466e-08
6.10753e-09
-1.30157e-08
-1.72263e-08
6.00774e-09
-1.31853e-08
-1.67261e-08
6.26202e-09
-1.39416e-08
-1.54087e-08
6.17562e-09
-1.51619e-08
-1.51088e-08
1.02194e-08
-1.95112e-08
-1.59365e-08
1.50252e-08
-2.35495e-08
-1.60429e-08
1.51126e-08
-2.35354e-08
-1.51013e-08
1.02546e-08
-1.95399e-08
-1.53794e-08
6.16572e-09
-1.51657e-08
-1.6663e-08
6.21832e-09
-1.39375e-08
-1.714e-08
5.90693e-09
-1.31517e-08
-1.74251e-08
6.09023e-09
-1.30649e-08
-1.67933e-08
4.74908e-09
-1.23571e-08
-1.50754e-08
2.11189e-09
-1.14434e-08
-1.31481e-08
-5.76751e-10
-1.06856e-08
-9.95247e-09
-5.44157e-09
-9.02041e-09
-6.52743e-09
-1.19055e-08
-5.98296e-09
-2.55368e-09
-1.87541e-08
-3.11854e-09
2.37895e-10
-2.29974e-08
-1.66605e-09
2.75896e-10
-2.22587e-08
-2.45234e-09
-2.08087e-11
-2.14699e-08
-2.94429e-09
-4.90506e-11
-2.14082e-08
-2.8489e-09
1.99576e-10
-2.21848e-08
-2.32838e-09
1.96702e-10
-2.31112e-08
-1.40557e-09
-2.61855e-09
-1.8768e-08
-2.94375e-09
-6.66867e-09
-1.16689e-08
-5.99077e-09
-1.01301e-08
-4.91611e-09
-9.28782e-09
-1.34424e-08
2.71022e-10
-1.11682e-08
-1.53579e-08
3.04886e-09
-1.20453e-08
-1.70657e-08
5.73078e-09
-1.30249e-08
-1.77147e-08
7.00509e-09
-1.36635e-08
-1.74094e-08
6.69569e-09
-1.36898e-08
-1.69642e-08
6.93435e-09
-1.43754e-08
-1.56608e-08
6.67313e-09
-1.54081e-08
-1.51977e-08
1.01577e-08
-1.93615e-08
-1.58239e-08
1.44203e-08
-2.3057e-08
-1.5925e-08
1.44991e-08
-2.30394e-08
-1.51888e-08
1.0191e-08
-1.9389e-08
-1.56322e-08
6.66292e-09
-1.541e-08
-1.69026e-08
6.8927e-09
-1.43731e-08
-1.73252e-08
6.59263e-09
-1.36536e-08
-1.76731e-08
6.9756e-09
-1.37015e-08
-1.70067e-08
5.65801e-09
-1.30516e-08
-1.53184e-08
3.0122e-09
-1.20999e-08
-1.34067e-08
2.37118e-10
-1.12404e-08
-1.01331e-08
-4.97444e-09
-9.30656e-09
-6.62585e-09
-1.17898e-08
-6e-09
-2.56311e-09
-1.89019e-08
-2.96096e-09
2.60313e-10
-2.32636e-08
-1.42142e-09
2.36886e-10
-2.23338e-08
-2.33865e-09
-2.2906e-11
-2.15557e-08
-2.85611e-09
-6.19009e-11
-2.15e-08
-2.74732e-09
1.27196e-10
-2.22924e-08
-2.14925e-09
1.53822e-10
-2.32126e-08
-1.26107e-09
-2.73934e-09
-1.86756e-08
-2.91531e-09
-6.85702e-09
-1.13925e-08
-6.07909e-09
-1.03913e-08
-4.36803e-09
-9.5744e-09
-1.37643e-08
1.15831e-09
-1.17338e-08
-1.56677e-08
4.08163e-09
-1.27667e-08
-1.73432e-08
6.74145e-09
-1.37574e-08
-1.79985e-08
8.02093e-09
-1.43945e-08
-1.7621e-08
7.6056e-09
-1.43853e-08
-1.72629e-08
7.84948e-09
-1.49911e-08
-1.60024e-08
7.39693e-09
-1.57921e-08
-1.54198e-08
1.03221e-08
-1.93045e-08
-1.58218e-08
1.39809e-08
-2.26198e-08
-1.59172e-08
1.40519e-08
-2.25996e-08
-1.54096e-08
1.03536e-08
-1.93307e-08
-1.59748e-08
7.38705e-09
-1.57924e-08
-1.72032e-08
7.80883e-09
-1.49893e-08
-1.75329e-08
7.49371e-09
-1.43463e-08
-1.79557e-08
7.97974e-09
-1.44223e-08
-1.7283e-08
6.65881e-09
-1.37761e-08
-1.56281e-08
4.03315e-09
-1.28108e-08
-1.37308e-08
1.12263e-09
-1.18016e-08
-1.03914e-08
-4.42962e-09
-9.59249e-09
-6.81612e-09
-1.15118e-08
-6.08734e-09
-2.68345e-09
-1.88165e-08
-2.92555e-09
2.18581e-10
-2.33735e-08
-1.26882e-09
1.6864e-10
-2.24445e-08
-2.15857e-09
-3.07095e-11
-2.16497e-08
-2.75412e-09
-7.81783e-11
-2.16005e-08
-2.63375e-09
1.2477e-10
-2.24933e-08
-1.94778e-09
3.71935e-11
-2.31088e-08
-1.24778e-09
-3.01529e-09
-1.8232e-08
-3.08291e-09
-7.18751e-09
-1.08388e-08
-6.30231e-09
-1.07175e-08
-3.71785e-09
-9.89795e-09
-1.41274e-08
2.07025e-09
-1.22827e-08
-1.60184e-08
5.15081e-09
-1.34837e-08
-1.76433e-08
7.73744e-09
-1.44524e-08
-1.82973e-08
9.03207e-09
-1.51059e-08
-1.78851e-08
8.59679e-09
-1.5111e-08
-1.76025e-08
8.95349e-09
-1.57546e-08
-1.63637e-08
8.38898e-09
-1.64239e-08
-1.57715e-08
1.07509e-08
-1.93822e-08
-1.59559e-08
1.37878e-08
-2.2292e-08
-1.60448e-08
1.38515e-08
-2.22707e-08
-1.57609e-08
1.07808e-08
-1.94065e-08
-1.63366e-08
8.37778e-09
-1.64214e-08
-1.75452e-08
8.91176e-09
-1.57508e-08
-1.77929e-08
8.48267e-09
-1.50761e-08
-1.82528e-08
8.9805e-09
-1.51255e-08
-1.75815e-08
7.64597e-09
-1.44649e-08
-1.59775e-08
5.09223e-09
-1.35202e-08
-1.40977e-08
2.03432e-09
-1.23461e-08
-1.07168e-08
-3.77961e-09
-9.91639e-09
-7.1502e-09
-1.09546e-08
-6.30985e-09
-2.95969e-09
-1.83784e-08
-3.08693e-09
1.03328e-10
-2.32773e-08
-1.24849e-09
1.70927e-10
-2.26507e-08
-1.95437e-09
-4.13779e-11
-2.17532e-08
-2.63958e-09
-9.71985e-11
-2.17036e-08
-2.51438e-09
1.89024e-10
-2.274e-08
-1.76873e-09
-1.7956e-10
-2.27556e-08
-1.38288e-09
-3.48755e-09
-1.73398e-08
-3.50291e-09
-7.71405e-09
-9.84157e-09
-6.77268e-09
-1.11104e-08
-2.91731e-09
-1.03052e-08
-1.45072e-08
2.97026e-09
-1.28029e-08
-1.63674e-08
6.16457e-09
-1.41472e-08
-1.79237e-08
8.62034e-09
-1.50541e-08
-1.85736e-08
9.91767e-09
-1.57146e-08
-1.8162e-08
9.52125e-09
-1.57575e-08
-1.79531e-08
1.00666e-08
-1.65167e-08
-1.67262e-08
9.61116e-09
-1.72832e-08
-1.62221e-08
1.14538e-08
-1.96365e-08
-1.62652e-08
1.39376e-08
-2.21315e-08
-1.63463e-08
1.39942e-08
-2.21101e-08
-1.62121e-08
1.14796e-08
-1.96553e-08
-1.6694e-08
9.59139e-09
-1.72766e-08
-1.7898e-08
1.00224e-08
-1.65097e-08
-1.80664e-08
9.41743e-09
-1.57386e-08
-1.85273e-08
9.85675e-09
-1.5727e-08
-1.78611e-08
8.52361e-09
-1.50629e-08
-1.63252e-08
6.09763e-09
-1.41776e-08
-1.44816e-08
2.93538e-09
-1.28629e-08
-1.11098e-08
-2.97598e-09
-1.03262e-08
-7.68202e-09
-9.95124e-09
-6.78052e-09
-3.43321e-09
-1.74893e-08
-3.50205e-09
-1.11696e-10
-2.29311e-08
-1.37772e-09
2.40329e-10
-2.29038e-08
-1.77166e-09
-5.43891e-11
-2.18608e-08
-2.51803e-09
-1.24815e-10
-2.17904e-08
-2.40168e-09
2.35143e-10
-2.29097e-08
-1.64945e-09
-5.02518e-10
-2.21499e-08
-1.66353e-09
-4.186e-09
-1.59343e-08
-4.21034e-09
-8.50081e-09
-8.17247e-09
-7.65427e-09
-1.15824e-08
-1.91031e-09
-1.08402e-08
-1.48684e-08
3.79046e-09
-1.32617e-08
-1.66478e-08
6.9885e-09
-1.46895e-08
-1.8068e-08
9.23528e-09
-1.55238e-08
-1.86933e-08
1.05031e-08
-1.61794e-08
-1.83407e-08
1.02051e-08
-1.62608e-08
-1.82567e-08
1.09709e-08
-1.71173e-08
-1.71506e-08
1.08715e-08
-1.81194e-08
-1.66862e-08
1.24068e-08
-2.01247e-08
-1.67386e-08
1.45262e-08
-2.22462e-08
-1.6812e-08
1.45757e-08
-2.22248e-08
-1.66741e-08
1.24193e-08
-2.01316e-08
-1.71081e-08
1.08445e-08
-1.81151e-08
-1.82029e-08
1.09244e-08
-1.71081e-08
-1.82405e-08
1.01055e-08
-1.62534e-08
-1.86438e-08
1.04321e-08
-1.61853e-08
-1.80059e-08
9.1363e-09
-1.55306e-08
-1.66043e-08
6.91478e-09
-1.47154e-08
-1.48469e-08
3.7574e-09
-1.3319e-08
-1.15827e-08
-1.96284e-09
-1.0866e-08
-8.47601e-09
-8.27189e-09
-7.66465e-09
-4.13445e-09
-1.60834e-08
-4.20661e-09
-4.33027e-10
-2.23313e-08
-1.65367e-09
2.91819e-10
-2.30806e-08
-1.64813e-09
-7.62008e-11
-2.1953e-08
-2.40233e-09
-1.67048e-10
-2.18356e-08
-2.31522e-09
2.38242e-10
-2.2946e-08
-1.62094e-09
-9.1857e-10
-2.13172e-08
-2.07768e-09
-5.12124e-09
-1.39931e-08
-5.21586e-09
-9.6227e-09
-5.67631e-09
-9.02575e-09
-1.21496e-08
-6.87415e-10
-1.14949e-08
-1.51645e-08
4.4426e-09
-1.36173e-08
-1.67529e-08
7.40526e-09
-1.50003e-08
-1.79075e-08
9.30161e-09
-1.57499e-08
-1.84429e-08
1.04633e-08
-1.63897e-08
-1.8204e-08
1.03618e-08
-1.65521e-08
-1.83103e-08
1.13916e-08
-1.74834e-08
-1.75413e-08
1.18606e-08
-1.872e-08
-1.717e-08
1.34454e-08
-2.06805e-08
-1.71637e-08
1.53017e-08
-2.25974e-08
-1.72302e-08
1.5345e-08
-2.25761e-08
-1.71535e-08
1.34433e-08
-2.06767e-08
-1.74923e-08
1.18325e-08
-1.87206e-08
-1.82564e-08
1.13424e-08
-1.74731e-08
-1.81079e-08
1.02608e-08
-1.6542e-08
-1.83886e-08
1.03796e-08
-1.6388e-08
-1.78456e-08
9.19899e-09
-1.57536e-08
-1.67085e-08
7.32641e-09
-1.50229e-08
-1.5147e-08
4.41133e-09
-1.36722e-08
-1.21507e-08
-7.31509e-10
-1.15278e-08
-9.60653e-09
-5.76118e-09
-9.04171e-09
-5.07512e-09
-1.41355e-08
-5.21277e-09
-8.48098e-10
-2.15024e-08
-2.06434e-09
3.00529e-10
-2.31246e-08
-1.61479e-09
-1.12784e-10
-2.20043e-08
-2.31197e-09
-2.3247e-10
-2.18076e-08
-2.27846e-09
1.8676e-10
-2.28182e-08
-1.70155e-09
-1.40487e-09
-2.03028e-08
-2.60329e-09
-6.2727e-09
-1.16398e-08
-6.41647e-09
-1.10312e-08
-2.65647e-09
-1.06457e-08
-1.2771e-08
6.36378e-10
-1.21947e-08
-1.53405e-08
4.82471e-09
-1.3823e-08
-1.65523e-08
7.15204e-09
-1.49472e-08
-1.73015e-08
8.45958e-09
-1.55137e-08
-1.76349e-08
9.36238e-09
-1.60972e-08
-1.75179e-08
9.55243e-09
-1.64277e-08
-1.78062e-08
1.08768e-08
-1.74728e-08
-1.74996e-08
1.19852e-08
-1.88874e-08
-1.73883e-08
1.38968e-08
-2.09164e-08
-1.72583e-08
1.55804e-08
-2.27833e-08
-1.73172e-08
1.56175e-08
-2.27625e-08
-1.73704e-08
1.38894e-08
-2.09084e-08
-1.74503e-08
1.19554e-08
-1.88863e-08
-1.7752e-08
1.08245e-08
-1.74611e-08
-1.74289e-08
9.45077e-09
-1.64124e-08
-1.75762e-08
9.2652e-09
-1.60865e-08
-1.72386e-08
8.35018e-09
-1.55121e-08
-1.65074e-08
7.06948e-09
-1.4967e-08
-1.53262e-08
4.7941e-09
-1.38749e-08
-1.27721e-08
6.02514e-10
-1.22372e-08
-1.10254e-08
-2.72219e-09
-1.06699e-08
-6.23571e-09
-1.17683e-08
-6.41755e-09
-1.33469e-09
-2.0489e-08
-2.58768e-09
2.54785e-10
-2.30048e-08
-1.68992e-09
-1.72709e-10
-2.19831e-08
-2.27038e-09
-3.30314e-10
-2.16809e-08
-2.30837e-09
7.36112e-11
-2.25225e-08
-1.88687e-09
-1.92783e-09
-1.9179e-08
-3.19912e-09
-7.50925e-09
-9.22233e-09
-7.60663e-09
-1.1948e-08
-7.65694e-10
-1.16217e-08
-1.33249e-08
1.786e-09
-1.27892e-08
-1.5338e-08
4.83853e-09
-1.38389e-08
-1.59263e-08
6.01032e-09
-1.44301e-08
-1.61033e-08
6.38147e-09
-1.46334e-08
-1.60842e-08
6.7856e-09
-1.50706e-08
-1.60607e-08
7.25758e-09
-1.55891e-08
-1.64826e-08
8.84377e-09
-1.67639e-08
-1.65546e-08
1.05026e-08
-1.83511e-08
-1.66749e-08
1.2634e-08
-2.03695e-08
-1.64975e-08
1.41136e-08
-2.20793e-08
-1.65461e-08
1.41419e-08
-2.20592e-08
-1.6656e-08
1.26242e-08
-2.03597e-08
-1.65079e-08
1.04721e-08
-1.83468e-08
-1.64296e-08
8.78942e-09
-1.67502e-08
-1.59796e-08
7.15771e-09
-1.55703e-08
-1.60222e-08
6.67652e-09
-1.50518e-08
-1.60389e-08
6.26552e-09
-1.4627e-08
-1.58806e-08
5.92399e-09
-1.44473e-08
-1.53254e-08
4.80609e-09
-1.3887e-08
-1.33281e-08
1.76347e-09
-1.28402e-08
-1.19585e-08
-8.06248e-10
-1.16542e-08
-7.48482e-09
-9.33048e-09
-7.61435e-09
-1.85962e-09
-1.93621e-08
-3.18298e-09
1.47275e-10
-2.27169e-08
-1.86968e-09
-2.65159e-10
-2.18636e-08
-2.29482e-09
-4.64283e-10
-2.14541e-08
-2.40341e-09
-9.23173e-11
-2.21022e-08
-2.14195e-09
-2.41073e-09
-1.81332e-08
-3.75968e-09
-8.43254e-09
-7.49796e-09
-8.41582e-09
-1.20786e-08
-5.41905e-10
-1.16924e-08
-1.39118e-08
2.98937e-09
-1.34052e-08
-1.51318e-08
4.47412e-09
-1.36795e-08
-1.4812e-08
3.90122e-09
-1.3432e-08
-1.42121e-08
2.88971e-09
-1.30311e-08
-1.36621e-08
2.46364e-09
-1.31666e-08
-1.36239e-08
3.05465e-09
-1.38204e-08
-1.40926e-08
4.77821e-09
-1.50879e-08
-1.4425e-08
6.79038e-09
-1.67689e-08
-1.46337e-08
8.83276e-09
-1.86088e-08
-1.43535e-08
9.88083e-09
-1.99858e-08
-1.43912e-08
9.8996e-09
-1.99661e-08
-1.46143e-08
8.82133e-09
-1.85978e-08
-1.43815e-08
6.75989e-09
-1.67617e-08
-1.40418e-08
4.72356e-09
-1.50729e-08
-1.3552e-08
2.96041e-09
-1.38005e-08
-1.35976e-08
2.34729e-09
-1.31432e-08
-1.41466e-08
2.76934e-09
-1.30217e-08
-1.4763e-08
3.80905e-09
-1.34469e-08
-1.51177e-08
4.43646e-09
-1.37236e-08
-1.39212e-08
2.97987e-09
-1.34622e-08
-1.21094e-08
-5.53183e-10
-1.17327e-08
-8.42569e-09
-7.57832e-09
-8.4322e-09
-2.3464e-09
-1.83083e-08
-3.74514e-09
-1.32388e-11
-2.23029e-08
-2.12011e-09
-3.93701e-10
-2.16436e-08
-2.38457e-09
-6.24103e-10
-2.11641e-08
-2.53684e-09
-2.81908e-10
-2.16477e-08
-2.40616e-09
-2.77911e-09
-1.73513e-08
-4.17746e-09
-8.90438e-09
-6.6469e-09
-8.78879e-09
-1.27737e-08
6.16668e-10
-1.21573e-08
-1.47872e-08
4.61219e-09
-1.41536e-08
-1.4763e-08
3.84365e-09
-1.34149e-08
-1.32876e-08
9.75633e-10
-1.20367e-08
-1.16796e-08
-1.87266e-09
-1.08018e-08
-1.04673e-08
-3.52824e-09
-1.03716e-08
-1.01631e-08
-3.14686e-09
-1.10748e-08
-1.05278e-08
-1.51611e-09
-1.23541e-08
-1.09967e-08
6.25242e-10
-1.40302e-08
-1.11959e-08
2.38016e-09
-1.55931e-08
-1.07812e-08
2.89642e-09
-1.65704e-08
-1.08087e-08
2.9067e-09
-1.65515e-08
-1.11765e-08
2.3676e-09
-1.55811e-08
-1.09571e-08
5.95932e-10
-1.4021e-08
-1.04809e-08
-1.56812e-09
-1.23392e-08
-1.01024e-08
-3.22964e-09
-1.10574e-08
-1.03987e-08
-3.64332e-09
-1.03536e-08
-1.16126e-08
-1.9963e-09
-1.07906e-08
-1.32311e-08
8.7362e-10
-1.20487e-08
-1.47429e-08
3.79676e-09
-1.34551e-08
-1.47982e-08
4.61878e-09
-1.4224e-08
-1.28141e-08
6.3524e-10
-1.22167e-08
-8.91285e-09
-6.69713e-09
-8.81785e-09
-2.71929e-09
-1.75144e-08
-4.16715e-09
-1.9769e-10
-2.18524e-08
-2.38149e-09
-5.48126e-10
-2.13594e-08
-2.51386e-09
-7.82094e-10
-2.08875e-08
-2.65877e-09
-4.57452e-10
-2.12602e-08
-2.61784e-09
-3.05231e-09
-1.68008e-08
-4.45875e-09
-9.31697e-09
-5.91021e-09
-9.11953e-09
-1.40153e-08
2.88523e-09
-1.32149e-08
-1.56269e-08
6.077e-09
-1.47832e-08
-1.42833e-08
3.13136e-09
-1.31847e-08
-1.15145e-08
-2.27119e-09
-1.05628e-08
-8.75594e-09
-7.26788e-09
-8.32982e-09
-6.77905e-09
-1.04438e-08
-7.1476e-09
-6.0163e-09
-1.07561e-08
-7.61421e-09
-6.07228e-09
-9.57265e-09
-8.75394e-09
-6.47589e-09
-7.622e-09
-1.03032e-08
-6.62161e-09
-6.21774e-09
-1.15715e-08
-6.11182e-09
-6.14478e-09
-1.22001e-08
-6.13036e-09
-6.14075e-09
-1.21829e-08
-6.60296e-09
-6.23037e-09
-1.15591e-08
-6.44107e-09
-7.64822e-09
-1.02931e-08
-6.03193e-09
-9.61699e-09
-8.74143e-09
-5.9679e-09
-1.08213e-08
-7.60414e-09
-6.70958e-09
-1.05516e-08
-7.13751e-09
-8.68581e-09
-7.39615e-09
-8.31689e-09
-1.14481e-08
-2.39196e-09
-1.05656e-08
-1.42599e-08
3.07172e-09
-1.32147e-08
-1.56419e-08
6.09457e-09
-1.48595e-08
-1.40575e-08
2.93109e-09
-1.32982e-08
-9.3363e-09
-5.92914e-09
-9.16645e-09
-2.99636e-09
-1.69497e-08
-4.45494e-09
-3.68686e-10
-2.1466e-08
-2.59252e-09
-7.01306e-10
-2.10865e-08
-2.63348e-09
-8.94293e-10
-2.07156e-08
-2.72088e-09
-5.63027e-10
-2.10395e-08
-2.73372e-09
-3.20196e-09
-1.64979e-08
-4.61525e-09
-9.62942e-09
-5.34875e-09
-9.37044e-09
-1.48208e-08
4.42193e-09
-1.39404e-08
-1.62271e-08
7.21112e-09
-1.53165e-08
-1.38275e-08
2.65702e-09
-1.31669e-08
-9.7644e-09
-5.1026e-09
-9.47736e-09
-5.9175e-09
-1.22261e-08
-6.20747e-09
-3.126e-09
-1.69621e-08
-4.27721e-09
-1.86574e-09
-1.83443e-08
-4.17407e-09
-1.45255e-09
-1.80046e-08
-4.94118e-09
-1.54888e-09
-1.67238e-08
-6.13165e-09
-1.542e-09
-1.58026e-08
-7.07144e-09
-9.53786e-10
-1.60578e-08
-7.44542e-09
-9.6546e-10
-1.60574e-08
-7.43058e-09
-1.52492e-09
-1.58137e-08
-7.0595e-09
-1.51956e-09
-1.67443e-08
-6.12278e-09
-1.42027e-09
-1.80359e-08
-4.9349e-09
-1.83028e-09
-1.83887e-08
-4.17348e-09
-3.06642e-09
-1.70565e-08
-4.27075e-09
-5.84417e-09
-1.23601e-08
-6.19152e-09
-9.68963e-09
-5.24414e-09
-9.46693e-09
-1.37992e-08
2.58491e-09
-1.31884e-08
-1.62546e-08
7.24308e-09
-1.53929e-08
-1.48765e-08
4.49399e-09
-1.40342e-08
-9.65839e-09
-5.34569e-09
-9.42672e-09
-3.14866e-09
-1.66347e-08
-4.61695e-09
-4.7101e-10
-2.12437e-08
-2.70941e-09
-8.09986e-10
-2.09157e-08
-2.695e-09
-9.23762e-10
-2.06983e-08
-2.71006e-09
-5.59176e-10
-2.10341e-08
-2.74374e-09
-3.22128e-09
-1.64477e-08
-4.64776e-09
-9.84468e-09
-5.03306e-09
-9.47475e-09
-1.54059e-08
5.39199e-09
-1.43284e-08
-1.67299e-08
8.22004e-09
-1.58255e-08
-1.35989e-08
2.73087e-09
-1.34682e-08
-8.51827e-09
-6.79933e-09
-9.03062e-09
-3.78505e-09
-1.56747e-08
-4.89325e-09
-3.67015e-10
-2.17274e-08
-2.27104e-09
1.36467e-09
-2.42373e-08
-1.50909e-09
2.29877e-09
-2.4941e-08
-1.75273e-09
2.72659e-09
-2.47277e-08
-2.40106e-09
3.0384e-09
-2.45245e-08
-2.92984e-09
3.72444e-09
-2.50974e-08
-3.07942e-09
3.71743e-09
-2.50987e-08
-3.06696e-09
3.05322e-09
-2.45331e-08
-2.91897e-09
2.75014e-09
-2.47413e-08
-2.39461e-09
2.32258e-09
-2.49579e-08
-1.7536e-09
1.38824e-09
-2.42622e-08
-1.51741e-09
-3.19798e-10
-2.18045e-08
-2.26931e-09
-3.70907e-09
-1.58137e-08
-4.8741e-09
-8.43764e-09
-6.95653e-09
-9.00959e-09
-1.35672e-08
2.64975e-09
-1.34831e-08
-1.67616e-08
8.26019e-09
-1.59041e-08
-1.54727e-08
5.49113e-09
-1.44361e-08
-9.88061e-09
-5.00908e-09
-9.54224e-09
-3.16901e-09
-1.65745e-08
-4.65515e-09
-4.65317e-10
-2.12347e-08
-2.72175e-09
-8.37543e-10
-2.08973e-08
-2.68499e-09
-8.90641e-10
-2.07764e-08
-2.6656e-09
-4.97253e-10
-2.11335e-08
-2.70665e-09
-3.18502e-09
-1.65079e-08
-4.62342e-09
-9.97592e-09
-4.89707e-09
-9.4829e-09
-1.58074e-08
5.95822e-09
-1.44983e-08
-1.7121e-08
8.98532e-09
-1.62054e-08
-1.3604e-08
3.12168e-09
-1.3854e-08
-7.95201e-09
-7.30458e-09
-9.09054e-09
-2.72967e-09
-1.72106e-08
-4.41581e-09
1.01604e-09
-2.4051e-08
-1.33401e-09
3.03541e-09
-2.73428e-08
-7.82053e-11
4.34137e-09
-2.88618e-08
1.21636e-10
5.25994e-09
-2.9619e-08
-4.48451e-11
5.90115e-09
-3.01039e-08
-2.13334e-10
6.68606e-09
-3.09422e-08
-1.91501e-10
6.68147e-09
-3.09439e-08
-1.80717e-10
5.91398e-09
-3.01102e-08
-2.03412e-10
5.27914e-09
-2.96271e-08
-4.05671e-11
4.35899e-09
-2.88682e-08
1.1561e-10
3.05137e-09
-2.73551e-08
-9.21113e-11
1.05402e-09
-2.41148e-08
-1.33622e-09
-2.65249e-09
-1.73527e-08
-4.3942e-09
-7.86837e-09
-7.47021e-09
-9.06352e-09
-1.35755e-08
3.03675e-09
-1.3861e-08
-1.71579e-08
9.02461e-09
-1.62771e-08
-1.58729e-08
6.06771e-09
-1.46162e-08
-1.00128e-08
-4.85791e-09
-9.5629e-09
-3.13208e-09
-1.66278e-08
-4.63653e-09
-4.02345e-10
-2.13305e-08
-2.6874e-09
-8.03566e-10
-2.09738e-08
-2.64194e-09
)
;

boundaryField
{
    freeSurface
    {
        type            slip;
    }
    inlet
    {
        type            cyclic;
    }
    outlet
    {
        type            cyclic;
    }
    sidewalls
    {
        type            zeroGradient;
    }
    noSlipWalls
    {
        type            zeroGradient;
    }
}


// ************************************************************************* //
