/*--------------------------------*- C++ -*----------------------------------*\
  =========                 |
  \\      /  F ield         | OpenFOAM: The Open Source CFD Toolbox
   \\    /   O peration     | Website:  https://openfoam.org
    \\  /    A nd           | Version:  6
     \\/     M anipulation  |
\*---------------------------------------------------------------------------*/
FoamFile
{
    version     2.0;
    format      ascii;
    class       surfaceScalarField;
    location    "40";
    object      phi;
}
// * * * * * * * * * * * * * * * * * * * * * * * * * * * * * * * * * * * * * //

dimensions      [0 3 -1 0 0 0 0];

internalField   nonuniform List<scalar> 
5598
(
1.52665e-07
-1.09447e-13
-2.81907e-13
1.52664e-07
-2.37036e-13
7.87388e-13
3.37528e-13
-4.96509e-13
4.67081e-07
5.39904e-13
-2.13123e-12
4.67073e-07
-5.46501e-13
7.85053e-12
-8.7867e-15
-5.71288e-12
6.3148e-07
2.41458e-12
-3.79435e-12
6.31472e-07
-2.65953e-12
1.00053e-11
2.41266e-13
-6.22261e-12
8.15192e-07
3.05696e-12
-2.37039e-12
8.15186e-07
-3.38913e-12
6.80621e-12
3.38694e-13
-4.44603e-12
1.02745e-06
2.43858e-12
4.15309e-15
1.02745e-06
-2.70071e-12
1.12471e-12
2.88796e-13
-1.14901e-12
1.27516e-06
1.83671e-12
3.06642e-12
1.27516e-06
-2.00612e-12
-4.50557e-12
1.99545e-13
1.43567e-12
1.56519e-06
1.12181e-12
6.37911e-12
1.5652e-06
-1.17644e-12
-9.25013e-12
9.11973e-14
2.86459e-12
1.90572e-06
7.61493e-13
7.95898e-12
1.90573e-06
-9.21229e-13
-1.153e-11
1.85544e-13
3.58178e-12
2.30717e-06
3.58467e-13
1.01742e-11
2.30718e-06
-5.21465e-13
-1.3659e-11
1.84832e-13
3.48882e-12
2.78062e-06
8.87547e-14
1.07083e-11
2.78063e-06
-2.28643e-13
-1.27258e-11
1.57196e-13
2.02198e-12
3.33832e-06
-1.2049e-14
7.66769e-12
3.33833e-06
-1.82024e-13
-7.3203e-12
2.08304e-13
-3.44424e-13
3.99373e-06
-1.37197e-15
6.84686e-12
3.99373e-06
-3.49587e-13
-4.13436e-12
3.66639e-13
-2.71384e-12
4.75675e-06
3.41335e-13
-4.11727e-13
4.75674e-06
-1.07513e-12
9.20017e-12
7.50196e-13
-8.78925e-12
5.639e-06
4.5454e-13
-2.12783e-11
5.63897e-06
-1.1138e-12
3.1855e-11
6.75363e-13
-1.05763e-11
6.61741e-06
1.29304e-14
-4.89942e-11
6.61733e-06
-3.30635e-15
7.9295e-11
1.9261e-15
-3.02963e-11
6.61734e-06
-4.54644e-13
-4.94697e-11
6.61726e-06
1.12269e-12
7.93157e-11
-6.62646e-13
-2.98398e-11
5.63864e-06
-3.41065e-13
-2.13522e-11
5.63861e-06
1.08324e-12
3.1872e-11
-7.41225e-13
-1.05152e-11
4.75628e-06
2.792e-16
-4.67485e-13
4.75627e-06
3.58777e-13
9.26084e-12
-3.63287e-13
-8.78833e-12
3.99322e-06
1.0681e-14
6.75792e-12
3.99323e-06
1.92636e-13
-4.04395e-12
-2.07752e-13
-2.71376e-12
3.33782e-06
-8.02967e-14
7.49977e-12
3.33782e-06
2.19676e-13
-7.09213e-12
-1.43244e-13
-4.08208e-13
2.78021e-06
-3.54294e-13
1.04867e-11
2.78022e-06
5.49202e-13
-1.24651e-11
-2.02277e-13
1.98186e-12
2.3068e-06
-7.6146e-13
9.78992e-12
2.30681e-06
9.10553e-13
-1.34539e-11
-1.55425e-13
3.66301e-12
1.90538e-06
-1.11097e-12
7.96174e-12
1.90539e-06
1.1962e-12
-1.12076e-11
-9.51219e-14
3.24944e-12
1.56487e-06
-1.82848e-12
6.2453e-12
1.56488e-06
1.99795e-12
-8.99645e-12
-1.75354e-13
2.74714e-12
1.27484e-06
-2.46949e-12
3.13451e-12
1.27484e-06
2.66209e-12
-4.30339e-12
-1.94909e-13
1.16531e-12
1.02715e-06
-3.05884e-12
5.86857e-13
1.02715e-06
3.3427e-12
1.54398e-12
-2.81212e-13
-2.1358e-12
8.14937e-07
-2.41264e-12
-2.4048e-12
8.1493e-07
2.68789e-12
6.91205e-12
-2.70737e-13
-4.50911e-12
6.31288e-07
-5.55456e-13
-3.80223e-12
6.3128e-07
5.69553e-13
1.01259e-11
-9.62932e-15
-6.32359e-12
4.66937e-07
1.05017e-13
-2.13461e-12
4.66929e-07
2.43257e-13
7.97778e-12
-3.48747e-13
-5.83822e-12
1.52628e-07
-2.88741e-13
1.52628e-07
7.96241e-13
-5.07973e-13
4.75139e-07
-1.19925e-13
-9.85611e-13
4.75137e-07
-4.78494e-13
2.34974e-12
5.54082e-13
-1.31082e-12
1.19181e-06
1.10931e-12
-6.15477e-12
1.1918e-06
-1.16508e-12
1.71515e-11
8.36258e-15
-1.09872e-11
1.54341e-06
3.97781e-12
-9.64138e-12
1.5434e-06
-4.03376e-12
2.25021e-11
4.57483e-14
-1.29096e-11
1.93077e-06
5.07962e-12
-6.01761e-12
1.93077e-06
-4.93914e-12
1.4746e-11
-1.16587e-13
-8.77273e-12
2.37209e-06
4.11156e-12
7.31319e-13
2.37208e-06
-3.88966e-12
1.7941e-12
-1.69613e-13
-2.57396e-12
2.8804e-06
2.9774e-12
7.61981e-12
2.88041e-06
-3.00398e-12
-1.03972e-11
9.37081e-14
2.75904e-12
3.46772e-06
1.84796e-12
1.42527e-11
3.46773e-06
-1.79598e-12
-2.03953e-11
1.93909e-14
6.13194e-12
4.14727e-06
1.2116e-12
1.7267e-11
4.14728e-06
-1.3354e-12
-2.44182e-11
1.7919e-13
7.17786e-12
4.93447e-06
6.0929e-13
2.05308e-11
4.93448e-06
-8.06096e-13
-2.82027e-11
2.40297e-13
7.6878e-12
5.84419e-06
1.69684e-13
2.10896e-11
5.8442e-06
-3.77035e-13
-2.62033e-11
2.38713e-13
5.13032e-12
6.89153e-06
9.29645e-15
1.47952e-11
6.89153e-06
-2.90251e-13
-1.55061e-11
3.09512e-13
7.16592e-13
8.0925e-06
8.09003e-14
1.22141e-11
8.0925e-06
-5.51758e-13
-9.2466e-12
5.01378e-13
-2.97076e-12
9.46349e-06
5.97288e-13
-2.3497e-14
9.46349e-06
-1.53962e-12
1.6318e-11
9.75604e-13
-1.62981e-11
1.103e-05
7.54873e-13
-3.2551e-11
1.10299e-05
-1.64941e-12
6.12721e-11
9.22655e-13
-2.87155e-11
1.28277e-05
1.73038e-14
-7.61685e-11
1.28276e-05
-4.49985e-16
1.45003e-10
5.17269e-15
-6.8824e-11
1.28277e-05
-7.47172e-13
-7.69271e-11
1.28276e-05
1.66304e-12
1.45134e-10
-9.01891e-13
-6.81931e-11
1.10299e-05
-5.94586e-13
-3.26854e-11
1.10298e-05
1.55267e-12
6.1388e-11
-9.57535e-13
-2.86845e-11
9.46326e-06
-7.95807e-14
-1.04671e-13
9.46326e-06
5.65039e-13
1.65036e-11
-4.9174e-13
-1.63872e-11
8.09214e-06
-7.85611e-15
1.20638e-11
8.09215e-06
3.05126e-13
-9.008e-12
-3.06044e-13
-3.05312e-12
6.89107e-06
-1.59767e-13
1.44768e-11
6.89108e-06
3.77371e-13
-1.50385e-11
-2.26866e-13
5.61594e-13
5.84375e-06
-6.03997e-13
2.0665e-11
5.84376e-06
8.43736e-13
-2.56817e-11
-2.54226e-13
5.02545e-12
4.93401e-06
-1.20539e-12
1.98204e-11
4.93402e-06
1.34195e-12
-2.78184e-11
-1.51921e-13
7.99789e-12
4.14681e-06
-1.83097e-12
1.6858e-11
4.14682e-06
1.82921e-12
-2.38221e-11
-1.80019e-14
6.972e-12
3.46724e-06
-2.96811e-12
1.40761e-11
3.46725e-06
3.0085e-12
-1.98933e-11
-5.5724e-14
5.80879e-12
2.8799e-06
-4.14443e-12
7.65223e-12
2.87991e-06
3.90375e-12
-9.96638e-12
2.35373e-13
2.30055e-12
2.3716e-06
-5.09437e-12
1.47605e-12
2.3716e-06
4.96031e-12
2.62656e-12
1.34417e-13
-4.11323e-12
1.93035e-06
-3.98798e-12
-6.10108e-12
1.93034e-06
4.08402e-12
1.50213e-11
-8.9682e-14
-8.92803e-12
1.54307e-06
-1.14678e-12
-9.66176e-12
1.54306e-06
1.19822e-12
2.27607e-11
-4.28923e-14
-1.31011e-11
1.19156e-06
9.3535e-14
-6.16871e-12
1.19155e-06
4.84274e-13
1.74211e-11
-5.78064e-13
-1.12387e-11
4.75035e-07
-1.02447e-12
4.75034e-07
2.37019e-12
-1.34645e-12
8.09622e-07
-9.48179e-14
-1.98079e-12
8.09621e-07
-5.75466e-13
4.33298e-12
5.95931e-13
-2.22452e-12
1.76339e-06
1.4389e-12
-1.02358e-11
1.76338e-06
-1.52434e-12
2.47291e-11
1.35313e-14
-1.44863e-11
2.26445e-06
4.75817e-12
-1.56337e-11
2.26445e-06
-4.57918e-12
3.37804e-11
-1.8778e-13
-1.82587e-11
2.81002e-06
6.18638e-12
-9.91222e-12
2.81002e-06
-5.56117e-12
2.17976e-11
-5.87301e-13
-1.19764e-11
3.43047e-06
5.07403e-12
1.71385e-12
3.43046e-06
-4.3871e-12
1.72556e-12
-6.14055e-13
-3.52292e-12
4.14456e-06
3.57337e-12
1.30109e-11
4.14457e-06
-3.43091e-12
-1.70579e-11
-4.67068e-14
4.0058e-12
4.96923e-06
2.23247e-12
2.29774e-11
4.96924e-06
-2.06478e-12
-3.23851e-11
-7.06342e-14
9.39568e-12
5.92298e-06
1.45074e-12
2.73003e-11
5.92299e-06
-1.50752e-12
-3.79966e-11
1.35459e-13
1.07414e-11
7.02722e-06
7.48053e-13
3.195e-11
7.02724e-06
-9.3546e-13
-4.34881e-11
2.47387e-13
1.15727e-11
8.30278e-06
2.18102e-13
3.2259e-11
8.30279e-06
-4.56317e-13
-4.1113e-11
2.81168e-13
8.88764e-12
9.77087e-06
2.034e-14
2.33232e-11
9.77088e-06
-3.50885e-13
-2.5915e-11
3.70279e-13
2.60055e-12
1.14541e-05
1.35902e-13
1.87289e-11
1.14541e-05
-6.6922e-13
-1.61405e-11
5.76308e-13
-2.59482e-12
1.3376e-05
7.66533e-13
1.24522e-12
1.3376e-05
-1.80827e-12
2.36498e-11
1.08845e-12
-2.49025e-11
1.55726e-05
9.42867e-13
-4.54643e-11
1.55726e-05
-1.9462e-12
1.01396e-10
1.04199e-12
-5.59175e-11
1.81011e-05
2.05092e-14
-1.08453e-10
1.8101e-05
2.2496e-15
2.25231e-10
7.85144e-15
-1.1676e-10
1.8101e-05
-9.29189e-13
-1.09569e-10
1.8101e-05
1.96421e-12
2.25547e-10
-1.01495e-12
-1.15953e-10
1.55725e-05
-7.61187e-13
-4.56721e-11
1.55724e-05
1.82535e-12
1.01649e-10
-1.06384e-12
-5.59393e-11
1.33757e-05
-1.32089e-13
1.13509e-12
1.33757e-05
6.85263e-13
2.40021e-11
-5.61856e-13
-2.51165e-11
1.14536e-05
-1.62783e-14
1.85053e-11
1.14537e-05
3.68375e-13
-1.57361e-11
-3.63929e-13
-2.7633e-12
9.77029e-06
-2.06737e-13
2.28606e-11
9.7703e-06
4.63093e-13
-2.51851e-11
-2.69844e-13
2.32609e-12
8.30221e-06
-7.40446e-13
3.1653e-11
8.30222e-06
9.77699e-13
-4.0358e-11
-2.56473e-13
8.71939e-12
7.02663e-06
-1.43827e-12
3.09092e-11
7.02664e-06
1.52177e-12
-4.29999e-11
-1.06125e-13
1.2094e-11
5.92238e-06
-2.21031e-12
2.66236e-11
5.92239e-06
2.10913e-12
-3.71879e-11
7.48646e-14
1.0576e-11
4.96861e-06
-3.5639e-12
2.26735e-11
4.96862e-06
3.46038e-12
-3.17311e-11
8.08411e-14
9.04553e-12
4.14392e-06
-5.08687e-12
1.29675e-11
4.14392e-06
4.43861e-12
-1.64488e-11
6.40525e-13
3.45277e-12
3.42983e-06
-6.19315e-12
2.51092e-12
3.42983e-06
5.61745e-12
2.8712e-12
5.72834e-13
-5.39762e-12
2.80946e-06
-4.77384e-12
-1.00192e-11
2.80946e-06
4.63729e-12
2.22231e-11
1.39618e-13
-1.22177e-11
2.26401e-06
-1.48586e-12
-1.56507e-11
2.264e-06
1.55977e-12
3.41323e-11
-5.86703e-14
-1.84959e-11
1.76306e-06
5.26146e-14
-1.02428e-11
1.76306e-06
5.77812e-13
2.51061e-11
-6.28628e-13
-1.48362e-11
8.09461e-07
-2.06978e-12
8.09459e-07
4.36512e-12
-2.29428e-12
1.16911e-06
-1.03391e-13
-3.21127e-12
1.16911e-06
-5.68784e-13
6.66711e-12
5.74402e-13
-3.23041e-12
2.3205e-06
1.69275e-12
-1.35466e-11
2.32049e-06
-1.76354e-12
3.01981e-11
-1.81068e-14
-1.66533e-11
2.98092e-06
5.44152e-12
-2.15309e-11
2.98091e-06
-5.01114e-12
4.32648e-11
-4.37498e-13
-2.19277e-11
3.69107e-06
7.20052e-12
-1.35087e-11
3.69107e-06
-6.08496e-12
2.77537e-11
-1.06406e-12
-1.43946e-11
4.4967e-06
5.9604e-12
2.9545e-12
4.4967e-06
-4.81417e-12
1.11045e-12
-1.0531e-12
-4.19008e-12
5.42322e-06
4.08176e-12
1.89934e-11
5.42322e-06
-3.75532e-12
-2.41557e-11
-2.03332e-13
5.09108e-12
6.4929e-06
2.55023e-12
3.22949e-11
6.49291e-06
-2.26167e-12
-4.48348e-11
-1.65432e-13
1.25279e-11
7.72996e-06
1.65281e-12
3.7874e-11
7.72997e-06
-1.64214e-12
-5.19243e-11
9.06007e-14
1.41172e-11
9.16238e-06
8.59092e-13
4.41027e-11
9.1624e-06
-1.02924e-12
-5.92149e-11
2.46855e-13
1.51713e-11
1.08176e-05
2.53479e-13
4.45175e-11
1.08176e-05
-5.11442e-13
-5.71413e-11
3.12876e-13
1.26793e-11
1.27239e-05
2.93647e-14
3.3235e-11
1.2724e-05
-4.04585e-13
-3.85752e-11
4.26372e-13
5.35274e-12
1.49117e-05
1.89736e-13
2.75204e-11
1.49117e-05
-7.78856e-13
-2.59538e-11
6.4395e-13
-1.57668e-12
1.74124e-05
9.16635e-13
4.98059e-12
1.74124e-05
-2.04024e-12
2.70885e-11
1.18418e-12
-3.20823e-11
2.02732e-05
1.09234e-12
-5.93367e-11
2.02731e-05
-2.17368e-12
1.40348e-10
1.1307e-12
-8.09868e-11
2.35648e-05
2.38993e-14
-1.41089e-10
2.35647e-05
4.80638e-15
3.00717e-10
1.04717e-14
-1.59598e-10
2.35648e-05
-1.0736e-12
-1.42657e-10
2.35647e-05
2.19684e-12
3.01246e-10
-1.09734e-12
-1.58551e-10
2.0273e-05
-9.08185e-13
-5.96298e-11
2.0273e-05
2.06166e-12
1.40731e-10
-1.15394e-12
-8.10364e-11
1.74121e-05
-1.8357e-13
4.83177e-12
1.74121e-05
7.98986e-13
2.7615e-11
-6.26085e-13
-3.2416e-11
1.49111e-05
-2.32931e-14
2.72062e-11
1.49112e-05
4.26286e-13
-2.54086e-11
-4.1805e-13
-1.78737e-12
1.27232e-05
-2.40166e-13
3.26432e-11
1.27232e-05
5.22629e-13
-3.76069e-11
-2.99852e-13
4.96754e-12
1.08169e-05
-8.477e-13
4.37698e-11
1.08169e-05
1.07514e-12
-5.62194e-11
-2.51647e-13
1.24708e-11
9.16162e-06
-1.63355e-12
4.25942e-11
9.16164e-06
1.65913e-12
-5.87135e-11
-5.48322e-14
1.61277e-11
7.72919e-06
-2.52152e-12
3.70888e-11
7.7292e-06
2.31603e-12
-5.09816e-11
1.72354e-13
1.39083e-11
6.49211e-06
-4.07064e-12
3.17934e-11
6.49212e-06
3.80942e-12
-4.41405e-11
2.31858e-13
1.23312e-11
5.4224e-06
-5.95057e-12
1.88693e-11
5.42241e-06
4.90167e-12
-2.34565e-11
1.03876e-12
4.53945e-12
4.4959e-06
-7.19431e-12
3.73663e-12
4.4959e-06
6.16544e-12
2.41259e-12
1.02319e-12
-6.16918e-12
3.69037e-06
-5.45671e-12
-1.3597e-11
3.69036e-06
5.07045e-12
2.8304e-11
3.87604e-13
-1.47278e-11
2.98036e-06
-1.7418e-12
-2.15304e-11
2.98035e-06
1.79858e-12
4.366e-11
-3.71484e-14
-2.21622e-11
2.32008e-06
5.08512e-14
-1.34993e-11
2.32008e-06
5.66773e-13
3.06461e-11
-6.14478e-13
-1.71032e-11
1.16889e-06
-3.36207e-12
1.16889e-06
6.71064e-12
-3.34436e-12
1.57764e-06
-1.71942e-13
-4.617e-12
1.57763e-06
-4.18686e-13
9.27787e-12
4.74203e-13
-4.31901e-12
2.92556e-06
1.92772e-12
-1.59542e-11
2.92556e-06
-1.91994e-12
3.32646e-11
-1.09607e-13
-1.73269e-11
3.76684e-06
6.18326e-12
-2.67965e-11
3.76684e-06
-5.42024e-12
5.05571e-11
-7.67388e-13
-2.40518e-11
4.66354e-06
8.2525e-12
-1.65176e-11
4.66353e-06
-6.65356e-12
3.25011e-11
-1.53289e-12
-1.62035e-11
5.67783e-06
6.85922e-12
4.75171e-12
5.67783e-06
-5.29931e-12
1.79163e-13
-1.44511e-12
-5.10476e-12
6.84313e-06
4.60462e-12
2.5251e-11
6.84313e-06
-4.05859e-12
-3.11867e-11
-3.94305e-13
5.8276e-12
8.1879e-06
2.86619e-12
4.17308e-11
8.18791e-06
-2.45039e-12
-5.71905e-11
-2.64557e-13
1.54481e-11
9.74287e-06
1.85442e-12
4.85808e-11
9.74288e-06
-1.77675e-12
-6.57636e-11
4.74779e-14
1.72758e-11
1.15435e-05
9.62619e-13
5.62372e-11
1.15435e-05
-1.11692e-12
-7.49955e-11
2.49112e-13
1.88479e-11
1.36248e-05
2.79851e-13
5.74074e-11
1.36249e-05
-5.53862e-13
-7.39544e-11
3.41985e-13
1.66293e-11
1.6023e-05
3.31004e-14
4.44256e-11
1.6023e-05
-4.53495e-13
-5.33003e-11
4.83816e-13
8.89178e-12
1.87771e-05
2.57787e-13
3.8926e-11
1.87771e-05
-9.02675e-13
-3.96516e-11
7.15454e-13
7.08355e-13
2.19274e-05
1.07269e-12
1.2572e-11
2.19274e-05
-2.27013e-12
2.27793e-11
1.26885e-12
-3.53653e-11
2.55329e-05
1.21869e-12
-6.97331e-11
2.55328e-05
-2.35507e-12
1.66272e-10
1.19719e-12
-9.65028e-11
2.96797e-05
2.75051e-14
-1.68438e-10
2.96796e-05
7.61248e-15
3.57048e-10
1.32862e-14
-1.88569e-10
2.96796e-05
-1.1952e-12
-1.70625e-10
2.96796e-05
2.38449e-12
3.57788e-10
-1.15703e-12
-1.87109e-10
2.55326e-05
-1.06044e-12
-7.01098e-11
2.55326e-05
2.29658e-12
1.66752e-10
-1.23321e-12
-9.65482e-11
2.19269e-05
-2.48997e-13
1.23721e-11
2.19269e-05
9.27595e-13
2.34439e-11
-6.94345e-13
-3.57666e-11
1.87764e-05
-2.52549e-14
3.85372e-11
1.87764e-05
4.80456e-13
-3.89938e-11
-4.73752e-13
4.69646e-13
1.6022e-05
-2.64383e-13
4.37351e-11
1.6022e-05
5.68761e-13
-5.21545e-11
-3.25954e-13
8.42632e-12
1.36239e-05
-9.46149e-13
5.65661e-11
1.36239e-05
1.16135e-12
-7.29243e-11
-2.44918e-13
1.63875e-11
1.15426e-05
-1.82662e-12
5.43218e-11
1.15426e-05
1.79209e-12
-7.45105e-11
-1.60986e-15
2.02035e-11
9.7419e-06
-2.8294e-12
4.77315e-11
9.74191e-06
2.5104e-12
-6.47712e-11
2.78401e-13
1.70598e-11
8.18691e-06
-4.58981e-12
4.10971e-11
8.18692e-06
4.13122e-12
-5.65298e-11
4.22316e-13
1.54126e-11
6.84211e-06
-6.83165e-12
2.506e-11
6.84211e-06
5.42159e-12
-3.04936e-11
1.39723e-12
5.36241e-12
5.67684e-06
-8.23937e-12
5.39889e-12
5.67684e-06
6.75346e-12
1.46207e-12
1.47716e-12
-6.88499e-12
4.66266e-06
-6.19221e-12
-1.65579e-11
4.66265e-06
5.47346e-12
3.31598e-11
7.18503e-13
-1.66313e-11
3.76614e-06
-1.97045e-12
-2.67595e-11
3.76614e-06
1.94974e-12
5.09513e-11
4.33763e-14
-2.42474e-11
2.92504e-06
1.13054e-13
-1.58048e-11
2.92504e-06
4.11167e-13
3.37399e-11
-5.20234e-13
-1.78727e-11
1.57735e-06
-4.8355e-12
1.57735e-06
9.33253e-12
-4.48882e-12
2.06263e-06
-3.2725e-13
-6.08437e-12
2.06263e-06
-3.92866e-14
1.19354e-11
2.35125e-13
-5.37778e-12
3.61363e-06
2.16299e-12
-1.74845e-11
3.61363e-06
-1.94622e-12
3.38705e-11
-3.40972e-13
-1.64097e-11
4.66301e-06
7.08848e-12
-3.09543e-11
4.66301e-06
-5.79012e-12
5.53115e-11
-1.28529e-12
-2.47857e-11
5.77709e-06
9.36441e-12
-1.86126e-11
5.77708e-06
-7.31107e-12
3.58081e-11
-1.96815e-12
-1.74876e-11
7.03385e-06
7.74716e-12
7.16888e-12
7.03385e-06
-5.91244e-12
-1.02686e-12
-1.69595e-12
-6.36951e-12
8.47602e-06
5.19167e-12
3.1362e-11
8.47602e-06
-4.3645e-12
-3.76292e-11
-6.44634e-13
6.11538e-12
1.01394e-05
3.20501e-12
5.07536e-11
1.01394e-05
-2.64584e-12
-6.8751e-11
-3.77127e-13
1.79864e-11
1.20622e-05
2.06872e-12
5.88288e-11
1.20622e-05
-1.91696e-12
-7.89331e-11
-6.95986e-16
2.02283e-11
1.42888e-05
1.06474e-12
6.75731e-11
1.42889e-05
-1.20152e-12
-9.02022e-11
2.51546e-13
2.27548e-11
1.6863e-05
2.96158e-13
6.99549e-11
1.6863e-05
-5.83095e-13
-9.09433e-11
3.69441e-13
2.1103e-11
1.983e-05
2.86808e-14
5.67155e-11
1.98301e-05
-4.92557e-13
-6.96355e-11
5.40814e-13
1.29427e-11
2.32394e-05
2.55803e-13
5.28952e-11
2.32395e-05
-9.82049e-13
-5.74272e-11
8.10961e-13
4.50708e-12
2.71413e-05
1.13744e-12
2.49289e-11
2.71413e-05
-2.41506e-12
9.23224e-12
1.36556e-12
-3.41784e-11
3.16079e-05
1.32352e-12
-7.19309e-11
3.16079e-05
-2.47838e-12
1.73326e-10
1.22817e-12
-1.01344e-10
3.67431e-05
3.11974e-14
-1.84182e-10
3.6743e-05
1.09995e-14
3.85362e-10
1.64088e-14
-2.01124e-10
3.67429e-05
-1.29554e-12
-1.8722e-10
3.67429e-05
2.51559e-12
3.86244e-10
-1.18064e-12
-1.98951e-10
3.16075e-05
-1.12091e-12
-7.23736e-11
3.16075e-05
2.44707e-12
1.73869e-10
-1.32412e-12
-1.01365e-10
2.71407e-05
-2.44229e-13
2.46764e-11
2.71407e-05
1.01209e-12
9.98242e-12
-7.86117e-13
-3.45891e-11
2.32385e-05
-1.91749e-14
5.24618e-11
2.32385e-05
5.25779e-13
-5.66916e-11
-5.29056e-13
4.24699e-12
1.98288e-05
-2.78327e-13
5.59686e-11
1.98289e-05
6.01209e-13
-6.83864e-11
-3.49205e-13
1.24286e-11
1.68618e-05
-1.04229e-12
6.90735e-11
1.68618e-05
1.2369e-12
-8.98531e-11
-2.30411e-13
2.08184e-11
1.42876e-05
-2.02976e-12
6.57238e-11
1.42876e-05
1.92507e-12
-8.96635e-11
6.10331e-14
2.39624e-11
1.2061e-05
-3.15863e-12
5.79582e-11
1.2061e-05
2.70609e-12
-7.79702e-11
4.03712e-13
2.00371e-11
1.01381e-05
-5.17069e-12
5.01579e-11
1.01381e-05
4.44751e-12
-6.81392e-11
6.79464e-13
1.7956e-11
8.47476e-06
-7.68695e-12
3.11129e-11
8.47476e-06
6.06646e-12
-3.70305e-11
1.60403e-12
5.81907e-12
7.03263e-06
-9.33631e-12
7.65499e-12
7.03263e-06
7.42843e-12
1.11261e-13
1.89326e-12
-7.79212e-12
5.776e-06
-7.08384e-12
-1.8576e-11
5.776e-06
5.82643e-12
3.65749e-11
1.24297e-12
-1.80283e-11
4.66215e-06
-2.1858e-12
-3.0854e-11
4.66215e-06
1.95979e-12
5.5657e-11
2.63318e-13
-2.49102e-11
3.61299e-06
2.63801e-13
-1.72706e-11
3.61299e-06
2.43389e-14
3.43113e-11
-2.83035e-13
-1.69461e-11
2.06227e-06
-6.37237e-12
2.06227e-06
1.20008e-11
-5.61515e-12
2.6498e-06
-6.07707e-13
-7.36744e-12
2.6498e-06
6.31772e-13
1.4197e-11
-1.62252e-13
-6.21811e-12
4.41419e-06
2.19276e-12
-1.79103e-11
4.41419e-06
-1.85422e-12
3.2186e-11
-4.61452e-13
-1.43147e-11
5.70344e-06
7.72568e-12
-3.3586e-11
5.70344e-06
-6.47457e-12
5.73255e-11
-1.23924e-12
-2.43027e-11
7.0733e-06
1.02974e-11
-1.94789e-11
7.0733e-06
-8.38563e-12
3.6996e-11
-1.81103e-12
-1.78981e-11
8.61569e-06
8.63397e-12
9.94726e-12
8.61569e-06
-6.72224e-12
-2.93385e-12
-1.74561e-12
-7.3063e-12
1.03835e-05
5.89552e-12
3.68788e-11
1.03835e-05
-4.6988e-12
-4.30843e-11
-9.80817e-13
6.00382e-12
1.24212e-05
3.58275e-12
5.89181e-11
1.24212e-05
-2.84351e-12
-7.87304e-11
-5.23498e-13
1.98015e-11
1.47759e-05
2.30337e-12
6.80966e-11
1.47759e-05
-2.05053e-12
-9.0693e-11
-7.34209e-14
2.27568e-11
1.75023e-05
1.16699e-12
7.76005e-11
1.75023e-05
-1.26749e-12
-1.03879e-10
2.37315e-13
2.64465e-11
2.06546e-05
2.99935e-13
8.15549e-11
2.06546e-05
-5.89799e-13
-1.07018e-10
3.88548e-13
2.56162e-11
2.4289e-05
1.28533e-14
6.94101e-11
2.4289e-05
-5.15056e-13
-8.65995e-11
5.94124e-13
1.72187e-11
2.84672e-05
2.48321e-13
6.87932e-11
2.84672e-05
-1.06672e-12
-7.83164e-11
9.19973e-13
9.4886e-12
3.32507e-05
1.18938e-12
4.27746e-11
3.32507e-05
-2.52852e-12
-1.29044e-11
1.44354e-12
-2.98903e-11
3.87271e-05
1.40588e-12
-6.33848e-11
3.87271e-05
-2.50726e-12
1.60484e-10
1.18883e-12
-9.70322e-11
4.50208e-05
3.46587e-14
-1.8351e-10
4.50208e-05
1.53919e-14
3.82412e-10
2.00293e-14
-1.98829e-10
4.50206e-05
-1.37386e-12
-1.87271e-10
4.50206e-05
2.55457e-12
3.83284e-10
-1.13361e-12
-1.95917e-10
3.87267e-05
-1.16812e-12
-6.38668e-11
3.87267e-05
2.56771e-12
1.61059e-10
-1.39647e-12
-9.70169e-11
3.32499e-05
-2.33856e-13
4.25221e-11
3.32499e-05
1.10302e-12
-1.21502e-11
-8.91276e-13
-3.0277e-11
2.8466e-05
-1.76287e-15
6.83345e-11
2.84661e-05
5.55644e-13
-7.7546e-11
-5.8072e-13
9.23345e-12
2.42875e-05
-2.7936e-13
6.86544e-11
2.42875e-05
6.10698e-13
-8.53213e-11
-3.63048e-13
1.66826e-11
2.06531e-05
-1.13809e-12
8.06745e-11
2.06532e-05
1.29309e-12
-1.05921e-10
-1.97609e-13
2.52961e-11
1.75008e-05
-2.25131e-12
7.61096e-11
1.75008e-05
2.05348e-12
-1.03231e-10
1.45923e-13
2.71529e-11
1.47744e-05
-3.52556e-12
6.72481e-11
1.47744e-05
2.90323e-12
-8.98229e-11
5.64444e-13
2.26059e-11
1.24197e-05
-5.86701e-12
5.84759e-11
1.24197e-05
4.78763e-12
-7.81647e-11
1.0277e-12
1.96573e-11
1.0382e-05
-8.558e-12
3.6598e-11
1.0382e-05
6.89909e-12
-4.26429e-11
1.63705e-12
5.91659e-12
8.61419e-06
-1.02536e-11
1.03252e-11
8.61419e-06
8.52028e-12
-1.99956e-12
1.71779e-12
-8.35783e-12
7.07197e-06
-7.68308e-12
-1.93514e-11
7.07197e-06
6.48155e-12
3.78671e-11
1.19186e-12
-1.85511e-11
5.70238e-06
-2.18232e-12
-3.33934e-11
5.70238e-06
1.8325e-12
5.75841e-11
3.81561e-13
-2.43394e-11
4.4134e-06
5.37081e-13
-1.77544e-11
4.4134e-06
-6.55451e-13
3.25083e-11
1.21852e-13
-1.46311e-11
2.64934e-06
-7.74026e-12
2.64934e-06
1.42725e-11
-6.51545e-12
3.36267e-06
-1.0333e-12
-8.09336e-12
3.36266e-06
1.6114e-12
1.54507e-11
-7.14862e-13
-6.60915e-12
5.35761e-06
2.04434e-12
-1.74125e-11
5.35762e-06
-1.38337e-12
2.84802e-11
-7.84885e-13
-1.11195e-11
6.92301e-06
8.42619e-12
-3.44078e-11
6.92302e-06
-7.2725e-12
5.66868e-11
-1.1326e-12
-2.29873e-11
8.59428e-06
1.14516e-11
-1.87818e-11
8.59429e-06
-9.88019e-12
3.56423e-11
-1.45098e-12
-1.73407e-11
1.04751e-05
9.73353e-12
1.3248e-11
1.04751e-05
-7.82784e-12
-6.04655e-12
-1.70922e-12
-7.57038e-12
1.26287e-05
6.80513e-12
4.16865e-11
1.26287e-05
-5.14999e-12
-4.74337e-11
-1.40248e-12
5.48938e-12
1.51093e-05
4.01891e-12
6.58453e-11
1.51093e-05
-3.03877e-12
-8.64426e-11
-7.28313e-13
2.05873e-11
1.79747e-05
2.56874e-12
7.58287e-11
1.79747e-05
-2.1612e-12
-1.00246e-10
-1.97161e-13
2.46189e-11
2.12918e-05
1.2714e-12
8.57659e-11
2.12918e-05
-1.29501e-12
-1.14911e-10
1.84551e-13
2.93634e-11
2.51271e-05
2.879e-13
9.14753e-11
2.51271e-05
-5.61724e-13
-1.20732e-10
3.90366e-13
2.94541e-11
2.95499e-05
-1.7718e-14
8.13853e-11
2.95499e-05
-5.14682e-13
-1.02742e-10
6.40861e-13
2.1394e-11
3.46364e-05
2.2732e-13
8.5326e-11
3.46364e-05
-1.12776e-12
-1.0036e-10
1.02068e-12
1.49872e-11
4.04614e-05
1.22189e-12
6.47384e-11
4.04614e-05
-2.6674e-12
-4.12127e-11
1.56833e-12
-2.35483e-11
4.71303e-05
1.47421e-12
-4.29011e-11
4.71303e-05
-2.63865e-12
1.30348e-10
1.26609e-12
-8.73588e-11
5.47915e-05
4.27385e-14
-1.66201e-10
5.47916e-05
1.5498e-14
3.49075e-10
2.43224e-14
-1.82781e-10
5.47913e-05
-1.43335e-12
-1.69973e-10
5.47913e-05
2.69197e-12
3.49855e-10
-1.20137e-12
-1.79761e-10
4.71297e-05
-1.19522e-12
-4.33987e-11
4.71298e-05
2.71354e-12
1.30931e-10
-1.51424e-12
-8.73039e-11
4.04604e-05
-2.09825e-13
6.454e-11
4.04604e-05
1.17093e-12
-4.05198e-11
-9.87478e-13
-2.38948e-11
3.46349e-05
3.03285e-14
8.48613e-11
3.46349e-05
5.63637e-13
-9.95921e-11
-6.25726e-13
1.47581e-11
2.9548e-05
-2.64046e-13
8.06722e-11
2.95481e-05
5.85062e-13
-1.01504e-10
-3.58776e-13
2.0853e-11
2.51253e-05
-1.23654e-12
9.06203e-11
2.51253e-05
1.31843e-12
-1.1968e-10
-1.32124e-13
2.91215e-11
2.12899e-05
-2.50269e-12
8.45704e-11
2.12899e-05
2.16971e-12
-1.14183e-10
2.72099e-13
2.96548e-11
1.79729e-05
-3.9505e-12
7.50381e-11
1.79729e-05
3.10284e-12
-9.95045e-11
7.80212e-13
2.45042e-11
1.51075e-05
-6.77075e-12
6.55712e-11
1.51075e-05
5.24327e-12
-8.59324e-11
1.46647e-12
2.03233e-11
1.26268e-05
-9.71963e-12
4.14702e-11
1.26268e-05
8.01229e-12
-4.71764e-11
1.67976e-12
5.54452e-12
1.04732e-05
-1.14648e-11
1.36014e-11
1.04732e-05
1.00289e-11
-5.34603e-12
1.41666e-12
-8.29597e-12
8.59267e-06
-8.43114e-12
-1.85986e-11
8.59268e-06
7.33098e-12
3.65225e-11
1.0896e-12
-1.79679e-11
6.92173e-06
-2.06967e-12
-3.41853e-11
6.92173e-06
1.37966e-12
5.68915e-11
7.20765e-13
-2.28962e-11
5.35664e-06
9.5247e-13
-1.73106e-11
5.35665e-06
-1.63201e-12
2.86466e-11
6.8044e-13
-1.11834e-11
3.36209e-06
-8.59861e-12
3.36208e-06
1.55309e-11
-6.9146e-12
4.2244e-06
-1.57465e-12
-7.88912e-12
4.2244e-06
2.64382e-12
1.5014e-11
-1.20245e-12
-6.24335e-12
6.48011e-06
1.71463e-12
-1.65309e-11
6.48011e-06
-3.90295e-13
2.48881e-11
-1.44049e-12
-8.4261e-12
8.36121e-06
9.22562e-12
-3.35658e-11
8.36122e-06
-8.16543e-12
5.41847e-11
-1.02529e-12
-2.14783e-11
1.03868e-05
1.29528e-11
-1.61803e-11
1.03868e-05
-1.18094e-11
3.14847e-11
-9.99769e-13
-1.58934e-11
1.2669e-05
1.1327e-11
1.73924e-11
1.2669e-05
-9.29047e-12
-1.09571e-11
-1.80355e-12
-6.89359e-12
1.52811e-05
8.08851e-12
4.58686e-11
1.52811e-05
-5.81702e-12
-5.07994e-11
-1.98615e-12
4.62061e-12
1.82881e-05
4.54854e-12
7.13409e-11
1.82881e-05
-3.25909e-12
-9.14598e-11
-1.0001e-12
2.01048e-11
2.17597e-05
2.8913e-12
8.13107e-11
2.17598e-05
-2.24321e-12
-1.06886e-10
-4.03978e-13
2.58224e-11
2.57775e-05
1.38962e-12
9.09616e-11
2.57775e-05
-1.2721e-12
-1.22302e-10
6.93199e-14
3.16155e-11
3.04229e-05
2.56825e-13
9.84798e-11
3.04229e-05
-4.85982e-13
-1.30712e-10
3.65308e-13
3.248e-11
3.57805e-05
-6.5563e-14
9.12434e-11
3.57805e-05
-4.86498e-13
-1.16308e-10
6.78554e-13
2.51115e-11
4.1944e-05
1.854e-13
1.00622e-10
4.19441e-05
-1.14704e-12
-1.20961e-10
1.10236e-12
2.02785e-11
4.90041e-05
1.22124e-12
8.83958e-11
4.90042e-05
-2.74121e-12
-7.22567e-11
1.66262e-12
-1.61637e-11
5.70866e-05
1.51442e-12
-1.1958e-11
5.70867e-05
-2.69107e-12
8.8554e-11
1.294e-12
-7.64823e-11
6.63681e-05
5.07849e-14
-1.31707e-10
6.63681e-05
1.62505e-14
2.91555e-10
2.93302e-14
-1.59735e-10
6.63678e-05
-1.46416e-12
-1.34941e-10
6.63678e-05
2.7507e-12
2.92314e-10
-1.2184e-12
-1.57224e-10
5.70859e-05
-1.18834e-12
-1.24631e-11
5.70859e-05
2.79401e-12
8.91516e-11
-1.60011e-12
-7.63977e-11
4.90029e-05
-1.64778e-13
8.82594e-11
4.90029e-05
1.19731e-12
-7.16207e-11
-1.0636e-12
-1.64767e-11
4.19422e-05
7.96605e-14
1.00168e-10
4.19422e-05
5.44666e-13
-1.2022e-10
-6.61529e-13
2.00861e-11
3.57782e-05
-2.29064e-13
9.06287e-11
3.57782e-05
5.11704e-13
-1.15173e-10
-3.27189e-13
2.45729e-11
3.04207e-05
-1.35046e-12
9.76665e-11
3.04207e-05
1.30278e-12
-1.2974e-10
-1.08118e-14
3.21497e-11
2.57752e-05
-2.80793e-12
9.00009e-11
2.57752e-05
2.26881e-12
-1.21537e-10
4.68105e-13
3.15914e-11
2.17575e-05
-4.46969e-12
8.06231e-11
2.17575e-05
3.33379e-12
-1.06276e-10
1.05884e-12
2.56972e-11
1.82858e-05
-8.05389e-12
7.12353e-11
1.82858e-05
5.9207e-12
-9.10225e-11
2.06879e-12
1.97367e-11
1.52788e-05
-1.13537e-11
4.57929e-11
1.52788e-05
9.48221e-12
-5.07366e-11
1.83311e-12
4.75601e-12
1.26668e-05
-1.30048e-11
1.77926e-11
1.26668e-05
1.19783e-11
-1.0499e-11
1.00299e-12
-7.34906e-12
1.03848e-05
-9.26914e-12
-1.59555e-11
1.03848e-05
8.25613e-12
3.2305e-11
9.99316e-13
-1.64034e-11
8.35965e-06
-1.76059e-12
-3.3295e-11
8.35966e-06
3.93764e-13
5.44122e-11
1.3955e-12
-2.13495e-11
6.47893e-06
1.50794e-12
-1.63752e-11
6.47893e-06
-2.67353e-12
2.49347e-11
1.16968e-12
-8.3823e-12
4.22367e-06
-8.50408e-12
4.22367e-06
1.50786e-11
-6.55277e-12
5.26118e-06
-2.2215e-12
-6.97824e-12
5.26118e-06
3.51678e-12
1.39528e-11
-1.41583e-12
-5.97253e-12
7.82519e-06
1.11663e-12
-1.62724e-11
7.82519e-06
9.2178e-13
2.35441e-11
-2.13699e-12
-7.36255e-12
1.00644e-05
1.0008e-11
-3.16063e-11
1.00644e-05
-8.83678e-12
5.06115e-11
-1.1149e-12
-2.00194e-11
1.25048e-05
1.47148e-11
-1.15141e-11
1.25048e-05
-1.39469e-11
2.49747e-11
-5.96057e-13
-1.41649e-11
1.52629e-05
1.28481e-11
2.31554e-11
1.52629e-05
-1.11908e-11
-1.79601e-11
-1.39199e-12
-5.74719e-12
1.84204e-05
9.17296e-12
4.94828e-11
1.84204e-05
-6.88112e-12
-5.3544e-11
-1.96227e-12
3.68671e-12
2.20537e-05
5.23469e-12
7.47963e-11
2.20537e-05
-3.62094e-12
-9.37124e-11
-1.28781e-12
1.89057e-11
2.62467e-05
3.34028e-12
8.41219e-11
2.62467e-05
-2.34001e-12
-1.10168e-10
-7.16387e-13
2.63347e-11
3.10976e-05
1.55849e-12
9.26196e-11
3.10976e-05
-1.21121e-12
-1.25352e-10
-1.39613e-13
3.3084e-11
3.67058e-05
2.04877e-13
1.01439e-10
3.67058e-05
-3.46022e-13
-1.35655e-10
2.96969e-13
3.4516e-11
4.31742e-05
-1.30847e-13
9.70572e-11
4.31742e-05
-4.28191e-13
-1.25726e-10
7.04704e-13
2.87262e-11
5.06177e-05
1.17489e-13
1.1239e-10
5.06177e-05
-1.11066e-12
-1.37357e-10
1.15599e-12
2.48894e-11
5.91453e-05
1.18139e-12
1.10901e-10
5.91453e-05
-2.75993e-12
-1.02082e-10
1.74221e-12
-8.8443e-12
6.89068e-05
1.51791e-12
2.52237e-11
6.89069e-05
-2.66986e-12
4.16877e-11
1.28609e-12
-6.67681e-11
8.01119e-05
5.91691e-14
-8.14354e-11
8.01119e-05
1.74709e-14
2.19903e-10
3.47313e-14
-1.38331e-10
8.01115e-05
-1.45838e-12
-8.43213e-11
8.01115e-05
2.73546e-12
2.20807e-10
-1.1973e-12
-1.36304e-10
6.89059e-05
-1.1415e-12
2.47285e-11
6.89059e-05
2.81897e-12
4.23e-11
-1.67004e-12
-6.66654e-11
5.91437e-05
-9.38001e-14
1.10821e-10
5.91437e-05
1.16802e-12
-1.01482e-10
-1.11044e-12
-9.13413e-12
5.06154e-05
1.46354e-13
1.11956e-10
5.06154e-05
4.96218e-13
-1.36645e-10
-6.85614e-13
2.47289e-11
4.31714e-05
-1.7265e-13
9.66127e-11
4.31714e-05
3.74213e-13
-1.24753e-10
-2.52175e-13
2.81767e-11
3.67031e-05
-1.51695e-12
1.00665e-10
3.67031e-05
1.25786e-12
-1.34779e-10
1.97704e-13
3.42007e-11
3.10948e-05
-3.22673e-12
9.18165e-11
3.10948e-05
2.38967e-12
-1.24566e-10
7.52052e-13
3.28284e-11
2.6244e-05
-5.1476e-12
8.35729e-11
2.6244e-05
3.70342e-12
-1.09647e-10
1.36081e-12
2.61159e-11
2.2051e-05
-9.18274e-12
7.48876e-11
2.2051e-05
6.99186e-12
-9.33522e-11
2.11306e-12
1.84085e-11
1.84176e-05
-1.29304e-11
4.9563e-11
1.84176e-05
1.13951e-11
-5.36594e-11
1.4911e-12
3.87509e-12
1.52603e-05
-1.47941e-11
2.36342e-11
1.52603e-05
1.41345e-11
-1.77344e-11
6.29835e-13
-5.96964e-12
1.25024e-05
-1.0075e-11
-1.12184e-11
1.25024e-05
8.94747e-12
2.57067e-11
1.10802e-12
-1.45524e-11
1.00625e-05
-1.1617e-12
-3.12391e-11
1.00625e-05
-9.14836e-13
5.09175e-11
2.10255e-12
-1.99562e-11
7.82376e-06
2.18025e-12
-1.60725e-11
7.82376e-06
-3.56314e-12
2.35882e-11
1.39078e-12
-7.32035e-12
5.26027e-06
-7.66741e-12
5.26026e-06
1.39877e-11
-6.29061e-12
6.50471e-06
-3.00907e-12
-5.59638e-12
6.50471e-06
4.61691e-12
1.25586e-11
-1.68371e-12
-5.88428e-12
9.44161e-06
1.07929e-13
-1.67422e-11
9.44161e-06
2.73263e-12
2.3496e-11
-2.8928e-12
-6.86822e-12
1.20878e-05
1.0648e-11
-2.93277e-11
1.20879e-05
-9.08229e-12
4.69967e-11