/*--------------------------------*- C++ -*----------------------------------*\
  =========                 |
  \\      /  F ield         | OpenFOAM: The Open Source CFD Toolbox
   \\    /   O peration     | Website:  https://openfoam.org
    \\  /    A nd           | Version:  6
     \\/     M anipulation  |
\*---------------------------------------------------------------------------*/
FoamFile
{
    version     2.0;
    format      ascii;
    class       volVectorField;
    location    "40";
    object      U;
}
// * * * * * * * * * * * * * * * * * * * * * * * * * * * * * * * * * * * * * //

dimensions      [0 1 -1 0 0 0 0];

internalField   nonuniform List<vector> 
2160
(
(0.0213686 -1.86574e-09 -1.33207e-10)
(0.0213686 -2.26789e-09 3.20705e-10)
(0.0213685 4.02834e-09 -2.51114e-10)
(0.0563545 6.35674e-10 -7.09095e-10)
(0.056353 -4.51787e-09 3.4743e-09)
(0.0563527 3.43371e-09 -2.75167e-09)
(0.0656732 2.40932e-08 -1.22194e-09)
(0.0656719 -2.48169e-08 3.8123e-09)
(0.0656716 6.09106e-10 -2.58219e-09)
(0.0730769 4.98834e-08 -6.62991e-10)
(0.0730761 -5.59404e-08 2.28015e-09)
(0.0730758 6.22123e-09 -1.61253e-09)
(0.0793913 4.53685e-08 2.23194e-12)
(0.0793911 -4.7438e-08 3.82065e-10)
(0.0793911 2.33914e-09 -3.91011e-10)
(0.0849314 3.47256e-08 6.32598e-10)
(0.0849316 -3.99992e-08 -1.01227e-09)
(0.0849319 5.78001e-09 3.75841e-10)
(0.0898599 2.30179e-08 1.14121e-09)
(0.0898602 -2.42644e-08 -1.77906e-09)
(0.0898608 1.80766e-09 6.31697e-10)
(0.0943085 1.45957e-08 1.16624e-09)
(0.0943088 -1.63977e-08 -1.8169e-09)
(0.0943096 2.29183e-09 6.49682e-10)
(0.0984158 9.13354e-09 1.16208e-09)
(0.0984161 -1.19147e-08 -1.71764e-09)
(0.0984169 3.1853e-09 5.56814e-10)
(0.10224 2.86338e-09 9.34089e-10)
(0.10224 -5.41095e-09 -1.2052e-09)
(0.102241 2.81977e-09 2.73507e-10)
(0.105804 2.52667e-10 4.72253e-10)
(0.105804 -2.80979e-09 -5.02324e-10)
(0.105804 2.79207e-09 3.00681e-11)
(0.109105 -8.12619e-10 2.33148e-10)
(0.109105 -3.32409e-09 -2.05204e-10)
(0.109105 4.36929e-09 -3.33738e-11)
(0.112014 2.18946e-09 8.65762e-12)
(0.112013 -1.0796e-08 5.40814e-11)
(0.112013 8.87871e-09 -6.36662e-11)
(0.114461 8.87682e-09 3.64864e-10)
(0.11446 -2.22642e-08 -5.34395e-10)
(0.114459 1.36812e-08 1.40258e-10)
(0.115781 4.80069e-09 1.60462e-09)
(0.11578 -1.05276e-08 -1.83649e-09)
(0.115778 5.93031e-09 1.70872e-10)
(0.11578 -4.536e-09 1.61509e-09)
(0.115779 1.05276e-08 -1.83715e-09)
(0.115777 -5.82467e-09 1.60507e-10)
(0.114453 -8.93025e-09 3.64222e-10)
(0.114453 2.24336e-08 -5.3197e-10)
(0.114452 -1.34568e-08 1.39134e-10)
(0.112003 -2.18032e-09 8.92052e-12)
(0.112002 1.09098e-08 5.61714e-11)
(0.112002 -8.78546e-09 -6.50235e-11)
(0.109091 7.78014e-10 2.32121e-10)
(0.109091 3.50167e-09 -1.99809e-10)
(0.109092 -4.33082e-09 -3.78073e-11)
(0.105788 -1.91591e-10 4.59441e-10)
(0.105788 2.8136e-09 -4.82708e-10)
(0.105788 -2.69184e-09 2.21438e-11)
(0.102225 -2.74704e-09 9.13583e-10)
(0.102225 5.5099e-09 -1.18394e-09)
(0.102226 -2.83209e-09 2.72788e-10)
(0.0983999 -9.14769e-09 1.1162e-09)
(0.0984002 1.22029e-08 -1.67702e-09)
(0.098401 -3.16808e-09 5.61179e-10)
(0.0942916 -1.44598e-08 1.15055e-09)
(0.0942919 1.62974e-08 -1.75558e-09)
(0.0942927 -1.96411e-09 6.04252e-10)
(0.0898412 -2.28525e-08 1.12574e-09)
(0.0898415 2.45998e-08 -1.71914e-09)
(0.0898421 -1.86782e-09 5.87786e-10)
(0.08491 -3.48759e-08 6.54448e-10)
(0.0849101 3.98247e-08 -9.64617e-10)
(0.0849105 -5.06279e-09 3.06633e-10)
(0.0793681 -4.56972e-08 1.71812e-10)
(0.0793677 4.58854e-08 4.99747e-10)
(0.0793677 -1.3318e-10 -6.73213e-10)
(0.073054 -4.98677e-08 -6.74008e-10)
(0.0730532 5.63484e-08 2.31411e-09)
(0.0730529 -6.54406e-09 -1.63452e-09)
(0.0656532 -2.41406e-08 -1.22585e-09)
(0.065652 2.52449e-08 3.86216e-09)
(0.0656516 -1.0349e-09 -2.62616e-09)
(0.0563371 -9.30052e-10 -7.11455e-10)
(0.0563356 4.74157e-09 3.53072e-09)
(0.0563353 -3.66388e-09 -2.80857e-09)
(0.0213635 1.82533e-09 -6.70084e-11)
(0.0213635 2.28419e-09 3.21477e-10)
(0.0213634 -4.16304e-09 -2.54964e-10)
(0.0569105 -2.82751e-09 -5.33294e-10)
(0.0569104 -4.1333e-09 1.37047e-09)
(0.0569103 6.51661e-09 -8.29993e-10)
(0.123048 1.87606e-09 -3.48247e-09)
(0.123047 -8.37503e-09 1.00438e-08)
(0.123046 5.39326e-09 -6.54129e-09)
(0.137354 3.57486e-08 -4.69004e-09)
(0.137353 -3.39374e-08 1.13552e-08)
(0.137353 -2.13071e-09 -6.67153e-09)
(0.14811 7.26394e-08 -2.55324e-09)
(0.14811 -7.49924e-08 6.49075e-09)
(0.148109 2.6467e-09 -3.94438e-09)
(0.156847 6.528e-08 2.08954e-10)
(0.156847 -5.64563e-08 7.42108e-10)
(0.156847 -8.30819e-09 -9.69258e-10)
(0.164169 4.90069e-08 2.34286e-09)
(0.16417 -5.14472e-08 -3.31344e-09)
(0.16417 3.37444e-09 9.60262e-10)
(0.170364 3.1731e-08 3.8961e-09)
(0.170364 -3.07209e-08 -5.69598e-09)
(0.170365 -4.65913e-12 1.78928e-09)
(0.175626 2.00278e-08 4.14973e-09)
(0.175626 -2.05849e-08 -5.96982e-09)
(0.175627 1.41953e-09 1.82024e-09)
(0.180119 1.26932e-08 4.32533e-09)
(0.18012 -1.52513e-08 -6.03099e-09)
(0.18012 3.27401e-09 1.70415e-09)
(0.183882 4.17096e-09 3.88126e-09)
(0.183882 -7.16164e-09 -4.81861e-09)
(0.183882 3.43815e-09 9.38124e-10)
(0.186906 5.70441e-10 2.35552e-09)
(0.186906 -3.73922e-09 -2.40156e-09)
(0.186906 3.55395e-09 4.5462e-11)
(0.189184 -4.5391e-10 1.7502e-09)
(0.189184 -4.5038e-09 -1.22477e-09)
(0.189184 5.36896e-09 -5.27049e-10)
(0.190698 3.81984e-09 -1.04365e-10)
(0.190698 -1.28835e-08 2.22332e-09)
(0.190698 9.52784e-09 -2.12225e-09)
(0.191586 1.31303e-08 -3.85633e-09)
(0.191585 -2.93695e-08 6.91176e-09)
(0.191585 1.66951e-08 -3.06346e-09)
(0.192058 6.87418e-09 -8.13958e-09)
(0.192056 -1.36572e-08 1.46967e-08)
(0.192056 7.08711e-09 -6.57242e-09)
(0.192057 -6.49563e-09 -8.21583e-09)
(0.192056 1.37161e-08 1.47062e-08)
(0.192055 -6.91515e-09 -6.50556e-09)
(0.191584 -1.31399e-08 -3.87064e-09)
(0.191583 2.96055e-08 6.92233e-09)
(0.191583 -1.63518e-08 -3.05883e-09)
(0.190694 -3.77225e-09 -1.14676e-10)
(0.190693 1.30271e-08 2.24468e-09)
(0.190693 -9.34547e-09 -2.13178e-09)
(0.189176 4.52021e-10 1.7271e-09)
(0.189175 4.7226e-09 -1.19071e-09)
(0.189176 -5.266e-09 -5.37949e-10)
(0.186894 -4.84415e-10 2.303e-09)
(0.186894 3.82797e-09 -2.32518e-09)
(0.186894 -3.47404e-09 2.04482e-11)
(0.183868 -4.04574e-09 3.79999e-09)
(0.183868 7.34386e-09 -4.71742e-09)
(0.183868 -3.43743e-09 9.17432e-10)
(0.180103 -1.26902e-08 4.1757e-09)
(0.180103 1.57482e-08 -5.93803e-09)
(0.180104 -3.26842e-09 1.75787e-09)
(0.175606 -1.97888e-08 4.03985e-09)
(0.175607 2.06509e-08 -5.82166e-09)
(0.175607 -1.10789e-09 1.77847e-09)
(0.17034 -3.15248e-08 3.84934e-09)
(0.170341 3.12821e-08 -5.53131e-09)
(0.170341 3.6445e-12 1.67272e-09)
(0.164141 -4.9127e-08 2.35696e-09)
(0.164141 5.13385e-08 -3.15538e-09)
(0.164142 -2.43607e-09 7.8991e-10)
(0.156815 -6.56922e-08 5.02762e-10)
(0.156815 5.65576e-08 1.07826e-09)
(0.156815 9.20569e-09 -1.58507e-09)
(0.148077 -7.28086e-08 -2.59121e-09)
(0.148077 7.57331e-08 6.60148e-09)
(0.148076 -3.0668e-09 -4.00473e-09)
(0.137324 -3.59412e-08 -4.70082e-09)
(0.137323 3.45422e-08 1.14881e-08)
(0.137323 1.5039e-09 -6.77506e-09)
(0.123022 -2.57594e-09 -3.49888e-09)
(0.123021 8.62652e-09 1.02032e-08)
(0.123021 -5.77934e-09 -6.68442e-09)
(0.056898 2.5943e-09 -5.40641e-10)
(0.056898 4.08121e-09 1.3909e-09)
(0.0568979 -6.79518e-09 -8.51098e-10)
(0.082983 -2.85115e-09 -1.31969e-09)
(0.0829829 -3.8272e-09 2.90533e-09)
(0.0829828 6.01899e-09 -1.54179e-09)
(0.155793 2.4077e-09 -6.39481e-09)
(0.155793 -9.59219e-09 1.61389e-08)
(0.155792 5.84095e-09 -9.73179e-09)
(0.172448 3.73027e-08 -8.36044e-09)
(0.172447 -3.37398e-08 1.85394e-08)
(0.172447 -3.9542e-09 -1.02228e-08)
(0.184458 7.53352e-08 -4.57046e-09)
(0.184458 -7.3932e-08 1.0328e-08)
(0.184457 -1.04545e-09 -5.79085e-09)
(0.194104 6.95166e-08 5.25116e-10)
(0.194104 -5.38107e-08 8.12987e-10)
(0.194104 -1.50725e-08 -1.36962e-09)
(0.20214 5.06016e-08 4.32206e-09)
(0.20214 -5.03808e-08 -5.77559e-09)
(0.202141 9.0081e-10 1.43832e-09)
(0.208909 3.25377e-08 6.74704e-09)
(0.208909 -2.98559e-08 -9.54153e-09)
(0.20891 -1.47944e-09 2.78571e-09)
(0.214636 2.05415e-08 6.94374e-09)
(0.214636 -1.99778e-08 -9.7087e-09)
(0.214637 4.66992e-10 2.77281e-09)
(0.219502 1.31305e-08 7.10207e-09)
(0.219502 -1.48985e-08 -9.61097e-09)
(0.219503 2.62545e-09 2.51115e-09)
(0.223549 4.4015e-09 6.16004e-09)
(0.223549 -7.1957e-09 -7.77812e-09)
(0.223549 3.32712e-09 1.62125e-09)
(0.226765 7.19643e-10 3.7957e-09)
(0.226765 -3.88862e-09 -4.11576e-09)
(0.226765 3.62798e-09 3.20311e-10)
(0.229137 -3.5773e-10 2.61987e-09)
(0.229137 -4.58883e-09 -2.10954e-09)
(0.229138 5.44278e-09 -5.11422e-10)
(0.230651 4.51007e-09 1.43742e-11)
(0.230651 -1.29591e-08 3.12832e-09)
(0.230651 9.0044e-09 -3.1452e-09)
(0.231465 1.41926e-08 -5.14045e-09)
(0.231464 -3.00457e-08 1.08558e-08)
(0.231464 1.63917e-08 -5.70429e-09)
(0.231912 7.35398e-09 -1.04402e-08)
(0.23191 -1.38704e-08 2.09017e-08)
(0.231909 6.87413e-09 -1.04385e-08)
(0.231911 -6.93999e-09 -1.05428e-08)
(0.23191 1.39751e-08 2.09272e-08)
(0.231909 -6.66726e-09 -1.03608e-08)
(0.231463 -1.41621e-08 -5.16261e-09)
(0.231462 3.03071e-08 1.08799e-08)
(0.231462 -1.60041e-08 -5.70346e-09)
(0.230646 -4.44035e-09 -2.47762e-14)
(0.230646 1.31184e-08 3.16786e-09)
(0.230646 -8.78562e-09 -3.16642e-09)
(0.229129 3.86013e-10 2.58753e-09)
(0.229129 4.80588e-09 -2.05175e-09)
(0.229129 -5.30421e-09 -5.3539e-10)
(0.226751 -6.21652e-10 3.71572e-09)
(0.226751 4.01463e-09 -3.99095e-09)
(0.226752 -3.55152e-09 2.73902e-10)
(0.223533 -4.27422e-09 6.03898e-09)
(0.223534 7.41024e-09 -7.63429e-09)
(0.223534 -3.30615e-09 1.59534e-09)
(0.219483 -1.30891e-08 6.86196e-09)
(0.219484 1.54298e-08 -9.48829e-09)
(0.219484 -2.59439e-09 2.62219e-09)
(0.214614 -2.02463e-08 6.80019e-09)
(0.214614 2.00551e-08 -9.49968e-09)
(0.214615 -1.07047e-10 2.69827e-09)
(0.208883 -3.23202e-08 6.6384e-09)
(0.208883 3.06128e-08 -9.32427e-09)
(0.208884 1.41644e-09 2.67828e-09)
(0.202109 -5.0702e-08 4.31917e-09)
(0.202109 5.0553e-08 -5.55924e-09)
(0.202109 -1.2247e-10 1.22866e-09)
(0.194068 -6.94916e-08 9.10094e-10)
(0.194068 5.45621e-08 1.31164e-09)
(0.194068 1.49977e-08 -2.22777e-09)
(0.184421 -7.55953e-08 -4.62623e-09)
(0.184421 7.47149e-08 1.05175e-08)
(0.184421 7.0743e-10 -5.89324e-09)
(0.172414 -3.74833e-08 -8.37261e-09)
(0.172414 3.43174e-08 1.87376e-08)
(0.172413 3.28204e-09 -1.03622e-08)
(0.155765 -3.22386e-09 -6.40699e-09)
(0.155764 9.82042e-09 1.63866e-08)
(0.155763 -6.28397e-09 -9.95918e-09)
(0.0829664 2.51273e-09 -1.34374e-09)
(0.0829664 3.69121e-09 2.93045e-09)
(0.0829662 -6.35213e-09 -1.58531e-09)
(0.102541 -2.98289e-09 -2.26575e-09)
(0.102541 -2.22522e-09 4.77727e-09)
(0.10254 4.43506e-09 -2.36216e-09)
(0.175435 2.43767e-09 -9.02311e-09)
(0.175435 -9.66496e-09 2.07977e-08)
(0.175434 5.82262e-09 -1.17737e-08)
(0.194258 3.68683e-08 -1.21932e-08)
(0.194258 -3.19686e-08 2.51513e-08)
(0.194257 -5.30167e-09 -1.30535e-08)
(0.207336 7.3944e-08 -6.57455e-09)
(0.207336 -6.93812e-08 1.39275e-08)
(0.207336 -4.15901e-09 -7.41931e-09)
(0.217726 7.08492e-08 1.085e-09)
(0.217726 -5.05878e-08 6.89061e-10)
(0.217726 -1.95555e-08 -1.82349e-09)
(0.226342 4.95819e-08 6.62938e-09)
(0.226343 -4.72113e-08 -8.55241e-09)
(0.226343 -1.14353e-09 1.89938e-09)
(0.233583 3.17412e-08 9.877e-09)
(0.233583 -2.79316e-08 -1.37729e-08)
(0.233584 -2.49412e-09 3.89053e-09)
(0.239703 2.00166e-08 1.00422e-08)
(0.239703 -1.86125e-08 -1.381e-08)
(0.239704 -2.74452e-10 3.78476e-09)
(0.244905 1.28557e-08 1.00857e-08)
(0.244905 -1.39672e-08 -1.35755e-08)
(0.244906 2.05161e-09 3.50109e-09)
(0.249239 4.31877e-09 8.79322e-09)
(0.249239 -6.79549e-09 -1.11904e-08)
(0.249239 3.06363e-09 2.40622e-09)
(0.252696 7.50854e-10 5.52302e-09)
(0.252696 -3.79873e-09 -6.31513e-09)
(0.252697 3.553e-09 7.9396e-10)
(0.255269 -2.62713e-10 3.87866e-09)
(0.255269 -4.55144e-09 -3.51953e-09)
(0.255269 5.35951e-09 -3.60272e-10)
(0.256935 4.99303e-09 4.42738e-10)
(0.256935 -1.27725e-08 3.75606e-09)
(0.256935 8.3896e-09 -4.20124e-09)
(0.257858 1.41202e-08 -6.77527e-09)
(0.257857 -2.88558e-08 1.53396e-08)
(0.257857 1.53254e-08 -8.55608e-09)
(0.258355 7.29163e-09 -1.37221e-08)
(0.258354 -1.32504e-08 2.87352e-08)
(0.258353 6.35025e-09 -1.50015e-08)
(0.258354 -6.86776e-09 -1.38647e-08)
(0.258353 1.33914e-08 2.87818e-08)
(0.258352 -6.12003e-09 -1.49046e-08)
(0.257856 -1.40588e-08 -6.80742e-09)
(0.257855 2.91335e-08 1.53798e-08)
(0.257855 -1.49195e-08 -8.56e-09)
(0.25693 -4.9046e-09 4.24948e-10)
(0.25693 1.29442e-08 3.82002e-09)
(0.25693 -8.15892e-09 -4.24211e-09)
(0.255259 3.06605e-10 3.83111e-09)
(0.255259 4.78474e-09 -3.43807e-09)
(0.25526 -5.21483e-09 -3.9195e-10)
(0.252682 -6.46877e-10 5.41684e-09)
(0.252682 3.94754e-09 -6.1451e-09)
(0.252682 -3.47423e-09 7.28062e-10)
(0.249222 -4.18934e-09 8.6372e-09)
(0.249222 7.02173e-09 -1.10029e-08)
(0.249223 -3.0195e-09 2.36873e-09)
(0.244885 -1.27655e-08 9.72237e-09)
(0.244885 1.4462e-08 -1.3461e-08)
(0.244886 -1.9743e-09 3.73936e-09)
(0.239679 -1.96827e-08 9.81226e-09)
(0.239679 1.86869e-08 -1.35412e-08)
(0.23968 6.68803e-10 3.73214e-09)
(0.233555 -3.1503e-08 9.72443e-09)
(0.233555 2.87725e-08 -1.35428e-08)
(0.233555 2.41082e-09 3.81274e-09)
(0.226308 -4.96731e-08 6.5931e-09)
(0.226309 4.76486e-08 -8.28263e-09)
(0.226309 1.72819e-09 1.67322e-09)
(0.217687 -7.04115e-08 1.4525e-09)
(0.217687 5.16759e-08 1.27979e-09)
(0.217687 1.87962e-08 -2.74039e-09)
(0.207297 -7.42629e-08 -6.62922e-09)
(0.207296 7.01116e-08 1.41949e-08)
(0.207296 3.96209e-09 -7.57607e-09)
(0.194222 -3.69373e-08 -1.22056e-08)
(0.194221 3.24405e-08 2.53985e-08)
(0.194221 4.61361e-09 -1.32053e-08)
(0.175404 -3.25229e-09 -8.99808e-09)
(0.175403 9.87252e-09 2.11084e-08)
(0.175403 -6.29698e-09 -1.20854e-08)
(0.102522 2.60478e-09 -2.36397e-09)
(0.102522 2.0183e-09 4.80591e-09)
(0.102521 -4.77653e-09 -2.43797e-09)
(0.118408 -3.47472e-09 -3.40614e-09)
(0.118408 3.0252e-10 6.91475e-09)
(0.118408 2.36187e-09 -3.26337e-09)
(0.189268 1.97471e-09 -1.11932e-08)
(0.189268 -8.68465e-09 2.39439e-08)
(0.189268 5.32623e-09 -1.27597e-08)
(0.210059 3.61563e-08 -1.56708e-08)
(0.210058 -2.98042e-08 3.06851e-08)
(0.210058 -6.73333e-09 -1.51775e-08)
(0.224167 7.17831e-08 -8.4554e-09)
(0.224167 -6.40249e-08 1.70256e-08)
(0.224167 -7.31584e-09 -8.67777e-09)
(0.235252 7.04588e-08 1.86157e-09)
(0.235252 -4.84221e-08 3.40742e-10)
(0.235252 -2.12813e-08 -2.2738e-09)
(0.244398 4.79638e-08 9.16743e-09)
(0.244399 -4.35568e-08 -1.14735e-08)
(0.244399 -3.11595e-09 2.27023e-09)
(0.252063 3.05442e-08 1.32007e-08)
(0.252064 -2.59691e-08 -1.81796e-08)
(0.252064 -3.18982e-09 4.97536e-09)
(0.258534 1.92051e-08 1.32871e-08)
(0.258534 -1.71723e-08 -1.80535e-08)
(0.258535 -8.40211e-10 4.79181e-09)
(0.264036 1.23604e-08 1.32832e-08)
(0.264036 -1.30026e-08 -1.77286e-08)
(0.264037 1.6351e-09 4.46598e-09)
(0.268627 4.0943e-09 1.16145e-08)
(0.268627 -6.27398e-09 -1.49168e-08)
(0.268627 2.80282e-09 3.3184e-09)
(0.272304 6.93404e-10 7.61619e-09)
(0.272305 -3.56402e-09 -9.01597e-09)
(0.272305 3.40669e-09 1.40246e-09)
(0.275064 -2.16287e-10 5.5723e-09)
(0.275064 -4.44131e-09 -5.51927e-09)
(0.275064 5.23576e-09 -5.58203e-11)
(0.276877 5.583e-09 1.1104e-09)
(0.276876 -1.27371e-08 3.71193e-09)
(0.276877 7.79816e-09 -4.81843e-09)
(0.277902 1.34762e-08 -8.25593e-09)
(0.277902 -2.67893e-08 1.94406e-08)
(0.277902 1.39358e-08 -1.11818e-08)
(0.278449 6.97509e-09 -1.69811e-08)
(0.278449 -1.22533e-08 3.59678e-08)
(0.278448 5.69104e-09 -1.89842e-08)
(0.278448 -6.55443e-09 -1.71821e-08)
(0.278448 1.24258e-08 3.60327e-08)
(0.278447 -5.44334e-09 -1.88469e-08)
(0.2779 -1.33912e-08 -8.29833e-09)
(0.277899 2.70811e-08 1.9495e-08)
(0.277899 -1.35248e-08 -1.11875e-08)
(0.276871 -5.47524e-09 1.08203e-09)
(0.276871 1.29187e-08 3.80117e-09)
(0.276871 -7.56651e-09 -4.87099e-09)
(0.275053 2.69183e-10 5.5136e-09)
(0.275053 4.68935e-09 -5.41543e-09)
(0.275054 -5.08983e-09 -9.70229e-11)
(0.272288 -5.87685e-10 7.48798e-09)
(0.272289 3.73148e-09 -8.80528e-09)
(0.272289 -3.3271e-09 1.31778e-09)
(0.268608 -3.96624e-09 1.14322e-08)
(0.268609 6.50077e-09 -1.46962e-08)
(0.268609 -2.73267e-09 3.27021e-09)
(0.264014 -1.22121e-08 1.28401e-08)
(0.264014 1.33621e-08 -1.76351e-08)
(0.264014 -1.44303e-09 4.79861e-09)
(0.258508 -1.88441e-08 1.3031e-08)
(0.258508 1.72744e-08 -1.77576e-08)
(0.258509 1.22498e-09 4.73275e-09)
(0.252033 -3.02725e-08 1.30039e-08)
(0.252033 2.67434e-08 -1.79555e-08)
(0.252034 3.19137e-09 4.94579e-09)
(0.244362 -4.80438e-08 9.10041e-09)
(0.244362 4.41874e-08 -1.11869e-08)
(0.244362 3.54553e-09 2.06288e-09)
(0.235211 -6.98001e-08 2.19917e-09)
(0.23521 4.96912e-08 9.66252e-10)
(0.235211 2.01598e-08 -3.17564e-09)
(0.224125 -7.21722e-08 -8.49303e-09)
(0.224125 6.46736e-08 1.7362e-08)
(0.224125 7.29615e-09 -8.88739e-09)
(0.21002 -3.60271e-08 -1.56878e-08)
(0.210019 3.00943e-08 3.09698e-08)
(0.210019 6.04156e-09 -1.53174e-08)
(0.189235 -2.72801e-09 -1.11071e-08)
(0.189235 8.86889e-09 2.42908e-08)
(0.189235 -5.82206e-09 -1.31458e-08)
(0.118387 3.09657e-09 -3.56301e-09)
(0.118387 -5.65851e-10 6.95275e-09)
(0.118387 -2.67666e-09 -3.38277e-09)
(0.132475 -4.36713e-09 -4.65946e-09)
(0.132475 3.63228e-09 9.21417e-09)
(0.132474 -5.44493e-11 -4.19906e-09)
(0.200054 1.04033e-09 -1.26062e-08)
(0.200054 -6.34151e-09 2.49484e-08)
(0.200054 3.98171e-09 -1.2358e-08)
(0.222518 3.57515e-08 -1.87065e-08)
(0.222518 -2.73154e-08 3.37639e-08)
(0.222518 -8.7853e-09 -1.52847e-08)
(0.23763 7.00579e-08 -9.86385e-09)
(0.237629 -5.82964e-08 1.88615e-08)
(0.237629 -1.12906e-08 -9.1357e-09)
(0.24939 6.80103e-08 2.84383e-09)
(0.24939 -4.76654e-08 -1.54041e-10)
(0.24939 -1.95553e-08 -2.78551e-09)
(0.259042 4.643e-08 1.1723e-08)
(0.259042 -3.99057e-08 -1.42558e-08)
(0.259042 -5.19652e-09 2.48104e-09)
(0.267105 2.9293e-08 1.64924e-08)
(0.267105 -2.41385e-08 -2.24751e-08)
(0.267106 -3.72797e-09 5.97996e-09)
(0.2739 1.83276e-08 1.65061e-08)
(0.2739 -1.57876e-08 -2.2214e-08)
(0.273901 -1.30848e-09 5.74209e-09)
(0.279676 1.17896e-08 1.63857e-08)
(0.279677 -1.20515e-08 -2.18598e-08)
(0.279677 1.28813e-09 5.50358e-09)
(0.284503 3.78612e-09 1.45112e-08)
(0.284503 -5.7035e-09 -1.88013e-08)
(0.284504 2.56429e-09 4.31336e-09)
(0.288383 5.62941e-10 9.93627e-09)
(0.288383 -3.2123e-09 -1.20771e-08)
(0.288384 3.20598e-09 2.14439e-09)
(0.291317 -2.30801e-10 7.73536e-09)
(0.291317 -4.22483e-09 -8.19763e-09)
(0.291317 5.05598e-09 4.58156e-10)
(0.293267 4.85015e-09 2.66753e-09)
(0.293267 -1.17957e-08 2.38681e-09)
(0.293268 7.6144e-09 -5.06138e-09)
(0.294389 1.2476e-08 -9.08919e-09)
(0.294389 -2.40992e-08 2.16248e-08)
(0.294389 1.22669e-08 -1.25342e-08)
(0.294982 6.51649e-09 -1.93446e-08)
(0.294982 -1.0997e-08 4.07616e-08)
(0.294982 4.90649e-09 -2.14167e-08)
(0.294982 -6.1094e-09 -1.96262e-08)
(0.294981 1.11999e-08 4.08363e-08)
(0.294981 -4.64514e-09 -2.12083e-08)
(0.294387 -1.23723e-08 -9.14102e-09)
(0.294386 2.44053e-08 2.16887e-08)
(0.294386 -1.18598e-08 -1.25376e-08)
(0.293261 -4.72744e-09 2.63459e-09)
(0.293261 1.19793e-08 2.49004e-09)
(0.293261 -7.3813e-09 -5.12061e-09)
(0.291305 2.89017e-10 7.66473e-09)
(0.291305 4.48498e-09 -8.0779e-09)
(0.291306 -4.91067e-09 4.14836e-10)
(0.288366 -4.58459e-10 9.79311e-09)
(0.288366 3.39498e-09 -1.18397e-08)
(0.288366 -3.12664e-09 2.04763e-09)
(0.284483 -3.66297e-09 1.43144e-08)
(0.284484 5.92115e-09 -1.85599e-08)
(0.284484 -2.46386e-09 4.25413e-09)
(0.279653 -1.158e-08 1.59213e-08)
(0.279653 1.21944e-08 -2.17282e-08)
(0.279653 -9.17169e-10 5.81219e-09)
(0.273873 -1.79448e-08 1.624e-08)
(0.273873 1.59326e-08 -2.19156e-08)
(0.273873 1.65663e-09 5.68355e-09)
(0.267073 -2.89827e-08 1.62841e-08)
(0.267073 2.47484e-08 -2.22508e-08)
(0.267073 3.88507e-09 5.95956e-09)
(0.259003 -4.64918e-08 1.16297e-08)
(0.259004 4.06396e-08 -1.39912e-08)
(0.259004 5.53316e-09 2.32838e-09)
(0.249346 -6.69945e-08 3.11892e-09)
(0.249346 4.90155e-08 4.28659e-10)
(0.249346 1.80178e-08 -3.55911e-09)
(0.237585 -7.05611e-08 -9.86066e-09)
(0.237585 5.88694e-08 1.92539e-08)
(0.237585 1.14887e-08 -9.40795e-09)
(0.222477 -3.53146e-08 -1.8715e-08)
(0.222476 2.73145e-08 3.40468e-08)
(0.222477 8.10642e-09 -1.53808e-08)
(0.200019 -1.6973e-09 -1.24863e-08)
(0.200019 6.48615e-09 2.5317e-08)
(0.200019 -4.48128e-09 -1.27718e-08)
(0.132451 4.00559e-09 -4.88085e-09)
(0.132451 -3.93619e-09 9.27745e-09)
(0.132451 -2.00857e-10 -4.38672e-09)
(0.145632 -5.58411e-09 -5.89582e-09)
(0.145632 7.35861e-09 1.14852e-08)
(0.145632 -2.49363e-09 -5.11698e-09)
(0.209117 -4.25357e-10 -1.32902e-08)
(0.209117 -2.70601e-09 2.46916e-08)
(0.209117 1.91312e-09 -1.14281e-08)
(0.2329 3.27368e-08 -2.11194e-08)
(0.2329 -2.57857e-08 3.63036e-08)
(0.2329 -7.24446e-09 -1.5498e-08)
(0.248971 6.59563e-08 -1.06897e-08)
(0.24897 -5.5816e-08 2.02144e-08)
(0.248971 -9.63671e-09 -9.70905e-09)
(0.261402 6.38755e-08 4.0547e-09)
(0.261402 -4.82124e-08 -8.78423e-10)
(0.261402 -1.48502e-08 -3.3e-09)
(0.271555 4.54112e-08 1.40756e-08)
(0.271555 -3.6672e-08 -1.66153e-08)
(0.271556 -7.39598e-09 2.46909e-09)
(0.280007 2.81233e-08 1.95693e-08)
(0.280007 -2.24125e-08 -2.63607e-08)
(0.280008 -4.26525e-09 6.78897e-09)
(0.287114 1.74697e-08 1.95192e-08)
(0.287114 -1.44245e-08 -2.60667e-08)
(0.287114 -1.79341e-09 6.59256e-09)
(0.293149 1.11977e-08 1.92617e-08)
(0.29315 -1.10114e-08 -2.57215e-08)
(0.29315 8.58039e-10 6.49997e-09)
(0.298197 3.41877e-09 1.73223e-08)
(0.298198 -5.03395e-09 -2.26025e-08)
(0.298198 2.27624e-09 5.31119e-09)
(0.302267 3.74477e-10 1.24098e-08)
(0.302267 -2.77176e-09 -1.53484e-08)
(0.302267 2.96642e-09 2.94345e-09)
(0.305365 -3.08504e-10 1.02905e-08)
(0.305365 -3.87254e-09 -1.14865e-08)
(0.305366 4.7956e-09 1.19043e-09)
(0.307446 4.25387e-09 4.88984e-09)
(0.307446 -1.11301e-08 -2.07892e-10)
(0.307446 7.55942e-09 -4.68613e-09)
(0.308657 1.12498e-08 -8.67721e-09)
(0.308657 -2.08099e-08 2.09227e-08)
(0.308657 1.02137e-08 -1.22426e-08)
(0.309292 5.98615e-09 -2.01318e-08)
(0.309292 -9.50071e-09 4.08807e-08)
(0.309292 3.94452e-09 -2.07451e-08)
(0.309291 -5.60378e-09 -2.05437e-08)
(0.309291 9.73687e-09 4.10176e-08)
(0.309291 -3.67273e-09 -2.0468e-08)
(0.308654 -1.11309e-08 -8.73565e-09)
(0.308654 2.11316e-08 2.09947e-08)
(0.308654 -9.81929e-09 -1.22442e-08)
(0.307439 -4.12152e-09 4.85376e-09)
(0.307439 1.13202e-08 -9.89019e-11)
(0.307439 -7.33023e-09 -4.74427e-09)
(0.305353 3.69621e-10 1.02139e-08)
(0.305353 4.14311e-09 -1.13576e-08)
(0.305353 -4.65308e-09 1.14625e-09)
(0.302249 -2.73116e-10 1.22606e-08)
(0.302249 2.96611e-09 -1.50988e-08)
(0.302249 -2.88779e-09 2.84033e-09)
(0.298176 -3.30009e-09 1.71201e-08)
(0.298177 5.23404e-09 -2.23524e-08)
(0.298177 -2.14468e-09 5.24297e-09)
(0.293124 -1.09394e-08 1.8803e-08)
(0.293124 1.09906e-08 -2.5534e-08)
(0.293125 -3.594e-10 6.73946e-09)
(0.287085 -1.7066e-08 1.92556e-08)
(0.287085 1.46202e-08 -2.57885e-08)
(0.287085 2.08433e-09 6.54284e-09)
(0.279973 -2.7786e-08 1.93781e-08)
(0.279973 2.28675e-08 -2.61335e-08)
(0.279974 4.56255e-09 6.74692e-09)
(0.271515 -4.54512e-08 1.39651e-08)
(0.271515 3.74249e-08 -1.64114e-08)
(0.271515 7.70412e-09 2.40117e-09)
(0.261357 -6.28221e-08 4.23788e-09)
(0.261357 4.95255e-08 -3.84157e-10)
(0.261357 1.33202e-08 -3.86797e-09)
(0.248924 -6.63619e-08 -1.06403e-08)
(0.248924 5.63871e-08 2.06683e-08)
(0.248924 9.75925e-09 -1.00427e-08)
(0.232857 -3.19255e-08 -2.08396e-08)
(0.232857 2.53713e-08 3.63047e-08)
(0.232857 6.6419e-09 -1.55398e-08)
(0.20908 -1.50813e-10 -1.31744e-08)
(0.20908 2.75966e-09 2.4962e-08)
(0.20908 -2.32216e-09 -1.17083e-08)
(0.145607 5.24645e-09 -6.18842e-09)
(0.145607 -7.65086e-09 1.158e-08)
(0.145607 2.29009e-09 -5.38022e-09)
(0.158148 -6.80181e-09 -6.84823e-09)
(0.158148 1.04063e-08 1.33901e-08)
(0.158148 -4.2147e-09 -5.96153e-09)
(0.217192 -2.47803e-09 -1.3167e-08)
(0.217193 2.60649e-09 2.24077e-08)
(0.217193 -1.21904e-09 -9.27759e-09)
(0.241915 2.90392e-08 -2.18503e-08)
(0.241915 -2.30349e-08 3.66352e-08)
(0.241915 -6.23187e-09 -1.51949e-08)
(0.258863 6.30957e-08 -1.07326e-08)
(0.258863 -5.5191e-08 2.0114e-08)
(0.258863 -7.37163e-09 -9.61884e-09)
(0.271964 6.02484e-08 5.45086e-09)
(0.271964 -4.9596e-08 -2.07355e-09)
(0.271964 -9.82539e-09 -3.53506e-09)
(0.282623 4.54104e-08 1.61205e-08)
(0.282623 -3.46622e-08 -1.86072e-08)
(0.282623 -9.40533e-09 2.39151e-09)
(0.291465 2.71301e-08 2.22415e-08)
(0.291465 -2.08139e-08 -2.94538e-08)
(0.291466 -4.87088e-09 7.21036e-09)
(0.29888 1.66932e-08 2.21015e-08)
(0.298881 -1.30501e-08 -2.93876e-08)
(0.298881 -2.38746e-09 7.34438e-09)
(0.305169 1.06298e-08 2.16285e-08)
(0.305169 -9.81454e-09 -2.906e-08)
(0.30517 2.33939e-10 7.48555e-09)
(0.310431 3.0083e-09 1.97819e-08)
(0.310431 -4.23575e-09 -2.60613e-08)
(0.310431 1.89412e-09 6.32005e-09)
(0.314682 1.41654e-10 1.48484e-08)
(0.314682 -2.26508e-09 -1.85993e-08)
(0.314682 2.69801e-09 3.75908e-09)
(0.317937 -4.39878e-10 1.3072e-08)
(0.317937 -3.38987e-09 -1.51404e-08)
(0.317938 4.45147e-09 2.06178e-09)
(0.320143 3.68223e-09 7.80781e-09)
(0.320143 -1.03445e-08 -3.93507e-09)
(0.320143 7.35209e-09 -3.87731e-09)
(0.321438 9.95391e-09 -6.7878e-09)
(0.321438 -1.83081e-08 1.84196e-08)
(0.321438 9.01047e-09 -1.16257e-08)
(0.322109 5.47042e-09 -1.92507e-08)
(0.322109 -8.92666e-09 4.02023e-08)
(0.32211 3.88659e-09 -2.09448e-08)
(0.322108 -5.06417e-09 -1.96248e-08)
(0.322108 9.13851e-09 4.02704e-08)
(0.322108 -3.60576e-09 -2.06368e-08)
(0.321434 -9.82006e-09 -6.84975e-09)
(0.321434 1.86289e-08 1.84929e-08)
(0.321434 -8.62136e-09 -1.16216e-08)
(0.320135 -3.54416e-09 7.77417e-09)
(0.320135 1.05381e-08 -3.82852e-09)
(0.320135 -7.12632e-09 -3.93105e-09)
(0.317924 5.02124e-10 1.29934e-08)
(0.317924 3.6673e-09 -1.501e-08)
(0.317924 -4.3119e-09 2.02079e-09)
(0.314662 -4.46863e-11 1.47033e-08)
(0.314662 2.46737e-09 -1.83516e-08)
(0.314662 -2.62034e-09 3.65323e-09)
(0.310408 -2.89091e-09 1.95839e-08)
(0.310409 4.41266e-09 -2.58159e-08)
(0.310409 -1.7353e-09 6.24569e-09)
(0.305143 -1.03516e-08 2.1266e-08)
(0.305143 9.76418e-09 -2.88476e-08)
(0.305143 2.7746e-10 7.59488e-09)
(0.29885 -1.62605e-08 2.18576e-08)
(0.29885 1.32995e-08 -2.91426e-08)
(0.29885 2.59829e-09 7.29806e-09)
(0.291429 -2.67986e-08 2.2104e-08)
(0.29143 2.11894e-08 -2.9243e-08)
(0.29143 5.25069e-09 7.12863e-09)
(0.28258 -4.5434e-08 1.60167e-08)
(0.28258 3.53533e-08 -1.84611e-08)
(0.28258 9.75729e-09 2.38586e-09)
(0.271916 -5.99837e-08 5.62923e-09)
(0.271916 5.07558e-08 -1.68741e-09)
(0.271916 9.23727e-09 -3.95895e-09)
(0.258815 -6.34765e-08 -1.06597e-08)
(0.258815 5.57985e-08 2.05978e-08)
(0.258815 7.45656e-09 -9.95931e-09)
(0.24187 -2.87457e-08 -2.18129e-08)
(0.24187 2.30499e-08 3.68871e-08)
(0.24187 5.76652e-09 -1.51839e-08)
(0.217153 1.90904e-09 -1.30275e-08)
(0.217153 -2.65426e-09 2.2573e-08)
(0.217154 1.00816e-09 -9.446e-09)
(0.158121 6.49715e-09 -7.22697e-09)
(0.158121 -1.05426e-08 1.34102e-08)
(0.158121 3.9496e-09 -6.18016e-09)
(0.170012 -7.46528e-09 -6.99193e-09)
(0.170012 1.08748e-08 1.30751e-08)
(0.170012 -3.88725e-09 -5.36879e-09)
(0.224797 -5.03972e-09 -1.24937e-08)
(0.224797 9.1804e-09 2.01814e-08)
(0.224797 -5.0716e-09 -7.73478e-09)
(0.250018 2.54171e-08 -2.1869e-08)
(0.250018 -1.92312e-08 3.55844e-08)
(0.250018 -6.33281e-09 -1.42243e-08)
(0.267716 6.08277e-08 -9.79856e-09)
(0.267717 -5.56511e-08 1.86768e-08)
(0.267717 -4.6092e-09 -9.17716e-09)
(0.28147 5.83787e-08 7.2653e-09)
(0.28147 -5.12949e-08 -3.99526e-09)
(0.28147 -6.25225e-09 -3.46729e-09)
(0.292643 4.71518e-08 1.83038e-08)
(0.292643 -3.39984e-08 -2.01806e-08)
(0.292643 -1.18365e-08 1.76026e-09)
(0.301887 2.64376e-08 2.44087e-08)
(0.301887 -1.96196e-08 -3.14171e-08)
(0.301887 -5.39041e-09 7.00471e-09)
(0.309616 1.60998e-08 2.40729e-08)
(0.309616 -1.17024e-08 -3.17918e-08)
(0.309616 -3.15225e-09 7.78974e-09)
(0.316158 1.01818e-08 2.33268e-08)
(0.316158 -8.49959e-09 -3.15178e-08)
(0.316158 -6.39512e-10 8.26173e-09)
(0.321631 2.58034e-09 2.17216e-08)
(0.321631 -3.33042e-09 -2.89078e-08)
(0.321631 1.41459e-09 7.23924e-09)
(0.326059 -1.24177e-10 1.69859e-08)
(0.326059 -1.70691e-09 -2.15747e-08)
(0.326059 2.40458e-09 4.6008e-09)
(0.329469 -6.04669e-10 1.58048e-08)
(0.329469 -2.80649e-09 -1.87891e-08)
(0.329469 4.03316e-09 2.97647e-09)
(0.331795 3.08079e-09 1.12121e-08)
(0.331795 -9.37037e-09 -8.31667e-09)
(0.331796 6.9783e-09 -2.89891e-09)
(0.33317 8.60344e-09 -3.43456e-09)
(0.33317 -1.56348e-08 1.37101e-08)
(0.33317 7.68121e-09 -1.02649e-08)
(0.333875 4.89859e-09 -1.61571e-08)
(0.333875 -8.03138e-09 3.49499e-08)
(0.333875 3.55581e-09 -1.87882e-08)
(0.333873 -4.48421e-09 -1.65377e-08)
(0.333874 8.2275e-09 3.50323e-08)
(0.333874 -3.26851e-09 -1.84867e-08)
(0.333165 -8.45524e-09 -3.49795e-09)
(0.333165 1.59451e-08 1.3784e-08)
(0.333166 -7.2962e-09 -1.02555e-08)
(0.331787 -2.93997e-09 1.11866e-08)
(0.331787 9.56211e-09 -8.21901e-09)
(0.331787 -6.75398e-09 -2.94664e-09)
(0.329454 6.66477e-10 1.57269e-08)
(0.329454 3.08617e-09 -1.86617e-08)
(0.329455 -3.89575e-09 2.94099e-09)
(0.326038 2.16189e-10 1.68534e-08)
(0.326039 1.91326e-09 -2.13375e-08)
(0.326039 -2.32814e-09 4.49323e-09)
(0.321607 -2.46226e-09 2.15326e-08)
(0.321607 3.48385e-09 -2.86834e-08)
(0.321607 -1.23561e-09 7.16879e-09)
(0.31613 -9.91274e-09 2.3044e-08)
(0.31613 8.5203e-09 -3.12804e-08)
(0.31613 1.0824e-09 8.25359e-09)
(0.309584 -1.5609e-08 2.38662e-08)
(0.309584 1.1998e-08 -3.1587e-08)
(0.309584 3.2501e-09 7.73607e-09)
(0.301849 -2.61641e-08 2.43315e-08)
(0.301849 1.99824e-08 -3.12729e-08)
(0.301849 5.82407e-09 6.92613e-09)
(0.292599 -4.7178e-08 1.82189e-08)
(0.292599 3.46336e-08 -2.01179e-08)
(0.292599 1.22328e-08 1.82488e-09)
(0.281421 -5.8484e-08 7.44334e-09)
(0.281421 5.2311e-08 -3.72326e-09)
(0.281421 6.1675e-09 -3.74279e-09)
(0.267666 -6.12132e-08 -9.68256e-09)
(0.267666 5.63202e-08 1.91631e-08)
(0.267667 4.66085e-09 -9.51008e-09)
(0.249971 -2.54332e-08 -2.17005e-08)
(0.249971 1.94089e-08 3.57422e-08)
(0.249972 6.0749e-09 -1.41813e-08)
(0.224756 4.59645e-09 -1.23981e-08)
(0.224756 -9.31393e-09 2.02575e-08)
(0.224756 4.94944e-09 -7.73785e-09)
(0.169983 7.26184e-09 -7.4819e-09)
(0.169983 -1.098e-08 1.31007e-08)
(0.169983 3.64339e-09 -5.60096e-09)
(0.181189 -7.582e-09 -6.44851e-09)
(0.181189 1.04849e-08 1.21562e-08)
(0.181189 -3.21236e-09 -4.87166e-09)
(0.232294 -7.93835e-09 -1.18688e-08)
(0.232294 1.36009e-08 1.75504e-08)
(0.232294 -6.40473e-09 -5.73868e-09)
(0.257528 2.14889e-08 -2.08884e-08)
(0.257528 -1.39387e-08 3.35548e-08)
(0.257528 -7.60192e-09 -1.32722e-08)
(0.275807 5.84402e-08 -7.61998e-09)