/*--------------------------------*- C++ -*----------------------------------*\
  =========                 |
  \\      /  F ield         | OpenFOAM: The Open Source CFD Toolbox
   \\    /   O peration     | Website:  https://openfoam.org
    \\  /    A nd           | Version:  6
     \\/     M anipulation  |
\*---------------------------------------------------------------------------*/
FoamFile
{
    version     2.0;
    format      ascii;
    class       volVectorField;
    location    "40";
    object      wallShearStress;
}
// * * * * * * * * * * * * * * * * * * * * * * * * * * * * * * * * * * * * * //

dimensions      [0 2 -2 0 0 0 0];

internalField   uniform (0 0 0);

boundaryField
{
    freeSurface
    {
        type            calculated;
        value           uniform (0 0 0);
    }
    inlet
    {
        type            cyclic;
    }
    outlet
    {
        type            cyclic;
    }
    sidewalls
    {
        type            calculated;
        value           nonuniform List<vector> 
144
(
(-3.68357e-06 4.18208e-13 3.77307e-12)
(-2.04754e-05 9.34038e-13 1.72668e-12)
(-3.72814e-05 7.99697e-13 8.20648e-13)
(-5.22943e-05 9.81119e-12 2.05199e-12)
(-6.623e-05 3.45182e-13 3.81677e-12)
(-7.98107e-05 1.29953e-11 5.52097e-12)
(-9.35614e-05 3.03203e-12 6.68067e-12)
(-0.000107566 5.33669e-12 6.72933e-12)
(-0.000121636 7.34511e-12 5.79957e-12)
(-0.000135554 8.39874e-12 4.85346e-12)
(-0.000149184 8.90988e-12 4.07757e-12)
(-0.000162401 9.02116e-12 3.25186e-12)
(-0.000175108 9.09403e-12 2.83062e-12)
(-0.000187235 1.01514e-11 2.04052e-12)
(-0.000198742 1.09273e-11 -1.6593e-13)
(-0.000209603 1.02464e-11 -2.84673e-12)
(-0.000219788 8.10262e-12 -5.10539e-12)
(-0.000229261 5.10459e-12 -6.28291e-12)
(-0.000237976 -1.5868e-11 -6.09068e-12)
(-0.000245869 3.96929e-13 -4.78207e-12)
(-0.000252849 -5.00797e-13 -2.75027e-12)
(-0.000258753 -4.66389e-13 -5.34307e-13)
(-0.000263299 3.01028e-13 8.55752e-13)
(-0.000266002 1.00247e-12 5.94242e-13)
(-3.68357e-06 1.05921e-12 5.02459e-12)
(-2.04754e-05 3.05372e-12 2.01307e-12)
(-3.72814e-05 4.04752e-12 -4.10594e-12)
(-5.22943e-05 -4.34562e-12 -8.54432e-12)
(-6.623e-05 3.94134e-12 -1.20548e-11)
(-7.98107e-05 -1.05979e-11 -1.46989e-11)
(-9.35614e-05 -2.97287e-12 -1.54905e-11)
(-0.000107566 -8.17243e-12 -1.31084e-11)
(-0.000121636 -1.11407e-11 -9.49547e-12)
(-0.000135555 -1.14125e-11 -8.8535e-12)
(-0.000149184 -1.20535e-11 -9.2935e-12)
(-0.000162401 -1.32182e-11 -8.63116e-12)
(-0.000175108 -1.39967e-11 -7.39374e-12)
(-0.000187235 -1.49207e-11 -5.69296e-12)
(-0.000198742 -1.50854e-11 -2.94499e-12)
(-0.000209603 -1.3964e-11 2.89135e-16)
(-0.000219788 -1.17473e-11 2.6863e-12)
(-0.000229262 -8.76832e-12 4.6469e-12)
(-0.000237975 -5.61593e-12 5.43939e-12)
(-0.000245869 -2.96597e-12 4.93168e-12)
(-0.000252849 -1.17849e-12 3.36988e-12)
(-0.000258753 -3.69999e-13 1.40154e-12)
(-0.000263299 -3.71548e-13 -2.63625e-14)
(-0.000266002 -5.69232e-13 -2.40591e-13)
(-3.68355e-06 -1.48675e-12 -8.36191e-12)
(-2.04753e-05 -3.66821e-12 -2.92487e-12)
(-3.72813e-05 -4.31089e-12 3.78741e-12)
(-5.22938e-05 -4.73706e-12 6.65234e-12)
(-6.623e-05 -3.48897e-12 8.13018e-12)
(-7.98101e-05 -1.56655e-12 8.84992e-12)
(-9.35612e-05 7.35379e-13 8.29706e-12)
(-0.000107566 3.56133e-12 5.72646e-12)
(-0.000121636 4.41704e-12 2.89606e-12)
(-0.000135555 3.43902e-12 3.05636e-12)
(-0.000149184 3.31301e-12 4.19824e-12)
(-0.000162402 4.10573e-12 4.32783e-12)
(-0.000175108 4.51057e-12 3.45867e-12)
(-0.000187236 3.94159e-12 2.50195e-12)
(-0.000198743 2.72488e-12 2.03171e-12)
(-0.000209603 1.60565e-12 2.03209e-12)
(-0.000219788 9.67385e-13 2.05927e-12)
(-0.000229262 7.46792e-13 1.83669e-12)
(-0.000237976 1.87996e-11 1.37526e-12)
(-0.000245869 5.16187e-13 9.66013e-13)
(-0.000252849 4.19453e-13 7.38473e-13)
(-0.000258753 3.06594e-13 5.13774e-13)
(-0.000263299 1.26792e-13 2.21287e-13)
(-0.000266002 -3.64109e-14 3.7306e-14)
(-3.68269e-06 -4.43873e-13 3.55166e-12)
(-2.04678e-05 -7.30528e-13 1.28708e-12)
(-3.72687e-05 -1.37626e-12 5.98934e-13)
(-5.22775e-05 -9.41831e-12 2.03737e-12)
(-6.62097e-05 5.24049e-14 3.92558e-12)
(-7.97859e-05 -9.37712e-13 5.7056e-12)
(-9.35333e-05 -2.61872e-12 6.9345e-12)
(-0.000107534 -4.91954e-12 7.12483e-12)
(-0.0001216 -7.01963e-12 6.37058e-12)
(-0.000135514 -8.24652e-12 5.48402e-12)
(-0.000149139 -8.89495e-12 4.68964e-12)
(-0.000162352 -2.4684e-11 3.85092e-12)
(-0.000175055 -9.23529e-12 3.41e-12)
(-0.000187178 -1.03441e-11 2.63687e-12)
(-0.000198682 -1.11982e-11 4.01011e-13)
(-0.000209538 -1.05729e-11 -2.3526e-12)
(-0.00021972 -8.46769e-12 -4.71734e-12)
(-0.000229188 -5.48184e-12 -6.04131e-12)
(-0.000237899 -2.61081e-12 -6.01879e-12)
(-0.00024579 -6.44843e-13 -4.86567e-12)
(-0.000252766 3.61479e-13 -2.94321e-12)
(-0.000258667 4.29136e-13 -7.68423e-13)
(-0.000263213 -2.6324e-13 6.66592e-13)
(-0.000265916 -9.27095e-13 5.21593e-13)
(-3.68269e-06 -1.07361e-12 4.99971e-12)
(-2.04678e-05 -3.74853e-12 1.78634e-12)
(-3.72687e-05 -3.97407e-12 -4.3581e-12)
(-5.22775e-05 4.47325e-12 -8.75112e-12)
(-6.62097e-05 -3.77593e-12 -1.22132e-11)
(-7.97859e-05 -8.56372e-13 -1.47781e-11)
(-9.35333e-05 3.25046e-12 -1.53636e-11)
(-0.000107534 8.34913e-12 -1.29087e-11)
(-0.0001216 1.12094e-11 -9.54586e-12)
(-0.000135514 1.15818e-11 -8.97224e-12)
(-0.000149139 1.22574e-11 -9.29889e-12)
(-0.000162353 2.8968e-11 -8.58018e-12)
(-0.000175055 1.40611e-11 -7.32951e-12)
(-0.000187178 1.49406e-11 -5.70245e-12)
(-0.000198682 1.50819e-11 -2.98139e-12)
(-0.000209538 1.39332e-11 -7.38894e-14)
(-0.00021972 1.16954e-11 2.56174e-12)
(-0.000229188 8.70852e-12 4.45708e-12)
(-0.0002379 5.57319e-12 5.18472e-12)
(-0.00024579 2.95883e-12 4.63168e-12)
(-0.000252767 1.20808e-12 3.0574e-12)
(-0.000258667 4.33182e-13 1.11628e-12)
(-0.000263213 4.58123e-13 -2.32079e-13)
(-0.000265917 6.67029e-13 -3.16788e-13)
(-3.68267e-06 1.53049e-12 -8.68774e-12)
(-2.04677e-05 4.53482e-12 -3.21462e-12)
(-3.72686e-05 5.43414e-12 3.7034e-12)
(-5.2277e-05 5.04384e-12 6.71362e-12)
(-6.62095e-05 3.82676e-12 8.31399e-12)
(-7.97859e-05 1.89576e-12 9.10745e-12)
(-9.35333e-05 -5.29026e-13 8.46395e-12)
(-0.000107534 -3.34604e-12 5.8241e-12)
(-0.0001216 -4.13611e-12 3.18347e-12)
(-0.000135514 -3.2642e-12 3.43986e-12)
(-0.000149139 -3.23864e-12 4.54122e-12)
(-0.000162352 -4.1132e-12 4.6524e-12)
(-0.000175055 -4.55989e-12 3.77353e-12)
(-0.000187178 -4.09796e-12 2.82785e-12)
(-0.000198682 -2.9705e-12 2.28754e-12)
(-0.000209538 -1.90532e-12 2.19174e-12)
(-0.00021972 -1.27087e-12 2.10113e-12)
(-0.000229188 -1.00175e-12 1.7706e-12)
(-0.0002379 -8.44515e-13 1.22078e-12)
(-0.00024579 -6.34414e-13 7.38731e-13)
(-0.000252767 -4.65217e-13 4.65425e-13)
(-0.000258667 -2.85877e-13 2.45756e-13)
(-0.000263213 -5.71817e-14 2.3311e-14)
(-0.000265917 1.31406e-13 -3.63018e-14)
)
;
    }
    noSlipWalls
    {
        type            calculated;
        value           nonuniform List<vector> 
90
(
(-6.94034e-05 6.09423e-12 8.69526e-13)
(-0.000183035 -2.024e-12 4.67517e-12)
(-0.000213301 -7.82516e-11 7.33926e-12)
(-0.000237348 -1.62051e-10 4.30392e-12)
(-0.000257856 -1.47384e-10 -2.4287e-13)
(-0.00027585 -1.12809e-10 -4.04398e-12)
(-0.000291857 -7.47703e-11 -7.18216e-12)
(-0.000306306 -4.7406e-11 -7.8604e-12)
(-0.000319646 -2.96621e-11 -7.80132e-12)
(-0.000332067 -9.29241e-12 -7.44753e-12)
(-0.000343643 -8.1364e-13 -2.06978e-12)
(-0.000354364 2.64323e-12 -1.00049e-12)
(-0.000363812 -7.11183e-12 8.02137e-15)
(-0.00037176 -2.88407e-11 1.76747e-12)
(-0.000376047 -1.55995e-11 -3.31485e-13)
(-0.000376044 1.47397e-11 -3.78053e-13)
(-0.000371734 2.90143e-11 1.76931e-12)
(-0.000363776 7.08215e-12 6.93577e-15)
(-0.000354319 -2.53072e-12 -4.32903e-12)
(-0.000343591 6.15458e-13 -2.01333e-12)
(-0.000332018 8.91493e-12 -7.3594e-12)
(-0.000319595 2.9708e-11 -7.60228e-12)
(-0.000306251 4.69642e-11 -7.79072e-12)
(-0.000291797 7.42324e-11 -7.11884e-12)
(-0.000275781 1.13294e-10 -4.47855e-12)
(-0.000257781 1.48453e-10 -9.73999e-13)
(-0.000237273 1.62004e-10 4.35625e-12)
(-0.000213236 7.84053e-11 7.68261e-12)
(-0.000182978 2.97733e-12 4.68648e-12)
(-6.93869e-05 -5.96001e-12 5.91927e-13)
(-6.94034e-05 7.21245e-12 -1.91233e-12)
(-0.00018303 1.45362e-11 -2.15709e-11)
(-0.000213297 8.0637e-11 -2.29233e-11)
(-0.000237345 1.81784e-10 -1.40113e-11)
(-0.000257856 1.54154e-10 -2.06714e-12)
(-0.000275851 1.29959e-10 6.35876e-12)
(-0.000291858 7.88239e-11 1.09893e-11)
(-0.000306307 5.32576e-11 1.16628e-11)
(-0.000319647 3.86903e-11 1.11999e-11)
(-0.000332067 1.75607e-11 8.62342e-12)
(-0.000343643 9.11591e-12 2.19042e-12)
(-0.000354364 1.07917e-11 8.46757e-13)
(-0.000363809 3.50664e-11 -3.65765e-12)
(-0.000371757 7.23238e-11 -4.35849e-12)
(-0.000376044 3.42003e-11 -1.92609e-12)
(-0.000376041 -3.42003e-11 -1.92258e-12)
(-0.000371734 -7.2874e-11 -1.03525e-12)
(-0.000363773 -3.54361e-11 -3.66662e-12)
(-0.000354319 -1.13686e-11 4.15601e-12)
(-0.000343591 -9.12843e-12 2.10509e-12)
(-0.000332018 -1.78824e-11 8.53355e-12)
(-0.000319596 -3.96269e-11 1.10219e-11)
(-0.000306252 -5.29321e-11 1.13984e-11)
(-0.000291798 -7.9913e-11 1.07281e-11)
(-0.000275781 -1.29394e-10 6.12571e-12)
(-0.00025778 -1.49111e-10 -3.23027e-12)
(-0.000237271 -1.83107e-10 -1.41245e-11)
(-0.000213232 -8.20278e-11 -2.31435e-11)
(-0.000182973 -1.52608e-11 -2.18255e-11)
(-6.93869e-05 -7.2631e-12 -1.92213e-12)
(-6.94031e-05 -1.29623e-11 1.30312e-12)
(-0.000183029 -1.10585e-11 1.68357e-11)
(-0.000213296 -2.0129e-12 1.55618e-11)
(-0.000237344 -2.0266e-11 9.6946e-12)
(-0.000257856 -7.64544e-12 2.34435e-12)
(-0.000275852 -1.87947e-11 -2.29402e-12)
(-0.00029186 -5.87628e-12 -3.7806e-12)
(-0.00030631 -7.44266e-12 -3.7998e-12)
(-0.00031965 -1.03408e-11 -3.40587e-12)
(-0.00033207 -9.15238e-12 -1.18759e-12)
(-0.000343643 -9.06529e-12 -1.20905e-13)
(-0.000354364 -1.41903e-11 1.77439e-13)
(-0.000363809 -2.88384e-11 3.65395e-12)
(-0.000371753 -4.44369e-11 2.71753e-12)
(-0.000376037 -1.92613e-11 2.52125e-12)
(-0.000376034 1.89182e-11 2.56659e-12)
(-0.000371731 4.37081e-11 -6.11063e-13)
(-0.000363773 2.85356e-11 3.65895e-12)
(-0.000354322 1.40654e-11 1.96726e-13)
(-0.000343591 8.7397e-12 -8.70031e-14)
(-0.000332022 9.19226e-12 -1.18503e-12)
(-0.000319598 1.02855e-11 -3.42162e-12)
(-0.000306255 6.37893e-12 -3.60437e-12)
(-0.0002918 6.07213e-12 -3.58483e-12)
(-0.000275782 1.64704e-11 -1.62928e-12)
(-0.00025778 4.78706e-13 4.21189e-12)
(-0.00023727 2.13085e-11 9.74471e-12)
(-0.000213231 3.39694e-12 1.54213e-11)
(-0.000182972 1.18044e-11 1.70891e-11)
(-6.93866e-05 1.33973e-11 1.33007e-12)
)
;
    }
}


// ************************************************************************* //
