/*--------------------------------*- C++ -*----------------------------------*\
  =========                 |
  \\      /  F ield         | OpenFOAM: The Open Source CFD Toolbox
   \\    /   O peration     | Website:  https://openfoam.org
    \\  /    A nd           | Version:  6
     \\/     M anipulation  |
\*---------------------------------------------------------------------------*/
FoamFile
{
    version     2.0;
    format      ascii;
    class       volScalarField;
    location    "2";
    object      omega;
}
// * * * * * * * * * * * * * * * * * * * * * * * * * * * * * * * * * * * * * //

dimensions      [0 0 -1 0 0 0 0];

internalField   nonuniform List<scalar> 
380496
(
843.917
843.917
843.917
843.917
843.917
843.917
843.917
843.917
843.917
843.917
843.917
843.917
843.917
843.917
843.917
843.917
843.917
843.917
843.917
843.917
843.917
843.917
843.917
843.917
843.917
843.917
843.917
843.917
843.917
843.917
843.917
843.917
843.917
843.917
843.917
843.917
843.917
843.917
843.917
843.917
843.917
843.917
843.917
843.917
843.917
843.917
843.917
843.917
843.917
843.917
843.917
843.917
843.917
843.917
843.917
843.917
843.917
843.917
843.917
843.917
843.917
843.917
843.917
843.917
843.917
843.917
843.917
843.917
843.917
843.917
843.917
843.917
843.917
843.917
843.917
843.917
843.917
843.917
843.917
843.917
843.917
843.917
843.917
843.917
843.917
843.917
843.917
843.917
843.917
843.917
843.917
843.917
843.917
843.917
843.917
843.917
843.917
843.917
843.917
843.917
843.917
843.917
843.917
843.917
843.917
843.917
843.917
843.917
843.917
843.917
843.917
843.917
843.917
843.917
843.917
843.917
843.917
843.917
843.917
843.917
843.917
843.917
843.917
843.917
843.917
843.917
843.917
843.917
843.917
843.917
843.917
843.917
843.917
843.917
843.917
843.917
843.917
843.917
843.917
843.917
843.917
843.917
843.917
843.917
843.917
843.917
843.917
843.917
843.917
843.917
843.917
843.917
843.917
843.917
843.917
843.917
843.917
843.917
843.917
843.917
843.917
843.917
843.917
843.917
843.917
843.917
843.917
843.917
843.917
843.917
843.917
843.917
843.917
843.917
843.917
843.917
843.917
843.917
843.917
843.917
843.917
843.917
843.917
843.917
843.917
843.917
843.917
843.917
843.917
843.917
843.917
843.917
843.917
843.917
843.917
843.917
843.917
843.917
843.917
843.917
843.917
843.917
843.917
843.917
843.917
843.917
843.917
843.917
843.917
843.917
843.917
843.917
843.917
843.917
843.917
843.917
843.917
843.917
843.917
843.917
843.917
843.917
843.917
843.917
843.917
843.917
843.917
843.917
843.917
843.917
843.917
843.917
843.917
843.917
843.917
843.917
843.917
843.917
843.917
843.917
843.917
843.917
843.917
843.917
843.917
843.917
843.917
843.917
843.917
843.917
843.917
843.917
843.917
843.917
843.917
843.917
843.917
843.917
843.917
843.917
843.917
843.917
843.917
843.917
843.917
843.917
843.917
843.917
843.917
843.917
843.917
843.917
843.917
843.917
843.917
843.917
843.917
843.917
843.917
843.917
843.917
843.917
843.917
843.917
843.917
843.917
843.917
843.917
843.917
843.917
843.917
843.917
843.917
843.917
843.917
843.917
843.917
843.917
843.917
843.917
843.917
843.917
843.917
843.917
843.917
843.917
843.917
843.917
843.917
843.917
843.917
843.917
843.917
843.917
843.917
843.917
843.917
843.917
843.917
843.917
843.917
843.917
843.917
843.917
843.917
843.917
843.917
843.917
843.917
843.917
843.917
843.917
843.917
843.917
843.917
843.917
843.917
843.917
843.917
843.917
843.917
843.917
843.917
843.917
843.917
843.917
843.917
843.917
843.917
843.917
843.917
843.917
843.917
843.917
843.917
843.917
843.917
843.917
843.917
843.917
843.917
843.917
843.917
843.917
843.917
843.917
843.917
843.917
843.917
843.917
843.917
843.917
843.917
843.917
843.917
843.917
843.917
843.917
843.917
843.917
843.917
843.917
843.917
843.917
843.917
843.917
843.917
843.917
843.917
843.917
843.917
843.917
843.917
843.917
843.917
843.917
843.917
843.917
843.917
843.917
843.917
843.917
843.917
843.917
843.917
843.917
843.917
843.917
843.917
843.917
843.917
843.917
843.917
843.917
843.917
843.917
843.917
843.917
843.917
843.917
843.917
843.917
843.917
843.917
843.917
843.917
843.917
843.917
843.917
843.917
843.917
843.917
843.917
843.917
843.917
843.917
843.917
843.917
843.917
843.917
843.917
843.917
843.917
843.917
843.917
843.917
843.917
843.917
843.917
843.917
843.917
843.917
843.917
843.917
843.917
843.917
843.917
843.917
843.917
843.917
843.917
843.917
843.917
843.917
843.917
843.917
843.917
843.917
843.917
843.917
843.917
843.917
843.917
843.917
843.917
843.917
843.917
843.917
843.917
843.917
843.917
843.917
843.917
843.917
843.917
843.917
843.917
843.917
843.917
843.917
843.917
843.917
843.917
843.917
843.917
843.917
843.917
843.917
843.917
843.917
843.917
843.917
843.917
843.917
843.917
843.917
843.917
843.917
843.917
843.917
843.917
843.917
843.917
843.917
843.917
843.917
843.917
843.917
843.917
843.917
843.917
843.917
843.917
843.917
843.917
843.917
843.917
843.917
843.917
843.917
843.917
843.917
843.917
843.917
843.917
843.917
843.917
843.917
843.917
843.917
843.917
843.917
843.917
843.917
843.917
843.917
843.917
843.917
843.917
843.917
843.917
843.917
843.917
843.917
843.917
843.917
843.917
843.917
843.917
843.917
843.917
843.917
843.917
843.917
843.917
843.917
843.917
843.917
843.917
843.917
843.917
843.917
843.917
843.917
843.917
843.917
843.917
843.917
843.917
843.917
843.917
843.917
843.917
843.917
843.917
843.917
843.917
843.917
843.917
843.917
843.917
843.917
843.917
843.917
843.917
843.917
843.917
843.917
843.917
843.917
843.917
843.917
843.917
843.917
843.917
843.917
843.917
843.917
843.917
843.917
843.917
843.917
843.917
843.917
843.917
843.917
843.917
843.917
843.917
843.917
843.917
843.917
843.917
843.917
843.917
843.917
843.917
843.917
843.917
843.917
843.917
843.917
843.917
843.917
843.917
843.917
843.917
843.917
843.917
843.917
843.917
843.917
843.917
843.917
843.917
843.917
843.917
843.917
843.917
843.917
843.917
843.917
843.917
843.917
843.917
843.917
843.917
843.917
843.917
843.917
843.917
843.917
843.917
843.917
843.917
843.917
843.917
843.917
843.917
843.917
843.917
843.917
843.917
843.917
843.917
843.917
843.917
843.917
843.917
843.917
843.917
843.917
843.917
843.917
843.917
843.917
843.917
843.917
843.917
843.917
843.917
843.917
843.917
843.917
843.917
843.917
843.917
843.917
843.917
843.917
423.923
423.923
423.923
423.923
423.923
423.923
423.923
423.923
423.923
423.923
423.923
423.923
423.923
423.923
423.923
423.923
423.923
423.923
423.923
423.923
423.923
423.923
423.923
423.923
423.923
423.923
423.923
423.923
423.923
423.923
423.923
423.923
423.923
423.923
423.923
281.63
267.583
268.724
269.802
269.916
269.779
269.691
269.661
269.635
269.593
269.537
269.481
269.433
269.398
269.379
269.382
269.404
269.445
269.49
269.531
269.568
269.597
269.628
269.656
269.691
269.73
269.772
269.823
269.869
269.93
269.977
270.05
270.09
270.18
270.185
281.47
267.568
268.641
269.668
269.749
269.591
269.47
269.402
269.356
269.32
269.294
269.277
269.267
269.263
269.265
269.284
269.316
269.369
269.413
269.476
269.5
269.561
269.568
269.627
269.635
269.699
269.715
269.79
269.813
269.898
269.923
270.024
270.028
270.179
270.064
281.136
267.395
268.465
269.437
269.479
269.317
269.224
269.187
269.147
269.08
268.993
268.907
268.84
268.801
268.795
268.823
268.874
268.947
269.013
269.092
269.142
269.224
269.265
269.356
269.403
269.503
269.557
269.667
269.722
269.841
269.895
270.031
270.065
270.252
270.178
280.569
267.015
268.166
269.103
269.109
268.907
268.775
268.709
268.655
268.596
268.54
268.499
268.478
268.481
268.508
268.563
268.64
268.732
268.824
268.912
268.983
269.059
269.114
269.189
269.25
269.331
269.403
269.498
269.575
269.683
269.761
269.885
269.946
270.107
270.079
280.152
266.777
267.8
268.662
268.634
268.429
268.29
268.218
268.177
268.152
268.148
268.166
268.203
268.255
268.321
268.403
268.497
268.6
268.702
268.799
268.885
268.967
269.034
269.114
269.174
269.265
269.33
269.441
269.513
269.645
269.719
269.875
269.927
270.147
270.077
279.345
266.188
267.246
268.042
267.964
267.718
267.558
267.468
267.398
267.338
267.298
267.288
267.308
267.358
267.433
267.535
267.654
267.787
267.91
268.038
268.134
268.25
268.327
268.442
268.524
268.649
268.739
268.885
268.982
269.149
269.243
269.437
269.501
269.764
269.673
278.503
265.566
266.542
267.247
267.127
266.882
266.742
266.682
266.641
266.606
266.592
266.612
266.671
266.762
266.879
267.017
267.163
267.315
267.45
267.589
267.69
267.82
267.901
268.032
268.118
268.258
268.354
268.51
268.615
268.787
268.891
269.095
269.166
269.459
269.359
277.448
264.749
265.65
266.255
266.069
265.771
265.586
265.477
265.381
265.29
265.227
265.216
265.261
265.36
265.498
265.664
265.841
266.021
266.183
266.339
266.468
266.609
266.723
266.869
266.986
267.148
267.272
267.451
267.58
267.779
267.904
268.131
268.22
268.53
268.435
276.197
263.725
264.541
265.038
264.811
264.523
264.38
264.322
264.274
264.232
264.227
264.281
264.397
264.56
264.75
264.954
265.154
265.346
265.514
265.671
265.806
265.948
266.073
266.222
266.351
266.519
266.649
266.837
266.97
267.175
267.306
267.54
267.634
267.966
267.869
274.963
262.696
263.347
263.723
263.417
263.062
262.845
262.703
262.574
262.467
262.421
262.464
262.593
262.784
263.007
263.242
263.469
263.681
263.868
264.043
264.194
264.359
264.499
264.675
264.819
265.008
265.157
265.362
265.512
265.735
265.882
266.136
266.242
266.59
266.492
273.286
261.244
261.81
262.07
261.728
261.393
261.232
261.151
261.08
261.045
261.093
261.243
261.474
261.745
262.024
262.29
262.529
262.742
262.925
263.095
263.248
263.414
263.563
263.742
263.898
264.089
264.247
264.455
264.608
264.837
264.983
265.244
265.352
265.719
265.616
271.669
259.83
260.137
260.244
259.804
259.38
259.113
258.917
258.752
258.661
258.698
258.874
259.149
259.466
259.783
260.076
260.334
260.56
260.756
260.941
261.111
261.295
261.462
261.66
261.827
262.036
262.201
262.423
262.588
262.83
262.993
263.267
263.392
263.763
263.67
269.384
257.773
257.954
257.935
257.461
257.063
256.86
256.742
256.681
256.742
256.966
257.327
257.748
258.162
258.526
258.832
259.082
259.295
259.478
259.654
259.822
260.005
260.178
260.377
260.553
260.76
260.938
261.157
261.332
261.575
261.743
262.019
262.151
262.533
262.445
267.112
255.692
255.54
255.343
254.748
254.228
253.884
253.638
253.513
253.59
253.89
254.345
254.847
255.312
255.703
256.019
256.273
256.491
256.685
256.876
257.063
257.261
257.448
257.656
257.837
258.055
258.236
258.469
258.656
258.913
259.099
259.389
259.539
259.925
259.848
264.045
252.839
252.453
252.118
251.482
250.975
250.694
250.582
250.695
251.099
251.733
252.455
253.13
253.676
254.078
254.369
254.591
254.783
254.961
255.142
255.322
255.513
255.698
255.904
256.092
256.311
256.508
256.743
256.948
257.208
257.405
257.699
257.855
258.25
258.176
260.558
249.542
248.825
248.315
247.514
246.825
246.384
246.208
246.41
247.015
247.868
248.749
249.496
250.044
250.421
250.689
250.902
251.102
251.299
251.502
251.701
251.898
252.088
252.288
252.478
252.704
252.908
253.165
253.386
253.67
253.887
254.197
254.374
254.772
254.707
256.389
245.52
244.357
243.686
242.792
242.072
241.749
241.934
242.676
243.808
245.05
246.164
247.003
247.546
247.866
248.072
248.248
248.433
248.623
248.813
248.995
249.175
249.358
249.561
249.77
250.018
250.251
250.533
250.774
251.081
251.299
251.635
251.804
252.234
252.128
249.964
239.628
238.627
237.965
236.821
235.792
235.206
235.223
235.932
237.085
238.348
239.462
240.278
240.778
241.057
241.248
241.449
241.693
241.958
242.218
242.445
242.645
242.82
243.011
243.203
243.452
243.69
244.006
244.261
244.608
244.859
245.218
245.427
245.876
245.795
240.793
231.819
230.9
230.263
228.567
226.758
225.588
225.702
226.793
228.156
229.327
230.12
230.543
230.734
230.864
231.042
231.303
231.63
231.958
232.245
232.448
232.587
232.695
232.82
232.969
233.192
233.423
233.732
233.981
234.337
234.58
234.931
235.164
235.554
235.628
215.407
216.05
217.458
217.017
215.069
214.2
215.388
217.669
220.15
222.098
223.246
223.733
223.859
223.866
223.933
224.113
224.353
224.597
224.822
225.043
225.257
225.478
225.71
225.956
226.208
226.494
226.766
227.086
227.347
227.704
227.947
228.284
228.557
228.785
229.399
9.30108
9.12516
9.65338
9.93622
10.0038
9.92514
9.80095
9.84104
9.84768
9.93094
10.0003
9.96786
9.8987
9.87758
9.91767
9.98614
10.051
10.0975
10.1262
10.1442
10.1558
10.1704
10.1813
10.1977
10.2172
10.2276
10.2584
10.2605
10.3041
10.2874
10.3493
10.3096
10.3907
10.3051
10.4304
135.248
128.881
128.552
129.041
129.245
129.254
129.219
129.187
129.147
129.09
129.021
128.951
128.893
128.851
128.827
128.823
128.836
128.862
128.892
128.923
128.949
128.971
128.991
129.012
129.036
129.063
129.095
129.13
129.17
129.21
129.259
129.306
129.361
129.42
129.478
135.077
128.681
128.312
128.776
128.966
128.96
128.907
128.855
128.808
128.763
128.721
128.685
128.659
128.642
128.636
128.643
128.664
128.695
128.733
128.767
128.8
128.825
128.851
128.87
128.9
128.923
128.963
128.992
129.045
129.081
129.145
129.188
129.254
129.328
129.347
134.795
128.39
128.005
128.447
128.622
128.619
128.585
128.552
128.503
128.427
128.331
128.236
128.158
128.107
128.087
128.094
128.123
128.164
128.212
128.256
128.3
128.339
128.381
128.42
128.469
128.512
128.568
128.613
128.676
128.722
128.794
128.845
128.92
128.996
129.035
134.362
127.979
127.616
128.055
128.219
128.195
128.135
128.083
128.026
127.958
127.885
127.823
127.78
127.762
127.769
127.799
127.849
127.908
127.971
128.028
128.078
128.121
128.16
128.198
128.239
128.281
128.332
128.381
128.44
128.496
128.561
128.625
128.685
128.776
128.79
134.044
127.654
127.236
127.633
127.77
127.731
127.659
127.599
127.55
127.51
127.48
127.466
127.47
127.491
127.526
127.576
127.638
127.705
127.774
127.836
127.893
127.94
127.983
128.022
128.065
128.106
128.16
128.211
128.28
128.339
128.421
128.49
128.572
128.674
128.711
133.49
127.129
126.725
127.109
127.231
127.178
127.098
127.028
126.958
126.885
126.819
126.773
126.752
126.758
126.79
126.844
126.916
126.995
127.076
127.149
127.215
127.271
127.324
127.372
127.427
127.479
127.544
127.603
127.681
127.746
127.835
127.908
127.99
128.097
128.115
132.924
126.591
126.157
126.493
126.581
126.513
126.435
126.375
126.316
126.251
126.194
126.16
126.159
126.191
126.253
126.334
126.427
126.522
126.612
126.69
126.76
126.82
126.878
126.931
126.99
127.047
127.116
127.179
127.259
127.328
127.418
127.495
127.579
127.698
127.719
132.248
125.952
125.502
125.805
125.867
125.78
125.683
125.597
125.501
125.39
125.285
125.212
125.186
125.208
125.271
125.362
125.467
125.574
125.674
125.763
125.841
125.91
125.976
126.039
126.108
126.174
126.251
126.322
126.408
126.483
126.574
126.657
126.735
126.856
126.858
131.464
125.22
124.743
124.99
125.008
124.902
124.809
124.737
124.655
124.559
124.477
124.437
124.452
124.519
124.623
124.746
124.872
124.991
125.096
125.185
125.262
125.332
125.399
125.465
125.536
125.606
125.686
125.76
125.847
125.924
126.018
126.103
126.184
126.315
126.325
130.701
124.51
123.983
124.181
124.169
124.039
123.914
123.798
123.66
123.51
123.385
123.321
123.33
123.405
123.521
123.657
123.794
123.92
124.032
124.127
124.213
124.291
124.368
124.444
124.524
124.601
124.686
124.764
124.854
124.933
125.027
125.116
125.194
125.327
125.317
129.71
123.585
123.037
123.175
123.117
122.967
122.844
122.733
122.601
122.465
122.375
122.367
122.443
122.579
122.744
122.913
123.066
123.197
123.307
123.398
123.479
123.556
123.634
123.712
123.795
123.875
123.962
124.042
124.134
124.214
124.309
124.399
124.479
124.62
124.618
128.743
122.696
122.062
122.133
122.034
121.85
121.678
121.497
121.291
121.098
120.982
120.977
121.074
121.236
121.423
121.604
121.764
121.898
122.009
122.106
122.195
122.282
122.371
122.458
122.547
122.631
122.719
122.8
122.891
122.974
123.068
123.162
123.239
123.382
123.364
127.445
121.483
120.816
120.821
120.673
120.459
120.268
120.072
119.869
119.721
119.694
119.803
120.01
120.257
120.497
120.703
120.867
120.996
121.099
121.188
121.271
121.355
121.441
121.529
121.618
121.704
121.794
121.877
121.969
122.055
122.151
122.247
122.327
122.477
122.468
126.128
120.27
119.486
119.414
119.216
118.945
118.668
118.372
118.095
117.928
117.934
118.104
118.372
118.661
118.921
119.129
119.289
119.413
119.516
119.611
119.705
119.799
119.894
119.985
120.076
120.161
120.249
120.332
120.425
120.513
120.612
120.714
120.795
120.947
120.926
124.418
118.68
117.821
117.677
117.417
117.078
116.731
116.394
116.158
116.131
116.339
116.705
117.12
117.495
117.787
117.995
118.142
118.253
118.348
118.435
118.521
118.606
118.693
118.779
118.866
118.953
119.044
119.133
119.233
119.328
119.432
119.538
119.623
119.783
119.769
122.453
116.847
115.881
115.683
115.356
114.898
114.4
113.951
113.702
113.766
114.116
114.616
115.115
115.518
115.801
115.987
116.115
116.219
116.318
116.417
116.517
116.61
116.7
116.782
116.865
116.947
117.038
117.131
117.237
117.34
117.451
117.567
117.655
117.821
117.795
120.094
114.677
113.548
113.264
112.825
112.19
111.527
111.06
110.997
111.36
111.994
112.697
113.307
113.742
114.007
114.162
114.273
114.377
114.481
114.578
114.664
114.739
114.811
114.883
114.967
115.06
115.164
115.274
115.395
115.51
115.633
115.754
115.85
116.028
115.996
116.402
111.28
110.41
110.255
109.642
108.674
107.708
107.086
106.984
107.355
108.023
108.764
109.393
109.815
110.042
110.159
110.255
110.377
110.527
110.681
110.814
110.91
110.98
111.035
111.097
111.17
111.268
111.379
111.507
111.636
111.775
111.907
112.026
112.207
112.198
110.884
106.5
105.695
105.767
105.025
103.561
101.942
101.067
101.232
102.011
102.927
103.676
104.142
104.353
104.421
104.469
104.578
104.77
105.004
105.224
105.381
105.461
105.492
105.504
105.533
105.592
105.689
105.81
105.945
106.093
106.239
106.384
106.519
106.684
106.738
95.8267
98.1068
99.2938
99.5144
97.6877
95.294
94.4039
95.079
96.4644
97.8477
98.8361
99.3794
99.6028
99.6422
99.6442
99.7101
99.8458
100.012
100.166
100.299
100.403
100.492
100.575
100.664
100.762
100.876
101.004
101.14
101.278
101.427
101.569
101.702
101.868
101.929
102.262
11.7243
11.4851
12.1693
12.6132
12.8173
12.823
12.6926
12.6985
12.6982
12.7783
12.8684
12.8664
12.8055
12.7684
12.7892
12.8507
12.9228
12.9836
13.0268
13.0559
13.074
13.0926
13.1073
13.1241
13.1496
13.1599
13.1978
13.1987
13.2531
13.2344
13.3057
13.2665
13.357
13.2774
13.4016
79.782
77.2385
76.6774
76.7674
76.8963
76.9527
76.9677
76.9666
76.952
76.9182
76.8664
76.8068
76.7512
76.707
76.6779
76.6642
76.6648
76.6763
76.6935
76.7127
76.7285
76.7426
76.7523
76.7625
76.7724
76.7836
76.7992
76.8129
76.8345
76.8496
76.8769
76.8932
76.926
76.9428
76.9872
79.5947
77.0513
76.474
76.5503
76.6708
76.7169
76.7169
76.6988
76.6729
76.64
76.6022
76.564
76.531
76.5052
76.49
76.4845
76.4928
76.5064
76.5318
76.5488
76.576
76.5837
76.6062
76.6066
76.6285
76.6286
76.6564
76.6595
76.6957
76.7015
76.7461
76.755
76.8004
76.8244
76.8574
79.3536
76.8103
76.223
76.2869
76.3997
76.4506
76.4694
76.4736
76.4573
76.4112
76.3394
76.2572
76.1825
76.1262
76.0942
76.0835
76.0931
76.1113
76.14
76.1621
76.1925
76.2078
76.2377
76.25
76.2828
76.2952
76.3328
76.3437
76.3864
76.3946
76.4428
76.4511
76.5011
76.5205
76.5622
79.038
76.4972
75.9164
75.9839
76.0948
76.1351
76.135
76.1196
76.0902
76.0421
75.9796
75.9155
75.8633
75.8301
75.8188
75.8267
75.8516
75.8856
75.9255
75.9609
75.9952
76.0185
76.0432
76.059
76.0815
76.0982
76.1252
76.1447
76.1781
76.1994
76.2368
76.2621
76.2954
76.333
76.3497
78.752
76.2218
75.6228
75.6663
75.756
75.776
75.7569
75.7268
75.6941
75.6585
75.623
75.5937
75.5762
75.5724
75.5831
75.6066
75.6413
75.6823
75.726
75.766
75.8023
75.8287
75.8548
75.8693
75.8935
75.905
75.9368
75.9512
75.9952
76.013
76.0676
76.0901
76.1463
76.1837
76.2312
78.3527
75.8297
75.2394
75.2852
75.376
75.3996
75.3851
75.3557
75.3136
75.2572
75.1938
75.136
75.0949
75.0752
75.0782
75.1001
75.1387
75.1839
75.2357
75.2787
75.3235
75.3512
75.3853
75.4024
75.4342
75.4495
75.4883
75.5046
75.5544
75.5714
75.6303
75.6494
75.7067
75.7381
75.7779
77.9269
75.4203
74.8222
74.8432
74.9063
74.9087
74.8838
74.8517
74.8082
74.7487
74.6818
74.6244
74.5906
74.5856
74.6086
74.6513
74.7084
74.7669
74.8281
74.8754
74.9246
74.9533
74.9919
75.0107
75.0473
75.0654
75.1079
75.1274
75.1789
75.199
75.2592
75.2811
75.3415
75.3788
75.4276
77.4315
74.9445
74.3502
74.3666
74.4274
74.4311
74.4065
74.366
74.3002
74.2061
74.0999
74.0066
73.9466
73.9268
73.9448
73.9894
74.0512
74.1167
74.1826
74.2372
74.2889
74.3253
74.3662
74.3922
74.4326
74.4562
74.5024
74.5252
74.5789
74.5999
74.6597
74.6814
74.7365
74.7709
74.8059
76.8709
74.4117
73.8164
73.8047
73.8295
73.8042
73.763
73.7141
73.6417
73.5426
73.4373
73.3557
73.3184
73.3289
73.3787
73.4515
73.5341
73.6128
73.6846
73.7419
73.7924
73.8295
73.8693
73.8974
73.9391
73.9648
74.0138
74.0385
74.0942
74.1177
74.1788
74.2037
74.2615
74.3021
74.3457
76.3065
73.8856
73.2869
73.265
73.2875
73.2638
73.2178
73.1484
73.0398
72.8977
72.7548
72.6483
72.6006
72.6117
72.6674
72.7469
72.8346
72.9164
72.9907
73.0501
73.1055
73.1467
73.1945
73.2277
73.2756
73.3054
73.3564
73.382
73.4376
73.4593
73.5193
73.5421
73.5962
73.6338
73.666
75.6217
73.2365
72.6427
72.5941
72.5792
72.5234
72.4533
72.361
72.2287
72.0705
71.9296
71.8471
71.8401
71.898
71.9963
72.108
72.2154
72.3066
72.3824
72.4402
72.492
72.532
72.5778
72.6133
72.6615
72.6946
72.7475
72.7746
72.8329
72.8547
72.9176
72.9409
72.9986
73.0402
73.0808
74.9151
72.5875
71.9808
71.9153
71.8962
71.8378
71.7495
71.6156
71.4282
71.2208
71.0515
70.9653
70.9717
71.0487
71.1629
71.2835
71.3933
71.4834
71.5578
71.6165
71.6726
71.7188
71.7732
71.8142
71.8688
71.9028
71.9561
71.9816
72.0366
72.0574
72.1163
72.1398
72.1927
72.2333
72.263
74.0281
71.7539
71.1544
71.0651
71.0066
70.9023
70.7613
70.5696
70.3361
70.1172
69.9808
69.962
70.0486
70.198
70.3646
70.5157
70.6386
70.7312
70.8025
70.8571
70.9079
70.9513
71.0016
71.043
71.0945
71.1314
71.1832
71.2122
71.2678
71.2919
71.3524
71.3797
71.4346
71.4818
71.5178
73.0854
70.8887
70.27
70.1663
70.1032
69.9801
69.7877
69.5208
69.2212
68.9743
68.8546
68.882
69.0208
69.2094
69.3953
69.549
69.6654
69.7497
69.8161
69.8715
69.9277
69.9788
70.0367
70.0814
70.1355
70.1691
70.2192
70.2442
70.2975
70.3207
70.3802
70.4082
70.4624
70.5082
70.5376
71.9087
69.8027
69.1888
69.0665
68.9555
68.7458
68.4343
68.0546
67.7033
67.4959
67.4905
67.6589
67.9205
68.1924
68.4211
68.5885
68.7041
68.7844
68.8471
68.8992
68.9498
68.9945
69.0431
69.0822
69.1293
69.164
69.2126
69.2441
69.3007
69.3308
69.395
69.4284
69.4862
69.5393
69.5735
70.5362
68.5278
67.9147
67.8115
67.6931
67.4128
66.9799
66.4886
66.0953
65.9299
66.0249
66.3067
66.6548
66.9682
67.1995
67.3494
67.4439
67.5099
67.5686
67.626
67.6854
67.7385
67.7906
67.8281
67.8723
67.9009
67.9481
67.9771
68.0365
68.069
68.1363
68.1741
68.2334
68.2876
68.3184
68.8771
67.0272
66.4092
66.2973
66.0924
65.6076
64.916
64.2487
63.8532
63.8338
64.1247
64.5758
65.0337
65.3951
65.6298
65.7664
65.8538
65.9252
65.9939
66.0559
66.1086
66.1479
66.182
66.2076
66.2449
66.2757
66.3299
66.3679
66.4414
66.4772
66.5607
66.5957
66.6688
66.7226
66.7643
66.4596
64.7041
64.3021
64.3613
64.0804
63.3347
62.3757
61.5666
61.1306
61.1224
61.4541
61.9516
62.4376
62.795
62.9959
63.0861
63.1385
63.2042
63.2973
63.4012
63.4956
63.5579
63.5975
63.6083
63.6274
63.6346
63.678
63.7058
63.7808
63.8185
63.9087
63.9471
64.0324
64.0848
64.1401
62.9029
61.4994
61.1199
61.4309
61.2457
60.2533
58.8016
57.6555
57.3294
57.6765
58.3136
58.9363
59.3775
59.5949
59.6486
59.6451
59.6783
59.7867
59.9541
60.1275
60.262
60.3287
60.3481
60.3276
60.3215
60.3098
60.3515
60.3775
60.4615
60.5054
60.6042
60.6514
60.7465
60.7962
60.8789
55.2039
57.9013
58.6444
58.8683
57.4875
55.0853
53.3715
53.1502
53.8264
54.7516
55.5173
55.9969
56.2358
56.3134
56.3196
56.3404
56.4111
56.5146
56.6208
56.7074
56.7677
56.803
56.8298
56.8473
56.8844
56.9138
56.9836
57.0246
57.1179
57.162
57.2602
57.3034
57.412
57.4131
57.6087
13.2403
12.9476
13.7276
14.2984
14.6374
14.7703
14.687
14.6594
14.6359
14.6894
14.7794
14.8074
14.7705
14.7296
14.7286
14.77
14.8342
14.899
14.9523
14.9918
15.0178
15.0402
15.0595
15.0745
15.1046
15.1127
15.1559
15.1535
15.2144
15.196
15.2693
15.2359
15.3243
15.2615
15.3723
52.8617
51.8625
51.4586
51.391
51.4269
51.4678
51.4971
51.5165
51.5254
51.5171
51.4881
51.444
51.3961
51.3532
51.3213
51.301
51.2926
51.2939
51.3012
51.3127
51.3221
51.3319
51.337
51.3418
51.3459
51.3484
51.3556
51.358
51.3697
51.3707
51.3871
51.3855
51.4072
51.3999
51.4332
52.6904
51.7015
51.2954
51.222
51.2545
51.2891
51.3065
51.3099
51.304
51.2881
51.2621
51.2293
51.1963
51.1667
51.1459
51.1315
51.1306
51.1317
51.1484
51.1544
51.1772
51.1772
51.1964
51.1899
51.206
51.1965
51.2151
51.206
51.2297
51.2213
51.2506
51.2431
51.2739
51.2696
51.3029
52.4916
51.5087
51.0996
51.0193
51.0463
51.0852
51.1206
51.1495
51.163
51.1493
51.1062
51.0435
50.9778
50.9214
50.8832
50.8612
50.8577
50.8606
50.877
50.8851
50.9071
50.9103
50.9321
50.932
50.9548
50.953
50.9791
50.9743
51.0035
50.9952
51.0267
51.0164
51.0489
51.0403
51.075
52.2539
51.2721
50.8662
50.7911
50.8205
50.8555
50.8779
50.8886
50.886
50.8634
50.8199
50.7645
50.7113
50.6701
50.6468
50.6393
50.6471
50.6633
50.6875
50.7093
50.7339
50.7479
50.7653
50.7718
50.7846
50.7889
50.8038
50.8076
50.8273
50.8309
50.8533
50.8573
50.8786
50.8841
50.9037
52.0113
51.0435
50.6361
50.5499
50.5652
50.5813
50.5824
50.574
50.5597
50.5377
50.5082
50.476
50.4485
50.4303
50.4244
50.4299
50.4461
50.4692
50.4968
50.5228
50.5486
50.564
50.5825
50.5855
50.6005
50.5972
50.6164
50.6125
50.6404
50.6378
50.6735
50.6733
50.7119
50.7155
50.7583
51.7099
50.747
50.3461
50.2669
50.2898
50.318
50.3329
50.3346
50.3213
50.2893
50.2408
50.1858
50.1375
50.1037
50.0891
50.09
50.1072
50.1299
50.1631
50.1882
50.2213
50.2355
50.2604
50.264
50.2843
50.2823
50.3071
50.3026
50.3356
50.3299
50.3699
50.364
50.4051
50.4001
50.4418
51.3792
50.4283
50.0296
49.939
49.9423
49.9498
49.9495
49.9416
49.9203
49.8787
49.8197
49.7568
49.7067
49.6786
49.6763
49.6922
49.7251
49.7595
49.8028
49.8317
49.87
49.8842
49.9131
49.9173
49.9416
49.9419
49.9697
49.9685
50.0031
50.0004
50.0423
50.0383
50.0833
50.0815
50.1314
50.9991
50.0614
49.672
49.5882
49.6011
49.6225
49.6355
49.6325
49.6021
49.5373
49.4469
49.3527
49.2776
49.2337
49.2236
49.2385
49.2721
49.311
49.3555
49.3908
49.4288
49.4496
49.479
49.4883
49.5152
49.5187
49.5491
49.5493
49.5857
49.5819
49.6237
49.6175
49.6595
49.6526
49.6955
50.5772
49.6552
49.2736
49.1789
49.1666
49.1598
49.1491
49.1271
49.079
48.9972
48.8944
48.7971
48.7303
48.7048
48.718
48.7563
48.8091
48.8621
48.9138
48.9537
48.9913
49.0134
49.0414
49.0519
49.0797
49.0844
49.1173
49.1192
49.1572
49.1564
49.1992
49.1964
49.2404
49.2392
49.2871
50.1433
49.2439
48.8725
48.7849
48.7863
48.7975
48.7995
48.775
48.7065
48.593
48.4582
48.3374
48.259
48.2313
48.2476
48.2901
48.3461
48.4002
48.4529
48.4925
48.5333
48.5568
48.591
48.6049
48.6375
48.6456
48.6802
48.6818
48.7201
48.7158
48.7578
48.7507
48.7927
48.7856
48.8288
49.6348
48.7564
48.3982
48.3035
48.2805
48.262
48.2328
48.1737
48.0676
47.9209
47.767
47.6478
47.5902
47.5951
47.6459
47.7177
47.7941
47.8603
47.9176
47.9585
47.997
48.0202
48.052
48.0676
48.1
48.1101
48.1469
48.1492
48.1906
48.1865
48.2315
48.2254
48.2706
48.2672
48.3157
49.0913
48.2465
47.8982
47.8118
47.8066
47.8067
47.7815
47.7025
47.5577
47.3696
47.1879
47.0613
47.0125
47.033
47.0979
47.1782
47.2567
47.321
47.3755
47.4148
47.455
47.4814
47.5202
47.5398
47.5783
47.5896
47.6268
47.6279
47.6656
47.6595
47.7004
47.6921
47.7337
47.7265
47.7702
48.4318
47.6218
47.2948
47.2097
47.1831
47.1436
47.0598
46.9081
46.6939
46.4617
46.2751
46.1805
46.186
46.2645
46.3769
46.4888
46.5843
46.6558
46.7112
46.7498
46.7865
46.8118
46.8461
46.8663
46.9006
46.9143
46.9491
46.953
46.991
46.9881
47.0301
47.0263
47.0691
47.0688
47.1152
47.7096
46.9462
46.6318
46.5653
46.564
46.5345
46.4272
46.2226
45.9521
45.6884
45.5074
45.4481
45.4992
45.6156
45.7492
45.8666
45.9571
46.0199
46.0681
46.104
46.1427
46.1727
46.2137
46.2367
46.2748
46.2859
46.3198
46.3197
46.3546
46.3491
46.3895
46.3835
46.4261
46.4219
46.4668
46.8256
46.1254
45.8452
45.7963
45.7751
45.6737
45.4442
45.1025
44.733
44.4451
44.3144
44.3482
44.4963
44.6883
44.8677
45.0055
45.1018
45.1657
45.2138
45.2501
45.2858
45.3126
45.3452
45.3636
45.3932
45.4042
45.4342
45.4388
45.4757
45.4759
45.5204
45.5204
45.5658
45.5689
45.6166
45.791
45.1503
44.9041
44.9113
44.9253
44.7969
44.4789
44.037
43.6125
43.338
43.277
43.4045
43.6351
43.8756
44.0677
44.1951
44.2726
44.3201
44.3593
44.3955
44.4357
44.4694
44.5059
44.5247
44.5536
44.5594
44.588
44.5889
44.6262
44.6265
44.6723
44.6733
44.721
44.7206
44.7722
44.5341
44.0021
43.81
43.8648
43.8415
43.5405
42.9591
42.2832
41.7544
41.518
41.5765
41.834
42.1625
42.4557
42.6625
42.7858
42.8593
42.9122
42.9621
43.008
43.0479
43.0755
43.0963
43.1039
43.1207
43.1243
43.1534
43.1594
43.2064
43.2096
43.2685
43.2687
43.3281
43.3261
43.3913
42.9379
42.3736
42.3127
42.5317
42.5047
42.0292
41.235
40.4321
39.8715
39.6602
39.7717
40.0846
40.4491
40.7465
40.926
41.0041
41.035
41.0661
41.1207
41.1916
41.2638
41.3142
41.3466
41.3472
41.3524
41.3364
41.3532
41.3471
41.3893
41.3925
41.4482
41.4536
41.5114
41.5159
41.5754
40.7158
40.3315
40.2026
40.6122
40.7726
40.2181
39.0944
37.9896
37.4339
37.4779
37.8744
38.3608
38.7536
38.9708
39.0298
39.0088
38.996
39.0405
39.148
39.2798
39.3976
39.4662
39.4929
39.4731
39.4584
39.4221
39.4343
39.4188
39.4685
39.4686
39.5308
39.5394
39.601
39.6051
39.6766
37.5618
40.3672
40.6297
40.5731
39.4442
37.3704
35.4806
34.771
35.0082
35.6215
36.205
36.5991
36.8132
36.9015
36.9194
36.928
36.9656
37.0284
37.1
37.1575
37.1949
37.2077
37.2113
37.1997
37.2086
37.2008
37.2394
37.2381
37.3018
37.3049
37.3682
37.3815
37.4438
37.4384
37.5511
14.4268
14.0787
14.9408
15.6198
16.0709
16.3242
16.323
16.2841
16.2343
16.2504
16.3249
16.3733
16.3645
16.3316
16.317
16.3369
16.3858
16.446
16.5037
16.5511
16.5858
16.6122
16.6377
16.6504
16.6852
16.6897
16.7383
16.7313
16.7966
16.7797
16.8515
16.8261
16.9073
16.8624
16.9583
37.6231
37.2106
36.9861
36.8953
36.8768
36.8863
36.9067
36.9303
36.9519
36.9627
36.9545
36.9274
36.89
36.8516
36.8197
36.7963
36.7821
36.7763
36.776
36.7814
36.7863
36.7933
36.797
36.7995
36.8023
36.8008
36.8054