/*--------------------------------*- C++ -*----------------------------------*\
  =========                 |
  \\      /  F ield         | OpenFOAM: The Open Source CFD Toolbox
   \\    /   O peration     | Website:  https://openfoam.org
    \\  /    A nd           | Version:  6
     \\/     M anipulation  |
\*---------------------------------------------------------------------------*/
FoamFile
{
    version     2.0;
    format      ascii;
    class       volScalarField;
    location    "2";
    object      p;
}
// * * * * * * * * * * * * * * * * * * * * * * * * * * * * * * * * * * * * * //

dimensions      [0 2 -2 0 0 0 0];

internalField   nonuniform List<scalar> 
380496
(
0.0144107
0.0147665
0.014535
0.0144759
0.0144373
0.0143946
0.0143529
0.0143075
0.0142577
0.014204
0.0141471
0.0140879
0.0140273
0.013966
0.0139041
0.0138417
0.0137782
0.0137131
0.0136459
0.0135758
0.0135023
0.0134249
0.0133432
0.0132566
0.0131648
0.0130671
0.0129632
0.0128521
0.0127337
0.0126068
0.0124724
0.0123272
0.0121779
0.0120106
0.0118569
0.0143771
0.0147245
0.0145057
0.0144539
0.0144208
0.0143823
0.0143429
0.0142981
0.0142476
0.0141919
0.0141319
0.0140688
0.0140036
0.013937
0.0138693
0.0138004
0.0137301
0.0136575
0.0135824
0.0135038
0.0134216
0.0133349
0.0132437
0.0131473
0.0130455
0.0129377
0.0128236
0.0127025
0.0125744
0.0124377
0.0122945
0.0121389
0.0119831
0.0117975
0.0116506
0.0143391
0.0146806
0.0144742
0.0144302
0.0144029
0.0143681
0.0143304
0.0142858
0.0142339
0.0141757
0.0141123
0.0140449
0.0139746
0.0139024
0.0138287
0.0137531
0.0136756
0.0135952
0.0135115
0.0134237
0.0133314
0.0132341
0.0131316
0.0130234
0.0129094
0.0127891
0.0126624
0.0125285
0.0123878
0.0122385
0.0120835
0.0119159
0.0117505
0.011554
0.0113983
0.0142931
0.0146327
0.0144411
0.0144073
0.0143875
0.0143581
0.0143233
0.0142794
0.0142267
0.0141663
0.0140994
0.0140278
0.0139528
0.0138754
0.013796
0.0137143
0.0136303
0.0135429
0.0134518
0.0133561
0.0132555
0.0131496
0.0130382
0.012921
0.0127978
0.0126683
0.0125325
0.0123897
0.0122404
0.0120826
0.0119196
0.0117437
0.0115696
0.0113642
0.0111918
0.014249
0.0145806
0.014407
0.014384
0.0143718
0.0143473
0.014315
0.0142716
0.0142179
0.0141551
0.014085
0.0140093
0.0139297
0.0138471
0.0137622
0.0136747
0.0135842
0.0134899
0.0133914
0.0132877
0.0131787
0.0130638
0.0129432
0.0128165
0.0126839
0.0125448
0.0123996
0.0122475
0.0120894
0.0119233
0.011753
0.0115703
0.0113943
0.0111838
0.0110299
0.0141918
0.0145243
0.0143715
0.0143619
0.0143593
0.0143411
0.014312
0.0142696
0.0142149
0.0141498
0.0140762
0.0139964
0.0139121
0.0138246
0.0137343
0.0136411
0.0135446
0.0134438
0.0133383
0.0132274
0.0131108
0.0129882
0.0128597
0.012725
0.0125844
0.0124375
0.0122848
0.0121253
0.0119603
0.0117874
0.0116109
0.0114214
0.0112392
0.0110189
0.010856
0.0141316
0.0144634
0.0143347
0.0143397
0.0143471
0.014335
0.0143088
0.014267
0.0142113
0.0141439
0.0140673
0.0139837
0.0138952
0.0138031
0.013708
0.0136095
0.0135074
0.0134006
0.0132887
0.0131708
0.013047
0.012917
0.012781
0.0126387
0.0124907
0.0123366
0.0121768
0.0120107
0.0118395
0.0116609
0.0114799
0.0112864
0.0111038
0.0108816
0.0107313
0.0140617
0.0143986
0.0142984
0.0143206
0.0143397
0.0143348
0.014312
0.0142709
0.014214
0.0141442
0.0140641
0.0139766
0.0138837
0.013787
0.013687
0.0135834
0.0134757
0.0133629
0.0132447
0.0131204
0.01299
0.0128532
0.0127105
0.0125616
0.0124072
0.0122468
0.0120812
0.0119095
0.0117331
0.0115495
0.011364
0.0111656
0.0109778
0.0107491
0.0105873
0.0139831
0.0143316
0.0142624
0.014303
0.014334
0.0143355
0.0143153
0.0142746
0.0142165
0.0141444
0.0140615
0.0139707
0.0138743
0.0137738
0.0136697
0.0135618
0.0134493
0.0133316
0.013208
0.0130781
0.012942
0.0127995
0.0126511
0.0124967
0.0123369
0.0121715
0.012001
0.0118249
0.0116446
0.0114576
0.0112695
0.011069
0.0108818
0.0106532
0.0105026
0.0139059
0.01427
0.0142322
0.0142913
0.014334
0.0143416
0.0143241
0.0142836
0.0142243
0.01415
0.0140642
0.0139702
0.0138704
0.0137662
0.0136581
0.013546
0.0134291
0.0133066
0.0131782
0.0130433
0.0129023
0.0127549
0.0126018
0.0124429
0.0122788
0.0121093
0.0119351
0.0117555
0.011572
0.0113821
0.0111913
0.0109883
0.0107979
0.0105653
0.0104059
0.0138117
0.0142056
0.0142017
0.0142811
0.0143359
0.0143489
0.0143331
0.0142923
0.0142314
0.014155
0.0140667
0.01397
0.0138672
0.0137599
0.0136486
0.0135329
0.0134122
0.0132857
0.0131531
0.013014
0.0128687
0.0127172
0.01256
0.0123973
0.0122296
0.0120567
0.0118795
0.0116972
0.0115114
0.0113195
0.0111274
0.0109234
0.0107339
0.0105022
0.0103521
0.0137179
0.014146
0.0141758
0.0142759
0.0143425
0.0143606
0.0143466
0.0143057
0.0142434
0.0141649
0.0140743
0.0139747
0.0138688
0.0137581
0.0136431
0.0135236
0.013399
0.0132684
0.0131318
0.0129888
0.0128396
0.0126845
0.0125238
0.0123579
0.0121872
0.0120115
0.0118318
0.0116472
0.0114595
0.0112659
0.0110723
0.0108669
0.0106752
0.0104414
0.0102826
0.0136015
0.0140871
0.0141522
0.0142749
0.014353
0.014375
0.0143614
0.014319
0.0142548
0.0141742
0.0140812
0.0139791
0.0138704
0.0137568
0.0136388
0.0135162
0.0133882
0.0132543
0.0131144
0.0129681
0.0128158
0.0126576
0.0124941
0.0123254
0.0121522
0.0119744
0.0117927
0.0116065
0.0114174
0.0112228
0.0110286
0.0108231
0.0106324
0.0104
0.0102487
0.0134833
0.0140344
0.0141312
0.0142764
0.0143656
0.0143912
0.0143785
0.0143355
0.0142699
0.0141875
0.0140925
0.0139879
0.0138763
0.0137592
0.0136377
0.0135115
0.0133801
0.0132428
0.0130997
0.0129504
0.0127953
0.0126345
0.0124686
0.0122978
0.0121226
0.011943
0.0117597
0.0115722
0.011382
0.0111867
0.0109919
0.0107859
0.0105939
0.0103607
0.0102014
0.0133438
0.0139903
0.0141179
0.0142869
0.0143854
0.0144122
0.0143982
0.0143528
0.0142848
0.0142003
0.0141031
0.0139959
0.0138814
0.0137614
0.013637
0.0135079
0.0133737
0.0132337
0.0130882
0.0129365
0.0127793
0.0126164
0.0124485
0.0122759
0.0120991
0.0119181
0.0117336
0.0115452
0.0113544
0.0111588
0.010964
0.0107585
0.0105677
0.0103364
0.0101832
0.0131932
0.0139505
0.0141012
0.0142946
0.0144027
0.0144314
0.0144169
0.0143704
0.0143012
0.0142156
0.0141169
0.0140077
0.0138903
0.0137668
0.0136387
0.0135061
0.0133689
0.0132263
0.0130785
0.0129247
0.0127657
0.0126011
0.0124318
0.0122578
0.0120798
0.0118977
0.0117124
0.0115234
0.0113322
0.0111365
0.0109416
0.0107366
0.0105453
0.0103142
0.010155
0.0130331
0.0139324
0.014102
0.0143179
0.0144307
0.0144577
0.0144402
0.0143903
0.0143186
0.0142312
0.0141308
0.0140187
0.0138979
0.0137709
0.0136399
0.0135047
0.0133653
0.0132207
0.0130714
0.0129161
0.0127559
0.01259
0.0124194
0.0122443
0.0120652
0.0118824
0.0116966
0.0115072
0.0113159
0.0111204
0.010926
0.0107221
0.0105322
0.010304
0.010151
0.0128467
0.0139108
0.0140884
0.0143309
0.0144504
0.0144767
0.0144572
0.014406
0.0143343
0.0142472
0.0141464
0.0140326
0.0139084
0.0137773
0.0136425
0.0135042
0.0133626
0.0132163
0.0130657
0.0129091
0.0127478
0.0125809
0.0124095
0.0122338
0.0120542
0.011871
0.0116848
0.0114954
0.011304
0.0111088
0.0109147
0.010712
0.0105222
0.0102958
0.0101424
0.0126747
0.0139307
0.0141046
0.0143634
0.0144821
0.0145053
0.0144822
0.0144274
0.0143537
0.014266
0.0141633
0.0140452
0.0139159
0.0137806
0.0136431
0.013503
0.0133606
0.0132134
0.0130623
0.0129049
0.0127429
0.0125752
0.0124033
0.0122269
0.012047
0.0118637
0.0116773
0.0114881
0.0112968
0.0111021
0.0109085
0.0107075
0.0105182
0.0102992
0.0101341
0.0124747
0.0139187
0.0140946
0.0143817
0.0145033
0.0145226
0.0144953
0.0144387
0.0143658
0.0142793
0.0141766
0.0140569
0.0139243
0.0137851
0.0136446
0.0135027
0.0133594
0.0132117
0.0130602
0.0129022
0.0127399
0.0125716
0.0123995
0.0122229
0.012043
0.0118597
0.0116732
0.0114842
0.0112927
0.0110986
0.010905
0.0107056
0.0105153
0.0103022
0.0101208
0.012394
0.0139673
0.0141268
0.0144212
0.0145392
0.014557
0.0145284
0.0144682
0.0143888
0.0142936
0.0141814
0.0140538
0.0139173
0.0137786
0.0136404
0.0135004
0.0133581
0.0132109
0.0130596
0.0129016
0.0127392
0.0125709
0.0123987
0.0122221
0.0120421
0.0118589
0.0116724
0.0114834
0.0112921
0.0110981
0.0109053
0.0107069
0.0105219
0.0103152
0.0101785
0.0144099
0.014765
0.0145349
0.0144759
0.0144373
0.0143946
0.0143529
0.0143075
0.0142577
0.014204
0.0141471
0.0140879
0.0140273
0.013966
0.0139041
0.0138417
0.0137782
0.0137131
0.0136459
0.0135758
0.0135023
0.0134249
0.0133432
0.0132567
0.0131649
0.0130672
0.0129632
0.0128522
0.0127338
0.0126069
0.0124725
0.0123274
0.0121781
0.0120108
0.0118571
0.0143762
0.0147231
0.0145056
0.0144539
0.0144209
0.0143823
0.0143429
0.0142981
0.0142476
0.0141919
0.0141319
0.0140688
0.0140036
0.013937
0.0138693
0.0138004
0.0137301
0.0136575
0.0135824
0.0135039
0.0134216
0.013335
0.0132437
0.0131473
0.0130455
0.0129377
0.0128237
0.0127026
0.0125745
0.0124378
0.0122946
0.012139
0.0119833
0.0117977
0.0116509
0.0143381
0.0146793
0.0144741
0.0144302
0.0144029
0.0143681
0.0143304
0.0142857
0.0142339
0.0141757
0.0141123
0.0140449
0.0139746
0.0139025
0.0138287
0.0137532
0.0136757
0.0135952
0.0135116
0.0134237
0.0133315
0.0132341
0.0131316
0.0130234
0.0129095
0.0127892
0.0126625
0.0125285
0.0123879
0.0122386
0.0120836
0.0119161
0.0117506
0.0115541
0.0113984
0.0142922
0.0146313
0.0144411
0.0144073
0.0143875
0.0143581
0.0143232
0.0142794
0.0142267
0.0141662
0.0140994
0.0140279
0.0139529
0.0138754
0.013796
0.0137144
0.0136303
0.0135429
0.0134518
0.0133561
0.0132555
0.0131496
0.0130383
0.012921
0.0127979
0.0126684
0.0125326
0.0123897
0.0122404
0.0120827
0.0119197
0.0117438
0.0115697
0.0113644
0.011192
0.0142479
0.0145793
0.0144069
0.014384
0.0143718
0.0143473
0.0143149
0.0142716
0.0142179
0.0141551
0.014085
0.0140093
0.0139297
0.0138472
0.0137622
0.0136747
0.0135842
0.01349
0.0133914
0.0132877
0.0131787
0.0130638
0.0129433
0.0128166
0.0126839
0.0125449
0.0123997
0.0122476
0.0120895
0.0119233
0.0117531
0.0115704
0.0113944
0.011184
0.0110301
0.0141907
0.014523
0.0143714
0.0143619
0.0143593
0.0143411
0.014312
0.0142696
0.0142149
0.0141498
0.0140762
0.0139964
0.0139121
0.0138246
0.0137343
0.0136411
0.0135446
0.0134438
0.0133384
0.0132274
0.0131108
0.0129882
0.0128597
0.012725
0.0125845
0.0124376
0.0122848
0.0121254
0.0119604
0.0117874
0.011611
0.0114215
0.0112393
0.0110191
0.0108561
0.0141306
0.0144621
0.0143346
0.0143397
0.0143471
0.014335
0.0143088
0.014267
0.0142113
0.014144
0.0140673
0.0139837
0.0138952
0.0138032
0.013708
0.0136096
0.0135075
0.0134006
0.0132887
0.0131708
0.0130471
0.012917
0.012781
0.0126388
0.0124907
0.0123366
0.0121769
0.0120107
0.0118395
0.011661
0.01148
0.0112865
0.0111038
0.0108818
0.0107314
0.0140606
0.0143973
0.0142983
0.0143206
0.0143398
0.0143348
0.0143119
0.0142709
0.014214
0.0141442
0.0140641
0.0139766
0.0138838
0.0137871
0.013687
0.0135834
0.0134757
0.0133629
0.0132447
0.0131204
0.01299
0.0128532
0.0127105
0.0125617
0.0124072
0.0122469
0.0120812
0.0119095
0.0117331
0.0115496
0.011364
0.0111657
0.0109779
0.0107492
0.0105873
0.013982
0.0143305
0.0142624
0.0143031
0.014334
0.0143354
0.0143153
0.0142746
0.0142165
0.0141445
0.0140615
0.0139707
0.0138743
0.0137738
0.0136698
0.0135618
0.0134494
0.0133316
0.013208
0.0130782
0.012942
0.0127995
0.0126511
0.0124967
0.0123369
0.0121715
0.0120011
0.011825
0.0116446
0.0114577
0.0112695
0.0110691
0.0108819
0.0106533
0.0105026
0.0139047
0.0142689
0.0142321
0.0142913
0.014334
0.0143416
0.014324
0.0142836
0.0142243
0.01415
0.0140643
0.0139702
0.0138704
0.0137662
0.0136582
0.013546
0.0134291
0.0133066
0.0131782
0.0130433
0.0129023
0.0127549
0.0126018
0.0124429
0.0122788
0.0121093
0.0119351
0.0117555
0.011572
0.0113821
0.0111914
0.0109883
0.0107979
0.0105654
0.0104059
0.0138106
0.0142045
0.0142016
0.0142812
0.0143359
0.0143489
0.0143331
0.0142923
0.0142314
0.014155
0.0140668
0.01397
0.0138672
0.01376
0.0136486
0.0135329
0.0134122
0.0132857
0.0131531
0.013014
0.0128687
0.0127172
0.01256
0.0123973
0.0122296
0.0120567
0.0118795
0.0116972
0.0115114
0.0113195
0.0111274
0.0109234
0.0107339
0.0105023
0.0103521
0.0137166
0.014145
0.0141758
0.0142759
0.0143425
0.0143606
0.0143466
0.0143057
0.0142434
0.014165
0.0140743
0.0139747
0.0138688
0.0137581
0.0136431
0.0135236
0.013399
0.0132684
0.0131318
0.0129888
0.0128396
0.0126845
0.0125239
0.0123579
0.0121872
0.0120116
0.0118318
0.0116473
0.0114595
0.011266
0.0110723
0.0108669
0.0106753
0.0104414
0.0102826
0.0136004
0.0140861
0.0141521
0.0142749
0.014353
0.0143749
0.0143614
0.014319
0.0142548
0.0141742
0.0140812
0.0139791
0.0138704
0.0137568
0.0136388
0.0135162
0.0133882
0.0132543
0.0131144
0.0129681
0.0128158
0.0126576
0.0124941
0.0123254
0.0121523
0.0119744
0.0117927
0.0116065
0.0114174
0.0112229
0.0110287
0.0108231
0.0106324
0.0104
0.0102487
0.0134821
0.0140335
0.0141311
0.0142764
0.0143656
0.0143912
0.0143785
0.0143355
0.0142699
0.0141876
0.0140926
0.0139879
0.0138763
0.0137592
0.0136377
0.0135115
0.01338
0.0132428
0.0130997
0.0129504
0.0127953
0.0126346
0.0124686
0.0122978
0.0121226
0.011943
0.0117597
0.0115722
0.011382
0.0111868
0.0109919
0.0107859
0.0105939
0.0103607
0.0102014
0.0133427
0.0139894
0.0141179
0.0142869
0.0143854
0.0144122
0.0143982
0.0143528
0.0142848
0.0142003
0.0141031
0.0139959
0.0138814
0.0137614
0.013637
0.0135079
0.0133736
0.0132337
0.0130882
0.0129365
0.0127793
0.0126164
0.0124485
0.0122759
0.0120991
0.0119181
0.0117336
0.0115452
0.0113544
0.0111589
0.010964
0.0107586
0.0105677
0.0103364
0.0101832
0.0131921
0.0139498
0.0141012
0.0142946
0.0144028
0.0144314
0.014417
0.0143705
0.0143013
0.0142156
0.014117
0.0140077
0.0138902
0.0137668
0.0136387
0.0135061
0.0133689
0.0132263
0.0130785
0.0129247
0.0127657
0.0126011
0.0124318
0.0122578
0.0120798
0.0118977
0.0117124
0.0115234
0.0113322
0.0111365
0.0109417
0.0107366
0.0105453
0.0103143
0.010155
0.013032
0.0139318
0.014102
0.0143179
0.0144308
0.0144578
0.0144403
0.0143903
0.0143186
0.0142313
0.0141307
0.0140187
0.0138978
0.0137709
0.0136399
0.0135046
0.0133653
0.0132207
0.0130714
0.0129161
0.0127559
0.01259
0.0124194
0.0122443
0.0120653
0.0118825
0.0116966
0.0115072
0.0113159
0.0111205
0.0109261
0.0107221
0.0105322
0.0103041
0.0101511
0.0128459
0.0139102
0.0140884
0.0143309
0.0144505
0.0144768
0.0144573
0.0144061
0.0143343
0.0142472
0.0141463
0.0140325
0.0139083
0.0137772
0.0136424
0.0135041
0.0133626
0.0132163
0.0130657
0.0129091
0.0127478
0.0125809
0.0124095
0.0122338
0.0120542
0.0118711
0.0116848
0.0114954
0.011304
0.0111089
0.0109147
0.010712
0.0105222
0.0102959
0.0101424
0.0126737
0.0139303
0.0141046
0.0143635
0.0144823
0.0145055
0.0144824
0.0144274
0.0143537
0.014266
0.0141632
0.0140451
0.0139159
0.0137806
0.013643
0.013503
0.0133606
0.0132134
0.0130623
0.0129049
0.012743
0.0125752
0.0124033
0.0122269
0.012047
0.0118637
0.0116773
0.0114881
0.0112968
0.0111021
0.0109086
0.0107075
0.0105183
0.0102993
0.010134
0.0124735
0.0139187
0.014095
0.0143823
0.0145039
0.0145229
0.0144954
0.0144386
0.0143656
0.014279
0.0141764
0.0140568
0.0139242
0.013785
0.0136445
0.0135027
0.0133593
0.0132117
0.0130602
0.0129022
0.0127399
0.0125716
0.0123996
0.0122229
0.012043
0.0118597
0.0116732
0.0114842
0.0112927
0.0110986
0.010905
0.0107056
0.0105153
0.0103022
0.0101207
0.0123953
0.0139682
0.0141275
0.0144214
0.014539
0.0145566
0.014528
0.0144678
0.0143885
0.0142934
0.0141814
0.0140538
0.0139174
0.0137786
0.0136404
0.0135004
0.0133581
0.0132109
0.0130596
0.0129016
0.0127392
0.0125709
0.0123987
0.0122221
0.0120421
0.0118589
0.0116724
0.0114834
0.0112921
0.011098
0.0109053
0.0107069
0.0105219
0.0103152
0.0101785
0.0144125
0.0147624
0.0145347
0.014476
0.0144374
0.0143946
0.0143529
0.0143075
0.0142577
0.014204
0.0141471
0.0140879
0.0140273
0.013966
0.0139041
0.0138417
0.0137782
0.0137131
0.0136459
0.0135758
0.0135023
0.0134249
0.0133432
0.0132567
0.0131649
0.0130672
0.0129632
0.0128522
0.0127338
0.0126069
0.0124725
0.0123274
0.0121781
0.0120108
0.0118572
0.0143787
0.0147206
0.0145054
0.014454
0.0144209
0.0143823
0.0143429
0.0142981
0.0142476
0.0141919
0.0141319
0.0140688
0.0140036
0.013937
0.0138693
0.0138004
0.0137301
0.0136575
0.0135824
0.0135039
0.0134216
0.013335
0.0132437
0.0131474
0.0130456
0.0129378
0.0128237
0.0127026
0.0125745
0.0124379
0.0122947
0.0121391
0.0119833
0.0117977
0.011651
0.0143406
0.0146768
0.0144739
0.0144303
0.0144029
0.0143681
0.0143304
0.0142857
0.0142339
0.0141757
0.0141123
0.0140449
0.0139746
0.0139025
0.0138287
0.0137532
0.0136757
0.0135952
0.0135116
0.0134237
0.0133315
0.0132341
0.0131316
0.0130234
0.0129095
0.0127892
0.0126625
0.0125285
0.0123879
0.0122386
0.0120836
0.0119161
0.0117506
0.0115542
0.0113985
0.0142947
0.0146289
0.0144409
0.0144074
0.0143876
0.0143581
0.0143232
0.0142794
0.0142267
0.0141663
0.0140994
0.0140279
0.0139529
0.0138755
0.013796
0.0137144
0.0136303
0.0135429
0.0134518
0.0133561
0.0132555
0.0131497
0.0130383
0.012921
0.0127979
0.0126684
0.0125326
0.0123898
0.0122405
0.0120827
0.0119197
0.0117439
0.0115697
0.0113644
0.011192
0.0142503
0.0145769
0.0144067
0.0143841
0.0143718
0.0143473
0.0143149
0.0142716
0.0142179
0.0141551
0.014085
0.0140094
0.0139297
0.0138472
0.0137622
0.0136747
0.0135842
0.01349
0.0133914
0.0132877
0.0131787
0.0130638
0.0129433
0.0128166
0.0126839
0.0125449
0.0123997
0.0122476
0.0120895
0.0119234
0.0117531
0.0115704
0.0113944
0.011184
0.0110302
0.0141931
0.0145207
0.0143713
0.014362
0.0143594
0.0143412
0.014312
0.0142696
0.0142149
0.0141498
0.0140762
0.0139964
0.0139121
0.0138246
0.0137343
0.0136411
0.0135446
0.0134438
0.0133383
0.0132274
0.0131108
0.0129882
0.0128597
0.012725
0.0125845
0.0124376
0.0122849
0.0121254
0.0119604
0.0117875
0.011611
0.0114215
0.0112393
0.0110191
0.0108561
0.0141329
0.0144599
0.0143345
0.0143398
0.0143471
0.014335
0.0143088
0.014267
0.0142113
0.014144
0.0140673
0.0139838
0.0138952
0.0138032
0.013708
0.0136096
0.0135075
0.0134006
0.0132887
0.0131708
0.0130471
0.012917
0.012781
0.0126388
0.0124907
0.0123366
0.0121769
0.0120107
0.0118395
0.011661
0.01148
0.0112865
0.0111039
0.0108818
0.0107316
0.0140629
0.0143952
0.0142982
0.0143207
0.0143398
0.0143348
0.0143119
0.0142709
0.014214
0.0141442
0.0140642
0.0139766
0.0138838
0.0137871
0.013687
0.0135834
0.0134757
0.0133629
0.0132447
0.0131204
0.01299
0.0128532
0.0127105
0.0125617
0.0124072
0.0122469
0.0120812
0.0119095
0.0117331
0.0115496
0.011364
0.0111657
0.0109779
0.0107492
0.0105874
0.0139842
0.0143284
0.0142622
0.0143031
0.014334
0.0143354
0.0143153
0.0142746
0.0142165
0.0141445
0.0140616
0.0139707
0.0138743
0.0137739
0.0136698
0.0135618
0.0134494
0.0133316
0.013208
0.0130781
0.012942
0.0127995
0.0126511
0.0124967
0.0123369
0.0121715
0.0120011
0.011825
0.0116447
0.0114577
0.0112695
0.0110691
0.0108819
0.0106534
0.0105028
0.0139068
0.014267
0.014232
0.0142913
0.014334
0.0143416
0.014324
0.0142836
0.0142243
0.01415
0.0140643
0.0139703
0.0138704
0.0137662
0.0136582
0.013546
0.0134291
0.0133066
0.0131782
0.0130433
0.0129023
0.0127549
0.0126018
0.0124429
0.0122788
0.0121093
0.0119351
0.0117555
0.011572
0.0113822
0.0111914
0.0109883
0.0107979
0.0105655
0.010406
0.0138126
0.0142026
0.0142015
0.0142812
0.0143359
0.0143489
0.0143331
0.0142923
0.0142314
0.014155
0.0140668
0.01397
0.0138672
0.01376
0.0136486
0.0135329
0.0134122
0.0132857
0.0131531
0.013014
0.0128687
0.0127172
0.01256
0.0123973
0.0122296
0.0120568
0.0118795
0.0116972
0.0115114
0.0113196
0.0111274
0.0109234
0.0107339
0.0105023
0.0103523
0.0137185
0.0141433
0.0141756
0.0142759
0.0143425
0.0143606
0.0143467
0.0143057
0.0142435
0.014165
0.0140743
0.0139748
0.0138688
0.0137581
0.0136431
0.0135236
0.0133989
0.0132684
0.0131318
0.0129888
0.0128396
0.0126845
0.0125239
0.0123579
0.0121872
0.0120116
0.0118318
0.0116473
0.0114595
0.011266
0.0110723
0.010867
0.0106753
0.0104415
0.0102826
0.0136022
0.0140845
0.014152
0.0142749
0.0143531
0.0143749
0.0143613
0.014319
0.0142548
0.0141742
0.0140812
0.0139791
0.0138704
0.0137568
0.0136388
0.0135161
0.0133882
0.0132543
0.0131144
0.0129681
0.0128158
0.0126576
0.0124941
0.0123254
0.0121523
0.0119744
0.0117927
0.0116065
0.0114174
0.0112229
0.0110287
0.0108231
0.0106324
0.0104001
0.0102489
0.0134838
0.0140321
0.014131
0.0142764
0.0143657
0.0143912
0.0143785
0.0143356
0.01427
0.0141876
0.0140926
0.0139879
0.0138763
0.0137592
0.0136377
0.0135114
0.01338
0.0132428
0.0130997
0.0129504
0.0127953
0.0126346
0.0124687
0.0122978
0.0121227
0.011943
0.0117597
0.0115722
0.0113821
0.0111868
0.0109919
0.010786
0.0105939
0.0103608
0.0102014
0.0133443
0.0139881
0.0141178
0.014287
0.0143855
0.0144122
0.0143982
0.0143529
0.0142849
0.0142004
0.0141031
0.0139959
0.0138813
0.0137614
0.0136369
0.0135078
0.0133736
0.0132337
0.0130882
0.0129365
0.0127793
0.0126164
0.0124486
0.012276
0.0120991
0.0119181
0.0117336
0.0115453
0.0113545
0.0111589
0.0109641
0.0107586
0.0105677
0.0103365
0.0101834
0.0131935
0.0139485
0.0141011
0.0142947
0.0144028
0.0144315
0.0144171
0.0143705
0.0143014
0.0142157
0.014117
0.0140077
0.0138902
0.0137667
0.0136387
0.0135061
0.0133689
0.0132263
0.0130785
0.0129247
0.0127657
0.0126011
0.0124318
0.0122579
0.0120798
0.0118978
0.0117125
0.0115235
0.0113322
0.0111365
0.0109417
0.0107366
0.0105453
0.0103143
0.010155
0.0130333
0.0139308
0.014102
0.0143179
0.0144308
0.0144578
0.0144404
0.0143905
0.0143187
0.0142313
0.0141307
0.0140186
0.0138978
0.0137708
0.0136398
0.0135046
0.0133652
0.0132207
0.0130714
0.0129161
0.0127559
0.01259
0.0124194
0.0122444
0.0120653
0.0118825
0.0116966
0.0115073
0.0113159
0.0111205
0.0109261
0.0107222
0.0105322
0.0103042
0.0101512
0.012847
0.0139092
0.0140883
0.014331
0.0144506
0.014477
0.0144575
0.0144063
0.0143344
0.0142471
0.0141462
0.0140323
0.0139082
0.0137771
0.0136424
0.0135041
0.0133626
0.0132162
0.0130657
0.0129091
0.0127478
0.0125809
0.0124095
0.0122338
0.0120542
0.0118711
0.0116848
0.0114954
0.011304
0.0111089
0.0109147
0.010712
0.0105222
0.0102959
0.0101426
0.0126746
0.0139297
0.0141045
0.0143636
0.0144825
0.0145057
0.0144826
0.0144275
0.0143536
0.0142658
0.014163
0.0140449
0.0139157
0.0137805
0.013643
0.013503
0.0133606
0.0132134
0.0130623
0.0129049
0.012743
0.0125752
0.0124033
0.0122269
0.012047
0.0118638
0.0116773
0.0114881
0.0112968
0.0111022
0.0109086
0.0107075
0.0105183
0.0102993
0.010134
0.0124739
0.0139182
0.0140954
0.0143832
0.0145049
0.0145236
0.0144957
0.0144385
0.0143652
0.0142785
0.014176
0.0140565
0.0139241
0.013785
0.0136445
0.0135026
0.0133593
0.0132116
0.0130602
0.0129023
0.01274
0.0125717
0.0123996
0.012223
0.012043
0.0118597
0.0116732
0.0114842
0.0112927
0.0110986
0.010905
0.0107056
0.0105153
0.0103021
0.0101201
0.0123964
0.0139692
0.0141282
0.0144218
0.0145389
0.0145562
0.0145275
0.0144674
0.0143882
0.0142933
0.0141814
0.0140538
0.0139174
0.0137786
0.0136403
0.0135004
0.0133581
0.0132109
0.0130596
0.0129016
0.0127392
0.0125709
0.0123987
0.0122221
0.0120421
0.0118589
0.0116724
0.0114833
0.0112921
0.011098
0.0109053
0.0107069
0.0105219
0.0103153
0.0101789
0.0144159
0.0147589
0.0145345
0.014476
0.0144374
0.0143946
0.0143529
0.0143075
0.0142577
0.014204
0.0141471
0.0140879
0.0140273
0.013966
0.0139041
0.0138417
0.0137782
0.0137131
0.0136459
0.0135758
0.0135023
0.0134249
0.0133432
0.0132567
0.0131649
0.0130672
0.0129632
0.0128522
0.0127338
0.0126069
0.0124725
0.0123274
0.0121781
0.0120109
0.0118574
0.014382
0.0147171
0.0145052
0.014454
0.014421
0.0143823
0.0143429
0.0142982
0.0142476
0.0141919
0.0141319
0.0140688
0.0140036
0.013937
0.0138693
0.0138004
0.0137301
0.0136575
0.0135824
0.0135039
0.0134216
0.013335
0.0132438
0.0131474
0.0130456
0.0129378
0.0128237
0.0127026
0.0125746
0.0124379
0.0122947
0.0121391
0.0119834
0.0117979
0.0116512
0.0143439
0.0146734
0.0144737
0.0144303
0.014403
0.0143681
0.0143304
0.0142857
0.0142338
0.0141757
0.0141122
0.0140448
0.0139746
0.0139024
0.0138287
0.0137532
0.0136756
0.0135952
0.0135115
0.0134237
0.0133314
0.0132341
0.0131316
0.0130234
0.0129095
0.0127892
0.0126625
0.0125285
0.0123879
0.0122386
0.0120836
0.0119161
0.0117506
0.0115542
0.0113985
0.014298
0.0146256
0.0144407
0.0144074
0.0143877
0.0143581
0.0143233
0.0142794
0.0142267
0.0141663
0.0140995
0.0140279
0.0139529
0.0138755
0.013796
0.0137144
0.0136303
0.0135429
0.0134518
0.0133561
0.0132556
0.0131497
0.0130383
0.012921
0.0127979
0.0126684
0.0125326
0.0123898
0.0122405
0.0120828
0.0119197
0.0117439
0.0115698
0.0113645
0.0111921
0.0142535
0.0145737
0.0144065
0.0143841
0.0143719
0.0143473
0.0143149
0.0142716
0.0142179
0.0141552
0.0140851
0.0140094
0.0139297
0.0138472
0.0137622
0.0136747
0.0135842
0.01349
0.0133914
0.0132877
0.0131787
0.0130638
0.0129433
0.0128166
0.0126839
0.0125449
0.0123997
0.0122476
0.0120895
0.0119234
0.0117532
0.0115705
0.0113944
0.0111841
0.0110304
0.0141962
0.0145175
0.0143711
0.014362
0.0143594
0.0143412
0.014312
0.0142696
0.0142149
0.0141498
0.0140763
0.0139965
0.0139122
0.0138246
0.0137343
0.0136411
0.0135446
0.0134438
0.0133383
0.0132274
0.0131108
0.0129882
0.0128597
0.012725
0.0125845
0.0124376
0.0122849
0.0121254
0.0119604
0.0117875
0.011611
0.0114216
0.0112393
0.0110192
0.0108563
0.0141359
0.0144568
0.0143343
0.0143398
0.0143471
0.014335
0.0143088
0.014267
0.0142113
0.014144
0.0140673
0.0139838
0.0138953
0.0138032
0.013708
0.0136096
0.0135074
0.0134006
0.0132887
0.0131708
0.013047
0.012917
0.012781
0.0126388
0.0124907
0.0123366
0.0121769
0.0120108
0.0118396
0.011661
0.01148
0.0112865
0.0111039
0.0108819
0.0107318
0.0140658
0.0143922
0.014298
0.0143207
0.0143398
0.0143348
0.014312
0.0142709
0.014214
0.0141442
0.0140642
0.0139766
0.0138838
0.0137871
0.013687
0.0135834
0.0134757
0.0133629
0.0132447
0.0131204
0.01299
0.0128532
0.0127105
0.0125617
0.0124072
0.0122469
0.0120812
0.0119095
0.0117331
0.0115496
0.011364
0.0111658
0.0109779
0.0107493
0.0105876
0.013987
0.0143255
0.014262
0.0143031
0.0143341
0.0143354
0.0143152
0.0142745
0.0142165
0.0141445
0.0140616
0.0139707
0.0138743
0.0137739
0.0136698
0.0135618
0.0134493
0.0133316
0.013208
0.0130781
0.012942
0.0127995
0.0126511
0.0124967
0.0123369
0.0121715
0.0120011
0.011825
0.0116447
0.0114577
0.0112695
0.0110692
0.0108819
0.0106535
0.010503
0.0139095
0.0142643
0.0142318
0.0142914
0.014334
0.0143416
0.014324
0.0142836
0.0142243
0.0141501
0.0140643
0.0139703
0.0138704
0.0137662
0.0136581
0.013546
0.013429
0.0133065
0.0131782
0.0130433
0.0129023
0.0127549
0.0126018
0.0124429
0.0122788
0.0121093
0.0119351
0.0117555
0.011572
0.0113822
0.0111914
0.0109884
0.0107979
0.0105656
0.0104062
0.0138152
0.0142
0.0142013
0.0142812
0.014336
0.0143489
0.0143331
0.0142923
0.0142314
0.014155
0.0140668
0.01397
0.0138672
0.0137599
0.0136486
0.0135329
0.0134122
0.0132857
0.0131531
0.013014
0.0128687
0.0127172
0.01256
0.0123973
0.0122296
0.0120568
0.0118795
0.0116972
0.0115114
0.0113196
0.0111274
0.0109235
0.0107339
0.0105024
0.0103526
0.0137209
0.0141409
0.0141755
0.0142759
0.0143425
0.0143607
0.0143467
0.0143057
0.0142435
0.014165
0.0140744
0.0139748
0.0138688
0.0137581
0.0136431
0.0135236
0.0133989
0.0132684
0.0131318
0.0129887
0.0128396
0.0126845
0.0125239
0.0123579
0.0121872
0.0120116
0.0118318
0.0116473
0.0114595
0.011266
0.0110723
0.010867
0.0106753
0.0104416
0.0102828
0.0136046
0.0140821
0.0141519
0.014275
0.0143531
0.014375
0.0143613
0.014319
0.0142549
0.0141742
0.0140812
0.0139791
0.0138704
0.0137568
0.0136388
0.0135161
0.0133882
0.0132543
0.0131144
0.0129681
0.0128158
0.0126576
0.0124941
0.0123255
0.0121523
0.0119744
0.0117927
0.0116065
0.0114174
0.0112229
0.0110287
0.0108232
0.0106324
0.0104002
0.0102491
0.0134859
0.0140299
0.0141308
0.0142764
0.0143657
0.0143913
0.0143785
0.0143356
0.0142701
0.0141877
0.0140926
0.013988
0.0138762
0.0137592
0.0136376
0.0135114
0.01338
0.0132427
0.0130997
0.0129504
0.0127953
0.0126346
0.0124687
0.0122978
0.0121227
0.011943
0.0117597
0.0115723
0.0113821
0.0111868
0.0109919
0.010786
0.0105939
0.0103609
0.0102016
0.0133463
0.0139861
0.0141177
0.014287
0.0143855
0.0144123
0.0143982
0.0143529
0.014285
0.0142004
0.0141031
0.0139959
0.0138813
0.0137613
0.0136369
0.0135078
0.0133736
0.0132337
0.0130882
0.0129365
0.0127793
0.0126164
0.0124486
0.012276
0.0120991
0.0119181
0.0117337
0.0115453
0.0113545
0.0111589
0.0109641
0.0107586
0.0105677
0.0103366
0.0101836
0.0131953
0.0139468
0.014101
0.0142947
0.0144028
0.0144315
0.0144172
0.0143707
0.0143015
0.0142158
0.014117
0.0140076
0.0138901
0.0137666
0.0136386
0.013506
0.0133688
0.0132263
0.0130785
0.0129247
0.0127656
0.0126011
0.0124318
0.0122579
0.0120798
0.0118978
0.0117125
0.0115235
0.0113322
0.0111366
0.0109417
0.0107366
0.0105453
0.0103144
0.0101552
0.0130348
0.0139294
0.014102
0.014318
0.0144309
0.014458
0.0144406
0.0143906
0.0143189
0.0142314
0.0141307
0.0140185
0.0138976
0.0137707
0.0136397
0.0135045
0.0133652
0.0132207
0.0130714
0.0129161
0.0127559
0.01259
0.0124194
0.0122444
0.0120653
0.0118825
0.0116966
0.0115073
0.0113159
0.0111205
0.0109261
0.0107222
0.0105322
0.0103043
0.0101515
0.0128484
0.0139078
0.0140882
0.014331
0.0144508
0.0144773
0.0144579
0.0144065
0.0143345
0.0142471
0.014146
0.0140321
0.0139079
0.013777
0.0136423
0.013504
0.0133625
0.0132162
0.0130656
0.012909
0.0127478
0.0125809
0.0124095
0.0122338
0.0120542
0.0118711
0.0116848
0.0114954
0.011304
0.0111089
0.0109147
0.010712
0.0105221
0.010296
0.0101428
0.0126759
0.0139287
0.0141045
0.0143637
0.014483
0.0145062
0.014483
0.0144277
0.0143535
0.0142654
0.0141625
0.0140445
0.0139154
0.0137803
0.0136429
0.0135029
0.0133605
0.0132134
0.0130623
0.0129049
0.012743
0.0125752
0.0124033
0.012227
0.012047
0.0118638
0.0116773
0.0114881
0.0112968
0.0111021
0.0109086
0.0107075
0.0105182
0.0102993
0.010134
0.0124756
0.0139169
0.0140954
0.014384
0.0145062
0.0145248
0.0144963
0.0144385
0.0143647
0.0142778
0.0141753
0.014056
0.0139238
0.0137849
0.0136445
0.0135026
0.0133592
0.0132116
0.0130601
0.0129022
0.01274
0.0125717
0.0123996
0.012223
0.012043
0.0118597
0.0116732
0.0114842
0.0112927
0.0110985
0.010905
0.0107056
0.0105153
0.0103019
0.0101187
0.0123965
0.0139703
0.0141293
0.0144225
0.0145391
0.0145557
0.0145269
0.0144668
0.0143878
0.0142931
0.0141814
0.0140538
0.0139174
0.0137786
0.0136403
0.0135004
0.0133581
0.0132109
0.0130596
0.0129017
0.0127392
0.0125709
0.0123987
0.0122221
0.0120421
0.0118589
0.0116724
0.0114833
0.0112921
0.011098
0.0109053
0.0107069
0.0105219
0.0103155
0.0101797
0.0144202
0.0147545
0.0145343
0.014476
0.0144374
0.0143946
0.0143529
0.0143075
0.0142577
0.014204
0.0141471
0.0140879
0.0140273
0.013966
0.0139041
0.0138417
0.0137782
0.0137131
0.0136458
0.0135758
0.0135023
0.0134249
0.0133432
0.0132567
0.0131649
0.0130672
0.0129632