/*--------------------------------*- C++ -*----------------------------------*\
  =========                 |
  \\      /  F ield         | OpenFOAM: The Open Source CFD Toolbox
   \\    /   O peration     | Website:  https://openfoam.org
    \\  /    A nd           | Version:  6
     \\/     M anipulation  |
\*---------------------------------------------------------------------------*/
FoamFile
{
    version     2.0;
    format      ascii;
    class       volVectorField;
    location    "2";
    object      wallShearStress;
}
// * * * * * * * * * * * * * * * * * * * * * * * * * * * * * * * * * * * * * //

dimensions      [0 2 -2 0 0 0 0];

internalField   uniform (0 0 0);

boundaryField
{
    inlet
    {
        type            calculated;
        value           uniform (0 0 0);
    }
    outlet
    {
        type            calculated;
        value           uniform (0 0 0);
    }
    roughCylinder
    {
        type            calculated;
        value           nonuniform List<vector> 
3840
(
(-0.000206863 -0.000270128 -0.000120387)
(-0.000228134 -0.00038157 -4.2865e-05)
(-0.000322054 -0.000537381 4.38007e-05)
(-0.00038922 -0.000601788 0.000106867)
(-0.00045904 -0.000639099 0.000158046)
(-0.000503555 -0.000630739 0.000188257)
(-0.00054183 -0.000617386 0.000207013)
(-0.00056414 -0.000599892 0.000217655)
(-0.000580592 -0.000587716 0.000225086)
(-0.000587871 -0.000576591 0.000226392)
(-0.00059668 -0.000574161 0.000225537)
(-0.000602631 -0.000574272 0.000220932)
(-0.000603829 -0.000573386 0.000212169)
(-0.000599839 -0.000569977 0.000199778)
(-0.00059688 -0.000569066 0.000186546)
(-0.000598398 -0.000572494 0.000173661)
(-0.000608714 -0.000584587 0.000162067)
(-0.000593332 -0.000573661 0.000143279)
(-0.000589684 -0.000573251 0.000126991)
(-0.000586349 -0.000572458 0.000109344)
(-0.000574227 -0.000564107 8.85098e-05)
(-0.000565334 -0.000558069 6.6283e-05)
(-0.000552871 -0.000548069 4.11476e-05)
(-0.000547156 -0.000543792 1.40347e-05)
(-0.000110059 -0.000128145 -5.58621e-05)
(-0.000248656 -0.000377453 -5.01687e-05)
(-0.000347479 -0.000535528 3.54935e-05)
(-0.000418494 -0.000605076 9.97871e-05)
(-0.000491828 -0.000645767 0.000152022)
(-0.000539594 -0.000641076 0.000183126)
(-0.000581304 -0.000632005 0.000203412)
(-0.000606479 -0.000616892 0.000216357)
(-0.00062419 -0.000603199 0.00022491)
(-0.000631234 -0.000590531 0.000226669)
(-0.000641992 -0.000588803 0.000226632)
(-0.000648208 -0.000588557 0.000222186)
(-0.000649822 -0.000588018 0.00021374)
(-0.000644729 -0.000583951 0.000201334)
(-0.000643356 -0.00058461 0.00018886)
(-0.00064426 -0.000587459 0.000176004)
(-0.000655578 -0.000600034 0.000164752)
(-0.000644432 -0.000594072 0.000147386)
(-0.000632235 -0.000586338 0.000129457)
(-0.000634806 -0.000591353 0.00011296)
(-0.000619623 -0.00058113 9.14486e-05)
(-0.000607928 -0.000573186 6.84221e-05)
(-0.00059395 -0.000562616 4.24783e-05)
(-0.000588276 -0.000558787 1.44969e-05)
(-0.000225424 -0.000231029 -9.56615e-05)
(-0.000269585 -0.000368275 -5.73966e-05)
(-0.000373415 -0.000527534 2.5892e-05)
(-0.000448226 -0.000602388 9.13671e-05)
(-0.000524969 -0.000646494 0.000144564)
(-0.000576501 -0.000646591 0.000177103)
(-0.000622734 -0.00064313 0.000199668)
(-0.000650367 -0.000630062 0.000214542)
(-0.000670839 -0.000616744 0.000224679)
(-0.000678475 -0.000603133 0.000227212)
(-0.000688948 -0.000599912 0.000227144)
(-0.000696941 -0.000600558 0.000223377)
(-0.000697998 -0.000599467 0.000214971)
(-0.000692631 -0.000595523 0.000202883)
(-0.000691998 -0.000596889 0.000190922)
(-0.00069433 -0.000601023 0.000178732)
(-0.000704245 -0.00061196 0.000167293)
(-0.000691443 -0.000605349 0.000150029)
(-0.000685724 -0.000604365 0.000133773)
(-0.000678718 -0.000601085 0.000115522)
(-0.000666217 -0.000594412 9.43942e-05)
(-0.000655018 -0.000587898 7.09617e-05)
(-0.000640048 -0.000577478 4.41082e-05)
(-0.000634103 -0.000573868 1.50531e-05)
(-0.000206242 -0.000184689 -7.03855e-05)
(-0.00028657 -0.000351048 -6.35871e-05)
(-0.000398975 -0.000515083 1.54305e-05)
(-0.000477238 -0.000594951 8.18929e-05)
(-0.000558078 -0.000643504 0.000136111)
(-0.000614249 -0.000649772 0.00017066)
(-0.000664243 -0.000650982 0.000195532)
(-0.000695407 -0.000640949 0.000212583)
(-0.000717965 -0.000628047 0.00022415)
(-0.000725671 -0.000612376 0.000227204)
(-0.000738357 -0.00060972 0.000227922)
(-0.000745855 -0.000609187 0.000224107)
(-0.00074778 -0.000608712 0.000216231)
(-0.000742362 -0.000605067 0.000204564)
(-0.000742915 -0.00060746 0.000193264)
(-0.000744345 -0.000610899 0.000181194)
(-0.000753102 -0.000620624 0.000169794)
(-0.000746056 -0.000619693 0.000154274)
(-0.000731977 -0.000612489 0.000136705)
(-0.000731181 -0.000615164 0.000119666)
(-0.000714286 -0.000605984 9.76994e-05)
(-0.000699949 -0.00059794 7.34069e-05)
(-0.000683421 -0.000587362 4.56407e-05)
(-0.000677146 -0.00058395 1.55716e-05)
(-0.000443202 -0.000345288 -0.000114722)
(-0.000305968 -0.0003331 -7.00586e-05)
(-0.000421327 -0.000496142 4.23695e-06)
(-0.000504093 -0.000581628 7.13723e-05)
(-0.000589133 -0.000635097 0.000126429)
(-0.000650281 -0.000648171 0.000163195)
(-0.000705135 -0.000655023 0.000190828)
(-0.000738801 -0.000647034 0.000209815)
(-0.000764583 -0.000635969 0.0002231)
(-0.000775131 -0.000620143 0.000227429)
(-0.000787294 -0.000615609 0.000228217)
(-0.000796312 -0.000615423 0.000225008)
(-0.000797977 -0.000614561 0.000217377)
(-0.000793665 -0.000612066 0.000206479)
(-0.000793856 -0.000614245 0.000195493)
(-0.000796391 -0.000618704 0.000184141)
(-0.000802639 -0.000626393 0.000172607)
(-0.000794484 -0.000625201 0.000157414)
(-0.000787749 -0.000625082 0.000141669)
(-0.000774577 -0.00061864 0.00012267)
(-0.000761608 -0.000614081 0.000101232)
(-0.000746624 -0.000606935 7.63132e-05)
(-0.000728767 -0.00059672 4.74852e-05)
(-0.000722213 -0.000593813 1.61979e-05)
(-0.000484906 -0.000325013 -8.6733e-05)
(-0.000325115 -0.00031262 -7.67075e-05)
(-0.000442521 -0.00047394 -6.94265e-06)
(-0.000529495 -0.000564269 6.00057e-05)
(-0.000618944 -0.000623108 0.000115892)
(-0.000685493 -0.000643281 0.000155051)
(-0.000744164 -0.000654451 0.000185243)
(-0.000782601 -0.000650334 0.000206832)
(-0.000810795 -0.000640282 0.000221456)
(-0.000823156 -0.000623841 0.000226838)
(-0.000838024 -0.000619407 0.000228733)
(-0.000846054 -0.000617465 0.000225466)
(-0.000849203 -0.000617429 0.000218625)
(-0.000845675 -0.000615714 0.000208446)
(-0.00084633 -0.000618366 0.000198069)
(-0.000847669 -0.000622145 0.000186999)
(-0.000851451 -0.00062817 0.000175526)
(-0.000848784 -0.00063189 0.000162041)
(-0.000834204 -0.000626962 0.000145342)
(-0.000827407 -0.000626781 0.000127633)
(-0.000807652 -0.000618958 0.000105073)
(-0.000789334 -0.000611438 7.92414e-05)
(-0.00076996 -0.000601896 4.93382e-05)
(-0.000762298 -0.000598904 1.68051e-05)
(-0.000560239 -0.000318887 -6.09504e-05)
(-0.000337102 -0.000285693 -8.08795e-05)
(-0.000459654 -0.000445691 -1.82823e-05)
(-0.000550581 -0.000541148 4.75438e-05)
(-0.000644933 -0.000605968 0.000104117)
(-0.000717505 -0.00063364 0.000145764)
(-0.000782044 -0.000650548 0.000178994)
(-0.000823075 -0.000648247 0.000202623)
(-0.000855184 -0.000640346 0.000218973)
(-0.000872391 -0.0006261 0.000226277)
(-0.000887447 -0.00061911 0.000228577)
(-0.00089717 -0.000617296 0.000226139)
(-0.00090028 -0.000616734 0.000219744)
(-0.000898696 -0.000616466 0.00021062)
(-0.000898025 -0.000618415 0.000200555)
(-0.000899948 -0.000622991 0.000190308)
(-0.000901502 -0.000627922 0.000179105)
(-0.000896334 -0.000630524 0.000165852)
(-0.00088873 -0.000632356 0.000151001)
(-0.000867345 -0.000623852 0.000131322)
(-0.000851809 -0.000621694 0.000109364)
(-0.00083043 -0.000614566 8.25631e-05)
(-0.000808498 -0.000605123 5.13507e-05)
(-0.000800234 -0.000602378 1.74662e-05)
(-0.000621787 -0.000297951 -2.86812e-05)
(-0.000360747 -0.000267001 -8.66262e-05)
(-0.000474719 -0.000414714 -2.98845e-05)
(-0.000569303 -0.000515259 3.43723e-05)
(-0.000668354 -0.000585769 9.14745e-05)
(-0.000746814 -0.00062046 0.000135561)
(-0.000815249 -0.000641028 0.000171314)
(-0.000862787 -0.000643425 0.000197884)
(-0.000898764 -0.000637438 0.000216036)
(-0.000917918 -0.00062347 0.000224477)
(-0.000937897 -0.000617433 0.000228497)
(-0.000946544 -0.000613077 0.000226324)
(-0.000951552 -0.000613209 0.00022095)
(-0.000950862 -0.000613508 0.000212711)
(-0.00095025 -0.000615813 0.000203417)
(-0.000950587 -0.000619815 0.000193675)
(-0.000949375 -0.000623665 0.00018283)
(-0.000947682 -0.000630163 0.000171139)
(-0.000932195 -0.000628867 0.000155683)
(-0.00091586 -0.000626866 0.000137239)
(-0.000889334 -0.000619592 0.000113595)
(-0.000864054 -0.000612238 8.5729e-05)
(-0.000840692 -0.000603712 5.3305e-05)
(-0.000830911 -0.000600513 1.80768e-05)
(-0.000742165 -0.00029529 9.29143e-06)
(-0.000388033 -0.000247447 -9.26028e-05)
(-0.000482695 -0.000378008 -4.09092e-05)
(-0.00058121 -0.00048329 2.0418e-05)
(-0.000685266 -0.000559905 7.75954e-05)
(-0.000770546 -0.000602057 0.000124052)
(-0.000846664 -0.000628825 0.000162896)
(-0.000897402 -0.000633101 0.000191621)
(-0.00093797 -0.000629458 0.000211832)
(-0.000963228 -0.000618597 0.000222486)
(-0.000984283 -0.000611534 0.000227364)
(-0.000996124 -0.000607141 0.000226602)
(-0.00100112 -0.000606078 0.000221946)
(-0.00100263 -0.000607522 0.000214987)
(-0.00100022 -0.00060931 0.000206262)
(-0.00100034 -0.000614201 0.00019754)
(-0.000997689 -0.000618688 0.000187574)
(-0.000989962 -0.000623118 0.000175841)
(-0.000978708 -0.000627061 0.000161933)
(-0.000945475 -0.000616805 0.000141304)
(-0.000923464 -0.00061515 0.000118262)
(-0.000893122 -0.000607014 8.91214e-05)
(-0.000865938 -0.000597826 5.52281e-05)
(-0.000855325 -0.000594697 1.8681e-05)
(-0.000719859 -0.00023246 4.77196e-05)
(-0.000417144 -0.000225928 -9.84048e-05)
(-0.000489163 -0.000340913 -5.11624e-05)
(-0.000590057 -0.000449354 6.06793e-06)
(-0.000698381 -0.000531597 6.29949e-05)
(-0.000790048 -0.000580308 0.000111574)
(-0.000870015 -0.000609938 0.000152581)
(-0.000929267 -0.000619574 0.000184415)
(-0.000975557 -0.000618751 0.000207007)
(-0.00100304 -0.000608389 0.000219147)
(-0.00102942 -0.000603197 0.000225981)
(-0.00104144 -0.000597449 0.000226081)
(-0.00104927 -0.000596829 0.000222961)
(-0.00105137 -0.000598348 0.000217167)
(-0.00104874 -0.000600747 0.000209583)
(-0.00104617 -0.00060533 0.000201602)
(-0.00103966 -0.000609316 0.000192207)
(-0.00103203 -0.000615581 0.00018163)
(-0.0010123 -0.000616536 0.000167187)
(-0.000982767 -0.000611835 0.000147663)
(-0.000945535 -0.00060315 0.000122429)
(-0.000911436 -0.000595311 9.22665e-05)
(-0.000883032 -0.000587358 5.71331e-05)
(-0.000870537 -0.000583617 1.92428e-05)
(-0.000772615 -0.000195913 8.74053e-05)
(-0.000441402 -0.000199503 -0.000102145)
(-0.000487011 -0.000299022 -5.9629e-05)
(-0.000589134 -0.000409159 -8.45298e-06)
(-0.000701779 -0.000497196 4.72917e-05)
(-0.000800907 -0.000552844 9.76142e-05)
(-0.000890942 -0.00058921 0.000141486)
(-0.000954526 -0.000600873 0.000175517)
(-0.0010059 -0.000602207 0.000200375)
(-0.00104085 -0.000595442 0.000215275)
(-0.00106824 -0.000589668 0.000223327)
(-0.0010841 -0.000585039 0.000225297)
(-0.00109243 -0.000583894 0.000223434)
(-0.00109667 -0.000586418 0.000219327)
(-0.00109184 -0.000588384 0.000212688)
(-0.0010874 -0.000593145 0.000205796)
(-0.00107911 -0.000597876 0.000197512)
(-0.00106274 -0.000600966 0.000186691)
(-0.00104388 -0.000604701 0.000173482)
(-0.000996444 -0.000592651 0.00015185)
(-0.0009637 -0.000589686 0.00012737)
(-0.000921589 -0.000579772 9.55878e-05)
(-0.000887471 -0.000570229 5.8816e-05)
(-0.000873812 -0.000566427 1.97274e-05)
(-0.000756988 -0.000143756 0.000116623)
(-0.000470174 -0.000172656 -0.000104975)
(-0.000485115 -0.000258877 -6.73119e-05)
(-0.000584696 -0.000368161 -2.27239e-05)
(-0.00070031 -0.000461159 3.10775e-05)
(-0.000806376 -0.000522983 8.26809e-05)
(-0.000900051 -0.000561283 0.000128176)
(-0.000974019 -0.000578354 0.000165196)
(-0.00103328 -0.000583086 0.00019285)
(-0.00107088 -0.000576877 0.000209674)
(-0.00110435 -0.000573361 0.000220229)
(-0.00112049 -0.000568081 0.000223569)
(-0.00113156 -0.000567768 0.000223638)
(-0.00113543 -0.000570029 0.000220918)
(-0.00113024 -0.000572672 0.000215815)
(-0.0011224 -0.000576964 0.000209961)
(-0.00110904 -0.00058073 0.000202416)
(-0.00109028 -0.000584667 0.000192749)
(-0.00106191 -0.000585421 0.00017921)
(-0.00101512 -0.000577638 0.000158502)
(-0.000962096 -0.000565961 0.000131205)
(-0.000916311 -0.000557008 9.84668e-05)
(-0.000880907 -0.000549131 6.04681e-05)
(-0.000865102 -0.000544844 2.01608e-05)
(-0.000737241 -9.59364e-05 0.000140989)
(-0.000495785 -0.000143004 -0.000104975)
(-0.00047319 -0.000215302 -7.22169e-05)
(-0.000567667 -0.0003214 -3.59224e-05)
(-0.000685615 -0.000418799 1.42533e-05)
(-0.000799151 -0.000486993 6.61687e-05)
(-0.000905578 -0.000532503 0.000114016)
(-0.0009854 -0.00055151 0.000153126)
(-0.00105013 -0.000557768 0.00018307)
(-0.00109667 -0.000555247 0.000203113)
(-0.00113143 -0.000551404 0.000215463)
(-0.00115211 -0.000547729 0.000221292)
(-0.00116352 -0.000547138 0.000223071)
(-0.001169 -0.000550203 0.000222386)
(-0.00116122 -0.000552569 0.000218671)
(-0.00114999 -0.000556609 0.000214144)
(-0.00113376 -0.000560845 0.000208033)
(-0.0011035 -0.000561256 0.000198166)
(-0.00107092 -0.00056222 0.000185425)
(-0.00100537 -0.000548403 0.000162647)
(-0.000956317 -0.000543182 0.000136261)
(-0.0008986 -0.000531202 0.000101418)
(-0.000855358 -0.000521165 6.16531e-05)
(-0.000838122 -0.000516928 2.04271e-05)
(-0.000776231 -5.65463e-05 0.000174178)
(-0.000525874 -0.000114384 -0.000103888)
(-0.000464905 -0.0001753 -7.5684e-05)
(-0.000547622 -0.000275519 -4.77919e-05)
(-0.000665329 -0.000375805 -2.455e-06)
(-0.000785496 -0.000449852 4.88459e-05)
(-0.000895205 -0.000496758 9.75047e-05)
(-0.000987086 -0.000520643 0.00013924)
(-0.00106208 -0.000530234 0.000172157)
(-0.00111195 -0.000528058 0.00019449)
(-0.0011539 -0.0005266 0.00020998)
(-0.0011753 -0.00052268 0.000217869)
(-0.0011895 -0.000523013 0.000222139)
(-0.00119345 -0.000525525 0.000223214)
(-0.00118464 -0.000528527 0.00022151)
(-0.00116885 -0.000532109 0.000218428)
(-0.0011448 -0.000534724 0.000213156)
(-0.00110956 -0.000535518 0.000204526)
(-0.00106525 -0.000533695 0.000191448)
(-0.000995949 -0.000523405 0.000169218)
(-0.000921158 -0.000508982 0.000139222)
(-0.000860006 -0.000499183 0.000103617)
(-0.000815201 -0.000490999 6.27353e-05)
(-0.000795676 -0.000486348 2.06082e-05)
(-0.000761034 -1.35127e-05 0.000193428)
(-0.000546395 -8.42866e-05 -9.93641e-05)
(-0.000445998 -0.000133619 -7.50173e-05)
(-0.000513056 -0.000225522 -5.65265e-05)
(-0.000628354 -0.000326655 -1.84032e-05)
(-0.000754479 -0.00040624 3.04064e-05)
(-0.000879396 -0.000461267 8.00809e-05)
(-0.000978999 -0.000487145 0.000123641)
(-0.0010601 -0.000497087 0.000158797)
(-0.00112054 -0.00049804 0.000184629)
(-0.00116422 -0.000496217 0.000202501)
(-0.00119098 -0.000494031 0.000213635)
(-0.00120536 -0.000494152 0.000220264)
(-0.00121017 -0.000497297 0.000223926)
(-0.00119772 -0.00050006 0.000224135)
(-0.00117647 -0.000503119 0.000222671)
(-0.00114703 -0.000505796 0.000218985)
(-0.00109752 -0.000503638 0.000210121)
(-0.00104281 -0.00050113 0.000197254)
(-0.000953806 -0.000486742 0.000172915)
(-0.000882031 -0.000479723 0.00014401)
(-0.00080446 -0.000465279 0.000105588)
(-0.00075013 -0.000453955 6.29334e-05)
(-0.000729162 -0.000449179 2.0476e-05)
(-0.000739833 2.61643e-05 0.000207971)
(-0.000567775 -5.5437e-05 -9.42756e-05)
(-0.000435948 -9.76197e-05 -7.30295e-05)
(-0.000477993 -0.000178901 -6.23768e-05)
(-0.000586416 -0.000278517 -3.28905e-05)
(-0.00071646 -0.000362868 1.19113e-05)
(-0.000843273 -0.00041931 6.05601e-05)
(-0.000956635 -0.000450311 0.000105926)
(-0.00105094 -0.00046329 0.000144217)
(-0.00111578 -0.000463472 0.000172639)
(-0.00116796 -0.000463471 0.000194163)
(-0.00119582 -0.000461118 0.000208099)
(-0.0012128 -0.000462059 0.000217972)
(-0.00121465 -0.000464456 0.000223956)
(-0.00119981 -0.000467763 0.000226688)
(-0.00117234 -0.000470704 0.000227051)
(-0.00113108 -0.000471863 0.000224079)
(-0.00107337 -0.000470706 0.000216476)
(-0.00100353 -0.000466417 0.000203083)
(-0.000906018 -0.000454786 0.000178644)
(-0.000803437 -0.000437291 0.000144889)
(-0.000723241 -0.000424965 0.00010604)
(-0.00066751 -0.000414691 6.26869e-05)
(-0.000644661 -0.000409196 2.01378e-05)
(-0.000645251 5.56522e-05 0.000196729)
(-0.000569949 -2.6656e-05 -8.61353e-05)
(-0.000414507 -6.30676e-05 -6.64553e-05)
(-0.000428199 -0.000131093 -6.26475e-05)
(-0.000524844 -0.000225272 -4.40812e-05)
(-0.000656575 -0.000313061 -6.09124e-06)
(-0.000800098 -0.000378649 4.05585e-05)
(-0.000922607 -0.000412723 8.6548e-05)
(-0.00102422 -0.00042606 0.000126907)
(-0.0011018 -0.000428516 0.0001592)
(-0.00115629 -0.000427033 0.000183719)
(-0.00119021 -0.000425584 0.00020163)
(-0.00120699 -0.000425961 0.000214584)
(-0.00120859 -0.000429011 0.000223807)
(-0.00118816 -0.000432414 0.000228941)
(-0.00115247 -0.000435377 0.000231177)
(-0.00110251 -0.000437409 0.000229931)
(-0.00102743 -0.000434029 0.000221846)
(-0.000940886 -0.000428354 0.0002076)
(-0.000821873 -0.000412785 0.000180345)
(-0.000722247 -0.00040176 0.00014787)
(-0.00062325 -0.000381551 0.000105406)
(-0.000558499 -0.000366573 6.08122e-05)
(-0.000534941 -0.000360496 1.92466e-05)
(-0.000635527 8.51839e-05 0.000205832)
(-0.000571501 -7.70629e-07 -7.86788e-05)
(-0.000404622 -3.50461e-05 -5.92372e-05)
(-0.00038327 -8.98135e-05 -5.92182e-05)
(-0.000462536 -0.000176302 -5.19397e-05)
(-0.000590866 -0.000265456 -2.25651e-05)
(-0.000732245 -0.000331748 1.96614e-05)
(-0.000869845 -0.000372162 6.52581e-05)
(-0.000987686 -0.00039005 0.000108126)
(-0.00107126 -0.000391559 0.000143431)
(-0.00113597 -0.000391313 0.000172352)
(-0.0011714 -0.000388656 0.000193911)
(-0.00119015 -0.00038918 0.00021079)
(-0.00118708 -0.000391511 0.00022296)
(-0.0011622 -0.000395807 0.000231165)
(-0.00111771 -0.000399288 0.000235545)
(-0.00105115 -0.000399885 0.000234517)
(-0.000963737 -0.000397306 0.000227062)
(-0.000857422 -0.000389102 0.000211041)
(-0.000728711 -0.000374131 0.000182944)
(-0.000596777 -0.000348741 0.000143701)
(-0.000498453 -0.000329146 0.000101699)
(-0.000434387 -0.000313864 5.77539e-05)
(-0.000410329 -0.000306635 1.79171e-05)
(-0.000621107 0.000110389 0.000208206)
(-0.000562382 2.14787e-05 -7.05973e-05)
(-0.000380497 -1.11224e-05 -4.80247e-05)
(-0.00032508 -5.16685e-05 -4.93657e-05)
(-0.000378805 -0.000124716 -5.29154e-05)
(-0.000500067 -0.000212073 -3.54102e-05)
(-0.000657851 -0.000287569 -4.17187e-07)
(-0.000804455 -0.000331954 4.3108e-05)
(-0.000930303 -0.000351524 8.69534e-05)
(-0.00102935 -0.000356113 0.000126262)
(-0.00109697 -0.000353956 0.000158746)
(-0.00113895 -0.000351706 0.000185067)
(-0.001157 -0.000351456 0.000205899)
(-0.00115211 -0.000354259 0.000222029)
(-0.00111877 -0.000358508 0.000232918)
(-0.00106252 -0.000362016 0.00023901)
(-0.00098352 -0.000363602 0.000239192)
(-0.000875169 -0.000357966 0.000230002)
(-0.000750077 -0.000346535 0.000211535)
(-0.000598504 -0.000322876 0.000178223)
(-0.000474074 -0.000302051 0.000141172)
(-0.000360286 -0.000270415 9.51184e-05)
(-0.000291403 -0.000248199 5.17364e-05)
(-0.000268746 -0.000240045 1.5652e-05)
(-0.000548908 0.000117843 0.000185279)
(-0.00054627 3.96302e-05 -6.27638e-05)
(-0.000369361 6.88667e-06 -3.70499e-05)
(-0.00027914 -2.28277e-05 -3.72413e-05)
(-0.000305953 -8.26565e-05 -4.96467e-05)
(-0.00040928 -0.000164141 -4.4516e-05)
(-0.000555023 -0.000236909 -1.88503e-05)
(-0.00071731 -0.00028865 2.0414e-05)
(-0.000862066 -0.000314629 6.49968e-05)
(-0.000967639 -0.000319733 0.000106994)
(-0.00104763 -0.000319135 0.000144416)
(-0.00109143 -0.00031545 0.000175051)
(-0.00111037 -0.000315065 0.0002005)
(-0.00109861 -0.000317099 0.000220057)
(-0.00105795 -0.000322126 0.000234155)
(-0.000989223 -0.000325778 0.000241891)
(-0.000889149 -0.000324725 0.000240786)
(-0.000766829 -0.000317528 0.000230676)
(-0.000618498 -0.000298776 0.000206911)
(-0.000465873 -0.000273939 0.000172935)
(-0.000314203 -0.000231798 0.000125871)
(-0.000210379 -0.000198716 8.2942e-05)
(-0.0001496 -0.000175594 4.37061e-05)
(-0.000129506 -0.000166072 1.27264e-05)
(-0.000530819 0.000129447 0.000173749)
(-0.000520343 5.22318e-05 -5.50409e-05)
(-0.000338333 1.89959e-05 -2.32646e-05)
(-0.000219679 -1.13109e-06 -2.0938e-05)
(-0.000209258 -4.1987e-05 -3.66255e-05)
(-0.000293123 -0.00011202 -4.51241e-05)
(-0.000451664 -0.000191511 -3.43405e-05)
(-0.000619493 -0.000246516 -1.41158e-06)
(-0.000771517 -0.000275076 4.21986e-05)
(-0.00089478 -0.000285243 8.7299e-05)
(-0.000977155 -0.000283938 0.000128126)
(-0.00102743 -0.000280845 0.000163768)
(-0.00104451 -0.000279694 0.000193597)
(-0.00102892 -0.000282119 0.000217424)
(-0.000976357 -0.000286356 0.000233785)
(-0.000892208 -0.00028863 0.000242014)
(-0.000778768 -0.000286475 0.000240648)
(-0.000632878 -0.000271908 0.000225046)
(-0.000474772 -0.000248082 0.000197396)
(-0.000300803 -0.000204695 0.000152183)
(-0.000172868 -0.000166967 0.000112075)
(-6.74057e-05 -0.000114344 6.37707e-05)
(-1.56621e-05 -7.67478e-05 2.80771e-05)
(-3.86517e-06 -6.63725e-05 7.50948e-06)
(-0.000500877 0.000131953 0.000150226)
(-0.000492817 5.94661e-05 -4.77116e-05)
(-0.000324198 2.73522e-05 -1.06482e-05)
(-0.000178089 1.24519e-05 -5.61613e-06)
(-0.000146499 -1.58539e-05 -2.38701e-05)
(-0.000192059 -7.05923e-05 -4.13824e-05)
(-0.00031751 -0.00013783 -4.34315e-05)
(-0.00050015 -0.000200515 -2.06152e-05)
(-0.000672736 -0.00023735 2.08584e-05)
(-0.000800383 -0.000249083 6.70513e-05)
(-0.000896426 -0.000251313 0.000111818)
(-0.000947923 -0.000247933 0.000151421)
(-0.000964411 -0.000246739 0.000185894)
(-0.00093887 -0.000247971 0.000212748)
(-0.000876288 -0.000251505 0.000231364)
(-0.000777473 -0.000251758 0.000239315)
(-0.000640783 -0.000242956 0.000232773)
(-0.000488073 -0.000224335 0.000214225)
(-0.000309369 -0.00018442 0.000173689)
(-0.000158892 -0.000141237 0.000133043)
(-2.46662e-05 -6.11994e-05 6.56502e-05)
(2.16454e-05 -1.79998e-05 4.12954e-05)
(2.48257e-05 1.05925e-06 1.39993e-05)
(2.75679e-05 3.71156e-06 1.72885e-06)
(-0.00047772 0.000129553 0.000121899)
(-0.000456746 6.14492e-05 -3.97009e-05)
(-0.000280592 2.93391e-05 1.91599e-06)
(-0.000119087 1.66411e-05 7.76278e-06)
(-4.15567e-05 1.37426e-06 -3.32012e-06)
(-6.92112e-05 -2.61685e-05 -2.34017e-05)
(-0.000202154 -9.37915e-05 -4.88572e-05)
(-0.000378705 -0.0001563 -3.54433e-05)
(-0.000552863 -0.000196023 2.65265e-06)
(-0.000698642 -0.000215224 4.89631e-05)
(-0.000794129 -0.000217752 9.45113e-05)
(-0.000851286 -0.000215839 0.000137661)
(-0.000864027 -0.000214106 0.000175727)
(-0.000832995 -0.000215198 0.000206002)
(-0.000755822 -0.000216154 0.000224693)
(-0.000639256 -0.000211703 0.000229344)
(-0.000496384 -0.000199268 0.000220423)
(-0.000320868 -0.000165298 0.000187319)
(-0.000157652 -0.000119364 0.00014291)
(-1.08089e-05 -2.49078e-05 4.68571e-05)
(2.55441e-05 6.57179e-06 7.63405e-05)
(2.65006e-05 1.66191e-05 4.54295e-05)
(3.1698e-05 1.8316e-05 1.91642e-05)
(5.10422e-05 2.93321e-05 1.80731e-07)
(-0.000486067 0.000131303 9.56023e-05)
(-0.000429458 6.30332e-05 -3.33525e-05)
(-0.000267343 3.30714e-05 1.14331e-05)
(-6.35233e-05 1.42661e-05 1.19525e-05)
(-1.61372e-05 7.97181e-06 4.78905e-06)
(-2.65574e-06 -8.87731e-07 -9.22125e-06)
(-5.99274e-05 -3.2066e-05 -3.04648e-05)
(-0.000243765 -0.000105028 -4.0134e-05)
(-0.000433746 -0.000157259 -8.30911e-06)
(-0.000575062 -0.000178815 3.3724e-05)
(-0.00068455 -0.000186846 7.84338e-05)
(-0.000741853 -0.000185087 0.00012279)
(-0.000752282 -0.000183257 0.000163919)
(-0.000707838 -0.000181928 0.000194669)
(-0.000619467 -0.000180023 0.000212288)
(-0.000493451 -0.000171153 0.000213421)
(-0.000328872 -0.000145386 0.000190285)
(-0.000171213 -0.000106725 0.000154587)
(-2.1219e-05 -2.8216e-05 7.99213e-05)
(1.19484e-05 1.00733e-05 7.45011e-05)
(3.02969e-05 2.53792e-05 0.000121145)
(6.40075e-05 2.13192e-05 0.000118729)
(7.26175e-05 1.30407e-05 4.70552e-05)
(6.58364e-05 1.5634e-05 8.36393e-07)
(-0.000421248 0.000113425 5.6138e-05)
(-0.000393932 6.41957e-05 -3.03908e-05)
(-0.000213106 3.10471e-05 1.2948e-05)
(-5.33467e-05 1.99711e-05 1.64669e-05)
(6.302e-06 1.59838e-05 3.80921e-06)
(1.99356e-05 1.31322e-05 -3.10495e-06)
(-6.57364e-06 -5.41969e-07 -1.35597e-05)
(-0.000133604 -5.81538e-05 -2.87217e-05)
(-0.000296538 -0.000113182 -6.95686e-06)
(-0.000451346 -0.000146464 2.48238e-05)
(-0.000555046 -0.000154861 6.19658e-05)
(-0.000617856 -0.000154476 0.000105613)
(-0.000622727 -0.000151569 0.000147562)
(-0.000573046 -0.000149102 0.00017875)
(-0.000472285 -0.00014243 0.000191832)
(-0.000328728 -0.000123488 0.000180183)
(-0.000180136 -9.24756e-05 0.00015397)
(-1.76211e-05 -1.30882e-05 5.23219e-05)
(4.7996e-06 1.32808e-05 9.64153e-05)
(2.38217e-05 3.40689e-05 0.000228773)
(6.45106e-05 6.66905e-06 0.000231062)
(9.58735e-05 -1.98388e-05 0.000151242)
(9.96017e-05 -2.59531e-05 5.73216e-05)
(8.32329e-05 -1.68382e-05 8.69413e-07)
(-0.000399185 0.000106091 2.49029e-05)
(-0.000367075 6.37933e-05 -3.22962e-05)
(-0.000225075 3.80004e-05 1.40284e-05)
(-4.36759e-05 2.08224e-05 1.75943e-05)
(1.63457e-05 1.81453e-05 8.65185e-06)
(1.81621e-05 1.2209e-05 1.23962e-05)
(2.92813e-06 4.57195e-06 1.16835e-05)
(-2.9595e-05 -1.38226e-05 5.70595e-06)
(-0.000178114 -7.90422e-05 1.07409e-05)
(-0.000302647 -0.000111347 2.12702e-05)
(-0.000424173 -0.000126676 4.63297e-05)
(-0.000488744 -0.00012512 8.60233e-05)
(-0.000490724 -0.00012121 0.000127895)
(-0.000425638 -0.000114242 0.000153717)
(-0.000314831 -0.000101401 0.000157054)
(-0.000181874 -7.63954e-05 0.000138891)
(-2.51994e-05 -1.14764e-05 5.85257e-05)
(-4.42895e-06 1.6367e-05 0.000119336)
(2.79491e-06 3.9622e-05 0.000291065)
(4.41818e-05 2.52892e-06 0.000316917)
(9.95713e-05 -3.81513e-05 0.000271809)
(0.000139983 -5.86902e-05 0.000178564)
(0.000130768 -5.58616e-05 6.44106e-05)
(9.36125e-05 -4.00556e-05 5.32477e-07)
(-0.000313972 8.28965e-05 -1.14173e-05)
(-0.000331549 5.79882e-05 -4.5428e-05)
(-0.000177097 3.2706e-05 -1.44618e-06)
(-5.86327e-05 3.02482e-05 1.8166e-05)
(5.45517e-06 3.39294e-05 1.5498e-05)
(3.61941e-05 2.58123e-05 2.53572e-05)
(4.37209e-05 8.87769e-06 3.73993e-05)
(1.61711e-05 -1.2515e-05 2.94685e-05)
(-4.02332e-05 -4.6291e-05 3.25688e-05)
(-0.000167401 -8.8834e-05 2.20855e-05)
(-0.000277408 -9.74682e-05 2.59707e-05)
(-0.000352175 -9.51093e-05 6.11224e-05)
(-0.00034787 -8.86751e-05 9.99833e-05)
(-0.000281028 -7.94272e-05 0.000119545)
(-0.000171735 -5.99522e-05 0.000111366)
(-3.33894e-05 -9.87546e-06 5.83026e-05)
(-1.30556e-05 1.75355e-05 0.00011512)
(-1.8157e-05 4.57551e-05 0.000311446)
(1.27565e-05 8.07811e-06 0.000386879)
(8.1079e-05 -4.20037e-05 0.000388073)
(0.000158163 -6.81191e-05 0.000326885)
(0.000197174 -7.03588e-05 0.000203455)
(0.000168466 -6.46497e-05 7.03294e-05)
(0.000103759 -4.7971e-05 4.11883e-08)
(-0.000149507 3.60285e-05 -3.55317e-05)
(-0.000259231 3.67169e-05 -7.03478e-05)
(-0.000231299 4.15722e-05 -5.83173e-05)
(-0.000133673 5.16929e-05 -3.15284e-05)
(-5.95526e-05 6.43438e-05 -1.69914e-05)
(-9.22517e-06 8.07775e-05 -1.43846e-05)
(3.57798e-05 7.10331e-05 -1.57547e-05)
(4.98588e-05 1.65896e-05 -1.35383e-05)
(4.83538e-05 -1.92595e-05 6.98606e-06)
(-2.48733e-06 -2.7708e-05 4.86889e-06)
(-0.000140463 -7.39287e-05 2.35721e-06)
(-0.000226386 -6.62081e-05 3.1608e-05)
(-0.000219635 -5.83353e-05 6.73341e-05)
(-0.000140599 -4.22367e-05 7.02171e-05)
(-3.09891e-05 -6.59804e-06 3.892e-05)
(-2.53866e-05 2.23998e-05 0.000126752)
(-3.79581e-05 4.94573e-05 0.000298544)
(-2.44997e-05 2.18869e-05 0.000436808)
(4.33161e-05 -3.44536e-05 0.000474092)
(0.000141649 -6.43368e-05 0.000463455)
(0.000225731 -5.96973e-05 0.000371008)
(0.000254877 -5.04675e-05 0.000226086)
(0.000210508 -5.58058e-05 7.6844e-05)
(0.000121222 -5.10033e-05 -6.85957e-07)
(2.22433e-06 -1.02298e-05 -1.09189e-05)
(-5.25194e-05 -1.5149e-05 -3.76493e-05)
(-0.000102109 -3.75701e-06 -6.55746e-05)
(-0.000109373 1.2321e-05 -7.98715e-05)
(-8.78157e-05 2.76218e-05 -8.27859e-05)
(-6.33697e-05 4.46693e-05 -9.50378e-05)
(-2.77423e-05 4.80416e-05 -9.8971e-05)
(9.90174e-06 3.79562e-05 -9.10942e-05)
(2.1663e-05 1.44968e-05 -5.2382e-05)
(3.39992e-05 -4.59406e-06 -5.194e-05)
(-1.45767e-05 -3.62023e-05 -2.87178e-05)
(-0.000105104 -3.58036e-05 -2.47165e-06)
(-9.12936e-05 -2.43187e-05 2.36117e-05)
(-2.4663e-05 -4.31224e-06 1.85319e-05)
(-2.37031e-05 1.74262e-05 7.94263e-05)
(-4.7038e-05 4.44564e-05 0.000230598)
(-6.35818e-05 3.9668e-05 0.000461385)
(-5.11169e-06 -1.98799e-05 0.00052421)
(9.87405e-05 -5.45191e-05 0.000571655)
(0.000211694 -4.43375e-05 0.000529813)
(0.000280733 -1.43629e-05 0.000407748)
(0.000289957 -3.54892e-06 0.000241147)
(0.000240272 -2.87942e-05 8.1483e-05)
(0.000144109 -4.86451e-05 -1.18529e-06)
(1.54935e-05 -1.38518e-05 -4.57884e-06)
(2.31201e-05 -2.03313e-05 -1.95245e-06)
(1.3892e-05 -1.84482e-05 -1.3836e-05)
(1.25255e-06 -1.83427e-05 -2.98622e-05)
(-6.51592e-06 -1.55314e-05 -4.30715e-05)
(-3.56782e-06 -1.0171e-05 -4.24376e-05)
(4.68047e-06 -8.89865e-06 -4.84219e-05)
(2.33405e-05 -9.53964e-06 -7.368e-05)
(3.54401e-05 -3.54363e-07 -6.92752e-05)
(3.31793e-05 1.47419e-05 -6.67044e-05)
(1.20423e-05 3.82154e-06 -4.98248e-05)
(-2.7029e-05 -9.6895e-06 -2.2865e-05)
(-1.56728e-05 -2.00896e-06 -1.16758e-06)
(-1.71772e-05 1.2345e-05 3.95281e-05)
(-4.07093e-05 3.25849e-05 0.000139802)
(-9.79633e-05 5.41749e-05 0.0004343)
(-5.93521e-05 2.34878e-06 0.000547212)
(4.03288e-05 -4.04487e-05 0.000644982)
(0.000165802 -3.07472e-05 0.000655493)
(0.000261648 1.56978e-05 0.000573521)
(0.000298629 5.75986e-05 0.000426767)
(0.000290302 5.93826e-05 0.000249907)
(0.000247341 1.25919e-05 8.54476e-05)
(0.000159578 -3.47226e-05 -5.88132e-07)
(2.13026e-05 -9.39719e-06 4.88034e-06)
(3.26734e-05 -1.55003e-05 -2.87702e-06)
(2.87368e-05 -1.72264e-05 -6.90055e-06)
(2.32112e-05 -1.77044e-05 -9.49321e-06)
(1.9389e-05 -1.77392e-05 -1.45272e-05)
(2.0408e-05 -1.99715e-05 -2.35339e-05)
(2.0594e-05 -1.79381e-05 -2.64997e-05)
(2.80349e-05 -1.58604e-05 -2.88469e-05)
(5.20664e-05 -6.06644e-06 -3.89358e-05)
(4.92301e-05 2.04135e-05 -3.57157e-05)
(2.80725e-05 3.18514e-05 -4.44218e-05)
(-2.70223e-06 1.24726e-05 -2.77915e-05)
(-1.69178e-05 1.52038e-05 2.24378e-05)
(-4.92864e-05 3.64185e-05 0.000124826)