/*--------------------------------*- C++ -*----------------------------------*\
  =========                 |
  \\      /  F ield         | OpenFOAM: The Open Source CFD Toolbox
   \\    /   O peration     | Website:  https://openfoam.org
    \\  /    A nd           | Version:  6
     \\/     M anipulation  |
\*---------------------------------------------------------------------------*/
FoamFile
{
    version     2.0;
    format      ascii;
    class       volScalarField;
    location    "20";
    object      nut;
}
// * * * * * * * * * * * * * * * * * * * * * * * * * * * * * * * * * * * * * //

dimensions      [0 2 -1 0 0 0 0];

internalField   nonuniform List<scalar> 
2880
(
2.21005e-08
2.21005e-08
2.21011e-08
4.58369e-09
4.58377e-09
4.58399e-09
7.40382e-09
7.40423e-09
7.40464e-09
1.05154e-08
1.05161e-08
1.05166e-08
1.36397e-08
1.36406e-08
1.36413e-08
1.67589e-08
1.67599e-08
1.67607e-08
1.98814e-08
1.98825e-08
1.98833e-08
2.30073e-08
2.30086e-08
2.30094e-08
2.61154e-08
2.61168e-08
2.61177e-08
2.91489e-08
2.91505e-08
2.91515e-08
3.20088e-08
3.20104e-08
3.20116e-08
3.45586e-08
3.45603e-08
3.45618e-08
3.66229e-08
3.66247e-08
3.66264e-08
3.808e-08
3.80816e-08
3.80836e-08
3.88782e-08
3.88797e-08
3.88819e-08
3.88777e-08
3.88793e-08
3.88814e-08
3.80786e-08
3.80802e-08
3.80822e-08
3.66205e-08
3.66223e-08
3.6624e-08
3.45554e-08
3.45572e-08
3.45586e-08
3.20058e-08
3.20074e-08
3.20087e-08
2.9146e-08
2.91475e-08
2.91486e-08
2.61128e-08
2.61142e-08
2.61151e-08
2.30039e-08
2.30051e-08
2.3006e-08
1.98766e-08
1.98778e-08
1.98785e-08
1.67532e-08
1.67542e-08
1.67549e-08
1.36341e-08
1.36349e-08
1.36356e-08
1.05111e-08
1.05117e-08
1.05123e-08
7.4013e-09
7.40172e-09
7.40213e-09
4.58251e-09
4.58259e-09
4.58281e-09
2.2096e-08
2.2096e-08
2.20966e-08
1.10857e-05
1.10857e-05
1.10858e-05
4.93724e-07
4.93732e-07
4.9375e-07
6.96032e-07
6.96063e-07
6.96091e-07
8.88931e-07
8.88973e-07
8.89006e-07
1.05661e-06
1.05665e-06
1.05669e-06
1.20429e-06
1.20434e-06
1.20437e-06
1.33653e-06
1.33658e-06
1.33661e-06
1.45619e-06
1.45625e-06
1.45628e-06
1.56465e-06
1.56471e-06
1.56474e-06
1.66188e-06
1.66193e-06
1.66196e-06
1.74673e-06
1.74679e-06
1.74682e-06
1.81747e-06
1.81752e-06
1.81756e-06
1.87169e-06
1.87174e-06
1.87178e-06
1.9085e-06
1.90854e-06
1.90859e-06
1.9282e-06
1.92824e-06
1.92829e-06
1.92819e-06
1.92823e-06
1.92828e-06
1.90846e-06
1.90851e-06
1.90856e-06
1.87163e-06
1.87168e-06
1.87173e-06
1.81738e-06
1.81744e-06
1.81747e-06
1.74665e-06
1.74671e-06
1.74674e-06
1.66179e-06
1.66185e-06
1.66188e-06
1.56457e-06
1.56462e-06
1.56465e-06
1.45607e-06
1.45613e-06
1.45616e-06
1.33634e-06
1.33639e-06
1.33642e-06
1.20404e-06
1.20409e-06
1.20412e-06
1.05633e-06
1.05638e-06
1.05641e-06
8.88685e-07
8.88727e-07
8.8876e-07
6.95866e-07
6.95898e-07
6.95925e-07
4.93631e-07
4.93638e-07
4.93657e-07
1.10849e-05
1.10849e-05
1.1085e-05
1.32931e-05
1.32931e-05
1.32932e-05
2.58785e-06
2.58788e-06
2.58793e-06
2.95909e-06
2.95918e-06
2.95924e-06
3.34292e-06
3.34302e-06
3.34309e-06
3.66022e-06
3.66034e-06
3.6604e-06
3.93022e-06
3.93033e-06
3.93039e-06
4.16642e-06
4.16654e-06
4.16659e-06
4.37675e-06
4.37687e-06
4.37692e-06
4.56518e-06
4.5653e-06
4.56535e-06
4.73257e-06
4.73269e-06
4.73274e-06
4.87758e-06
4.8777e-06
4.87776e-06
4.99774e-06
4.99786e-06
4.99792e-06
5.08957e-06
5.08968e-06
5.08975e-06
5.1519e-06
5.152e-06
5.15208e-06
5.18531e-06
5.1854e-06
5.18549e-06
5.1853e-06
5.18539e-06
5.18547e-06
5.15184e-06
5.15194e-06
5.15202e-06
5.08948e-06
5.08959e-06
5.08966e-06
4.99761e-06
4.99773e-06
4.99779e-06
4.87746e-06
4.87758e-06
4.87764e-06
4.73244e-06
4.73256e-06
4.73261e-06
4.56506e-06
4.56517e-06
4.56522e-06
4.37656e-06
4.37668e-06
4.37673e-06
4.1661e-06
4.16622e-06
4.16627e-06
3.92978e-06
3.92989e-06
3.92995e-06
3.65972e-06
3.65984e-06
3.6599e-06
3.34245e-06
3.34256e-06
3.34262e-06
2.95876e-06
2.95885e-06
2.9589e-06
2.58764e-06
2.58766e-06
2.58772e-06
1.32923e-05
1.32922e-05
1.32924e-05
1.51143e-05
1.51143e-05
1.51145e-05
5.5036e-06
5.50367e-06
5.50377e-06
5.80736e-06
5.80754e-06
5.80763e-06
6.37553e-06
6.37574e-06
6.37584e-06
6.86072e-06
6.86095e-06
6.86104e-06
7.27591e-06
7.27613e-06
7.27622e-06
7.63948e-06
7.6397e-06
7.63978e-06
7.96323e-06
7.96346e-06
7.96353e-06
8.25317e-06
8.25339e-06
8.25346e-06
8.51051e-06
8.51075e-06
8.51082e-06
8.73317e-06
8.7334e-06
8.73348e-06
8.91737e-06
8.9176e-06
8.91769e-06
9.0582e-06
9.05842e-06
9.05852e-06
9.15404e-06
9.15423e-06
9.15435e-06
9.20559e-06
9.20577e-06
9.20589e-06
9.20557e-06
9.20574e-06
9.20587e-06
9.15396e-06
9.15415e-06
9.15427e-06
9.05807e-06
9.05828e-06
9.05839e-06
8.9172e-06
8.91743e-06
8.91752e-06
8.73301e-06
8.73324e-06
8.73332e-06
8.51033e-06
8.51057e-06
8.51064e-06
8.253e-06
8.25322e-06
8.25329e-06
7.96295e-06
7.96318e-06
7.96325e-06
7.63901e-06
7.63924e-06
7.63931e-06
7.27525e-06
7.27547e-06
7.27556e-06
6.85997e-06
6.8602e-06
6.86029e-06
6.37484e-06
6.37505e-06
6.37514e-06
5.80688e-06
5.80706e-06
5.80715e-06
5.50331e-06
5.50337e-06
5.50347e-06
1.51134e-05
1.51134e-05
1.51136e-05
1.67315e-05
1.67315e-05
1.67316e-05
9.38071e-06
9.38084e-06
9.38102e-06
9.2846e-06
9.28492e-06
9.28507e-06
9.99748e-06
9.99785e-06
9.99799e-06
1.06535e-05
1.06539e-05
1.06541e-05
1.12259e-05
1.12263e-05
1.12264e-05
1.17311e-05
1.17315e-05
1.17316e-05
1.21829e-05
1.21833e-05
1.21834e-05
1.25888e-05
1.25891e-05
1.25892e-05
1.29495e-05
1.29499e-05
1.295e-05
1.32618e-05
1.32622e-05
1.32623e-05
1.35202e-05
1.35206e-05
1.35208e-05
1.37182e-05
1.37185e-05
1.37187e-05
1.38534e-05
1.38537e-05
1.38539e-05
1.39264e-05
1.39267e-05
1.39269e-05
1.39264e-05
1.39267e-05
1.39269e-05
1.38533e-05
1.38536e-05
1.38538e-05
1.3718e-05
1.37183e-05
1.37185e-05
1.352e-05
1.35204e-05
1.35205e-05
1.32616e-05
1.3262e-05
1.32621e-05
1.29493e-05
1.29497e-05
1.29498e-05
1.25886e-05
1.25889e-05
1.2589e-05
1.21826e-05
1.2183e-05
1.21831e-05
1.17305e-05
1.17308e-05
1.17309e-05
1.1225e-05
1.12254e-05
1.12255e-05
1.06525e-05
1.06529e-05
1.0653e-05
9.99655e-06
9.99692e-06
9.99706e-06
9.28398e-06
9.2843e-06
9.28445e-06
9.3804e-06
9.38053e-06
9.38071e-06
1.67305e-05
1.67305e-05
1.67306e-05
1.82292e-05
1.82292e-05
1.82294e-05
1.42955e-05
1.42957e-05
1.4296e-05
1.34307e-05
1.34312e-05
1.34315e-05
1.42026e-05
1.42032e-05
1.42034e-05
1.50166e-05
1.50172e-05
1.50174e-05
1.57522e-05
1.57528e-05
1.5753e-05
1.64112e-05
1.64118e-05
1.6412e-05
1.70055e-05
1.70061e-05
1.70062e-05
1.75419e-05
1.75426e-05
1.75427e-05
1.80203e-05
1.8021e-05
1.80211e-05
1.84352e-05
1.84358e-05
1.84359e-05
1.87788e-05
1.87794e-05
1.87796e-05
1.90426e-05
1.90432e-05
1.90434e-05
1.92238e-05
1.92243e-05
1.92245e-05
1.93222e-05
1.93227e-05
1.93229e-05
1.93222e-05
1.93226e-05
1.93229e-05
1.92237e-05
1.92241e-05
1.92244e-05
1.90424e-05
1.9043e-05
1.90432e-05
1.87785e-05
1.87791e-05
1.87793e-05
1.8435e-05
1.84356e-05
1.84357e-05
1.80201e-05
1.80207e-05
1.80208e-05
1.75417e-05
1.75423e-05
1.75425e-05
1.70051e-05
1.70057e-05
1.70058e-05
1.64105e-05
1.64111e-05
1.64112e-05
1.57511e-05
1.57517e-05
1.57518e-05
1.50153e-05
1.50159e-05
1.50161e-05
1.42014e-05
1.4202e-05
1.42022e-05
1.343e-05
1.34305e-05
1.34308e-05
1.42953e-05
1.42955e-05
1.42958e-05
1.82282e-05
1.82282e-05
1.82283e-05
1.96544e-05
1.96545e-05
1.96546e-05
2.02522e-05
2.02525e-05
2.0253e-05
1.83316e-05
1.83326e-05
1.83329e-05
1.90288e-05
1.90298e-05
1.90301e-05
1.99668e-05
1.99678e-05
1.9968e-05
2.08633e-05
2.08643e-05
2.08645e-05
2.16853e-05
2.16863e-05
2.16865e-05
2.24356e-05
2.24366e-05
2.24368e-05
2.31179e-05
2.31189e-05
2.3119e-05
2.37291e-05
2.37301e-05
2.37302e-05
2.42605e-05
2.42614e-05
2.42616e-05
2.47015e-05
2.47024e-05
2.47026e-05
2.5041e-05
2.50419e-05
2.50421e-05
2.52754e-05
2.52761e-05
2.52765e-05
2.54038e-05
2.54044e-05
2.54048e-05
2.54037e-05
2.54044e-05
2.54047e-05
2.52753e-05
2.5276e-05
2.52763e-05
2.50408e-05
2.50416e-05
2.50419e-05
2.47012e-05
2.47021e-05
2.47023e-05
2.42603e-05
2.42613e-05
2.42615e-05
2.37289e-05
2.37298e-05
2.373e-05
2.31177e-05
2.31187e-05
2.31188e-05
2.24352e-05
2.24361e-05
2.24363e-05
2.16844e-05
2.16854e-05
2.16856e-05
2.0862e-05
2.08629e-05
2.08632e-05
1.99652e-05
1.99661e-05
1.99664e-05
1.90273e-05
1.90283e-05
1.90286e-05
1.83309e-05
1.83318e-05
1.83322e-05
2.02522e-05
2.02526e-05
2.0253e-05
1.96534e-05
1.96534e-05
1.96535e-05
2.1034e-05
2.10341e-05
2.10342e-05
2.7167e-05
2.71676e-05
2.71683e-05
2.4093e-05
2.40946e-05
2.40952e-05
2.4543e-05
2.45446e-05
2.45451e-05
2.55448e-05
2.55463e-05
2.55467e-05
2.65882e-05
2.65896e-05
2.659e-05
2.75775e-05
2.75789e-05
2.75792e-05
2.84959e-05
2.84973e-05
2.84976e-05
2.93395e-05
2.93409e-05
2.93411e-05
3.00996e-05
3.0101e-05
3.01013e-05
3.07628e-05
3.07641e-05
3.07644e-05
3.13144e-05
3.13158e-05
3.13161e-05
3.17404e-05
3.17417e-05
3.17421e-05
3.20363e-05
3.20374e-05
3.20379e-05
3.21998e-05
3.22007e-05
3.22012e-05
3.21997e-05
3.22007e-05
3.22012e-05
3.20361e-05
3.20372e-05
3.20377e-05
3.17402e-05
3.17414e-05
3.17418e-05
3.13141e-05
3.13155e-05
3.13158e-05
3.07627e-05
3.0764e-05
3.07643e-05
3.00994e-05
3.01008e-05
3.01011e-05
2.93394e-05
2.93407e-05
2.9341e-05
2.84955e-05
2.84969e-05
2.84971e-05
2.75764e-05
2.75778e-05
2.75782e-05
2.65865e-05
2.65879e-05
2.65883e-05
2.55428e-05
2.55443e-05
2.55447e-05
2.45413e-05
2.45428e-05
2.45433e-05
2.40924e-05
2.4094e-05
2.40946e-05
2.71675e-05
2.7168e-05
2.71687e-05
2.10329e-05
2.10329e-05
2.10331e-05
2.23822e-05
2.23822e-05
2.23824e-05
3.48782e-05
3.4879e-05
3.488e-05
3.08165e-05
3.08191e-05
3.08199e-05
3.08326e-05
3.08352e-05
3.08358e-05
3.18079e-05
3.18102e-05
3.18108e-05
3.29682e-05
3.29704e-05
3.29709e-05
3.4122e-05
3.41242e-05
3.41246e-05
3.52182e-05
3.52203e-05
3.52207e-05
3.62381e-05
3.62402e-05
3.62406e-05
3.71641e-05
3.71662e-05
3.71666e-05
3.79754e-05
3.79774e-05
3.79778e-05
3.86522e-05
3.86542e-05
3.86547e-05
3.91764e-05
3.91783e-05
3.91788e-05
3.95427e-05
3.95444e-05
3.9545e-05
3.97472e-05
3.97487e-05
3.97494e-05
3.97471e-05
3.97486e-05
3.97493e-05
3.95425e-05
3.95442e-05
3.95449e-05
3.91761e-05
3.9178e-05
3.91785e-05
3.86519e-05
3.86539e-05
3.86544e-05
3.79754e-05
3.79774e-05
3.79778e-05
3.71639e-05
3.7166e-05
3.71664e-05
3.62381e-05
3.62402e-05
3.62405e-05
3.52178e-05
3.52199e-05
3.52203e-05
3.41209e-05
3.4123e-05
3.41234e-05
3.29663e-05
3.29684e-05
3.29689e-05
3.18055e-05
3.18078e-05
3.18084e-05
3.08306e-05
3.08331e-05
3.08338e-05
3.08163e-05
3.08189e-05
3.08197e-05
3.48793e-05
3.488e-05
3.4881e-05
2.2381e-05
2.2381e-05
2.23812e-05
2.37035e-05
2.37035e-05
2.37037e-05
4.31647e-05
4.31657e-05
4.3167e-05
3.85765e-05
3.85804e-05
3.85815e-05
3.79988e-05
3.80029e-05
3.80037e-05
3.88274e-05
3.8831e-05
3.88318e-05
4.00545e-05
4.00578e-05
4.00585e-05
4.136e-05
4.13633e-05
4.13638e-05
4.26392e-05
4.26424e-05
4.26429e-05
4.38495e-05
4.38526e-05
4.3853e-05
4.49586e-05
4.49617e-05
4.49621e-05
4.59353e-05
4.59383e-05
4.59389e-05
4.67528e-05
4.67558e-05
4.67564e-05
4.73877e-05
4.73905e-05
4.73913e-05
4.78342e-05
4.78367e-05
4.78376e-05
4.80862e-05
4.80886e-05
4.80896e-05
4.80861e-05
4.80886e-05
4.80895e-05
4.7834e-05
4.78365e-05
4.78375e-05
4.73874e-05
4.73902e-05
4.7391e-05
4.67526e-05
4.67555e-05
4.67562e-05
4.59354e-05
4.59384e-05
4.5939e-05
4.49585e-05
4.49616e-05
4.49621e-05
4.38496e-05
4.38528e-05
4.38532e-05
4.26389e-05
4.26421e-05
4.26426e-05
4.13588e-05
4.13621e-05
4.13626e-05
4.00522e-05
4.00555e-05
4.00562e-05
3.88245e-05
3.88281e-05
3.88289e-05
3.79964e-05
3.80005e-05
3.80014e-05
3.85768e-05
3.85808e-05
3.85818e-05
4.31666e-05
4.31676e-05
4.31689e-05
2.37023e-05
2.37023e-05
2.37025e-05
2.49953e-05
2.49953e-05
2.49955e-05
5.17643e-05
5.17656e-05
5.17672e-05
4.73977e-05
4.74034e-05
4.74048e-05
4.61483e-05
4.61545e-05
4.61557e-05
4.66871e-05
4.66926e-05
4.66937e-05
4.79065e-05
4.79116e-05
4.79125e-05
4.93373e-05
4.93421e-05
4.93429e-05
5.07983e-05
5.0803e-05
5.08036e-05
5.22105e-05
5.22151e-05
5.22157e-05
5.35197e-05
5.35242e-05
5.35249e-05
5.46796e-05
5.46841e-05
5.46848e-05
5.56543e-05
5.56587e-05
5.56596e-05
5.64129e-05
5.64172e-05
5.64182e-05
5.69497e-05
5.69537e-05
5.69549e-05
5.72566e-05
5.72604e-05
5.72617e-05
5.72566e-05
5.72603e-05
5.72616e-05
5.69496e-05
5.69535e-05
5.69548e-05
5.64127e-05
5.64169e-05
5.64179e-05
5.56541e-05
5.56585e-05
5.56594e-05
5.468e-05
5.46845e-05
5.46852e-05
5.35198e-05
5.35243e-05
5.35249e-05
5.2211e-05
5.22155e-05
5.22161e-05
5.07982e-05
5.08029e-05
5.08035e-05
4.93361e-05
4.93409e-05
4.93416e-05
4.79039e-05
4.79089e-05
4.79098e-05
4.66836e-05
4.66891e-05
4.66901e-05
4.61456e-05
4.61518e-05
4.6153e-05
4.73991e-05
4.74047e-05
4.74062e-05
5.17673e-05
5.17686e-05
5.17702e-05
2.4994e-05
2.4994e-05
2.49942e-05
2.62494e-05
2.62494e-05
2.62496e-05
6.03903e-05
6.0392e-05
6.03938e-05
5.72396e-05
5.72474e-05
5.72492e-05
5.53814e-05
5.53905e-05
5.53921e-05
5.54811e-05
5.54892e-05
5.54906e-05
5.65921e-05
5.65995e-05
5.66007e-05
5.81037e-05
5.81107e-05
5.81117e-05
5.9736e-05
5.97428e-05
5.97436e-05
6.13576e-05
6.13643e-05
6.13651e-05
6.28826e-05
6.28892e-05
6.289e-05
6.42436e-05
6.42501e-05
6.42511e-05
6.53922e-05
6.53987e-05
6.53998e-05
6.62878e-05
6.62942e-05
6.62955e-05
6.69254e-05
6.69315e-05
6.6933e-05
6.72948e-05
6.73006e-05
6.73023e-05
6.72948e-05
6.73006e-05
6.73023e-05
6.69253e-05
6.69314e-05
6.6933e-05
6.62877e-05
6.6294e-05
6.62954e-05
6.53922e-05
6.53987e-05
6.53998e-05
6.42444e-05
6.42509e-05
6.42518e-05
6.2883e-05
6.28895e-05
6.28903e-05
6.13586e-05
6.13652e-05
6.1366e-05
5.97363e-05
5.97431e-05
5.97439e-05
5.81025e-05
5.81095e-05
5.81105e-05
5.6589e-05
5.65963e-05
5.65975e-05
5.54768e-05
5.54849e-05
5.54863e-05
5.53785e-05
5.53876e-05
5.53891e-05
5.72424e-05
5.725e-05
5.7252e-05
6.03946e-05
6.03963e-05
6.03981e-05
2.6248e-05
2.62481e-05
2.62482e-05
2.74543e-05
2.74543e-05
2.74545e-05
6.87479e-05
6.87499e-05
6.8752e-05
6.79871e-05
6.79971e-05
6.79995e-05
6.57763e-05
6.57889e-05
6.5791e-05
6.53105e-05
6.53223e-05
6.53241e-05
6.61872e-05
6.61978e-05
6.61993e-05
6.77134e-05
6.77233e-05
6.77246e-05
6.94936e-05
6.95031e-05
6.95042e-05
7.13258e-05
7.13352e-05
7.13362e-05
7.30796e-05
7.30889e-05
7.30899e-05
7.46584e-05
7.46677e-05
7.46689e-05
7.59976e-05
7.60069e-05
7.60083e-05
7.70432e-05
7.70524e-05
7.70541e-05
7.77918e-05
7.78008e-05
7.78027e-05
7.82317e-05
7.82404e-05
7.82425e-05
7.82317e-05
7.82404e-05
7.82425e-05
7.77919e-05
7.78008e-05
7.78028e-05
7.70432e-05
7.70525e-05
7.70541e-05
7.59979e-05
7.60071e-05
7.60085e-05
7.46597e-05
7.46689e-05
7.46701e-05
7.30803e-05
7.30895e-05
7.30906e-05
7.13273e-05
7.13367e-05
7.13377e-05
6.94944e-05
6.95039e-05
6.9505e-05
6.77122e-05
6.77221e-05
6.77233e-05
6.61834e-05
6.61939e-05
6.61955e-05
6.53052e-05
6.5317e-05
6.53188e-05
6.57732e-05
6.57858e-05
6.57879e-05
6.79917e-05
6.80017e-05
6.80041e-05
6.87536e-05
6.87555e-05
6.87577e-05
2.74529e-05
2.74529e-05
2.74531e-05
2.85977e-05
2.85977e-05
2.85979e-05
7.65519e-05
7.65542e-05
7.65566e-05
7.94513e-05
7.94636e-05
7.94667e-05
7.73698e-05
7.73866e-05
7.73894e-05
7.62771e-05
7.62934e-05
7.62957e-05
7.67758e-05
7.67906e-05
7.67925e-05
7.82248e-05
7.82385e-05
7.82401e-05
8.01126e-05
8.01257e-05
8.0127e-05
8.21472e-05
8.216e-05
8.21613e-05
8.41382e-05
8.4151e-05
8.41523e-05
8.59495e-05
8.59623e-05
8.59638e-05
8.7495e-05
8.75079e-05
8.75096e-05
8.87025e-05
8.87156e-05
8.87176e-05
8.95717e-05
8.95846e-05
8.95869e-05
9.00901e-05
9.01027e-05
9.01053e-05
9.00902e-05
9.01028e-05
9.01054e-05
8.95719e-05
8.95848e-05
8.95872e-05
8.87028e-05
8.87159e-05
8.87179e-05
8.74955e-05
8.75085e-05
8.75102e-05
8.59515e-05
8.59642e-05
8.59657e-05
8.41394e-05
8.41521e-05
8.41534e-05
8.21496e-05
8.21623e-05
8.21636e-05
8.0114e-05
8.0127e-05
8.01284e-05
7.82236e-05
7.82372e-05
7.82388e-05
7.67711e-05
7.67858e-05
7.67877e-05
7.62705e-05
7.62868e-05
7.62891e-05
7.73667e-05
7.73834e-05
7.73863e-05
7.94582e-05
7.94704e-05
7.94735e-05
7.65588e-05
7.65611e-05
7.65635e-05
2.85962e-05
2.85963e-05
2.85965e-05
2.96686e-05
2.96686e-05
2.96688e-05
8.35473e-05
8.355e-05
8.35526e-05
9.13778e-05
9.13923e-05
9.1396e-05
9.01386e-05
9.016e-05
9.01636e-05
8.8472e-05
8.84936e-05
8.84967e-05
8.84486e-05
8.84683e-05
8.84708e-05
8.97017e-05
8.972e-05
8.9722e-05
9.16352e-05
9.16525e-05
9.16543e-05
9.3851e-05
9.3868e-05
9.38697e-05
9.60806e-05
9.60976e-05
9.60992e-05
9.8135e-05
9.81522e-05
9.8154e-05
9.99002e-05
9.99177e-05
9.99198e-05
0.00010128
0.000101298
0.0001013
0.000102278
0.000102296
0.000102298
0.000102883
0.0001029
0.000102903
0.000102883
0.0001029
0.000102904
0.000102278
0.000102296
0.000102299
0.000101281
0.000101299
0.000101301
9.99012e-05
9.99187e-05
9.99208e-05
9.81378e-05
9.81549e-05
9.81567e-05
9.60824e-05
9.60992e-05
9.61009e-05
9.38545e-05
9.38714e-05
9.3873e-05
9.16374e-05
9.16547e-05
9.16564e-05
8.97004e-05
8.97186e-05
8.97206e-05
8.84426e-05
8.84623e-05
8.84647e-05
8.84638e-05
8.84854e-05
8.84884e-05
9.01355e-05
9.01569e-05
9.01606e-05
9.1387e-05
9.14015e-05
9.14053e-05
8.35553e-05
8.3558e-05
8.35605e-05
2.9667e-05
2.96671e-05
2.96673e-05
3.06593e-05
3.06594e-05
3.06596e-05
8.95314e-05
8.95345e-05
8.95372e-05
0.00010346
0.000103477
0.000103481
0.000103983
0.000104009
0.000104013
0.000101961
0.000101988
0.000101992
0.000101298
0.000101324
0.000101327
0.000102213
0.000102237
0.000102239
0.000104105
0.000104127
0.000104129
0.000106463
0.000106485
0.000106487
0.000108922
0.000108944
0.000108946
0.000111224
0.000111246
0.000111249
0.000113219
0.000113242
0.000113244
0.000114778
0.000114802
0.000114805
0.00011591
0.000115934
0.000115938
0.000116609
0.000116633
0.000116636
0.000116609
0.000116633
0.000116637
0.000115911
0.000115935
0.000115939
0.000114779
0.000114803
0.000114806
0.000113221
0.000113243
0.000113246
0.000111228
0.00011125
0.000111252
0.000108925
0.000108946
0.000108949
0.000106468
0.00010649
0.000106492
0.000104108
0.00010413
0.000104132
0.000102212
0.000102235
0.000102238
0.000101291
0.000101316
0.000101319
0.00010195
0.000101978
0.000101982
0.00010398
0.000104006
0.00010401
0.000103472
0.000103488
0.000103493
8.95401e-05
8.95431e-05
8.95458e-05
3.06577e-05
3.06577e-05
3.06579e-05
3.1567e-05
3.1567e-05
3.15672e-05
9.43733e-05
9.43767e-05
9.43795e-05
0.000115359
0.000115377
0.000115382
0.000118715
0.000118746
0.000118752
0.000116762
0.000116796
0.000116801
0.000115414
0.000115445
0.000115449
0.000115834
0.000115863
0.000115866
0.000117566
0.000117594
0.000117597
0.000120006
0.000120033
0.000120036
0.000122671
0.000122698
0.000122701
0.000125215
0.000125243
0.000125246
0.000127444
0.000127473
0.000127476
0.000129186
0.000129216
0.000129219
0.000130455
0.000130486
0.00013049
0.000131254
0.000131285
0.000131289
0.000131254
0.000131285
0.00013129
0.000130457
0.000130488
0.000130492
0.000129188
0.000129218
0.000129221
0.000127446
0.000127475
0.000127478
0.000125221
0.000125248
0.000125251
0.000122675
0.000122701
0.000122704
0.000120013
0.00012004
0.000120042
0.000117571
0.000117598
0.000117601
0.000115831
0.00011586
0.000115864
0.000115403
0.000115435
0.000115439
0.000116749
0.000116783
0.000116788
0.000118713
0.000118743
0.000118749
0.000115373
0.000115391
0.000115396
9.43822e-05
9.43855e-05
9.43884e-05
3.15653e-05
3.15653e-05
3.15655e-05
3.23939e-05
3.23939e-05
3.23941e-05
9.80283e-05
9.80319e-05
9.80347e-05
0.000126723
0.000126742
0.000126747
0.000134062
0.000134096
0.000134104
0.000132829
0.000132868
0.000132875
0.000130864
0.000130902
0.000130907
0.000130639
0.000130674
0.000130678
0.000132067
0.0001321
0.000132104
0.000134499
0.000134532
0.000134535
0.000137327
0.000137359
0.000137362
0.000140096
0.000140129
0.000140132
0.000142554
0.000142589
0.000142593
0.000144475
0.000144512
0.000144516
0.000145881
0.000145919
0.000145924
0.000146784
0.000146822
0.000146827
0.000146785
0.000146823
0.000146828
0.000145883
0.000145921
0.000145926
0.000144478
0.000144515
0.000144519
0.000142557
0.000142592
0.000142596
0.000140102
0.000140136
0.000140139
0.000137331
0.000137363
0.000137367
0.000134507
0.00013454
0.000134543
0.000132072
0.000132105
0.000132109
0.000130635
0.00013067
0.000130674
0.000130849
0.000130887
0.000130893
0.000132812
0.000132851
0.000132858
0.000134059
0.000134093
0.000134101
0.000126738
0.000126757
0.000126762
9.80368e-05
9.80404e-05
9.80433e-05
3.2392e-05
3.23921e-05
3.23923e-05
3.31469e-05
3.31469e-05
3.31471e-05
0.000100542
0.000100545
0.000100548
0.000137208
0.000137228
0.000137234
0.000149668
0.000149705
0.000149714
0.000150021
0.000150065
0.000150074
0.000147681
0.000147725
0.000147732
0.0001467
0.000146741
0.000146747
0.000147655
0.000147693
0.000147697
0.000149958
0.000149994
0.000149998
0.000152878
0.000152915
0.000152919
0.000155836
0.000155875
0.000155879
0.000158509
0.00015855
0.000158554
0.000160599
0.000160642
0.000160647
0.000162134
0.000162179
0.000162185
0.000163144
0.00016319
0.000163196
0.000163146
0.000163192
0.000163198
0.000162137
0.000162183
0.000162188
0.000160603
0.000160646
0.000160652
0.000158513
0.000158554
0.000158559
0.000155845
0.000155883
0.000155887
0.000152884
0.000152921
0.000152925
0.000149968
0.000150004
0.000150008
0.000147661
0.000147698
0.000147703
0.000146695
0.000146735
0.00014674
0.000147662
0.000147706
0.000147713
0.000149999
0.000150044
0.000150053
0.000149664
0.000149701
0.000149709
0.000137223
0.000137243
0.000137249
0.000100549
0.000100553
0.000100556
3.31449e-05
3.31449e-05
3.31451e-05
3.38362e-05
3.38362e-05
3.38364e-05
0.00010204
0.000102044
0.000102047
0.000146507
0.000146526
0.000146533
0.000165113
0.000165151
0.000165161
0.000168093
0.000168141
0.000168152
0.000165838
0.000165886
0.000165896
0.000164075
0.00016412
0.000164127
0.000164376
0.000164417
0.000164423
0.000166391
0.000166431
0.000166436
0.000169303
0.000169344
0.000169349
0.000172391
0.000172434
0.000172439
0.000175247
0.000175293
0.000175298
0.000177485
0.000177534
0.00017754
0.000179135
0.000179187
0.000179194
0.000180253
0.000180306
0.000180313
0.000180255
0.000180308
0.000180315
0.00017914
0.000179192
0.000179199
0.000177491
0.00017754
0.000177546
0.000175253
0.000175299
0.000175304
0.000172401
0.000172444
0.000172449
0.000169311
0.000169352
0.000169357
0.000166403
0.000166443
0.000166448
0.000164382
0.000164423
0.000164429
0.000164066
0.000164111
0.000164118
0.000165812
0.00016586
0.00016587
0.000168065
0.000168113
0.000168125
0.000165105
0.000165144
0.000165154
0.000146521
0.00014654
0.000146547
0.000102046
0.00010205
0.000102053
3.3834e-05
3.38341e-05
3.38342e-05
3.44735e-05
3.44735e-05
3.44737e-05
0.00010271
0.000102714
0.000102717
0.000154367
0.000154385
0.000154393
0.000179932
0.000179971
0.000179982
0.000186686
0.000186736
0.000186749
0.000185212
0.000185264
0.000185275
0.000182785
0.000182833
0.000182842
0.000182268
0.000182311
0.000182318
0.000183801
0.000183842
0.000183848
0.000186563
0.000186605
0.000186612
0.000189691
0.000189736
0.000189742
0.000192679
0.000192727
0.000192734
0.00019503
0.000195083
0.00019509
0.000196773
0.000196829
0.000196838
0.000197995
0.000198052
0.000198061
0.000197998
0.000198055
0.000198064
0.00019678
0.000196836
0.000196844
0.000195038
0.000195091
0.000195098
0.000192686
0.000192734
0.000192741
0.000189702
0.000189747
0.000189753
0.000186573
0.000186615
0.000186621
0.000183815
0.000183856
0.000183862
0.000182273
0.000182316
0.000182323
0.00018277
0.000182818
0.000182827
0.000185177
0.000185229
0.00018524
0.00018665
0.0001867
0.000186714
0.00017992
0.00017996
0.000179971
0.000154378
0.000154397
0.000154404
0.000102715
0.000102718
0.000102721
3.44712e-05
3.44712e-05
3.44714e-05
3.50698e-05
3.50698e-05
3.507e-05
0.00010277
0.000102773
0.000102776
0.000160613
0.00016063
0.000160638
0.000193647
0.000193686
0.000193698
0.000205328
0.00020538
0.000205394
0.000205565
0.000205619
0.000205632
0.000202792
0.00020284
0.000202851
0.000201348
0.000201391
0.0002014
0.000202174
0.000202214
0.000202222
0.000204597
0.000204637
0.000204644
0.000207634
0.000207678
0.000207685
0.000210676
0.000210724
0.000210732
0.000213091
0.000213144
0.000213153
0.000214893
0.000214951
0.000214961
0.000216211
0.00021627
0.00021628
0.000216215
0.000216274
0.000216284
0.000214902
0.000214959
0.000214969
0.000213101
0.000213154
0.000213163
0.000210685
0.000210733
0.000210741
0.000207647
0.00020769
0.000207698
0.000204609
0.000204649
0.000204656
0.00020219
0.00020223
0.000202237
0.000201351
0.000201394
0.000201403
0.000202769
0.000202817
0.000202828
0.000205518
0.000205571
0.000205585
0.000205281
0.000205333
0.000205347
0.000193629
0.000193669
0.000193681
0.00016062
0.000160637
0.000160646
0.000102772
0.000102776
0.000102779
3.50674e-05
3.50674e-05
3.50676e-05
3.56342e-05
3.56342e-05
3.56343e-05
0.000102434
0.000102437
0.00010244
0.000165164
0.000165179
0.000165188
0.000205794
0.000205832
0.000205846
0.000223454
0.000223505
0.000223521
0.000226515
0.000226569
0.000226584
0.000223962
0.000224009
0.000224022
0.000221596
0.000221636
0.000221647
0.000221474
0.00022151
0.000221519
0.000223309
0.000223345
0.000223353
0.000226076
0.000226116
0.000226124
0.000229059
0.000229102
0.000229112
0.000231465
0.000231515
0.000231526
0.000233282
0.000233337
0.000233349
0.000234681
0.000234737
0.000234749
0.000234686
0.000234742
0.000234754
0.000233293
0.000233349
0.00023336
0.000231478
0.000231528
0.000231538
0.000229069
0.000229113
0.000229122
0.000226089
0.000226128
0.000226137
0.000223324
0.000223359
0.000223367
0.00022149
0.000221526
0.000221535
0.000221594
0.000221634
0.000221644
0.000223927
0.000223973
0.000223987
0.000226452
0.000226504
0.00022652
0.000223391
0.000223443
0.000223459
0.000205767
0.000205805
0.000205819
0.000165166
0.00016518
0.00016519
0.000102434
0.000102437
0.00010244
3.56316e-05
3.56316e-05
3.56317e-05
3.61722e-05
3.61722e-05
3.61723e-05
0.000101889
0.000101892
0.000101895
0.00016804
0.000168053
0.000168064
0.000215958
0.000215994
0.000216009
0.000240429
0.00024048
0.000240497
0.000247531
0.000247581
0.000247598
0.000246032
0.000246075
0.00024609
0.000242924
0.000242958
0.00024297
0.000241626
0.000241654
0.000241664
0.000242561
0.000242588
0.000242597
0.000244811
0.000244841
0.000244851
0.000247574
0.00024761
0.00024762
0.000249876
0.000249918
0.00024993
0.000251646
0.000251694
0.000251707
0.000253103
0.000253152
0.000253165
0.000253109
0.000253158
0.000253172
0.000251661
0.000251709
0.000251722
0.000249892
0.000249934
0.000249946
0.000247586
0.000247621
0.000247632
0.000244822
0.000244853
0.000244862
0.000242578
0.000242604
0.000242614
0.000241641
0.000241669
0.000241679
0.000242914
0.000242948
0.00024296
0.000245981
0.000246023
0.000246038
0.000247447
0.000247497
0.000247514
0.000240347
0.000240399
0.000240416
0.000215918
0.000215955
0.000215971
0.000168036
0.000168048
0.000168059
0.000101887
0.00010189
0.000101893
3.61694e-05
3.61694e-05
3.61696e-05
3.66859e-05
3.66859e-05
3.6686e-05
0.000101276
0.000101279
0.000101282
0.000169364
0.000169374
0.000169386
0.00022381
0.000223844
0.000223861
0.000255597
0.000255647
0.000255664
0.000267939
0.000267986
0.000268004
0.000268576
0.000268612
0.000268627
0.000265144
0.000265169
0.000265181
0.000262495
0.000262514
0.000262523
0.000262146
0.000262164
0.000262171
0.000263544
0.000263564
0.000263572
0.000265868
0.000265892
0.000265901
0.000267936
0.000267966
0.000267978
0.000269581
0.000269617
0.000269631
0.00027106
0.000271097
0.000271111
0.000271068
0.000271105
0.000271119
0.000269599
0.000269635
0.000269649
0.000267955
0.000267985
0.000267997
0.00026588
0.000265904
0.000265913
0.000263552
0.000263572
0.00026358
0.000262164
0.000262182
0.000262189
0.000262506
0.000262525
0.000262533
0.000265122
0.000265147
0.000265159
0.000268503
0.00026854
0.000268555
0.000267828
0.000267875
0.000267893
0.000255491
0.000255541
0.000255559
0.000223756
0.000223791
0.000223809
0.000169352
0.000169363
0.000169375
0.000101272
0.000101275
0.000101278
3.6683e-05
3.6683e-05
3.66832e-05
3.7174e-05
3.7174e-05
3.71742e-05
0.00010069
0.000100693
0.000100696
0.000169346
0.000169355
0.000169368
0.00022915
0.000229183
0.000229202
0.00026833
0.000268378
0.000268397
0.00028696
0.000287003
0.000287021
0.000290984
0.000291013
0.000291028
0.000287924
0.00028794
0.000287949
0.000283859
0.00028387
0.000283871
0.000281768
0.000281777
0.000281776
0.000281863
0.000281874
0.000281874
0.00028344
0.000283453
0.000283456
0.000285102
0.00028512
0.000285127
0.000286523
0.000286544
0.000286555
0.000287974
0.000287997
0.000288007
0.000287984
0.000288006
0.000288017
0.000286545
0.000286566
0.000286577
0.000285124
0.000285142
0.000285149
0.000283451
0.000283464
0.000283467
0.000281864
0.000281875
0.000281875
0.000281786
0.000281795
0.000281794
0.000283862
0.000283873
0.000283874
0.000287884
0.0002879
0.000287909
0.000290884
0.000290912
0.000290927
0.000286816
0.000286858
0.000286877
0.000268194
0.000268243
0.000268262
0.000229079
0.000229113
0.000229132
0.000169327
0.000169337
0.00016935
0.000100685
0.000100687
0.000100691
3.7171e-05
3.7171e-05
3.71712e-05
3.76324e-05
3.76324e-05
3.76326e-05
0.000100188
0.000100191
0.000100195
0.000168277
0.000168287
0.0001683
0.000231949
0.000231982
0.000232002
0.000278104
0.000278151
0.000278171
0.000303769
0.000303808
0.000303825
0.000312476
0.000312496
0.00031251
0.000310747
0.000310756
0.000310757
0.000305371
0.000305375
0.000305367
0.000301019
0.000301019
0.000301008
0.000299199
0.000299199
0.000299189
0.000299597
0.000299599
0.000299591
0.000300617
0.000300623
0.000300619
0.000301683
0.000301692
0.000301692
0.000303036
0.000303046
0.000303045
0.000303047
0.000303058
0.000303057
0.000301709
0.000301718
0.000301718
0.000300642
0.000300647
0.000300643
0.000299606
0.000299607
0.000299599
0.00029919
0.000299189
0.00029918
0.000301034
0.000301034
0.000301023
0.000305362
0.000305365
0.000305357
0.000310683
0.000310692
0.000310693
0.00031234
0.000312361
0.000312374
0.000303584
0.000303623
0.000303641
0.000277934
0.000277983
0.000278003
0.00023186
0.000231894
0.000231915
0.000168252
0.000168261
0.000168275
0.000100182
0.000100185
0.000100189
3.76293e-05
3.76293e-05
3.76295e-05
3.80546e-05
3.80546e-05
3.80548e-05
9.98177e-05
9.98221e-05
9.98259e-05
0.000166522
0.000166531
0.000166546
0.000232403
0.000232437
0.000232459
0.000284593
0.00028464
0.000284662
0.000317591
0.000317628
0.000317644
0.000332138
0.000332151
0.000332162
0.000332882
0.000332885
0.000332877
0.000326516
0.000326511
0.000326493
0.000319343
0.000319332
0.00031931
0.000314792
0.000314778
0.000314758
0.000313396