/*--------------------------------*- C++ -*----------------------------------*\
  =========                 |
  \\      /  F ield         | OpenFOAM: The Open Source CFD Toolbox
   \\    /   O peration     | Website:  https://openfoam.org
    \\  /    A nd           | Version:  6
     \\/     M anipulation  |
\*---------------------------------------------------------------------------*/
FoamFile
{
    version     2.0;
    format      ascii;
    class       volScalarField;
    location    "20";
    object      omega;
}
// * * * * * * * * * * * * * * * * * * * * * * * * * * * * * * * * * * * * * //

dimensions      [0 0 -1 0 0 0 0];

internalField   nonuniform List<scalar> 
2880
(
737.082
737.082
737.082
1471.07
1471.07
1471.07
1471.07
1471.07
1471.07
1471.07
1471.07
1471.07
1471.07
1471.07
1471.07
1471.07
1471.07
1471.07
1471.07
1471.07
1471.07
1471.07
1471.07
1471.07
1471.07
1471.07
1471.07
1471.07
1471.07
1471.07
1471.07
1471.07
1471.07
1471.07
1471.07
1471.07
1471.07
1471.07
1471.07
1471.07
1471.07
1471.07
1471.07
1471.07
1471.07
1471.07
1471.07
1471.07
1471.07
1471.07
1471.07
1471.07
1471.07
1471.07
1471.07
1471.07
1471.07
1471.07
1471.07
1471.07
1471.07
1471.07
1471.07
1471.07
1471.07
1471.07
1471.07
1471.07
1471.07
1471.07
1471.07
1471.07
1471.07
1471.07
1471.07
1471.07
1471.07
1471.07
1471.07
1471.07
1471.07
1471.07
1471.07
1471.07
1471.07
1471.07
1471.07
737.082
737.082
737.082
6.53253
6.53253
6.53258
346.206
346.206
346.207
365.643
365.643
365.645
377.662
377.663
377.665
386.431
386.432
386.434
393.313
393.314
393.315
398.97
398.97
398.972
403.749
403.75
403.751
407.843
407.844
407.845
411.351
411.352
411.353
414.309
414.31
414.311
416.711
416.712
416.713
418.51
418.511
418.512
419.703
419.704
419.705
420.328
420.328
420.33
420.327
420.328
420.33
419.702
419.702
419.704
418.508
418.508
418.51
416.708
416.708
416.71
414.305
414.306
414.308
411.347
411.348
411.349
407.839
407.84
407.841
403.744
403.744
403.746
398.961
398.962
398.963
393.301
393.301
393.303
386.416
386.417
386.419
377.647
377.647
377.649
365.629
365.63
365.632
346.195
346.195
346.197
6.53209
6.53209
6.53215
7.83327
7.83327
7.83333
153.581
153.581
153.582
165.709
165.709
165.71
172.37
172.37
172.371
177.261
177.261
177.262
181.177
181.177
181.178
184.457
184.457
184.458
187.273
187.273
187.274
189.72
189.72
189.721
191.842
191.842
191.843
193.652
193.652
193.653
195.134
195.134
195.135
196.251
196.251
196.252
196.992
196.993
196.994
197.381
197.381
197.382
197.381
197.381
197.382
196.992
196.992
196.993
196.249
196.249
196.25
195.132
195.132
195.133
193.649
193.649
193.65
191.84
191.84
191.841
189.717
189.717
189.718
187.27
187.27
187.27
184.452
184.452
184.452
181.169
181.169
181.17
177.252
177.252
177.253
172.362
172.361
172.363
165.702
165.702
165.703
153.575
153.575
153.576
7.83278
7.83278
7.83284
8.90648
8.90648
8.90655
86.1106
86.1105
86.1108
94.8198
94.8198
94.8204
99.6052
99.6052
99.6059
103.058
103.058
103.058
105.813
105.813
105.813
108.119
108.119
108.12
110.1
110.1
110.1
111.821
111.821
111.822
113.315
113.315
113.316
114.59
114.59
114.59
115.634
115.634
115.635
116.42
116.42
116.421
116.941
116.941
116.942
117.213
117.213
117.214
117.212
117.213
117.213
116.94
116.94
116.941
116.419
116.419
116.42
115.633
115.633
115.633
114.588
114.588
114.588
113.313
113.313
113.314
111.819
111.819
111.819
110.097
110.097
110.098
108.115
108.115
108.116
105.807
105.807
105.808
103.051
103.051
103.052
99.599
99.599
99.5997
94.8146
94.8146
94.8152
86.1062
86.1061
86.1065
8.90595
8.90595
8.90601
9.85939
9.85939
9.85946
55.8367
55.8366
55.8368
62.0596
62.0595
62.0599
65.7898
65.7898
65.7903
68.4242
68.4242
68.4246
70.5019
70.5019
70.5023
72.2303
72.2303
72.2306
73.7083
73.7083
73.7086
74.9891
74.9891
74.9894
76.0989
76.0989
76.0992
77.0445
77.0445
77.0449
77.8189
77.8189
77.8193
78.3998
78.3999
78.4003
78.7827
78.7829
78.7834
78.9819
78.9821
78.9826
78.9817
78.982
78.9825
78.7822
78.7824
78.7829
78.3989
78.399
78.3995
77.8176
77.8176
77.818
77.0429
77.0429
77.0433
76.0974
76.0973
76.0977
74.9875
74.9875
74.9878
73.7063
73.7062
73.7066
72.2274
72.2274
72.2277
70.498
70.498
70.4984
68.4196
68.4195
68.42
65.7851
65.7852
65.7856
62.0555
62.0555
62.0559
55.8333
55.8332
55.8334
9.85882
9.85882
9.85889
10.742
10.742
10.7421
39.8436
39.8435
39.8437
44.0209
44.0208
44.021
47.0242
47.0242
47.0245
49.1317
49.1317
49.1319
50.7733
50.7733
50.7736
52.1272
52.1272
52.1274
53.2781
53.278
53.2782
54.2712
54.2711
54.2714
55.1292
55.1292
55.1294
55.8587
55.8587
55.859
56.4551
56.4551
56.4554
56.9009
56.901
56.9013
57.1931
57.1934
57.1937
57.3441
57.3445
57.3448
57.344
57.3444
57.3447
57.1928
57.193
57.1933
56.9002
56.9003
56.9006
56.454
56.4541
56.4544
55.8575
55.8575
55.8577
55.128
55.1279
55.1282
54.2699
54.2698
54.27
53.2764
53.2764
53.2766
52.1249
52.1248
52.1251
50.7702
50.7702
50.7704
49.128
49.128
49.1283
47.0205
47.0206
47.0208
44.0176
44.0176
44.0178
39.8407
39.8406
39.8408
10.7414
10.7414
10.7415
11.5818
11.5818
11.5819
30.4382
30.4382
30.4383
32.9339
32.9337
32.9338
35.3576
35.3575
35.3576
37.092
37.092
37.0921
38.4324
38.4324
38.4325
39.5282
39.5281
39.5283
40.4534
40.4533
40.4534
41.2476
41.2476
41.2477
41.9314
41.9314
41.9315
42.5112
42.5112
42.5113
42.984
42.984
42.9842
43.3361
43.3363
43.3364
43.5655
43.5657
43.5659
43.6829
43.6832
43.6834
43.6828
43.6831
43.6833
43.5652
43.5654
43.5656
43.3356
43.3357
43.3359
42.9831
42.9831
42.9833
42.5101
42.5101
42.5102
41.9304
41.9303
41.9304
41.2465
41.2465
41.2466
40.452
40.4519
40.452
39.5263
39.5262
39.5264
38.4299
38.4299
38.43
37.0891
37.089
37.0892
35.3546
35.3546
35.3547
32.9311
32.9309
32.931
30.4357
30.4357
30.4358
11.5812
11.5812
11.5813
12.3948
12.3948
12.3949
24.4633
24.4632
24.4633
25.6169
25.6167
25.6167
27.5323
27.5321
27.5321
28.9789
28.9788
28.9788
30.0982
30.0981
30.0982
31.0071
31.0069
31.007
31.7691
31.769
31.769
32.4197
32.4195
32.4196
32.9774
32.9773
32.9774
33.4489
33.4488
33.4489
33.8323
33.8323
33.8324
34.1168
34.1169
34.117
34.3008
34.301
34.3011
34.3938
34.3941
34.3941
34.3937
34.394
34.3941
34.3005
34.3007
34.3008
34.1164
34.1164
34.1165
33.8316
33.8316
33.8316
33.448
33.4479
33.448
32.9765
32.9764
32.9765
32.4187
32.4186
32.4186
31.7679
31.7678
31.7678
31.0055
31.0053
31.0054
30.0962
30.0961
30.0961
28.9765
28.9764
28.9765
27.5298
27.5297
27.5297
25.6145
25.6143
25.6143
24.461
24.4609
24.461
12.3941
12.3941
12.3942
13.1892
13.1892
13.1893
20.4342
20.4341
20.4342
20.5524
20.552
20.552
22.001
22.0007
22.0006
23.2076
23.2073
23.2073
24.1553
24.1551
24.1551
24.9226
24.9224
24.9224
25.5623
25.562
25.562
26.1052
26.105
26.105
26.5687
26.5685
26.5685
26.9592
26.959
26.9591
27.2758
27.2757
27.2757
27.5099
27.5099
27.5099
27.6602
27.6603
27.6602
27.735
27.7351
27.7351
27.7349
27.7351
27.7351
27.6599
27.66
27.66
27.5095
27.5095
27.5095
27.2752
27.2751
27.2751
26.9584
26.9583
26.9583
26.5679
26.5677
26.5677
26.1044
26.1042
26.1042
25.5612
25.561
25.561
24.9213
24.921
24.921
24.1536
24.1534
24.1533
23.2056
23.2054
23.2054
21.999
21.9986
21.9986
20.5502
20.5498
20.5498
20.4321
20.432
20.432
13.1885
13.1885
13.1886
13.9678
13.9678
13.9679
17.5839
17.5838
17.5838
16.9279
16.9274
16.9274
17.9441
17.9436
17.9435
18.9372
18.9368
18.9368
19.7442
19.7438
19.7438
20.4002
20.3998
20.3998
20.9449
20.9446
20.9445
21.405
21.4046
21.4046
21.796
21.7957
21.7956
22.1243
22.1241
22.124
22.3897
22.3895
22.3895
22.5854
22.5853
22.5853
22.71
22.71
22.7099
22.771
22.771
22.7709
22.7709
22.7709
22.7709
22.7098
22.7098
22.7097
22.5851
22.585
22.5849
22.3892
22.389
22.3889
22.1236
22.1233
22.1233
21.7953
21.795
21.795
21.4042
21.4039
21.4039
20.944
20.9437
20.9436
20.399
20.3986
20.3986
19.7428
19.7424
19.7424
18.9356
18.9352
18.9352
17.9424
17.9418
17.9418
16.9259
16.9254
16.9254
17.5818
17.5818
17.5818
13.9671
13.9671
13.9672
14.729
14.729
14.7291
15.4875
15.4874
15.4874
14.2688
14.2682
14.2682
14.8892
14.8885
14.8885
15.684
15.6834
15.6833
16.3694
16.3688
16.3688
16.9342
16.9337
16.9336
17.4032
17.4027
17.4027
17.7978
17.7973
17.7973
18.1318
18.1314
18.1313
18.4115
18.4111
18.411
18.6369
18.6365
18.6365
18.8028
18.8025
18.8024
18.9075
18.9073
18.9072
18.9578
18.9576
18.9575
18.9577
18.9576
18.9575
18.9073
18.9071
18.907
18.8024
18.8021
18.8021
18.6364
18.636
18.636
18.4108
18.4105
18.4104
18.1312
18.1308
18.1307
17.7971
17.7966
17.7966
17.4024
17.4019
17.4018
16.9332
16.9326
16.9326
16.3682
16.3676
16.3676
15.6826
15.682
15.682
14.8877
14.887
14.887
14.267
14.2663
14.2663
15.4855
15.4854
15.4854
14.7282
14.7282
14.7283
15.468
15.468
15.4681
13.8965
13.8964
13.8964
12.2785
12.2778
12.2778
12.5449
12.5441
12.5441
13.151
13.1502
13.1502
13.7263
13.7256
13.7256
14.2135
14.2128
14.2127
14.6203
14.6197
14.6196
14.9621
14.9615
14.9614
15.2505
15.25
15.2499
15.4914
15.4909
15.4908
15.6851
15.6846
15.6845
15.8275
15.827
15.8269
15.9168
15.9164
15.9163
15.9586
15.9583
15.9582
15.9586
15.9583
15.9581
15.9166
15.9162
15.9161
15.8272
15.8267
15.8266
15.6846
15.6842
15.6841
15.4908
15.4903
15.4902
15.25
15.2494
15.2494
14.9614
14.9608
14.9608
14.6196
14.619
14.6189
14.2126
14.2119
14.2119
13.7253
13.7247
13.7246
13.1499
13.1492
13.1491
12.5437
12.5428
12.5428
12.2768
12.2761
12.2761
13.8945
13.8945
13.8945
15.4672
15.4672
15.4673
16.178
16.178
16.1781
12.659
12.6589
12.6589
10.7625
10.7618
10.7618
10.721
10.7201
10.7201
11.1466
11.1457
11.1457
11.6184
11.6176
11.6176
12.0367
12.036
12.0359
12.391
12.3902
12.3902
12.6892
12.6885
12.6884
12.9406
12.9399
12.9398
13.1502
13.1496
13.1495
13.3184
13.3178
13.3177
13.4421
13.4415
13.4414
13.5192
13.5186
13.5185
13.5545
13.554
13.5539
13.5545
13.554
13.5538
13.519
13.5185
13.5183
13.4418
13.4412
13.4411
13.318
13.3173
13.3172
13.1497
13.149
13.1489
12.9401
12.9394
12.9393
12.6886
12.6879
12.6878
12.3903
12.3896
12.3895
12.036
12.0352
12.0352
11.6177
11.6168
11.6168
11.1457
11.1448
11.1448
10.7199
10.7189
10.7189
10.7608
10.7601
10.7601
12.657
12.6569
12.657
16.1771
16.1772
16.1773
16.8517
16.8517
16.8519
11.6784
11.6782
11.6782
9.58844
9.58775
9.58775
9.28681
9.28583
9.28582
9.54135
9.54034
9.54032
9.91344
9.9125
9.91245
10.2683
10.2674
10.2674
10.5766
10.5757
10.5757
10.8381
10.8373
10.8372
11.0589
11.0581
11.058
11.243
11.2422
11.2421
11.3905
11.3897
11.3896
11.4992
11.4984
11.4983
11.5667
11.566
11.5658
11.5968
11.5962
11.596
11.5968
11.5961
11.596
11.5665
11.5658
11.5657
11.4989
11.4981
11.498
11.3901
11.3893
11.3893
11.2424
11.2417
11.2416
11.0584
11.0576
11.0575
10.8375
10.8367
10.8366
10.576
10.5751
10.5751
10.2677
10.2668
10.2668
9.91282
9.91188
9.91183
9.54066
9.53965
9.53963
9.28582
9.28484
9.28483
9.58684
9.58615
9.58615
11.6765
11.6764
11.6764
16.8509
16.8509
16.851
17.4827
17.4828
17.4829
10.8911
10.891
10.891
8.66425
8.66357
8.66357
8.14913
8.14812
8.14812
8.24441
8.24334
8.24333
8.51916
8.51814
8.51811
8.81368
8.81272
8.81268
9.08036
9.07944
9.07939
9.31012
9.30923
9.30916
9.5052
9.50432
9.50426
9.66826
9.6674
9.66732
9.7989
9.79804
9.79795
9.89547
9.8946
9.89451
9.95534
9.95449
9.95437
9.98148
9.98066
9.98053
9.98143
9.9806
9.98047
9.95517
9.95432
9.95421
9.8952
9.89434
9.89424
9.79853
9.79767
9.79758
9.66775
9.66689
9.66682
9.50477
9.50391
9.50384
9.3096
9.30871
9.30865
9.07982
9.07891
9.07885
8.81317
8.81222
8.81217
8.5187
8.51768
8.51765
8.24388
8.24281
8.2428
8.14825
8.14724
8.14724
8.6627
8.66203
8.66203
10.8893
10.8892
10.8892
17.4818
17.4819
17.482
18.0665
18.0666
18.0667
10.2539
10.2538
10.2538
7.9245
7.92385
7.92385
7.23914
7.23816
7.23816
7.18973
7.18863
7.18863
7.36953
7.36847
7.36845
7.60507
7.60408
7.60404
7.83284
7.83189
7.83184
8.03438
8.03345
8.0334
8.20746
8.20654
8.20648
8.35294
8.35202
8.35196
8.46968
8.46875
8.46867
8.55642
8.55547
8.55538
8.61023
8.60927
8.60917
8.63321
8.63227
8.63215
8.63315
8.63221
8.6321
8.61006
8.6091
8.609
8.55616
8.55521
8.55512
8.46933
8.4684
8.46832
8.35246
8.35154
8.35148
8.20707
8.20616
8.2061
8.0339
8.03297
8.03292
7.83237
7.83142
7.83137
7.60467
7.60368
7.60365
7.36921
7.36815
7.36813
7.18933
7.18824
7.18824
7.23836
7.23738
7.23738
7.92303
7.92238
7.92238
10.2521
10.252
10.252
18.0656
18.0656
18.0657
18.6014
18.6014
18.6015
9.73627
9.73613
9.73613
7.32229
7.32168
7.32168
6.50487
6.50394
6.50393
6.32764
6.32658
6.32656
6.41579
6.41473
6.41472
6.59286
6.59186
6.59183
6.78303
6.78208
6.78204
6.95864
6.95771
6.95766
7.11245
7.11152
7.11147
7.24303
7.2421
7.24204
7.34821
7.34725
7.34719
7.42692
7.42592
7.42585
7.47589
7.47488
7.47479
7.4964
7.49539
7.49529
7.49633
7.49533
7.49523
7.47572
7.47471
7.47462
7.42666
7.42567
7.42559
7.34788
7.34692
7.34686
7.24258
7.24164
7.24158
7.11209
7.11117
7.11112
6.9582
6.95727
6.95723
6.78263
6.78168
6.78164
6.59257
6.59157
6.59155
6.41561
6.41455
6.41454
6.32737
6.3263
6.3263
6.50418
6.50323
6.50324
7.32089
7.32029
7.32028
9.73457
9.73443
9.73443
18.6004
18.6004
18.6005
19.0886
19.0887
19.0888
9.31612
9.31596
9.31597
6.82377
6.8232
6.82321
5.90641
5.90554
5.90553
5.6197
5.61868
5.61868
5.62105
5.62002
5.62002
5.73987
5.7389
5.73889
5.89275
5.89184
5.89181
6.04372
6.04283
6.04279
6.18014
6.17925
6.17921
6.29786
6.29695
6.2969
6.39332
6.39237
6.39231
6.46538
6.46439
6.46432
6.51049
6.50945
6.50938
6.52905
6.52802
6.52793
6.52898
6.52795
6.52787
6.51031
6.50928
6.50921
6.46513
6.46414
6.46407
6.393
6.39205
6.392
6.29743
6.29652
6.29647
6.17982
6.17893
6.17889
6.04332
6.04243
6.0424
5.89242
5.89151
5.89148
5.73969
5.73873
5.73871
5.62099
5.61998
5.61997
5.61955
5.61854
5.61853
5.90582
5.90494
5.90493
6.82247
6.8219
6.8219
9.3145
9.31435
9.31435
19.0875
19.0876
19.0877
19.5323
19.5323
19.5324
8.97725
8.97709
8.9771
6.40459
6.40407
6.40407
5.41292
5.41211
5.41211
5.03542
5.03449
5.03447
4.95658
4.95563
4.95563
5.01774
5.01685
5.01684
5.13302
5.13218
5.13216
5.25978
5.25896
5.25893
5.37998
5.37915
5.37912
5.48627
5.48542
5.48538
5.57339
5.57249
5.57245
5.63989
5.63894
5.63889
5.68186
5.68086
5.6808
5.69889
5.69788
5.69782
5.69882
5.69781
5.69775
5.68168
5.68068
5.68062
5.63965
5.63869
5.63864
5.5731
5.5722
5.57215
5.48588
5.48502
5.48498
5.37968
5.37886
5.37883
5.25943
5.25861
5.25859
5.13277
5.13192
5.13191
5.01767
5.01678
5.01677
4.95665
4.9557
4.9557
5.03538
5.03444
5.03444
5.41242
5.4116
5.4116
6.4034
6.40288
6.40288
8.97573
8.97557
8.97558
19.5311
19.5312
19.5313
19.9385
19.9385
19.9386
8.7078
8.70765
8.70765
6.04742
6.04696
6.04696
5.00052
4.99979
4.99979
4.55019
4.54934
4.54933
4.39946
4.3986
4.3986
4.40442
4.40362
4.40361
4.48151
4.48077
4.48075
4.58384
4.58311
4.5831
4.6883
4.68758
4.68755
4.78409
4.78333
4.7833
4.86387
4.86306
4.86303
4.92559
4.92472
4.92468
4.96496
4.96403
4.96398
4.98077
4.97983
4.97978
4.9807
4.97976
4.97971
4.96477
4.96385
4.9638
4.92535
4.92447
4.92443
4.8636
4.86279
4.86276
4.78374
4.78298
4.78295
4.68804
4.68732
4.68729
4.58354
4.58282
4.5828
4.48134
4.48059
4.48058
4.40446
4.40366
4.40366
4.39965
4.3988
4.39879
4.55027
4.54942
4.54941
5.00013
4.99939
4.99939
6.04636
6.04589
6.04589
8.70638
8.70623
8.70623
19.9372
19.9372
19.9373
20.314
20.314
20.3141
8.49924
8.4991
8.49909
5.74033
5.73992
5.73991
4.65092
4.65026
4.65026
4.14398
4.14322
4.14322
3.9309
3.93014
3.93014
3.88234
3.88165
3.88165
3.92084
3.92021
3.9202
3.99804
3.99744
3.99743
4.0867
4.0861
4.08608
4.1724
4.17176
4.17174
4.24547
4.24478
4.24475
4.30292
4.30216
4.30213
4.34005
4.33923
4.33919
4.35487
4.35404
4.354
4.35479
4.35396
4.35392
4.33986
4.33904
4.33901
4.30269
4.30193
4.30189
4.24522
4.24453
4.2445
4.17209
4.17145
4.17143
4.08646
4.08586
4.08584
3.9978
3.9972
3.99719
3.92075
3.92012
3.92011
3.88248
3.8818
3.88179
3.93119
3.93044
3.93044
4.14417
4.14342
4.14341
4.65065
4.64999
4.64998
5.73941
5.739
5.73898
8.49793
8.49778
8.49778
20.3126
20.3127
20.3128
20.6654
20.6654
20.6655
8.34553
8.34538
8.34537
5.47545
5.47511
5.47507
4.35031
4.34972
4.34972
3.80047
3.79981
3.79981
3.53521
3.53456
3.53456
3.4372
3.43662
3.43662
3.43727
3.43677
3.43676
3.48846
3.48799
3.48799
3.56075
3.56029
3.56028
3.63632
3.63582
3.6358
3.70294
3.70239
3.70237
3.75639
3.75577
3.75575
3.79148
3.79079
3.79077
3.80546
3.80477
3.80473
3.80538
3.80469
3.80466
3.79129
3.79061
3.79058
3.75616
3.75554
3.75552
3.70272
3.70216
3.70214
3.63606
3.63556
3.63554
3.56054
3.56008
3.56007
3.48828
3.48781
3.4878
3.43726
3.43676
3.43675
3.43743
3.43686
3.43686
3.53561
3.53496
3.53497
3.80079
3.80012
3.80012
4.35018
4.34958
4.34958
5.47468
5.47432
5.47429
8.34431
8.34417
8.34416
20.664
20.664
20.6641
20.9979
20.998
20.998
8.24213
8.242
8.24198
5.24807
5.24777
5.24773
4.08863
4.08811
4.0881
3.50653
3.50595
3.50595
3.19915
3.1986
3.1986
3.05702
3.05656
3.05656
3.01978
3.01939
3.01939
3.04419
3.04386
3.04386
3.09921
3.09889
3.09888
3.16415
3.16379
3.16379
3.22423
3.22382
3.22381
3.27369
3.27322
3.2732
3.30678
3.30625
3.30623
3.32001
3.31947
3.31945
3.31993
3.31939
3.31937
3.30659
3.30606
3.30605
3.27347
3.273
3.27298
3.22403
3.22363
3.22362
3.16395
3.16359
3.16358
3.09903
3.0987
3.0987
3.04406
3.04373
3.04373
3.01984
3.01946
3.01946
3.05735
3.05689
3.05689
3.19966
3.19912
3.19912
3.50697
3.50639
3.50639
4.08864
4.08811
4.0881
5.24744
5.24714
5.24709
8.24102
8.24088
8.24087
20.9964
20.9964
20.9965
21.315
21.315
21.315
8.18509
8.18496
8.18493
5.05568
5.05543
5.05536
3.8589
3.85844
3.85841
3.25174
3.25124
3.25123
2.91153
2.91108
2.91108
2.73162
2.73127
2.73127
2.65932
2.65906
2.65905
2.65666
2.65645
2.65645
2.69334
2.69315
2.69315
2.74679
2.74657
2.74657
2.79986
2.7996
2.7996
2.8451
2.84478
2.84478
2.87609
2.87572
2.8757
2.88859
2.88821
2.8882
2.88851
2.88813
2.88812
2.8759
2.87553
2.87552
2.8449
2.84458
2.84457
2.7997
2.79944
2.79944
2.74664
2.74642
2.74642
2.69319
2.693
2.693
2.65658
2.65638
2.65638
2.65945
2.65919
2.65919
2.73203
2.73168
2.73167
2.91214
2.9117
2.9117
3.25233
3.25181
3.25181
3.85905
3.85858
3.85855
5.05518
5.05493
5.05486
8.18406
8.18394
8.18391
21.3133
21.3133
21.3134
21.6177
21.6177
21.6177
8.17003
8.16991
8.16988
4.89718
4.89698
4.89689
3.65666
3.65625
3.65621
3.02821
3.02775
3.02775
2.66303
2.66267
2.66267
2.4522
2.45194
2.45194
2.34835
2.34819
2.34819
2.31909
2.31898
2.31899
2.33648
2.33639
2.33641
2.37727
2.37717
2.37719
2.42256
2.42242
2.42244
2.46307
2.46289
2.4629
2.49169
2.49147
2.49147
2.50344
2.50322
2.50321
2.50336
2.50314
2.50314
2.49151
2.49129
2.49129
2.46288
2.46271
2.46271
2.42243
2.42229
2.42231
2.37719
2.37708
2.3771
2.33636
2.33627
2.33629
2.31907
2.31896
2.31897
2.34854
2.34838
2.34838
2.45268
2.45242
2.45242
2.66375
2.66339
2.66339
3.02893
3.02847
3.02847
3.65696
3.65654
3.6565
4.89683
4.89661
4.89652
8.16908
8.16897
8.16893
21.616
21.616
21.616
21.9053
21.9053
21.9054
8.19157
8.19144
8.1914
4.77208
4.7719
4.77178
3.47948
3.4791
3.47904
2.83023
2.82983
2.82982
2.44615
2.44586
2.44586
2.21128
2.2111
2.2111
2.08049
2.0804
2.08042
2.02616
2.02611
2.02617
2.0237
2.02366
2.02373
2.05054
2.05051
2.05057
2.08693
2.08688
2.08694
2.12199
2.12191
2.12195
2.14782
2.14772
2.14774
2.15874
2.15864
2.15866
2.15867
2.15856
2.15859
2.14766
2.14755
2.14758
2.12182
2.12174
2.12179
2.08684
2.08679
2.08685
2.05052
2.05048
2.05055
2.0236
2.02357
2.02364
2.02618
2.02613
2.02619
2.08072
2.08064
2.08065
2.21181
2.21164
2.21164
2.44697
2.44668
2.44668
2.8311
2.83069
2.83068
3.47993
3.47954
3.47947
4.77185
4.77166
4.77155
8.19069
8.19056
8.19052
21.9035
21.9035
21.9036
22.1754
22.1754
22.1755
8.24267
8.24249
8.24245
4.67951
4.67932
4.67919
3.32635
3.32598
3.3259
2.65418
2.65381
2.65379
2.25526
2.25502
2.25501
2.00274
2.00263
2.00263
1.85044
1.8504
1.85045
1.77372
1.77371
1.77379
1.7515
1.75151
1.75161
1.76322
1.76323
1.76333
1.78942
1.78943
1.78953
1.81808
1.81807
1.81816
1.84061
1.84058
1.84066
1.85057
1.85054
1.85062
1.8505
1.85047
1.85055
1.84046
1.84043
1.84051
1.81794
1.81793
1.81802
1.78937
1.78938
1.78947
1.76325
1.76326
1.76336
1.75143
1.75144
1.75154
1.77377
1.77376
1.77384
1.8507
1.85066
1.85071
2.00333
2.00322
2.00322
2.25618
2.25593
2.25593
2.65521
2.65482
2.6548
3.32696
3.32657
3.32649
4.67941
4.67922
4.67909
8.24182
8.24165
8.24161
22.1736
22.1736
22.1736
22.4242
22.4242
22.4243
8.31378
8.31356
8.31352
4.61717
4.61697
4.61682
3.19714
3.19676
3.19666
2.49837
2.49802
2.49798
2.08676
2.08655
2.08655
1.82216
1.82209
1.8221
1.65414
1.65413
1.6542
1.55875
1.55877
1.55887
1.51782
1.51788
1.51799
1.51361
1.51367
1.51379
1.52831
1.52838
1.5285
1.54954
1.54959
1.54971
1.56816
1.56819
1.56831
1.57699
1.57702
1.57714
1.57693
1.57696
1.57708
1.56804
1.56806
1.56818
1.54943
1.54948
1.5496
1.52829
1.52836
1.52848
1.51369
1.51375
1.51386
1.51777
1.51783
1.51794
1.55881
1.55884
1.55893
1.65441
1.6544
1.65447
1.82278
1.82271
1.82272
2.08777
2.08755
2.08755
2.49954
2.49917
2.49914
3.1979
3.1975
3.19741
4.61719
4.617
4.61684
8.31295
8.31275
8.3127
22.4223
22.4223
22.4224
22.6463
22.6463
22.6464
8.39331
8.39312
8.39306
4.58081
4.58062
4.58044
3.09219
3.0918
3.09168
2.36308
2.36273
2.36269
1.93949
1.93931
1.9393
1.66727
1.66723
1.66724
1.48916
1.48918
1.48926
1.37959
1.37965
1.37975
1.32206
1.32215
1.32226
1.30188
1.30198
1.3021
1.30407
1.30418
1.3043
1.31692
1.31702
1.31714
1.33106
1.33115
1.33127
1.33858
1.33866
1.3388
1.33853
1.33861
1.33875
1.33096
1.33104
1.33117
1.31684
1.31694
1.31707
1.30408
1.30419
1.30431
1.30199
1.30209
1.3022
1.32202
1.32211
1.32222
1.37965
1.37971
1.37981
1.48943
1.48945
1.48952
1.6679
1.66786
1.66788
1.94057
1.94038
1.94037
2.36437
2.36401
2.36396
3.09307
3.09266
3.09255
4.58089
4.58071
4.58052
8.39251
8.39232
8.39226
22.6444
22.6444
22.6445
22.8338
22.8338
22.8339
8.47099
8.47089
8.47079
4.56537
4.56523
4.56501
3.01237
3.01198
3.01183
2.25088
2.25051
2.25046
1.81531
1.81514
1.81512
1.53873
1.5387
1.53873
1.35546
1.35551
1.35558
1.23642
1.23651
1.2366
1.16539
1.1655
1.16561
1.13036
1.13048
1.13059
1.11984
1.11996
1.12008
1.12382
1.12395
1.12407
1.13316
1.13327
1.13339
1.13923
1.13934
1.13948
1.1392
1.13931
1.13944
1.13308
1.13319
1.13332
1.12377
1.1239
1.12402
1.11987
1.12
1.12011
1.13049
1.13061
1.13072
1.16536
1.16547
1.16557
1.23646
1.23655
1.23665
1.35571
1.35576
1.35583
1.53937
1.53934
1.53937
1.81644
1.81626
1.81624
2.25226
2.25188
2.25183
3.01334
3.01292
3.01278
4.56546
4.56532
4.56509
8.47019
8.47009
8.47
22.8319
22.8319
22.832
22.9749
22.9749
22.975
8.53906
8.53894
8.53884
4.56614
4.56599
4.56575
2.95904
2.95861
2.95846
2.1669
2.16651
2.16645
1.71999
1.71981
1.71979
1.44119
1.44117
1.44119
1.25636
1.25642
1.25648
1.13208
1.13219
1.13227
1.05145
1.05156
1.05166
1.00428
1.00439
1.00449
0.9824
0.982511
0.98262
0.978146
0.978256
0.978373
0.98294
0.983044
0.983166
0.987631
0.987734
0.987863
0.987604
0.987707
0.987836
0.982886
0.98299
0.983113
0.978119
0.978229
0.978346
0.982444
0.982555
0.982664
1.00441
1.00452
1.00462
1.05142
1.05153
1.05162
1.13211
1.13221
1.13229
1.25658
1.25664
1.25671
1.44182
1.4418
1.44182
1.72115
1.72096
1.72094
2.16836
2.16796
2.16789
2.96009
2.95963
2.95947
4.56625
4.5661
4.56585
8.53823
8.53812
8.53802
22.9731
22.9731
22.9732
23.0556
23.0556
23.0557
8.5822
8.58201
8.58194
4.57292
4.57272
4.57248
2.93204
2.93158
2.93142
2.11895
2.11854
2.11847
1.66415
1.66396
1.66393
1.38446
1.38444
1.38445
1.1998
1.19987
1.19993
1.07344
1.07355
1.07363
0.987624
0.987731
0.987819
0.933087
0.93318
0.933278
0.903813
0.903899
0.904006
0.894006
0.894087
0.894203
0.895704
0.895779
0.895901
0.899435
0.899511
0.899639
0.899415
0.899491
0.899619
0.895665
0.895741
0.895863
0.893992
0.894073
0.894189
0.903862
0.903947
0.904054
0.933213
0.933305
0.933402
0.987588
0.987695
0.987783
1.07345
1.07356
1.07364
1.20001
1.20008
1.20013
1.38508
1.38505
1.38507
1.66531
1.66511
1.66509
2.12045
2.12002
2.11995
2.93313
2.93265
2.93249
4.57305
4.57286
4.57262
8.58134
8.58116
8.58109
23.0537
23.0537
23.0538
)
;

boundaryField
{
    freeSurface
    {
        type            slip;
    }
    inlet
    {
        type            cyclic;
    }
    outlet
    {
        type            cyclic;
    }
    sidewalls
    {
        type            omegaWallFunction;
        Cmu             0.09;
        kappa           0.41;
        E               9.8;
        beta1           0.075;
        blended         false;
        value           nonuniform List<scalar> 
192
(
737.082
6.53253
7.83327
8.90648
9.85939
10.742
11.5818
12.3948
13.1892
13.9678
14.729
15.468
16.178
16.8517
17.4827
18.0665
18.6014
19.0886
19.5323
19.9385
20.314
20.6654
20.9979
21.315
21.6177
21.9053
22.1754
22.4242
22.6463
22.8338
22.9749
23.0556
737.082
6.53253
7.83327
8.90648
9.85939
10.742
11.5818
12.3948
13.1892
13.9678
14.729
15.468
16.178
16.8517
17.4828
18.0666
18.6014
19.0887
19.5323
19.9385
20.314
20.6654
20.998
21.315
21.6177
21.9053
22.1754
22.4242
22.6463
22.8338
22.9749
23.0556
737.082
6.53258
7.83333
8.90655
9.85946
10.7421
11.5819
12.3949
13.1893
13.9679
14.7291
15.4681
16.1781
16.8519
17.4829
18.0667
18.6015
19.0888
19.5324
19.9386
20.3141
20.6655
20.998
21.315
21.6177
21.9054
22.1755
22.4243
22.6464
22.8339
22.975
23.0557
737.082
6.53209
7.83278
8.90595
9.85882
10.7414
11.5812
12.3941
13.1885
13.9671
14.7282
15.4672
16.1771
16.8509
17.4818
18.0656
18.6004
19.0875
19.5311
19.9372
20.3126
20.664
20.9964
21.3133
21.616
21.9035
22.1736
22.4223
22.6444
22.8319
22.9731
23.0537
737.082
6.53209
7.83278
8.90595
9.85882
10.7414
11.5812
12.3941
13.1885
13.9671
14.7282
15.4672
16.1772
16.8509
17.4819
18.0656
18.6004
19.0876
19.5312
19.9372
20.3127
20.664
20.9964
21.3133
21.616
21.9035
22.1736
22.4223
22.6444
22.8319
22.9731
23.0537
737.082
6.53215
7.83284
8.90601
9.85889
10.7415
11.5813
12.3942
13.1886
13.9672
14.7283
15.4673
16.1773
16.851
17.482
18.0657
18.6005
19.0877
19.5313
19.9373
20.3128
20.6641
20.9965
21.3134
21.616
21.9036
22.1736
22.4224
22.6445
22.832
22.9732
23.0538
)
;
    }
    noSlipWalls
    {
        type            omegaWallFunction;
        Cmu             0.09;
        kappa           0.41;
        E               9.8;
        beta1           0.075;
        blended         false;
        value           nonuniform List<scalar> 
90
(
737.082
1471.07
1471.07
1471.07
1471.07
1471.07
1471.07
1471.07
1471.07
1471.07
1471.07
1471.07
1471.07
1471.07
1471.07
1471.07
1471.07
1471.07
1471.07
1471.07
1471.07
1471.07
1471.07
1471.07
1471.07
1471.07
1471.07
1471.07
1471.07
737.082
737.082
1471.07
1471.07
1471.07
1471.07
1471.07
1471.07
1471.07
1471.07
1471.07
1471.07
1471.07
1471.07
1471.07
1471.07
1471.07
1471.07
1471.07
1471.07
1471.07
1471.07
1471.07
1471.07
1471.07
1471.07
1471.07
1471.07
1471.07
1471.07
737.082
737.082
1471.07
1471.07
1471.07
1471.07
1471.07
1471.07
1471.07
1471.07
1471.07
1471.07
1471.07
1471.07
1471.07
1471.07
1471.07
1471.07
1471.07
1471.07
1471.07
1471.07
1471.07
1471.07
1471.07
1471.07
1471.07
1471.07
1471.07
1471.07
737.082
)
;
    }
}


// ************************************************************************* //
