/*--------------------------------*- C++ -*----------------------------------*\
  =========                 |
  \\      /  F ield         | OpenFOAM: The Open Source CFD Toolbox
   \\    /   O peration     | Website:  https://openfoam.org
    \\  /    A nd           | Version:  6
     \\/     M anipulation  |
\*---------------------------------------------------------------------------*/
FoamFile
{
    version     2.0;
    format      ascii;
    class       volScalarField;
    location    "20";
    object      p;
}
// * * * * * * * * * * * * * * * * * * * * * * * * * * * * * * * * * * * * * //

dimensions      [0 2 -2 0 0 0 0];

internalField   nonuniform List<scalar> 
2880
(
4.58919e-15
1.79676e-08
7.58125e-08
-1.14099e-10
1.79819e-08
7.58244e-08
-2.12558e-10
1.78992e-08
7.59681e-08
-3.59432e-10
1.81155e-08
7.58774e-08
-5.81364e-10
1.85573e-08
7.56421e-08
-9.13134e-10
1.92186e-08
7.52924e-08
-1.22395e-09
1.98954e-08
7.48984e-08
-1.47538e-09
2.04386e-08
7.45695e-08
-1.586e-09
2.05477e-08
7.45534e-08
-1.54183e-09
2.05499e-08
7.45037e-08
-1.40479e-09
2.03914e-08
7.4519e-08
-1.24528e-09
1.96434e-08
7.51018e-08
-9.29214e-10
1.90933e-08
7.53294e-08
-7.52076e-10
1.86365e-08
7.55964e-08
-6.21304e-10
1.83265e-08
7.57658e-08
-6.32469e-10
1.83146e-08
7.57755e-08
-7.68952e-10
1.86041e-08
7.56134e-08
-9.51738e-10
1.9014e-08
7.53779e-08
-1.26915e-09
1.95378e-08
7.51644e-08
-1.4381e-09
2.02567e-08
7.46113e-08
-1.58174e-09
2.03562e-08
7.4647e-08
-1.60674e-09
2.05193e-08
7.45049e-08
-1.52885e-09
2.02021e-08
7.47418e-08
-1.28466e-09
1.96367e-08
7.50605e-08
-9.7262e-10
1.89611e-08
7.54214e-08
-6.55484e-10
1.82934e-08
7.57693e-08
-4.3674e-10
1.78472e-08
7.59964e-08
-3.05123e-10
1.76271e-08
7.6085e-08
-2.43146e-10
1.771e-08
7.59405e-08
-2.1746e-10
1.76983e-08
7.59268e-08
-3.34262e-14
1.79591e-08
7.58169e-08
-1.13452e-10
1.79805e-08
7.58251e-08
-2.11821e-10
1.78981e-08
7.59683e-08
-3.58529e-10
1.81144e-08
7.58775e-08
-5.79949e-10
1.85548e-08
7.5643e-08
-9.11043e-10
1.9215e-08
7.52939e-08
-1.22143e-09
1.98909e-08
7.49004e-08
-1.47282e-09
2.04337e-08
7.45719e-08
-1.58355e-09
2.05435e-08
7.45552e-08
-1.53958e-09
2.05456e-08
7.45057e-08
-1.40261e-09
2.03867e-08
7.45214e-08
-1.24284e-09
1.96395e-08
7.51032e-08
-9.2668e-10
1.9089e-08
7.53311e-08
-7.49285e-10
1.86322e-08
7.55978e-08
-6.1839e-10
1.83223e-08
7.57672e-08
-6.29548e-10
1.83103e-08
7.57769e-08
-7.66167e-10
1.85999e-08
7.56149e-08
-9.49198e-10
1.90098e-08
7.53796e-08
-1.26672e-09
1.9534e-08
7.51657e-08
-1.43591e-09
2.0252e-08
7.46138e-08
-1.57944e-09
2.03522e-08
7.46487e-08
-1.60438e-09
2.05145e-08
7.45073e-08
-1.52625e-09
2.01975e-08
7.47438e-08
-1.28213e-09
1.96323e-08
7.50624e-08
-9.70498e-10
1.89575e-08
7.54228e-08
-6.54025e-10
1.82911e-08
7.57702e-08
-4.35813e-10
1.78461e-08
7.59965e-08
-3.0436e-10
1.76262e-08
7.60852e-08
-2.42416e-10
1.77086e-08
7.59412e-08
-2.13248e-10
1.76898e-08
7.59311e-08
-4.91884e-12
1.795e-08
7.5822e-08
-1.12219e-10
1.79777e-08
7.58264e-08
-2.10232e-10
1.78962e-08
7.59685e-08
-3.56514e-10
1.81122e-08
7.58775e-08
-5.7683e-10
1.855e-08
7.56446e-08
-9.06534e-10
1.92077e-08
7.52966e-08
-1.21606e-09
1.98818e-08
7.49041e-08
-1.46739e-09
2.04238e-08
7.45765e-08
-1.57835e-09
2.05352e-08
7.45584e-08
-1.5348e-09
2.05372e-08
7.45094e-08
-1.39799e-09
2.03774e-08
7.45263e-08
-1.23765e-09
1.96321e-08
7.51054e-08
-9.21307e-10
1.90806e-08
7.53342e-08
-7.43401e-10
1.86237e-08
7.56005e-08
-6.12256e-10
1.83136e-08
7.57697e-08
-6.23397e-10
1.83017e-08
7.57794e-08
-7.60295e-10
1.85913e-08
7.56176e-08
-9.43812e-10
1.90014e-08
7.53827e-08
-1.26153e-09
1.95266e-08
7.51679e-08
-1.43127e-09
2.02427e-08
7.46185e-08
-1.57454e-09
2.03446e-08
7.46515e-08
-1.59938e-09
2.05049e-08
7.4512e-08
-1.52072e-09
2.01884e-08
7.47475e-08
-1.2767e-09
1.96234e-08
7.50658e-08
-9.65916e-10
1.89503e-08
7.54254e-08
-6.50809e-10
1.82863e-08
7.57718e-08
-4.33738e-10
1.78442e-08
7.59965e-08
-3.02718e-10
1.76244e-08
7.60854e-08
-2.40962e-10
1.77059e-08
7.59425e-08
-2.0927e-10
1.76808e-08
7.59362e-08
-1.45603e-11
1.79451e-08
7.58249e-08
-1.10194e-10
1.7973e-08
7.58284e-08
-2.07319e-10
1.78927e-08
7.59689e-08
-3.52805e-10
1.81082e-08
7.58776e-08
-5.71431e-10
1.85418e-08
7.56471e-08
-8.99114e-10
1.91961e-08
7.53006e-08
-1.20743e-09
1.98675e-08
7.49097e-08
-1.45877e-09
2.04083e-08
7.45837e-08
-1.57003e-09
2.05227e-08
7.4563e-08
-1.52713e-09
2.05244e-08
7.45147e-08
-1.39064e-09
2.03627e-08
7.45337e-08
-1.2292e-09
1.96213e-08
7.51079e-08
-9.12646e-10
1.90677e-08
7.53384e-08
-7.33962e-10
1.86105e-08
7.56043e-08
-6.02432e-10
1.83002e-08
7.57732e-08
-6.13541e-10
1.82883e-08
7.57829e-08
-7.50881e-10
1.8578e-08
7.56215e-08
-9.35124e-10
1.89885e-08
7.53869e-08
-1.2531e-09
1.95159e-08
7.51703e-08
-1.42388e-09
2.02279e-08
7.46259e-08
-1.56662e-09
2.03332e-08
7.4655e-08
-1.59147e-09
2.04896e-08
7.45194e-08
-1.51193e-09
2.01742e-08
7.47529e-08
-1.26799e-09
1.96098e-08
7.50708e-08
-9.58368e-10
1.8939e-08
7.54292e-08
-6.45239e-10
1.82785e-08
7.57742e-08
-4.29897e-10
1.78403e-08
7.59965e-08
-2.99672e-10
1.7621e-08
7.60857e-08
-2.38403e-10
1.77014e-08
7.59444e-08
-2.07334e-10
1.76761e-08
7.59391e-08
-2.49622e-11
1.79416e-08
7.58268e-08
-1.07638e-10
1.79668e-08
7.5831e-08
-2.03452e-10
1.7888e-08
7.59693e-08
-3.47837e-10
1.81028e-08
7.58777e-08
-5.64323e-10
1.85315e-08
7.56499e-08
-8.89546e-10
1.91817e-08
7.53051e-08
-1.19642e-09
1.98499e-08
7.49162e-08
-1.44783e-09
2.03888e-08
7.45926e-08
-1.55932e-09
2.05077e-08
7.45676e-08
-1.51725e-09
2.05089e-08
7.45205e-08
-1.38128e-09
2.03441e-08
7.45431e-08
-1.21823e-09
1.96087e-08
7.51096e-08
-9.01498e-10
1.9052e-08
7.5343e-08
-7.21884e-10
1.85941e-08
7.56086e-08
-5.89882e-10
1.82834e-08
7.57775e-08
-6.00943e-10
1.82715e-08
7.57871e-08
-7.38841e-10
1.85616e-08
7.56259e-08
-9.23932e-10
1.89728e-08
7.53915e-08
-1.24214e-09
1.95036e-08
7.51717e-08
-1.41444e-09
2.02093e-08
7.46351e-08
-1.55638e-09
2.03198e-08
7.46582e-08
-1.5814e-09
2.04706e-08
7.45285e-08
-1.50071e-09
2.01569e-08
7.4759e-08
-1.25684e-09
1.95931e-08
7.50764e-08
-9.48613e-10
1.89252e-08
7.54334e-08
-6.37883e-10
1.82686e-08
7.57768e-08
-4.24709e-10
1.78352e-08
7.59965e-08
-2.95548e-10
1.76165e-08
7.60861e-08
-2.34852e-10
1.76955e-08
7.59469e-08
-2.05761e-10
1.76728e-08
7.59409e-08
-3.51287e-11
1.79381e-08
7.58283e-08
-1.04863e-10
1.79593e-08
7.58339e-08
-1.99055e-10
1.78828e-08
7.59695e-08
-3.42046e-10
1.80966e-08
7.58777e-08
-5.55939e-10
1.85197e-08
7.56528e-08
-8.7834e-10
1.91657e-08
7.53095e-08
-1.18356e-09
1.983e-08
7.49232e-08
-1.43508e-09
2.03666e-08
7.46027e-08
-1.5467e-09
2.04913e-08
7.45719e-08
-1.50562e-09
2.04916e-08
7.45265e-08
-1.37037e-09
2.03227e-08
7.45538e-08
-1.2052e-09
1.95953e-08
7.511e-08
-8.88409e-10
1.90341e-08
7.53478e-08
-7.07815e-10
1.85753e-08
7.56135e-08
-5.75288e-10
1.82638e-08
7.57825e-08
-5.86287e-10
1.8252e-08
7.5792e-08
-7.24823e-10
1.85427e-08
7.56308e-08
-9.10781e-10
1.89549e-08
7.53962e-08
-1.22913e-09
1.94904e-08
7.51719e-08
-1.40341e-09
2.01879e-08
7.46455e-08
-1.54426e-09
2.03053e-08
7.46608e-08
-1.56964e-09
2.04487e-08
7.45387e-08
-1.48761e-09
2.01376e-08
7.47653e-08
-1.2438e-09
1.95746e-08
7.50819e-08
-9.37162e-10
1.89099e-08
7.54373e-08
-6.29173e-10
1.82574e-08
7.57794e-08
-4.18605e-10
1.78293e-08
7.59964e-08
-2.90733e-10
1.76117e-08
7.60862e-08
-2.30501e-10
1.76885e-08
7.59497e-08
-2.03927e-10
1.76695e-08
7.59425e-08
-4.44682e-11
1.79345e-08
7.58298e-08
-1.02178e-10
1.79511e-08
7.5837e-08
-1.94533e-10
1.78781e-08
7.59689e-08
-3.35815e-10
1.80901e-08
7.58773e-08
-5.46683e-10
1.8507e-08
7.56554e-08
-8.659e-10
1.91486e-08
7.53137e-08
-1.16927e-09
1.98084e-08
7.49303e-08
-1.42092e-09
2.03424e-08
7.46135e-08
-1.53253e-09
2.04741e-08
7.45757e-08
-1.49257e-09
2.0473e-08
7.45324e-08
-1.35819e-09
2.02991e-08
7.45656e-08
-1.19045e-09
1.95816e-08
7.51093e-08
-8.73774e-10
1.90147e-08
7.53527e-08
-6.92213e-10
1.85543e-08
7.56189e-08
-5.59118e-10
1.82417e-08
7.57884e-08
-5.70043e-10
1.82299e-08
7.57978e-08
-7.09284e-10
1.85216e-08
7.56363e-08
-8.96066e-10
1.89355e-08
7.5401e-08
-1.21441e-09
1.9477e-08
7.51708e-08
-1.39108e-09
2.01643e-08
7.46568e-08
-1.53061e-09
2.02902e-08
7.46624e-08
-1.55652e-09
2.04247e-08
7.45497e-08
-1.47301e-09
2.01169e-08
7.47715e-08
-1.22928e-09
1.9555e-08
7.50871e-08
-9.24415e-10
1.88938e-08
7.54408e-08
-6.19509e-10
1.82455e-08
7.57818e-08
-4.11964e-10
1.78234e-08
7.59959e-08
-2.85599e-10
1.76074e-08
7.60856e-08
-2.25565e-10
1.76807e-08
7.59526e-08
-2.01828e-10
1.76662e-08
7.59439e-08
-5.2924e-11
1.79309e-08
7.58309e-08
-9.99535e-11
1.79426e-08
7.58401e-08
-1.90195e-10
1.78749e-08
7.59666e-08
-3.29503e-10
1.80846e-08
7.58757e-08
-5.37071e-10
1.84946e-08
7.56574e-08
-8.52731e-10
1.91314e-08
7.5317e-08
-1.15404e-09
1.97864e-08
7.4937e-08
-1.40576e-09
2.03175e-08
7.46242e-08
-1.51725e-09
2.04571e-08
7.45783e-08
-1.47848e-09
2.04542e-08
7.45376e-08
-1.34512e-09
2.02743e-08
7.45778e-08
-1.17447e-09
1.95681e-08
7.51069e-08
-8.58036e-10
1.89944e-08
7.53573e-08
-6.75534e-10
1.85319e-08
7.56246e-08
-5.4181e-10
1.82178e-08
7.5795e-08
-5.52647e-10
1.82061e-08
7.58043e-08
-6.92681e-10
1.84992e-08
7.56422e-08
-8.80232e-10
1.89152e-08
7.54055e-08
-1.19845e-09
1.94639e-08
7.51681e-08
-1.37781e-09
2.01394e-08
7.46684e-08
-1.51586e-09
2.02753e-08
7.46627e-08
-1.54246e-09
2.03998e-08
7.45606e-08
-1.45735e-09
2.00959e-08
7.47769e-08
-1.21375e-09
1.95353e-08
7.50914e-08
-9.10879e-10
1.88779e-08
7.54434e-08
-6.09408e-10
1.82341e-08
7.57834e-08
-4.05136e-10
1.78185e-08
7.59942e-08
-2.80409e-10
1.76046e-08
7.60833e-08
-2.20363e-10
1.76728e-08
7.59555e-08
-1.99496e-10
1.76629e-08
7.59451e-08
-6.05152e-11
1.79277e-08
7.58314e-08
-9.86421e-11
1.79347e-08
7.58428e-08
-1.86335e-10
1.78747e-08
7.59615e-08
-3.23402e-10
1.8082e-08
7.58713e-08
-5.27509e-10
1.84843e-08
7.5657e-08
-8.39244e-10
1.91159e-08
7.53183e-08
-1.13821e-09
1.97656e-08
7.49417e-08
-1.38987e-09
2.02936e-08
7.46332e-08
-1.50115e-09
2.04419e-08
7.45785e-08
-1.46369e-09
2.04368e-08
7.45409e-08
-1.33159e-09
2.02499e-08
7.45891e-08
-1.15784e-09
1.95565e-08
7.51022e-08
-8.41776e-10
1.8975e-08
7.53605e-08
-6.58371e-10
1.85098e-08
7.56297e-08
-5.23879e-10
1.81937e-08
7.58012e-08
-5.34609e-10
1.8182e-08
7.58104e-08
-6.75605e-10
1.8477e-08
7.56474e-08
-8.63855e-10
1.88958e-08
7.54086e-08
-1.18185e-09
1.94526e-08
7.51629e-08
-1.36403e-09
2.01151e-08
7.46791e-08
-1.50037e-09
2.02622e-08
7.46605e-08
-1.52769e-09
2.0376e-08
7.457e-08
-1.44092e-09
2.00764e-08
7.47801e-08
-1.19755e-09
1.95174e-08
7.50932e-08
-8.96967e-10
1.88639e-08
7.54436e-08
-5.99282e-10
1.8225e-08
7.57827e-08
-3.98405e-10
1.78165e-08
7.59896e-08
-2.75397e-10
1.7605e-08
7.60782e-08
-2.15372e-10
1.76655e-08
7.59581e-08
-1.97027e-10
1.76601e-08
7.59457e-08
-6.7755e-11
1.79257e-08
7.58313e-08
-9.85812e-11
1.79283e-08
7.58446e-08
-1.83386e-10
1.78793e-08
7.59522e-08
-3.17801e-10
1.80848e-08
7.58617e-08
-5.18344e-10
1.84789e-08
7.56521e-08
-8.25866e-10
1.91046e-08
7.53153e-08
-1.12216e-09
1.97488e-08
7.49423e-08
-1.37363e-09
2.02735e-08
7.46382e-08
-1.48461e-09
2.04308e-08
7.45743e-08
-1.4486e-09
2.04231e-08
7.45402e-08
-1.31812e-09
2.02287e-08
7.45975e-08
-1.14126e-09
1.9549e-08
7.50935e-08
-8.25761e-10
1.8959e-08
7.53606e-08
-6.416e-10
1.84906e-08
7.56323e-08
-5.06166e-10
1.81722e-08
7.58051e-08
-5.16767e-10
1.81605e-08
7.58141e-08
-6.58932e-10
1.84576e-08
7.56501e-08
-8.47701e-10
1.88798e-08
7.54086e-08
-1.1653e-09
1.94455e-08
7.51536e-08
-1.35027e-09
2.0094e-08
7.46865e-08
-1.48451e-09
2.0253e-08
7.46541e-08
-1.51256e-09
2.03556e-08
7.45754e-08
-1.42412e-09
2.00609e-08
7.4779e-08
-1.18108e-09
1.95038e-08
7.50905e-08
-8.8311e-10
1.88544e-08
7.54394e-08
-5.89482e-10
1.8221e-08
7.57772e-08
-3.92057e-10
1.78202e-08
7.59799e-08
-2.70911e-10
1.76102e-08
7.60687e-08
-2.11037e-10
1.76597e-08
7.59598e-08
-1.94953e-10
1.76585e-08
7.59455e-08
-7.48739e-11
1.79254e-08
7.583e-08
-9.98898e-11
1.79243e-08
7.5845e-08
-1.81819e-10
1.78905e-08
7.59372e-08
-3.13162e-10
1.80962e-08
7.58443e-08
-5.10126e-10
1.84821e-08
7.56393e-08
-8.13292e-10
1.91014e-08
7.53051e-08
-1.10666e-09
1.97395e-08
7.49359e-08
-1.35777e-09
2.02608e-08
7.46363e-08
-1.46839e-09
2.0427e-08
7.45631e-08
-1.43393e-09
2.04165e-08
7.45329e-08
-1.30537e-09
2.02142e-08
7.45998e-08
-1.12551e-09
1.9549e-08
7.50781e-08
-8.1089e-10
1.89501e-08
7.53547e-08
-6.26282e-10
1.8478e-08
7.56297e-08
-4.89957e-10
1.81569e-08
7.58042e-08
-5.0041e-10
1.81453e-08
7.5813e-08
-6.43724e-10
1.84448e-08
7.56477e-08
-8.32657e-10
1.88709e-08
7.54026e-08
-1.14958e-09
1.94459e-08
7.51377e-08
-1.33719e-09
2.00798e-08
7.46877e-08
-1.46903e-09
2.02509e-08
7.46409e-08
-1.49777e-09
2.03424e-08
7.45741e-08
-1.4077e-09
2.00528e-08
7.47709e-08
-1.16509e-09
1.94981e-08
7.50805e-08
-8.70011e-10
1.88532e-08
7.54279e-08
-5.80559e-10
1.82257e-08
7.57639e-08
-3.8655e-10
1.78325e-08
7.59624e-08
-2.67538e-10
1.76222e-08
7.60537e-08
-2.07621e-10
1.76563e-08
7.59601e-08
-1.935e-10
1.76585e-08
7.59442e-08
-8.1665e-11
1.7927e-08
7.58271e-08
-1.02601e-10
1.79235e-08
7.58431e-08
-1.82187e-10
1.79102e-08
7.59154e-08
-3.10179e-10
1.81197e-08
7.58162e-08
-5.03538e-10
1.84983e-08
7.56151e-08
-8.02325e-10
1.91106e-08
7.52838e-08
-1.0926e-09
1.97423e-08
7.49189e-08
-1.34318e-09
2.026e-08
7.46237e-08
-1.45337e-09
2.04348e-08
7.45417e-08
-1.42049e-09
2.04214e-08
7.45154e-08
-1.29413e-09
2.02114e-08
7.45921e-08
-1.11149e-09
1.95612e-08
7.50523e-08
-7.98133e-10
1.89533e-08
7.53388e-08
-6.13494e-10
1.84773e-08
7.56177e-08
-4.76599e-10
1.8153e-08
7.57946e-08
-4.86889e-10
1.81415e-08
7.58033e-08
-6.31058e-10
1.8444e-08
7.56359e-08
-8.19688e-10
1.88741e-08
7.53865e-08
-1.13558e-09
1.94585e-08
7.51113e-08
-1.32558e-09
2.00772e-08
7.46788e-08
-1.45478e-09
2.02603e-08
7.46176e-08
-1.48416e-09
2.03409e-08
7.45623e-08
-1.39255e-09
2.00565e-08
7.47522e-08
-1.15048e-09
1.95047e-08
7.50595e-08
-8.58484e-10
1.88647e-08
7.54051e-08
-5.73186e-10
1.82436e-08
7.57391e-08
-3.82568e-10
1.78571e-08
7.59342e-08
-2.65977e-10
1.76426e-08
7.60321e-08
-2.05284e-10
1.76562e-08
7.59582e-08
-1.9244e-10
1.76606e-08
7.59413e-08
-8.82683e-11
1.79313e-08
7.5822e-08
-1.06762e-10
1.79273e-08
7.58379e-08
-1.85298e-10
1.79397e-08
7.58861e-08
-3.1e-10
1.8159e-08
7.5775e-08
-4.99483e-10
1.85327e-08
7.55752e-08
-7.93914e-10
1.91379e-08
7.5247e-08
-1.08102e-09
1.97628e-08
7.48866e-08
-1.33089e-09
2.02768e-08
7.4596e-08
-1.44057e-09
2.04597e-08
7.45054e-08
-1.40921e-09
2.04433e-08
7.44832e-08
-1.2853e-09
2.02259e-08
7.45694e-08
-1.10027e-09
1.95913e-08
7.50113e-08
-7.88595e-10
1.89751e-08
7.53077e-08
-6.04424e-10
1.84953e-08
7.55907e-08
-4.67339e-10
1.81676e-08
7.57708e-08
-4.77457e-10
1.81562e-08
7.57793e-08
-6.22131e-10
1.84618e-08
7.56092e-08
-8.09904e-10
1.88959e-08
7.53551e-08
-1.12437e-09
1.94891e-08
7.50698e-08
-1.31637e-09
2.00921e-08
7.46549e-08
-1.44274e-09
2.02864e-08
7.45798e-08
-1.4727e-09
2.03566e-08
7.45354e-08
-1.37968e-09
2.00776e-08
7.47185e-08
-1.13827e-09
1.95292e-08
7.50231e-08
-8.49491e-10
1.88944e-08
7.53667e-08
-5.68236e-10
1.82797e-08
7.56985e-08
-3.81252e-10
1.78976e-08
7.58928e-08
-2.66635e-10
1.76729e-08
7.60029e-08
-2.04195e-10
1.76605e-08
7.59532e-08
-1.91874e-10
1.76654e-08
7.59363e-08
-9.49703e-11
1.79393e-08
7.58139e-08
-1.12402e-10
1.79367e-08
7.58285e-08
-1.91847e-10
1.79805e-08
7.58487e-08
-3.14313e-10
1.82179e-08
7.57184e-08
-4.99265e-10
1.85903e-08
7.55157e-08
-7.89391e-10
1.91893e-08
7.519e-08
-1.07329e-09
1.98072e-08
7.48343e-08
-1.32228e-09
2.03174e-08
7.45481e-08
-1.43118e-09
2.05077e-08
7.44497e-08
-1.40122e-09
2.04884e-08
7.44311e-08
-1.27998e-09
2.02646e-08
7.45262e-08
-1.09315e-09
1.96463e-08
7.49497e-08
-7.83591e-10
1.90229e-08
7.5255e-08
-6.0045e-10
1.85402e-08
7.5542e-08
-4.636e-10
1.82091e-08
7.57256e-08
-4.73541e-10
1.81977e-08
7.57339e-08
-6.18336e-10
1.85064e-08
7.55609e-08
-8.04644e-10
1.89438e-08
7.53022e-08
-1.11724e-09
1.95445e-08
7.50075e-08
-1.31066e-09
2.01311e-08
7.46103e-08
-1.4341e-09
2.03353e-08
7.45226e-08
-1.46458e-09
2.03958e-08
7.44884e-08
-1.37048e-09
2.01222e-08
7.46649e-08
-1.12984e-09
1.95777e-08
7.49664e-08
-8.44356e-10
1.89483e-08
7.5308e-08
-5.67028e-10
1.83392e-08
7.56381e-08
-3.84324e-10
1.79577e-08
7.58362e-08
-2.7016e-10
1.77143e-08
7.59654e-08
-2.04489e-10
1.76705e-08
7.59439e-08
-1.92047e-10
1.7674e-08
7.59282e-08
-1.02105e-10
1.79524e-08
7.58018e-08
-1.19513e-10
1.7953e-08
7.58137e-08
-2.02255e-10
1.80334e-08
7.58027e-08
-3.24681e-10
1.83e-08
7.56445e-08
-5.04804e-10
1.86774e-08
7.54324e-08
-7.90839e-10
1.92709e-08
7.51087e-08
-1.07148e-09
1.98821e-08
7.47574e-08
-1.31947e-09
2.03884e-08
7.44756e-08
-1.42673e-09
2.05846e-08
7.43699e-08
-1.39787e-09
2.0563e-08
7.43543e-08
-1.27972e-09
2.03348e-08
7.44566e-08
-1.09168e-09
1.97337e-08
7.48613e-08
-7.84708e-10
1.91053e-08
7.51739e-08
-6.03223e-10
1.8621e-08
7.54642e-08
-4.67105e-10
1.8287e-08
7.56512e-08
-4.7687e-10
1.82758e-08
7.56592e-08
-6.21347e-10
1.85869e-08
7.54835e-08
-8.05537e-10
1.90262e-08
7.52208e-08
-1.11574e-09
1.96322e-08
7.49185e-08
-1.31002e-09
2.02017e-08
7.45393e-08
-1.43031e-09
2.04133e-08
7.44411e-08
-1.46127e-09
2.04645e-08
7.44167e-08
-1.36705e-09
2.01969e-08
7.45871e-08
-1.12731e-09
1.96566e-08
7.48853e-08
-8.45142e-10
1.90326e-08
7.52249e-08
-5.71592e-10
1.84282e-08
7.55542e-08
-3.93372e-10
1.80411e-08
7.57624e-08
-2.77349e-10
1.77679e-08
7.59195e-08
-2.06264e-10
1.76874e-08
7.59292e-08
-1.93246e-10
1.76875e-08
7.59162e-08
-1.10036e-10
1.79719e-08
7.57845e-08
-1.28063e-10
1.79776e-08
7.57921e-08
-2.16882e-10
1.80993e-08
7.57478e-08
-3.41079e-10
1.84063e-08
7.55522e-08
-5.18336e-10
1.88015e-08
7.53201e-08
-8.00568e-10
1.93898e-08
7.49983e-08
-1.07772e-09
1.99938e-08
7.46518e-08
-1.32459e-09
2.04955e-08
7.43749e-08
-1.42904e-09
2.06958e-08
7.42626e-08
-1.40088e-09
2.0673e-08
7.42484e-08
-1.28683e-09
2.04435e-08
7.43558e-08
-1.09774e-09
1.98605e-08
7.4741e-08
-7.93861e-10
1.92304e-08
7.50581e-08
-6.14929e-10
1.87473e-08
7.53497e-08
-4.7992e-10
1.84112e-08
7.55398e-08
-4.89491e-10
1.84001e-08
7.55476e-08
-6.3338e-10
1.87129e-08
7.53697e-08
-8.1452e-10
1.91514e-08
7.51047e-08
-1.12174e-09
1.97594e-08
7.47976e-08
-1.3167e-09
2.03108e-08
7.44371e-08
-1.43308e-09
2.05261e-08
7.43314e-08
-1.46453e-09
2.05682e-08
7.43166e-08
-1.37159e-09
2.03071e-08
7.44817e-08
-1.13285e-09
1.97723e-08
7.47755e-08
-8.54155e-10
1.91545e-08
7.51124e-08
-5.84158e-10
1.85542e-08
7.54412e-08
-4.08187e-10
1.81487e-08
7.56701e-08
-2.88534e-10
1.78343e-08
7.58648e-08
-2.09566e-10
1.77126e-08
7.59077e-08
-1.95775e-10
1.77076e-08
7.58989e-08
-1.19142e-10
1.79997e-08
7.57606e-08
-1.37941e-10
1.80119e-08
7.57625e-08
-2.35819e-10
1.81784e-08
7.56839e-08
-3.5773e-10
1.85299e-08
7.54427e-08
-5.39771e-10
1.89674e-08
7.51738e-08
-8.16922e-10
1.95557e-08
7.48476e-08
-1.08935e-09
2.01493e-08
7.45077e-08
-1.33475e-09
2.06431e-08
7.42386e-08
-1.44012e-09
2.085e-08
7.41211e-08
-1.41221e-09
2.0825e-08
7.41088e-08
-1.30367e-09
2.05971e-08
7.42198e-08
-1.1135e-09
2.00325e-08
7.45853e-08
-8.13303e-10
1.94052e-08
7.49029e-08
-6.38803e-10
1.8928e-08
7.51931e-08
-5.04428e-10
1.85902e-08
7.53853e-08
-5.13736e-10
1.85793e-08
7.53927e-08
-6.57639e-10
1.88932e-08
7.52137e-08
-8.33817e-10
1.93265e-08
7.49492e-08
-1.13734e-09
1.99317e-08
7.46411e-08
-1.33298e-09
2.04648e-08
7.42995e-08
-1.44427e-09
2.06804e-08
7.41887e-08
-1.47631e-09
2.07157e-08
7.41812e-08
-1.38124e-09
2.04574e-08
7.43413e-08
-1.14376e-09
1.99317e-08
7.46273e-08
-8.6974e-10
1.93237e-08
7.49592e-08
-6.03931e-10
1.87221e-08
7.52935e-08
-4.22227e-10
1.82737e-08
7.55596e-08
-3.03667e-10
1.79136e-08
7.5801e-08
-2.14465e-10
1.77474e-08
7.58782e-08
-1.99953e-10
1.77359e-08
7.58751e-08
-1.29779e-10
1.80374e-08
7.57286e-08
-1.48887e-10
1.8057e-08
7.57234e-08
-2.57477e-10
1.82696e-08
7.56107e-08
-3.71866e-10
1.86649e-08
7.53192e-08
-5.59869e-10
1.91641e-08
7.49952e-08
-8.27036e-10
1.97662e-08
7.4646e-08
-1.09167e-09
2.03521e-08
7.43071e-08
-1.33485e-09
2.0838e-08
7.40451e-08
-1.4619e-09
2.10684e-08
7.39261e-08
-1.43367e-09
2.10337e-08
7.39228e-08
-1.32694e-09
2.08003e-08
7.40408e-08
-1.14125e-09
2.02584e-08
7.43877e-08
-8.455e-10
1.96369e-08
7.47035e-08
-6.78006e-10
1.91704e-08
7.499e-08
-5.43242e-10
1.88311e-08
7.51832e-08
-5.52166e-10
1.88205e-08
7.519e-08
-6.97101e-10
1.91349e-08
7.50115e-08
-8.65809e-10
1.95585e-08
7.47493e-08
-1.16484e-09
2.01579e-08
7.44427e-08
-1.35552e-09
2.06684e-08
7.41187e-08
-1.46544e-09
2.08903e-08
7.40003e-08
-1.49856e-09
2.09282e-08
7.39913e-08
-1.38086e-09
2.06544e-08
7.41444e-08
-1.14525e-09
2.0138e-08
7.44228e-08
-8.78952e-10
1.95374e-08
7.47551e-08
-6.22203e-10
1.89212e-08
7.51132e-08
-4.33592e-10
1.84105e-08
7.54346e-08
-3.21538e-10
1.80053e-08
7.57277e-08
-2.2087e-10
1.77932e-08
7.58392e-08
-2.0609e-10
1.77742e-08
7.58433e-08
-1.42227e-10
1.80871e-08
7.56867e-08
-1.60732e-10
1.81141e-08
7.56736e-08
-2.76801e-10
1.83677e-08
7.55282e-08
-3.88507e-10
1.88121e-08
7.5186e-08
-5.87716e-10
1.93942e-08
7.47911e-08
-8.49075e-10
2.0029e-08
7.4404e-08
-1.10734e-09
2.06191e-08
7.40555e-08
-1.34723e-09
2.11001e-08
7.37965e-08
-1.49565e-09
2.13532e-08
7.36765e-08
-1.46627e-09
2.13101e-08
7.36802e-08
-1.33918e-09
2.1052e-08
7.38022e-08
-1.18264e-09
2.05602e-08
7.41278e-08
-8.92348e-10
1.99402e-08
7.44474e-08
-7.2753e-10
1.94788e-08
7.47313e-08
-5.99116e-10
1.91441e-08
7.49261e-08
-6.07618e-10
1.91339e-08
7.49321e-08
-7.46455e-10
1.94415e-08
7.47543e-08
-9.12261e-10
1.98618e-08
7.44926e-08
-1.20608e-09
2.04602e-08
7.41819e-08
-1.36704e-09
2.09206e-08
7.38783e-08
-1.49747e-09
2.11673e-08
7.37558e-08
-1.53264e-09
2.12082e-08
7.37459e-08
-1.3926e-09
2.09183e-08
7.38925e-08
-1.16017e-09
2.04085e-08
7.41675e-08
-9.00109e-10
1.98033e-08
7.45107e-08
-6.48441e-10
1.9154e-08
7.49071e-08
-4.48702e-10
1.85597e-08
7.53011e-08
-3.4035e-10
1.81074e-08
7.56449e-08
-2.28729e-10
1.78513e-08
7.57894e-08
-2.14407e-10
1.78246e-08
7.58016e-08
-1.56734e-10
1.81506e-08
7.56333e-08
-1.7319e-10
1.81838e-08
7.56121e-08
-2.88487e-10
1.84668e-08
7.54374e-08
-4.15998e-10
1.89796e-08
7.50433e-08
-6.40498e-10
1.96634e-08
7.45728e-08
-9.0844e-10
2.03318e-08
7.41594e-08
-1.16443e-09
2.09312e-08
7.38003e-08
-1.39981e-09
2.14059e-08
7.35442e-08
-1.54343e-09
2.16591e-08
7.34199e-08
-1.51342e-09
2.16198e-08
7.34189e-08
-1.36334e-09
2.13468e-08
7.35326e-08
-1.23715e-09
2.09376e-08
7.38055e-08
-9.53438e-10
2.03271e-08
7.41218e-08
-7.60808e-10
1.98462e-08
7.43973e-08
-6.74129e-10
1.95524e-08
7.45928e-08
-6.82363e-10
1.95416e-08
7.45992e-08
-7.79061e-10
1.98071e-08
7.44214e-08
-9.72496e-10
2.02486e-08
7.41663e-08
-1.26078e-09
2.08381e-08
7.3859e-08
-1.39071e-09
2.12156e-08
7.36073e-08
-1.54399e-09
2.14773e-08
7.34927e-08
-1.58075e-09
2.15098e-08
7.34927e-08
-1.44403e-09
2.12258e-08
7.36368e-08
-1.21709e-09
2.07239e-08
7.39094e-08
-9.60183e-10
2.01094e-08
7.42652e-08
-7.004e-10
1.94265e-08
7.46871e-08
-4.76661e-10
1.87286e-08
7.51606e-08
-3.52138e-10
1.82107e-08
7.55539e-08
-2.37951e-10
1.79224e-08
7.57279e-08
-2.25101e-10
1.78889e-08
7.57483e-08
-1.73425e-10
1.82296e-08
7.55668e-08
-1.8602e-10
1.82667e-08
7.5538e-08
-2.95843e-10
1.857e-08
7.53383e-08
-4.5522e-10
1.91651e-08
7.48944e-08
-7.11421e-10
1.99382e-08
7.4367e-08
-9.93251e-10
2.06453e-08
7.39296e-08
-1.24655e-09
2.12541e-08
7.35593e-08
-1.47513e-09
2.17189e-08
7.33074e-08
-1.60683e-09
2.19646e-08
7.31793e-08
-1.57697e-09
2.19319e-08
7.31715e-08
-1.42806e-09
2.16734e-08
7.32715e-08
-1.30707e-09
2.13319e-08
7.34817e-08
-1.03275e-09
2.07537e-08
7.37747e-08
-8.10633e-10
2.02637e-08
7.403e-08
-7.68285e-10
2.00251e-08
7.42143e-08
-7.76318e-10
2.00087e-08
7.42262e-08
-8.27826e-10
2.02235e-08
7.40541e-08
-1.0509e-09
2.06754e-08
7.38181e-08
-1.33121e-09
2.12324e-08
7.35355e-08
-1.45528e-09
2.15425e-08
7.33452e-08
-1.60713e-09
2.17894e-08
7.32442e-08
-1.64455e-09
2.18119e-08
7.32548e-08
-1.51798e-09
2.15402e-08
7.33967e-08
-1.29987e-09
2.105e-08
7.36665e-08
-1.04625e-09
2.04264e-08
7.40346e-08
-7.71155e-10
1.9705e-08
7.44799e-08
-5.17116e-10
1.89154e-08
7.50148e-08
-3.57398e-10
1.83146e-08
7.54558e-08
-2.47734e-10
1.80067e-08
7.56538e-08
-2.38223e-10
1.79688e-08
7.56819e-08
-1.92274e-10
1.83252e-08
7.54859e-08
-1.9941e-10
1.8364e-08
7.54504e-08
-3.03516e-10
1.86812e-08
7.52316e-08
-5.01097e-10
1.93531e-08
7.47497e-08
-7.94615e-10
2.02035e-08
7.41831e-08
-1.09488e-09
2.09729e-08
7.37024e-08
-1.34822e-09
2.15947e-08
7.33203e-08
-1.56699e-09
2.20455e-08
7.30736e-08
-1.68593e-09
2.22785e-08
7.29458e-08
-1.65527e-09
2.22501e-08
7.29327e-08
-1.51207e-09
2.20145e-08
7.30153e-08
-1.39299e-09
2.17106e-08
7.31895e-08
-1.1331e-09
2.11768e-08
7.34522e-08
-9.18466e-10
2.07189e-08
7.36826e-08
-8.83087e-10
2.05033e-08
7.38509e-08
-8.90414e-10
2.04812e-08
7.38679e-08
-9.34328e-10
2.06776e-08
7.37064e-08
-1.1508e-09
2.10991e-08
7.34945e-08
-1.41751e-09
2.1611e-08
7.32434e-08
-1.53931e-09
2.18839e-08
7.30882e-08
-1.68513e-09
2.21072e-08
7.30048e-08
-1.72403e-09
2.2123e-08
7.30236e-08
-1.60924e-09
2.18679e-08
7.31607e-08
-1.40224e-09
2.13936e-08
7.34256e-08
-1.14763e-09
2.0758e-08
7.38049e-08
-8.54454e-10
1.99744e-08
7.42943e-08
-5.61025e-10
1.91052e-08
7.48694e-08
-3.62759e-10
1.84263e-08
7.53499e-08
-2.58211e-10
1.81053e-08
7.55661e-08
-2.53686e-10
1.80654e-08
7.56012e-08
-2.13102e-10
1.84373e-08
7.53906e-08
-2.13541e-10
1.84762e-08
7.53489e-08
-3.15242e-10
1.88027e-08
7.5119e-08
-5.57609e-10
1.9534e-08
7.4623e-08
-8.87372e-10
2.04628e-08
7.40148e-08
-1.20947e-09
2.13065e-08
7.34824e-08
-1.46754e-09
2.1944e-08
7.30902e-08
-1.67391e-09
2.23752e-08
7.28516e-08
-1.77932e-09
2.2587e-08
7.27319e-08
-1.7455e-09
2.25578e-08
7.27164e-08
-1.60639e-09
2.23454e-08
7.27796e-08
-1.49304e-09
2.20771e-08
7.29236e-08
-1.2495e-09
2.15952e-08
7.31505e-08
-1.05244e-09
2.11834e-08
7.33523e-08
-1.01669e-09
2.09762e-08
7.35117e-08
-1.02299e-09
2.0954e-08
7.35277e-08
-1.06659e-09
2.11409e-08
7.33755e-08
-1.26725e-09
2.15181e-08
7.31921e-08
-1.51752e-09
2.19774e-08
7.29774e-08
-1.6335e-09
2.22152e-08
7.28514e-08
-1.77498e-09
2.2414e-08
7.27881e-08
-1.81753e-09
2.24294e-08
7.28111e-08
-1.71632e-09
2.21986e-08
7.29375e-08
-1.52154e-09
2.17461e-08
7.31929e-08
-1.26322e-09
2.10961e-08
7.35829e-08
-9.4585e-10
2.02383e-08
7.41222e-08
-6.15239e-10
1.9288e-08
7.47413e-08
-3.72037e-10
1.85485e-08
7.52373e-08
-2.69504e-10
1.82186e-08
7.54645e-08
-2.71252e-10
1.81787e-08
7.55058e-08
-2.35594e-10
1.85646e-08
7.52818e-08
-2.29576e-10
1.86036e-08
7.52343e-08
-3.45188e-10
1.89456e-08
7.50034e-08
-6.29153e-10
1.97094e-08
7.45169e-08
-9.85031e-10
2.07139e-08
7.38597e-08
-1.33429e-09
2.16325e-08
7.32803e-08
-1.5993e-09
2.22847e-08
7.28811e-08
-1.79266e-09
2.26883e-08
7.26579e-08
-1.88134e-09
2.28667e-08
7.25553e-08
-1.84004e-09
2.28279e-08
7.25418e-08
-1.70498e-09
2.26368e-08
7.25878e-08
-1.59976e-09
2.2407e-08
7.27009e-08
-1.37467e-09
2.19825e-08
7.28885e-08
-1.19712e-09
2.1621e-08
7.30595e-08
-1.16278e-09
2.14235e-08
7.32104e-08
-1.16829e-09
2.1402e-08
7.32249e-08
-1.20962e-09
2.15771e-08
7.30823e-08
-1.39288e-09
2.1906e-08
7.293e-08
-1.62399e-09
2.23072e-08
7.27543e-08
-1.73178e-09
2.25069e-08
7.26583e-08
-1.86965e-09
2.26832e-08
7.2614e-08
-1.91938e-09
2.27074e-08
7.26353e-08
-1.83528e-09
2.25126e-08
7.27428e-08
-1.65288e-09
2.20902e-08
7.29806e-08
-1.39002e-09
2.1427e-08
7.33791e-08
-1.04193e-09
2.04947e-08
7.39623e-08
-6.85247e-10
1.94657e-08
7.46341e-08
-3.99298e-10
1.86913e-08
7.51222e-08
-2.82668e-10
1.83469e-08
7.53497e-08
-2.90533e-10
1.83073e-08
7.53969e-08
-2.59614e-10
1.87038e-08
7.51627e-08
-2.50953e-10
1.87467e-08
7.51095e-08
-3.9292e-10
1.91066e-08
7.48876e-08
-7.06128e-10
1.98814e-08
7.442e-08
-1.07936e-09
2.09526e-08
7.37139e-08
-1.46265e-09
2.19392e-08
7.3101e-08
-1.73254e-09
2.26001e-08
7.26989e-08
-1.91363e-09
2.29666e-08
7.25011e-08
-1.97602e-09
2.30964e-08
7.24214e-08
-1.9204e-09
2.30357e-08
7.24154e-08
-1.79027e-09
2.28594e-08
7.24512e-08
-1.69488e-09
2.2666e-08
7.25375e-08
-1.49457e-09
2.23009e-08
7.26901e-08
-1.33954e-09
2.19919e-08
7.28309e-08
-1.30869e-09
2.18058e-08
7.29738e-08
-1.31377e-09
2.17848e-08
7.29875e-08
-1.35178e-09
2.19468e-08
7.28547e-08
-1.51307e-09
2.22246e-08
7.27316e-08
-1.71888e-09
2.25661e-08
7.25905e-08
-1.81685e-09
2.27301e-08
7.25206e-08
-1.95017e-09
2.28904e-08
7.24877e-08
-2.01374e-09
2.2936e-08
7.25015e-08
-1.95647e-09
2.2792e-08
7.25851e-08
-1.78578e-09
2.24095e-08
7.27946e-08
-1.51901e-09
2.17395e-08
7.31961e-08
-1.1365e-09
2.07392e-08
7.38128e-08
-7.61092e-10
1.96398e-08
7.45363e-08
-4.44234e-10
1.88516e-08
7.50072e-08
-3.01124e-10
1.84908e-08
7.52247e-08
-3.1135e-10
1.84479e-08
7.52776e-08
-2.846e-10
1.88488e-08
7.5039e-08
-2.76218e-10
1.88989e-08
7.49795e-08
-4.43576e-10
1.92686e-08
7.47739e-08
-7.81682e-10
2.00526e-08
7.43226e-08
-1.1624e-09
2.11759e-08
7.35723e-08
-1.58215e-09
2.22217e-08
7.29372e-08
-1.85494e-09
2.2881e-08
7.25403e-08
-2.01842e-09
2.31972e-08
7.23758e-08
-2.03567e-09
2.32587e-08
7.23196e-08
-1.9558e-09
2.31604e-08
7.23271e-08
-1.82866e-09
2.29877e-08
7.23621e-08
-1.74446e-09
2.28231e-08
7.24304e-08
-1.57763e-09
2.25174e-08
7.25568e-08
-1.4521e-09
2.22622e-08
7.26732e-08
-1.42503e-09
2.20879e-08
7.28079e-08
-1.42986e-09
2.2067e-08
7.28212e-08
-1.46474e-09
2.22158e-08
7.26985e-08
-1.59613e-09
2.2441e-08
7.25983e-08
-1.7683e-09
2.2723e-08
7.24832e-08
-1.85524e-09
2.2859e-08
7.24304e-08
-1.98505e-09
2.30151e-08
7.23983e-08
-2.07298e-09
2.30978e-08
7.23993e-08
-2.06161e-09
2.30239e-08
7.24587e-08
-1.9083e-09
2.26952e-08
7.26319e-08
-1.63977e-09
2.20284e-08
7.30283e-08
-1.2206e-09
2.09686e-08
7.36678e-08
-8.35861e-10
1.98132e-08
7.44382e-08
-4.92337e-10
1.90131e-08
7.48943e-08
-3.2347e-10
1.86439e-08
7.50943e-08
-3.33155e-10
1.85943e-08
7.51534e-08
-3.09961e-10
1.89921e-08
7.49175e-08
-3.0433e-10
1.90544e-08
7.48493e-08
-4.94973e-10
1.94335e-08
7.46581e-08
-8.43865e-10
2.02192e-08
7.42167e-08
-1.2279e-09
2.13803e-08
7.34322e-08
-1.68517e-09
2.24795e-08
7.27818e-08
-1.95936e-09
2.31225e-08
7.24032e-08
-2.08404e-09
2.3367e-08
7.22721e-08
-2.03908e-09
2.3341e-08
7.22415e-08
-1.92332e-09
2.31852e-08
7.22707e-08
-1.7925e-09
2.29994e-08
7.23152e-08
-1.71715e-09
2.28522e-08
7.23745e-08
-1.58479e-09
2.26027e-08
7.24788e-08
-1.49145e-09
2.23976e-08
7.2577e-08
-1.46617e-09
2.22351e-08
7.27016e-08
-1.4708e-09
2.22145e-08
7.27145e-08
-1.50378e-09
2.23504e-08
7.26029e-08
-1.60313e-09
2.2526e-08
7.25203e-08
-1.74096e-09
2.27519e-08
7.24272e-08