/*--------------------------------*- C++ -*----------------------------------*\
  =========                 |
  \\      /  F ield         | OpenFOAM: The Open Source CFD Toolbox
   \\    /   O peration     | Website:  https://openfoam.org
    \\  /    A nd           | Version:  6
     \\/     M anipulation  |
\*---------------------------------------------------------------------------*/
FoamFile
{
    version     2.0;
    format      ascii;
    class       volVectorField;
    location    "20";
    object      U;
}
// * * * * * * * * * * * * * * * * * * * * * * * * * * * * * * * * * * * * * //

dimensions      [0 1 -1 0 0 0 0];

internalField   nonuniform List<vector> 
2880
(
(0.0529509 -1.24797e-10 1.16173e-10)
(0.0529509 1.35952e-09 -2.45144e-10)
(0.0529515 -1.11312e-09 7.76062e-11)
(0.0377739 7.30589e-10 3.38945e-11)
(0.0377741 2.15234e-09 -4.99194e-11)
(0.0377747 -2.78985e-09 1.82328e-11)
(0.0451473 2.46692e-09 5.78069e-11)
(0.0451481 1.97471e-10 -1.14195e-10)
(0.045149 -2.7032e-09 5.63034e-11)
(0.0512567 5.61446e-09 7.68391e-11)
(0.0512577 -6.95286e-09 -1.73562e-10)
(0.0512588 1.25075e-09 9.66832e-11)
(0.0563749 8.50449e-09 9.00166e-11)
(0.056376 -1.18105e-08 -2.14785e-10)
(0.0563771 3.23267e-09 1.24302e-10)
(0.0608128 9.08884e-09 1.03362e-10)
(0.060814 -1.24864e-08 -2.46963e-10)
(0.060815 3.34191e-09 1.43319e-10)
(0.06476 6.73078e-09 1.08919e-10)
(0.0647612 -8.23297e-09 -2.72721e-10)
(0.0647621 1.46956e-09 1.6363e-10)
(0.0683224 2.8207e-09 1.12734e-10)
(0.0683236 -1.64146e-09 -2.89996e-10)
(0.0683246 -1.22232e-09 1.77963e-10)
(0.0715501 -1.18827e-09 1.15006e-10)
(0.0715514 4.80634e-09 -2.86269e-10)
(0.0715523 -3.68392e-09 1.71733e-10)
(0.0744475 -3.75148e-09 1.1891e-10)
(0.0744488 9.07067e-09 -3.01624e-10)
(0.0744498 -5.3891e-09 1.8282e-10)
(0.0769831 -5.27554e-09 1.30243e-10)
(0.0769845 1.18961e-08 -3.18655e-10)
(0.0769856 -6.67177e-09 1.88562e-10)
(0.0791034 -5.95902e-09 1.47139e-10)
(0.0791047 1.28364e-08 -3.22066e-10)
(0.0791059 -6.90419e-09 1.74967e-10)
(0.0807325 -5.21606e-09 1.64903e-10)
(0.0807337 1.10898e-08 -3.35174e-10)
(0.0807351 -5.88461e-09 1.70241e-10)
(0.0818385 -3.44625e-09 1.8681e-10)
(0.0818396 7.47339e-09 -3.37807e-10)
(0.0818411 -4.01421e-09 1.51003e-10)
(0.0824296 -1.27032e-09 1.9578e-10)
(0.0824306 2.7511e-09 -3.35092e-10)
(0.0824322 -1.47035e-09 1.39304e-10)
(0.0824293 1.25334e-09 1.9583e-10)
(0.0824303 -2.6659e-09 -3.34996e-10)
(0.0824319 1.40405e-09 1.39187e-10)
(0.0818374 3.38518e-09 1.86524e-10)
(0.0818386 -7.35714e-09 -3.37877e-10)
(0.0818401 3.94807e-09 1.51373e-10)
(0.0807306 5.12516e-09 1.64926e-10)
(0.0807318 -1.09953e-08 -3.34981e-10)
(0.0807332 5.82545e-09 1.70082e-10)
(0.0791008 5.89002e-09 1.47067e-10)
(0.0791021 -1.27823e-08 -3.21392e-10)
(0.0791033 6.84375e-09 1.74373e-10)
(0.0769805 5.2152e-09 1.30051e-10)
(0.0769819 -1.18863e-08 -3.18424e-10)
(0.0769829 6.63011e-09 1.88323e-10)
(0.0744447 3.70736e-09 1.19727e-10)
(0.0744461 -9.12276e-09 -2.95926e-10)
(0.074447 5.38505e-09 1.7626e-10)
(0.0715475 1.12423e-09 1.13041e-10)
(0.0715487 -4.69358e-09 -2.93812e-10)
(0.0715497 3.54548e-09 1.80823e-10)
(0.0683186 -2.93846e-09 1.12802e-10)
(0.0683199 1.87371e-09 -2.84243e-10)
(0.0683208 1.04553e-09 1.71452e-10)
(0.0647542 -6.97652e-09 1.08829e-10)
(0.0647555 8.4909e-09 -2.71296e-10)
(0.0647564 -1.53043e-09 1.62492e-10)
(0.0608051 -9.35763e-09 1.03333e-10)
(0.0608063 1.28316e-08 -2.4624e-10)
(0.0608073 -3.48935e-09 1.4294e-10)
(0.0563663 -8.82551e-09 9.05426e-11)
(0.0563674 1.22429e-08 -2.14195e-10)
(0.0563685 -3.43539e-09 1.23813e-10)
(0.0512488 -5.96719e-09 7.71517e-11)
(0.0512499 7.27061e-09 -1.73574e-10)
(0.0512509 -1.32242e-09 9.64936e-11)
(0.0451417 -2.59642e-09 5.80999e-11)
(0.0451425 -8.1396e-11 -1.13855e-10)
(0.0451434 2.66127e-09 5.5826e-11)
(0.0377703 -6.32259e-10 3.17066e-11)
(0.0377705 -2.14528e-09 -4.95015e-11)
(0.0377711 2.77088e-09 1.78729e-11)
(0.0529457 2.41231e-10 1.68523e-10)
(0.0529457 -1.35209e-09 -2.45227e-10)
(0.0529462 1.10901e-09 7.65615e-11)
(0.07092 -3.14025e-10 2.51091e-10)
(0.0709199 1.86087e-09 -4.36475e-10)
(0.0709206 -1.48839e-09 1.59379e-10)
(0.102196 9.9642e-10 2.82138e-10)
(0.102196 5.39696e-09 -4.56078e-10)
(0.102198 -6.59952e-09 1.9206e-10)
(0.11666 5.28984e-09 3.4353e-10)
(0.116661 1.03657e-09 -5.91447e-10)
(0.116663 -6.59107e-09 2.5016e-10)
(0.127226 1.24856e-08 3.95693e-10)
(0.127228 -1.46493e-08 -7.39461e-10)
(0.127229 1.86746e-09 3.44439e-10)
(0.135491 1.85992e-08 4.74358e-10)
(0.135492 -2.47798e-08 -9.77314e-10)
(0.135494 5.93941e-09 5.02218e-10)
(0.142329 1.94604e-08 5.6289e-10)
(0.142331 -2.56492e-08 -1.16839e-09)
(0.142332 5.98448e-09 6.04949e-10)
(0.148206 1.40601e-08 5.96779e-10)
(0.148208 -1.62582e-08 -1.27465e-09)
(0.148209 2.03941e-09 6.77224e-10)
(0.153371 5.58255e-09 5.89378e-10)
(0.153372 -2.57042e-09 -1.28156e-09)
(0.153374 -3.16936e-09 6.92378e-10)
(0.157951 -2.79292e-09 5.54208e-10)
(0.157953 1.05417e-08 -1.22409e-09)
(0.157954 -7.91289e-09 6.69704e-10)
(0.161993 -8.00194e-09 5.3414e-10)
(0.161995 1.91265e-08 -1.21548e-09)
(0.161996 -1.12824e-08 6.8074e-10)
(0.165482 -1.10606e-08 5.56371e-10)
(0.165484 2.43394e-08 -1.22169e-09)
(0.165485 -1.33956e-08 6.64692e-10)
(0.168368 -1.22793e-08 5.94846e-10)
(0.16837 2.58443e-08 -1.23494e-09)
(0.168372 -1.36283e-08 6.39617e-10)
(0.170567 -1.06564e-08 6.51101e-10)
(0.170569 2.2309e-08 -1.24688e-09)
(0.170571 -1.16838e-08 5.95389e-10)
(0.17205 -7.04924e-09 7.2344e-10)
(0.172052 1.49851e-08 -1.24665e-09)
(0.172054 -7.9174e-09 5.22988e-10)
(0.172839 -2.58916e-09 7.52303e-10)
(0.172841 5.49795e-09 -1.23168e-09)
(0.172843 -2.89455e-09 4.79417e-10)
(0.172839 2.54343e-09 7.52385e-10)
(0.17284 -5.33781e-09 -1.23152e-09)
(0.172842 2.76968e-09 4.79262e-10)
(0.172049 6.91912e-09 7.22717e-10)
(0.17205 -1.47738e-08 -1.24657e-09)
(0.172052 7.79906e-09 5.24015e-10)
(0.170565 1.04661e-08 6.51023e-10)
(0.170566 -2.2149e-08 -1.24618e-09)
(0.170568 1.15834e-08 5.95242e-10)
(0.168365 1.21293e-08 5.945e-10)
(0.168366 -2.57628e-08 -1.23285e-09)
(0.168368 1.35265e-08 6.3826e-10)
(0.165479 1.09237e-08 5.55003e-10)
(0.16548 -2.43759e-08 -1.21914e-09)
(0.165482 1.33576e-08 6.63812e-10)
(0.161989 7.91736e-09 5.34393e-10)
(0.161991 -1.91483e-08 -1.20766e-09)
(0.161992 1.11565e-08 6.73013e-10)
(0.157948 2.63546e-09 5.51536e-10)
(0.157949 -1.03639e-08 -1.22752e-09)
(0.157951 7.67081e-09 6.75703e-10)
(0.153365 -5.88321e-09 5.88864e-10)
(0.153367 2.8457e-09 -1.27592e-09)
(0.153368 2.98998e-09 6.86814e-10)
(0.148198 -1.46116e-08 5.97229e-10)
(0.148199 1.6798e-08 -1.27572e-09)
(0.148201 -2.22924e-09 6.78322e-10)
(0.142317 -2.00962e-08 5.64373e-10)
(0.142319 2.64144e-08 -1.17068e-09)
(0.142321 -6.36195e-09 6.06184e-10)
(0.135477 -1.93813e-08 4.77539e-10)
(0.135478 2.57526e-08 -9.77622e-10)
(0.13548 -6.41933e-09 5.00097e-10)
(0.127213 -1.33668e-08 3.94319e-10)
(0.127214 1.53783e-08 -7.34892e-10)
(0.127216 -2.0587e-09 3.40352e-10)
(0.11665 -5.7576e-09 3.37351e-10)
(0.116651 -7.62466e-10 -5.84013e-10)
(0.116653 6.47943e-09 2.46125e-10)
(0.102189 -1.1869e-09 2.6288e-10)
(0.102189 -5.36803e-09 -4.52152e-10)
(0.10219 6.5386e-09 1.88533e-10)
(0.070914 3.65253e-10 2.78958e-10)
(0.070914 -1.84787e-09 -4.36552e-10)
(0.0709146 1.48038e-09 1.572e-10)
(0.0804568 -3.6252e-10 4.09337e-10)
(0.0804567 2.13801e-09 -7.50111e-10)
(0.0804574 -1.68884e-09 3.0505e-10)
(0.138047 9.32717e-10 6.26591e-10)
(0.138047 6.99086e-09 -1.03596e-09)
(0.138049 -8.27997e-09 4.37385e-10)
(0.155099 6.40981e-09 7.38726e-10)
(0.155101 1.67705e-09 -1.23311e-09)
(0.155103 -8.46403e-09 4.95277e-10)
(0.166873 1.53988e-08 8.31124e-10)
(0.166875 -1.74366e-08 -1.45799e-09)
(0.166877 1.64241e-09 6.25842e-10)
(0.175975 2.28749e-08 1.00458e-09)
(0.175976 -2.9764e-08 -1.97119e-09)
(0.175978 6.56915e-09 9.63189e-10)
(0.183462 2.3819e-08 1.20017e-09)
(0.183463 -3.07486e-08 -2.38494e-09)
(0.183465 6.65839e-09 1.18244e-09)
(0.189871 1.70731e-08 1.27648e-09)
(0.189872 -1.92857e-08 -2.59828e-09)
(0.189874 2.00071e-09 1.32022e-09)
(0.195486 6.59662e-09 1.24753e-09)
(0.195488 -2.68763e-09 -2.58685e-09)
(0.195489 -4.11381e-09 1.3406e-09)
(0.200455 -3.66894e-09 1.15495e-09)
(0.200457 1.31254e-08 -2.43752e-09)
(0.200458 -9.66458e-09 1.28315e-09)
(0.204832 -1.00367e-08 1.09362e-09)
(0.204834 2.34408e-08 -2.38504e-09)
(0.204835 -1.36021e-08 1.29082e-09)
(0.208606 -1.37636e-08 1.12075e-09)
(0.208608 2.96444e-08 -2.379e-09)
(0.208609 -1.6027e-08 1.25744e-09)
(0.211725 -1.51668e-08 1.18673e-09)
(0.211727 3.1322e-08 -2.37654e-09)
(0.211729 -1.62347e-08 1.18904e-09)
(0.2141 -1.31411e-08 1.28685e-09)
(0.214101 2.70031e-08 -2.39529e-09)
(0.214103 -1.39016e-08 1.10772e-09)
(0.215699 -8.70296e-09 1.42083e-09)
(0.215701 1.81383e-08 -2.39222e-09)
(0.215703 -9.41305e-09 9.71038e-10)
(0.216549 -3.18692e-09 1.474e-09)
(0.216551 6.64815e-09 -2.36369e-09)
(0.216553 -3.44384e-09 8.89843e-10)
(0.216549 3.12791e-09 1.47436e-09)
(0.21655 -6.45145e-09 -2.36335e-09)
(0.216552 3.29292e-09 8.89372e-10)
(0.215698 8.5435e-09 1.41947e-09)
(0.215699 -1.78848e-08 -2.39209e-09)
(0.215701 9.27263e-09 9.73067e-10)
(0.214097 1.2909e-08 1.28685e-09)
(0.214098 -2.68131e-08 -2.39396e-09)
(0.2141 1.3781e-08 1.10745e-09)
(0.211721 1.49823e-08 1.18602e-09)
(0.211723 -3.12251e-08 -2.37187e-09)
(0.211725 1.61102e-08 1.18585e-09)
(0.208602 1.3595e-08 1.11812e-09)
(0.208603 -2.96917e-08 -2.37388e-09)
(0.208605 1.59788e-08 1.25523e-09)
(0.204828 9.93177e-09 1.09472e-09)
(0.204829 -2.34649e-08 -2.36682e-09)
(0.204831 1.34394e-08 1.27175e-09)
(0.200451 3.46764e-09 1.14885e-09)
(0.200452 -1.29145e-08 -2.45138e-09)
(0.200454 9.37398e-09 1.30217e-09)
(0.19548 -6.97736e-09 1.24792e-09)
(0.195482 3.00404e-09 -2.57352e-09)
(0.195483 3.91284e-09 1.32529e-09)
(0.189861 -1.77555e-08 1.27844e-09)
(0.189863 1.99399e-08 -2.59912e-09)
(0.189864 -2.23954e-09 1.32056e-09)
(0.183449 -2.46178e-08 1.20535e-09)
(0.18345 3.16858e-08 -2.38904e-09)
(0.183452 -7.12485e-09 1.18372e-09)
(0.17596 -2.38629e-08 1.01263e-09)
(0.175961 3.09585e-08 -1.97036e-09)
(0.175963 -7.15786e-09 9.58054e-10)
(0.166858 -1.65095e-08 8.29384e-10)
(0.16686 1.83327e-08 -1.44507e-09)
(0.166862 -1.88424e-09 6.15464e-10)
(0.155088 -7.03718e-09 7.27025e-10)
(0.155089 -1.33564e-09 -1.21432e-09)
(0.155091 8.3202e-09 4.86254e-10)
(0.138038 -1.27179e-09 5.94741e-10)
(0.138038 -6.94648e-09 -1.02499e-09)
(0.13804 8.19584e-09 4.28726e-10)
(0.0804504 4.4159e-10 4.48147e-10)
(0.0804504 -2.12376e-09 -7.49703e-10)
(0.0804511 1.67926e-09 3.00846e-10)
(0.0896466 -4.39822e-10 6.99385e-10)
(0.0896465 2.42244e-09 -1.25589e-09)
(0.0896473 -1.88758e-09 5.53527e-10)
(0.158188 8.58403e-10 9.99449e-10)
(0.158188 7.80028e-09 -1.66574e-09)
(0.15819 -9.03572e-09 7.09174e-10)
(0.177414 6.89364e-09 1.16428e-09)
(0.177415 2.12835e-09 -1.89539e-09)
(0.177417 -9.43978e-09 7.32382e-10)
(0.190194 1.67438e-08 1.30418e-09)
(0.190196 -1.83864e-08 -2.18528e-09)
(0.190198 1.204e-09 8.78987e-10)
(0.200015 2.49008e-08 1.59743e-09)
(0.200016 -3.17928e-08 -3.02271e-09)
(0.200018 6.53571e-09 1.41981e-09)
(0.208075 2.59163e-08 1.93108e-09)
(0.208077 -3.29384e-08 -3.72041e-09)
(0.208079 6.72239e-09 1.78556e-09)
(0.214965 1.85091e-08 2.06892e-09)
(0.214966 -2.05762e-08 -4.07433e-09)
(0.214968 1.83544e-09 2.00294e-09)
(0.220993 7.00709e-09 2.01965e-09)
(0.220995 -2.57678e-09 -4.04536e-09)
(0.220996 -4.65415e-09 2.02703e-09)
(0.226321 -4.24748e-09 1.85754e-09)
(0.226323 1.45464e-08 -3.80423e-09)
(0.226324 -1.05298e-08 1.94718e-09)
(0.23101 -1.12497e-08 1.74607e-09)
(0.231011 2.57053e-08 -3.69205e-09)
(0.231013 -1.46756e-08 1.94488e-09)
(0.23505 -1.53462e-08 1.77816e-09)
(0.235051 3.24548e-08 -3.6689e-09)
(0.235053 -1.72706e-08 1.88915e-09)
(0.238387 -1.68242e-08 1.87137e-09)
(0.238389 3.41992e-08 -3.66497e-09)
(0.238391 -1.7463e-08 1.79223e-09)
(0.240926 -1.45755e-08 2.02317e-09)
(0.240927 2.94554e-08 -3.68934e-09)
(0.24093 -1.49234e-08 1.66498e-09)
(0.242634 -9.66632e-09 2.2269e-09)
(0.242636 1.98008e-08 -3.68969e-09)
(0.242638 -1.01089e-08 1.46222e-09)
(0.243541 -3.53077e-09 2.30781e-09)
(0.243543 7.25397e-09 -3.64905e-09)
(0.243545 -3.70293e-09 1.3416e-09)
(0.243541 3.4644e-09 2.30841e-09)
(0.243542 -7.03427e-09 -3.64861e-09)
(0.243545 3.53693e-09 1.34092e-09)
(0.242633 9.49153e-09 2.22495e-09)
(0.242634 -1.95228e-08 -3.68926e-09)
(0.242636 9.95603e-09 1.46517e-09)
(0.240923 1.4322e-08 2.02316e-09)
(0.240924 -2.92468e-08 -3.68737e-09)
(0.240927 1.47892e-08 1.66485e-09)
(0.238383 1.66218e-08 1.87019e-09)
(0.238385 -3.409e-08 -3.65779e-09)
(0.238386 1.73219e-08 1.78758e-09)
(0.235045 1.51623e-08 1.77381e-09)
(0.235047 -3.24982e-08 -3.66014e-09)
(0.235049 1.72056e-08 1.88554e-09)
(0.231005 1.11308e-08 1.74674e-09)
(0.231007 -2.57469e-08 -3.66884e-09)
(0.231008 1.45123e-08 1.92144e-09)
(0.226316 4.02222e-09 1.84975e-09)
(0.226318 -1.43111e-08 -3.81758e-09)
(0.226319 1.02077e-08 1.96721e-09)
(0.220986 -7.42575e-09 2.02058e-09)
(0.220988 2.94685e-09 -4.03113e-09)
(0.22099 4.41137e-09 2.01009e-09)
(0.214955 -1.9256e-08 2.0727e-09)
(0.214956 2.12837e-08 -4.07777e-09)
(0.214958 -2.08923e-09 2.00493e-09)
(0.208061 -2.6796e-08 1.94054e-09)
(0.208063 3.39527e-08 -3.72867e-09)
(0.208065 -7.22011e-09 1.78825e-09)
(0.199998 -2.59879e-08 1.61069e-09)
(0.2 3.30835e-08 -3.02199e-09)
(0.200002 -7.1651e-09 1.41171e-09)
(0.190178 -1.79539e-08 1.30076e-09)
(0.19018 1.93512e-08 -2.16254e-09)
(0.190182 -1.46563e-09 8.61359e-10)
(0.177401 -7.58186e-09 1.14382e-09)
(0.177402 -1.7585e-09 -1.86367e-09)
(0.177404 9.28141e-09 7.17998e-10)
(0.158178 -1.21932e-09 9.49706e-10)
(0.158178 -7.74686e-09 -1.64734e-09)
(0.15818 8.93956e-09 6.94948e-10)
(0.0896399 5.27346e-10 7.07377e-10)
(0.0896398 -2.40659e-09 -1.25469e-09)
(0.0896405 1.87561e-09 5.458e-10)
(0.0987812 -5.52146e-10 1.00592e-09)
(0.0987812 2.72322e-09 -1.86903e-09)
(0.0987819 -2.0936e-09 8.59333e-10)
(0.171739 7.92342e-10 1.42229e-09)
(0.171739 8.29954e-09 -2.38078e-09)
(0.17174 -9.44468e-09 1.01767e-09)
(0.193008 7.13164e-09 1.66766e-09)
(0.193009 2.49512e-09 -2.66359e-09)
(0.193011 -1.00588e-08 9.99207e-10)
(0.206705 1.74362e-08 1.87179e-09)
(0.206707 -1.85588e-08 -3.03177e-09)
(0.206709 6.60807e-10 1.15686e-09)
(0.217147 2.59749e-08 2.31272e-09)
(0.217149 -3.25627e-08 -4.25122e-09)
(0.217151 6.20951e-09 1.93062e-09)
(0.225694 2.7049e-08 2.81397e-09)
(0.225696 -3.38736e-08 -5.29393e-09)
(0.225698 6.5076e-09 2.47438e-09)
(0.232988 1.92702e-08 3.02822e-09)
(0.232989 -2.10931e-08 -5.81365e-09)
(0.232991 1.57958e-09 2.78189e-09)
(0.239362 7.16127e-09 2.95424e-09)
(0.239363 -2.33736e-09 -5.76418e-09)
(0.239365 -5.0596e-09 2.81139e-09)
(0.244989 -4.68864e-09 2.70711e-09)
(0.244991 1.55054e-08 -5.41572e-09)
(0.244993 -1.10633e-08 2.7091e-09)
(0.249938 -1.20917e-08 2.53455e-09)
(0.24994 2.71427e-08 -5.22776e-09)
(0.249941 -1.52862e-08 2.69153e-09)
(0.2542 -1.64274e-08 2.57156e-09)
(0.254201 3.42264e-08 -5.18663e-09)
(0.254203 -1.79717e-08 2.61258e-09)
(0.257719 -1.79284e-08 2.69745e-09)
(0.25772 3.59796e-08 -5.1802e-09)
(0.257722 -1.81454e-08 2.48066e-09)
(0.260394 -1.5535e-08 2.91121e-09)
(0.260395 3.0974e-08 -5.21876e-09)
(0.260398 -1.54852e-08 2.3058e-09)
(0.262192 -1.03201e-08 3.19694e-09)
(0.262194 2.08429e-08 -5.23076e-09)
(0.262196 -1.04951e-08 2.03296e-09)
(0.263146 -3.76195e-09 3.30988e-09)
(0.263148 7.63322e-09 -5.1798e-09)
(0.26315 -3.84919e-09 1.87055e-09)
(0.263146 3.69005e-09 3.31078e-09)
(0.263147 -7.39833e-09 -5.17927e-09)
(0.26315 3.67362e-09 1.86963e-09)
(0.262191 1.01353e-08 3.1943e-09)
(0.262192 -2.055e-08 -5.22988e-09)
(0.262195 1.03349e-08 2.03693e-09)
(0.26039 1.5268e-08 2.91125e-09)
(0.260392 -3.07543e-08 -5.2162e-09)
(0.260394 1.53421e-08 2.30597e-09)
(0.257714 1.77143e-08 2.6957e-09)
(0.257716 -3.58622e-08 -5.17004e-09)
(0.257718 1.79922e-08 2.47431e-09)
(0.254195 1.62339e-08 2.56513e-09)
(0.254196 -3.42647e-08 -5.17332e-09)
(0.254198 1.7892e-08 2.6071e-09)
(0.249933 1.1962e-08 2.53461e-09)
(0.249935 -2.72002e-08 -5.19847e-09)
(0.249936 1.51277e-08 2.66284e-09)
(0.244984 4.44702e-09 2.6973e-09)
(0.244986 -1.52543e-08 -5.42919e-09)
(0.244988 1.07204e-08 2.73096e-09)
(0.239355 -7.60278e-09 2.95588e-09)
(0.239356 2.74936e-09 -5.74903e-09)
(0.239358 4.78099e-09 2.7925e-09)
(0.232977 -2.00557e-08 3.03421e-09)
(0.232979 2.18281e-08 -5.81968e-09)
(0.23298 -1.83818e-09 2.78531e-09)
(0.225679 -2.79776e-08 2.82866e-09)
(0.225681 3.49271e-08 -5.30714e-09)
(0.225683 -7.01705e-09 2.47873e-09)
(0.21713 -2.71191e-08 2.33198e-09)
(0.217131 3.38988e-08 -4.2507e-09)
(0.217134 -6.85368e-09 1.91926e-09)
(0.206688 -1.86951e-08 1.86588e-09)
(0.20669 1.95529e-08 -2.99741e-09)
(0.206692 -9.30864e-10 1.13088e-09)
(0.192995 -7.84301e-09 1.63522e-09)
(0.192996 -2.11243e-09 -2.61682e-09)
(0.192998 9.89254e-09 9.78784e-10)
(0.171728 -1.13042e-09 1.35269e-09)
(0.171728 -8.24047e-09 -2.35401e-09)
(0.17173 9.34086e-09 9.97166e-10)
(0.0987741 6.2263e-10 1.01684e-09)
(0.0987741 -2.70527e-09 -1.86641e-09)
(0.0987748 2.0782e-09 8.47167e-10)
(0.107989 -6.81145e-10 1.38172e-09)
(0.107989 3.04006e-09 -2.59073e-09)
(0.10799 -2.31071e-09 1.21751e-09)
(0.181834 7.21126e-10 1.89422e-09)
(0.181834 8.63721e-09 -3.18139e-09)
(0.181835 -9.68689e-09 1.36322e-09)
(0.204987 7.24225e-09 2.24747e-09)
(0.204988 2.81848e-09 -3.54623e-09)
(0.20499 -1.04993e-08 1.30573e-09)
(0.219566 1.77707e-08 2.53589e-09)
(0.219568 -1.82843e-08 -4.01766e-09)
(0.21957 3.58827e-11 1.47774e-09)
(0.230576 2.65205e-08 3.15332e-09)
(0.230577 -3.26141e-08 -5.66955e-09)
(0.23058 5.69802e-09 2.50558e-09)
(0.239555 2.76442e-08 3.85e-09)
(0.239557 -3.40887e-08 -7.10963e-09)
(0.239559 6.11292e-09 3.25185e-09)
(0.247203 1.9655e-08 4.15387e-09)
(0.247205 -2.11516e-08 -7.82228e-09)
(0.247206 1.242e-09 3.66358e-09)
(0.253877 7.17227e-09 4.05084e-09)
(0.253879 -1.9999e-09 -7.74892e-09)
(0.253881 -5.419e-09 3.69962e-09)
(0.259764 -5.05181e-09 3.7047e-09)
(0.259766 1.62377e-08 -7.27693e-09)
(0.259768 -1.1445e-08 3.57271e-09)
(0.264937 -1.27237e-08 3.46117e-09)
(0.264939 2.81599e-08 -6.99764e-09)
(0.26494 -1.56831e-08 3.53409e-09)
(0.269389 -1.72277e-08 3.50424e-09)
(0.269391 3.54519e-08 -6.9394e-09)
(0.269393 -1.84052e-08 3.43155e-09)
(0.273064 -1.87196e-08 3.66907e-09)
(0.273066 3.71741e-08 -6.93387e-09)
(0.273068 -1.85537e-08 3.26184e-09)
(0.275856 -1.62255e-08 3.95605e-09)
(0.275858 3.19997e-08 -6.99874e-09)
(0.27586 -1.5823e-08 3.04023e-09)
(0.277731 -1.08006e-08 4.33574e-09)
(0.277733 2.15588e-08 -7.03474e-09)
(0.277736 -1.07295e-08 2.69779e-09)
(0.278725 -3.93039e-09 4.48525e-09)
(0.278726 7.89323e-09 -6.97757e-09)
(0.278729 -3.93996e-09 2.49323e-09)
(0.278724 3.85364e-09 4.48641e-09)
(0.278726 -7.64832e-09 -6.977e-09)
(0.278729 3.75822e-09 2.4922e-09)
(0.277729 1.06085e-08 4.33231e-09)
(0.277731 -2.12573e-08 -7.03317e-09)
(0.277734 1.05651e-08 2.70279e-09)
(0.275853 1.5949e-08 3.95617e-09)
(0.275854 -3.17744e-08 -6.99572e-09)
(0.275857 1.56744e-08 3.041e-09)
(0.273059 1.84966e-08 3.66663e-09)
(0.273061 -3.70517e-08 -6.92037e-09)
(0.273063 1.83921e-08 3.25367e-09)
(0.269384 1.7027e-08 3.49535e-09)
(0.269386 -3.5487e-08 -6.92061e-09)
(0.269388 1.83144e-08 3.42379e-09)
(0.264932 1.25851e-08 3.46032e-09)
(0.264933 -2.82286e-08 -6.96166e-09)
(0.264935 1.55276e-08 3.49987e-09)
(0.259759 4.79744e-09 3.69262e-09)
(0.259761 -1.5978e-08 -7.29019e-09)
(0.259762 1.10891e-08 3.59626e-09)
(0.25387 -7.63006e-09 4.0533e-09)
(0.253871 2.43753e-09 -7.73317e-09)
(0.253873 5.11614e-09 3.67897e-09)
(0.247192 -2.04662e-08 4.16242e-09)
(0.247193 2.18993e-08 -7.83085e-09)
(0.247195 -1.50244e-09 3.66821e-09)
(0.23954 -2.86059e-08 3.87075e-09)
(0.239541 3.51619e-08 -7.12845e-09)
(0.239543 -6.62672e-09 3.25808e-09)
(0.230558 -2.77015e-08 3.17916e-09)
(0.230559 3.39692e-08 -5.66931e-09)
(0.230561 -6.34494e-09 2.4908e-09)
(0.219548 -1.90545e-08 2.52651e-09)
(0.21955 1.92879e-08 -3.97016e-09)
(0.219552 -3.09697e-10 1.44274e-09)
(0.204972 -7.96274e-09 2.19999e-09)
(0.204973 -2.43089e-09 -3.48266e-09)
(0.204975 1.03281e-08 1.27873e-09)
(0.181823 -1.03586e-09 1.80377e-09)
(0.181823 -8.57424e-09 -3.14548e-09)
(0.181824 9.57714e-09 1.33583e-09)
(0.107981 7.23644e-10 1.38288e-09)
(0.107981 -3.02019e-09 -2.58643e-09)
(0.107982 2.29105e-09 1.19992e-09)
(0.117323 -8.18136e-10 1.82521e-09)
(0.117323 3.36754e-09 -3.44568e-09)
(0.117323 -2.53978e-09 1.63736e-09)
(0.189915 6.48914e-10 2.41367e-09)
(0.189915 8.86976e-09 -4.06899e-09)
(0.189917 -9.8336e-09 1.74864e-09)
(0.214735 7.28027e-09 2.89611e-09)
(0.214736 3.11544e-09 -4.54162e-09)
(0.214738 -1.08391e-08 1.65772e-09)
(0.230189 1.78783e-08 3.29411e-09)
(0.230191 -1.77035e-08 -5.15747e-09)
(0.230193 -6.65131e-10 1.85859e-09)
(0.24174 2.67226e-08 4.11873e-09)
(0.241742 -3.21763e-08 -7.29346e-09)
(0.241744 5.04239e-09 3.16096e-09)
(0.251119 2.78874e-08 5.03922e-09)
(0.251121 -3.38128e-08 -9.1815e-09)
(0.251123 5.57907e-09 4.13194e-09)
(0.259089 1.97919e-08 5.4463e-09)
(0.259091 -2.08884e-08 -1.01127e-08)
(0.259092 8.28966e-10 4.66006e-09)
(0.266034 7.08731e-09 5.31015e-09)
(0.266035 -1.57723e-09 -1.00125e-08)
(0.266037 -5.76856e-09 4.704e-09)
(0.272152 -5.36598e-09 4.85171e-09)
(0.272154 1.68445e-08 -9.40031e-09)
(0.272155 -1.17491e-08 4.54907e-09)
(0.277524 -1.32206e-08 4.528e-09)
(0.277526 2.89302e-08 -9.0175e-09)
(0.277527 -1.59663e-08 4.48629e-09)
(0.282145 -1.7848e-08 4.57912e-09)
(0.282147 3.63458e-08 -8.94367e-09)
(0.282149 -1.8686e-08 4.35965e-09)
(0.285958 -1.93064e-08 4.79022e-09)
(0.28596 3.80048e-08 -8.94458e-09)
(0.285962 -1.88019e-08 4.15037e-09)
(0.288852 -1.67409e-08 5.16224e-09)
(0.288854 3.2723e-08 -9.0526e-09)
(0.288857 -1.60335e-08 3.88707e-09)
(0.290795 -1.11701e-08 5.64823e-09)
(0.290797 2.20763e-08 -9.12963e-09)
(0.290799 -1.08775e-08 3.47975e-09)
(0.291823 -4.05852e-09 5.83832e-09)
(0.291825 8.0805e-09 -9.07279e-09)
(0.291828 -3.99917e-09 3.23569e-09)
(0.291823 3.97719e-09 5.83964e-09)
(0.291824 -7.82933e-09 -9.0723e-09)
(0.291827 3.81358e-09 3.2348e-09)
(0.290793 1.09721e-08 5.6439e-09)
(0.290795 -2.17706e-08 -9.12702e-09)
(0.290797 1.07112e-08 3.48569e-09)
(0.288849 1.64573e-08 5.16248e-09)
(0.288851 -3.24961e-08 -9.04939e-09)
(0.288853 1.5882e-08 3.88884e-09)
(0.285953 1.90763e-08 4.78698e-09)
(0.285954 -3.78801e-08 -8.92731e-09)
(0.285957 1.86347e-08 4.14022e-09)
(0.28214 1.76414e-08 4.5674e-09)
(0.282141 -3.63798e-08 -8.91848e-09)
(0.282143 1.85872e-08 4.34917e-09)
(0.277518 1.30741e-08 4.52576e-09)
(0.27752 -2.90055e-08 -8.97376e-09)
(0.277522 1.58107e-08 4.44599e-09)
(0.272146 5.10091e-09 4.837e-09)
(0.272148 -1.65824e-08 -9.41362e-09)
(0.27215 1.1386e-08 4.57483e-09)
(0.266026 -7.5578e-09 5.31359e-09)
(0.266027 2.02574e-09 -9.99614e-09)
(0.266029 5.45221e-09 4.68134e-09)
(0.259077 -2.06214e-08 5.45783e-09)
(0.259079 2.16393e-08 -1.01237e-08)
(0.25908 -1.09032e-09 4.66553e-09)
(0.251103 -2.88731e-08 5.06684e-09)
(0.251104 3.48934e-08 -9.20645e-09)
(0.251106 -6.09383e-09 4.14012e-09)
(0.241721 -2.79285e-08 4.15167e-09)
(0.241722 3.35336e-08 -7.29336e-09)
(0.241724 -5.6851e-09 3.14246e-09)
(0.23017 -1.91731e-08 3.2801e-09)
(0.230172 1.87046e-08 -5.09543e-09)
(0.230174 3.89808e-10 1.81409e-09)
(0.21472 -8.00364e-09 2.83059e-09)
(0.214721 -2.72786e-09 -4.45964e-09)
(0.214723 1.06642e-08 1.62385e-09)
(0.189903 -9.50167e-10 2.30186e-09)
(0.189904 -8.80406e-09 -4.02336e-09)
(0.189905 9.71863e-09 1.71365e-09)
(0.117315 8.24467e-10 1.82097e-09)
(0.117315 -3.34642e-09 -3.43925e-09)
(0.117315 2.51508e-09 1.61316e-09)
(0.126787 -9.51659e-10 2.35818e-09)
(0.126787 3.6944e-09 -4.45907e-09)
(0.126788 -2.77902e-09 2.12978e-09)
(0.19676 5.844e-10 2.97983e-09)
(0.196761 9.01615e-09 -5.04843e-09)
(0.196762 -9.91448e-09 2.17925e-09)
(0.222981 7.27699e-09 3.6049e-09)
(0.222982 3.38982e-09 -5.63968e-09)
(0.222984 -1.11156e-08 2.05359e-09)
(0.239308 1.7829e-08 4.13987e-09)
(0.239309 -1.68888e-08 -6.45748e-09)
(0.239312 -1.44175e-09 2.31233e-09)
(0.251391 2.66765e-08 5.20484e-09)
(0.251393 -3.13614e-08 -9.13695e-09)
(0.251395 4.25795e-09 3.91493e-09)
(0.261153 2.78725e-08 6.38033e-09)
(0.261154 -3.31569e-08 -1.15244e-08)
(0.261157 4.92215e-09 5.13079e-09)
(0.269424 1.97453e-08 6.90537e-09)
(0.269426 -2.03698e-08 -1.27011e-08)
(0.269428 3.41643e-10 5.78762e-09)
(0.276619 6.92906e-09 6.73298e-09)
(0.27662 -1.07309e-09 -1.25702e-08)
(0.276622 -6.12785e-09 5.839e-09)
(0.282949 -5.64719e-09 6.14877e-09)
(0.282951 1.73786e-08 -1.18017e-08)
(0.282953 -1.2013e-08 5.65333e-09)
(0.288503 -1.36221e-08 5.73623e-09)
(0.288504 2.95415e-08 -1.13053e-08)
(0.288506 -1.61846e-08 5.56488e-09)
(0.293277 -1.83416e-08 5.79914e-09)
(0.293279 3.70179e-08 -1.12196e-08)
(0.293281 -1.88709e-08 5.41407e-09)
(0.297215 -1.97454e-08 6.06434e-09)
(0.297217 3.85844e-08 -1.12371e-08)
(0.297219 -1.89468e-08 5.16757e-09)
(0.300202 -1.713e-08 6.53444e-09)
(0.300204 3.32401e-08 -1.14095e-08)
(0.300206 -1.61642e-08 4.87085e-09)
(0.302205 -1.14611e-08 7.13932e-09)
(0.302207 2.24602e-08 -1.15496e-08)
(0.302209 -1.09712e-08 4.40809e-09)
(0.303264 -4.15795e-09 7.37477e-09)
(0.303265 8.21859e-09 -1.15026e-08)
(0.303268 -4.0387e-09 4.12946e-09)
(0.303263 4.07211e-09 7.37608e-09)
(0.303265 -7.96413e-09 -1.15024e-08)
(0.303267 3.85101e-09 4.12912e-09)
(0.302203 1.12582e-08 7.13398e-09)
(0.302204 -2.2154e-08 -1.15455e-08)
(0.302207 1.08048e-08 4.4148e-09)
(0.300198 1.68409e-08 6.53483e-09)
(0.3002 -3.30148e-08 -1.14065e-08)
(0.300203 1.6012e-08 4.87418e-09)
(0.297209 1.95089e-08 6.06016e-09)
(0.297211 -3.84596e-08 -1.12156e-08)
(0.297213 1.87761e-08 5.15532e-09)
(0.293271 1.81296e-08 5.78422e-09)
(0.293273 -3.70529e-08 -1.11871e-08)
(0.293275 1.87668e-08 5.40048e-09)
(0.288497 1.34682e-08 5.73184e-09)
(0.288498 -2.96193e-08 -1.12527e-08)
(0.2885 1.60258e-08 5.51825e-09)
(0.282943 5.37273e-09 6.13118e-09)
(0.282945 -1.71193e-08 -1.18151e-08)
(0.282947 1.16473e-08 5.6816e-09)
(0.27661 -7.40998e-09 6.73755e-09)
(0.276612 1.51971e-09 -1.25534e-08)
(0.276614 5.80723e-09 5.8143e-09)
(0.269412 -2.05881e-08 6.92039e-09)
(0.269413 2.11164e-08 -1.27143e-08)
(0.269415 -6.03631e-10 5.79353e-09)
(0.261136 -2.88764e-08 6.41569e-09)
(0.261137 3.42362e-08 -1.1556e-08)
(0.261139 -5.43603e-09 5.14091e-09)
(0.251371 -2.78994e-08 5.24529e-09)
(0.251373 3.2709e-08 -9.13669e-09)
(0.251375 -4.89173e-09 3.89229e-09)
(0.239288 -1.91255e-08 4.11991e-09)
(0.23929 1.78789e-08 -6.37958e-09)
(0.239292 1.16608e-09 2.25803e-09)
(0.222965 -8.00037e-09 3.51872e-09)
(0.222966 -3.00571e-09 -5.53779e-09)
(0.222968 1.09375e-08 2.01247e-09)
(0.196748 -8.83773e-10 2.84698e-09)
(0.196748 -8.94869e-09 -4.99271e-09)
(0.19675 9.79445e-09 2.13568e-09)
(0.126779 9.16038e-10 2.34559e-09)
(0.126779 -3.6733e-09 -4.45007e-09)
(0.12678 2.74862e-09 2.09752e-09)
(0.136353 -1.06632e-09 2.99393e-09)
(0.136353 4.00266e-09 -5.65438e-09)
(0.136354 -3.02363e-09 2.706e-09)
(0.202835 5.40294e-10 3.5917e-09)
(0.202835 9.07507e-09 -6.12637e-09)
(0.202837 -9.93961e-09 2.66246e-09)
(0.230159 7.25396e-09 4.36307e-09)
(0.23016 3.63391e-09 -6.82232e-09)
(0.230162 -1.13435e-08 2.48568e-09)
(0.247346 1.7667e-08 5.06626e-09)
(0.247348 -1.58865e-08 -7.91015e-09)
(0.24735 -2.29274e-09 2.83835e-09)
(0.259964 2.64388e-08 6.40682e-09)
(0.259966 -3.02308e-08 -1.12038e-08)
(0.259968 3.34935e-09 4.77616e-09)
(0.270101 2.76533e-08 7.87223e-09)
(0.270103 -3.21798e-08 -1.4149e-08)
(0.270105 4.14695e-09 6.26027e-09)
(0.278662 1.95507e-08 8.53297e-09)
(0.278664 -1.96296e-08 -1.56007e-08)
(0.278666 -2.21735e-10 7.05762e-09)
(0.286093 6.70933e-09 8.32216e-09)
(0.286095 -4.87127e-10 -1.54361e-08)
(0.286097 -6.50918e-09 7.11564e-09)
(0.292623 -5.9052e-09 7.59852e-09)
(0.292624 1.78706e-08 -1.44954e-08)
(0.292626 -1.22578e-08 6.89715e-09)
(0.298345 -1.39513e-08 7.0879e-09)
(0.298347 3.00424e-08 -1.38767e-08)
(0.298349 -1.63642e-08 6.78345e-09)
(0.303262 -1.87396e-08 7.16529e-09)
(0.303264 3.75304e-08 -1.37852e-08)
(0.303266 -1.89913e-08 6.61173e-09)
(0.307315 -2.0068e-08 7.49195e-09)
(0.307316 3.8975e-08 -1.38336e-08)
(0.307319 -1.90188e-08 6.33507e-09)
(0.310387 -1.74207e-08 8.07456e-09)
(0.310389 3.36039e-08 -1.40968e-08)
(0.310391 -1.62403e-08 6.01687e-09)
(0.312445 -1.16926e-08 8.81261e-09)
(0.312447 2.2747e-08 -1.43274e-08)
(0.312449 -1.10279e-08 5.51206e-09)
(0.313531 -4.23515e-09 9.09958e-09)
(0.313533 8.32057e-09 -1.43024e-08)
(0.313536 -4.06504e-09 5.20483e-09)
(0.313531 4.14478e-09 9.10073e-09)
(0.313532 -8.06528e-09 -1.43028e-08)
(0.313535 3.87665e-09 5.20551e-09)
(0.312443 1.14856e-08 8.80613e-09)
(0.312445 -2.24433e-08 -1.43213e-08)
(0.312447 1.08629e-08 5.5193e-09)
(0.310383 1.71273e-08 8.07513e-09)
(0.310385 -3.33833e-08 -1.40945e-08)
(0.310388 1.60891e-08 6.02248e-09)
(0.307309 1.9826e-08 7.48666e-09)
(0.307311 -3.88519e-08 -1.38075e-08)
(0.307313 1.88465e-08 6.32062e-09)
(0.303256 1.85225e-08 7.14683e-09)
(0.303258 -3.75679e-08 -1.37445e-08)
(0.30326 1.88839e-08 6.59466e-09)
(0.298339 1.37903e-08 7.08052e-09)
(0.298341 -3.01195e-08 -1.38141e-08)
(0.298342 1.61996e-08 6.73022e-09)
(0.292616 5.62229e-09 7.57778e-09)
(0.292618 -1.76183e-08 -1.4509e-08)
(0.29262 1.18933e-08 6.92824e-09)
(0.286085 -7.19899e-09 8.328e-09)
(0.286086 9.20966e-10 -1.54189e-08)
(0.286088 6.19198e-09 7.08897e-09)
(0.278649 -2.04032e-08 8.55211e-09)
(0.278651 2.03659e-08 -1.56163e-08)
(0.278653 -4.07664e-11 7.06363e-09)
(0.270084 -2.86709e-08 7.91628e-09)
(0.270085 3.32509e-08 -1.41877e-08)
(0.270087 -4.65861e-09 6.27221e-09)
(0.259944 -2.76729e-08 6.45509e-09)
(0.259945 3.15593e-08 -1.12031e-08)
(0.259947 -3.97051e-09 4.74897e-09)
(0.247326 -1.89584e-08 5.03888e-09)
(0.247328 1.68592e-08 -7.81508e-09)
(0.24733 2.0173e-09 2.77408e-09)
(0.230142 -7.97584e-09 4.25386e-09)
(0.230143 -3.25609e-09 -6.69909e-09)
(0.230145 1.11626e-08 2.43707e-09)
(0.202822 -8.47689e-10 3.4388e-09)
(0.202822 -9.00694e-09 -6.0604e-09)
(0.202824 9.81435e-09 2.6091e-09)
(0.136344 9.85558e-10 2.96957e-09)
(0.136344 -3.98349e-09 -5.64272e-09)
(0.136345 2.98708e-09 2.66392e-09)
(0.145964 -1.14211e-09 3.72882e-09)
(0.145964 4.26642e-09 -7.03935e-09)
(0.145965 -3.2654e-09 3.37803e-09)
(0.20844 5.34181e-10 4.24992e-09)
(0.20844 9.03073e-09 -7.31208e-09)
(0.208442 -9.90837e-09 3.20661e-09)
(0.236555 7.22967e-09 5.16039e-09)
(0.236556 3.82741e-09 -8.06446e-09)
(0.236558 -1.15214e-08 2.93885e-09)
(0.254572 1.74252e-08 6.06248e-09)
(0.254573 -1.47362e-08 -9.48942e-09)
(0.254576 -3.21144e-09 3.42139e-09)