/*--------------------------------*- C++ -*----------------------------------*\
  =========                 |
  \\      /  F ield         | OpenFOAM: The Open Source CFD Toolbox
   \\    /   O peration     | Website:  https://openfoam.org
    \\  /    A nd           | Version:  6
     \\/     M anipulation  |
\*---------------------------------------------------------------------------*/
FoamFile
{
    version     2.0;
    format      ascii;
    class       volScalarField;
    location    "0.6";
    object      p;
}
// * * * * * * * * * * * * * * * * * * * * * * * * * * * * * * * * * * * * * //

dimensions      [0 2 -2 0 0 0 0];

internalField   nonuniform List<scalar> 
63552
(
0.010294
0.00994844
0.00942517
0.00862538
0.00753507
0.006067
0.00412207
0.00174246
-0.00136218
-0.00492974
-0.00964822
-0.0147841
-0.0225464
-0.0266958
-0.042183
0.0121614
0.0119995
0.0117188
0.0111771
0.010351
0.00915709
0.00748715
0.00541003
0.00279294
-0.000286711
-0.00420313
-0.00875503
-0.0154215
-0.0185667
-0.0331787
0.0141532
0.0138617
0.013536
0.0130771
0.0121306
0.010794
0.00906883
0.00686307
0.00428464
0.00105035
-0.00294431
-0.00835653
-0.0106901
-0.0238608
0.016374
0.0163541
0.0161531
0.015838
0.0152181
0.0142564
0.0129382
0.011042
0.00901269
0.00632491
0.00299305
-0.00130092
-0.00288339
-0.0143819
0.0187878
0.0187968
0.0186845
0.0183533
0.017665
0.0167334
0.015309
0.0137904
0.0116401
0.00903249
0.00562308
0.00478441
-0.00500292
0.0212122
0.0213797
0.0214192
0.0214439
0.0210828
0.0204906
0.019595
0.0185266
0.0168917
0.0149738
0.0126225
0.0123269
0.00413427
0.0235997
0.0240739
0.0242922
0.0244215
0.0244265
0.0242478
0.023807
0.023147
0.0221058
0.0207085
0.0193025
0.0196992
0.013156
0.0266519
0.0271804
0.0275292
0.0276844
0.0279166
0.0278922
0.0276804
0.0272409
0.0262535
0.0257965
0.0268586
0.0217526
0.0291915
0.0298961
0.0305616
0.0310294
0.0314285
0.0317859
0.0321221
0.032159
0.0317366
0.032149
0.0336714
0.0298251
0.0316377
0.0325782
0.0334265
0.034211
0.0349215
0.0355242
0.0363154
0.0368644
0.0369882
0.0380898
0.0401586
0.0374945
0.0339664
0.0350939
0.0361855
0.0371974
0.0382479
0.0391753
0.0401985
0.0412317
0.0418959
0.0436192
0.0462576
0.0446939
0.0374716
0.0387626
0.0400302
0.0413117
0.0426201
0.0439573
0.0452939
0.0464571
0.0488264
0.0518228
0.0515299
0.0396586
0.0411434
0.0426254
0.0441801
0.0457281
0.047443
0.0491003
0.0505995
0.0535778
0.0570502
0.0575927
0.0416432
0.0432999
0.044976
0.0467339
0.048524
0.0504994
0.0525118
0.0543552
0.0577712
0.0616796
0.0629124
0.0433941
0.0452
0.0470483
0.0490012
0.0510063
0.0532229
0.0554727
0.0576482
0.0614651
0.0657211
0.0676689
0.0448908
0.0468251
0.0488152
0.0509233
0.0531066
0.0555298
0.0580115
0.060439
0.0645889
0.0691493
0.0716066
0.0461132
0.0481507
0.0502575
0.0524936
0.0548206
0.0574042
0.0600624
0.0627205
0.067131
0.0719544
0.0748105
0.0470445
0.0491609
0.0513556
0.0536876
0.0561238
0.0588299
0.0616193
0.0644459
0.0690536
0.0740757
0.0772112
0.049842
0.052096
0.0544921
0.0570015
0.059789
0.0626649
0.0656075
0.0703389
0.0755027
0.0788164
0.0501839
0.0524676
0.0548954
0.0574416
0.0602693
0.0631866
0.0661901
0.070979
0.0762168
0.079613
0.010363
0.00997941
0.00939187
0.00860937
0.00753417
0.00607843
0.00413593
0.00168235
-0.00146447
-0.0049781
-0.00958233
-0.0150176
-0.0230603
-0.0276152
-0.0431066
0.012324
0.0121402
0.0117608
0.0111759
0.0103165
0.00910537
0.0074672
0.00539605
0.00268361
-0.000317511
-0.00440199
-0.00907496
-0.0159363
-0.0194768
-0.0340659
0.0142134
0.0140532
0.0136958
0.0130593
0.0121393
0.0107878
0.00907582
0.00684049
0.0043187
0.000825787
-0.00307321
-0.00884089
-0.0116269
-0.024633
0.0164091
0.0164192
0.0162628
0.0159105
0.0152629
0.0141937
0.012812
0.0110863
0.00902035
0.00622069
0.00294132
-0.00172066
-0.00385775
-0.0152491
0.0187948
0.0188502
0.0187658
0.0183809
0.0176403
0.0166308
0.0152999
0.0136959
0.0115469
0.00875666
0.00519196
0.00377025
-0.0059315
0.0212286
0.021475
0.0215974
0.0215061
0.021093
0.0204757
0.0195069
0.0183861
0.01685
0.0146017
0.011997
0.0112838
0.003324
0.0236416
0.0240738
0.0243987
0.0245799
0.0245167
0.0242607
0.0236761
0.0230304
0.0220308
0.0204214
0.0187705
0.018607
0.0122507
0.0266662
0.0271851
0.0275989
0.0278553
0.0279579
0.0277895
0.0275945
0.0270679
0.0261291
0.0252923
0.0257004
0.0208531
0.0291949
0.029931
0.0305562
0.0310683
0.0315363
0.0317988
0.031989
0.031973
0.0315132
0.0314672
0.032565
0.029136
0.0316364
0.0325728
0.0334371
0.0341999
0.0349567
0.0356053
0.0362051
0.0366541
0.0366737
0.0374413
0.0390552
0.0369474
0.0339659
0.0350961
0.0361761
0.0371988
0.0382173
0.0391821
0.0402096
0.0410897
0.0415794
0.0430355
0.0451087
0.0442266
0.0374658
0.0387554
0.0400055
0.0413022
0.0425271
0.0439024
0.0452105
0.0461416
0.0481909
0.0507777
0.0508341
0.0396552
0.0411321
0.0426034
0.0441257
0.0456418
0.0472875
0.0489422
0.0503025
0.0528913
0.0558859
0.0568492
0.0416379
0.0432872
0.0449476
0.0466874
0.0484457
0.0503833
0.0523137
0.0540385
0.0571281
0.0604987
0.0623058
0.0433887
0.0451865
0.0470178
0.0489421
0.0509067
0.0530705
0.0552837
0.0573065
0.0607916
0.0645189
0.0669381
0.0448849
0.0468107
0.0487838
0.0508652
0.0530089
0.0553762
0.0577942
0.0600942
0.0639063
0.0679435
0.0709061
0.046107
0.0481357
0.0502249
0.0524335
0.0547201
0.0572479
0.0598448
0.062351
0.0664212
0.070708
0.0740846
0.0470382
0.0491455
0.0513224
0.0536267
0.0560219
0.0586716
0.0613989
0.0640725
0.0683287
0.0728196
0.0764983
0.0498263
0.0520625
0.0544309
0.0568992
0.0596302
0.0624442
0.0652316
0.06961
0.074243
0.0781135
0.0501682
0.0524341
0.0548344
0.0573396
0.060111
0.0629671
0.0658152
0.0702515
0.0749646
0.0789217
0.0103163
0.00993647
0.00936274
0.00857823
0.00750963
0.00606327
0.00412117
0.00165865
-0.00150955
-0.00507294
-0.00978448
-0.0152518
-0.0235902
-0.0287427
-0.0436705
0.0122993
0.0121039
0.0117126
0.0111246
0.0102958
0.00909406
0.00746221
0.00537826
0.00264288
-0.000420111
-0.00458497
-0.00933474
-0.0165153
-0.0205953
-0.0346641
0.0142001
0.0140173
0.0136455
0.0130373
0.0121227
0.0107819
0.00906375
0.00679514
0.00421381
0.000658254
-0.00338043
-0.00951455
-0.0127947
-0.0252918
0.0163908
0.0164005
0.0162386
0.0158831
0.015237
0.0141789
0.0128044
0.0110313
0.00890812
0.00603423
0.00261112
-0.00243367
-0.00506412
-0.0159103
0.0187914
0.018835
0.0187166
0.0183483
0.0176208
0.0166152
0.0152442
0.0135809
0.0113514
0.00845241
0.00448692
0.00252264
-0.00657241
0.0212151
0.0214611
0.0215567
0.0214602
0.0210632
0.0204456
0.019445
0.0182604
0.0166418
0.0142828
0.0112737
0.00998394
0.00263322
0.0236358
0.0240752
0.024385
0.0245477
0.0244677
0.0242126
0.0236062
0.0229029
0.0218185
0.0200822
0.0180131
0.0172541
0.0115427
0.0266644
0.0271836
0.0275861
0.0278152
0.0278926
0.0277035
0.0274431
0.026851
0.0257526
0.0245115
0.024303
0.0201645
0.029193
0.0299289
0.0305606
0.0310544
0.0314768
0.0316887
0.0318227
0.0317326
0.0311362
0.0306825
0.0311024
0.0284013
0.0316375
0.0325741
0.0334374
0.0341935
0.0349115
0.0354912
0.0360222
0.0363976
0.0362837
0.0366201
0.0375257
0.0361453
0.0339654
0.035099
0.0361805
0.0371884
0.0381813
0.0390792
0.0400163
0.0408196
0.0411601
0.0421936
0.0435562
0.043372
0.0374689
0.038757
0.0399974
0.0412556
0.0424373
0.0437103
0.04493
0.0456978
0.0473179
0.0491584
0.0499725
0.0396591
0.0411349
0.0425915
0.0440843
0.0455427
0.0471094
0.048666
0.0498493
0.0519962
0.0542224
0.0560213
0.0416424
0.043289
0.0449357
0.0466407
0.048339
0.0501832
0.0520378
0.0535702
0.0562017
0.0587899
0.061385
0.0433936
0.0451884
0.0470038
0.0488946
0.0508013
0.0528771
0.0549951
0.0568338
0.0598473
0.0627834
0.0660513
0.0448901
0.0468119
0.0487689
0.0508152
0.0528986
0.0551754
0.0575083
0.0596043
0.0629417
0.0661693
0.0699894
0.0461123
0.0481366
0.0502086
0.0523818
0.0546078
0.0570448
0.0595528
0.0618568
0.0654403
0.0689107
0.0731728
0.0470435
0.0491459
0.0513051
0.0535735
0.0559076
0.0584659
0.0611047
0.0635702
0.0673366
0.0709996
0.0755809
0.0498263
0.0520444
0.0543767
0.0567835
0.0594229
0.062148
0.0647241
0.0686073
0.0724066
0.077193
0.0501679
0.0524156
0.0547797
0.0572232
0.059903
0.0626703
0.0653043
0.0692422
0.073119
0.0779995
0.0103211
0.00993907
0.00936594
0.00858163
0.00750402
0.00605425
0.00411179
0.00165548
-0.0015253
-0.00515466
-0.00998811
-0.0155305
-0.0242428
-0.0300281
-0.0446739
0.0123035
0.0121017
0.0117172
0.0111363
0.0102954
0.00909752
0.00746067
0.0053716
0.00262746
-0.000507703
-0.00475025
-0.00961531
-0.017212
-0.0218539
-0.0356823
0.0142013
0.0140149
0.0136457
0.0130396
0.0121224
0.0107822
0.00905552
0.00676686
0.00411083
0.000488353
-0.00371227
-0.0102527
-0.0141005
-0.0263394
0.0163969
0.0163995
0.0162379
0.0158838
0.0152374
0.0141898
0.0128149
0.0109923
0.00880372
0.00583754
0.00224533
-0.00322311
-0.00641151
-0.0169551
0.0187945
0.0188393
0.0187233
0.0183564
0.0176306
0.0166217
0.0152099
0.013488
0.0111498
0.00811271
0.00368252
0.00113214
-0.00761771
0.0212166
0.0214635
0.0215639
0.0214727
0.0210781
0.0204437
0.0194185
0.0181667
0.0164231
0.0139434
0.0104832
0.00854837
0.00156869
0.0236357
0.0240788
0.0243914
0.0245586
0.0244844
0.024214
0.0235861
0.0228003
0.0216001
0.0197198
0.017184
0.0157783
0.0104861
0.0266675
0.0271935
0.0275995
0.0278266
0.0278993
0.0276804
0.027331
0.02664
0.0253436
0.0236486
0.0227876
0.0190986
0.0291969
0.0299371
0.0305771
0.0310733
0.0314801
0.0316549
0.0317151
0.0315184
0.0307274
0.0298342
0.0295325
0.0273229
0.0316414
0.0325844
0.0334544
0.0342144
0.0349179
0.0354543
0.0359134
0.0361816
0.0358717
0.035745
0.0359141
0.0350698
0.0339714
0.0351101
0.0361993
0.0372092
0.0381906
0.0390457
0.0398954
0.0405936
0.0407355
0.0412893
0.0419176
0.0422884
0.0374821
0.0387767
0.0400194
0.0412627
0.0424073
0.0435906
0.0446943
0.0452615
0.0464011
0.04746
0.0489025
0.0396738
0.0411568
0.0426131
0.044091
0.0455088
0.0469924
0.0484383
0.0494067
0.0510754
0.0525176
0.0549378
0.0416586
0.0433111
0.0449585
0.0466485
0.0483038
0.050059
0.0518079
0.0531215
0.0552587
0.0570645
0.0603031
0.0434111
0.0452123
0.0470261
0.0488999
0.0507639
0.052754
0.054764
0.0563794
0.0589049
0.0610351
0.0649628
0.0449088
0.046836
0.0487914
0.0508208
0.0528596
0.0550474
0.0572758
0.0591446
0.0619882
0.0643999
0.0689019
0.0461319
0.0481615
0.050231
0.0523861
0.054567
0.0569153
0.0593177
0.061393
0.064483
0.0671268
0.07208
0.0470638
0.049171
0.0513273
0.0535773
0.0558654
0.0583343
0.0608681
0.0631015
0.0663728
0.0692012
0.0744832
0.0498516
0.0520663
0.0543798
0.0567401
0.05929
0.0619102
0.0642519
0.0676381
0.0705975
0.0760915
0.0501932
0.0524372
0.0547823
0.057179
0.0597692
0.0624319
0.0648298
0.0682691
0.0713036
0.0768939
0.0103058
0.00991837
0.00934302
0.00855474
0.00747624
0.00603041
0.00409559
0.00165833
-0.00151495
-0.00517677
-0.0100944
-0.0157308
-0.0248573
-0.0312693
-0.0461277
0.0122974
0.0120871
0.0117003
0.0111164
0.0102713
0.00908198
0.00745094
0.00537553
0.00264328
-0.00052881
-0.00482754
-0.00981567
-0.0178758
-0.0230821
-0.0371161
0.0141908
0.0140005
0.0136284
0.0130197
0.0121049
0.0107758
0.00906203
0.00677867
0.00408512
0.000409664
-0.00394025
-0.0109385
-0.0153599
-0.0277731
0.0163902
0.0163884
0.0162251
0.0158633
0.0152204
0.0141935
0.0128374
0.0110039
0.00878406
0.00574654
0.0019986
-0.00395192
-0.0077053
-0.0183687
0.0187878
0.0188326
0.018709
0.0183433
0.0176346
0.0166438
0.0152278
0.0134796
0.0110591
0.00787917
0.00294685
-0.000193464
-0.00902371
0.0212127
0.0214605
0.0215599
0.0214684
0.0210851
0.0204618
0.019445
0.0181636
0.0163292
0.013712
0.00974618
0.00718946
0.000165927
0.0236319
0.0240782
0.0243947
0.0245644
0.0244989
0.0242342
0.0236177
0.0227951
0.0215109
0.0194726
0.0164204
0.0143907
0.00909239
0.0266684
0.0272009
0.0276144
0.0278488
0.0279294
0.0277133
0.0273266
0.0265584
0.0250748
0.022868
0.0213677
0.0176973
0.0291993
0.029946
0.0305968
0.0311059
0.0315169
0.0316875
0.0317142
0.0314404
0.0304609
0.0290545
0.0280715
0.0259105
0.0316452
0.0325965
0.0334783
0.034252
0.0349628
0.0354922
0.0359162
0.0361048
0.0356033
0.0349447
0.0344274
0.0336559
0.0339779
0.0351246
0.0362258
0.0372502
0.0382403
0.0390905
0.039897
0.0405157
0.040463
0.0404707
0.0404003
0.0408722
0.0374994
0.0388066
0.0400635
0.0413154
0.0424571
0.0435986
0.0446162
0.0449828
0.0455771
0.0459217
0.0475015
0.0396942
0.0411898
0.0426598
0.0441459
0.0455591
0.0470017
0.0483656
0.049124
0.050244
0.0509665
0.0535323
0.0416814
0.0433464
0.0450076
0.0467066
0.0483571
0.0500697
0.0517357
0.0528362
0.0544163
0.0554907
0.0588974
0.0434362
0.0452502
0.0470773
0.0489586
0.0508171
0.0527651
0.0546947
0.0560902
0.05806
0.0594445
0.0635623
0.044936
0.0468757
0.0488442
0.0508816
0.0529144
0.0550584
0.0572057
0.0588539
0.0611381
0.0627956
0.0675002
0.0461607
0.0482028
0.0502852
0.0524477
0.054622
0.0569261
0.0592478
0.0610989
0.0636311
0.0655132
0.0706795
0.0470938
0.0492135
0.0513824
0.0536396
0.0559206
0.0583448
0.0607977
0.0628048
0.0655172
0.0675791
0.0730818
0.0498949
0.052122
0.0544425
0.0567953
0.0593
0.0618394
0.0639529
0.0667804
0.0689701
0.0746898
0.0502368
0.0524931
0.0548451
0.057234
0.0597788
0.0623608
0.0645293
0.0674102
0.0696745
0.075492
0.0102887
0.0098954
0.00931804
0.00852615
0.00744434
0.00600009
0.00407344
0.00165535
-0.00149543
-0.00516122
-0.0101194
-0.0158274
-0.0254102
-0.0322847
-0.0479286
0.0122877
0.0120685
0.0116786
0.0110913
0.0102428
0.00905927
0.00743733
0.00537875
0.00267177
-0.00050694
-0.0048275
-0.00990822
-0.0184736
-0.0241912
-0.038761
0.0141776
0.013982
0.0136056
0.0129951
0.0120841
0.0107688
0.00907232
0.00680998
0.00411117
0.000418781
-0.00403972
-0.0115476
-0.0165028
-0.0293609
0.0163801
0.0163737
0.0162074
0.0158404
0.0152024
0.0141962
0.0128618
0.0110416
0.00882153
0.00575749
0.00189385
-0.00458971
-0.00887929
-0.0198956
0.0187774
0.018821
0.018692
0.0183304
0.0176423
0.0166732
0.0152753
0.0135305
0.0110768
0.00778904
0.00230644
-0.00138477
-0.0105154
0.0212053
0.0214536
0.0215524
0.0214634
0.0210974
0.0204933
0.0195043
0.0182265
0.0163552
0.0136308
0.00910062
0.00598284
-0.00130234
0.0236261
0.0240752
0.0243961
0.0245699
0.0245184
0.0242704
0.0236851
0.0228639
0.0215467
0.0193876
0.0157587
0.0131726
0.00764575
0.026668
0.0272081
0.0276305
0.0278782
0.027975
0.0277866
0.0274029
0.0266072
0.0249858
0.0221968
0.0201371
0.0162628
0.0292016
0.0299568
0.0306201
0.031147
0.0315719
0.0317645
0.0317973
0.0314977
0.03038
0.0283803
0.0268245
0.0244817
0.0316504
0.0326118
0.0335075
0.0343009
0.0350285
0.0355775
0.0360071
0.0361699
0.0355273
0.0342568
0.0331725
0.0322334
0.0339864
0.0351439
0.0362597
0.0373048
0.0383141
0.0391862
0.0399919
0.0405846
0.0403889
0.0397722
0.039134
0.0394567
0.0375226
0.0388454
0.0401234
0.0413948
0.0425616
0.0437038
0.0446906
0.0449088
0.0448752
0.0446531
0.046101
0.0397215
0.0412329
0.0427244
0.0442312
0.0456686
0.0471135
0.048448
0.0490491
0.0495344
0.0496928
0.0521349
0.0417122
0.0433933
0.045076
0.0467962
0.0484719
0.0501866
0.0518244
0.0527619
0.0537003
0.0542078
0.0575046
0.0434703
0.0453005
0.0471496
0.0490524
0.050936
0.052886
0.054788
0.0560163
0.0573392
0.0581558
0.0621747
0.0449728
0.046929
0.0489193
0.0509786
0.053037
0.055183
0.0573028
0.0587801
0.0604148
0.0615028
0.066115
0.0461998
0.0482584
0.0503629
0.0525474
0.0547472
0.0570531
0.0593476
0.0610246
0.062906
0.0642187
0.0692962
0.0471347
0.0492709
0.0514619
0.0537414
0.0560479
0.0584736
0.0608992
0.0627295
0.0647902
0.0662823
0.0716991
0.0499535
0.0522027
0.0545456
0.0569238
0.0594299
0.0619421
0.0638765
0.0660523
0.0676727
0.0733075
0.050296
0.0525744
0.0549488
0.057363
0.0599092
0.0624637
0.0644519
0.0666819
0.0683781
0.07411
0.0102675
0.00986718
0.00928588
0.00848823
0.0074022
0.00595944
0.00404438
0.00164567
-0.00147407
-0.00513401
-0.010103
-0.0158531
-0.0258847
-0.0329059
-0.0496601
0.012273
0.0120445
0.0116502
0.0110582
0.0102064
0.00902696
0.0074191
0.0053795
0.0027055
-0.000467669
-0.0047849
-0.00992266
-0.0189752
-0.0250584
-0.0401392
0.0141594
0.013958
0.0135771
0.0129646
0.0120577
0.0107611
0.00908453
0.00685326
0.00416226
0.000478464
-0.0040447
-0.0120484
-0.0174114
-0.0306134
0.0163662
0.0163544
0.0161848
0.0158145
0.0151818
0.0141992
0.0128877
0.0110959
0.00888843
0.00583108
0.00189816
-0.00510395
-0.00980491
-0.0210451
0.0187638
0.0188056
0.0186744
0.0183181
0.0176544
0.0167086
0.0153431
0.0136141
0.0111644
0.00781384
0.00179634
-0.00230723
-0.0115972
0.0211958
0.0214444
0.0215452
0.0214617
0.0211183
0.0205361
0.0195863
0.0183267
0.01646
0.0136734
0.00859017
0.00506859
-0.00233283
0.0236198
0.0240719
0.0243994
0.0245804
0.0245498
0.0243229
0.0237796
0.0229769
0.021667
0.0194394
0.0152432
0.0122694
0.00665822
0.0266692
0.0272193
0.0276532
0.0279219
0.0280392
0.0278918
0.027529
0.0267453
0.0250479
0.0216802
0.0192449
0.0153095
0.0292073
0.0299742
0.0306526
0.031204
0.0316485
0.0318792
0.0319357
0.0316501
0.0304572
0.0278636
0.0259418
0.0235552
0.0316605
0.0326355
0.0335483
0.0343685
0.0351182
0.0357041
0.036158
0.0363363
0.0356174
0.0337354
0.0323025
0.0313311
0.0340011
0.0351734
0.0363079
0.0373809
0.038415
0.0393262
0.040153
0.0407613
0.040488
0.0392483
0.0382754
0.0385785
0.037558
0.0389002
0.0402075
0.0415044
0.0427135
0.0438785
0.0448789
0.0450158
0.0443517
0.043809
0.0452479
0.0397623
0.0412939
0.0428152
0.0443497
0.0458299
0.0472996
0.0486489
0.0491616
0.0490081
0.0488601
0.0512982
0.0417579
0.0434599
0.0451729
0.0469211
0.0486412
0.0503818
0.0520365
0.0528808
0.0531723
0.053384
0.056683
0.0435205
0.0453719
0.0472519
0.0491842
0.0511129
0.0530891
0.0550082
0.0561406
0.0568097
0.0573408
0.0613662
0.0450268
0.0470045
0.049026
0.0511152
0.0532196
0.0553931
0.0575311
0.0589081
0.0598858
0.060696
0.0653156
0.0462568
0.0483373
0.0504733
0.0526885
0.0549347
0.0572681
0.0595817
0.0611556
0.0623772
0.0634197
0.0685039
0.0471941
0.0493523
0.051575
0.0538857
0.056239
0.0586927
0.0611375
0.0628619
0.0642617
0.0654889
0.0709107
0.0500367
0.0523176
0.0546921
0.0571173
0.0596515
0.062183
0.0640092
0.0655241
0.0668841
0.072521
0.0503801
0.0526903
0.0550965
0.0575576
0.0601321
0.0627058
0.0645842
0.0661542
0.0675932
0.0733233
0.0102427
0.00983447
0.00924809
0.0084439
0.00735493
0.00591459
0.00401588
0.00163685
-0.00144647
-0.00510118
-0.0100729
-0.0158782
-0.0263189
-0.0332092
-0.05074
0.0122542
0.0120163
0.0116172
0.0110201
0.0101667
0.00899249
0.00740493
0.00538651
0.00275099
-0.000415146
-0.00472227
-0.0099282
-0.0194148
-0.0255623
-0.0408841
0.0141378
0.0139308
0.0135458
0.0129334
0.012033
0.0107612
0.00910795
0.00691549
0.00423466
0.000565765
-0.00402841
-0.0124722
-0.0179448
-0.0311751
0.0163496
0.0163331
0.0161609
0.015791
0.0151666
0.014213
0.0129273
0.0111746
0.00898195
0.00594143
0.00193547
-0.00552177
-0.0103308
-0.0214673
0.0187496
0.0187906
0.0186618
0.0183146
0.0176817
0.0167631
0.0154406
0.0137302
0.0112969
0.00787862
0.00139317
-0.00280594
-0.0119134
0.0211873
0.0214378
0.0215451
0.0214718
0.0211586
0.0206039
0.0197019
0.0184646
0.0166165
0.0137643
0.00819924
0.00460389
-0.00256163
0.0236166
0.0240733
0.0244118
0.0246055
0.0246048
0.0244057
0.0239128
0.0231353
0.0218461
0.0195514
0.0148613
0.0118405
0.0065052
0.0266775
0.0272422
0.027693
0.0279928
0.028138
0.0280414
0.0277068
0.0269475
0.0251819
0.0213097
0.0188521
0.0152227
0.0292225
0.0300066
0.0307054
0.0312911
0.031764
0.032045
0.0321326
0.0318731
0.0306133
0.027503
0.0255833
0.0235262
0.0316823
0.0326768
0.0336127
0.0344697
0.0352503
0.0358865
0.0363733
0.0365796
0.0357943
0.0333834
0.0319784
0.0313544
0.0340295
0.0352231
0.0363828
0.0374944
0.0385621
0.0395261
0.0403856
0.0410224
0.0406816
0.0389049
0.0379842
0.0386507
0.0376159
0.0389846
0.0403322
0.0416646
0.0429293
0.0441292
0.0451576
0.0452252
0.0440177
0.0435501
0.0453651
0.0398276
0.0413871
0.0429498
0.0445222
0.0460595
0.0475666
0.048945
0.0493841
0.0486812
0.0486299
0.0514526
0.0418301
0.043561
0.0453163
0.0471035
0.0488826
0.0506625
0.0523481
0.053116
0.0528524
0.0531795
0.0568699
0.0435988
0.0454798
0.0474031
0.0493762
0.0513652
0.0533821
0.0553327
0.0563864
0.056496
0.0571594
0.0615799
0.0451103
0.0471184
0.0491838
0.0513147
0.0534806
0.0556964
0.0578673
0.0591624
0.0595789
0.0605348
0.0655504
0.0463446
0.0484559
0.0506363
0.0528944
0.055203
0.0575795
0.0599267
0.0614168
0.0620757
0.063276
0.0687541
0.0472851
0.0494747
0.0517421
0.0540963
0.0565127
0.0590103
0.0614892
0.0631275
0.0639647
0.0653589
0.0711708
0.0501615
0.0524874
0.0549059
0.0573946
0.0599732
0.0625391
0.0642772
0.0652304
0.0667646
0.0727857
0.0505062
0.0528614
0.055312
0.0578368
0.0604559
0.063064
0.0648527
0.0658627
0.067481
0.0735879
0.0102147
0.00979839
0.00920664
0.00839644
0.00730701
0.0058717
0.00399493
0.00163954
-0.00140351
-0.0050496
-0.0100276
-0.0159623
-0.0267706
-0.0332289
-0.050916
0.0122322
0.0119858
0.0115822
0.010981
0.0101297
0.0089641
0.00740356
0.00541236
0.0028201
-0.000331913
-0.00463489
-0.00998652
-0.0198473
-0.0256365
-0.0408194
0.014115
0.0139038
0.0135165
0.0129083
0.0120191
0.0107791
0.00915642
0.00700928
0.00434781
0.000686967
-0.00405465
-0.012871
-0.0180054
-0.030914
0.0163332
0.0163138
0.0161414
0.0157775
0.0151669
0.0142492
0.0129977
0.0112923
0.00912524
0.00609385
0.00193833
-0.00589149
-0.0103474
-0.0210449
0.0187394
0.0187825
0.0186624
0.0183313
0.0177369
0.0168554
0.015584
0.0139049
0.0114808
0.00791636
0.00105409
-0.00276522
-0.0113549
0.0211852
0.0214408
0.021561
0.0215062
0.0212325
0.0207169
0.01987
0.0186698
0.0168313
0.0138354
0.00789142
0.00470827
-0.00188533
0.0236224
0.0240874
0.0244433
0.0246587
0.0246987
0.0245405
0.0241059
0.0233706
0.0220917
0.0196536
0.0145811
0.0120096
0.00728679
0.0267018
0.0272877
0.0277647
0.0281075
0.0282951
0.0282582
0.0279708
0.0272226
0.0253151
0.0210588
0.0190855
0.0160991
0.0292568
0.0300654
0.0307943
0.0314263
0.0319436
0.0322856
0.0324249
0.0321768
0.0307762
0.0272788
0.0258786
0.0244882
0.0317263
0.0327481
0.0337174
0.0346236
0.0354518
0.0361505
0.0366925
0.0369102
0.0359852
0.0331855
0.0323335
0.0323946
0.034083
0.0353063
0.0365022
0.0376657
0.0387841
0.0398135
0.0407306
0.0413781
0.0408972
0.0387316
0.038396
0.0397627
0.0377105
0.0391174
0.0405191
0.041905
0.0432382
0.044499
0.0455373
0.0454638
0.0438685
0.0440154
0.046542
0.0399324
0.0415322
0.0431509
0.0447797
0.0463878
0.0479592
0.0493473
0.0496431
0.0485534
0.0491439
0.052686
0.0419446
0.0437173
0.0455301
0.0473757
0.049228
0.0510749
0.0527706
0.0533937
0.0527446
0.0537376
0.0581523
0.0437215
0.0456457
0.0476279
0.0496617
0.0517261
0.0538121
0.0557727
0.0566801
0.0564059
0.0577566
0.0629034
0.0452402
0.0472927
0.0494181
0.0516111
0.0538541
0.0561411
0.0583223
0.0594696
0.0595049
0.0611659
0.0669067
0.0464805
0.048637
0.0508783
0.0531999
0.055587
0.058036
0.0603937
0.0617347
0.062015
0.0639356
0.0701352
0.0474255
0.049661
0.0519899
0.0544087
0.0569045
0.0594757
0.0619653
0.0634532
0.0639146
0.0660412
0.0725684
0.0503513
0.0527391
0.0552229
0.0577916
0.0604446
0.063021
0.0646076
0.065188
0.0674638
0.0741918
0.0506978
0.053115
0.0556313
0.0582365
0.0609303
0.0635488
0.0651851
0.0658252
0.068191
0.0749955
0.0101852
0.00976143
0.00916513
0.00835128
0.00726515
0.00584024
0.00399087
0.00166727
-0.0013362
-0.00495976
-0.00996876
-0.0161303
-0.0272164
-0.0329005
-0.0503003
0.0122095
0.0119562
0.0115497
0.0109478
0.0101033
0.00895301
0.00742594
0.00547247
0.0029245
-0.000194051
-0.00452201
-0.0101243
-0.0202483
-0.0252698
-0.0399905
0.014095
0.0138821
0.0134966
0.0128982
0.0120282
0.0108268
0.00924702
0.00714768
0.00452815
0.000844234
-0.00414971
-0.0132168
-0.0175783
-0.0298886
0.0163215
0.0163025
0.0161348
0.0157837
0.0151963
0.0143219
0.0131183
0.0114644
0.00934856
0.0062913
0.00188057
-0.00618162
-0.00983832
-0.0198467
0.01874
0.0187907
0.0186873
0.018383
0.0178356
0.0170066
0.0157911
0.0141717
0.0117202
0.00790239
0.000817323
-0.00216658
-0.0100011
0.0211969
0.021464
0.0216052
0.021581
0.0213572
0.0208979
0.0201113
0.0189792
0.01711
0.0138631
0.00771001
0.00540059
-0.00039112
0.0236453
0.0241255
0.0245073
0.0247575
0.0248503
0.0247519
0.0243819
0.0237221
0.0224105
0.0197225
0.0144513
0.0127957
0.00890949
0.0267542
0.0273705
0.0278872
0.028286
0.0285368
0.0285677
0.0283628
0.0275794
0.0254243
0.0209813
0.0199638
0.0178396
0.0293234
0.0301663
0.0309393
0.0316314
0.0322154
0.0326285
0.0328564
0.0325707
0.030924
0.0272505
0.0268456
0.0263369
0.0318066
0.0328662
0.0338837
0.0348538
0.0357528
0.0365258
0.0371617
0.0373389
0.0361695
0.0332052
0.0333854
0.0343426
0.0341764
0.0354407
0.0366885
0.0379193
0.0391124
0.0402203
0.0412357
0.0418399
0.041115
0.0387965
0.0395279
0.0418015
0.0378603
0.0393221
0.0407944
0.0422587
0.0436743
0.0450377
0.0460301
0.0457129
0.0439761
0.045222
0.0486627
0.0400965
0.0417539
0.043446
0.0451565
0.0468508
0.0485286
0.0498689
0.0499205
0.0487001
0.050419
0.0548792
0.0421217
0.0439544
0.0458429
0.0477731
0.049715
0.0516716
0.0533179
0.0536967
0.052927
0.0550745
0.0604084
0.0439101
0.0458962
0.0479562
0.0500774
0.0522344
0.0544327
0.0563424
0.0570053
0.0566198
0.0591482
0.0652124
0.0454387
0.0475547
0.0497596
0.0520421
0.0543804
0.0567818
0.0589113
0.0598137
0.0597462
0.0626048
0.0692584
0.0466869
0.0489084
0.0512306
0.0536434
0.0561279
0.0586929
0.0609982
0.062094
0.062279
0.0654141
0.0725191
0.0476382
0.0499395
0.0523504
0.0548617
0.0574567
0.0601447
0.0625814
0.0638238
0.0641963
0.0675511
0.0749741
0.0506346
0.0531051
0.0556824
0.0583514
0.0611214
0.0636448
0.0649857
0.0654822
0.068997
0.0766089
0.0509836
0.0534837
0.056094
0.0588001
0.0616109
0.0641763
0.0655669
0.0661269
0.069739
0.0774152
0.0101568
0.00972766
0.00912897
0.00831601
0.00723824
0.0058317
0.00401512
0.00173332
-0.00123414
-0.00481681
-0.00991847
-0.0163851
-0.0275562
-0.0322368
-0.0491352
0.0121898
0.0119326
0.0115263
0.0109293
0.0100979
0.00897243
0.00748544
0.0055819
0.00307755
1.60414e-05
-0.00440595
-0.0103431
-0.0205156
-0.0245056
-0.0386217
0.0140836
0.0138731
0.013496
0.0129148
0.0120749
0.0109195
0.00939655
0.00734626
0.00479494
0.00101588
-0.00431327
-0.0134033
-0.0167108
-0.0283236
0.0163212
0.0163076
0.0161521
0.0158227
0.0152706
0.0144482
0.0133079
0.0117093
0.00967268
0.00651288
0.0017661
-0.00628385
-0.00885459
-0.0181014
0.0187607
0.0188277
0.0187507
0.0184868
0.0179968
0.0172371
0.0160834
0.0145527
0.0119949
0.00784304
0.000795878
-0.00106294
-0.00808747
0.021233
0.0215208
0.0216936
0.0217149
0.0215532
0.0211686
0.0204503
0.0194161
0.0174343
0.0138577
0.00777082
0.00662548
0.00167902
0.023697
0.0242023
0.024621
0.0249221
0.0250818
0.0250632
0.0247679
0.024214
0.0227852
0.0197709
0.0145912
0.0141407
0.0111258
0.0268507
0.0275091
0.0280821
0.0285529
0.028888
0.0289997
0.0289078
0.0280018
0.0255254
0.0211995
0.0214258
0.0201922
0.0294392
0.0303289
0.0311637
0.0319328
0.032606
0.0331059
0.0334529
0.0330396
0.0310755
0.0275435
0.0284202
0.0288159
0.0319412
0.033052
0.0341361
0.0351883
0.0361813
0.037047
0.037807
0.0378519
0.0363693
0.0335702
0.035067
0.0369385
0.0343291
0.0356486
0.0369674
0.038285
0.0395769
0.0407835
0.0419272
0.0423946
0.0413599
0.0392293
0.0413104
0.0445046
0.0380891
0.0396259
0.041189
0.0427566
0.0442768
0.0457721
0.0466238
0.046
0.0444725
0.0470982
0.0514629
0.0403445
0.0420805
0.0438673
0.0456851
0.0474895
0.0493021
0.0504984
0.0502461
0.0492546
0.0523811
0.0577659
0.0423871
0.0443015
0.0462882
0.0483292
0.0503862
0.0524799
0.0539797
0.0540572
0.053534
0.0571141
0.0633706
0.0441911
0.0462615
0.0484226
0.0506578
0.0529344
0.0552714
0.0570325
0.0573963
0.057273
0.0612563
0.0682386
0.0457329
0.0479356
0.050244
0.0526432
0.0551048
0.0576459
0.0596255
0.0602306
0.0604389
0.064772
0.0723366
0.046992
0.0493019
0.0517296
0.0542613
0.0568723
0.0595774
0.061732
0.0625321
0.063004
0.0676306
0.0756372
0.0479516
0.0503427
0.0528607
0.0554924
0.0582163
0.0610445
0.0633302
0.0642779
0.0649462
0.0698066
0.0781196
0.0510444
0.0536228
0.0563216
0.0591212
0.062031
0.0644036
0.0654504
0.0662494
0.0712813
0.0797696
0.0513966
0.0540052
0.0567376
0.0595752
0.0625251
0.06494
0.066037
0.0669038
0.0720412
0.0805804
0.0101341
0.00970301
0.00910588
0.00830035
0.00723785
0.00585858
0.00408215
0.00184699
-0.00108181
-0.00462656
-0.00990993
-0.0167132
-0.0276945
-0.0312949
-0.0476821
0.0121786
0.0119223
0.0115213
0.0109368
0.0101269
0.00903657
0.00759859
0.00575174
0.00329796
0.000293114
-0.00432426
-0.0106255
-0.0205526
-0.0234195
-0.0369602
0.0140889
0.013887
0.0135271
0.0129728
0.0121746
0.0110757
0.00961756
0.00762629
0.00514293
0.00116451
-0.00452598
-0.0133325
-0.0154848
-0.0264602
0.0163417
0.0163406
0.0162073
0.0159106
0.0154069
0.0146486
0.0135806
0.0120508
0.0100912
0.00672076
0.00161918
-0.00610085
-0.00748233
-0.0160473
0.0188145
0.0189088
0.0188704
0.0186613
0.0182426
0.0175623
0.0164873
0.0150412
0.012267
0.00776648
0.00108806
0.000456479
-0.00585135
0.0213075
0.0216278
0.0218455
0.0219281
0.0218447
0.0215459
0.0209162
0.0199725
0.0177665
0.0138521
0.00817276
0.0082909
0.00408761
0.0237926
0.0243359
0.0248056
0.0251745
0.0254191
0.0254926
0.0252955
0.0248372
0.0231776
0.0198347
0.0150998
0.0159495
0.0136979
0.0270105
0.0277259
0.0283732
0.0289355
0.0293686
0.0295879
0.0295953
0.0284521
0.0256582
0.0218124
0.0233735
0.0229181
0.0296248
0.0305773
0.0314926
0.0323598
0.0331369
0.0337533
0.0342025
0.0335461
0.0312746
0.0282567
0.0305012
0.0316861
0.0321519
0.0333309
0.0345014
0.0356578
0.0367606
0.0377514
0.0386153
0.038412
0.0366323
0.0343791
0.0372746
0.0399429
0.0345639
0.0359566
0.0373673
0.038795
0.0402022
0.0415423
0.0427908
0.0430053
0.0416831
0.0401284
0.0436369
0.0476327
0.0384245
0.0400582
0.0417368
0.0434249
0.0450863
0.0466869
0.0472817
0.0463797
0.0454554
0.0495351
0.0547035
0.0407054
0.0425426
0.0444498
0.0463931
0.0483457
0.0502635
0.0511996
0.0506776
0.0503142
0.054919
0.0611072
0.0427711
0.0447908
0.046902
0.0490729
0.0512844
0.0534828
0.05472
0.0545354
0.0546624
0.059743
0.0668001
0.0445955
0.0467747
0.049064
0.051433
0.0538695
0.0563103
0.0578072
0.0579156
0.0584617
0.0639655
0.0717434
0.0461548
0.0484691
0.0509089
0.0534453
0.0560713
0.0587152
0.0604297
0.0607849
0.0616789
0.0675503
0.0759033
0.0474283
0.0498521
0.0524137
0.0550854
0.0578643
0.0606711
0.0625603
0.0631149
0.0642857
0.0704662
0.0792517
0.0483988
0.0509057
0.0535594
0.0563332
0.0592277
0.0621563
0.0641771
0.0648824
0.0662597
0.0726875
0.0817678
0.0516159
0.0543313
0.0571738
0.0601456
0.0631545
0.065263
0.0660693
0.0675845
0.0741953