/*--------------------------------*- C++ -*----------------------------------*\
  =========                 |
  \\      /  F ield         | OpenFOAM: The Open Source CFD Toolbox
   \\    /   O peration     | Website:  https://openfoam.org
    \\  /    A nd           | Version:  6
     \\/     M anipulation  |
\*---------------------------------------------------------------------------*/
FoamFile
{
    version     2.0;
    format      ascii;
    class       surfaceScalarField;
    location    "0.6";
    object      phi;
}
// * * * * * * * * * * * * * * * * * * * * * * * * * * * * * * * * * * * * * //

dimensions      [0 3 -1 0 0 0 0];

internalField   nonuniform List<scalar> 
184501
(
1.90068e-07
-5.68253e-07
-1.8909e-08
6.07745e-07
1.68253e-07
-5.8516e-07
-1.22294e-08
6.19204e-07
1.43411e-07
-6.00452e-07
-6.63566e-09
6.3193e-07
1.17018e-07
-6.09296e-07
-6.38586e-09
6.42074e-07
9.0629e-08
-6.30162e-07
-2.60334e-09
6.59155e-07
6.29663e-08
-6.50533e-07
-1.87636e-10
6.78384e-07
3.54112e-08
-6.74827e-07
4.1968e-12
7.02378e-07
1.05203e-08
-7.0556e-07
-3.64559e-09
7.34097e-07
-1.08789e-08
-7.38477e-07
-9.22068e-09
7.69097e-07
-2.83513e-08
-7.71525e-07
-1.59587e-08
8.04956e-07
-4.74336e-08
-8.07241e-07
-1.68691e-08
8.43192e-07
-6.61093e-08
-8.53043e-07
-2.28891e-08
8.94608e-07
-7.19639e-08
-9.20962e-07
-4.26813e-08
9.69498e-07
-4.42233e-08
-9.67608e-07
-8.05211e-08
1.02039e-06
-7.71177e-07
-8.18897e-08
8.08843e-07
1.74675e-07
-2.06915e-08
1.55204e-07
-5.48937e-07
-1.67507e-08
1.30213e-07
-5.64283e-07
-1.11784e-08
1.0457e-07
-5.73498e-07
-1.01543e-08
7.98118e-08
-6.00966e-07
-4.43833e-09
5.31e-08
-6.21238e-07
-2.58356e-09
2.68458e-08
-6.45859e-07
-2.71457e-09
3.24695e-09
-6.75574e-07
-6.38706e-09
-1.69664e-08
-7.05951e-07
-1.2313e-08
-3.38742e-08
-7.36124e-07
-1.84923e-08
-5.21509e-08
-7.68981e-07
-1.9983e-08
-6.94548e-08
-8.10814e-07
-2.49258e-08
-7.36658e-08
-8.71969e-07
-4.47822e-08
-4.4017e-08
-9.14457e-07
-8.28004e-08
-7.3069e-07
-8.45045e-08
1.3969e-07
-5.18932e-07
-1.10284e-08
1.1548e-07
-5.25304e-07
-1.47692e-08
9.25522e-08
-5.36928e-07
-1.36415e-08
7.02277e-08
-5.71521e-07
-7.1205e-09
4.3836e-08
-5.90423e-07
-4.42372e-09
1.86541e-08
-6.15743e-07
-4.93327e-09
-3.56751e-09
-6.44562e-07
-8.79035e-09
-2.27416e-08
-6.72186e-07
-1.45901e-08
-3.89794e-08
-6.99648e-07
-2.02381e-08
-5.63834e-08
-7.29605e-07
-2.19717e-08
-7.30606e-08
-7.68917e-07
-2.52196e-08
-7.5982e-08
-8.24706e-07
-4.43411e-08
-4.50913e-08
-8.6225e-07
-8.30978e-08
-6.89366e-07
-8.64153e-08
1.26533e-07
-1.04484e-08
9.83722e-08
-4.90628e-07
-6.5157e-09
7.98508e-08
-5.0717e-07
-1.12371e-08
5.94092e-08
-5.40053e-07
-1.10264e-08
3.39189e-08
-5.58113e-07
-6.81956e-09
1.05653e-08
-5.84704e-07
-7.68533e-09
-1.02384e-08
-6.12104e-07
-1.16547e-08
-2.87793e-08
-6.37132e-07
-1.6514e-08
-4.4072e-08
-6.62105e-07
-2.2251e-08
-6.11144e-08
-6.89741e-07
-2.28214e-08
-7.69888e-08
-7.26427e-07
-2.66158e-08
-7.83391e-08
-7.77971e-07
-4.5385e-08
-4.62789e-08
-8.1029e-07
-8.40203e-08
-6.46564e-07
-8.90803e-08
9.02558e-08
-4.65166e-07
-6.57942e-09
7.02519e-08
-4.76409e-07
-1.07572e-08
4.75937e-08
-5.04063e-07
-1.33319e-08
2.40127e-08
-5.24512e-07
-1.002e-08
2.62895e-09
-5.52374e-07
-1.09462e-08
-1.70332e-08
-5.78392e-07
-1.40502e-08
-3.46896e-08
-6.00901e-07
-1.85741e-08
-4.9137e-08
-6.23763e-07
-2.38947e-08
-6.57348e-08
-6.49023e-07
-2.41202e-08
-8.05778e-08
-6.82487e-07
-2.90967e-08
-8.07385e-08
-7.29785e-07
-4.80251e-08
-4.78997e-08
-7.58416e-07
-8.4712e-08
-6.03016e-07
-9.14481e-08
7.72137e-08
-4.34754e-07
-3.8221e-09
5.44799e-08
-4.44734e-07
-8.94128e-09
3.40283e-08
-4.66298e-07
-1.73133e-08
1.32879e-08
-4.89097e-07
-1.46743e-08
-5.7935e-09
-5.17995e-07
-1.52984e-08
-2.39593e-08
-5.43354e-07
-1.68716e-08
-4.03991e-08
-5.63905e-07
-2.05567e-08
-5.41039e-08
-5.84836e-07
-2.52214e-08
-7.00006e-08
-6.07706e-07
-2.54211e-08
-8.39948e-08
-6.37778e-07
-3.07144e-08
-8.29337e-08
-6.81033e-07
-4.98139e-08
-4.96876e-08
-7.06799e-07
-8.48637e-08
-5.60348e-07
-9.2355e-08
6.44511e-08
-5.67773e-09
4.16997e-08
-4.16833e-07
-5.14948e-09
2.01232e-08
-4.33483e-07
-1.12389e-08
2.0666e-09
-4.52796e-07
-1.82441e-08
-1.46959e-08
-4.8093e-07
-2.03019e-08
-3.11281e-08
-5.06589e-07
-2.03333e-08
-4.60727e-08
-5.26052e-07
-2.29079e-08
-5.91722e-08
-5.44971e-07
-2.6766e-08
-7.41168e-08
-5.65808e-07
-2.69528e-08
-8.71613e-08
-5.93354e-07
-3.13795e-08
-8.50919e-08
-6.32821e-07
-5.02812e-08
-5.14036e-08
-6.55051e-07
-8.5436e-08
-5.17479e-07
-9.42725e-08
3.27556e-08
-3.87584e-07
-5.82176e-09
9.36708e-09
-4.01721e-07
-8.37333e-09
-1.03942e-08
-4.19258e-07
-1.37772e-08
-2.49706e-08
-4.43377e-07
-2.29769e-08
-3.83895e-08
-4.68293e-07
-2.48772e-08
-5.16548e-08
-4.87173e-07
-2.56136e-08
-6.4046e-08
-5.04554e-07
-2.80257e-08
-7.81798e-08
-5.23222e-07
-2.84522e-08
-9.08208e-08
-5.4893e-07
-3.1783e-08
-8.73645e-08
-5.83995e-07
-5.2282e-08
-5.3122e-08
-6.03337e-07
-8.59566e-08
-4.74753e-07
-9.58483e-08
2.09905e-08
-3.581e-07
-5.32351e-09
-7.25785e-10
-3.70335e-07
-9.66921e-09
-1.91211e-08
-3.87031e-07
-1.38312e-08
-3.39784e-08
-4.07598e-07
-2.09219e-08
-4.60065e-08
-4.28859e-07
-2.74061e-08
-5.78625e-08
-4.47006e-07
-2.83114e-08
-6.8945e-08
-4.63722e-07
-2.97493e-08
-8.23316e-08
-4.80669e-07
-2.91672e-08
-9.40426e-08
-5.03485e-07
-3.37339e-08
-8.92036e-08
-5.34795e-07
-5.40392e-08
-5.4872e-08
-5.52206e-07
-8.54625e-08
-4.32824e-07
-9.68015e-08
1.35662e-08
-3.28201e-07
-6.18365e-09
-8.94582e-09
-3.39391e-07
-8.43277e-09
-2.73418e-08
-3.53992e-07
-1.46435e-08
-4.18879e-08
-3.72093e-07
-2.09592e-08
-5.39758e-08
-3.90054e-07
-2.67161e-08
-6.4134e-08
-4.05872e-07
-3.09751e-08
-7.37683e-08
-4.21858e-07
-3.22296e-08
-8.61329e-08
-4.37628e-07
-3.06762e-08
-9.68236e-08
-4.57828e-07
-3.4967e-08
-9.12178e-08
-4.86127e-07
-5.42738e-08
-5.64436e-08
-5.01026e-07
-8.59542e-08
-3.91132e-07
-9.81349e-08
4.37263e-09
-6.85969e-09
-1.69259e-08
-3.0749e-07
-1.06025e-08
-3.47557e-08
-3.21071e-07
-1.50913e-08
-4.88055e-08
-3.36221e-07
-2.18214e-08
-6.03263e-08
-3.51512e-07
-2.70218e-08
-7.03023e-08
-3.64919e-07
-3.0977e-08
-7.86684e-08
-3.79365e-07
-3.41271e-08
-8.97721e-08
-3.94091e-07
-3.24333e-08
-9.96426e-08
-4.12362e-07
-3.55952e-08
-9.30961e-08
-4.37447e-07
-5.52259e-08
-5.77475e-08
-4.49772e-07
-8.66025e-08
-3.49851e-07
-9.90287e-08
-2.36784e-08
-2.75335e-07
-1.11089e-08
-4.10568e-08
-2.87038e-07
-1.66539e-08
-5.52602e-08
-3.0033e-07
-2.16885e-08
-6.68262e-08
-3.12983e-07
-2.69627e-08
-7.60201e-08
-3.24643e-07
-3.10829e-08
-8.39765e-08
-3.36847e-07
-3.45619e-08
-9.36287e-08
-3.50171e-07
-3.42672e-08
-1.02491e-07
-3.66721e-07
-3.67783e-08
-9.49204e-08
-3.88583e-07
-5.64351e-08
-5.9042e-08
-3.99436e-07
-8.62146e-08
-3.0823e-07
-1.00663e-07
-3.03226e-08
-2.42289e-07
-1.25554e-08
-4.70429e-08
-2.52602e-07
-1.77158e-08
-6.04427e-08
-2.63738e-07
-2.31921e-08
-7.10809e-08
-2.7441e-07
-2.79355e-08
-8.00068e-08
-2.84272e-07
-3.14446e-08
-8.78748e-08
-2.94506e-07
-3.44727e-08
-9.72729e-08
-3.06029e-07
-3.47446e-08
-1.0496e-07
-3.20913e-07
-3.81204e-08
-9.63167e-08
-3.39804e-07
-5.74228e-08
-6.03154e-08
-3.48975e-07
-8.64624e-08
-2.6794e-07
-1.00605e-07
-3.59454e-08
-2.08802e-07
-1.34849e-08
-5.225e-08
-2.17512e-07
-1.87858e-08
-6.54875e-08
-2.26865e-07
-2.36356e-08
-7.60344e-08
-2.35674e-07
-2.81884e-08
-8.46829e-08
-2.43925e-07
-3.16988e-08
-9.18557e-08
-2.52417e-07
-3.49167e-08
-1.00316e-07
-2.62065e-07
-3.55039e-08
-1.07539e-07
-2.74885e-07
-3.88047e-08
-9.80054e-08
-2.91175e-07
-5.81623e-08
-6.1518e-08
-2.98778e-07
-8.66844e-08
-2.28775e-07
-1.00683e-07
-4.09747e-08
-1.74757e-07
-1.45011e-08
-5.67409e-08
-1.8199e-07
-1.9756e-08
-6.94968e-08
-1.89593e-07
-2.45158e-08
-7.96367e-08
-1.96723e-07
-2.8811e-08
-8.80342e-08
-2.03412e-07
-3.2115e-08
-9.52305e-08
-2.10343e-07
-3.48774e-08
-1.03331e-07
-2.1827e-07
-3.56941e-08
-1.09659e-07
-2.28885e-07
-3.9672e-08
-9.92426e-08
-2.4246e-07
-5.91316e-08
-6.23068e-08
-2.48605e-07
-8.71088e-08
-1.89321e-07
-1.0176e-07
-4.51909e-08
-1.4031e-07
-1.53168e-08
-6.05719e-08
-1.46049e-07
-2.05601e-08
-7.30049e-08
-1.52024e-07
-2.51357e-08
-8.28409e-08
-1.57613e-07
-2.9274e-08
-9.09665e-08
-1.6286e-07
-3.24269e-08
-9.78844e-08
-1.68282e-07
-3.51431e-08
-1.05749e-07
-1.74482e-07
-3.59237e-08
-1.11833e-07
-1.83001e-07
-3.9799e-08
-1.00574e-07
-1.93789e-07
-5.99309e-08
-6.32237e-08
-1.98669e-07
-8.72857e-08
-1.50948e-07
-1.01597e-07
-4.8608e-08
-1.05517e-07
-1.60211e-08
-6.36333e-08
-1.09804e-07
-2.12191e-08
-7.58007e-08
-1.14226e-07
-2.56309e-08
-8.54125e-08
-1.18338e-07
-2.96635e-08
-9.33398e-08
-1.22215e-07
-3.27173e-08
-1.00077e-07
-1.26223e-07
-3.53221e-08
-1.07662e-07
-1.30818e-07
-3.6079e-08
-1.13421e-07
-1.3715e-07
-4.00928e-08
-1.01573e-07
-1.45184e-07
-6.04523e-08
-6.38068e-08
-1.48813e-07
-8.76227e-08
-1.12707e-07
-1.02048e-07
-5.11726e-08
-1.65682e-08
-6.59321e-08
-7.33274e-08
-2.17172e-08
-7.78996e-08
-7.62458e-08
-2.60125e-08
-8.733e-08
-7.8951e-08
-2.99568e-08
-9.51146e-08
-8.15101e-08
-3.29206e-08
-1.01708e-07
-8.4149e-08
-3.54811e-08
-1.09083e-07
-8.71815e-08
-3.6261e-08
-1.14662e-07
-9.1421e-08
-4.01497e-08
-1.02361e-07
-9.67084e-08
-6.0777e-08
-6.43274e-08
-9.91564e-08
-8.769e-08
-7.49107e-08
-1.02123e-07
-6.74373e-08
-3.66953e-08
-2.20616e-08
-7.92784e-08
-3.81456e-08
-2.62591e-08
-8.85934e-08
-3.9484e-08
-3.0152e-08
-9.62946e-08
-4.0759e-08
-3.30499e-08
-1.02792e-07
-4.20665e-08
-3.55852e-08
-1.10009e-07
-4.35718e-08
-3.63921e-08
-1.1552e-07
-4.57188e-08
-4.01921e-08
-1.02945e-07
-4.83337e-08
-6.09494e-08
-6.46963e-08
-4.95678e-08
-8.78372e-08
-3.73344e-08
-1.02273e-07
-6.81456e-08
-2.22429e-08
-7.9935e-08
-2.63801e-08
-8.91961e-08
-3.02461e-08
-9.68781e-08
-3.30985e-08
-1.03329e-07
-3.56352e-08
-1.1043e-07
-3.64864e-08
-1.16e-07
-4.01602e-08
-1.03315e-07
-6.10286e-08
-6.49436e-08
-8.79474e-08
-1.02282e-07
3.3825e-07
-9.12551e-07
-7.79411e-09
9.45074e-07
2.94602e-07
-9.07075e-07
-3.81201e-09
9.42305e-07
2.51183e-07
-9.06067e-07
-9.3769e-10
9.43788e-07
2.07628e-07
-9.12945e-07
3.26486e-10
9.49788e-07
1.63509e-07
-9.19738e-07
3.00465e-09
9.58248e-07
1.20015e-07
-9.29744e-07
2.88048e-09
9.7017e-07
7.94994e-08
-9.48059e-07
-9.21573e-10
9.89501e-07
4.39762e-08
-9.72581e-07
-1.17313e-08
1.01619e-06
1.42948e-08
-1.00073e-06
-2.60605e-08
1.04725e-06
-9.28291e-09
-1.02922e-06
-4.16458e-08
1.07849e-06
-3.00677e-08
-1.06218e-06
-4.79288e-08
1.11402e-06
-5.18281e-08
-1.10071e-06
-5.73989e-08
1.15698e-06
-6.70148e-08
-1.15566e-06
-8.92787e-08
1.21744e-06
-5.74875e-08
-1.20413e-06
-1.5785e-07
1.27193e-06
-9.98246e-07
-1.86815e-07
1.04568e-06
3.34072e-07
-8.13239e-09
2.88097e-07
-8.72765e-07
-5.08613e-09
2.43695e-07
-8.69833e-07
-3.00956e-09
1.99554e-07
-8.76263e-07
-2.6948e-09
1.54791e-07
-8.79035e-07
-3.77818e-10
1.11577e-07
-8.88004e-07
-1.10998e-09
7.21289e-08
-9.05529e-07
-5.79614e-09
3.80838e-08
-9.28134e-07
-1.67898e-08
9.65632e-09
-9.53106e-07
-3.1508e-08
-1.2802e-08
-9.79105e-07
-4.61504e-08
-3.33916e-08
-1.00886e-06
-5.27148e-08
-5.44238e-08
-1.04385e-06
-6.07586e-08
-6.82521e-08
-1.09417e-06
-9.24448e-08
-5.63956e-08
-1.1373e-06
-1.61484e-07
-9.47126e-07
-1.9202e-07
2.84334e-07
-8.32265e-07
-4.81324e-09
2.38439e-07
-8.35561e-07
-3.14705e-09
1.92618e-07
-8.40615e-07
-3.46819e-09
1.46667e-07
-8.36809e-07
-3.39578e-09
1.04157e-07
-8.45934e-07
-3.98301e-09
6.58098e-08
-8.61812e-07
-1.03032e-08
3.26472e-08
-8.8221e-07
-2.15516e-08
5.0813e-09
-9.04631e-07
-3.54997e-08
-1.66623e-08
-9.28192e-07
-4.94074e-08
-3.70353e-08
-9.54647e-07
-5.58103e-08
-5.72787e-08
-9.86674e-07
-6.21496e-08
-6.98982e-08
-1.03228e-06
-9.36099e-08
-5.6655e-08
-1.07121e-06
-1.6244e-07
-8.94161e-07
-1.96035e-07
2.7759e-07
-5.54051e-09
2.34908e-07
-7.96435e-07
-2.9588e-09
1.86419e-07
-7.98707e-07
-4.65636e-09
1.3905e-07
-7.94923e-07
-5.54458e-09
9.71097e-08
-8.03801e-07
-7.01221e-09
5.93995e-08
-8.16919e-07
-1.48686e-08
2.72059e-08
-8.34602e-07
-2.70686e-08
7.70105e-10
-8.55495e-07
-3.92142e-08
-2.04078e-08
-8.76286e-07
-5.29791e-08
-4.01566e-08
-8.99834e-07
-5.78851e-08
-5.97821e-08
-9.28986e-07
-6.46778e-08
-7.1459e-08
-9.70342e-07
-9.56473e-08
-5.72076e-08
-1.00571e-06
-1.63766e-07
-8.39853e-07
-2.00596e-07
2.25618e-07
-7.50634e-07
-4.5776e-09
1.77697e-07
-7.55048e-07
-6.49476e-09
1.31948e-07
-7.53928e-07
-8.57757e-09
8.99932e-08
-7.60908e-07
-1.09577e-08
5.2663e-08
-7.71406e-07
-1.91288e-08
2.15365e-08
-7.86206e-07
-3.13202e-08
-3.98881e-09
-8.05227e-07
-4.33165e-08
-2.45546e-08
-8.23485e-07
-5.613e-08
-4.35656e-08
-8.44718e-07
-6.02252e-08
-6.25911e-08
-8.71016e-07
-6.80411e-08
-7.33034e-08
-9.08689e-07
-9.89655e-08
-5.8099e-08
-9.40668e-07
-1.64959e-07
-7.85237e-07
-2.04164e-07
2.1876e-07
-7.06397e-07
-3.80093e-09
1.72593e-07
-7.11438e-07
-6.38443e-09
1.25852e-07
-7.13196e-07
-1.13038e-08
8.36558e-08
-7.17549e-07
-1.58375e-08
4.65422e-08
-7.25429e-07
-2.41624e-08
1.6213e-08
-7.37605e-07
-3.51434e-08
-8.60607e-09
-7.53914e-07
-4.70509e-08
-2.84836e-08
-7.69975e-07
-5.88539e-08
-4.69718e-08
-7.89294e-07
-6.23572e-08
-6.54626e-08
-8.12615e-07
-7.06255e-08
-7.52722e-08
-8.46887e-07
-1.01807e-07
-5.92649e-08
-8.75786e-07
-1.65753e-07
-7.30365e-07
-2.06492e-07
2.11653e-07
-5.03114e-09
1.65879e-07
-6.63647e-07
-7.16661e-09
1.20536e-07
-6.67373e-07
-1.17188e-08
7.7586e-08
-6.73561e-07
-1.92833e-08
4.05731e-08
-6.797e-07
-2.90177e-08
1.07948e-08
-6.88713e-07
-3.94463e-08
-1.34236e-08
-7.01892e-07
-5.07116e-08
-3.25448e-08
-7.16131e-07
-6.14895e-08
-5.06155e-08
-7.33459e-07
-6.4717e-08
-6.84443e-08
-7.54279e-07
-7.18858e-08
-7.7107e-08
-7.85081e-07
-1.03425e-07
-6.04261e-08
-8.11213e-07
-1.6669e-07
-6.75672e-07
-2.09391e-07
1.56956e-07
-6.15867e-07
-7.96405e-09
1.13522e-07
-6.19391e-07
-1.29209e-08
7.29837e-08
-6.25784e-07
-2.1015e-08
3.58908e-08
-6.32982e-07
-3.26013e-08
5.74676e-09
-6.39407e-07
-4.40395e-08
-1.80457e-08
-6.49647e-07
-5.40652e-08
-3.64037e-08
-6.62041e-07
-6.37574e-08
-5.40324e-08
-6.77233e-07
-6.705e-08
-7.09939e-08
-6.9588e-07
-7.32211e-08
-7.89914e-08
-7.23399e-07
-1.05967e-07
-6.16037e-08
-7.47021e-07
-1.67537e-07
-6.21464e-07
-2.1166e-07
1.50187e-07
-5.67051e-07
-9.26742e-09
1.06518e-07
-5.70838e-07
-1.45527e-08
6.64853e-08
-5.75987e-07
-2.35958e-08
3.08205e-08
-5.82856e-07
-3.53838e-08
9.3222e-10
-5.89705e-07
-4.722e-08
-2.24161e-08
-5.97568e-07
-5.70427e-08
-4.03259e-08
-6.07609e-07
-6.62716e-08
-5.72785e-08
-6.20815e-07
-6.86326e-08
-7.37879e-08
-6.37548e-07
-7.55562e-08
-8.10098e-08
-6.61962e-07
-1.08254e-07
-6.27867e-08
-6.83046e-07
-1.6766e-07
-5.67849e-07
-2.13203e-07
1.41762e-07
-5.17431e-07
-1.09594e-08
9.92663e-08
-5.20628e-07
-1.61473e-08
5.99782e-08
-5.25735e-07
-2.56076e-08
2.55772e-08
-5.31706e-07
-3.77078e-08
-2.96002e-09
-5.37994e-07
-4.98901e-08
-2.62901e-08
-5.45417e-07
-5.97957e-08
-4.39717e-08
-5.5316e-07
-6.89972e-08
-6.04827e-08
-5.64339e-07
-7.0641e-08
-7.65735e-08
-5.79108e-07
-7.73166e-08
-8.27932e-08
-6.00574e-07
-1.09442e-07
-6.39215e-08
-6.19346e-07
-1.68526e-07
-5.14875e-07
-2.15031e-07
1.34739e-07
-1.25754e-08
9.23212e-08
-4.70285e-07
-1.85277e-08
5.3868e-08
-4.7439e-07
-2.79827e-08
1.99775e-08
-4.7995e-07
-3.96871e-08
-7.70595e-09
-4.85427e-07
-5.19048e-08
-2.98973e-08
-4.92074e-07
-6.21288e-08
-4.74031e-08
-4.98994e-07
-7.0787e-08
-6.35869e-08
-5.0808e-07
-7.25086e-08
-7.90622e-08
-5.20695e-07
-7.85331e-08
-8.43934e-08
-5.39538e-07
-1.1093e-07
-6.49577e-08
-5.56281e-07
-1.69103e-07
-4.62231e-07
-2.1663e-07
8.56328e-08
-4.19064e-07
-2.05173e-08
4.76462e-08
-4.22825e-07
-3.02321e-08
1.49615e-08
-4.2737e-07
-4.15833e-08
-1.17736e-08
-4.32455e-07
-5.32e-08
-3.33753e-08
-4.37757e-07
-6.37979e-08
-5.00484e-08
-4.4402e-07
-7.28626e-08
-6.62744e-08
-4.51887e-07
-7.42337e-08
-8.13731e-08
-4.62426e-07
-7.99482e-08
-8.5991e-08
-4.78696e-07
-1.12659e-07
-6.56999e-08
-4.93383e-07
-1.69404e-07
-4.09449e-07
-2.19145e-07
7.95853e-08
-3.67647e-07
-2.2573e-08
4.22571e-08
-3.70752e-07
-3.24613e-08
9.93601e-09
-3.74654e-07
-4.35873e-08
-1.66478e-08
-3.78807e-07
-5.49996e-08
-3.76805e-08
-3.83346e-07
-6.48236e-08
-5.3488e-08
-3.88731e-07
-7.39542e-08
-6.87797e-08
-3.95449e-07
-7.58907e-08
-8.35368e-08
-4.0442e-07
-8.13692e-08
-8.74325e-08
-4.18237e-07
-1.13987e-07
-6.64813e-08
-4.3089e-07
-1.69907e-07
-3.57515e-07
-2.1902e-07
7.39219e-08
-3.15731e-07
-2.43854e-08
3.70393e-08
-3.18324e-07
-3.43306e-08
5.49627e-09
-3.21536e-07
-4.52102e-08
-2.01582e-08
-3.25055e-07
-5.62852e-08
-4.04811e-08
-3.28776e-07
-6.59455e-08
-5.60882e-08
-3.33281e-07
-7.47595e-08
-7.12263e-08
-3.38927e-07
-7.68886e-08
-8.53886e-08
-3.46446e-07
-8.26167e-08
-8.86828e-08
-3.57916e-07
-1.15189e-07
-6.73231e-08
-3.68649e-07
-1.70285e-07
-3.05417e-07
-2.20105e-07
6.8951e-08
-2.63547e-07
-2.60454e-08
3.25699e-08
-2.65647e-07
-3.60523e-08
1.39775e-09
-2.68225e-07
-4.66547e-08
-2.39809e-08
-2.71015e-07
-5.74729e-08
-4.38557e-08
-2.74058e-07
-6.69577e-08
-5.86462e-08
-2.77768e-07
-7.56e-08
-7.3191e-08
-2.82373e-07
-7.77032e-08
-8.71303e-08
-2.88617e-07
-8.35612e-08
-8.97408e-08
-2.97952e-07
-1.16485e-07
-6.78352e-08
-3.06873e-07
-1.7079e-07
-2.54023e-07
-2.2099e-07
6.4641e-08
-2.11101e-07
-2.74589e-08
2.86358e-08
-2.12735e-07
-3.7467e-08
-2.07598e-09
-2.14749e-07
-4.79004e-08
-2.69473e-08
-2.16926e-07
-5.84915e-08
-4.64031e-08
-2.19294e-07
-6.77356e-08
-6.09434e-08
-2.22191e-07
-7.61797e-08
-7.50833e-08
-2.25836e-07
-7.8321e-08
-8.8498e-08
-2.3078e-07
-8.4221e-08
-9.07008e-08
-2.38125e-07
-1.17556e-07
-6.83669e-08
-2.45254e-07
-1.71238e-07
-2.02674e-07
-2.21313e-07
6.10865e-08
-1.58466e-07
-2.86442e-08
2.54455e-08
-1.59671e-07
-3.86421e-08
-4.921e-09
-1.61155e-07
-4.88586e-08
-2.9481e-08
-1.62747e-07
-5.92822e-08
-4.86025e-08
-1.64496e-07
-6.83936e-08
-6.27909e-08
-1.66633e-07
-7.6692e-08
-7.66483e-08
-1.69307e-07
-7.875e-08
-8.97674e-08
-1.73051e-07
-8.47032e-08
-9.14718e-08
-1.78459e-07
-1.18414e-07
-6.87754e-08
-1.83856e-07
-1.71717e-07
-1.51717e-07
-2.2178e-07
5.83566e-08
-2.9571e-08
2.2997e-08
-1.06496e-07
-3.95326e-08
-7.09379e-09
-1.0748e-07
-4.95968e-08
-3.13885e-08
-1.08521e-07
-5.98887e-08
-5.02687e-08
-1.09674e-07
-6.88624e-08
-6.42414e-08
-1.11077e-07
-7.70647e-08
-7.78794e-08
-1.12833e-07
-7.90969e-08
-9.07742e-08
-1.15352e-07
-8.4954e-08
-9.21332e-08
-1.18913e-07
-1.18963e-07
-6.90932e-08
-1.2256e-07
-1.72026e-07
-1.00956e-07
-2.21978e-07
2.13577e-08
-5.3255e-08
-4.01538e-08
-8.54614e-09
-5.37472e-08
-5.00876e-08
-3.26687e-08
-5.42593e-08
-6.02908e-08
-5.13906e-08
-5.48353e-08
-6.91669e-08
-6.52147e-08
-5.5527e-08
-7.73106e-08
-7.8716e-08
-5.63931e-08
-7.93309e-08
-9.14859e-08
-5.76837e-08
-8.50903e-08
-9.25899e-08
-5.94365e-08
-1.19322e-07
-6.93273e-08
-6.13083e-08
-1.72351e-07
-5.04024e-08
-2.22153e-07
2.05569e-08
-4.04935e-08
-9.25855e-09
-5.03446e-08
-3.32975e-08
-6.04989e-08
-5.19541e-08
-6.93079e-08
-6.57102e-08
-7.74344e-08
-7.91412e-08
-7.94722e-08
-9.18901e-08
-8.51123e-08
-9.2853e-08
-1.19515e-07
-6.9492e-08
-1.72627e-07
-2.22183e-07
5.05849e-07
-1.20122e-06
-1.77591e-09
1.25282e-06
4.47824e-07
-1.19113e-06
1.77182e-09
1.24357e-06
3.90433e-07
-1.18404e-06
4.10485e-09
1.23638e-06
3.32831e-07
-1.18283e-06
5.82861e-09
1.23493e-06
2.74542e-07
-1.18146e-06
7.69878e-09
1.23505e-06
2.17314e-07
-1.18343e-06
5.44617e-09
1.2381e-06
1.63216e-07
-1.19157e-06
-2.38667e-09
1.24713e-06
1.14212e-07
-1.2061e-06
-1.98329e-08
1.2632e-06
7.17958e-08
-1.22655e-06
-4.29602e-08
1.28587e-06
3.6914e-08
-1.25092e-06
-6.86789e-08
1.31284e-06
7.92776e-09
-1.2819e-06
-8.37186e-08
1.34668e-06
-2.16589e-08
-1.31861e-06
-9.61091e-08
1.38691e-06
-4.85657e-08
-1.36518e-06
-1.35641e-07
1.43845e-06
-5.9703e-08
-1.412e-06
-2.28268e-07
1.49356e-06
-1.24311e-06
-3.05127e-07
1.30172e-06
5.01844e-07
-4.13669e-09
4.43092e-07
-1.13677e-06
-6.95266e-10
3.85457e-07
-1.13075e-06
1.3396e-09
3.27126e-07
-1.1294e-06
2.20026e-09
2.68167e-07
-1.12621e-06
3.33474e-09
2.1096e-07
-1.12782e-06
4.83625e-10
1.57355e-07
-1.13509e-06
-8.66704e-09
1.09219e-07
-1.14799e-06
-2.67583e-08
6.77173e-08
-1.16637e-06
-5.01842e-08
3.38622e-08
-1.1883e-06
-7.49175e-08
5.13456e-09
-1.21655e-06
-8.93439e-08
-2.38744e-08
-1.24984e-06
-1.0052e-07
-4.95947e-08
-1.29223e-06
-1.3968e-07
-5.76637e-08
-1.33303e-06
-2.32382e-07
-1.17991e-06
-3.1289e-07
4.38999e-07
-1.0806e-06
-2.35035e-09
3.81166e-07
-1.07587e-06
-1.96693e-10
3.2198e-07
-1.0736e-06
-7.89014e-11
2.6253e-07
-1.06964e-06
-5.19975e-10
2.0569e-07
-1.07115e-06
-3.81358e-09
1.52352e-07
-1.07748e-06
-1.45802e-08
1.04618e-07
-1.08864e-06
-3.31657e-08
6.37375e-08
-1.10512e-06
-5.58755e-08
3.05556e-08
-1.12471e-06
-7.98157e-08
2.07465e-09
-1.15043e-06
-9.34455e-08
-2.61851e-08
-1.18035e-06
-1.03376e-07
-5.09174e-08
-1.21873e-06
-1.42379e-07
-5.70768e-08
-1.25503e-06
-2.34279e-07
-1.11427e-06
-3.18751e-07
4.33959e-07
-3.66883e-09
3.75936e-07
-1.0187e-06
-2.09975e-09
3.16026e-07
-1.01551e-06
-2.83312e-09
2.56657e-07
-1.01219e-06
-3.61724e-09
2.00097e-07
-1.01358e-06
-8.0213e-09
1.4699e-07
-1.01893e-06
-2.0308e-08
9.96918e-08
-1.0286e-06
-3.98101e-08
5.96218e-08
-1.043e-06
-6.12597e-08
2.70639e-08
-1.06043e-06
-8.46985e-08
-8.96236e-10
-1.08357e-06
-9.67841e-08
-2.8616e-08
-1.11043e-06
-1.06886e-07
-5.23944e-08
-1.14504e-06
-1.45557e-07
-5.69485e-08
-1.17793e-06
-2.36318e-07
-1.04728e-06
-3.2453e-07
3.69027e-07
-9.59419e-07
-4.20546e-09
3.0944e-07
-9.56776e-07
-5.64308e-09
2.50705e-07
-9.54451e-07
-7.58602e-09
1.94205e-07
-9.55167e-07
-1.28715e-08
1.41257e-07
-9.59367e-07
-2.57458e-08
9.44652e-08
-9.67651e-07
-4.54814e-08
5.5016e-08
-9.80188e-07
-6.66818e-08
2.31622e-08
-9.95597e-07
-8.91106e-08
-4.13148e-09
-1.01637e-06
-1.00135e-07
-3.12796e-08
-1.04062e-06
-1.107e-07
-5.4128e-08
-1.07166e-06
-1.49497e-07
-5.72617e-08
-1.10141e-06
-2.38342e-07
-9.79749e-07
-3.28957e-07
3.62319e-07
-8.99747e-07
-5.23587e-09
3.03768e-07
-8.97035e-07
-7.57478e-09
2.45075e-07
-8.95472e-07
-1.15897e-08
1.88375e-07
-8.95874e-07
-1.84298e-08
1.35513e-07
-8.99152e-07
-3.1515e-08
8.92652e-08
-9.05966e-07
-5.05804e-08
5.03671e-08
-9.16762e-07
-7.1579e-08
1.92471e-08
-9.30258e-07
-9.30731e-08
-7.45398e-09
-9.48771e-07
-1.03252e-07
-3.39837e-08
-9.70701e-07
-1.14014e-07
-5.59853e-08
-9.98494e-07
-1.5297e-07
-5.78111e-08
-1.02524e-06
-2.40097e-07
-9.11688e-07
-3.32365e-07
3.55345e-07
-6.54698e-09
2.9646e-07
-8.35895e-07
-9.42171e-09
2.38589e-07
-8.34542e-07
-1.47771e-08
1.82341e-07
-8.35418e-07
-2.34922e-08
1.29761e-07
-8.38312e-07
-3.72779e-08
8.38936e-08
-8.43733e-07
-5.58124e-08
4.54822e-08
-8.52835e-07
-7.62264e-08
1.51175e-08
-8.64557e-07
-9.6826e-08
-1.10773e-08
-8.8095e-07
-1.06342e-07
-3.68969e-08
-9.00579e-07
-1.16188e-07
-5.78912e-08
-9.25275e-07
-1.5565e-07
-5.84719e-08
-9.4952e-07
-2.4183e-07
-8.43888e-07
-3.35663e-07
2.88725e-07
-7.74195e-07
-1.10917e-08
2.3141e-07
-7.72975e-07
-1.71732e-08
1.76223e-07
-7.73593e-07
-2.76519e-08
1.24197e-07
-7.76334e-07
-4.25521e-08
7.85709e-08
-7.81017e-07
-6.11293e-08
4.06938e-08
-7.88526e-07
-8.04971e-08
1.10945e-08
-7.98548e-07
-1.00167e-07
-1.46365e-08
-8.13035e-07
-1.09234e-07
-3.96283e-08
-8.30271e-07
-1.18537e-07
-5.9798e-08
-8.52267e-07
-1.58805e-07
-5.91816e-08
-8.74218e-07
-2.43455e-07
-7.76367e-07
-3.38362e-07
2.81725e-07
-7.1176e-07
-1.32776e-08
2.24308e-07
-7.10512e-07
-1.95994e-08
1.69179e-07
-7.10974e-07
-3.10852e-08
1.18121e-07
-7.13387e-07
-4.72732e-08
7.32538e-08
-7.17569e-07
-6.58005e-08
3.59843e-08
-7.23852e-07
-8.44479e-08
6.98578e-09
-7.32345e-07
-1.03476e-07
-1.81299e-08
-7.44958e-07
-1.11594e-07
-4.2494e-08
-7.60247e-07
-1.21216e-07
-6.18189e-08
-7.79678e-07
-1.61518e-07
-5.99179e-08
-7.9918e-07
-2.44599e-07
-7.09123e-07
-3.40365e-07
2.73744e-07
-6.48703e-07
-1.54781e-08
2.16902e-07
-6.47414e-07
-2.2404e-08
1.62462e-07
-6.47815e-07
-3.43273e-08
1.12009e-07
-6.4988e-07
-5.0762e-08
6.80597e-08
-6.5347e-07
-7.00394e-08
3.14459e-08
-6.58842e-07
-8.81919e-08
3.01235e-09
-6.66154e-07
-1.06754e-07
-2.15654e-08
-6.76935e-07
-1.14086e-07
-4.53607e-08
-6.90318e-07
-1.2345e-07
-6.36825e-08
-7.07229e-07
-1.63569e-07
-6.06405e-08
-7.24664e-07
-2.46083e-07
-6.42409e-07
-3.42385e-07
2.66858e-07
-1.78223e-08
2.10034e-07
-5.83928e-07
-2.51897e-08
1.55849e-07
-5.84065e-07
-3.7547e-08
1.06032e-07
-5.85826e-07
-5.3924e-08
6.2753e-08
-5.88964e-07
-7.3132e-08
2.6978e-08
-5.93475e-07
-9.172e-08
-8.05872e-10
-5.9972e-07
-1.09437e-07
-2.49281e-08
-6.08976e-07
-1.16345e-07
-4.80719e-08
-6.20491e-07
-1.25217e-07
-6.54717e-08
-6.35091e-07
-1.65669e-07
-6.13439e-08
-6.50687e-07
-2.47208e-07
-5.76071e-07
-3.44312e-07
2.03091e-07
-5.19941e-07
-2.7954e-08
1.49338e-07
-5.19996e-07
-4.05486e-08
1.00213e-07
-5.21369e-07
-5.69156e-08
5.77674e-08
-5.24029e-07
-7.56891e-08
2.27067e-08
-5.27837e-07
-9.43757e-08
-4.3557e-09
-5.33192e-07
-1.12329e-07
-2.80461e-08
-5.41027e-07
-1.18492e-07
-5.05972e-08
-5.50872e-07
-1.27016e-07
-6.71595e-08
-5.63364e-07
-1.67824e-07
-6.1882e-08
-5.77014e-07
-2.48354e-07
-5.10651e-07
-3.46448e-07
1.96864e-07
-4.55672e-07
-3.05217e-08
1.43441e-07
-4.55593e-07
-4.34405e-08
9.47507e-08
-4.56673e-07
-5.95926e-08
5.2795e-08
-4.58812e-07
-7.82613e-08
1.84676e-08
-4.61987e-07
-9.63458e-08
-7.87007e-09
-4.66569e-07
-1.14239e-07
-3.10024e-08
-4.73193e-07
-1.20593e-07
-5.30494e-08
-4.815e-07
-1.28694e-07
-6.88205e-08
-4.92051e-07
-1.69528e-07
-6.25838e-08
-5.03869e-07
-2.49289e-07
-4.45323e-07
-3.46931e-07
1.90912e-07
-3.91057e-07
-3.28586e-08
1.37827e-07
-3.90903e-07
-4.59355e-08
8.96971e-08
-3.91728e-07
-6.20255e-08
4.84461e-08
-3.93487e-07
-8.0359e-08
1.4806e-08
-3.96068e-07
-9.82253e-08
-1.09599e-08
-3.99879e-07
-1.15683e-07
-3.36823e-08
-4.05358e-07
-1.22001e-07
-5.51905e-08
-4.12346e-07
-1.30262e-07
-7.02499e-08
-4.20984e-07
-1.71196e-07
-6.31617e-08
-4.31101e-07
-2.50141e-07
-3.80629e-07
-3.47961e-07
1.8564e-07
-3.26206e-07
-3.49574e-08
1.32884e-07
-3.26018e-07
-4.81809e-08
8.52011e-08
-3.26631e-07
-6.4069e-08
4.44305e-08
-3.27989e-07
-8.21999e-08
1.13397e-08
-3.30058e-07
-9.98761e-08
-1.38114e-08
-3.33176e-07
-1.17152e-07
-3.60443e-08
-3.37643e-07
-1.23185e-07
-5.71266e-08
-3.43344e-07
-1.31481e-07
-7.15711e-08
-3.50334e-07
-1.72691e-07
-6.36608e-08
-3.58765e-07
-2.51036e-07
-3.16398e-07
-3.48881e-07
1.81014e-07
-2.61157e-07
-3.67534e-08
1.28549e-07
-2.60961e-07
-5.00604e-08
8.12746e-08
-2.61409e-07
-6.58475e-08
4.09962e-08
-2.6245e-07
-8.37524e-08
8.42263e-09
-2.6405e-07
-1.0117e-07
-1.62817e-08
-2.66478e-07
-1.18173e-07
-3.81151e-08
-2.69974e-07
-1.24156e-07
-5.87403e-08
-2.74509e-07
-1.32431e-07
-7.26647e-08
-2.79911e-07
-1.74055e-07
-6.4112e-08
-2.86705e-07
-2.51851e-07
-2.52545e-07
-3.49278e-07
1.77153e-07
-1.95961e-07
-3.82526e-08
1.24959e-07
-1.95791e-07
-5.16176e-08
7.8051e-08
-1.96106e-07
-6.72536e-08
3.81638e-08
-1.96857e-07
-8.4988e-08
5.99161e-09
-1.98032e-07
-1.0224e-07
-1.83255e-08
-1.99822e-07
-1.19031e-07
-3.98405e-08
-2.02378e-07
-1.24831e-07
-6.01231e-08
-2.05792e-07
-1.33138e-07
-7.35831e-08
-2.09743e-07
-1.75122e-07
-6.44815e-08
-2.14903e-07
-2.52621e-07
-1.89049e-07
-3.49758e-07
1.74144e-07
-3.94238e-08
1.22177e-07
-1.30546e-07
-5.28105e-08
7.55604e-08
-1.30754e-07
-6.83323e-08
3.5984e-08
-1.3124e-07
-8.59299e-08
4.1273e-09
-1.32012e-07
-1.03025e-07
-1.99099e-08
-1.33186e-07
-1.19663e-07
-4.11876e-08
-1.34857e-07
-1.2534e-07
-6.1212e-08
-1.37153e-07
-1.33569e-07
-7.43096e-08
-1.39728e-07
-1.75881e-07
-6.47833e-08
-1.43245e-07
-2.53211e-07
-1.25813e-07
-3.49997e-07
1.20276e-07
-6.52642e-08
-5.36433e-08
7.38682e-08
-6.53691e-08
-6.90641e-08
3.45045e-08
-6.56068e-08
-8.65601e-08
2.85967e-09
-6.59934e-08
-1.03541e-07
-2.09886e-08
-6.65732e-08
-1.20075e-07
-4.2112e-08
-6.73929e-08
-1.25672e-07
-6.19751e-08
-6.85676e-08
-1.33812e-07
-7.48131e-08
-6.9824e-08
-1.76388e-07
-6.50212e-08
-7.16424e-08
-2.53746e-07
-6.28119e-08
-3.50176e-07
1.19315e-07
-5.40995e-08
7.30139e-08
-6.94509e-08
3.37582e-08
-8.68886e-08
2.21577e-09
-1.03796e-07
-2.15415e-08
-1.20286e-07
-4.25875e-08
-1.2585e-07
-6.23919e-08
-1.33898e-07
-7.50839e-08
-1.76663e-07
-6.52115e-08
-2.54154e-07
-3.50214e-07
6.82812e-07
-1.48549e-06
-1.28751e-11
1.55451e-06
6.12309e-07
-1.46944e-06
3.41537e-09
1.5383e-06
5.42374e-07
-1.45641e-06
5.73047e-09
1.52472e-06
4.7265e-07
-1.44741e-06
7.45432e-09
1.51551e-06
4.03029e-07
-1.44072e-06
8.76915e-09
1.50927e-06
3.34394e-07
-1.43774e-06
5.32038e-09
1.50651e-06
2.67952e-07
-1.43992e-06
-5.1362e-09
1.50911e-06
2.0515e-07
-1.44854e-06
-2.7151e-08
1.51866e-06
1.48033e-07
-1.46442e-06
-5.7741e-08
1.53632e-06
9.8885e-08
-1.48673e-06
-9.37567e-08
1.56095e-06
5.78724e-08
-1.51873e-06
-1.1984e-07
1.59586e-06
1.816e-08
-1.55823e-06
-1.37311e-07
1.63914e-06
-1.98598e-08
-1.59986e-06
-1.83257e-07
1.68549e-06
-4.89156e-08
-1.63571e-06
-2.95495e-07
1.732e-06
-1.52663e-06
-4.26989e-07
1.59958e-06
6.79609e-07
-2.98321e-09
6.08526e-07
-1.39938e-06
3.32556e-10
5.38181e-07
-1.3871e-06
2.36514e-09
4.67873e-07
-1.37818e-06
3.276e-09
3.97861e-07
-1.37108e-06
3.70254e-09
3.29185e-07
-1.36803e-06
-5.53752e-10
2.62896e-07
-1.36976e-06
-1.25384e-08
2.00533e-07
-1.37737e-06
-3.55728e-08
1.44102e-07
-1.39168e-06
-6.65011e-08
9.59163e-08
-1.41177e-06
-1.01688e-07
5.53667e-08
-1.44101e-06
-1.26508e-07
1.62327e-08
-1.47671e-06
-1.42903e-07
-2.07818e-08
-1.51421e-06
-1.88308e-07
-4.59272e-08
-1.54371e-06
-2.99245e-07
-1.44828e-06
-4.37174e-07
6.05267e-07
-1.32813e-06
-2.17489e-09
5.34544e-07
-1.31635e-06
-2.20404e-10
4.63769e-07
-1.30736e-06
-1.19001e-10
3.93546e-07
-1.30036e-06
-1.00955e-09
3.24971e-07
-1.29724e-06
-6.03059e-09
2.58685e-07
-1.29853e-06
-1.95185e-08
1.96455e-07
-1.30507e-06
-4.32301e-08
1.40435e-07
-1.31784e-06
-7.36882e-08
9.28486e-08
-1.33582e-06
-1.0818e-07
5.2637e-08
-1.36243e-06
-1.31813e-07
1.42341e-08
-1.3945e-06
-1.47183e-07
-2.18969e-08
-1.42807e-06
-1.92394e-07
-4.46333e-08
-1.45311e-06
-3.02142e-07
-1.36736e-06
-4.44299e-07
6.01088e-07
-4.15363e-09
5.29837e-07
-1.24426e-06
-2.93947e-09
4.58664e-07
-1.23535e-06
-3.67206e-09
3.8846e-07
-1.2286e-06
-5.18083e-09
3.19947e-07
-1.22542e-06
-1.13271e-08
2.53704e-07
-1.22636e-06
-2.62362e-08
1.91692e-07
-1.23206e-06
-5.08105e-08
1.36295e-07
-1.24317e-06
-8.05319e-08
8.93858e-08
-1.25919e-06
-1.14416e-07
4.97429e-08
-1.28316e-06
-1.36418e-07
1.19755e-08
-1.31191e-06
-1.51711e-07
-2.32482e-08
-1.34173e-06
-1.96667e-07
-4.393e-08
-1.36362e-06
-3.05119e-07
-1.28498e-06
-4.5084e-07
5.24326e-07
-1.17104e-06
-5.69243e-09
4.53101e-07
-1.16253e-06
-7.23274e-09