/*--------------------------------*- C++ -*----------------------------------*\
  =========                 |
  \\      /  F ield         | OpenFOAM: The Open Source CFD Toolbox
   \\    /   O peration     | Website:  https://openfoam.org
    \\  /    A nd           | Version:  6
     \\/     M anipulation  |
\*---------------------------------------------------------------------------*/
FoamFile
{
    version     2.0;
    format      ascii;
    class       volVectorField;
    location    "0.6";
    object      U;
}
// * * * * * * * * * * * * * * * * * * * * * * * * * * * * * * * * * * * * * //

dimensions      [0 1 -1 0 0 0 0];

internalField   nonuniform List<vector> 
63552
(
(0.137166 -0.084944 0.000478114)
(0.140049 -0.0955594 0.000197829)
(0.142794 -0.107477 -0.000139592)
(0.143323 -0.120371 1.33226e-05)
(0.145564 -0.136017 0.000195496)
(0.147688 -0.153437 0.000132253)
(0.149871 -0.173656 0.000217481)
(0.154442 -0.196521 -0.000146647)
(0.160813 -0.220643 -0.000477484)
(0.170228 -0.243823 -0.00048882)
(0.181183 -0.268609 0.000298679)
(0.195694 -0.29852 -0.00147814)
(0.215426 -0.339457 -0.00363239)
(0.254025 -0.352702 -0.00688674)
(0.220269 -0.282472 -0.00838125)
(0.125837 -0.0861948 0.00124)
(0.130168 -0.0975603 0.00104092)
(0.13249 -0.109633 0.000323402)
(0.131557 -0.122439 0.000180841)
(0.134529 -0.138842 -0.000168224)
(0.136122 -0.156456 -0.00024905)
(0.137917 -0.176863 -0.00018467)
(0.14164 -0.199253 -0.000133939)
(0.146866 -0.222455 -0.000710437)
(0.154696 -0.245 -0.000509722)
(0.164137 -0.269358 -0.000880078)
(0.175973 -0.298465 -0.00186057)
(0.193444 -0.336908 -0.00386444)
(0.229436 -0.349976 -0.0071465)
(0.201311 -0.279861 -0.00857191)
(0.118023 -0.0972312 0.000315333)
(0.120031 -0.109612 0.00147898)
(0.118937 -0.122676 0.00132589)
(0.123554 -0.139963 -0.000320635)
(0.124133 -0.157399 2.60538e-06)
(0.124992 -0.177535 -0.000283504)
(0.127925 -0.199495 -0.000252028)
(0.132108 -0.221809 -0.000510056)
(0.138382 -0.243708 -0.000389858)
(0.146192 -0.267137 -0.00137217)
(0.155729 -0.295867 -0.000950309)
(0.170507 -0.332061 -0.00315878)
(0.204219 -0.345544 -0.00727409)
(0.182038 -0.276516 -0.00804354)
(0.111583 -0.0989049 8.49192e-05)
(0.10598 -0.108676 0.000660317)
(0.105378 -0.121773 0.000774319)
(0.11231 -0.140249 0.000233227)
(0.111156 -0.157372 0.00029216)
(0.112159 -0.177459 -0.000479302)
(0.114364 -0.198771 -0.00109701)
(0.117254 -0.220102 -0.000204453)
(0.121961 -0.241126 -0.000631361)
(0.128379 -0.263734 -0.000959348)
(0.135495 -0.292367 -0.000745973)
(0.148738 -0.327019 -0.00285285)
(0.179447 -0.339542 -0.00758405)
(0.162552 -0.270909 -0.00871773)
(0.0968264 -0.108707 -0.000186079)
(0.0975507 -0.122464 0.000134556)
(0.0995553 -0.139053 0.000478099)
(0.0980556 -0.156092 0.000131205)
(0.0989888 -0.175989 -0.000287587)
(0.1006 -0.196278 -0.00102745)
(0.101917 -0.216616 -0.000619259)
(0.105558 -0.236764 -0.00113969)
(0.11034 -0.258644 -0.000973611)
(0.115306 -0.286424 -0.00201808)
(0.126635 -0.319333 -0.00356261)
(0.154887 -0.331523 -0.00786384)
(0.142869 -0.263448 -0.00967586)
(0.0886055 -0.108137 0.000149449)
(0.0832996 -0.119773 0.000802568)
(0.0855596 -0.136557 0.0013311)
(0.0843124 -0.153512 0.000298228)
(0.0853259 -0.173038 -0.000307053)
(0.0864861 -0.192547 -0.000628715)
(0.0868936 -0.211752 -0.00108039)
(0.0892298 -0.230967 -0.00131919)
(0.09259 -0.25187 -0.000853154)
(0.0954005 -0.278374 -0.00256484)
(0.1048 -0.309288 -0.00432059)
(0.130841 -0.32155 -0.00798262)
(0.12343 -0.254593 -0.00909527)
(0.0761834 -0.105539 0.000333727)
(0.0739604 -0.118204 -0.000233468)
(0.0706622 -0.132323 0.000905274)
(0.0704643 -0.149614 0.000980945)
(0.0713764 -0.168609 0.000276531)
(0.0720999 -0.187226 -0.000441347)
(0.0717623 -0.20534 -0.00133535)
(0.0732224 -0.223536 -0.00146213)
(0.0748676 -0.243444 -0.00113545)
(0.0760558 -0.268427 -0.00216607)
(0.0838284 -0.297861 -0.00393925)
(0.107496 -0.309715 -0.00827473)
(0.104833 -0.244182 -0.00955434)
(0.0638103 -0.115031 -4.99471e-05)
(0.0611315 -0.129191 -0.000225244)
(0.0557623 -0.143939 0.00046023)
(0.0563623 -0.16233 0.000948945)
(0.0574208 -0.180382 -0.000285994)
(0.0570483 -0.197396 -0.00125937)
(0.0573303 -0.214396 -0.00126233)
(0.0578364 -0.233227 -0.00172336)
(0.0571118 -0.257419 -0.00143404)
(0.0631509 -0.284563 -0.00424644)
(0.08487 -0.29559 -0.00857214)
(0.0868092 -0.23214 -0.00998403)
(0.0538051 -0.110853 -9.24013e-05)
(0.0481258 -0.123514 0.000102629)
(0.0455547 -0.138791 -0.000582662)
(0.0423675 -0.154731 -0.000261089)
(0.0431173 -0.171941 0.000229772)
(0.0421942 -0.187995 -0.00056536)
(0.0417771 -0.204002 -0.00141567)
(0.0412354 -0.221454 -0.00162207)
(0.0387075 -0.244231 -0.00219698)
(0.0434981 -0.269031 -0.00511596)
(0.0634404 -0.279838 -0.00822861)
(0.0695529 -0.218878 -0.0092294)
(0.0446867 -0.105752 -0.000222978)
(0.039252 -0.117963 -0.000319913)
(0.0333259 -0.131333 -0.000390403)
(0.0312098 -0.146712 -0.000891775)
(0.0284291 -0.161561 -0.00043416)
(0.0275316 -0.176956 -0.000116972)
(0.0268535 -0.192018 -0.00149734)
(0.0253272 -0.208309 -0.00178111)
(0.0214558 -0.229173 -0.00273685)
(0.0249181 -0.252063 -0.00485672)
(0.0429993 -0.262283 -0.00834061)
(0.0534929 -0.204319 -0.00832403)
(0.0356302 -0.09949 -0.000195179)
(0.0287047 -0.110582 -0.000352889)
(0.0236539 -0.12339 -0.000680274)
(0.0188578 -0.136811 -0.000744127)
(0.0169443 -0.150875 -0.00123147)
(0.0131783 -0.164259 -0.000672044)
(0.0124573 -0.178533 -0.000688009)
(0.0102536 -0.193545 -0.00160719)
(0.00517132 -0.212628 -0.00265536)
(0.0073352 -0.233669 -0.00482105)
(0.0239719 -0.242812 -0.00870682)
(0.0387177 -0.188365 -0.00764593)
(0.0202236 -0.102524 -0.000444718)
(0.013707 -0.113924 -0.000689512)
(0.00891465 -0.126201 -0.00104722)
(0.00433769 -0.138315 -0.000830185)
(0.00100648 -0.150659 -0.00174452)
(-0.00190096 -0.163245 -0.001192)
(-0.00418059 -0.177372 -0.00137806)
(-0.0100601 -0.194746 -0.0026785)
(-0.00909912 -0.213503 -0.00520143)
(0.00618206 -0.221899 -0.00828513)
(0.0253538 -0.170536 -0.00935011)
(0.0115892 -0.0931821 -0.00049203)
(0.00483743 -0.103453 -0.000783742)
(-0.000937658 -0.114236 -0.00105854)
(-0.00553703 -0.125125 -0.00148744)
(-0.0100612 -0.135925 -0.00168224)
(-0.013349 -0.147201 -0.00216541)
(-0.0176923 -0.159607 -0.00193688)
(-0.024105 -0.175444 -0.00276422)
(-0.0237413 -0.191973 -0.00547276)
(-0.00972133 -0.199588 -0.0087038)
(0.0130391 -0.152754 -0.010196)
(0.00412932 -0.0829546 -0.000552075)
(-0.0032352 -0.0919082 -0.000849067)
(-0.00959417 -0.101279 -0.00113743)
(-0.0152294 -0.110621 -0.00131763)
(-0.0204443 -0.120076 -0.00152002)
(-0.0247335 -0.12984 -0.00171998)
(-0.0292336 -0.140878 -0.00237934)
(-0.0369079 -0.154717 -0.00295002)
(-0.0372783 -0.16919 -0.00537606)
(-0.0240702 -0.17586 -0.00877086)
(0.00202089 -0.133826 -0.00867372)
(-0.00259514 -0.0717894 -0.000602606)
(-0.0103565 -0.0794298 -0.000908412)
(-0.017179 -0.0873849 -0.00121337)
(-0.023315 -0.0953341 -0.00153857)
(-0.0291397 -0.103351 -0.00182732)
(-0.0341243 -0.111639 -0.0021066)
(-0.0398833 -0.121003 -0.00223947)
(-0.047996 -0.132909 -0.00330335)
(-0.0490138 -0.145242 -0.00564589)
(-0.036428 -0.150862 -0.00913268)
(-0.00704228 -0.114301 -0.0103798)
(-0.00831181 -0.059854 -0.000647638)
(-0.0164207 -0.066139 -0.000958943)
(-0.023696 -0.072645 -0.00125559)
(-0.0302961 -0.0791446 -0.00153728)
(-0.0366317 -0.085728 -0.00180474)
(-0.0421414 -0.0925509 -0.00213128)
(-0.0485505 -0.100271 -0.00257537)
(-0.0576626 -0.110092 -0.00328809)
(-0.0591863 -0.12024 -0.00586285)
(-0.046989 -0.124836 -0.00926641)
(-0.0149736 -0.0942141 -0.0100171)
(-0.0129864 -0.047253 -0.000686509)
(-0.0213718 -0.0521606 -0.00100245)
(-0.0289628 -0.0572335 -0.00130064)
(-0.0359624 -0.0622979 -0.00159427)
(-0.0427017 -0.0674283 -0.00186924)
(-0.0486636 -0.0727389 -0.00218578)
(-0.0556633 -0.0787774 -0.00259668)
(-0.0653362 -0.0864697 -0.00357761)
(-0.067382 -0.0943671 -0.00614955)
(-0.055428 -0.0979491 -0.00970823)
(-0.0211507 -0.0736867 -0.0105906)
(-0.016545 -0.0341276 -0.000718311)
(-0.0251239 -0.037644 -0.00103766)
(-0.032972 -0.0412694 -0.00133681)
(-0.0402534 -0.0448881 -0.00163293)
(-0.0473003 -0.0485627 -0.00191318)
(-0.0535891 -0.0523653 -0.0022448)
(-0.0610438 -0.0566935 -0.00268188)
(-0.0711763 -0.0622207 -0.00366074)
(-0.0735827 -0.0678513 -0.00639766)
(-0.0618099 -0.0704214 -0.00994709)
(-0.0258538 -0.0528147 -0.010709)
(-0.027637 -0.0227333 -0.0010654)
(-0.0356519 -0.0249097 -0.00136659)
(-0.0431302 -0.02708 -0.00166753)
(-0.0503831 -0.0292876 -0.00195267)
(-0.0568912 -0.0315687 -0.00229384)
(-0.0646613 -0.0341739 -0.00274696)
(-0.0751041 -0.0375141 -0.00375804)
(-0.0777553 -0.0408826 -0.0065652)
(-0.0660665 -0.0424323 -0.01021)
(-0.0289429 -0.0317165 -0.0108923)
(-0.028878 -0.007597 -0.0010846)
(-0.0369793 -0.00832137 -0.00138938)
(-0.0445603 -0.00904353 -0.00169602)
(-0.0519207 -0.00978035 -0.00198701)
(-0.0585397 -0.0105402 -0.00233944)
(-0.0664847 -0.0114113 -0.00280863)
(-0.0770899 -0.0125338 -0.00384054)
(-0.0798559 -0.0136513 -0.0067213)
(-0.0681781 -0.0141634 -0.0104474)
(-0.0304458 -0.0105414 -0.0110777)
(0.195434 -0.104623 -0.00125052)
(0.19416 -0.115876 -0.00089536)
(0.193004 -0.128615 -0.000480144)
(0.192328 -0.143626 -0.000535666)
(0.191297 -0.16021 -0.000286018)
(0.190033 -0.178705 -7.0777e-05)
(0.190149 -0.200015 -0.000140198)
(0.192511 -0.222834 -0.000556898)
(0.197278 -0.246541 -0.00135767)
(0.205217 -0.268782 -0.00252035)
(0.215808 -0.292335 -0.00332853)
(0.230467 -0.316629 -0.0040076)
(0.245453 -0.351128 -0.007461)
(0.276386 -0.370187 -0.0154147)
(0.238904 -0.31732 -0.0172941)
(0.190115 -0.107759 -0.00138128)
(0.187131 -0.118719 -0.0012413)
(0.184523 -0.131366 -0.000926187)
(0.183126 -0.146535 -0.000938022)
(0.180581 -0.16275 -0.000346396)
(0.178034 -0.181009 -0.000198555)
(0.177029 -0.201751 -0.000296537)
(0.178359 -0.223883 -0.000880738)
(0.181888 -0.24659 -0.00168675)
(0.188435 -0.268222 -0.00291841)
(0.197459 -0.29103 -0.00344953)
(0.20946 -0.315246 -0.00432323)
(0.222534 -0.348348 -0.00792328)
(0.250584 -0.366953 -0.0160638)
(0.218613 -0.314318 -0.0181791)
(0.180632 -0.120241 -0.000695928)
(0.176596 -0.132739 -0.00130152)
(0.173916 -0.147622 -0.00137416)
(0.169083 -0.162987 -0.000515633)
(0.165363 -0.180898 -0.000476702)
(0.163676 -0.201297 -0.000557888)
(0.163842 -0.2227 -0.0011509)
(0.165847 -0.244397 -0.00206341)
(0.170923 -0.265404 -0.00322716)
(0.178182 -0.287456 -0.00359682)
(0.187817 -0.311418 -0.00478482)
(0.198941 -0.343093 -0.0083768)
(0.224205 -0.361696 -0.016384)
(0.197889 -0.31016 -0.0191723)
(0.170418 -0.119875 -0.000673095)
(0.169333 -0.133755 -0.000646788)
(0.165649 -0.148417 -0.000977916)
(0.157646 -0.162567 -0.000933048)
(0.15343 -0.180355 -0.000823121)
(0.150209 -0.199728 -0.000850899)
(0.149181 -0.22023 -0.00128792)
(0.150077 -0.241088 -0.00246106)
(0.153744 -0.261388 -0.00349662)
(0.159251 -0.282447 -0.00395483)
(0.166882 -0.306066 -0.00518173)
(0.175875 -0.336087 -0.00881573)
(0.198283 -0.354807 -0.0167307)
(0.176838 -0.303878 -0.0198966)
(0.159475 -0.132616 -0.000355918)
(0.153568 -0.146321 -0.00077831)
(0.146666 -0.16119 -0.00133525)
(0.141186 -0.178288 -0.00111649)
(0.136611 -0.196797 -0.00126545)
(0.134119 -0.216116 -0.00164579)
(0.134194 -0.236283 -0.00266733)
(0.136165 -0.255579 -0.0036494)
(0.140349 -0.275802 -0.00423118)
(0.145729 -0.29876 -0.00522696)
(0.153085 -0.327319 -0.00914824)
(0.17267 -0.346004 -0.0170589)
(0.155762 -0.295509 -0.020372)
(0.148839 -0.13024 -0.000360714)
(0.144713 -0.144741 -0.000866605)
(0.136288 -0.158937 -0.00179275)
(0.129422 -0.175189 -0.00164156)
(0.123368 -0.192634 -0.00176647)
(0.119611 -0.210832 -0.00215334)
(0.118316 -0.229791 -0.0028689)
(0.11902 -0.248246 -0.00387358)
(0.121732 -0.267488 -0.00452626)
(0.125002 -0.289711 -0.0054353)
(0.130648 -0.316706 -0.00943375)
(0.147613 -0.335254 -0.0173659)
(0.135044 -0.285561 -0.0211845)
(0.140432 -0.127833 -0.000474554)
(0.133448 -0.140816 -0.000342789)
(0.126371 -0.155567 -0.00122075)
(0.117844 -0.170777 -0.00204242)
(0.110318 -0.187109 -0.00250136)
(0.105251 -0.204131 -0.00270693)
(0.102672 -0.221915 -0.00317893)
(0.101986 -0.239287 -0.00409781)
(0.103556 -0.257724 -0.00473867)
(0.104574 -0.278857 -0.00576766)
(0.10882 -0.304169 -0.00983199)
(0.123293 -0.322409 -0.0176756)
(0.114984 -0.273881 -0.0218444)
(0.122694 -0.136114 -0.000455335)
(0.114004 -0.149631 -0.000735351)
(0.106825 -0.165152 -0.00160831)
(0.0984528 -0.180585 -0.00291456)
(0.0916037 -0.196169 -0.00332668)
(0.0873383 -0.212458 -0.00361571)
(0.0856361 -0.228871 -0.00444726)
(0.0857608 -0.246159 -0.00486978)
(0.0851895 -0.26632 -0.00619186)
(0.0878779 -0.289968 -0.0102225)
(0.0998705 -0.307678 -0.0179491)
(0.0956847 -0.260498 -0.022336)
(0.11239 -0.130273 -0.000463704)
(0.103733 -0.143512 -0.000939737)
(0.0942183 -0.15722 -0.00130921)
(0.0862747 -0.172304 -0.00241995)
(0.0783103 -0.186758 -0.00373294)
(0.0727886 -0.201787 -0.00424997)
(0.0698234 -0.216999 -0.00475046)
(0.0687019 -0.23308 -0.00514161)
(0.0665256 -0.252105 -0.00633104)
(0.0675824 -0.27401 -0.010415)
(0.0774938 -0.290957 -0.0182721)
(0.0773515 -0.245746 -0.023228)
(0.10209 -0.123256 -0.000493734)
(0.0923397 -0.135321 -0.00079483)
(0.083079 -0.148677 -0.00149698)
(0.0734697 -0.162168 -0.0022922)
(0.0660644 -0.176151 -0.00355066)
(0.0591984 -0.18978 -0.00472248)
(0.0548092 -0.203613 -0.00515546)
(0.0525088 -0.218478 -0.00542311)
(0.048672 -0.236244 -0.00646278)
(0.0484338 -0.256343 -0.010743)
(0.0564128 -0.272444 -0.0186571)
(0.0601276 -0.229666 -0.0243277)
(0.0924822 -0.115243 -0.000594486)
(0.0822985 -0.126542 -0.000957326)
(0.071698 -0.138472 -0.00151209)
(0.0622046 -0.151228 -0.00248579)
(0.052992 -0.163553 -0.0033851)
(0.046473 -0.176493 -0.00464614)
(0.0407681 -0.188947 -0.00567562)
(0.0372161 -0.202463 -0.00580227)
(0.0319776 -0.218831 -0.00672787)
(0.0305863 -0.237116 -0.0110759)
(0.0366929 -0.25208 -0.0188716)
(0.0441777 -0.212218 -0.0251903)
(0.0723289 -0.11636 -0.00102858)
(0.061438 -0.127344 -0.00168712)
(0.0507741 -0.13869 -0.00246193)
(0.0419713 -0.15021 -0.00361777)
(0.0338552 -0.161603 -0.00437169)
(0.0282406 -0.173164 -0.00569696)
(0.0232806 -0.185208 -0.00617457)
(0.0165433 -0.199959 -0.00701924)
(0.0140435 -0.216417 -0.0113559)
(0.0186207 -0.230276 -0.0192311)
(0.0296223 -0.193595 -0.0254424)
(0.0634415 -0.105336 -0.00115077)
(0.0518094 -0.115076 -0.00180223)
(0.0408142 -0.12524 -0.00264831)
(0.0308388 -0.135333 -0.00353447)
(0.0222309 -0.145584 -0.00451343)
(0.0155822 -0.155754 -0.00543357)
(0.0104879 -0.166706 -0.0062)
(0.00252496 -0.179792 -0.00728571)
(-0.00107686 -0.194343 -0.0115993)
(0.00214993 -0.206819 -0.0194315)
(0.0161842 -0.173174 -0.0251927)
(0.0552288 -0.093312 -0.00124342)
(0.0431454 -0.10185 -0.00191579)
(0.0314855 -0.110712 -0.0027288)
(0.0213115 -0.119581 -0.00370972)
(0.0121272 -0.128498 -0.00469278)
(0.00511648 -0.13745 -0.00574726)
(-0.00133557 -0.146912 -0.00621706)
(-0.00993015 -0.158424 -0.00746664)
(-0.0145172 -0.171082 -0.0119325)
(-0.0125343 -0.182097 -0.0197139)
(0.00439527 -0.152552 -0.0264068)
(0.0480454 -0.080467 -0.00133666)
(0.0354811 -0.0877434 -0.0020225)
(0.0234423 -0.0952805 -0.00283057)
(0.0126101 -0.102818 -0.00374134)
(0.00290036 -0.110421 -0.00468526)
(-0.00468454 -0.118036 -0.0056855)
(-0.0113021 -0.126163 -0.00641355)
(-0.0209927 -0.135979 -0.00755532)
(-0.0262392 -0.146672 -0.0121848)
(-0.025256 -0.156142 -0.0198937)
(-0.00587732 -0.130367 -0.0261306)
(0.0418637 -0.066882 -0.00141521)
(0.0289532 -0.0728709 -0.00211176)
(0.0164861 -0.0790732 -0.00292046)
(0.00533748 -0.0852613 -0.00384747)
(-0.00478856 -0.0915176 -0.00479474)
(-0.0127823 -0.0977883 -0.00577847)
(-0.0201487 -0.104478 -0.00639794)
(-0.0302038 -0.11259 -0.00771479)
(-0.0361841 -0.121373 -0.0124044)
(-0.0360214 -0.129256 -0.0201429)
(-0.0144843 -0.107758 -0.0266084)
(0.0368173 -0.0526769 -0.00148261)
(0.0236069 -0.0573563 -0.00218672)
(0.0108649 -0.0621972 -0.00299004)
(-0.000627671 -0.0670328 -0.00391124)
(-0.0110972 -0.0719203 -0.00485728)
(-0.0194331 -0.0768134 -0.00584503)
(-0.0272041 -0.0820515 -0.00648754)
(-0.0378518 -0.0884117 -0.00774703)
(-0.044246 -0.0952363 -0.0125642)
(-0.0447297 -0.101445 -0.0202843)
(-0.021417 -0.084369 -0.0266823)
(0.032956 -0.0379792 -0.00153582)
(0.019542 -0.0413326 -0.00224479)
(0.00657303 -0.0448033 -0.00304607)
(-0.00514895 -0.0482634 -0.00396763)
(-0.0158797 -0.0517686 -0.00491174)
(-0.0244734 -0.0552733 -0.00589866)
(-0.0326193 -0.0590294 -0.00654455)
(-0.0436263 -0.0636146 -0.0078139)
(-0.0504275 -0.0684951 -0.0126724)
(-0.0513131 -0.0729845 -0.020439)
(-0.0266026 -0.060568 -0.0268635)
(0.0168035 -0.0249387 -0.00228631)
(0.00369287 -0.0270263 -0.00308539)
(-0.00818891 -0.0291054 -0.00400853)
(-0.0190958 -0.0312147 -0.00495297)
(-0.0278575 -0.0333189 -0.00594324)
(-0.0362591 -0.0355779 -0.00659595)
(-0.0475292 -0.0383555 -0.00786184)
(-0.054587 -0.0412796 -0.0127731)
(-0.0557236 -0.0440106 -0.0205828)
(-0.0300393 -0.0364283 -0.0270168)
(0.0154358 -0.00833076 -0.0023103)
(0.00225398 -0.00902718 -0.00310894)
(-0.00970933 -0.00971959 -0.004035)
(-0.0207086 -0.0104243 -0.00498064)
(-0.0295535 -0.0111256 -0.00597606)
(-0.0380981 -0.0118805 -0.00663655)
(-0.049507 -0.012816 -0.00789611)
(-0.0566992 -0.0137897 -0.012847)
(-0.0579298 -0.0147074 -0.0207146)
(-0.0317243 -0.0121356 -0.027119)
(0.232917 -0.107075 0.000121188)
(0.23154 -0.118352 0.000246767)
(0.229853 -0.130907 0.000315054)
(0.228586 -0.145223 0.000427226)
(0.226475 -0.161128 0.000477627)
(0.224115 -0.178732 0.000351125)
(0.222411 -0.198389 -6.81545e-05)
(0.222396 -0.219563 -0.00115386)
(0.224424 -0.242102 -0.00277218)
(0.229921 -0.264079 -0.00487472)
(0.238222 -0.28745 -0.00634783)
(0.251593 -0.310043 -0.0080565)
(0.262442 -0.341283 -0.013)
(0.286097 -0.363156 -0.0245654)
(0.254913 -0.337526 -0.0340179)
(0.22617 -0.109005 -6.57305e-05)
(0.223801 -0.1202 8.00591e-05)
(0.221402 -0.132736 0.000247252)
(0.21934 -0.146978 0.000338956)
(0.215831 -0.162588 0.000271949)
(0.212296 -0.179933 0.000109186)
(0.209469 -0.199211 -0.000444964)
(0.208251 -0.219886 -0.00163291)
(0.209001 -0.241741 -0.0033369)
(0.213011 -0.263157 -0.00541553)
(0.219811 -0.285845 -0.00690313)
(0.230755 -0.308474 -0.00855018)
(0.239781 -0.338643 -0.0135828)
(0.260497 -0.359933 -0.025419)
(0.233951 -0.334211 -0.0354301)
(0.215568 -0.120347 -3.23167e-05)
(0.212614 -0.132816 0.000113428)
(0.209539 -0.146817 0.000172414)
(0.204669 -0.162083 8.89533e-05)
(0.200182 -0.179107 -0.000103278)
(0.19628 -0.197942 -0.000795678)
(0.19371 -0.218068 -0.0020869)
(0.193094 -0.239286 -0.00379857)
(0.195576 -0.260148 -0.00588019)
(0.200825 -0.282226 -0.00735913)
(0.209469 -0.304665 -0.00891897)
(0.216686 -0.333547 -0.0139748)
(0.234383 -0.354637 -0.0259569)
(0.212461 -0.329473 -0.0366652)
(0.207064 -0.119979 -4.3568e-05)
(0.203661 -0.132283 -9.25421e-06)
(0.199402 -0.145947 -4.67083e-05)
(0.193493 -0.160863 -4.95927e-05)
(0.188142 -0.177475 -0.000304493)
(0.183039 -0.195757 -0.00112355)
(0.179169 -0.21523 -0.00254216)
(0.177249 -0.235669 -0.00423872)
(0.178265 -0.255864 -0.0063338)
(0.182016 -0.277167 -0.00773599)
(0.188444 -0.299201 -0.00938003)
(0.193869 -0.326729 -0.0144811)
(0.208755 -0.347826 -0.0265224)
(0.190585 -0.322495 -0.0379371)
(0.194025 -0.130688 -0.000134448)
(0.188652 -0.143953 -0.000190686)
(0.182337 -0.158528 -0.000177803)
(0.175967 -0.174619 -0.000535064)
(0.169668 -0.192282 -0.00145959)
(0.164514 -0.21104 -0.00294374)
(0.161313 -0.230634 -0.0046751)
(0.160864 -0.250078 -0.00672946)
(0.163232 -0.270485 -0.00810977)
(0.167545 -0.292017 -0.00986448)
(0.171349 -0.318143 -0.0151229)
(0.183469 -0.339146 -0.027075)
(0.168815 -0.313614 -0.0390606)
(0.184123 -0.128207 -0.00015395)
(0.178507 -0.1411 -0.000291868)
(0.171468 -0.155189 -0.000439999)
(0.163964 -0.170656 -0.000836507)
(0.156411 -0.187591 -0.001794)
(0.150043 -0.205515 -0.00329803)
(0.145546 -0.224189 -0.00505996)
(0.143745 -0.242776 -0.00710235)
(0.144736 -0.262225 -0.00848723)
(0.147067 -0.283153 -0.0102876)
(0.149317 -0.307799 -0.0156463)
(0.158754 -0.328557 -0.0275768)
(0.147393 -0.302863 -0.0400115)
(0.174876 -0.124829 -0.000239642)
(0.167771 -0.137153 -0.000420345)
(0.160236 -0.150715 -0.000703166)
(0.151941 -0.165535 -0.00121221)
(0.143381 -0.181673 -0.00214659)
(0.135775 -0.198674 -0.00363754)
(0.130022 -0.216372 -0.00542565)
(0.126884 -0.234017 -0.00748463)
(0.126579 -0.25245 -0.00885578)
(0.127001 -0.27259 -0.0105982)
(0.127822 -0.295682 -0.0161087)
(0.13476 -0.315984 -0.0280682)
(0.126571 -0.290267 -0.0409403)
(0.157391 -0.132204 -0.000488051)
(0.148774 -0.145111 -0.000851353)
(0.140046 -0.159213 -0.00152741)
(0.130667 -0.174498 -0.00257316)
(0.121924 -0.190517 -0.00400876)
(0.114896 -0.207146 -0.00577329)
(0.110567 -0.223747 -0.00781504)
(0.108972 -0.241102 -0.00919228)
(0.107654 -0.260246 -0.0109586)
(0.107127 -0.281807 -0.0166651)
(0.111683 -0.301517 -0.0285463)
(0.10659 -0.27604 -0.0418103)
(0.147252 -0.126241 -0.000594086)
(0.13814 -0.138424 -0.000990072)
(0.128019 -0.151699 -0.00178234)
(0.117998 -0.166075 -0.00295577)
(0.108441 -0.181071 -0.00441547)
(0.100342 -0.196568 -0.00611023)
(0.09483 -0.212061 -0.00812107)
(0.0920473 -0.228255 -0.00946901)
(0.0890852 -0.246299 -0.0113494)
(0.0872491 -0.2663 -0.0171202)
(0.0896282 -0.285139 -0.0289323)
(0.0875603 -0.260182 -0.0424795)
(0.137404 -0.119269 -0.000717053)
(0.12723 -0.130644 -0.00115176)
(0.116798 -0.143037 -0.00197635)
(0.105669 -0.15642 -0.00321739)
(0.0955092 -0.170333 -0.00478654)
(0.0864601 -0.184641 -0.00646265)
(0.0798654 -0.198976 -0.00843927)
(0.075946 -0.213939 -0.00976326)
(0.0714447 -0.230799 -0.0116716)
(0.0684209 -0.249154 -0.0174931)
(0.0688331 -0.26694 -0.0293646)
(0.0696325 -0.242814 -0.0430961)
(0.128066 -0.111339 -0.000827198)
(0.117392 -0.121828 -0.00131995)
(0.105832 -0.133256 -0.00218902)
(0.0941839 -0.145581 -0.00343484)
(0.0830159 -0.15834 -0.00504633)
(0.0733079 -0.171452 -0.00680752)
(0.0657977 -0.184572 -0.0087465)
(0.0607765 -0.198264 -0.0100586)
(0.0548931 -0.213791 -0.0119356)
(0.0508041 -0.230456 -0.0178924)
(0.0493996 -0.24707 -0.0297279)
(0.0529609 -0.224016 -0.0437332)
(0.107753 -0.112031 -0.00147607)
(0.0956959 -0.122421 -0.00237862)
(0.0831452 -0.133605 -0.0036523)
(0.0715488 -0.145185 -0.00523846)
(0.0609102 -0.15703 -0.00707294)
(0.0527813 -0.168895 -0.00907251)
(0.0467402 -0.18127 -0.0103544)
(0.0395824 -0.19536 -0.0122032)
(0.0345078 -0.210318 -0.0182796)
(0.0315384 -0.225609 -0.0301204)
(0.0377042 -0.204021 -0.0444378)
(0.0991058 -0.101289 -0.00163096)
(0.0863025 -0.110594 -0.00256874)
(0.0731879 -0.120579 -0.00384495)
(0.0607716 -0.130888 -0.00546561)
(0.0495312 -0.141464 -0.00724916)
(0.0406538 -0.152025 -0.0092972)
(0.0338992 -0.163069 -0.0106232)
(0.0256177 -0.17565 -0.0124645)
(0.0195969 -0.188905 -0.0185869)
(0.0152333 -0.202682 -0.0304033)
(0.0238146 -0.182813 -0.0449287)
(0.0911353 -0.089691 -0.00176916)
(0.0778004 -0.0978501 -0.0027339)
(0.0640591 -0.106599 -0.00402047)
(0.0511735 -0.115617 -0.00562676)
(0.0393335 -0.124844 -0.00742093)
(0.0299221 -0.134085 -0.00944951)
(0.0223324 -0.143714 -0.0108222)
(0.0131555 -0.154765 -0.0127038)
(0.00633716 -0.166264 -0.0189013)
(0.000721232 -0.178451 -0.0306573)
(0.0114911 -0.16054 -0.0452133)
(0.0841431 -0.0773034 -0.00189586)
(0.0702905 -0.0842804 -0.00288206)
(0.0560829 -0.0917393 -0.00417148)
(0.0426758 -0.0994242 -0.00578648)
(0.0303222 -0.10729 -0.00758869)
(0.0203816 -0.115169 -0.00962427)
(0.0122467 -0.123385 -0.0109797)
(0.00224912 -0.132823 -0.0129055)
(-0.00528798 -0.142562 -0.0191645)
(-0.0119181 -0.153059 -0.0309278)
(0.000823766 -0.137374 -0.0457443)
(0.0781271 -0.0642316 -0.0020041)
(0.0638724 -0.0699852 -0.0030072)
(0.0492394 -0.0761356 -0.00430144)
(0.0354429 -0.0824536 -0.00591303)
(0.0226714 -0.0889244 -0.00771182)
(0.0123257 -0.0954024 -0.00974649)
(0.00361619 -0.10218 -0.011123)
(-0.00696957 -0.109966 -0.0130552)
(-0.0150961 -0.117948 -0.0194144)
(-0.0225877 -0.126681 -0.031156)
(-0.00816617 -0.113434 -0.0459474)
(0.0732024 -0.0505773 -0.00209488)
(0.0586132 -0.0550814 -0.00311047)
(0.0436648 -0.0598884 -0.00440449)
(0.0295534 -0.0648277 -0.00601729)
(0.0164397 -0.0698868 -0.00781768)
(0.00575775 -0.0749469 -0.00984941)
(-0.00338235 -0.0802371 -0.0112233)
(-0.0144834 -0.0863533 -0.0131762)
(-0.0230744 -0.0925533 -0.019606)
(-0.0312231 -0.0994389 -0.0313626)
(-0.015377 -0.088848 -0.0462378)
(0.069427 -0.0364604 -0.00216565)
(0.0545977 -0.0396917 -0.00318927)
(0.0394124 -0.0431419 -0.00448316)
(0.0250685 -0.0466794 -0.00609589)
(0.0117008 -0.0503063 -0.00789536)
(0.000773034 -0.0539306 -0.0099274)
(-0.00871397 -0.0577252 -0.0113019)
(-0.0201864 -0.0621257 -0.0132543)
(-0.0291444 -0.0665615 -0.0197474)
(-0.0377547 -0.0715436 -0.0315173)
(-0.0207915 -0.0637804 -0.0464101)
(0.0518812 -0.0239488 -0.00324363)
(0.0365442 -0.0260251 -0.0045357)
(0.0220478 -0.0281519 -0.00614828)
(0.00850863 -0.0303348 -0.0079468)
(-0.00257881 -0.0325121 -0.0099795)
(-0.0123052 -0.0347911 -0.0113551)
(-0.0240279 -0.0374558 -0.0133028)
(-0.0332385 -0.0401102 -0.0198414)
(-0.0421353 -0.0431437 -0.0316425)
(-0.0243844 -0.0383634 -0.0465241)
(0.0505128 -0.008 -0.00327239)
(0.0351015 -0.00869303 -0.0045624)
(0.0205289 -0.00940174 -0.00617501)
(0.00690215 -0.0101307 -0.00797257)
(-0.0042621 -0.0108567 -0.0100074)
(-0.0141169 -0.0116174 -0.0113854)
(-0.0259676 -0.0125134 -0.0133239)
(-0.0353125 -0.0133976 -0.0198923)
(-0.0443335 -0.0144194 -0.031728)
(-0.0261517 -0.0127833 -0.0465736)
(0.256432 -0.104258 -5.71285e-05)
(0.255281 -0.114931 8.46606e-05)
(0.253876 -0.12678 0.00019637)
(0.252448 -0.140025 0.000298099)
(0.250584 -0.154788 0.000446618)
(0.248583 -0.171108 0.000340109)
(0.246767 -0.189271 -0.000225212)
(0.245964 -0.209126 -0.00167332)
(0.246419 -0.230993 -0.00397934)
(0.249934 -0.253139 -0.00703867)
(0.256297 -0.277172 -0.00964558)
(0.268351 -0.300131 -0.0120947)
(0.276728 -0.329289 -0.0181272)
(0.294248 -0.349818 -0.0328691)
(0.27374 -0.349064 -0.0509035)
(0.249404 -0.105743 -0.000141049)
(0.247459 -0.116342 -7.81472e-06)
(0.245327 -0.128116 7.22337e-05)
(0.243042 -0.141243 0.000113422)
(0.2401 -0.155808 0.000190204)
(0.237065 -0.171916 9.1571e-06)
(0.234162 -0.189813 -0.000689549)
(0.232141 -0.209358 -0.00225722)
(0.231297 -0.230749 -0.0046661)
(0.233336 -0.252438 -0.00774571)
(0.238216 -0.275841 -0.0103572)
(0.247944 -0.298677 -0.0127816)
(0.254442 -0.32688 -0.0188965)
(0.269184 -0.34679 -0.0338439)
(0.252076 -0.345458 -0.0529067)
(0.239259 -0.116188 -0.000103606)
(0.236418 -0.127819 -8.58028e-06)
(0.233231 -0.140742 -2.37741e-06)
(0.229309 -0.155057 -4.21057e-05)
(0.225318 -0.170876 -0.000297234)
(0.221334 -0.188429 -0.00113623)
(0.218021 -0.207587 -0.00280638)
(0.215809 -0.228478 -0.00524258)
(0.216316 -0.249683 -0.00834529)
(0.21964 -0.272473 -0.0109506)
(0.227141 -0.295086 -0.0133276)
(0.2319 -0.322144 -0.0195457)
(0.243688 -0.341748 -0.0346247)
(0.229843 -0.340325 -0.054587)
(0.231027 -0.115604 -0.000177578)
(0.227393 -0.127007 -0.00011892)
(0.223261 -0.139659 -0.000158403)
(0.218449 -0.153654 -0.00025337)
(0.213508 -0.169094 -0.000600834)
(0.208419 -0.186229 -0.00157304)
(0.203845 -0.204901 -0.00337103)
(0.200308 -0.225146 -0.00580317)
(0.199359 -0.245729 -0.00894134)
(0.201191 -0.267748 -0.0114749)
(0.206521 -0.289924 -0.0139232)
(0.20959 -0.31571 -0.0202479)
(0.218707 -0.335266 -0.0354157)
(0.207279 -0.33299 -0.0562366)
(0.218115 -0.12529 -0.000235284)
(0.213132 -0.137601 -0.000326732)
(0.207503 -0.151192 -0.000504608)
(0.201564 -0.166178 -0.000947657)
(0.195379 -0.182815 -0.00200837)
(0.189613 -0.200915 -0.00388868)
(0.184751 -0.220432 -0.00637278)
(0.182378 -0.240296 -0.00950978)
(0.182778 -0.261426 -0.0119998)
(0.186067 -0.283063 -0.0145542)
(0.187571 -0.307519 -0.0210107)
(0.194068 -0.32697 -0.0362136)
(0.184832 -0.32372 -0.0576898)
(0.208794 -0.122771 -0.000303617)
(0.203081 -0.134677 -0.000455755)
(0.196613 -0.147799 -0.000746264)
(0.189677 -0.162245 -0.00132032)
(0.182378 -0.178284 -0.00246564)
(0.175445 -0.1957 -0.00437338)
(0.169328 -0.214398 -0.00690563)
(0.165597 -0.233429 -0.0100403)
(0.164625 -0.253586 -0.0124995)
(0.16598 -0.274554 -0.0151365)
(0.16601 -0.297597 -0.0217334)
(0.170005 -0.316825 -0.0369781)
(0.162763 -0.312542 -0.0589763)
(0.199574 -0.119363 -0.000383561)
(0.19298 -0.130808 -0.000580628)
(0.185706 -0.143411 -0.00096615)
(0.177882 -0.157253 -0.00166987)
(0.169541 -0.172587 -0.00291321)
(0.161459 -0.189207 -0.00486634)
(0.154133 -0.20701 -0.00742083)
(0.149102 -0.225124 -0.0105539)
(0.146812 -0.24424 -0.012993)
(0.146331 -0.264379 -0.0156104)
(0.144999 -0.285951 -0.0223729)
(0.146638 -0.304778 -0.037725)
(0.141318 -0.299514 -0.0602159)
(0.183029 -0.125999 -0.000700457)
(0.174948 -0.138011 -0.00114826)
(0.166271 -0.151186 -0.00198046)
(0.156951 -0.165735 -0.00333539)
(0.147781 -0.181467 -0.0053499)
(0.139302 -0.198276 -0.0079053)
(0.133072 -0.215371 -0.0110232)
(0.129529 -0.233373 -0.0134657)
(0.127319 -0.252497 -0.0160877)
(0.12473 -0.272595 -0.0230412)
(0.124154 -0.290876 -0.038447)
(0.120715 -0.284791 -0.0613666)
(0.17334 -0.120237 -0.000841995)
(0.164489 -0.131581 -0.00132657)
(0.15492 -0.144021 -0.00225302)
(0.144674 -0.157736 -0.0037366)
(0.134522 -0.172493 -0.00579794)
(0.124975 -0.188216 -0.00835534)
(0.117614 -0.204214 -0.0114906)
(0.11289 -0.221035 -0.0138826)
(0.109081 -0.239045 -0.0165851)
(0.105311 -0.257637 -0.023659)
(0.102676 -0.275143 -0.0390975)
(0.10109 -0.26839 -0.0623923)
(0.163957 -0.113547 -0.000985809)
(0.154321 -0.124149 -0.00152802)
(0.143991 -0.135783 -0.00251241)
(0.132873 -0.148584 -0.00405925)
(0.121817 -0.162302 -0.00622004)
(0.111275 -0.176859 -0.00878743)
(0.102879 -0.191695 -0.0119388)
(0.097045 -0.207259 -0.0143025)
(0.0917595 -0.224058 -0.0170337)
(0.0868998 -0.241084 -0.0241972)
(0.0823989 -0.257652 -0.0397447)
(0.0825992 -0.250433 -0.0633632)
(0.155046 -0.105949 -0.001137)
(0.144719 -0.115748 -0.0017234)
(0.133581 -0.126495 -0.00276877)
(0.121638 -0.138314 -0.004353)
(0.109746 -0.150934 -0.00656263)
(0.0983355 -0.164271 -0.00920571)
(0.0890004 -0.177869 -0.0123322)
(0.0821205 -0.192134 -0.0146847)
(0.0754859 -0.207606 -0.0174175)
(0.0696556 -0.223029 -0.0247195)
(0.0634593 -0.23852 -0.0403428)
(0.0654096 -0.231041 -0.064274)
(0.135644 -0.106416 -0.00192024)
(0.123799 -0.116214 -0.00300811)