/*--------------------------------*- C++ -*----------------------------------*\
  =========                 |
  \\      /  F ield         | OpenFOAM: The Open Source CFD Toolbox
   \\    /   O peration     | Website:  https://openfoam.org
    \\  /    A nd           | Version:  6
     \\/     M anipulation  |
\*---------------------------------------------------------------------------*/
FoamFile
{
    version     2.0;
    format      ascii;
    class       volVectorField;
    location    "27";
    object      wallShearStress;
}
// * * * * * * * * * * * * * * * * * * * * * * * * * * * * * * * * * * * * * //

dimensions      [0 2 -2 0 0 0 0];

internalField   uniform (0 0 0);

boundaryField
{
    inlet
    {
        type            calculated;
        value           uniform (0 0 0);
    }
    outlet
    {
        type            calculated;
        value           uniform (0 0 0);
    }
    roughCylinder
    {
        type            calculated;
        value           nonuniform List<vector> 
3840
(
(-0.00027146 -0.000396986 -0.000163345)
(-0.000326956 -0.000511279 -2.29424e-05)
(-0.000376491 -0.000632414 4.21139e-05)
(-0.000451716 -0.00073583 0.000123899)
(-0.000539859 -0.000809861 0.000206151)
(-0.000631206 -0.000850287 0.000278304)
(-0.000716146 -0.000861064 0.000335049)
(-0.000789924 -0.000853547 0.000374907)
(-0.000853017 -0.000847136 0.000402194)
(-0.000901627 -0.000845747 0.000416515)
(-0.000940335 -0.000853405 0.000419875)
(-0.000972508 -0.000868558 0.00041443)
(-0.00100122 -0.000889597 0.00040273)
(-0.0010294 -0.000915024 0.000386844)
(-0.00105906 -0.000943901 0.000368201)
(-0.00109133 -0.000975721 0.000347457)
(-0.00112655 -0.00101017 0.000324691)
(-0.00116455 -0.00104689 0.000299601)
(-0.00120478 -0.00108538 0.000271588)
(-0.00124649 -0.00112483 0.000239804)
(-0.00128843 -0.00116397 0.000202843)
(-0.00132869 -0.00120081 0.000158499)
(-0.00136329 -0.00123216 0.000103064)
(-0.00138521 -0.00125211 3.58276e-05)
(-0.000291087 -0.000384631 -0.000155516)
(-0.000350002 -0.000495379 -2.6972e-05)
(-0.000401916 -0.000616428 3.33537e-05)
(-0.000479525 -0.000721173 0.000111774)
(-0.000569604 -0.000797829 0.000192192)
(-0.000662948 -0.000841196 0.000263275)
(-0.000750916 -0.000856064 0.000319981)
(-0.000829641 -0.000854679 0.00036187)
(-0.000897675 -0.000851467 0.000391693)
(-0.000950288 -0.000848855 0.000407531)
(-0.00099097 -0.000855182 0.000411537)
(-0.00102509 -0.000869676 0.000406406)
(-0.00105568 -0.000890503 0.000394938)
(-0.00108577 -0.000915947 0.000379276)
(-0.00111743 -0.000944947 0.000360919)
(-0.00115179 -0.000976892 0.000340552)
(-0.00118919 -0.00101143 0.000318263)
(-0.00122945 -0.0010482 0.000293751)
(-0.00127196 -0.00108666 0.000266396)
(-0.00131594 -0.00112605 0.000235347)
(-0.00136007 -0.00116505 0.000199201)
(-0.00140235 -0.00120171 0.000155752)
(-0.00143863 -0.00123286 0.000101327)
(-0.00146157 -0.00125265 3.52279e-05)
(-0.000310399 -0.000366842 -0.000142473)
(-0.000372397 -0.000473961 -3.1123e-05)
(-0.000426612 -0.000593622 2.38323e-05)
(-0.000506006 -0.00069897 9.84452e-05)
(-0.000597909 -0.000778121 0.000176717)
(-0.000693619 -0.000825202 0.000246871)
(-0.000785323 -0.00084533 0.000304215)
(-0.000868964 -0.000849884 0.000348218)
(-0.000941556 -0.000849589 0.000379921)
(-0.000998856 -0.000846996 0.000397433)
(-0.00104164 -0.000851625 0.000402073)
(-0.00107778 -0.000865262 0.00039728)
(-0.00111038 -0.000885659 0.000386112)
(-0.00114248 -0.000910923 0.000370754)
(-0.0011762 -0.000939821 0.000352763)
(-0.0012127 -0.000971668 0.000332854)
(-0.00125232 -0.00100606 0.000311122)
(-0.00129484 -0.00104263 0.000287266)
(-0.00133963 -0.00108081 0.000260652)
(-0.00138586 -0.00111984 0.000230418)
(-0.00143214 -0.00115844 0.00019517)
(-0.00147638 -0.00119466 0.000152709)
(-0.0015143 -0.0012254 9.94027e-05)
(-0.00153823 -0.00124489 3.45639e-05)
(-0.00032781 -0.000344916 -0.000125904)
(-0.000391974 -0.000447919 -3.55382e-05)
(-0.000447972 -0.00056509 1.40029e-05)
(-0.000528555 -0.000670408 8.44041e-05)
(-0.000622164 -0.000751978 0.000160147)
(-0.000720541 -0.000803358 0.000229344)
(-0.000816272 -0.000829357 0.000287532)
(-0.000904755 -0.000839624 0.000333579)
(-0.000982033 -0.000842409 0.000367026)
(-0.00104442 -0.000841148 0.000386398)
(-0.00109 -0.000843596 0.000391694)
(-0.00112828 -0.000856164 0.000387351)
(-0.00116302 -0.000875951 0.000376566)
(-0.00119721 -0.000900852 0.000361597)
(-0.00123304 -0.000929495 0.000344054)
(-0.0012717 -0.000961078 0.000324678)
(-0.0013135 -0.00099514 0.000303572)
(-0.00135823 -0.0010313 0.000280436)
(-0.0014052 -0.00106898 0.000254617)
(-0.00145357 -0.00110744 0.000225251)
(-0.00150189 -0.00114541 0.000190951)
(-0.00154796 -0.00118098 0.000149526)
(-0.00158738 -0.00121112 9.7392e-05)
(-0.00161221 -0.0012302 3.38715e-05)
(-0.000341995 -0.000318929 -0.000107259)
(-0.00040766 -0.000417445 -3.98802e-05)
(-0.000464831 -0.000531155 4.16675e-06)
(-0.000546029 -0.000635837 6.99233e-05)
(-0.000641285 -0.000719748 0.000142717)
(-0.000742629 -0.000775819 0.000210794)
(-0.000842575 -0.000807845 0.000269749)
(-0.000935819 -0.000823482 0.000317657)
(-0.00101785 -0.000829371 0.000352879)
(-0.00108486 -0.000829609 0.00037382)
(-0.00113493 -0.000830532 0.00038026)
(-0.00117559 -0.000841845 0.000376635)
(-0.00121263 -0.000860738 0.000366331)
(-0.001249 -0.000885087 0.000351867)
(-0.00128696 -0.000913262 0.000334856)
(-0.00132774 -0.000944369 0.000316093)
(-0.00137166 -0.000977894 0.000295684)
(-0.00141849 -0.00101341 0.000273332)
(-0.00146752 -0.00105036 0.000248365)
(-0.00151788 -0.00108802 0.000219912)
(-0.00156805 -0.00112512 0.000186601)
(-0.00161579 -0.00115982 0.000146251)
(-0.00165656 -0.00118917 9.53269e-05)
(-0.00168218 -0.0012077 3.31615e-05)
(-0.000353386 -0.000290804 -8.79995e-05)
(-0.00041938 -0.000383892 -4.39623e-05)
(-0.000476902 -0.000493302 -5.49614e-06)
(-0.000558105 -0.000596717 5.5239e-05)
(-0.0006548 -0.000682713 0.000124629)
(-0.000759157 -0.000743438 0.00019129)
(-0.000863348 -0.00078123 0.000250753)
(-0.000961376 -0.000801821 0.000300292)
(-0.00104825 -0.000810696 0.000337269)
(-0.0011201 -0.000812507 0.000359693)
(-0.00117591 -0.00081349 0.00036786)
(-0.0012193 -0.000822496 0.00036503)
(-0.0012588 -0.000840274 0.00035538)
(-0.00129745 -0.00086375 0.000341538)
(-0.00133759 -0.000891255 0.000325182)
(-0.00138047 -0.000921677 0.000307123)
(-0.00142644 -0.000954438 0.00028749)
(-0.00147526 -0.000989095 0.000265987)
(-0.00152616 -0.00102507 0.000241924)
(-0.00157832 -0.00106167 0.000214425)
(-0.00163014 -0.00109768 0.000182141)
(-0.00167934 -0.00113128 0.000142896)
(-0.00172129 -0.00115966 9.32144e-05)
(-0.00174757 -0.00117755 3.24372e-05)
(-0.000359882 -0.00026012 -6.8613e-05)
(-0.000425876 -0.000347575 -4.75018e-05)
(-0.000482974 -0.000451889 -1.48243e-05)
(-0.000563466 -0.000553406 4.04248e-05)
(-0.000661304 -0.000641186 0.000105884)
(-0.000768732 -0.000706503 0.00017073)
(-0.000877341 -0.000749854 0.000230375)
(-0.000980311 -0.00077507 0.000281277)
(-0.00107227 -0.000786874 0.00031998)
(-0.0011493 -0.000790337 0.000344038)
(-0.00121059 -0.000792002 0.000353925)
(-0.00125864 -0.000799082 0.000352405)
(-0.00130086 -0.000815123 0.000343648)
(-0.001342 -0.000837538 0.000330609)
(-0.00138434 -0.000864077 0.000315018)
(-0.00142929 -0.000893581 0.000297769)
(-0.00147721 -0.000925373 0.000278998)
(-0.00152787 -0.000958962 0.000258417)
(-0.00158049 -0.000993766 0.000235315)
(-0.00163424 -0.00102912 0.000208815)
(-0.00168749 -0.00106382 0.000177588)
(-0.00173793 -0.00109614 0.000139479)
(-0.00178085 -0.00112338 9.10682e-05)
(-0.00180765 -0.00114051 3.17026e-05)
(-0.000363066 -0.000229168 -5.0127e-05)
(-0.000427427 -0.000310001 -5.05666e-05)
(-0.000483002 -0.000408422 -2.36227e-05)
(-0.000561873 -0.000507183 2.57677e-05)
(-0.000660258 -0.000596108 8.66897e-05)
(-0.000770429 -0.000665538 0.000149147)
(-0.000883306 -0.000713963 0.00020847)
(-0.000991391 -0.000743538 0.000260414)
(-0.00108876 -0.00075825 0.000300779)
(-0.00117138 -0.00076348 0.000326687)
(-0.00123826 -0.000765951 0.000338349)
(-0.00129196 -0.000772279 0.000338564)
(-0.00133791 -0.000786192 0.000331062)
(-0.00138168 -0.000806771 0.000318987)
(-0.00142633 -0.00083216 0.00030435)
(-0.00147334 -0.000860546 0.000288031)
(-0.00152311 -0.000891155 0.000270217)
(-0.00157544 -0.000923464 0.000250634)
(-0.00162951 -0.000956874 0.000228546)
(-0.00168459 -0.000990795 0.000203082)
(-0.00173898 -0.00102412 0.000172954)
(-0.00179039 -0.00105505 0.000136007)
(-0.00183402 -0.00108106 8.88915e-05)
(-0.00186117 -0.00109744 3.09608e-05)
(-0.000359241 -0.000196524 -3.25925e-05)
(-0.000422264 -0.000270809 -5.26558e-05)
(-0.000475504 -0.000362643 -3.17096e-05)
(-0.000551762 -0.000457873 1.13824e-05)
(-0.000649968 -0.00054724 6.71127e-05)
(-0.000762656 -0.000620408 0.0001265)
(-0.000879995 -0.000673756 0.00018495)
(-0.000993451 -0.000707546 0.000237553)
(-0.00109662 -0.000725198 0.000279473)
(-0.00118521 -0.000732247 0.00030737)
(-0.00125804 -0.000735618 0.000321079)
(-0.00131733 -0.000741686 0.000323201)
(-0.00136814 -0.000754152 0.000317365)
(-0.00141567 -0.000773068 0.000306734)
(-0.00146265 -0.000796722 0.000293209)
(-0.00151166 -0.000823681 0.000277951)
(-0.00156315 -0.000852953 0.000261205)
(-0.00161695 -0.000883899 0.000242704)
(-0.00167224 -0.000915902 0.000221695)
(-0.00172831 -0.000948336 0.000197305)
(-0.00178333 -0.000980042 0.000168272)
(-0.00183526 -0.00100942 0.000132493)
(-0.00187929 -0.00103408 8.66913e-05)
(-0.00190642 -0.00104956 3.02105e-05)
(-0.000352607 -0.000165241 -1.68965e-05)
(-0.000411462 -0.000232141 -5.45132e-05)
(-0.000461108 -0.000316664 -3.86647e-05)
(-0.000533572 -0.000407117 -2.19518e-06)
(-0.000630552 -0.000495871 4.75672e-05)
(-0.000745019 -0.000571962 0.000103024)
(-0.00086633 -0.000629604 0.000159806)
(-0.000985306 -0.00066747 0.000212578)
(-0.00109467 -0.000688092 0.00025587)
(-0.00118977 -0.000697071 0.00028588)
(-0.00126892 -0.000701352 0.000301911)
(-0.00133402 -0.000707259 0.000306222)
(-0.0013898 -0.000718673 0.00030233)
(-0.00144108 -0.000736052 0.00029335)
(-0.001491 -0.000757985 0.000281253)
(-0.00154214 -0.000783347 0.000267287)
(-0.00159511 -0.000811028 0.000251734)
(-0.00164996 -0.000840361 0.000234398)
(-0.00170586 -0.000870672 0.000214507)
(-0.00176232 -0.000901333 0.000191211)
(-0.00181761 -0.00093121 0.000163328)
(-0.00186965 -0.00095883 0.000128777)
(-0.00191366 -0.00098196 8.43588e-05)
(-0.00194062 -0.000996453 2.94162e-05)
(-0.000336093 -0.000134448 -2.97817e-06)
(-0.000393526 -0.000192174 -5.37948e-05)
(-0.000438206 -0.000269406 -4.4805e-05)
(-0.000505497 -0.000354306 -1.50237e-05)
(-0.000599873 -0.000441351 2.82438e-05)
(-0.000715466 -0.000519716 7.88058e-05)
(-0.000841025 -0.000581721 0.000133082)
(-0.000965807 -0.000623749 0.000185436)
(-0.00108191 -0.000647529 0.000229877)
(-0.00118393 -0.000658428 0.000262017)
(-0.00126993 -0.000663613 0.000280636)
(-0.00134128 -0.000669401 0.000287487)
(-0.00140217 -0.00067974 0.000285828)
(-0.00145745 -0.000695591 0.000278768)
(-0.00151025 -0.000715733 0.000268317)
(-0.00156339 -0.000739297 0.000255831)
(-0.00161771 -0.00076517 0.000241631)
(-0.00167335 -0.000792634 0.000225578)
(-0.00172955 -0.000821019 0.000206894)
(-0.00178611 -0.000849715 0.000184762)
(-0.00184125 -0.000877576 0.000158093)
(-0.00189303 -0.000903305 0.000124841)
(-0.00193678 -0.00092484 8.18918e-05)
(-0.00196325 -0.000938235 2.85757e-05)
(-0.000314247 -0.000106257 5.31283e-06)
(-0.000371545 -0.000156791 -5.0245e-05)
(-0.000409471 -0.000223321 -4.89924e-05)
(-0.000469426 -0.00030174 -2.63599e-05)
(-0.000559465 -0.000385735 9.73786e-06)
(-0.000674821 -0.000465247 5.43792e-05)
(-0.000803371 -0.000530705 0.000105013)
(-0.000933872 -0.000576838 0.000156172)
(-0.00105697 -0.000603888 0.000201366)
(-0.00116666 -0.000616933 0.000235658)
(-0.00126003 -0.000622966 0.000257074)
(-0.00133802 -0.000628511 0.000266793)
(-0.00140454 -0.000637793 0.000267757)
(-0.00146391 -0.000651939 0.000262904)
(-0.00151979 -0.000670202 0.000254381)
(-0.00157497 -0.000691824 0.000243596)
(-0.00163045 -0.00071569 0.00023091)
(-0.0016866 -0.000741096 0.000216268)
(-0.00174269 -0.00076735 0.000198877)
(-0.00179881 -0.000793867 0.000177966)
(-0.00185339 -0.000819579 0.00015258)
(-0.00190445 -0.000843298 0.000120691)
(-0.00194739 -0.000863075 7.9283e-05)
(-0.00197321 -0.000875356 2.769e-05)
(-0.000283331 -7.76758e-05 1.26463e-05)
(-0.000342151 -0.000124313 -4.8393e-05)
(-0.000372496 -0.00017963 -5.07222e-05)
(-0.000423048 -0.000249439 -3.50836e-05)
(-0.000506519 -0.000328214 -7.13887e-06)
(-0.000620082 -0.000407499 3.0252e-05)
(-0.000751993 -0.000476606 7.59836e-05)
(-0.000888403 -0.000527102 0.000124964)
(-0.00101915 -0.000557894 0.000170437)
(-0.00113684 -0.000573156 0.000206714)
(-0.00123822 -0.000580082 0.000231114)
(-0.00132349 -0.000585336 0.000244065)
(-0.00139582 -0.000593314 0.000247991)
(-0.0014598 -0.000605693 0.000245747)
(-0.00151876 -0.000621873 0.000239431)
(-0.00157584 -0.000641325 0.000230563)
(-0.00163229 -0.000663015 0.000219574)
(-0.00168864 -0.000686204 0.000206479)
(-0.00174423 -0.000710209 0.000190482)
(-0.0017996 -0.000734479 0.000170865)
(-0.00185312 -0.000757946 0.000146819)
(-0.00190297 -0.000779575 0.000116351)
(-0.00194491 -0.000797637 7.65641e-05)
(-0.00196967 -0.000808722 2.67667e-05)
(-0.0002468 -5.11548e-05 1.89181e-05)
(-0.000306453 -9.49354e-05 -4.74197e-05)
(-0.000330315 -0.000140299 -5.07845e-05)
(-0.000370225 -0.000200126 -4.11379e-05)
(-0.000444693 -0.000271739 -2.15835e-05)
(-0.00055452 -0.000349209 7.46603e-06)
(-0.000687012 -0.0004202 4.66988e-05)
(-0.000828783 -0.000474984 9.22416e-05)
(-0.000967023 -0.000509702 0.000137176)
(-0.0010936 -0.000527747 0.000175239)
(-0.00120354 -0.000535662 0.000202715)
(-0.00129645 -0.00054047 0.000219174)
(-0.00137537 -0.000547134 0.000226518)
(-0.00144397 -0.00055745 0.00022722)
(-0.0015063 -0.000571435 0.000223464)
(-0.0015654 -0.000588621 0.000216797)
(-0.00162261 -0.000607985 0.000207692)
(-0.00167881 -0.000628839 0.000196284)
(-0.00173336 -0.000650482 0.000181758)
(-0.00178731 -0.000672373 0.000163471)
(-0.00183925 -0.000693538 0.000140816)
(-0.00188746 -0.000713079 0.000111829)
(-0.00192765 -0.000729289 7.37183e-05)
(-0.00195121 -0.000739256 2.58046e-05)
(-0.000203729 -2.82918e-05 2.34462e-05)
(-0.000262124 -6.79219e-05 -4.53681e-05)
(-0.000280475 -0.000104423 -4.90652e-05)
(-0.000309208 -0.000153371 -4.38624e-05)
(-0.000372246 -0.00021591 -3.24514e-05)
(-0.000474066 -0.000288217 -1.29288e-05)
(-0.000607625 -0.000361317 1.81499e-05)
(-0.000754323 -0.000420522 5.8657e-05)
(-0.000900775 -0.00046007 0.000102115)
(-0.00103608 -0.000481144 0.00014141)
(-0.00115517 -0.000490396 0.000171939)
(-0.00125654 -0.000494933 0.000192207)
(-0.00134199 -0.000499974 0.000203262)
(-0.00141591 -0.000508219 0.000207366)
(-0.00148158 -0.00051979 0.000206487)
(-0.00154244 -0.000534481 0.000202266)
(-0.00160019 -0.000551419 0.000195249)
(-0.00165586 -0.000569873 0.000185672)
(-0.00170896 -0.000589152 0.000172712)
(-0.00176115 -0.000608732 0.000155818)
(-0.00181106 -0.000627634 0.000134604)
(-0.00185693 -0.000645066 0.000107136)
(-0.0018953 -0.000659593 7.07796e-05)
(-0.00191714 -0.000668406 2.48107e-05)
(-0.000157235 -9.78195e-06 2.62536e-05)
(-0.000213786 -4.44414e-05 -4.26728e-05)
(-0.000228856 -7.35556e-05 -4.69301e-05)
(-0.000244704 -0.000110763 -4.44419e-05)
(-0.000288349 -0.000160276 -3.86525e-05)
(-0.000385562 -0.000228397 -2.84838e-05)
(-0.00051499 -0.00030001 -8.12159e-06)
(-0.000665468 -0.000363789 2.54076e-05)
(-0.000818886 -0.0004084 6.58664e-05)
(-0.000964035 -0.000433772 0.000105717)
(-0.00109259 -0.000444878 0.000139026)
(-0.00120237 -0.00044922 0.00016315)
(-0.00129545 -0.000452941 0.000178342)
(-0.00137446 -0.000458842 0.000186144)
(-0.00144377 -0.000467942 0.000188511)
(-0.0015066 -0.000480136 0.000187053)
(-0.00156461 -0.000494586 0.000182326)
(-0.00161935 -0.000510619 0.000174718)
(-0.00167032 -0.000527539 0.00016339)
(-0.00171995 -0.000544776 0.000147895)
(-0.00176711 -0.000561425 0.000128153)
(-0.00181031 -0.000576889 0.000102268)
(-0.00184591 -0.000589649 6.77115e-05)
(-0.00186591 -0.000597461 2.37785e-05)
(-0.000106222 3.32009e-06 2.67361e-05)
(-0.000156848 -2.44737e-05 -3.69174e-05)
(-0.000170875 -4.74633e-05 -3.99073e-05)
(-0.000186452 -7.4026e-05 -3.33605e-05)
(-0.000235829 -0.000110351 -3.81628e-05)
(-0.000290629 -0.000164425 -4.59624e-05)
(-0.000411617 -0.000238096 -3.18298e-05)
(-0.000562811 -0.000304684 -6.1102e-06)
(-0.000723756 -0.000355629 2.98193e-05)
(-0.000877079 -0.000385555 6.8911e-05)
(-0.00101532 -0.000399414 0.000104437)
(-0.00113448 -0.000404353 0.000132399)
(-0.00123443 -0.000406614 0.00015177)
(-0.00131939 -0.000410459 0.000163675)
(-0.00139219 -0.000416997 0.000169577)
(-0.00145652 -0.000426546 0.000171112)
(-0.0015145 -0.000438504 0.000168874)
(-0.00156785 -0.000452166 0.00016338)
(-0.00161621 -0.000466855 0.000153766)
(-0.00166299 -0.00048195 0.000139717)
(-0.0017071 -0.000496539 0.000121499)
(-0.00174672 -0.000510058 9.72198e-05)
(-0.00177962 -0.000521346 6.45496e-05)
(-0.00179717 -0.000528171 2.27135e-05)
(-6.18493e-05 1.28606e-05 2.88892e-05)
(-0.000109609 -9.08549e-06 -3.37164e-05)
(-0.000126632 -2.54265e-05 -4.57523e-05)
(-0.000122854 -4.87763e-05 -5.68589e-05)
(-0.000110314 -9.24575e-05 -3.7057e-05)
(-0.000194619 -0.000120985 -2.10298e-05)
(-0.000299523 -0.000169655 -4.22088e-05)
(-0.000449548 -0.000242683 -3.30147e-05)
(-0.000613416 -0.000299509 -4.24864e-06)
(-0.000776402 -0.000336484 3.23942e-05)
(-0.000924029 -0.000354262 6.90157e-05)
(-0.00105144 -0.000360278 0.000100252)
(-0.0011597 -0.000362071 0.00012394)
(-0.00124977 -0.000363825 0.000140026)
(-0.00132624 -0.000367978 0.000149747)
(-0.00139232 -0.00037507 0.000154567)
(-0.00144992 -0.000384616 0.000155002)
(-0.00150138 -0.000396014 0.000151744)
(-0.00154636 -0.000408581 0.000143882)
(-0.00158932 -0.0004216 0.000131252)
(-0.00162941 -0.000434168 0.000114561)
(-0.00166528 -0.000446028 9.19672e-05)
(-0.00169426 -0.000455784 6.1229e-05)
(-0.00170932 -0.000461829 2.16008e-05)
(-1.43285e-05 1.30123e-05 1.97932e-05)
(-3.91783e-05 1.79312e-06 -2.79197e-05)
(-5.67862e-05 -1.55339e-05 -4.26469e-05)
(-6.42576e-05 -3.66075e-05 -4.80513e-05)
(-4.57878e-05 -4.9897e-05 -2.65802e-05)
(-9.04636e-05 -6.632e-05 -1.47953e-05)
(-0.000198958 -0.000112038 -4.22405e-05)
(-0.000327888 -0.000176475 -5.11158e-05)
(-0.00049502 -0.00024266 -3.3264e-05)
(-0.00066225 -0.00028574 -2.06303e-06)
(-0.00081845 -0.000308845 3.39355e-05)
(-0.000955284 -0.000317734 6.76482e-05)
(-0.00106983 -0.000319294 9.51054e-05)
(-0.00116596 -0.00031983 0.00011549)
(-0.00124566 -0.000321819 0.000129138)
(-0.00131268 -0.000326517 0.000137373)
(-0.00136944 -0.000333809 0.000140629)
(-0.00141846 -0.000343126 0.000139716)
(-0.00145954 -0.000353825 0.000133665)
(-0.00149847 -0.000365085 0.00012248)
(-0.00153454 -0.000375961 0.000107376)
(-0.00156559 -0.000386199 8.64853e-05)
(-0.00159109 -0.000394847 5.77905e-05)
(-0.00160292 -0.000400127 2.04447e-05)
(7.56072e-06 5.86378e-06 5.6004e-06)
(-3.86607e-06 -4.30195e-06 -1.26984e-05)
(-1.65533e-05 -7.71438e-06 -1.8834e-05)
(-2.95262e-05 -1.05629e-05 -2.28364e-05)
(-3.99914e-05 -1.04103e-05 -3.33286e-05)
(-2.61881e-05 -2.60838e-05 -2.16605e-05)
(-6.38472e-05 -4.47566e-05 -1.91659e-05)
(-0.000212703 -0.000113099 -5.19492e-05)
(-0.000361977 -0.000176657 -5.36043e-05)
(-0.000537648 -0.000233346 -3.15436e-05)
(-0.000701885 -0.000263278 9.86701e-07)
(-0.000844946 -0.000275797 3.54851e-05)
(-0.000967433 -0.000279049 6.61146e-05)
(-0.00106774 -0.000278773 9.03753e-05)
(-0.00115057 -0.00027922 0.000107951)
(-0.0012187 -0.000282026 0.000119748)
(-0.00127417 -0.000287353 0.000125922)
(-0.00132018 -0.000294853 0.000127424)
(-0.00135649 -0.000303898 0.000123169)
(-0.0013903 -0.000313527 0.000113353)
(-0.00142117 -0.000322739 9.98073e-05)
(-0.00144737 -0.000331658 8.07156e-05)
(-0.00146776 -0.000339094 5.41185e-05)
(-0.00147658 -0.000343845 1.92163e-05)
(2.96069e-05 2.55215e-06 1.36216e-05)
(2.50971e-05 2.0844e-07 2.52378e-06)
(8.89998e-06 5.12085e-06 2.33298e-06)
(-2.14369e-05 1.41088e-05 -1.55596e-05)
(-3.31589e-05 -2.55864e-06 -4.08959e-05)
(-2.27103e-05 -2.06297e-05 -3.86068e-05)
(-2.54209e-05 -2.61694e-05 -2.15864e-05)
(-8.02347e-05 -4.82399e-05 -3.00383e-05)
(-0.000267068 -0.000119077 -5.75622e-05)
(-0.000406707 -0.000175932 -5.54232e-05)
(-0.00057327 -0.000215785 -2.80691e-05)
(-0.00072442 -0.000234808 5.42366e-06)
(-0.000851062 -0.000240267 3.76708e-05)
(-0.000956462 -0.000240868 6.52763e-05)
(-0.00104141 -0.000240465 8.64588e-05)
(-0.00110933 -0.000241784 0.000101686)
(-0.00116279 -0.000245512 0.000110767)
(-0.0012051 -0.000251518 0.000114696)
(-0.00123615 -0.000259228 0.000112233)
(-0.00126488 -0.000267635 0.000103787)
(-0.00129094 -0.000275551 9.18689e-05)
(-0.00131151 -0.000283208 7.46213e-05)
(-0.0013279 -0.000289958 5.02814e-05)
(-0.00133271 -0.000294049 1.79205e-05)
(4.27222e-05 1.03811e-05 2.58817e-05)
(4.80826e-05 2.92781e-06 -8.57479e-06)
(4.33156e-05 -5.6663e-06 -1.0144e-05)
(2.70421e-05 -1.46187e-05 -1.1703e-05)
(1.46056e-05 -1.4872e-05 -1.14018e-05)
(-4.37705e-06 5.71198e-08 -2.53466e-05)
(-1.08243e-05 -1.62536e-05 -4.66662e-05)
(-4.73408e-05 -3.04191e-05 -5.53628e-05)
(-0.000102626 -9.64631e-05 -5.45363e-05)
(-0.000274784 -0.000130736 -4.17662e-05)
(-0.000442565 -0.000165861 -4.89709e-05)
(-0.00059378 -0.00019302 -2.10224e-05)
(-0.000726413 -0.000203403 1.11893e-05)
(-0.000833259 -0.000205626 4.09082e-05)
(-0.000919817 -0.000205561 6.51109e-05)
(-0.000987538 -0.000206299 8.35701e-05)
(-0.00103844 -0.000208957 9.5448e-05)
(-0.00107642 -0.000213861 0.000101742)
(-0.00110144 -0.000220525 0.000100974)
(-0.00112382 -0.000227785 9.37436e-05)
(-0.0011439 -0.000234362 8.33889e-05)
(-0.00115848 -0.00024079 6.80759e-05)
(-0.00116883 -0.00024663 4.60718e-05)
(-0.00117047 -0.000250231 1.65046e-05)
(5.47133e-05 1.29372e-05 3.17826e-05)
(6.95493e-05 6.64717e-06 -1.09097e-05)
(7.29528e-05 -7.13132e-07 -1.82894e-05)
(6.83575e-05 -1.24939e-05 -2.11282e-05)
(5.83538e-05 -2.17448e-05 -2.06976e-05)
(3.79398e-05 -2.76454e-05 -2.08114e-05)
(2.13467e-05 -2.09224e-05 -2.54894e-05)
(-2.69109e-05 -2.97438e-05 -3.74325e-05)
(-5.28143e-05 -5.40884e-05 -4.04391e-05)
(-0.000138744 -6.7277e-05 -3.49222e-05)
(-0.000304398 -0.00011122 -5.89648e-05)
(-0.000460213 -0.000151033 -4.0987e-05)
(-0.000591771 -0.000166089 -1.20702e-05)
(-0.000701056 -0.000172365 1.82894e-05)
(-0.000787277 -0.00017373 4.44095e-05)
(-0.000852671 -0.000174604 6.54654e-05)
(-0.000899974 -0.000176712 7.9808e-05)
(-0.000932876 -0.000180919 8.82786e-05)
(-0.000951376 -0.000186767 8.90708e-05)
(-0.000968069 -0.000193347 8.30458e-05)
(-0.000983039 -0.000198886 7.43283e-05)
(-0.000992487 -0.000204249 6.1093e-05)
(-0.00099853 -0.000209682 4.16269e-05)
(-0.000995758 -0.000212255 1.4983e-05)
(6.62381e-05 1.2634e-05 3.46666e-05)
(8.63832e-05 6.56373e-06 -1.11497e-05)
(9.47461e-05 -7.19788e-07 -2.01588e-05)
(9.59342e-05 -1.2503e-05 -2.48806e-05)
(9.05789e-05 -2.3935e-05 -2.58627e-05)
(7.81529e-05 -3.30523e-05 -2.32408e-05)
(5.98918e-05 -3.52996e-05 -1.51312e-05)
(2.99157e-05 -3.39072e-05 3.50256e-07)
(-4.11492e-05 1.66909e-05 -1.09485e-05)
(-3.46058e-05 -1.14035e-05 -2.31582e-05)
(-0.000200785 -6.6466e-05 -5.57481e-05)
(-0.000321271 -0.000105681 -5.33484e-05)
(-0.000458178 -0.000129963 -3.01754e-05)
(-0.000563179 -0.000139888 -1.4532e-06)
(-0.00064809 -0.000144319 2.51409e-05)
(-0.000711179 -0.000146485 4.80337e-05)
(-0.000754295 -0.000148722 6.4356e-05)
(-0.00078137 -0.000152472 7.46923e-05)
(-0.000793188 -0.000157917 7.68285e-05)
(-0.000802733 -0.000163646 7.1745e-05)
(-0.000811622 -0.000167929 6.4536e-05)
(-0.000813489 -0.000171313 5.33776e-05)
(-0.000814069 -0.000176327 3.6615e-05)
(-0.000808292 -0.000177388 1.32659e-05)
(7.3267e-05 1.21005e-05 3.64931e-05)
(9.73276e-05 6.01604e-06 -1.09562e-05)
(0.000108841 -4.871e-07 -2.09765e-05)
(0.000113195 -1.18756e-05 -2.68652e-05)
(0.000111055 -2.40328e-05 -2.89362e-05)
(0.000102564 -3.43995e-05 -2.73127e-05)
(8.68986e-05 -3.99715e-05 -2.24835e-05)
(5.93293e-05 -3.53987e-05 -1.27764e-05)
(8.92352e-07 -2.54615e-05 -1.86627e-05)
(-2.74877e-05 -1.42992e-05 -5.15933e-05)
(-7.3249e-05 -5.56735e-05 -4.16898e-05)
(-0.000209013 -6.41569e-05 -4.03158e-05)
(-0.000319881 -8.83326e-05 -4.34736e-05)
(-0.000424405 -0.000107762 -1.69428e-05)
(-0.000504775 -0.0001155 8.04337e-06)
(-0.000562106 -0.000119538 3.13933e-05)
(-0.000599683 -0.000122278 4.88626e-05)
(-0.000620602 -0.0001258 6.05361e-05)
(-0.000625243 -0.000130919 6.36674e-05)
(-0.000629374 -0.000136299 5.95224e-05)
(-0.000634099 -0.00013957 5.39874e-05)
(-0.000635336 -0.00014197 4.52844e-05)
(-0.000629829 -0.000146325 3.12821e-05)
(-0.000621412 -0.000145828 1.14224e-05)
(7.36478e-05 1.02166e-05 3.64922e-05)
(0.00010011 5.03137e-06 -9.47775e-06)
(0.000112942 -2.89169e-07 -2.02322e-05)
(0.000120165 -1.07489e-05 -2.71602e-05)
(0.000121296 -2.31048e-05 -3.02986e-05)
(0.00011668 -3.45503e-05 -2.96458e-05)
(0.000106092 -4.25009e-05 -2.56121e-05)
(8.78674e-05 -4.41569e-05 -2.04082e-05)
(5.35958e-05 -3.56824e-05 -2.14504e-05)
(-6.65384e-06 -2.80802e-05 -3.9869e-05)
(-4.38719e-05 -3.44717e-05 -4.44267e-05)
(-9.22929e-05 -3.7701e-05 -3.09131e-05)
(-0.000215735 -4.84487e-05 -4.09795e-05)
(-0.000288076 -6.72801e-05 -2.81285e-05)
(-0.000365835 -8.49489e-05 -5.96489e-06)
(-0.000419065 -9.40192e-05 1.66217e-05)
(-0.000451106 -9.79484e-05 3.42661e-05)
(-0.000464264 -0.000100698 4.66229e-05)
(-0.000463242 -0.000106031 5.04278e-05)
(-0.000460462 -0.000110743 4.68006e-05)
(-0.000459758 -0.000112625 4.25165e-05)
(-0.000446844 -0.000111722 3.59567e-05)
(-0.000443937 -0.000116199 2.52778e-05)
(-0.000424553 -0.000106811 9.2373e-06)
(6.78706e-05 7.35905e-06 3.41099e-05)
(9.53948e-05 3.24967e-06 -6.96501e-06)
(0.000108943 -1.00164e-06 -1.73767e-05)
(0.000117379 -9.7281e-06 -2.46747e-05)
(0.00012187 -2.1284e-05 -2.88998e-05)
(0.000121262 -3.32877e-05 -2.95228e-05)
(0.000115516 -4.32066e-05 -2.6621e-05)
(0.000103492 -4.87813e-05 -2.09989e-05)
(8.28332e-05 -4.77565e-05 -1.37442e-05)
(5.24841e-05 -3.97226e-05 -2.13716e-06)
(-2.73684e-05 1.75158e-05 -2.90445e-05)
(-4.46482e-05 -2.48501e-05 -4.67684e-05)
(-0.000101363 -3.45477e-05 -2.85921e-05)
(-0.000215509 -2.891e-05 -2.55185e-05)
(-0.000257917 -5.53654e-05 -1.7038e-05)
(-0.000274715 -6.44062e-05 3.73268e-06)
(-0.000298427 -7.16898e-05 2.02195e-05)
(-0.000305056 -6.81873e-05 3.23202e-05)
(-0.000299642 -7.924e-05 3.59635e-05)
(-0.000292481 -8.24656e-05 3.29749e-05)
(-0.000290994 -8.29562e-05 3.11054e-05)
(-0.0002953 -7.47084e-05 2.77644e-05)
(-0.000274242 -8.48841e-05 1.91095e-05)
(-0.000300223 -6.1436e-05 7.68946e-06)
(5.872e-05 4.33564e-06 3.02023e-05)
(8.5778e-05 8.19273e-07 -4.58626e-06)
(9.93621e-05 -2.76773e-06 -1.36148e-05)
(0.000108458 -1.00353e-05 -2.02454e-05)
(0.000114566 -1.96783e-05 -2.48172e-05)
(0.000117741 -3.08789e-05 -2.67514e-05)
(0.000116605 -4.14067e-05 -2.55208e-05)
(0.000110134 -4.88362e-05 -2.13704e-05)
(9.56573e-05 -5.11759e-05 -1.48678e-05)
(6.93638e-05 -4.19963e-05 -6.16168e-06)
(1.49906e-05 -3.21907e-05 -9.07459e-06)
(-2.11548e-05 -7.00862e-07 -4.2375e-05)
(-5.47111e-05 -1.44693e-05 -5.2897e-05)
(-9.9772e-05 -8.25465e-05 -3.64202e-05)
(-0.00012782 -6.80411e-05 -5.90854e-06)
(-0.000182615 -3.59739e-05 2.72347e-06)
(-0.000184738 -4.09158e-05 9.45336e-06)
(-0.00021618 -3.43492e-05 1.91399e-05)
(-0.000170262 -4.8883e-05 2.35496e-05)
(-0.000164113 -5.24539e-05 2.02331e-05)
(-0.000160018 -5.17716e-05 1.89017e-05)
(-0.000149584 -4.87719e-05 1.60419e-05)
(-0.000136876 -5.00953e-05 9.66701e-06)
(-0.000135888 -8.08757e-05 2.28973e-06)
(4.90227e-05 2.23874e-06 2.63228e-05)
(7.42136e-05 -1.3206e-06 -3.15518e-06)
(8.69719e-05 -4.85381e-06 -1.04273e-05)
(9.59754e-05 -1.11143e-05 -1.57292e-05)
(0.000102798 -1.92273e-05 -1.97288e-05)
(0.000108127 -2.86288e-05 -2.21369e-05)
(0.000111082 -3.84452e-05 -2.2397e-05)
(0.000109761 -4.65458e-05 -2.03477e-05)
(0.000101796 -5.11374e-05 -1.60672e-05)
(8.31731e-05 -4.96016e-05 -1.05806e-05)
(4.89695e-05 -3.7577e-05 -6.74831e-06)
(1.01591e-05 -2.05161e-05 -1.73499e-05)
(-5.66324e-05 -5.8435e-06 -4.90815e-05)
(-4.23169e-05 -3.014e-05 -4.32505e-05)
(-6.62671e-05 -3.09371e-05 -2.16133e-05)
(-6.88435e-05 -4.24821e-05 -9.1703e-06)
(-7.08681e-05 -2.1856e-05 -3.27416e-06)
(-9.2361e-05 -7.27231e-05 6.37372e-06)
(-5.63647e-05 -1.93875e-05 1.28207e-05)
(-3.05623e-05 -1.6017e-05 3.37654e-06)
(-3.15346e-05 -1.86666e-05 3.03079e-06)
(-5.21142e-05 -3.8274e-05 8.27857e-06)
(-6.07444e-05 -3.92906e-05 6.35392e-06)
(-5.55168e-05 -6.35852e-05 1.7047e-06)
(3.9423e-05 1.07785e-06 2.24997e-05)
(6.20938e-05 -2.8498e-06 -2.65375e-06)
(7.35751e-05 -6.77664e-06 -8.29509e-06)
(8.20583e-05 -1.26379e-05 -1.213e-05)
(8.90864e-05 -1.97461e-05 -1.50267e-05)
(9.54712e-05 -2.75979e-05 -1.70797e-05)
(0.00010111 -3.58422e-05 -1.80245e-05)
(0.00010391 -4.33897e-05 -1.75863e-05)
(0.000101713 -4.90922e-05 -1.57656e-05)
(9.10106e-05 -5.12594e-05 -1.24095e-05)
(6.81025e-05 -4.84319e-05 -1.00587e-05)
(3.44602e-05 -3.33164e-05 -6.30336e-06)
(-8.22774e-07 -2.12694e-05 -1.15349e-05)
(-3.96962e-05 5.13271e-05 -3.33512e-05)
(-2.28477e-05 1.13262e-05 -3.27411e-05)
(-3.69876e-05 -3.43307e-05 -2.88457e-05)
(-2.72587e-05 -2.06381e-05 -9.97026e-06)
(-3.72331e-05 -4.2529e-05 2.02843e-06)
(-1.06875e-05 -1.53355e-05 4.42181e-06)
(-1.61522e-05 -3.06028e-05 3.7765e-06)
(-1.61775e-05 -3.2837e-05 6.03565e-06)
(-1.48181e-05 -2.28243e-05 8.28945e-06)
(-5.30789e-06 -1.82558e-05 4.33014e-06)
(-2.23459e-05 4.51313e-06 3.70715e-06)
(3.15392e-05 2.65125e-07 1.90068e-05)
(5.13533e-05 -4.21715e-06 -2.6967e-06)
(6.13547e-05 -8.73939e-06 -6.97787e-06)
(6.90797e-05 -1.45784e-05 -9.50375e-06)
(7.5983e-05 -2.11395e-05 -1.12464e-05)
(8.28077e-05 -2.79218e-05 -1.2578e-05)
(8.95061e-05 -3.45559e-05 -1.35526e-05)
(9.49135e-05 -4.09114e-05 -1.40135e-05)
(9.68374e-05 -4.62653e-05 -1.38449e-05)
(9.28548e-05 -5.01824e-05 -1.29396e-05)
(7.89974e-05 -5.07817e-05 -1.20421e-05)
(5.49432e-05 -4.45156e-05 -1.05827e-05)
(1.68641e-05 -2.6887e-05 -1.58185e-05)
(-2.52006e-05 -1.80025e-05 -3.05743e-05)
(-1.49619e-05 -1.53375e-05 -3.68099e-05)
(-1.01461e-05 8.91685e-06 -2.69478e-05)
(-8.42548e-06 -8.29254e-06 -1.54104e-05)