/*--------------------------------*- C++ -*----------------------------------*\
  =========                 |
  \\      /  F ield         | OpenFOAM: The Open Source CFD Toolbox
   \\    /   O peration     | Website:  https://openfoam.org
    \\  /    A nd           | Version:  6
     \\/     M anipulation  |
\*---------------------------------------------------------------------------*/
FoamFile
{
    version     2.0;
    format      ascii;
    class       volScalarField;
    location    "27";
    object      yPlus;
}
// * * * * * * * * * * * * * * * * * * * * * * * * * * * * * * * * * * * * * //

dimensions      [0 0 0 0 0 0 0];

internalField   uniform 0;

boundaryField
{
    inlet
    {
        type            calculated;
        value           uniform 0;
    }
    outlet
    {
        type            calculated;
        value           uniform 0;
    }
    roughCylinder
    {
        type            calculated;
        value           nonuniform List<scalar> 
3840
(
45.8952
54.2956
62.205
69.2181
74.5452
78.5152
81.5449
83.9536
86.0178
87.8354
89.4858
91.0321
92.5452
94.0942
95.7327
97.4919
99.379
101.384
103.483
105.646
107.827
109.947
111.818
113.052
45.0753
53.2018
60.9043
67.8221
73.1144
77.0674
80.0944
82.5135
84.5825
86.3886
88.0163
89.5341
91.0155
92.5299
94.1326
95.8532
97.6989
99.6592
101.712
103.826
105.956
108.025
109.85
111.053
44.1817
52.0758
59.5777
66.3947
71.6585
75.6084
78.6486
81.0886
83.1663
84.9656
86.5747
88.0673
89.5187
91.001
92.5675
94.25
96.0552
97.9722
99.979
102.045
104.124
106.143
107.921
109.091
43.3005
50.9472
58.2467
64.9597
70.1977
74.1511
77.2136
79.6828
81.7743
83.5756
85.1687
86.6383
88.0626
89.5134
91.0472
92.6934
94.4591
96.3338
98.2947
100.312
102.342
104.311
106.042
107.182
42.343
49.7696
56.8664
63.4764
68.7028
72.681
75.7839
78.2913
80.4039
82.2119
83.7956
85.2475
86.6475
88.0712
89.5724
91.1837
92.9118
94.7454
96.6629
98.6341
100.615
102.535
104.222
105.33
41.454
48.5982
55.4788
61.9833
67.2033
71.2112
74.3575
76.9095
79.0489
80.871
82.4544
83.8924
85.2728
86.67
88.1436
89.7228
91.4146
93.2089
95.0827
97.0074
98.9407
100.812
102.455
103.532
40.4256
47.3427
54.0055
60.4096
65.6441
69.7107
72.9244
75.5305
77.7055
79.5469
81.14
82.5717
83.9362
85.314
86.7596
88.3078
89.9656
91.7218
93.5544
95.4356
97.3215
99.1458
100.746
101.793
39.5469
46.1164
52.5261
58.8169
64.0703
68.1991
71.4773
74.1457
76.3644
78.2367
79.8456
81.2804
82.6371
83.9958
85.4205
86.9417
88.5666
90.2863
92.0777
93.9137
95.754
97.5311
99.0873
100.106
38.4055
44.7354
50.8962
57.0798
62.3766
66.6106
69.9978
72.7459
75.0216
76.9307
78.5665
80.0144
81.3687
82.7194
84.1225
85.6172
87.2122
88.8966
90.6491
92.4437
94.2373
95.9691
97.4847
98.472
37.5181
43.4179
49.2588
55.3025
60.6469
64.9913
68.475
71.315
73.6593
75.6239
77.2945
78.7624
80.1272
81.4708
82.862
84.3363
85.9022
87.5526
89.2645
91.0146
92.7629
94.4478
95.9185
96.8771
36.1766
41.8359
47.3774
53.2711
58.6786
63.1955
66.8669
69.8363
72.2758
74.3017
76.0221
77.5238
78.9003
80.2504
81.6292
83.0824
84.6223
86.2395
87.9138
89.6235
91.3254
92.9647
94.3965
95.323
35.1211
40.3343
45.4699
51.1655
56.6393
61.3432
65.1677
68.2867
70.8355
72.9556
74.7377
76.2795
77.6878
79.0416
80.4197
81.861
83.376
84.9613
86.5954
88.259
89.9157
91.5084
92.8922
93.7911
33.8126
38.5974
43.2178
48.6172
54.1379
59.104
63.2746
66.623
69.3419
71.563
73.4286
75.0339
76.4697
77.8491
79.2248
80.6506
82.1442
83.699
85.2963
86.9212
88.5316
90.0759
91.424
92.2874
32.3807
36.8164
40.913
45.9342
51.4693
56.7584
61.1823
64.8107
67.72
70.1081
72.0784
73.7509
75.2502
76.6466
78.0357
79.4607
80.9343
82.4592
84.0158
85.592
87.1542
88.6534
89.9476
90.7842
30.4881
34.5321
37.9651
42.4691
47.9885
53.573
58.6839
62.7466
65.9874
68.5502
70.6631
72.4466
73.9921
75.4418
76.8422
78.2581
79.7156
81.2124
82.7326
84.2707
85.7876
87.2322
88.4924
89.29
28.302
32.1902
34.9995
38.6269
43.7071
50.1215
55.6532
60.3425
63.9637
66.8603
69.1595
71.0517
72.712
74.1955
75.6282
77.058
78.5015
79.9703
81.447
82.932
84.3933
85.7937
86.992
87.7614
24.9531
28.5192
30.5892
33.9001
39.5407
44.8402
51.8376
57.3597
61.7162
64.9434
67.5095
69.6045
71.3373
72.9166
74.3798
75.8089
77.242
78.6844
80.1236
81.5697
82.9882
84.3233
85.4889
86.2131
21.2427
25.5523
26.8998
26.5509
25.9481
38.3704
46.0903
53.5347
58.7531
62.7492
65.691
67.9726
69.9103
71.5493
73.072
74.5348
75.9616
77.3773
78.7673
80.1522
81.5011
82.7912
83.88
84.5734
8.15941
15.218
17.6404
19.6357
17.3171
24.345
39.8113
48.0362
55.2891
60.0238
63.5285
66.2186
68.287
70.094
71.6777
73.1521
74.5748
75.9643
77.3127
78.6558
79.9632
81.1735
82.2332
82.8682
9.30533
13.7403
15.8759
18.1507
19.5019
6.7739
17.5956
40.9229
49.8789
56.6458
61.0388
64.1035
66.5525
68.4704
70.1598
71.6989
73.1263
74.4896
75.778
77.0437
78.2615
79.4142
80.3677
80.9704
13.875
17.1185
18.3108
21.1673
20.9702
20.1387
14.433
21.3674
43.1345
51.8865
57.6886
61.6755
64.4132
66.6474
68.4547
70.0267
71.4588
72.794
74.0279
75.2471
76.4181
77.4807
78.4124
78.9275
22.9673
26.087
27.0434
26.1662
23.9165
22.9567
24.5334
25.0292
26.9553
45.125
53.5864
58.5041
62.0338
64.4932
66.5039
68.2001
69.6553
70.962
72.1168
73.2243
74.2756
75.23
76.0046
76.4842
25.5635
29.5078
31.9592
33.2573
32.9591
30.3979
25.391
22.5722
30.1426
34.9006
47.2635
54.5105
58.7573
61.8952
64.1467
65.9167
67.3946
68.6688
69.7349
70.7841
71.7718
72.6578
73.3979
73.7372
26.7344
30.8421
33.6271
35.6645
36.7635
36.6654
34.3755
26.3017
27.6134
6.0451
38.5638
48.7308
54.9618
58.5905
61.2801
63.3153
64.8503
66.0823
67.0257
67.8897
68.697
69.2963
69.8289
70.099
26.644
30.904
33.8459
36.1554
37.7113
38.4838
38.3871
36.4408
27.913
28.0532
22.8852
40.8217
48.9707
54.2651
57.4832
59.6595
61.2667
62.4548
63.219
63.9754
64.6961
65.419
65.7458
65.8265
24.7188
29.3079
32.5155
35.1589
37.1271
38.431
39.1448
39.1838
37.1954
29.7358
32.7874
27.21
42.1556
48.4166
52.5843
55.4171
57.1293
58.2202
58.7305
59.1284
59.4932
59.2122
59.4791
59.3087
21.8313
26.8026
30.2276
33.1203
35.4081
37.1212
38.3961
39.3439
39.5487
36.2189
32.574
25.7537
27.273
39.7832
45.4578
48.3046
50.2155
51.3242
51.2134
51.2526
51.6376
53.0166
51.4993
51.8493
18.7435
23.9394
27.4051
30.3795
32.8501
34.8826
36.6035
38.1636
39.4491
39.3622
32.9881
30.7641
27.8018
30.3617
34.2309
40.6255
43.2345
43.1911
42.981
42.1118
41.2248
37.7671
39.0056
36.2938
16.0389
21.1722
24.457
27.3134
29.796
32.0104
34.0846
36.1482
38.163
39.5536
38.4649
30.1489
33.5437
35.5566
33.9647
24.5543
23.6009
30.6161
20.6108
8.04624
12.6455
25.5593
36.0393
39.8864
13.5933
18.5546
21.5824
24.2416
26.6439
28.9213
31.2018
33.5893
36.1021
38.3936
39.427
36.8628
30.3744
34.8822
20.9473
33.6164
20.7425
37.9626
10.1096
24.5127
28.0948
33.1395
16.8324
39.0522
11.823
16.4844
19.2028
21.6147
23.8721
26.109
28.4341
30.9321
33.6524
36.4528
38.6891
39.0837
35.5785
28.5426
27.0135
30.5116
29.7932
35.7267
32.1607
31.3157
32.8114
34.8017
32.4481
32.9015
10.7925
15.1185
17.5673
19.7629
21.8711
24.004
26.2381
28.6441
31.2926
34.1941
37.0652
39.0209
39.0125
37.0241
33.787
30.5267
29.5085
30.2912
33.4834
38.8097
38.7459
38.4579
40.7339
42.0164
10.3292
14.5002
16.7704
18.8272
20.8239
22.8333
24.8981
27.076
29.4522
32.1211
35.0624
37.857
39.6249
40.28
38.818
38.4
37.3796
39.2009
39.1024
43.9017
42.9502
42.8255
43.3418
45.3293
10.4232
14.4978
16.6973
18.7068
20.6473
22.5522
24.4382
26.3533
28.3832
30.6454
33.2486
36.1291
38.817
40.7134
40.7855
41.1293
40.7708
41.8384
41.032
44.1524
42.9439
43.1501
42.9154
45.315
10.8603
14.9338
17.1572
19.194
21.1289
22.9665
24.7098
26.3996
28.1125
29.9535
32.0576
34.5361
37.2829
39.8329
41.0325
41.7514
41.8085
42.2496
41.4509
43.2764
41.9004
42.2154
41.7805
44.0228
11.5293
15.6629
17.9596
20.0679
22.0382
23.8525
25.5069
27.0388
28.514
30.0142
31.6508
33.5679
35.8522
38.3395
40.1653
41.2504
41.6137
41.7006
40.9377
41.6917
40.318
40.4625
40.096
42.0114
12.3059
16.608
18.9937
21.1871
23.209
25.0279
26.64
28.0827
29.4109
30.6808
31.9681
33.3888
35.0714
37.0442
38.8525
40.085
40.6351
40.5571
39.7924
39.8222
38.5557
38.5478
38.4047
39.9803
13.3729
17.714
20.1846
22.4645
24.5429
26.3812
27.9818
29.3862
30.6417
31.783
32.8515
33.9202
35.095
36.4618
37.8606
38.938
39.4858
39.3159
38.5648
38.1311
37.0411
36.9895
37.1177
38.4306
14.4635
18.8986
21.4691
23.8391
25.9768
27.8445
29.455
30.8557
32.089
33.1753
34.1308
34.991
35.8198
36.697
37.5994
38.3282
38.6935
38.4155
37.6599
36.9564
36.0475
36.0458
36.4301
37.5806
15.5845
20.134
22.811
25.2719
27.4706
29.3747
31.0098
32.4293
33.672
34.7491
35.6618
36.4205
37.0519
37.6041
38.0969
38.4445
38.5281
38.0952
37.2922
36.4371
35.6778
35.7692
36.366
37.433
16.2982
16.7478
17.2143
17.5648
17.8851
18.1226
18.326
18.4696
18.5795
18.646
18.6839
18.6875
18.664
18.6116
18.5337
18.4315
18.309
18.1701
18.027
17.9163
17.9545
18.099
18.2602
18.4126
18.5466
18.6596
18.7469
18.8079
18.8393
18.8425
18.8103
18.7484
18.6409
18.4971
18.2918
18.0492
17.7215
17.3599
16.8804
16.4146
20.9525
21.3908
21.8659
22.2329
22.5788
22.8505
23.0913
23.2789
23.4343
23.5492
23.6358
23.6896
23.7145
23.7083
23.6718
23.6047
23.5096
23.3896
23.2557
23.1463
23.1894
23.3365
23.4901
23.6246
23.7321
23.8103
23.8565
23.8713
23.8542
23.8068
23.7253
23.6136
23.4588
23.2693
23.0246
22.7459
22.3906
22.0109
21.5215
21.0662
23.7013
24.1607
24.6717
25.0732
25.4638
25.785
26.0803
26.3276
26.5461
26.7264
26.8789
27
27.0917
27.151
27.1764
27.1665
27.1219
27.0453
26.9475
26.8667
26.9049
27.0262
27.1462
27.2394
27.2983
27.3208
27.3064
27.2573
27.1745
27.0608
26.9142
26.7371
26.519
26.2702
25.9707
25.6419
25.2413
24.8262
24.3001
23.8224
26.2077
26.6745
27.2062
27.6276
28.0476
28.4026
28.7369
29.0281
29.2962
29.531
29.7395
29.9179
30.0664
30.1813
30.26
30.3001
30.301
30.2657
30.2059
30.1576
30.189
30.2787
30.3636
30.4176
30.4324
30.4063
30.3401
30.2366
30.0979
29.928
29.7259
29.4953
29.2289
28.9372
28.5988
28.2364
27.8063
27.3711
26.8239
26.3381
28.4273
28.8788
29.4094
29.8309
30.2604
30.6317
30.9914
31.3153
31.6204
31.8969
32.1495
32.3733
32.5669
32.7261
32.8473
32.9274
32.965
32.9625
32.9319
32.9055
32.9328
32.9999
33.0569
33.0793
33.0585
32.9933
32.8852
32.738
32.5548
32.34
32.0944
31.8226
31.5201
31.1962
30.8335
30.4561
30.0169
29.5817
29.0354
28.5645
30.3409
30.7641
31.2846
31.7006
32.1367
32.524
32.9056
33.258
33.5949
33.9075
34.1975
34.46
34.692
34.8886
35.0453
35.158
35.2247
35.2474
35.2371
35.2238
35.2492
35.3022
35.3391
35.3367
35.2872
35.1895
35.0463
34.8619
34.6405
34.3872
34.1042
33.7968
33.4626
33.1104
32.7263
32.3333
31.8884
31.4591
30.9228
30.4798
31.987
32.3827
32.8966
33.3136
33.7589
34.1629
34.5653
34.9436
35.3089
35.6524
35.9745
36.2696
36.5337
36.761
36.9465
37.0852
37.1743
37.2152
37.2182
37.2122
37.2369
37.2818
37.305
37.2843
37.2122
37.0885
36.9166
36.7014
36.4479
36.1617
35.8467
35.5083
35.1457
34.7675
34.3626
33.953
33.4987
33.0691
32.5391
32.1235
33.422
33.7946
34.3072
34.7274
35.182
35.6011
36.0215
36.4216
36.8104
37.1792
37.5272
37.8485
38.1379
38.3895
38.5971
38.7555
38.8611
38.9148
38.9268
38.9249
38.9492
38.9893
39.0032
38.9693
38.8802
38.7367
38.5424
38.3028
38.0237
37.7113
37.3701
37.0062
36.6198
36.2197
35.7963
35.3713
34.9075
34.4744
33.9461
33.5531
34.6815
35.0308
35.5409
35.9633
36.4254
36.8567
37.2915
37.7089
38.1162
38.5048
38.873
39.2142
39.5231
39.7929
40.0173
40.1904
40.3086
40.3726
40.3919
40.394
40.4177
40.4531
40.4591
40.4146
40.3127
40.154
39.9426
39.6844
39.3856
39.0529
38.6913
38.3072
37.9019
37.484
37.0459
36.6081
36.1363
35.7006
35.1738
34.8035
35.7712
36.0936
36.5981
37.0209
37.4881
37.9292
38.3757
38.8071
39.229
39.6332
40.0169
40.3734
40.6969
40.9806
41.2176
41.4025
41.5314
41.6052
41.6335
41.6418
41.6642
41.6922
41.6891
41.6345
41.5217
41.3509
41.1265
40.8541
40.5402
40.1918
39.8142
39.4141
38.9937
38.5612
38.1109
37.6626
37.1847
36.7473
36.2249
35.8799
36.687
36.9757
37.4701
37.8913
38.3622
38.8119
39.2686
39.7121
40.1466
40.5636
40.9598
41.3284
41.6634
41.9578
42.2053
42.4001
42.5391
42.6237
42.6634
42.68
42.7006
42.7186
42.704
42.6387
42.5156
42.3345
42.0994
41.8157
41.49
41.1289
40.7382
40.3246
39.8912
39.4457
38.9841
38.526
38.043
37.6053
37.0907
36.776
37.4286
37.6698
38.1457
38.5625
39.0357
39.4937
39.9603
40.4156
40.8618
41.2905
41.6976
42.0766
42.4214
42.7249
42.9813
43.1854
43.3347
43.4309
43.4829
43.5081
43.5269
43.5341
43.5069
43.43
43.2967
43.1061
42.8616
42.5683
42.2323
41.8602
41.4579
41.0319
40.5856
40.1275
39.6544
39.1862
38.6981
38.2614
37.7596
37.4873
38.0024
38.1662
38.6106
39.0169
39.4899
39.9556
40.4324
40.8997
41.3579
41.7982
42.216
42.6049
42.9585
43.2705
43.5352
43.7481
43.9074
44.0149
44.0783
44.1111
44.1283
44.1259
44.0866
43.9983
43.8549
43.6553
43.402
43.0997
42.7542
42.3716
41.9576
41.519
41.0595
40.5876
40.1021
39.623
39.1305
38.6969
38.2179
38.0143
38.43
38.4624
38.8444
39.2302
39.6969
40.1684
40.6547
41.1345
41.6052
42.0577
42.4866
42.8854
43.248
43.5683
43.8412
44.0626
44.2312
44.3488
44.422
44.4608
44.4766
44.4664
44.4166
44.3179
44.1649
43.9564
43.6945
43.3833
43.028
42.6345
42.2084
41.7563
41.2826
40.7958
40.2971
39.8065
39.3113
38.8866
38.4578
38.3724
38.7241
38.5579
38.8296
39.1712
39.6225
40.0947
40.5887
41.0801
41.5633
42.0283
42.4691
42.8784
43.2505
43.5795
43.8606
44.0903
44.2675
44.3939
44.4748
44.5183
44.5331
44.5167
44.4583
44.3503
44.1883
43.9709
43.7001
43.3795
43.0137
42.6085
42.1694
41.7028
41.2139
40.7116
40.1996
39.6984
39.2062
38.8124
38.4794
38.5773
38.8493
38.4392
38.555
38.8191
39.2367
39.7028
40.1991
40.6994
41.1935
41.6704
42.1224
42.5425
42.9241
43.2619
43.5511
43.7887
43.9735
44.1072
44.1942
44.2412
44.2553
44.2341
44.1687
44.0527
43.8823
43.6564
43.3766
43.0461
42.6695
42.2522
41.7999
41.319
40.8156
40.2989
39.7754
39.2684
38.7978
38.4676
38.2755
38.6021
38.6694
38.0382
37.994
38.1635
38.5311
38.9803
39.4742
39.9782
40.4794
40.9649
41.426
41.8547
42.2446
42.5899
42.8861
43.13
43.3208
43.4598
43.551
43.6005
43.614
43.5894
43.5188
43.3966
43.2192
42.9859
42.6978
42.3583
41.972
41.544
41.0804
40.5879
40.0732
39.547
39.0172
38.5212
38.0966
37.8604
37.8336
38.3954
38.0298
37.2743
37.1253
37.2205
37.5417
37.969
38.4562
38.9588
39.4614
39.9499
40.4147
40.8475
41.2414
41.5903
41.8898
42.1366
42.3297
42.4707
42.5634
42.6139
42.6273
42.6013
42.5284
42.4032
42.222
41.9842
41.6912
41.3462
40.9538
40.5193
40.0489
39.5494
39.0285
38.4954
37.9696
37.4967
37.1239
36.9735
37.072
37.7893
37.1114
36.2802
36.0682
36.1108
36.3937
36.7965
37.2709
37.7683
38.2667
38.7525
39.215
39.6459
40.0379
40.3848
40.6819
40.926
41.1161
41.254
41.3445
41.394
41.4081
41.3841
41.3137
41.1907
41.0115
40.7751
40.4833
40.1392
39.7476
39.3141
38.8451
38.3475
37.8299
37.3037
36.7953
36.3547
36.031
35.9474
36.1195
36.9181
36.0172
35.2277
35.0355
35.0751
35.3473
35.7361
36.1974
36.6833
37.1708
37.646
38.0983
38.519
38.9006
39.237
39.5235
39.7567
39.9357
40.063
40.1447
40.1904
40.2069
40.1904
40.1299
40.0173
39.8479
39.621
39.3382
39.0029
38.6199
38.1947
37.7339
37.2446
36.7353
36.2205
35.7279
35.3077
35.0079
34.9513
35.1506
35.9861
35.2467
34.5255
34.38
34.4459
34.7269
35.1128
35.5633
36.0347
36.5071
36.9663
37.402
37.8056
38.1697
38.4883
38.7565
38.9709
39.1307
39.2385
39.3033
39.3407
39.3636
39.3634
39.3228
39.2302
39.0804
38.8729
38.6095
38.2941
37.9317
37.528
37.0896
36.6245
36.1419
35.6541
35.1862
34.7859
34.4944
34.4291
34.5864
35.3449
35.6166
34.8884
34.7308
34.7621
35.0003
35.3342
35.7307
36.1525
36.5817
37.002
37.402
37.7726
38.1059
38.3956
38.6365
38.8247
38.9584
39.0398
39.0791
39.1023
39.1357
39.1608
39.1473
39.081
38.9574
38.777
38.5422
38.2571
37.9268
37.557
37.1548
36.7284
36.2872
35.8457
35.4204
35.0536
34.779
34.7106
34.8316
35.5283
36.3953
35.7287
35.5984
35.62
35.8288
36.1201
36.4728
36.8517
37.2392
37.6193
37.9812
38.3157
38.6153
38.8739
39.0862
39.2482
39.3575
39.415
39.4304
39.4369
39.4806
39.5279
39.5369
39.4932
39.3939
39.24
39.0341
38.7807
38.4845
38.1514
37.7881
37.4028
37.0054
36.6097
36.2312
35.903
35.649
35.5794
35.6586
36.276
37.1086
36.44
36.3092
36.3251
36.5241
36.8033
37.142
37.5052
37.8759
38.2385
38.5825
38.8993
39.1819
39.4242
39.6214
39.7696
39.8666
39.913
39.9179
39.9165
39.9641
40.0207
40.0403
40.0089
39.9237
39.7858
39.5981
39.3648
39.0906
38.7815
38.4441
38.0868
37.7197
37.3578
37.0164
36.7312
36.5197
36.4938
36.6138
37.2873
45.8514
54.2593
62.1655
69.1756
74.5022
78.4717
81.5011
83.9095
85.973
87.7902
89.4402
90.9861
92.4987
94.0473
95.6852
97.4438
99.33
101.333
103.431
105.593
107.773
109.892
111.765
113.004
45.0419
53.1712
60.8663
67.7774
73.0676
77.0206
80.048
82.4675
84.5363
86.3423
87.9696
89.487
90.968
92.4819
94.084
95.8039
97.6489
99.6081
101.659
103.771
105.901
107.968
109.796
111.004
44.161
52.05
59.5434
66.353
71.6133
75.5622
78.6021
81.0417
83.1187
84.9177
86.5267
88.0192
89.4702
90.9521
92.5182
94.1999
96.0043
97.9202
99.9252
101.988
104.068
106.084
107.866
109.042
43.2716
50.9121
58.2046
64.9118
70.1469
74.1002
77.1634
79.6332
81.7251
83.5267
85.1196
86.5889
88.0131
89.4633
90.9966
92.6424
94.4072
96.2805
98.2401
100.255
102.284
104.25
105.987
107.132
42.3136
49.7316
56.8221
63.428
68.6522
72.6299
75.7329
78.2404
80.3527
82.1607
83.7448
85.1969
86.5968
88.0205
89.5214
91.1319
92.859
94.6917
96.607
98.5748
100.556
102.473
104.164
105.279
41.4127
48.5487
55.424
61.9261
67.1457
71.155
74.3029
76.8559
78.9959
80.8188
82.4025
83.8405
85.2209
86.6178
88.0909
89.6697
91.3607
93.1533
95.0255
96.9468
98.88
100.748
102.396
103.481
40.3797
47.2885
53.9469
60.3506
65.5854
69.652
72.8658
75.4729
77.6492
79.4914
81.0858
82.5183
83.883
85.2611
86.7067
88.254
89.9107
91.6655
93.4968
95.3733
97.2604
99.0807
100.686
101.741
39.4886
46.0495
52.4541
58.7443
64.0006
68.1348
71.4179
74.0884
76.3072
78.1807
79.7901
81.2255
82.5825
83.9411
85.3654
86.8862
88.5108
90.2284
92.0182
93.8497
95.6898
97.463
99.0257
100.053
38.3402
44.664
50.8225
57.0091
62.3093
66.5423
69.9279
72.6775
74.9574
76.8691
78.5076
79.9572
81.3126
82.664
84.0674
85.5616
87.1549
88.8379
90.5891
92.3778
94.1731
95.8998
97.4206
98.4189
37.4419
43.3311
49.1634
55.204
60.5535
64.9117
68.4086
71.2542
73.5978
75.5633
77.2346
78.7036
80.0692
81.4135
82.8043
84.2779
85.844
87.4919
89.2026
90.9456
92.6952
94.3741
95.853
96.8233
36.0898
41.7457
47.288
53.1908
58.6058
63.1166
66.7799
69.7506
72.1991
74.231
75.9563
77.4609
78.8402
80.1915
81.5711
83.0245
84.5621
86.1777
87.8507
89.5529
91.2566
92.89
94.3279
95.2689
35.0265
40.2224
45.3359
51.0155
56.493
61.2321
65.0904
68.2222
70.7689
72.889
74.6725
76.2164
77.6251
78.9808
80.3586
81.7986
83.3146
84.8969
86.5292
88.1826
89.8432
91.4267
92.8216
93.736
33.6928
38.4786
43.1093
48.5359
54.0775
59.0135
63.1564
66.5076
69.2454
71.4797
73.3525
74.9623
76.4047
77.7853
79.1624
80.5899
82.0803
83.6331
85.23
86.8451
88.4553
89.9946
91.3497
92.2334
32.2556
36.6639
40.7072
45.6689
51.1855
56.5781
61.0929
64.7444
67.6468
70.0316
72.0062
73.6835
75.1807
76.5809
77.9706
79.3928
80.8688
82.3899
83.944
85.5047
87.0769
88.5607
89.8699
90.7289
30.2945
34.3491
37.8167
42.4026
48.0043
53.4687
58.4887
62.5704
65.8573
68.4497
70.5729
72.3612
73.921
75.3716
76.7738
78.1934
79.6468
81.1412
82.6626
84.1883
85.7006
87.1421
88.4122
89.2361
28.1024
31.9617
34.6732
38.1555
43.1018
49.7964
55.5692
60.2847
63.8808
66.7661
69.0752
70.9803
72.6322
74.1227
75.5575
76.9831
78.4303
79.8942
81.3676
82.8285
84.3102
85.6864
86.9025
87.7063
24.5597
28.1528
30.2063
33.4191
39.2367
44.559
51.4058
57.0439
61.5223
64.8154
67.4017
69.499
71.259
72.8389
74.3038
75.738
77.1667
78.6061
80.0493
81.4781
82.8856
84.2194
85.4007
86.1608
20.6698
24.9891
26.4543
27.0843
27.3011
38.5539
46.2113
53.5028
58.6437
62.6247
65.5824
67.8934
69.8144
71.4644
72.9919
74.4507
75.8824
77.2916
78.6776
80.0265
81.4086
82.662
83.775
84.5196
8.34008
15.4022
16.294
19.6469
24.292
21.0263
38.0703
47.344
54.9678
59.8371
63.397
66.0881
68.1998
70.0078
71.5925
73.0714
74.4904
75.8762
77.233
78.5469
79.8408
81.0508
82.1295
82.8214
11.3486
8.35007
9.47132
5.85523
17.8838
17.1609
20.9658
40.7921
49.6297
56.4618
60.8802
64.0017
66.4267
68.3632
70.0631
71.6012
73.0351
74.3901
75.6741
76.8887
78.1497
79.2479
80.2453
80.9209
14.3171
17.1386
17.4971
15.6363
15.164
16.4985
5.38777
18.9823
42.4743
51.5457
57.5216
61.5195
64.3175
66.5516
68.3588
69.9306
71.3604
72.6906
73.9421
75.1053
76.2709
77.3321
78.277
78.8937
23.3472
26.4721
27.7383
27.4288
24.8436
20.3438
16.3204
24.5059
28.7754
44.9932
53.3116
58.3424
61.8398
64.3395
66.3742
68.079
69.5438
70.8417
71.9913
73.0247
74.1233
74.994
75.8574
76.4493
25.7651
29.7568
32.1824
33.6042
33.5814
31.3564
26.1023
27.1129
34.0538
33.9245
47.0266
54.3474
58.6512
61.7866
64.0386
65.7945
67.2724
68.5399
69.6445
70.589
71.5881
72.4633
73.2174
73.7326
27.0369
31.0883
33.7296
35.6373
36.6853
36.681
34.7772
27.9637
27.4674
4.19768
38.0759
48.3865
54.5899
58.3219
61.0739
63.1451
64.6965
65.9267
66.8621
67.6022
68.458
68.9282
69.609
70.1144
26.3897
30.6728
33.6051
35.8974
37.4473
38.2352
38.208
36.5955
29.7284
14.5079
18.8776
40.9498
48.8119
54.1125
57.3766
59.4917
61.0906
62.2814
63.1432
63.7729
64.4386
65.0937
65.5872
65.8984
24.331
28.9435
32.1492
34.78
36.7306
38.0204
38.7253
38.7302
36.4972
31.1503
9.87122
26.0056
41.5364
47.8153
52.1373
55.1169
56.8698
57.998
58.4628
58.6037
59.0487
58.6195
58.9659
59.5063
21.4189
26.4128
29.8303
32.7084
34.9791
36.6754
37.9315
38.8485
38.9609
35.3262
29.2173
10.517
26.3502
38.8691
45.4148
48.14
49.836
51.074
51.4395
52.4978
51.1134
51.8599
52.7207
52.2246
18.4349
23.6176
27.0477
29.9859
32.4281
34.4442
36.1634
37.735
39.0434
39.0529
34.3993
27.8348
31.4007
29.0738
34.3859
39.7926
42.5445
42.8459
41.951
40.4314
40.5019
38.3561
36.3591
37.1499
15.7802
20.8842
24.1285
26.9468
29.3999
31.5973
33.6718
35.7603
37.831
39.3405
38.5864
31.5311
34.544
27.8163
17.5164
23.7778
19.9577
30.5263
23.1222
38.3726
34.5853
14.5033
29.6936
39.6211
13.3831
18.3093
21.2964
23.9174
26.2895
28.5475
30.8217
33.2262
35.8008
38.2317
39.5528
37.5636
27.0638
31.7313
20.6459
31.7928
17.3271
38.7112
28.8498
41.1369
4.03598
26.7504
36.6872
39.2822
11.6672
16.2915
18.9722
21.3492
23.5774
25.7915
28.1001
30.5949
33.3465
36.2629
38.7582
39.5859
36.3123
28.8332
29.6207
32.2138
25.9736
36.1454
33.4726
38.4843
33.7931
38.7216
28.6035
30.2081
10.6819
14.9783
17.3973
19.5657
21.6493
23.759
25.9692
28.3539
30.9985
33.9539
37.0127
39.3522
39.6997
36.6261
33.4673
30.891
30.933
29.9589
33.9875
27.8439
41.074
36.7646
36.1043
40.7479
10.2554
14.4053
16.6564
18.6952
20.6737
22.6629
24.7041
26.8549
29.2074
31.8799
34.9064
37.9502
40.028
40.0575
38.752
38.4397
39.2276
38.3589
40.8967
35.9283
44.4109
39.9837
40.8151
44.2859
10.3726
14.4343
16.6236
18.6226
20.5514
22.4419
24.3105
26.2039
28.2092
30.4534
33.0765
36.0788
38.9773
40.6416
40.7826
41.0663
41.6079
41.1213
42.4777
39.7309
43.949
41.2685
41.6601
44.4161
10.8171
14.8833
17.1024
19.1338
21.0626
22.8935
24.6284
26.3063
28.0032
29.828
31.9285
34.4531
37.3233
39.8305
41.0498
41.727
42.2129
41.7932
42.4916
40.5229
42.4149
41.171
41.2472
43.283
11.4851
15.6154
17.9094
20.0139
21.9806
23.793
25.446
26.9755
28.4461
29.9407
31.5773
33.5169
35.8729
38.3893
40.2271
41.3215
41.8491
41.4737
41.6021
39.947
40.4236
40.0014
39.9585
41.453
12.255
16.5565
18.9395
21.1283
23.1468
24.9655
26.58
28.0261
29.3583
30.6338
31.9312
33.3763
35.1154
37.1506
39.001
40.2908
40.8701
40.5129
40.2383
38.7384
38.4194
38.4202
38.4781
39.581
13.3132
17.6536
20.1195
22.3932
24.4673
26.3056
27.9099
29.3203
30.5842
31.7379
32.8247
33.9246
35.1558
36.6024
38.0791
39.2469
39.7753
39.4186
38.8863
37.5238
36.8325
37.0278
37.2816
38.1443
14.3852
18.8222
21.3872
23.7498
25.8825
27.7497
29.3639
30.7711
32.0144
33.1153
34.0928
34.9878
35.8734
36.8354
37.8344
38.6711
39.0201
38.6167
37.9192
36.6749
35.8573
36.1457
36.6119
37.3619
15.4877
20.0394
22.7096
25.1618
27.3544
29.2574
30.8956
32.3211
33.5738
34.6655
35.6003
36.393
37.0779
37.7104
38.3022
38.7593
38.8485
38.3402
37.5176
36.3568
35.5353
35.8766
36.5272
37.2452
45.8642
44.1903
43.3753
41.719
40.819
39.232
38.2089
36.7168
35.6661
34.3907
33.4121
32.2303
31.2949
30.3419
29.4365
28.627
27.8534
27.3904
26.9816
26.5577
26.5609
26.9869
27.402
27.8914
28.6167
29.3665
30.2802
31.2767
32.2281
33.3989
34.4106
35.7377
36.7827
38.2122
39.238
40.7738
41.8088
43.4114
44.2492
45.9384
54.4813
52.979
52.1794
50.7475
49.9016
48.5156
47.52
46.2757
45.328
44.2636
43.3349
42.3602
41.552
40.7033
39.9933
39.3089
38.7502
38.3128
38.0898
37.8135
37.8159
38.0969
38.324
38.7638
39.3316
40.0183
40.7231
41.5697
42.3846
43.3492
44.2585
45.3739
46.3757
47.5405
48.5414
49.8163
50.8353
52.2047
53.027
54.5436
62.5068
61.0815
60.2722
58.9333
58.0318
56.7684
55.7984
54.6561
53.7115
52.6978
51.8003
50.8961
50.0979
49.3251
48.649
48.0358
47.5242
47.1059
46.8331
46.6493
46.6515
46.8396
47.1159
47.537
48.0548
48.6749
49.3517
50.1215
50.9228
51.8222
52.7161
53.743
54.7053
55.8258
56.8022
58.027
58.9838
60.3067
61.1235
62.559
69.5096
68.072
67.1811
65.8275
64.8448
63.5875
62.5749
61.4324
60.4478
59.4272
58.5106
57.6154
56.805
56.0504
55.3785
54.7868
54.2895
53.8937
53.6178
53.4665
53.4685
53.6235
53.9027
54.3014
54.8025
55.3984
56.0726
56.8275
57.6395
58.5346
59.4524
60.4761
61.464
62.6044
63.6196
64.8722
65.8654
67.2198
68.1119
69.5558
74.7905
73.3001
72.3173
70.9174
69.8601
68.5729
67.5053
66.3404
65.3158
64.2791
63.3395
62.4377
61.6184
60.866
60.1981
59.6169
59.1327
58.7538
58.491
58.3524
58.3541
58.496
58.7618
59.1436
59.6308
60.2152
60.8854
61.6392
62.46
63.363
64.3043
65.343
66.369
67.5351
68.604
69.8931
70.9533
72.356
73.34
74.8347
78.7194
77.1864
76.1331
74.7022
73.589
72.2827
71.1747
69.9977
68.9471
67.9028
66.9508
66.0468
65.2259
64.4776
63.8166
63.2458
62.7739
62.4081
62.1564
62.0254
62.027
62.161
62.4154
62.784
63.2587
63.8324
64.4956
65.2455
66.068
66.9736
67.9274
68.9736
70.0256
71.2043
72.3138
73.6224
74.7377
76.1713
77.2264
78.7628
81.7156
80.1549
79.0471
77.6022
76.4473
75.133
73.997
72.8147
71.7487
70.7013
69.7433
68.8398
68.02
67.2763
66.6216
66.0588
65.5959
65.2391
64.995
64.8689
64.8704
64.9993
65.2461
65.6054
66.071
66.6364
67.2933
68.0388
68.8604
69.7656
70.7254
71.7747
72.8423
74.0265
75.1641
76.4807
77.6376
79.0851
80.1949
81.7586
84.0922
82.5124
81.3594
79.9086
78.724
77.4067
76.2525
75.0669
73.9914
72.9414
71.9796
71.0759
70.2562
69.5148
68.863
68.3044
67.846
67.4939
67.2536
67.1299
67.1313
67.2578
67.5006
67.8554
68.3162
68.8773
69.5311
70.2746
71.0961
72.0017
72.9653
74.0172
75.0945
76.2821
77.4379
78.7576
79.9442
81.3975
82.5525
84.135
86.1312
84.5334
83.3452
81.8841
80.6764
79.35
78.1808
76.9869
75.9009
74.8442
73.8751
72.9663
72.142
71.3972
70.7429
70.1824
69.723
69.3703
69.1297
69.0055
69.0069
69.1338
69.377
69.7323
70.1941
70.7569
71.4134
72.1603
72.9865
73.8972
74.8681
75.9268
77.0147
78.2105
79.3816
80.7102
81.9199
83.3836
84.5739
86.1742
87.9408
86.3154
85.1048
83.6258
82.4004
81.0606
79.8767
78.6716
77.5733
76.5066
75.5274
74.6098
73.7771
73.0248
72.3636
71.7972
71.3327
70.9758
70.732
70.6055
70.607
70.7362
70.9826
71.3421
71.8089
72.3776
73.041
73.7953
74.6301
75.5496
76.5308
77.5994
78.6996
79.9069
81.0926
82.4347
83.6622
85.1436
86.3563
87.9842
89.5924
87.9376
86.7078
85.2085
83.9651
82.609
81.4087
80.1891
79.076
77.996
77.0033
76.0735
75.2287
74.4652
73.7935
73.2175
72.7446
72.3806
72.1313
72.0012
72.0027
72.1356
72.3875
72.7541
73.2295
73.8077
74.4816
75.2472
76.094
77.0259
78.0205
79.1025
80.2176
81.4393
82.6415
83.9998
85.2453
86.747
87.979
89.6362
91.1458
89.4595
88.2134
86.6906
85.4297
84.0543
82.8366
81.5996
80.4697
79.3735
78.365
77.4198
76.5602
75.7825
75.0974
74.5089
74.0248
73.6514
73.3948
73.2599
73.2614
73.3992
73.6585
74.0345
74.5211
75.1118
75.7992
76.579
77.4407
78.3879
79.3984
80.4967
81.6285
82.8676
84.0872
85.465
86.7279
88.2531
89.5013
91.1901
92.6688
90.9488
89.6878
88.1392
86.8604
85.4633
84.2269
82.9704
81.8218
80.7072
79.6806
78.7178
77.8409
77.0466
76.3454
75.7421
75.2445
74.8595
74.594
74.4535
74.4551
74.5986
74.8668
75.2544
75.7545
76.3602
77.0636
77.8601
78.7391
79.7039
80.7325
81.8492
82.9997
84.2584
85.4968
86.8961
88.177
89.728
90.9911
92.7136
94.2284
92.473
91.1966
89.62
88.3222
86.9013
85.6444
84.3662
83.1972
82.0619
81.0152
80.0326
79.1363
78.323
77.6035
76.9828
76.4694
76.0709
75.795
75.648
75.6496
75.7998
76.0785
76.4797
76.9956
77.6186
78.3403
79.1558
80.0543
81.039
82.0877
83.2251
84.3959
85.6764
86.9352
88.3584
89.6583
91.2374
92.5158
94.2737
95.8784
94.0847
92.792
91.1848
89.8663
88.419
87.14
85.8377
84.6461
83.488
82.4191
81.4144
80.4963
79.6617
78.9215
78.2811
77.7494
77.3353
77.0472
76.8926
76.8944
77.0522
77.3431
77.76
78.2942
78.937
79.6794
80.5163
81.4365
82.4432
83.5142
84.6744
85.8679
87.1724
88.4535
89.903
91.2235
92.8333
94.128
95.9243
97.649
95.8146
94.5038
92.8634
91.5221
90.0463
88.7427
87.414
86.1977
85.0145
83.9211
82.8921
81.9499
81.0916
80.3282
79.6654
79.113
78.6806
78.3784
78.2151
78.217
78.3835
78.6887
79.1239
79.6788
80.344
81.1097
81.9702
82.9145
83.9457
85.0411
86.2264
87.4447
88.7756
90.0812
91.5594
92.9027
94.5456
95.8586
97.6956
99.5476
97.6706
96.3396
94.6641
93.298
91.7914
90.4612
89.1041
87.861
86.6507
85.5307
84.4752
83.5069
82.6225
81.8334
81.1456
80.5695
80.116
79.7973
79.6239
79.6258
79.8027
80.1245
80.5807
81.1594
81.8496
82.641
83.5275
84.498
85.5556
86.6776
87.8901
89.1353
90.4946
91.8268
93.3358
94.704
96.3821
97.7152
99.5949
101.564
99.6431
98.2908
96.5787
95.1861
93.6473
92.289
90.902
89.6304
88.3914
87.2432
86.1596
85.1633
84.251
83.4339
82.7184
82.1156
81.6379
81.2996
81.1143
81.1163
81.3053
81.6467
82.1273
82.7327
83.4505
84.2698
85.1844
86.1828
87.2686
88.4188
89.66
90.9336
92.323
93.6836
95.2245
96.6191
98.334
99.6889
101.612
103.676
101.711
100.337
98.5878
97.1684
95.5963
94.2094
92.7917
91.4907
90.222
89.0447
87.932
86.9065
85.9646
85.1178
84.3723
83.7398
83.2342
82.8727
82.6731
82.6752
82.8787
83.2434
83.752
84.3871
85.1349
85.9839
86.9277
87.9555
89.0705
90.2498
91.5209
92.8239
94.2437
95.6332
97.2075
98.6292
100.381
101.758
103.726
105.853
103.845
102.449
100.663
99.2165
97.6125
96.1962
94.748
93.4178
92.1193
90.9128
89.7707
88.7154
87.7432
86.8655
86.0882
85.4231
84.8858
84.4966
84.2792
84.2815
84.503
84.8955
85.4358
86.1034
86.8833
87.7631
88.7375
89.7946
90.939
92.1478
93.4487
94.7808
96.2315
97.6504
99.257
100.706
102.494
103.893
105.905