/*--------------------------------*- C++ -*----------------------------------*\
  =========                 |
  \\      /  F ield         | OpenFOAM: The Open Source CFD Toolbox
   \\    /   O peration     | Website:  https://openfoam.org
    \\  /    A nd           | Version:  6
     \\/     M anipulation  |
\*---------------------------------------------------------------------------*/
FoamFile
{
    version     2.0;
    format      ascii;
    class       volVectorField;
    location    "7";
    object      wallShearStress;
}
// * * * * * * * * * * * * * * * * * * * * * * * * * * * * * * * * * * * * * //

dimensions      [0 2 -2 0 0 0 0];

internalField   uniform (0 0 0);

boundaryField
{
    inlet
    {
        type            calculated;
        value           uniform (0 0 0);
    }
    outlet
    {
        type            calculated;
        value           uniform (0 0 0);
    }
    roughCylinder
    {
        type            calculated;
        value           nonuniform List<vector> 
3840
(
(-0.000357982 -0.000518087 -0.000217372)
(-0.000336192 -0.000509876 -1.77109e-05)
(-0.000372576 -0.000589377 4.27235e-05)
(-0.000461247 -0.000694828 0.000112542)
(-0.000554717 -0.000765828 0.000178802)
(-0.000646412 -0.000804672 0.000234499)
(-0.000729361 -0.000817194 0.000276716)
(-0.00080163 -0.000818047 0.000306294)
(-0.00086321 -0.000821091 0.000325697)
(-0.000911807 -0.000829716 0.000334694)
(-0.000951868 -0.000845898 0.000335278)
(-0.000985894 -0.000868165 0.000330073)
(-0.00101729 -0.000894666 0.000321236)
(-0.00104919 -0.000924364 0.000310272)
(-0.00108305 -0.000956442 0.000297724)
(-0.00111965 -0.000990802 0.000283742)
(-0.00115893 -0.00102724 0.000268159)
(-0.00120056 -0.00106542 0.000250645)
(-0.00124399 -0.00110479 0.000230588)
(-0.0012884 -0.00114448 0.000206952)
(-0.00133245 -0.00118317 0.000177887)
(-0.00137397 -0.00121888 0.000140808)
(-0.00140863 -0.0012486 9.17395e-05)
(-0.00142952 -0.00126698 3.16243e-05)
(-0.000500084 -0.000656895 -0.000280679)
(-0.000360254 -0.000503578 -2.1836e-05)
(-0.000392236 -0.000572489 3.48968e-05)
(-0.000482777 -0.00067817 0.000101512)
(-0.000578892 -0.000751642 0.000166149)
(-0.000673702 -0.000793828 0.000221054)
(-0.000760769 -0.000811003 0.00026355)
(-0.000838564 -0.000816935 0.000294876)
(-0.00090507 -0.000821265 0.000316164)
(-0.000956245 -0.000828031 0.000325893)
(-0.000998149 -0.000843011 0.000326769)
(-0.00103398 -0.000864443 0.000321722)
(-0.00106736 -0.000890601 0.000313077)
(-0.00110094 -0.000919821 0.000302257)
(-0.00113677 -0.000951657 0.000290014)
(-0.0011753 -0.00098567 0.000276417)
(-0.00121654 -0.00102168 0.000261316)
(-0.00126019 -0.00105937 0.000244378)
(-0.00130565 -0.0010982 0.000224972)
(-0.00135205 -0.00113732 0.000202056)
(-0.00139802 -0.00117543 0.000173792)
(-0.0014413 -0.00121059 0.000137633)
(-0.00147743 -0.00123985 8.96841e-05)
(-0.00149919 -0.00125793 3.09076e-05)
(-0.0004998 -0.000593597 -0.000250959)
(-0.000383787 -0.000488238 -2.65617e-05)
(-0.000410729 -0.000550359 2.61012e-05)
(-0.000502908 -0.000655386 8.95472e-05)
(-0.000601259 -0.000730791 0.000152395)
(-0.000699089 -0.000776471 0.00020667)
(-0.000790943 -0.000799068 0.000249955)
(-0.000873727 -0.000809577 0.000282755)
(-0.000945215 -0.000816276 0.000305601)
(-0.000999451 -0.000821069 0.000315952)
(-0.00104343 -0.00083476 0.000317305)
(-0.00108142 -0.000855338 0.000312556)
(-0.00111649 -0.000880611 0.000304083)
(-0.0011521 -0.000909385 0.000293572)
(-0.00118965 -0.000940539 0.000281634)
(-0.00123003 -0.00097391 0.000268477)
(-0.00127323 -0.00100926 0.000253931)
(-0.00131882 -0.00104622 0.000237632)
(-0.00136622 -0.00108424 0.000218937)
(-0.00141452 -0.00112251 0.000196799)
(-0.0014623 -0.00115977 0.000169396)
(-0.00150724 -0.00119414 0.000134225)
(-0.00154474 -0.00122275 8.74792e-05)
(-0.00156732 -0.0012404 3.014e-05)
(-0.000461848 -0.000495865 -0.000199089)
(-0.000403769 -0.00046288 -3.2709e-05)
(-0.000424651 -0.000522231 1.71409e-05)
(-0.000517781 -0.00062564 7.68462e-05)
(-0.000618814 -0.000703656 0.000137695)
(-0.000720582 -0.000754141 0.000191489)
(-0.000816943 -0.000782011 0.000235538)
(-0.000905139 -0.0007974 0.000269902)
(-0.000980371 -0.00080557 0.000293635)
(-0.00103972 -0.000810431 0.00030528)
(-0.00108584 -0.000822323 0.000307171)
(-0.00112567 -0.000841454 0.00030267)
(-0.00116298 -0.000866021 0.000294596)
(-0.00120023 -0.00089383 0.000284366)
(-0.00123979 -0.000924371 0.00027289)
(-0.00128208 -0.000957 0.00026026)
(-0.00132708 -0.000991461 0.000246316)
(-0.00137448 -0.00102746 0.0002307)
(-0.00142366 -0.00106445 0.000212754)
(-0.00147368 -0.00110164 0.000191424)
(-0.0015231 -0.00113783 0.000164906)
(-0.00156953 -0.00117119 0.000130747)
(-0.00160826 -0.00119897 8.52306e-05)
(-0.00163156 -0.0012161 2.93581e-05)
(-0.000587942 -0.000562455 -0.000221108)
(-0.000421132 -0.000440595 -3.73016e-05)
(-0.000435305 -0.00049 8.11304e-06)
(-0.00052828 -0.000591737 6.36782e-05)
(-0.000631426 -0.000671765 0.00012225)
(-0.000736185 -0.000725986 0.000175159)
(-0.000837599 -0.000759586 0.000219998)
(-0.000930156 -0.000778803 0.00025555)
(-0.00101077 -0.000789805 0.000280598)
(-0.00107477 -0.000795188 0.000293477)
(-0.00112401 -0.000804858 0.000296098)
(-0.00116648 -0.000822872 0.000292218)
(-0.00120553 -0.000845981 0.000284499)
(-0.00124503 -0.000873049 0.000274802)
(-0.0012862 -0.000902481 0.000263786)
(-0.00133016 -0.000934058 0.00025173)
(-0.00137693 -0.00096747 0.000238466)
(-0.00142602 -0.00100231 0.000223594)
(-0.00147681 -0.00103805 0.00020644)
(-0.00152839 -0.00107395 0.000185952)
(-0.00157927 -0.00110885 0.000160344)
(-0.00162704 -0.001141 0.000127217)
(-0.00166687 -0.00116779 8.29526e-05)
(-0.00169079 -0.00118428 2.85672e-05)
(-0.000566088 -0.000484348 -0.000181776)
(-0.000433108 -0.000409882 -4.19135e-05)
(-0.000439434 -0.000452938 -1.18007e-06)
(-0.000531319 -0.000551912 4.99997e-05)
(-0.000636761 -0.000634195 0.000105866)
(-0.000746119 -0.000693708 0.000157927)
(-0.000851722 -0.000731958 0.000203112)
(-0.000949935 -0.000755787 0.000240059)
(-0.00103421 -0.000768088 0.000265999)
(-0.00110381 -0.000775215 0.000280323)
(-0.00115805 -0.00078375 0.000284161)
(-0.00120256 -0.00079923 0.000280879)
(-0.00124437 -0.000821282 0.000273888)
(-0.00128545 -0.000846809 0.000264682)
(-0.00132874 -0.000875262 0.000254344)
(-0.00137455 -0.000905721 0.000242991)
(-0.00142289 -0.000937822 0.000230461)
(-0.0014735 -0.000971267 0.000216378)
(-0.00152572 -0.00100554 0.000200053)
(-0.00157863 -0.00103991 0.000180429)
(-0.00163077 -0.0010733 0.000155746)
(-0.00167968 -0.00110404 0.000123661)
(-0.00172045 -0.00112965 8.06593e-05)
(-0.00174489 -0.00114542 2.77722e-05)
(-0.000505869 -0.000387404 -0.000132075)
(-0.000441905 -0.00037414 -4.7323e-05)
(-0.000439433 -0.000414816 -1.01182e-05)
(-0.000529072 -0.000510036 3.62078e-05)
(-0.000636207 -0.000594006 8.8958e-05)
(-0.000747626 -0.000656332 0.000139352)
(-0.000858619 -0.000700001 0.000184827)
(-0.000960687 -0.000726672 0.00022251)
(-0.00105152 -0.000742314 0.000250093)
(-0.00112562 -0.00075025 0.000265585)
(-0.00118507 -0.00075852 0.000270786)
(-0.00123432 -0.000772406 0.000268791)
(-0.00127807 -0.000791914 0.000262487)
(-0.00132186 -0.000816353 0.000254165)
(-0.00136668 -0.000843221 0.000244506)
(-0.00141399 -0.000872181 0.000233905)
(-0.0014639 -0.000902842 0.000222209)
(-0.00151591 -0.000934737 0.000208986)
(-0.00156938 -0.000967364 0.000193537)
(-0.00162345 -0.00100004 0.000174813)
(-0.00167665 -0.00103175 0.00015108)
(-0.00172655 -0.00106093 0.000120058)
(-0.00176814 -0.00108524 7.83404e-05)
(-0.00179298 -0.00110021 2.69699e-05)
(-0.000607538 -0.00040981 -0.000133764)
(-0.000441196 -0.000339008 -5.05017e-05)
(-0.000430982 -0.000372067 -1.85273e-05)
(-0.000516631 -0.000463032 2.2144e-05)
(-0.000624639 -0.000548088 7.10157e-05)
(-0.000741361 -0.000615944 0.000119743)
(-0.000855934 -0.000663187 0.000164732)
(-0.000964899 -0.000694682 0.000203551)
(-0.00105937 -0.000711332 0.000232058)
(-0.0011398 -0.000721121 0.00024928)
(-0.00120506 -0.000729791 0.000256103)
(-0.00125838 -0.000741945 0.000255357)
(-0.00130678 -0.00076006 0.000250478)
(-0.00135215 -0.000781996 0.000242977)
(-0.00139935 -0.00080735 0.000234285)
(-0.00144855 -0.000834785 0.000224621)
(-0.00149981 -0.000863723 0.000213823)
(-0.00155299 -0.000893843 0.000201509)
(-0.00160749 -0.000924649 0.000186975)
(-0.00166245 -0.000955441 0.000169169)
(-0.00171647 -0.000985278 0.000146392)
(-0.00176711 -0.00101267 0.000116435)
(-0.00180932 -0.00103551 7.60098e-05)
(-0.00183445 -0.00104962 2.61659e-05)
(-0.000524461 -0.000312718 -9.34949e-05)
(-0.000435643 -0.000300692 -5.38242e-05)
(-0.000417399 -0.000329919 -2.66826e-05)
(-0.0004976 -0.000415565 8.39099e-06)
(-0.000606602 -0.000501655 5.28415e-05)
(-0.000723231 -0.000570408 9.85842e-05)
(-0.00084406 -0.000623111 0.000143027)
(-0.000956314 -0.000656535 0.000181892)
(-0.00105908 -0.0006772 0.0002122)
(-0.00114482 -0.000687893 0.000231039)
(-0.0012153 -0.000696492 0.000239575)
(-0.00127492 -0.000708526 0.000240761)
(-0.00132642 -0.000724586 0.000237182)
(-0.00137592 -0.000745095 0.000231128)
(-0.00142499 -0.000768341 0.000223508)
(-0.00147565 -0.000793797 0.000214872)
(-0.00152835 -0.000820947 0.000205119)
(-0.0015826 -0.000849202 0.000193813)
(-0.00163792 -0.000878051 0.00018025)
(-0.00169356 -0.000906872 0.000163402)
(-0.00174821 -0.000934762 0.000141614)
(-0.00179953 -0.000960358 0.000112756)
(-0.0018423 -0.000981699 7.36544e-05)
(-0.00186753 -0.000994883 2.53547e-05)
(-0.000576694 -0.000302157 -8.22041e-05)
(-0.000421562 -0.000260803 -5.62474e-05)
(-0.00039367 -0.000284865 -3.36253e-05)
(-0.00046601 -0.000363622 -5.04458e-06)
(-0.000572738 -0.000448201 3.38923e-05)
(-0.000696024 -0.000523144 7.65479e-05)
(-0.000819063 -0.000578103 0.00011917)
(-0.000940327 -0.000617225 0.000158683)
(-0.00104673 -0.000638551 0.000189723)
(-0.00113988 -0.000651162 0.000210667)
(-0.00121754 -0.000660545 0.000221522)
(-0.00128106 -0.000670962 0.000224437)
(-0.00133809 -0.000686191 0.000222813)
(-0.00138977 -0.000704301 0.0002181)
(-0.00144189 -0.000726013 0.000211958)
(-0.00149476 -0.000749808 0.000204636)
(-0.0015486 -0.000774963 0.000196029)
(-0.0016036 -0.00080116 0.000185804)
(-0.00165942 -0.000827918 0.00017327)
(-0.00171536 -0.000854624 0.000157421)
(-0.00177028 -0.000880456 0.000136657)
(-0.00182189 -0.000904166 0.000108934)
(-0.0018649 -0.000923951 7.12067e-05)
(-0.00189007 -0.000936142 2.4513e-05)
(-0.000487231 -0.000223937 -5.44803e-05)
(-0.000405034 -0.000223118 -5.81856e-05)
(-0.000364281 -0.000241521 -3.98344e-05)
(-0.000426812 -0.000312284 -1.74262e-05)
(-0.000534057 -0.000397389 1.53602e-05)
(-0.000652797 -0.000470055 5.31403e-05)
(-0.000783766 -0.000531335 9.38424e-05)
(-0.000907094 -0.00057146 0.000132336)
(-0.0010242 -0.000597759 0.000165068)
(-0.00112395 -0.000611459 0.000187975)
(-0.00120727 -0.000620467 0.000201079)
(-0.00127878 -0.000631159 0.000206726)
(-0.00133896 -0.000644086 0.000206929)
(-0.00139564 -0.000661048 0.000204253)
(-0.00144952 -0.000680416 0.000199589)
(-0.00150348 -0.000701882 0.000193604)
(-0.00155849 -0.000724991 0.000186309)
(-0.00161413 -0.000749061 0.000177287)
(-0.00167016 -0.00077362 0.000165866)
(-0.00172613 -0.000798125 0.000151084)
(-0.00178102 -0.000821841 0.000131403)
(-0.00183268 -0.000843621 0.000104884)
(-0.00187571 -0.000861807 6.86142e-05)
(-0.00190065 -0.000872959 2.36227e-05)
(-0.000456914 -0.000181709 -3.56622e-05)
(-0.000373411 -0.000182036 -5.92491e-05)
(-0.000326057 -0.000198167 -4.43155e-05)
(-0.000374229 -0.00025808 -2.81369e-05)
(-0.000472446 -0.000336693 -2.67231e-06)
(-0.000601059 -0.000417399 2.96675e-05)
(-0.000731244 -0.000479073 6.65192e-05)
(-0.000866727 -0.000526701 0.000104639)
(-0.000987176 -0.000553391 0.000137613)
(-0.00109562 -0.000569149 0.000162791)
(-0.00118828 -0.000579328 0.000178925)
(-0.00126371 -0.000587906 0.000186928)
(-0.00133102 -0.000600152 0.000189895)
(-0.00138972 -0.000614319 0.000189086)
(-0.00144716 -0.000631996 0.000186387)
(-0.00150365 -0.00065167 0.000182115)
(-0.00155949 -0.000672523 0.000176238)
(-0.0016154 -0.000694296 0.000168492)
(-0.00167132 -0.000716546 0.000158239)
(-0.00172692 -0.00073875 0.000144556)
(-0.00178139 -0.000760245 0.000125984)
(-0.00183269 -0.000780008 0.000100696)
(-0.00187542 -0.000796518 6.59319e-05)
(-0.00189997 -0.000806587 2.27031e-05)
(-0.000414177 -0.000140249 -2.39891e-05)
(-0.000335733 -0.00014714 -5.8225e-05)
(-0.000280007 -0.000156123 -4.67884e-05)
(-0.000313238 -0.000205166 -3.61403e-05)
(-0.000413094 -0.000284392 -1.92144e-05)
(-0.00052782 -0.000356748 6.05224e-06)
(-0.000669086 -0.000426934 3.86111e-05)
(-0.000803812 -0.000474373 7.40058e-05)
(-0.000938169 -0.000507835 0.000108022)
(-0.00105488 -0.000525283 0.000135256)
(-0.0011534 -0.000534703 0.00015405)
(-0.00123936 -0.000543952 0.000165663)
(-0.00130985 -0.000553398 0.00017114)
(-0.00137505 -0.000566489 0.000173115)
(-0.00143427 -0.000581488 0.000172385)
(-0.00149141 -0.000598442 0.000169803)
(-0.00154818 -0.000617047 0.00016553)
(-0.00160429 -0.000636521 0.000159194)
(-0.00165983 -0.000656424 0.000150191)
(-0.00171479 -0.00067631 0.000137673)
(-0.00176854 -0.000695579 0.000120267)
(-0.00181928 -0.000713331 9.62777e-05)
(-0.00186153 -0.000728168 6.31046e-05)
(-0.00188552 -0.000737149 2.1736e-05)
(-0.000300303 -8.57302e-05 -1.09422e-05)
(-0.000275364 -0.000109107 -5.36187e-05)
(-0.000228132 -0.000117428 -4.67824e-05)
(-0.000241209 -0.000151479 -4.02135e-05)
(-0.00031792 -0.000214614 -3.10538e-05)
(-0.000451397 -0.000300272 -1.55605e-05)
(-0.000584923 -0.000367159 1.02441e-05)
(-0.000736694 -0.000425642 4.30321e-05)
(-0.000872841 -0.000459347 7.61636e-05)
(-0.000999347 -0.000479542 0.000105363)
(-0.00111016 -0.000491127 0.000127676)
(-0.00119952 -0.000497637 0.000142197)
(-0.0012793 -0.000506614 0.000151295)
(-0.00134615 -0.000516375 0.000155733)
(-0.00140965 -0.000529542 0.000157546)
(-0.00146993 -0.000544656 0.00015715)
(-0.00152725 -0.00056082 0.00015459)
(-0.0015831 -0.000577865 0.000149727)
(-0.00163789 -0.00059538 0.00014202)
(-0.00169176 -0.000612898 0.00013068)
(-0.00174438 -0.000629908 0.000114446)
(-0.00179409 -0.000645592 9.17646e-05)
(-0.00183549 -0.000658708 6.02145e-05)
(-0.00185876 -0.000666608 2.07493e-05)
(-0.000220229 -5.31569e-05 -1.5891e-06)
(-0.0002162 -7.76336e-05 -4.91402e-05)
(-0.000167815 -8.10815e-05 -4.29523e-05)
(-0.000161723 -9.83778e-05 -3.71758e-05)
(-0.000247407 -0.000165041 -4.10747e-05)
(-0.00034373 -0.000228632 -3.30258e-05)
(-0.000496437 -0.000310223 -1.61143e-05)
(-0.000640422 -0.000365951 1.11544e-05)
(-0.00079495 -0.000410078 4.33164e-05)
(-0.000931301 -0.000433531 7.38561e-05)
(-0.00104712 -0.000444334 9.87629e-05)
(-0.00115039 -0.000452592 0.000117512)
(-0.00123283 -0.000458311 0.000129705)
(-0.00130816 -0.000467194 0.000137676)
(-0.00137334 -0.000477381 0.000141983)
(-0.00143356 -0.000489416 0.000143637)
(-0.00149157 -0.000503219 0.000142986)
(-0.00154717 -0.000517929 0.000139735)
(-0.00160094 -0.00053309 0.0001334)
(-0.00165346 -0.000548326 0.000123301)
(-0.00170466 -0.000563141 0.000108296)
(-0.00175319 -0.000576847 8.6996e-05)
(-0.0017936 -0.000588306 5.71644e-05)
(-0.00181597 -0.000595147 1.97104e-05)
(-0.000104676 -2.10348e-05 7.32894e-06)
(-0.000137927 -4.4719e-05 -4.0095e-05)
(-0.000115651 -5.30128e-05 -4.00846e-05)
(-6.70913e-05 -4.08964e-05 -2.24739e-05)
(-9.10902e-05 -6.20887e-05 -2.33855e-05)
(-0.000253532 -0.000169956 -4.46499e-05)
(-0.000377511 -0.000238064 -3.78518e-05)
(-0.00054883 -0.000313533 -1.84745e-05)
(-0.000699928 -0.000357236 1.03484e-05)
(-0.000846347 -0.000385321 4.12882e-05)
(-0.000978233 -0.000400768 6.92385e-05)
(-0.00108289 -0.000406047 9.09582e-05)
(-0.0011773 -0.000412114 0.000107331)
(-0.00125327 -0.000417279 0.000118238)
(-0.00132357 -0.000425646 0.000125627)
(-0.00138786 -0.000435981 0.000129944)
(-0.00144611 -0.000447314 0.000131298)
(-0.00150081 -0.000459594 0.000129696)
(-0.00155314 -0.000472447 0.000124758)
(-0.00160379 -0.000485418 0.000115893)
(-0.00165311 -0.000498086 0.000102103)
(-0.00169992 -0.000509798 8.21725e-05)
(-0.00173893 -0.000519609 5.40752e-05)
(-0.00176024 -0.000525435 1.86602e-05)
(-1.31496e-05 -8.36758e-07 7.68899e-06)
(-4.49641e-05 -1.28199e-05 -1.94866e-05)
(-4.18744e-05 -1.90814e-05 -2.36809e-05)
(-4.42145e-05 -2.97281e-05 -2.39581e-05)
(-5.507e-05 -4.19767e-05 -2.22448e-05)
(-7.77476e-05 -5.46316e-05 -2.20737e-05)
(-0.000274353 -0.000175256 -5.19964e-05)
(-0.000416031 -0.000240308 -4.2458e-05)
(-0.000594748 -0.000303376 -2.01642e-05)
(-0.000751697 -0.00033766 9.33463e-06)
(-0.000885041 -0.000352999 3.85427e-05)
(-0.0010079 -0.000362621 6.40267e-05)
(-0.00110307 -0.000365466 8.35544e-05)
(-0.00118991 -0.000370521 9.84421e-05)
(-0.00126148 -0.000375888 0.000108722)
(-0.00132441 -0.000382917 0.000115364)
(-0.00138296 -0.000391951 0.000118879)
(-0.00143697 -0.00040206 0.000119063)
(-0.00148755 -0.000412744 0.000115585)
(-0.00153612 -0.000423636 0.000108011)
(-0.00158329 -0.000434315 9.54955e-05)
(-0.00162833 -0.000444227 7.70273e-05)
(-0.00166583 -0.000452517 5.07831e-05)
(-0.00168592 -0.0004574 1.75426e-05)
(5.66833e-06 5.41166e-06 1.41725e-05)
(-1.70836e-06 -5.88354e-07 -8.27825e-06)
(-1.30703e-05 -1.08127e-05 -2.24633e-05)
(-2.58506e-05 -2.63055e-05 -2.83815e-05)
(-3.02259e-05 -2.91645e-05 -2.18312e-05)
(-4.94068e-05 -4.0107e-05 -2.34582e-05)
(-8.23252e-05 -5.48502e-05 -2.5319e-05)
(-0.000314288 -0.000182826 -5.94928e-05)
(-0.000470778 -0.000241796 -4.57402e-05)
(-0.000637561 -0.00028535 -2.00624e-05)
(-0.00079225 -0.00031038 9.16876e-06)
(-0.00091148 -0.00031747 3.64737e-05)
(-0.00102185 -0.0003228 5.97549e-05)
(-0.00110694 -0.000324241 7.7576e-05)
(-0.00118433 -0.000328289 9.11917e-05)
(-0.00125269 -0.00033416 0.00010086)
(-0.0013111 -0.000340955 0.0001066)
(-0.00136335 -0.000348835 0.000108543)
(-0.00141172 -0.000357482 0.000106518)
(-0.0014576 -0.000366411 0.000100196)
(-0.00150211 -0.000375222 8.89157e-05)
(-0.0015447 -0.000383378 7.18714e-05)
(-0.00158025 -0.000390211 4.7477e-05)
(-0.00159896 -0.000394233 1.64221e-05)
(1.11459e-05 1.09147e-05 2.13081e-05)
(1.94036e-05 4.94507e-06 -7.76303e-06)
(1.65399e-05 -2.61639e-06 -1.383e-05)
(7.55378e-06 -1.16667e-05 -1.52042e-05)
(-7.78229e-06 -2.70672e-05 -2.45163e-05)
(-3.51681e-05 -3.82719e-05 -3.10886e-05)
(-5.05745e-05 -3.78821e-05 -2.53454e-05)
(-0.00010913 -6.45396e-05 -3.28215e-05)
(-0.000347498 -0.000179161 -6.13622e-05)
(-0.000521503 -0.000234107 -4.4987e-05)
(-0.000669319 -0.000260341 -1.78205e-05)
(-0.00081284 -0.000276872 1.02779e-05)
(-0.000919353 -0.00027975 3.56205e-05)
(-0.00101817 -0.000282979 5.70231e-05)
(-0.00109569 -0.000284592 7.35167e-05)
(-0.00116021 -0.00028726 8.5515e-05)
(-0.00121815 -0.000292112 9.35083e-05)
(-0.00126926 -0.00029827 9.73154e-05)
(-0.00131506 -0.00030514 9.67676e-05)
(-0.00135807 -0.000312392 9.17454e-05)
(-0.00139968 -0.000319586 8.1768e-05)
(-0.00143993 -0.000326283 6.62719e-05)
(-0.00147348 -0.000331869 4.38879e-05)
(-0.00149062 -0.000335122 1.52056e-05)
(1.86675e-05 1.26017e-05 2.36314e-05)
(3.25658e-05 9.05496e-06 -7.96328e-06)
(3.41179e-05 1.76663e-06 -1.37582e-05)
(3.3574e-05 -8.95325e-06 -1.67477e-05)
(2.67673e-05 -2.24103e-05 -1.95004e-05)
(8.52249e-07 -2.88056e-05 -2.07953e-05)
(-2.32745e-05 -2.24664e-05 -1.85904e-05)
(-6.18689e-05 -3.8776e-05 -2.84567e-05)
(-0.000191811 -9.84083e-05 -5.2749e-05)
(-0.000381779 -0.000172599 -5.95674e-05)
(-0.000559571 -0.000217954 -4.08575e-05)
(-0.000688786 -0.000232308 -1.37467e-05)
(-0.000815201 -0.000241879 1.2875e-05)
(-0.000907303 -0.000242293 3.62653e-05)
(-0.000990886 -0.000243918 5.56647e-05)
(-0.00106278 -0.000246687 7.06893e-05)
(-0.00112011 -0.00024997 8.09271e-05)
(-0.00116818 -0.000254351 8.6452e-05)
(-0.00121092 -0.000259696 8.73209e-05)
(-0.00125036 -0.00026546 8.35123e-05)
(-0.00128856 -0.00027124 7.47635e-05)
(-0.00132558 -0.000276565 6.07394e-05)
(-0.0013566 -0.000281007 4.03282e-05)
(-0.0013721 -0.000283616 1.40005e-05)
(2.90493e-05 1.40766e-05 2.63041e-05)
(6.34529e-05 1.54168e-05 -1.17053e-05)
(7.27769e-05 6.32998e-06 -2.25993e-05)
(4.34047e-05 -5.10652e-06 -1.56659e-05)
(3.28425e-05 -1.33769e-05 -1.26665e-05)
(2.64333e-05 -2.4763e-05 -1.09583e-05)
(-8.31588e-07 -2.68332e-05 -1.47287e-05)
(-4.76998e-05 -3.42531e-05 -3.29051e-05)
(-0.000120775 -6.34069e-05 -4.94496e-05)
(-0.000250981 -0.000112465 -6.05068e-05)
(-0.000407957 -0.000160505 -5.40953e-05)
(-0.000574425 -0.00019406 -3.40831e-05)
(-0.000687013 -0.000201816 -7.93428e-06)
(-0.000796988 -0.000207619 1.69947e-05)
(-0.000878307 -0.000208167 3.84495e-05)
(-0.000941794 -0.000208264 5.52669e-05)
(-0.000997097 -0.000210379 6.74677e-05)
(-0.00104363 -0.000213855 7.47211e-05)
(-0.00108285 -0.000218045 7.69427e-05)
(-0.00111862 -0.000222703 7.43717e-05)
(-0.00115316 -0.000227392 6.69337e-05)
(-0.00118732 -0.000231744 5.45606e-05)
(-0.0012159 -0.000235335 3.63515e-05)
(-0.00122952 -0.000237396 1.26504e-05)
(3.86141e-05 1.61506e-05 3.08452e-05)
(9.09083e-05 2.16766e-05 -1.27914e-05)
(0.00011309 1.26722e-05 -3.00487e-05)
(0.00011689 -4.64631e-06 -3.68267e-05)
(8.45662e-05 -1.97029e-05 -2.82017e-05)
(3.39152e-05 -1.71507e-05 -1.14643e-05)
(3.15595e-05 -3.63873e-05 -1.18556e-05)
(-8.39889e-06 -2.04412e-05 -1.09935e-05)
(-3.8097e-05 -2.11638e-05 -2.14213e-05)
(-7.90176e-05 -3.49464e-05 -2.78297e-05)
(-0.000298056 -0.000116655 -6.20068e-05)
(-0.000425431 -0.000145862 -4.68241e-05)
(-0.000568912 -0.000167957 -2.54496e-05)
(-0.000662083 -0.000171591 -6.65288e-07)
(-0.000749201 -0.000174537 2.20226e-05)
(-0.000823162 -0.000177045 4.1093e-05)
(-0.000877363 -0.000178812 5.51477e-05)
(-0.000918948 -0.000181226 6.37874e-05)
(-0.000954211 -0.000184595 6.72264e-05)
(-0.000985566 -0.000188371 6.57402e-05)
(-0.001016 -0.000192206 5.94868e-05)
(-0.00104617 -0.000195669 4.86194e-05)
(-0.00107161 -0.000198521 3.25045e-05)
(-0.00108345 -0.000200182 1.13449e-05)
(4.49475e-05 1.72865e-05 3.42004e-05)
(9.98047e-05 2.44432e-05 -1.09116e-05)
(0.000129407 1.87097e-05 -3.11394e-05)
(0.000136356 2.70575e-06 -4.09936e-05)
(0.000127526 -1.72175e-05 -4.28251e-05)
(9.15567e-05 -3.13334e-05 -3.22162e-05)
(4.82056e-05 -3.24022e-05 -1.57376e-05)
(1.12526e-05 -1.77005e-05 -3.95586e-06)
(-2.36478e-05 -2.27042e-05 -1.95971e-05)
(-4.70278e-05 -2.24665e-05 -2.38104e-05)
(-0.000103905 -4.00504e-05 -3.13079e-05)
(-0.000314686 -0.00010862 -5.52725e-05)
(-0.000419798 -0.000126819 -3.66796e-05)
(-0.000540805 -0.000142055 -1.5279e-05)
(-0.000621012 -0.00014561 7.44594e-06)
(-0.000678307 -0.000145988 2.69233e-05)
(-0.000727686 -0.000147697 4.19413e-05)
(-0.000767527 -0.000150369 5.17484e-05)
(-0.000798211 -0.000153328 5.61562e-05)
(-0.000825182 -0.000156633 5.57299e-05)
(-0.000851298 -0.000159947 5.07703e-05)
(-0.000878241 -0.000163006 4.16878e-05)
(-0.000900925 -0.000165482 2.80119e-05)
(-0.000910622 -0.000166814 9.80915e-06)
(4.84236e-05 1.72984e-05 3.61628e-05)
(9.6214e-05 2.30828e-05 -8.79502e-06)
(0.00012831 2.04508e-05 -2.91792e-05)
(0.000144319 7.97902e-06 -4.14485e-05)
(0.00014059 -1.06491e-05 -4.53401e-05)
(0.000122792 -2.90892e-05 -4.20378e-05)
(8.09291e-05 -3.71093e-05 -2.80359e-05)
(4.006e-05 -3.4784e-05 -1.34908e-05)
(7.0211e-06 -2.87102e-05 -8.31315e-06)
(-2.89974e-05 -1.68075e-05 -1.95387e-05)
(-9.51484e-05 -3.87724e-05 -4.18546e-05)
(-0.000122077 -4.22808e-05 -3.1396e-05)
(-0.000308013 -9.48717e-05 -4.39918e-05)
(-0.000388361 -0.000105999 -2.47981e-05)
(-0.000475563 -0.000115352 -4.47908e-06)
(-0.000550063 -0.000121842 1.50698e-05)
(-0.000598254 -0.000124851 3.08767e-05)
(-0.000630387 -0.000127108 4.12901e-05)
(-0.000656401 -0.000129991 4.64712e-05)
(-0.000678247 -0.000132919 4.68669e-05)
(-0.000699823 -0.000135929 4.29918e-05)
(-0.000721999 -0.000138527 3.54086e-05)
(-0.000740951 -0.000140644 2.39025e-05)
(-0.000748874 -0.00014177 8.40441e-06)
(4.99253e-05 1.61759e-05 3.69074e-05)
(8.78609e-05 1.89824e-05 -6.73247e-06)
(0.00011846 1.71924e-05 -2.44009e-05)
(0.000133094 7.96907e-06 -3.49878e-05)
(0.000138305 -6.59939e-06 -4.12717e-05)
(0.000129266 -2.34854e-05 -4.11987e-05)
(0.000110018 -3.8275e-05 -3.5912e-05)
(6.62134e-05 -3.88588e-05 -2.11285e-05)
(2.39352e-05 -2.63502e-05 -7.4202e-06)
(-5.38897e-06 -2.16452e-05 -1.31562e-05)
(-4.98676e-05 -2.25388e-05 -3.18791e-05)
(-0.000105527 -3.96039e-05 -3.97893e-05)
(-0.000121362 -3.8474e-05 -2.59617e-05)
(-0.000278284 -7.8627e-05 -3.06555e-05)
(-0.000348594 -8.90832e-05 -1.33606e-05)
(-0.000389579 -9.23512e-05 4.3646e-06)
(-0.000428514 -9.61418e-05 1.89759e-05)
(-0.00045988 -9.98428e-05 2.92317e-05)
(-0.000480178 -0.000102936 3.45438e-05)
(-0.000497321 -0.00010567 3.56374e-05)
(-0.000514003 -0.000108669 3.30203e-05)
(-0.000532883 -0.000111235 2.74211e-05)
(-0.000549093 -0.000113433 1.86708e-05)
(-0.000554987 -0.000114388 6.59339e-06)
(4.92451e-05 1.47251e-05 3.70946e-05)
(8.13208e-05 1.54659e-05 -5.34996e-06)
(0.000107483 1.32185e-05 -1.97222e-05)
(0.00012199 5.74068e-06 -2.8389e-05)
(0.000127673 -5.49064e-06 -3.40316e-05)
(0.000127332 -1.9756e-05 -3.64864e-05)
(0.000116258 -3.33903e-05 -3.41897e-05)
(9.80266e-05 -4.38549e-05 -2.93106e-05)
(4.90626e-05 -3.51464e-05 -1.53178e-05)
(1.03587e-05 -1.73677e-05 -5.7468e-06)
(-1.16392e-05 -1.15019e-05 -1.28436e-05)
(-4.51292e-05 -1.84869e-05 -2.52932e-05)
(-5.8097e-05 -2.01455e-05 -1.85345e-05)
(-7.84561e-05 -2.33439e-05 -1.36274e-05)
(-0.000193542 -5.32483e-05 -1.50095e-05)
(-0.000274381 -7.00375e-05 -2.76238e-06)
(-0.0003125 -7.62956e-05 1.07003e-05)
(-0.000333496 -7.99445e-05 2.03008e-05)
(-0.000347566 -8.27697e-05 2.56758e-05)
(-0.000361054 -8.57138e-05 2.7183e-05)
(-0.000371488 -8.8057e-05 2.54373e-05)
(-0.000386379 -9.05661e-05 2.12223e-05)
(-0.000398172 -9.25734e-05 1.45313e-05)
(-0.000402526 -9.37974e-05 5.14684e-06)
(4.69944e-05 1.43248e-05 3.82736e-05)
(6.75443e-05 1.23211e-05 -4.33579e-06)
(8.82008e-05 9.66194e-06 -1.49782e-05)
(0.000101823 3.5377e-06 -2.11091e-05)
(0.000110905 -5.4995e-06 -2.59359e-05)
(0.000115198 -1.68672e-05 -2.8872e-05)
(0.000115025 -2.94469e-05 -2.94368e-05)
(0.000103863 -3.88549e-05 -2.69475e-05)
(8.6563e-05 -4.63124e-05 -2.38717e-05)
(2.81171e-05 -2.48948e-05 -9.13806e-06)
(5.98264e-06 -2.58228e-05 -1.16756e-05)
(-2.21446e-05 -1.28278e-05 -1.98719e-05)
(-6.25613e-05 -2.44151e-05 -3.15789e-05)
(-6.8382e-05 -2.39976e-05 -1.89969e-05)
(-8.04957e-05 -2.55999e-05 -1.08712e-05)
(-7.5386e-05 -2.13586e-05 -3.08147e-06)
(-0.000114053 -3.08648e-05 1.9617e-06)
(-0.000136289 -3.83623e-05 7.5667e-06)
(-0.000154064 -4.20217e-05 1.15811e-05)
(-0.000153752 -4.38543e-05 1.2283e-05)
(-0.000170228 -4.69633e-05 1.26159e-05)
(-0.000175353 -4.87095e-05 1.03707e-05)
(-0.000186027 -5.13358e-05 7.38608e-06)
(-0.000185399 -5.21956e-05 2.59523e-06)
(4.27894e-05 1.45553e-05 3.90221e-05)
(5.97055e-05 1.11518e-05 -4.33997e-06)
(6.98586e-05 6.91364e-06 -1.151e-05)
(7.9776e-05 1.35129e-06 -1.49039e-05)
(8.9052e-05 -6.02308e-06 -1.77187e-05)
(9.7618e-05 -1.52136e-05 -2.01769e-05)
(0.00010355 -2.53492e-05 -2.16162e-05)
(0.000104604 -3.50463e-05 -2.20948e-05)
(9.1796e-05 -4.07607e-05 -2.04133e-05)
(7.31259e-05 -4.61583e-05 -1.80977e-05)
(1.84155e-05 -2.04588e-05 -6.835e-06)
(-8.08519e-07 -1.31753e-05 -1.07563e-05)
(-2.155e-05 -1.30809e-05 -1.97132e-05)
(-5.44636e-05 -2.31715e-05 -2.60547e-05)
(-6.07873e-05 -2.36837e-05 -1.5162e-05)
(-6.844e-05 -2.5589e-05 -7.29849e-06)
(-0.000108547 -4.01522e-05 -1.74257e-06)
(-9.07536e-05 -3.35257e-05 3.96616e-06)
(-0.000120762 -4.50005e-05 8.8294e-06)
(-0.000101862 -3.86664e-05 8.67546e-06)
(-0.000129937 -4.99788e-05 1.04241e-05)
(-6.52682e-05 -2.54938e-05 4.28315e-06)
(-7.08799e-05 -2.74609e-05 3.23036e-06)
(-0.000119179 -4.50203e-05 1.99487e-06)
(3.74428e-05 1.44483e-05 3.84272e-05)
(5.28651e-05 1.01134e-05 -4.66902e-06)
(5.51831e-05 4.49639e-06 -9.56972e-06)
(5.94065e-05 -1.00112e-06 -1.05546e-05)
(6.72159e-05 -7.25553e-06 -1.11627e-05)
(7.69933e-05 -1.45402e-05 -1.19847e-05)
(8.77449e-05 -2.24042e-05 -1.34277e-05)
(9.41345e-05 -3.00587e-05 -1.48466e-05)
(9.50765e-05 -3.76195e-05 -1.59783e-05)
(8.0027e-05 -4.07326e-05 -1.51359e-05)
(5.3121e-05 -3.97479e-05 -1.34691e-05)
(1.93745e-05 -2.7655e-05 -1.19499e-05)
(-2.49295e-06 -1.54279e-05 -1.70721e-05)
(-2.15297e-05 -1.62091e-05 -2.40252e-05)
(-1.97172e-05 -1.09654e-05 -1.07753e-05)
(-2.55253e-05 -1.35243e-05 -7.05493e-06)
(-4.38184e-05 -2.35851e-05 -4.37591e-06)
(-6.2099e-05 -3.17874e-05 1.67949e-08)
(-3.06372e-05 -1.7631e-05 1.6975e-06)
(-6.87002e-05 -3.90847e-05 6.10412e-06)
(-3.17019e-05 -1.90594e-05 2.83356e-06)
(-5.99737e-05 -3.52689e-05 4.67695e-06)
(-5.94748e-05 -3.52366e-05 3.35912e-06)
(-7.78077e-05 -4.39678e-05 1.69215e-06)
(3.22417e-05 1.415e-05 3.69548e-05)
(4.45749e-05 8.64744e-06 -5.23172e-06)
(4.73642e-05 2.61972e-06 -9.54578e-06)
(4.93574e-05 -3.33693e-06 -9.23802e-06)
(5.37123e-05 -9.29519e-06 -7.8568e-06)
(6.15191e-05 -1.5251e-05 -6.76772e-06)
(7.13992e-05 -2.08651e-05 -6.88644e-06)
(8.17193e-05 -2.67006e-05 -8.36338e-06)
(8.58148e-05 -3.22754e-05 -9.8948e-06)
(8.52858e-05 -3.85022e-05 -1.14229e-05)
(7.11185e-05 -4.12918e-05 -1.23367e-05)
(3.96295e-05 -3.32009e-05 -1.17776e-05)
(9.15591e-06 -1.29797e-05 -8.16124e-06)
(1.55247e-07 -1.21691e-05 -1.43955e-05)
(-7.32102e-06 -1.19165e-05 -1.65202e-05)
(-1.73037e-05 -1.83625e-05 -1.85858e-05)
(-9.83249e-06 -1.05569e-05 -5.87987e-06)
(-2.20078e-05 -2.54014e-05 -6.85911e-06)
(-1.30646e-05 -1.64828e-05 -1.68735e-06)
(-1.95239e-05 -2.63117e-05 5.4573e-08)
(-1.4398e-05 -2.02621e-05 9.31482e-07)
(-1.05734e-05 -1.36886e-05 8.40618e-07)
(-2.11271e-05 -2.60267e-05 1.33505e-06)
(-2.5756e-05 -3.44039e-05 5.08245e-07)
(2.7526e-05 1.35344e-05 3.42586e-05)
(3.77216e-05 7.0043e-06 -6.2764e-06)
(3.99281e-05 3.53926e-07 -9.87322e-06)
(4.19038e-05 -6.16067e-06 -8.92106e-06)
(4.64066e-05 -1.26266e-05 -6.60234e-06)
(5.29669e-05 -1.80935e-05 -4.16509e-06)
(6.09324e-05 -2.20182e-05 -2.98822e-06)
(6.83395e-05 -2.49614e-05 -3.43472e-06)
(7.61072e-05 -2.92519e-05 -4.9097e-06)
(7.80272e-05 -3.35014e-05 -6.49036e-06)
(7.50555e-05 -3.80928e-05 -8.69102e-06)
(6.25049e-05 -4.01661e-05 -1.23718e-05)
(3.4048e-05 -3.0113e-05 -1.41992e-05)
(1.02869e-05 -1.33829e-05 -1.01126e-05)
(6.72988e-06 -1.66955e-05 -1.9818e-05)
(4.14903e-06 -2.19403e-05 -2.71708e-05)
(1.51639e-06 -1.5152e-05 -1.49431e-05)