/*--------------------------------*- C++ -*----------------------------------*\
  =========                 |
  \\      /  F ield         | OpenFOAM: The Open Source CFD Toolbox
   \\    /   O peration     | Website:  https://openfoam.org
    \\  /    A nd           | Version:  6
     \\/     M anipulation  |
\*---------------------------------------------------------------------------*/
FoamFile
{
    version     2.0;
    format      ascii;
    class       volScalarField;
    location    "43";
    object      omega;
}
// * * * * * * * * * * * * * * * * * * * * * * * * * * * * * * * * * * * * * //

dimensions      [0 0 -1 0 0 0 0];

internalField   nonuniform List<scalar> 
380496
(
843.917
843.917
843.917
843.917
843.917
843.917
843.917
843.917
843.917
843.917
843.917
843.917
843.917
843.917
843.917
843.917
843.917
843.917
843.917
843.917
843.917
843.917
843.917
843.917
843.917
843.917
843.917
843.917
843.917
843.917
843.917
843.917
843.917
843.917
843.917
843.917
843.917
843.917
843.917
843.917
843.917
843.917
843.917
843.917
843.917
843.917
843.917
843.917
843.917
843.917
843.917
843.917
843.917
843.917
843.917
843.917
843.917
843.917
843.917
843.917
843.917
843.917
843.917
843.917
843.917
843.917
843.917
843.917
843.917
843.917
843.917
843.917
843.917
843.917
843.917
843.917
843.917
843.917
843.917
843.917
843.917
843.917
843.917
843.917
843.917
843.917
843.917
843.917
843.917
843.917
843.917
843.917
843.917
843.917
843.917
843.917
843.917
843.917
843.917
843.917
843.917
843.917
843.917
843.917
843.917
843.917
843.917
843.917
843.917
843.917
843.917
843.917
843.917
843.917
843.917
843.917
843.917
843.917
843.917
843.917
843.917
843.917
843.917
843.917
843.917
843.917
843.917
843.917
843.917
843.917
843.917
843.917
843.917
843.917
843.917
843.917
843.917
843.917
843.917
843.917
843.917
843.917
843.917
843.917
843.917
843.917
843.917
843.917
843.917
843.917
843.917
843.917
843.917
843.917
843.917
843.917
843.917
843.917
843.917
843.917
843.917
843.917
843.917
843.917
843.917
843.917
843.917
843.917
843.917
843.917
843.917
843.917
843.917
843.917
843.917
843.917
843.917
843.917
843.917
843.917
843.917
843.917
843.917
843.917
843.917
843.917
843.917
843.917
843.917
843.917
843.917
843.917
843.917
843.917
843.917
843.917
843.917
843.917
843.917
843.917
843.917
843.917
843.917
843.917
843.917
843.917
843.917
843.917
843.917
843.917
843.917
843.917
843.917
843.917
843.917
843.917
843.917
843.917
843.917
843.917
843.917
843.917
843.917
843.917
843.917
843.917
843.917
843.917
843.917
843.917
843.917
843.917
843.917
843.917
843.917
843.917
843.917
843.917
843.917
843.917
843.917
843.917
843.917
843.917
843.917
843.917
843.917
843.917
843.917
843.917
843.917
843.917
843.917
843.917
843.917
843.917
843.917
843.917
843.917
843.917
843.917
843.917
843.917
843.917
843.917
843.917
843.917
843.917
843.917
843.917
843.917
843.917
843.917
843.917
843.917
843.917
843.917
843.917
843.917
843.917
843.917
843.917
843.917
843.917
843.917
843.917
843.917
843.917
843.917
843.917
843.917
843.917
843.917
843.917
843.917
843.917
843.917
843.917
843.917
843.917
843.917
843.917
843.917
843.917
843.917
843.917
843.917
843.917
843.917
843.917
843.917
843.917
843.917
843.917
843.917
843.917
843.917
843.917
843.917
843.917
843.917
843.917
843.917
843.917
843.917
843.917
843.917
843.917
843.917
843.917
843.917
843.917
843.917
843.917
843.917
843.917
843.917
843.917
843.917
843.917
843.917
843.917
843.917
843.917
843.917
843.917
843.917
843.917
843.917
843.917
843.917
843.917
843.917
843.917
843.917
843.917
843.917
843.917
843.917
843.917
843.917
843.917
843.917
843.917
843.917
843.917
843.917
843.917
843.917
843.917
843.917
843.917
843.917
843.917
843.917
843.917
843.917
843.917
843.917
843.917
843.917
843.917
843.917
843.917
843.917
843.917
843.917
843.917
843.917
843.917
843.917
843.917
843.917
843.917
843.917
843.917
843.917
843.917
843.917
843.917
843.917
843.917
843.917
843.917
843.917
843.917
843.917
843.917
843.917
843.917
843.917
843.917
843.917
843.917
843.917
843.917
843.917
843.917
843.917
843.917
843.917
843.917
843.917
843.917
843.917
843.917
843.917
843.917
843.917
843.917
843.917
843.917
843.917
843.917
843.917
843.917
843.917
843.917
843.917
843.917
843.917
843.917
843.917
843.917
843.917
843.917
843.917
843.917
843.917
843.917
843.917
843.917
843.917
843.917
843.917
843.917
843.917
843.917
843.917
843.917
843.917
843.917
843.917
843.917
843.917
843.917
843.917
843.917
843.917
843.917
843.917
843.917
843.917
843.917
843.917
843.917
843.917
843.917
843.917
843.917
843.917
843.917
843.917
843.917
843.917
843.917
843.917
843.917
843.917
843.917
843.917
843.917
843.917
843.917
843.917
843.917
843.917
843.917
843.917
843.917
843.917
843.917
843.917
843.917
843.917
843.917
843.917
843.917
843.917
843.917
843.917
843.917
843.917
843.917
843.917
843.917
843.917
843.917
843.917
843.917
843.917
843.917
843.917
843.917
843.917
843.917
843.917
843.917
843.917
843.917
843.917
843.917
843.917
843.917
843.917
843.917
843.917
843.917
843.917
843.917
843.917
843.917
843.917
843.917
843.917
843.917
843.917
843.917
843.917
843.917
843.917
843.917
843.917
843.917
843.917
843.917
843.917
843.917
843.917
843.917
843.917
843.917
843.917
843.917
843.917
843.917
843.917
843.917
843.917
843.917
843.917
843.917
843.917
843.917
843.917
843.917
843.917
843.917
843.917
843.917
843.917
843.917
843.917
843.917
843.917
843.917
843.917
843.917
843.917
843.917
843.917
843.917
843.917
843.917
843.917
843.917
843.917
843.917
843.917
843.917
843.917
843.917
843.917
843.917
843.917
843.917
843.917
843.917
843.917
843.917
843.917
843.917
843.917
843.917
843.917
843.917
843.917
843.917
843.917
843.917
843.917
843.917
843.917
843.917
843.917
843.917
843.917
843.917
843.917
843.917
843.917
843.917
843.917
843.917
843.917
843.917
843.917
843.917
843.917
843.917
843.917
843.917
843.917
843.917
843.917
843.917
843.917
843.917
843.917
843.917
843.917
843.917
843.917
843.917
843.917
843.917
843.917
843.917
843.917
843.917
843.917
843.917
843.917
843.917
843.917
843.917
843.917
843.917
843.917
843.917
843.917
843.917
843.917
843.917
843.917
843.917
843.917
843.917
843.917
843.917
843.917
843.917
843.917
843.917
843.917
843.917
843.917
843.917
843.917
843.917
843.917
843.917
843.917
843.917
843.917
843.917
843.917
843.917
843.917
843.917
423.923
423.923
423.923
423.923
423.923
424.288
424.281
424.264
424.272
424.295
424.32
424.34
424.363
424.382
424.405
424.425
424.45
424.471
424.498
424.521
424.551
424.576
424.609
424.636
424.673
424.702
424.743
424.772
424.819
424.846
424.901
424.921
424.989
424.99
425.072
275.638
262.144
263.673
264.573
264.56
264.418
264.334
264.29
264.266
264.254
264.249
264.25
264.253
264.26
264.267
264.279
264.29
264.306
264.32
264.341
264.36
264.386
264.41
264.443
264.474
264.515
264.554
264.605
264.65
264.714
264.763
264.841
264.892
264.989
265.022
275.378
261.96
263.393
264.253
264.226
264.084
263.997
263.955
263.93
263.923
263.918
263.924
263.929
263.942
263.952
263.972
263.985
264.011
264.027
264.06
264.08
264.122
264.147
264.197
264.228
264.287
264.326
264.395
264.443
264.52
264.576
264.661
264.713
264.829
264.792
274.938
261.626
263.023
263.851
263.812
263.667
263.58
263.542
263.521
263.519
263.52
263.533
263.544
263.566
263.583
263.612
263.634
263.669
263.697
263.74
263.773
263.825
263.866
263.927
263.976
264.047
264.105
264.186
264.254
264.345
264.42
264.525
264.591
264.736
264.711
274.255
261.102
262.54
263.341
263.28
263.131
263.045
263.012
262.997
263.004
263.011
263.035
263.053
263.086
263.11
263.151
263.18
263.229
263.265
263.32
263.365
263.429
263.483
263.555
263.619
263.702
263.775
263.871
263.951
264.06
264.144
264.27
264.34
264.513
264.48
273.787
260.732
262.024
262.77
262.702
262.553
262.469
262.438
262.427
262.438
262.451
262.48
262.505
262.543
262.577
262.623
262.664
262.719
262.767
262.832
262.889
262.965
263.03
263.118
263.193
263.294
263.378
263.493
263.585
263.713
263.81
263.956
264.04
264.237
264.21
272.915
260.038
261.328
262.034
261.947
261.796
261.717
261.695
261.693
261.715
261.739
261.778
261.814
261.864
261.907
261.966
262.016
262.085
262.143
262.222
262.29
262.381
262.458
262.562
262.649
262.766
262.864
262.994
263.101
263.245
263.357
263.519
263.615
263.836
263.807
272.061
259.34
260.531
261.181
261.08
260.93
260.857
260.842
260.85
260.881
260.914
260.962
261.007
261.067
261.12
261.189
261.25
261.33
261.4
261.492
261.572
261.676
261.767
261.885
261.987
262.119
262.231
262.377
262.499
262.659
262.786
262.966
263.075
263.319
263.291
271.026
258.479
259.567
260.157
260.044
259.896
259.832
259.828
259.847
259.889
259.933
259.992
260.047
260.117
260.18
260.26
260.333
260.424
260.506
260.609
260.703
260.82
260.925
261.056
261.172
261.319
261.446
261.607
261.743
261.919
262.059
262.257
262.375
262.644
262.612
269.807
257.456
258.457
258.985
258.857
258.716
258.666
258.677
258.712
258.768
258.826
258.897
258.964
259.045
259.121
259.212
259.296
259.399
259.494
259.61
259.716
259.846
259.964
260.11
260.24
260.401
260.541
260.718
260.867
261.059
261.212
261.426
261.555
261.845
261.811
268.657
256.454
257.277
257.74
257.61
257.478
257.442
257.466
257.513
257.579
257.647
257.727
257.804
257.894
257.979
258.079
258.174
258.287
258.392
258.519
258.636
258.779
258.909
259.067
259.209
259.383
259.536
259.726
259.888
260.094
260.257
260.487
260.624
260.933
260.896
267.087
255.101
255.846
256.251
256.111
255.995
255.985
256.033
256.102
256.188
256.273
256.369
256.46
256.563
256.661
256.774
256.881
257.006
257.124
257.264
257.394
257.549
257.692
257.863
258.018
258.206
258.372
258.576
258.75
258.97
259.145
259.389
259.534
259.863
259.821
265.666
253.803
254.279
254.616
254.485
254.389
254.4
254.465
254.549
254.645
254.742
254.847
254.949
255.061
255.169
255.291
255.409
255.545
255.674
255.825
255.967
256.134
256.29
256.474
256.642
256.843
257.021
257.239
257.425
257.659
257.845
258.104
258.258
258.605
258.558
263.602
251.962
252.321
252.61
252.487
252.426
252.479
252.58
252.695
252.817
252.936
253.06
253.179
253.306
253.43
253.566
253.698
253.846
253.99
254.154
254.31
254.491
254.66
254.858
255.039
255.255
255.446
255.678
255.877
256.125
256.323
256.597
256.759
257.127
257.073
261.657
250.111
250.128
250.362
250.265
250.245
250.335
250.462
250.599
250.738
250.874
251.01
251.143
251.282
251.419
251.566
251.712
251.872
252.029
252.205
252.375
252.569
252.752
252.963
253.158
253.388
253.593
253.839
254.051
254.314
254.524
254.813
254.984
255.372
255.308
258.961
247.586
247.37
247.584
247.529
247.576
247.73
247.906
248.083
248.253
248.415
248.572
248.725
248.88
249.034
249.195
249.355
249.528
249.699
249.888
250.072
250.278
250.476
250.701
250.91
251.153
251.372
251.633
251.858
252.136
252.359
252.664
252.845
253.254
253.181
255.939
244.637
244.052
244.272
244.29
244.421
244.642
244.868
245.083
245.283
245.469
245.645
245.815
245.983
246.149
246.32
246.492
246.674
246.857
247.055
247.252
247.469
247.68
247.917
248.141
248.397
248.632
248.908
249.148
249.442
249.68
250.002
250.196
250.626
250.548
252.317
240.988
239.927
240.186
240.311
240.557
240.862
241.145
241.394
241.616
241.813
241.995
242.167
242.336
242.504
242.676
242.852
243.038
243.229
243.434
243.643
243.871
244.098
244.35
244.593
244.868
245.124
245.419
245.682
245.997
246.258
246.602
246.82
247.275
247.211
246.448
235.384
234.178
234.679
234.989
235.387
235.784
236.121
236.391
236.625
236.818
237.002
237.169
237.342
237.513
237.698
237.887
238.093
238.306
238.538
238.776
239.035
239.296
239.581
239.862
240.17
240.465
240.795
241.098
241.448
241.747
242.122
242.383
242.857
242.842
238.155
227.579
225.862
226.733
227.334
227.911
228.379
228.738
229.006
229.248
229.452
229.667
229.865
230.089
230.304
230.55
230.789
231.06
231.326
231.623
231.915
232.237
232.555
232.9
233.24
233.605
233.961
234.344
234.708
235.106
235.469
235.888
236.219
236.72
236.84
218.095
211.367
210.037
211.657
212.786
213.68
214.361
214.897
215.336
215.74
216.089
216.438
216.75
217.081
217.384
217.72
218.033
218.387
218.722
219.104
219.465
219.87
220.258
220.688
221.103
221.552
221.988
222.45
222.9
223.367
223.821
224.284
224.72
225.121
225.374
9.50423
8.83565
9.16122
9.29923
9.37672
9.4257
9.47264
9.50522
9.53641
9.5716
9.61553
9.64928
9.69257
9.72571
9.77093
9.80582
9.85461
9.89243
9.94556
9.98666
10.0444
10.0887
10.1518
10.1986
10.2679
10.3156
10.3928
10.4379
10.5261
10.5626
10.6676
10.685
10.8161
10.7939
10.9557
133.591
127.215
127.094
127.665
127.852
127.834
127.782
127.738
127.708
127.688
127.675
127.669
127.666
127.667
127.67
127.675
127.683
127.692
127.704
127.717
127.733
127.75
127.77
127.793
127.819
127.847
127.882
127.916
127.961
128.002
128.059
128.109
128.181
128.243
128.333
133.311
126.951
126.79
127.334
127.509
127.488
127.432
127.388
127.358
127.339
127.328
127.323
127.323
127.327
127.333
127.343
127.354
127.368
127.384
127.402
127.423
127.445
127.472
127.499
127.533
127.566
127.608
127.648
127.699
127.747
127.808
127.866
127.928
128.02
128.035
132.937
126.596
126.417
126.944
127.109
127.085
127.029
126.985
126.956
126.941
126.933
126.932
126.937
126.945
126.957
126.972
126.989
127.009
127.031
127.056
127.085
127.115
127.15
127.186
127.229
127.272
127.323
127.373
127.434
127.491
127.565
127.63
127.712
127.801
127.857
132.435
126.122
125.96
126.48
126.635
126.605
126.547
126.506
126.479
126.468
126.465
126.47
126.479
126.494
126.511
126.533
126.556
126.583
126.612
126.644
126.679
126.717
126.76
126.804
126.854
126.905
126.964
127.022
127.092
127.157
127.238
127.311
127.396
127.496
127.545
132.014
125.739
125.522
126
126.14
126.104
126.044
126.002
125.977
125.967
125.966
125.975
125.987
126.006
126.027
126.053
126.081
126.113
126.147
126.185
126.227
126.271
126.321
126.372
126.43
126.488
126.555
126.621
126.699
126.772
126.861
126.942
127.034
127.145
127.199
131.387
125.155
124.944
125.405
125.53
125.487
125.426
125.386
125.366
125.362
125.367
125.382
125.4
125.426
125.453
125.485
125.52
125.559
125.6
125.645
125.694
125.746
125.802
125.861
125.926
125.992
126.067
126.141
126.226
126.306
126.402
126.491
126.587
126.705
126.76
130.745
124.568
124.324
124.747
124.852
124.801
124.739
124.701
124.684
124.685
124.695
124.715
124.739
124.77
124.803
124.841
124.881
124.926
124.973
125.025
125.08
125.139
125.202
125.269
125.341
125.415
125.497
125.578
125.67
125.758
125.859
125.957
126.057
126.186
126.242
129.997
123.88
123.603
123.985
124.068
124.01
123.947
123.913
123.9
123.907
123.923
123.949
123.979
124.016
124.054
124.099
124.145
124.196
124.249
124.308
124.369
124.435
124.505
124.579
124.658
124.739
124.828
124.916
125.015
125.11
125.217
125.322
125.426
125.563
125.618
129.152
123.104
122.799
123.139
123.199
123.132
123.07
123.041
123.036
123.051
123.075
123.108
123.145
123.189
123.234
123.285
123.338
123.396
123.456
123.521
123.589
123.661
123.738
123.819
123.904
123.993
124.088
124.183
124.289
124.391
124.504
124.616
124.723
124.869
124.924
128.333
122.355
121.978
122.26
122.296
122.223
122.163
122.139
122.141
122.161
122.191
122.23
122.273
122.322
122.373
122.429
122.487
122.55
122.616
122.687
122.76
122.839
122.922
123.008
123.1
123.195
123.296
123.398
123.509
123.617
123.736
123.854
123.964
124.118
124.171
127.304
121.401
120.996
121.234
121.245
121.165
121.112
121.098
121.111
121.143
121.184
121.232
121.284
121.341
121.399
121.463
121.528
121.598
121.67
121.748
121.828
121.914
122.003
122.096
122.195
122.296
122.404
122.512
122.629
122.744
122.868
122.992
123.106
123.269
123.32
126.312
120.489
119.958
120.117
120.1
120.017
119.971
119.966
119.988
120.028
120.076
120.132
120.19
120.253
120.317
120.386
120.457
120.533
120.611
120.695
120.781
120.873
120.968
121.068
121.173
121.281
121.395
121.51
121.633
121.754
121.883
122.015
122.132
122.303
122.351
125.004
119.264
118.671
118.778
118.737
118.654
118.621
118.634
118.674
118.73
118.792
118.859
118.928
119.001
119.074
119.152
119.231
119.315
119.4
119.492
119.585
119.684
119.787
119.894
120.006
120.121
120.242
120.364
120.494
120.622
120.757
120.895
121.016
121.197
121.242
123.705
118.045
117.265
117.276
117.207
117.129
117.114
117.143
117.198
117.267
117.34
117.418
117.496
117.577
117.658
117.743
117.829
117.92
118.013
118.111
118.212
118.318
118.428
118.542
118.661
118.783
118.911
119.04
119.177
119.312
119.453
119.599
119.723
119.915
119.954
122.019
116.445
115.512
115.453
115.364
115.301
115.313
115.371
115.45
115.54
115.631
115.723
115.814
115.906
115.998
116.092
116.186
116.285
116.386
116.492
116.6
116.713
116.83
116.952
117.078
117.208
117.343
117.48
117.623
117.766
117.914
118.068
118.197
118.4
118.434
120.108
114.604
113.423
113.275
113.175
113.137
113.185
113.274
113.38
113.491
113.601
113.707
113.811
113.913
114.013
114.115
114.217
114.322
114.429
114.541
114.656
114.776
114.9
115.029
115.162
115.299
115.442
115.586
115.737
115.887
116.044
116.206
116.341
116.556
116.585
117.825
112.372
110.841
110.583
110.476
110.478
110.574
110.704
110.84
110.973
111.097
111.214
111.325
111.432
111.537
111.642
111.748
111.857
111.969
112.085
112.205
112.332
112.462
112.599
112.741
112.887
113.039
113.194
113.356
113.517
113.685
113.858
114.007
114.237
114.273
114.184
108.832
107.096
106.874
106.837
106.924
107.089
107.27
107.438
107.594
107.729
107.855
107.968
108.079
108.186
108.297
108.408
108.526
108.647
108.775
108.909
109.05
109.197
109.351
109.51
109.675
109.846
110.02
110.202
110.383
110.571
110.762
110.933
111.176
111.229
108.727
103.939
101.682
101.432
101.489
101.683
101.915
102.133
102.312
102.478
102.62
102.763
102.894
103.036
103.171
103.32
103.465
103.623
103.781
103.95
104.121
104.302
104.486
104.678
104.873
105.075
105.282
105.491
105.706
105.921
106.142
106.364
106.574
106.845
106.965
94.0524
94.1823
91.3701
90.7409
90.7688
91.0939
91.5103
91.9159
92.2902
92.6448
92.9662
93.2734
93.5517
93.8233
94.0721
94.3216
94.5561
94.7973
95.0281
95.2653
95.4929
95.7293
95.9616
96.2039
96.4444
96.6933
96.9414
97.195
97.4499
97.7039
97.9665
98.206
98.4901
98.6503
98.9526
11.5219
10.7696
11.096
11.221
11.3001
11.3518
11.4005
11.4367
11.4739
11.5061
11.5486
11.5799
11.623
11.6546
11.7005
11.7343
11.7844
11.8214
11.8762
11.9166
11.9762
12.0198
12.0848
12.1307
12.202
12.2482
12.3276
12.3703
12.4609
12.4939
12.6015
12.6144
12.7479
12.7217
12.8853
79.3735
76.7492
76.2134
76.3798
76.5396
76.5869
76.5787
76.555
76.5314
76.5122
76.4977
76.4871
76.4803
76.4759
76.4743
76.474
76.4763
76.479
76.4843
76.4894
76.4977
76.505
76.5164
76.5258
76.541
76.5523
76.5729
76.5853
76.6133
76.6263
76.6637
76.679
76.7252
76.7479
76.8051
79.1303
76.5262
75.9807
76.1315
76.2815
76.3233
76.3122
76.2864
76.2623
76.2426
76.229
76.219
76.214
76.2106
76.2118
76.2126
76.2185
76.2221
76.2323
76.2378
76.2522
76.2593
76.2781
76.287
76.3105
76.3214
76.35
76.3637
76.3973
76.4156
76.4524
76.48
76.5119
76.5615
76.5728
78.8428
76.2491
75.6995
75.8411
75.9839
76.0212
76.0075
75.9805
75.9563
75.9371
75.9249
75.9165
75.9138
75.9128
75.9168
75.9206
75.9296
75.9369
75.9504
75.9603
75.9781
75.9906
76.0128
76.0277
76.0548
76.0724
76.1052
76.1251
76.1651
76.1866
76.2361
76.2588
76.3169
76.3452
76.4093
78.4941
75.9018
75.3598
75.5004
75.6382
75.6707
75.654
75.6257
75.6018
75.5838
75.5738
75.5677
75.5683
75.5701
75.5779
75.5849
75.5981
75.6089
75.6266
75.6407
75.6626
75.6799
75.7062
75.7266
75.7579
75.7808
75.8186
75.8433
75.8892
75.9146
75.9698
75.9972
76.056
76.0959
76.1449
78.1501
75.5902
75.0361
75.1538
75.276
75.3
75.2787
75.2481
75.2232
75.2054
75.1961
75.1915
75.1935
75.1976
75.2071
75.2171
75.2323
75.2465
75.2668
75.2844
75.3098
75.3303
75.3612
75.3843
75.4215
75.4467
75.4911
75.518
75.5707
75.5989
75.6602
75.6916
75.7561
75.7997
75.8582
77.7112
75.162
74.6156
74.7272
74.84
74.8565
74.8309
74.7989
74.7744
74.7584
74.7516
74.7501
74.7554
74.763
74.7764
74.7898
74.8092
74.827
74.8517
74.873
74.903
74.9275
74.963
74.9903
75.0322
75.0619
75.111
75.1425
75.1997
75.2326
75.2982
75.3336
75.4024
75.4484
75.5116
77.2391
74.7181
74.1676
74.2598
74.3559
74.3621
74.331
74.297
74.2726
74.2579
74.2533
74.2544
74.2626
74.2732
74.2898
74.3064
74.3293
74.3504
74.3788
74.4036
74.4376
74.4657
74.5056
74.5367
74.5829
74.6168
74.6701
74.7062
74.7674
74.805
74.8741
74.9147
74.9863
75.0375
75.1036
76.6972
74.2067
73.6529
73.7238
73.8012
73.7957
73.7589
73.7231
73.6992
73.6865
73.6845
73.6888
73.7004
73.7145
73.7345
73.7548
73.7811
73.806
73.838
73.8668
73.9044
73.9368
73.9804
74.016
74.0661
74.1044
74.1619
74.202
74.2679
74.3088
74.3831
74.4261
74.5028
74.5555
74.6265
76.0999
73.6405
73.0851
73.1342
73.1911
73.1723
73.1295
73.0926
73.0703
73.0607
73.0625
73.0709
73.0864
73.1047
73.1287
73.1529
73.1832
73.212
73.2479
73.2806
73.3222
73.3585
73.4063
73.4457
73.5003
73.5423
73.6044
73.6482
73.7186
73.7632
73.8415
73.8884
73.9683
74.0253
74.0983
75.4988
73.0835
72.509
72.5232
72.5547
72.5223
72.4742
72.4367
72.4161
72.4095
72.4145
72.4265
72.4455
72.4673
72.4946
72.5223
72.5559
72.5881
72.6274
72.6636
72.7087
72.7485
72.8
72.843
72.9015
72.9471
73.0132
73.0604
73.1348
73.1827
73.265
73.315
73.3982
73.4584
73.5337
74.7877
72.4069
71.8275
71.8171
71.8252
71.7785
71.7255
71.6888
71.6718
71.6702
71.6806
71.698
71.7221
71.7489
71.7809
71.8132
71.851
71.8875
71.9309
71.9712
72.0205
72.0643
72.1199
72.167
72.2295
72.2791
72.3494
72.4004
72.4791
72.5305
72.6169
72.6704
72.7568
72.8209
72.8979
74.0535
71.7341
71.1101
71.0453
71.0185
70.9556
70.8985
70.8635
70.8504
70.8537
70.8689
70.8912
70.9198
70.9509
70.9869
71.0232
71.0649
71.1053
71.1524
71.1966
71.2497
71.2974
71.357
71.4079
71.4746
71.528
71.6025
71.6573
71.7403
71.7953
71.8858
71.9429
72.0324
72.1008
72.179
73.1494
70.8786
70.2307
70.1295
70.0732
69.9955
69.936
69.9051
69.8989
69.9101
69.933
69.9626
69.9978
70.0353
70.077
70.119
70.1657
70.2113
70.2631
70.3121
70.3698
70.4222
70.4863
70.5417
70.613
70.6707
70.75
70.8088
70.8966
70.9554
71.0505
71.1115
71.2047
71.2779
71.3572
72.1923
69.9974
69.2694
69.0937
68.9939
68.8996
68.8397
68.8149
68.8169
68.8365
68.8674
68.9044
68.9461
68.9898
69.037
69.0844
69.136
69.1864
69.2429
69.2965
69.3586
69.4155
69.4842
69.544
69.62
69.6819
69.766
69.8289
69.9217
69.9843
70.0845
70.1493
70.2463
70.3247
70.4043
71.0025
68.881
68.0803
67.8421
67.7033
67.5955
67.539
67.5244
67.5385
67.57
67.6115
67.658
67.7081
67.7594
67.8132
67.8669
67.924
67.9801
68.0415
68.1004
68.1673
68.2291
68.3025
68.3671
68.4481
68.5146
68.604
68.6711
68.7695
68.8361
68.942
69.011
69.1129
69.1973
69.2787
69.6099
67.5791
66.6556
66.3306
66.147
66.0288
65.9803
65.9794
66.008
66.0529
66.106
66.1626
66.2211
66.2798
66.3398
66.3994
66.4615
66.5227
66.5884
66.6523
66.7234
66.7902
66.868
66.9376
67.0233
67.0948
67.1894
67.2614
67.3658
67.4369
67.5494
67.6226
67.7308
67.8207
67.9045
67.9186
65.9889
64.882
64.4394
64.1988
64.0706
64.0341
64.0508
64.0961
64.1549
64.2191
64.2845
64.3498
64.4142
64.479
64.5433
64.6093
64.675
64.7445
64.8131
64.8882
64.9605
65.0429
65.1187
65.2098
65.288
65.3891
65.4679
65.5798
65.6577
65.7791
65.8586
65.9774
66.0748
66.17
65.3965
63.5126
62.2588
61.7692
61.5195
61.409
61.3991
61.4407
61.5061
61.5805
61.6563
61.73
61.8019
61.8718
61.9417
62.0112
62.0829
62.1555
62.2322
62.3098
62.3936
62.4768
62.5692
62.6575
62.7595
62.8514
62.9641
63.057
63.1815
63.2728
63.4084
63.4992
63.6347
63.7398
63.8519
61.5623
60.0531
58.4392
57.7749
57.4766
57.38
57.4013
57.4699
57.558
57.651
57.7469
57.841
57.9375
58.0322
58.1308
58.2283
58.3308
58.4323
58.5396
58.646
58.7586
58.8701
58.9888
59.1049
59.2305
59.3499
59.4835
59.6037
59.7469
59.8645
60.0184
60.1327
60.2917
60.4151
60.5697
52.9315
55.1642
53.2042
51.9869
51.3897
51.1883
51.2128
51.3257
51.487
51.6576
51.842
52.0159
52.1957
52.3589
52.5281
52.6795
52.84
52.9833
53.1377
53.2741
53.4219
53.5542
53.6991
53.8325
53.9772
54.114
54.2598
54.3992
54.5484
54.6851
54.8461
54.9619
55.1604
55.2056
55.4717
13.0788
12.358
12.7412
12.8832
12.967
13.0168
13.0623
13.0939
13.1306
13.1574
13.1966
13.2236
13.265
13.2934
13.3389
13.3703
13.4208
13.4559
13.5117
13.5506
13.6117
13.6539
13.7208
13.7654
13.8388
13.8836
13.9653
14.0063
14.0995
14.1305
14.2407
14.2516
14.387
14.3611
14.5244
52.7832
51.7579
51.3202
51.2783
51.3466
51.3942
51.4079
51.4022
51.3891
51.375
51.3624
51.3515
51.3433
51.3365
51.3323
51.3285
51.3275
51.326
51.3275
51.3276
51.3314
51.3325
51.3385
51.3402
51.3491
51.3504
51.3633
51.363
51.3815
51.3791
51.4032
51.4017
51.4279
51.434
51.4582
52.5867
51.5747
51.1396
51.0913
51.1538
51.1961
51.2072
51.1985
51.1848
51.1691
51.1571
51.1455
51.1389
51.1316
51.13
51.1254
51.1282
51.1252
51.132
51.1295
51.14
51.1378
51.1517
51.1497
51.1668
51.1651
51.1853
51.1847
51.2067
51.2093
51.2308
51.2402
51.2564
51.276
51.2876
52.3671
51.3603
50.9262
50.8741
50.9322
50.9706
50.9788
50.968
50.9532
50.9367
50.9248
50.9133
50.9076
50.901
50.9007
50.8975
50.9017
50.9007
50.9087
50.9091
50.9206
50.9219
50.9367
50.9387
50.9569
50.9594
50.9814
50.9836
51.011
51.0114
51.0466
51.0431
51.0886
51.0778
51.1428
52.1144
51.1047
50.6739
50.6226
50.6789
50.714
50.7196
50.7063
50.6908
50.6733
50.6624
50.6509
50.6473
50.6412
50.6436
50.6413
50.6484
50.649
50.6595
50.6624
50.6759
50.6807
50.6972
50.7031
50.7234
50.7292
50.7547
50.7592
50.7912
50.7934
50.8322
50.8335
50.8752
50.881
50.9209
51.844
50.8526
50.4247
50.3646
50.4106
50.438
50.4382
50.4216
50.4039
50.3856
50.374
50.3632
50.3595
50.355
50.3576
50.3576
50.365
50.368
50.3795
50.3844
50.4001
50.4058
50.4261
50.432
50.4572
50.4625
50.4934
50.4976
50.5349
50.5376
50.581
50.5839
50.6306
50.6357
50.6876
51.5236
50.5345
50.1128
50.0522
50.0935
50.1153
50.1109
50.0913
50.0719
50.0531
50.0419
50.0318
50.0297
50.0265
50.0312
50.0327
50.0428
50.0472
50.0618
50.0682
50.0871
50.0947
50.1181
50.1261
50.1545
50.1623
50.1963
50.2031
50.2434
50.2489
50.2955
50.3002
50.3511
50.3565
50.4128
51.1696
50.1936
49.7765
49.7091
49.7402
49.753
49.7423
49.7187
49.6974
49.6779
49.6669
49.6576
49.6567
49.6549
49.6614
49.6644
49.6765
49.6826
49.6996
49.7076
49.7292
49.7384
49.7645
49.7745
49.8055
49.8157
49.8521
49.8618
49.9043
49.9129
49.9617
49.9695
50.0226
50.0309
50.09
50.7657
49.8042
49.3929
49.318
49.3373
49.3398
49.3217
49.294
49.2704
49.2504
49.2398
49.2316
49.2321
49.2321
49.2404
49.2455
49.2596
49.268
49.287
49.2976
49.321
49.3331
49.3612
49.3741
49.4074
49.4202
49.4596
49.4712
49.5176
49.5271
49.5807
49.5886
49.647
49.6544
49.7191
50.3251
49.3784
48.9731
48.8904
48.8966
48.8874
48.8612
48.829
48.8034
48.7833
48.7734
48.7668
48.7691
48.7712
48.7817
48.7889
48.8054
48.8159
48.8373
48.85
48.8761
48.8902
48.9212
48.936
48.9725
48.9871
49.0297
49.0432
49.0929
49.1044
49.1611
49.1711
49.2322
49.2418
49.309
49.8716
48.9497
48.5449
48.4466
48.4346
48.4115
48.3769
48.3406
48.3134
48.2935
48.2847
48.2798
48.284
48.2882
48.3007
48.3101
48.3287
48.3414
48.3649
48.3798
48.4081
48.4244
48.4578
48.4747
48.5138
48.5304
48.5759
48.5913
48.6441
48.6572
48.7172
48.7285
48.7929
48.8036
48.874
49.3498
48.4479
48.0479
47.9395
47.9116
47.8746
47.8309
47.7902
47.7616
47.7422
47.735
47.7323
47.7388
47.7456
47.7607
47.7728
47.7938
47.8091
47.8351
47.8525
47.8834
47.9021
47.9382
47.9574
47.9994
48.0183
48.0668
48.0842
48.1401
48.1552
48.2184
48.2316
48.2989
48.3115
48.3845
48.7893
47.9266
47.5169
47.3802
47.3246
47.2688
47.2153
47.171
47.1419
47.1243
47.1193
47.1196
47.1289
47.1387
47.1564
47.1714
47.195
47.213
47.2415
47.2614
47.295
47.3161
47.3549
47.3765
47.4213
47.4425
47.4941
47.5137
47.5728
47.5899
47.6564
47.6715
47.7418
47.7564
47.8318
48.1201
47.293
46.8805
46.7253
46.6467
46.5732
46.5096
46.4614
46.4319
46.4162
46.4139
46.4177
46.4303
46.4437
46.4647
46.4831
46.5098
46.531
46.5626
46.5855
46.622
46.646
46.6879
46.7122
46.7603
46.784
46.839
46.8609
46.9237
46.9428
47.0131
47.0303
47.1039
47.1208
47.1989
47.384
46.6132
46.1743
45.9756
45.8588
45.7621
45.6882
45.638
45.6101
45.5985
45.6003
45.609
45.6257
45.6436
45.6681
45.6904
45.7203
45.745
45.7795
45.8056
45.8451
45.872
45.9171
45.944
45.9954
46.0215
46.0803
46.1043
46.1711
46.1922
46.2665
46.2857
46.363
46.3823
46.4629
46.4841
45.7767
45.3134
45.0764
44.9236
44.8041
44.72
44.6679
44.642
44.6348
44.6411
44.6549
44.6758
44.6983
44.7265
44.7529
44.7859
44.8143
44.8519
44.8814
44.9239
44.954
45.0022
45.0322
45.0871
45.1159
45.1787
45.205
45.2764
45.2994
45.3787
45.3998
45.4818
45.5038
45.5886
45.4148
44.7866
44.275
43.9805
43.7816
43.6367
43.5436
43.4914
43.4691
43.4673
43.4787
43.4978
43.5229
43.5501
43.5813
43.6119
43.6474
43.6796
43.7195
43.7528
43.7978
43.8316
43.8827
43.9163
43.9746
44.0068
44.0736
44.103
44.1792
44.2048
44.2898
44.313
44.4009
44.425
44.5152
44.1001
43.5679
42.9759
42.5983
42.3372
42.1594
42.0547
42.0009
41.9817
41.984
41.9998
42.0233
42.052
42.0833
42.1177
42.1524
42.1908
42.2277
42.2702
42.3086
42.3563
42.3956
42.4497
42.489
42.551
42.5889
42.6602
42.695
42.7768
42.8072
42.8991
42.9262
43.0229
43.0507
43.1521
42.3715
41.8215
41.1163
40.6655
40.3557
40.1518
40.0391
39.9835
39.9685
39.9749
39.9975
40.026
40.0615
40.098
40.1388
40.1794
40.224
40.2679
40.3166
40.3633
40.4172
40.4662
40.5265
40.5766
40.6448
40.6942
40.772
40.8183
40.9073
40.9482
41.0488
41.0844
41.1924
41.2253
41.3406
39.7933
39.442
38.4703
37.8254
37.4174
37.1809
37.0766
37.0385
37.051
37.0792
37.1297
37.1786
37.2415
37.2976
37.3652
37.425
37.495
37.5575
37.6293
37.6943
37.768
37.8354
37.9116
37.9808
38.0607
38.1301
38.2158
38.2831
38.3771
38.439
38.5436
38.5985
38.7136
38.763
38.8938
35.627
38.2627
37.0517
35.8411
35.0303
34.5623
34.3387
34.2392
34.229
34.2504
34.3132
34.3751
34.4635
34.5376
34.6339
34.7097
34.8069
34.8808
34.9759
35.047
35.1379
35.2071
35.2941
35.3639
35.448
35.5203
35.6027
35.677
35.7608
35.832
35.9262
35.9801
36.1044
36.1158
36.287
14.3882
13.784
14.2555
14.4353
14.5281
14.5734
14.6112
14.6326
14.663
14.6811
14.7143
14.7342
14.7719
14.7948
14.8382
14.8653
14.9149
14.9465
15.0022
15.0381
15.0998
15.1394
15.2073
15.2495
15.3243
15.3668
15.4501
15.4889
15.5837
15.6129
15.7243
15.7346
15.8695
15.8469
16.0058
37.6296
37.2292
36.9731
36.8769
36.877
36.8996
36.9143
36.9173
36.9125
36.9041
36.8951
36.8859
36.8784
36.871
36.866
36.8605
36.858
36.854
36.8536
36.8506
36.8521
36.8495
36.8529
36.85
36.8558
36.8514
36.8608
36.8537
36.8673
36.8578
36.8738
36.8658
36.8795
36.8799
36.8845