/*--------------------------------*- C++ -*----------------------------------*\
  =========                 |
  \\      /  F ield         | OpenFOAM: The Open Source CFD Toolbox
   \\    /   O peration     | Website:  https://openfoam.org
    \\  /    A nd           | Version:  6
     \\/     M anipulation  |
\*---------------------------------------------------------------------------*/
FoamFile
{
    version     2.0;
    format      ascii;
    class       volScalarField;
    location    "31";
    object      yPlus;
}
// * * * * * * * * * * * * * * * * * * * * * * * * * * * * * * * * * * * * * //

dimensions      [0 0 0 0 0 0 0];

internalField   uniform 0;

boundaryField
{
    inlet
    {
        type            calculated;
        value           uniform 0;
    }
    outlet
    {
        type            calculated;
        value           uniform 0;
    }
    roughCylinder
    {
        type            calculated;
        value           nonuniform List<scalar> 
3840
(
7.83029
29.606
40.3197
43.3112
46.0179
46.5008
47.3296
47.2769
47.3995
46.9832
46.9312
46.9078
46.2712
45.6453
44.4596
43.9597
43.4326
44.2477
42.1587
43.4079
42.7656
42.1038
41.8022
41.048
16.8401
29.1929
39.9865
43.1151
45.7908
46.2852
47.0885
46.9698
47.183
46.89
46.975
46.9552
46.3608
45.7163
44.6974
44.1564
43.7527
44.4775
42.5996
43.8945
43.2963
42.7409
42.4219
41.721
17.8724
28.7209
39.5524
42.893
45.618
46.2313
47.0474
47.0405
47.2465
46.9512
46.971
46.9966
46.4027
45.9033
45.1523
44.6313
44.2962
44.8957
43.1761
44.2118
43.6611
43.1666
42.8587
42.2218
13.1076
28.0241
39.1253
42.6724
45.4077
46.0576
46.8976
46.8814
47.1699
46.9739
47.0881
47.0713
46.5423
46.1076
45.5396
45.0149
44.6629
45.211
43.767
44.7392
44.2746
43.8727
43.542
42.9604
11.1148
27.3111
38.5993
42.3881
45.1969
46.0356
46.9415
47.072
47.414
47.1961
47.1868
47.1666
46.6842
46.4428
46.1037
45.6165
45.2219
45.6899
44.4437
45.081
44.712
44.3613
44.0475
43.5355
12.8998
26.4812
37.9782
42.0777
44.9913
45.9151
46.8766
47.0485
47.4263
47.265
47.3484
47.2957
46.9342
46.7836
46.5382
46.0348
45.5967
46.0716
45.124
45.6435
45.3917
45.1073
44.7736
44.3181
8.07258
25.5633
37.2972
41.7018
44.73
45.9021
46.9901
47.2993
47.7551
47.5926
47.5508
47.4895
47.2103
47.2314
47.1083
46.6097
46.1638
46.5896
45.8321
46.0129
45.8734
45.6277
45.3197
44.9382
3.10088
24.4071
36.3733
41.2051
44.4808
45.8082
46.9479
47.3361
47.798
47.6702
47.7494
47.6955
47.5604
47.6402
47.51
46.9583
46.5517
47.014
46.5479
46.6178
46.5975
46.394
46.0714
45.7459
8.61258
23.3048
35.4373
40.6561
44.105
45.7202
47.0653
47.5783
48.139
48.0741
48.0499
47.9977
47.9337
48.1297
48.0407
47.4676
47.1407
47.5534
47.2397
47.0227
47.0933
46.9213
46.6311
46.3798
11.2489
21.8693
34.0449
39.7947
43.6801
45.5729
46.9554
47.5863
48.1633
48.1223
48.2506
48.2421
48.3143
48.5252
48.3814
47.7538
47.5389
47.9921
47.94
47.6585
47.823
47.678
47.3788
47.179
13.5025
20.6186
32.7106
38.9124
43.0523
45.2697
46.9824
47.7531
48.4473
48.5513
48.6123
48.6139
48.7137
48.9846
48.8587
48.232
48.13
48.5214
48.559
48.075
48.2828
48.1698
47.9088
47.7778
15.1186
19.0232
30.6225
37.3907
42.2241
44.9452
46.6985
47.6371
48.3909
48.5046
48.7462
48.8233
49.0438
49.2963
49.1234
48.4919
48.4996
48.9317
49.1866
48.7033
48.9693
48.8739
48.6089
48.5198
16.7353
17.5712
28.7239
35.9314
41.1043
44.2011
46.5117
47.6577
48.5426
48.8857
49.1056
49.2033
49.4053
49.6772
49.5403
48.9679
49.0487
49.4073
49.6638
49.0716
49.3212
49.2619
49.0404
49.0084
19.9995
16.1552
25.6199
33.2288
39.4523
43.4951
45.878
47.2937
48.3403
48.665
49.071
49.2742
49.5977
49.8413
49.6913
49.1821
49.3215
49.7197
50.1425
49.6177
49.9029
49.8613
49.6428
49.6419
22.3094
15.2219
23.1261
30.848
37.3719
41.8175
45.252
47.0449
48.2678
48.9411
49.3838
49.5942
49.8484
50.0906
50.0095
49.6146
49.7695
50.1008
50.4339
49.8859
50.1049
50.103
49.9349
49.9744
23.8777
14.2069
18.4363
25.769
33.8633
40.3164
43.8458
46.1656
47.7953
48.4724
49.1003
49.4496
49.8467
50.0708
50.0069
49.7239
49.913
50.2758
50.7357
50.3165
50.5591
50.5595
50.3983
50.4509
26.1159
13.4873
15.6258
22.0819
29.7615
36.1574
42.2488
45.3564
47.2691
48.5162
49.2953
49.6703
49.9751
50.1862
50.2156
50.0764
50.2434
50.5106
50.755
50.372
50.4856
50.5214
50.423
50.4951
28.1336
12.9971
12.7235
14.2493
18.6656
32.9234
38.6742
43.2667
46.2224
47.5563
48.5722
49.149
49.647
49.8882
49.9562
49.9294
50.1256
50.386
50.7364
50.5626
50.6984
50.7091
50.6183
50.682
28.5242
11.9544
12.1498
4.11833
7.63035
11.0084
34.4907
41.1148
44.6832
47.0765
48.4425
49.1109
49.5247
49.7605
49.9289
50.0472
50.2205
50.3292
50.2625
50.1001
49.9623
49.9494
49.9144
49.9537
27.724
10.9219
2.00751
7.23527
5.11739
6.78976
17.0953
35.5106
42.3814
45.0418
46.7735
47.7762
48.4971
48.8509
49.0455
49.1814
49.37
49.3546
49.4477
49.6101
49.4999
49.4204
49.3742
49.373
26.184
10.0844
12.1527
5.19574
8.85995
8.06115
5.7132
29.7629
38.2802
43.411
45.8951
47.0586
47.7154
48.066
48.3388
48.6184
48.7817
48.4924
47.6703
47.6091
46.7782
46.3892
46.2879
46.1198
24.194
8.83312
12.4728
7.5524
6.29451
9.9928
7.95425
10.453
33.9419
38.6411
41.6638
43.6028
44.834
45.4353
45.6485
45.6286
45.5893
44.7183
44.3523
44.9047
44.1307
43.5972
43.3058
42.9965
20.8534
9.55456
8.2215
6.67105
13.4412
7.19602
9.91579
4.50759
21.8143
33.4324
38.9576
40.8934
42.0305
42.5645
42.7606
42.9405
42.7336
41.2009
37.2742
34.9208
29.4265
24.034
19.5875
15.0197
17.4987
6.01414
11.7074
11.209
12.4014
9.3216
13.1168
9.14968
16.5373
9.7407
13.3138
25.1487
29.6712
31.2158
30.6315
27.333
21.7388
21.7452
20.9306
13.1113
10.251
10.0126
14.1954
7.0551
10.9786
3.48379
8.79911
16.8785
23.7565
24.0851
17.8538
11.6421
12.8635
9.94008
15.7572
17.4335
13.8924
14.6003
15.0863
8.83099
6.33089
17.3313
17.5574
14.913
16.388
11.7224
9.61336
9.15299
10.6947
8.75542
9.92534
15.6483
23.8346
28.3949
29.5679
26.0672
15.2981
9.99787
9.84055
8.68706
8.79924
4.07327
2.31315
7.54918
2.75238
17.6535
14.276
13.8075
16.0592
20.18
22.7042
23.3171
5.73833
12.9577
13.2617
14.3456
20.9035
26.7689
29.3895
29.572
29.422
27.1941
26.6425
25.5728
22.817
19.4321
17.6237
18.0843
21.5116
24.1532
26.0601
28.566
29.4128
28.9569
28.5481
28.3016
9.80733
17.7401
20.2329
20.3722
22.7929
26.6383
29.6497
30.7658
29.0064
27.1012
27.8315
28.7222
29.5356
29.8531
29.6435
29.7716
29.4051
29.3265
28.9219
28.6352
28.9004
28.5987
28.3093
27.8902
7.49807
16.3216
21.4043
24.0988
25.719
27.6965
29.6821
30.4672
28.454
23.8946
24.204
26.0507
28.0709
28.9915
29.063
29.1045
29.0977
29.1262
28.5288
28.4038
27.8163
26.1927
24.5323
23.4855
3.01674
10.9143
17.0416
22.1463
24.9902
26.5439
27.1949
25.6069
18.3187
9.3305
5.56855
8.4942
18.8615
24.7618
27.1672
27.7596
27.0652
25.8493
24.0671
23.2451
22.1625
20.8137
19.8033
19.2276
3.48673
8.53703
9.42692
15.5701
19.3224
21.0479
20.6717
17.4377
9.00099
9.32352
14.0987
18.3294
16.1946
17.5361
20.5837
22.2039
22.556
22.2812
22.0464
22.0478
21.9235
21.5058
21.0111
20.7076
3.92466
8.21586
7.93232
11.1354
11.511
11.3731
7.62956
10.3452
8.96473
10.4163
13.7754
15.9586
21.5295
22.9741
23.2181
23.5207
23.4155
22.8689
22.1031
21.5718
20.8715
20.001
19.3762
19.0138
3.44481
11.6728
14.9307
15.7783
14.9564
13.4139
8.86378
10.6765
11.9013
15.6736
16.5732
15.8159
14.1749
17.8721
20.5738
21.4409
21.2496
20.6936
20.2527
20.0534
19.778
19.4868
19.2291
19.0702
4.08096
11.9777
15.1892
17.5384
18.7684
18.1156
17.3269
15.3189
15.8287
15.8492
16.4601
18.7156
20.6902
20.519
20.6345
20.8659
20.8386
20.6541
20.4158
20.2419
19.9773
19.6573
19.4099
19.2547
3.13222
10.4123
13.279
15.7446
17.2276
17.9463
17.4353
17.1714
17.2569
18.0891
18.6586
18.1154
18.3572
20.0316
21.0172
21.3049
21.1908
20.9226
20.7332
20.6367
20.488
20.3048
20.1298
20.0006
3.37797
9.90191
12.2271
14.3106
15.6414
15.8108
15.7371
16.3863
17.9266
18.9332
19.6718
20.9436
21.635
21.6879
21.872
21.9712
21.8755
21.6955
21.5402
21.4548
21.2989
21.0968
20.9097
20.7779
4.24696
11.617
12.1312
13.2253
13.8898
15.0344
16.714
18.6279
20.1454
21.0247
21.466
21.4111
21.8387
22.582
22.9822
23.0591
22.9327
22.7305
22.5844
22.5259
22.4222
22.2675
22.0989
21.9702
3.17043
11.4541
11.7317
12.4491
14.0058
16.1211
18.335
20.2262
21.3993
22.1779
22.92
23.7592
24.1505
24.2964
24.4246
24.4445
24.3364
24.1757
24.0611
24.018
23.9288
23.7799
23.6061
23.4761
1.47627
10.1415
11.8455
13.6055
15.8048
18.1084
20.1227
21.6329
22.9875
24.1418
24.8821
25.199
25.5784
25.9611
26.162
26.19
26.0991
25.9637
25.8719
25.8481
25.7865
25.6553
25.4815
25.3507
2.64883
10.1492
11.7293
14.1225
16.8743
19.4653
21.6777
23.572
25.0113
26.0159
26.7682
27.4027
27.7669
27.9865
28.1401
28.1911
28.1473
28.0628
28.0108
28.0107
27.9745
27.8564
27.6803
27.5489
2.68408
2.24543
2.66659
3.32183
3.93049
4.42072
4.79489
5.44333
5.96902
6.36924
6.69801
6.99011
7.27312
7.57224
7.91057
8.30772
8.68171
9.15339
9.82072
11.0865
11.4556
11.5811
11.8968
11.6139
11.7582
11.9064
12.115
12.0355
11.9564
11.6728
11.4653
11.4921
11.3588
9.43324
6.85264
4.51895
2.89057
1.6143
1.12833
1.13649
8.29335
7.12635
8.021
9.56973
10.8973
11.4632
11.605
12.4342
13.1752
13.7625
14.2622
14.7025
15.1001
15.4668
15.805
16.1264
16.4827
16.8543
17.1975
17.5283
17.8121
18.0667
18.3014
18.4984
18.6872
18.831
18.9525
18.9895
18.9771
18.8511
18.621
18.2218
17.7534
16.9709
15.9561
14.5492
13.0435
11.7752
11.4303
11.4092
10.287
9.55526
10.5979
11.5213
12.2553
13.4321
14.3108
15.2496
16.0477
16.7215
17.309
17.8333
18.3057
18.7341
19.1201
19.4761
19.8515
20.2106
20.5458
20.8664
21.1502
21.3958
21.6079
21.7855
21.9299
22.0305
22.0861
22.0871
22.032
21.8991
21.6857
21.3455
20.9073
20.2686
19.5079
18.4308
17.1953
15.704
14.0731
13.4311
11.453
11.5009
11.5013
13.1637
14.64
15.9635
17.096
18.0807
18.9205
19.6539
20.304
20.8881
21.414
21.8859
22.3049
22.6846
23.0384
23.3563
23.6571
23.9459
24.2086
24.441
24.6225
24.755
24.84
24.8749
24.8623
24.8006
24.6834
24.498
24.2389
23.8846
23.4283
22.8393
22.1102
21.2147
20.0946
18.8648
17.2511
16.0888
11.5653
11.8741
14.0865
15.9398
17.4304
18.7535
19.8617
20.819
21.6585
22.4082
23.0835
23.6953
24.247
24.7381
25.165
25.5481
25.898
26.2126
26.495
26.7402
26.9617
27.158
27.3078
27.396
27.4256
27.3999
27.324
27.1981
27.0204
26.7894
26.4929
26.1223
25.655
25.0935
24.3893
23.5825
22.5644
21.475
20.0896
18.8747
12.782
15.2101
17.2597
18.8655
20.2551
21.4369
22.4626
23.3727
24.1925
24.9387
25.6205
26.2421
26.8024
27.2928
27.6998
28.0611
28.3925
28.693
28.962
29.2004
29.4069
29.5754
29.6893
29.7358
29.7132
29.6292
29.4915
29.3045
29.0703
28.7874
28.4519
28.0569
27.585
27.0276
26.361
25.5954
24.6756
23.6912
22.4596
21.4068
16.6816
18.6353
20.2851
21.6593
22.8562
23.9039
24.8507
25.7126
26.5066
27.2405
27.9176
28.5367
29.0899
29.5473
29.8767
30.1573
30.4306
30.6987
30.9588
31.2139
31.4702
31.6893
31.7887
31.7985
31.7299
31.5935
31.3996
31.1576
30.8707
30.5414
30.168
29.7419
29.2615
28.6972
28.0537
27.314
26.4471
25.5629
24.3954
23.517
20.1998
21.6365
23.0028
24.133
25.1791
26.1221
27.0016
27.8194
28.5857
29.3015
29.9658
30.5712
31.0966
31.418
31.6894
31.9594
32.2271
32.4904
32.7426
32.9998
33.221
33.5035
33.6219
33.5993
33.4865
33.3028
33.06
32.7696
32.4381
32.0678
31.6617
31.209
30.7141
30.147
29.5064
28.7914
27.944
27.123
26.0231
25.1646
23.065
24.17
25.3034
26.2717
27.2074
28.0726
28.8975
29.6772
30.4165
31.1118
31.7574
32.3403
32.8269
33.0783
33.3256
33.5858
33.8471
34.1043
34.3494
34.5954
34.8162
35.1031
35.2104
35.156
34.9961
34.7672
34.4819
34.1503
33.7805
33.3768
32.941
32.4682
31.9543
31.3878
30.7392
30.0433
29.2039
28.4069
27.3705
26.4961
25.3372
26.2258
27.2142
28.0793
28.9385
29.7495
30.5342
31.2847
32.0012
32.6766
33.3013
33.8609
34.3342
34.5907
34.8158
35.0583
35.3071
35.5548
35.7923
36.0297
36.2545
36.5373
36.5772
36.4744
36.2755
36.0042
35.6827
35.3177
34.916
34.484
34.0221
33.5304
32.9974
32.4237
31.764
31.0679
30.233
29.4366
28.4233
27.5853
27.1024
27.867
28.77
29.5729
30.3853
31.1635
31.9238
32.6564
33.3574
34.016
34.617
35.143
35.5889
35.9672
36.1859
36.4041
36.6336
36.8666
37.1019
37.3176
37.6114
37.7352
37.709
37.5683
37.3396
37.043
36.6918
36.3018
35.8758
35.4203
34.9352
34.4231
33.8696
33.2758
32.5959
31.8805
31.0371
30.2253
29.2099
28.3902
28.4595
29.1504
30.0096
30.7813
31.5729
32.3383
33.0905
33.8182
34.5144
35.1647
35.7483
36.2421
36.6505
37.0253
37.3805
37.6535
37.8716
38.0912
38.3317
38.5258
38.6476
38.7017
38.6485
38.4915
38.2475
37.9343
37.566
37.154
36.7088
36.2332
35.7258
35.1901
34.6097
33.9807
33.2709
32.5163
31.6579
30.7973
29.8032
28.9016
29.4774
30.13
30.9738
31.7398
32.5314
33.3019
34.0616
34.798
35.5025
36.1588
36.7424
37.2246
37.6058
37.947
38.2666
38.5566
38.8136
39.0344
39.2184
39.3669
39.4825
39.5363
39.4807
39.3177
39.0644
38.7391
38.3569
37.9299
37.4645
36.9702
36.4408
35.8784
35.2615
34.5897
33.8357
33.0366
32.1353
31.2415
30.208
29.3105
30.2145
30.8582
31.7056
32.4857
33.293
34.0828
34.8621
35.6187
36.3435
37.0207
37.6254
38.125
38.4997
38.8217
39.1162
39.3841
39.6238
39.8334
40.0144
40.1685
40.3031
40.3536
40.2867
40.1101
39.843
39.5036
39.1069
38.6641
38.1824
37.6653
37.1121
36.5184
35.8582
35.1377
34.3317
33.4824
32.5258
31.5973
30.5016
29.6354
30.7291
31.3862
32.2514
33.0583
33.8916
34.7096
35.5158
36.2989
37.05
37.7548
38.3914
38.9277
39.3329
39.6556
39.9365
40.1885
40.4158
40.6202
40.8058
40.9724
41.1154
41.1496
41.062
40.8669
40.5836
40.2299
39.8192
39.3617
38.8633
38.3264
37.7465
37.115
36.4116
35.6413
34.7816
33.8746
32.8604
31.8818
30.7333
29.8545
31.073
31.7608
32.6549
33.4957
34.3599
35.2089
36.0439
36.8543
37.6316
38.3642
39.0346
39.6174
40.0834
40.4286
40.7093
40.9541
41.1761
41.3826
41.5783
41.7647
41.8797
41.8796
41.765
41.5511
41.255
40.8912
40.4712
40.003
39.491
38.9356
38.3309
37.6624
36.9131
36.0904
35.1751
34.2073
33.1319
32.0897
30.8811
29.9586
31.2805
32.012
32.9423
33.8202
34.7162
35.5951
36.4568
37.291
38.0903
38.845
39.5424
40.1642
40.6896
41.0968
41.4059
41.6609
41.8893
42.1065
42.3171
42.4912
42.5642
42.5247
42.3817
42.1497
41.8426
41.4717
41.0455
40.5697
40.0465
39.4745
38.8431
38.1376
37.3449
36.4726
35.503
34.4745
33.3373
32.2283
30.9559
29.9753
31.3626
32.1436
33.1127
34.0276
34.9536
35.8592
36.7436
37.5973
38.4136
39.1844
39.9004
40.5498
41.1202
41.5973
41.976
42.2784
42.54
42.7808
42.9805
43.1003
43.1237
43.0506
42.8887
42.6477
42.3372
41.9652
41.5375
41.058
40.5264
39.9393
39.2825
38.5431
37.7106
36.7917
35.7717
34.6865
33.4918
32.3203
30.989
29.9507
31.3213
32.146
33.148
34.0946
35.0457
35.9738
36.8769
37.747
38.5776
39.362
40.0935
40.7643
41.3681
41.8934
42.3344
42.7016
43.0065
43.2523
43.4292
43.5219
43.5257
43.4435
43.2808
43.0444
42.7409
42.3758
41.9531
41.4747
40.9391
40.3407
39.6624
38.8939
38.0272
37.0683
36.0052
34.8719
33.63
32.4069
31.0293
29.9452
31.1316
31.9891
33.0145
33.9864
34.9575
35.9044
36.8242
37.7097
38.5549
39.3536
40.1002
40.7908
41.4214
41.9841
42.4724
42.8844
43.2213
43.4799
43.6564
43.7498
43.7608
43.6919
43.546
43.3277
43.0414
42.6913
42.2801
41.8083
41.2737
40.6691
39.9752
39.1848
38.2918
37.3023
36.2065
35.037
33.7606
32.5
31.091
29.9764
30.8026
31.6687
32.6992
33.6843
34.6663
35.6259
36.559
37.4589
38.3196
39.135
39.8998
40.6113
41.2645
41.8516
42.3681
42.8103
43.1751
43.4602
43.6639
43.786
43.8265
43.787
43.6694
43.4775
43.2151
42.8852
42.4901
42.0294
41.4999
40.8936
40.1906
39.3854
38.4741
37.4625
36.3427
35.1458
33.8427
32.5516
31.116
29.9712
30.2958
31.1574
32.1817
33.1727
34.1611
35.1296
36.0735
36.986
37.8613
38.6937
39.4786
40.2123
40.8883
41.5004
42.0444
42.5161
42.9121
43.2297
43.4669
43.6228
43.697
43.6901
43.6035
43.4402
43.2035
42.8958
42.5183
42.0704
41.5475
40.941
40.2333
39.4193
38.4956
37.4687
36.3324
35.1172
33.7971
32.4865
31.0353
29.8709
29.6823
30.5311
31.5413
32.532
33.5225
34.4969
35.4486
36.3713
37.2588
38.106
38.9091
39.6627
40.3599
40.996
41.5662
42.0662
42.4923
42.8414
43.111
43.2994
43.406
43.4306
43.374
43.2388
43.0275
42.7419
42.383
41.9493
41.4355
40.8318
40.1236
39.3065
38.3772
37.3426
36.1976
34.9728
33.6447
32.325
30.8689
29.6968
29.226
30.0493
31.0342
32.0119
32.9944
33.9655
34.9178
35.8442
36.7386
37.5962
38.412
39.1804
39.8949
40.5506
41.1426
41.6661
42.1171
42.4919
42.7881
43.0031
43.136
43.1863
43.1542
43.0418
42.8515
42.5848
42.242
41.8216
41.3178
40.7207
40.0167
39.2018
38.2731
37.2372
36.0901
34.8617
33.5302
32.205
30.7457
29.567
13.5311
27.3538
38.7741
41.8071
44.6271
45.1883
45.9862
45.9158
46.0259
45.6067
45.4625
45.4286
45.4612
44.5985
43.2693
42.6992
41.1198
42.4767
42.2812
41.6238
41.7322
40.9675
40.4517
39.7311
5.8562
26.3689
38.3856
41.4702
44.3664
44.8632
45.7513
45.6396
45.9067
45.5491
45.4765
45.4675
45.6557
44.8584
43.4025
43.03
41.6334
43.1379
42.5443
41.9528
41.9591
41.309
40.7615
40.125
15.9536
26.2251
37.771
41.1162
43.984
44.7208
45.5532
45.5656
45.6341
45.1507
45.1432
45.4586
45.8119
44.9882
43.3765
43.1771
41.9259
43.4801
42.6797
42.4358
42.465
41.9675
41.4281
40.8628
12.8081
24.9378
37.3099
40.8105
43.7904
44.4886
45.4896
45.4359
45.7175
45.37
45.4563
45.6889
46.0418
45.2298
43.5867
43.6022
42.4992
44.0489
43.0423
42.8611
42.7893
42.3695
41.8223
41.3367
14.5159
24.7423
36.6427
40.4346
43.4165
44.4369
45.3705
45.5814
45.7205
45.2574
45.3378
45.7898
46.1799
45.3249
43.7024
43.8332
42.8408
44.295
43.294
43.4046
43.3741
43.0712
42.5542
42.1308
15.8847
23.1666
36.0354
40.1209
43.2754
44.2511
45.4488
45.538
45.911
45.6852
45.8817
46.1322
46.3704
45.53
44.0788
44.3168
43.4558
44.7938
43.8016
43.8984
43.7742
43.5108
43.0048
42.6483
3.9693
22.8306
35.2115
39.6489
42.857
44.2563
45.3047
45.7589
46.0609
45.7269
45.8689
46.2619
46.4756
45.6425
44.3774
44.5987
43.8411
45.0021
44.1593
44.4664
44.4067
44.2333
43.7754
43.4698
9.86913
20.8166
34.3024
39.1934
42.6804
43.9981
45.4475
45.7196
46.2218
46.2094
46.5008
46.6417
46.6592
45.8878
44.8999
45.1181
44.5053
45.5175
44.7743
45.008
44.8595
44.6935
44.2565
44.0025
11.8811
20.1562
33.1399
38.4517
42.0883
44.0041
45.1875
45.8942
46.4065
46.2592
46.456
46.7476
46.7839
46.0923
45.3251
45.4459
44.9365
45.764
45.1788
45.5735
45.5119
45.4205
45.0422
44.8287
12.2054
18.1426
31.7097
37.6345
41.7138
43.4969
45.304
45.8109
46.448
46.6836
47.0739
47.1164
46.9977
46.4077
45.9025
45.9947
45.6379
46.3481
45.8414
46.1347
45.9775
45.8695
45.5119
45.3353
12.7995
15.156
29.9526
36.3429
40.7289
43.4192
44.8445
45.8489
46.6041
46.6445
46.9073
47.1687
47.1613
46.6923
46.3501
46.3464
46.0687
46.629
46.221
46.647
46.6026
46.5671
46.2748
46.1326
13.4342
15.8265
27.6055
34.8654
39.9253
42.4225
44.8208
45.6752
46.4599
46.9556
47.473
47.5002
47.387
47.0222
46.8762
46.8882
46.7509
47.2526
46.8813
47.1886
47.0255
46.9529
46.6704
46.5513
15.2211
7.34529
25.312
32.6035
38.1885
42.112
44.0147
45.4673
46.5454
46.7601
47.1174
47.4635
47.5527
47.3155
47.2558
47.2083
47.0987
47.4829
47.1587
47.5711
47.552
47.5611
47.3501
47.2651
16.5393
0.181638
20.5362
29.9833
36.549
40.2044
43.6782
45.1127
46.1278
46.9335
47.62
47.7126
47.7048
47.5515
47.6346
47.6625
47.6749
48.0549
47.7574
48.0355
47.8611
47.8214
47.6021
47.5305
18.0566
13.1581
18.8849
25.9699
33.3504
39.3701
42.1711
44.4363
46.08
46.512
47.0152
47.5305
47.7834
47.753
47.858
47.8501
47.8442
48.1201
47.8573
48.2361
48.245
48.3111
48.1764
48.144
18.8975
6.99656
5.9381
21.1202
29.8456
35.4865
41.1576
43.6803
45.1696
46.5157
47.461
47.658
47.7855
47.7981
48.0329
48.1616
48.2839
48.5916
48.3808
48.6173
48.3933
48.3588
48.181
48.1505
18.6276
7.15051
9.22078
9.50267
22.8121
33.3754
37.987
41.9831
44.8179
45.6423
46.4372
47.2509
47.7244
47.8795
48.0767
48.1569
48.1843
48.3357
48.1464
48.4723
48.4862
48.6246
48.5618
48.5843
18.2191
10.1116
12.1701
6.95568
12.9955
22.8224
35.1884
40.2814
42.8247
45.3126
46.7441
47.0911
47.3822
47.5605
47.9263
48.171
48.3871
48.6036
48.516
48.7114
48.344
48.2283
48.0237
48.014
17.0605
3.54115
6.50802
11.9524
12.3565
8.09275
26.5341
35.9187
41.8326
43.3918
44.8109
46.2035
47.0235
47.4216
47.668
47.7926
47.7676
47.6632
47.4782
47.6656
47.6274
47.8404
47.821
47.9062
13.6112
4.54388
5.72486
8.99098
12.6806
12.1899
3.1117
31.8003
37.0503
42.3471
44.7325
45.2774
45.7717
46.1516
46.6672
46.9974
47.3141
47.3521
47.3642
47.5129
46.7672
46.2555
45.8024
45.7221
11.3266
9.7092
11.7566
12.7576
10.117
13.1817
13.6475
16.8979
34.9919
37.6947
40.4853
43.2248
44.7379
45.5197
45.7479
45.7088
45.4038
44.689
44.071
43.6726
43.4493
43.7167
43.6516
43.8243
11.9449
8.70689
11.9634
7.72856
3.752
8.9138
8.24062
15.1577
20.2752
34.5268
39.4284
40.0478
40.7587
41.3943
42.0969
42.4826
42.8706
42.547
42.4557
42.5233
40.5232
37.7624
35.5073
34.0591
3.61876
5.64082
3.91814
14.3857
19.3451
14.8777
8.4265
1.41928
15.0727
13.7606
24.0003
34.076
38.054
39.695
39.5853
38.0261
36.0681
32.653
27.0769
18.5434
11.8668
7.77385
20.3077
15.0302
6.65254
10.6513
5.47332
11.655
19.3125
21.9614
19.7626
14.8662
15.5932
9.3228
10.7729
18.3707
10.8351
13.9572
14.1932
17.6798
14.1581
14.167
15.8614
17.8463
17.6888
6.59403
16.8192
15.2285
11.5902
14.6152
12.6761
13.5062
18.2388
21.9748
22.2105
17.1571
16.4161
17.6675
13.5775
5.16787
9.88815
15.7881
12.1102
13.3776
16.6928
14.2473
11.8761
11.4791
18.1541
20.3596
9.95858
12.6932
13.7991
19.4589
20.3327
20.8992
22.6362
24.4965
24.4085
21.9885
22.4009
22.6459
20.2258
15.1319
18.6978
18.1486
14.7899
11.4461
4.4921
11.0406
16.7494
19.9944
23.6944
25.9324
26.1306
25.9889
14.6627
21.7131
24.089
25.405
26.2572
26.6214
25.7753
24.6368
24.8799
25.0531
25.7388
26.479
26.3955
24.5583
23.4241
24.0089
25.8158
26.5404
26.9008
27.8645
27.5159
27.2657
27.1905
27.0088
13.6484
21.9309
25.0312
26.8554
27.6772
27.5843
26.605
25.4599
24.639
24.3072
26.2908
27.9202
27.9726
27.7145
27.4381
27.3396
27.4768
27.911
28.321
29.005
28.462
27.6221
26.575
25.6567
11.7814
21.0478
24.6158
26.7704
27.753
27.5457
26.0569
22.9271
18.2435
12.672
17.8211
24.1636
27.3545
28.3926
28.4649
28.3242
28.0836
27.887
27.2547
26.7468
25.0191
23.1347
21.5007
20.3543
9.65379
19.55
23.4846
25.8985
27.0961
27.0093
25.5322
22.9221
19.873
17.7611
16.3192
17.0345
20.6097
23.4392
24.6851
24.8227
24.4903
24.1687
23.5937
23.0642
22.2047
21.3145
20.3864
19.7752
7.58066
17.8822
22.0543
24.6601
26.0583
26.1657
24.8948
22.4194
18.0103
12.1366
12.8418
18.0427
20.8057
22.2164
22.9462
23.2249
23.2135
23.1159
22.7532
22.1379
21.106
20.0967
19.2343
18.7232
6.02559
16.1752
20.4105
23.0818
24.5364
24.6595
23.3234
20.6335
16.0033
13.6212
14.917
16.6554
19.1747
21.1985
22.1898
22.3751
22.0878
21.6489
21.0739
20.5413
19.9387
19.3442
18.753
18.4038
4.81804
14.2279
18.3217
20.9488
22.3639
22.489
21.4042
19.1196
14.8069
11.6678
13.1605
16.6052
19.0465
20.6053
21.3256
21.4208
21.1739
20.8285
20.4193
20.0208
19.633
19.246
18.8306
18.5734
4.06558
12.3997
16.0923
18.6277
20.1279
20.6393
20.2936
17.9007
13.1865
13.0166
15.9778
17.9067
19.4066
20.5809
21.2642
21.4336
21.2696
20.9758
20.6762
20.4074
20.193
19.9128
19.5566
19.3324
3.9546
11.5507
14.8036
17.2526
19.0175
20.0049
19.5423
15.7929
12.2482
13.7961
16.428
18.7634
20.4389
21.5183
22.0802
22.2151
22.07
21.7991
21.5218
21.2573
21.0495
20.7776
20.4279
20.2025
4.26408
11.5273
14.6081
17.085
18.9268
19.6287
17.7276
13.1253
12.4839
15.7321
18.5952
20.407
21.6476
22.5396
23.0722
23.2474
23.1564
22.9223
22.6632
22.4002
22.1859
21.8944
21.5227
21.284
4.54113
11.6214
14.6133
16.9959
18.4535
18.0113
14.4935
11.6532
14.2958
17.6581
20.0482
21.789
23.0429
23.8897
24.381
24.5644
24.514
24.3207
24.0808
23.8136
23.5712
23.24
22.8295
22.5628
4.45588
11.521
14.2569
16.2331
16.8177
14.9617
11.7832
12.8029
16.5745
19.701
21.9491
23.5074
24.5981
25.3583
25.8351
26.0591
26.0782
25.9513
25.7487
25.4834
25.207
24.8246
24.3616
24.0536
4.26131
11.4424
13.3356
14.5684
14.0384
11.9316
11.63
15.1673
18.9209
21.7065
23.7213
25.2015
26.2748
27.0181
27.4926
27.749
27.8301
27.7727
27.6189
27.3678
27.0607
26.6259
26.1059
25.7478
3.46854
10.1131
11.5792
12.1863
11.5851
11.5967
14.0109
17.9832
21.2288
23.7246
25.6173
27.0274
28.0586
28.7915
29.2847
29.5863
29.7338
29.749
29.6516
29.4273
29.1017
28.6219
28.0471
27.6352
8.88056
15.3506
16.3384
10.6212
6.78887
9.65364
6.89909
9.7264
12.4143
12.5505
11.5692
8.61659
10.0245
7.40827
3.9065
6.82109
1.7274
5.97743
5.36693
5.56554
2.33934
1.24543
6.81615
4.37465
8.45479
7.10707
10.1848
8.69971
11.6671
12.462
12.6469
10.0349
5.26402
12.5675
8.38466
7.29673
16.5689
12.7797
6.82057
17.5454
27.1119
25.4549
24.5712
22.5486
21.816
19.7416
18.9368
16.9162
16.0921
14.3129
13.8157
12.1105
11.9531
12.0648
11.4404
10.5433
8.54674
8.05488
5.41149
6.61802
9.73444
8.07771
10.435
11.0098
11.7026
11.9197
11.9018
12.9641
13.768
15.0699
15.8387
17.5783
18.4685
20.5049
21.2286
23.791
24.3971
26.729
27.3811
29.5333
38.8027
37.2296
36.5476
35.0295
34.2342
32.8353
31.9703
30.7511
29.8731
28.792
27.9148
27.0602
26.2664
25.5832
25.0809
24.7585
24.4712
24.2987
24.0913
24.1841
23.9745
24.3061
24.4734
24.8093
25.4524
25.711
26.64
27.1548
28.1639
28.8912
29.912
30.7942
31.7739
32.8604
33.8789
35.1472
36.1478
37.6216
38.53
40.1039
41.5133
40.0136
38.9665
37.5308
36.4234
35.1176
34.06
32.9109
31.9506
30.9004
30.0815
29.2035
28.7066
28.1541
27.7816
27.4158
26.9834
26.8408
26.3592
26.5398
26.9076
26.769
27.2995
27.6421
28.0532
28.4744
29.1085
29.6403
30.4915
31.1556
32.0799
32.9252
33.9604
35.0524
36.1713
37.4911
38.6437
40.114
41.2645
42.8608
44.3413
42.9038
41.8419
40.4517
39.3335
38.0419
36.9931
35.8469
34.9131
33.836
32.9574
32.0383
31.3599
30.8886
30.5219
30.3278
30.0336
30.0398
29.6557
29.8187
29.8585
29.9459
30.3415
30.5859
31.0539
31.4202
32.0968
32.6353
33.5065
34.1561
35.146
35.9433
37.0429
38.0228
39.2035
40.3469
41.5457
42.8401
44.059
45.4921
44.7233
43.4484
42.2447
40.973
39.7561
38.5365
37.465
36.3776
35.463
34.4276
33.5417
32.6125
31.9093
31.4195
31.1688
31.0306
30.7734
30.9216
30.4781
30.6606
30.8564
30.7865
31.2787
31.4829
31.8531
32.2971
32.853
33.4036
34.1766
34.7966
35.7201
36.4756
37.5791
38.511
39.7196
40.7876
42.0258
43.2424
44.5251
45.8924
45.6062
44.3385
43.2264
41.907
40.7815
39.4716
38.4997
37.3522
36.5072
35.4287
34.5182
33.523
32.6447
32.1364
31.8701
31.8404
31.6649
32.025
31.6022
31.8027
31.8706
31.8799
32.3726
32.4318
32.9034
33.2965
33.8036
34.3501
35.0682
35.726
36.6197
37.411
38.5272
39.4643
40.7071
41.7107
42.9909
44.1161
45.4451
46.7164
45.5512
44.3559
43.2967
41.9876
40.8893
39.5807
38.6295
37.5491
36.7046
35.7255
34.7895
33.8435
32.7878
32.1521
31.9023
31.79
31.6343
32.2182
31.8061
32.0072
32.1418
32.1058
32.5944
32.609
33.0982
33.4432
33.8556
34.3818
35.0561
35.7309
36.5128
37.3321
38.3938
39.4122
40.6356
41.6696
42.9681
44.0684
45.4513
46.6202
45.8756
44.614
43.6977
42.3259
41.2791
39.9277
39.0007
37.9381
37.1021
36.2091
35.3663
34.5836
33.4938
32.7225
32.3192
32.0462
31.714
32.4873
32.1649
32.3729
32.4349
32.4758
32.886
32.8458
33.44
33.6437
33.9928
34.4925
35.1746
35.8013
36.4956
37.3289
38.3919
39.5625
40.7637
41.9399
43.172
44.3834
45.6598
46.8614
45.5515
44.2996
43.4196
42.0791
41.0148
39.7292
38.7367
37.7281
36.8186
36.0771
35.3361
34.8988
34.0277
33.2498
32.8996
32.5234
31.5147
32.2413
32.0758
32.2556
32.3398
32.4513
32.5747
32.7677
33.2966
33.2858
33.6247
34.1314
34.7931
35.326
36.0174
36.8576
38.0149
39.2126
40.4632
41.6398
42.8666
44.0629
45.2679
46.4598
45.287
44.0257
43.0054
41.7023
40.5246
39.3465
38.3139
37.3807
36.4077
35.5872
34.8701
34.4735
33.9581
33.3825
33.3686
33.2675
31.9877
32.0676
32.0526
32.2175
32.2472
32.4471
32.1702
32.9232
32.996
33.029
33.6165
34.1432
34.7826
35.3278
36.1142
37.0755
38.2438
39.4203
40.5536
41.6615
42.7602
43.9467
45.0958
46.3978
44.9206
43.6549
42.4559
41.1987
39.9413
38.7978
37.7787
36.914
36.0145
35.1616
34.3077
33.6626
33.0663
32.5626
32.4504
32.7186
32.1587
31.9319
31.7069
31.8382
31.8867
32.0342
31.6907
32.4014
32.1868
32.8383
33.4109
33.944
34.6282
35.2241
36.2483
37.1573
38.3087
39.2399
40.3111
41.2277
42.3683
43.5298
44.8367
46.2171
44.7543
43.3659
42.1586
40.9155
39.7165
38.5407
37.5137
36.7028
35.9432
35.2515
34.4722
33.8127
33.1631
32.589
32.0329
31.5852
31.8072
31.6801
31.3355
31.3311
31.4291
31.2866
31.7858
31.0725
32.0507
32.7012
33.1409
33.4902
34.0784
34.9611
35.9974
36.7487
37.5746
38.3393
39.3096
40.3035
41.4964
42.7554
44.1245
45.5601
43.8798
42.4449
41.2523
40.0265
38.9075
37.7708
36.7459
35.9456
35.3558
34.9728
34.5025
33.8356
33.2179
32.918
32.0025
31.5281
31.3123
30.6897
30.6595
30.6296
30.6973
30.6124
30.8006
30.6779
31.4905
31.3786
32.2586
32.6524
33.3281
34.1026
35.2092
35.8908
36.7942
37.4866
38.5006
39.4486
40.7736
42.0247
43.5101
44.8661
42.6936
41.3579
40.1236
38.9109
37.8196
36.7726
35.7599
34.6855
33.6299
32.7578
32.3101
31.7513
31.1288
31.0127
30.3852
30.0056
29.7997
29.8644
29.2143
29.7706
29.6839
29.9751
29.1244
29.3521
29.7989
30.2506
31.0808
31.7295
32.6327
33.1765
34.2847
35.0756
36.128
36.7969
37.7601
38.5814
39.7838
40.8572
42.2837
43.5331
42.0274
40.6326
39.3652
38.0732
36.8828
35.7563
34.7422
33.8851
33.1344
32.4906
31.7919
31.0513
30.1538
29.7546
30.0103
29.8059
28.9276
29.0287
28.6491
28.469
28.6108
27.5354
28.2838
28.4622
29.1961
29.4107
30.3807
30.3508
31.2379
31.4811
32.5543
33.3282
34.5774
35.4049
36.7305
37.8195
39.312
40.4552
41.9337
43.0906
40.3187
38.8782
37.6465
36.4468
35.423
34.3965
33.4278
32.3786
31.361
30.4525
29.7946
29.2099
28.4658
27.9634
27.5793
28.1581
28.1387
27.3679
27.2844
27.2917
27.3991
26.3395
26.9574
26.5785
27.6451
28.1091
29.0687
29.3086
30.2448
30.6367
31.8074
32.391
33.684
34.4882
35.9121
36.8566
38.3284
39.4171
41.0223
42.317
41.4653
39.6945
38.2203
36.718
35.4675
34.2189
33.0782
31.9712
30.8745
29.8888
28.9263
28.2469
27.6464
27.389
27.1399
27.1957
27.5336
27.5256
26.234
26.4654
26.2862
26.932
27.0367
27.1418
28.4063
28.5703
29.4827
29.7942
30.9478
31.4444
32.6557
33.2964
34.5698
35.3581
36.7239
37.6861
39.1802
40.332
41.9401
43.2461
41.5584
40.1492
38.7662
37.4828
36.2668
35.2083
34.147
33.1195
31.9177
30.6596
29.2273
28.0295
27.068
26.4168
26.0021
26.1596
26.3696
25.786
25.1329
26.2616
26.2658
26.3349
26.8334
26.9158
27.5486
27.7336
28.5468
28.959
29.9162
30.3965
31.4404
32.0398
33.1887
33.9185
35.1582
36.0141
37.3634
38.3853
39.8878
41.1334
40.6205
39.3056
37.7446
36.5649
35.0904
34.0633
32.7041
31.8573
30.6341
29.966
28.8995
28.4995
27.6793
27.3237
26.506
26.1711
25.2512
25.0534
24.5564
24.7851
24.245
24.5471
25.1336
25.4087
26.1625
26.4842
27.3899
27.8734
28.8828
29.5516
30.6759
31.5372
32.7658
33.8104
35.1616
36.4096
37.8898
39.3308
40.8972