/*--------------------------------*- C++ -*----------------------------------*\
  =========                 |
  \\      /  F ield         | OpenFOAM: The Open Source CFD Toolbox
   \\    /   O peration     | Website:  https://openfoam.org
    \\  /    A nd           | Version:  6
     \\/     M anipulation  |
\*---------------------------------------------------------------------------*/
FoamFile
{
    version     2.0;
    format      ascii;
    class       volScalarField;
    location    "0.8";
    object      yPlus;
}
// * * * * * * * * * * * * * * * * * * * * * * * * * * * * * * * * * * * * * //

dimensions      [0 0 0 0 0 0 0];

internalField   uniform 0;

boundaryField
{
    inlet
    {
        type            calculated;
        value           uniform 0;
    }
    outlet
    {
        type            calculated;
        value           uniform 0;
    }
    roughCylinder
    {
        type            calculated;
        value           nonuniform List<scalar> 
5120
(
44.9818
52.412
58.0819
63.4949
68.083
71.7919
74.8076
77.3372
79.5608
81.5904
83.4779
85.255
86.9445
88.5665
90.1406
91.6884
93.231
94.7872
96.3719
97.9958
99.6656
101.385
103.154
104.973
106.837
108.741
110.674
112.618
114.53
116.331
117.843
118.762
44.4752
51.6627
57.1689
62.4601
66.9763
70.6447
73.6339
76.1373
78.3455
80.3612
82.2307
83.9833
85.6447
87.2358
88.7767
90.29
91.7975
93.3181
94.8668
96.4542
98.0871
99.7687
101.5
103.281
105.106
106.97
108.863
110.765
112.638
114.401
115.881
116.781
43.9086
50.8932
56.2521
61.4258
65.8704
69.4991
72.4662
74.9529
77.1527
79.1574
81.0103
82.7384
84.3728
85.9335
87.4421
88.9217
90.3947
91.8803
93.3936
94.9452
96.5419
98.1871
99.8813
101.624
103.411
105.237
107.09
108.953
110.787
112.513
113.963
114.845
43.3134
50.1208
55.3445
60.407
64.7841
68.3772
71.3274
73.8058
76.0013
77.9971
79.8342
81.539
83.1463
84.6776
86.1545
87.6011
89.0402
90.4915
91.9701
93.4868
95.0481
96.6575
98.3157
100.022
101.771
103.559
105.374
107.198
108.993
110.684
112.104
112.969
42.7034
49.3524
54.4501
59.4068
63.7205
67.2824
70.2201
72.6962
74.89
76.8784
78.7007
80.3847
81.9664
83.4687
84.9148
86.3294
87.7357
89.1537
90.5987
92.0814
93.6082
95.1828
96.8055
98.4759
100.189
101.94
103.718
105.505
107.263
108.919
110.31
111.159
42.0908
48.596
53.574
58.4295
62.6835
66.2181
69.1471
71.6246
73.8173
75.7994
77.6088
79.2753
80.832
82.3066
83.7228
85.1062
86.4807
87.8666
89.2791
90.7289
92.2227
93.7639
95.3529
96.9885
98.6667
100.382
102.124
103.875
105.597
107.219
108.583
109.415
41.4838
47.8566
52.7197
57.4774
61.6754
65.186
68.1092
70.5904
72.7828
74.7597
76.5585
78.2097
79.7435
81.1916
82.5791
83.9327
85.2767
86.6315
88.0127
89.4309
90.8926
92.4012
93.9571
95.5597
97.2045
98.8854
100.592
102.308
103.996
105.585
106.922
107.739
40.8902
47.1394
51.8898
56.5517
60.696
64.186
67.1059
69.5928
71.7849
73.7582
75.5487
77.1868
78.7009
80.1244
81.4847
82.8094
84.1239
85.449
86.8001
88.188
89.6191
91.0966
92.6212
94.1916
95.8038
97.4519
99.1253
100.807
102.461
104.02
105.331
106.134
40.3133
46.4455
51.0844
55.6512
59.7439
63.216
66.135
68.6293
70.8226
72.7941
74.5787
76.2062
77.7042
79.1046
80.4394
81.7372
83.0238
84.3205
85.6428
87.0015
88.403
89.8505
91.3447
92.8842
94.4653
96.0815
97.723
99.3728
100.995
102.523
103.811
104.599
39.7568
45.777
50.3038
54.7746
58.8165
62.2732
65.1941
67.6987
69.8939
71.8657
73.647
75.2665
76.7514
78.1324
79.4437
80.7157
81.9756
83.2452
84.5401
85.871
87.2444
88.6634
90.1286
91.6387
93.1896
94.7755
96.386
98.0041
99.596
101.096
102.36
103.135
39.2211
45.1332
49.5464
53.9191
57.9101
61.3539
64.2802
66.797
68.9972
70.9718
72.7523
74.3668
75.8414
77.2062
78.4961
79.7448
80.9801
82.2241
83.4928
84.7969
86.1429
87.5342
88.9715
90.4528
91.975
93.5313
95.1121
96.7005
98.2632
99.7355
100.978
101.741
38.7078
44.5145
48.8112
53.0821
57.0207
60.4536
63.3884
65.9193
68.1303
70.1101
71.893
73.5051
74.9723
76.3243
77.5963
78.8234
80.0353
81.255
82.4988
83.7774
85.0976
86.4623
87.8727
89.327
90.8204
92.3482
93.9001
95.4597
96.9938
98.4402
99.6618
100.415
38.2158
43.9187
48.0961
52.26
56.1433
59.5666
62.514
65.0627
67.2903
69.279
71.067
72.6799
74.1425
75.4842
76.7413
77.9495
79.1405
80.3376
81.5575
82.8113
84.1057
85.4443
86.828
88.2551
89.7218
91.2216
92.7451
94.2768
95.7836
97.2054
98.408
99.1506
37.741
43.3427
47.3988
51.4499
55.2731
58.687
61.651
64.2227
66.4738
68.4746
70.2714
71.8881
73.3491
74.6837
75.9283
77.12
78.2917
79.4674
80.6642
81.8938
83.1631
84.476
85.8335
87.2344
88.6744
90.1475
91.6436
93.1484
94.6289
96.0274
97.212
97.946
37.2777
42.7833
46.7158
50.6473
54.404
57.8077
60.7927
63.394
65.6755
67.6942
69.5034
71.1273
72.5896
73.9198
75.1545
76.3314
77.4853
78.6407
79.8154
81.0214
82.2661
83.5539
84.8859
86.2608
87.675
89.122
90.5921
92.0707
93.5263
94.9023
96.0707
96.7964
36.8262
42.2406
46.0454
49.8493
53.5305
56.9206
59.9307
62.569
64.8865
66.9318
68.7584
70.393
71.86
73.189
74.4161
75.5806
76.718
77.8539
79.007
80.1898
81.4106
82.6737
83.9807
85.3309
86.7199
88.1413
89.5862
91.0396
92.4713
93.8263
94.9791
95.6984
36.3842
41.7106
45.3843
49.0511
52.6455
56.0165
59.0547
61.7383
64.1003
66.1831
68.0317
69.6815
71.1567
72.487
73.7092
74.8631
75.9854
77.1027
78.235
79.3953
80.5923
81.8311
83.1135
84.4387
85.803
87.2004
88.6206
90.05
91.4586
92.7934
93.9324
94.6461
35.9479
41.1882
44.7286
48.2486
51.7426
55.0853
58.1528
60.8905
63.3075
65.4373
67.3163
68.9862
70.4735
71.8087
73.0287
74.174
75.2823
76.3818
77.4935
78.6314
79.805
81.0196
82.2777
83.5788
84.9191
86.293
87.6888
89.0952
90.4818
91.7978
92.9242
93.6334
35.5114
40.6679
44.0733
47.437
50.814
54.1149
57.2102
60.011
62.4956
64.6832
66.6048
68.3014
69.8053
71.1482
72.3684
73.507
74.6027
75.6851
76.7768
77.8926
79.0424
80.233
81.4668
82.7438
84.0608
85.4112
86.784
88.1682
89.5334
90.8318
91.9467
92.6527
35.0714
40.1454
43.4148
46.6118
49.8525
53.093
56.2097
59.0817
61.6489
63.9086
65.8862
67.6169
69.1429
70.4983
71.7217
72.8553
73.9392
75.0048
76.076
77.1693
78.2957
79.4619
80.6716
81.9251
83.2185
84.5464
85.8961
87.2589
88.6039
89.8856
90.9906
91.6951
34.6169
39.611
42.7451
45.7663
48.8491
52.0045
55.1304
58.0798
60.7464
63.0965
65.1444
66.9239
68.4788
69.85
71.0791
72.2099
73.2831
74.3324
75.3836
76.4542
77.5557
78.6972
79.8823
81.1117
82.3823
83.6876
85.0151
86.3572
87.6827
88.9489
90.0448
90.7499
34.1392
39.0564
42.0569
44.8938
47.7946
50.8338
53.948
56.9768
59.7623
62.2257
64.3629
66.206
67.799
69.1933
70.4319
71.5614
72.6243
73.6569
74.6864
75.7327
76.8095
77.9253
79.0857
80.2913
81.5382
82.8215
84.1267
85.4488
86.7552
88.0066
89.0955
89.8033
33.618
38.4664
41.337
43.9829
46.6765
49.5603
52.6316
55.7354
58.6598
61.266
63.5183
65.4438
67.0912
68.5132
69.7654
70.8955
71.949
72.9646
73.9723
74.9935
76.0428
77.1319
78.2656
79.4466
80.6711
81.932
83.2154
84.5178
85.8062
87.0443
88.127
88.8398
33.0402
37.825
40.5713
43.0216
45.482
48.1646
51.1479
54.3101
57.3939
60.18
62.5822
64.6151
66.333
67.7968
69.067
70.1996
71.2436
72.2405
73.2229
74.2156
75.2364
76.2964
77.4039
78.56
79.7596
80.9988
82.2589
83.5429
84.8128
86.0385
87.1181
87.8383
32.3856
37.1102
39.7383
41.9891
44.1888
46.6155
49.4462
52.6375
55.8993
58.9098
61.5097
63.6859
65.4972
67.0154
68.3115
69.4498
70.4837
71.4601
72.4156
73.3774
74.3655
75.3947
76.4717
77.6013
78.7785
79.9948
81.2324
82.4979
83.7514
84.9668
86.0438
86.7764
31.6351
36.3012
38.816
40.8669
42.7829
44.8955
47.4927
50.6452
54.0864
57.3865
60.2474
62.6182
64.5548
66.1479
67.4806
68.6258
69.649
70.6013
71.5239
72.4491
73.4002
74.3934
75.4407
76.5437
77.694
78.8888
80.1018
81.35
82.5853
83.7901
84.87
85.6184
30.7621
35.3743
37.7811
39.6325
41.2414
42.9758
45.2375
48.2583
51.8491
55.4844
58.7081
61.3428
63.4536
65.1444
66.5249
67.6843
68.6956
69.6187
70.502
71.3838
72.2928
73.2478
74.2578
75.3311
76.4585
77.6295
78.8173
80.0501
81.2717
82.4722
83.5544
84.3274
29.7523
34.3145
36.6152
38.2642
39.5398
40.8224
42.6222
45.3786
49.064
53.0856
56.7677
59.789
62.1381
63.969
65.4151
66.5881
67.5807
68.4664
69.3023
70.1318
70.9876
71.8942
72.8692
73.9148
75.0135
76.1644
77.3275
78.5454
79.7485
80.9423
82.0391
82.8422
28.5841
33.1009
35.2944
36.735
37.6471
38.3933
39.5717
41.8749
45.5523
50.005
54.2795
57.805
60.5073
62.5249
64.0568
65.2543
66.2285
67.0644
67.8329
68.5943
69.3899
70.2449
71.1723
72.1842
73.2614
74.3887
75.5195
76.731
77.9284
79.1315
80.24
81.0939
27.2716
31.7403
33.8167
35.0305
35.5339
35.6324
35.9731
37.5505
41.0642
46.0034
51.053
55.2714
58.4415
60.7313
62.3825
63.5959
64.5241
65.2888
65.9782
66.6536
67.366
68.152
69.0384
70.0291
71.0802
72.1951
73.3096
74.5151
75.6964
76.904
78.0542
78.9689
25.8293
30.2417
32.1817
33.1375
33.1682
32.4693
31.6581
32.0799
35.2103
40.756
46.8381
51.9877
55.7785
58.4055
60.202
61.4422
62.3269
62.9866
63.541
64.0994
64.7149
65.426
66.2554
67.2119
68.251
69.3495
70.4165
71.6425
72.8386
74.0894
75.2758
76.3075
24.3508
28.682
30.4501
31.091
30.5464
28.8227
26.3345
24.7651
27.2485
33.8234
41.3721
47.753
52.3531
55.406
57.3474
58.5586
59.302
59.799
60.2056
60.6201
61.1097
61.7334
62.5287
63.4986
64.5256
65.6292
66.7157
67.9474
69.1364
70.4222
71.7236
72.8924
22.8973
27.1197
28.6759
28.9392
27.7184
24.7338
19.7199
13.6184
14.9243
25.0057
34.694
42.462
47.9307
51.4035
53.475
54.6215
55.2235
55.4441
55.546
55.768
56.1154
56.6525
57.4354
58.3849
59.4485
60.576
61.6127
62.9456
64.2236
65.6195
66.9938
68.421
21.6286
25.7085
27.0068
26.8101
24.7761
20.3724
17.7181
21.7082
22.6046
23.4118
27.1407
36.0977
42.1399
45.8852
47.8525
48.6688
48.7648
48.524
48.3511
48.4955
48.6111
49.2481
50.1461
51.2285
52.258
53.4788
54.8394
56.1219
57.4952
58.9485
60.684
62.4614
20.5299
24.456
25.4444
24.6479
21.4493
14.3471
21.512
17.6981
25.5633
29.9722
27.2456
28.4549
34.9832
38.3523
39.9715
39.9053
40.0523
38.3942
37.0737
37.378
37.5905
38.0605
39.6737
40.4832
41.8814
43.1913
44.6529
46.1656
47.936
49.6964
51.6533
54.3425
19.7845
23.5302
24.1123
22.5712
18.8091
16.7998
17.5589
11.8409
14.514
29.3311
25.8991
20.7111
15.5135
19.6084
20.1815
29.5159
8.4205
28.9899
29.8167
14.6538
9.92894
22.0102
25.9063
25.1877
22.7473
22.7015
40.3114
30.7634
40.1079
34.6403
40.2478
43.0454
18.98
22.5672
22.753
20.569
16.6367
16.4194
18.8209
8.94013
14.6805
19.2168
25.4437
25.7978
7.52842
16.6249
29.5477
33.8893
30.1479
15.2753
15.5741
30.4113
25.7356
33.7156
36.7152
35.2013
13.6179
27.069
48.1113
37.6837
48.3233
23.5392
15.713
29.089
19.0546
22.6348
22.8017
20.9145
18.8579
20.7058
23.8025
25.0409
25.1599
25.8725
26.4831
27.3762
26.9124
30.265
33.0061
35.6174
38.3774
41.6973
41.1976
40.7082
37.1769
37.857
39.721
36.8407
35.0835
16.4886
42.0457
28.0618
40.7056
39.4287
31.7264
39.6102
18.6
22.4627
23.1993
23.0609
24.614
28.8598
32.8173
34.8976
35.6608
36.0483
36.6075
38.0618
40.3085
41.739
44.0968
46.6343
49.9555
52.1358
53.3483
48.9842
48.6146
44.5842
40.3829
40.4391
42.2983
35.4032
36.1262
38.2969
30.3272
38.8933
42.909
41.1336
20.0605
24.615
26.5434
28.0206
30.2273
33.5926
36.9331
39.1933
40.3417
40.8422
41.2177
42.1219
43.5486
44.9537
46.2895
49.1266
52.797
54.9504
55.9671
54.8078
55.0679
52.8066
50.5203
50.2261
47.4486
50.8957
41.5779
44.7359
44.9719
46.0844
43.7746
36.3493
15.6222
5.98781
8.6113
8.49247
10.8617
19.3134
20.0396
20.1266
19.2437
17.8517
16.7773
16.0028
15.4829
15.1394
14.9365
14.8273
14.7694
14.7329
14.684
14.6119
14.6134
14.6837
14.7314
14.7667
14.8237
14.9322
15.1352
15.479
16
16.776
17.848
19.2396
20.1073
20.0322
19.1577
11.835
3.77508
8.66816
7.03958
16.1042
20.8309
11.9097
4.77496
10.391
17.3857
25.5343
26.7568
27.5929
26.8361
25.0825
23.4292
22.2333
21.376
20.8315
20.4971
20.3164
20.2183
20.1586
20.0934
20.0117
20.0132
20.0926
20.1563
20.2143
20.311
20.4907
20.825
21.3695
22.2279
23.4239
25.0752
26.8246
27.5586
26.7369
25.3359
19.2481
7.88383
11.4195
12.7401
21.3311
23.3126
15.4348
13.2643
10.2576
22.1674
29.0036
30.6429
31.7335
31.2311
29.2792
27.1542
25.5904
24.4682
23.7762
23.3617
23.1537
23.0549
23.0084
22.9603
22.8955
22.8971
22.9593
23.0054
23.05
23.1471
23.3539
23.768
24.4598
25.5829
27.146
29.2691
31.213
31.6969
30.5899
28.9163
22.4558
12.6732
13.1321
16.0065
23.8294
25.1653
17.9402
1.31054
9.01817
25.7018
31.987
33.8903
35.0248
34.8182
32.9226
30.4458
28.5448
27.146
26.2923
25.7849
25.5431
25.4419
25.4096
25.3805
25.3327
25.3343
25.3794
25.4064
25.4367
25.536
25.7765
26.2834
27.137
28.5365
30.4366
32.9115
34.7948
34.9903
33.791
31.9721
25.8413
10.4105
13.8152
18.6294
25.7091
27.0594
19.983
4.98426
5.78004
28.4086
34.513
36.5638
37.6669
37.6871
36.0473
33.3541
31.1738
29.499
28.475
27.8644
27.5827
27.4772
27.4582
27.4469
27.4131
27.4147
27.4458
27.4549
27.4717
27.5753
27.8556
28.4656
29.4894
31.1647
33.3434
36.0354
37.6571
37.6371
36.401
34.5922
27.6379
11.2212
6.69421
20.5218
27.5208
29.6016
22.9196
6.12584
7.70339
30.0329
36.605
38.6976
39.8176
39.947
38.694
35.9044
33.5249
31.5956
30.4047
29.6913
29.371
29.2652
29.2631
29.2711
29.2497
29.2514
29.27
29.2601
29.2599
29.3636
29.6822
30.395
31.5856
33.5151
35.8927
38.681
39.9113
39.791
38.4741
36.7608
27.6123
11.303
7.72938
19.4877
29.6653
32.4108
25.1877
7.85211
9.62662
30.9781
38.2227
40.2927
41.5276
41.6834
40.8489
38.1115
35.6046
33.4786
32.1363
31.3351
30.987
30.8922
30.9153
30.9466
30.9385
30.9401
30.9457
30.9124
30.8871
30.9798
31.3262
32.1264
33.468
35.5942
38.0981
40.8351
41.6424
41.5018
40.046
38.3986
28.0147
13.1704
13.4525
21.7587
32.2078
34.5406
26.7198
9.67182
13.9292
31.4532
39.3273
41.3679
42.8416
42.9686
42.5184
39.9216
37.411
35.1562
33.7034
32.8461
32.492
32.427
32.4878
32.5493
32.5567
32.5583
32.5487
32.4856
32.4226
32.4855
32.8374
33.6941
35.1442
37.4012
39.9046
42.5037
42.9292
42.8035
41.1759
39.4086
29.8734
13.4537
13.6581
26.6703
34.6564
35.544
26.993
13.8309
16.7827
30.2964
40.0242
42.0014
43.7363
43.8704
43.7083
41.3193
38.8983
36.617
35.1249
34.2592
33.9376
33.928
34.0423
34.1421
34.1682
34.1699
34.142
34.041
33.9246
33.9321
34.2513
35.1154
36.606
38.885
41.3035
43.6894
43.8323
43.7016
41.8808
39.9451
31.4242
13.9455
11.3817
28.1989
36.099
35.8381
26.8783
13.7739
20.1793
29.8568
40.401
42.1221
44.2595
44.3801
44.4238
42.2642
40.0132
37.85
36.4044
35.6089
35.3707
35.4485
35.6326
35.7774
35.8244
35.8262
35.7778
35.6323
35.4467
35.3664
35.6024
36.3954
37.8374
40.0027
42.2383
44.4164
44.3304
44.2269
42.0938
40.0786
32.2012
14.745
10.1105
27.6014
36.6618
36.1945
25.9584
9.47833
19.8662
31.4533
40.1359
41.9877
44.3936
44.4644
44.6699
42.724
40.7492
38.8379
37.5585
36.937
36.8413
37.039
37.3034
37.495
37.5628
37.5647
37.4961
37.3044
37.0385
36.8397
36.9302
37.5534
38.8224
40.7382
42.7024
44.6454
44.4385
44.3499
41.9323
39.9864
32.2986
16.921
9.77371
26.6186
36.9397
37.7821
26.6987
9.54963
18.8806
33.1634
39.6356
41.7218
44.0875
44.1296
44.4219
42.6865
41.1362
39.5994
38.6549
38.3024
38.4117
38.7455
39.0893
39.3204
39.4041
39.4061
39.3223
39.0914
38.7473
38.4104
38.3014
38.644
39.5955
41.1113
42.6715
44.4023
44.0669
44.1088
41.569
39.604
33.3707
17.0533
14.1742
27.1347
37.909
39.4571
28.5231
13.2013
20.2876
34.596
39.2573
40.995
43.3396
43.2305
43.666
42.2445
41.2774
40.3095
39.8061
39.8216
40.1454
40.6108
41.0104
41.2629
41.352
41.3542
41.2652
41.0136
40.6133
40.1476
39.8172
39.8082
40.2875
41.2792
42.203
43.642
43.2313
43.1612
41.2118
38.6466
35.23
19.1435
25.1858
28.5402
39.2005
38.1743
25.1967
14.7449
26.7938
35.2671
38.3276
39.9534
41.9151
41.9547
42.6958
41.7234
41.6418
41.2065
41.2704
41.6027
42.1173
42.6577
43.0724
43.3165
43.3967
43.399
43.3189
43.0758
42.661
42.1192
41.6026
41.2641
41.2061
41.6051
41.7455
42.5729
42.0675
41.5852
40.2678
37.6837
35.5942
25.0368
27.8474
31.6871
40.4391
38.2692
26.1746
23.4594
31.3688
34.9951
37.6159
39.1045
40.802
41.3741
42.304
42.0807
42.6833
42.6914
43.2402
43.737
44.3591
44.8861
45.2625
45.4648
45.5207
45.5228
45.4668
45.2654
44.8893
44.3596
43.7384
43.2303
42.6911
42.6547
42.0682
42.2428
41.3661
40.5929
39.2582
37.0245
35.5234
29.7445
27.1053
29.0007
40.1542
42.5926
32.3567
31.0418
33.9773
36.0485
38.4272
39.9948
41.5495
42.5035
43.4257
43.8583
44.6154
44.9868
45.692
46.2347
46.8264
47.2628
47.551
47.6844
47.7045
47.7065
47.6858
47.5532
47.2644
46.8275
46.2319
45.6869
44.9728
44.6066
43.8113
43.407
42.4325
41.4326
39.9779
38.1435
36.0174
33.8648
30.6064
32.9214
43.1716
46.7531
38.5991
36.7247
37.5271
39.0956
41.3376
42.7743
44.1863
45.128
45.9812
46.6235
47.3057
47.8431
48.466
48.962
49.4177
49.7215
49.8949
49.9486
49.9291
49.9307
49.9492
49.8962
49.722
49.4181
48.9582
48.462
47.827
47.2991
46.5798
45.9634
45.0553
44.1183
42.6766
41.2093
38.9233
37.4594
36.5452
38.687
47.1463
50.1134
43.279
41.3251
41.4384
42.9458
44.9176
46.2252
47.4471
48.2995
49.0627
49.6949
50.2951
50.8238
51.315
51.7052
52.0041
52.1764
52.2417
52.2245
52.1707
52.1721
52.2246
52.2424
52.1766
52.0048
51.7024
51.3125
50.8133
50.2864
49.6685
49.0387
48.247
47.3904
46.1236
44.8246
42.7456
41.3343
41.0979
43.2001
50.2883
52.5075
46.6054
44.5411
44.6796
46.0628
47.934
49.215
50.3625
51.1931
51.9182
52.534
53.0909
53.5745
53.9748
54.2706
54.4592
54.5384
54.5307
54.4666
54.3908
54.392
54.4665
54.5312
54.5394
54.4603
54.2711
53.9749
53.5708
53.0874
52.5187
51.9038
51.1522
50.3214
49.1233
47.8424
45.8824
44.4642
44.2895
46.2996
52.5588
54.09
49.0258
46.7105
46.8173
48.1373
49.9692
51.3848
52.5559
53.4665
54.2141
54.8605
55.4232
55.9018
56.2763
56.5375
56.6845
56.7277
56.6917
56.6097
56.5258
56.527
56.6097
56.6926
56.7297
56.6874
56.5409
56.2806
55.9051
55.4258
54.8587
54.2057
53.4467
52.5135
51.3146
49.8444
47.9222
46.4196
46.099
48.2609
53.2313
54.5932
50.443
48.1062
48.0967
49.3611
51.221
52.81
54.1008
55.1299
55.9593
56.6623
57.2733
57.7853
58.1882
58.468
58.6286
58.681
58.6514
58.5733
58.4915
58.4927
58.5734
58.6528
58.6841
58.6333
58.4747
58.1965
57.7955
57.2826
56.6718
55.9612
55.1258
54.074
52.7593
51.1173
49.1598
47.7562
47.5667
50.0643
54.4369
54.8671
52.1552
49.4137
49.1538
50.2871
52.1073
53.8529
55.2704
56.4226
57.3412
58.1051
58.7688
59.326
59.7718
60.0901
60.2836
60.363
60.3524
60.286
60.2095
60.2107
60.2863
60.3543
60.3671
60.2903
60.1
59.7849
59.3424
58.7871
58.1239
57.3583
56.43
55.2688
53.8128
52.04
50.0652
48.7972
48.6358
51.1637
53.9305
53.8994
52.2138
50.3748
50.1073
51.2574
53.0364
54.8566
56.3701
57.5953
58.576
59.3767
60.0699
60.6522
61.1231
61.4657
61.6813
61.7788
61.7808
61.721
61.6465
61.6476
61.7215
61.7833
61.7841
61.6904
61.4796
61.1427
60.6773
60.1003
59.4106
58.6099
57.6269
56.3854
54.8499
52.9621
51.0624
49.7264
49.7351
51.6144
53.279
53.6743
52.6973
51.3199
51.3792
52.4816
54.2568
56.0555
57.6012
58.838
59.8219
60.6156
61.2971
61.8705
62.3331
62.6713
62.8837
62.9791
62.9781
62.9139
62.8355
62.8366
62.9143
62.9805
62.9844
62.8932
62.6859
62.3539
61.8973
61.3289
60.6508
59.8536
58.8673
57.6013
56.0435
54.1341
52.3258
50.9658
51.0182
52.3812
53.1779
48.5254
51.34
51.3045
52.3806
53.8512
55.6866
57.4641
58.979
60.1738
61.1152
61.8637
62.5034
63.0379
63.4659
63.774
63.9614
64.036
64.0179
63.9395
63.8519
63.8526
63.9389
64.0182
64.0381
63.9662
63.7826
63.4785
63.0539
62.5212
61.8805
61.1278
60.1784
58.9724
57.4499
55.6852
53.9493
52.783
52.4971
53.4976
53.1743
54.1544
54.4622
54.128
54.7618
55.9343
57.5384
59.1173
60.4953
61.575
62.4234
63.1035
63.6832
64.1656
64.5454
64.8108
64.9613
65.0058
64.9637
64.8669
64.7683
64.7685
64.8655
64.9627
65.0065
64.9653
64.8199
64.5608
64.1881
63.711
63.1362
62.4526
61.6024
60.495
59.1044
57.4368
55.8279
54.5482
54.1054
54.9021
53.9745
52.078
53.9672
54.3056
55.5306
57.0973
58.8808
60.522
61.8889
62.9198
63.7038
64.3276
64.8485
65.2737
65.5969
65.8105
65.916
65.924
65.8543
65.7381
65.6289
65.629
65.7365
65.8529
65.9248
65.9217
65.8244
65.6221
65.3128
64.9033
64.3986
63.7926
63.0262
62.0144
60.6583
59.0098
57.1998
55.5202
54.1846
53.2929
51.7551
49.3291
53.2303
54.0838
56.0488
58.0837
60.095
61.8148
63.1856
64.174
64.9026
65.4737
65.9402
66.309
66.5751
66.7352
66.794
66.7646
66.6672
66.5323
66.4126
66.4096
66.5218
66.6508
66.744
66.7717
66.7143
66.5592
66.3024
65.9477
65.5049
64.9656
64.2982
63.3807
62.1566
60.5475
58.8049
56.84
55.3572
54.2635
52.1802
50.0987
53.5488
55.4056
57.4957
59.8004
61.6697
63.2893
64.4699
65.3321
65.9601
66.4623
66.8676
67.1802
67.3924
67.5033
67.5203
67.4587
67.3395
67.1924
67.0686
67.0659
67.183
67.3245
67.4399
67.5002
67.4854
67.3808
67.1792
66.8827
66.5013
66.0364
65.4655
64.7012
63.6463
62.245
60.5475
58.7648
56.7498
56.1918
52.7718
47.0557
53.6088
55.5281
58.3389
60.6955
62.6994
64.2604
65.4076
66.1991
66.7902
67.2498
67.6125
67.8743
68.0326
68.0906
68.0612
67.9633
67.8188
67.6572
67.5283
67.5266
67.6506
67.8078
67.9493
68.0472
68.0797
68.028
67.8781
67.625
67.2685
66.808
66.2046
65.3731
64.1624
62.4437
60.293
57.3531
54.7712
51.2167
47.7461
52.4656
56.6461
57.8989
60.0307
62.2155
63.9413
65.3648
66.3331
67.0082
67.5015
67.8882
68.1791
68.3697
68.4569
68.4487
68.3623
68.2194
68.043
67.861
67.7219
67.7197
67.8529
68.0288
68.2005
68.3411
68.4281
68.4398
68.3579
68.1728
67.8848
67.4949
66.9879
66.2794
65.2495
63.7044
61.7519
59.0715
55.9955
53.3599
44.3089
49.0032
53.2231
56.5109
58.772
61.6856
63.7384
65.3825
66.5057
67.2464
67.7772
68.1607
68.4286
68.5775
68.6145
68.5541
68.4199
68.237
68.0298
67.8252
67.6706
67.666
67.8104
68.0047
68.2028
68.3782
68.5074
68.565
68.5269
68.3777
68.1099
67.7268
67.1992
66.4678
65.3649
63.7737
61.7616
59.047
56.5527
53.524
46.7329
44.9365
52.3734
58.0499
63.4705
68.0659
71.7811
74.8009
77.332
79.5562
81.5861
83.4739
85.2513
86.9414
88.5638
90.1384
91.6866
93.2294
94.7858
96.3703
97.9939
99.6632
101.382
103.151
104.968
106.831
108.734
110.665
112.607
114.518
116.317
117.826
118.743
44.4219
51.6177
57.1301
62.4275
66.9492
70.6224
73.6152
76.1212
78.3309
80.3475
82.2175
83.9707
85.6325
87.224
88.7654
90.2791
91.7869
93.3077
94.8564
96.4438
98.0766
99.758
101.489
103.269
105.094
106.957
108.849
110.751
112.622
114.384
115.863
116.762
43.8545
50.848
56.214
61.395
65.846
69.4797
72.4504
74.9394
77.1406
79.1459
80.9992
82.7276
84.3621
85.923
87.4318
88.9116
90.3846
91.8701
93.3833
94.9347
96.531
98.1756
99.87
101.612
103.398
105.223
107.076
108.937
110.77
112.495
113.944
114.825
43.2586
50.075
55.3064
60.3769
64.7609
68.3593
71.3131
73.7938
75.9907
77.987
79.8243
81.5293
83.1367
84.6679
86.1448
87.5913
89.0304
90.4814
91.9598
93.4761
95.037
96.6457
98.3035
100.009
101.758
103.544
105.359
107.182
108.976
110.665
112.085
112.948
42.648
49.3061
54.4118
59.3773
63.6983
67.2657
70.2072
72.6854
74.8805
76.8694
78.6919
80.3758
81.9575
83.4596
84.9055
86.3199
87.726
89.1436
90.5882
92.0704
93.5968
95.1706
96.7931
98.4628
100.176
101.925
103.702
105.488
107.245
108.899
110.29
111.137
42.0352
48.5495
53.5358
58.4004
62.6622
66.2024
69.1353
71.6149
73.8088
75.7913
77.6009
79.2672
80.8237
82.2979
83.7139
85.0969
86.471
87.8564
89.2684
90.7178
92.211
93.7514
95.3396
96.9746
98.6522
100.367
102.108
103.857
105.578
107.199
108.561
109.392
41.4283
47.8102
52.6816
57.4488
61.6548
65.1713
68.0982
70.5816
72.7751
74.7524
76.5512
78.2023
79.7357
81.1834
82.5705
83.9236
85.267
86.6213
88.0019
89.4196
90.8806
92.3883
93.944
95.5455
97.1892
98.8696
100.575
102.29
103.976
105.564
106.9
107.716
40.8351
47.0931
51.8521
56.5236
60.6762
64.1721
67.0958
69.5848
71.778
73.7517
75.5422
77.1801
78.6937
80.1165
81.4763
82.8004
84.1143
85.4387
86.7892
88.1765
89.6069
91.0837
92.6078
94.1771
95.7886
97.4357
99.1082
100.789
102.442
103.999
105.309
106.11
40.2587
46.3996
51.0471
55.6236
59.7248
63.2029
66.1257
68.622
70.8164
72.7883
74.5728
76.2
77.6973
79.0971
80.4312
81.7283
83.0143
84.3102
85.6318
86.9898
88.3905
89.8373
91.3309
92.8694
94.4494
96.065
97.7055
99.3536
100.975
102.501
103.787
104.574
39.703
45.7317
50.2669
54.7475
58.798
62.2608
65.1855
67.6922
69.8884
71.8605
73.6416
75.2607
76.745
78.1251
79.4357
80.7069
81.966
83.2347
84.5289
85.8591
87.2317
88.6499
90.1145
91.6235
93.1734
94.7583
96.3678
97.9846
99.5748
101.073
102.335
103.11
39.1682
45.0884
49.5099
53.8924
57.8921
61.3421
64.2722
66.7911
68.9923
70.9672
72.7475
74.3615
75.8354
77.1993
78.4883
79.7361
80.9706
82.2137
83.4815
84.7848
86.13
87.5205
88.9566
90.4372
91.9585
93.5137
95.0936
96.6807
98.2414
99.712
100.953
101.714
38.656
44.4705
48.7753
53.0559
57.0031
60.4423
63.381
65.914
68.1259
70.106
71.8886
73.5002
74.9667
76.3176
77.5886
78.8148
80.0257
81.2445
82.4874
83.7652
85.0845
86.4484
87.8579
89.3111
90.804
92.3308
93.8814
95.4392
96.9721
98.4165
99.6364
100.387
38.1653
43.8756
48.0606
52.2341
56.1262
59.5558
62.5072
65.058
67.2864
69.2754
71.0631
72.6754
74.1371
75.4778
76.7339
77.941
79.131
80.3271
81.5461
82.7989
84.0924
85.4302
86.813
88.2393
89.7046
91.2034
92.726
94.256
95.7612
97.181
98.382
99.1225
37.6917
43.3003
47.3638
51.4244
55.2563
58.6767
61.6447
64.2184
66.4705
68.4715
70.268
71.884
73.344
74.6775
75.921
77.1115
78.2822
79.4569
80.6528
81.8814
83.1498
84.4618
85.8184
87.2182
88.6572
90.129
91.6246
93.1273
94.6065
96.0026
97.1856
97.9168
37.2297
42.7419
46.6813
50.622
54.3874
57.7977
60.7868
63.3903
65.6727
67.6916
69.5005
71.1237
72.585
73.914
75.1474
76.3232
77.4759
78.6302
79.8039
81.0088
82.2527
83.5396
84.8706
86.2446
87.6578
89.1034
90.5727
92.0492
93.5035
94.8772
96.0436
96.7664
36.7798
42.2003
46.0116
49.8242
53.5142
56.911
59.9252
62.5658
64.8842
66.9296
68.7559
70.3897
71.8557
73.1833
74.4092
75.5724
76.7087
77.8434
78.9955
80.1775
81.3973
82.6595
83.9655
85.3143
86.7022
88.1232
89.5667
91.018
92.4481
93.8007
94.9519
95.6676
36.3394
41.6713
45.3511
49.0263
52.6294
56.0072
59.0498
61.7357
64.0986
66.1815
68.0297
69.6788
71.1529
72.4819
73.7028
74.8553
75.9763
77.0924
78.2236
79.3829
80.579
81.8169
83.0983
84.4225
85.7858
87.1823
88.6015
90.0283
91.4353
92.7677
93.9052
94.6145
35.9049
41.1503
44.6961
48.2242
51.7266
55.0762
58.1483
60.8884
63.3064
65.4364
67.3149
68.9839
70.47
71.8038
73.0223
74.1662
75.2733
76.3716
77.4823
78.6193
79.7919
81.0057
82.2628
83.5628
84.9018
86.2743
87.6704
89.0739
90.4588
91.7721
92.8965
93.6013
35.4704
40.6315
44.0418
47.413
50.7982
54.1061
57.2062
60.0096
62.4952
64.683
66.6041
68.2998
69.8025
71.1441
72.3628
73.5
74.5941
75.6751
76.7657
77.8805
79.0296
80.2192
81.4521
82.7282
84.0435
85.3932
86.7659
88.1468
89.5103
90.8059
91.9187
92.6196
35.0326
40.1107
43.3844
46.5883
49.837
53.0845
56.2062
59.081
61.6492
63.9091
65.8862
67.616
69.1406
70.4945
71.7161
72.8483
73.9308
74.9953
76.0656
77.158
78.2832
79.4487
80.6574
81.9096
83.2014
84.5282
85.8787
87.2381
88.5814
89.8599
90.9624
91.6613
34.5806
39.5784
42.7162
45.7436
48.834
51.9966
55.1276
58.0801
60.7479
63.0981
65.1453
66.9237
68.4773
69.847
71.0747
72.2039
73.2755
74.3232
75.3731
76.4427
77.5438
78.6844
79.8687
81.0973
82.3655
83.6702
84.9988
86.337
87.6604
88.9233
90.0167
90.715
34.1059
39.0265
42.0299
44.8722
47.7802
50.8265
53.9462
56.9781
59.7649
62.2284
64.365
66.207
67.7986
69.1912
70.4279
71.5556
72.617
73.6486
74.6772
75.7226
76.7983
77.9137
79.0728
80.2771
81.5219
82.8046
84.1118
85.4287
86.7338
87.9814
89.0679
89.7671
33.5881
38.4394
41.3125
43.9631
46.6632
49.554
52.631
55.7384
58.6642
61.2704
63.5218
65.4459
67.0916
68.5118
69.7626
70.8909
71.9429
72.9566
73.9629
74.9832
76.0323
77.1207
78.2541
79.4345
80.6548
81.916
83.2024
84.4988
85.7849
87.0192
88.0997
88.8023
33.0142
37.8016
40.5497
43.0039
45.4704
48.1597
51.149
54.315
57.4003
60.1863
62.5876
64.6193
66.3356
67.7974
69.0652
70.196
71.2379
72.2339
73.2155
74.2073
75.2273
76.2873
77.3934
78.5479
79.7445
80.9833
82.2483
83.524
84.7933
86.0138
87.0908
87.7993
32.3643
37.0913
39.7206
41.9746
44.1794
46.6127
49.4499
52.6457
55.9092
58.9193
61.5176
63.6916
65.5005
67.0166
68.3111
69.4471
70.4799
71.4541
72.408
73.3691
74.3571
75.3862
76.4633
77.5931
78.7624
79.9806
81.2257
82.4817
83.7327
84.9425
86.0172
86.7349
31.6192
36.2874
38.8032
40.8564
42.7769
44.8959
47.4999
50.6574
54.1008
57.4
60.2592
62.6279
64.5625
66.153
67.4824
68.6254
69.6458
70.597
71.5186
72.4429
73.3945
74.3886
75.435
76.5358
77.6805
78.8751
80.0987
81.3331
82.5695
83.7668
84.844
85.5739
30.7526
35.3665
37.7739
39.6269
41.2397
42.9802
45.2492
48.2762
51.8704
55.5052
58.7252
61.3556
63.4624
65.1501
66.5286
67.6849
68.6949
69.6157
70.4978
71.3788
72.2874
73.2438
74.2543
75.3296
76.4409
77.6173
78.8227
80.0386
81.2567
82.4484
83.5293
84.2782
29.7501
34.314
36.6152
38.2656
39.545
40.8341
42.642
45.4059
49.0952
53.1162
56.7942
59.8106
62.155
63.9813
65.4221
66.5926
67.5815
68.465
69.2987
70.1281
70.9871
71.8966
72.8729
73.916
75.0017
76.1528
77.3381
78.5309
79.7401
80.9205
82.0135
82.7874
28.5908
33.1089
35.3029
36.7448
37.6606
38.4137
39.6016
41.9144
45.5976
50.0492
54.3174
57.8341
60.5287
62.5408
64.0694
65.2608
66.2318
67.0668
67.8352
68.5929
69.3887
70.2497
71.1769
72.1958
73.2382
74.3776
75.5509
76.7286
77.9193
79.1067
80.2158
81.028
27.2883
31.7586
33.8362
35.0529
35.5624
35.6715
36.0266
37.6177
41.1384
46.076
51.1162
55.3222
58.4789
60.7571
62.3977
63.6083
64.5326
65.2913
65.9744
66.6519
67.3731
68.1672
69.0623
70.052
71.0685
72.1829
73.348
74.5036
75.7046
76.8833
78.0244
78.8902
25.8571
30.2717
32.2143
33.1749
33.2155
32.5338
31.7479
32.194
35.3299
40.8612
46.924
52.0537
55.8299
58.4463
60.2366
61.4618
62.3357
62.999
63.5547
64.0949
64.7179
65.4494
66.2747
67.2551
68.2148
69.3342
70.509
71.6605
72.8411
74.0589
75.2469
76.1984
24.3926
28.728
30.5031
31.1578
30.6404
28.9658
26.5575
25.0775
27.5499
34.0535
41.5394
47.8743
52.4327
55.4562
57.3729
58.584
59.3232
59.8055
60.1937
60.6072
61.1251
61.7692
62.5996
63.5754
64.5182
65.6005
66.8108
67.9437
69.1868
70.4056
71.664
72.744
22.9535
27.1827
28.7487
29.0299
27.8456
24.9528
20.2869
16.5695
18.1648
25.3862
34.8342
42.5997
48.0495
51.4977
53.5588
54.6643
55.2094
55.4888
55.5915
55.7034
56.1078
56.7079
57.4614
58.5061
59.3994
60.5257
61.8443
63.0216
64.2416
65.5859
66.9197
68.181
21.713
25.8107
27.1431
27.0177
25.1362
21.0897
19.9908
24.8347
25.6065
21.1753
27.5886
36.2915
42.2678
45.9643
47.8571
48.7426
48.8477
48.5186
48.2502
48.2853
48.6559
49.1302
50.2763
51.3837
52.4865
53.3332
54.9464
56.1845
57.6151
59.0209
60.434
62.0459
20.6122
24.5673
25.6103
24.9332
22.044
16.2758
12.3194
20.1103
19.6807
7.68312
19.7812
29.4684
35.3269
38.5199
40.1234
39.9835
38.9577
38.7799
37.6478
36.3913
37.334
38.3888
39.0385
40.7111
42.2274
42.8913
45.1924
46.719
47.8477
50.0397
51.1148
53.3126
19.8164
23.5838