/*--------------------------------*- C++ -*----------------------------------*\
  =========                 |
  \\      /  F ield         | OpenFOAM: The Open Source CFD Toolbox
   \\    /   O peration     | Website:  https://openfoam.org
    \\  /    A nd           | Version:  6
     \\/     M anipulation  |
\*---------------------------------------------------------------------------*/
FoamFile
{
    version     2.0;
    format      ascii;
    class       volScalarField;
    location    "1";
    object      nut;
}
// * * * * * * * * * * * * * * * * * * * * * * * * * * * * * * * * * * * * * //

dimensions      [0 2 -1 0 0 0 0];

internalField   nonuniform List<scalar> 
63280
(
5.79379e-07
5.92387e-07
6.02511e-07
6.09215e-07
6.11712e-07
6.13389e-07
6.085e-07
6.0005e-07
5.87761e-07
5.77393e-07
5.65072e-07
5.52383e-07
5.37922e-07
5.19824e-07
5.03231e-07
4.84592e-07
4.68419e-07
4.85556e-07
4.86304e-07
4.8727e-07
4.84918e-07
4.83669e-07
4.78195e-07
4.71024e-07
4.58309e-07
4.48809e-07
4.40121e-07
4.36833e-07
4.33241e-07
4.32677e-07
4.3102e-07
4.29589e-07
4.26822e-07
4.2241e-07
4.1279e-07
4.14568e-07
4.16985e-07
4.18115e-07
4.20191e-07
4.23435e-07
4.23357e-07
4.18078e-07
4.10154e-07
4.02235e-07
3.93757e-07
3.85872e-07
3.79318e-07
3.73446e-07
3.69769e-07
3.66116e-07
3.6351e-07
3.70732e-07
3.75916e-07
3.81108e-07
3.85104e-07
3.8668e-07
3.86607e-07
3.83581e-07
3.80028e-07
3.76164e-07
3.73504e-07
3.70237e-07
3.66906e-07
3.62356e-07
3.57715e-07
3.51956e-07
3.47962e-07
3.4229e-07
3.25509e-07
3.25364e-07
3.26334e-07
3.26083e-07
3.26224e-07
3.2262e-07
3.17814e-07
3.10658e-07
3.0453e-07
3.009e-07
2.9852e-07
2.98972e-07
2.99294e-07
3.01262e-07
3.01924e-07
3.03018e-07
3.03508e-07
2.79316e-07
2.78767e-07
2.78269e-07
2.77904e-07
2.79069e-07
2.80794e-07
2.82451e-07
2.82082e-07
2.80885e-07
2.77762e-07
2.75035e-07
2.70929e-07
2.6881e-07
2.66139e-07
2.65466e-07
2.63779e-07
2.64201e-07
2.50228e-07
2.51455e-07
2.50979e-07
2.49795e-07
2.49204e-07
2.5007e-07
2.52231e-07
2.55134e-07
2.57716e-07
2.59272e-07
2.59795e-07
2.58624e-07
2.57549e-07
2.55495e-07
2.54005e-07
2.52336e-07
2.5101e-07
2.17214e-07
2.1673e-07
2.15038e-07
2.12316e-07
2.09763e-07
2.07706e-07
2.07114e-07
2.06832e-07
2.08393e-07
2.09037e-07
2.11028e-07
2.11932e-07
2.13267e-07
2.14975e-07
2.15941e-07
2.17893e-07
2.18923e-07
1.90271e-07
1.9203e-07
1.9304e-07
1.92589e-07
1.90997e-07
1.89338e-07
1.8828e-07
1.88124e-07
1.8891e-07
1.89604e-07
1.90789e-07
1.91109e-07
1.91964e-07
1.92313e-07
1.93474e-07
1.9384e-07
1.9523e-07
1.69202e-07
1.69405e-07
1.69094e-07
1.67177e-07
1.64287e-07
1.60391e-07
1.57896e-07
1.55711e-07
1.55919e-07
1.56092e-07
1.57255e-07
1.58527e-07
1.59832e-07
1.61193e-07
1.62894e-07
1.64306e-07
1.66151e-07
1.44566e-07
1.44728e-07
1.45783e-07
1.4712e-07
1.48309e-07
1.48319e-07
1.47499e-07
1.45629e-07
1.44208e-07
1.42948e-07
1.42737e-07
1.42546e-07
1.43496e-07
1.43505e-07
1.44856e-07
1.45356e-07
1.46605e-07
1.26542e-07
1.27294e-07
1.28446e-07
1.30657e-07
1.31593e-07
1.31988e-07
1.2949e-07
1.26011e-07
1.22299e-07
1.19299e-07
1.1788e-07
1.17702e-07
1.18635e-07
1.19509e-07
1.2032e-07
1.20899e-07
1.22094e-07
1.07998e-07
1.07926e-07
1.08286e-07
1.08868e-07
1.09378e-07
1.10046e-07
1.10445e-07
1.10466e-07
1.10137e-07
1.09288e-07
1.08579e-07
1.07605e-07
1.07622e-07
1.06953e-07
1.07222e-07
1.06577e-07
1.06807e-07
9.36847e-08
9.42253e-08
9.49751e-08
9.57173e-08
9.65054e-08
9.74668e-08
9.86493e-08
9.99435e-08
1.01094e-07
1.01759e-07
1.02022e-07
1.01773e-07
1.01617e-07
1.01354e-07
1.01459e-07
1.01594e-07
1.01866e-07
7.74109e-08
7.77393e-08
7.82606e-08
7.85598e-08
7.86942e-08
7.88772e-08
7.92155e-08
7.97139e-08
8.0361e-08
8.09275e-08
8.15873e-08
8.19071e-08
8.26853e-08
8.28539e-08
8.39352e-08
8.43072e-08
8.53018e-08
6.52435e-08
6.67225e-08
6.77663e-08
6.83093e-08
6.86662e-08
6.90527e-08
6.95437e-08
7.011e-08
7.06969e-08
7.11232e-08
7.14605e-08
7.15351e-08
7.17508e-08
7.18191e-08
7.22568e-08
7.26656e-08
7.32298e-08
5.14699e-08
5.27109e-08
5.34626e-08
5.35349e-08
5.3343e-08
5.32273e-08
5.32517e-08
5.34146e-08
5.37397e-08
5.41188e-08
5.45354e-08
5.48511e-08
5.52059e-08
5.54592e-08
5.59344e-08
5.62138e-08
5.69195e-08
3.99658e-08
4.13557e-08
4.24904e-08
4.31666e-08
4.35917e-08
4.388e-08
4.41106e-08
4.43539e-08
4.46591e-08
4.48871e-08
4.50345e-08
4.50229e-08
4.50465e-08
4.51517e-08
4.54136e-08
4.56984e-08
4.61882e-08
2.49006e-08
2.43506e-08
2.43829e-08
2.4739e-08
2.50857e-08
2.5561e-08
2.59597e-08
2.61917e-08
2.64089e-08
2.68852e-08
2.74616e-08
2.81195e-08
2.84569e-08
2.86296e-08
2.87688e-08
2.88499e-08
2.90617e-08
2.94851e-08
1.62238e-08
1.44185e-08
1.35277e-08
1.31418e-08
1.3003e-08
1.29202e-08
1.28343e-08
1.2791e-08
1.28279e-08
1.2892e-08
1.30735e-08
1.32411e-08
1.337e-08
1.36417e-08
1.32514e-08
1.38831e-08
1.34035e-08
1.34047e-08
9.54051e-08
9.25413e-08
9.20402e-08
9.20437e-08
9.09107e-08
9.26673e-08
9.32711e-08
9.00431e-08
8.96067e-08
9.07804e-08
8.7078e-08
8.96411e-08
9.25972e-08
9.47078e-08
9.60244e-08
9.73272e-08
9.76265e-08
9.86543e-08
3.98566e-06
3.99645e-06
4.00711e-06
4.02176e-06
4.03469e-06
4.05022e-06
4.05707e-06
4.06431e-06
4.06742e-06
4.07562e-06
4.08095e-06
4.08312e-06
4.08765e-06
4.08054e-06
4.07669e-06
4.06964e-06
4.06137e-06
3.9323e-06
3.93762e-06
3.94766e-06
3.95208e-06
3.96522e-06
3.97032e-06
3.98014e-06
3.98276e-06
3.98677e-06
3.98383e-06
3.98655e-06
3.98471e-06
3.98917e-06
3.99499e-06
3.99841e-06
4.0055e-06
4.00169e-06
3.86853e-06
3.87181e-06
3.87762e-06
3.88317e-06
3.88963e-06
3.89318e-06
3.89609e-06
3.90525e-06
3.91522e-06
3.92522e-06
3.92992e-06
3.92646e-06
3.92573e-06
3.92041e-06
3.92293e-06
3.92619e-06
3.9278e-06
3.8012e-06
3.80467e-06
3.81193e-06
3.82651e-06
3.84222e-06
3.85726e-06
3.86331e-06
3.86779e-06
3.86956e-06
3.87478e-06
3.87822e-06
3.88212e-06
3.88258e-06
3.88485e-06
3.87934e-06
3.88264e-06
3.88086e-06
3.74805e-06
3.74794e-06
3.75217e-06
3.75512e-06
3.77156e-06
3.78197e-06
3.79246e-06
3.79655e-06
3.78968e-06
3.78688e-06
3.77792e-06
3.78025e-06
3.77955e-06
3.78963e-06
3.79573e-06
3.80396e-06
3.81087e-06
3.66782e-06
3.67283e-06
3.67428e-06
3.67152e-06
3.672e-06
3.67257e-06
3.68183e-06
3.69351e-06
3.71011e-06
3.71599e-06
3.72243e-06
3.71653e-06
3.71634e-06
3.71201e-06
3.71864e-06
3.71711e-06
3.72861e-06
3.58062e-06
3.59786e-06
3.60848e-06
3.60979e-06
3.6053e-06
3.60172e-06
3.60376e-06
3.61459e-06
3.63126e-06
3.64748e-06
3.66352e-06
3.66906e-06
3.67469e-06
3.67386e-06
3.67454e-06
3.67291e-06
3.67781e-06
3.50295e-06
3.51559e-06
3.52339e-06
3.52242e-06
3.51525e-06
3.50155e-06
3.49828e-06
3.49642e-06
3.51223e-06
3.5201e-06
3.53541e-06
3.54555e-06
3.55193e-06
3.56494e-06
3.56924e-06
3.58061e-06
3.58897e-06
3.39598e-06
3.40713e-06
3.42324e-06
3.43643e-06
3.43954e-06
3.43331e-06
3.42513e-06
3.42101e-06
3.4275e-06
3.43355e-06
3.44654e-06
3.45301e-06
3.46319e-06
3.46831e-06
3.48057e-06
3.4854e-06
3.49757e-06
3.31657e-06
3.32431e-06
3.33951e-06
3.34961e-06
3.35195e-06
3.33306e-06
3.3197e-06
3.3003e-06
3.30116e-06
3.30235e-06
3.3098e-06
3.32067e-06
3.332e-06
3.34195e-06
3.35533e-06
3.36493e-06
3.3837e-06
3.19806e-06
3.19383e-06
3.19699e-06
3.20801e-06
3.22624e-06
3.23812e-06
3.24629e-06
3.24142e-06
3.23587e-06
3.22515e-06
3.22318e-06
3.21879e-06
3.23105e-06
3.23156e-06
3.2464e-06
3.25371e-06
3.27104e-06
3.07474e-06
3.07488e-06
3.07629e-06
3.10039e-06
3.12278e-06
3.15644e-06
3.16771e-06
3.15987e-06
3.13649e-06
3.10491e-06
3.08204e-06
3.07107e-06
3.07826e-06
3.08942e-06
3.10054e-06
3.10304e-06
3.10552e-06
2.94828e-06
2.94518e-06
2.94819e-06
2.95699e-06
2.96459e-06
2.97511e-06
2.98644e-06
2.99583e-06
3.00189e-06
2.99777e-06
2.99427e-06
2.98266e-06
2.98795e-06
2.98285e-06
2.99276e-06
2.98745e-06
2.98578e-06
2.80133e-06
2.80376e-06
2.81189e-06
2.82147e-06
2.83052e-06
2.84041e-06
2.85381e-06
2.87131e-06
2.89062e-06
2.90516e-06
2.91544e-06
2.91676e-06
2.91821e-06
2.91576e-06
2.91768e-06
2.92056e-06
2.92668e-06
2.63038e-06
2.63447e-06
2.64574e-06
2.65575e-06
2.66155e-06
2.66673e-06
2.6752e-06
2.68667e-06
2.70024e-06
2.71043e-06
2.72282e-06
2.72696e-06
2.74111e-06
2.74115e-06
2.75831e-06
2.76329e-06
2.77907e-06
2.4329e-06
2.46089e-06
2.48465e-06
2.49913e-06
2.50752e-06
2.51464e-06
2.52404e-06
2.53589e-06
2.54947e-06
2.56039e-06
2.5707e-06
2.57491e-06
2.58173e-06
2.58344e-06
2.5918e-06
2.59965e-06
2.61102e-06
2.21324e-06
2.24656e-06
2.27374e-06
2.28476e-06
2.28535e-06
2.28558e-06
2.28907e-06
2.29487e-06
2.30316e-06
2.31205e-06
2.32266e-06
2.33106e-06
2.34065e-06
2.34645e-06
2.35793e-06
2.36321e-06
2.38027e-06
1.94632e-06
1.9831e-06
2.01779e-06
2.04066e-06
2.05518e-06
2.06506e-06
2.07317e-06
2.08129e-06
2.09154e-06
2.10042e-06
2.10803e-06
2.11075e-06
2.11289e-06
2.11572e-06
2.12281e-06
2.12972e-06
2.1439e-06
1.57065e-06
1.5462e-06
1.54537e-06
1.55982e-06
1.57362e-06
1.59302e-06
1.61076e-06
1.6211e-06
1.62755e-06
1.64272e-06
1.66185e-06
1.68753e-06
1.70252e-06
1.71136e-06
1.71811e-06
1.72094e-06
1.72713e-06
1.74204e-06
1.26127e-06
1.1676e-06
1.11754e-06
1.09464e-06
1.08628e-06
1.0819e-06
1.07711e-06
1.07435e-06
1.0771e-06
1.08136e-06
1.09332e-06
1.10376e-06
1.1118e-06
1.13146e-06
1.1046e-06
1.14676e-06
1.11868e-06
1.11295e-06
9.2975e-06
9.16771e-06
9.11584e-06
9.09988e-06
9.04198e-06
9.08196e-06
9.12711e-06
9.07564e-06
9.01043e-06
8.99795e-06
9.07235e-06
9.21e-06
9.37072e-06
9.51476e-06
9.64316e-06
9.79155e-06
9.91369e-06
1.00632e-05
8.55448e-06
8.57145e-06
8.58757e-06
8.61665e-06
8.64158e-06
8.6797e-06
8.70212e-06
8.72832e-06
8.74077e-06
8.76557e-06
8.78975e-06
8.80498e-06
8.83858e-06
8.84482e-06
8.85532e-06
8.86421e-06
8.85611e-06
8.47632e-06
8.47904e-06
8.49969e-06
8.50393e-06
8.53456e-06
8.54767e-06
8.5746e-06
8.58915e-06
8.60915e-06
8.61108e-06
8.62846e-06
8.63489e-06
8.65235e-06
8.67945e-06
8.69621e-06
8.73188e-06
8.73309e-06
8.36714e-06
8.36687e-06
8.37393e-06
8.38372e-06
8.39988e-06
8.41274e-06
8.41992e-06
8.44071e-06
8.46189e-06
8.48734e-06
8.51458e-06
8.52083e-06
8.53912e-06
8.54154e-06
8.55764e-06
8.58046e-06
8.59614e-06
8.24801e-06
8.24981e-06
8.25537e-06
8.27876e-06
8.30812e-06
8.34561e-06
8.36617e-06
8.38387e-06
8.39109e-06
8.40642e-06
8.41991e-06
8.43867e-06
8.45157e-06
8.47594e-06
8.47575e-06
8.49725e-06
8.50904e-06
8.1645e-06
8.16357e-06
8.17306e-06
8.16872e-06
8.19992e-06
8.22431e-06
8.25206e-06
8.28081e-06
8.27542e-06
8.28318e-06
8.2665e-06
8.27746e-06
8.27624e-06
8.30414e-06
8.32421e-06
8.34918e-06
8.38053e-06
8.02334e-06
8.0352e-06
8.0428e-06
8.03772e-06
8.03919e-06
8.03508e-06
8.0506e-06
8.07069e-06
8.11094e-06
8.12901e-06
8.15709e-06
8.15715e-06
8.16964e-06
8.16798e-06
8.19713e-06
8.19655e-06
8.23854e-06
7.86038e-06
7.89475e-06
7.92521e-06
7.93924e-06
7.93605e-06
7.92629e-06
7.92091e-06
7.93279e-06
7.96317e-06
7.99563e-06
8.0404e-06
8.06201e-06
8.08806e-06
8.09847e-06
8.11395e-06
8.1155e-06
8.14099e-06
7.74442e-06
7.76907e-06
7.79246e-06
7.80246e-06
7.8026e-06
7.77586e-06
7.77064e-06
7.75407e-06
7.78472e-06
7.79828e-06
7.83035e-06
7.86362e-06
7.87835e-06
7.91803e-06
7.93219e-06
7.9592e-06
7.9863e-06
7.56083e-06
7.57252e-06
7.60185e-06
7.63797e-06
7.6612e-06
7.6605e-06
7.64775e-06
7.63028e-06
7.63875e-06
7.64311e-06
7.67276e-06
7.6914e-06
7.72197e-06
7.73907e-06
7.77585e-06
7.79137e-06
7.82545e-06
7.44079e-06
7.44708e-06
7.47577e-06
7.50498e-06
7.53962e-06
7.52091e-06
7.51208e-06
7.46837e-06
7.46137e-06
7.45815e-06
7.46588e-06
7.48948e-06
7.51937e-06
7.54299e-06
7.57958e-06
7.5967e-06
7.64231e-06
7.25039e-06
7.23613e-06
7.23277e-06
7.24582e-06
7.28453e-06
7.31472e-06
7.3476e-06
7.34932e-06
7.3469e-06
7.3228e-06
7.31975e-06
7.3026e-06
7.33734e-06
7.34047e-06
7.37933e-06
7.3986e-06
7.43991e-06
7.04144e-06
7.03677e-06
7.01849e-06
7.05719e-06
7.09221e-06
7.17266e-06
7.23214e-06
7.25572e-06
7.24583e-06
7.19754e-06
7.14842e-06
7.11046e-06
7.11576e-06
7.13549e-06
7.16535e-06
7.17607e-06
7.18682e-06
6.84465e-06
6.83079e-06
6.82841e-06
6.84721e-06
6.86542e-06
6.89e-06
6.91938e-06
6.94405e-06
6.96679e-06
6.96274e-06
6.96587e-06
6.93915e-06
6.96112e-06
6.95365e-06
6.98655e-06
6.98884e-06
6.99199e-06
6.59194e-06
6.5807e-06
6.58562e-06
6.6015e-06
6.61823e-06
6.63432e-06
6.65566e-06
6.68527e-06
6.72412e-06
6.75643e-06
6.78744e-06
6.7979e-06
6.8122e-06
6.81382e-06
6.82293e-06
6.83103e-06
6.85008e-06
6.32057e-06
6.31589e-06
6.33492e-06
6.36344e-06
6.38539e-06
6.40243e-06
6.42422e-06
6.44969e-06
6.48003e-06
6.49897e-06
6.52978e-06
6.53589e-06
6.57444e-06
6.5713e-06
6.60859e-06
6.61829e-06
6.65015e-06
5.94176e-06
5.97968e-06
6.02703e-06
6.06535e-06
6.08857e-06
6.10379e-06
6.1217e-06
6.14415e-06
6.17276e-06
6.1962e-06
6.22463e-06
6.23911e-06
6.26425e-06
6.27263e-06
6.29426e-06
6.31268e-06
6.33923e-06
5.60592e-06
5.66229e-06
5.73408e-06
5.78645e-06
5.809e-06
5.82063e-06
5.83607e-06
5.85205e-06
5.86811e-06
5.88197e-06
5.90331e-06
5.92271e-06
5.94829e-06
5.96277e-06
5.99027e-06
6.00058e-06
6.03876e-06
5.15756e-06
5.19732e-06
5.25867e-06
5.3115e-06
5.34869e-06
5.37401e-06
5.39449e-06
5.41213e-06
5.43358e-06
5.45286e-06
5.47504e-06
5.49024e-06
5.50312e-06
5.51206e-06
5.52934e-06
5.54075e-06
5.57094e-06
4.87834e-06
4.83869e-06
4.82465e-06
4.84369e-06
4.86465e-06
4.89998e-06
4.94066e-06
4.97195e-06
4.98426e-06
5.00352e-06
5.01664e-06
5.05599e-06
5.08323e-06
5.10927e-06
5.13273e-06
5.14227e-06
5.14901e-06
5.17258e-06
4.73954e-06
4.59582e-06
4.48713e-06
4.41842e-06
4.38314e-06
4.36617e-06
4.35355e-06
4.34013e-06
4.34774e-06
4.35624e-06
4.39513e-06
4.41303e-06
4.43638e-06
4.50511e-06
4.41444e-06
4.5415e-06
4.4953e-06
4.4233e-06
1.09983e-05
1.0854e-05
1.07895e-05
1.07782e-05
1.07193e-05
1.07522e-05
1.08106e-05
1.07811e-05
1.0712e-05
1.06923e-05
1.07748e-05
1.09186e-05
1.10976e-05
1.12608e-05
1.14073e-05
1.15776e-05
1.17188e-05
1.18823e-05
1.42486e-05
1.42615e-05
1.42703e-05
1.43071e-05
1.43367e-05
1.43962e-05
1.44319e-05
1.44797e-05
1.45011e-05
1.4541e-05
1.45897e-05
1.46119e-05
1.46839e-05
1.47185e-05
1.47497e-05
1.47979e-05
1.47922e-05
1.41631e-05
1.41532e-05
1.41811e-05
1.4175e-05
1.42209e-05
1.42423e-05
1.42834e-05
1.43119e-05
1.43544e-05
1.43607e-05
1.43913e-05
1.44063e-05
1.44306e-05
1.44869e-05
1.45164e-05
1.45994e-05
1.46092e-05
1.40137e-05
1.4e-05
1.39983e-05
1.40023e-05
1.40243e-05
1.40491e-05
1.40529e-05
1.40827e-05
1.41175e-05
1.41538e-05
1.4211e-05
1.42254e-05
1.42681e-05
1.42859e-05
1.43156e-05
1.43724e-05
1.44147e-05
1.38325e-05
1.38269e-05
1.38194e-05
1.38418e-05
1.38778e-05
1.394e-05
1.39779e-05
1.40135e-05
1.40264e-05
1.40499e-05
1.40705e-05
1.4103e-05
1.4126e-05
1.41851e-05
1.41967e-05
1.42431e-05
1.42862e-05
1.37157e-05
1.37134e-05
1.37297e-05
1.37059e-05
1.37418e-05
1.37818e-05
1.38188e-05
1.38881e-05
1.38884e-05
1.39143e-05
1.38842e-05
1.39012e-05
1.38913e-05
1.39356e-05
1.39743e-05
1.40176e-05
1.40961e-05
1.35009e-05
1.35176e-05
1.35347e-05
1.35244e-05
1.35266e-05
1.35113e-05
1.3524e-05
1.3544e-05
1.36121e-05
1.36444e-05
1.36968e-05
1.37059e-05
1.37333e-05
1.37302e-05
1.37957e-05
1.37945e-05
1.38844e-05
1.32437e-05
1.32892e-05
1.33442e-05
1.3381e-05
1.33868e-05
1.33708e-05
1.33486e-05
1.33467e-05
1.3384e-05
1.34241e-05
1.35024e-05
1.35449e-05
1.35981e-05
1.3625e-05
1.367e-05
1.36724e-05
1.37327e-05
1.30882e-05
1.31187e-05
1.31581e-05
1.31811e-05
1.32023e-05
1.316e-05
1.31513e-05
1.31052e-05
1.31446e-05
1.31648e-05
1.32025e-05
1.32691e-05
1.32885e-05
1.33625e-05
1.33984e-05
1.34405e-05
1.35035e-05
1.28175e-05
1.28172e-05
1.28496e-05
1.29087e-05
1.2966e-05
1.29825e-05
1.29722e-05
1.29305e-05
1.29347e-05
1.29255e-05
1.29637e-05
1.2994e-05
1.30487e-05
1.30807e-05
1.31529e-05
1.31872e-05
1.32567e-05
1.26491e-05
1.26432e-05
1.26742e-05
1.27123e-05
1.27976e-05
1.27914e-05
1.28005e-05
1.27345e-05
1.27068e-05
1.26944e-05
1.26887e-05
1.27148e-05
1.27681e-05
1.28067e-05
1.28812e-05
1.29067e-05
1.29881e-05
1.23701e-05
1.23425e-05
1.23227e-05
1.23242e-05
1.23828e-05
1.24317e-05
1.24981e-05
1.25157e-05
1.25248e-05
1.24824e-05
1.24736e-05
1.24239e-05
1.24803e-05
1.24892e-05
1.25577e-05
1.25956e-05
1.26673e-05
1.20613e-05
1.20535e-05
1.19978e-05
1.20358e-05
1.20699e-05
1.21835e-05
1.23071e-05
1.23838e-05
1.24154e-05
1.23693e-05
1.22957e-05
1.22114e-05
1.21987e-05
1.22191e-05
1.22747e-05
1.23017e-05
1.23391e-05
1.17742e-05
1.1742e-05
1.17186e-05
1.17417e-05
1.17754e-05
1.18155e-05
1.18673e-05
1.19117e-05
1.19617e-05
1.19577e-05
1.19701e-05
1.19135e-05
1.19488e-05
1.194e-05
1.19996e-05
1.20242e-05
1.20474e-05
1.14057e-05
1.13677e-05
1.13542e-05
1.13689e-05
1.13936e-05
1.14157e-05
1.14424e-05
1.14792e-05
1.15366e-05
1.15845e-05
1.164e-05
1.16591e-05
1.16909e-05
1.17012e-05
1.17234e-05
1.17378e-05
1.17777e-05
1.10101e-05
1.09819e-05
1.0992e-05
1.10372e-05
1.10839e-05
1.11163e-05
1.11534e-05
1.11985e-05
1.12559e-05
1.12844e-05
1.13352e-05
1.13363e-05
1.14015e-05
1.13987e-05
1.14549e-05
1.14749e-05
1.15242e-05
1.0436e-05
1.04573e-05
1.05126e-05
1.05746e-05
1.06185e-05
1.06428e-05
1.06676e-05
1.06999e-05
1.07464e-05
1.07818e-05
1.08295e-05
1.08525e-05
1.09e-05
1.09194e-05
1.09585e-05
1.09905e-05
1.10384e-05
9.99276e-06
1.00404e-05
1.01407e-05
1.02466e-05
1.03095e-05
1.03389e-05
1.03721e-05
1.04101e-05
1.04438e-05
1.04607e-05
1.04839e-05
1.05071e-05
1.05459e-05
1.05732e-05
1.0617e-05
1.06404e-05
1.06993e-05
9.46375e-06
9.47532e-06
9.53273e-06
9.59941e-06
9.65438e-06
9.69203e-06
9.72348e-06
9.75047e-06
9.78407e-06
9.8097e-06
9.83937e-06
9.86273e-06
9.88506e-06
9.90042e-06
9.9299e-06
9.94552e-06
9.9871e-06
9.52508e-06
9.55286e-06
9.57254e-06
9.60676e-06
9.62897e-06
9.67081e-06
9.72822e-06
9.78454e-06
9.80965e-06
9.8428e-06
9.8386e-06
9.87029e-06
9.88211e-06
9.90832e-06
9.94445e-06
9.96433e-06
9.97162e-06
9.99761e-06
9.90371e-06
9.81481e-06
9.69444e-06
9.58314e-06
9.50355e-06
9.45573e-06
9.43124e-06
9.40303e-06
9.42016e-06
9.41995e-06
9.51548e-06
9.51651e-06
9.57746e-06
9.69162e-06
9.51472e-06
9.74012e-06
9.71363e-06
9.52389e-06
1.24119e-05
1.22517e-05
1.2164e-05
1.21519e-05
1.2095e-05
1.21149e-05
1.21835e-05
1.21834e-05
1.21288e-05
1.21028e-05
1.21769e-05
1.23155e-05
1.251e-05
1.26904e-05
1.28573e-05
1.30499e-05
1.32112e-05
1.33871e-05
2.10576e-05
2.10597e-05
2.1049e-05
2.10837e-05
2.11078e-05
2.11843e-05
2.12287e-05
2.12958e-05
2.13213e-05
2.13663e-05
2.14427e-05
2.14589e-05
2.15607e-05
2.1632e-05
2.16772e-05
2.17801e-05
2.17716e-05
2.09626e-05
2.09333e-05
2.09645e-05
2.0937e-05
2.09876e-05
2.10188e-05
2.10685e-05
2.11049e-05
2.11721e-05
2.11827e-05
2.12217e-05
2.12443e-05
2.12613e-05
2.13461e-05
2.13771e-05
2.15186e-05
2.15357e-05
2.07719e-05
2.0737e-05
2.07179e-05
2.07033e-05
2.0719e-05
2.07606e-05
2.07571e-05
2.07854e-05
2.08342e-05
2.08727e-05
2.09641e-05
2.09845e-05
2.10452e-05
2.10819e-05
2.11135e-05
2.12082e-05
2.12872e-05
2.05117e-05
2.04964e-05
2.04675e-05
2.04766e-05
2.05067e-05
2.05915e-05
2.0647e-05
2.07032e-05
2.0722e-05
2.07514e-05
2.07759e-05
2.0818e-05
2.08384e-05
2.09341e-05
2.09604e-05
2.10278e-05
2.1117e-05
2.0347e-05
2.03456e-05
2.0374e-05
2.03239e-05
2.03461e-05
2.04038e-05
2.04341e-05
2.05496e-05
2.05615e-05
2.06156e-05
2.05726e-05
2.05928e-05
2.05634e-05
2.06124e-05
2.06679e-05
2.07188e-05
2.08646e-05
2.00507e-05
2.0065e-05
2.00957e-05
2.00787e-05
2.00813e-05
2.00539e-05
2.00549e-05
2.00594e-05
2.01515e-05
2.02035e-05
2.02826e-05
2.03038e-05
2.03466e-05
2.03263e-05
2.04329e-05
2.04251e-05
2.05712e-05
1.96856e-05
1.97287e-05
1.98064e-05
1.98735e-05
1.98994e-05
1.98842e-05
1.98431e-05
1.98113e-05
1.98452e-05
1.98795e-05
1.99871e-05
2.00524e-05
2.01348e-05
2.01739e-05
2.02621e-05
2.02605e-05
2.03626e-05
1.94896e-05
1.95143e-05
1.95674e-05
1.9599e-05
1.96552e-05
1.96033e-05
1.95925e-05
1.95041e-05
1.95373e-05
1.95714e-05
1.96026e-05
1.97075e-05
1.97265e-05
1.98266e-05
1.98955e-05
1.99442e-05
2.00589e-05
1.91296e-05
1.91034e-05
1.91243e-05
1.91952e-05
1.9295e-05
1.93425e-05
1.9351e-05
1.92801e-05
1.92731e-05
1.92441e-05
1.92775e-05
1.93136e-05
1.93888e-05
1.94303e-05
1.95395e-05
1.95959e-05
1.97157e-05
1.89047e-05
1.88789e-05
1.89009e-05
1.89263e-05
1.90678e-05
1.90908e-05
1.91319e-05
1.9058e-05
1.90022e-05
1.89801e-05
1.89547e-05
1.89636e-05
1.9035e-05
1.90791e-05
1.91988e-05
1.92342e-05
1.93557e-05
1.85334e-05
1.84915e-05
1.84485e-05
1.84196e-05
1.84898e-05
1.85559e-05
1.86587e-05
1.87002e-05
1.87339e-05
1.86801e-05
1.86691e-05
1.8568e-05
1.86281e-05
1.86383e-05
1.87339e-05
1.87918e-05
1.88997e-05
1.8124e-05
1.81161e-05
1.80148e-05
1.80281e-05
1.80484e-05
1.8169e-05
1.83542e-05
1.84993e-05
1.86002e-05
1.85878e-05
1.85124e-05
1.8373e-05
1.83203e-05
1.83204e-05
1.83985e-05
1.84439e-05
1.85258e-05
1.77488e-05
1.76943e-05
1.76345e-05
1.76441e-05
1.76933e-05
1.77507e-05
1.78252e-05
1.78897e-05
1.79786e-05
1.79846e-05
1.80149e-05
1.79191e-05
1.79473e-05
1.79313e-05
1.80109e-05
1.80656e-05
1.81302e-05
1.72788e-05
1.72071e-05
1.7159e-05
1.71568e-05
1.71846e-05
1.72122e-05
1.72416e-05
1.72784e-05
1.73504e-05
1.74094e-05
1.74898e-05
1.75129e-05
1.75584e-05
1.75753e-05
1.76129e-05
1.76323e-05
1.77012e-05
1.67781e-05
1.67168e-05
1.66962e-05
1.67409e-05
1.6814e-05
1.68649e-05
1.69131e-05
1.69764e-05
1.70719e-05
1.71213e-05
1.71944e-05
1.71848e-05
1.72604e-05
1.72584e-05
1.73227e-05
1.73521e-05
1.74215e-05
1.60626e-05
1.60366e-05
1.60711e-05
1.61404e-05
1.62039e-05
1.6237e-05
1.62632e-05
1.62997e-05
1.63655e-05
1.64156e-05
1.64823e-05
1.65096e-05
1.65717e-05
1.65997e-05
1.66534e-05
1.66944e-05
1.67684e-05
1.55968e-05
1.56026e-05
1.56938e-05
1.58377e-05
1.59496e-05
1.60008e-05
1.60481e-05
1.61127e-05
1.61804e-05
1.6212e-05
1.62312e-05
1.62454e-05
1.62769e-05
1.63141e-05
1.63591e-05
1.64033e-05
1.64751e-05
1.51622e-05
1.51527e-05
1.51869e-05
1.52398e-05
1.52945e-05
1.53328e-05
1.53655e-05
1.53942e-05
1.54402e-05
1.54728e-05
1.55023e-05
1.55217e-05
1.55385e-05
1.55494e-05
1.55813e-05
1.5598e-05
1.56392e-05
1.57181e-05
1.59152e-05
1.60596e-05
1.61594e-05
1.6196e-05
1.62446e-05
1.63153e-05
1.63925e-05
1.64293e-05
1.64886e-05
1.64831e-05
1.65036e-05
1.64847e-05
1.64815e-05
1.65086e-05
1.65321e-05
1.65361e-05
1.65601e-05
1.66436e-05
1.66568e-05
1.65432e-05
1.63954e-05
1.62683e-05
1.61792e-05
1.61427e-05
1.60982e-05
1.61418e-05
1.61097e-05
1.63196e-05
1.62658e-05
1.644e-05
1.65746e-05
1.63179e-05
1.66487e-05
1.66706e-05
1.63533e-05
1.36651e-05
1.34929e-05
1.33754e-05
1.33552e-05
1.33034e-05
1.33076e-05
1.33796e-05
1.34112e-05
1.33837e-05
1.33556e-05
1.34187e-05
1.35414e-05
1.3748e-05
1.39403e-05
1.41289e-05
1.43444e-05
1.45257e-05
1.47145e-05
2.90863e-05
2.90764e-05
2.9039e-05
2.9063e-05
2.90708e-05
2.9159e-05
2.92092e-05
2.92945e-05
2.93228e-05
2.93586e-05
2.94664e-05
2.94698e-05
2.95816e-05
2.96938e-05
2.97391e-05
2.99024e-05
2.98798e-05
2.89718e-05
2.89228e-05
2.89573e-05
2.89032e-05
2.89425e-05
2.89847e-05
2.90434e-05
2.90805e-05
2.91714e-05
2.91891e-05
2.92328e-05
2.92654e-05
2.92607e-05
2.93697e-05
2.93826e-05
2.95845e-05
2.96018e-05
2.8743e-05
2.86829e-05
2.86433e-05
2.86017e-05
2.85923e-05
2.86516e-05
2.86464e-05
2.86622e-05
2.87247e-05
2.87565e-05
2.88847e-05
2.89169e-05
2.89855e-05
2.90445e-05
2.90602e-05
2.9183e-05
2.92999e-05
2.83836e-05
2.836e-05
2.83081e-05
2.8295e-05
2.8304e-05
2.84053e-05
2.84788e-05
2.85589e-05
2.85862e-05
2.86204e-05
2.86485e-05
2.8702e-05
2.87049e-05
2.88295e-05
2.88705e-05
2.89451e-05
2.90867e-05
2.81494e-05
2.81538e-05
2.82036e-05
2.81333e-05
2.81211e-05
2.81987e-05
2.82094e-05
2.83665e-05
2.83945e-05
2.84877e-05
2.84402e-05
2.84667e-05
2.84117e-05
2.84489e-05
2.85157e-05
2.85506e-05
2.87723e-05
2.7778e-05
2.7777e-05
2.78252e-05
2.78045e-05
2.78064e-05
2.77713e-05
2.7759e-05
2.77333e-05
2.7836e-05
2.79123e-05
2.80233e-05
2.80636e-05
2.81299e-05
2.80735e-05
2.82145e-05
2.81897e-05
2.8387e-05
2.72959e-05
2.73183e-05
2.74108e-05
2.75114e-05
2.75693e-05
2.75676e-05
2.75164e-05
2.74442e-05
2.74649e-05
2.74804e-05
2.76072e-05
2.76949e-05
2.781e-05
2.78487e-05
2.79884e-05
2.79782e-05
2.81195e-05
2.70572e-05
2.70618e-05
2.71254e-05
2.71581e-05
2.72578e-05
2.72103e-05
2.72064e-05
2.70721e-05
2.70753e-05
2.71294e-05
2.71484e-05
2.72937e-05
2.73157e-05
2.74224e-05
2.75312e-05
2.75725e-05
2.77458e-05
2.66113e-05
2.65478e-05
2.65439e-05
2.66076e-05
2.67487e-05
2.68378e-05
2.68881e-05
2.67952e-05
2.67702e-05
2.67217e-05
2.67392e-05
2.67743e-05
2.68648e-05
2.69058e-05
2.70448e-05
2.71161e-05
2.72986e-05
2.63181e-05
2.62695e-05
2.62774e-05
2.62671e-05
2.64521e-05
2.65196e-05
2.66062e-05
2.6547e-05
2.64643e-05
2.64328e-05
2.6394e-05
2.63699e-05
2.64493e-05
2.64824e-05
2.66428e-05
2.6688e-05
2.68515e-05
2.58612e-05
2.58059e-05
2.57409e-05
2.56646e-05
2.57297e-05
2.58087e-05
2.59474e-05
2.60179e-05
2.60875e-05
2.60364e-05
2.60378e-05
2.58826e-05
2.59207e-05
2.59185e-05
2.60312e-05
2.61027e-05
2.62513e-05
2.53573e-05
2.53508e-05
2.52117e-05
2.5176e-05
2.51708e-05
2.52723e-05
2.54991e-05
2.57141e-05
2.59035e-05
2.59552e-05
2.59168e-05
2.57358e-05
2.56296e-05
2.55813e-05
2.56658e-05
2.57224e-05
2.58612e-05
2.49117e-05
2.48375e-05
2.47353e-05
2.47075e-05
2.47614e-05
2.4837e-05
2.49343e-05
2.50158e-05
2.51478e-05
2.51776e-05
2.52395e-05
2.51135e-05
2.51096e-05
2.50713e-05
2.51551e-05
2.52332e-05
2.53597e-05
2.43684e-05
2.42657e-05
2.41742e-05
2.4137e-05
2.41557e-05
2.41864e-05
2.42182e-05
2.42495e-05
2.4331e-05
2.43956e-05
2.44997e-05
2.45236e-05
2.45738e-05
2.45874e-05
2.46357e-05
2.46546e-05
2.47586e-05
2.38145e-05
2.37199e-05
2.36545e-05
2.36728e-05
2.37606e-05
2.38317e-05
2.38857e-05
2.39574e-05
2.40902e-05
2.41768e-05
2.42779e-05
2.42665e-05
2.43282e-05
2.43212e-05
2.43786e-05
2.44049e-05
2.4497e-05
2.30577e-05
2.29617e-05
2.29472e-05
2.29975e-05
2.3069e-05
2.31094e-05
2.31326e-05
2.31647e-05
2.32452e-05
2.3315e-05
2.34022e-05
2.34359e-05
2.34992e-05
2.35268e-05
2.35862e-05
2.36227e-05
2.37219e-05
2.26704e-05
2.26215e-05
2.2673e-05
2.28202e-05
2.29714e-05
2.30464e-05
2.30999e-05
2.31814e-05
2.32886e-05
2.33537e-05
2.33772e-05
2.33809e-05
2.33807e-05
2.34185e-05
2.34383e-05
2.35018e-05
2.35768e-05
2.24276e-05
2.24499e-05
2.24935e-05
2.25326e-05
2.25775e-05
2.2611e-05
2.26395e-05
2.26593e-05
2.27134e-05
2.27585e-05
2.2791e-05
2.28024e-05
2.27979e-05
2.27879e-05
2.28041e-05
2.28144e-05
2.28435e-05
2.32924e-05
2.36904e-05
2.403e-05
2.4275e-05
2.43748e-05
2.44605e-05
2.4571e-05
2.46804e-05
2.47274e-05
2.48118e-05
2.48438e-05
2.48779e-05
2.48644e-05
2.48253e-05
2.48255e-05
2.48495e-05
2.48425e-05
2.48677e-05
2.42842e-05
2.43022e-05
2.41253e-05
2.3918e-05
2.37483e-05
2.36247e-05
2.3595e-05
2.35413e-05
2.36423e-05
2.35327e-05
2.39382e-05
2.37704e-05
2.41953e-05
2.43298e-05
2.40213e-05
2.44987e-05
2.45672e-05
2.41375e-05
1.48084e-05
1.46307e-05
1.44818e-05
1.44443e-05
1.43986e-05
1.43886e-05
1.44559e-05
1.45149e-05
1.45229e-05
1.45006e-05
1.4558e-05
1.46559e-05
1.48716e-05
1.50681e-05
1.52778e-05
1.55177e-05
1.5718e-05
1.59214e-05
3.84593e-05
3.84413e-05
3.83779e-05
3.83869e-05
3.83701e-05
3.84635e-05
3.85185e-05
3.86235e-05
3.86616e-05
3.8675e-05
3.88156e-05
3.88118e-05
3.89128e-05
3.90674e-05
3.90996e-05
3.93215e-05
3.92702e-05
3.83106e-05
3.82468e-05
3.82879e-05
3.82127e-05
3.82247e-05
3.82738e-05
3.83472e-05
3.83828e-05
3.84954e-05
3.85243e-05
3.85718e-05
3.86219e-05
3.85869e-05
3.8719e-05
3.86935e-05
3.89507e-05
3.89579e-05
3.80504e-05
3.79647e-05
3.79059e-05
3.78389e-05
3.77859e-05
3.78543e-05
3.78593e-05
3.78579e-05
3.79355e-05
3.79531e-05
3.81143e-05
3.81717e-05
3.8241e-05
3.83303e-05
3.83172e-05
3.84499e-05
3.85945e-05
3.75719e-05
3.75416e-05
3.74725e-05
3.74365e-05
3.74105e-05
3.75178e-05
3.76081e-05
3.77161e-05
3.77592e-05
3.7799e-05
3.7831e-05
3.7905e-05
3.78827e-05
3.80245e-05
3.80805e-05
3.81445e-05
3.8333e-05
3.7242e-05
3.72559e-05
3.73367e-05
3.72665e-05
3.72045e-05
3.73006e-05
3.72865e-05
3.74752e-05
3.75205e-05
3.76597e-05
3.76203e-05
3.76629e-05
3.75867e-05
3.75984e-05
3.76745e-05
3.76649e-05
3.79541e-05
3.68162e-05
3.67828e-05
3.68472e-05
3.6831e-05
3.68322e-05
3.67953e-05
3.67765e-05
3.67157e-05
3.68098e-05
3.69071e-05
3.70537e-05
3.71205e-05
3.72288e-05
3.71281e-05
3.72916e-05
3.72375e-05
3.74691e-05
3.62128e-05
3.61944e-05
3.62879e-05
3.64188e-05
3.65182e-05
3.65439e-05
3.65018e-05
3.63895e-05
3.63896e-05
3.63772e-05
3.65096e-05
3.66154e-05
3.67717e-05
3.67964e-05
3.69886e-05
3.69685e-05
3.71393e-05
3.59251e-05
3.58958e-05
3.59643e-05
3.59906e-05
3.61342e-05
3.61073e-05
3.61265e-05
3.59589e-05
3.59079e-05
3.59767e-05
3.59819e-05
3.61651e-05
3.62059e-05
3.62999e-05
3.64521e-05
3.64721e-05
3.66992e-05
3.54002e-05
3.52942e-05
3.52565e-05
3.52916e-05
3.54617e-05
3.55944e-05
3.57093e-05
3.56162e-05
3.55696e-05
3.5505e-05
3.55001e-05
3.55279e-05
3.56309e-05
3.56631e-05
3.58224e-05
3.58915e-05
3.61404e-05
3.50251e-05
3.49571e-05
3.49513e-05
3.48907e-05
3.50905e-05
3.52083e-05
3.5352e-05
3.53334e-05
3.52372e-05
3.51932e-05
3.51539e-05
3.50918e-05
3.51711e-05
3.51781e-05
3.53646e-05
3.54156e-05
3.5622e-05
3.44992e-05
3.44344e-05
3.43568e-05
3.42271e-05
3.42642e-05
3.43446e-05
3.45143e-05
3.46172e-05
3.47289e-05
3.46944e-05
3.47255e-05
3.45339e-05
3.45322e-05
3.4499e-05
3.46149e-05
3.4687e-05
3.48777e-05
3.39168e-05
3.39108e-05
3.37563e-05
3.36578e-05
3.36134e-05
3.36751e-05
3.3912e-05
3.41829e-05
3.44677e-05
3.46031e-05
3.46414e-05
3.44537e-05
3.43008e-05
3.41828e-05
3.42478e-05
3.42982e-05
3.44967e-05
3.34302e-05
3.33468e-05
3.32111e-05
3.31282e-05
3.31647e-05
3.32528e-05
3.3372e-05
3.34679e-05
3.36367e-05
3.36992e-05
3.38005e-05
3.3671e-05
3.36224e-05
3.35435e-05
3.36115e-05
3.36919e-05
3.38891e-05
3.28606e-05
3.27381e-05
3.26058e-05
3.252e-05
3.25123e-05
3.25385e-05
3.25726e-05
3.25959e-05
3.26806e-05
3.27445e-05
3.28667e-05
3.28911e-05
3.29375e-05
3.2935e-05
3.29823e-05
3.29902e-05
3.31285e-05
3.23309e-05
3.22121e-05
3.21015e-05
3.20713e-05
3.21496e-05
3.22355e-05
3.22924e-05
3.23615e-05
3.25139e-05
3.26466e-05
3.2777e-05
3.27868e-05
3.28188e-05
3.2797e-05
3.28345e-05
3.28355e-05
3.29441e-05
3.1657e-05
3.14795e-05
3.13975e-05
3.1403e-05
3.14631e-05
3.15063e-05
3.15258e-05
3.15475e-05
3.16322e-05
3.17245e-05
3.18317e-05
3.18835e-05
3.19382e-05
3.19567e-05
3.20097e-05
3.20233e-05
3.2136e-05
3.1395e-05
3.12964e-05
3.13041e-05
3.14278e-05
3.15966e-05
3.16956e-05
3.17557e-05
3.1839e-05
3.19743e-05
3.2082e-05
3.21282e-05
3.21382e-05
3.20994e-05
3.2128e-05
3.20994e-05
3.21666e-05
3.22343e-05
3.12482e-05
3.13443e-05
3.14671e-05
3.15424e-05
3.16032e-05
3.16527e-05
3.16951e-05
3.1709e-05
3.17673e-05
3.18323e-05
3.18837e-05
3.19036e-05
3.18836e-05
3.18446e-05
3.18349e-05