/*--------------------------------*- C++ -*----------------------------------*\
  =========                 |
  \\      /  F ield         | OpenFOAM: The Open Source CFD Toolbox
   \\    /   O peration     | Website:  https://openfoam.org
    \\  /    A nd           | Version:  6
     \\/     M anipulation  |
\*---------------------------------------------------------------------------*/
FoamFile
{
    version     2.0;
    format      ascii;
    class       volScalarField;
    location    "50";
    object      yPlus;
}
// * * * * * * * * * * * * * * * * * * * * * * * * * * * * * * * * * * * * * //

dimensions      [0 0 0 0 0 0 0];

internalField   uniform 0;

boundaryField
{
    inlet
    {
        type            calculated;
        value           uniform 0;
    }
    outlet
    {
        type            calculated;
        value           uniform 0;
    }
    roughCylinder
    {
        type            calculated;
        value           nonuniform List<scalar> 
5120
(
75.1301
59.6882
52.3594
55.5673
61.5681
66.6484
70.8669
74.4033
77.4103
80.0366
82.412
84.5983
86.6398
88.5815
90.4445
92.2737
94.0979
95.9747
97.9184
99.9421
102.054
104.254
106.535
108.887
111.293
113.726
116.151
118.514
120.742
122.725
124.28
125.148
93.0807
61.3629
51.9296
54.0913
59.8947
64.9354
69.1347
72.6542
75.6507
78.285
80.6499
82.8056
84.813
86.6981
88.5074
90.2692
92.0442
93.8444
95.7116
97.6644
99.7054
101.831
104.036
106.308
108.631
110.981
113.322
115.606
117.757
119.672
121.173
122.01
91.7656
60.2517
50.9563
52.6629
58.2484
63.2137
67.3679
70.886
73.9075
76.543
78.9067
81.0519
83.0139
84.8595
86.6103
88.3219
90.0133
91.7567
93.564
95.4445
97.4075
99.4545
101.579
103.77
106.012
108.28
110.539
112.742
114.818
116.666
118.114
118.92
93.7989
61.4315
50.4497
51.1028
56.48
61.4262
65.6026
69.1423
72.1672
74.8305
77.1968
79.3155
81.2577
83.053
84.7607
86.4043
88.0631
89.7349
91.4649
93.2784
95.1774
97.156
99.2083
101.324
103.486
105.673
107.852
109.976
111.978
113.761
115.156
115.931
88.9871
59.7737
49.7245
49.7007
54.7825
59.6699
63.8074
67.3534
70.4405
73.1195
75.4899
77.6201
79.5312
81.3042
82.9612
84.575
86.1473
87.7699
89.4544
91.2036
93.0274
94.931
96.907
98.946
101.032
103.143
105.245
107.293
109.224
110.943
112.289
113.033
74.3458
58.2225
48.625
48.0663
52.8854
57.7643
61.9746
65.5981
68.691
71.4119
73.8102
75.9183
77.8351
79.5722
81.2076
82.7535
84.3183
85.881
87.4888
89.1769
90.9478
92.7925
94.7061
96.6766
98.6892
100.724
102.75
104.726
106.587
108.245
109.541
110.257
87.5161
60.0877
48.4166
46.622
51.0915
55.9416
60.1207
63.7294
66.9252
69.685
72.0903
74.2433
76.1428
77.8888
79.4844
81.0341
82.5104
84.032
85.614
87.2497
88.9493
90.7229
92.5633
94.4624
96.4056
98.3696
100.325
102.229
104.024
105.623
106.872
107.559
72.5935
58.4068
47.7314
44.9402
48.9706
53.8007
58.11
61.8981
65.1029
67.9157
70.393
72.5294
74.4638
76.1858
77.7965
79.277
80.7809
82.2622
83.7672
85.3472
87.0073
88.734
90.5231
92.3624
94.2374
96.131
98.0152
99.8525
101.582
103.123
104.326
104.986
74.4557
59.4722
47.795
43.5539
46.9734
51.8128
56.1236
59.8345
63.2012
66.1041
68.5896
70.8207
72.7537
74.5204
76.0973
77.631
79.047
80.4952
82.0011
83.5455
85.138
86.7965
88.5144
90.2853
92.0967
93.9255
95.7439
97.5135
99.1815
100.668
101.827
102.458
82.0829
60.2365
47.5444
41.8575
44.4659
49.2022
53.7013
57.8012
61.1991
64.1674
66.8034
69.0254
71.0359
72.7874
74.4241
75.876
77.3613
78.7981
80.2257
81.7189
83.2888
84.9153
86.595
88.3169
90.0655
91.8276
93.5786
95.2853
96.8919
98.3224
99.4374
100.041
71.826
56.9441
46.7069
40.2622
42.0131
46.8103
51.4309
55.3185
58.9899
62.1605
64.8043
67.2013
69.231
71.0833
72.6847
74.2558
75.6455
77.0498
78.5124
79.9926
81.4969
83.0556
84.6644
86.3169
88.0065
89.7087
91.3979
93.0389
94.5863
95.965
97.0378
97.6123
80.309
57.8822
46.0222
38.5187
38.7848
43.2457
48.0922
52.8528
56.6151
59.8697
62.8154
65.2155
67.394
69.2369
70.9692
72.4313
73.9446
75.3778
76.7542
78.182
79.6838
81.2287
82.814
84.433
86.0643
87.7021
89.3257
90.9077
92.3955
93.7204
94.7499
95.2974
77.3483
58.1258
45.7509
36.4986
35.4563
39.9055
45.233
49.432
53.7539
57.4708
60.423
63.1483
65.3763
67.4156
69.1003
70.784
72.1895
73.5829
75.0404
76.4877
77.9239
79.3979
80.9105
82.4524
84.0292
85.6116
87.1773
88.6933
90.1236
91.3988
92.387
92.9052
65.4481
54.9342
45.1713
35.1466
30.5773
34.0859
39.5735
46.0738
50.5868
54.4359
58.0282
60.78
63.2951
65.3267
67.2638
68.7855
70.3934
71.8795
73.2353
74.6224
76.083
77.5695
79.0776
80.6096
82.1327
83.6524
85.1526
86.6136
87.9848
89.2062
90.1516
90.6432
47.5736
47.501
41.8413
32.3731
25.9792
28.0177
35.3973
40.039
46.2079
51.2196
54.8222
58.2432
60.8618
63.2717
65.1262
67.0412
68.5182
69.9423
71.4476
72.9041
74.2955
75.7011
77.1306
78.569
80.0405
81.5092
82.9547
84.3472
85.6614
86.8338
87.7382
88.1984
24.6657
36.1843
35.487
29.4184
13.502
11.8542
19.9027
34.5763
40.9229
46.4038
51.5974
55.088
58.3138
60.7134
63.0542
64.702
66.5075
68.1292
69.502
70.8775
72.3325
73.7908
75.2436
76.7069
78.1313
79.5364
80.9144
82.2555
83.5104
84.6275
85.488
85.9225
10.7929
19.4215
19.8931
13.2626
8.13153
15.9833
7.31365
14.45
32.0772
41.0086
46.3832
51.5978
55.043
58.2284
60.4003
62.7638
64.3901
65.8992
67.5313
69.0579
70.4329
71.7869
73.146
74.4854
75.8567
77.2155
78.5412
79.8063
81.0019
82.0697
82.8885
83.2866
6.94494
6.54242
8.77219
14.2289
3.81636
15.9353
16.839
6.88937
5.41631
30.5781
41.2507
46.5411
51.5699
54.726
57.9058
59.7778
61.9688
63.8626
65.2999
66.6985
68.1995
69.6733
71.1004
72.5199
73.8554
75.1462
76.3981
77.6173
78.7514
79.76
80.5319
80.9061
7.81069
9.12575
12.4839
13.9118
15.7652
17.2184
18.0146
18.379
18.2318
22.0801
28.1224
40.8159
46.2913
51.4088
54.202
57.5009
59.3969
61.0734
62.9703
64.6675
66.0625
67.3817
68.6811
69.9209
71.1929
72.4422
73.6437
74.7701
75.8388
76.7959
77.5235
77.8515
5.34998
11.4548
6.13588
15.7179
6.3345
12.7104
12.4803
11.2222
10.0741
8.39517
9.69544
28.2572
40.6982
45.6736
50.926
53.179
56.1913
58.6311
60.1992
61.6672
63.3024
64.8668
66.3228
67.733
68.9929
70.1641
71.2784
72.3692
73.3728
74.2635
74.9391
75.2469
6.62913
15.9979
19.7966
20.7253
16.722
8.04939
9.92085
4.13244
21.8737
21.017
20.5738
10.7088
28.1892
40.5158
44.6716
50.347
52.717
54.719
57.1825
59.2569
60.7274
62.0275
63.2573
64.4019
65.5701
66.707
67.7737
68.7364
69.6608
70.495
71.1206
71.3624
8.00753
18.3772
23.2027
26.7008
28.6367
27.2475
17.1928
17.5925
25.3243
7.33195
15.0801
13.7447
7.03015
26.3549
39.6827
42.566
47.839
51.5355
53.3511
54.9573
56.923
58.7452
60.3768
61.8199
63.0286
64.0682
65.0214
65.9751
66.831
67.5876
68.154
68.3862
7.86331
18.2661
24.0028
28.1907
30.7703
31.9064
31.731
24.4868
22.355
13.0719
25.2853
6.18248
21.0777
8.95694
24.036
39.0992
42.1333
44.9505
48.886
51.8904
53.5403
54.8204
55.9089
56.9919
58.0445
59.0667
59.9798
60.726
61.4734
62.1647
62.6688
62.7897
7.4742
17.1488
23.1986
27.9107
31.3617
33.3849
33.5883
32.7835
27.0867
28.8134
27.2578
25.2367
6.07379
15.3874
23.0728
12.2366
33.0343
40.2866
42.4622
44.4331
47.3465
49.9384
52.12
53.7598
54.9902
55.8735
56.6207
57.4353
58.1191
58.7156
59.1562
59.3004
6.69725
15.5764
21.5527
26.2486
29.825
32.4121
34.0375
34.0884
33.0004
29.8625
27.4939
28.9776
15.5003
24.3418
12.5456
12.4578
5.28697
22.8436
34.7187
40.2546
42.3174
43.5638
44.4928
45.1989
46.1124
47.0546
47.7756
48.1713
48.6678
49.1859
49.5183
49.4272
5.98238
14.3556
20.0008
24.4834
27.991
30.6528
32.4407
33.4454
33.2694
32.0423
29.9668
15.1106
3.2656
26.7439
24.9098
15.4473
23.6934
18.6531
4.98738
18.6556
27.7906
33.1965
36.8951
41.1233
42.6094
43.1846
43.6998
44.3966
44.8375
45.2806
45.6232
45.6287
5.23605
13.2254
18.2558
22.2549
25.4498
28.0206
30.0027
31.2461
31.8125
31.6951
30.5634
31.923
22.922
24.9329
18.0479
20.6471
17.5096
25.3956
15.3111
18.5688
13.1674
21.5886
23.6583
11.4023
13.959
17.39
16.2897
14.8155
16.4725
14.7306
14.677
12.8866
4.62097
12.2052
16.0715
19.1729
21.8353
24.1735
26.1266
27.6219
28.5823
29.2335
30.1398
29.4653
31.3149
26.9928
5.21147
8.67885
21.8497
20.5837
11.5395
26.4391
19.1367
27.6246
21.3534
19.4224
6.879
28.6457
1.41365
21.7427
30.6345
22.3755
8.26917
22.6537
4.24171
11.4884
13.616
15.3011
17.0458
18.8892
20.7355
22.4298
23.9648
25.454
26.8538
29.1731
29.8245
31.3395
31.6054
17.4687
17.5568
16.3832
9.91345
21.331
12.0611
20.2706
27.6195
7.513
27.6183
19.3899
23.4376
11.5507
21.3625
7.59522
29.9894
12.7075
3.98489
11.3502
12.148
12.5655
13.1351
14.0031
15.3114
17.0627
19.0649
21.211
23.6004
25.4881
28.2088
29.9528
30.9598
32.8164
25.3498
17.2121
6.96172
19.6519
28.5059
17.508
5.18908
25.5785
7.75504
31.2671
18.1269
7.91075
31.3932
18.2317
32.2435
7.66741
3.64479
11.4374
11.759
11.8606
11.9857
12.1988
13.0328
14.6375
16.6133
18.6896
20.7448
23.2967
25.362
27.8321
30.2745
31.1574
32.4325
30.1685
21.0865
4.68668
23.0061
22.5133
19.5932
22.4736
14.8074
26.7865
32.6791
29.1222
7.29568
29.5294
25.2933
18.6666
3.56337
11.384
11.7588
11.7428
11.8589
12.1202
13.2954
15.1307
16.9754
18.6292
20.2638
21.6994
23.653
25.5793
27.5675
30.2265
31.7268
32.3335
32.6177
29.913
21.3605
15.4945
22.0567
3.20125
14.4936
8.79873
20.1674
17.3646
11.4346
34.9149
32.5012
34.3084
2.46003
9.17224
11.3681
11.486
11.5835
11.9886
13.7967
15.9797
17.9037
19.5097
20.8276
22.1509
23.218
24.4835
26.0967
27.6482
29.8037
31.8287
32.4624
32.4318
32.3627
29.8868
26.4232
23.9144
20.091
19.1999
17.7375
18.0395
18.4616
19.7335
19.5676
21.1707
2.22441
8.45458
10.7629
11.4079
11.638
13.1629
15.5247
17.6635
19.3927
20.8028
22.0198
22.9776
23.913
24.6945
25.4018
26.5802
27.9432
29.5548
31.4353
32.5425
32.3519
32.0576
31.3715
30.9678
30.8341
30.5342
30.1383
29.7668
29.4556
29.2999
29.3295
29.4321
2.87344
9.72059
11.5861
11.7165
12.8531
15.229
17.5264
19.4366
21.0158
22.3395
23.4366
24.3971
25.1092
25.6726
26.165
26.4797
27.0873
28.1666
29.4237
30.7231
31.6679
31.9163
31.4586
30.479
29.3425
28.1526
26.9753
26.1344
25.5156
25.3464
25.5395
25.821
3.72702
11.3004
11.6486
13.1071
15.4414
17.7363
19.7151
21.3918
22.8166
24.0328
25.0829
25.9319
26.6289
27.1112
27.3538
27.5339
27.6148
27.7829
28.3888
29.2988
30.0856
30.4778
30.3786
29.9238
29.1685
28.1971
27.0885
26.1733
25.6316
25.5722
25.7858
26.0129
3.83214
11.7988
13.5044
15.7798
17.9807
19.9561
21.7043
23.2422
24.5956
25.7853
26.8137
27.6895
28.3501
28.7951
29.0406
29.0254
28.8801
28.7192
28.6039
28.7161
29.0749
29.4194
29.3637
28.7836
27.7588
26.3819
24.8736
23.6693
23.0155
23.0175
23.4237
23.8671
4.27989
12.3899
15.5921
18.095
20.1792
21.9969
23.6213
25.0821
26.3981
27.5769
28.6214
29.4965
30.1897
30.6598
30.8739
30.878
30.659
30.2621
29.8295
29.4602
29.1872
28.9863
28.7056
28.178
27.3036
26.143
24.8507
23.7752
23.2589
23.4104
23.9059
24.3675
5.53486
14.6195
17.8126
20.1425
22.0578
23.7756
25.3563
26.8102
28.1468
29.3644
30.4497
31.3802
32.1097
32.6151
32.8901
32.8994
32.6696
32.2403
31.6408
30.9526
30.2809
29.6568
29.0122
28.2159
27.1747
25.8767
24.4739
23.3294
22.8132
23.0378
23.6604
24.2376
6.70884
16.152
19.4201
21.7657
23.6965
25.4288
27.0234
28.5041
29.8838
31.1537
32.2959
33.2741
34.0615
34.629
34.9507
35.0292
34.8511
34.4162
33.7666
32.953
32.0268
31.0526
30.0512
28.9927
27.8151
26.5171
25.208
24.1771
23.7761
24.0906
24.7601
25.3441
8.04106
9.38202
10.6993
11.2074
11.3337
11.8056
11.8186
11.4097
11.5981
11.5958
11.5989
11.4359
11.5233
11.2253
10.4071
9.92551
9.50252
9.20431
9.00786
8.91241
8.91241
9.0079
9.20442
9.50263
9.92577
10.4077
11.2165
11.6602
11.6622
11.6749
11.6472
11.9772
11.6272
11.5754
11.4643
11.549
11.2191
10.7045
9.38522
8.04289
17.425
18.2215
18.8739
19.2264
19.4997
19.6592
19.7552
19.766
19.7669
19.7023
19.6278
19.5154
19.402
19.2588
19.1141
19.0126
18.9201
18.8548
18.8097
18.7879
18.7879
18.8098
18.8548
18.9201
19.0126
19.1141
19.2589
19.4038
19.5196
19.631
19.7101
19.7685
19.7721
19.7616
19.6559
19.5043
19.2286
18.876
18.2235
17.4265
20.6379
21.2499
21.7537
22.0302
22.2607
22.3624
22.4341
22.4291
22.4106
22.3516
22.2901
22.2086
22.1307
22.0475
21.9736
21.9116
21.8588
21.82
21.7928
21.779
21.779
21.7928
21.82
21.8588
21.9117
21.9736
22.0476
22.1305
22.2091
22.2903
22.3523
22.4107
22.429
22.4349
22.363
22.2614
22.0309
21.7545
21.251
20.6391
22.9069
23.4308
23.8837
24.1529
24.3844
24.5048
24.6052
24.6423
24.6683
24.663
24.6573
24.638
24.6204
24.5992
24.5793
24.5629
24.5487
24.539
24.5316
24.5274
24.5274
24.5316
24.539
24.5487
24.5629
24.5793
24.5992
24.6204
24.6381
24.6573
24.663
24.6684
24.6423
24.6053
24.505
24.3846
24.1532
23.884
23.4315
22.9079
24.8044
25.2951
25.739
26.0227
26.2775
26.437
26.5823
26.6771
26.7654
26.8263
26.8857
26.9328
26.9779
27.0172
27.0522
27.0841
27.1107
27.1322
27.1463
27.1525
27.1525
27.1463
27.1322
27.1106
27.0841
27.0522
27.0171
26.9779
26.9328
26.8857
26.8263
26.7654
26.6771
26.5823
26.4371
26.2775
26.0229
25.7392
25.2955
24.8051
26.5355
27.0035
27.4577
27.7609
28.0546
28.2639
28.4699
28.6278
28.7841
28.9137
29.0418
29.1562
29.266
29.3666
29.4581
29.5397
29.6081
29.6619
29.6981
29.7151
29.7151
29.698
29.6619
29.6081
29.5397
29.4581
29.3665
29.266
29.1562
29.0418
28.9137
28.7841
28.6278
28.4699
28.264
28.0546
27.761
27.4579
27.0038
26.536
28.1525
28.604
29.0865
29.4163
29.763
30.0229
30.2908
30.5099
30.7317
30.9264
31.1198
31.2976
31.4685
31.6262
31.7706
31.8981
32.0054
32.089
32.1452
32.1717
32.1717
32.1451
32.0889
32.0053
31.8981
31.7706
31.6262
31.4685
31.2975
31.1197
30.9264
30.7317
30.5098
30.2908
30.0229
29.763
29.4164
29.0867
28.6043
28.1529
29.6751
30.119
30.6418
31.0013
31.3986
31.7051
32.0291
32.3032
32.5834
32.8362
33.0874
33.3213
33.5461
33.7541
33.9444
34.1119
34.2523
34.3612
34.4342
34.4684
34.4684
34.4342
34.3611
34.2522
34.1117
33.9443
33.754
33.5461
33.3212
33.0873
32.8361
32.5833
32.3032
32.0291
31.7051
31.3986
31.0013
30.6419
30.1192
29.6754
31.1077
31.5478
32.1129
32.4968
32.9394
33.2855
33.6572
33.9784
34.3079
34.6101
34.91
35.1912
35.4609
35.7105
35.9385
36.1385
36.3058
36.4349
36.521
36.5611
36.5611
36.521
36.4349
36.3058
36.1384
35.9384
35.7105
35.4609
35.191
34.9099
34.61
34.3078
33.9784
33.6571
33.2855
32.9394
32.4968
32.1129
31.5479
31.1081
32.4337
32.8711
33.4721
33.8765
34.3558
34.7351
35.1456
35.5058
35.8754
36.2179
36.5572
36.8765
37.1822
37.4647
37.7221
37.9473
38.1351
38.2795
38.3756
38.4199
38.4199
38.3756
38.2795
38.1351
37.9472
37.722
37.4646
37.1821
36.8764
36.5571
36.2178
35.8753
35.5058
35.1455
34.7351
34.3557
33.8765
33.4722
32.8714
32.434
33.6261
34.0592
34.6906
35.1114
35.6203
36.0268
36.4684
36.8603
37.2621
37.6368
38.0071
38.3562
38.6892
38.9969
39.2761
39.5198
39.7225
39.8778
39.9809
40.0282
40.0282
39.9809
39.8778
39.7224
39.5198
39.2761
38.9968
38.6892
38.3562
38.007
37.6367
37.262
36.8603
36.4683
36.0268
35.6202
35.1114
34.6906
34.0594
33.6263
34.6557
35.081
35.7412
36.1749
36.7095
37.1389
37.6065
38.0247
38.4524
38.853
39.2476
39.6197
39.9734
40.2994
40.5944
40.8511
41.0638
41.2262
41.3339
41.383
41.383
41.3339
41.2262
41.0637
40.851
40.5944
40.2993
39.9734
39.6197
39.2475
38.853
38.4523
38.0245
37.6064
37.1388
36.7095
36.1749
35.7413
35.0811
34.656
35.4897
35.9134
36.6006
37.0488
37.6072
38.0581
38.5491
38.9904
39.4407
39.863
40.2776
40.6681
41.0379
41.3776
41.684
41.9497
42.1691
42.3363
42.4467
42.4969
42.4969
42.4467
42.3363
42.1691
41.9496
41.684
41.3776
41.0378
40.668
40.2775
39.863
39.4406
38.9904
38.5491
38.0581
37.6072
37.0489
36.6007
35.9136
35.4901
36.1068
36.538
37.2539
37.7217
38.3046
38.7788
39.293
39.7572
40.2285
40.6708
41.1031
41.5093
41.8924
42.2434
42.5584
42.8308
43.055
43.2254
43.3376
43.3885
43.3885
43.3376
43.2253
43.055
42.8308
42.5584
42.2433
41.8924
41.5093
41.1031
40.6708
40.2285
39.7572
39.293
38.7788
38.3046
37.7217
37.254
36.5382
36.1071
36.4964
36.9395
37.6944
38.1861
38.7992
39.2994
39.8394
40.3273
40.8205
41.2825
41.7319
42.1528
42.548
42.9086
43.2311
43.5089
43.7369
43.9097
44.0234
44.0748
44.0748
44.0234
43.9097
43.7369
43.5089
43.2311
42.9086
42.548
42.1528
41.7319
41.2825
40.8205
40.3274
39.8394
39.2994
38.7992
38.1861
37.6947
36.9397
36.497
36.6366
37.1146
37.9128
38.4393
39.0871
39.6186
40.1876
40.7019
41.2182
41.7009
42.1676
42.6033
43.0103
43.3802
43.7096
43.9924
44.2237
44.3987
44.5137
44.5658
44.5658
44.5137
44.3987
44.2237
43.9924
43.7097
43.3802
43.0103
42.6034
42.1677
41.7009
41.2183
40.702
40.1877
39.6187
39.0872
38.4395
37.9131
37.1149
36.637
36.5209
37.0514
37.9008
38.4735
39.1607
39.7301
40.3311
40.8751
41.4166
41.9213
42.4064
42.8573
43.2764
43.6557
43.992
44.2797
44.5145
44.6917
44.8081
44.861
44.861
44.8081
44.6918
44.5145
44.2798
43.9921
43.6557
43.2764
42.8574
42.4065
41.9214
41.4167
40.8753
40.3313
39.7302
39.1609
38.4737
37.9012
37.052
36.5216
36.1487
36.7297
37.6456
38.2719
39.0063
39.6183
40.2556
40.8323
41.4012
41.9299
42.4345
42.9016
43.3334
43.7227
44.0665
44.3597
44.5981
44.778
44.896
44.9498
44.9498
44.896
44.778
44.5982
44.3597
44.0666
43.7228
43.3336
42.9018
42.4346
41.9301
41.4014
40.8325
40.2558
39.6185
39.0067
38.2723
37.6461
36.7302
36.1495
35.5188
36.1433
37.1228
37.8149
38.6012
39.2613
39.9381
40.5507
41.1495
41.704
42.2299
42.7147
43.1605
43.5608
43.9129
44.2123
44.4552
44.6382
44.7583
44.8134
44.8134
44.7583
44.6383
44.4553
44.2124
43.913
43.5609
43.1606
42.7148
42.2301
41.7042
41.1497
40.551
39.9384
39.2616
38.6016
37.8154
37.1234
36.1441
35.5198
34.653
35.2969
36.3166
37.074
37.9191
38.632
39.3513
40.0026
40.6333
41.2159
41.7649
42.2691
42.7306
43.1435
43.5054
43.8122
44.0607
44.2477
44.3704
44.4271
44.4272
44.3705
44.2478
44.0608
43.8123
43.5056
43.1436
42.7308
42.2693
41.7652
41.2162
40.6336
40.003
39.3519
38.6324
37.9197
37.0748
36.3172
35.298
34.654
33.6031
34.2126
35.2376
36.0404
36.9362
37.7068
38.4694
39.1611
39.8249
40.4373
41.011
41.5365
42.0154
42.4426
42.816
43.1318
43.3872
43.5792
43.7054
43.7642
43.7642
43.7054
43.5792
43.3873
43.132
42.8161
42.4428
42.0156
41.5367
41.0113
40.4377
39.8254
39.1617
38.4699
37.7075
36.937
36.0411
35.2388
34.2134
33.6049
32.4306
32.9354
33.9206
34.7306
35.6556
36.4735
37.2786
38.0088
38.7049
39.3468
39.9458
40.4934
40.9911
41.434
41.8204
42.1467
42.4102
42.6083
42.7387
42.7998
42.7998
42.7387
42.6083
42.4103
42.1469
41.8206
41.4343
40.9913
40.4938
39.9462
39.3473
38.7054
38.0095
37.2793
36.4743
35.6564
34.7318
33.9214
32.937
32.4311
31.1771
31.5242
32.4182
33.1904
34.1112
34.9524
35.7897
36.5506
37.274
37.9417
38.5638
39.1325
39.6485
40.1076
40.5075
40.8449
41.1174
41.3223
41.4573
41.5212
41.5212
41.4574
41.3224
41.1176
40.8452
40.5078
40.1079
39.6489
39.1329
38.5642
37.9423
37.2746
36.5513
35.7904
34.9531
34.1123
33.1914
32.4195
31.525
31.1792
29.8606
30.0279
30.7932
31.4851
32.3643
33.1949
34.0417
34.8237
35.5652
36.2516
36.8914
37.4773
38.009
38.4824
38.8948
39.2429
39.524
39.7356
39.8754
39.942
39.9421
39.8755
39.7357
39.5242
39.2431
38.8951
38.4826
38.0094
37.4777
36.8919
36.2521
35.5658
34.8243
34.0424
33.1956
32.365
31.4857
30.7936
30.0282
29.8602
28.4671
28.4843
29.1126
29.704
30.5151
31.307
32.138
32.9201
33.6658
34.3595
35.008
35.604
36.146
36.6295
37.0513
37.4077
37.6959
37.913
38.0569
38.1259
38.1259
38.0569
37.9131
37.6961
37.4079
37.0515
36.6298
36.1464
35.6044
35.0085
34.36
33.6662
32.9205
32.1384
31.3073
30.5153
29.704
29.1123
28.4838
28.4662
27.0091
26.9463
27.4587
27.9599
28.6949
29.4328
30.2285
30.9915
31.729
32.4185
33.0662
33.6637
34.209
34.6965
35.1227
35.4835
35.7757
35.9962
36.1426
36.2132
36.2132
36.1427
35.9963
35.7759
35.4838
35.123
34.6968
34.2093
33.6641
33.0666
32.4188
31.7294
30.9918
30.2287
29.4331
28.6952
27.96
27.459
26.9462
27.0098
25.6031
25.5421
25.9772
26.4259
27.0972
27.7869
28.5413
29.2752
29.9917
30.6665
31.3039
31.8943
32.4349
32.9194
33.3438
33.7038
33.9956
34.2161
34.3627
34.4338
34.4339
34.3629
34.2163
33.9959
33.7041
33.3443
32.9199
32.4355
31.895
31.3046
30.6673
29.9924
29.2758
28.542
27.7873
27.0976
26.4256
25.977
25.54
25.601
24.533
24.5219
24.9262
25.3596
25.9892
26.643
27.3568
28.0551
28.7391
29.3894
30.0067
30.5807
31.1074
31.5804
31.9954
32.3477
32.6336
32.8498
32.9937
33.0636
33.0636
32.9938
32.85
32.6338
32.3481
31.9957
31.5808
31.1078
30.5811
30.0071
29.3898
28.7394
28.0553
27.3567
26.6428
25.9883
25.3588
24.9237
24.5202
24.527
24.1303
24.1787
24.5709
25.0009
25.5944
26.2115
26.8768
27.5292
28.1731
28.7899
29.3769
29.9243
30.4272
30.8796
31.2766
31.6139
31.8878
32.0949
32.2328
32.2996
32.2997
32.2329
32.0951
31.888
31.6143
31.2769
30.8799
30.4277
29.9248
29.3774
28.7903
28.1735
27.5295
26.8771
26.2116
25.5942
25.0007
24.5702
24.1782
24.1286
24.4763
24.5394
24.9209
25.3277
25.8805
26.4486
27.0586
27.66
28.2588
28.8347
29.3843
29.8976
30.3698
30.7948
31.1682
31.4855
31.7433
31.9383
32.0679
32.1305
32.1306
32.068
31.9385
31.7436
31.486
31.1687
30.7954
30.3704
29.8983
29.385
28.8354
28.2595
27.6607
27.0592
26.4492
25.8805
25.328
24.9196
24.5394
24.4723
25.1908
25.2441
25.6183
25.995
26.5129
27.0358
27.6025
28.1626
28.723
29.2623
29.7778
30.2595
30.703
31.1024
31.4534
31.7519
31.9943
32.1775
32.2992
32.3578
32.3578
32.2994
32.1776
31.9945
31.7521
31.4537
31.1026
30.7033
30.2598
29.7781
29.2626
28.7233
28.1629
27.6028
27.036
26.5133
25.9952
25.619
25.2446
25.1928
25.8215
25.8479
26.2228
26.5726
27.0714
27.5652
28.1089
28.6441
29.182
29.6991
30.1942
30.6568
31.083
31.4668
31.8044
32.0914
32.3246
32.5008
32.6178
32.6737
32.6738
32.618
32.5011
32.3251
32.092
31.805
31.4677
31.0838
30.6578
30.1952
29.7002
29.1833
28.6453
28.1101
27.5665
27.0727
26.574
26.2242
25.8497
25.8231
96.5259
62.2758
52.582
55.5777
61.5734
66.652
70.8696
74.4056
77.4123
80.0385
82.4134
84.5992
86.6406
88.5821
90.4449
92.274
94.0982
95.975
97.9187
99.9425
102.054
104.254
106.535
108.887
111.293
113.726
116.151
118.515
120.742
122.726
124.28
125.149
81.0692
59.8697
51.3456
54.0572
59.9069
64.9447
69.1413
72.6586
75.6534
78.2865
80.651
82.8065
84.8136
86.6986
88.5078
90.2695
92.0445
93.8447
95.7118
97.6644
99.7059
101.831
104.036
106.308
108.631
110.981
113.323
115.606
117.757
119.673
121.174
122.011
80.5644
61.0648
51.074
52.6515
58.2535
63.2158
67.3694
70.8874
73.9091
76.5448
78.9081
81.0528
83.0147
84.8601
86.6107
88.3222
90.0136
91.757
93.5643
95.4451
97.4075
99.4545
101.579
103.77
106.012
108.28
110.539
112.742
114.818
116.667
118.115
118.92
73.2989
58.4794
49.8877
51.0769
56.4951
61.4385
65.6109
69.1477
72.1704
74.8319
77.1976
79.3163
81.2581
83.0533
84.761
86.4047
88.0634
89.7351
91.4652
93.2782
95.1777
97.156
99.2083
101.324
103.486
105.673
107.852
109.977
111.979
113.761
115.157
115.932
88.8598
59.1966
49.1901
49.6332
54.7829
59.667
63.8054
67.3525
70.4404
73.1208
75.4912
77.621
79.5319
81.3049
82.9616
84.5753
86.1475
87.7702
89.4546
91.2044
93.0275
94.9314
96.9074
98.9465
101.033
103.143
105.244
107.293
109.224
110.944
112.289
113.034
74.9817
58.7876
48.574
48.008
52.8967
57.7791
61.9849
65.6049
68.6954
71.4135
73.8107
75.9188
77.8354
79.5723
81.2079
82.7538
84.3186
85.8812
87.4891
89.1764
90.9482
92.7925
94.7057
96.6766
98.6897
100.724
102.751
104.726
106.587
108.245
109.541
110.257
87.0855
60.3691
48.6486
46.6473
51.0888
55.9326
60.1137
63.7252
66.9226
69.685
72.0915
74.2442
76.1435
77.8895
79.4849
81.0343
82.5105
84.0324
85.6141
87.2508
88.9495
90.7235
92.5647
94.4629
96.4056
98.3696
100.324
102.229
104.024
105.623
106.872
107.56
73.5874
58.3848
47.6467
44.9269
48.9875
53.8209
58.1249
61.9079
65.1098
67.9185
70.3933
72.5297
74.464
76.1858
77.7966
79.2774
80.7815
82.2624
83.7676
85.3463
87.0077
88.7338
90.5218
92.3624
94.2378
96.1314
98.0164
99.8525
101.583
103.123
104.326
104.986
69.4145
58.0037
47.4997
43.5126
46.9616
51.7988
56.1116
59.8258
63.1945
66.1021
68.5906
70.8217
72.7544
74.5214
76.0979
77.6312
79.0467
80.4956
82.001
83.5471
85.1381
86.7972
88.5166
90.2862
92.0967
93.9255
95.7435
97.5139
99.1819
100.668
101.827
102.458
75.2716
57.247
46.7188
41.7836
44.4735
49.215
53.7145
57.8131
61.2102
64.1725
66.8039
69.0255
71.0361
72.7872
74.4242
75.8766
77.3626
78.7981
80.2264
81.7174
83.2892
84.915
86.5928
88.3166
90.066
91.828
93.5798
95.2849
96.8919
98.3228
99.4378
100.042
67.9382
57.026
46.6288
40.2349
42.0121
46.8126
51.4263
55.3088
58.9776
62.1548
64.8049
67.2025
69.2321
71.0847
72.6856
74.2559
75.6444
77.0503
78.512
79.9949
81.497
83.0562
84.6673
86.3178
88.0065
89.7083
91.3966
93.0393
94.5863
95.9659
97.0382
97.6131
70.3762
54.3801
44.901
38.3008
38.7685
43.2191
48.0836
52.8617
56.6325
59.8797
62.8167
65.2155
67.3939
69.2364
70.9692
72.4321
73.9469
75.3778
76.7552
78.1796
79.6842
81.2288
82.8115
84.4324
86.0647
87.7029
89.3278
90.9073
92.3955
93.7204
94.7503
95.2982
74.6327
56.4779
44.9298
36.2059
35.4134
39.9676
45.2618
49.4275
53.7329
57.4583
60.4228
63.1501
65.3782
67.4177
69.1014
70.784
72.1873
73.5836
75.0396
76.4912
77.9238
79.398
80.9133
82.4535
84.0291
85.6111
87.1751
88.6941
90.1236
91.3992
92.387
92.906
65.1435
54.5924
44.8502
34.8783
30.4961
33.9229
39.5102
46.0662
50.6144
54.4566
58.0318
60.7802
63.2947
65.3255
67.2636
68.7864
70.397
71.8793
73.237
74.6186
76.0836
77.5702
79.0759
80.6089
82.1332
83.6535
85.1559
86.6128
87.9848
89.2062
90.1521
90.644
47.6219
47.4437
41.7132
32.1111
25.7047
28.3006
35.47
40.1017
46.189
51.1958
54.8199
58.2455
60.864
63.275
65.128
67.0414
68.5149
69.9433
71.4459
72.9095
74.2955
75.7005
77.1315
78.57
80.0404
81.5083
82.951
84.3481
85.6613
86.8342
87.7378
88.1993
25.4883
36.3733
35.5466
29.4089
13.5146
8.65499
19.7807
34.3031
40.8652
46.4232
51.6043
55.0895
58.3158
60.7117
63.0533
64.7025
66.5122
68.1286
69.5051
70.8711
72.333
73.7924
75.2462
76.7067
78.1317
79.5381
80.9198
82.2542
83.5103
84.627
85.4885
85.9233
13.1931
19.9581
20.3208
13.1392
8.107
15.9579
8.762
14.7954
32.5061
41.1386
46.3982
51.6016
55.0421
58.2328
60.404
62.7652
64.3851
65.9008
67.5278
69.0669
70.4332
71.7854
73.1382
74.4851
75.8566
77.2138
78.5348
79.8076
81.0016
82.0705
82.8877
83.2876
8.17253
10.7343
13.4098
6.20243
4.87583
15.9784
16.845
4.32115
21.9314
29.5896
41.1794
46.5526
51.577
54.7242
57.9027
59.7767
61.9779
63.8616
65.3056
66.6874
68.1995
69.6759
71.1192
72.522
73.8559
75.149
76.4074
77.6149
78.751
79.7589
80.533
80.9069
3.61136
2.84713
8.13705
14.4348
15.705
17.0901
6.36425
6.05884
6.51357
10.3688
28.1941
40.6999
46.2921
51.4156
54.21
57.5053
59.3811
61.0747
62.963
64.683
66.0638
67.3795
68.6469
69.9167
71.1927
72.4394
73.6322
74.7722
75.838
76.7973
77.5219
77.8529
4.41977
10.9264
9.51518
5.37104
17.2299
0.55883
19.3061
19.785
19.8189
8.96218
17.846
29.418
40.7324
45.6713
50.9171
53.1731
56.2235
58.6321
60.21
61.6467
63.3013
64.8701
66.3798
67.7413
68.9934
70.1686
71.2956
72.3651
73.372
74.2611
74.941
75.2478
6.62876
15.9306
19.404
20.3458
16.8185
14.4434
21.9045
22.1179
21.6474
21.4933
20.7102
22.8034
27.6547
40.5116
44.6855
50.359
52.6609
54.7149
57.1686
59.2863
60.7308
62.0257
63.1752
64.3876
65.5693
66.702
67.7515
68.7401
69.6595
70.4979
71.1175
71.3646
8.00379
18.4069
23.2828
26.7542
28.6383
27.0238
17.5833
18.6824
25.6379
17.5377
14.7705
7.72426
18.7193
26.2498
39.7239
42.5516
47.9153
51.5445
53.3733
54.9151
56.9198
58.7485
60.4872
61.8431
63.0303
64.0767
65.0563
65.9673
66.8297
67.5829
68.1575
68.3869
7.89421
18.3008
24.0271
28.2186
30.7993
31.9242
31.7198
24.2951
15.2247
21.0714
11.4886
17.6861
23.4302
18.3617
23.0591
39.0815
42.1348
44.9392
48.8341
51.9552
53.5476
54.8194
55.7615
56.9531
58.0406
59.056
59.9316
60.7336
61.4708
62.1698
62.6621
62.7946
7.47124
17.1456
23.1972
27.9089
31.362
33.3922
33.5968
32.8075
27.037
3.47474
23.4207
12.7384
17.5681
23.1481
16.9933
13.4067
32.4245
40.2854
42.6415
44.3289
47.3398
49.944
52.3764
53.8162
54.9944
55.8933
56.7015
57.4184
58.1186
58.7079
59.1647
59.2996
6.71033
15.6045
21.5829
26.2779
29.8504
32.4309
34.0494
34.0908
33.0431
29.3587
17.8146
24.0084
27.7143
6.67093
23.3204
22.0443
13.3768
23.131
34.0773
40.4204
42.3329
43.5596
43.7503
45.1052
46.1113
47.0246
47.647
48.1916
48.6487
49.1946
49.4994
49.4379
5.98674
14.3602
20.0073
24.4911
27.9999
30.6624
32.4491
33.4483
33.2513
32.1085
29.3147
14.0456
18.0848
17.1238
20.9081
24.2012
22.5733
8.25581
10.1924
18.21
27.7872
33.2094
39.4816
41.2188
42.5206
43.2928
43.936
44.2965
44.9422
45.2068
45.6521
45.6313
5.2396
13.2418
18.2727
22.2717
25.4645
28.033
30.0129
31.2548
31.8188
31.6764
30.9463
31.9216
22.5649
30.1517
18.085
22.0371
24.9665
17.5071
25.063
18.833
13.1538
21.6062
4.10665
11.5207
15.9274
15.4725
15.3594
16.9331
14.2451
16.9782
14.51
12.875
4.63537
12.2917
16.0973
19.1934
21.8527
24.1882
26.1391
27.6315
28.5896
29.2356
30.0542
29.4948
31.3354
27.5628
13.7305
19.9864
16.058
13.2482
20.0479
5.00765
19.6576
27.1541
25.4488
4.86239
28.3137
21.031
7.89733
29.7373
8.6566
30.854
8.60907
22.6131
4.38204
12.1675
13.6827
15.3232
17.0591
18.8987
20.7434
22.4366
23.9682
25.457
26.8511
29.1392
29.8012
31.3886
30.4479
17.1454
26.9588
9.26096
16.7527
25.6897
12.5947
18.8455
26.5912
26.9266
20.456
11.219
28.5412
19.6556
29.8851
22.3914
30.1395
9.86529
3.97395
11.8882
12.174
12.5915
13.1499
14.0101
15.3149
17.0635
19.0645
21.208
23.6038
25.4961
28.2046
29.9225
31.202
32.7952
25.5799
23.675
26.6672
27.0903
2.33637
22.5931
9.44898
27.9148
17.2485
9.38563
29.9056
25.0947
10.5177
19.097
32.6185
27.0375
3.77244
11.3233
11.6526
11.8532
11.9892
12.1979
13.0293
14.6334
16.6087
18.685
20.738
23.2868
25.354
27.8173
30.2147
31.1505
32.3156
30.2223
21.299
4.26231
26.2438
30.1468
13.9147
29.9061
22.1224
11.8478
13.1205
28.7418
16.1691
32.7471
27.0148
5.67705
3.55448
11.363
11.6338
11.7406
11.8585
12.118
13.2916
15.1261
16.9714
18.6255
20.2587
21.6947
23.6481
25.5762
27.556
30.2162
31.7488
32.2562
32.5681
30.0293
21.4729
17.5012
23.3955
17.4074
4.23342
27.5762
25.7921
16.9052
15.4267
5.30493
22.2221
29.4515
2.45631
9.16532
11.3649
11.5105
11.7019
11.9879
13.7907
15.9746
17.8996
19.5064
20.8256
22.1485
23.213
24.4793
26.0952
27.6384
29.7995
31.8495
32.4497
32.4521
32.3766
29.6924
26.7129
23.2299
20.7634
18.8094
18.1865
18.3051
18.0213
19.2158
18.0389
19.7772
2.22216
8.4513
10.7746
11.5884
11.6536
13.1594
15.5199
17.6597
19.3896
20.7998
22.0166
22.9743
23.9112
24.6895
25.3977
26.5785
27.9364
29.5571
31.4287
32.5627
32.3619
32.0884
31.3082
31.0381
30.794
30.4396
30.0929
29.7174
29.4426
29.3579
29.4366
29.3863
2.87315
9.71625
11.5766
11.8642
12.8436
15.2243
17.5226
19.4334
21.0131
22.3374
23.4347
24.3954
25.1064
25.6716
26.1613
26.4761
27.0861
28.1615
29.4216
30.7334
31.6679
31.9321
31.4668
30.4947
29.3158
28.1381
27.0515
26.1841