/*--------------------------------*- C++ -*----------------------------------*\
  =========                 |
  \\      /  F ield         | OpenFOAM: The Open Source CFD Toolbox
   \\    /   O peration     | Website:  https://openfoam.org
    \\  /    A nd           | Version:  6
     \\/     M anipulation  |
\*---------------------------------------------------------------------------*/
FoamFile
{
    version     2.0;
    format      ascii;
    class       volScalarField;
    location    "32";
    object      omega;
}
// * * * * * * * * * * * * * * * * * * * * * * * * * * * * * * * * * * * * * //

dimensions      [0 0 -1 0 0 0 0];

internalField   nonuniform List<scalar> 
380496
(
843.917
843.917
843.917
843.917
843.917
843.917
843.917
843.917
843.917
843.917
843.917
843.917
843.917
843.917
843.917
843.917
843.917
843.917
843.917
843.917
843.917
843.917
843.917
843.917
843.917
843.917
843.917
843.917
843.917
843.917
843.917
843.917
843.917
843.917
843.917
843.917
843.917
843.917
843.917
843.917
843.917
843.917
843.917
843.917
843.917
843.917
843.917
843.917
843.917
843.917
843.917
843.917
843.917
843.917
843.917
843.917
843.917
843.917
843.917
843.917
843.917
843.917
843.917
843.917
843.917
843.917
843.917
843.917
843.917
843.917
843.917
843.917
843.917
843.917
843.917
843.917
843.917
843.917
843.917
843.917
843.917
843.917
843.917
843.917
843.917
843.917
843.917
843.917
843.917
843.917
843.917
843.917
843.917
843.917
843.917
843.917
843.917
843.917
843.917
843.917
843.917
843.917
843.917
843.917
843.917
843.917
843.917
843.917
843.917
843.917
843.917
843.917
843.917
843.917
843.917
843.917
843.917
843.917
843.917
843.917
843.917
843.917
843.917
843.917
843.917
843.917
843.917
843.917
843.917
843.917
843.917
843.917
843.917
843.917
843.917
843.917
843.917
843.917
843.917
843.917
843.917
843.917
843.917
843.917
843.917
843.917
843.917
843.917
843.917
843.917
843.917
843.917
843.917
843.917
843.917
843.917
843.917
843.917
843.917
843.917
843.917
843.917
843.917
843.917
843.917
843.917
843.917
843.917
843.917
843.917
843.917
843.917
843.917
843.917
843.917
843.917
843.917
843.917
843.917
843.917
843.917
843.917
843.917
843.917
843.917
843.917
843.917
843.917
843.917
843.917
843.917
843.917
843.917
843.917
843.917
843.917
843.917
843.917
843.917
843.917
843.917
843.917
843.917
843.917
843.917
843.917
843.917
843.917
843.917
843.917
843.917
843.917
843.917
843.917
843.917
843.917
843.917
843.917
843.917
843.917
843.917
843.917
843.917
843.917
843.917
843.917
843.917
843.917
843.917
843.917
843.917
843.917
843.917
843.917
843.917
843.917
843.917
843.917
843.917
843.917
843.917
843.917
843.917
843.917
843.917
843.917
843.917
843.917
843.917
843.917
843.917
843.917
843.917
843.917
843.917
843.917
843.917
843.917
843.917
843.917
843.917
843.917
843.917
843.917
843.917
843.917
843.917
843.917
843.917
843.917
843.917
843.917
843.917
843.917
843.917
843.917
843.917
843.917
843.917
843.917
843.917
843.917
843.917
843.917
843.917
843.917
843.917
843.917
843.917
843.917
843.917
843.917
843.917
843.917
843.917
843.917
843.917
843.917
843.917
843.917
843.917
843.917
843.917
843.917
843.917
843.917
843.917
843.917
843.917
843.917
843.917
843.917
843.917
843.917
843.917
843.917
843.917
843.917
843.917
843.917
843.917
843.917
843.917
843.917
843.917
843.917
843.917
843.917
843.917
843.917
843.917
843.917
843.917
843.917
843.917
843.917
843.917
843.917
843.917
843.917
843.917
843.917
843.917
843.917
843.917
843.917
843.917
843.917
843.917
843.917
843.917
843.917
843.917
843.917
843.917
843.917
843.917
843.917
843.917
843.917
843.917
843.917
843.917
843.917
843.917
843.917
843.917
843.917
843.917
843.917
843.917
843.917
843.917
843.917
843.917
843.917
843.917
843.917
843.917
843.917
843.917
843.917
843.917
843.917
843.917
843.917
843.917
843.917
843.917
843.917
843.917
843.917
843.917
843.917
843.917
843.917
843.917
843.917
843.917
843.917
843.917
843.917
843.917
843.917
843.917
843.917
843.917
843.917
843.917
843.917
843.917
843.917
843.917
843.917
843.917
843.917
843.917
843.917
843.917
843.917
843.917
843.917
843.917
843.917
843.917
843.917
843.917
843.917
843.917
843.917
843.917
843.917
843.917
843.917
843.917
843.917
843.917
843.917
843.917
843.917
843.917
843.917
843.917
843.917
843.917
843.917
843.917
843.917
843.917
843.917
843.917
843.917
843.917
843.917
843.917
843.917
843.917
843.917
843.917
843.917
843.917
843.917
843.917
843.917
843.917
843.917
843.917
843.917
843.917
843.917
843.917
843.917
843.917
843.917
843.917
843.917
843.917
843.917
843.917
843.917
843.917
843.917
843.917
843.917
843.917
843.917
843.917
843.917
843.917
843.917
843.917
843.917
843.917
843.917
843.917
843.917
843.917
843.917
843.917
843.917
843.917
843.917
843.917
843.917
843.917
843.917
843.917
843.917
843.917
843.917
843.917
843.917
843.917
843.917
843.917
843.917
843.917
843.917
843.917
843.917
843.917
843.917
843.917
843.917
843.917
843.917
843.917
843.917
843.917
843.917
843.917
843.917
843.917
843.917
843.917
843.917
843.917
843.917
843.917
843.917
843.917
843.917
843.917
843.917
843.917
843.917
843.917
843.917
843.917
843.917
843.917
843.917
843.917
843.917
843.917
843.917
843.917
843.917
843.917
843.917
843.917
843.917
843.917
843.917
843.917
843.917
843.917
843.917
843.917
843.917
843.917
843.917
843.917
843.917
843.917
843.917
843.917
843.917
843.917
843.917
843.917
843.917
843.917
843.917
843.917
843.917
843.917
843.917
843.917
843.917
843.917
843.917
843.917
843.917
843.917
843.917
843.917
843.917
843.917
843.917
843.917
843.917
843.917
843.917
843.917
843.917
843.917
843.917
843.917
843.917
843.917
843.917
843.917
843.917
843.917
843.917
843.917
843.917
843.917
843.917
843.917
843.917
843.917
843.917
843.917
843.917
843.917
843.917
843.917
843.917
843.917
843.917
843.917
843.917
843.917
843.917
843.917
843.917
843.917
843.917
843.917
843.917
843.917
843.917
843.917
843.917
843.917
843.917
843.917
843.917
843.917
843.917
843.917
843.917
843.917
843.917
843.917
843.917
843.917
843.917
843.917
843.917
843.917
843.917
843.917
843.917
843.917
843.917
843.917
843.917
843.917
843.917
843.917
843.917
843.917
843.917
843.917
843.917
843.917
843.917
843.917
843.917
843.917
843.917
843.917
843.917
843.917
843.917
843.917
843.917
843.917
843.917
843.917
843.917
843.917
843.917
843.917
843.917
843.917
843.917
423.923
423.923
423.923
423.923
423.923
423.923
423.923
423.923
423.923
423.923
423.923
423.923
423.923
423.923
423.923
423.923
423.923
423.923
423.923
423.923
423.923
423.923
423.923
423.923
423.923
423.923
423.923
423.923
423.923
423.923
423.923
423.923
423.923
423.923
423.923
281.629
267.585
268.719
269.791
269.878
269.713
269.595
269.521
269.483
269.453
269.44
269.427
269.425
269.422
269.424
269.426
269.431
269.436
269.441
269.449
269.454
269.467
269.472
269.489
269.498
269.518
269.53
269.553
269.57
269.594
269.613
269.638
269.652
269.687
269.668
281.467
267.57
268.641
269.667
269.727
269.558
269.433
269.362
269.32
269.297
269.281
269.277
269.273
269.279
269.28
269.294
269.297
269.316
269.32
269.343
269.348
269.378
269.384
269.42
269.428
269.471
269.481
269.531
269.541
269.599
269.603
269.672
269.651
269.751
269.621
281.133
267.395
268.466
269.458
269.493
269.316
269.188
269.119
269.077
269.059
269.046
269.049
269.05
269.066
269.073
269.097
269.108
269.139
269.152
269.19
269.205
269.25
269.268
269.322
269.343
269.406
269.43
269.502
269.527
269.609
269.631
269.725
269.724
269.857
269.752
280.565
267.016
268.168
269.133
269.135
268.945
268.812
268.746
268.708
268.696
268.69
268.703
268.711
268.738
268.754
268.79
268.811
268.855
268.879
268.931
268.959
269.019
269.051
269.121
269.159
269.239
269.281
269.372
269.417
269.518
269.56
269.677
269.693
269.855
269.756
280.148
266.779
267.82
268.716
268.698
268.503
268.37
268.305
268.269
268.262
268.262
268.281
268.297
268.332
268.357
268.403
268.435
268.489
268.526
268.59
268.633
268.708
268.756
268.843
268.898
268.997
269.057
269.17
269.233
269.361
269.421
269.568
269.601
269.805
269.712
279.34
266.188
267.264
268.114
268.064
267.859
267.728
267.667
267.641
267.643
267.654
267.685
267.714
267.76
267.799
267.858
267.904
267.973
268.025
268.105
268.164
268.256
268.322
268.427
268.501
268.621
268.701
268.836
268.92
269.071
269.153
269.326
269.381
269.616
269.536
278.499
265.569
266.582
267.362
267.283
267.072
266.943
266.887
266.869
266.88
266.902
266.943
266.984
267.043
267.095
267.166
267.226
267.309
267.377
267.472
267.548
267.657
267.742
267.867
267.96
268.1
268.202
268.359
268.465
268.64
268.745
268.945
269.022
269.293
269.222
277.444
264.75
265.697
266.4
266.293
266.076
265.953
265.905
265.897
265.92
265.955
266.008
266.063
266.134
266.2
266.284
266.36
266.457
266.541
266.652
266.746
266.873
266.976
267.12
267.233
267.394
267.516
267.695
267.823
268.022
268.149
268.375
268.472
268.776
268.713
276.19
263.73
264.619
265.242
265.103
264.884
264.769
264.734
264.742
264.78
264.831
264.899
264.969
265.055
265.137
265.236
265.327
265.439
265.54
265.668
265.779
265.923
266.045
266.208
266.341
266.522
266.664
266.865
267.014
267.235
267.383
267.633
267.75
268.084
268.029
274.956
262.701
263.44
263.974
263.814
263.596
263.49
263.465
263.485
263.534
263.597
263.676
263.759
263.856
263.95
264.061
264.166
264.291
264.407
264.549
264.676
264.836
264.975
265.154
265.304
265.504
265.664
265.884
266.051
266.292
266.459
266.73
266.863
267.224
267.174
273.278
261.256
261.943
262.398
262.21
261.998
261.911
261.908
261.951
262.021
262.105
262.203
262.304
262.417
262.529
262.655
262.777
262.918
263.05
263.208
263.353
263.529
263.686
263.883
264.052
264.27
264.449
264.688
264.874
265.134
265.319
265.611
265.76
266.146
266.1
271.661
259.848
260.301
260.651
260.448
260.245
260.172
260.182
260.238
260.321
260.418
260.528
260.641
260.766
260.89
261.028
261.164
261.317
261.465
261.636
261.797
261.989
262.163
262.376
262.563
262.797
262.995
263.251
263.455
263.733
263.936
264.246
264.411
264.82
264.777
269.373
257.801
258.174
258.446
258.224
258.043
258.004
258.048
258.136
258.247
258.37
258.502
258.638
258.781
258.925
259.08
259.234
259.404
259.569
259.758
259.937
260.146
260.339
260.57
260.776
261.029
261.245
261.52
261.743
262.04
262.26
262.589
262.77
263.202
263.161
267.103
255.731
255.812
255.976
255.747
255.588
255.574
255.641
255.75
255.88
256.02
256.168
256.319
256.476
256.636
256.805
256.974
257.159
257.341
257.545
257.742
257.967
258.178
258.426
258.651
258.92
259.156
259.448
259.689
260.004
260.242
260.589
260.786
261.238
261.2
264.032
252.894
252.801
252.889
252.663
252.548
252.583
252.696
252.844
253.008
253.178
253.351
253.526
253.704
253.885
254.072
254.262
254.464
254.667
254.888
255.105
255.347
255.58
255.845
256.09
256.378
256.634
256.944
257.205
257.538
257.795
258.16
258.373
258.846
258.809
260.551
249.609
249.226
249.24
249.031
248.968
249.053
249.212
249.397
249.596
249.793
249.992
250.188
250.387
250.586
250.793
251.001
251.22
251.441
251.678
251.915
252.173
252.426
252.707
252.974
253.278
253.555
253.882
254.163
254.513
254.789
255.17
255.4
255.893
255.857
256.376
245.602
244.84
244.773
244.595
244.602
244.746
244.956
245.176
245.407
245.626
245.849
246.061
246.28
246.493
246.716
246.937
247.172
247.408
247.661
247.914
248.188
248.459
248.755
249.042
249.362
249.659
250.003
250.304
250.673
250.969
251.373
251.622
252.137
252.111
249.996
239.619
238.808
238.792
238.677
238.782
239.011
239.297
239.572
239.853
240.104
240.359
240.589
240.831
241.056
241.298
241.53
241.783
242.03
242.3
242.567
242.86
243.148
243.467
243.775
244.123
244.446
244.82
245.149
245.548
245.871
246.301
246.582
247.111
247.125
240.797
231.454
230.471
230.624
230.682
230.919
231.22
231.537
231.817
232.093
232.33
232.575
232.791
233.028
233.243
233.486
233.714
233.974
234.221
234.503
234.773
235.084
235.398
235.756
236.105
236.49
236.861
237.269
237.651
238.081
238.462
238.925
239.272
239.82
239.95
214.291
212.118
212.363
213.275
213.897
214.622
215.334
215.996
216.584
217.141
217.643
218.137
218.593
219.057
219.49
219.943
220.369
220.822
221.252
221.711
222.15
222.621
223.07
223.552
224.014
224.503
224.975
225.467
225.945
226.433
226.911
227.383
227.856
228.26
228.901
9.02117
7.66229
7.58935
7.55579
7.60778
7.67912
7.77032
7.86167
7.96239
8.05432
8.15097
8.23618
8.32583
8.40393
8.48794
8.56083
8.6416
8.7112
8.79092
8.85845
8.939
9.00477
9.08775
9.15087
9.23809
9.2963
9.39034
9.43944
9.54434
9.57733
9.69962
9.70391
9.85484
9.80147
10.0008
135.248
128.88
128.551
129.041
129.233
129.223
129.167
129.115
129.075
129.046
129.025
129.01
129
128.995
128.992
128.992
128.995
128.999
129.005
129.013
129.023
129.034
129.048
129.064
129.083
129.104
129.128
129.156
129.187
129.223
129.261
129.309
129.352
129.42
129.467
135.076
128.679
128.312
128.777
128.957
128.942
128.882
128.828
128.788
128.759
128.738
128.725
128.718
128.715
128.715
128.718
128.725
128.733
128.743
128.755
128.771
128.786
128.807
128.827
128.854
128.878
128.913
128.941
128.987
129.019
129.076
129.113
129.175
129.236
129.258
134.794
128.387
128.004
128.455
128.626
128.605
128.543
128.489
128.448
128.421
128.403
128.393
128.389
128.39
128.395
128.404
128.416
128.43
128.447
128.466
128.489
128.512
128.541
128.569
128.606
128.638
128.684
128.721
128.778
128.82
128.888
128.938
129.009
129.088
129.119
134.361
127.976
127.612
128.06
128.22
128.192
128.126
128.071
128.032
128.007
127.993
127.987
127.988
127.995
128.006
128.021
128.039
128.059
128.084
128.109
128.14
128.17
128.207
128.243
128.288
128.329
128.383
128.429
128.493
128.545
128.62
128.68
128.754
128.845
128.874
134.043
127.651
127.237
127.648
127.792
127.756
127.686
127.629
127.589
127.565
127.552
127.549
127.553
127.563
127.578
127.597
127.62
127.646
127.675
127.707
127.743
127.781
127.825
127.868
127.92
127.969
128.032
128.086
128.16
128.219
128.304
128.371
128.456
128.556
128.594
133.489
127.123
126.72
127.118
127.246
127.202
127.128
127.071
127.033
127.013
127.005
127.007
127.017
127.033
127.054
127.08
127.11
127.143
127.179
127.219
127.262
127.307
127.359
127.41
127.471
127.528
127.598
127.661
127.743
127.811
127.903
127.98
128.069
128.181
128.216
132.924
126.585
126.159
126.524
126.633
126.578
126.5
126.441
126.405
126.387
126.382
126.389
126.403
126.425
126.452
126.484
126.519
126.559
126.602
126.648
126.698
126.751
126.809
126.869
126.936
127.002
127.08
127.152
127.241
127.318
127.417
127.503
127.597
127.721
127.758
132.248
125.943
125.495
125.826
125.912
125.846
125.764
125.705
125.67
125.656
125.656
125.668
125.688
125.715
125.748
125.786
125.828
125.874
125.923
125.976
126.033
126.093
126.159
126.226
126.301
126.374
126.46
126.539
126.635
126.721
126.826
126.921
127.019
127.154
127.189
131.463
125.21
124.746
125.041
125.101
125.022
124.936
124.878
124.847
124.839
124.845
124.864
124.89
124.925
124.964
125.009
125.057
125.11
125.166
125.226
125.29
125.358
125.43
125.505
125.587
125.669
125.761
125.849
125.951
126.045
126.156
126.26
126.362
126.507
126.541
130.701
124.496
123.978
124.221
124.254
124.164
124.074
124.016
123.988
123.983
123.994
124.017
124.049
124.089
124.133
124.183
124.237
124.295
124.357
124.423
124.493
124.567
124.646
124.727
124.815
124.904
125.002
125.097
125.206
125.306
125.423
125.534
125.639
125.794
125.825
129.711
123.569
123.041
123.248
123.254
123.151
123.06
123.006
122.985
122.988
123.008
123.04
123.08
123.128
123.18
123.238
123.299
123.364
123.433
123.506
123.583
123.664
123.75
123.838
123.933
124.029
124.134
124.236
124.351
124.458
124.581
124.699
124.808
124.973
125.001
128.745
122.678
122.059
122.194
122.165
122.05
121.957
121.905
121.888
121.896
121.922
121.959
122.005
122.058
122.116
122.179
122.246
122.317
122.391
122.471
122.554
122.641
122.733
122.828
122.93
123.032
123.144
123.252
123.374
123.488
123.616
123.742
123.853
124.028
124.053
127.448
121.461
120.819
120.91
120.852
120.726
120.636
120.594
120.588
120.608
120.645
120.694
120.75
120.813
120.879
120.951
121.025
121.105
121.187
121.274
121.364
121.459
121.559
121.662
121.771
121.881
122
122.116
122.244
122.366
122.5
122.633
122.748
122.933
122.954
126.136
120.248
119.483
119.485
119.387
119.25
119.162
119.126
119.128
119.157
119.203
119.26
119.324
119.394
119.468
119.547
119.628
119.714
119.804
119.898
119.996
120.098
120.205
120.315
120.432
120.549
120.676
120.799
120.935
121.064
121.204
121.345
121.464
121.659
121.676
124.43
118.648
117.808
117.747
117.614
117.472
117.393
117.372
117.391
117.435
117.495
117.565
117.641
117.722
117.806
117.895
117.986
118.081
118.179
118.281
118.387
118.498
118.614
118.732
118.857
118.983
119.117
119.25
119.392
119.53
119.676
119.826
119.949
120.156
120.168
122.481
116.821
115.84
115.694
115.523
115.377
115.309
115.305
115.34
115.402
115.476
115.559
115.647
115.739
115.834
115.931
116.031
116.135
116.241
116.352
116.466
116.585
116.709
116.836
116.968
117.103
117.245
117.386
117.536
117.681
117.836
117.993
118.121
118.339
118.346
120.129
114.623
113.441
113.178
112.961
112.815
112.764
112.781
112.834
112.912
112.999
113.094
113.191
113.292
113.393
113.498
113.604
113.714
113.828
113.945
114.067
114.193
114.324
114.459
114.6
114.742
114.893
115.042
115.201
115.356
115.519
115.687
115.825
116.057
116.065
116.507
111.184
110.001
109.751
109.533
109.404
109.376
109.417
109.489
109.583
109.682
109.788
109.891
110
110.107
110.219
110.332
110.45
110.57
110.697
110.827
110.963
111.104
111.251
111.405
111.563
111.729
111.894
112.07
112.241
112.422
112.603
112.761
113.002
113.03
111.045
106.317
104.83
104.489
104.255
104.151
104.146
104.21
104.297
104.411
104.523
104.65
104.771
104.904
105.033
105.174
105.311
105.461
105.609
105.77
105.929
106.105
106.282
106.462
106.645
106.834
107.028
107.223
107.426
107.626
107.836
108.045
108.242
108.499
108.601
95.7354
95.7793
94.6569
94.3604
94.1487
94.1192
94.2299
94.423
94.6509
94.9041
95.159
95.423
95.6806
95.9439
96.1993
96.4605
96.7144
96.9747
97.229
97.49
97.7464
98.0096
98.2694
98.5354
98.799
99.0677
99.3342
99.6043
99.8718
100.141
100.408
100.667
100.944
101.156
101.523
11.4417
9.87458
9.83924
9.88287
9.99807
10.1203
10.2551
10.3815
10.5138
10.6316
10.7527
10.858
10.9674
11.0618
11.1626
11.2493
11.3449
11.4266
11.52
11.5985
11.6922
11.7681
11.8639
11.9365
12.0367
12.1035
12.2111
12.2677
12.387
12.4261
12.5641
12.5736
12.7406
12.6975
12.9031
79.7826
77.2366
76.6746
76.7657
76.8896
76.9314
76.9231
76.8991
76.8722
76.8494
76.8297
76.815
76.8029
76.7948
76.7888
76.7854
76.7839
76.7839
76.7861
76.7884
76.7939
76.7984
76.8069
76.814
76.8254
76.8358
76.8499
76.8647
76.8817
76.9023
76.9222
76.9514
76.9734
77.0143
77.0447
79.595
77.0493
76.4708
76.5467
76.6622
76.6982
76.6869
76.6597
76.6319
76.6075
76.5886
76.5732
76.5632
76.555
76.5519
76.5486
76.5509
76.5509
76.5577
76.56
76.5711
76.5751
76.5906
76.5961
76.6167
76.6234
76.6503
76.6576
76.6923
76.6997
76.7433
76.7524
76.7997
76.8199
76.8591
79.3539
76.8072
76.2189
76.2858
76.3955
76.4274
76.4135
76.3843
76.3558
76.3308
76.3125
76.2978
76.2895
76.2828
76.2823
76.2812
76.2868
76.2894
76.3001
76.3053
76.3209
76.3281
76.3488
76.3576
76.3841
76.3941
76.4275
76.4384
76.48
76.4918
76.5418
76.5577
76.6096
76.6418
76.6834
79.0384
76.4936
75.9095
75.9756
76.0816
76.1091
76.092
76.0607
76.0315
76.0067
75.9895
75.9764
75.9704
75.9661
75.9687
75.9704
75.9796
75.9854
76
76.0088
76.0285
76.0397
76.0645
76.0777
76.1084
76.1234
76.1608
76.1772
76.2224
76.24
76.293
76.3146
76.368
76.4053
76.4462
78.7525
76.2185
75.617
75.6635
75.7562
75.7756
75.7531
75.7183
75.6867
75.6606
75.643
75.6302
75.625
75.622
75.6261
75.6299
75.6411
75.6495
75.6665
75.6784
75.7008
75.7153
75.7435
75.7601
75.7948
75.8129
75.8553
75.8742
75.9257
75.9448
76.0054
76.0273
76.0901
76.1264
76.1793
78.3534
75.8248
75.2276
75.2701
75.3557
75.3685
75.3413
75.3039
75.2712
75.2455
75.229
75.2181
75.2152
75.2151
75.2221
75.2292
75.2437
75.2557
75.2763
75.2918
75.3181
75.3364
75.3687
75.3892
75.4281
75.4503
75.4968
75.5201
75.5753
75.5991
75.6626
75.6899
75.7537
75.7961
75.8477
77.9279
75.4148
74.8123
74.8404
74.9126
74.9157
74.8818
74.8406
74.8058
74.7796
74.7635
74.754
74.7528
74.7549
74.7643
74.7742
74.7913
74.8065
74.83
74.8489
74.8783
74.9002
74.9358
74.9601
75.0025
75.0286
75.0789
75.1059
75.1651
75.1924
75.26
75.2905
75.3582
75.4036
75.4593
77.4332
74.937
74.3317
74.3451
74.4024
74.3944
74.3534
74.3081
74.2713
74.2449
74.2295
74.2217
74.2225
74.2273
74.2392
74.2522
74.2722
74.2906
74.3172
74.3395
74.3723
74.3977
74.4368
74.4647
74.5108
74.5405
74.5945
74.6252
74.688
74.7191
74.7899
74.8242
74.894
74.9435
74.9997
76.8735
74.4029
73.7994
73.7987
73.8395
73.8189
73.7699
73.7206
73.6823
73.6564
73.6426
73.6372
73.6407
73.6486
73.6636
73.6799
73.7031
73.725
73.7548
73.7807
73.8167
73.8457
73.8882
73.9198
73.9694
74.0028
74.0604
74.0947
74.161
74.1956
74.2695
74.3076
74.3795
74.4333
74.4903
76.3103
73.8749
73.2596
73.2337
73.2536
73.2192
73.1621
73.1086
73.0686
73.0427
73.0298
73.0262
73.0317
73.0421
73.0595
73.0786
73.1044
73.1292
73.1617
73.1906
73.2295
73.2617
73.3072
73.342
73.3947
73.4314
73.4922
73.5298
73.5992
73.637
73.7137
73.7551
73.8288
73.8863
73.9435
75.6269
73.2234
72.6148
72.5758
72.5775
72.5289
72.4636
72.4067
72.3664
72.3423
72.3321
72.3319
72.341
72.3552
72.3762
72.3991
72.4284
72.4569
72.4928
72.5254
72.5676
72.6035
72.6524
72.6908
72.747
72.7873
72.8516
72.8926
72.9654
73.0066
73.0863
73.1311
73.2067
73.2683
73.3257
74.9227
72.573
71.9403
71.8626
71.8347
71.7681
71.6936
71.6326
71.5913
71.568
71.5596
71.562
71.5737
71.591
71.6148
71.6409
71.673
71.7048
71.7436
71.7796
71.8249
71.8642
71.9162
71.9583
72.0177
72.0616
72.1292
72.1737
72.2499
72.2944
72.3772
72.4254
72.503
72.5687
72.626
74.0386
71.7351
71.1057
71.0097
70.959
70.876
70.7934
70.7303
70.6904
70.6705
70.6664
70.6735
70.6899
70.7119
70.7401
70.7706
70.8068
70.8429
70.8855
70.9257
70.9747
71.0183
71.0741
71.1202
71.1835
71.2314
71.3029
71.3513
71.4313
71.4795
71.5657
71.6177
71.6976
71.7679
71.8253
73.1014
70.8716
70.2039
70.0567
69.9679
69.8633
69.7713
69.7054
69.6663
69.6493
69.649
69.6604
69.6809
69.7073
69.7396
69.7744
69.8144
69.8547
69.9011
69.9456
69.9983
70.0462
70.1058
70.1562
70.2234
70.2755
70.3509
70.4034
70.4874
70.5394
70.6294
70.6853
70.7677
70.8428
70.8997
71.9315
69.7759
69.0909
68.9082
68.7863
68.6619
68.5625
68.4964
68.461
68.4493
68.4548
68.4721
68.4984
68.5304
68.5677
68.6078
68.6524
68.6977
68.7483
68.7976
68.8545
68.9072
68.9708
69.0261
69.0973
69.1541
69.2338
69.2906
69.3789
69.4351
69.5292
69.5892
69.6747
69.7553
69.8125
70.5748
68.5124
67.7788
67.5404
67.3764
67.2296
67.1224
67.0561
67.0248
67.0187
67.0307
67.0542
67.0865
67.124
67.1666
67.2116
67.2607
67.3106
67.3652
67.4191
67.4796
67.537
67.6042
67.6643
67.7392
67.8008
67.8843
67.9458
68.0382
68.0986
68.1972
68.2612
68.3505
68.4358
68.4935
68.9302
66.9877
66.1756
65.8551
65.6335
65.4595
65.3447
65.2793
65.2524
65.2509
65.2677
65.295
65.3308
65.3709
65.416
65.4632
65.5144
65.5666
65.6235
65.6804
65.7436
65.8048
65.875
65.9395
66.018
66.0842
66.1723
66.238
66.3363
66.4007
66.5067
66.5736
66.6709
66.7615
66.8244
66.5749
64.67
63.8509
63.5259
63.2851
63.0964
62.9739
62.9036
62.8733
62.8681
62.8821
62.9057
62.9395
62.9774
63.0225
63.0696
63.123
63.1776
63.2385
63.2996
63.3683
63.4354
63.5125
63.5847
63.6718
63.7459
63.8434
63.9173
64.0262
64.0976
64.2159
64.2884
64.4006
64.4939
64.5738
63.0739
61.5358
60.4581
59.9511
59.5994
59.354
59.2044
59.1224
59.0907
59.0903
59.1148
59.1525
59.2048
59.2627
59.3316
59.4025
59.483
59.5635
59.6536
59.742
59.8402
59.9388
60.0459
60.1447
60.2532
60.353
60.4685
60.5689
60.6934
60.7916
60.926
61.0198
61.1558
61.2589
61.382
55.4837
57.2192
56.1479
55.3584
54.7579
54.3461
54.1072
53.9825
53.9437
53.9524
54.0028
54.07
54.1611
54.2557
54.367
54.4754
54.5979
54.7141
54.8436
54.9649
55.0996
55.2249
55.3634
55.4926
55.634
55.7676
55.9106
56.0483
56.1918
56.3316
56.4775
56.6098
56.7744
56.8704
57.1013
13.0132
11.4057
11.4182
11.5462
11.7294
11.9014
12.0743
12.2275
12.3813
12.5141
12.6483
12.7625
12.8807
12.9805
13.0874
13.1773
13.2774
13.361
13.4578
13.5373
13.6337
13.7101
13.8083
13.8809
13.9834
14.0501
14.1597
14.2165
14.3375
14.378
14.5164
14.5304
14.694
14.6662
14.8572
52.8625
51.8613
51.4549
51.387
51.4232
51.4569
51.4659
51.46
51.4455
51.4307
51.4151
51.4026
51.3908
51.382
51.3744
51.3687
51.3648
51.3615
51.3606
51.359
51.3606
51.3604
51.364
51.3654
51.3704
51.3739
51.3799
51.3861
51.3927
51.4024
51.4096
51.4242
51.4323
51.4513
51.4669
52.6912
51.7002
51.2911
51.2155
51.2467
51.2754
51.2821
51.2728
51.2576
51.2403
51.2254
51.2111
51.2011
51.1908
51.1858
51.1787
51.1781
51.1732
51.1764
51.1728
51.1795
51.1765
51.1869
51.184
51.1982
51.1948
51.2137
51.2092
51.2337
51.2274
51.258
51.2506
51.2852
51.2785
51.318
52.4925
51.5066
51.0945
51.014
51.0416
51.067
51.0714
51.0598
51.0434
51.0246
51.0095
50.9944
50.985
50.9746
50.9708
50.9641
50.9653
50.961
50.9664
50.9636
50.9731
50.9708
50.9844
50.9822
51.0003
50.9974
51.0205
51.0167
51.0454
51.0408
51.0747
51.0715
51.1073
51.109
51.1483
52.255
51.2698
50.8592
50.7787
50.8052
50.8283
50.8304
50.8165
50.7987
50.7789
50.7636
50.7485
50.7399
50.73
50.7278
50.7221
50.7251
50.7222
50.7298
50.7287
50.7404
50.7402
50.7561
50.7564
50.7765
50.7767
50.8017
50.8014
50.8317
50.8309
50.8662
50.8666
50.9032
50.9078
50.9464
52.0124
51.0416
50.6288
50.54
50.5583
50.5748
50.5719
50.5543
50.5337
50.5119
50.4953
50.4795
50.4706
50.4609
50.459
50.454
50.4578
50.456
50.4646
50.4648
50.4779
50.4791
50.4968
50.4982
50.5209
50.5217
50.5503
50.5498
50.5851
50.5828
50.6246
50.6221
50.6674
50.6674
50.7176
51.7112
50.7441
50.3351
50.2461
50.2615
50.2741
50.2673
50.2466
50.2237
50.2006
50.1834
50.1675
50.159
50.1502
50.1493
50.1457
50.151
50.1508
50.1612
50.1631
50.1782
50.1813
50.2011
50.2045
50.2295
50.2325
50.2632
50.2652
50.3023
50.3029
50.346
50.3469
50.3924
50.3963
50.4452
51.3808
50.4251
50.0182
49.9247
49.9329
49.9386
49.9259
49.9008
49.8748
49.8499
49.8314
49.8153
49.8068
49.7987
49.7984
49.796
49.8023
49.8035
49.8152
49.8187
49.8352
49.8399
49.8614
49.8665
49.8934
49.898
49.931
49.9344
49.9742
49.9759
50.022
50.0235
50.0725
50.0763
50.1297
51.0012
50.0574
49.6546
49.5572
49.5576
49.5554
49.5359
49.5061
49.4766
49.4496
49.43
49.4137
49.4053
49.3979
49.3985
49.3974
49.4049
49.4077
49.4208
49.426
49.4442
49.4507
49.474
49.4809
49.5098
49.5162
49.5514
49.5565
49.5985
49.602
49.6502
49.6535
49.7042
49.7096
49.7643
50.5803
49.6506
49.255
49.1548
49.1471
49.1361
49.109
49.0739
49.0407
49.0119
48.9913
48.9751
48.9671
48.9607
48.9623
48.9626
48.9714
48.9759
48.9905
48.9974
49.0173
49.0255
49.0506
49.0592
49.0901
49.0982
49.1355
49.1423
49.1865
49.1915
49.2419
49.2468
49.2994
49.3063
49.3626
50.1473
49.2389
48.8467
48.7379
48.718
48.6959
48.6605
48.6199
48.5831
48.5525
48.5309
48.5147
48.507
48.5016
48.5041
48.5057
48.5157
48.5217
48.5377
48.5462
48.5675
48.5774
48.6042
48.6145
48.6471
48.657
48.6962
48.7046
48.7508
48.7575
48.8098
48.8162
48.8705
48.8788
48.9365
49.6402
48.7499
48.369
48.2592
48.2306
48.1983
48.1544
48.1079
48.0676
48.0352
48.013
47.9972
47.9902
47.9862
47.9899
47.9933
48.0047
48.0125
48.0301
48.0405
48.0635
48.0753
48.1038
48.116
48.1505
48.1622
48.2035
48.2136
48.262
48.2702
48.3247
48.3327
48.3887
48.3986
48.4577
49.0984
48.2408
47.8599
47.7345
47.687
47.6391
47.5846
47.5318
47.4878
47.4541
47.4314
47.4163
47.4102
47.4077
47.4128
47.4179
47.4309
47.4406
47.4597
47.4721
47.4968
47.5106
47.541
47.5552
47.5917
47.6054
47.6488
47.6608
47.7115
47.7214
47.7781
47.7877
47.8457
47.8571
47.9177
48.4418
47.6141
47.2463
47.1181
47.0584
46.9973
46.9327
46.8734
46.8259
46.7908
46.768
46.7539
46.7489
46.7482
46.7549
46.7622
46.7768
46.7888
46.8097
46.8244
46.8509
46.867
46.8994
46.9158
46.9545
46.9703
47.0161
47.0301
47.0832
47.095
47.1543
47.1656
47.2257
47.239
47.3013
47.7236
46.9429
46.5708
46.4198
46.3343
46.2532
46.176
46.1099
46.0592
46.0235
46.0012
45.9887
45.9854
45.9871
45.9958
46.0057
46.0223
46.037
46.0598
46.0772
46.1058
46.1245
46.159
46.1781
46.2191
46.2373
46.2856
46.3018
46.3576
46.3714
46.4334
46.4466
46.5091
46.5243
46.5883
46.8459
46.1182
45.7539
45.5902
45.4833
45.3832
45.2935
45.2203
45.1664
45.1298
45.1079
45.0969
45.0952
45.099
45.1095
45.1218
45.1402
45.1575
45.182
45.2021
45.2324
45.2539
45.2902
45.312
45.355
45.3758
45.4264
45.445
45.5034
45.5192
45.5841
45.5991
45.6643
45.6815
45.748
45.8226
45.1595
44.7877
44.5967
44.4589
44.3346
44.2304
44.149
44.0918
44.0541
44.033
44.0232
44.0232
44.029
44.0411
44.0556
44.0753
44.0948
44.1205
44.143
44.1743
44.1985
44.2358
44.2604
44.3047
44.3283
44.3805
44.4016
44.4624
44.4802
44.5481
44.5647
44.6334
44.6516
44.7216
44.5799
44.003
43.6107
43.3747
43.1919
43.0356
42.9137
42.8221
42.7604
42.7195
42.6972
42.6855
42.6847
42.6889
42.7001
42.7135
42.7324
42.7516
42.7767
42.8
42.831
42.8571
42.8946
42.9218
42.967
42.9933
43.0477
43.0712
43.1354
43.1554
43.2278
43.246
43.3195
43.3403
43.4158
43.0291
42.4152
41.9903
41.7328
41.5222
41.3378
41.1943
41.083
41.0066
40.9509
40.9181
40.895
40.8872
40.8835
40.891
40.9
40.9181
40.9363
40.9626
40.9875
41.0212
41.0508
41.092
41.1246
41.174
41.2066
41.2649
41.2952
41.3637
41.39
41.468
41.4915
41.5729
41.5968
41.6825
40.8416
40.5283
39.9121
39.4671
39.1192
38.8444
38.647
38.5014
38.4084
38.3427
38.3107
38.2896
38.2922
38.297
38.3204
38.3416
38.3787
38.4109
38.4575
38.4978
38.5513
38.5994
38.6595
38.7094
38.7711
38.8209
38.8876
38.9366
39.0108
39.0564
39.1395
39.18
39.2693
39.306
39.4047
37.8606
40.6884
39.8754
38.9224
38.1207
37.5048
37.0686
36.7562
36.549
36.4015
36.314
36.2516
36.2275
36.2108
36.2223
36.2316
36.264
36.2889
36.3346
36.3696
36.4239
36.4662
36.5261
36.5746
36.6381
36.6928
36.7582
36.8186
36.8852
36.9492
37.02
37.0788
37.1678
37.2023
37.3419
14.2722
12.6897
12.7679
12.9784
13.2281
13.4461
13.6527
13.8274
13.9974
14.1396
14.2817
14.3994
14.5213
14.6216
14.73
14.8186
14.919
15.0002
15.0964
15.1728
15.2681
15.341
15.4377
15.5067
15.6073
15.6706
15.7779
15.8322
15.9499
15.9897
16.1226
16.1404
16.2939
16.2791
16.4524
37.6238
37.2104
36.9824
36.8893
36.8742
36.8847
36.8924
36.8936
36.8871
36.8787
36.8679
36.8583
36.8484
36.8401
36.8325
36.8259
36.8209
36.8158
36.8132
36.8092
36.8083
36.8053
36.8058
36.8039
36.805
36.8044
36.8058
36.8068
36.8081
36.8109
36.8121