/*--------------------------------*- C++ -*----------------------------------*\
  =========                 |
  \\      /  F ield         | OpenFOAM: The Open Source CFD Toolbox
   \\    /   O peration     | Website:  https://openfoam.org
    \\  /    A nd           | Version:  6
     \\/     M anipulation  |
\*---------------------------------------------------------------------------*/
FoamFile
{
    version     2.0;
    format      ascii;
    class       volScalarField;
    location    "3";
    object      yPlus;
}
// * * * * * * * * * * * * * * * * * * * * * * * * * * * * * * * * * * * * * //

dimensions      [0 0 0 0 0 0 0];

internalField   uniform 0;

boundaryField
{
    inlet
    {
        type            calculated;
        value           uniform 0;
    }
    outlet
    {
        type            calculated;
        value           uniform 0;
    }
    roughCylinder
    {
        type            calculated;
        value           nonuniform List<scalar> 
5120
(
44.0543
51.8625
58.0849
64.1064
69.2235
73.3249
76.5857
79.2063
81.3446
83.1411
84.7199
86.1343
87.4236
88.6183
89.7474
90.8396
91.9237
93.0262
94.1684
95.3644
96.6212
97.9394
99.3147
100.74
102.204
103.697
105.202
106.699
108.154
109.501
110.606
111.254
43.4241
50.9562
56.9877
62.8765
67.9234
71.9899
75.2317
77.8426
79.9796
81.7821
83.3642
84.7741
86.0498
87.2266
88.3341
89.4021
90.4606
91.5358
92.6495
93.8159
95.0419
96.328
97.6699
99.0596
100.488
101.943
103.409
104.868
106.284
107.596
108.672
109.301
42.7361
50.0274
55.8809
61.6385
66.6157
70.6498
73.8772
76.4853
78.6299
80.4453
82.0344
83.4434
84.7071
85.8671
86.9541
87.999
89.0322
90.0813
91.1674
92.3047
93.5003
94.7544
96.0625
97.4172
98.809
100.226
101.654
103.074
104.452
105.728
106.775
107.386
42.0255
49.092
54.7694
60.3931
65.2998
69.3046
72.5237
75.1389
77.3022
79.1381
80.7378
82.1467
83.4007
84.5465
85.6152
86.6388
87.6488
88.6723
89.7313
90.8403
92.006
93.2289
94.5045
95.8249
97.1805
98.5603
99.95
101.331
102.671
103.912
104.929
105.523
41.2885
48.1429
53.6452
59.1341
63.9733
67.9565
71.1775
73.8086
75.9959
77.8546
79.4674
80.8802
82.1318
83.2657
84.3176
85.3214
86.3088
87.3087
88.3426
89.4248
90.5621
91.7544
92.9974
94.2838
95.6041
96.9466
98.2989
99.6418
100.945
102.152
103.141
103.717
40.5484
47.1958
52.519
57.8677
62.6383
66.6038
69.8328
72.487
74.7058
76.5932
78.2235
79.644
80.8967
82.0212
83.06
84.0465
85.0147
85.9921
87.0015
88.0575
89.1668
90.33
91.5424
92.7959
94.0809
95.3876
96.7022
98.0072
99.2736
100.446
101.406
101.965
39.7882
46.2347
51.3746
56.579
61.2835
65.2414
68.4917
71.1788
73.4323
75.3484
76.9984
78.4315
79.69
80.8132
81.8417
82.8138
83.763
84.7203
85.7079
86.7399
87.8231
88.9574
90.1383
91.3588
92.6105
93.8802
95.1585
96.4268
97.6573
98.7956
99.7287
100.271
39.03
45.2765
50.2257
55.2772
59.9122
63.8653
67.1412
69.8655
72.1601
74.1142
75.7917
77.2425
78.5117
79.638
80.6607
81.6216
82.5573
83.4965
84.4626
85.4708
86.5282
87.6356
88.788
89.9772
91.1931
92.4289
93.6696
94.9006
96.0948
97.1996
98.1053
98.629
38.2439
44.2923
49.043
53.9317
58.4954
62.4537
65.773
68.5507
70.8944
72.8867
74.594
76.0686
77.3539
78.4895
79.5142
80.469
81.3915
82.3151
83.2636
84.2514
85.2853
86.365
87.4865
88.6427
89.8269
91.0252
92.2297
93.4243
94.5833
95.6553
96.5344
97.0421
37.4521
43.3014
47.8437
52.557
57.0416
61.0058
64.3712
67.2046
69.6039
71.6497
73.4
74.9057
76.2143
77.3646
78.3955
79.35
80.2672
81.1791
82.1102
83.0768
84.0868
85.1417
86.2365
87.3624
88.509
89.6732
90.8397
91.9958
93.1179
94.157
95.0083
95.4974
36.6117
42.2596
46.5825
51.1022
55.4963
59.4723
62.9077
65.8272
68.3035
70.4061
72.2017
73.7469
75.0849
76.256
77.3006
78.2605
79.1747
80.0776
80.9962
81.9466
82.9358
83.9633
85.0262
86.1166
87.232
88.3559
89.4841
90.6027
91.6884
92.6942
93.5187
93.9916
35.733
41.1837
45.2802
49.59
53.8791
57.8638
61.3719
64.3772
66.9351
69.1185
70.9827
72.5775
73.9554
75.157
76.2214
77.1919
78.1106
79.0104
79.9172
80.8492
81.8155
82.8195
83.8563
84.9168
85.9903
87.0793
88.1674
89.245
90.2924
91.264
92.0607
92.514
34.7533
40.0133
43.8677
47.9386
52.0939
56.0803
59.6887
62.8342
65.5251
67.8029
69.7385
71.3975
72.8244
74.0618
75.153
76.1417
77.0668
77.9643
78.8648
79.7853
80.7337
81.7095
82.7115
83.7334
84.777
85.8219
86.8696
87.9079
88.9184
89.855
90.6252
91.0619
33.6993
38.7746
42.3776
46.1864
50.1828
54.1614
57.8725
61.153
63.9702
66.3802
68.4301
70.1693
71.6604
72.9509
74.0817
75.0956
76.0371
76.9417
77.8363
78.7407
79.6669
80.621
81.5985
82.5908
83.5859
84.5948
85.5988
86.593
87.5612
88.4632
89.2033
89.6196
32.4683
37.3651
40.6965
44.1958
47.9712
51.9002
55.7327
59.2419
62.3075
64.8892
67.0603
68.908
70.4818
71.8303
73.0043
74.0521
75.0127
75.9231
76.8184
77.7175
78.6293
79.5532
80.491
81.439
82.4056
83.364
84.3239
85.2752
86.2058
87.0695
87.7826
88.1813
31.0871
35.8188
38.8763
42.0394
45.5554
49.4156
53.37
57.0827
60.3415
63.1599
65.5426
67.5292
69.209
70.6476
71.8924
72.9873
73.9804
74.9121
75.8092
76.6944
77.5832
78.4871
79.4017
80.3197
81.2275
82.1476
83.0578
83.9588
84.8403
85.6673
86.3476
86.7245
29.3437
33.9281
36.6907
39.443
42.5679
46.2223
50.2693
54.36
58.1344
61.2843
63.8888
66.0771
67.9058
69.4418
70.7539
71.9034
72.933
73.88
74.7864
75.6738
76.553
77.4226
78.2891
79.1539
80.0331
80.8924
81.7518
82.6046
83.4476
84.2298
84.8822
85.2397
27.2718
31.76
34.2553
36.5888
39.293
42.7522
46.8821
51.2
55.1904
58.8389
61.8996
64.362
66.3868
68.0838
69.5233
70.7576
71.8436
72.8327
73.7511
74.6261
75.4786
76.3286
77.1729
78.005
78.811
79.6274
80.4274
81.2189
81.9995
82.744
83.3569
83.6901
24.2772
28.7569
30.9808
32.7771
34.7075
37.3659
41.4
46.5402
51.8838
56.1325
59.6077
62.4908
64.815
66.6929
68.2421
69.5613
70.7101
71.7261
72.6643
73.5511
74.4004
75.2088
75.9901
76.7545
77.5284
78.2667
79.0041
79.7386
80.481
81.1663
81.7525
82.0627
20.3907
25.1389
27.2491
28.6182
30.0873
33.0571
36.7712
41.1341
45.9099
51.7626
56.4801
60.0015
62.7497
64.9539
66.7522
68.2329
69.478
70.5691
71.534
72.408
73.2207
74.0071
74.766
75.4913
76.1705
76.8572
77.5187
78.1718
78.8262
79.4741
80.0054
80.288
12.1011
18.288
20.6791
21.8761
21.6731
16.5994
19.4203
30.9986
41.6468
47.1229
52.5891
57.1587
60.5973
63.1823
65.184
66.8032
68.1573
69.291
70.2886
71.1866
72.0056
72.7372
73.4064
74.038
74.6733
75.2516
75.8273
76.4077
77.0284
77.5874
78.0994
78.3538
9.82221
7.53496
9.84685
10.2733
9.76748
9.22903
15.8135
12.2469
15.2484
37.4452
46.4294
52.6814
57.2294
60.5933
63.1397
65.0994
66.6313
67.9022
68.95
69.8311
70.5904
71.29
71.9332
72.5112
73.0193
73.5274
73.9968
74.4565
74.9341
75.4619
75.8809
76.0996
7.45337
11.2388
11.5572
11.661
9.99954
13.9941
14.0945
11.1595
8.2317
11.0801
37.2661
47.308
53.7352
58.0083
60.9938
63.2018
64.9379
66.2757
67.3763
68.2992
69.08
69.7009
70.2015
70.6359
71.0607
71.4024
71.7351
72.0886
72.5497
72.9223
73.3519
73.5396
17.8562
22.3252
24.1357
24.6292
23.918
22.2693
21.6878
22.8444
20.5
5.35649
9.01584
36.3848
46.7955
53.3747
57.7176
60.7211
62.8143
64.4233
65.6171
66.5087
67.1766
67.7311
68.1919
68.5328
68.7907
69.0159
69.1769
69.3256
69.5126
69.8722
70.1043
70.2283
22.6564
27.624
30.3366
32.3224
33.4304
33.4117
32.2229
30.4468
26.6361
20.6266
15.0193
19.9149
40.1224
48.8784
54.3364
57.8566
60.3834
62.0872
63.3644
64.3279
65.0431
65.4793
65.6793
65.7739
65.8026
65.744
65.6372
65.597
65.8158
65.8823
66.2218
66.3586
24.4024
29.5388
32.5693
35.0544
36.9554
38.2454
38.8434
38.4643
37.1025
32.42
29.0654
8.71838
15.1939
38.8413
48.2788
53.7537
56.9995
59.2998
60.7541
61.633
62.1003
62.3395
62.4496
62.3259
62.2111
61.904
61.4696
61.0023
60.6288
60.6613
60.5252
60.4598
25.0037
30.2164
33.4019
36.107
38.2905
39.95
41.1142
41.8075
41.9599
41.0655
37.8791
26.993
23.929
27.6826
41.8717
48.7709
53.1443
55.4612
57.0138
58.0228
58.5927
58.6777
58.2391
57.6273
56.6426
55.8361
54.6352
53.9407
53.4846
53.2386
53.2655
53.6764
24.2191
29.5983
32.9089
35.7607
38.1153
39.9824
41.4183
42.4969
43.2557
43.5337
42.4992
37.1692
32.2891
12.4936
28.5219
41.3398
46.9008
50.7924
52.6778
53.3863
53.2895
52.5748
51.7457
50.5662
50.1629
49.1921
47.2018
44.7684
43.372
42.0438
41.5001
41.3073
22.9861
28.487
31.8343
34.7095
37.0825
38.9732
40.4595
41.651
42.6551
43.4725
43.7256
42.2366
37.6674
27.0257
31.8732
33.5796
41.1316
43.4595
45.4178
46.2443
46.9307
46.0059
44.295
41.1582
36.5519
32.2698
26.3574
26.2821
19.321
21.8588
14.1586
22.3888
21.6201
27.1266
30.4006
33.1905
35.4763
37.2856
38.7026
39.851
40.8709
41.8335
42.5408
42.2384
39.022
27.0277
30.7831
11.476
25.3866
35.6827
35.8941
37.7045
34.1944
30.5088
22.9826
24.4032
21.5164
32.9263
22.6488
33.8983
13.4558
31.5792
16.7725
28.2101
20.655
26.0181
29.1067
31.7007
33.7907
35.4061
36.6328
37.6114
38.5099
39.4135
40.1283
39.9898
37.7764
31.735
27.8603
26.1621
16.9272
11.9799
27.687
15.7646
32.7625
7.80506
18.6836
36.2668
25.673
36.0095
32.4556
38.3324
33.6039
38.7914
34.3743
36.7585
20.1394
25.3473
28.2511
30.644
32.5222
33.9101
34.8879
35.6142
36.3046
37.0951
37.8174
37.8478
36.2187
32.1563
26.7743
18.3791
20.5033
12.7839
31.6976
27.7732
35.2785
21.3294
31.5104
34.4169
36.4569
32.4347
37.9418
39.1508
40.7565
40.2539
41.6208
38.581
20.0057
25.1031
27.8725
30.1125
31.8243
33.027
33.7903
34.2824
34.7584
35.4391
36.2941
36.8588
36.1978
33.1716
27.5685
23.1082
18.5938
24.7684
28.8371
31.5445
35.4706
33.1089
37.2927
40.3448
41.9918
43.7883
46.3397
46.653
46.3999
46.1786
46.4925
43.7415
20.0973
25.1375
27.8294
29.9778
31.5901
32.6844
33.3206
33.6586
33.9647
34.5096
35.3964
36.4372
37.1041
36.6081
34.5891
32.5676
31.0551
32.0586
33.515
35.4009
37.1147
43.6153
44.62
46.4393
47.0965
48.3526
49.1684
49.2212
48.2395
47.8353
47.5483
45.428
20.3291
25.3484
28.0026
30.1043
31.6686
32.718
33.308
33.584
33.8055
34.2545
35.0799
36.2289
37.4842
38.5087
39.0666
39.4571
39.91
40.8578
41.8657
42.6553
44.2863
47.1525
47.6149
48.579
49.12
50.1906
50.4198
50.2446
49.0473
48.329
47.6597
45.954
20.6017
25.626
28.2692
30.3545
31.9053
32.9505
33.5451
33.8181
34.0141
34.4238
35.229
36.419
37.8489
39.3256
40.7034
41.989
43.1759
44.294
45.2536
45.9911
47.3404
48.7037
48.968
49.4584
49.9018
50.5811
50.5002
50.1282
48.9138
47.8557
46.8737
45.431
20.8453
25.8867
28.531
30.6144
32.1683
33.228
33.8489
34.1432
34.3233
34.671
35.4045
36.5796
38.108
39.8191
41.5385
43.1679
44.6305
45.8521
46.7841
47.4782
48.3843
49.057
49.1842
49.4042
49.7314
50.1666
49.988
49.5323
48.3639
47.0416
45.76
44.4632
20.9785
26.0412
28.6888
30.7739
32.3355
33.4146
34.0654
34.3859
34.551
34.8114
35.3983
36.4259
37.88
39.6317
41.4817
43.2564
44.822
46.075
46.9705
47.5724
48.1594
48.5439
48.6824
48.8975
49.2419
49.6262
49.5285
49.101
47.9923
46.4636
44.865
43.6047
20.9029
25.9857
28.6316
30.7143
32.28
33.3732
34.0451
34.3782
34.5132
34.6567
35.0367
35.8212
37.0798
38.7322
40.5594
42.3467
43.9307
45.193
46.0905
46.6928
47.2159
47.6433
48.0109
48.4669
49.0125
49.5321
49.6386
49.3178
48.2588
46.5513
44.614
43.2651
20.537
25.6351
28.2701
30.3415
31.9024
32.9989
33.6778
34.0041
34.0849
34.0832
34.2047
34.6678
35.6572
37.1621
38.9278
40.6967
42.2981
43.6224
44.64
45.4267
46.1608
46.8996
47.6818
48.5462
49.4285
50.2016
50.5643
50.3829
49.3611
47.4914
45.2099
43.6654
19.4
17.4926
15.323
13.0241
10.8595
8.79234
8.96559
8.62841
9.1386
14.3174
17.3257
19.1907
20.5138
21.5099
22.3112
22.97
23.5148
23.9496
24.2506
24.3645
24.3663
24.2826
24.005
23.5868
23.0573
22.4137
21.6301
20.6558
19.3696
17.5622
14.6991
9.63337
8.72818
8.93424
8.70252
10.7545
12.9226
15.244
17.447
19.3945
24.4636
22.4332
20.1123
17.6157
15.0617
12.5928
10.7424
10.6137
13.1764
18.5978
21.6092
23.5867
25.0325
26.1471
27.0537
27.8106
28.4511
28.9773
29.353
29.5149
29.5206
29.3918
29.0419
28.5334
27.9085
27.1678
26.2802
25.1893
23.7818
21.8597
18.9857
13.7189
10.6429
10.7401
12.4743
14.9373
17.5046
20.0289
22.3859
24.4576
27.0514
24.9114
22.4698
19.8307
17.0895
14.4088
11.5648
11.5185
15.6566
21.0013
23.9907
26.0583
27.6086
28.8317
29.8416
30.6997
31.4464
32.0788
32.5481
32.7788
32.7896
32.5946
32.1532
31.5392
30.8081
29.9662
28.9758
27.7776
26.2661
24.2518
21.388
16.2602
11.5879
11.5441
14.2543
16.9503
19.711
22.3809
24.8608
27.0438
29.0759
26.8325
24.284
21.5228
18.6337
15.7679
12.5855
12.4179
18.3687
23.2396
26.1477
28.2695
29.8933
31.1987
32.2894
33.2322
34.0709
34.7969
35.3485
35.6411
35.656
35.4016
34.8797
34.1728
33.3497
32.4219
31.3514
30.0723
28.4874
26.4172
23.6151
18.9354
12.8921
12.3931
15.5952
18.4798
21.3935
24.1887
26.7775
29.0656
30.5998
28.2708
25.6363
22.7747
19.7592
16.6785
13.4552
14.8015
20.9005
25.269
28.076
30.2153
31.8801
33.2385
34.3853
35.3953
36.3077
37.1089
37.7253
38.0645
38.0822
37.7836
37.1983
36.4172
35.52
34.5241
33.3983
32.067
30.4403
28.3519
25.6296
21.4409
15.3597
13.3427
16.4778
19.5883
22.6348
25.5339
28.211
30.5861
31.6719
29.2754
26.571
23.6211
20.479
17.1519
14.1672
17.2458
23.1558
27.0401
29.7635
31.8958
33.5844
34.9786
36.1667
37.2319
38.2037
39.0627
39.726
40.0961
40.1155
39.7878
39.157
38.3191
37.3623
36.3112
35.144
33.7775
32.1254
30.0433
27.3882
23.659
17.8784
14.2034
16.9222
20.2868
23.4682
26.4602
29.2098
31.6541
32.3344
29.8781
27.1077
24.0651
20.7731
17.2083
15.0831
19.6556
25.0631
28.559
31.2269
33.3432
35.0508
36.4726
37.6947
38.8049
39.8228
40.722
41.4141
41.8004
41.8206
41.4778
40.8193
39.9422
38.9396
37.8437
36.6415
35.2469
33.5744
31.507
28.8988
25.5224
20.3057
15.3274
16.97
20.5532
23.8952
26.9861
29.8051
32.3111
32.636
30.1071
27.2531
24.0893
20.6036
16.9543
16.4618
21.8945
26.635
29.8835
32.508
34.6084
36.332
37.7759
39.027
40.1708
41.2201
42.1418
42.8451
43.2345
43.2546
42.909
42.24
41.3416
40.3081
39.1788
37.9455
36.5278
34.8383
32.7835
30.2162
27.0531
22.5063
16.9149
16.767
20.3524
23.8964
27.1169
30.0237
32.6047
32.652
30.0008
27.0127
23.6683
19.9652
16.7227
18.3893
23.8644
27.9711
31.0868
33.6584
35.7439
37.4753
38.9345
40.2072
41.372
42.4369
43.3633
44.0611
44.442
44.4614
44.1236
43.4605
42.5583
41.5098
40.3598
39.1041
37.6702
35.9713
33.9274
31.41
28.3575
24.4014
18.9693
16.6931
19.6968
23.4467
26.8565
29.9028
32.6086
32.4986
29.6263
26.4087
22.8022
19.0163
17.1651
20.6964
25.5615
29.2115
32.2292
34.7312
36.7947
38.5207
39.9845
41.2672
42.4389
43.5033
44.4173
45.0947
45.4572
45.4754
45.1544
44.5117
43.6223
42.5752
41.4184
40.1523
38.7129
37.0177
34.9917
32.5383
29.5736
26.0179
21.2764
17.3895
18.794
22.555
26.228
29.5089
32.4391
32.3457
29.1145
25.5508
21.6957
18.4699
18.8973
23.0326
27.106
30.4669
33.3562
35.7727
37.7959
39.4999
40.9539
42.2326
43.3965
44.4443
45.3307
45.9748
46.3118
46.3284
46.0307
45.4203
44.559
43.5289
42.3799
41.1173
39.6864
38.0109
36.0213
33.6459
30.8034
27.4983
23.522
19.3051
18.4284
21.4694
25.3547
28.9789
32.2692
32.4413
28.7806
24.9071
21.2354
19.5352
21.5369
25.1947
28.6695
31.7883
34.5081
36.8196
38.7783
40.4413
41.8685
43.128
44.2691
45.2854
46.1308
46.7321
47.0383
47.053
46.7832
46.2144
45.3938
44.3955
43.2693
42.025
40.6192
38.9813
37.0519
34.7739
32.0921
29.0108
25.5826
21.9372
19.7058
21.1328
24.7452
28.6494
32.361
33.1101
29.1842
25.3624
22.4671
22.0887
24.2635
27.286
30.3452
33.1974
35.722
37.9036
39.7729
41.3744
42.7564
43.9809
45.0841
46.0553
46.8491
47.4006
47.6728
47.6853
47.4464
46.9254
46.1558
45.2023
44.1137
42.9034
41.5402
39.9602
38.1149
35.9597
33.4629
30.6362
27.5951
24.5759
22.3115
22.4991
25.2865
29.096
33.0513
34.449
30.5377
27.0787
24.9287
25.019
26.8803
29.4396
32.1429
34.7121
37.0251
39.053
40.8106
42.3297
43.6483
44.8219
45.873
46.7875
47.5213
48.0186
48.2549
48.2653
48.0587
47.5896
46.8787
45.9814
44.9441
43.7834
42.4807
40.9791
39.2399
37.2312
34.9366
32.3822
29.6841
27.1131
25.2002
25.0037
27.0688
30.5015
34.427
36.1535
32.4045
29.3514
27.6845
27.8848
29.4638
31.6722
34.0472
36.3383
38.4314
40.2897
41.918
43.3368
44.5756
45.6832
46.6698
47.5179
48.1858
48.6263
48.8264
48.8346
48.6606
48.2457
47.5989
46.7669
45.793
44.6963
43.4704
42.065
40.4498
38.604
36.5216
34.2368
31.8597
29.635
28.0173
27.7548
29.3706
32.4075
36.1706
37.9076
34.3712
31.6955
30.3825
30.6442
32.0265
33.9514
36.0354
38.0661
39.941
41.623
43.1102
44.4155
45.5648
46.5952
47.5078
48.2824
48.8806
49.2637
49.4282
49.4344
49.2922
48.9318
48.3524
47.5925
46.6909
45.6697
44.5289
43.2331
41.7548
40.0804
38.2109
36.1812
34.0914
32.1505
30.7397
30.4414
31.73
34.4071
37.9679
39.5497
36.2684
33.966
32.9669
33.305
34.5546
36.2528
38.0871
39.8819
41.5498
43.0574
44.3991
45.5837
46.6377
47.5828
48.4152
49.1123
49.6397
49.9664
50.0976
50.1019
49.9894
49.6821
49.1712
48.4871
47.6643
46.7265
45.6786
44.5008
43.1647
41.6612
39.9948
38.198
36.3563
34.6443
33.3748
33.0173
34.0119
36.3334
39.6527
41.0151
38.0474
36.139
35.4448
35.8771
37.0401
38.5592
40.1831
41.77
43.2485
44.5905
45.7892
46.8518
47.8071
48.6633
49.4124
50.031
50.4892
50.763
50.8648
50.8674
50.7809
50.5233
50.079
49.4715
48.7304
47.8801
46.9292
45.8711
44.6756
43.3352
41.8561
40.266
38.635
37.105
35.9293
35.4887
36.1911
38.1298
41.1433
42.3126
39.7232
38.233
37.836
38.3701
39.4755
40.8515
42.2981
43.7038
45.0122
46.2005
47.2638
48.2149
49.0743
49.8432
50.5098
51.0524
51.4455
51.6718
51.7495
51.7507
51.6849
51.4719
51.0903
50.5568
49.8967
49.1323
48.2758
47.3269
46.2655
45.0778
43.7684
42.3597
40.9076
39.5241
38.4111
37.8751
38.2837
39.8036
42.4321
43.5096
41.351
40.2865
40.1681
40.7985
41.862
43.1201
44.4169
45.6662
46.825
47.8754
48.8155
49.6659
50.4354
51.1212
51.7098
52.1814
52.5153
52.7004
52.7602
52.7604
52.7097
52.5349
52.2101
51.7459
51.1626
50.4803
49.713
48.864
47.9253
46.8753
45.7158
44.4647
43.1646
41.9021
40.8346
40.2039
40.3303
41.4127
43.5914
44.707
42.9978
42.3358
42.4603
43.1716
44.1988
45.3568
46.5251
47.6388
48.6655
49.5931
50.4298
51.1912
51.8799
52.4897
53.007
53.4146
53.6967
53.8478
53.895
53.8946
53.8539
53.7107
53.4358
53.0339
52.5208
51.9139
51.227
50.4666
49.6309
48.7043
47.6784
46.5647
45.3956
44.2361
43.2071
42.4947
42.3714
43.0369
44.7489
45.9696
44.6942
44.3874
44.7105
45.4824
46.4753
47.5472
48.6062
49.6045
50.5178
51.3405
52.0912
52.7758
53.3936
53.9359
54.3902
54.7422
54.9804
55.104
55.1428
55.1419
55.1079
54.99
54.7574
54.41
53.9592
53.4195
52.8035
52.1202
51.3708
50.55
49.6389
48.6426
47.585
46.5139
45.5206
44.7457
44.416
44.709
45.9638
47.3368
46.4347
46.4177
46.8932
47.708
48.6684
49.6669
50.6333
51.5327
52.3502
53.0949
53.7771
54.3989
54.9564
55.4412
55.8417
56.1468
56.3486
56.4505
56.4831
56.482
56.4529
56.3553
56.1578
55.8566
55.4591
54.9769
54.4213
53.8012
53.121
52.3787
51.5645
50.6688
49.706
48.7101
47.7496
46.9285
46.4347
46.4116
47.2447
48.6355
48.0972
48.3392
48.945
49.7981
50.7356
51.678
52.5716
53.3931
54.1408
54.8275
55.4571
56.0291
56.5379
56.9754
57.3319
57.5986
57.7709
57.8553
57.8827
57.8814
57.8569
57.7758
57.607
57.3436
56.9899
56.5549
56.0483
55.4784
54.8512
54.1673
53.4232
52.6062
51.7176
50.7795
49.8439
48.9865
48.3652
48.0866
48.563
49.8476
49.6167
50.0725
50.786
51.676
52.6032
53.5095
54.3531
55.1216
55.8279
56.4774
57.0719
57.6085
58.0815
58.4834
58.8059
59.0427
59.1916
59.2615
59.2832
59.2817
59.2624
59.1953
59.0492
58.8151
58.495
58.0954
57.6245
57.0901
56.4978
55.8508
55.1475
54.3827
53.5432
52.6401
51.7141
50.8205
50.0961
49.6168
49.8112
50.8795
50.8762
51.4953
52.296
53.2238
54.1541
55.0439
55.8624
56.6132
57.3039
57.9382
58.5157
59.033
59.4844
59.8635
60.1631
60.3787
60.5098
60.5666
60.5814
60.5798
60.567
60.5123
60.3834
60.1699
59.872
59.4948
59.045
58.5293
57.9533
57.3206
56.6317
55.8825
55.0657
54.1771
53.2465
52.3158
51.5077
50.8754
50.8597
51.4462
51.6404
52.4044
53.2923
54.2714
55.227
56.1268
56.9495
57.7075
58.4044
59.0426
59.6205
60.1346
60.5794
60.9488
61.2371
61.4401
61.5586
61.6033
61.6086
61.6069
61.603
61.5594
61.4422
61.2403
60.953
60.5845
60.1405
59.6272
59.0501
58.4127
57.7167
56.9597
56.1381
55.2396
54.2857
53.3085
52.4221
51.6592
51.4658
51.3692
51.7094
52.5847
53.5483
54.5834
55.5803
56.514
57.3697
58.1579
58.8814
59.5417
60.1372
60.664
61.1171
61.4907
61.7793
61.9793
62.0912
62.1256
62.1188
62.117
62.1244
62.09
61.9781
61.7779
61.4889
61.115
60.6614
60.134
59.538
58.877
58.153
57.3642
56.5082
55.5744
54.5789
53.5482
52.5935
51.7358
51.4261
50.486
50.8587
51.7797
52.7948
53.8849
54.9374
55.9256
56.8327
57.6683
58.4344
59.1324
59.7602
60.3141
60.7892
61.18
61.4811
61.6886
61.8025
61.8324
61.8148
61.8131
61.8302
61.7989
61.6832
61.4739
61.171
60.7783
60.3014
59.7456
59.116
58.4162
57.6482
56.8104
55.9008
54.9094
53.8535
52.7608
51.744
50.8231
50.4513
48.5713
48.9118
49.8292
50.8706
52.0082
53.1224
54.1774
55.1461
56.0378
56.8546
57.5978
58.2656
58.8546
59.36
59.7762
60.0983
60.3222
60.4477
60.4833
60.4639
60.4621
60.4788
60.4395
60.3101
60.082
59.7558
59.3355
58.8261
58.2332
57.5614
56.814
55.9926
55.0956
54.1201
53.0568
51.9339
50.7878
49.7385
48.8159
48.4747
46.1838
46.3381
47.1341
48.1203
49.2498
50.3907
51.494
52.5199
53.4628
54.3266
55.112
55.8178
56.4405
56.9756
57.4178
57.762
58.0044
58.1443
58.19
58.1741
58.1717
58.1818
58.1286
57.9807
57.7302
57.3778
56.9276
56.3843
55.7533
55.0388
54.2439
53.3693
52.4132
51.3703
50.2471
49.0834
47.9285
46.9147
46.0925
45.9147
44.3213
44.3423
45.0283
45.9361
47.0199
48.1433
49.2508
50.2937
51.2525
52.1312
52.9303
53.6484
54.2822
54.8269
55.2773
55.628
55.875
56.0169
56.0604
56.0361
56.03
56.0403
55.9815
55.8239
55.5612
55.1946
54.7285
54.1681
53.5185
52.7844
51.9689
51.0729
50.095
49.0328
47.9088
46.7733
45.6855
44.7852
44.1255
44.1419
44.0531
51.8612
58.0834
64.1047
69.2214
73.3225
76.5831
79.2035
81.3417
83.1379
84.7164
86.1303
87.4191
88.6135
89.7425
90.8344
91.9183
93.0206
94.1625
95.3582
96.6147
97.9327
99.3076
100.732
102.196
103.688
105.192
106.689
108.142
109.487
110.589
111.229
43.4199
50.953
56.985
62.8738
67.9206
71.9867
75.2281
77.8385
79.975
81.7771
83.3591
84.769
86.0448
87.2215
88.3286
89.3963
90.4545
91.5294
92.6427
93.8088
95.0345
96.3203
97.6618
99.0513
100.479
101.933
103.399
104.856
106.271
107.58
108.654
109.274
42.736
50.0272
55.8805
61.6377
66.6143
70.648
73.8749
76.4829
78.6275
80.4428
82.0315
83.4398
84.7027
85.862
86.9486
87.9934
89.0263
90.075
91.1608
92.2978
93.493
94.7467
96.0545
97.4089
98.8
100.216
101.644
103.062
104.439
105.712
106.756
107.358
42.0223
49.0899
54.7677
60.3915
65.298
69.3025
72.5212
75.1357
77.2982
79.1333
80.7327
82.1417
83.3959
84.5418
85.6103
86.6333
87.6429
88.6661
89.7247
90.8333
91.9987
93.2212
94.4964
95.8163
97.1715
98.5505
99.9394
101.319
102.658
103.896
104.911
105.493
41.2897
48.1443
53.6467
59.1351
63.9737
67.9562
71.1767
73.8076
75.9949
77.8536
79.4662
80.8781
82.1284
83.2611
84.3124
85.3161
86.3032
87.3026
88.3363
89.418
90.5548
91.7467
92.9894
94.2755
95.5953
96.9369
98.2885
99.6302
100.932
102.135
103.121
103.686
40.5469
47.1954
52.519
57.8678
62.6381
66.603
69.8316
72.4851
74.7027
76.5889
78.2183
79.6387
80.8919
82.0169
83.0556
84.0413
85.009
85.9861
86.9949
88.0504
89.1594
90.3222
91.5341
92.7871
94.0721
95.378
96.6914
97.9957
99.2605
100.429
101.387
101.932
39.7911
46.2382
51.3784
56.5827
61.2864
65.2435
68.4929
71.1796
73.433
75.3493
76.9994
78.4316
79.6884
80.8096
81.837
82.8088
83.7576
84.7144
85.7016
86.7332
87.816
88.9498
90.1305
91.3508
92.6009
93.8707
95.1478
96.4145
97.6438
98.7789
99.7091
100.235
39.0315
45.279
50.2287
55.2801
59.9145
63.8669
67.142
69.8654
72.1587
74.1109
75.7869
77.2372
78.5068
79.6342
80.6571
81.6171
82.552
83.4907
84.4561
85.4639
86.5208
87.6276
88.7794
89.9679
91.1845
92.419
93.659
94.8888
96.0814
97.1825
98.0854
98.5912
38.2491
44.2987
49.05
53.9389
58.5019
62.4593
65.7773
68.5542
70.8974
72.8898
74.5974
76.0714
77.3548
78.4875
79.5103
80.4646
81.3867
82.3097
83.2577
84.2449
85.2784
86.3579
87.4792
88.6353
89.8176
91.0158
92.2191
93.4122
94.57
95.6379
96.5143
97.0016
37.4583
43.3088
47.8517
52.5648
57.0486
61.0114
64.3754
67.2074
69.6052
71.6488
73.3968
74.9012
76.2098
77.3614
78.393
79.3464
80.2625
81.1738
82.1039
83.0699
84.0794
85.1334
86.2276
87.3525
88.5007
89.6635
90.8292
91.9841
93.1046
94.1388
94.9878
95.4524
36.6202
42.27
46.5941
51.1143
55.5079
59.4827
62.9168
65.8349
68.3101
70.4121
72.2077
73.7522
75.0886
76.2564
77.2981
78.257
79.1707
80.0726
80.9907
81.9404
82.9292
83.9569
85.0197
86.1104
87.2225
88.3462
89.4737
90.5902
91.6748
92.6756
93.4983
93.9431
35.7465
41.1988
45.2964
49.6066
53.8946
57.877
61.3821
64.3843
66.94
69.1215
70.9833
72.5764
73.9531
75.1554
76.2204
77.1899
78.107
79.0058
79.9115
80.8427
81.8081
82.8108
83.8467
84.9061
85.9828
87.0696
88.157
89.2334
90.2793
91.2455
92.0394
92.4585
34.7675
40.0297
43.8858
47.9576
52.1124
56.0976
59.7048
62.8495
65.5382
67.8132
69.747
71.4044
72.83
74.0645
75.1525
76.1395
77.0639
77.9602
78.86
79.7796
80.7275
81.7041
82.7063
83.7288
84.767
85.8126
86.8592
87.895
88.9044
89.8365
90.6044
91.0022
33.7238
38.8014
42.4066
46.2172
50.2136
54.1893
57.8945
61.1673
63.9806
66.3899
68.4384
70.1763
71.6647
72.9535
74.0832
75.0958
76.0351
76.9381
77.8312
78.7348
79.6598
80.6116
81.588
82.5791
83.5801
84.5855
85.5885
86.5814
87.5484
88.4439
89.1816
89.5491
32.4922
37.3916
40.7252
44.2257
48.0001
51.9268
55.7592
59.2709
62.3325
64.9057
67.0707
68.9135
70.4857
71.8335
73.0063
74.0517
75.0113
75.9201
76.8144
77.7121
78.6235
79.5493
80.4878
81.4365
82.3944
83.3549
84.3135
85.2618
86.1909
87.0501
87.7625
88.1042
31.1271
35.8611
38.9225
42.0905
45.611
49.4715
53.4168
57.1106
60.363
63.184
65.5677
67.5543
69.2297
70.661
71.8988
72.9909
73.9807
74.9099
75.8047
76.689
77.5765
78.4768
79.3898
80.3072
81.2252
82.1391
83.0479
83.9486
84.8284
85.6482
86.3252
86.6305
29.3866
33.9745
36.7419
39.4973
42.62
46.268
50.3118
54.4129
58.1752
61.3052
63.8952
66.0731
67.8994
69.4397
70.7577
71.9054
72.9335
73.8785
74.7835
75.6689
76.5475
77.4204
78.2887
79.1534
80.0194
80.8832
81.7413
82.5898
83.4298
84.2101
84.8643
85.1339
27.3293
31.8172
34.3137
36.6535
39.3685
42.8356
46.9781
51.2712
55.2645
58.9136
61.9721
64.4322
66.4472
68.1241
69.5406
70.7669
71.8472
72.8321
73.7471
74.6212
75.4722
76.3169
77.1589
77.9925
78.8146
79.6202
80.4178
81.2113
81.9906
82.7245
83.3343
83.5572
24.3543
28.8359
31.0759
32.8817
34.8374
37.5664
41.5097
46.5845
51.8631
56.1123
59.5797
62.4507
64.7734
66.6683
68.2437
69.566
70.7131
71.7265
72.663
73.5466
74.395
75.2091
75.9938
76.7564
77.5101
78.2572
78.9932
79.7211
80.4568
81.1473
81.739
81.9061
20.5354
25.309
27.3869
28.8262
30.2325
32.659
36.7792
41.6262
46.4859
52.0952
56.7142
60.1961
62.9119
65.0635
66.7964
68.2524
69.4864
70.5705
71.5299
72.403
73.2144
73.9931
74.7488
75.4801
76.1845
76.8525
77.509
78.169
78.8243
79.4554
79.9844
80.0853
11.994
17.2474
19.7947
20.0026
19.0693
19.1819
21.4572
29.6799
40.3596
46.7781
52.4136
57.0077
60.4523
63.0858
65.1679
66.8086
68.1632
69.2937
70.2893
71.1829
72.0006
72.7417
73.4162
74.0425
74.647
75.2409
75.8157
76.3863
76.9898
77.5731
78.0954
78.0997
8.66346
12.1344
13.3683
13.8725
12.8775
11.4355
12.2854
16.334
20.8892
38.1064
47.1646
53.2362
57.6746
60.8908
63.2561
65.142
66.6466
67.9048
68.9441
69.8244
70.5825
71.2706
71.91
72.5046
73.0522
73.5271
73.9856
74.4617
74.9481
75.4453
75.8683
75.7651
6.3037
11.6605
12.4785
13.7916
13.7545
9.55505
20.0921
17.2663
21.6495
21.8188
37.122
46.9412
53.2793
57.6869
60.9063
63.1962
64.9465
66.281
67.3795
68.2965
69.0765
69.7133
70.2214
70.6411
71.02
71.3872
71.7211
72.0616
72.478
72.9303
73.3688
73.0793
18.1767
22.592
24.3644
24.8817
24.4216
22.7268
18.5021
16.9892
24.0724
23.2122
17.8687
37.9242
48.1718
54.2503
58.0483
60.824
62.8395
64.423
65.6033
66.4951
67.1602
67.6993
68.155
68.5437
68.8591
69.0227
69.1628
69.3435
69.5593
69.8564
70.1281
69.5925
22.9552
27.9337
30.669
32.6755
33.83
34.0729
33.1146
30.0072
25.1187
23.0968
22.7749
20.1473
38.0317
47.6967
53.976
57.7907
60.3899
62.0945
63.3729
64.3275
65.048
65.5067
65.7177
65.7664
65.7411
65.7067
65.6136
65.5533
65.6805
66.0127
66.2853
65.4209
24.6648
29.8141
32.8718
35.3941
37.3427
38.6771
39.3222
39.0547
37.1944
32.3608
27.5555
16.3207
23.8247
41.8539
49.2264
54.0178
57.0347
59.2807
60.7082
61.5961
62.0418
62.2782
62.3727
62.4124
62.3255
61.9047
61.4534
61.0724
60.7074
60.585
60.7109
58.8618
25.218
30.4466
33.6539
36.3802
38.581
40.2496
41.3974
42.0105
41.9336
40.5066
35.3996
30.7861
10.0499
24.2657
40.958
48.5016
53.125
55.4592
57.0564
58.0271
58.6444
58.7399
58.2932
57.5205
56.6508
55.6735
54.7067
53.6032
53.3821
54.4886
53.5197
53.1356
24.3627
29.7551
33.0813
35.9468
38.3103
40.1789
41.6052
42.6521
43.333
43.4545
42.2112
38.1965
24.8384
27.7843
30.276
42.0364
46.924
50.6905
52.4551
53.258
52.9452
52.382
51.5716
51.0844
49.9143
48.3688
46.8386
45.4772
43.3455
41.0141
42.2232
30.7936
23.0586
28.5754
31.9368
34.8236
37.2038
39.0957
40.575
41.7478
42.7159
43.4724
43.6274
41.8717
34.775
26.2644
17.1404
30.8757
40.6574
43.4155
45.7026
46.3036
46.9983
46.4372
43.8447
40.8325
38.6857
33.0737
29.7003
22.2489
20.3931
32.8607
19.6784
28.5628
21.636
27.1574
30.4439
33.2455
35.5407
37.3566
38.7758
39.92
40.9246
41.8528
42.4822
41.9756
38.5099
31.5237
28.1462
20.2135
27.1547
33.9046
36.3204
35.7804
32.5102
28.5683
22.194
21.8236
5.29316
11.5674
36.1526
13.8191
25.3025
37.5381
28.7611
38.981
20.6378
26.013
29.1118
31.7167
33.8169
35.4422
36.678
37.663
38.5605
39.4477
40.1196
39.8953
37.4986
31.4342
32.176
20.0686
27.0346
23.1786
16.6164
29.9199
15.3939
15.8398
31.0171
31.8721
17.1369
22.5649
37.1465
34.5007
36.1412
38.4919
33.5763
41.2553
20.1024
25.3178
28.2282
30.6288
32.5151
33.9122
34.9008
35.6395
36.3395
37.129
37.8397
37.8558
36.0956
31.2222
25.0931
22.7555
16.4825
30.9456
24.837
34.1352
15.2889
29.3561
22.9646
36.8729
32.3872
37.2257
36.5326
38.2361
40.7955
38.0556
41.1665
36.0136
19.9528
25.0561
27.8303
30.0764
31.7949
33.0056
33.7803
34.2879
34.7815
35.4698
36.3035
36.8126
36.0805
32.9877
27.5431
24.073
22.0323
28.8562
27.8208
32.1687
26.4216
32.9692
39.0373
39.5247
42.0877
44.5062
45.8787
45.1767
47.0914
45.0409
46.1233
43.7896
20.0356
25.0801
27.7754
29.9285
31.5463
32.6475
33.294
33.649
33.9811
34.5589
35.4733
36.5167
37.1713
36.7763
35.1863
33.5013
32.8871
33.5641
35.0751
37.4232
41.3962
42.2176
46.453
46.0903
46.9524
48.2641
49.0581
47.8265
49.0289
47.5317
47.2839
46.2006
20.2573
25.2806
27.9376
30.0432
31.6125
32.6681
33.2671
33.5572
33.7993
34.2753
35.1335
36.3219
37.6275
38.7426
39.472
39.9899
40.6236
41.5644
42.796
44.1998
46.083
46.4975
48.8801
48.7055
48.9559
49.8346
50.3561
49.1758
49.7046
48.3175
47.5053
46.624
20.5256
25.5528