/*--------------------------------*- C++ -*----------------------------------*\
  =========                 |
  \\      /  F ield         | OpenFOAM: The Open Source CFD Toolbox
   \\    /   O peration     | Website:  https://openfoam.org
    \\  /    A nd           | Version:  6
     \\/     M anipulation  |
\*---------------------------------------------------------------------------*/
FoamFile
{
    version     2.0;
    format      ascii;
    class       volScalarField;
    location    "0";
    object      omega;
}
// * * * * * * * * * * * * * * * * * * * * * * * * * * * * * * * * * * * * * //

dimensions      [0 0 -1 0 0 0 0];

internalField   nonuniform List<scalar> 
380496
(
710.522
709.576
708.525
707.33
705.917
704.148
701.717
697.866
690.342
670.777
602.738
639.857
679.539
692.821
699.03
702.827
705.627
707.957
710.047
712.007
713.897
715.751
717.589
719.423
721.263
723.112
724.976
726.855
735.95
734.154
732.471
730.888
729.394
727.98
726.636
710.509
709.561
708.508
707.311
705.901
704.15
701.788
698.198
691.767
677.574
642.324
658.964
683.7
693.938
699.382
702.947
705.666
707.966
710.043
711.999
713.887
715.741
717.579
719.413
721.252
723.102
724.964
726.843
735.942
734.148
732.466
730.884
729.391
727.978
726.635
710.574
709.673
708.686
707.585
706.318
704.789
702.788
699.803
694.348
681.121
643.337
661.761
687.04
696.305
700.977
704.047
706.45
708.54
710.473
712.326
714.139
715.936
717.73
719.53
721.342
723.169
725.014
726.878
735.956
734.172
732.502
730.933
729.454
728.056
726.731
710.545
709.635
708.636
707.517
706.222
704.642
702.539
699.31
693.088
676.296
608.699
647.17
683.999
695.25
700.471
703.751
706.253
708.398
710.365
712.24
714.069
715.878
717.681
719.489
721.307
723.14
724.99
726.858
735.939
734.151
732.476
730.903
729.421
728.018
726.688
710.536
709.625
708.625
707.505
706.213
704.65
702.61
699.624
694.487
683.835
660.377
671.16
688.395
696.338
700.807
703.87
706.298
708.415
710.371
712.241
714.068
715.875
717.678
719.485
721.302
723.134
724.982
726.848
735.934
734.148
732.476
730.904
729.423
728.022
726.694
710.389
709.509
708.552
707.496
706.299
704.879
703.058
700.38
695.384
681.744
623.976
656.761
688.124
697.242
701.543
704.364
706.609
708.597
710.461
712.266
714.046
715.818
717.595
719.382
721.184
723.005
724.845
726.706
735.788
734.004
732.335
730.769
729.294
727.9
726.58
710.372
709.488
708.526
707.461
706.251
704.814
702.971
700.279
695.398
683.073
636.254
662.314
688.72
697.214
701.446
704.275
706.537
708.539
710.415
712.229
714.014
715.792
717.572
719.362
721.167
722.99
724.831
726.694
735.778
733.994
732.324
730.757
729.28
727.886
726.564
710.04
709.179
708.252
707.238
706.109
704.801
703.185
700.918
696.909
686.291
639.425
666.381
691.315
698.517
702.087
704.563
706.622
708.498
710.293
712.051
713.798
715.548
717.308
719.084
720.879
722.694
724.531
726.39
735.489
733.705
732.037
730.472
729
727.61
726.295
710.024
709.159
708.224
707.202
706.057
704.727
703.069
700.723
696.531
685.348
631.069
663.8
690.632
698.182
701.889
704.433
706.529
708.429
710.238
712.007
713.762
715.518
717.283
719.063
720.86
722.678
724.517
726.378
735.479
733.694
732.024
730.458
728.984
727.592
726.275
709.506
708.658
707.749
706.765
705.682
704.454
702.983
701.013
697.724
689.399
651.545
673.759
693.376
699.149
702.188
704.417
706.344
708.143
709.89
711.618
713.345
715.082
716.834
718.606
720.399
722.214
724.052
725.914
735.044
733.256
731.586
730.019
728.545
727.155
725.841
709.492
708.639
707.725
706.732
705.636
704.387
702.875
700.815
697.26
687.583
629.728
666.83
692.271
698.754
701.984
704.291
706.256
708.079
709.84
711.577
713.312
715.054
716.811
718.586
720.382
722.2
724.04
725.904
735.035
733.246
731.574
730.005
728.529
727.137
725.821
708.767
707.925
707.027
706.061
705.009
703.836
702.466
700.705
697.919
691.141
658.521
678.205
694.42
699.217
701.885
703.943
705.779
707.528
709.245
710.956
712.673
714.406
716.157
717.93
719.726
721.547
723.391
725.26
734.436
732.641
730.964
729.391
727.913
726.519
725.201
708.755
707.91
707.007
706.034
704.972
703.78
702.376
700.54
697.527
689.511
634.564
671.281
693.456
698.885
701.716
703.838
705.707
707.475
709.203
710.922
712.646
714.383
716.138
717.914
719.712
721.535
723.381
725.252
734.429
732.632
730.954
729.379
727.899
726.504
725.184
707.786
706.947
706.053
705.097
704.064
702.925
701.622
700.001
697.551
691.688
657.138
679.442
694.584
698.767
701.189
703.133
704.912
706.631
708.333
710.037
711.753
713.489
715.245
717.026
718.831
720.661
722.516
724.396
733.636
731.829
730.141
728.559
727.072
725.67
724.346
707.778
706.935
706.038
705.078
704.036
702.884
701.557
699.886
697.298
690.788
643.64
675.903
694.02
698.549
701.071
703.058
704.86
706.592
708.302
710.012
711.733
713.472
715.231
717.014
718.82
720.652
722.508
724.39
733.631
731.823
730.134
728.551
727.063
725.66
724.334
706.5
705.658
704.765
703.812
702.787
701.669
700.409
698.885
696.676
691.473
650.323
679.214
694.097
697.834
700.082
701.951
703.695
705.4
707.097
708.804
710.527
712.272
714.04
715.833
717.652
719.497
721.368
723.265
732.59
730.767
729.064
727.468
725.968
724.555
723.22
706.495
705.651
704.755
703.799
702.77
701.643
700.369
698.818
696.56
691.39
659.665
680.691
693.956
697.729
700.016
701.907
703.665
705.377
707.08
708.79
710.516
712.263
714.032
715.827
717.646
719.492
721.363
723.26
732.587
730.763
729.06
727.464
725.964
724.55
723.214
704.751
703.903
703.004
702.048
701.024
699.915
698.681
697.225
695.206
690.672
647.255
679.441
692.986
696.32
698.437
700.256
701.983
703.686
705.39
707.108
708.846
710.608
712.395
714.208
716.048
717.914
719.808
721.727
731.17
729.324
727.6
725.985
724.467
723.037
721.687
604.699
603.271
601.771
600.195
598.54
596.806
595.001
593.154
591.384
590.334
593.18
591.817
590.967
592.858
595.251
597.825
600.501
603.253
606.07
608.947
611.88
614.868
617.91
621.003
624.147
627.341
630.583
633.873
650.096
646.931
643.976
641.208
638.61
636.163
633.853
604.616
603.166
601.633
600.009
598.279
596.422
594.393
592.084
589.133
583.613
554.842
573.255
586.422
590.912
594.172
597.135
600.019
602.896
605.793
608.725
611.698
614.716
617.78
620.89
624.049
627.254
630.506
633.804
650.037
646.866
643.904
641.13
638.523
636.067
633.748
424.446
424.435
424.416
424.382
424.324
424.22
424.02
423.589
422.443
417.763
355.744
402.476
420.103
422.737
423.566
423.922
424.101
424.199
424.254
424.285
424.301
424.307
424.306
424.3
424.291
424.279
424.265
424.249
424.149
424.165
424.178
424.191
424.201
424.21
424.217
351.453
351.923
352.443
353.034
353.728
354.595
355.78
357.641
361.223
370.203
398.147
383.484
366.24
360.052
357.083
355.242
353.873
352.726
351.692
350.716
349.77
348.837
347.908
346.976
346.036
345.086
344.123
343.148
338.35
339.308
340.201
341.036
341.821
342.562
343.262
351.459
351.93
352.452
353.042
353.735
354.593
355.744
357.479
360.545
367.129
382.458
375.395
364.318
359.517
356.91
355.182
353.853
352.721
351.693
350.719
349.774
348.842
347.913
346.98
346.041
345.091
344.129
343.154
338.354
339.311
340.203
341.038
341.823
342.562
343.262
350.903
351.35
351.839
352.383
353.007
353.758
354.737
356.19
358.815
365.02
381.557
373.702
362.273
357.88
355.623
354.126
352.947
351.915
350.957
350.033
349.125
348.221
347.314
346.399
345.473
344.535
343.583
342.615
337.829
338.779
339.665
340.493
341.27
342.001
342.692
350.916
351.367
351.861
352.413
353.05
353.824
354.849
356.413
359.387
367.173
395.34
379.89
363.645
358.36
355.853
354.261
353.036
351.98
351.006
350.073
349.157
348.248
347.336
346.418
345.489
344.548
343.594
342.624
337.837
338.79
339.677
340.507
341.286
342.02
342.712
350.919
351.37
351.865
352.416
353.05
353.814
354.806
356.246
358.695
363.668
374.166
369.414
361.556
357.816
355.675
354.192
353.007
351.966
350.999
350.069
349.155
348.247
347.336
346.418
345.49
344.55
343.597
342.628
337.838
338.79
339.676
340.505
341.283
342.016
342.708
349.918
350.355
350.829
351.351
351.941
352.639
353.531
354.836
357.246
363.663
388.397
374.814
360.692
356.355
354.273
352.895
351.792
350.81
349.885
348.984
348.092
347.2
346.301
345.392
344.47
343.534
342.584
341.617
336.826
337.777
338.662
339.489
340.265
340.995
341.683
349.924
350.362
350.838
351.363
351.958
352.661
353.558
354.859
357.192
362.954
383.325
372.273
360.336
356.326
354.294
352.921
351.815
350.829
349.9
348.997
348.103
347.209
346.309
345.399
344.476
343.54
342.589
341.622
336.829
337.781
338.666
339.494
340.27
341
341.689
348.452
348.881
349.342
349.844
350.403
351.048
351.843
352.955
354.91
359.986
380.67
369.098
357.605
354.132
352.387
351.17
350.154
349.224
348.33
347.451
346.573
345.69
344.797
343.891
342.972
342.037
341.086
340.119
335.309
336.262
337.148
337.976
338.752
339.481
340.169
348.458
348.888
349.351
349.856
350.42
351.072
351.881
353.019
355.032
360.294
383.917
370.041
357.825
354.24
352.452
351.213
350.185
349.247
348.348
347.466
346.585
345.7
344.805
343.898
342.978
342.042
341.091
340.122
335.312
336.265
337.153
337.981
338.758
339.488
340.176
346.48
346.904
347.357
347.847
348.385
348.993
349.721
350.695
352.317
356.367
373.573
363.711
354.447
351.621
350.122
349.019
348.062
347.166
346.293
345.426
344.555
343.675
342.783
341.877
340.956
340.018
339.063
338.092
333.251
334.209
335.1
335.932
336.71
337.442
338.131
346.484
346.909
347.364
347.857
348.398
349.014
349.755
350.759
352.477
357.072
382.429
366.572
354.859
351.755
350.188
349.059
348.09
347.187
346.309
345.439
344.565
343.684
342.79
341.883
340.961
340.022
339.067
338.094
333.254
334.212
335.104
335.936
336.716
337.448
338.138
343.92
344.342
344.792
345.275
345.799
346.384
347.067
347.944
349.333
352.689
367.901
358.912
351.075
348.693
347.364
346.339
345.422
344.547
343.685
342.822
341.952
341.071
340.175
339.265
338.338
337.393
336.432
335.452
330.567
331.533
332.431
333.269
334.054
334.791
335.485
343.923
344.346
344.797
345.282
345.809
346.399
347.09
347.99
349.454
353.29
377.746
361.75
351.411
348.794
347.412
346.368
345.442
344.562
343.696
342.832
341.96
341.077
340.181
339.269
338.341
337.396
336.434
335.454
330.569
331.535
332.434
333.273
334.058
334.795
335.49
340.629
341.053
341.503
341.983
342.502
343.072
343.725
344.537
345.768
348.708
365.003
354.694
347.264
345.165
343.95
342.976
342.083
341.218
340.358
339.494
338.62
337.733
336.83
335.91
334.973
334.019
333.046
332.055
327.11
328.088
328.997
329.845
330.638
331.383
332.084
340.631
341.055
341.505
341.986
342.506
343.079
343.735
344.557
345.818
348.942
370.331
355.92
347.396
345.207
343.971
342.989
342.092
341.225
340.364
339.499
338.624
337.736
336.832
335.912
334.975
334.02
333.047
332.056
327.111
328.089
328.998
329.846
330.64
331.385
332.087
336.335
336.763
337.215
337.697
338.213
338.777
339.41
340.177
341.29
343.912
363.33
349.951
342.596
340.713
339.581
338.64
337.76
336.898
336.035
335.165
334.282
333.384
332.469
331.537
330.587
329.619
328.632
327.626
322.604
323.596
324.519
325.38
326.185
326.941
327.652
336.335
336.762
337.215
337.696
338.212
338.775
339.408
340.171
341.267
343.725
358.306
348.709
342.506
340.694
339.574
338.636
337.758
336.896
336.034
335.163
334.28
333.383
332.468
331.536
330.586
329.618
328.631
327.625
322.603
323.596
324.518
325.379
326.184
326.94
327.651
330.282
330.715
331.172
331.658
332.176
332.736
333.357
334.089
335.102
337.367
357.978
342.894
336.214
334.545
333.482
332.566
331.692
330.827
329.957
329.076
328.181
327.27
326.341
325.394
324.428
323.443
322.439
321.415
316.303
317.313
318.252
319.128
319.947
320.716
321.439
282.408
282.672
282.954
283.258
283.592
283.97
284.423
285.035
286.095
289.21
316.933
297.459
287.66
285.648
284.683
283.991
283.395
282.837
282.294
281.755
281.213
280.665
280.11
279.546
278.972
278.388
277.794
277.188
274.177
274.774
275.329
275.847
276.332
276.788
277.218
282.375
282.629
282.898
283.183
283.487
283.816
284.18
284.606
285.192
286.484
299.613
289.663
285.825
284.867
284.249
283.713
283.201
282.693
282.182
281.664
281.138
280.602
280.056
279.499
278.931
278.352
277.761
277.159
274.152
274.747
275.299
275.814
276.296
276.748
277.174
155.587
156.475
157.41
158.392
159.425
160.51
161.644
162.818
163.978
164.807
159.425
163.902
164.341
163.05
161.518
159.898
158.223
156.506
154.75
152.959
151.134
149.275
147.384
145.461
143.506
141.521
139.505
137.46
127.382
129.349
131.186
132.906
134.522
136.043
137.479
146.01
146.105
146.211
146.33
146.471
146.646
146.886
147.263
147.989
149.81
155.499
152.51
149.006
147.751
147.15
146.777
146.5
146.268
146.058
145.861
145.669
145.48
145.292
145.103
144.913
144.72
144.525
144.328
143.355
143.549
143.73
143.899
144.058
144.208
144.35
146.01
146.105
146.21
146.329
146.468
146.639
146.869
147.214
147.824
149.14
152.249
150.81
148.577
147.618
147.099
146.754
146.488
146.26
146.054
145.857
145.667
145.478
145.29
145.102
144.912
144.72
144.525
144.327
143.355
143.549
143.729
143.898
144.057
144.207
144.348
145.178
145.27
145.37
145.482
145.61
145.765
145.968
146.269
146.816
148.104
151.499
149.893
147.536
146.623
146.154
145.844
145.601
145.389
145.192
145.003
144.817
144.633
144.447
144.26
144.071
143.88
143.685
143.488
142.511
142.705
142.886
143.054
143.213
143.362
143.503
145.179
145.271
145.372
145.485
145.614
145.772
145.98
146.298
146.903
148.489
154.263
151.091
147.77
146.694
146.184
145.86
145.611
145.396
145.197
145.007
144.821
144.635
144.449
144.262
144.073
143.881
143.686
143.488
142.511
142.706
142.887
143.056
143.215
143.364
143.505
145.178
145.27
145.37
145.482
145.61
145.763
145.961
146.247
146.732
147.716
149.828
148.865
147.297
146.556
146.131
145.834
145.596
145.386
145.191
145.002
144.817
144.632
144.447
144.26
144.071
143.879
143.685
143.488
142.51
142.704
142.885
143.054
143.212
143.362
143.503
144.027
144.116
144.213
144.32
144.441
144.584
144.768
145.036
145.534
146.856
151.927
149.146
146.245
145.35
144.921
144.638
144.412
144.211
144.021
143.837
143.655
143.473
143.289
143.103
142.915
142.724
142.53
142.333
141.354
141.548
141.729
141.898
142.056
142.205
142.345
144.027
144.116
144.213
144.319
144.44
144.582
144.762
145.023
145.49
146.645
150.807
148.537
146.119
145.315
144.908
144.632
144.408
144.208
144.02
143.836
143.654
143.472
143.288
143.103
142.914
142.723
142.529
142.332
141.353
141.547
141.728
141.897
142.055
142.204
142.345
142.539
142.626
142.72
142.823
142.937
143.069
143.232
143.462
143.867
144.92
149.156
146.796
144.427
143.707
143.347
143.096
142.888
142.698
142.516
142.337
142.158
141.979
141.797
141.613
141.426
141.236
141.043
140.847
139.869
140.063
140.243
140.411
140.569
140.717
140.857
142.539
142.626
142.72
142.822
142.936
143.067
143.23
143.458
143.859
144.911
149.718
146.88
144.416
143.7
143.343
143.094
142.886
142.697
142.515
142.336
142.158
141.978
141.797
141.613
141.426
141.236
141.043
140.846
139.869
140.062
140.243
140.411
140.568
140.716
140.856
140.682
140.767
140.858
140.957
141.066
141.189
141.338
141.538
141.874
142.717
146.239
144.234
142.319
141.732
141.423
141.198
141.004
140.822
140.646
140.471
140.296
140.119
139.94
139.758
139.572
139.384
139.192
138.997
138.025
138.217
138.396
138.563
138.72
138.867
139.005
140.681
140.766
140.858
140.956
141.065
141.188
141.336
141.535
141.876
142.787
147.897
144.687
142.347
141.732
141.42
141.195
141.002
140.821
140.645
140.471
140.295
140.118
139.939
139.757
139.572
139.383
139.192
138.996
138.024
138.217
138.396
138.563
138.719
138.866
139.005
138.373
138.457
138.546
138.642
138.746
138.863
139
139.178
139.463
140.16
143.266
141.446
139.826
139.334
139.063
138.857
138.674
138.5
138.329
138.158
137.986
137.812
137.635
137.455
137.272
137.086
136.896
136.702
135.739
135.93
136.107
136.272
136.427
136.573
136.71
138.373
138.456
138.545
138.64
138.744
138.86
138.996
139.172
139.456
140.202
145.045
141.861
139.836
139.327
139.057
138.853
138.671
138.498
138.327
138.157
137.985
137.811
137.634
137.454
137.271
137.085
136.895
136.702
135.738
135.929
136.106
136.272
136.427
136.572
136.709
135.486
135.568
135.654
135.747
135.848
135.959
136.086
136.247
136.494
137.094
140.361
138.312
136.8
136.375
136.134
135.943
135.769
135.602
135.436
135.269
135.1
134.929
134.755
134.578
134.398
134.214
134.027
133.836
132.886
133.074
133.249
133.412
133.565
133.708
133.843
135.485
135.566
135.653
135.745
135.845
135.954
136.079
136.235
136.472
137.056
141.162
138.373
136.766
136.356
136.122
135.935
135.764
135.598
135.432
135.266
135.098
134.927
134.754
134.577
134.397
134.213
134.026
133.835
132.885
133.073
133.248
133.411
133.564
133.707
133.842
131.771
131.851
131.935
132.025
132.121
132.226
132.345
132.49
132.705
133.218
136.975
134.403
132.961
132.595
132.38
132.203
132.038
131.878
131.717
131.555
131.391
131.224
131.055
130.882
130.706
130.526
130.343
130.156
129.226
129.41
129.581
129.741
129.891
130.031
130.163
131.77
131.849
131.933
132.022
132.117
132.22
132.335
132.473
132.666
133.089
135.679
133.947
132.879
132.563
132.362
132.192
132.03
131.872
131.712
131.551
131.388
131.222
131.052
130.88
130.704
130.524
130.341
130.155
129.225
129.409
129.58
129.74
129.889
130.029
130.161
126.533
126.608
126.688
126.773
126.864
126.962
127.071
127.199
127.379
127.787
131.59
128.797
127.58
127.281
127.094
126.933
126.78
126.628
126.476
126.322
126.166
126.007
125.845
125.68
125.511
125.339
125.164
124.985
124.095
124.271
124.435
124.588
124.731
124.865
124.992
102.86
102.861
102.862
102.867
102.876
102.894
102.93
103.011
103.229
104.087
112.288
106.578
103.666
103.176
103.02
102.954
102.923
102.908
102.901
102.9
102.901
102.904
102.909
102.915
102.922
102.93
102.938
102.947
102.997
102.989
102.981
102.973
102.967
102.961
102.956
102.845
102.841
102.837
102.833
102.828
102.824
102.82
102.818
102.822
102.866
104.89
103.14
102.842
102.823
102.824
102.829
102.836
102.843
102.851
102.859
102.867
102.876
102.885
102.895
102.904
102.914
102.924
102.934
102.986
102.976
102.967
102.958
102.95
102.943
102.936
30.8255
30.953
31.0862
31.2249
31.3681
31.5137
31.6559
31.778
31.8189
31.4223
24.0677
29.6247
31.6123
31.7167
31.5868
31.3915
31.1687
30.9307
30.6824
30.4262
30.1633
29.8945
29.6201
29.3406
29.0561
28.7668
28.4729
28.1746
26.7017
26.9889
27.2569
27.5079
27.7434
27.9651
28.1742
82.1772
82.2061
82.238
82.2743
82.3169
82.3701
82.4428
82.557
82.7771
83.3315
85.0751
84.1568
83.0865
82.705
82.5226
82.4096
82.3256
82.2551
82.1916
82.1316
82.0734
82.016
81.9589
81.9015
81.8437
81.7852
81.726
81.6659
81.37
81.4289
81.4838
81.5352
81.5835
81.629
81.6721
82.1761
82.2047
82.2362
82.2717
82.3131
82.3639
82.4315
82.5325
82.7107
83.0992
84.0451
83.6033
82.9316
82.6497
82.4974
82.3958
82.3169
82.2491
82.1871
82.1281
82.0706
82.0137
81.9569
81.8998
81.8423
81.784
81.725
81.6651
81.3691
81.4279
81.4827
81.5339
81.582
81.6274
81.6703
81.3902
81.4181
81.4486
81.4828
81.5221
81.5699
81.6329
81.7272
81.8989
82.3014
83.3391
82.8514
82.1246
81.839
81.6924
81.5962
81.5212
81.4561
81.3961
81.3385
81.2821
81.226
81.1699
81.1133
81.0561
80.9981
80.9394
80.8797
80.5841
80.6427
80.6973
80.7484
80.7963
80.8415
80.8841
81.3896
81.4173
81.4476
81.4815
81.5205
81.5678
81.6304
81.7256
81.907
82.3849
84.1449
83.1746
82.1677
81.8441
81.6911
81.5939
81.519
81.4543
81.3946
81.3372
81.281
81.2251
81.169
81.1125
81.0553
80.9974
80.9387
80.879
80.5836
80.6422
80.6968
80.7479
80.7958
80.8409
80.8835
81.3884
81.4157
81.4455
81.4786
81.5162
81.5611
81.6184
81.7002
81.8375
82.1166
82.7364
82.4494
81.9967
81.7864
81.6649
81.5793
81.5096
81.4477
81.3896
81.3333
81.2778
81.2224
81.1668
81.1106
81.0537
80.996
80.9375
80.878
80.5826
80.641
80.6955
80.7463
80.7941
80.839
80.8814
80.4385
80.4654
80.4947
80.5269
80.5635
80.6069
80.6626
80.7447
80.8971
81.3017
82.8376
81.9973
81.115
80.8414
80.7102
80.6241
80.5554
80.4946
80.4375
80.382
80.3272
80.2723
80.2171
80.1613
80.1047
80.0473
79.989
79.9297
79.6351
79.6934
79.7477
79.7984
79.8459
79.8907
79.9329
80.4375
80.4641
80.4929
80.5246
80.5602
80.602
80.6547
80.7302
80.8644
81.1989
82.4506
81.7601
81.0454
80.8134
80.6955
80.6149
80.5491
80.49
80.4339
80.3791
80.3248
80.2703
80.2154
80.1598
80.1034
80.0461
79.9879
79.9288
79.6342
79.6925
79.7466
79.7973
79.8447
79.8893
79.9314
79.3083
79.3345
79.3627
79.3936
79.4281
79.4682
79.5181
79.5889
79.7149
80.0425
81.3299
80.6179
79.8898
79.6659
79.5545
79.4779
79.4147
79.3573
79.3025
79.2487
79.1951
79.1413
79.087
79.0319
78.976
78.9192
78.8614
78.8027
78.5103
78.5681
78.622
78.6722
78.7193
78.7636
78.8054
79.3074
79.3333
79.3611
79.3914
79.4251
79.4638
79.5114
79.5774
79.6931
79.9971
81.4396
80.5792
79.8533
79.6466
79.543
79.4703
79.4093
79.3532
79.2993
79.2461
79.193
79.1395
79.0854
79.0305
78.9748
78.9181
78.8605
78.8018
78.5095
78.5673
78.6211
78.6712
78.7183
78.7625
78.8041
77.9677
77.9932
78.0206
78.0502
78.083
78.1205
78.1659
78.228
78.3341
78.6028
79.6898
79.0787
78.4765
78.2903
78.1939
78.1247
78.0658
78.0112
77.9584
77.9061
77.8538
77.801
77.7476
77.6934
77.6383
77.5823
77.5252
77.4672
77.1781
77.2353
77.2885
77.3382
77.3847
77.4284
77.4696
77.9668
77.9921
78.0191
78.0482
78.0802
78.1164
78.1598
78.2179
78.3163
78.5802
80.1113
79.141
78.4524
78.2743
78.1838
78.1179
78.0609
78.0075
77.9555
77.9038
77.8519
77.7994
77.7462
77.6922
77.6372
77.5813
77.5243
77.4663
77.1774
77.2345
77.2877
77.3373
77.3837
77.4274
77.4685
76.3517
76.3766
76.4031
76.4317
76.463
76.4983
76.5402
76.5956
76.6867
76.9141
77.8959
77.3296
76.8058
76.6469
76.5619
76.4986
76.4432
76.391
76.3399
76.2891
76.238
76.1863
76.1339
76.0807
76.0265
75.9713
75.9152
75.858
75.5733
75.6297
75.6821
75.7311
75.7769
75.82
75.8605
76.3508
76.3754
76.4016
76.4296
76.4601
76.4941
76.5336
76.5846
76.6665
76.8803
78.324
77.3652
76.7749
76.6288
76.5509
76.4913
76.438
76.3871
76.3369
76.2867
76.236
76.1846
76.1325
76.0794
76.0253
75.9703
75.9142
75.8571
75.5726
75.6289
75.6813
75.7302
75.7759
75.8189
75.8594
74.3625
74.3866
74.4123
74.4398
74.4697
74.503
74.5417
74.5914
74.6703
74.8676
75.9096
75.2665
74.7716
74.6338
74.5583
74.5001
74.4479
74.398
74.3488
74.2996
74.2499
74.1995
74.1483
74.0962
74.0432
73.9892
73.9342
73.8781
73.5995
73.6548
73.7062
73.7541
73.799
73.8412
73.8809
74.3614
74.3853
74.4106
74.4375
74.4665
74.4983
74.5344
74.5788
74.645
74.806
76.0098
75.1781
74.7256
74.6118
74.5456
74.4918
74.4421
74.3937
74.3455
74.2969
74.2476
74.1976
74.1467
74.0948
74.0419
73.9881
73.9332
73.8772
73.5987
73.6539
73.7053
73.7531
73.7979
73.84
73.8796
71.8156
71.8387
71.8633
71.8895
71.9178
71.9489
71.9843
72.0284
72.0953
72.2618
73.4512
72.6461
72.1789
72.0624
71.9964
71.9434
71.8947
71.8475
71.8006
71.7534
71.7056
71.6571
71.6077
71.5574
71.5062
71.454
71.4008
71.3466
71.0775
71.131
71.1808
71.2272
71.2706
71.3114
71.3498
71.8144
71.8372
71.8613
71.8868
71.9141
71.9434
71.9757
72.0133
72.0637
72.1663
72.8506
72.3758
72.1146
72.035
71.9811
71.9336
71.8879
71.8424
71.7966
71.7502
71.703
71.6548
71.6058
71.5558
71.5047
71.4527
71.3996
71.3455
71.0766
71.13
71.1797
71.226
71.2693
71.31
71.3482
68.2996
68.3214
68.3443
68.3687
68.3948
68.4231
68.4545
68.4919
68.5443
68.665
69.8286
68.9691
68.6036
68.516
68.4614
68.4149
68.3708
68.3273
68.2836
68.2394
68.1944
68.1487
68.1021
68.0546
68.0061
67.9567
67.9064
67.855
67.6003
67.651
67.6981
67.7421
67.7832
67.8218
67.8582
55.3961
55.3808
55.3654
55.3504
55.3367
55.3263
55.3234
55.3401
55.4188
55.7926
59.4664
56.9217
55.6104
55.4107
55.3662
55.3643
55.379
55.4018
55.4293
55.4597
55.4923
55.5266
55.5623
55.5993
55.6374
55.6765
55.7166
55.7576
55.9674
55.9267
55.8891
55.8541
55.8214
55.7909
55.7624
55.3882
55.3706
55.3521
55.3325
55.3117
55.2894
55.2652
55.2379
55.2038
55.1484
55.6203
55.1169
55.1755
55.2246
55.2628
55.2981
55.3327
55.3674
55.4025
55.4382
55.4746
55.5117
55.5496
55.5882
55.6277
55.6679
55.7089
55.7507
55.9614
55.9202
55.8819
55.8462
55.8127
55.7814
55.7519
21.7108
21.7761
21.8443
21.9153
21.9887
22.0633
22.1361
22.1987
22.2199
22.0177
18.2647
21.1002
22.1145
22.1675
22.1008
22.0007
21.8866
21.7647
21.6375
21.5063
21.3717
21.234
21.0936
20.9504
20.8047
20.6566
20.5061
20.3533
19.5993
19.7464
19.8836
20.0121
20.1327
20.2463
20.3533
53.6707
53.6824
53.6953
53.71
53.7272
53.7487
53.7781
53.8242
53.9132
54.1385
54.8549
54.4759
54.0387
53.884
53.8102
53.7646
53.7306
53.7021
53.6764
53.6521
53.6285
53.6053
53.5821
53.5588
53.5354
53.5117
53.4877
53.4633
53.3429
53.3668
53.389
53.4099
53.4294
53.4479
53.4653
53.6697
53.6811
53.6936
53.7077
53.724
53.7438
53.7698
53.8084
53.8764
54.0271
54.4113
54.2294
53.9614
53.8526
53.7941
53.7549
53.7241
53.6974
53.6727
53.6492
53.6261
53.6033
53.5804
53.5574
53.5341
53.5106
53.4867
53.4625
53.3421
53.3659
53.3881
53.4088
53.4282
53.4465
53.4639
53.0413
53.0526
53.0651
53.0792
53.0955
53.1154
53.1418
53.1818
53.255
53.4255
53.852
53.6536
53.3511
53.23
53.1678
53.1273
53.0961
53.0693
53.0447
53.0212
52.9982
52.9754
52.9526
52.9297
52.9066
52.8831
52.8593
52.8352
52.7154
52.7391
52.7611
52.7817
52.8011
52.8194
52.8366
53.0405
53.0516
53.0638
53.0774
53.0931
53.112
53.137
53.175
53.2475
53.4397
54.1606
53.7609
53.3521
53.2223
53.1611
53.1222
53.0922
53.0663
53.0422
53.0192
52.9965
52.974
52.9514
52.9286
52.9056
52.8822
52.8585
52.8345
52.7147
52.7384
52.7604
52.781
52.8003
52.8185
52.8356
53.0394
53.0503
53.062
53.075
53.0897
53.1069
53.1285
53.1588
53.2087
53.3106
53.5501
53.4364
53.2662
53.1894
53.1445
53.1122
53.0854
53.0613
53.0384
53.0161
52.994
52.9719
52.9496
52.9271
52.9042
52.8811
52.8575
52.8336
52.7139
52.7375
52.7593
52.7798
52.799
52.817
52.8341
52.3035
52.3143
52.3261
52.3392
52.354
52.3717
52.3945
52.4284
52.4914
52.6585
53.284
52.9429
52.5817
52.4686
52.4145
52.3792
52.3512
52.3266
52.3035
52.2811
52.2589
52.2368
52.2146
52.1921
52.1694
52.1463
52.1229
52.099
51.9803
52.0037
52.0256
52.0459
52.065
52.083
52.1
52.3025
52.3131
52.3245
52.337
52.351
52.3673
52.3876
52.4162
52.4665
52.5935
53.0979
52.815
52.5346
52.4469
52.4022
52.3712
52.3456
52.3224
52.3002
52.2784
52.2568
52.235
52.213
52.1908
52.1682
52.1452
52.1219
52.0982
51.9796
52.0029
52.0246
52.0449
52.0639
52.0818
52.0987
51.4446
51.4552
51.4666
51.4791
51.4931
51.5095
51.5301
51.5598
51.6132
51.7522
52.2808
51.9915
51.6878
51.5929
51.5461
51.5143
51.4884
51.4651
51.4429
51.4213
51.3997
51.3781
51.3563
51.3343
51.3119
51.2891
51.266
51.2425
51.1252
51.1484
51.1699
51.19
51.2088
51.2266
51.2433
51.4437
51.454
51.4651
51.477
51.4903
51.5054
51.5238
51.549
51.5927
51.7082
52.2896
51.9375
51.653
51.5747
51.5352
51.5072
51.4833
51.4613
51.4399
51.4188
51.3977
51.3764
51.3549
51.333
51.3108
51.2881
51.2651
51.2417
51.1245
51.1476
51.169
51.1891
51.2078
51.2255
51.2421
50.4354
50.4457
50.4567
50.4686
50.482
50.4973
50.5162
50.5425
50.5886
50.7066
51.1644
50.9115
50.6515
50.5702
50.529
50.5001
50.476
50.4538
50.4325
50.4116
50.3906
50.3695
50.3482
50.3266
50.3047
50.2824
50.2597
50.2366
50.1215
50.1442
50.1654
50.1851
50.2036
50.221
50.2374
50.4346
50.4446
50.4553
50.4668
50.4794
50.4935
50.5104
50.5328
50.5703
50.6711
51.2886
50.8919
50.6219
50.554
50.5192
50.4936
50.4713
50.4503
50.4298
50.4094
50.3888
50.368
50.3469
50.3255
50.3037
50.2815
50.2589
50.2358
50.1208
50.1435
50.1646
50.1843
50.2027
50.22
50.2363
49.222
49.2319
49.2425
49.254
49.2667
49.2811
49.2985
49.3222
49.3625
49.4656
49.8941
49.6521
49.4168
49.3457
49.3089
49.2824
49.2597
49.2386
49.2182
49.1979
49.1776
49.1571
49.1363
49.1152
49.0938
49.072
49.0498
49.0272
48.9147
48.937
48.9577
48.977
48.9951
49.0122
49.0282
49.2212
49.2309
49.2411
49.2521
49.2641
49.2773
49.2926
49.3121
49.343
49.4235
50.0026
49.6119
49.3835
49.3285
49.2988
49.2758
49.255
49.2351
49.2154
49.1957
49.1758
49.1555
49.135
49.1141
49.0928
49.0711
49.0489
49.0264
48.9141
48.9363
48.9569
48.9762
48.9943
49.0112
49.0271
47.727
47.7365
47.7467
47.7576
47.7696
47.7831
47.799
47.8201
47.855
47.9456
48.4063
48.128
47.9018
47.8397
47.8072
47.7831
47.7619
47.7419
47.7224
47.7029
47.6833
47.6635
47.6434
47.6229
47.6022
47.581
47.5594
47.5375
47.4287
47.4503
47.4705
47.4893
47.5069
47.5234
47.539
47.7261
47.7354
47.7452
47.7557
47.7669
47.7791
47.7928
47.8093
47.8332
47.8897
48.3603
48.0262
47.8611
47.8207
47.7963
47.776
47.7569
47.7382
47.7195
47.7006
47.6814
47.6619
47.642
47.6217
47.6011
47.58
47.5586
47.5367
47.428
47.4496
47.4697
47.4884
47.5059
47.5224
47.5378
45.8199
45.8289
45.8384
45.8487
45.8598
45.8721
45.8864
45.9046
45.9333
46.0079
46.5252
46.1804
45.971
45.9199
45.8922
45.8708
45.8515
45.8329
45.8146
45.7962
45.7776
45.7588
45.7396
45.7201
45.7003
45.6801
45.6595
45.6385
45.5349
45.5556
45.5749
45.5929
45.6097
45.6255
45.6404
45.8189
45.8277
45.8369
45.8466
45.8568
45.8678
45.8795
45.8925
45.9082
45.9351
46.1546
45.9904
45.9211
45.8981
45.8801
45.863
45.846
45.8288
45.8114
45.7936
45.7755
45.757
45.7381
45.7188
45.6991
45.679
45.6585
45.6377
45.5342
45.5549
45.5741
45.592
45.6087
45.6244
45.6392
43.3567
43.3655
43.3748
43.3847
43.3952
43.4066
43.4192
43.4341
43.4545
43.5004
43.9467
43.615
43.477
43.4432
43.4217
43.4031
43.3854
43.3678
43.3501
43.3322
43.314
43.2954
43.2765
43.2572
43.2376
43.2175
43.1971
43.1762
43.0737
43.0943
43.1135
43.1313
43.148
43.1637
43.1785
35.9398
35.9278
35.9155
35.9033
35.8915
35.8812
35.8747
35.8783
35.9145
36.1068
38.0258
36.6999
36.0134
35.9143
35.8977
35.9039
35.9191
35.9387
35.961
35.9851
36.0105
36.0369
36.0643
36.0926
36.1216
36.1513
36.1818
36.213
36.3715
36.3407
36.3121
36.2856
36.2608
36.2376
36.2158
35.9354
35.9221
35.9081
35.8932
35.8774
35.8605
35.842
35.821
35.794
35.7459
35.8817
35.6904
35.7697
35.81
35.8397
35.8668
35.8931
35.9194
35.946
35.973
36.0005
36.0286
36.0572
36.0864
36.1162
36.1465
36.1775
36.2091
36.3681
36.337
36.3081
36.2811
36.2559
36.2322
36.21
17.9839
18.0201
18.058
18.0973
18.138
18.1793
18.2197
18.2545
18.2663
18.1544
16.078
17.6466
18.208
18.2372
18.2002
18.1447
18.0814
18.0138
17.9433
17.8706
17.796
17.7197
17.6418
17.5624
17.4817
17.3996
17.3161
17.2314
16.8136
16.8952
16.9713
17.0425
17.1094
17.1723
17.2317
38.0075
38.0132
38.0195
38.0266
38.035
38.0454
38.0597
38.0821
38.1254
38.2356
38.5918
38.4022
38.1867
38.1111
38.0753
38.0531
38.0365
38.0227
38.0101
37.9983
37.9868
37.9755
37.9642
37.9528
37.9414
37.9298
37.9181
37.9062
37.8471
37.8588
37.8696
37.8798
37.8893
37.8983
37.9069
38.0066
38.0121
38.0181
38.0247
38.0323
38.0415
38.0534