/*--------------------------------*- C++ -*----------------------------------*\
  =========                 |
  \\      /  F ield         | OpenFOAM: The Open Source CFD Toolbox
   \\    /   O peration     | Website:  https://openfoam.org
    \\  /    A nd           | Version:  6
     \\/     M anipulation  |
\*---------------------------------------------------------------------------*/
FoamFile
{
    version     2.0;
    format      ascii;
    class       volScalarField;
    location    "0";
    object      yPlus;
}
// * * * * * * * * * * * * * * * * * * * * * * * * * * * * * * * * * * * * * //

dimensions      [0 0 0 0 0 0 0];

internalField   uniform 0;

boundaryField
{
    inlet
    {
        type            calculated;
        value           uniform 0;
    }
    outlet
    {
        type            calculated;
        value           uniform 0;
    }
    roughCylinder
    {
        type            calculated;
        value           nonuniform List<scalar> 
3840
(
28.0876
31.426
33.8781
34.3724
34.4541
34.3955
34.2599
34.0659
33.8184
33.5157
33.1533
32.7241
32.2185
31.6254
30.9318
30.124
29.1889
28.1169
26.9068
25.5753
24.1705
22.7907
21.6051
20.9314
27.7206
30.9594
33.3874
33.8764
33.9572
33.8996
33.766
33.5749
33.3309
33.0326
32.6754
32.2524
31.7541
31.1695
30.4859
29.6898
28.7683
27.7118
26.5193
25.2072
23.823
22.4634
21.295
20.6313
27.3691
30.5094
32.9148
33.3987
33.4788
33.422
33.2904
33.1021
32.8614
32.5674
32.2152
31.798
31.3068
30.7305
30.0565
29.2717
28.3632
27.3217
26.1462
24.8529
23.4885
22.1483
20.9964
20.342
27.0341
30.0773
32.4612
32.9406
33.02
32.9641
32.8343
32.6485
32.4112
32.1212
31.7738
31.3623
30.8778
30.3094
29.6447
28.8707
27.9747
26.9476
25.7885
24.5131
23.1678
21.8461
20.71
20.0644
26.7168
29.664
32.0282
32.503
32.5818
32.5268
32.3987
32.2154
31.9812
31.6951
31.3524
30.9463
30.4683
29.9074
29.2516
28.4878
27.6039
26.5905
25.447
24.1889
22.8617
21.5578
20.4366
19.7991
26.4181
29.2705
31.6166
32.0872
32.1655
32.1112
31.9849
31.804
31.5728
31.2903
30.952
30.5512
30.0791
29.5254
28.878
28.1241
27.2516
26.2514
25.1227
23.8809
22.571
21.284
20.1768
19.5467
26.1392
28.8976
31.2275
31.6944
31.772
31.7187
31.5939
31.4152
31.1868
30.9078
30.5736
30.1777
29.7114
29.1645
28.5251
27.7805
26.9188
25.931
24.8163
23.5902
22.2965
21.0253
19.9314
19.3078
25.8809
28.5464
30.8618
31.3254
31.4026
31.3499
31.2266
31.0501
30.8244
30.5485
30.2182
29.8269
29.3662
28.8257
28.1937
27.4579
26.6063
25.6302
24.5289
23.3173
22.039
20.7826
19.7009
19.0829
25.6442
28.2176
30.5205
30.9811
31.0579
31.006
30.8841
30.7095
30.4863
30.2134
29.8868
29.4998
29.0442
28.5096
27.8847
27.157
26.315
25.3499
24.2609
23.063
21.799
20.5564
19.4859
18.8724
25.4299
27.9118
30.2044
30.6626
30.739
30.6877
30.5672
30.3943
30.1734
29.9035
29.5802
29.1972
28.7461
28.2172
27.5987
26.8787
26.0455
25.0907
24.0133
22.8281
21.5773
20.3472
19.2868
18.6769
25.2388
27.63
29.9145
30.3703
30.4466
30.3959
30.2764
30.1053
29.8865
29.6192
29.299
28.9197
28.4731
27.9491
27.3367
26.6237
25.7987
24.8533
23.7866
22.6131
21.3743
20.1555
19.104
18.4964
25.0715
27.3726
29.6511
30.1053
30.1813
30.1312
30.013
29.8433
29.6265
29.3614
29.044
28.668
28.2254
27.7062
27.0992
26.3927
25.5752
24.6385
23.5815
22.4185
21.1906
19.9818
18.9379
18.3313
24.9285
27.1404
29.4151
29.8682
29.9441
29.8946
29.7771
29.6088
29.3938
29.1308
28.8159
28.443
28.004
27.489
26.887
26.1863
25.3757
24.4468
23.3986
22.2451
21.0266
19.8264
18.7888
18.1817
24.8103
26.9337
29.2071
29.6593
29.7352
29.6861
29.5696
29.4027
29.189
28.928
28.6153
28.2451
27.8092
27.298
26.7005
26.0051
25.2006
24.2787
23.2384
22.093
20.8826
19.6894
18.6568
18.0476
24.7168
26.7534
29.0276
29.4794
29.5554
29.5067
29.3911
29.225
29.0128
28.7533
28.4427
28.0748
27.6418
27.134
26.5404
25.8497
25.0506
24.1349
23.1012
21.9627
20.7588
19.5711
18.5418
17.9291
24.6476
26.5998
28.877
29.3289
29.4049
29.3568
29.2418
29.0767
28.8656
28.6074
28.2986
27.9327
27.502
26.9972
26.4072
25.7205
24.9261
24.0156
22.9873
21.8542
20.6552
19.4712
18.4439
17.8261
24.6015
26.4739
28.7557
29.2081
29.2843
29.2365
29.122
28.9576
28.7475
28.4906
28.1831
27.8191
27.3906
26.8882
26.3012
25.618
24.8274
23.9209
22.8967
21.7675
20.5716
19.3897
18.3631
17.739
24.5758
26.3766
28.6643
29.1173
29.1937
29.1462
29.0322
28.8685
28.659
28.4032
28.0969
27.7343
27.3074
26.8072
26.2226
25.5421
24.7544
23.8507
22.8293
21.7023
20.508
19.3267
18.2996
17.6685
24.5654
26.3096
28.6029
29.0567
29.1334
29.086
28.9724
28.8091
28.6003
28.3452
28.0398
27.6783
27.2529
26.7541
26.1712
25.4925
24.7065
23.8045
22.7844
21.6583
20.4643
19.2827
18.2544
17.617
24.563
26.2751
28.572
29.0264
29.1032
29.056
28.9426
28.7796
28.5712
28.3164
28.0116
27.6507
27.226
26.7282
26.1461
25.4682
24.683
23.7816
22.7619
21.6359
20.4418
19.2596
18.2304
17.5888
24.563
26.2751
28.572
29.0264
29.1032
29.056
28.9426
28.7796
28.5712
28.3164
28.0116
27.6507
27.226
26.7282
26.1461
25.4682
24.683
23.7816
22.7619
21.6359
20.4418
19.2596
18.2304
17.5888
24.5654
26.3096
28.6029
29.0567
29.1334
29.086
28.9724
28.8091
28.6003
28.3452
28.0398
27.6783
27.2529
26.7541
26.1712
25.4925
24.7065
23.8045
22.7844
21.6583
20.4643
19.2827
18.2544
17.617
24.5758
26.3766
28.6643
29.1173
29.1937
29.1462
29.0322
28.8685
28.659
28.4032
28.0969
27.7343
27.3074
26.8072
26.2226
25.5421
24.7544
23.8507
22.8293
21.7023
20.508
19.3267
18.2996
17.6685
24.6015
26.4739
28.7557
29.2081
29.2843
29.2365
29.122
28.9576
28.7475
28.4906
28.1831
27.8191
27.3906
26.8882
26.3012
25.618
24.8274
23.9209
22.8967
21.7675
20.5716
19.3897
18.3631
17.739
24.6476
26.5998
28.877
29.3289
29.4049
29.3568
29.2418
29.0767
28.8656
28.6074
28.2986
27.9327
27.502
26.9972
26.4072
25.7205
24.9261
24.0156
22.9873
21.8542
20.6552
19.4712
18.4439
17.8261
24.7168
26.7534
29.0276
29.4794
29.5554
29.5067
29.3911
29.225
29.0128
28.7533
28.4427
28.0748
27.6418
27.134
26.5404
25.8497
25.0506
24.1349
23.1012
21.9627
20.7588
19.5711
18.5418
17.9291
24.8103
26.9337
29.2071
29.6593
29.7352
29.6861
29.5696
29.4027
29.189
28.928
28.6153
28.2451
27.8092
27.298
26.7005
26.0051
25.2006
24.2787
23.2384
22.093
20.8826
19.6894
18.6568
18.0476
24.9285
27.1404
29.4151
29.8682
29.9441
29.8946
29.7771
29.6088
29.3938
29.1308
28.8159
28.443
28.004
27.489
26.887
26.1863
25.3757
24.4468
23.3986
22.2451
21.0266
19.8264
18.7888
18.1817
25.0715
27.3726
29.6511
30.1053
30.1813
30.1312
30.013
29.8433
29.6265
29.3614
29.044
28.668
28.2254
27.7062
27.0992
26.3927
25.5752
24.6385
23.5815
22.4185
21.1906
19.9818
18.9379
18.3313
25.2388
27.63
29.9145
30.3703
30.4466
30.3959
30.2764
30.1053
29.8865
29.6192
29.299
28.9197
28.4731
27.9491
27.3367
26.6237
25.7987
24.8533
23.7866
22.6131
21.3743
20.1555
19.104
18.4964
25.4299
27.9118
30.2044
30.6626
30.739
30.6877
30.5672
30.3943
30.1734
29.9035
29.5802
29.1972
28.7461
28.2172
27.5987
26.8787
26.0455
25.0907
24.0133
22.8281
21.5773
20.3472
19.2868
18.6769
25.6442
28.2176
30.5205
30.9811
31.0579
31.006
30.8841
30.7095
30.4863
30.2134
29.8868
29.4998
29.0442
28.5096
27.8847
27.157
26.315
25.3499
24.2609
23.063
21.799
20.5564
19.4859
18.8724
25.8809
28.5464
30.8618
31.3254
31.4026
31.3499
31.2266
31.0501
30.8244
30.5485
30.2182
29.8269
29.3662
28.8257
28.1937
27.4579
26.6063
25.6302
24.5289
23.3173
22.039
20.7826
19.7009
19.0829
26.1392
28.8976
31.2275
31.6944
31.772
31.7187
31.5939
31.4152
31.1868
30.9078
30.5736
30.1777
29.7114
29.1645
28.5251
27.7805
26.9188
25.931
24.8163
23.5902
22.2965
21.0253
19.9314
19.3078
26.4181
29.2704
31.6166
32.0872
32.1655
32.1112
31.9849
31.804
31.5728
31.2903
30.952
30.5512
30.0791
29.5254
28.878
28.1241
27.2516
26.2514
25.1227
23.8809
22.571
21.2839
20.1768
19.5467
26.7168
29.664
32.0282
32.503
32.5818
32.5268
32.3987
32.2154
31.9812
31.6951
31.3524
30.9463
30.4683
29.9074
29.2516
28.4878
27.6039
26.5905
25.447
24.1889
22.8617
21.5578
20.4366
19.7991
27.0341
30.0773
32.4612
32.9406
33.02
32.9641
32.8343
32.6485
32.4112
32.1212
31.7738
31.3623
30.8778
30.3094
29.6447
28.8707
27.9747
26.9476
25.7884
24.5131
23.1678
21.8461
20.71
20.0644
27.3691
30.5094
32.9148
33.3987
33.4788
33.422
33.2904
33.1021
32.8614
32.5674
32.2152
31.798
31.3068
30.7305
30.0565
29.2717
28.3632
27.3217
26.1462
24.8529
23.4885
22.1483
20.9964
20.342
27.7206
30.9594
33.3874
33.8764
33.9572
33.8996
33.766
33.5749
33.3309
33.0326
32.6754
32.2524
31.7541
31.1695
30.4859
29.6898
28.7683
27.7118
26.5193
25.2072
23.823
22.4634
21.295
20.6313
28.0876
31.426
33.8781
34.3724
34.4541
34.3955
34.2599
34.0659
33.8184
33.5157
33.1533
32.7241
32.2185
31.6254
30.9318
30.124
29.1889
28.1169
26.9068
25.5753
24.1705
22.7907
21.6051
20.9314
28.0509
27.6115
27.189
26.7843
26.3983
26.0316
25.6848
25.3587
25.0538
24.7707
24.5099
24.2718
24.0569
23.8654
23.6978
23.5542
23.4348
23.3397
23.2691
23.2229
23.2227
23.2689
23.3395
23.4346
23.554
23.6976
23.8652
24.0567
24.2716
24.5097
24.7705
25.0536
25.3584
25.6846
26.0313
26.3981
26.7841
27.1887
27.6112
28.0507
31.4391
30.9982
30.5734
30.1658
29.7767
29.407
29.0578
28.73
28.4246
28.1423
27.8841
27.6505
27.4422
27.2598
27.1038
26.9747
26.8729
26.7986
26.7522
26.7338
26.7338
26.7522
26.7986
26.8729
26.9747
27.1037
27.2597
27.4421
27.6504
27.884
28.1423
28.4245
28.7299
29.0577
29.4069
29.7766
30.1658
30.5733
30.9981
31.4391
33.8802
33.3935
32.9248
32.4751
32.0458
31.6378
31.2523
30.8903
30.5525
30.2401
29.9535
29.6938
29.4614
29.257
29.081
28.934
28.8163
28.7282
28.6701
28.6418
28.6418
28.6699
28.7282
28.8163
28.934
29.081
29.2569
29.4614
29.6937
29.9535
30.24
30.5525
30.8903
31.2523
31.6378
32.0457
32.4751
32.9247
33.3935
33.8802
34.3727
33.8771
33.3999
32.9421
32.5049
32.0897
31.6972
31.3284
30.9845
30.6662
30.3743
30.1096
29.8726
29.6641
29.4843
29.334
29.2134
29.1228
29.0625
29.0325
29.0325
29.0625
29.1228
29.2134
29.334
29.4843
29.6639
29.8726
30.1096
30.3743
30.6662
30.9845
31.3284
31.6971
32.0897
32.5049
32.9421
33.3999
33.8771
34.3727
34.4539
33.957
33.4781
33.019
32.5805
32.1639
31.7703
31.4004
31.0554
30.7361
30.4433
30.1776
29.9398
29.7306
29.5501
29.3993
29.2781
29.1871
29.1264
29.0961
29.096
29.1262
29.187
29.278
29.3993
29.5501
29.7304
29.9398
30.1776
30.4433
30.7361
31.0554
31.4004
31.7702
32.1639
32.5805
33.019
33.4781
33.9568
34.4539
34.3952
33.8989
33.4209
32.9624
32.5246
32.1087
31.7154
31.3462
31.0017
30.6829
30.3905
30.1253
29.8877
29.6787
29.4986
29.3479
29.2269
29.1359
29.0752
29.0449
29.0449
29.0751
29.1359
29.2269
29.3479
29.4986
29.6787
29.8877
30.1251
30.3905
30.6828
31.0017
31.3462
31.7154
32.1085
32.5246
32.9624
33.4209
33.8989
34.3952
34.2596
33.7651
33.289
32.8323
32.3962
31.9818
31.5903
31.2223
30.8792
30.5616
30.2704
30.0061
29.7695
29.5613
29.382
29.2317
29.1111
29.0205
28.9601
28.9299
28.9299
28.96
29.0205
29.1111
29.2317
29.3818
29.5613
29.7695
30.0061
30.2703
30.5616
30.8792
31.2223
31.5903
31.9818
32.3962
32.8323
33.289
33.7651
34.2596
34.0657
33.5741
33.1006
32.6464
32.2128
31.8008
31.4114
31.0457
30.7043
30.3885
30.099
29.8362
29.6009
29.3939
29.2155
29.0662
28.9463
28.8562
28.796
28.7659
28.7659
28.796
28.8562
28.9463
29.0662
29.2155
29.3938
29.6009
29.8362
30.0988
30.3885
30.7043
31.0455
31.4114
31.8007
32.2128
32.6464
33.1005
33.5741
34.0656
33.8181
33.33
32.86
32.4092
31.9787
31.5696
31.1832
30.82
30.4812
30.1677
29.8802
29.6193
29.3859
29.1803
29.0032
28.855
28.736
28.6465
28.5868
28.557
28.557
28.5868
28.6464
28.7359
28.855
29.0032
29.1803
29.3859
29.6193
29.8802
30.1677
30.4812
30.82
31.183
31.5696
31.9787
32.4092
32.86
33.33
33.8181
33.5154
33.0319
32.5659
32.1192
31.6925
31.2871
30.9041
30.5443
30.2086
29.8979
29.6129
29.3543
29.1229
28.9192
28.7438
28.5969
28.479
28.3903
28.3311
28.3015
28.3015
28.331
28.3902
28.4788
28.5967
28.7436
28.9192
29.1229
29.3543
29.6128
29.8977
30.2085
30.5441
30.9041
31.2871
31.6925
32.1192
32.5659
33.0317
33.5154
33.153
32.6747
32.2139
31.772
31.3499
30.9489
30.57
30.2141
29.8819
29.5747
29.2928
29.037
28.8082
28.6066
28.433
28.2878
28.1711
28.0834
28.0249
27.9957
27.9956
28.0249
28.0834
28.1711
28.2878
28.433
28.6066
28.8081
29.037
29.2926
29.5745
29.8819
30.214
30.5699
30.9489
31.3499
31.7718
32.2138
32.6747
33.153
32.7238
32.2516
31.7968
31.3606
30.944
30.5482
30.1742
29.8229
29.4951
29.1917
28.9135
28.6612
28.4352
28.2364
28.065
27.9216
27.8065
27.7199
27.6623
27.6334
27.6334
27.6621
27.7199
27.8065
27.9216
28.065
28.2364
28.4352
28.6612
28.9135
29.1917
29.4951
29.8229
30.1742
30.5482
30.944
31.3604
31.7967
32.2516
32.7238
32.2182
31.7533
31.3056
30.8761
30.4659
30.0763
29.7081
29.3622
29.0396
28.7409
28.467
28.2185
27.9961
27.8004
27.6317
27.4905
27.3772
27.2919
27.235
27.2068
27.2068
27.235
27.2919
27.3772
27.4904
27.6316
27.8002
27.9961
28.2185
28.4669
28.7409
29.0396
29.3621
29.7081
30.0763
30.4659
30.8761
31.3056
31.7533
32.2182
31.6251
31.1688
30.7292
30.3076
29.9052
29.5228
29.1612
28.8217
28.5051
28.2119
27.9431
27.6991
27.4809
27.2887
27.1231
26.9845
26.8733
26.7898
26.7339
26.7062
26.7062
26.7339
26.7896
26.8733
26.9845
27.1231
27.2887
27.4809
27.6991
27.9429
28.2119
28.5049
28.8217
29.1612
29.5226
29.9052
30.3076
30.7292
31.1688
31.6251
30.9316
30.4852
30.0553
29.643
29.2493
28.8752
28.5217
28.1897
27.8799
27.5932
27.3303
27.0918
26.8783
26.6903
26.5284
26.3929
26.2841
26.2024
26.1478
26.1207
26.1206
26.1478
26.2023
26.2841
26.3929
26.5284
26.6903
26.8782
27.0917
27.3302
27.5932
27.8799
28.1896
28.5217
28.8752
29.2493
29.643
30.0553
30.4852
30.9315
30.1238
29.6891
29.2704
28.8688
28.4854
28.1211
27.7768
27.4535
27.1518
26.8726
26.6165
26.3842
26.1763
25.9933
25.8356
25.7037
25.5977
25.5181
25.465
25.4386
25.4385
25.465
25.5181
25.5977
25.7036
25.8356
25.9933
26.1763
26.3842
26.6165
26.8725
27.1517
27.4534
27.7768
28.1211
28.4854
28.8688
29.2704
29.689
30.1237
29.1887
28.7674
28.3617
27.9726
27.601
27.248
26.9144
26.601
26.3087
26.0382
25.79
25.565
25.3635
25.1862
25.0334
24.9055
24.8029
24.7258
24.6743
24.6487
24.6487
24.6743
24.7257
24.8029
24.9055
25.0334
25.1861
25.3635
25.5649
25.79
26.0381
26.3087
26.601
26.9144
27.248
27.601
27.9725
28.3617
28.7674
29.1886
28.1165
27.7106
27.3197
26.9448
26.5869
26.2468
25.9254
25.6235
25.3419
25.0812
24.8422
24.6254
24.4313
24.2605
24.1133
23.9901
23.8912
23.8169
23.7673
23.7426
23.7426
23.7673
23.8168
23.8912
23.99
24.1132
24.2604
24.4313
24.6253
24.8422
25.0812
25.3419
25.6235
25.9254
26.2468
26.5869
26.9448
27.3197
27.7106
28.1165
26.9062
26.5177
26.1435
25.7846
25.442
25.1164
24.8087
24.5198
24.2502
24.0007
23.7719
23.5643
23.3785
23.215
23.0741
22.9561
22.8615
22.7903
22.7428
22.7191
22.7191
22.7428
22.7903
22.8614
22.9561
23.0741
23.215
23.3785
23.5643
23.7719
24.0007
24.2502
24.5197
24.8087
25.1164
25.4419
25.7846
26.1435
26.5176
26.9062
25.5745
25.2049
24.849
24.5077
24.1819
23.8723
23.5797
23.3049
23.0485
22.8112
22.5936
22.3962
22.2195
22.0639
21.9299
21.8177
21.7276
21.6598
21.6146
21.5919
21.5919
21.6146
21.6598
21.7276
21.8177
21.9299
22.0639
22.2195
22.3962
22.5936
22.8112
23.0485
23.3049
23.5797
23.8723
24.1819
24.5077
24.849
25.2049
25.5745
24.1694
23.8198
23.4832
23.1604
22.8522
22.5593
22.2826
22.0226
21.7802
21.5557
21.3499
21.1631
20.9959
20.8487
20.7219
20.6156
20.5303
20.4661
20.4231
20.4016
20.4016
20.4231
20.4661
20.5303
20.6156
20.7219
20.8487
20.996
21.1631
21.3499
21.5557
21.7802
22.0227
22.2826
22.5593
22.8522
23.1604
23.4832
23.8199
24.1694
22.7893
22.4594
22.1416
21.8369
21.546
21.2696
21.0083
20.7629
20.534
20.3221
20.1277
19.9514
19.7935
19.6544
19.5345
19.4341
19.3534
19.2925
19.2517
19.2311
19.2311
19.2518
19.2926
19.3534
19.4341
19.5346
19.6544
19.7935
19.9514
20.1278
20.3221
20.534
20.763
21.0084
21.2696
21.546
21.837
22.1417
22.4594
22.7894
21.6035
21.2905
20.9891
20.6999
20.4239
20.1615
19.9136
19.6807
19.4633
19.2621
19.0776
18.9101
18.7601
18.6279
18.5139
18.4184
18.3415
18.2835
18.2444
18.2245
18.2246
18.2445
18.2835
18.3415
18.4184
18.514
18.628
18.7601
18.9101
19.0776
19.2622
19.4634
19.6807
19.9137
20.1616
20.4239
20.7
20.9891
21.2906
21.6036
20.9295
20.6257
20.333
20.0522
19.7839
19.5289
19.2879
19.0613
18.8499
18.654
18.4743
18.3111
18.1648
18.0357
17.9243
17.8307
17.7552
17.6979
17.659
17.6385
17.6386
17.659
17.6979
17.7552
17.8308
17.9243
18.0358
18.1648
18.3111
18.4744
18.6541
18.85
19.0614
19.288
19.529
19.784
20.0522
20.3331
20.6258
20.9296
28.0878
31.4261
33.8783
34.3724
34.4541
34.3955
34.2599
34.066
33.8184
33.5157
33.1533
32.7241
32.2185
31.6254
30.9318
30.1241
29.189
28.1169
26.9068
25.5753
24.1705
22.7906
21.605
20.9313
27.7209
30.9594
33.3874
33.8764
33.9574
33.8996
33.766
33.5749
33.3309
33.0326
32.6756
32.2524
31.7541
31.1695
30.486
29.6899
28.7683
27.7118
26.5193
25.2072
23.823
22.4634
21.2949
20.6312
27.3693
30.5095
32.9148
33.3987
33.4788
33.422
33.2904
33.1021
32.8614
32.5674
32.2152
31.798
31.3068
30.7305
30.0566
29.2717
28.3633
27.3217
26.1462
24.8529
23.4885
22.1482
20.9963
20.3419
27.0343
30.0774
32.4614
32.9406
33.02
32.9641
32.8343
32.6485
32.4112
32.1212
31.7738
31.3623
30.8778
30.3094
29.6448
28.8707
27.9748
26.9477
25.7885
24.5131
23.1677
21.8461
20.7099
20.0643
26.717
29.664
32.0282
32.503
32.5818
32.5268
32.3987
32.2154
31.9814
31.6951
31.3524
30.9463
30.4683
29.9074
29.2516
28.4879
27.6039
26.5906
25.447
24.1889
22.8616
21.5577
20.4365
19.799
26.4183
29.2705
31.6166
32.0872
32.1655
32.1114
31.9849
31.804
31.5728
31.2903
30.952
30.5512
30.0792
29.5254
28.8781
28.1242
27.2516
26.2514
25.1227
23.8809
22.571
21.2839
20.1768
19.5466
26.1394
28.8977
31.2275
31.6944
31.7722
31.7187
31.5939
31.4152
31.1868
30.9078
30.5736
30.1777
29.7116
29.1645
28.5252
27.7806
26.9188
25.931
24.8164
23.5902
22.2965
21.0253
19.9313
19.3077
25.8811
28.5465
30.8618
31.3254
31.4026
31.35
31.2266
31.0501
30.8244
30.5486
30.2182
29.8269
29.3662
28.8257
28.1938
27.4579
26.6063
25.6303
24.5289
23.3173
22.039
20.7826
19.7008
19.0828
25.6444
28.2176
30.5206
30.9811
31.0579
31.006
30.8841
30.7095
30.4863
30.2136
29.8868
29.4998
29.0442
28.5096
27.8847
27.157
26.315
25.3499
24.261
23.063
21.799
20.5563
19.4858
18.8724
25.4301
27.9119
30.2044
30.6626
30.739
30.6877
30.5672
30.3943
30.1735
29.9035
29.5802
29.1972
28.7462
28.2172
27.5988
26.8787
26.0456
25.0907
24.0133
22.8281
21.5773
20.3471
19.2867
18.6768
25.239
27.63
29.9145
30.3704
30.4466
30.396
30.2766
30.1053
29.8867
29.6192
29.299
28.9197
28.4731
27.9492
27.3367
26.6238
25.7988
24.8534
23.7866
22.6131
21.3743
20.1555
19.1039
18.4963
25.0716
27.3727
29.6511
30.1054
30.1814
30.1312
30.013
29.8434
29.6265
29.3615
29.044
28.6681
28.2254
27.7062
27.0993
26.3928
25.5753
24.6385
23.5816
22.4185
21.1906
19.9818
18.9379
18.3312
24.9287
27.1404
29.4151
29.8682
29.9441
29.8946
29.7771
29.6088
29.3938
29.1309
28.8159
28.443
28.004
27.489
26.887
26.1864
25.3757
24.4468
23.3986
22.245
21.0266
19.8263
18.7887
18.1816
24.8104
26.9338
29.2071
29.6593
29.7352
29.6861
29.5698
29.4027
29.189
28.928
28.6153
28.2451
27.8092
27.298
26.7006
26.0052
25.2007
24.2788
23.2384
22.093
20.8826
19.6894
18.6567
18.0475
24.7169
26.7534
29.0276
29.4794
29.5554
29.5067
29.3911
29.225
29.0128
28.7535
28.4427
28.0748
27.6418
27.134
26.5405
25.8497
25.0507
24.1349
23.1012
21.9627
20.7588
19.571
18.5417
17.929
24.6477
26.5999
28.877
29.3289
29.4049
29.3568
29.2418
29.0767
28.8656
28.6076
28.2986
27.9327
27.502
26.9972
26.4072
25.7206
24.9262
24.0156
22.9873
21.8542
20.6552
19.4712
18.4439
17.8261
24.6016
26.4739
28.7557
29.2081
29.2843
29.2365
29.122
28.9576
28.7475
28.4906
28.1831
27.8191
27.3906
26.8882
26.3012
25.618
24.8274
23.9209
22.8968
21.7675
20.5716
19.3897
18.363
17.7389
24.5759
26.3766
28.6643
29.1173
29.1937
29.1462
29.0322
28.8685
28.659
28.4032
28.0969
27.7343
27.3075
26.8073
26.2226
25.5421
24.7544
23.8508
22.8293
21.7023
20.5079
19.3267
18.2995
17.6684
24.5654
26.3096
28.6029
29.0567
29.1334
29.086
28.9724
28.8091
28.6004
28.3452
28.0398
27.6783
27.2529
26.7541
26.1713
25.4925
24.7066
23.8045
22.7844
21.6583
20.4643
19.2827
18.2544
17.6169
24.5631
26.2751
28.572
29.0264
29.1032
29.056
28.9426
28.7796
28.5712
28.3165
28.0116
27.6507
27.226
26.7282
26.1461
25.4682
24.683
23.7816
22.7619
21.6359
20.4417
19.2595
18.2303
17.5888
24.5631
26.2751
28.572
29.0264
29.1032
29.056
28.9426
28.7796
28.5712
28.3165
28.0116
27.6507
27.226
26.7282
26.1461
25.4682
24.683
23.7816
22.7619
21.6359
20.4417
19.2595
18.2303
17.5888
24.5654
26.3096
28.6029
29.0567
29.1334
29.086
28.9724
28.8091
28.6004
28.3452
28.0398
27.6783
27.2529
26.7541
26.1713
25.4925
24.7066
23.8045
22.7844
21.6583
20.4643
19.2827
18.2544
17.6169
24.5759
26.3766
28.6643
29.1173
29.1937
29.1462
29.0322
28.8685
28.659
28.4032
28.0969
27.7343
27.3075
26.8073
26.2226
25.5421
24.7544
23.8508
22.8293
21.7023
20.5079
19.3267
18.2995
17.6684
24.6016
26.4739
28.7557
29.2081
29.2843
29.2365
29.122
28.9576
28.7475
28.4906
28.1831
27.8191
27.3906
26.8882
26.3012
25.618
24.8274
23.9209
22.8968
21.7675
20.5716
19.3897
18.363
17.7389
24.6477
26.5999
28.877
29.3289
29.4049
29.3568
29.2418
29.0767
28.8656
28.6076
28.2986
27.9327
27.502
26.9972
26.4072
25.7206
24.9262
24.0156
22.9873
21.8542
20.6552
19.4712
18.4439
17.8261
24.7169
26.7534
29.0276
29.4794
29.5554
29.5067
29.3911
29.225
29.0128
28.7535
28.4427
28.0748
27.6418
27.134
26.5405
25.8497
25.0507
24.1349
23.1012
21.9627
20.7588
19.571
18.5417
17.929
24.8104
26.9338
29.2071
29.6593
29.7352
29.6861
29.5698
29.4027
29.189
28.928
28.6153
28.2451
27.8092
27.298
26.7006
26.0052
25.2007
24.2788
23.2384
22.093
20.8826
19.6894
18.6567
18.0475
24.9287
27.1404
29.4151
29.8682
29.9441
29.8946
29.7771
29.6088
29.3938
29.1309
28.8159
28.443
28.004
27.489
26.887
26.1864
25.3757
24.4468
23.3986
22.245
21.0266
19.8263
18.7887
18.1816
25.0716
27.3727
29.6511
30.1054
30.1814
30.1312
30.013
29.8434
29.6265
29.3615
29.044
28.6681
28.2254
27.7062
27.0993
26.3928
25.5753
24.6385
23.5816
22.4185
21.1906
19.9818
18.9379
18.3312
25.239
27.63
29.9145
30.3704
30.4466
30.396
30.2766
30.1053
29.8867
29.6192
29.299
28.9197
28.4731
27.9492
27.3367
26.6238
25.7988
24.8534
23.7866
22.6131
21.3743
20.1555
19.1039
18.4963
25.4301
27.9119
30.2044
30.6626
30.739
30.6877
30.5672
30.3943
30.1735
29.9035
29.5802
29.1972
28.7462
28.2172
27.5988
26.8787
26.0456
25.0907
24.0133
22.8281
21.5773
20.3471
19.2867
18.6768
25.6444
28.2176
30.5205
30.9811
31.0579
31.006
30.8841
30.7095
30.4863
30.2136
29.8868
29.4998
29.0442
28.5096
27.8847
27.157
26.315
25.3499
24.261
23.063
21.799
20.5563
19.4858
18.8724
25.8811
28.5465
30.8618
31.3254
31.4026
31.35
31.2266
31.0501
30.8244
30.5486
30.2182
29.8269
29.3662
28.8257
28.1938
27.4579
26.6063
25.6303
24.5289
23.3173
22.039
20.7826
19.7008
19.0828
26.1394
28.8977
31.2275
31.6944
31.7722
31.7187
31.5939
31.4152
31.1868
30.9078
30.5736
30.1777
29.7116
29.1645
28.5252
27.7806
26.9188
25.931
24.8164
23.5902
22.2965
21.0253
19.9313
19.3077
26.4183
29.2705
31.6166
32.0872
32.1655
32.1114
31.9849
31.804
31.5728
31.2903
30.952
30.5512
30.0792
29.5254
28.8781
28.1242
27.2516
26.2514
25.1227
23.8809
22.571
21.2839
20.1768
19.5466
26.717
29.664
32.0282
32.503
32.5818
32.5268
32.3987
32.2154
31.9814
31.6951
31.3524
30.9463
30.4683
29.9074
29.2516
28.4879
27.6039
26.5906
25.447
24.1889
22.8616
21.5577
20.4365
19.799
27.0343
30.0774
32.4614
32.9406
33.02
32.9641
32.8343
32.6485
32.4112
32.1212
31.7738
31.3623
30.8778
30.3094
29.6448
28.8707
27.9748
26.9477
25.7885
24.5131
23.1677
21.8461
20.7099
20.0643
27.3693
30.5095
32.9148
33.3987
33.4788
33.422
33.2904
33.1021
32.8614
32.5674
32.2152
31.798
31.3068
30.7305
30.0566
29.2717
28.3633
27.3217
26.1462
24.8529
23.4885
22.1482
20.9963
20.3419
27.7208
30.9594
33.3874
33.8764
33.9574
33.8996
33.766
33.5749
33.3309
33.0326
32.6756
32.2524
31.7541
31.1695
30.486
29.6899
28.7683
27.7118
26.5193
25.2072
23.823
22.4634
21.2949
20.6312
28.0878
31.4261
33.8783
34.3724
34.4541
34.3955
34.2599
34.066
33.8184
33.5157
33.1533
32.7241
32.2185
31.6254
30.9318
30.1241
29.189
28.1169
26.9068
25.5753
24.1705
22.7906
21.605
20.9313
28.051
27.6115
27.189
26.7844
26.3983
26.0316
25.6848
25.3587
25.0538
24.7707
24.5099
24.2718
24.0569
23.8654
23.6978
23.5542
23.4348
23.3397
23.2691
23.2229
23.2227
23.2689
23.3395
23.4346
23.554
23.6976
23.8652
24.0567
24.2716
24.5097
24.7705
25.0536
25.3585
25.6846
26.0313
26.3981
26.7841
27.1888
27.6112
28.0507
31.4391
30.9982
30.5734
30.1658
29.7767
29.407
29.0578
28.73
28.4246
28.1423
27.8841
27.6505
27.4422
27.2598
27.1038
26.9747
26.8729
26.7986
26.7522
26.7338
26.7338
26.7522
26.7986
26.8729
26.9747
27.1037
27.2597
27.4421
27.6504
27.884
28.1423
28.4245
28.7299
29.0577
29.4069
29.7766
30.1658
30.5733
30.9981
31.4391
33.8802
33.3935
32.9248
32.4751
32.0458
31.6378
31.2523
30.8903
30.5525
30.2401
29.9535
29.6938
29.4614
29.257
29.081
28.934
28.8163
28.7282
28.6701
28.6418
28.6418
28.6699
28.7282
28.8163
28.934
29.081
29.2569
29.4614
29.6937
29.9535
30.24
30.5525
30.8903
31.2523
31.6378
32.0457
32.4751
32.9247
33.3935
33.8802
34.3727
33.8771
33.3999
32.9421
32.5049
32.0897
31.6972
31.3284
30.9845
30.6662
30.3743
30.1096
29.8726
29.6641
29.4843
29.334
29.2134
29.1228
29.0625
29.0325
29.0325
29.0625
29.1228
29.2134
29.334
29.4843
29.6641
29.8726
30.1096
30.3743
30.6662
30.9845
31.3284
31.6971
32.0897
32.5049
32.9421
33.3999
33.8771
34.3727
34.4539
33.957
33.4781
33.019
32.5805
32.1639
31.7703
31.4004
31.0554
30.7361
30.4433
30.1776
29.9398
29.7306
29.5501
29.3993
29.2781
29.1871
29.1264
29.0961
29.096
29.1262
29.187
29.278
29.3993
29.5501
29.7304
29.9398
30.1776
30.4433
30.7361
31.0554
31.4004
31.7702
32.1639
32.5805
33.019
33.4781
33.9568
34.4539
34.3952
33.8989
33.4209
32.9624
32.5246
32.1087
31.7154
31.3462
31.0017
30.6829
30.3905
30.1253
29.8877
29.6787
29.4986
29.3479
29.2269
29.1359
29.0752
29.0449
29.0449
29.0751
29.1359
29.2269
29.3479
29.4986
29.6787
29.8877
30.1251
30.3905
30.6828
31.0017
31.3462
31.7154
32.1085
32.5246
32.9624
33.4209
33.8989
34.3952
34.2596
33.7651
33.289
32.8323
32.3962
31.9818
31.5903
31.2225
30.8792
30.5616
30.2704
30.0061
29.7695
29.5613
29.382
29.2317
29.1111
29.0205
28.9601
28.9299
28.9299
28.96
29.0205
29.1111
29.2317
29.3818
29.5613
29.7695
30.0061
30.2703
30.5616
30.8792
31.2223
31.5903
31.9818
32.3962
32.8323
33.289
33.7651
34.2596
34.0657
33.5741
33.1006
32.6464
32.2128
31.8008
31.4114
31.0457
30.7043
30.3885
30.099
29.8362
29.6009
29.3939
29.2155
29.0662
28.9463
28.8562
28.796
28.7659
28.7659
28.796
28.8562
28.9463
29.0662
29.2155
29.3939
29.6009
29.8362
30.0988
30.3885
30.7043
31.0455
31.4114
31.8007
32.2128
32.6464
33.1005
33.5741
34.0656
33.8181
33.33
32.86
32.4092
31.9787
31.5696
31.1832
30.82
30.4812
30.1677
29.8802
29.6193
29.3859
29.1803
29.0032
28.855
28.736
28.6465
28.5868
28.557
28.557
28.5868
28.6464
28.7359
28.855
29.0032
29.1803
29.3859
29.6193
29.8802
30.1677
30.4812
30.82
31.183
31.5696
31.9787
32.4092
32.86
33.33
33.8181
33.5154
33.0319
32.5659
32.1192
31.6925
31.2871
30.9041
30.5443
30.2086
29.8979
29.6129
29.3543
29.1229
28.9192
28.7438
28.5969
28.479
28.3903
28.3311
28.3015
28.3015
28.331
28.3902
28.4788
28.5967
28.7436
28.9192
29.1229
29.3543
29.6128
29.8977
30.2085
30.5441
30.9041
31.2871
31.6925
32.1192
32.5659
33.0317
33.5154
33.153
32.6747
32.2139
31.772
31.3499
30.9489
30.57
30.2141
29.8819
29.5747
29.2928
29.037
28.8082
28.6066
28.433
28.2878
28.1711
28.0834
28.0249
27.9957
27.9956
28.0249
28.0834
28.1711
28.2878
28.433
28.6066
28.8081
29.037
29.2926
29.5745
29.8819
30.214
30.5699
30.9489
31.3499
31.7718
32.2138
32.6747
33.153
32.7238
32.2516
31.7968
31.3606
30.944
30.5482
30.1742
29.8229
29.4951
29.1917
28.9135
28.6612
28.4352
28.2364
28.065
27.9216
27.8065
27.7199
27.6623
27.6334
27.6334
27.6621
27.7199
27.8065
27.9216
28.065
28.2364
28.4352
28.6612
28.9135
29.1917
29.4951
29.8229
30.1742
30.5482
30.944
31.3604
31.7967
32.2516
32.7238
32.2182
31.7533
31.3056
30.8761
30.4659
30.0763
29.7081
29.3622
29.0396
28.7409
28.467
28.2185
27.9961
27.8004
27.6317
27.4905
27.3772
27.2919
27.235
27.2068
27.2068
27.235
27.2919
27.3772
27.4904
27.6316
27.8002
27.9961
28.2185
28.4669
28.7409
29.0396
29.3621
29.7081
30.0763
30.4659
30.8761
31.3056
31.7533
32.2182
31.6251
31.1688
30.7292
30.3076
29.9052
29.5228
29.1612
28.8217
28.5051
28.2119
27.9431
27.6991
27.4809
27.2887
27.1231
26.9845
26.8733
26.7898
26.7339
26.7062
26.7062
26.7339
26.7896
26.8733
26.9845
27.1231
27.2887
27.4809
27.6991
27.9429
28.2119
28.5049
28.8217
29.1612
29.5226
29.9052
30.3076
30.7292
31.1688
31.6251
30.9316
30.4852
30.0553
29.643
29.2493
28.8752
28.5217
28.1897
27.8799
27.5932
27.3303
27.0918
26.8783
26.6903
26.5284
26.3929
26.2841
26.2024
26.1478
26.1207
26.1206
26.1478
26.2023
26.2841
26.3929
26.5284
26.6903
26.8782
27.0917
27.3302
27.5932
27.8799
28.1896
28.5217
28.8752
29.2493
29.643
30.0553
30.4852
30.9315
30.1238
29.6891
29.2704
28.8688
28.4854
28.1211
27.7768
27.4535
27.1518
26.8726
26.6165
26.3842
26.1763
25.9933
25.8356
25.7037
25.5977
25.5181
25.465
25.4386
25.4385
25.465
25.5181
25.5977
25.7036
25.8356
25.9933
26.1763
26.3842
26.6165
26.8725
27.1517
27.4534
27.7768
28.1211
28.4854
28.8688
29.2704
29.689
30.1237
29.1887
28.7674
28.3617
27.9726
27.601
27.248
26.9144
26.601
26.3087
26.0382
25.79
25.565
25.3635
25.1862
25.0334
24.9055
24.8029
24.7258
24.6743
24.6487
24.6487
24.6743
24.7257
24.8029
24.9055
25.0334
25.1861
25.3635
25.5649
25.79
26.0381
26.3087
26.601
26.9144
27.248
27.601
27.9725
28.3617
28.7674
29.1886
28.1165
27.7106
27.3197
26.9448
26.5869
26.2468
25.9254
25.6235
25.3419
25.0812
24.8422
24.6254
24.4313
24.2605
24.1133
23.9901
23.8912
23.8169
23.7673
23.7426
23.7426
23.7673
23.8168
23.8912
23.99
24.1132
24.2604
24.4313
24.6253
24.8422
25.0812
25.3419
25.6235
25.9254
26.2468
26.5869
26.9448
27.3197
27.7106
28.1165
26.9062
26.5177
26.1435
25.7846
25.442
25.1164
24.8087
24.5198
24.2502
24.0007
23.7719
23.5643
23.3785
23.215
23.0741
22.9561
22.8615
22.7903
22.7428
22.7191
22.7191
22.7428
22.7903
22.8614
22.9561
23.0741
23.215
23.3785
23.5643
23.7719
24.0007
24.2502
24.5197
24.8087
25.1164
25.4419
25.7846
26.1435
26.5176
26.9062
25.5745
25.2049
24.849
24.5077
24.1819
23.8723
23.5797
23.3049
23.0485
22.8112
22.5936
22.3962
22.2195
22.0639
21.9299
21.8177
21.7276
21.6598
21.6146
21.5919
21.5919
21.6146
21.6598
21.7276
21.8177
21.9299
22.0639
22.2195
22.3962
22.5936
22.8112
23.0485
23.3049
23.5797
23.8723
24.1819
24.5077
24.849
25.2049
25.5745
24.1694