/*--------------------------------*- C++ -*----------------------------------*\
  =========                 |
  \\      /  F ield         | OpenFOAM: The Open Source CFD Toolbox
   \\    /   O peration     | Website:  https://openfoam.org
    \\  /    A nd           | Version:  6
     \\/     M anipulation  |
\*---------------------------------------------------------------------------*/
FoamFile
{
    version     2.0;
    format      ascii;
    class       volVectorField;
    location    "29";
    object      wallShearStress;
}
// * * * * * * * * * * * * * * * * * * * * * * * * * * * * * * * * * * * * * //

dimensions      [0 2 -2 0 0 0 0];

internalField   uniform (0 0 0);

boundaryField
{
    inlet
    {
        type            calculated;
        value           uniform (0 0 0);
    }
    outlet
    {
        type            calculated;
        value           uniform (0 0 0);
    }
    roughCylinder
    {
        type            calculated;
        value           nonuniform List<vector> 
5120
(
(-0.000250513 -0.000356731 -0.00018367)
(-0.000307044 -0.000461036 -4.20953e-05)
(-0.000340546 -0.000554777 -7.72776e-07)
(-0.000386204 -0.000644761 5.39211e-05)
(-0.000443143 -0.00072289 0.000117102)
(-0.00050781 -0.000784703 0.000180605)
(-0.00057675 -0.000827365 0.000239925)
(-0.000645313 -0.000851293 0.000292285)
(-0.000709417 -0.000858954 0.000335585)
(-0.000766978 -0.000855383 0.000369106)
(-0.000818229 -0.000848831 0.000394321)
(-0.000863478 -0.000844973 0.000413137)
(-0.000899739 -0.000843841 0.000424291)
(-0.000930304 -0.000848189 0.000428898)
(-0.000956479 -0.000857229 0.000427997)
(-0.0009796 -0.000870257 0.000422646)
(-0.00100109 -0.000886486 0.000413894)
(-0.00102218 -0.000905269 0.000402631)
(-0.00104382 -0.000926132 0.000389538)
(-0.00106666 -0.000948769 0.000375028)
(-0.00109104 -0.000973013 0.000359307)
(-0.00111708 -0.000998728 0.000342401)
(-0.00114475 -0.00102579 0.000324208)
(-0.00117388 -0.00105403 0.000304536)
(-0.00120422 -0.00108322 0.000283118)
(-0.00123543 -0.001113 0.00025959)
(-0.00126707 -0.00114293 0.000233467)
(-0.00129857 -0.00117234 0.000204061)
(-0.00132902 -0.00120029 0.000170195)
(-0.00135697 -0.00122536 0.000130398)
(-0.00137941 -0.00124556 8.24216e-05)
(-0.0013923 -0.00125762 2.78537e-05)
(-0.00026904 -0.000345083 -0.000173527)
(-0.000328673 -0.000446621 -4.45615e-05)
(-0.000364754 -0.000539048 -6.52945e-06)
(-0.000412525 -0.000628741 4.47599e-05)
(-0.000471137 -0.000707878 0.000105315)
(-0.000537351 -0.000771474 0.000167032)
(-0.000607683 -0.000816302 0.000225196)
(-0.00067773 -0.000842653 0.000276927)
(-0.000744015 -0.000853363 0.000320231)
(-0.00080498 -0.000854057 0.000354799)
(-0.000860409 -0.000851582 0.00038201)
(-0.0009092 -0.000849307 0.000402673)
(-0.000948316 -0.000846914 0.000414921)
(-0.000980434 -0.000850163 0.000420116)
(-0.00100814 -0.00085849 0.000419533)
(-0.0010327 -0.000871155 0.000414407)
(-0.0010556 -0.000887259 0.000405828)
(-0.00107811 -0.00090605 0.000394741)
(-0.00110121 -0.000927 0.000381843)
(-0.00112555 -0.000949751 0.00036758)
(-0.0011515 -0.000974098 0.000352156)
(-0.00117916 -0.000999901 0.000335607)
(-0.00120849 -0.00102702 0.000317823)
(-0.00123931 -0.00105529 0.000298613)
(-0.00127136 -0.00108446 0.000277704)
(-0.00130427 -0.0011142 0.000254726)
(-0.00133759 -0.00114406 0.000229192)
(-0.00137071 -0.00117336 0.000200417)
(-0.00140268 -0.00120118 0.00016723)
(-0.00143198 -0.00122611 0.000128179)
(-0.00145547 -0.00124616 8.10318e-05)
(-0.00146899 -0.00125814 2.73747e-05)
(-0.000287366 -0.000328179 -0.000156094)
(-0.000349774 -0.000426733 -4.75456e-05)
(-0.000388245 -0.000517093 -1.29479e-05)
(-0.000437733 -0.000605827 3.47288e-05)
(-0.000497728 -0.000685448 9.23532e-05)
(-0.000565335 -0.000750602 0.000152032)
(-0.000637141 -0.000797774 0.000208972)
(-0.000709039 -0.0008272 0.000260229)
(-0.00077805 -0.000841902 0.000303974)
(-0.000842713 -0.000847191 0.000339967)
(-0.000902046 -0.000848356 0.000368973)
(-0.000954105 -0.000847593 0.000390919)
(-0.000996789 -0.000845244 0.000404468)
(-0.00103058 -0.000846945 0.000410184)
(-0.00105984 -0.000854385 0.000409915)
(-0.00108593 -0.000866506 0.000405057)
(-0.00111033 -0.000882315 0.000396713)
(-0.00113435 -0.000900962 0.000385856)
(-0.00115896 -0.000921831 0.000373215)
(-0.00118486 -0.000944526 0.000359256)
(-0.00121241 -0.000968814 0.000344191)
(-0.00124172 -0.000994529 0.000328052)
(-0.00127273 -0.00102153 0.000310744)
(-0.00130525 -0.00104962 0.000292058)
(-0.001339 -0.00107858 0.000271719)
(-0.00137359 -0.00110807 0.000249351)
(-0.00140856 -0.00113764 0.000224466)
(-0.00144326 -0.00116663 0.000196386)
(-0.00147672 -0.00119412 0.000163948)
(-0.00150733 -0.00121872 0.000125721)
(-0.00153185 -0.0012385 7.94919e-05)
(-0.00154598 -0.0012503 2.68451e-05)
(-0.000303712 -0.000307447 -0.00013422)
(-0.000368471 -0.000402488 -5.06048e-05)
(-0.000408885 -0.000490044 -1.96158e-05)
(-0.000459499 -0.00057717 2.42663e-05)
(-0.000520425 -0.000656768 7.8699e-05)
(-0.000589199 -0.00072326 0.000136074)
(-0.000662526 -0.000772925 0.000191618)
(-0.000736584 -0.000805907 0.000242407)
(-0.000808627 -0.000825105 0.000286727)
(-0.000876979 -0.000835032 0.000324198)
(-0.00094002 -0.000839574 0.00035486)
(-0.000995525 -0.00084052 0.000378019)
(-0.00104188 -0.000839089 0.000392861)
(-0.00107826 -0.000839241 0.000399267)
(-0.00110922 -0.000845699 0.000399444)
(-0.00113699 -0.000857116 0.00039491)
(-0.00116299 -0.00087249 0.00038686)
(-0.00118857 -0.000890862 0.000376303)
(-0.00121476 -0.000911537 0.000363987)
(-0.00124225 -0.000934064 0.000350387)
(-0.00127141 -0.000958162 0.000335736)
(-0.00130234 -0.000983654 0.000320069)
(-0.00133499 -0.00101037 0.000303281)
(-0.00136916 -0.00103815 0.000285164)
(-0.00140453 -0.00106673 0.000265437)
(-0.00144072 -0.00109579 0.000243717)
(-0.00147727 -0.00112491 0.000219519)
(-0.00151345 -0.00115342 0.00019217)
(-0.0015483 -0.00118042 0.000160514)
(-0.00158013 -0.00120456 0.000123151)
(-0.0016056 -0.00122395 7.78839e-05)
(-0.00162027 -0.0012355 2.62926e-05)
(-0.000316887 -0.000283038 -0.000109974)
(-0.000383607 -0.000374045 -5.33825e-05)
(-0.00042548 -0.000458147 -2.61831e-05)
(-0.000476645 -0.000543051 1.37157e-05)
(-0.000538091 -0.000622133 6.4652e-05)
(-0.000607879 -0.000689803 0.000119393)
(-0.000682875 -0.00074215 0.000173317)
(-0.000759417 -0.000779037 0.000223556)
(-0.000834699 -0.00080287 0.00026842)
(-0.000906655 -0.000817189 0.000307237)
(-0.000973261 -0.000824851 0.000339414)
(-0.00103228 -0.000827574 0.000363824)
(-0.00108216 -0.000827251 0.000379771)
(-0.00112244 -0.000827012 0.000387334)
(-0.00115535 -0.000831923 0.000388078)
(-0.00118491 -0.000842426 0.000383968)
(-0.00121262 -0.000857182 0.000376315)
(-0.00123985 -0.000875119 0.000366138)
(-0.00126764 -0.000895443 0.000354212)
(-0.00129671 -0.000917643 0.000341043)
(-0.00132745 -0.000941397 0.000326866)
(-0.00135997 -0.000966503 0.000311724)
(-0.0013942 -0.00099279 0.000295509)
(-0.00142992 -0.00102006 0.000278007)
(-0.00146683 -0.0010481 0.000258935)
(-0.0015045 -0.00107656 0.0002379)
(-0.00154247 -0.00110505 0.000214417)
(-0.00158002 -0.0011329 0.000187827)
(-0.00161613 -0.00115924 0.00015698)
(-0.00164906 -0.00118276 0.000120509)
(-0.00167537 -0.00120163 7.62323e-05)
(-0.00169053 -0.00121287 2.57257e-05)
(-0.000327011 -0.000256511 -8.51896e-05)
(-0.000395168 -0.00034293 -5.57487e-05)
(-0.000437925 -0.000423019 -3.24507e-05)
(-0.000489018 -0.000505111 3.3132e-06)
(-0.000550505 -0.000583163 5.0464e-05)
(-0.000621049 -0.00065172 0.000102219)
(-0.00069768 -0.000706679 0.000154228)
(-0.000776767 -0.000747431 0.000203727)
(-0.000855312 -0.000775669 0.000248971)
(-0.00093084 -0.000793984 0.000288923)
(-0.00100103 -0.000804532 0.000322467)
(-0.00106369 -0.00080906 0.000348163)
(-0.00111732 -0.000809904 0.000365228)
(-0.00116169 -0.000810105 0.000374043)
(-0.0011977 -0.000813424 0.000375676)
(-0.00122927 -0.000822772 0.000372189)
(-0.00125884 -0.000836631 0.000365035)
(-0.00128779 -0.000853892 0.000355337)
(-0.00131724 -0.000873697 0.000343903)
(-0.00134792 -0.000895415 0.000331242)
(-0.00138022 -0.000918665 0.00031761)
(-0.00141426 -0.000943218 0.00030305)
(-0.00144998 -0.000968894 0.00028746)
(-0.00148716 -0.0009955 0.000270621)
(-0.00152545 -0.0010228 0.000252242)
(-0.00156446 -0.00105047 0.000231922)
(-0.00160372 -0.00107814 0.000209184)
(-0.00164246 -0.00110516 0.000183376)
(-0.00167967 -0.00113069 0.000153359)
(-0.00171358 -0.00115343 0.000117804)
(-0.00174061 -0.00117166 7.45443e-05)
(-0.00175619 -0.00118253 2.51469e-05)
(-0.000332716 -0.000228033 -6.0767e-05)
(-0.000401806 -0.000309405 -5.7524e-05)
(-0.000444862 -0.000384926 -3.82027e-05)
(-0.000495237 -0.000463606 -6.76848e-06)
(-0.000556212 -0.000540085 3.62351e-05)
(-0.00062721 -0.000609207 8.45753e-05)
(-0.000705445 -0.000666713 0.000134295)
(-0.000787215 -0.000711335 0.000182797)
(-0.00086917 -0.000743828 0.000228209)
(-0.00094839 -0.000765854 0.000269076)
(-0.00102232 -0.00077911 0.000303836)
(-0.00108881 -0.000785468 0.000330832)
(-0.00114641 -0.000787522 0.000349151)
(-0.00119491 -0.000788462 0.000359185)
(-0.00123528 -0.000791345 0.000362144)
(-0.00126935 -0.00079874 0.000359462)
(-0.00130097 -0.000811457 0.000352979)
(-0.00133184 -0.000827885 0.000343896)
(-0.00136298 -0.000846929 0.000333046)
(-0.00139526 -0.000867952 0.000320978)
(-0.00142908 -0.000890529 0.000307963)
(-0.0014646 -0.000914376 0.000294057)
(-0.00150172 -0.000939293 0.000279152)
(-0.00154023 -0.000965073 0.000263025)
(-0.00157979 -0.000991493 0.000245384)
(-0.00161998 -0.00101824 0.000225814)
(-0.00166034 -0.00104494 0.000203843)
(-0.00170011 -0.00107097 0.000178839)
(-0.00173826 -0.00109553 0.00014967)
(-0.00177298 -0.00111737 0.00011505)
(-0.00180063 -0.00113486 7.28298e-05)
(-0.00181651 -0.00114528 2.45591e-05)
(-0.000334261 -0.000198864 -3.77444e-05)
(-0.000403632 -0.000274759 -5.87196e-05)
(-0.000446365 -0.000345273 -4.33454e-05)
(-0.000495337 -0.000419996 -1.63432e-05)
(-0.000555155 -0.000494306 2.22067e-05)
(-0.000626122 -0.000563504 6.67033e-05)
(-0.000705653 -0.000623172 0.0001137)
(-0.000789865 -0.000671264 0.000160794)
(-0.000875067 -0.000707591 0.000205997)
(-0.000958031 -0.000733036 0.000247488)
(-0.00103594 -0.000748922 0.00028331)
(-0.00110654 -0.000757171 0.000311609)
(-0.0011684 -0.000760536 0.000331352)
(-0.00122116 -0.000762209 0.00034275)
(-0.00126574 -0.000765191 0.00034702)
(-0.00130397 -0.000771566 0.000345639)
(-0.00133809 -0.000782477 0.000340053)
(-0.00137097 -0.000797423 0.000331709)
(-0.00140395 -0.000815545 0.000321603)
(-0.0014379 -0.000835735 0.000310241)
(-0.00147324 -0.000857478 0.000297938)
(-0.00151014 -0.000880454 0.000284756)
(-0.00154855 -0.000904444 0.000270597)
(-0.00158822 -0.000929245 0.000255233)
(-0.00162886 -0.000954618 0.000238369)
(-0.00167 -0.000980265 0.000219578)
(-0.00171126 -0.00100589 0.000198402)
(-0.00175183 -0.00103088 0.000174222)
(-0.00179071 -0.0010544 0.000145918)
(-0.00182608 -0.00107525 0.000112253)
(-0.00185414 -0.00109192 7.10914e-05)
(-0.00187027 -0.00110194 2.39648e-05)
(-0.00033016 -0.00016895 -1.66239e-05)
(-0.000399232 -0.000239039 -5.91447e-05)
(-0.000441012 -0.000304083 -4.76717e-05)
(-0.000487828 -0.000374238 -2.52105e-05)
(-0.000545695 -0.00044566 8.5634e-06)
(-0.000615983 -0.000514281 4.87139e-05)
(-0.000696447 -0.000575688 9.24357e-05)
(-0.000783062 -0.000627043 0.00013764)
(-0.000871703 -0.000667104 0.000182234)
(-0.000958623 -0.000695868 0.000224024)
(-0.00104075 -0.000714321 0.000260719)
(-0.00111576 -0.000724491 0.00029029)
(-0.00118213 -0.000729207 0.00031156)
(-0.00123947 -0.000731713 0.000324566)
(-0.00128842 -0.000734878 0.000330325)
(-0.00133068 -0.000740782 0.000330318)
(-0.00136848 -0.000750475 0.000325994)
(-0.00140442 -0.000764153 0.000318826)
(-0.0014393 -0.000780822 0.000309608)
(-0.00147488 -0.000799815 0.000299056)
(-0.00151168 -0.000820508 0.000287561)
(-0.0015499 -0.000842497 0.000275194)
(-0.00158946 -0.00086549 0.000261856)
(-0.00163013 -0.000889267 0.000247314)
(-0.00167164 -0.000913589 0.000231276)
(-0.00171354 -0.00093815 0.0002133)
(-0.00175537 -0.000962627 0.000192926)
(-0.00179637 -0.000986414 0.000169567)
(-0.00183563 -0.00100874 0.000142124)
(-0.0018714 -0.00102851 0.000109424)
(-0.0018997 -0.00104431 6.93374e-05)
(-0.00191576 -0.00105379 2.33638e-05)
(-0.000321143 -0.000139702 1.93228e-06)
(-0.000389068 -0.000203326 -5.90771e-05)
(-0.000429258 -0.000262899 -5.11629e-05)
(-0.000473274 -0.000327961 -3.31736e-05)
(-0.000528375 -0.000395807 -4.37668e-06)
(-0.000597211 -0.000463119 3.09999e-05)
(-0.000677993 -0.000525593 7.08759e-05)
(-0.000766488 -0.000579585 0.000113559)
(-0.000858155 -0.00062285 0.000156943)
(-0.000949004 -0.000654704 0.000198591)
(-0.00103566 -0.000675775 0.000235936)
(-0.00111546 -0.000687917 0.000266721)
(-0.00118676 -0.000694054 0.000289606)
(-0.00124889 -0.000697354 0.000304385)
(-0.00130242 -0.000700715 0.000311877)
(-0.00134884 -0.000706226 0.000313449)
(-0.00139036 -0.000715079 0.000310591)
(-0.00142922 -0.000727607 0.000304719)
(-0.00146662 -0.000742913 0.000296656)
(-0.0015042 -0.000760666 0.000287161)
(-0.00154253 -0.000780172 0.000276636)
(-0.00158189 -0.00080097 0.000265182)
(-0.00162231 -0.000822768 0.000252731)
(-0.0016636 -0.000845319 0.000239057)
(-0.0017055 -0.000868376 0.00022387)
(-0.0017476 -0.000891637 0.000206716)
(-0.00178957 -0.000914759 0.000187155)
(-0.00183067 -0.000937152 0.000164647)
(-0.00187006 -0.000958177 0.00013811)
(-0.00190596 -0.00097675 0.000106429)
(-0.0019342 -0.000991552 6.74781e-05)
(-0.00195018 -0.00100044 2.27273e-05)
(-0.000303988 -0.000110463 1.75269e-05)
(-0.000372654 -0.00016825 -5.81274e-05)
(-0.000409862 -0.000221785 -5.37141e-05)
(-0.000450135 -0.000281128 -3.99766e-05)
(-0.000501392 -0.000344501 -1.62769e-05)
(-0.000567629 -0.000409445 1.38552e-05)
(-0.000647854 -0.000472119 4.91708e-05)
(-0.000737933 -0.000528358 8.85838e-05)
(-0.000832891 -0.000574874 0.000130132)
(-0.000928 -0.000609943 0.000171162)
(-0.00101942 -0.00063367 0.000208842)
(-0.00110439 -0.000647885 0.000240735)
(-0.00118092 -0.000655417 0.000265254)
(-0.00124832 -0.000659559 0.000281988)
(-0.0013068 -0.000663133 0.000291474)
(-0.00135771 -0.000668283 0.00029491)
(-0.00140304 -0.000676294 0.000293734)
(-0.00144506 -0.000687684 0.000289355)
(-0.00148496 -0.000701662 0.000282619)
(-0.0015244 -0.000718043 0.000274331)
(-0.00156415 -0.000736185 0.000264912)
(-0.00160457 -0.000755644 0.000254498)
(-0.00164569 -0.000776064 0.000243036)
(-0.00168738 -0.000797195 0.000230307)
(-0.00172944 -0.000818801 0.000216039)
(-0.00177148 -0.00084058 0.000199757)
(-0.00181334 -0.000862196 0.000181052)
(-0.00185428 -0.000883094 0.000159442)
(-0.00189346 -0.000902676 0.000133856)
(-0.00192923 -0.000919984 0.000103254)
(-0.00195726 -0.000933764 6.55102e-05)
(-0.00197292 -0.000941955 2.20517e-05)
(-0.000280341 -8.25491e-05 3.01156e-05)
(-0.000350107 -0.000135075 -5.63849e-05)
(-0.000384084 -0.000182278 -5.52976e-05)
(-0.000419715 -0.000235558 -4.54546e-05)
(-0.000466135 -0.000293739 -2.67462e-05)
(-0.000528742 -0.000355379 -2.13376e-06)
(-0.000607515 -0.000417362 2.79839e-05)
(-0.000698315 -0.000475032 6.32843e-05)
(-0.000795675 -0.000524084 0.000102129)
(-0.000894697 -0.000562102 0.000141857)
(-0.000991185 -0.000588654 0.000179481)
(-0.00108165 -0.000605052 0.000212292)
(-0.00116397 -0.000614117 0.000238476)
(-0.0012369 -0.000618983 0.000257258)
(-0.00130063 -0.000622659 0.000268939)
(-0.00135626 -0.000627352 0.000274497)
(-0.00140577 -0.000634521 0.000275296)
(-0.001451 -0.000644634 0.00027263)
(-0.00149353 -0.00065722 0.000267444)
(-0.00153501 -0.000672178 0.000260563)
(-0.00157619 -0.000688851 0.000252412)
(-0.0016175 -0.000706791 0.000243157)
(-0.00165913 -0.000725681 0.000232789)
(-0.00170097 -0.000745253 0.000221092)
(-0.00174286 -0.000765253 0.000207806)
(-0.00178447 -0.000785398 0.000192443)
(-0.00182579 -0.000805358 0.000174624)
(-0.00186619 -0.000824625 0.000153952)
(-0.00190489 -0.000842713 0.000129369)
(-0.0019402 -0.000858662 9.9901e-05)
(-0.00196765 -0.000871317 6.3429e-05)
(-0.00198299 -0.000878831 2.13387e-05)
(-0.000249433 -5.66939e-05 3.94436e-05)
(-0.000319498 -0.000103622 -5.3584e-05)
(-0.000350423 -0.000144506 -5.55843e-05)
(-0.000380798 -0.000191357 -4.9229e-05)
(-0.000421109 -0.000243388 -3.52926e-05)
(-0.000478287 -0.000300239 -1.63903e-05)
(-0.000553782 -0.000359992 7.81622e-06)
(-0.000644354 -0.00041827 3.80007e-05)
(-0.000744395 -0.000470009 7.31997e-05)
(-0.000847749 -0.000511324 0.00011087)
(-0.000949392 -0.000540858 0.00014787)
(-0.00104583 -0.000559745 0.000181327)
(-0.00113421 -0.000570403 0.000209065)
(-0.00121334 -0.00057614 0.000230035)
(-0.00128284 -0.000579906 0.000244137)
(-0.0013437 -0.000584111 0.000252121)
(-0.00139752 -0.00059026 0.000255157)
(-0.0014464 -0.000599067 0.000254522)
(-0.00149168 -0.000610146 0.000251128)
(-0.00153504 -0.000623463 0.000245825)
(-0.00157752 -0.000638493 0.000239097)
(-0.00161965 -0.000654811 0.000231155)
(-0.00166158 -0.000672042 0.000221996)
(-0.00170328 -0.000689931 0.000211422)
(-0.00174469 -0.000708239 0.000199194)
(-0.00178554 -0.000726674 0.000184802)
(-0.00182608 -0.000744948 0.000167914)
(-0.00186564 -0.000762546 0.000148221)
(-0.00190341 -0.000779036 0.000124672)
(-0.00193802 -0.000793611 9.63924e-05)
(-0.00196471 -0.000805162 6.12565e-05)
(-0.00197943 -0.000811905 2.05921e-05)
(-0.00021335 -3.42562e-05 4.54662e-05)
(-0.000282185 -7.50403e-05 -4.98791e-05)
(-0.000310435 -0.000109931 -5.46929e-05)
(-0.000335398 -0.000150302 -5.12691e-05)
(-0.000368801 -0.000195616 -4.15638e-05)
(-0.000419455 -0.00024673 -2.81679e-05)
(-0.000490706 -0.000303253 -1.02933e-05)
(-0.000579762 -0.00036106 1.38259e-05)
(-0.000680535 -0.000414246 4.42051e-05)
(-0.000787188 -0.000458377 7.87839e-05)
(-0.000894226 -0.000491224 0.000114472)
(-0.000996663 -0.00051276 0.000148101)
(-0.0010917 -0.000525355 0.000177251)
(-0.00117714 -0.000531925 0.000200374)
(-0.00125271 -0.000535716 0.000217054)
(-0.00131897 -0.000539243 0.000227689)
(-0.00137762 -0.000544315 0.000233294)
(-0.00143012 -0.00055158 0.000234944)
(-0.00147831 -0.000561023 0.000233616)
(-0.00152387 -0.000572676 0.00023016)
(-0.00156771 -0.000585984 0.000225061)
(-0.00161043 -0.00060053 0.000218565)
(-0.00165244 -0.000616012 0.000210737)
(-0.0016937 -0.000632139 0.000201377)
(-0.00173422 -0.000648668 0.000190266)
(-0.00177383 -0.00066532 0.000176879)
(-0.00181299 -0.000681794 0.000160926)
(-0.00185127 -0.000697657 0.000142238)
(-0.00188786 -0.00071259 0.000119769)
(-0.00192132 -0.00072572 9.27228e-05)
(-0.00194686 -0.000736121 5.89836e-05)
(-0.00196099 -0.000742171 1.98127e-05)
(-0.000171519 -1.56613e-05 4.78412e-05)
(-0.000237098 -4.96205e-05 -4.48779e-05)
(-0.000263122 -7.86383e-05 -5.22144e-05)
(-0.000283134 -0.000112555 -5.12102e-05)
(-0.000309082 -0.000150626 -4.50502e-05)
(-0.00035091 -0.000194335 -3.66931e-05)
(-0.000414207 -0.000244956 -2.53202e-05)
(-0.000499272 -0.000300488 -8.20471e-06)
(-0.000601153 -0.000355306 1.60565e-05)
(-0.00071149 -0.000402745 4.62955e-05)
(-0.000823418 -0.000439042 7.96355e-05)
(-0.00093248 -0.000463936 0.000112838)
(-0.00103422 -0.000478753 0.000143002)
(-0.00112684 -0.000486659 0.000168262)
(-0.00120906 -0.000490668 0.000187648)
(-0.00128141 -0.000493636 0.000201218)
(-0.00134491 -0.000497427 0.000209637)
(-0.00140163 -0.000503156 0.000213935)
(-0.00145289 -0.00051084 0.000214953)
(-0.00150036 -0.000520579 0.000213535)
(-0.00154535 -0.000532004 0.000210245)
(-0.00158862 -0.000544729 0.000205369)
(-0.00163044 -0.000558394 0.000198994)
(-0.00167091 -0.000572724 0.000190943)
(-0.00171019 -0.000587472 0.000181023)
(-0.00174819 -0.000602362 0.000168684)
(-0.00178583 -0.000617148 0.000153701)
(-0.00182248 -0.000631309 0.000136045)
(-0.00185733 -0.000644634 0.000114677)
(-0.00188949 -0.000656408 8.89171e-05)
(-0.00191362 -0.000665706 5.6632e-05)
(-0.00192677 -0.000670993 1.90028e-05)
(-0.000127075 -1.78877e-06 4.71826e-05)
(-0.000187021 -2.85644e-05 -3.88274e-05)
(-0.000211281 -5.18035e-05 -4.83839e-05)
(-0.000226769 -7.92515e-05 -4.93465e-05)
(-0.000244503 -0.000109604 -4.57382e-05)
(-0.000276543 -0.000145275 -4.11349e-05)
(-0.000333209 -0.000190062 -3.57813e-05)
(-0.000413021 -0.000242127 -2.65039e-05)
(-0.000511095 -0.000295742 -9.73753e-06)
(-0.000622503 -0.000345371 1.47724e-05)
(-0.000739612 -0.000385755 4.4602e-05)
(-0.000854492 -0.000414159 7.64106e-05)
(-0.000963507 -0.000431927 0.000107091)
(-0.00106286 -0.000441262 0.000134123)
(-0.00115184 -0.000445679 0.000156166)
(-0.00123015 -0.000448028 0.000172757)
(-0.00129919 -0.000450674 0.000184302)
(-0.00135988 -0.000454638 0.000191459)
(-0.00141426 -0.000460455 0.000195096)
(-0.00146409 -0.000468331 0.000196025)
(-0.00151032 -0.000477856 0.000194766)
(-0.00155383 -0.000488678 0.000191653)
(-0.00159521 -0.000500495 0.000186858)
(-0.00163451 -0.000513028 0.000180203)
(-0.00167207 -0.000526012 0.000171527)
(-0.00170788 -0.000539155 0.000160254)
(-0.00174312 -0.000552166 0.000146203)
(-0.00177776 -0.000564658 0.000129602)
(-0.00181062 -0.000576509 0.00010938)
(-0.00184081 -0.000586856 8.49407e-05)
(-0.00186319 -0.000595101 5.41775e-05)
(-0.00187547 -0.000599762 1.81588e-05)
(-8.01238e-05 8.74354e-06 4.3964e-05)
(-0.000131681 -1.06299e-05 -3.08913e-05)
(-0.000153747 -2.83292e-05 -4.19553e-05)
(-0.000167871 -5.03523e-05 -4.34396e-05)
(-0.000183485 -7.35099e-05 -4.07532e-05)
(-0.000208369 -9.96356e-05 -4.13929e-05)
(-0.000243412 -0.000132878 -4.26861e-05)
(-0.000309886 -0.000178358 -3.90832e-05)
(-0.000406758 -0.000232806 -3.062e-05)
(-0.000519467 -0.000284901 -1.40188e-05)
(-0.000639263 -0.000328963 1.05589e-05)
(-0.000760784 -0.000362242 3.97686e-05)
(-0.000876341 -0.000383506 6.99652e-05)
(-0.00098365 -0.000395485 9.83427e-05)
(-0.00107978 -0.000400905 0.000122833)
(-0.00116486 -0.000403177 0.000142535)
(-0.00123907 -0.000404638 0.000157291)
(-0.00130451 -0.000407093 0.000167637)
(-0.00136225 -0.000411068 0.000174162)
(-0.00141387 -0.000416876 0.0001776)
(-0.00146102 -0.000424409 0.000178544)
(-0.00150467 -0.000433349 0.000177362)
(-0.00154527 -0.000443335 0.000174272)
(-0.00158304 -0.000454126 0.000169108)
(-0.00161845 -0.000465433 0.000161739)
(-0.00165168 -0.000476959 0.000151566)
(-0.00168464 -0.00048848 0.000138483)
(-0.00171677 -0.00049935 0.00012294)
(-0.00174699 -0.000509757 0.000103884)
(-0.00177535 -0.000518894 8.08312e-05)
(-0.00179553 -0.000526147 5.16422e-05)
(-0.00180648 -0.000530132 1.72819e-05)
(-4.48347e-05 1.1463e-05 3.93744e-05)
(-8.91297e-05 -3.52517e-06 -2.16802e-05)
(-0.000108103 -1.25083e-05 -3.57424e-05)
(-0.000114987 -2.91259e-05 -4.69592e-05)
(-0.00011504 -5.09517e-05 -4.61397e-05)
(-0.00012388 -7.45869e-05 -3.27573e-05)
(-0.000166283 -9.18516e-05 -2.76168e-05)
(-0.000246617 -0.00013112 -4.13276e-05)
(-0.000299932 -0.000168112 -4.57052e-05)
(-0.000406731 -0.000222269 -3.77465e-05)
(-0.000530229 -0.000271238 -2.01483e-05)
(-0.000654955 -0.000308898 4.79028e-06)
(-0.000777672 -0.000335147 3.33334e-05)
(-0.000891086 -0.000349978 6.2003e-05)
(-0.00099425 -0.000357121 8.84248e-05)
(-0.00108531 -0.000359558 0.000110939)
(-0.00116548 -0.000360423 0.000129011)
(-0.00123487 -0.000361307 0.00014258)
(-0.00129565 -0.000363459 0.000152154)
(-0.00134968 -0.000367458 0.000158391)
(-0.00139781 -0.000373109 0.000161741)
(-0.00144126 -0.000380188 0.000162615)
(-0.0014808 -0.000388413 0.000161347)
(-0.00151654 -0.000397554 0.000157751)
(-0.00154925 -0.000407285 0.000151728)
(-0.00157921 -0.000417283 0.000142647)
(-0.00160855 -0.000427223 0.000130433)
(-0.00163805 -0.000436627 0.000115984)
(-0.00166539 -0.000445785 9.81461e-05)
(-0.00169084 -0.000453589 7.65011e-05)
(-0.00170867 -0.000460014 4.89802e-05)
(-0.00171845 -0.000463493 1.63621e-05)
(-1.85342e-05 1.19136e-05 1.23735e-05)
(-1.77057e-05 -8.0587e-06 -2.50342e-05)
(-2.65281e-05 -1.30813e-05 -1.18878e-05)
(-4.50061e-05 -1.78526e-05 -2.42128e-05)
(-5.20094e-05 -2.7466e-05 -3.17475e-05)
(-5.04062e-05 -3.83722e-05 -2.3794e-05)
(-6.89346e-05 -3.79489e-05 -3.96213e-05)
(-9.13096e-05 -0.000115436 -4.09855e-05)
(-0.000198569 -0.000120181 -1.45188e-06)
(-0.000290131 -0.000151887 -5.11065e-05)
(-0.000405919 -0.000207983 -4.4204e-05)
(-0.000536511 -0.000253094 -2.57555e-05)
(-0.000662652 -0.000283746 -1.27572e-06)
(-0.000784049 -0.00030365 2.63081e-05)
(-0.000893702 -0.00031352 5.3672e-05)
(-0.000991638 -0.000317366 7.86005e-05)
(-0.00107667 -0.00031794 9.96776e-05)
(-0.00115096 -0.000317999 0.000116579)
(-0.00121516 -0.000318728 0.000129348)
(-0.00127052 -0.000320853 0.000138418)
(-0.00131909 -0.000324688 0.000144274)
(-0.00136209 -0.000330048 0.000147318)
(-0.00140016 -0.000336624 0.000147972)
(-0.00143348 -0.000344274 0.000146027)
(-0.00146304 -0.000352609 0.000141393)
(-0.0014894 -0.000361299 0.000133433)
(-0.00151572 -0.000370122 0.000122126)
(-0.00154183 -0.000378044 0.000108739)
(-0.00156562 -0.000386059 9.21541e-05)
(-0.00158882 -0.00039289 7.20128e-05)
(-0.00160362 -0.000398521 4.62174e-05)
(-0.00161178 -0.000401495 1.54019e-05)
(1.65195e-06 8.8673e-06 1.48285e-05)
(6.2122e-06 2.36218e-06 -7.74088e-06)
(6.52131e-07 2.88533e-06 -1.12728e-05)
(-1.3026e-05 -2.21699e-06 -2.15752e-05)
(-2.39468e-05 -1.2009e-05 -2.84686e-05)
(-3.30368e-05 -1.81492e-05 -3.79867e-05)
(-4.56883e-05 -4.37772e-05 -3.96993e-05)
(-4.73832e-05 -5.32517e-05 -2.75965e-05)
(-6.65572e-05 -5.81062e-05 -2.11023e-05)
(-0.000196202 -0.000100239 -3.70882e-05)
(-0.000287226 -0.000139834 -5.60163e-05)
(-0.000403991 -0.000190149 -4.88745e-05)
(-0.000540402 -0.000232144 -3.05467e-05)
(-0.000665798 -0.000256559 -6.75743e-06)
(-0.000782371 -0.00027081 2.01876e-05)
(-0.000885252 -0.000276658 4.6513e-05)
(-0.000975857 -0.00027814 7.01985e-05)
(-0.00105324 -0.000277585 9.00576e-05)
(-0.00111969 -0.00027714 0.000105873)
(-0.0011772 -0.000278011 0.000117937)
(-0.00122621 -0.000280372 0.000126396)
(-0.00126838 -0.000284219 0.000131657)
(-0.00130465 -0.00028933 0.000134309)
(-0.00133493 -0.000295662 0.000134054)
(-0.00136072 -0.000302778 0.000130811)
(-0.00138266 -0.000310272 0.000123935)
(-0.00140408 -0.000317849 0.00011335)
(-0.00142711 -0.000324492 0.000101083)
(-0.00144719 -0.000331611 8.5833e-05)
(-0.00146659 -0.000337248 6.7204e-05)
(-0.00147844 -0.000342311 4.3273e-05)
(-0.00148504 -0.000344927 1.43783e-05)
(2.54155e-05 4.91773e-06 4.07368e-05)
(1.15911e-05 2.54672e-05 1.39919e-05)
(1.12504e-05 2.35352e-05 -2.78756e-05)
(1.15167e-05 2.19892e-06 -2.11028e-05)
(1.37691e-06 1.3453e-06 -1.58987e-05)
(-1.79319e-05 -6.76591e-06 -2.90945e-05)
(-1.5883e-05 -1.38546e-05 -2.10965e-05)
(-3.2889e-05 -3.51702e-06 -3.06807e-05)
(-2.41709e-05 -1.36126e-05 -3.80081e-05)
(-5.20798e-05 -7.10314e-05 -3.22772e-05)
(-0.000169733 -8.93267e-05 -1.41116e-05)
(-0.00030618 -0.000123391 -5.79532e-05)
(-0.000404501 -0.000169307 -5.7457e-05)
(-0.000537047 -0.000207772 -3.58541e-05)
(-0.000657607 -0.000226816 -1.06409e-05)
(-0.000766282 -0.000236589 1.59232e-05)
(-0.000860416 -0.000239707 4.11978e-05)
(-0.000942173 -0.000239995 6.36164e-05)
(-0.00101162 -0.000239355 8.22944e-05)
(-0.00106931 -0.000239126 9.70948e-05)
(-0.00111778 -0.000240301 0.00010806)
(-0.00115865 -0.000242946 0.000115497)
(-0.00119263 -0.000246803 0.00012017)
(-0.00121952 -0.000252092 0.000121652)
(-0.00124113 -0.000258226 0.000119796)
(-0.00125855 -0.000264762 0.000114033)
(-0.00127627 -0.000271709 0.000104213)
(-0.00129556 -0.000276967 9.3011e-05)
(-0.00131105 -0.000283264 7.91467e-05)
(-0.00132796 -0.000288132 6.21683e-05)
(-0.00133612 -0.00029263 4.01847e-05)
(-0.00134108 -0.000295004 1.33037e-05)
(3.23545e-05 1.39075e-05 3.45302e-05)
(3.55071e-05 6.61673e-06 -7.74411e-06)
(4.2015e-05 2.71617e-06 -1.46893e-05)
(4.44058e-05 -4.43407e-06 -1.75171e-05)
(3.8217e-05 -1.18749e-05 -1.58939e-05)
(2.91129e-05 -1.81748e-05 6.42221e-06)
(-5.32891e-06 1.95867e-05 -1.07221e-05)
(-2.84084e-07 -6.70717e-06 -3.98272e-05)
(-3.32887e-05 -2.26286e-05 -4.41581e-05)
(-3.02288e-05 -3.3463e-05 -4.71167e-05)
(-4.92913e-05 -4.01814e-05 -3.90266e-05)
(-0.000141103 -9.97904e-05 -4.39837e-05)
(-0.000311837 -0.000125715 -4.23459e-05)
(-0.000406084 -0.000152574 -5.73036e-05)
(-0.000529421 -0.000183168 -3.69395e-05)
(-0.000640146 -0.000197375 -1.1531e-05)
(-0.000737895 -0.000203669 1.41853e-05)
(-0.000820288 -0.000205067 3.8142e-05)
(-0.000889985 -0.000204654 5.89703e-05)
(-0.000949084 -0.000204434 7.63573e-05)
(-0.000996986 -0.000205068 8.96881e-05)
(-0.0010361 -0.00020694 9.91504e-05)
(-0.00106747 -0.000209824 0.000105812)
(-0.0010902 -0.000214278 0.000108994)
(-0.00110702 -0.000219623 0.000108445)
(-0.00111903 -0.000225218 0.000103728)
(-0.00113064 -0.000231329 9.43836e-05)
(-0.00114654 -0.000235212 8.42849e-05)
(-0.00115794 -0.000241032 7.19863e-05)
(-0.0011705 -0.000244744 5.666e-05)
(-0.0011752 -0.000248853 3.68213e-05)
(-0.00117806 -0.000251043 1.21304e-05)
(4.55378e-05 1.45121e-05 4.42956e-05)
(6.24993e-05 1.18654e-05 -8.05201e-06)
(6.92473e-05 8.29082e-06 -1.6142e-05)
(7.18281e-05 5.8873e-07 -2.04997e-05)
(7.0318e-05 -8.37256e-06 -2.19737e-05)
(6.44687e-05 -1.52932e-05 -2.12768e-05)
(4.34185e-05 -2.77155e-05 -2.19492e-05)
(4.44831e-05 -2.38505e-05 -2.04319e-05)
(3.03581e-05 -2.63292e-05 -2.09221e-06)
(-2.65965e-05 2.34098e-05 -3.18812e-05)
(-3.96785e-05 -1.75646e-05 -7.56104e-05)
(-6.42785e-05 -6.55101e-05 -5.99463e-05)
(-0.000121367 -0.000118405 -3.75855e-05)
(-0.00027426 -0.000115058 -3.27412e-05)
(-0.000393125 -0.000133737 -5.22948e-05)
(-0.000505417 -0.00015719 -3.34912e-05)
(-0.00060331 -0.00016712 -9.35958e-06)
(-0.000688684 -0.000171789 1.47477e-05)
(-0.000760201 -0.000173148 3.68666e-05)
(-0.000817195 -0.00017314 5.60784e-05)
(-0.000862824 -0.000173678 7.13066e-05)
(-0.000899403 -0.000175287 8.24388e-05)
(-0.000927702 -0.000177432 9.09432e-05)
(-0.000946074 -0.000181375 9.57834e-05)
(-0.00095785 -0.000186159 9.64392e-05)
(-0.000964915 -0.000190929 9.28304e-05)
(-0.000972301 -0.000196892 8.40133e-05)
(-0.000985542 -0.000199351 7.50028e-05)
(-0.000991027 -0.000204458 6.43006e-05)
(-0.00100125 -0.000207457 5.08137e-05)
(-0.00100205 -0.000211126 3.32537e-05)
(-0.00100359 -0.000213455 1.08995e-05)
(5.40686e-05 1.38724e-05 4.67736e-05)
(7.60873e-05 1.11741e-05 -6.98915e-06)
(8.65631e-05 7.67519e-06 -1.60254e-05)
(9.25495e-05 2.86326e-07 -2.17229e-05)