/*--------------------------------*- C++ -*----------------------------------*\
  =========                 |
  \\      /  F ield         | OpenFOAM: The Open Source CFD Toolbox
   \\    /   O peration     | Website:  https://openfoam.org
    \\  /    A nd           | Version:  6
     \\/     M anipulation  |
\*---------------------------------------------------------------------------*/
FoamFile
{
    version     2.0;
    format      ascii;
    class       volVectorField;
    location    "29";
    object      wallShearStress;
}
// * * * * * * * * * * * * * * * * * * * * * * * * * * * * * * * * * * * * * //

dimensions      [0 2 -2 0 0 0 0];

internalField   uniform (0 0 0);

boundaryField
{
    inlet
    {
        type            calculated;
        value           uniform (0 0 0);
    }
    outlet
    {
        type            calculated;
        value           uniform (0 0 0);
    }
    roughCylinder
    {
        type            calculated;
        value           nonuniform List<vector> 
5120
(
(-0.00025139 -0.000357834 -0.00018412)
(-0.000308062 -0.000462342 -4.2163e-05)
(-0.000341667 -0.000556275 -7.70221e-07)
(-0.000387458 -0.000646432 5.40154e-05)
(-0.000444535 -0.000724702 0.000117287)
(-0.000509349 -0.000786611 0.000180874)
(-0.000578423 -0.000829314 0.000240251)
(-0.000647093 -0.000853237 0.000292637)
(-0.000711271 -0.000860858 0.000335931)
(-0.000768884 -0.000857246 0.000369429)
(-0.000820181 -0.000850697 0.000394629)
(-0.000865456 -0.00084684 0.00041342)
(-0.000901736 -0.000845732 0.000424553)
(-0.000932321 -0.0008501 0.000429139)
(-0.000958512 -0.000859166 0.000428214)
(-0.000981653 -0.000872218 0.000422838)
(-0.00100316 -0.000888476 0.000414059)
(-0.00102427 -0.000907288 0.00040278)
(-0.00104594 -0.000928176 0.000389659)
(-0.0010688 -0.000950846 0.000375126)
(-0.00109322 -0.000975125 0.000359384)
(-0.00111931 -0.00100088 0.000342457)
(-0.00114702 -0.00102798 0.00032424)
(-0.0011762 -0.00105627 0.000304546)
(-0.0012066 -0.0010855 0.000283106)
(-0.00123787 -0.00111535 0.000259565)
(-0.00126959 -0.00114535 0.000233439)
(-0.00130116 -0.00117483 0.000203997)
(-0.00133174 -0.00120288 0.000170191)
(-0.00135966 -0.00122793 0.000130301)
(-0.00138247 -0.00124841 8.23714e-05)
(-0.00139517 -0.00126032 2.79605e-05)
(-0.000269951 -0.000346141 -0.000173979)
(-0.000329736 -0.000447889 -4.46322e-05)
(-0.000365926 -0.000540505 -6.53158e-06)
(-0.000413835 -0.000630372 4.48461e-05)
(-0.000472595 -0.000709652 0.000105494)
(-0.000538961 -0.000773349 0.000167296)
(-0.000609441 -0.000818229 0.000225524)
(-0.000679604 -0.000844576 0.000277283)
(-0.000745978 -0.00085526 0.000320583)
(-0.000807012 -0.000855928 0.000355136)
(-0.000862493 -0.000853453 0.000382332)
(-0.000911319 -0.000851175 0.000402976)
(-0.000950446 -0.00084879 0.000415197)
(-0.000982579 -0.000852059 0.000420363)
(-0.0010103 -0.000860411 0.000419751)
(-0.00103488 -0.000873105 0.000414602)
(-0.0010578 -0.000889234 0.000405997)
(-0.00108033 -0.000908055 0.000394885)
(-0.00110346 -0.000929033 0.000381964)
(-0.00112784 -0.000951821 0.000367676)
(-0.00115382 -0.0009762 0.000352231)
(-0.00118153 -0.00100205 0.000335654)
(-0.00121092 -0.00102921 0.000317849)
(-0.00124179 -0.00105753 0.000298616)
(-0.00127391 -0.00108675 0.000277684)
(-0.00130689 -0.00111655 0.000254692)
(-0.00134028 -0.00114647 0.000229156)
(-0.00137348 -0.00117584 0.00020034)
(-0.0014056 -0.00120377 0.000167224)
(-0.00143485 -0.00122867 0.000128063)
(-0.00145879 -0.00124906 8.09695e-05)
(-0.00147208 -0.00126085 2.74981e-05)
(-0.000288381 -0.000329267 -0.000156567)
(-0.000350939 -0.00042802 -4.76242e-05)
(-0.000389524 -0.000518569 -1.29568e-05)
(-0.000439152 -0.000607478 3.4809e-05)
(-0.000499297 -0.000687236 9.25374e-05)
(-0.00056706 -0.000752476 0.000152303)
(-0.000639006 -0.000799684 0.000209301)
(-0.000711023 -0.000829105 0.000260588)
(-0.000780132 -0.000843783 0.000304335)
(-0.000844872 -0.000849053 0.000340318)
(-0.000904265 -0.000850212 0.000369309)
(-0.00095636 -0.000849443 0.000391233)
(-0.000999048 -0.000847088 0.000404749)
(-0.00103285 -0.000848815 0.000410439)
(-0.00106213 -0.000856279 0.000410138)
(-0.00108824 -0.000868432 0.000405255)
(-0.00111267 -0.000884266 0.00039688)
(-0.00113671 -0.000902948 0.000385999)
(-0.00116136 -0.000923846 0.000373334)
(-0.00118729 -0.000946577 0.000359347)
(-0.00121489 -0.000970901 0.000344256)
(-0.00124424 -0.000996658 0.000328096)
(-0.00127531 -0.0010237 0.000310762)
(-0.00130789 -0.00105184 0.000292051)
(-0.00134171 -0.00108086 0.000271688)
(-0.00137638 -0.00111041 0.000249307)
(-0.00141144 -0.00114004 0.000224422)
(-0.00144623 -0.00116911 0.000196296)
(-0.00147985 -0.00119671 0.000163939)
(-0.0015104 -0.00122128 0.000125581)
(-0.00153545 -0.00124142 7.94148e-05)
(-0.00154929 -0.00125301 2.69878e-05)
(-0.000304747 -0.000308456 -0.000134651)
(-0.000369665 -0.000403696 -5.06865e-05)
(-0.000410203 -0.00049144 -1.96302e-05)
(-0.000460963 -0.000578737 2.43422e-05)
(-0.000522052 -0.000658476 7.88715e-05)
(-0.000590995 -0.000725071 0.000136333)
(-0.000664481 -0.00077479 0.000191944)
(-0.000738679 -0.000807785 0.000242772)
(-0.000810835 -0.000826968 0.000287102)
(-0.000879274 -0.000836881 0.000324566)
(-0.000942386 -0.000841415 0.000355213)
(-0.000997928 -0.000842351 0.000378347)
(-0.0010443 -0.000840912 0.000393159)
(-0.00108068 -0.000841079 0.00039953)
(-0.00111166 -0.000847567 0.000399672)
(-0.00113944 -0.000859012 0.000395106)
(-0.00116547 -0.000874413 0.000387027)
(-0.00119107 -0.000892816 0.000376441)
(-0.0012173 -0.000913527 0.000364098)
(-0.00124484 -0.000936092 0.000350474)
(-0.00127404 -0.000960224 0.000335796)
(-0.00130503 -0.000985755 0.000320102)
(-0.00133774 -0.00101252 0.000303288)
(-0.00137197 -0.00104035 0.000285148)
(-0.00140742 -0.00106899 0.000265395)
(-0.00144371 -0.00109812 0.000243663)
(-0.00148033 -0.00112729 0.000219466)
(-0.00151662 -0.00115588 0.000192062)
(-0.00155165 -0.00118301 0.000160506)
(-0.0015834 -0.0012071 0.000122985)
(-0.0016095 -0.00122688 7.77899e-05)
(-0.00162382 -0.0012382 2.64579e-05)
(-0.000318045 -0.000284065 -0.000110395)
(-0.000384926 -0.000375263 -5.34767e-05)
(-0.000426925 -0.000459558 -2.62102e-05)
(-0.00047824 -0.000544632 1.37831e-05)
(-0.000539849 -0.000623851 6.48206e-05)
(-0.0006098 -0.000691611 0.000119656)
(-0.000684951 -0.000743993 0.000173649)
(-0.00076163 -0.000780884 0.000223927)
(-0.000837033 -0.000804702 0.000268805)
(-0.00090909 -0.000819011 0.000307618)
(-0.000975771 -0.000826667 0.000339783)
(-0.00103484 -0.000829376 0.000364169)
(-0.00108473 -0.000829041 0.00038008)
(-0.001125 -0.000828795 0.000387602)
(-0.00115792 -0.000833741 0.000388305)
(-0.0011875 -0.00084428 0.000384162)
(-0.00121524 -0.000859065 0.000376479)
(-0.00124251 -0.000877039 0.000366271)
(-0.00127033 -0.000897398 0.000354318)
(-0.00129944 -0.00091963 0.000341121)
(-0.00133024 -0.000943427 0.000326918)
(-0.00136282 -0.000968575 0.000311748)
(-0.00139711 -0.000994907 0.000295505)
(-0.00143291 -0.00102224 0.00027798)
(-0.00146989 -0.00105033 0.000258879)
(-0.00150767 -0.00107886 0.000237833)
(-0.00154574 -0.0011074 0.000214355)
(-0.0015834 -0.00113533 0.000187702)
(-0.0016197 -0.0011618 0.000156971)
(-0.00165253 -0.00118526 0.00012031)
(-0.0016796 -0.00120456 7.6118e-05)
(-0.00169433 -0.00121554 2.59176e-05)
(-0.000328175 -0.000257441 -8.55539e-05)
(-0.000396506 -0.000344051 -5.58459e-05)
(-0.000439393 -0.000424324 -3.24849e-05)
(-0.000490642 -0.000506585 3.36737e-06)
(-0.000552304 -0.000584785 5.06192e-05)
(-0.000623034 -0.000653445 0.000102473)
(-0.000699848 -0.000708465 0.000154555)
(-0.000779102 -0.000749246 0.000204102)
(-0.000857787 -0.000777482 0.00024937)
(-0.000933422 -0.000795784 0.000289324)
(-0.00100369 -0.00080631 0.000322853)
(-0.0010664 -0.000810819 0.000348521)
(-0.00112005 -0.000811649 0.000365549)
(-0.00116443 -0.00081185 0.000374321)
(-0.00120043 -0.000815194 0.000375915)
(-0.00123201 -0.000824572 0.000372386)
(-0.00126161 -0.000838465 0.000365195)
(-0.00129059 -0.000855763 0.000355466)
(-0.00132008 -0.000875607 0.000344001)
(-0.00135082 -0.00089736 0.000331312)
(-0.00138317 -0.000920652 0.000317649)
(-0.00141728 -0.000945248 0.000303063)
(-0.00145307 -0.00097097 0.000287446)
(-0.00149033 -0.000997626 0.000270581)
(-0.00152872 -0.00102498 0.000252172)
(-0.00156785 -0.00105273 0.000231843)
(-0.00160719 -0.00108045 0.000209111)
(-0.00164605 -0.00110755 0.000183231)
(-0.00168349 -0.00113321 0.000153353)
(-0.00171725 -0.00115588 0.000117569)
(-0.0017452 -0.00117458 7.44068e-05)
(-0.00176025 -0.00118517 2.53701e-05)
(-0.000334003 -0.000228957 -6.11063e-05)
(-0.000403269 -0.000310518 -5.76332e-05)
(-0.000446459 -0.000386222 -3.82496e-05)
(-0.000496992 -0.000465074 -6.72787e-06)
(-0.000558141 -0.000541694 3.63813e-05)
(-0.000629321 -0.000610912 8.48227e-05)
(-0.000707735 -0.000668468 0.000134619)
(-0.000789663 -0.000713104 0.00018317)
(-0.000871757 -0.000745594 0.000228612)
(-0.000951105 -0.000767614 0.00026949)
(-0.00102514 -0.000780862 0.000304243)
(-0.00109168 -0.000787198 0.00033121)
(-0.0011493 -0.000789224 0.000349487)
(-0.0011978 -0.000790141 0.000359471)
(-0.00123817 -0.000793034 0.00036238)
(-0.00127224 -0.000800462 0.000359655)
(-0.00130389 -0.00081323 0.000353133)
(-0.00133479 -0.000829696 0.000344015)
(-0.00136598 -0.000848777 0.000333134)
(-0.00139831 -0.000869839 0.000321032)
(-0.00143221 -0.000892458 0.000307992)
(-0.00146779 -0.000916347 0.000294058)
(-0.00150499 -0.000941308 0.000279124)
(-0.00154358 -0.000967145 0.000262971)
(-0.00158324 -0.00099362 0.000245295)
(-0.00162357 -0.00102044 0.000225719)
(-0.00166402 -0.00104719 0.00020376)
(-0.00170393 -0.00107331 0.000178672)
(-0.00174232 -0.00109799 0.000149666)
(-0.00177686 -0.00111976 0.000114772)
(-0.00180558 -0.00113774 7.26639e-05)
(-0.00182084 -0.00114786 2.48192e-05)
(-0.00033556 -0.000199701 -3.80313e-05)
(-0.000405117 -0.000275778 -5.88316e-05)
(-0.000447992 -0.000346473 -4.34021e-05)
(-0.000497131 -0.000421368 -1.63198e-05)
(-0.000557138 -0.000495832 2.23337e-05)
(-0.000628311 -0.000565144 6.69331e-05)
(-0.000708049 -0.000624889 0.000114015)
(-0.000792456 -0.000673018 0.000161175)
(-0.000877825 -0.000709351 0.000206417)
(-0.000960907 -0.000734774 0.000247918)
(-0.00103889 -0.00075062 0.000283728)
(-0.00110955 -0.000758836 0.000312001)
(-0.00117146 -0.000762181 0.000331703)
(-0.00122424 -0.000763849 0.000343051)
(-0.00126884 -0.000766845 0.000347272)
(-0.00130705 -0.000773228 0.000345839)
(-0.00134117 -0.000784165 0.000340202)
(-0.00137409 -0.000799151 0.000331821)
(-0.00140712 -0.000817326 0.000321679)
(-0.00144113 -0.000837557 0.000310284)
(-0.00147654 -0.000859339 0.000297953)
(-0.00151352 -0.000882358 0.000284745)
(-0.001552 -0.0009064 0.000270556)
(-0.00159177 -0.000931248 0.000255166)
(-0.00163251 -0.000956682 0.000238261)
(-0.00167382 -0.000982407 0.00021947)
(-0.00171516 -0.00100806 0.000198307)
(-0.00175588 -0.00103313 0.00017403)
(-0.00179504 -0.00105678 0.000145921)
(-0.00183015 -0.00107754 0.000111925)
(-0.00185955 -0.00109472 7.08925e-05)
(-0.00187487 -0.00110442 2.42684e-05)
(-0.000331538 -0.000169735 -1.68693e-05)
(-0.000400798 -0.000240009 -5.92725e-05)
(-0.000442718 -0.000305229 -4.77481e-05)
(-0.000489695 -0.000375551 -2.52043e-05)
(-0.000547745 -0.000447119 8.66837e-06)
(-0.000618236 -0.000515852 4.8923e-05)
(-0.000698905 -0.000577328 9.27336e-05)
(-0.000785714 -0.000628714 0.000138005)
(-0.000874527 -0.000668781 0.000182643)
(-0.000961604 -0.000697535 0.000224457)
(-0.00104387 -0.00071598 0.000261153)
(-0.00111896 -0.00072612 0.0002907)
(-0.00118536 -0.000730794 0.000311921)
(-0.0012427 -0.000733267 0.000324863)
(-0.00129164 -0.000736431 0.000330566)
(-0.00133393 -0.000742359 0.000330513)
(-0.00137176 -0.000752073 0.000326138)
(-0.00140773 -0.000765794 0.000318929)
(-0.00144263 -0.000782499 0.000309668)
(-0.00147828 -0.000801539 0.000299081)
(-0.00151517 -0.000822279 0.000287561)
(-0.00155347 -0.000844308 0.000275168)
(-0.0015931 -0.000867343 0.000261799)
(-0.00163388 -0.000891169 0.00024723)
(-0.0016755 -0.000915548 0.000231144)
(-0.00171758 -0.000940191 0.000213172)
(-0.00175952 -0.000964705 0.000192822)
(-0.0018007 -0.000988576 0.00016935)
(-0.00184027 -0.00101103 0.000142139)
(-0.00187571 -0.0010307 0.000109039)
(-0.00190562 -0.00104701 6.91014e-05)
(-0.00192074 -0.00105618 2.37205e-05)
(-0.000322572 -0.000140427 1.72483e-06)
(-0.000390678 -0.000204226 -5.92128e-05)
(-0.000431033 -0.000263982 -5.12569e-05)
(-0.000475233 -0.000329234 -3.31964e-05)
(-0.00053055 -0.000397253 -4.29641e-06)
(-0.000599617 -0.000464699 3.11874e-05)
(-0.00068063 -0.000527259 7.1162e-05)
(-0.000769338 -0.000581289 0.000113925)
(-0.000861191 -0.000624554 0.000157365)
(-0.000952183 -0.000656375 0.000199039)
(-0.00103893 -0.000677383 0.000236377)
(-0.00111879 -0.000689477 0.000267136)
(-0.00119017 -0.000695587 0.000289981)
(-0.00125236 -0.000698879 0.00030471)
(-0.00130591 -0.00070224 0.000312148)
(-0.0013523 -0.000707735 0.000313652)
(-0.00139383 -0.000716602 0.000310733)
(-0.00143274 -0.000729169 0.000304817)
(-0.00147018 -0.000744501 0.000296707)
(-0.00150783 -0.000762295 0.000287177)
(-0.00154623 -0.000781831 0.000276622)
(-0.00158568 -0.000802679 0.000265145)
(-0.00162619 -0.000824524 0.000252664)
(-0.00166759 -0.000847122 0.000238961)
(-0.00170961 -0.000870236 0.000223719)
(-0.00175193 -0.000893586 0.000206578)
(-0.001794 -0.000916747 0.000187049)
(-0.00183529 -0.000939227 0.000164406)
(-0.00187502 -0.000960371 0.000138145)
(-0.0019105 -0.000978827 0.000105979)
(-0.00194076 -0.000994189 6.72019e-05)
(-0.00195548 -0.00100272 2.31453e-05)
(-0.000305418 -0.000111107 1.73506e-05)
(-0.00037424 -0.000169046 -5.82717e-05)
(-0.000411577 -0.000222743 -5.38184e-05)
(-0.000451991 -0.000282234 -4.00164e-05)
(-0.000503421 -0.000345752 -1.62324e-05)
(-0.00056988 -0.00041082 1.39952e-05)
(-0.00065036 -0.000473601 4.94046e-05)
(-0.000740697 -0.000529902 8.89035e-05)
(-0.000835896 -0.000576448 0.000130516)
(-0.000931212 -0.000611511 0.000171587)
(-0.00102282 -0.000635224 0.00020928)
(-0.00110791 -0.000649405 0.000241157)
(-0.00118448 -0.000656879 0.000265633)
(-0.00125188 -0.000660963 0.000282301)
(-0.00131036 -0.000664515 0.000291719)
(-0.00136131 -0.000669683 0.0002951)
(-0.0014067 -0.000677727 0.000293871)
(-0.00144877 -0.000689147 0.000289443)
(-0.00148871 -0.000703143 0.000282656)
(-0.00152824 -0.000719568 0.000274332)
(-0.0015681 -0.000737762 0.000264892)
(-0.0016086 -0.000757251 0.000254455)
(-0.00164981 -0.000777717 0.000242961)
(-0.00169162 -0.000798898 0.000230203)
(-0.00173379 -0.000820554 0.000215865)
(-0.00177609 -0.000842412 0.000199607)
(-0.00181801 -0.000864075 0.000180942)
(-0.00185919 -0.000885064 0.000159175)
(-0.00189875 -0.00090477 0.000133917)
(-0.00193397 -0.000921945 0.000102729)
(-0.00196443 -0.00093629 6.51846e-05)
(-0.00197864 -0.000944134 2.2542e-05)
(-0.000281821 -8.31425e-05 2.99596e-05)
(-0.000351797 -0.000135841 -5.65532e-05)
(-0.000385959 -0.000183236 -5.54411e-05)
(-0.000421823 -0.000236735 -4.5546e-05)
(-0.000468507 -0.000295129 -2.67546e-05)
(-0.000531382 -0.000356945 -2.04403e-06)
(-0.000610397 -0.000419033 2.81848e-05)
(-0.000701417 -0.000476732 6.35865e-05)
(-0.000798967 -0.00052576 0.000102504)
(-0.000898149 -0.000563717 0.000142278)
(-0.000994748 -0.000590183 0.000179911)
(-0.0010853 -0.000606503 0.000212705)
(-0.00116774 -0.000615525 0.000238861)
(-0.00124078 -0.000620382 0.000257602)
(-0.00130456 -0.00062405 0.000269226)
(-0.00136016 -0.000628712 0.000274708)
(-0.00140965 -0.000635867 0.000275433)
(-0.00145493 -0.000646008 0.00027271)
(-0.00149753 -0.000658614 0.000267473)
(-0.0015391 -0.000673609 0.000260556)
(-0.00158037 -0.000690317 0.00025238)
(-0.00162179 -0.000708298 0.000243112)
(-0.00166351 -0.000727227 0.00023271)
(-0.00170546 -0.00074684 0.00022098)
(-0.00174749 -0.000766899 0.000207611)
(-0.00178942 -0.000787134 0.000192286)
(-0.00183079 -0.000807139 0.00017452)
(-0.00187143 -0.000826496 0.000153662)
(-0.00191052 -0.000844686 0.000129464)
(-0.00194515 -0.000860508 9.9292e-05)
(-0.00197561 -0.000873752 6.30485e-05)
(-0.00198905 -0.00088086 2.19118e-05)
(-0.000250772 -5.71714e-05 3.92903e-05)
(-0.000321001 -0.00010425 -5.37464e-05)
(-0.000351979 -0.000145252 -5.57156e-05)
(-0.000382402 -0.000192208 -4.93159e-05)
(-0.000422816 -0.00024434 -3.53205e-05)
(-0.00048021 -0.000301316 -1.63508e-05)
(-0.000556044 -0.000361225 7.93486e-06)
(-0.000647003 -0.000419638 3.82025e-05)
(-0.000747418 -0.000471465 7.34805e-05)
(-0.000851099 -0.000512806 0.000111217)
(-0.00095302 -0.000542325 0.000148261)
(-0.00104968 -0.00056117 0.000181729)
(-0.00113813 -0.000571744 0.000209436)
(-0.00121722 -0.000577384 0.000230343)
(-0.00128671 -0.000581097 0.000244378)
(-0.00134766 -0.000585315 0.000252305)
(-0.00140159 -0.000591499 0.000255285)
(-0.00145053 -0.00060033 0.000254589)
(-0.00149587 -0.000611418 0.000251138)
(-0.00153937 -0.00062478 0.000245802)
(-0.00158198 -0.000639854 0.000239062)
(-0.00162421 -0.000656199 0.000231107)
(-0.00166623 -0.000673475 0.000221917)
(-0.00170805 -0.000691409 0.000211306)
(-0.00174959 -0.000709757 0.00019897)
(-0.0017908 -0.000728272 0.000184632)
(-0.00183131 -0.000746582 0.000167811)
(-0.00187119 -0.000764288 0.000147903)
(-0.00190939 -0.000780885 0.000124812)
(-0.00194311 -0.000795316 9.56835e-05)
(-0.00197346 -0.000807449 6.08091e-05)
(-0.00198598 -0.000813828 2.1264e-05)
(-0.000214704 -3.47246e-05 4.52947e-05)
(-0.000283822 -7.56952e-05 -5.00735e-05)
(-0.000312308 -0.000110781 -5.48915e-05)
(-0.0003376 -0.000151421 -5.14654e-05)
(-0.000371392 -0.000197043 -4.17298e-05)
(-0.000422384 -0.000248411 -2.82735e-05)
(-0.000493838 -0.000305039 -1.03013e-05)
(-0.000583066 -0.000362848 1.39322e-05)
(-0.000684031 -0.00041598 4.44141e-05)
(-0.000790893 -0.000460027 7.90755e-05)
(-0.000898094 -0.000492745 0.00011481)
(-0.0010006 -0.00051413 0.000148449)
(-0.00109578 -0.000526642 0.000177601)
(-0.00118143 -0.000533197 0.000200716)
(-0.00125713 -0.00053697 0.000217357)
(-0.00132335 -0.00054044 0.000227911)
(-0.00138194 -0.000545462 0.000233423)
(-0.0014345 -0.000552739 0.000235001)
(-0.0014828 -0.000562199 0.000233617)
(-0.00152849 -0.000573881 0.000230126)
(-0.00157244 -0.000587209 0.000225016)
(-0.0016153 -0.0006018 0.000218526)
(-0.00165737 -0.000617314 0.000210661)
(-0.00169873 -0.000633481 0.000201258)
(-0.00173942 -0.000650059 0.000190014)
(-0.00177949 -0.000666797 0.000176704)
(-0.00181861 -0.00068332 0.000160843)
(-0.00185718 -0.00069928 0.000141897)
(-0.00189422 -0.000714288 0.000119968)
(-0.00192662 -0.000727319 9.19042e-05)
(-0.00195656 -0.00073825 5.84594e-05)
(-0.00196787 -0.000743895 2.05975e-05)
(-0.000172558 -1.59512e-05 4.76238e-05)
(-0.000238308 -5.00719e-05 -4.50498e-05)
(-0.000264258 -7.91449e-05 -5.23705e-05)
(-0.000284044 -0.000113054 -5.13384e-05)
(-0.000309768 -0.000151081 -4.51351e-05)
(-0.00035166 -0.000194831 -3.67288e-05)
(-0.000415593 -0.000245781 -2.53425e-05)
(-0.000501404 -0.000301638 -8.22341e-06)
(-0.000603906 -0.00035665 1.60876e-05)
(-0.00071468 -0.000404126 4.64094e-05)
(-0.000827009 -0.0004404 7.98397e-05)
(-0.000936587 -0.000465321 0.000113131)
(-0.00103854 -0.000480038 0.000143326)
(-0.0011311 -0.000487768 0.000168554)
(-0.00121324 -0.000491656 0.000187877)
(-0.00128569 -0.000494618 0.00020139)
(-0.00134941 -0.000498452 0.000209753)
(-0.00140623 -0.000504186 0.000213972)
(-0.00145759 -0.000511874 0.000214925)
(-0.00150525 -0.000521645 0.000213479)
(-0.00155043 -0.000533103 0.000210198)
(-0.00159377 -0.000545853 0.000205338)
(-0.00163567 -0.000559561 0.000198932)
(-0.00167625 -0.000573927 0.000190827)
(-0.00171568 -0.000588716 0.000180733)
(-0.0017542 -0.000603674 0.000168494)
(-0.00179164 -0.000618471 0.000153627)
(-0.00182872 -0.00063278 0.000135678)
(-0.00186407 -0.000646172 0.000114948)
(-0.00189479 -0.000657831 8.7964e-05)
(-0.00192433 -0.000667612 5.60147e-05)
(-0.00193425 -0.000672595 1.9922e-05)
(-0.000128117 -2.51239e-06 4.6684e-05)
(-0.000188368 -2.94406e-05 -3.89675e-05)
(-0.000212939 -5.29258e-05 -4.85133e-05)
(-0.00022903 -8.08694e-05 -4.95271e-05)
(-0.00024777 -0.000111837 -4.60268e-05)
(-0.000281003 -0.000147989 -4.17063e-05)
(-0.000336854 -0.000192499 -3.64868e-05)
(-0.000416186 -0.000244184 -2.69801e-05)
(-0.000514495 -0.000297714 -9.97384e-06)
(-0.000626516 -0.000347338 1.47133e-05)
(-0.000744091 -0.000387608 4.46873e-05)
(-0.000858784 -0.000415605 7.6579e-05)
(-0.000967854 -0.000433143 0.000107337)
(-0.00106753 -0.000442427 0.000134428)
(-0.00115676 -0.00044681 0.000156476)
(-0.00123505 -0.000449063 0.000172989)
(-0.00130394 -0.000451605 0.000184411)
(-0.00136473 -0.000455555 0.000191477)
(-0.00141931 -0.000461379 0.00019505)
(-0.00146933 -0.000469267 0.000195951)
(-0.00151574 -0.000478802 0.000194715)
(-0.00155939 -0.000489662 0.00019165)
(-0.00160074 -0.000501508 0.000186816)
(-0.00164014 -0.000514078 0.000180093)
(-0.00167788 -0.0005271 0.000171197)
(-0.00171438 -0.000540316 0.000160059)
(-0.00174946 -0.000553369 0.000146177)
(-0.00178437 -0.000565991 0.000129217)
(-0.00181777 -0.000577866 0.000109747)
(-0.00184633 -0.000588211 8.38476e-05)
(-0.00187513 -0.00059677 5.34543e-05)
(-0.00188327 -0.000601116 1.92311e-05)
(-8.05338e-05 8.37937e-06 4.359e-05)
(-0.000132279 -1.10046e-05 -3.1185e-05)
(-0.000154106 -2.84462e-05 -4.23282e-05)
(-0.000165306 -4.96183e-05 -4.41844e-05)
(-0.000177061 -7.27419e-05 -4.23041e-05)
(-0.000198817 -9.95117e-05 -4.13886e-05)
(-0.000239702 -0.000133996 -4.10285e-05)
(-0.000311024 -0.000180254 -3.88661e-05)
(-0.000409301 -0.000234461 -3.11548e-05)
(-0.000522051 -0.000286324 -1.444e-05)
(-0.000641969 -0.0003301 1.03973e-05)
(-0.000764831 -0.00036362 3.98423e-05)
(-0.000881063 -0.00038483 7.01722e-05)
(-0.000988315 -0.000396547 9.86091e-05)
(-0.00108425 -0.000401739 0.000123068)
(-0.00116941 -0.000403938 0.0001427)
(-0.00124397 -0.000405446 0.000157378)
(-0.0013096 -0.000407882 0.000167622)
(-0.0013675 -0.000411826 0.000174068)
(-0.00141942 -0.000417649 0.00017749)
(-0.00146683 -0.000425193 0.000178494)
(-0.00151053 -0.000434145 0.000177389)
(-0.00155117 -0.000444194 0.000174271)
(-0.00158898 -0.000455021 0.000169013)
(-0.00162457 -0.00046635 0.000161357)
(-0.00165859 -0.00047792 0.000151352)
(-0.00169107 -0.000489401 0.000138478)
(-0.0017237 -0.000500522 0.000122539)
(-0.00175455 -0.000510916 0.000104366)
(-0.00178063 -0.00052007 7.95595e-05)
(-0.00180871 -0.000527491 5.07892e-05)
(-0.00181492 -0.000531324 1.85344e-05)
(-4.27771e-05 1.00754e-05 3.68186e-05)
(-8.28057e-05 -2.4833e-06 -2.1206e-05)
(-0.000104932 -1.41007e-05 -2.89685e-05)
(-0.000121737 -2.88447e-05 -3.42902e-05)
(-0.000128984 -4.63035e-05 -3.85136e-05)
(-0.000137869 -6.55239e-05 -3.82085e-05)
(-0.000170276 -8.94713e-05 -4.13462e-05)
(-0.000228539 -0.000127276 -4.84612e-05)
(-0.000300242 -0.000171376 -4.70312e-05)
(-0.000410855 -0.000225373 -3.80309e-05)
(-0.000536412 -0.000274347 -2.04997e-05)
(-0.000660159 -0.000310975 4.48777e-06)
(-0.000782416 -0.000336549 3.33831e-05)
(-0.000896111 -0.000351159 6.22765e-05)
(-0.000999585 -0.000358193 8.87544e-05)
(-0.00109067 -0.000360475 0.000111181)
(-0.00117061 -0.000361147 0.000129079)
(-0.00124016 -0.000361967 0.000142517)
(-0.00130131 -0.000364102 0.000152021)
(-0.00135566 -0.000368081 0.000158245)
(-0.00140409 -0.000373719 0.000161699)
(-0.00144765 -0.000380832 0.000162713)
(-0.00148699 -0.0003891 0.0001614)
(-0.00152276 -0.000398277 0.000157674)
(-0.0015557 -0.000408027 0.000151284)
(-0.00158667 -0.000418063 0.000142418)
(-0.00161577 -0.000428017 0.000130521)
(-0.00164535 -0.000437659 0.000115581)
(-0.00167335 -0.000446733 9.87725e-05)
(-0.00169626 -0.000454773 7.50537e-05)
(-0.00172344 -0.000461067 4.79827e-05)
(-0.00172727 -0.00046442 1.78172e-05)
(-1.93541e-05 1.27487e-05 3.04696e-05)
(-3.08907e-05 3.49541e-06 -1.63367e-05)
(-3.82753e-05 -3.04071e-06 -3.19402e-05)
(-3.37777e-05 -1.81644e-05 -3.6814e-05)
(-3.26081e-05 -3.2919e-05 -2.43178e-05)
(-3.81366e-05 -3.21872e-05 -1.15966e-05)
(-4.94972e-05 -3.07792e-05 -1.87523e-05)
(-0.000113716 -8.13776e-05 -3.46143e-05)
(-0.000207704 -0.000116514 -3.65879e-05)
(-0.000290261 -0.00015615 -5.47698e-05)
(-0.000405074 -0.000208847 -4.53557e-05)
(-0.000539168 -0.000254387 -2.58637e-05)
(-0.000667695 -0.000285332 -1.08904e-06)
(-0.000789058 -0.000304855 2.66576e-05)
(-0.000898344 -0.000314323 5.4e-05)
(-0.000996312 -0.000317984 7.87814e-05)
(-0.00108188 -0.000318577 9.97048e-05)
(-0.00115654 -0.000318563 0.000116452)
(-0.00122101 -0.000319193 0.000129128)
(-0.00127684 -0.000321294 0.000138208)
(-0.00132582 -0.000325093 0.000144234)
(-0.00136881 -0.000330468 0.000147491)
(-0.00140675 -0.000337162 0.000148119)
(-0.00143999 -0.000344851 0.000145982)
(-0.00146981 -0.000353175 0.000140873)
(-0.00149732 -0.000361866 0.000133166)
(-0.00152285 -0.000370513 0.000122256)
(-0.00154935 -0.000378947 0.000108347)
(-0.00157407 -0.000386819 9.29611e-05)
(-0.00159377 -0.000393986 7.03473e-05)
(-0.00161977 -0.000399181 4.50388e-05)
(-0.00162113 -0.000402191 1.70865e-05)
(7.62201e-06 1.32932e-05 2.17705e-05)
(1.27376e-06 4.30957e-06 -1.31864e-05)
(-4.45263e-06 1.86787e-06 -2.27845e-05)
(-4.50533e-06 -3.40187e-06 -2.93519e-05)
(-5.21054e-06 -1.16092e-05 -2.33497e-05)
(-1.51672e-05 -1.68386e-05 -2.24189e-05)
(-2.70492e-05 -2.46957e-05 -2.73824e-05)
(-5.12406e-05 -6.02282e-05 -3.48426e-05)
(-6.52188e-05 -6.48849e-05 -1.70459e-05)
(-0.000186177 -0.000103106 -3.05642e-05)
(-0.000299771 -0.000146286 -5.71724e-05)
(-0.000415491 -0.000194861 -5.052e-05)
(-0.000546467 -0.000234077 -3.13226e-05)
(-0.000671125 -0.000258189 -6.30354e-06)
(-0.000787807 -0.000272007 2.06544e-05)
(-0.000890739 -0.000277546 4.6763e-05)
(-0.000981107 -0.000278729 7.01585e-05)
(-0.00105885 -0.000278021 8.98129e-05)
(-0.00112601 -0.000277512 0.000105572)
(-0.00118404 -0.000278315 0.000117655)
(-0.00123359 -0.000280604 0.000126377)
(-0.00127575 -0.000284484 0.000131978)
(-0.00131147 -0.000289709 0.000134573)
(-0.00134164 -0.0002961 0.000134045)
(-0.00136779 -0.000303175 0.000130197)
(-0.00139117 -0.000310667 0.000123621)
(-0.00141235 -0.00031806 0.000113646)
(-0.00143503 -0.000325389 0.000100744)
(-0.00145583 -0.000332146 8.68384e-05)
(-0.00147119 -0.000338414 6.53227e-05)
(-0.00149651 -0.00034273 4.19004e-05)
(-0.00149495 -0.000345386 1.63152e-05)
(2.50841e-05 2.83905e-06 2.05971e-05)
(2.57068e-05 5.26478e-06 8.28081e-06)
(1.5186e-05 1.326e-05 1.18562e-05)
(-4.80531e-06 2.42752e-05 4.89042e-06)
(-1.66586e-05 2.73304e-05 -2.44249e-05)
(-6.45898e-06 3.13702e-06 -3.37605e-05)
(-2.05087e-05 -1.93056e-05 -3.52777e-05)
(-2.56463e-05 -3.11978e-05 -3.31771e-05)
(-3.62347e-05 -3.77918e-05 -3.03133e-05)
(-5.19031e-05 -4.05668e-05 -2.29553e-05)
(-0.000160827 -8.65788e-05 -4.42096e-05)
(-0.000286388 -0.000133855 -5.93533e-05)
(-0.000409673 -0.000175501 -5.33996e-05)
(-0.000542503 -0.000209687 -3.4265e-05)
(-0.000661988 -0.000227857 -9.96349e-06)
(-0.000770734 -0.000237249 1.61402e-05)
(-0.000865598 -0.000240304 4.10543e-05)
(-0.000948111 -0.000240407 6.32283e-05)
(-0.00101799 -0.000239533 8.18361e-05)
(-0.00107645 -0.000239252 9.66869e-05)
(-0.00112566 -0.000240312 0.000108043)
(-0.00116636 -0.00024298 0.000115989)
(-0.00119979 -0.000247109 0.00012062)
(-0.00122638 -0.000252446 0.000121689)
(-0.00124846 -0.000258472 0.000119069)
(-0.0012675 -0.000265011 0.000113625)
(-0.0012843 -0.000271301 0.000104587)
(-0.00130315 -0.000277833 9.27298e-05)
(-0.00132043 -0.000283748 8.04255e-05)
(-0.0013322 -0.000289506 6.00696e-05)
(-0.00135562 -0.000292786 3.85689e-05)
(-0.00135121 -0.000295147 1.55056e-05)
(3.39007e-05 1.08665e-05 3.43366e-05)
(4.25237e-05 7.83441e-06 -5.67468e-06)
(4.12732e-05 2.73783e-06 -8.95259e-06)
(3.25239e-05 -4.8193e-06 -1.1444e-05)
(2.49802e-05 -1.18845e-05 -1.73465e-05)
(2.68638e-05 -1.6194e-05 -1.93119e-05)
(2.17238e-05 -2.1021e-05 -3.6713e-07)
(-5.73116e-06 6.7379e-06 -4.56938e-06)
(-1.54358e-05 2.23496e-06 -3.13469e-05)
(-2.01411e-05 -1.78916e-05 -3.13679e-05)
(-3.59688e-05 -2.82695e-05 -1.98132e-05)
(-0.000150226 -7.67823e-05 -4.24371e-05)
(-0.000301758 -0.000120938 -5.98085e-05)
(-0.000409133 -0.000157395 -5.57204e-05)
(-0.00053393 -0.000184641 -3.56179e-05)
(-0.000644888 -0.000198328 -1.12976e-05)
(-0.000742664 -0.00020426 1.38736e-05)
(-0.000825887 -0.000205331 3.74972e-05)
(-0.000896919 -0.000204754 5.83641e-05)
(-0.000956832 -0.000204465 7.58085e-05)
(-0.00100576 -0.000204946 8.96975e-05)
(-0.00104455 -0.000206832 9.99278e-05)
(-0.00107469 -0.000210081 0.000106499)
(-0.00109708 -0.000214603 0.000109078)
(-0.00111455 -0.000219757 0.000107585)
(-0.00112847 -0.000225437 0.000103186)
(-0.00114027 -0.000230496 9.50184e-05)
(-0.00115482 -0.000236479 8.42055e-05)
(-0.00116689 -0.000241334 7.34984e-05)
(-0.00117299 -0.000246195 5.43089e-05)
(-0.00119646 -0.000249077 3.49514e-05)
(-0.00118875 -0.000250903 1.46031e-05)
(4.53062e-05 1.4029e-05 4.315e-05)
(6.19443e-05 1.10283e-05 -8.2317e-06)
(6.7887e-05 7.3201e-06 -1.60948e-05)
(6.90157e-05 -3.33092e-07 -2.06204e-05)
(6.66614e-05 -9.27507e-06 -2.27744e-05)
(6.27742e-05 -1.70298e-05 -2.2692e-05)
(5.47092e-05 -2.22265e-05 -2.05507e-05)
(3.26098e-05 -2.98078e-05 -1.8247e-05)
(1.97653e-05 -2.38344e-05 -1.1748e-05)
(-5.73983e-06 -7.08585e-06 -2.11707e-05)
(-1.7558e-05 -1.0935e-05 -2.15736e-05)
(-7.02816e-05 -3.28987e-05 -4.46508e-05)
(-0.000137128 -8.79576e-05 -5.37519e-05)
(-0.000278356 -0.000114302 -4.8075e-05)
(-0.00039541 -0.000136823 -5.26838e-05)
(-0.000508712 -0.000158108 -3.33811e-05)
(-0.000607707 -0.000167757 -9.99757e-06)
(-0.000694706 -0.000172057 1.37597e-05)
(-0.000766979 -0.000172939 3.60163e-05)
(-0.000825072 -0.000173015 5.53045e-05)
(-0.000872098 -0.00017337 7.12943e-05)
(-0.000908282 -0.000174972 8.35727e-05)
(-0.00093497 -0.000177796 9.19665e-05)
(-0.000952692 -0.000181736 9.59024e-05)
(-0.000965481 -0.00018619 9.54282e-05)
(-0.000974515 -0.000191259 9.20533e-05)
(-0.000981794 -0.000194982 8.47822e-05)
(-0.000991876 -0.000200784 7.50617e-05)
(-0.00100123 -0.000205096 6.62013e-05)
(-0.00100425 -0.000209678 4.83474e-05)
(-0.00102465 -0.000211669 3.1089e-05)
(-0.00101454 -0.000212947 1.36266e-05)
(5.43496e-05 1.34185e-05 4.58654e-05)
(7.61102e-05 1.04377e-05 -7.33902e-06)
(8.62083e-05 6.73285e-06 -1.60867e-05)
(9.19152e-05 -8.03921e-07 -2.16007e-05)