/*--------------------------------*- C++ -*----------------------------------*\
  =========                 |
  \\      /  F ield         | OpenFOAM: The Open Source CFD Toolbox
   \\    /   O peration     | Website:  https://openfoam.org
    \\  /    A nd           | Version:  6
     \\/     M anipulation  |
\*---------------------------------------------------------------------------*/
FoamFile
{
    version     2.0;
    format      ascii;
    class       volVectorField;
    location    "13";
    object      wallShearStress;
}
// * * * * * * * * * * * * * * * * * * * * * * * * * * * * * * * * * * * * * //

dimensions      [0 2 -2 0 0 0 0];

internalField   uniform (0 0 0);

boundaryField
{
    inlet
    {
        type            calculated;
        value           uniform (0 0 0);
    }
    outlet
    {
        type            calculated;
        value           uniform (0 0 0);
    }
    roughCylinder
    {
        type            calculated;
        value           nonuniform List<vector> 
5120
(
(-0.00045745 -0.000650141 -0.000347056)
(-0.000383486 -0.000561977 -3.76703e-05)
(-0.000347679 -0.00054228 2.03449e-06)
(-0.000385356 -0.000605409 4.96292e-05)
(-0.000452122 -0.000683984 0.000105044)
(-0.000522859 -0.000744269 0.000157512)
(-0.000594327 -0.000784134 0.000203745)
(-0.000662192 -0.000805723 0.000242478)
(-0.000723968 -0.000813058 0.000272961)
(-0.000779631 -0.000813845 0.000296055)
(-0.000830174 -0.000815235 0.000313754)
(-0.000872675 -0.000817809 0.000325261)
(-0.000908533 -0.000824686 0.000330949)
(-0.00093917 -0.000835931 0.000331832)
(-0.000965626 -0.00085094 0.000329051)
(-0.000989537 -0.000868942 0.000323712)
(-0.00101236 -0.000889069 0.000316638)
(-0.00103551 -0.000910939 0.000308425)
(-0.00105967 -0.00093415 0.000299295)
(-0.00108522 -0.00095857 0.000289329)
(-0.00111229 -0.000984163 0.00027851)
(-0.00114085 -0.00101089 0.000266767)
(-0.00117076 -0.00103864 0.000253987)
(-0.00120185 -0.00106725 0.000240018)
(-0.00123382 -0.00109645 0.000224607)
(-0.00126633 -0.00112589 0.000207392)
(-0.00129887 -0.00115506 0.000187819)
(-0.00133076 -0.00118332 0.000165141)
(-0.00136098 -0.00120973 0.000138229)
(-0.00138804 -0.00123299 0.000105924)
(-0.00140918 -0.00125142 6.6507e-05)
(-0.00142075 -0.00126215 2.22399e-05)
(-0.00047505 -0.000616837 -0.00032814)
(-0.000404691 -0.00054065 -4.07433e-05)
(-0.000367102 -0.000525689 -3.96116e-06)
(-0.000404717 -0.000587728 4.05098e-05)
(-0.000473097 -0.000666872 9.3779e-05)
(-0.000545751 -0.000728906 0.00014494)
(-0.000619137 -0.000770923 0.000190326)
(-0.000689338 -0.000795164 0.000228638)
(-0.000754437 -0.000806325 0.00025946)
(-0.000814443 -0.000811393 0.000283857)
(-0.000868694 -0.000815024 0.000302946)
(-0.000914619 -0.000817296 0.000315633)
(-0.000952179 -0.00082286 0.000321909)
(-0.000984338 -0.000833091 0.000323085)
(-0.00101232 -0.000847451 0.000320537)
(-0.00103762 -0.000864949 0.000315331)
(-0.00106195 -0.000884868 0.00030842)
(-0.00108637 -0.000906414 0.000300314)
(-0.00111185 -0.000929362 0.00029135)
(-0.00113882 -0.000953578 0.000281624)
(-0.00116736 -0.00097896 0.000271105)
(-0.00119741 -0.00100544 0.000259717)
(-0.00122885 -0.0010329 0.000247348)
(-0.00126145 -0.00106117 0.000233828)
(-0.00129494 -0.00109001 0.00021891)
(-0.00132894 -0.00111904 0.000202231)
(-0.00136294 -0.00114781 0.000183237)
(-0.00139623 -0.00117565 0.000161187)
(-0.00142773 -0.00120166 0.000134967)
(-0.00145591 -0.00122456 0.000103446)
(-0.00147791 -0.0012427 6.49446e-05)
(-0.00148997 -0.00125325 2.17067e-05)
(-0.000522428 -0.000613267 -0.000315936)
(-0.000446698 -0.000538855 -4.61699e-05)
(-0.000392781 -0.000512888 -1.08949e-05)
(-0.000423159 -0.000564886 3.06344e-05)
(-0.000492201 -0.00064321 8.15761e-05)
(-0.000566444 -0.000706522 0.000131253)
(-0.000641696 -0.000750754 0.000175759)
(-0.000714713 -0.000778473 0.000213949)
(-0.000783689 -0.000794099 0.000245528)
(-0.000847712 -0.000802999 0.000271137)
(-0.000905568 -0.000808828 0.000291248)
(-0.000955214 -0.000812116 0.000305072)
(-0.000994821 -0.000815983 0.000311878)
(-0.0010286 -0.000825173 0.000313434)
(-0.0010581 -0.000838604 0.00031112)
(-0.00108495 -0.00085551 0.000306139)
(-0.00111052 -0.000874762 0.000299355)
(-0.00113643 -0.000895959 0.000291471)
(-0.00116337 -0.000918566 0.000282754)
(-0.00119169 -0.00094236 0.000273301)
(-0.0012216 -0.00096728 0.000263112)
(-0.00125308 -0.000993269 0.000252115)
(-0.00128594 -0.00102021 0.000240187)
(-0.00132001 -0.00104796 0.000227167)
(-0.00135496 -0.00107622 0.000212792)
(-0.0013904 -0.00110467 0.000196695)
(-0.00142579 -0.00113282 0.000178323)
(-0.00146038 -0.00116005 0.000156948)
(-0.00149309 -0.00118547 0.000131472)
(-0.00152231 -0.00120786 0.000100793)
(-0.00154512 -0.00122558 6.32735e-05)
(-0.00155762 -0.00123587 2.11376e-05)
(-0.000526208 -0.000553853 -0.000272768)
(-0.000458292 -0.000500446 -4.85825e-05)
(-0.000409773 -0.000486172 -1.77866e-05)
(-0.000437016 -0.0005355 2.02329e-05)
(-0.00050612 -0.000612849 6.85269e-05)
(-0.000582172 -0.000677806 0.000116581)
(-0.000659856 -0.000725039 0.000160223)
(-0.00073591 -0.000756631 0.000198333)
(-0.000808404 -0.000776482 0.000230609)
(-0.000876468 -0.000789273 0.000257455)
(-0.000938012 -0.000797377 0.000278595)
(-0.000990926 -0.000801878 0.000293259)
(-0.00103412 -0.000805308 0.00030098)
(-0.00106957 -0.000812933 0.000302972)
(-0.00110079 -0.000825346 0.000300995)
(-0.00112909 -0.000841321 0.000296262)
(-0.00115642 -0.000860117 0.000289802)
(-0.00118364 -0.000880659 0.000282144)
(-0.00121185 -0.000902652 0.000273691)
(-0.0012416 -0.000925934 0.000264581)
(-0.00127296 -0.000950348 0.000254794)
(-0.00130586 -0.000975775 0.000244245)
(-0.00134016 -0.00100211 0.000232815)
(-0.00137561 -0.00102916 0.000220325)
(-0.00141191 -0.0010567 0.00020652)
(-0.00144866 -0.00108438 0.00019103)
(-0.0014853 -0.00111175 0.000173305)
(-0.00152109 -0.00113821 0.000152624)
(-0.00155488 -0.0011629 0.000127911)
(-0.00158502 -0.00118462 9.80921e-05)
(-0.00160856 -0.00120183 6.15743e-05)
(-0.00162144 -0.0012118 2.05601e-05)
(-0.000569969 -0.000535403 -0.000251809)
(-0.00048647 -0.000481784 -5.21603e-05)
(-0.000425578 -0.000457912 -2.46384e-05)
(-0.000446549 -0.000501905 9.71495e-06)
(-0.000515307 -0.000577983 5.50652e-05)
(-0.000592666 -0.000644023 0.000101184)
(-0.000672254 -0.00069369 0.00014367)
(-0.000751325 -0.000729134 0.000181573)
(-0.000827883 -0.000753652 0.000214599)
(-0.000899611 -0.000769917 0.000242503)
(-0.000964661 -0.000780175 0.000264654)
(-0.0010212 -0.000786132 0.000280185)
(-0.00106821 -0.000790067 0.000288891)
(-0.00110652 -0.000796183 0.000291629)
(-0.00113948 -0.000807286 0.000290115)
(-0.00116969 -0.000822353 0.000285809)
(-0.00119825 -0.00084003 0.000279613)
(-0.00122708 -0.000859932 0.000272334)
(-0.00125686 -0.000881363 0.000264278)
(-0.00128794 -0.000903943 0.000255556)
(-0.00132054 -0.000927586 0.000246192)
(-0.00135471 -0.000952227 0.000236122)
(-0.00139025 -0.000977714 0.000225214)
(-0.00142698 -0.00100392 0.000213297)
(-0.00146453 -0.00103057 0.000200099)
(-0.00150247 -0.00105734 0.000185247)
(-0.00154024 -0.00108377 0.000168193)
(-0.00157707 -0.00110929 0.000148227)
(-0.00161181 -0.0011331 0.000124294)
(-0.00164279 -0.00115404 9.53518e-05)
(-0.00166696 -0.00117062 5.98538e-05)
(-0.00168016 -0.00118022 1.99765e-05)
(-0.000569238 -0.000480167 -0.000205326)
(-0.000504532 -0.000445587 -5.60653e-05)
(-0.000437701 -0.000427204 -3.15504e-05)
(-0.000450247 -0.000464014 -5.94086e-07)
(-0.000517386 -0.000537561 4.13232e-05)
(-0.000596079 -0.000604856 8.50967e-05)
(-0.000678379 -0.000657837 0.000126278)
(-0.000760909 -0.000697437 0.00016386)
(-0.000840633 -0.000725547 0.000197243)
(-0.000916143 -0.000745172 0.000226086)
(-0.000985001 -0.000757763 0.000249293)
(-0.00104507 -0.000764985 0.000265718)
(-0.00109607 -0.000769942 0.000275397)
(-0.00113833 -0.000775595 0.000279168)
(-0.00117374 -0.00078484 0.000278359)
(-0.00120556 -0.000798397 0.00027452)
(-0.00123632 -0.000815362 0.000268903)
(-0.00126657 -0.000834247 0.000262038)
(-0.00129756 -0.000854666 0.000254384)
(-0.00133003 -0.000876428 0.000246144)
(-0.00136407 -0.000899289 0.000237309)
(-0.00139957 -0.000923068 0.000227794)
(-0.00143642 -0.000947671 0.000217478)
(-0.0014743 -0.000972863 0.000206167)
(-0.00151295 -0.000998451 0.000193602)
(-0.00155193 -0.00102411 0.000179408)
(-0.00159068 -0.00104945 0.000163042)
(-0.00162843 -0.00107389 0.000143804)
(-0.00166399 -0.00109666 0.00012066)
(-0.00169565 -0.00111668 9.25998e-05)
(-0.00172035 -0.00113254 5.8129e-05)
(-0.0017338 -0.00114171 1.93931e-05)
(-0.000679136 -0.000507706 -0.000197653)
(-0.000527898 -0.000418864 -5.99841e-05)
(-0.000446882 -0.000394434 -3.79571e-05)
(-0.000449206 -0.000424202 -1.07636e-05)
(-0.000513627 -0.000494834 2.74609e-05)
(-0.000593085 -0.000562822 6.85354e-05)
(-0.000676861 -0.000617876 0.000107928)
(-0.000761881 -0.00066063 0.000144753)
(-0.000845916 -0.000693071 0.000178504)
(-0.000925245 -0.000715788 0.000208085)
(-0.000997689 -0.0007304 0.000232202)
(-0.00106193 -0.000739284 0.000249752)
(-0.00111675 -0.000745013 0.000260436)
(-0.00116323 -0.000751054 0.000265302)
(-0.00120235 -0.000759195 0.000265507)
(-0.00123704 -0.000771218 0.000262526)
(-0.00126913 -0.000786194 0.000257394)
(-0.00130121 -0.000803988 0.000251147)
(-0.00133402 -0.000823586 0.000244108)
(-0.00136782 -0.000844336 0.000236415)
(-0.00140298 -0.00086609 0.00022813)
(-0.00143958 -0.000888766 0.000219202)
(-0.00147742 -0.000912185 0.000209496)
(-0.00151637 -0.000936238 0.000198841)
(-0.00155602 -0.000960641 0.000186953)
(-0.00159593 -0.000985095 0.000173453)
(-0.00163551 -0.00100919 0.000157801)
(-0.00167399 -0.00103241 0.000139309)
(-0.00171023 -0.00105404 0.000116971)
(-0.00174248 -0.00107303 8.9811e-05)
(-0.00176761 -0.00108809 5.63846e-05)
(-0.00178123 -0.00109679 1.88047e-05)
(-0.000567633 -0.000374005 -0.000131751)
(-0.000513273 -0.000366578 -5.87228e-05)
(-0.000445409 -0.000354662 -4.3655e-05)
(-0.000439822 -0.000380534 -2.04758e-05)
(-0.000500122 -0.000447419 1.34985e-05)
(-0.000579683 -0.000515597 5.12809e-05)
(-0.000665958 -0.000573668 8.85873e-05)
(-0.000754957 -0.000620719 0.00012454)
(-0.000841859 -0.000656051 0.000158061)
(-0.000925052 -0.000681666 0.000188153)
(-0.00100197 -0.000698777 0.000213243)
(-0.00107013 -0.000709031 0.000231871)
(-0.00112952 -0.000715921 0.000243875)
(-0.00117982 -0.000722043 0.000249865)
(-0.00122316 -0.000729999 0.00025127)
(-0.00126079 -0.000740502 0.000249219)
(-0.00129654 -0.000754567 0.000245208)
(-0.0013305 -0.000770788 0.000239717)
(-0.00136448 -0.000788747 0.000233275)
(-0.00139973 -0.000808261 0.000226245)
(-0.00143635 -0.000828916 0.00021865)
(-0.00147423 -0.000850444 0.000210411)
(-0.00151329 -0.000872715 0.000201412)
(-0.00155317 -0.000895473 0.000191449)
(-0.00159363 -0.00091854 0.000180262)
(-0.00163424 -0.000941631 0.000167474)
(-0.00167448 -0.000964377 0.00015255)
(-0.00171356 -0.000986271 0.000134814)
(-0.0017503 -0.00100662 0.000113285)
(-0.00178298 -0.00102445 8.70251e-05)
(-0.00180841 -0.00103863 5.46466e-05)
(-0.00182211 -0.00104688 1.82211e-05)
(-0.000699506 -0.000405395 -0.000126382)
(-0.000523043 -0.000334988 -6.09558e-05)
(-0.000441086 -0.000316399 -4.86235e-05)
(-0.000425397 -0.000337225 -2.95609e-05)
(-0.00047983 -0.000399307 -1.43186e-07)
(-0.000559111 -0.000467361 3.39196e-05)
(-0.00064602 -0.000526772 6.85009e-05)
(-0.000736073 -0.000575624 0.000102718)
(-0.000827565 -0.000615055 0.000135903)
(-0.000915213 -0.000643803 0.000166301)
(-0.000996064 -0.000662838 0.000192082)
(-0.00106925 -0.00067503 0.000211984)
(-0.00113288 -0.000682723 0.000225331)
(-0.00118806 -0.000689438 0.000232848)
(-0.00123499 -0.000696824 0.000235491)
(-0.00127703 -0.000706959 0.000234822)
(-0.00131485 -0.00071938 0.000231751)
(-0.00135138 -0.000734255 0.00022726)
(-0.00138796 -0.000751148 0.000221804)
(-0.00142484 -0.000769301 0.000215591)
(-0.00146259 -0.000788503 0.000208744)
(-0.00150146 -0.000808611 0.000201249)
(-0.00154126 -0.00082939 0.00019298)
(-0.00158196 -0.000850756 0.000183776)
(-0.00162313 -0.00087242 0.000173348)
(-0.00166434 -0.000894082 0.000161319)
(-0.00170502 -0.000915385 0.000147155)
(-0.00174448 -0.000935856 0.0001302)
(-0.0017816 -0.000954885 0.000109507)
(-0.00181462 -0.000971545 8.41771e-05)
(-0.00184026 -0.0009848 5.28775e-05)
(-0.00185382 -0.000992521 1.76289e-05)
(-0.000590504 -0.000302088 -7.75411e-05)
(-0.000511909 -0.000289984 -6.08815e-05)
(-0.00042815 -0.000276267 -5.2909e-05)
(-0.000401089 -0.000291313 -3.75016e-05)
(-0.000447671 -0.000347279 -1.30208e-05)
(-0.000524384 -0.000413422 1.64664e-05)
(-0.000612684 -0.000474828 4.76599e-05)
(-0.000707679 -0.000528441 7.99558e-05)
(-0.000801674 -0.000570275 0.000111961)
(-0.000893166 -0.000601625 0.000142185)
(-0.000979571 -0.000623543 0.000168721)
(-0.00105723 -0.000637135 0.000189708)
(-0.0011264 -0.000646194 0.000204696)
(-0.00118581 -0.000652957 0.000213772)
(-0.0012378 -0.000660431 0.000218138)
(-0.00128261 -0.000669217 0.000218743)
(-0.00132469 -0.000681078 0.000217158)
(-0.0013638 -0.000694615 0.000213809)
(-0.00140173 -0.000709748 0.000209292)
(-0.00144034 -0.000726549 0.000204063)
(-0.00147977 -0.000744525 0.000198174)
(-0.00151994 -0.000763328 0.00019158)
(-0.00156094 -0.000782828 0.000184193)
(-0.0016023 -0.0008027 0.000175811)
(-0.0016439 -0.000822809 0.000166183)
(-0.00168538 -0.000842907 0.000154946)
(-0.00172629 -0.00086268 0.000141577)
(-0.00176593 -0.000881679 0.000125436)
(-0.00180316 -0.000899319 0.000105607)
(-0.00183628 -0.000914754 8.12367e-05)
(-0.00186193 -0.000927036 5.10521e-05)
(-0.00187527 -0.000934162 1.70193e-05)
(-0.000553172 -0.000246017 -4.65256e-05)
(-0.000480714 -0.000240414 -6.0215e-05)
(-0.000408184 -0.000236535 -5.5983e-05)
(-0.000371404 -0.000247176 -4.40866e-05)
(-0.000408098 -0.00029603 -2.45963e-05)
(-0.000482855 -0.000360672 -2.28724e-07)
(-0.000570754 -0.000422568 2.68196e-05)
(-0.000663923 -0.000475885 5.58825e-05)
(-0.000762713 -0.000521789 8.63455e-05)
(-0.000859643 -0.000556782 0.000116114)
(-0.000950248 -0.000580635 0.000142885)
(-0.00103417 -0.000596569 0.000165138)
(-0.00110819 -0.000606378 0.000181658)
(-0.00117363 -0.000613926 0.000192736)
(-0.00122954 -0.000620668 0.000198821)
(-0.00127995 -0.000629383 0.000201401)
(-0.00132412 -0.000639384 0.000201133)
(-0.00136595 -0.000651528 0.000199142)
(-0.00140706 -0.000665686 0.000195996)
(-0.00144735 -0.000680979 0.000191871)
(-0.0014877 -0.000697256 0.000186958)
(-0.00152861 -0.000714399 0.0001813)
(-0.00156989 -0.000732129 0.000174793)
(-0.00161173 -0.000750405 0.000167311)
(-0.00165368 -0.000768931 0.000158567)
(-0.00169531 -0.000787424 0.00014819)
(-0.00173617 -0.000805576 0.000135666)
(-0.00177566 -0.000823007 0.000120384)
(-0.00181279 -0.000839205 0.000101471)
(-0.00184582 -0.000853389 7.8119e-05)
(-0.00187132 -0.000864665 4.91194e-05)
(-0.00188433 -0.00087114 1.63753e-05)
(-0.000456588 -0.000172773 -2.50868e-05)
(-0.000431319 -0.000194278 -5.48625e-05)
(-0.000372793 -0.000192952 -5.64837e-05)
(-0.000333066 -0.000203027 -4.89426e-05)
(-0.000355972 -0.00024252 -3.42e-05)
(-0.00042333 -0.000301573 -1.55925e-05)
(-0.000509901 -0.000363219 6.27161e-06)
(-0.000610068 -0.000422531 3.1627e-05)
(-0.000710605 -0.000470437 5.9407e-05)
(-0.000810888 -0.000507834 8.78702e-05)
(-0.000908472 -0.000535399 0.00011485)
(-0.000997406 -0.000552891 0.000137972)
(-0.00107836 -0.000564455 0.000156327)
(-0.00114854 -0.00057189 0.000169301)
(-0.0012109 -0.000578932 0.0001777)
(-0.00126402 -0.000585924 0.000182019)
(-0.00131358 -0.000595463 0.000183812)
(-0.00135865 -0.000606254 0.000183455)
(-0.00140088 -0.000618305 0.000181561)
(-0.00144303 -0.000632057 0.000178724)
(-0.00148524 -0.000646974 0.000175043)
(-0.00152747 -0.000662662 0.000170511)
(-0.00156997 -0.000679012 0.000165086)
(-0.00161218 -0.000695634 0.000158572)
(-0.00165411 -0.000712423 0.000150744)
(-0.00169554 -0.000729194 0.000141256)
(-0.00173612 -0.000745678 0.000129608)
(-0.0017753 -0.000761524 0.000115214)
(-0.00181204 -0.000776227 9.72371e-05)
(-0.00184473 -0.000789104 7.49251e-05)
(-0.00186989 -0.000799337 4.7141e-05)
(-0.0018825 -0.000805159 1.57183e-05)
(-0.000451206 -0.000147836 -6.44209e-06)
(-0.000397514 -0.000156336 -5.42026e-05)
(-0.000334838 -0.000155801 -5.6563e-05)
(-0.000286307 -0.000160428 -5.08579e-05)
(-0.000297506 -0.000191392 -4.07369e-05)
(-0.000359604 -0.000246236 -2.86254e-05)
(-0.000444858 -0.000307475 -1.28215e-05)
(-0.000537148 -0.000362679 7.41316e-06)
(-0.000642758 -0.000415086 3.17334e-05)
(-0.000749851 -0.000457291 5.83234e-05)
(-0.000851408 -0.000486969 8.46083e-05)
(-0.000948159 -0.000507706 0.000108654)
(-0.00103447 -0.000520155 0.000128517)
(-0.0011123 -0.000528812 0.000143866)
(-0.00117876 -0.000534824 0.000154407)
(-0.00123924 -0.000542013 0.000161354)
(-0.00129091 -0.000549354 0.000164966)
(-0.0013389 -0.000558477 0.000166421)
(-0.00138532 -0.000569606 0.000166372)
(-0.00142934 -0.000581672 0.000164976)
(-0.0014723 -0.000594641 0.000162526)
(-0.00151499 -0.000608448 0.00015914)
(-0.00155723 -0.000622761 0.000154749)
(-0.00159954 -0.000637626 0.000149282)
(-0.00164146 -0.000652727 0.000142465)
(-0.00168259 -0.000667793 0.000133937)
(-0.00172261 -0.000682571 0.000123215)
(-0.00176108 -0.000696753 0.000109746)
(-0.00179722 -0.000709952 9.27576e-05)
(-0.00182939 -0.000721526 7.15468e-05)
(-0.00185405 -0.000730709 4.50528e-05)
(-0.0018661 -0.000735855 1.50272e-05)
(-0.000333332 -9.31959e-05 8.87793e-06)
(-0.000327473 -0.000112183 -4.94646e-05)
(-0.000285867 -0.00012032 -5.49991e-05)
(-0.000238955 -0.000123821 -5.13658e-05)
(-0.000227387 -0.000139487 -4.26561e-05)
(-0.000274842 -0.000183281 -3.66145e-05)
(-0.000352715 -0.000239753 -2.79257e-05)
(-0.000457449 -0.000304374 -1.47432e-05)
(-0.000562115 -0.00035761 4.44049e-06)
(-0.000670764 -0.000401901 2.78546e-05)
(-0.000781165 -0.000436971 5.30543e-05)
(-0.000882968 -0.000459769 7.72255e-05)
(-0.000977964 -0.000475006 9.87545e-05)
(-0.00106069 -0.00048361 0.000116105)
(-0.00113546 -0.000490454 0.000129439)
(-0.00119817 -0.000495467 0.000138541)
(-0.00125667 -0.000502478 0.0001448)
(-0.00130884 -0.000510264 0.000148427)
(-0.00135592 -0.000518874 0.000149983)
(-0.00140197 -0.000529203 0.000150222)
(-0.00144711 -0.000540723 0.000149313)
(-0.00149125 -0.000552991 0.000147303)
(-0.00153493 -0.000565927 0.000144217)
(-0.00157735 -0.000579054 0.000139872)
(-0.00161876 -0.000592328 0.000134085)
(-0.00165915 -0.000605603 0.000126534)
(-0.00169836 -0.000618678 0.000116758)
(-0.00173603 -0.000631264 0.000104236)
(-0.00177129 -0.000642949 8.8239e-05)
(-0.00180264 -0.000653193 6.81357e-05)
(-0.00182661 -0.000661317 4.29482e-05)
(-0.00183805 -0.000665825 1.4334e-05)
(-0.000195885 -4.48242e-05 1.62712e-05)
(-0.000232663 -6.93155e-05 -4.13978e-05)
(-0.000217121 -8.3365e-05 -5.0341e-05)
(-0.000180448 -8.78711e-05 -4.78015e-05)
(-0.000160402 -9.51116e-05 -4.001e-05)
(-0.000192584 -0.000126682 -3.89732e-05)
(-0.000270062 -0.000182699 -3.9627e-05)
(-0.000351442 -0.000234064 -3.27107e-05)
(-0.000463742 -0.000294409 -2.02766e-05)
(-0.000581265 -0.000345731 -1.70197e-06)
(-0.000693891 -0.000383129 2.09391e-05)
(-0.000805375 -0.000411096 4.4836e-05)
(-0.000905464 -0.000427812 6.7257e-05)
(-0.000997807 -0.000438862 8.69107e-05)
(-0.00107619 -0.00044464 0.000102525)
(-0.00114856 -0.000450567 0.000114737)
(-0.00120886 -0.000455141 0.000123231)
(-0.00126387 -0.000460992 0.00012907)
(-0.00131649 -0.000468831 0.00013295)
(-0.00136473 -0.000477379 0.000134988)
(-0.00141033 -0.00048674 0.000135572)
(-0.00145456 -0.000496944 0.000134919)
(-0.0014972 -0.000507619 0.000133013)
(-0.00153932 -0.000518922 0.000129861)
(-0.00158036 -0.000530498 0.000125209)
(-0.00162 -0.000542091 0.000118713)
(-0.00165807 -0.000553473 0.00010993)
(-0.00169442 -0.000564412 9.83873e-05)
(-0.00172854 -0.000574618 8.34374e-05)
(-0.00175894 -0.000583588 6.45112e-05)
(-0.00178204 -0.000590682 4.07159e-05)
(-0.00179269 -0.000594549 1.36011e-05)
(-7.47433e-05 -1.27081e-05 1.33068e-05)
(-0.000131961 -3.53068e-05 -2.78008e-05)
(-0.000138948 -4.84373e-05 -4.10307e-05)
(-0.000124571 -5.71112e-05 -4.34104e-05)
(-7.17014e-05 -4.22882e-05 -2.50033e-05)
(-7.2933e-05 -4.87035e-05 -2.18939e-05)
(-0.000135991 -9.39875e-05 -3.22043e-05)
(-0.0002557 -0.000171835 -4.40476e-05)
(-0.000355915 -0.000227993 -4.09082e-05)
(-0.000470907 -0.00028156 -2.82616e-05)
(-0.000595411 -0.000327822 -9.70822e-06)
(-0.000710401 -0.000358727 1.24556e-05)
(-0.000821216 -0.00038054 3.53364e-05)
(-0.000917429 -0.000392141 5.63895e-05)
(-0.00100634 -0.000400215 7.46917e-05)
(-0.00107937 -0.000403793 8.91153e-05)
(-0.00114811 -0.000408613 0.000100577)
(-0.00120846 -0.000413457 0.000108994)
(-0.00126082 -0.00041845 0.000114752)
(-0.00131107 -0.000425152 0.000118721)
(-0.00135932 -0.000433095 0.000121142)
(-0.00140528 -0.000441797 0.000122116)
(-0.00144984 -0.00045124 0.000121747)
(-0.00149181 -0.000460834 0.000119869)
(-0.00153181 -0.000470603 0.000116353)
(-0.0015701 -0.000480454 0.000110909)
(-0.00160681 -0.000490224 0.000103127)
(-0.00164187 -0.000499674 9.2577e-05)
(-0.00167458 -0.000508452 7.8661e-05)
(-0.00170368 -0.000516161 6.08999e-05)
(-0.00172572 -0.00052226 3.84958e-05)
(-0.00173556 -0.000525564 1.28764e-05)
(-1.51657e-05 -7.99167e-07 1.01104e-05)
(-4.29601e-05 -1.01679e-05 -9.57074e-06)
(-5.34987e-05 -1.54208e-05 -2.33495e-05)
(-3.9341e-05 -1.7197e-05 -2.17847e-05)
(-4.01276e-05 -2.56086e-05 -2.2814e-05)
(-5.95987e-05 -4.52961e-05 -2.8604e-05)
(-5.8512e-05 -4.46859e-05 -2.1577e-05)
(-9.77918e-05 -6.88444e-05 -2.75227e-05)
(-0.000234315 -0.000152769 -4.89677e-05)
(-0.000356803 -0.000216147 -4.89869e-05)
(-0.000478476 -0.00026539 -3.62995e-05)
(-0.000606189 -0.000305675 -1.76613e-05)
(-0.000719849 -0.000330128 4.19084e-06)
(-0.00082794 -0.000346869 2.61854e-05)
(-0.00091825 -0.000354374 4.60632e-05)
(-0.00100384 -0.000360657 6.33475e-05)
(-0.00107317 -0.000363228 7.70382e-05)
(-0.00113556 -0.000366181 8.77698e-05)
(-0.00119516 -0.000370938 9.61542e-05)
(-0.00124799 -0.000376007 0.000102196)
(-0.00129618 -0.000381717 0.000106313)
(-0.00134161 -0.000388285 0.000108814)
(-0.00138398 -0.000395329 0.00010973)
(-0.00142516 -0.000403153 0.000109172)
(-0.00146441 -0.000411359 0.000106903)
(-0.00150147 -0.00041968 0.000102598)
(-0.00153643 -0.000427909 9.586e-05)
(-0.00156946 -0.000435838 8.63278e-05)
(-0.00160048 -0.000443284 7.35125e-05)
(-0.00162817 -0.00044984 5.70054e-05)
(-0.001649 -0.000455021 3.61043e-05)
(-0.00165777 -0.000457766 1.20967e-05)
(2.07601e-06 2.99857e-06 1.66235e-05)
(-2.6437e-06 8.32753e-07 -6.56056e-07)
(-8.56215e-06 -1.43734e-06 -1.33319e-05)
(-1.51117e-05 -1.06903e-05 -2.18907e-05)
(-1.75285e-05 -1.69246e-05 -2.09297e-05)
(-2.93176e-05 -3.15065e-05 -2.71609e-05)
(-4.37791e-05 -4.21227e-05 -2.86576e-05)
(-4.91049e-05 -3.99337e-05 -2.32566e-05)
(-7.29988e-05 -5.05443e-05 -2.45565e-05)
(-0.000221963 -0.000135702 -5.24886e-05)
(-0.000359127 -0.000201005 -5.59245e-05)
(-0.000483072 -0.000245257 -4.23938e-05)
(-0.000610724 -0.000279636 -2.3836e-05)
(-0.000719107 -0.000298137 -2.56495e-06)
(-0.000822872 -0.000311088 1.83424e-05)
(-0.000905207 -0.000315314 3.69947e-05)
(-0.000984717 -0.000319677 5.31849e-05)
(-0.00105374 -0.000322641 6.6409e-05)
(-0.00111113 -0.00032453 7.66541e-05)
(-0.00116555 -0.000327926 8.47241e-05)
(-0.00121693 -0.000332535 9.08648e-05)
(-0.00126452 -0.000337876 9.51843e-05)
(-0.00130964 -0.000344048 9.78454e-05)
(-0.00135042 -0.000350351 9.86866e-05)
(-0.00138799 -0.000356911 9.76348e-05)
(-0.00142302 -0.000363684 9.44331e-05)
(-0.00145602 -0.000370525 8.87316e-05)
(-0.00148731 -0.000377215 8.02225e-05)
(-0.00151638 -0.00038344 6.84732e-05)
(-0.0015423 -0.000388904 5.31849e-05)
(-0.00156168 -0.000393228 3.37617e-05)
(-0.00156949 -0.000395529 1.13379e-05)
(7.28724e-06 8.48903e-06 2.5774e-05)
(1.51752e-05 6.58732e-06 -1.62662e-06)
(1.87689e-05 4.50383e-06 -1.20991e-05)
(1.77246e-05 -3.36619e-06 -1.89085e-05)
(1.14923e-05 -1.21471e-05 -2.20722e-05)
(1.41429e-06 -2.04485e-05 -2.38417e-05)
(-1.24526e-05 -2.80308e-05 -2.5443e-05)
(-3.25665e-05 -3.65412e-05 -2.95884e-05)
(-6.24304e-05 -4.90963e-05 -3.47535e-05)
(-0.000119679 -7.60093e-05 -4.52234e-05)
(-0.000210512 -0.000119235 -5.3892e-05)
(-0.000361093 -0.000184408 -5.82482e-05)
(-0.000483383 -0.000222584 -4.5619e-05)
(-0.000607444 -0.000251528 -2.76404e-05)
(-0.000706894 -0.000264689 -7.41205e-06)
(-0.000806067 -0.000275219 1.21473e-05)
(-0.000883067 -0.000278087 2.96437e-05)
(-0.000952011 -0.00027977 4.46205e-05)
(-0.0010189 -0.000282726 5.7297e-05)
(-0.00107612 -0.000285109 6.74268e-05)
(-0.00112634 -0.000287694 7.52848e-05)
(-0.00117229 -0.000291049 8.11733e-05)
(-0.00121337 -0.000294846 8.51197e-05)
(-0.00125269 -0.000299606 8.73441e-05)
(-0.00128912 -0.000304908 8.76137e-05)
(-0.00132242 -0.000310462 8.56004e-05)
(-0.00135298 -0.000316046 8.09677e-05)
(-0.00138145 -0.000321467 7.34962e-05)
(-0.00140826 -0.000326611 6.28987e-05)
(-0.00143232 -0.000331147 4.89525e-05)
(-0.00145013 -0.000334724 3.11642e-05)
(-0.00145659 -0.000336577 1.04943e-05)
(1.62018e-05 1.198e-05 3.12051e-05)
(2.86259e-05 1.09762e-05 -4.21364e-06)
(3.29421e-05 7.60046e-06 -1.27326e-05)
(3.63779e-05 1.13903e-06 -1.74967e-05)
(3.04001e-05 -6.45371e-06 -1.67531e-05)
(2.10721e-05 -1.17749e-05 -1.42701e-05)
(1.05223e-05 -1.48262e-05 -1.19563e-05)
(-1.69895e-06 -1.64625e-05 -1.18164e-05)
(-1.80451e-05 -1.93941e-05 -1.65985e-05)
(-4.12047e-05 -2.85135e-05 -2.34179e-05)
(-0.000102222 -5.77959e-05 -3.85851e-05)
(-0.00020936 -0.00010635 -5.35446e-05)
(-0.000358152 -0.000165712 -5.83903e-05)
(-0.000472964 -0.00019731 -4.57309e-05)
(-0.000591788 -0.000221882 -2.93233e-05)
(-0.000679252 -0.000230458 -1.0528e-05)
(-0.000769079 -0.000238189 7.4469e-06)
(-0.000846065 -0.000241943 2.37908e-05)
(-0.000906699 -0.000242367 3.77459e-05)
(-0.000964446 -0.000243785 4.95735e-05)
(-0.00101851 -0.000246112 5.93447e-05)
(-0.00106713 -0.000248907 6.70541e-05)
(-0.00111231 -0.000252546 7.28492e-05)
(-0.00115099 -0.000256212 7.65209e-05)
(-0.00118492 -0.000260205 7.80261e-05)
(-0.00121537 -0.000264545 7.71171e-05)
(-0.00124339 -0.000269106 7.35199e-05)
(-0.00126978 -0.000273661 6.70844e-05)
(-0.00129415 -0.000277894 5.75725e-05)
(-0.00131597 -0.000281598 4.48953e-05)
(-0.001332 -0.000284524 2.86762e-05)
(-0.00133743 -0.00028608 9.69212e-06)
(2.6123e-05 1.32625e-05 3.35691e-05)
(5.23589e-05 1.54154e-05 -5.91975e-06)
(6.75894e-05 1.25705e-05 -1.8439e-05)
(6.96688e-05 3.94796e-06 -2.3101e-05)
(5.47895e-05 -5.38525e-06 -1.9974e-05)
(3.4915e-05 -1.03348e-05 -1.3213e-05)
(3.6225e-05 -2.05304e-05 -1.32427e-05)
(2.6751e-05 -2.75608e-05 -1.0081e-05)
(3.46e-06 -2.38976e-05 -9.93169e-06)
(-2.61525e-05 -2.49533e-05 -2.05999e-05)
(-6.62185e-05 -3.76356e-05 -3.54204e-05)
(-7.02969e-05 -3.59135e-05 -2.61955e-05)
(-0.000208637 -9.58241e-05 -5.11639e-05)
(-0.000351056 -0.00014755 -5.64976e-05)
(-0.000451207 -0.000171462 -4.40684e-05)
(-0.000564976 -0.000192939 -2.95695e-05)
(-0.000645133 -0.000199716 -1.2363e-05)
(-0.000717945 -0.000203323 4.18662e-06)
(-0.000791788 -0.000207401 1.93793e-05)
(-0.000852028 -0.000209035 3.26638e-05)
(-0.000902582 -0.000209903 4.37948e-05)
(-0.000947681 -0.00021121 5.28427e-05)
(-0.000985801 -0.000212693 5.96956e-05)
(-0.00102191 -0.000215259 6.465e-05)
(-0.00105427 -0.000218504 6.74469e-05)
(-0.00108254 -0.000222101 6.77041e-05)
(-0.00110738 -0.000225804 6.51477e-05)
(-0.00112999 -0.00022941 5.97384e-05)
(-0.00115152 -0.000232892 5.14307e-05)
(-0.00117107 -0.00023596 4.02061e-05)
(-0.0011852 -0.000238362 2.57865e-05)
(-0.00118902 -0.000239571 8.75087e-06)
(3.3459e-05 1.37467e-05 3.5496e-05)
(7.20721e-05 1.86131e-05 -4.75457e-06)
(9.53285e-05 1.6825e-05 -2.03244e-05)
(0.000107241 8.1294e-06 -2.95186e-05)
(0.000107633 -4.69651e-06 -3.30503e-05)
(9.2991e-05 -1.716e-05 -2.96575e-05)
(5.471e-05 -1.97054e-05 -1.74147e-05)
(5.54228e-05 -3.45051e-05 -1.57486e-05)
(1.68536e-05 -1.89386e-05 -3.22646e-06)
(4.13868e-06 -2.21587e-05 -2.50735e-06)
(-1.83565e-05 -1.63235e-05 -1.09342e-05)
(-4.20696e-05 -2.19401e-05 -2.07083e-05)
(-0.00012138 -5.57045e-05 -4.28072e-05)
(-0.000189409 -8.08463e-05 -4.57123e-05)
(-0.000331101 -0.000127811 -5.22709e-05)
(-0.000412688 -0.000144339 -4.09434e-05)
(-0.000513446 -0.000161585 -2.79653e-05)
(-0.000596207 -0.000170372 -1.28952e-05)
(-0.000655355 -0.000171992 2.31199e-06)
(-0.000714351 -0.000174043 1.62233e-05)
(-0.000769921 -0.000176307 2.8549e-05)
(-0.000818169 -0.00017825 3.89983e-05)
(-0.000862635 -0.000180855 4.75461e-05)
(-0.000898051 -0.000183067 5.38284e-05)
(-0.000926879 -0.000185493 5.77468e-05)
(-0.000951318 -0.000188317 5.90075e-05)
(-0.00097311 -0.000191445 5.74224e-05)
(-0.00099361 -0.000194649 5.30338e-05)
(-0.00101232 -0.000197583 4.5813e-05)
(-0.00102925 -0.000200117 3.58981e-05)
(-0.00104136 -0.000202097 2.31317e-05)
(-0.00104427 -0.000203151 7.89328e-06)
(3.96268e-05 1.40766e-05 3.85993e-05)
(8.09956e-05 1.99246e-05 -2.40595e-06)
(0.0001095 2.0392e-05 -1.9391e-05)
(0.00012659 1.36961e-05 -3.06295e-05)
(0.000131161 1.37654e-06 -3.70962e-05)
(0.000125076 -1.31644e-05 -3.8507e-05)
(0.000110646 -2.71962e-05 -3.50477e-05)
(7.78373e-05 -3.34302e-05 -2.32132e-05)
(3.13804e-05 -2.18956e-05 -7.06125e-06)
(2.90659e-05 -3.38842e-05 -1.88142e-06)
(3.63938e-06 -1.56629e-05 5.26706e-07)
(-2.20723e-05 -1.72476e-05 -1.07232e-05)
(-6.72366e-05 -3.30909e-05 -3.2405e-05)
(-9.07127e-05 -4.00349e-05 -3.09691e-05)
(-0.000162127 -6.39171e-05 -3.80338e-05)
(-0.00030398 -0.000108634 -4.84655e-05)
(-0.000377192 -0.00012274 -3.8186e-05)
(-0.000448132 -0.000132253 -2.53097e-05)
(-0.000528991 -0.000141992 -1.19914e-05)
(-0.000589095 -0.000146017 1.81926e-06)
(-0.000636421 -0.000147467 1.45917e-05)
(-0.000678204 -0.000148698 2.567e-05)
(-0.000710209 -0.000149301 3.4616e-05)
(-0.000741102 -0.000150981 4.17337e-05)
(-0.000768003 -0.000153354 4.66847e-05)
(-0.000789938 -0.000156014 4.89336e-05)
(-0.000807816 -0.000158686 4.82603e-05)
(-0.000823363 -0.000161202 4.48319e-05)
(-0.000838714 -0.000163696 3.8877e-05)
(-0.000853067 -0.000165886 3.05615e-05)
(-0.00086303 -0.000167539 1.98058e-05)
(-0.000864015 -0.000168282 6.79436e-06)
(4.36585e-05 1.4066e-05 4.23011e-05)
(8.24076e-05 2.01079e-05 4.29278e-07)
(0.000112524 2.25833e-05 -1.71544e-05)