/*--------------------------------*- C++ -*----------------------------------*\
  =========                 |
  \\      /  F ield         | OpenFOAM: The Open Source CFD Toolbox
   \\    /   O peration     | Website:  https://openfoam.org
    \\  /    A nd           | Version:  6
     \\/     M anipulation  |
\*---------------------------------------------------------------------------*/
FoamFile
{
    version     2.0;
    format      ascii;
    class       volVectorField;
    location    "11";
    object      wallShearStress;
}
// * * * * * * * * * * * * * * * * * * * * * * * * * * * * * * * * * * * * * //

dimensions      [0 2 -2 0 0 0 0];

internalField   uniform (0 0 0);

boundaryField
{
    inlet
    {
        type            calculated;
        value           uniform (0 0 0);
    }
    outlet
    {
        type            calculated;
        value           uniform (0 0 0);
    }
    roughCylinder
    {
        type            calculated;
        value           nonuniform List<vector> 
3840
(
(-0.000101316 -0.000130476 -5.83322e-05)
(-0.00017259 -0.000297341 -4.19543e-05)
(-0.000255524 -0.000448296 2.86497e-05)
(-0.000313129 -0.000514387 8.4967e-05)
(-0.000377253 -0.000559672 0.000134192)
(-0.000422479 -0.00056289 0.000166954)
(-0.000462229 -0.000557605 0.000189642)
(-0.00048835 -0.00054313 0.000202447)
(-0.000509947 -0.000534356 0.000212052)
(-0.000521849 -0.000525468 0.000215999)
(-0.000532799 -0.000523175 0.000216626)
(-0.000541726 -0.000524025 0.000213378)
(-0.000550477 -0.000528393 0.000207031)
(-0.00055785 -0.000534226 0.000197462)
(-0.000557055 -0.000534593 0.000183126)
(-0.000559271 -0.000538709 0.00016834)
(-0.000565112 -0.000545914 0.00015311)
(-0.000588512 -0.000569548 0.000140314)
(-0.000569913 -0.000555285 0.000117128)
(-0.000567277 -0.000555383 9.72196e-05)
(-0.000549736 -0.000541091 7.49826e-05)
(-0.000560714 -0.000553785 5.60735e-05)
(-0.00055106 -0.000546051 3.42416e-05)
(-0.000548619 -0.000544621 1.16141e-05)
(-0.000103602 -0.000118493 -5.14327e-05)
(-0.000182012 -0.000283948 -4.67856e-05)
(-0.000272193 -0.000440917 2.02998e-05)
(-0.000332181 -0.000510876 7.66518e-05)
(-0.000399025 -0.000559763 0.000126169)
(-0.000446368 -0.000566236 0.000159565)
(-0.000489678 -0.000565483 0.000183428)
(-0.000517325 -0.000552756 0.000197407)
(-0.000544081 -0.000547918 0.00020981)
(-0.000558944 -0.000538922 0.000215246)
(-0.000571093 -0.00053615 0.000216493)
(-0.000580535 -0.000536427 0.000213455)
(-0.000589403 -0.000540292 0.000207169)
(-0.000597581 -0.000546515 0.00019793)
(-0.000596697 -0.00054677 0.000183762)
(-0.000601454 -0.000552966 0.000169754)
(-0.000607473 -0.000560049 0.000154478)
(-0.000629193 -0.000581135 0.000140966)
(-0.000610725 -0.000568072 0.000118102)
(-0.000607821 -0.000568179 9.81239e-05)
(-0.000589386 -0.000554083 7.58281e-05)
(-0.000602776 -0.000568586 5.69177e-05)
(-0.000593103 -0.000561418 3.48304e-05)
(-0.000591271 -0.000560727 1.18374e-05)
(-0.000102201 -0.000102262 -4.14849e-05)
(-0.000194978 -0.000272773 -5.25256e-05)
(-0.00028719 -0.000426398 1.09401e-05)
(-0.000350768 -0.000502152 6.70587e-05)
(-0.00042017 -0.000554541 0.000116745)
(-0.000470962 -0.000566298 0.000151371)
(-0.000516205 -0.000568369 0.000176153)
(-0.000548909 -0.000561493 0.000192799)
(-0.000576674 -0.000556541 0.00020612)
(-0.000593769 -0.00054705 0.000212661)
(-0.000608102 -0.00054415 0.000214868)
(-0.000618887 -0.000544376 0.000212372)
(-0.000629002 -0.000548615 0.000206609)
(-0.000637265 -0.000554442 0.000197519)
(-0.000636458 -0.000554712 0.000183662)
(-0.000643786 -0.000562727 0.000170434)
(-0.000650917 -0.00057057 0.000155458)
(-0.000672487 -0.000590618 0.00014171)
(-0.00065483 -0.000579358 0.000119275)
(-0.000652796 -0.000580567 9.93849e-05)
(-0.000633321 -0.000566716 7.69598e-05)
(-0.000649422 -0.000583053 5.79819e-05)
(-0.000639281 -0.000576096 3.55322e-05)
(-0.000637137 -0.000575295 1.20814e-05)
(-0.000110011 -9.53386e-05 -3.4384e-05)
(-0.000200056 -0.000249748 -5.62582e-05)
(-0.000300308 -0.000407703 1.02136e-06)
(-0.000366297 -0.000487499 5.62451e-05)
(-0.000438579 -0.000544122 0.000105964)
(-0.00049198 -0.000560479 0.000141537)
(-0.000542362 -0.000569292 0.000168504)
(-0.000576739 -0.000564718 0.000186732)
(-0.00061018 -0.000564235 0.000202484)
(-0.000632396 -0.000557419 0.00021111)
(-0.000648942 -0.00055337 0.000214108)
(-0.0006602 -0.000552607 0.000211923)
(-0.000670673 -0.000556113 0.000206371)
(-0.000680762 -0.000562868 0.000197958)
(-0.00067989 -0.000563013 0.000184343)
(-0.000688963 -0.000571964 0.000171595)
(-0.000695842 -0.000579436 0.0001566)
(-0.000714353 -0.000596151 0.000142101)
(-0.000697857 -0.000586906 0.00012018)
(-0.00069518 -0.000587962 0.000100207)
(-0.000674657 -0.000574525 7.77583e-05)
(-0.000693828 -0.000592794 5.88203e-05)
(-0.000683736 -0.000586579 3.6124e-05)
(-0.00068224 -0.000586537 1.23069e-05)
(-0.000117268 -8.69913e-05 -2.5992e-05)
(-0.000207996 -0.000230555 -6.07203e-05)
(-0.000308995 -0.000382596 -9.093e-06)
(-0.000378285 -0.000467607 4.45183e-05)
(-0.000453134 -0.000528236 9.39203e-05)
(-0.000511709 -0.00055221 0.000131021)
(-0.000564356 -0.000564643 0.000159377)
(-0.000605253 -0.000567073 0.000180732)
(-0.000641093 -0.000567779 0.000197825)
(-0.000665033 -0.000561041 0.000207307)
(-0.000684871 -0.000557169 0.000211547)
(-0.000697885 -0.000555503 0.000210145)
(-0.000710502 -0.000559636 0.000205453)
(-0.000721474 -0.000566283 0.000197484)
(-0.000720823 -0.000566513 0.000184297)
(-0.000731061 -0.000575865 0.000171982)
(-0.000739237 -0.000584296 0.000157453)
(-0.000756928 -0.00059983 0.000142799)
(-0.000741988 -0.00059281 0.000121387)
(-0.000739888 -0.000594819 0.000101478)
(-0.000718354 -0.000581982 7.89311e-05)
(-0.000740411 -0.000601775 5.99077e-05)
(-0.000729901 -0.000595958 3.68484e-05)
(-0.000727993 -0.000595853 1.256e-05)
(-0.000149142 -9.34346e-05 -2.00993e-05)
(-0.000205399 -0.000200732 -6.18756e-05)
(-0.000314036 -0.0003536 -1.90546e-05)
(-0.000385601 -0.000442358 3.19926e-05)
(-0.000464026 -0.000508349 8.08745e-05)
(-0.00052564 -0.000537506 0.00011882)
(-0.000585072 -0.000557973 0.00014971)
(-0.000628203 -0.000562907 0.000172838)
(-0.00066984 -0.000567825 0.000192288)
(-0.000699552 -0.000564658 0.000203921)
(-0.000722715 -0.000561599 0.000209465)
(-0.000737828 -0.000558931 0.00020897)
(-0.000751117 -0.000561532 0.000204725)
(-0.000764316 -0.000568809 0.000197583)
(-0.000763808 -0.000569052 0.000184821)
(-0.000774202 -0.000578053 0.000172738)
(-0.000782671 -0.000586613 0.000158483)
(-0.000796771 -0.000599048 0.000143234)
(-0.000783103 -0.000594133 0.000122323)
(-0.000780112 -0.000596277 0.000102361)
(-0.000757891 -0.000584705 7.98555e-05)
(-0.000782603 -0.000605883 6.08016e-05)
(-0.000772188 -0.000601129 3.74882e-05)
(-0.000770843 -0.000601829 1.28031e-05)
(-0.000129244 -6.72083e-05 -6.85617e-06)
(-0.000209352 -0.000178992 -6.45891e-05)
(-0.000313476 -0.000319769 -2.84054e-05)
(-0.000387681 -0.000412541 1.88773e-05)
(-0.000468522 -0.000482826 6.65431e-05)
(-0.000537241 -0.000521168 0.000105951)
(-0.000599281 -0.000545108 0.000138224)
(-0.000650328 -0.000557229 0.000164453)
(-0.000695588 -0.000564167 0.000185605)
(-0.000726713 -0.000561115 0.000198237)
(-0.000752266 -0.000558543 0.000204937)
(-0.000770576 -0.000556472 0.000205821)
(-0.000787637 -0.000559701 0.000203022)
(-0.000801858 -0.000566234 0.000196533)
(-0.000801919 -0.000566639 0.000184442)
(-0.000812315 -0.000575314 0.000172748)
(-0.000822823 -0.000585377 0.000159256)
(-0.000836437 -0.000597525 0.000144124)
(-0.000823631 -0.000594454 0.000123592)
(-0.000820762 -0.000597682 0.000103683)
(-0.000797725 -0.000587463 8.11221e-05)
(-0.000824073 -0.000609148 6.18689e-05)
(-0.000813023 -0.000605002 3.82025e-05)
(-0.000811009 -0.000605545 1.30499e-05)
(-0.000133677 -5.6452e-05 2.96259e-06)
(-0.000192426 -0.000142576 -6.05737e-05)
(-0.000307463 -0.000282911 -3.65949e-05)
(-0.000383085 -0.000377888 5.52762e-06)
(-0.000468185 -0.000454543 5.1415e-05)
(-0.000539906 -0.000497794 9.12357e-05)
(-0.000610464 -0.000530214 0.000125897)
(-0.000664549 -0.000544625 0.000153792)
(-0.000715466 -0.000555106 0.000177073)
(-0.000753147 -0.000556189 0.000192207)
(-0.000783048 -0.000555605 0.00020078)
(-0.000803813 -0.000553835 0.000202993)
(-0.000822072 -0.000556316 0.000201097)
(-0.000838465 -0.000562956 0.000195655)
(-0.000839203 -0.000563591 0.00018437)
(-0.000848956 -0.000571615 0.000173048)
(-0.000860078 -0.000582078 0.000160069)
(-0.000870014 -0.00059195 0.000144566)
(-0.000857214 -0.000589993 0.000124317)
(-0.000853264 -0.000593329 0.00010439)
(-0.000830096 -0.000584869 8.19502e-05)
(-0.000857339 -0.000606231 6.25497e-05)
(-0.000846248 -0.000603057 3.87029e-05)
(-0.000844735 -0.000604289 1.32422e-05)
(-0.000135891 -4.54576e-05 1.24421e-05)
(-0.000193546 -0.000121787 -6.12326e-05)
(-0.000295001 -0.000243412 -4.34172e-05)
(-0.000371509 -0.000339237 -7.605e-06)
(-0.000457727 -0.000419445 3.52156e-05)
(-0.000538397 -0.000473004 7.57495e-05)
(-0.000611737 -0.000508285 0.000111401)
(-0.000675049 -0.000529526 0.000142034)
(-0.000731024 -0.000542565 0.0001672)
(-0.000770551 -0.000544148 0.000183724)
(-0.000802716 -0.000544265 0.000193841)
(-0.000826751 -0.000543688 0.000197818)
(-0.00084861 -0.000547352 0.000197616)
(-0.000865452 -0.000553307 0.000193037)
(-0.000867362 -0.000554683 0.000182887)
(-0.000876951 -0.000562463 0.000172247)
(-0.000890122 -0.000574016 0.000160158)
(-0.000900128 -0.000584154 0.00014502)
(-0.000887078 -0.000583121 0.000125016)
(-0.000883407 -0.000587491 0.000105254)
(-0.000860325 -0.000580951 8.29191e-05)
(-0.000887466 -0.000601122 6.32654e-05)
(-0.000875817 -0.000598564 3.92079e-05)
(-0.000873415 -0.000599511 1.34154e-05)
(-0.000137895 -3.47731e-05 2.17385e-05)
(-0.00016877 -8.80401e-05 -5.26932e-05)
(-0.000276023 -0.000202448 -4.82072e-05)
(-0.000351329 -0.000296197 -1.97452e-05)
(-0.000441615 -0.00038277 1.88426e-05)
(-0.000524103 -0.00044024 5.84765e-05)
(-0.000607672 -0.000484434 9.5831e-05)
(-0.000674996 -0.000507653 0.00012787)
(-0.000736708 -0.00052328 0.000154904)
(-0.000783865 -0.000529224 0.000174186)
(-0.000822049 -0.000532461 0.000186914)
(-0.000849306 -0.000533045 0.000192841)
(-0.000871734 -0.000536117 0.000193802)
(-0.000889677 -0.000542095 0.00019042)
(-0.000892483 -0.000544124 0.000181447)
(-0.00090146 -0.000551428 0.000171485)
(-0.000914904 -0.000562746 0.000159993)
(-0.000921482 -0.000570946 0.000144737)
(-0.000907121 -0.000570267 0.000124951)
(-0.000902523 -0.000574818 0.000105344)
(-0.000880123 -0.000570562 8.33182e-05)
(-0.000906034 -0.000588691 6.34915e-05)
(-0.000894342 -0.000587097 3.94389e-05)
(-0.000892305 -0.000588619 1.35155e-05)
(-0.000140073 -2.43678e-05 3.09267e-05)
(-0.000152389 -6.42951e-05 -4.59206e-05)
(-0.000250714 -0.000161057 -5.00396e-05)
(-0.000323475 -0.000250744 -3.01133e-05)
(-0.000411113 -0.000337839 2.5745e-06)
(-0.000503778 -0.000406334 4.07064e-05)
(-0.000589681 -0.000453018 7.79888e-05)
(-0.000667701 -0.000483111 0.000112217)
(-0.000736612 -0.000501521 0.000141352)
(-0.000786747 -0.000507874 0.000162349)
(-0.00082719 -0.000511693 0.00017694)
(-0.000857809 -0.000513734 0.000185066)
(-0.000883824 -0.000518387 0.000188128)
(-0.000901427 -0.000523869 0.000185906)
(-0.000905756 -0.000527008 0.000178451)
(-0.000914837 -0.000534298 0.000169494)
(-0.00092949 -0.000545782 0.000158905)
(-0.000936644 -0.000554521 0.000144313)
(-0.000920923 -0.000554414 0.000124794)
(-0.000916472 -0.000559793 0.000105493)
(-0.000894611 -0.000557753 8.37487e-05)
(-0.000918272 -0.000573153 6.36828e-05)
(-0.000905896 -0.000572142 3.96312e-05)
(-0.000902576 -0.000573209 1.35787e-05)
(-0.000140541 -1.37487e-05 3.99868e-05)
(-0.00014888 -4.91899e-05 -4.24441e-05)
(-0.000221025 -0.000121578 -4.87326e-05)
(-0.000285894 -0.000202419 -3.72868e-05)
(-0.000375878 -0.000293463 -1.24116e-05)
(-0.000466755 -0.00036346 2.21126e-05)
(-0.000564255 -0.000420189 5.92557e-05)
(-0.000647072 -0.000452877 9.42072e-05)
(-0.000722458 -0.000473434 0.000125152)
(-0.000781809 -0.000483388 0.00014917)
(-0.000830139 -0.000490286 0.000166853)
(-0.000864669 -0.000493972 0.000177431)
(-0.00089062 -0.000498295 0.000182089)
(-0.000908746 -0.000504102 0.000181447)
(-0.000914036 -0.000508064 0.000175521)
(-0.000922388 -0.000514855 0.000167495)
(-0.000935902 -0.000525068 0.000157463)
(-0.000939068 -0.000531688 0.000142925)
(-0.000920884 -0.000531798 0.00012367)
(-0.000915252 -0.000537143 0.000104669)
(-0.00089423 -0.000537481 8.34223e-05)
(-0.000914559 -0.000549573 6.32428e-05)
(-0.000901938 -0.000549452 3.94564e-05)
(-0.000898701 -0.000551016 1.35383e-05)
(-0.00014166 -2.98346e-06 4.95882e-05)
(-0.000131171 -3.27929e-05 -3.48978e-05)
(-0.000185732 -8.47321e-05 -4.31836e-05)
(-0.000242796 -0.000155197 -4.03747e-05)
(-0.000322192 -0.000239447 -2.45569e-05)
(-0.000423297 -0.000320361 4.28244e-06)
(-0.000520907 -0.000378855 3.90212e-05)
(-0.000615459 -0.000419699 7.46609e-05)
(-0.000700368 -0.000444733 0.000107654)
(-0.000764784 -0.000455089 0.000134029)
(-0.000815651 -0.000461323 0.000153878)
(-0.000853426 -0.000465449 0.000166888)
(-0.000882899 -0.000471396 0.000173994)
(-0.000900238 -0.000477214 0.000174938)
(-0.000906919 -0.000482287 0.000170856)
(-0.000915175 -0.000488924 0.000164043)
(-0.000928358 -0.000498321 0.000154834)
(-0.00093192 -0.000505531 0.000141187)
(-0.000911586 -0.000506661 0.000122342)
(-0.000905404 -0.000512434 0.000103761)
(-0.000884459 -0.000514598 8.29485e-05)
(-0.000900677 -0.000523712 6.26667e-05)
(-0.000886988 -0.00052397 3.91804e-05)
(-0.000881895 -0.000524922 1.3436e-05)
(-0.000133668 7.22548e-06 5.54818e-05)
(-0.000130767 -2.36144e-05 -3.18951e-05)
(-0.000149888 -5.41746e-05 -3.45097e-05)
(-0.000190704 -0.000107909 -3.75605e-05)
(-0.000268983 -0.000190326 -3.33905e-05)
(-0.000359805 -0.00026704 -1.19299e-05)
(-0.000470002 -0.000337016 1.91154e-05)
(-0.000568939 -0.000381348 5.36716e-05)
(-0.000660233 -0.000409703 8.7672e-05)
(-0.000735217 -0.000424487 0.000117168)
(-0.000795892 -0.000433964 0.000140662)
(-0.000838716 -0.000439177 0.00015672)
(-0.000867698 -0.000444159 0.000165737)
(-0.000885326 -0.000450289 0.000168625)
(-0.000892385 -0.000455841 0.000166256)
(-0.000899041 -0.000461865 0.00016045)
(-0.000909064 -0.000469541 0.000151708)
(-0.00090705 -0.000474403 0.000138187)
(-0.000883401 -0.000475908 0.000119749)
(-0.000875194 -0.000481168 0.000101583)
(-0.000854469 -0.000484768 8.14306e-05)
(-0.000865703 -0.000490947 6.12703e-05)
(-0.00085144 -0.000491695 3.84176e-05)
(-0.000846088 -0.000493003 1.31918e-05)
(-0.00012483 1.58441e-05 5.97989e-05)
(-0.000123977 -1.50245e-05 -2.72801e-05)
(-0.000104462 -2.85427e-05 -2.18555e-05)
(-0.000140375 -6.77422e-05 -3.00487e-05)
(-0.000193825 -0.000130686 -3.45928e-05)
(-0.000293711 -0.000216376 -2.50834e-05)
(-0.000398059 -0.000284908 -1.61936e-07)
(-0.000509387 -0.000339149 3.23919e-05)
(-0.000611434 -0.000374306 6.72729e-05)
(-0.000692059 -0.000391517 9.89451e-05)
(-0.00075489 -0.000400568 0.000124814)
(-0.000800539 -0.000405881 0.000143519)
(-0.000833298 -0.000412375 0.000155354)
(-0.000850216 -0.000418262 0.000160144)
(-0.000857797 -0.000424256 0.000159641)
(-0.00086325 -0.000429979 0.000155053)
(-0.000870956 -0.000436778 0.000147091)
(-0.000868565 -0.000442403 0.000134672)
(-0.000842668 -0.000444748 0.000116812)
(-0.000832759 -0.000449789 9.91204e-05)
(-0.000811083 -0.00045375 7.95572e-05)
(-0.000816911 -0.000457261 5.95789e-05)
(-0.00080104 -0.000457784 3.74244e-05)
(-0.00079316 -0.000458156 1.28345e-05)
(-0.000114439 2.22949e-05 6.09826e-05)
(-0.000131022 -9.95406e-06 -2.58173e-05)
(-8.28783e-05 -1.65646e-05 -1.34696e-05)
(-7.99513e-05 -3.05462e-05 -1.59698e-05)
(-0.000134098 -8.58001e-05 -3.23162e-05)
(-0.00020514 -0.000153227 -3.19796e-05)
(-0.000323096 -0.000234668 -1.6902e-05)
(-0.000436141 -0.000291999 1.18568e-05)
(-0.000543172 -0.000331515 4.62468e-05)
(-0.000633504 -0.000354882 8.00105e-05)
(-0.000706435 -0.000369121 0.00010925)
(-0.000757418 -0.000376674 0.00013106)
(-0.000788933 -0.00038232 0.000144883)
(-0.000806056 -0.000388482 0.000151826)
(-0.000812965 -0.000394307 0.000153019)
(-0.000815359 -0.000398982 0.000149326)
(-0.000817684 -0.000403902 0.000141661)
(-0.000807051 -0.000406667 0.000129218)
(-0.000777512 -0.000408397 0.000111865)
(-0.000764243 -0.000412004 9.46655e-05)
(-0.000742068 -0.00041566 7.6061e-05)
(-0.000741589 -0.000416435 5.66001e-05)
(-0.000724921 -0.000416698 3.56338e-05)
(-0.000716616 -0.000417161 1.22358e-05)
(-0.000101399 2.48195e-05 5.60885e-05)
(-0.000113323 -5.43508e-06 -1.99908e-05)
(-7.41419e-05 -1.08156e-05 -6.73534e-06)
(-4.62593e-05 -1.18973e-05 -5.44077e-06)
(-4.12687e-05 -2.49213e-05 -1.28891e-05)
(-0.000128935 -0.000100888 -3.46102e-05)
(-0.000225669 -0.000170582 -2.87205e-05)
(-0.000351425 -0.000240072 -5.8845e-06)
(-0.000468719 -0.000288452 2.73967e-05)
(-0.000562659 -0.000315744 6.19176e-05)
(-0.000634644 -0.000330847 9.21898e-05)
(-0.000685923 -0.000339612 0.000115624)
(-0.000720908 -0.000347649 0.000131951)
(-0.000737115 -0.000353845 0.00014073)
(-0.000742843 -0.000359354 0.000143533)
(-0.000742149 -0.000363149 0.000140774)
(-0.000740224 -0.000366955 0.000133691)
(-0.00072883 -0.00037039 0.000122528)
(-0.000697958 -0.000371906 0.00010599)
(-0.00068223 -0.000374265 8.94126e-05)
(-0.000658351 -0.000376375 7.17481e-05)
(-0.000652541 -0.000375047 5.30428e-05)
(-0.000634028 -0.000374052 3.33886e-05)
(-0.000622748 -0.000372928 1.14335e-05)
(-9.11862e-05 2.40205e-05 4.76055e-05)
(-0.000107363 -3.61885e-06 -1.70883e-05)
(-6.51322e-05 -6.93721e-06 -1.4154e-07)
(-2.77565e-05 -2.97683e-06 2.91021e-06)
(-1.35454e-05 -9.08789e-06 -5.5492e-06)
(-2.79371e-05 -2.61134e-05 -1.51924e-05)
(-0.000142295 -0.000115197 -3.59132e-05)
(-0.000259609 -0.000183767 -1.85543e-05)
(-0.000376469 -0.000236634 1.21443e-05)
(-0.000476586 -0.000271584 4.59679e-05)
(-0.000556317 -0.000293814 7.70875e-05)
(-0.000611369 -0.000306517 0.000101887)
(-0.000643059 -0.000314264 0.000119067)
(-0.000658577 -0.000320892 0.000129501)
(-0.000662125 -0.00032586 0.000133622)
(-0.000657025 -0.000328337 0.000131407)
(-0.000648504 -0.000329917 0.00012432)
(-0.000626353 -0.00032862 0.000112645)
(-0.000591813 -0.000327652 9.6691e-05)
(-0.000571703 -0.000327122 8.08006e-05)
(-0.000546768 -0.000327193 6.46723e-05)
(-0.000534603 -0.000322853 4.72646e-05)
(-0.000515582 -0.000320675 2.9722e-05)
(-0.000504449 -0.000319392 1.01883e-05)
(-7.97606e-05 2.13147e-05 3.63022e-05)
(-0.00010168 -1.91824e-06 -1.49971e-05)
(-5.73638e-05 -2.25977e-06 5.00059e-06)
(-1.36434e-05 5.73999e-06 8.85163e-06)
(1.17018e-05 7.90427e-06 -1.20056e-06)
(3.30253e-06 -4.18733e-06 -1.25883e-05)
(-3.7627e-05 -3.32485e-05 -1.91479e-05)
(-0.000166584 -0.000123228 -2.162e-05)
(-0.000286 -0.000186208 4.56266e-06)
(-0.000382221 -0.000225182 3.46572e-05)
(-0.000454872 -0.000248425 6.24072e-05)
(-0.000506045 -0.000262585 8.53705e-05)
(-0.000540203 -0.000273603 0.000103154)
(-0.000553862 -0.000280331 0.000114355)
(-0.000553855 -0.000284236 0.000119174)
(-0.000543776 -0.000285061 0.000117144)
(-0.000530055 -0.000284708 0.000110189)
(-0.00050898 -0.000283958 0.000100078)
(-0.000474997 -0.000281859 8.53742e-05)
(-0.000453325 -0.000279422 7.06196e-05)
(-0.000426964 -0.000276692 5.61588e-05)
(-0.000412062 -0.000270806 4.06116e-05)
(-0.00039174 -0.00026646 2.53346e-05)
(-0.000377475 -0.000262479 8.61052e-06)
(-6.5203e-05 1.86809e-05 2.61051e-05)
(-9.56464e-05 2.35861e-07 -1.39388e-05)
(-5.28892e-05 2.87498e-06 5.48456e-06)
(-3.05439e-06 8.58517e-06 4.32357e-06)
(1.89956e-05 1.19806e-05 2.31024e-06)
(1.36749e-05 1.0874e-05 4.61596e-07)
(-1.02198e-05 -8.18933e-06 -8.11559e-06)
(-8.29487e-05 -6.38543e-05 -9.36889e-06)
(-0.000182485 -0.000126568 7.23912e-06)
(-0.000275604 -0.000173348 2.94256e-05)
(-0.000351933 -0.000204919 5.17233e-05)
(-0.000404897 -0.000223876 7.16624e-05)
(-0.00043288 -0.000233824 8.73113e-05)
(-0.000444231 -0.000240464 9.85382e-05)
(-0.000440881 -0.000243486 0.000103668)
(-0.000426432 -0.000242763 0.000101463)
(-0.000407344 -0.000239719 9.40647e-05)
(-0.000374395 -0.00023124 8.24976e-05)
(-0.000337071 -0.000224344 6.84079e-05)
(-0.000311656 -0.000217391 5.49218e-05)
(-0.000284832 -0.000211249 4.29958e-05)
(-0.000265189 -0.000201173 3.01399e-05)
(-0.000245758 -0.000195029 1.84566e-05)
(-0.000234478 -0.000191554 6.2732e-06)
(-5.63911e-05 1.69797e-05 2.05104e-05)
(-8.76981e-05 2.10725e-06 -1.23432e-05)
(-4.62036e-05 2.22991e-06 5.00186e-06)
(8.66287e-06 6.33621e-06 7.97637e-06)
(1.69296e-05 9.05783e-06 1.48631e-05)
(1.74555e-05 9.95045e-06 2.10252e-05)
(3.89839e-06 -3.55703e-07 1.84393e-05)
(-2.09845e-05 -1.98023e-05 1.12457e-05)
(-9.60635e-05 -7.8705e-05 2.16321e-05)
(-0.00016853 -0.00012236 3.0768e-05)
(-0.000228886 -0.00015105 4.14266e-05)
(-0.000273503 -0.000169346 5.37137e-05)
(-0.000304327 -0.000182994 6.68174e-05)
(-0.000313234 -0.000189178 7.66701e-05)
(-0.00030453 -0.000189709 8.06609e-05)
(-0.000284468 -0.000185658 7.72173e-05)
(-0.000261089 -0.000178822 6.91829e-05)
(-0.000235449 -0.00017185 6.00849e-05)
(-0.000202861 -0.000163953 4.81571e-05)
(-0.000180229 -0.000155599 3.71846e-05)
(-0.000154845 -0.000146621 2.818e-05)
(-0.000138886 -0.000136696 1.9222e-05)
(-0.000120284 -0.000127955 1.10008e-05)
(-0.000105499 -0.000119242 3.47624e-06)
(-4.71994e-05 1.47788e-05 1.52073e-05)
(-8.03408e-05 4.16736e-06 -1.11685e-05)
(-4.38344e-05 3.72911e-06 5.79872e-06)
(-2.62324e-06 1.45034e-05 1.96256e-05)
(1.46159e-05 1.5201e-05 2.4826e-05)
(2.402e-05 1.16973e-05 2.85909e-05)
(2.91289e-05 3.74478e-06 3.77415e-05)
(1.65998e-05 -9.74915e-06 3.62389e-05)
(-9.71523e-06 -2.85179e-05 2.94685e-05)
(-5.52796e-05 -6.43657e-05 3.05476e-05)
(-0.000116857 -0.000101791 3.35495e-05)
(-0.000164245 -0.000124968 3.91001e-05)
(-0.000186302 -0.000134175 4.61055e-05)
(-0.000191618 -0.000138574 5.34563e-05)
(-0.000180659 -0.000137595 5.62307e-05)
(-0.000159912 -0.00013195 5.19042e-05)
(-0.000136953 -0.000122503 4.34769e-05)
(-0.000102239 -0.000102344 3.14172e-05)
(-6.88265e-05 -8.53173e-05 1.98129e-05)
(-4.7452e-05 -6.95271e-05 1.15013e-05)
(-2.65376e-05 -5.42146e-05 6.16741e-06)
(-1.29244e-05 -3.2934e-05 2.25366e-06)
(-3.84933e-06 -2.00133e-05 2.80837e-07)
(-5.93021e-07 -2.40204e-05 -5.25757e-08)
(-2.9067e-05 1.33718e-05 1.1534e-05)
(-6.9029e-05 7.24398e-06 -1.42128e-05)
(-5.41972e-05 1.03571e-05 -3.27929e-06)
(-2.94466e-05 2.52298e-05 1.09258e-05)
(-5.65738e-06 3.80217e-05 1.51441e-05)
(1.78641e-05 2.88168e-05 1.3777e-05)
(3.78541e-05 2.18524e-05 2.3116e-05)
(4.55649e-05 9.85686e-06 3.15927e-05)
(3.64584e-05 -2.6398e-06 3.20684e-05)
(1.88024e-05 -1.81238e-05 2.5918e-05)
(-6.2929e-06 -2.506e-05 1.19121e-05)
(-3.21711e-05 -4.37816e-05 1.23787e-05)
(-6.11012e-05 -6.55761e-05 1.74577e-05)
(-6.61796e-05 -6.96497e-05 2.11308e-05)
(-5.17464e-05 -6.22237e-05 1.95955e-05)
(-2.97715e-05 -4.65191e-05 1.2094e-05)
(-1.07224e-05 -2.37058e-05 3.64048e-06)
(-2.54012e-06 -1.82417e-05 -1.3252e-07)
(9.16297e-06 -1.36728e-05 -5.13075e-06)
(1.64965e-05 -7.68811e-06 -6.88674e-06)
(1.5516e-05 1.387e-06 -3.4417e-06)
(1.87388e-05 4.88159e-06 -1.80364e-06)
(1.93116e-05 8.66584e-06 -5.20404e-07)
(1.95787e-05 1.08213e-05 6.53964e-08)
(3.15637e-07 1.25411e-05 1.717e-05)
(-4.00594e-05 1.07363e-05 -1.5653e-05)
(-5.21641e-05 1.23151e-05 -1.52813e-05)
(-4.65599e-05 2.31589e-05 -8.93694e-06)
(-3.00661e-05 4.4058e-05 -8.80734e-06)
(1.4056e-06 5.59138e-05 -1.39279e-05)
(3.12455e-05 4.83253e-05 -1.28734e-05)
(4.03376e-05 2.50754e-05 -3.19571e-07)
(3.43799e-05 1.24386e-05 1.07915e-05)
(3.56359e-05 8.25319e-06 1.37954e-05)
(3.52652e-05 2.56982e-06 1.0945e-05)
(1.43351e-05 -6.44277e-06 1.42924e-06)
(5.36955e-06 -1.0869e-05 -2.41915e-06)
(4.07895e-06 -1.06643e-05 -4.17616e-06)
(1.16836e-05 -9.82216e-06 -8.63919e-06)
(1.35609e-05 -2.02511e-06 -8.49433e-06)
(1.74503e-05 2.75056e-06 -9.87967e-06)
(2.50188e-05 1.09827e-05 -1.05497e-05)
(2.20427e-05 1.37783e-05 -4.37568e-06)
(2.1684e-05 1.47475e-05 -1.09262e-06)
(3.2761e-05 2.3083e-05 3.36159e-06)
(2.28643e-05 1.58456e-05 3.82602e-06)
(2.38141e-05 1.60205e-05 3.12986e-06)
(2.41881e-05 1.56426e-05 1.24538e-06)
(1.20679e-05 1.68558e-05 3.18582e-05)
(-9.7333e-06 1.86209e-05 -1.20768e-05)
(-3.09494e-05 1.46576e-05 -1.82672e-05)
(-4.16442e-05 1.97673e-05 -1.93836e-05)
(-3.78657e-05 3.40158e-05 -2.48998e-05)
(-1.22358e-05 4.40888e-05 -3.1904e-05)
(1.97954e-05 4.20055e-05 -3.46982e-05)
(4.0639e-05 2.91453e-05 -2.55159e-05)
(4.45405e-05 1.48417e-05 -5.27778e-06)
(3.47356e-05 9.16613e-06 4.24463e-06)
(3.46183e-05 1.14885e-05 4.97128e-06)
(4.08038e-05 1.50518e-05 1.79149e-06)
(2.40493e-05 1.00825e-05 -3.16687e-06)
(2.74133e-05 1.35357e-05 -8.78032e-06)
(2.74039e-05 1.53263e-05 -9.81143e-06)
(3.01243e-05 1.81826e-05 -8.13229e-06)
(2.1909e-05 1.35939e-05 -3.1042e-06)
(2.19394e-05 1.29986e-05 -4.64731e-07)
(2.38903e-05 1.20608e-05 1.16999e-06)
(2.67277e-05 1.15174e-05 3.16365e-06)
(3.91784e-05 1.39598e-05 7.57969e-06)
(4.36704e-05 1.23812e-05 9.09512e-06)
(4.95451e-05 1.11535e-05 7.30871e-06)
(5.24291e-05 9.7042e-06 2.85225e-06)
(7.52045e-06 1.96093e-05 3.68197e-05)
(3.24942e-07 2.81346e-05 -5.87912e-06)
(-1.79683e-05 2.5021e-05 -1.67215e-05)
(-3.21215e-05 2.39512e-05 -2.15785e-05)
(-3.34556e-05 2.87879e-05 -2.75434e-05)
(-1.90052e-05 3.31699e-05 -3.54356e-05)
(3.98359e-06 2.87183e-05 -3.97214e-05)
(2.62353e-05 1.32226e-05 -3.1119e-05)
(4.32199e-05 -4.05105e-07 -1.20779e-05)
(6.2399e-05 1.00599e-07 8.27865e-07)
(6.74913e-05 9.2844e-06 2.62171e-06)
(5.26813e-05 1.22789e-05 -1.46771e-06)
(2.94058e-05 8.90046e-06 -2.62827e-06)
(2.51844e-05 9.15964e-06 -3.31232e-06)
(2.42623e-05 8.77161e-06 -3.30873e-06)
(2.75608e-05 8.28784e-06 -2.65912e-06)
(3.4214e-05 7.15392e-06 -9.38841e-07)
(4.15026e-05 4.40031e-06 1.43859e-06)
(5.09504e-05 1.04774e-06 3.88183e-06)
(5.43515e-05 -2.50685e-06 7.36319e-06)
(5.75095e-05 -5.2513e-06 1.11293e-05)
(6.02249e-05 -7.62302e-06 1.1948e-05)
(6.34072e-05 -9.67196e-06 8.76379e-06)
(6.51835e-05 -1.11566e-05 3.27464e-06)
(2.74568e-06 1.6452e-05 2.98031e-05)
(-3.14627e-06 2.84199e-05 -2.46295e-06)
(-1.21793e-05 2.8634e-05 -1.12462e-05)
(-2.24545e-05 2.64249e-05 -1.72122e-05)
(-2.67519e-05 2.54657e-05 -2.35831e-05)
(-2.04488e-05 2.29209e-05 -3.09701e-05)
(-4.90261e-06 1.31554e-05 -3.45835e-05)
(1.47842e-05 -3.06405e-06 -2.7411e-05)
(3.56862e-05 -1.45805e-05 -1.1444e-05)
(5.81633e-05 -1.09862e-05 -1.10805e-06)
(7.41358e-05 -2.03819e-06 -1.43078e-06)
(7.0402e-05 1.26098e-06 -6.24196e-06)
(6.07187e-05 -3.13735e-07 -7.76574e-06)
(5.22023e-05 -1.34376e-06 -6.79973e-06)
(5.00771e-05 -3.42599e-06 -5.82182e-06)
(5.11154e-05 -6.49355e-06 -3.97617e-06)
(5.25093e-05 -1.00319e-05 -7.48936e-07)
(5.53594e-05 -1.29701e-05 2.2195e-06)
(5.88417e-05 -1.46118e-05 4.4007e-06)
(6.20503e-05 -1.77444e-05 7.73496e-06)
(6.54248e-05 -1.98186e-05 1.15774e-05)
(6.82133e-05 -2.03589e-05 1.24622e-05)
(7.10789e-05 -2.11757e-05 9.17887e-06)
(7.2416e-05 -2.14955e-05 3.41141e-06)
(4.22281e-08 1.09596e-05 1.89153e-05)
(-6.70582e-06 2.15341e-05 -1.23355e-06)
(-1.34571e-05 2.45183e-05 -9.75176e-06)
(-1.96636e-05 2.30827e-05 -1.5613e-05)
(-2.31321e-05 1.92175e-05 -2.18088e-05)
(-2.07145e-05 1.20368e-05 -2.8121e-05)
(-1.11037e-05 -3.93649e-07 -2.99302e-05)
(4.42291e-06 -1.40586e-05 -2.19999e-05)
(1.74407e-05 -1.49045e-05 -7.19775e-06)
(3.5988e-05 -1.09188e-05 -1.21222e-06)
(6.04571e-05 -5.01028e-06 -2.51004e-06)
(6.72543e-05 -4.59912e-06 -7.83224e-06)
(6.37887e-05 -9.65048e-06 -9.48434e-06)
(5.84532e-05 -1.28179e-05 -8.19184e-06)
(5.57647e-05 -1.49513e-05 -6.59906e-06)
(5.50266e-05 -1.66917e-05 -4.37951e-06)
(5.62683e-05 -1.82289e-05 -1.12944e-06)
(5.73489e-05 -1.84359e-05 1.83257e-06)
(5.83854e-05 -1.78456e-05 4.3053e-06)
(6.19887e-05 -1.99182e-05 7.6546e-06)
(6.3641e-05 -2.04493e-05 1.08575e-05)
(6.48055e-05 -1.96771e-05 1.14379e-05)
(6.66706e-05 -1.95612e-05 8.35822e-06)
(6.73545e-05 -1.95734e-05 3.07968e-06)
(3.68101e-07 3.83769e-06 6.87899e-06)
(-6.50427e-06 9.54055e-06 -9.27863e-07)
(-1.35743e-05 1.38058e-05 -8.67836e-06)
(-1.86254e-05 1.37493e-05 -1.61217e-05)
(-2.0503e-05 9.42085e-06 -2.30877e-05)
(-1.80051e-05 4.11273e-07 -2.88095e-05)
(-9.6448e-06 -1.21757e-05 -2.92621e-05)
(2.65036e-06 -2.05368e-05 -1.90701e-05)
(1.39085e-05 -1.92976e-05 -8.61722e-06)
(2.41203e-05 -1.50607e-05 -3.00536e-06)
(3.01882e-05 -7.35078e-06 -1.00551e-06)
(3.71505e-05 -3.98254e-06 -3.32939e-06)
(5.23757e-05 -8.41874e-06 -7.56739e-06)
(5.31426e-05 -1.2704e-05 -7.92018e-06)
(5.11332e-05 -1.47082e-05 -6.54829e-06)
(4.89537e-05 -1.53322e-05 -4.26646e-06)
(4.74467e-05 -1.50634e-05 -1.2931e-06)
(4.59544e-05 -1.44074e-05 1.18446e-06)
(4.589e-05 -1.45658e-05 3.64311e-06)
(5.11414e-05 -1.63155e-05 6.71703e-06)
(5.4991e-05 -1.73997e-05 9.52434e-06)
(5.77207e-05 -1.74253e-05 1.03052e-05)
(6.05208e-05 -1.75595e-05 7.72293e-06)
(6.19393e-05 -1.76909e-05 2.8742e-06)
(2.46532e-06 -2.48094e-06 -4.0527e-06)
(-9.79222e-07 -2.43192e-06 -1.76406e-06)
(-7.07573e-06 -1.37116e-07 -4.60024e-06)
(-1.24299e-05 7.14756e-07 -1.11297e-05)
(-1.40372e-05 -2.36971e-06 -1.78806e-05)
(-1.0505e-05 -9.68706e-06 -2.22183e-05)
(-2.15987e-06 -1.79875e-05 -2.028e-05)
(8.0651e-06 -1.96068e-05 -1.21468e-05)
(1.93041e-05 -2.06204e-05 -8.2606e-06)
(2.65974e-05 -1.73794e-05 -5.32407e-06)
(3.29629e-05 -1.54353e-05 -3.49836e-06)
(3.12574e-05 -1.03852e-05 -2.33837e-06)
(3.11271e-05 -7.96933e-06 -3.19884e-06)
(3.54931e-05 -9.74824e-06 -4.74531e-06)
(3.5991e-05 -1.12759e-05 -4.58631e-06)
(3.56706e-05 -1.22709e-05 -3.14475e-06)
(3.73725e-05 -1.31156e-05 -9.87708e-07)
(3.99843e-05 -1.38776e-05 1.18707e-06)
(4.33426e-05 -1.49414e-05 3.82468e-06)
(4.79764e-05 -1.59475e-05 6.71694e-06)
(5.13467e-05 -1.66379e-05 9.12525e-06)
(5.34595e-05 -1.66375e-05 9.72235e-06)
(5.53149e-05 -1.67652e-05 7.22518e-06)
(5.6218e-05 -1.69393e-05 2.67195e-06)
(2.82709e-06 -5.60422e-06 -8.80551e-06)
(2.25983e-06 -7.77481e-06 -1.94943e-06)
(-5.92963e-07 -7.63904e-06 -1.45799e-06)
(-3.47322e-06 -8.41242e-06 -4.25834e-06)
(-3.92074e-06 -1.06542e-05 -8.0436e-06)
(-6.28536e-07 -1.34254e-05 -9.95983e-06)
(6.05491e-06 -1.62457e-05 -9.87458e-06)
(1.53709e-05 -1.92408e-05 -9.8276e-06)
(2.20533e-05 -1.84538e-05 -8.18638e-06)
(2.5428e-05 -1.58134e-05 -5.44615e-06)
(2.71895e-05 -1.32447e-05 -3.43805e-06)
(3.31924e-05 -1.38001e-05 -3.19592e-06)