/*--------------------------------*- C++ -*----------------------------------*\
  =========                 |
  \\      /  F ield         | OpenFOAM: The Open Source CFD Toolbox
   \\    /   O peration     | Website:  https://openfoam.org
    \\  /    A nd           | Version:  6
     \\/     M anipulation  |
\*---------------------------------------------------------------------------*/
FoamFile
{
    version     2.0;
    format      ascii;
    class       volScalarField;
    location    "48";
    object      yPlus;
}
// * * * * * * * * * * * * * * * * * * * * * * * * * * * * * * * * * * * * * //

dimensions      [0 0 0 0 0 0 0];

internalField   uniform 0;

boundaryField
{
    inlet
    {
        type            calculated;
        value           uniform 0;
    }
    outlet
    {
        type            calculated;
        value           uniform 0;
    }
    roughCylinder
    {
        type            calculated;
        value           nonuniform List<scalar> 
5120
(
76.0006
59.9785
52.2549
55.5637
61.5747
66.652
70.8688
74.4042
77.4106
80.0369
82.4122
84.5983
86.6399
88.5815
90.4446
92.2738
94.098
95.9748
97.9185
99.9421
102.054
104.254
106.535
108.887
111.293
113.726
116.15
118.514
120.742
122.725
124.28
125.148
93.2198
61.294
51.8057
54.0783
59.8975
64.9367
69.1352
72.6547
75.6511
78.2851
80.6499
82.8056
84.813
86.6982
88.5075
90.2692
92.0442
93.8445
95.7116
97.6644
99.7054
101.831
104.036
106.308
108.631
110.981
113.322
115.606
117.757
119.672
121.173
122.01
93.205
60.6596
50.9121
52.6614
58.2553
63.217
67.3696
70.8866
73.9074
76.5429
78.9065
81.0517
83.0138
84.8594
86.6102
88.3219
90.0133
91.7567
93.5641
95.4446
97.4075
99.4545
101.579
103.77
106.012
108.28
110.539
112.742
114.818
116.666
118.114
118.92
91.3926
60.3756
50.1547
51.0737
56.4802
61.4261
65.6017
69.1416
72.1669
74.8301
77.1965
79.3153
81.2575
83.0529
84.7607
86.4044
88.063
89.7349
91.4649
93.2784
95.1773
97.1555
99.2079
101.324
103.486
105.673
107.852
109.976
111.978
113.761
115.156
115.931
91.7422
60.8001
49.844
49.7132
54.7866
59.6709
63.8081
67.3535
70.4398
73.1189
75.4894
77.6197
79.5309
81.3039
82.9609
84.5748
86.1473
87.7699
89.4544
91.2036
93.0275
94.9314
96.9079
98.9456
101.032
103.143
105.245
107.293
109.224
110.943
112.289
113.033
83.0481
58.0925
48.5322
48.0383
52.8842
57.7638
61.9724
65.596
68.6899
71.4112
73.8096
75.9178
77.8348
79.572
81.2077
82.7539
84.318
85.881
87.4888
89.1769
90.9477
92.792
94.7048
96.677
98.6892
100.724
102.75
104.726
106.587
108.245
109.541
110.257
97.1109
60.1814
48.1942
46.6179
51.0878
55.9377
60.1193
63.729
66.9241
69.6839
72.0895
74.2427
76.1423
77.8883
79.4838
81.0331
82.5106
84.032
85.614
87.2497
88.9494
90.7235
92.5647
94.462
96.4056
98.3696
100.324
102.229
104.024
105.623
106.872
107.559
80.7707
59.7587
47.6558
44.9301
48.974
53.8017
58.1076
61.8946
65.101
67.9147
70.3922
72.5289
74.4635
76.1858
77.797
79.2783
80.7805
82.2622
83.7672
85.3472
87.0072
88.7334
90.5211
92.3624
94.2374
96.131
98.0152
99.8525
101.582
103.123
104.326
104.986
77.2357
59.6484
47.39
43.4426
46.9525
51.8
56.1185
59.8336
63.2001
66.103
68.5889
70.8202
72.7532
74.5199
76.0963
77.6287
79.0474
80.4952
82.0011
83.5456
85.1381
86.7971
88.5165
90.2853
92.0967
93.9255
95.7439
97.5135
99.1815
100.668
101.827
102.458
75.7193
59.8754
47.1221
41.7184
44.4557
49.2039
53.6988
57.7963
61.1966
64.1663
66.8027
69.0249
71.0356
72.7876
74.4251
75.8791
77.3609
78.798
80.2257
81.7189
83.2887
84.9148
86.5933
88.3167
90.0655
91.8272
93.5781
95.2853
96.8915
98.3224
99.4374
100.041
70.3193
59.1298
47.4212
40.3218
41.9925
46.7975
51.4265
55.3198
58.9896
62.1597
64.804
67.2012
69.2311
71.083
72.6835
74.2515
75.6458
77.0499
78.5124
79.9926
81.497
83.0558
84.6649
86.3175
88.0065
89.7087
91.3979
93.0389
94.5863
95.965
97.0378
97.6123
74.4792
56.0776
45.5336
38.4189
38.7851
43.2319
48.0822
52.8434
56.6123
59.8696
62.8152
65.2152
67.3936
69.2373
70.9707
72.4368
73.9446
75.3777
76.7542
78.182
79.6838
81.2291
82.8154
84.4318
86.0644
87.7021
89.3257
90.9077
92.3955
93.7204
94.7499
95.2974
74.8747
56.7466
45.1381
36.2945
35.3999
39.9508
45.254
49.4479
53.757
57.4702
60.423
63.1488
65.3773
67.4157
69.0992
70.7779
72.1893
73.5834
75.0406
76.4878
77.9239
79.397
80.9061
82.4543
84.029
85.6116
87.1773
88.6933
90.1236
91.3988
92.387
92.9052
65.0577
54.5637
44.9233
35.0082
30.5672
33.896
39.5077
46.0345
50.5794
54.4372
58.03
60.7809
63.2952
65.3273
67.2654
68.7927
70.3946
71.8793
73.2354
74.6226
76.0832
77.5713
79.0864
80.6069
82.133
83.6523
85.1525
86.6136
87.9848
89.2062
90.1516
90.6432
47.2899
47.3368
41.713
32.1928
25.7751
28.4569
35.5021
40.117
46.2225
51.2214
54.8211
58.2429
60.8616
63.2718
65.1255
67.0344
68.5169
69.943
71.4479
72.9042
74.2955
75.6984
77.1158
78.5726
80.0401
81.5092
82.9546
84.3472
85.6613
86.8338
87.7382
88.1984
25.5796
36.3498
35.5067
29.3906
13.6016
10.0744
19.7357
34.4943
40.9143
46.4042
51.6029
55.0923
58.3193
60.7158
63.0557
64.7093
66.5103
68.1291
69.5022
70.8777
72.3328
73.7948
75.2664
76.7026
78.1317
79.5364
80.9143
82.2554
83.5104
84.6275
85.488
85.9225
11.3017
19.7993
20.1706
13.1459
8.101
15.9645
8.17892
12.5451
32.0259
41.0212
46.3891
51.5966
55.0353
58.2264
60.4007
62.7584
64.3874
65.9
67.5318
69.0581
70.4331
71.7818
73.1125
74.4901
75.8562
77.2154
78.5409
79.8062
81.0018
82.0696
82.8885
83.2866
11.3292
10.6214
7.93968
14.1481
4.072
15.9427
16.859
6.84889
5.49011
30.552
41.1963
46.5435
51.586
54.7324
57.9063
59.7836
61.9736
63.8633
65.3004
66.699
68.1997
69.68
71.1482
72.5153
73.8559
75.1462
76.3979
77.6172
78.7513
79.76
80.532
80.9061
3.91128
9.78821
11.9934
13.9868
15.6941
17.2304
17.9756
18.3409
18.2307
22.13
28.6778
40.8448
46.2786
51.4037
54.2055
57.4988
59.3928
61.0733
62.9709
64.6677
66.063
67.374
68.6154
69.9247
71.1924
72.4422
73.6434
74.7699
75.8387
76.7958
77.5234
77.8515
4.3802
11.7573
10.5121
6.3421
17.9972
13.008
11.5916
10.2843
10.0047
7.44748
22.3916
28.1375
40.6924
45.6897
50.9236
53.1818
56.1984
58.6345
60.1992
61.6679
63.3024
64.8756
66.4095
67.7307
68.9934
70.1639
71.2779
72.3692
73.3725
74.2633
74.9392
75.247
6.61934
15.8969
19.3605
20.3953
17.0242
17.6451
22.4525
22.0156
22.4356
20.8874
20.2768
10.7184
28.3287
40.4409
44.6687
50.3488
52.7118
54.7148
57.1882
59.2576
60.7283
62.0198
63.1492
64.4015
65.5695
66.7071
67.7734
68.7361
69.661
70.4953
71.1205
71.3622
7.98369
18.3651
23.2304
26.6917
28.5923
26.9886
17.6382
13.3228
19.2746
25.334
13.2394
13.402
3.1691
27.0129
39.7835
42.571
47.8476
51.5492
53.3392
54.9576
56.9229
58.7481
60.5013
61.8249
63.0295
64.0681
65.0201
65.975
66.8301
67.5868
68.1538
68.3863
7.84349
18.2857
24.0334
28.2304
30.8024
31.9045
31.7041
24.3668
11.0526
20.5875
18.8212
24.2879
20.6361
22.999
22.8074
39.0888
42.1432
44.9259
48.8969
51.8942
53.5399
54.8277
55.7658
56.9757
58.0433
59.0656
59.9796
60.7259
61.4743
62.1654
62.6695
62.7895
7.45631
17.1173
23.1672
27.8823
31.343
33.3842
33.5976
32.8359
27.2648
5.76046
23.3589
20.0053
24.6955
11.0603
15.5379
12.4072
32.9636
40.3454
42.5924
44.4271
47.3577
49.9447
52.3245
53.7977
54.9905
55.8767
56.6162
57.435
58.1184
58.7166
59.1525
59.3009
6.70547
15.5932
21.5702
26.2637
29.8344
32.4136
34.0341
34.0773
33.0553
29.4683
25.1146
24.701
20.7612
17.2409
13.7146
14.2617
6.03157
23.0161
33.7922
40.2732
42.2379
43.3081
43.9119
45.1054
46.1236
47.0435
47.7867
48.1611
48.6658
49.1695
49.5336
49.4138
5.98884
14.3602
20.0037
24.4857
27.9936
30.6554
32.4419
33.4426
33.2392
32.0738
29.4519
14.5693
25.0881
28.9171
19.3687
24.7537
14.9745
7.11743
14.2861
18.8894
28.4945
35.1114
39.0211
41.2169
42.5073
43.2521
43.5834
44.4462
44.8976
45.3479
45.5051
45.6863
5.23975
13.2351
18.2657
22.2631
25.4552
28.0231
30.003
31.2446
31.8141
31.6825
30.6764
31.8911
22.5792
24.8417
18.5844
20.7007
4.79729
23.7601
17.5726
5.00634
25.9135
28.0683
9.98389
13.9087
16.0174
15.5621
18.1199
14.7017
14.3625
14.5788
16.8693
12.6866
4.63015
12.2211
16.0855
19.1857
21.8458
24.1812
26.1319
27.6247
28.5805
29.2299
30.117
29.4579
31.3804
26.7057
13.4512
10.3271
22.8989
11.5833
25.3934
19.1122
5.48478
17.3494
16.1429
5.70611
28.1509
20.6298
28.6871
8.38111
22.2097
8.56696
31.0768
7.84262
4.25212
11.5074
13.6213
15.3079
17.0514
18.8933
20.7391
22.4334
23.9687
25.456
26.8515
29.168
29.7629
31.4013
30.5427
17.0541
18.1393
24.35
8.71242
15.4293
25.8873
7.50701
20.7952
27.9204
18.6408
9.84313
5.12895
29.0432
11.8683
30.7714
21.4225
30.4404
4.00988
11.4104
12.119
12.5574
13.1367
14.0057
15.3147
17.0662
19.0678
21.2138
23.6032
25.4858
28.2285
29.9378
31.1785
32.8576
25.2152
15.1741
10.6493
14.7482
10.4325
17.7072
8.49909
17.6973
23.9253
29.3838
18.3436
8.09873
31.763
20.2148
31.9048
7.42026
3.77142
11.8503
11.5872
11.8014
11.974
12.1963
13.033
14.639
16.615
18.6915
20.7478
23.302
25.3519
27.8184
30.2298
31.1202
32.49
30.1597
20.8269
8.22569
23.7905
28.0392
25.164
6.25043
28.0176
30.758
28.8318
7.80446
23.0348
10.7232
32.1323
29.7726
3.55231
11.3484
11.7606
11.7433
11.8562
12.1176
13.295
15.1304
16.9752
18.6289
20.262
21.6961
23.6609
25.5897
27.5652
30.2337
31.6834
32.3616
32.6738
29.6961
21.1574
18.0226
23.7848
29.9455
24.4541
4.99314
29.6708
23.3597
18.7456
10.8539
5.06982
12.3616
2.4599
9.17328
11.3689
11.4962
11.6311
11.9867
13.7958
15.9792
17.9031
19.5097
20.8288
22.1532
23.2125
24.4795
26.0983
27.6394
29.8123
31.7923
32.4467
32.4728
32.3139
29.7602
26.6913
23.6462
20.207
19.2846
19.0219
17.8555
17.7193
18.4985
19.6814
19.9532
2.22509
8.45775
10.7752
11.5028
11.82
13.1615
15.5233
17.6625
19.3919
20.8016
22.0182
22.9757
23.9163
24.6954
25.403
26.5847
27.9395
29.5585
31.4418
32.5186
32.3956
32.0548
31.3509
30.9814
30.7302
30.5596
30.035
29.6988
29.4442
29.3915
29.4439
29.5322
2.87343
9.70872
11.3484
11.7636
12.844
15.2275
17.5251
19.4356
21.0148
22.3389
23.436
24.3966
25.1057
25.671
26.1623
26.4762
27.0867
28.1642
29.4224
30.7287
31.641
31.9841
31.4988
30.4984
29.352
28.1458
26.9834
26.1238
25.5044
25.3227
25.5247
25.8167
3.71286
11.2948
11.7761
13.1087
15.4376
17.7349
19.714
21.3907
22.8156
24.0316
25.0819
25.931
26.6296
27.1109
27.3542
27.5344
27.6144
27.7823
28.3899
29.2954
30.0945
30.4731
30.384
29.9244
29.1699
28.2044
27.0742
26.1603
25.6278
25.5709
25.789
26.0085
3.84569
11.8744
13.5014
15.7823
17.9803
19.9546
21.703
23.2411
24.5947
25.7845
26.8127
27.6884
28.3481
28.7936
29.039
29.0239
28.879
28.7185
28.6028
28.7168
29.0714
29.4323
29.3621
28.7877
27.7497
26.3792
24.8661
23.6595
23.0102
23.014
23.4215
23.8678
4.28014
12.3881
15.5901
18.093
20.1784
21.9963
23.6205
25.0812
26.3972
27.5759
28.6205
29.4958
30.1894
30.6593
30.8734
30.8774
30.6583
30.2612
29.8292
29.4586
29.1879
28.9845
28.707
28.1737
27.3037
26.1451
24.8498
23.7718
23.2567
23.4088
23.9056
24.3669
5.53409
14.6183
17.8117
20.1413
22.0563
23.7742
25.3552
26.8093
28.146
29.3636
30.4488
31.3793
32.1085
32.6139
32.8891
32.8984
32.6686
32.2394
31.6396
30.9524
30.279
29.6584
29.0085
28.216
27.1714
25.8744
24.4688
23.3244
22.8113
23.0371
23.6597
24.2366
6.70809
16.1512
19.4193
21.765
23.696
25.4283
27.0228
28.5034
29.8831
31.153
32.2953
33.2733
34.061
34.6284
34.9502
35.0285
34.8504
34.4155
33.7661
32.9516
32.0266
31.0507
30.0508
28.9904
27.8135
26.518
25.2095
24.1769
23.7751
24.0893
24.7592
25.3437
8.04252
9.38565
10.7138
11.1121
11.2982
11.4599
11.7454
12.0181
11.6946
11.6285
11.7071
11.8074
11.6453
11.2158
10.4075
9.92551
9.50244
9.20431
9.00782
8.91241
8.91241
9.00794
9.20442
9.50271
9.92566
10.4078
11.2259
11.3506
11.4717
11.6656
11.8264
11.5474
11.6348
11.7329
11.353
11.5922
11.2299
10.7018
9.38232
8.04136
17.4267
18.2231
18.8764
19.2304
19.4953
19.652
19.7646
19.7824
19.7726
19.7061
19.6338
19.5233
19.4044
19.2583
19.1141
19.0126
18.9201
18.8548
18.8097
18.7879
18.7879
18.8097
18.8548
18.9201
19.0125
19.1143
19.2584
19.4017
19.5164
19.6292
19.7159
19.7624
19.7781
19.7647
19.6533
19.5104
19.2301
18.874
18.2211
17.425
20.639
21.2505
21.754
22.0304
22.2601
22.362
22.4348
22.4299
22.4113
22.3517
22.2904
22.2088
22.1308
22.0474
21.9736
21.9116
21.8587
21.82
21.7928
21.779
21.779
21.7928
21.82
21.8588
21.9116
21.9737
22.0474
22.1307
22.2087
22.2897
22.3529
22.4104
22.4299
22.435
22.3627
22.2622
22.0308
21.7533
21.2495
20.6378
22.9074
23.4309
23.8836
24.1528
24.3843
24.5047
24.6052
24.6423
24.6684
24.6629
24.6573
24.638
24.6204
24.5992
24.5793
24.5629
24.5487
24.539
24.5316
24.5274
24.5274
24.5316
24.539
24.5487
24.5629
24.5793
24.5992
24.6204
24.638
24.6571
24.663
24.6682
24.6422
24.6052
24.5048
24.3845
24.1529
23.8834
23.4306
22.9067
24.8045
25.295
25.7389
26.0227
26.2774
26.437
26.5822
26.677
26.7653
26.8263
26.8857
26.9328
26.9779
27.0171
27.0522
27.0841
27.1107
27.1322
27.1463
27.1525
27.1525
27.1463
27.1322
27.1106
27.0841
27.0521
27.0171
26.9778
26.9327
26.8856
26.8262
26.7652
26.6769
26.5821
26.4369
26.2773
26.0226
25.7388
25.295
24.8041
26.5354
27.0034
27.4576
27.7608
28.0545
28.2639
28.4699
28.6278
28.7841
28.9137
29.0418
29.1562
29.266
29.3666
29.4581
29.5397
29.6081
29.662
29.6981
29.7151
29.7151
29.6981
29.6619
29.6081
29.5395
29.458
29.3665
29.2659
29.1561
29.0417
28.9136
28.784
28.6276
28.4697
28.2637
28.0543
27.7607
27.4574
27.0034
26.5352
28.1523
28.6039
29.0864
29.4163
29.763
30.0227
30.2908
30.5099
30.7317
30.9264
31.1198
31.2976
31.4686
31.6263
31.7707
31.8982
32.0054
32.089
32.1452
32.1718
32.1717
32.1452
32.0889
32.0053
31.8981
31.7704
31.6261
31.4684
31.2973
31.1196
30.9263
30.7315
30.5096
30.2906
30.0226
29.7627
29.4161
29.0862
28.6038
28.1522
29.6749
30.1189
30.6417
31.0013
31.3986
31.7051
32.0291
32.3032
32.5834
32.8362
33.0874
33.3213
33.5462
33.7542
33.9445
34.1119
34.2523
34.3613
34.4343
34.4685
34.4684
34.4342
34.3612
34.2522
34.1117
33.9443
33.754
33.546
33.3211
33.0872
32.836
32.5831
32.3029
32.0288
31.7049
31.3983
31.001
30.6415
30.1187
29.6748
31.1076
31.5478
32.1129
32.4968
32.9394
33.2857
33.6572
33.9785
34.3079
34.6102
34.9101
35.1913
35.461
35.7107
35.9386
36.1386
36.3059
36.435
36.5211
36.5612
36.5612
36.5211
36.4349
36.3057
36.1384
35.9384
35.7104
35.4608
35.1909
34.9098
34.6099
34.3076
33.9781
33.6568
33.2853
32.939
32.4965
32.1125
31.5475
31.1074
32.4337
32.8711
33.4721
33.8765
34.3558
34.7353
35.1457
35.5059
35.8755
36.218
36.5573
36.8768
37.1823
37.4648
37.7223
37.9475
38.1353
38.2796
38.3758
38.42
38.42
38.3757
38.2795
38.1351
37.9472
37.722
37.4645
37.182
36.8763
36.557
36.2177
35.8751
35.5056
35.1452
34.7348
34.3555
33.8761
33.4717
32.8708
32.4334
33.6261
34.0592
34.6906
35.1114
35.6203
36.027
36.4685
36.8606
37.2622
37.6371
38.0073
38.3564
38.6894
38.9971
39.2763
39.52
39.7226
39.8779
39.981
40.0282
40.0282
39.9809
39.8778
39.7224
39.5197
39.276
38.9967
38.6891
38.356
38.0069
37.6365
37.2617
36.86
36.4681
36.0265
35.6198
35.111
34.6902
34.0588
33.6257
34.6557
35.0811
35.7413
36.175
36.7097
37.139
37.6066
38.0249
38.4525
38.8532
39.2478
39.6199
39.9737
40.2996
40.5947
40.8513
41.064
41.2264
41.334
41.3831
41.3831
41.3339
41.2262
41.0637
40.851
40.5943
40.2992
39.9732
39.6195
39.2473
38.8528
38.4521
38.0243
37.6062
37.1386
36.7091
36.1745
35.7408
35.0806
34.6553
35.4899
35.9137
36.6009
37.049
37.6074
38.0583
38.5493
38.9906
39.4409
39.8633
40.2778
40.6683
41.038
41.3779
41.6842
41.9499
42.1693
42.3365
42.4468
42.497
42.497
42.4467
42.3363
42.1691
41.9496
41.6839
41.3774
41.0377
40.6678
40.2773
39.8627
39.4404
38.9901
38.5488
38.0577
37.6068
37.0484
36.6002
35.9132
35.4893
36.1069
36.5383
37.2541
37.7219
38.3048
38.7791
39.2933
39.7574
40.2288
40.6711
41.1034
41.5096
41.8927
42.2435
42.5586
42.831
43.0552
43.2256
43.3378
43.3886
43.3886
43.3377
43.2254
43.055
42.8307
42.5583
42.2432
41.8922
41.5092
41.1029
40.6706
40.2282
39.7569
39.2927
38.7784
38.3042
37.7213
37.2535
36.5376
36.1064
36.4968
36.9399
37.6948
38.1864
38.7994
39.2996
39.8397
40.3276
40.8208
41.2828
41.7321
42.1531
42.5483
42.9089
43.2314
43.5092
43.7371
43.9099
44.0235
44.075
44.0749
44.0234
43.9097
43.7369
43.5089
43.231
42.9085
42.5479
42.1526
41.7316
41.2823
40.8202
40.3271
39.8391
39.2991
38.7989
38.1856
37.6942
36.9391
36.4961
36.637
37.1152
37.9133
38.4397
39.0874
39.6189
40.1879
40.7023
41.2186
41.7012
42.168
42.6036
43.0106
43.3804
43.7099
43.9926
44.2239
44.399
44.5139
44.5659
44.5658
44.5137
44.3988
44.2237
43.9923
43.7095
43.3801
43.0101
42.6032
42.1674
41.7006
41.218
40.7017
40.1873
39.6183
39.0867
38.439
37.9126
37.1144
36.6363
36.5215
37.052
37.9013
38.4739
39.1611
39.7305
40.3315
40.8756
41.417
41.9217
42.4068
42.8577
43.2767
43.6559
43.9923
44.28
44.5147
44.692
44.8082
44.8611
44.8611
44.8082
44.6918
44.5145
44.2797
43.992
43.6556
43.2762
42.8572
42.4062
41.9212
41.4164
40.875
40.3309
39.7299
39.1605
38.4732
37.9005
37.0513
36.5208
36.1494
36.7303
37.6462
38.2725
39.0069
39.6188
40.2562
40.8328
41.4017
41.9303
42.4349
42.9021
43.3338
43.7231
44.0668
44.3599
44.5983
44.7782
44.8962
44.95
44.9499
44.8961
44.778
44.5982
44.3597
44.0665
43.7227
43.3334
42.9015
42.4344
41.9298
41.4011
40.8322
40.2555
39.6182
39.0062
38.2718
37.6455
36.7295
36.1488
35.5197
36.1441
37.1234
37.8157
38.6019
39.2619
39.9387
40.5513
41.15
41.7045
42.2303
42.7151
43.1609
43.5611
43.9133
44.2126
44.4555
44.6385
44.7585
44.8136
44.8135
44.7583
44.6383
44.4553
44.2123
43.9129
43.5608
43.1604
42.7147
42.2299
41.704
41.1494
40.5507
39.9381
39.2613
38.6012
37.8149
37.1227
36.1436
35.519
34.654
35.2979
36.3173
37.0749
37.9198
38.6327
39.3521
40.0032
40.6339
41.2165
41.7654
42.2696
42.731
43.1438
43.5057
43.8125
44.061
44.2479
44.3706
44.4273
44.4273
44.3705
44.2478
44.0608
43.8122
43.5055
43.1435
42.7307
42.2691
41.7649
41.216
40.6334
40.0027
39.3514
38.632
37.9193
37.0742
36.3168
35.297
34.6534
33.6046
34.2134
35.2387
36.0413
36.937
37.7076
38.4701
39.1619
39.8255
40.4379
41.0115
41.5369
42.0158
42.443
42.8163
43.1322
43.3875
43.5794
43.7056
43.7642
43.7642
43.7055
43.5792
43.3873
43.1319
42.816
42.4427
42.0155
41.5366
41.0111
40.4375
39.8251
39.1613
38.4696
37.7072
36.9364
36.0408
35.238
34.2132
33.6036
32.4309
32.9369
33.9214
34.7318
35.6565
36.4744
37.2794
38.0096
38.7056
39.3475
39.9463
40.4939
40.9915
41.4345
41.8208
42.147
42.4104
42.6085
42.7388
42.7999
42.7999
42.7387
42.6083
42.4103
42.1468
41.8205
41.4342
40.9912
40.4936
39.946
39.3471
38.7052
38.0092
37.279
36.4738
35.656
34.7311
33.921
32.9358
32.4309
31.1784
31.5249
32.4194
33.1914
34.1124
34.9532
35.7906
36.5514
37.2747
37.9424
38.5643
39.1329
39.649
40.108
40.5079
40.8453
41.1177
41.3224
41.4575
41.5213
41.5213
41.4574
41.3224
41.1176
40.8451
40.5076
40.1078
39.6487
39.1328
38.564
37.9421
37.2744
36.551
35.7901
34.9527
34.1118
33.1908
32.4185
31.5244
31.1773
29.86
30.028
30.7938
31.486
32.3653
33.1958
34.0426
34.8245
35.5659
36.2523
36.892
37.4778
38.0094
38.4827
38.8951
39.2432
39.5243
39.7358
39.8755
39.9421
39.9421
39.8755
39.7357
39.5242
39.243
38.895
38.4825
38.0092
37.4775
36.8917
36.2519
35.5655
34.8241
34.0421
33.1952
32.3646
31.4851
30.793
30.0273
29.8594
28.4657
28.4842
29.1129
29.7046
30.516
31.3077
32.1388
32.9209
33.6665
34.3601
35.0086
35.6045
36.1465
36.6298
37.0516
37.4079
37.6961
37.9131
38.057
38.126
38.126
38.0569
37.9131
37.696
37.4078
37.0514
36.6297
36.1462
35.6042
35.0084
34.3598
33.666
32.9204
32.1382
31.307
30.515
29.7035
29.1118
28.4828
28.4653
27.0094
26.9472
27.4597
27.961
28.696
29.4338
30.2295
30.9923
31.7298
32.4191
33.0668
33.6643
34.2095
34.6969
35.123
35.4838
35.776
35.9964
36.1427
36.2133
36.2133
36.1427
35.9963
35.7759
35.4837
35.1229
34.6967
34.2092
33.6639
33.0664
32.4187
31.7292
30.9918
30.2287
29.433
28.695
27.96
27.4586
26.9464
27.0087
25.6019
25.5431
25.9781
26.4273
27.0986
27.7882
28.5426
29.2764
29.9928
30.6675
31.3047
31.8952
32.4356
32.92
33.3444
33.7043
33.996
34.2164
34.363
34.434
34.434
34.363
34.2164
33.996
33.7041
33.3443
32.9199
32.4355
31.895
31.3046
30.6673
29.9925
29.2761
28.5422
27.7876
27.0978
26.4261
25.9768
25.5409
25.5993
24.5314
24.5224
24.9269
25.3607
25.9904
26.6443
27.3581
28.0563
28.7403
29.3905
30.0076
30.5816
31.1082
31.5811
31.996
32.3483
32.6342
32.8503
32.9942
33.0639
33.0639
32.994
32.8502
32.6341
32.3482
31.9958
31.5809
31.1078
30.5812
30.0071
29.3898
28.7394
28.0554
27.3568
26.6429
25.9882
25.3589
24.9231
24.5203
24.5249
24.1303
24.1793
24.5718
25.0019
25.5956
26.2127
26.8781
27.5304
28.1743
28.791
29.3781
29.9253
30.4282
30.8804
31.2774
31.6147
31.8885
32.0956
32.2333
32.3001
32.3
32.2332
32.0955
31.8883
31.6144
31.2772
30.8801
30.4278
29.9248
29.3774
28.7903
28.1735
27.5295
26.877
26.2116
25.594
25.0006
24.5696
24.1779
24.1274
24.4771
24.5402
24.9217
25.3287
25.8815
26.4497
27.0598
27.6611
28.2599
28.8358
29.3854
29.8987
30.3708
30.7958
31.169
31.4865
31.7441
31.939
32.0685
32.131
32.131
32.0684
31.9389
31.7439
31.4861
31.1688
30.7954
30.3704
29.8983
29.3849
28.8353
28.2594
27.6606
27.0589
26.449
25.8801
25.3276
24.9191
24.5388
24.4717
25.1918
25.2451
25.6193
25.996
26.5139
27.0369
27.6036
28.1637
28.724
29.2633
29.7789
30.2605
30.7039
31.1032
31.4542
31.7527
31.9949
32.1782
32.2998
32.3582
32.3582
32.2997
32.178
31.9946
31.7522
31.4538
31.1026
30.7032
30.2597
29.7779
29.2623
28.723
28.1626
27.6025
27.0357
26.5129
25.9948
25.6186
25.2441
25.1924
25.8222
25.8488
26.2237
26.5735
27.0723
27.5661
28.1098
28.6451
29.183
29.7001
30.1951
30.6576
31.0838
31.4677
31.8051
32.0921
32.3253
32.5014
32.6182
32.6742
32.6742
32.6182
32.5013
32.3252
32.092
31.805
31.4675
31.0837
30.6575
30.1949
29.6999
29.1828
28.645
28.1098
27.5661
27.0723
26.5736
26.2237
25.8492
25.8224
92.8572
60.6153
52.3142
55.5566
61.5682
66.6481
70.8662
74.4027
77.4103
80.0371
82.4124
84.5986
86.6402
88.5817
90.4447
92.2739
94.0981
95.975
97.9187
99.9425
102.054
104.254
106.535
108.887
111.293
113.726
116.151
118.515
120.742
122.726
124.28
125.149
81.4671
60.9165
51.8999
54.0922
59.8948
64.9362
69.1363
72.6558
75.6516
78.2851
80.65
82.8059
84.8132
86.6984
88.5077
90.2695
92.0445
93.8446
95.7118
97.6643
99.7059
101.831
104.036
106.308
108.631
110.981
113.322
115.606
117.757
119.673
121.174
122.011
78.0157
59.9686
51.0008
52.6611
58.2506
63.2146
67.3672
70.8849
73.907
76.5436
78.9073
81.0522
83.0144
84.8599
86.6105
88.3221
90.0135
91.757
93.5643
95.4451
97.4075
99.4545
101.579
103.77
106.012
108.28
110.539
112.742
114.818
116.667
118.115
118.92
77.9957
60.0542
50.2815
51.1025
56.4813
61.4276
65.6048
69.1449
72.169
74.8308
77.1969
79.3158
81.2578
83.0532
84.761
86.4048
88.0635
89.735
91.4652
93.2782
95.1776
97.156
99.2083
101.324
103.486
105.673
107.852
109.977
111.979
113.761
115.157
115.932
71.1407
58.886
49.7372
49.7045
54.7848
59.6705
63.8066
67.3516
70.4388
73.1197
75.4906
77.6205
79.5317
81.3048
82.9615
84.5752
86.1473
87.7703
89.4545
91.2044
93.0275
94.9314
96.9074
98.946
101.033
103.143
105.244
107.293
109.224
110.944
112.289
113.034
98.7073
60.5318
48.8428
48.0747
52.8898
57.7683
61.9771
65.601
68.694
71.4127
73.8101
75.9185
77.8352
79.5722
81.2079
82.7539
84.3189
85.8811
87.4891
89.1764
90.9481
92.7924
94.7057
96.6766
98.6897
100.724
102.751
104.726
106.587
108.245
109.541
110.257
84.6462
60.6709
48.3119
46.6145
51.0878
55.9364
60.1177
63.7268
66.9218
69.6841
72.0909
74.2438
76.1433
77.8895
79.4849
81.0342
82.5102
84.0325
85.6141
87.2508
88.9494
90.7234
92.5642
94.4629
96.4056
98.3696
100.324
102.229
104.024
105.623
106.872
107.56
71.0788
59.2633
47.8899
44.9552
48.9813
53.8107
58.1152
61.901
65.1071
67.9174
70.3927
72.5295
74.4639
76.1857
77.7966
79.2775
80.7818
82.2623
83.7676
85.3463
87.0077
88.7338
90.5222
92.362
94.2378
96.1314
98.016
99.8525
101.582
103.123
104.326
104.986
77.454
57.4994
46.9992
43.4303
46.9569
51.7982
56.1145
59.8299
63.1957
66.1017
68.5902
70.8213
72.7542
74.5213
76.098
77.6312
79.0465
80.4957
82.0011
83.5471
85.138
86.7969
88.5155
90.2862
92.0967
93.9255
95.7435
97.5139
99.1819
100.668
101.827
102.458
78.9382
58.2978
46.7003
41.6901
44.4574
49.2123
53.7098
57.8056
61.2056
64.1709
66.8032
69.0252
71.0359
72.7872
74.4241
75.8766
77.3627
78.7981
80.2264
81.7174
83.2892
84.9153
86.5946
88.3161
90.066
91.828
93.5798
95.2849
96.8919
98.3228
99.4378
100.042
74.8429
57.7992
46.7491
40.2122
42.0021
46.801
51.4203
55.3115
58.98
62.155
64.8047
67.2023
69.232
71.0846
72.6856
74.256
75.6445
77.0504
78.512
79.9949
81.4968
83.0554
84.6638
86.3184
88.0064
89.7083
91.3966
93.0393
94.5863
95.9659
97.0382
97.6131
66.813
54.4475
45.209
38.38
38.7662
43.2388
48.0968
52.8586
56.6291
59.8785
62.8162
65.2152
67.3937
69.2364
70.9691
72.4319
73.9466
75.3778
76.7552
78.1796
79.6842
81.2296
82.8165
84.4312
86.0646
87.7025
89.3274
90.9073
92.3955
93.7204
94.7503
95.2982
74.1708
56.5086
45.0879
36.3172
35.4458
39.9264
45.232
49.4299
53.7344
57.4578
60.4219
63.1495
65.3777
67.4175
69.1014
70.7841
72.1878
73.5836
75.0396
76.4912
77.9236
79.3967
80.9059
82.4549
84.0289
85.611
87.1751
88.6941
90.1236
91.3992
92.387
92.906
64.7315
54.3496
44.7577
34.9197
30.5058
34.0121
39.5783
46.0652
50.6136
54.457
58.033
60.7809
63.2959
65.326
67.2637
68.7865
70.3966
71.8793
73.2369
74.6184
76.0836
77.5713
79.085
80.6067
82.1332
83.6532
85.1557
86.6128
87.9848
89.2062
90.1521
90.644
47.2211
47.1668
41.561
32.1558
25.9273
28.3248
35.3743
40.072
46.1869
51.1949
54.8165
58.2432
60.8606
63.2736
65.1275
67.0409
68.5142
69.9432
71.4459
72.9095
74.2952
75.6991
77.1209
78.572
80.04
81.5082
82.9508
84.348
85.6612
86.8342
87.7382
88.1993
25.0588
36.1135
35.3335
29.3023
13.2113
8.20829
20.0091
34.6092
40.8874
46.4197
51.6077
55.0915
58.3207
60.7139
63.054
64.7035
66.5147
68.1287
69.5048
70.8708
72.333
73.7929
75.2549
76.7041
78.1317
79.5378
80.9196
82.254
83.5102
84.627
85.4889
85.9233
6.34802
19.5166
19.9896
11.5274
7.18837
15.8028
7.79445
11.6111
32.4414
41.1469
46.3908
51.5984
55.0364
58.2298
60.4028
62.7637
64.3799
65.9004
67.528
69.0669
70.4329
71.7853
73.1338
74.4871
75.8559
77.2136
78.5344
79.8073
81.0014
82.0705
82.8877
83.2877
12.8531
9.34864
9.04711
6.6899
4.78724
15.9722
16.7372
17.2073
21.8559
29.5418
41.1781
46.5528
51.576
54.7256
57.9038
59.7783
61.9848
63.8621
65.305
66.687
68.1994
69.6739
71.1124
72.5196
73.8559
75.1485
76.4072
77.6147
78.7509
79.7589
80.5331
80.9069
11.8544
7.64863
12.2955
13.9867
16.0053
17.0849
6.28298
3.68137
6.35952
10.3057
28.4677
40.7113
46.3168
51.4218
54.2094
57.5044
59.3764
61.0744
62.9633
64.683
66.0633
67.3826
68.6681
69.9178
71.192
72.439
73.6315
74.7718
75.8379
76.7972
77.5218
77.853
6.72621
11.6188
6.10314
16.329
13.028
18.9531
19.7997
19.7825
19.9002
10.3923
9.27278
29.3083
40.6356
45.6414
50.9172
53.1727
56.219
58.6305
60.2091
61.6461
63.301
64.8634
66.3384
67.7389
68.993
70.168
71.2954
72.3649
73.3718
74.2613
74.9411
75.2478
6.58812
15.9576
19.7892
20.7223
16.7053
6.31798
17.2305
4.34822
22.3836
21.0496
20.2464
22.9059
27.9493
40.5846
44.6795
50.3601
52.6766
54.7199
57.1722
59.2863
60.7299
62.0346
63.2313
64.3911
65.5693
66.7014
67.7502
68.7396
69.6595
70.4976
71.1174
71.3648
8.00809
18.3782
23.1939
26.6857
28.6236
27.3301
17.0675
17.0156
20.112
6.26405
15.0154
10.1238
18.8757
26.3806
39.7624
42.5534
47.9236
51.5368
53.3541
54.9135
56.9193
58.7303
60.4235
61.8313
63.0278
64.0756
65.0557
65.9665
66.8288
67.5831
68.1573
68.3871
7.80417
18.2515
24.0043
28.1957
30.7731
31.9033
31.7273
24.5237
27.756
25.4384
24.8569
6.0201
21.7076
8.64084
23.0853
39.0632
41.9686
44.9453
48.8916
51.9592
53.5445
54.8459
55.8097
56.9803
58.0437
59.0552
59.93
60.7337
61.4711
62.1703
62.6628
62.7938
7.47204
17.1493
23.2001
27.9129
31.3644
33.3862
33.5932
32.8069
27.8184
13.0882
26.9321
25.8558
6.11631
21.3419
2.9919
13.5526
32.7718
40.2313
42.5668
44.3077
47.3502
49.9291
52.3321
53.7524
54.9872
55.8929
56.6979
57.4153
58.1166
58.7057
59.161
59.3039
6.70163
15.583
21.5592
26.2541
29.8284
32.4131
34.0329
34.0697
32.9879
28.5656
17.0596
19.1175
27.3697
23.5658
21.8742
22.5207
21.3177
24.1985
33.5677
40.4738
42.2482
43.3172
43.95
45.2519
46.1183
47.0092
47.6545
48.1912
48.6576
49.2013
49.5146
49.4187
5.98546
14.3664
20.0117
24.4936
27.9998
30.6594
32.4444
33.4457
33.2341
32.2212
29.4419
13.5763
25.9711
15.6932
9.81719
22.8969
15.1492
24.9214
19.5179
18.2675
28.483
35.1469
37.934
40.8894
42.5628
43.3456
43.8327
44.3488
44.8421
45.2526
45.5352
45.7019
5.2409
13.2472
18.2691
22.2665
25.46
28.029
30.0093
31.2502
31.8236
31.666
30.9742
32.0039
22.9446
29.605
26.4958
25.5587
18.569
14.9861
24.4739
7.8361
25.9745
28.6215
27.6983
14.5033
13.9697
15.3629
17.1531
14.8626
16.4192
14.8743
16.7214
12.7604
4.64504
12.3131
16.0983
19.1895
21.8501
24.1862
26.1371
27.6299
28.5832
29.2259
30.0312
29.462
31.3299
27.3917
16.8343
20.8071
17.3339
25.0584
6.85315
25.2212
6.13485
17.7399
1.67417
27.6396
20.2169
7.83929
29.4642
21.4972
30.6697
22.2199
31.2201
7.72987
4.38848
12.0236
13.6827
15.3192
17.0607
18.9019
20.7458
22.4374
23.9702
25.4627
26.852
29.1463
29.7867
31.416
30.2319
17.2378
14.4185
26.3479
15.723
19.9757
25.8368
9.10543
20.8268
20.2841
9.84589
29.2874
20.2222
7.79436
21.9217
7.00218
21.6377
31.9424
3.9936
12.0736
12.1251
12.559
13.1432
14.0101
15.3153
17.0635
19.0624
21.2018
23.6064
25.4927
28.2162
29.9438
31.2062
32.8261
25.7229
12.141
28.4409
23.0059
27.3825
23.1753
8.60241
17.092
28.8733
23.4248
31.1748
25.8064
9.39298
20.5739
32.1115
27.0784
3.73025
11.7697
11.5749
11.8106
11.982
12.1986
13.0293
14.6323
16.6083
18.6868
20.7334
23.2888
25.3484
27.8094
30.2459
31.1413
32.4724
30.5026
21.3248
6.81867
28.2316
30.0533
24.8268
30.4885
31.0753
27.945
14.8711
4.92033
27.4867
17.0046
33.7561
19.9763
3.55875
11.3667
11.6498
11.7466
11.8575
12.1173
13.2904
15.1248
16.97
18.6237
20.2605
21.6924
23.654
25.5845
27.5552
30.2316
31.7003
32.3492
32.6437
29.8758
21.6453
19.1934
23.8944
16.7039
25.1202
19.4125
14.2909
23.2653
22.1064
14.9992
28.7984
34.3511
2.45668
9.16532
11.3605
11.4896
11.6312
11.9844
13.7889
15.973
17.8984
19.5058
20.8239
22.15
23.2098
24.4772
26.0946
27.6381
29.8197
31.7975
32.4397
32.4988
32.2798
29.6735
26.6294
23.2477
19.8927
18.3486
18.3313
18.0481
17.6405
18.1537
18.5947
21.1327
2.22093
8.44621
10.7555
11.5385
11.8922
13.1574
15.5184
17.6586
19.3889
20.7993
22.0168
22.9732
23.9136
24.6923
25.4023
26.5832
27.9384
29.5648
31.4416
32.5357
32.42
32.0321
31.2967
31.0253
30.7522
30.5207
30.1369
29.679
29.4151
29.3821
29.3918
29.4183
2.86994
9.69836
11.4538
11.5663
12.8363
15.2211
17.5207
19.4325
21.0125
22.3369
23.4341
24.3959
25.1054
25.6706
26.1607
26.4758
27.0887
28.163
29.421
30.7418
31.6433
31.9833
31.4992
30.486
29.2901
28.126
26.9957
26.1608
25.5059