/*--------------------------------*- C++ -*----------------------------------*\
  =========                 |
  \\      /  F ield         | OpenFOAM: The Open Source CFD Toolbox
   \\    /   O peration     | Website:  https://openfoam.org
    \\  /    A nd           | Version:  6
     \\/     M anipulation  |
\*---------------------------------------------------------------------------*/
FoamFile
{
    version     2.0;
    format      ascii;
    class       volVectorField;
    location    "38";
    object      wallShearStress;
}
// * * * * * * * * * * * * * * * * * * * * * * * * * * * * * * * * * * * * * //

dimensions      [0 2 -2 0 0 0 0];

internalField   uniform (0 0 0);

boundaryField
{
    inlet
    {
        type            calculated;
        value           uniform (0 0 0);
    }
    outlet
    {
        type            calculated;
        value           uniform (0 0 0);
    }
    roughCylinder
    {
        type            calculated;
        value           nonuniform List<vector> 
3840
(
(-0.000416964 -0.000602438 -0.000254123)
(-0.000332024 -0.000505465 -1.75641e-05)
(-0.000364852 -0.000578707 4.09103e-05)
(-0.000451989 -0.000683681 0.000109957)
(-0.000544159 -0.000755005 0.000175826)
(-0.000635085 -0.000794625 0.000231506)
(-0.000717615 -0.000808002 0.000274012)
(-0.000789619 -0.000809045 0.000303808)
(-0.000851202 -0.000812078 0.000323484)
(-0.00089987 -0.000820608 0.000332793)
(-0.000940081 -0.000836654 0.000333627)
(-0.000974193 -0.000858739 0.000328564)
(-0.00100575 -0.000885184 0.000319818)
(-0.0010377 -0.000914815 0.000308853)
(-0.00107174 -0.000946977 0.00029629)
(-0.00110844 -0.000981387 0.000282228)
(-0.00114791 -0.00101796 0.000266564)
(-0.00118982 -0.00105635 0.000248991)
(-0.00123362 -0.00109602 0.000228932)
(-0.00127844 -0.00113605 0.000205378)
(-0.00132288 -0.00117509 0.000176496)
(-0.00136471 -0.00121109 0.00013969)
(-0.00139962 -0.00124104 9.1001e-05)
(-0.00142062 -0.00125953 3.13696e-05)
(-0.000455105 -0.000600469 -0.000254369)
(-0.000357655 -0.0004982 -2.21323e-05)
(-0.000383906 -0.000562366 3.29518e-05)
(-0.000472804 -0.000666927 9.89325e-05)
(-0.000567472 -0.000740511 0.000163093)
(-0.000661335 -0.000783396 0.000217934)
(-0.000747834 -0.000801296 0.000260624)
(-0.00082512 -0.000807331 0.000292051)
(-0.000891978 -0.000812218 0.000313774)
(-0.000943243 -0.000818745 0.000323796)
(-0.000985243 -0.000833524 0.000324926)
(-0.00102131 -0.000854874 0.000320079)
(-0.00105479 -0.000880906 0.000311514)
(-0.00108853 -0.000910134 0.000300725)
(-0.00112437 -0.000941908 0.000288415)
(-0.0011631 -0.00097604 0.000274758)
(-0.00120461 -0.00101222 0.000259581)
(-0.0012486 -0.00105018 0.000242591)
(-0.00129449 -0.00108933 0.000223194)
(-0.00134136 -0.00112881 0.000200379)
(-0.00138777 -0.00116728 0.000172325)
(-0.00143141 -0.00120274 0.000136465)
(-0.0014678 -0.00123224 8.89179e-05)
(-0.00148969 -0.00125043 3.06448e-05)
(-0.000476133 -0.000567182 -0.000237923)
(-0.00037503 -0.00047608 -2.66711e-05)
(-0.000400918 -0.000539083 2.44786e-05)
(-0.000491747 -0.000643595 8.70056e-05)
(-0.00058876 -0.000719306 0.000149281)
(-0.000685574 -0.000765682 0.000203417)
(-0.000776631 -0.000788821 0.000246771)
(-0.000859238 -0.000799887 0.000279786)
(-0.000930634 -0.000806936 0.000302907)
(-0.000985274 -0.000811661 0.000313633)
(-0.0010295 -0.000825245 0.000315322)
(-0.00106759 -0.000845581 0.000310738)
(-0.00110288 -0.000870802 0.000302382)
(-0.00113855 -0.000899484 0.000291873)
(-0.00117637 -0.000930772 0.000279932)
(-0.0012169 -0.000964211 0.000266688)
(-0.00126036 -0.000999722 0.000252054)
(-0.00130633 -0.00103693 0.000235698)
(-0.00135423 -0.00107531 0.000217028)
(-0.00140307 -0.00111396 0.000195015)
(-0.00145136 -0.0011516 0.000167851)
(-0.00149668 -0.00118627 0.000133007)
(-0.00153448 -0.00121512 8.66856e-05)
(-0.00155718 -0.00123289 2.98696e-05)
(-0.000510953 -0.000548201 -0.000222795)
(-0.000399929 -0.000460598 -3.24668e-05)
(-0.000414769 -0.000511693 1.55692e-05)
(-0.000505887 -0.000614067 7.43422e-05)
(-0.000605243 -0.000692007 0.00013452)
(-0.000705734 -0.000742924 0.00018806)
(-0.000801381 -0.000771466 0.000232145)
(-0.000888854 -0.000787058 0.00026656)
(-0.000964331 -0.000795949 0.000290654)
(-0.0010243 -0.000801132 0.000302766)
(-0.00107058 -0.000812641 0.000304947)
(-0.00111077 -0.000831694 0.000300705)
(-0.00114819 -0.0008561 0.00029273)
(-0.0011857 -0.000883952 0.000282553)
(-0.00122525 -0.000914383 0.000270996)
(-0.00126781 -0.000947162 0.000258297)
(-0.00131319 -0.000981845 0.000244272)
(-0.00136109 -0.00101816 0.000228613)
(-0.00141084 -0.00105552 0.000210704)
(-0.00146148 -0.00109312 0.000189525)
(-0.00151146 -0.0011297 0.00016328)
(-0.00155831 -0.00116337 0.000129476)
(-0.00159736 -0.0011914 8.44089e-05)
(-0.00162079 -0.00120864 2.90802e-05)
(-0.000532645 -0.000513808 -0.000196502)
(-0.000415253 -0.00043073 -3.81867e-05)
(-0.000423393 -0.000478803 6.48328e-06)
(-0.000514867 -0.000579375 6.1196e-05)
(-0.000616531 -0.000659588 0.000119012)
(-0.000720078 -0.000714437 0.000171587)
(-0.000820324 -0.000748413 0.000216277)
(-0.000912802 -0.000768546 0.000252055)
(-0.000993244 -0.000779986 0.000277352)
(-0.00105764 -0.000785748 0.000290635)
(-0.00110766 -0.000795348 0.000293701)
(-0.00115023 -0.000813059 0.000290049)
(-0.0011896 -0.000836109 0.000282484)
(-0.00122914 -0.000863011 0.000272787)
(-0.00127075 -0.000892653 0.000261781)
(-0.00131492 -0.000924301 0.000249623)
(-0.00136204 -0.000957893 0.000236255)
(-0.00141165 -0.000993017 0.000221329)
(-0.00146313 -0.00102917 0.000204234)
(-0.00151541 -0.00106549 0.000183928)
(-0.00156691 -0.00110079 0.000158631)
(-0.00161513 -0.00113327 0.000125891)
(-0.0016553 -0.0011603 8.21013e-05)
(-0.00167935 -0.0011769 2.82815e-05)
(-0.00048416 -0.000416512 -0.000150042)
(-0.000424701 -0.000397936 -4.31036e-05)
(-0.000427728 -0.000442747 -2.37402e-06)
(-0.000517462 -0.00054003 4.76212e-05)
(-0.000620836 -0.00062197 0.000102622)
(-0.000728408 -0.000681628 0.000154148)
(-0.000833282 -0.000720762 0.000199219)
(-0.000930418 -0.000744822 0.000236112)
(-0.00101492 -0.000757987 0.000262418)
(-0.0010851 -0.000765727 0.000277191)
(-0.00114004 -0.000774322 0.000281485)
(-0.00118511 -0.000789581 0.000278546)
(-0.00122704 -0.00081142 0.000271678)
(-0.00126857 -0.000837026 0.000262555)
(-0.00131176 -0.000865297 0.000252108)
(-0.00135797 -0.000895929 0.000240669)
(-0.00140685 -0.000928299 0.000228048)
(-0.00145817 -0.000962117 0.00021393)
(-0.00151116 -0.000996796 0.000197678)
(-0.00156487 -0.00103162 0.000178273)
(-0.0016177 -0.0010654 0.000153942)
(-0.0016671 -0.00109646 0.000122279)
(-0.00170823 -0.00112231 7.97798e-05)
(-0.00173281 -0.00113819 2.74795e-05)
(-0.000597973 -0.000454861 -0.000157165)
(-0.000432884 -0.000368531 -4.72763e-05)
(-0.000426279 -0.000403496 -1.11338e-05)
(-0.00051307 -0.000497241 3.38119e-05)
(-0.000618457 -0.000581239 8.56211e-05)
(-0.000728656 -0.00064421 0.000135465)
(-0.000837949 -0.000688017 0.000180536)
(-0.000940106 -0.000715971 0.000218397)
(-0.00103069 -0.000732213 0.000246236)
(-0.00110503 -0.000740601 0.000262126)
(-0.00116555 -0.000749445 0.000267899)
(-0.00121526 -0.000763017 0.000266225)
(-0.00125946 -0.0007824 0.000260125)
(-0.00130326 -0.000806487 0.000251784)
(-0.00134877 -0.000833632 0.000242153)
(-0.00139638 -0.000862671 0.00023142)
(-0.00144676 -0.000893518 0.000219594)
(-0.00149947 -0.000925719 0.00020632)
(-0.00155388 -0.000958795 0.000190976)
(-0.00160886 -0.000991929 0.000172511)
(-0.00166284 -0.00102405 0.000149177)
(-0.00171325 -0.00105354 0.000118615)
(-0.00175522 -0.00107809 7.74297e-05)
(-0.0017802 -0.00109315 2.66694e-05)
(-0.000544403 -0.000367244 -0.00011928)
(-0.000427531 -0.000328656 -4.99202e-05)
(-0.000417233 -0.00036144 -1.96058e-05)
(-0.000500479 -0.000451268 1.99444e-05)
(-0.000606037 -0.000535635 6.77435e-05)
(-0.000720259 -0.000603108 0.00011562)
(-0.000834359 -0.000651584 0.000160349)
(-0.000941772 -0.000683235 0.000198941)
(-0.00103635 -0.000700875 0.000227773)
(-0.00111754 -0.00071157 0.00024555)
(-0.00118322 -0.000720502 0.000252832)
(-0.00123757 -0.000732904 0.000252561)
(-0.00128619 -0.000750728 0.000247834)
(-0.00133253 -0.00077282 0.000240497)
(-0.00137951 -0.000797861 0.00023166)
(-0.00142926 -0.00082546 0.000221873)
(-0.00148131 -0.0008547 0.000210962)
(-0.0015355 -0.000885225 0.000198624)
(-0.00159104 -0.000916437 0.000184215)
(-0.00164705 -0.000947686 0.000166715)
(-0.00170192 -0.000977926 0.000144392)
(-0.00175313 -0.00100562 0.000114936)
(-0.00179574 -0.0010287 7.50719e-05)
(-0.00182099 -0.0010429 2.58591e-05)
(-0.000481934 -0.000288326 -8.32945e-05)
(-0.000422063 -0.000290111 -5.37703e-05)
(-0.000402038 -0.00031918 -2.7238e-05)
(-0.000478752 -0.000402514 6.36827e-06)
(-0.00058565 -0.000488248 4.95603e-05)
(-0.000701342 -0.000557979 9.4493e-05)
(-0.000819566 -0.000610405 0.000138206)
(-0.000932153 -0.000645493 0.000177134)
(-0.00103468 -0.000667001 0.000207668)
(-0.00112038 -0.000678202 0.000226918)
(-0.00119204 -0.000687597 0.000236114)
(-0.00125189 -0.000699496 0.000237641)
(-0.00130417 -0.000715636 0.000234333)
(-0.00135373 -0.000735914 0.000228291)
(-0.00140386 -0.000759506 0.000220709)
(-0.001455 -0.000785019 0.000211895)
(-0.00150838 -0.000812326 0.000201975)
(-0.00156363 -0.000840856 0.000190626)
(-0.00162026 -0.000870156 0.000177239)
(-0.00167712 -0.000899425 0.000160761)
(-0.00173273 -0.000927711 0.000139493)
(-0.00178465 -0.000953592 0.000111185)
(-0.00182782 -0.000975164 7.2679e-05)
(-0.00185316 -0.000988437 2.50387e-05)
(-0.00052725 -0.000275794 -7.45834e-05)
(-0.000402532 -0.000249478 -5.51855e-05)
(-0.000377488 -0.000274553 -3.38073e-05)
(-0.000447693 -0.00035198 -6.70213e-06)
(-0.00055163 -0.000435653 3.08474e-05)
(-0.000671082 -0.000509408 7.22593e-05)
(-0.000794258 -0.00056623 0.000114403)
(-0.000913326 -0.000605408 0.000153461)
(-0.00101958 -0.000627804 0.000184701)
(-0.00111373 -0.000641674 0.000206262)
(-0.00119155 -0.000651364 0.000217616)
(-0.00125627 -0.000662265 0.000221092)
(-0.00131341 -0.00067726 0.000219641)
(-0.00136633 -0.000695784 0.00021512)
(-0.00141804 -0.000717057 0.000208744)
(-0.0014717 -0.000741023 0.000201251)
(-0.00152676 -0.000766516 0.000192514)
(-0.00158332 -0.000793162 0.000182301)
(-0.00164062 -0.000820339 0.000169987)
(-0.00169797 -0.000847495 0.000154583)
(-0.00175397 -0.00087372 0.000134413)
(-0.00180622 -0.000897716 0.000107293)
(-0.00184965 -0.000917717 7.01972e-05)
(-0.00187491 -0.00092999 2.41891e-05)
(-0.000450411 -0.000206568 -4.97849e-05)
(-0.000386455 -0.000213395 -5.69027e-05)
(-0.000347295 -0.000231389 -3.96788e-05)
(-0.000405266 -0.000299067 -1.87039e-05)
(-0.000509663 -0.000383238 1.24783e-05)
(-0.000628424 -0.000457599 4.9111e-05)
(-0.000755218 -0.000517855 8.86901e-05)
(-0.000879175 -0.000560095 0.000127036)
(-0.000996127 -0.0005876 0.000159915)
(-0.00109537 -0.00060182 0.00018318)
(-0.00118 -0.000611861 0.000197019)
(-0.00125142 -0.000622446 0.000203038)
(-0.00131265 -0.000635676 0.000203583)
(-0.00136902 -0.000652325 0.00020084)
(-0.00142449 -0.000672198 0.000196181)
(-0.0014792 -0.000693751 0.000189956)
(-0.00153521 -0.000716997 0.000182452)
(-0.00159228 -0.000741331 0.000173413)
(-0.00165018 -0.000766364 0.000162286)
(-0.00170779 -0.000791319 0.000148035)
(-0.00176385 -0.000815414 0.000129031)
(-0.00181615 -0.000837467 0.00010317)
(-0.00185961 -0.000855858 6.75691e-05)
(-0.00188462 -0.000867079 2.32911e-05)
(-0.000430748 -0.000170914 -3.28467e-05)
(-0.000354731 -0.00017344 -5.76518e-05)
(-0.000308359 -0.000188339 -4.3769e-05)
(-0.000354393 -0.000246764 -2.90349e-05)
(-0.000449657 -0.000324306 -5.15441e-06)
(-0.000571989 -0.000402373 2.56181e-05)
(-0.000703562 -0.000466955 6.16439e-05)
(-0.000835879 -0.000514483 9.90256e-05)
(-0.000955656 -0.000542328 0.000132011)
(-0.00106538 -0.000559798 0.000157802)
(-0.00115771 -0.000570322 0.000174432)
(-0.00123459 -0.000579668 0.000183074)
(-0.00130169 -0.000591715 0.000186197)
(-0.00136207 -0.000606514 0.000185567)
(-0.00141877 -0.00062363 0.000182491)
(-0.00147634 -0.000643481 0.000177959)
(-0.00153402 -0.000664735 0.000171921)
(-0.00159224 -0.000687023 0.000164245)
(-0.00165024 -0.000709691 0.000154348)
(-0.00170771 -0.000732337 0.000141294)
(-0.00176348 -0.000754211 0.000123492)
(-0.00181546 -0.000774235 9.89199e-05)
(-0.00185861 -0.000790937 6.48585e-05)
(-0.0018832 -0.000801077 2.23662e-05)
(-0.000354369 -0.000119239 -1.98545e-05)
(-0.000311204 -0.000137156 -5.53144e-05)
(-0.000262281 -0.000146922 -4.58075e-05)
(-0.000289839 -0.000191937 -3.60948e-05)
(-0.000385614 -0.000269227 -2.09677e-05)
(-0.000502503 -0.000344631 2.57558e-06)
(-0.000636723 -0.000412371 3.36656e-05)
(-0.000772552 -0.000462602 6.8572e-05)
(-0.000906761 -0.000497744 0.000102556)
(-0.00102208 -0.000515724 0.000130038)
(-0.00112205 -0.00052654 0.000149584)
(-0.00120723 -0.000535705 0.000161529)
(-0.00127894 -0.000545703 0.000167342)
(-0.00134324 -0.000558381 0.000169094)
(-0.00140479 -0.000574122 0.000168295)
(-0.00146309 -0.000591206 0.000165363)
(-0.00152131 -0.000609916 0.000160812)
(-0.00157942 -0.000629609 0.0001545)
(-0.00163756 -0.00064998 0.000145959)
(-0.00169467 -0.000670298 0.000134185)
(-0.00174983 -0.000689923 0.000117651)
(-0.00180121 -0.000707912 9.44354e-05)
(-0.00184386 -0.000722928 6.20009e-05)
(-0.00186786 -0.00073197 2.13939e-05)
(-0.000286784 -8.17974e-05 -9.47333e-06)
(-0.000257877 -0.000102612 -5.14761e-05)
(-0.000209525 -0.00010856 -4.51356e-05)
(-0.000222127 -0.000141226 -3.96966e-05)
(-0.000295615 -0.000202789 -3.2241e-05)
(-0.000418223 -0.000283071 -1.81519e-05)
(-0.000555938 -0.000354867 6.04093e-06)
(-0.000702619 -0.000412673 3.77032e-05)
(-0.000837169 -0.000447648 7.05707e-05)
(-0.00096526 -0.000470272 0.000100244)
(-0.0010747 -0.000482279 0.000122937)
(-0.00116569 -0.000490016 0.000138066)
(-0.00124467 -0.0004989 0.000147189)
(-0.00131371 -0.000509578 0.000151687)
(-0.00137588 -0.000522046 0.000152877)
(-0.00143762 -0.000537357 0.00015206)
(-0.00149767 -0.000553975 0.000149288)
(-0.00155693 -0.000571575 0.000144583)
(-0.00161459 -0.000589463 0.000137429)
(-0.0016709 -0.000607386 0.000126965)
(-0.00172505 -0.000624736 0.000111718)
(-0.00177542 -0.000640653 8.9873e-05)
(-0.00181721 -0.000653939 5.90918e-05)
(-0.00184043 -0.000661892 2.04062e-05)
(-0.000189812 -4.60088e-05 6.25994e-07)
(-0.000195759 -7.05082e-05 -4.69338e-05)
(-0.00015327 -7.49828e-05 -4.17814e-05)
(-0.000133327 -8.29129e-05 -3.30566e-05)
(-0.000217621 -0.00014805 -3.91527e-05)
(-0.000321864 -0.000218001 -3.50279e-05)
(-0.000460767 -0.00029356 -1.9414e-05)
(-0.000607421 -0.000353495 6.67331e-06)
(-0.000761548 -0.000399861 3.83786e-05)
(-0.00089467 -0.000423752 6.8948e-05)
(-0.00101206 -0.000436672 9.44573e-05)
(-0.0011132 -0.000444947 0.00011333)
(-0.00119671 -0.000451567 0.000125646)
(-0.00127012 -0.000459989 0.000133076)
(-0.00133874 -0.000471263 0.000137118)
(-0.0014007 -0.000483493 0.000138233)
(-0.00146078 -0.00049734 0.000137205)
(-0.00151913 -0.000512137 0.000134044)
(-0.00157647 -0.000527706 0.000128413)
(-0.00163177 -0.000543307 0.000119345)
(-0.00168458 -0.000558428 0.000105451)
(-0.0017337 -0.000572337 8.50494e-05)
(-0.00177446 -0.000583953 5.60194e-05)
(-0.00179672 -0.000590848 1.93653e-05)
(-7.83189e-05 -1.55788e-05 7.54773e-06)
(-0.000116203 -3.81422e-05 -3.6614e-05)
(-9.74461e-05 -4.57616e-05 -3.69445e-05)
(-6.11026e-05 -3.82462e-05 -2.22548e-05)
(-7.46375e-05 -5.20726e-05 -2.13198e-05)
(-0.000212244 -0.000146817 -4.17669e-05)
(-0.000350642 -0.000225816 -3.91607e-05)
(-0.000512974 -0.00029879 -2.20607e-05)
(-0.000661123 -0.000344104 6.20419e-06)
(-0.000809679 -0.000375835 3.71595e-05)
(-0.000937828 -0.000391733 6.51262e-05)
(-0.00104406 -0.000399013 8.71088e-05)
(-0.00113667 -0.000405315 0.00010313)
(-0.00121544 -0.000411869 0.000113741)
(-0.00128337 -0.000419429 0.000120078)
(-0.00134961 -0.000429982 0.000123707)
(-0.00141183 -0.000441789 0.000124764)
(-0.00147156 -0.000454613 0.000123459)
(-0.00152779 -0.000467723 0.00011936)
(-0.00158156 -0.000481006 0.000111703)
(-0.00163262 -0.000493953 9.91635e-05)
(-0.00168002 -0.000505878 8.01972e-05)
(-0.00171932 -0.000515834 5.2924e-05)
(-0.00174045 -0.00052172 1.83191e-05)
(-7.51823e-06 3.90683e-07 8.85084e-06)
(-2.61599e-05 -7.43739e-06 -1.26855e-05)
(-3.24403e-05 -1.53817e-05 -2.0803e-05)
(-5.07196e-05 -3.53771e-05 -3.11596e-05)
(-4.98961e-05 -3.9437e-05 -2.31155e-05)
(-0.00010097 -7.41091e-05 -3.17076e-05)
(-0.000236943 -0.000154382 -4.86085e-05)
(-0.000385674 -0.000226827 -4.43704e-05)
(-0.000562393 -0.000292689 -2.29836e-05)
(-0.000712184 -0.000326792 6.33812e-06)
(-0.000847413 -0.000345561 3.55633e-05)
(-0.000965605 -0.00035543 6.06125e-05)
(-0.00106118 -0.000359753 7.96548e-05)
(-0.00114439 -0.000364422 9.33821e-05)
(-0.001221 -0.000371432 0.000102981)
(-0.00128651 -0.000378764 0.00010878)
(-0.00134797 -0.000387728 0.000111782)
(-0.0014057 -0.000397691 0.000112163)
(-0.00146111 -0.000408627 0.000109738)
(-0.00151319 -0.00041977 0.000103577)
(-0.00156215 -0.000430684 9.24602e-05)
(-0.00160759 -0.000440775 7.50133e-05)
(-0.00164533 -0.000449207 4.96192e-05)
(-0.00166514 -0.000454149 1.72037e-05)
(6.53278e-06 6.33755e-06 1.53152e-05)
(4.33351e-06 6.29961e-07 -7.43068e-06)
(-4.46472e-06 -8.02455e-06 -2.0698e-05)
(-1.71408e-05 -2.31389e-05 -2.78344e-05)
(-3.48619e-05 -3.75402e-05 -3.01462e-05)
(-4.41731e-05 -3.67168e-05 -2.31865e-05)
(-0.00013233 -8.9837e-05 -4.47616e-05)
(-0.000278098 -0.000164597 -5.7048e-05)
(-0.000430788 -0.000225624 -4.53571e-05)
(-0.000601513 -0.000275302 -2.12008e-05)
(-0.000747377 -0.000300311 7.40915e-06)
(-0.000867926 -0.00031068 3.39879e-05)
(-0.000974658 -0.000316801 5.60538e-05)
(-0.00106337 -0.000320457 7.28066e-05)
(-0.00113658 -0.00032361 8.46724e-05)
(-0.00120746 -0.00032977 9.3223e-05)
(-0.00127157 -0.00033705 9.8539e-05)
(-0.00133113 -0.000345402 0.000100993)
(-0.00138472 -0.000354105 0.000100219)
(-0.00143446 -0.000363192 9.55386e-05)
(-0.00148086 -0.000372217 8.58222e-05)
(-0.00152385 -0.000380584 6.98616e-05)
(-0.00155954 -0.000387554 4.63262e-05)
(-0.00157787 -0.000391639 1.60944e-05)
(1.2723e-05 1.12777e-05 2.18658e-05)
(2.51789e-05 7.92217e-06 -8.21575e-06)
(2.17122e-05 -4.56188e-07 -1.49492e-05)
(1.25736e-05 -9.64845e-06 -1.60141e-05)
(-1.03426e-06 -2.44626e-05 -2.41638e-05)
(-2.90836e-05 -3.36642e-05 -2.9361e-05)
(-6.91269e-05 -5.26418e-05 -3.78719e-05)
(-8.15419e-05 -4.89619e-05 -2.5867e-05)
(-0.000322063 -0.000168351 -5.92338e-05)
(-0.000480219 -0.000220554 -4.31619e-05)
(-0.000631725 -0.000252757 -1.76237e-05)
(-0.000765413 -0.000269361 8.98636e-06)
(-0.000871525 -0.000274751 3.26107e-05)
(-0.00096386 -0.000277791 5.17919e-05)
(-0.00104888 -0.000281959 6.6829e-05)
(-0.00111717 -0.000285132 7.75265e-05)
(-0.00117908 -0.000289772 8.48225e-05)
(-0.00123495 -0.00029542 8.8993e-05)
(-0.00128716 -0.000302331 8.99869e-05)
(-0.00133446 -0.000309674 8.68657e-05)
(-0.00137793 -0.000317045 7.86172e-05)
(-0.00141823 -0.00032392 6.4249e-05)
(-0.00145184 -0.000329647 4.27367e-05)
(-0.00146849 -0.000332975 1.48842e-05)
(2.308e-05 1.32267e-05 2.35965e-05)
(3.77875e-05 1.02285e-05 -9.1652e-06)
(3.67724e-05 2.5835e-06 -1.37268e-05)
(2.9668e-05 -6.22475e-06 -1.3155e-05)
(1.79464e-05 -1.23721e-05 -1.06631e-05)
(3.6051e-06 -2.47843e-05 -1.79683e-05)
(-2.00507e-05 -1.98409e-05 -1.70474e-05)
(-5.22512e-05 -3.26528e-05 -2.42798e-05)
(-0.000144398 -7.4517e-05 -4.02329e-05)
(-0.00035397 -0.000162893 -5.54529e-05)
(-0.000510527 -0.000205376 -3.76447e-05)
(-0.000642654 -0.000225381 -1.32959e-05)
(-0.000761323 -0.000235986 1.06192e-05)
(-0.00085848 -0.00023993 3.15337e-05)
(-0.000934767 -0.000240513 4.81815e-05)
(-0.00100973 -0.000243758 6.14445e-05)
(-0.00107503 -0.000247603 7.10606e-05)
(-0.00113364 -0.000252408 7.74117e-05)
(-0.00118306 -0.000257555 8.00868e-05)
(-0.00122712 -0.000263317 7.84605e-05)
(-0.0012672 -0.000269271 7.1619e-05)
(-0.00130429 -0.000274839 5.87702e-05)
(-0.00133522 -0.000279424 3.92165e-05)
(-0.00135013 -0.000282122 1.36994e-05)
(3.28557e-05 1.41358e-05 2.50522e-05)
(7.37968e-05 1.62721e-05 -1.3736e-05)
(8.19578e-05 6.12732e-06 -2.33734e-05)
(6.09551e-05 -7.35012e-06 -1.95274e-05)
(3.30591e-05 -1.2895e-05 -1.05458e-05)
(1.9827e-05 -1.73582e-05 -5.97242e-06)
(5.08903e-07 -2.12633e-05 -7.99276e-06)
(-4.33207e-05 -3.0247e-05 -2.72716e-05)
(-0.000107848 -5.68326e-05 -4.3382e-05)
(-0.000205388 -9.50729e-05 -4.85523e-05)
(-0.000376724 -0.000153426 -4.88962e-05)
(-0.000520717 -0.000184417 -3.13926e-05)
(-0.000634203 -0.000196653 -9.03785e-06)
(-0.000732869 -0.000202236 1.21997e-05)
(-0.000825783 -0.000206873 3.08748e-05)
(-0.00089465 -0.000207844 4.57586e-05)
(-0.000955029 -0.000209653 5.70343e-05)
(-0.00100704 -0.000212168 6.487e-05)
(-0.00105446 -0.000216218 6.92716e-05)
(-0.00109527 -0.000220852 6.91747e-05)
(-0.00113153 -0.000225702 6.38001e-05)
(-0.00116519 -0.000230266 5.26118e-05)
(-0.00119357 -0.000234007 3.52527e-05)
(-0.00120643 -0.000236162 1.23585e-05)
(3.92732e-05 1.45072e-05 2.70273e-05)
(9.19856e-05 1.90481e-05 -1.2594e-05)
(0.000111986 9.74474e-06 -2.71383e-05)
(0.000112221 -7.15748e-06 -3.18915e-05)
(8.19975e-05 -2.17166e-05 -2.36001e-05)
(4.10306e-05 -2.27398e-05 -9.59907e-06)
(2.12016e-05 -2.40737e-05 -2.00538e-06)
(-4.15821e-06 -1.33755e-05 -3.86337e-06)
(-3.99631e-05 -2.3379e-05 -2.04033e-05)
(-8.12675e-05 -3.83147e-05 -2.70863e-05)
(-0.000245219 -0.000100796 -4.88627e-05)
(-0.000383842 -0.000138988 -4.23369e-05)
(-0.000509124 -0.000160559 -2.50562e-05)
(-0.000610719 -0.000169758 -4.93532e-06)
(-0.000684681 -0.000171001 1.3892e-05)
(-0.000762109 -0.000174389 3.03041e-05)
(-0.000827162 -0.0001771 4.34101e-05)
(-0.000883633 -0.000180148 5.32743e-05)
(-0.000926994 -0.000183163 5.92007e-05)
(-0.000963503 -0.00018687 6.04925e-05)
(-0.000995584 -0.000190907 5.64648e-05)
(-0.00102535 -0.000194685 4.67975e-05)
(-0.00105043 -0.000197693 3.14827e-05)
(-0.00106143 -0.000199461 1.10852e-05)
(4.50873e-05 1.48603e-05 2.97494e-05)
(0.000102405 2.14764e-05 -1.04581e-05)
(0.000128809 1.49494e-05 -2.81803e-05)
(0.000133673 -1.38604e-06 -3.61998e-05)
(0.000121237 -2.09852e-05 -3.52165e-05)
(8.18856e-05 -3.22637e-05 -2.2244e-05)
(4.2273e-05 -3.11365e-05 -7.12688e-06)
(1.19727e-05 -1.85091e-05 1.37015e-06)
(-1.43442e-05 -1.85844e-05 -6.1257e-06)
(-5.21855e-05 -2.59985e-05 -2.28067e-05)
(-7.4228e-05 -3.13495e-05 -2.16007e-05)
(-0.000250698 -9.36903e-05 -4.40826e-05)
(-0.000366042 -0.000120121 -3.47555e-05)
(-0.000466093 -0.000133671 -1.82835e-05)
(-0.000566098 -0.000144221 -6.07059e-07)
(-0.000630653 -0.000146071 1.61744e-05)
(-0.00068538 -0.000147459 2.99982e-05)
(-0.000730522 -0.000148788 4.06244e-05)
(-0.000771059 -0.000151673 4.79158e-05)
(-0.000803516 -0.000155016 5.05158e-05)
(-0.000830878 -0.000158545 4.78631e-05)
(-0.000856546 -0.000161859 3.99216e-05)
(-0.000878709 -0.000164478 2.70101e-05)
(-0.000887336 -0.000165884 9.55618e-06)
(4.78717e-05 1.47501e-05 3.23688e-05)
(0.00010127 2.18693e-05 -7.39479e-06)
(0.000130086 1.9005e-05 -2.65717e-05)
(0.000142793 5.94871e-06 -3.774e-05)
(0.000136881 -1.34044e-05 -3.99871e-05)
(0.000116913 -3.19858e-05 -3.40452e-05)
(7.10526e-05 -3.65786e-05 -1.73933e-05)
(3.57982e-05 -3.27801e-05 -3.16645e-06)
(1.19031e-05 -3.01344e-05 4.6835e-06)
(-1.51379e-05 -1.15869e-05 -6.93837e-06)
(-7.77672e-05 -3.7142e-05 -3.25521e-05)
(-9.39548e-05 -3.65869e-05 -2.44929e-05)
(-0.00024065 -8.16916e-05 -3.76689e-05)
(-0.000343059 -0.00010327 -2.8211e-05)
(-0.000402942 -0.000108376 -1.19341e-05)
(-0.000481308 -0.000116554 3.64949e-06)
(-0.000545196 -0.00012189 1.78786e-05)
(-0.000597056 -0.000125596 2.98179e-05)
(-0.000632254 -0.000128309 3.81663e-05)
(-0.000659304 -0.000131379 4.18361e-05)
(-0.000681953 -0.000134638 4.0356e-05)
(-0.000703206 -0.000137666 3.38729e-05)
(-0.000721536 -0.000139926 2.30308e-05)
(-0.000728532 -0.000141157 8.20033e-06)
(4.96352e-05 1.43989e-05 3.54672e-05)
(9.61651e-05 2.12416e-05 -4.30026e-06)
(0.000124727 2.08376e-05 -2.33781e-05)
(0.000137782 1.15187e-05 -3.51428e-05)
(0.000139673 -4.70255e-06 -4.05936e-05)
(0.000127348 -2.32693e-05 -3.81415e-05)
(0.000106493 -3.90963e-05 -2.96996e-05)
(5.87092e-05 -3.62565e-05 -1.22632e-05)
(2.30626e-05 -2.42753e-05 -8.95649e-07)
(5.94361e-06 -2.82258e-05 -6.40048e-07)
(-2.74769e-05 -1.84364e-05 -1.56471e-05)
(-8.16223e-05 -3.53047e-05 -3.18285e-05)
(-8.40374e-05 -2.99237e-05 -2.06031e-05)
(-0.000184527 -5.96004e-05 -2.6433e-05)
(-0.000298632 -8.49971e-05 -2.05946e-05)
(-0.000350197 -9.07451e-05 -6.42013e-06)
(-0.000389444 -9.41223e-05 6.78706e-06)
(-0.000425547 -9.67391e-05 1.80272e-05)
(-0.00045655 -0.000100144 2.66308e-05)
(-0.000478828 -0.000103465 3.09836e-05)
(-0.000496146 -0.00010655 3.06176e-05)
(-0.000512847 -0.000109635 2.59504e-05)
(-0.000528188 -0.000111886 1.7803e-05)
(-0.000532136 -0.000112567 6.37357e-06)
(4.96482e-05 1.42133e-05 3.88823e-05)
(8.81052e-05 2.05251e-05 -1.91456e-06)
(0.000115377 2.16758e-05 -2.0156e-05)
(0.000128381 1.47298e-05 -3.13987e-05)
(0.000131654 2.10888e-06 -3.75314e-05)
(0.000127913 -1.43456e-05 -3.85364e-05)
(0.000113509 -3.02854e-05 -3.31582e-05)
(9.63961e-05 -4.2998e-05 -2.51976e-05)
(4.98035e-05 -3.4426e-05 -1.06276e-05)
(3.14072e-05 -3.88821e-05 -4.99355e-06)
(-1.03122e-06 -1.46468e-05 -5.96809e-06)
(-3.77753e-05 -2.29944e-05 -2.57509e-05)
(-8.15214e-05 -3.6265e-05 -3.2549e-05)
(-0.000104046 -3.7552e-05 -2.40234e-05)
(-8.87512e-05 -2.69302e-05 -1.13932e-05)
(-0.000195932 -5.54596e-05 -1.10995e-05)
(-0.000264939 -6.89732e-05 -1.28625e-06)
(-0.000304953 -7.59683e-05 9.33472e-06)
(-0.00033136 -8.03398e-05 1.82991e-05)
(-0.000347242 -8.31999e-05 2.31231e-05)
(-0.000360283 -8.65891e-05 2.35565e-05)
(-0.000370405 -8.88447e-05 2.01272e-05)
(-0.000381568 -9.08825e-05 1.38756e-05)
(-0.000386901 -9.17471e-05 5.03283e-06)
(4.8103e-05 1.51582e-05 4.29058e-05)
(7.87377e-05 2.07394e-05 -8.59676e-07)
(0.00010189 2.21021e-05 -1.7375e-05)
(0.000113228 1.65598e-05 -2.67162e-05)
(0.000117873 6.36224e-06 -3.24992e-05)
(0.000117402 -7.06662e-06 -3.48012e-05)
(0.000113508 -2.26304e-05 -3.3335e-05)
(0.000101598 -3.5331e-05 -2.76813e-05)
(8.98396e-05 -4.53835e-05 -2.25828e-05)
(4.50083e-05 -3.32053e-05 -1.12551e-05)
(1.97e-05 -2.76948e-05 -9.60093e-06)
(-4.74234e-06 -1.24528e-05 -1.23471e-05)
(-3.02365e-05 -1.85103e-05 -2.29453e-05)
(-7.27307e-05 -3.19283e-05 -3.03152e-05)
(-9.67388e-05 -3.69557e-05 -2.31115e-05)
(-6.40098e-05 -2.17409e-05 -7.79255e-06)
(-0.000155684 -4.77774e-05 -6.61551e-06)
(-0.000102485 -2.85693e-05 1.09566e-06)
(-0.000121793 -3.46958e-05 5.85683e-06)
(-0.000138187 -3.86272e-05 9.37047e-06)
(-0.000142847 -4.14554e-05 1.01183e-05)
(-0.000161257 -4.49604e-05 9.62626e-06)
(-0.000170982 -4.76073e-05 6.73745e-06)
(-0.000162142 -4.60181e-05 2.27241e-06)
(4.42709e-05 1.7199e-05 4.66853e-05)
(6.48355e-05 2.05653e-05 -7.88127e-07)
(8.22108e-05 2.12206e-05 -1.42196e-05)
(9.15083e-05 1.66109e-05 -2.07865e-05)
(9.68566e-05 8.59504e-06 -2.52129e-05)
(9.99531e-05 -2.45787e-06 -2.81134e-05)
(0.000101133 -1.60107e-05 -2.84849e-05)
(0.00010247 -2.98277e-05 -2.72087e-05)
(9.4291e-05 -3.83791e-05 -2.39693e-05)
(8.31905e-05 -4.52844e-05 -2.25767e-05)
(3.93899e-05 -3.08821e-05 -1.45027e-05)
(1.90388e-05 -2.85941e-05 -2.07396e-05)
(-7.64308e-06 -1.47339e-05 -2.2745e-05)
(-2.60576e-05 -1.68451e-05 -2.47929e-05)
(-5.4664e-05 -2.83144e-05 -2.74237e-05)
(-3.85513e-05 -1.68846e-05 -1.02964e-05)
(-6.7074e-05 -2.83063e-05 -8.65544e-06)
(-0.000107065 -4.14737e-05 -3.5121e-06)
(-9.02893e-05 -3.39395e-05 2.83961e-06)
(-5.67218e-05 -2.21922e-05 3.78335e-06)
(-9.98353e-05 -3.91257e-05 7.85324e-06)
(-0.000129806 -5.10554e-05 8.52088e-06)
(-0.000134669 -5.29397e-05 5.90967e-06)
(-6.03146e-05 -2.45334e-05 9.42298e-07)
(3.81276e-05 1.95663e-05 4.89289e-05)
(5.16282e-05 2.05806e-05 -1.31911e-06)
(6.05708e-05 1.89516e-05 -1.12536e-05)
(6.56237e-05 1.43969e-05 -1.46253e-05)
(7.05059e-05 8.18409e-06 -1.70832e-05)
(7.59701e-05 -7.14866e-07 -1.9381e-05)
(8.34592e-05 -1.23947e-05 -2.10819e-05)
(9.07545e-05 -2.42497e-05 -2.18296e-05)
(9.67786e-05 -3.46067e-05 -2.30114e-05)
(8.8493e-05 -3.93749e-05 -2.30276e-05)
(7.46594e-05 -4.29817e-05 -2.54817e-05)
(3.47838e-05 -2.93267e-05 -2.07474e-05)
(1.002e-05 -1.72051e-05 -2.02276e-05)
(-3.52981e-06 -1.07979e-05 -2.23561e-05)
(-1.34621e-05 -1.22725e-05 -2.16025e-05)
(-3.50719e-05 -2.30569e-05 -2.67075e-05)
(-2.24984e-05 -1.34218e-05 -9.13728e-06)
(-4.41713e-05 -2.56225e-05 -7.38926e-06)
(-6.25647e-05 -3.41453e-05 -1.59144e-06)
(-4.97912e-05 -2.9367e-05 2.82414e-06)
(-6.56959e-05 -3.74376e-05 5.76993e-06)
(-3.08683e-05 -1.96102e-05 2.30664e-06)
(-3.28198e-05 -2.02869e-05 1.81578e-06)
(-5.68831e-05 -3.47423e-05 1.17952e-06)
(3.0632e-05 2.15354e-05 4.8923e-05)
(4.06682e-05 2.09301e-05 -2.33924e-06)
(4.33914e-05 1.66492e-05 -9.76369e-06)
(4.40962e-05 1.13037e-05 -1.06797e-05)
(4.63863e-05 5.70012e-06 -1.10956e-05)
(5.29355e-05 -1.88061e-06 -1.21263e-05)
(6.37562e-05 -1.18494e-05 -1.3379e-05)
(7.758e-05 -2.19439e-05 -1.54527e-05)
(8.665e-05 -2.99104e-05 -1.79588e-05)
(9.15234e-05 -3.68943e-05 -2.15732e-05)
(8.16946e-05 -3.91338e-05 -2.45804e-05)
(6.6659e-05 -4.01392e-05 -3.03466e-05)
(3.1371e-05 -2.67209e-05 -2.78717e-05)
(1.14523e-05 -1.71399e-05 -2.80349e-05)
(5.36332e-07 -1.40397e-05 -3.23272e-05)
(-6.77992e-06 -1.48577e-05 -3.10793e-05)
(-6.9233e-06 -9.70642e-06 -1.46868e-05)
(-1.24408e-05 -1.50384e-05 -1.31905e-05)
(-1.47073e-05 -1.77771e-05 -6.92825e-06)
(-1.79944e-05 -2.27868e-05 -3.03322e-06)
(-9.30241e-06 -1.36438e-05 -2.22115e-07)
(-1.81263e-05 -2.68404e-05 6.1835e-07)
(-9.65371e-06 -1.39308e-05 4.54814e-07)
(-1.96311e-05 -2.76192e-05 3.91453e-07)
(2.30016e-05 2.25906e-05 4.62594e-05)
(3.04488e-05 2.04128e-05 -3.85959e-06)
(3.1536e-05 1.47399e-05 -9.82024e-06)
(3.15773e-05 8.90505e-06 -9.85245e-06)
(3.2803e-05 2.60341e-06 -9.149e-06)
(3.95415e-05 -5.57848e-06 -8.7833e-06)
(5.20438e-05 -1.51281e-05 -8.7309e-06)
(6.54909e-05 -2.29697e-05 -9.88809e-06)
(7.81828e-05 -2.92806e-05 -1.3151e-05)
(8.34036e-05 -3.36247e-05 -1.70833e-05)
(8.48812e-05 -3.78218e-05 -2.25519e-05)
(7.50466e-05 -3.83761e-05 -2.87899e-05)
(6.04389e-05 -3.78809e-05 -3.83483e-05)
(3.49764e-05 -2.85041e-05 -4.04881e-05)
(1.06709e-05 -1.28537e-05 -2.41537e-05)
(8.36958e-06 -1.74921e-05 -3.98197e-05)
(6.68861e-06 -2.3331e-05 -5.33941e-05)