/*--------------------------------*- C++ -*----------------------------------*\
  =========                 |
  \\      /  F ield         | OpenFOAM: The Open Source CFD Toolbox
   \\    /   O peration     | Website:  https://openfoam.org
    \\  /    A nd           | Version:  6
     \\/     M anipulation  |
\*---------------------------------------------------------------------------*/
FoamFile
{
    version     2.0;
    format      ascii;
    class       volScalarField;
    location    "15";
    object      yPlus;
}
// * * * * * * * * * * * * * * * * * * * * * * * * * * * * * * * * * * * * * //

dimensions      [0 0 0 0 0 0 0];

internalField   uniform 0;

boundaryField
{
    inlet
    {
        type            calculated;
        value           uniform 0;
    }
    outlet
    {
        type            calculated;
        value           uniform 0;
    }
    roughCylinder
    {
        type            calculated;
        value           nonuniform List<scalar> 
5120
(
42.5916
50.3548
56.521
62.5281
67.6683
71.8118
75.1195
77.7856
79.965
81.7932
83.3893
84.8195
86.122
87.3286
88.469
89.5733
90.6711
91.7891
92.9495
94.1683
95.454
96.8082
98.2278
99.7054
101.231
102.792
104.371
105.945
107.474
108.891
110.049
110.728
41.9032
49.3842
55.3555
61.2274
66.2976
70.4072
73.6969
76.3548
78.5344
80.3696
81.9728
83.4053
84.698
85.8897
87.012
88.0952
89.1696
90.263
91.3982
92.5902
93.8476
95.1722
96.5608
98.0059
99.4975
101.023
102.565
104.102
105.595
106.978
108.106
108.768
41.1366
48.3715
54.1594
59.8973
64.8984
68.9787
72.2578
74.9171
77.1076
78.9586
80.5746
82.0113
83.2987
84.4794
85.5852
86.6485
87.7014
88.7715
89.8812
91.0467
92.2765
93.5722
94.9302
96.3432
97.8012
99.2913
100.798
102.298
103.754
105.103
106.202
106.847
40.35
47.351
52.9552
58.5548
63.4857
67.5396
70.8134
73.4813
75.6917
77.5669
79.2003
80.6442
81.9315
83.1022
84.1943
85.2408
86.2733
87.3211
88.408
89.5489
90.752
92.0194
93.3476
94.7291
96.1536
97.6091
99.0797
100.543
101.964
103.279
104.349
104.976
39.5122
46.291
51.7096
57.168
62.0313
66.0685
69.3507
72.0413
74.2825
76.1878
77.8427
79.2984
80.5908
81.7578
82.8397
83.8709
84.8862
85.9147
86.9787
88.0954
89.2733
90.514
91.8134
93.1645
94.5572
95.979
97.4149
98.8435
100.228
101.511
102.553
103.162
38.6635
45.2224
50.4496
55.7604
60.5562
64.5827
67.8805
70.5993
72.8761
74.8169
76.4987
77.9712
79.2734
80.4423
81.518
82.5388
83.5387
84.5485
85.5937
86.6893
87.8434
89.0579
90.3298
91.6512
93.0121
94.4005
95.8014
97.1947
98.5449
99.7949
100.809
101.401
37.7656
44.1084
49.136
54.2912
59.0195
63.0456
66.3761
69.1409
71.4668
73.4497
75.1628
76.6576
77.9743
79.1522
80.2281
81.2412
82.2299
83.2261
84.2522
85.3265
86.4583
87.6489
88.8942
90.1871
91.518
92.8747
94.2423
95.6019
96.9179
98.1367
99.1239
99.6981
36.8455
42.9709
47.79
52.7798
57.4396
61.4741
64.848
67.6644
70.0412
72.0718
73.824
75.3483
76.6879
77.8804
78.9648
79.977
80.9583
81.9412
82.9537
84.0115
85.1227
86.2898
87.5098
88.7749
90.0753
91.3999
92.7336
94.0585
95.3415
96.5285
97.4885
98.0456
35.862
41.7699
46.3666
51.1749
55.7584
59.808
63.2437
66.137
68.5896
70.6819
72.4817
74.0438
75.4111
76.6247
77.7206
78.7392
79.7181
80.6964
81.6952
82.7355
83.8279
84.9739
86.1694
87.4079
88.6799
89.9737
91.2758
92.5678
93.817
94.9746
95.9082
96.4478
34.8261
40.511
44.8739
49.4842
53.9848
58.0608
61.5787
64.5605
67.0894
69.2512
71.1108
72.7194
74.1267
75.3705
76.4902
77.5205
78.5058
79.4797
80.4721
81.5021
82.578
83.7032
84.8756
86.0877
87.3297
88.5914
89.8596
91.1163
92.333
93.4596
94.3657
94.8882
33.6724
39.141
43.257
47.6453
52.0422
56.1394
59.7538
62.8613
65.5171
67.7793
69.7144
71.3871
72.8414
74.1226
75.2658
76.3153
77.3087
78.289
79.2759
80.2936
81.3549
82.4623
83.612
84.798
86.0121
87.2434
88.4798
89.7039
90.8875
91.9856
92.8652
93.3698
32.3972
37.6561
41.5072
45.6439
49.9161
54.0464
57.7994
61.0626
63.8421
66.2164
68.2512
69.997
71.5157
72.8472
74.0355
75.1127
76.1275
77.112
78.101
79.1163
80.1663
81.2558
82.3844
83.5451
84.729
85.9271
87.128
88.3163
89.4671
90.534
91.3857
91.872
30.9235
35.9816
39.5492
43.3975
47.504
51.6364
55.516
58.9822
61.9967
64.5536
66.7165
68.5733
70.1715
71.567
72.7954
73.9084
74.9425
75.947
76.9398
77.948
78.9881
80.0636
81.1715
82.3072
83.4636
84.6316
85.8016
86.9568
88.0742
89.1128
89.9376
90.4052
29.2243
34.0962
37.3593
40.8617
44.736
48.8645
52.9709
56.723
59.9446
62.7007
65.0496
67.0315
68.7364
70.2115
71.5152
72.6785
73.7567
74.7767
75.7824
76.7985
77.8334
78.8946
79.9837
81.0949
82.2203
83.3531
84.484
85.6019
86.6849
87.6931
88.488
88.9361
27.1115
31.8211
34.7648
37.8789
41.4768
45.5389
49.7312
53.787
57.4991
60.6243
63.2086
65.3987
67.2444
68.8331
70.2051
71.4287
72.5384
73.5972
74.6194
75.6348
76.6657
77.7172
78.7876
79.8743
80.9719
82.074
83.1749
84.2575
85.3078
86.2859
87.0531
87.4808
24.5013
29.1239
31.7581
34.3812
37.4595
41.3081
45.9397
50.5672
54.5826
58.1092
61.0984
63.5306
65.5784
67.3006
68.7966
70.1031
71.2937
72.3842
73.4333
74.4713
75.5052
76.5467
77.6007
78.6627
79.7273
80.7901
81.8451
82.8871
83.8987
84.8479
85.5811
85.9868
20.7616
25.4255
27.7182
29.794
32.4547
36.1433
40.4032
45.4589
50.7946
55.1191
58.5699
61.4475
63.7595
65.7
67.3238
68.7367
69.9731
71.1295
72.2139
73.2582
74.2954
75.3325
76.3695
77.407
78.4418
79.4719
80.4986
81.5009
82.482
83.3949
84.0998
84.4814
15.6786
20.7385
23.0946
24.7339
26.3913
29.3187
34.7169
40.3871
45.4123
50.8712
55.4146
58.8196
61.6043
63.8079
65.648
67.1973
68.5824
69.7965
70.9277
72.0173
73.069
74.1012
75.1241
76.1353
77.1325
78.1163
79.0839
80.04
80.9722
81.8613
82.5227
82.8792
5.16657
10.5138
11.6935
11.7214
9.99137
2.36979
11.8961
27.2768
39.2523
45.6992
51.1723
55.7708
59.0582
61.713
63.8252
65.5887
67.0414
68.3671
69.5648
70.6688
71.7336
72.7679
73.7752
74.7603
75.7235
76.6697
77.6117
78.5193
79.4275
80.266
80.9003
81.225
4.28246
7.86791
8.59367
7.98734
4.5108
16.5059
7.18116
6.38204
15.3405
35.9654
45.1856
50.964
55.7337
59.052
61.5986
63.5988
65.3446
66.7784
68.0558
69.2459
70.343
71.3799
72.3747
73.3294
74.2451
75.1318
75.9906
76.8412
77.6794
78.5065
79.0766
79.3721
11.9798
16.2507
17.3117
17.1005
15.1132
11.5932
8.65401
9.19143
12.0845
18.3292
36.2089
46.2193
51.4999
55.7993
58.9822
61.4887
63.3451
64.9869
66.3939
67.6081
68.7346
69.7824
70.7633
71.687
72.5594
73.3993
74.2365
75.0217
75.8541
76.5979
77.1495
77.3952
19.8057
24.1814
26.0249
26.7164
26.1849
24.4899
23.2342
14.8759
18.6498
5.4082
11.2498
32.3795
44.8565
51.264
55.552
58.4936
61.009
62.8675
64.42
65.8083
67.0002
68.0649
69.0327
69.9166
70.7209
71.4722
72.1806
72.886
73.5984
74.3683
74.8021
75.015
21.9298
26.8496
29.5189
31.4546
32.542
32.5619
31.1662
28.8333
23.5347
18.2324
11.9749
18.4993
34.9968
44.9598
50.8515
55.2912
57.9913
60.3101
62.144
63.5654
64.8186
65.9087
66.8664
67.7089
68.446
69.135
69.8229
70.4313
71.1963
71.7935
72.2525
72.3679
22.737
27.7579
30.6505
32.9537
34.6317
35.6683
36.0139
35.5036
33.539
28.6675
23.7308
17.4995
12.2177
35.576
44.9516
49.7512
54.2737
57.0341
59.1608
60.981
62.3726
63.511
64.4486
65.2252
65.8507
66.3733
66.8434
67.3133
67.8236
68.5691
68.7443
68.8401
22.1568
27.3284
30.3938
32.9431
34.9391
36.3751
37.2567
37.5814
37.2327
35.7088
31.3282
27.185
5.2531
9.75595
32.147
44.2383
48.6213
52.7506
55.5792
57.3985
58.9133
60.1111
61.0407
61.7578
62.2429
62.6823
63.1031
63.4439
64.1904
64.4933
64.9211
64.7487
20.7023
26.0098
29.1693
31.8561
34.0482
35.7498
36.9884
37.8076
38.246
38.2443
37.3373
33.9607
26.517
20.3324
12.5675
28.1135
42.4168
46.7751
50.2361
53.1436
54.9738
56.2801
57.1652
57.7298
57.9936
58.0308
58.0488
58.0317
58.1798
59.0045
58.4299
58.5052
18.7227
24.127
27.313
30.0495
32.3343
34.1874
35.6408
36.7553
37.6142
38.2812
38.6707
38.1855
35.0561
30.0541
26.4035
22.2806
25.4738
38.3694
43.8689
46.2266
48.2999
49.7664
50.5929
51.0393
51.0647
50.8186
50.5807
51.2285
51.4943
51.3414
52.6784
51.6845
16.4824
21.8683
24.9785
27.661
29.9416
31.8626
33.4704
34.8237
36.0092
37.1089
38.1283
38.8306
38.4429
34.4739
36.1365
22.4917
17.564
21.9652
31.1341
38.9086
41.5386
43.576
43.7759
44.0773
42.9459
42.2424
40.864
38.1595
40.311
38.926
36.1427
35.5706
14.2296
19.4586
22.3894
24.9168
27.0982
28.9977
30.6766
32.2013
33.649
35.1007
36.5806
37.9644
38.8426
38.1497
34.5062
29.4969
26.8415
17.2651
31.929
20.4609
29.5544
24.0532
30.1085
23.9624
26.0571
17.961
8.68924
36.8895
17.9276
29.4398
26.7118
37.1625
12.2497
17.1984
19.874
22.1734
24.1859
25.9927
27.6656
29.2733
30.8846
32.5655
34.3556
36.1935
37.8469
38.7836
38.0883
35.5427
28.776
23.1281
31.7437
27.6513
34.0492
31.6352
37.3941
21.0477
33.5189
18.1279
23.7873
39.8844
27.4842
39.1212
33.9367
39.0227
10.7285
15.3246
17.7276
19.7806
21.6004
23.2805
24.8956
26.5085
28.1739
29.9396
31.8471
33.8911
35.9569
37.7283
38.7111
38.5923
36.3595
30.6973
27.5334
24.9626
33.3967
28.4628
29.9974
26.2925
35.4504
33.9525
30.5064
39.663
32.9956
39.5912
27.4695
28.7415
9.60955
13.9607
16.1338
17.9807
19.6399
21.2073
22.7513
24.3202
25.9513
27.6786
29.5392
31.5632
33.7358
35.9149
37.7787
38.9656
39.1182
37.8209
34.2334
30.5427
28.8691
27.4777
27.6078
29.7465
32.1911
35.2158
38.5076
34.3157
36.3236
37.8257
37.7319
39.4271
9.01915
13.1806
15.1939
16.9091
18.4726
19.9713
21.4564
22.9575
24.4964
26.0991
27.8015
29.6493
31.6803
33.8786
36.1084
38.0764
39.4452
39.9087
39.0423
38.1025
37.2831
36.5824
38.0667
38.5965
40.1494
40.7261
42.781
40.7461
40.5653
42.3885
42.1614
43.1531
8.85003
12.9258
14.8705
16.5402
18.079
19.5578
21.0078
22.4419
23.8714
25.3185
26.8182
28.4177
30.1715
32.1251
34.2744
36.4966
38.5275
39.9466
40.4048
40.4215
40.2618
40.1557
40.9291
41.0957
42.1002
41.8337
42.939
42.2456
41.2787
42.6219
42.9318
43.3124
9.0294
13.0977
15.0476
16.7411
18.3102
19.8072
21.2461
22.6296
23.9648
25.2716
26.5816
27.9365
29.3876
30.9944
32.811
34.8401
36.9718
38.8784
40.1328
40.7905
40.9259
41.0771
41.502
41.5109
42.1451
41.6851
42.0878
41.6701
40.8148
41.6917
42.2044
42.1232
9.46067
13.5725
15.5756
17.3383
18.9735
20.516
21.9678
23.3257
24.5959
25.7979
26.9606
28.1185
29.3124
30.5929
32.0204
33.6474
35.4735
37.3464
38.9339
40.035
40.5109
40.8472
41.1232
40.9995
41.2033
40.592
40.5198
40.0251
39.4506
40.1279
40.6019
40.2998
10.0911
14.2758
16.3549
18.2061
19.9214
21.5204
22.998
24.35
25.5847
26.7224
27.7896
28.8136
29.8233
30.8544
31.9544
33.1777
34.5643
36.0817
37.5543
38.7693
39.472
39.9303
40.1501
39.9264
39.7721
39.0481
38.6986
38.1107
37.8329
38.4342
38.8314
38.5364
10.8679
15.153
17.32
19.2652
21.0609
22.7164
24.2234
25.5806
26.8006
27.9064
28.9227
29.8708
30.7686
31.6374
32.5075
33.4202
34.417
35.5132
36.6442
37.6822
38.3971
38.8594
39.0211
38.7334
38.34
37.5745
37.0871
36.5222
36.4901
37.0532
37.4309
37.2764
11.7005
16.1551
18.4178
20.456
22.3277
24.0355
25.5724
26.9418
28.1621
29.259
30.2566
31.1714
32.0135
32.7929
33.5255
34.236
34.9541
35.7047
36.475
37.2108
37.7629
38.1073
38.1684
37.8261
37.2991
36.5431
36.0124
35.547
35.6875
36.2343
36.656
36.6781
12.6739
17.2501
19.6063
21.7339
23.6765
25.4331
26.9998
28.3865
29.6174
30.7215
31.7217
32.6311
33.4546
34.1949
34.8582
35.4561
36.004
36.5201
37.009
37.4539
37.7762
37.9329
37.8527
37.4433
36.8429
36.1143
35.5899
35.242
35.4923
36.0405
36.5381
36.7199
13.5739
14.0087
14.4994
14.8947
15.2719
15.5701
15.8278
16.0258
16.1824
16.2907
16.3614
16.3929
16.3895
16.3531
16.2877
16.1954
16.079
15.9433
15.7985
15.671
15.6399
15.7368
15.8639
15.9854
16.0887
16.1684
16.2214
16.2461
16.2388
16.197
16.117
16.0009
15.8383
15.6356
15.3751
15.0762
14.7015
14.3129
13.8312
13.4114
18.2838
18.7343
19.2446
19.658
20.0538
20.3744
20.6559
20.8797
21.0632
21.2
21.2996
21.3608
21.3863
21.3768
21.3345
21.261
21.1576
21.028
20.8813
20.7447
20.706
20.8049
20.9308
21.0441
21.1326
21.1921
21.221
21.2183
21.1819
21.1106
21.0023
20.8587
20.6703
20.4432
20.1607
19.8413
19.4498
19.0444
18.544
18.109
20.7292
21.2048
21.7447
22.1836
22.6079
22.9597
23.2763
23.538
23.7626
23.9432
24.088
24.196
24.2689
24.3056
24.3065
24.2722
24.203
24.1011
23.9746
23.8491
23.8092
23.8939
23.9967
24.0797
24.1317
24.1499
24.1339
24.0838
23.9987
23.8797
23.7259
23.5384
23.3092
23.0446
22.7277
22.3783
21.959
21.5289
20.9993
20.5399
22.9287
23.4225
23.9844
24.4423
24.8909
25.27
25.6187
25.9161
26.1799
26.4032
26.5921
26.7459
26.8653
26.9481
26.993
26.9992
26.9663
26.8955
26.7947
26.6894
26.6525
26.7139
26.7875
26.8364
26.8498
26.8254
26.7636
26.6656
26.5324
26.3665
26.1679
25.9373
25.6686
25.3685
25.0202
24.6443
24.2016
23.7531
23.202
22.7247
24.9172
25.4139
25.9827
26.4466
26.9067
27.3009
27.6696
27.9914
28.283
28.5388
28.7633
28.9543
29.1119
29.2327
29.3144
29.3549
29.3532
29.3102
29.2341
29.1498
29.1168
29.1554
29.2013
29.2201
29.2002
29.1395
29.0394
28.9019
28.7293
28.5252
28.2901
28.0263
27.7294
27.4052
27.0376
26.6475
26.1942
25.7406
25.1833
24.7036
26.6939
27.1778
27.7403
28.1987
28.6593
29.0589
29.4385
29.7778
30.0922
30.3748
30.6294
30.8522
31.0423
31.1956
31.3089
31.379
31.4042
31.3854
31.3304
31.2632
31.233
31.254
31.2768
31.2697
31.2214
31.1299
30.997
30.8259
30.6198
30.3831
30.1175
29.8265
29.5066
29.165
28.7871
28.3925
27.9396
27.493
26.9435
26.4778
28.262
28.7228
29.2725
29.7204
30.1778
30.5809
30.9715
31.3279
31.6637
31.9715
32.2534
32.5052
32.7246
32.9069
33.0481
33.1443
33.1927
33.1941
33.1561
33.1012
33.0724
33.0813
33.0862
33.0576
32.9849
32.8667
32.7049
32.504
32.268
32.0021
31.7086
31.3923
31.0511
30.6929
30.3043
29.9067
29.4584
29.024
28.4896
28.049
29.6411
30.076
30.613
31.0524
31.5097
31.9206
32.3238
32.698
33.0548
33.3863
33.6937
33.9719
34.2176
34.4257
34.5913
34.7097
34.7779
34.7956
34.7702
34.7234
34.6953
34.6962
34.6877
34.6422
34.5493
34.408
34.2214
33.9941
33.7314
33.4387
33.1198
32.7797
32.4178
32.0421
31.6415
31.2371
30.7901
30.3659
29.8466
29.4344
30.8633
31.2746
31.8029
32.2389
32.7003
33.121
33.5375
33.929
34.3053
34.6584
34.9883
35.2897
35.5583
35.7885
35.9747
36.1118
36.1958
36.2262
36.2098
36.1677
36.1397
36.1358
36.1182
36.0594
35.9503
35.79
35.5824
35.3326
35.0468
34.7308
34.3891
34.0277
33.6465
33.254
32.8406
32.4273
31.9775
31.5582
31.0497
30.6641
31.9603
32.351
32.8742
33.3104
33.7769
34.2075
34.6365
35.0435
35.4368
35.8085
36.1576
36.4784
36.7662
37.0147
37.2178
37.3696
37.466
37.5059
37.4956
37.456
37.4278
37.4213
37.3973
37.329
37.2072
37.0318
36.807
36.5389
36.2336
35.8981
35.5372
35.1573
34.7594
34.3518
33.9266
33.5044
33.0507
32.6325
32.1307
31.7685
32.9525
33.324
33.8441
34.2806
34.7519
35.1911
35.6307
36.0508
36.4585
36.8456
37.2106
37.5472
37.8505
38.1135
38.3299
38.4934
38.5993
38.6464
38.6403
38.6024
38.5739
38.5655
38.5372
38.4617
38.3301
38.1429
37.9046
37.6218
37.301
36.9496
36.5729
36.1777
35.7658
35.3456
34.9102
34.4802
34.0229
33.6058
33.1092
32.7686
33.8501
34.2012
34.7168
35.1532
35.6279
36.0745
36.523
36.954
37.3734
37.773
38.1508
38.5003
38.8158
39.0903
39.317
39.4897
39.6032
39.6561
39.6542
39.6183
39.5898
39.5792
39.5466
39.4649
39.3257
39.1292
38.8804
38.586
38.253
37.8888
37.4995
37.0919
36.6686
36.2379
35.7944
35.3578
34.8979
34.4824
33.9922
33.6748
34.6543
34.9823
35.4915
35.9264
36.4039
36.8564
37.3125
37.7528
38.182
38.5919
38.9801
39.3398
39.6649
39.9485
40.1835
40.3635
40.4836
40.5423
40.5454
40.5136
40.4856
40.471
40.4328
40.345
40.199
39.995
39.7379
39.4345
39.0918
38.7175
38.318
37.9003
37.4676
37.0281
36.5776
36.1357
35.6744
35.2617
34.7798
34.4883
35.3631
35.664
36.1643
36.597
37.0763
37.5343
37.9972
38.4457
38.8834
39.3023
39.6992
40.0672
40.4002
40.691
40.9328
41.119
41.2452
41.31
41.32
41.2943
41.2673
41.2467
41.2012
41.1066
40.954
40.7437
40.4798
40.1691
39.8187
39.4363
39.0284
38.6021
38.1612
37.714
37.2573
36.8109
36.3488
35.94
35.4694
35.2081
35.9764
36.2433
36.731
37.1601
37.6408
38.1042
38.5738
39.0303
39.4761
39.9031
40.3076
40.6828
41.0224
41.3193
41.5669
41.7588
41.8909
41.9629
41.9809
41.9628
41.9368
41.9092
41.855
41.7527
41.5936
41.3773
41.1077
40.7909
40.4341
40.0447
39.6295
39.1955
38.747
38.2925
37.8298
37.3791
36.917
36.5137
36.0584
35.8345
36.4941
36.7151
37.186
37.6097
38.0915
38.5606
39.0372
39.5019
39.9559
40.3909
40.8026
41.1844
41.5299
41.8325
42.0851
42.2826
42.421
42.5002
42.5268
42.5164
42.4914
42.4568
42.3934
42.283
42.1174
41.8954
41.6205
41.2983
40.9358
40.5401
40.118
39.6766
39.2206
38.7585
38.2899
37.8346
37.3735
36.9781
36.5445
36.3703
36.9221
37.0776
37.522
37.9385
38.4202
38.8951
39.3794
39.8529
40.3155
40.7586
41.1778
41.5662
41.9175
42.2252
42.4831
42.6858
42.8303
42.9169
42.9517
42.9483
42.9241
42.8833
42.8111
42.6928
42.5206
42.2931
42.0131
41.6859
41.318
40.9162
40.4873
40.0383
39.5744
39.1044
38.6293
38.17
37.7114
37.3276
36.9244
36.8188
37.2687
37.3293
37.7308
38.1356
38.6153
39.0963
39.5887
40.0718
40.5437
40.9956
41.4226
41.8179
42.1752
42.4882
42.7512
42.9592
43.1097
43.2033
43.2455
43.2479
43.2244
43.1783
43.0985
42.9728
42.7942
42.5613
42.2764
41.9442
41.5708
41.1627
40.7266
40.2696
39.7973
39.3189
38.8375
38.3744
37.9212
37.5533
37.1966
37.1874
37.5409
37.4691
37.8032
38.1859
38.6629
39.1495
39.6505
40.1439
40.626
41.0875
41.523
41.9257
42.2895
42.6083
42.8766
43.09
43.2463
43.3461
43.3949
43.4019
43.3789
43.3286
43.2423
43.1099
42.9255
42.6872
42.3973
42.0599
41.6806
41.2657
40.822
40.3564
39.8753
39.3883
38.9008
38.4357
37.9909
37.6489
37.3611
37.4803
37.7313
37.4954
37.7354
38.0805
38.5475
39.0402
39.5498
40.0541
40.547
41.0188
41.4635
41.8743
42.2451
42.5701
42.844
43.0629
43.2247
43.3303
43.3845
43.3954
43.3728
43.319
43.2273
43.0891
42.8992
42.6559
42.3608
42.0178
41.6323
41.2103
40.7585
40.2841
39.7939
39.2987
38.8062
38.3417
37.9116
37.6101
37.4169
37.6952
37.8066
37.3954
37.5235
37.8158
38.2629
38.7578
39.2758
39.7909
40.2943
40.7766
41.2308
41.6501
42.0283
42.3597
42.6395
42.8639
43.0309
43.1417
43.2004
43.2144
43.192
43.1356
43.0395
42.8966
42.7018
42.4536
42.1533
41.8047
41.4129
40.9837
40.5237
40.0406
39.5421
39.0396
38.5443
38.0824
37.6766
37.4313
37.3501
37.7969
37.7192
37.1478
37.1625
37.393
37.8115
38.3026
38.8285
39.3525
39.8659
40.3575
40.8205
41.2478
41.6331
41.9708
42.2562
42.4855
42.6572
42.7722
42.8344
42.8506
42.8284
42.77
42.6709
42.5242
42.3255
42.0732
41.7685
41.4148
41.0171
40.5813
40.1142
39.6236
39.1183
38.6106
38.1138
37.6608
37.2882
37.1092
37.1453
37.7546
37.4226
36.7332
36.6549
36.826
37.2121
37.6924
38.2205
38.7532
39.2745
39.7739
40.244
40.6777
41.0687
41.4115
41.7012
41.9345
42.1096
42.2274
42.2918
42.3093
42.2872
42.2278
42.127
41.9784
41.7774
41.5225
41.2148
40.8576
40.4559
40.0155
39.5435
39.048
38.5386
38.0291
37.5339
37.0946
36.7581
36.6432
36.7806
37.5215
36.9094
36.1578
36.0239
36.1513
36.5095
36.9765
37.5022
38.0393
38.5641
39.0675
39.541
39.9779
40.3716
40.7166
41.0083
41.243
41.4191
41.5376
41.6021
41.6195
41.5972
41.5379
41.4375
41.2895
41.0889
40.8343
40.5266
40.169
39.7665
39.325
38.8516
38.355
37.8449
37.3351
36.8445
36.4198
36.1115
36.04
36.2338
37.0412
36.3335
35.525
35.3492
35.4421
35.776
36.2277
36.7455
37.2803
37.8052
38.3083
38.7814
39.2174
39.6101
39.9539
40.2439
40.4768
40.6506
40.7665
40.8285
40.8438
40.8209
40.763
40.6658
40.5218
40.3255
40.075
39.7712
39.4173
39.0182
38.5801
38.1099
37.6164
37.1097
36.603
36.119
35.7057
35.4137
35.3621
35.5743
36.4043
35.7034
34.8994
34.7238
34.8059
35.1268
35.5648
36.0715
36.5974
37.1157
37.612
38.0784
38.5079
38.894
39.2312
39.5146
39.7408
39.908
40.0169
40.0721
40.0823
40.0577
40.003
39.9126
39.7771
39.5898
39.3482
39.0534
38.7084
38.3183
37.8889
37.4277
36.9428
36.445
35.9472
35.4724
35.0678
34.7804
34.7259
34.9177
35.7156
35.2012
34.4373
34.2843
34.3697
34.6845
35.1104
35.6028
36.114
36.6179
37.1009
37.5546
37.9717
38.3458
38.6713
38.9433
39.1581
39.3139
39.4113
39.4552
39.456
39.4282
39.3788
39.2995
39.1773
39.0037
38.7758
38.4945
38.1632
37.7867
37.3712
36.9237
36.453
35.9693
35.4865
35.0254
34.6315
34.348
34.2878
34.4577
35.223
35.1022
34.3441
34.1921
34.2684
34.568
34.9741
35.4447
35.933
36.4147
36.8777
37.3127
37.7122
38.0695
38.3789
38.6355
38.8355
38.9766
39.059
39.0876
39.0749
39.0416
39.0004
38.9374
38.8333
38.6776
38.4677
38.2046
37.892
37.5348
37.139
36.712
36.2624
35.8006
35.3411
34.9008
34.5211
34.2395
34.1638
34.2902
34.9793
35.3062
34.5818
34.4464
34.5208
34.8064
35.1894
35.6313
36.0888
36.5432
36.9808
37.3923
37.7696
38.1062
38.3963
38.6347
38.8177
38.9425
39.0088
39.0206
38.9912
38.9502
38.9201
38.8767
38.7927
38.6567
38.4666
38.2244
37.9335
37.5992
37.2279
36.8268
36.4049
35.9731
35.5467
35.1436
34.7994
34.5464
34.4908
34.618
35.2905
35.6985
35.0414
34.9432
35.0265
35.3042
35.6667
36.081
36.5088
36.9354
37.3466
37.7333
38.0873
38.4022
38.6721
38.892
39.0582
39.1676
39.2194
39.2164
39.1716
39.1212
39.1019
39.076
39.009
38.8901
38.7178
38.4942
38.2234
37.9105
37.5615
37.1837
36.786
36.3794
35.9792
35.604
35.2884
35.0595
35.0218
35.1597
35.8405
36.2636
35.6452
35.569
35.6525
35.9182
36.2582
36.6456
37.047
37.4482
37.8354
38.1991
38.5317
38.8266
39.0784
39.2821
39.4339
39.5308
39.5717
39.5589
39.5048
39.4498
39.4406
39.4289
39.3765
39.2733
39.1182
38.9136
38.6635
38.3728
38.0472
37.6936
37.3207
36.9385
36.5623
36.2086
35.9116
35.6928
35.6528
35.7671
36.4071
36.6401
36.0593
36.0054
36.0965
36.3602
36.6911
37.0657
37.4534
37.8404
38.2133
38.5635
38.883
39.1656
39.4061
39.5996
39.7423
39.8314
39.8657
39.8474
39.7888
39.7319
39.7274
39.7224
39.6778
39.5834
39.4383
39.245
39.0073
38.7297
38.4183
38.0794
37.7212
37.3532
36.99
36.6464
36.3545
36.1319
36.074
36.1442
36.709
42.6418
50.407
56.5751
62.5828
67.7228
71.8659
75.173
77.8384
80.0168
81.8445
83.4405
84.8708
86.1734
87.3803
88.5213
89.6262
90.7247
91.8434
93.0047
94.2245
95.5112
96.8666
98.2874
99.7666
101.294
102.857
104.438
106.015
107.547
108.965
110.125
110.806
41.9528
49.4364
55.4097
61.2826
66.3526
70.4617
73.7508
76.4083
78.5873
80.4222
82.0256
83.4581
84.7512
85.9431
87.0658
88.1496
89.2245
90.3187
91.4547
92.6477
93.9061
95.232
96.622
98.0687
99.5618
101.089
102.634
104.174
105.669
107.054
108.185
108.847
41.1906
48.4284
54.2187
59.9575
64.9585
69.0383
72.3166
74.9749
77.1641
79.0143
80.6298
82.0663
83.3537
84.5345
85.6406
86.7045
87.758
88.8288
89.9392
91.1057
92.3366
93.6334
94.9928
96.4075
97.8673
99.3601
100.869
102.372
103.831
105.181
106.283
106.928
40.409
47.4122
53.0184
58.6185
63.5486
67.6011
70.8734
73.5401
75.7497
77.6246
79.2577
80.7013
81.9885
83.1592
84.2516
85.2984
86.3314
87.3799
88.4676
89.6093
90.8135
92.0822
93.4119
94.7951
96.2218
97.6796
99.1528
100.62
102.043
103.359
104.432
105.059
39.5701
46.353
51.7749
57.2347
62.098
66.1344
69.4159
72.1055
74.3452
76.249
77.903
79.3582
80.6503
81.817
82.899
83.9303
84.9461
85.9751
87.0398
88.1574
89.3365
90.5782
91.8792
93.232
94.627
96.0516
97.4901
98.9216
100.31
101.593
102.638
103.248
38.7361
45.297
50.5265
55.8378
60.6319
64.6554
67.95
70.6659
72.9411
74.8812
76.5625
78.0343
79.3354
80.5037
81.5792
82.6002
83.6003
84.6106
85.6566
86.753
87.908
89.124
90.3974
91.7207
93.0838
94.4752
95.8791
97.2757
98.6292
99.8795
100.897
101.49
37.8283
44.1766
49.2085
54.3656
59.0937
63.1189
66.4489
69.2133
71.5376
73.5181
75.2291
76.7227
78.039
79.2166
80.2921
81.3048
82.2936
83.2903
84.3168
85.3919
86.5249
87.7165
88.9633
90.2581
91.5915
92.9511
94.3221
95.6845
97.0046
98.2232
99.2147
99.79
36.937
43.0653
47.888
52.8788
57.5362
61.5658
64.9332
67.7433
70.1161
72.1452
73.8967
75.4197
76.7573
77.948
79.0311
80.043
81.0241
82.007
83.0203
84.079
85.1909
86.3595
87.5811
88.8482
90.1509
91.4783
92.8163
94.1449
95.4311
96.6183
97.5821
98.1408
35.9327
41.8474
46.449
51.2594
55.8419
59.8898
63.3253
66.2196
68.6713
70.7602
72.5561
74.1155
75.4818
76.6951
77.7906
78.8083
79.7868
80.7651
81.764
82.8047
83.8983
85.0453
86.2424
87.483
88.7576
90.0543
91.3602
92.6563
93.9095
95.0668
96.005
96.5466
34.9435
40.6337
45.0034
49.6176
54.1166
58.1852
61.6909
64.6596
67.1792
69.3373
71.1953
72.8027
74.2069
75.447
76.5636
77.5929
78.5771
79.5502
80.5431
81.5741
82.6506
83.7773
84.9514
86.1654
87.41
88.6755
89.948
91.21
92.4303
93.5556
94.4663
94.9904
33.7596
39.2349
43.3552
47.7441
52.1377
56.2312
59.846
62.9575
65.6141
67.8715
69.8005
71.4672
72.9191
74.1998
75.3431
76.3913
77.3837
78.364
79.3504
80.3678
81.4304
82.5387
83.6898
84.8784
86.0952
87.3297
88.5701
89.7999
90.9879
92.0843
92.9697
93.4766
32.5524
37.8199
41.6846
45.8329
50.1087
54.2306
57.961
61.196
63.9552
66.3209
68.3519
70.0966
71.6112
72.9369
74.1194
75.194
76.2064
77.1887
78.178
79.1946
80.2447
81.3358
82.4662
83.6287
84.8156
86.0183
87.2249
88.4191
89.5737
90.6388
91.4959
91.9841
31.0426
36.1052
39.6745
43.5182
47.6128
51.7349
55.6195
59.0999
62.1191
64.668
66.8209
68.6663
70.2585
71.6524
72.8811
73.9926
75.0255
76.0302
77.0221
78.0289
79.0701
80.1464
81.2556
82.3942
83.5536
84.7251
85.8992
87.0626
88.1841
89.2202
90.0524
90.5232
29.4381
34.3225
37.6124
41.1475
45.0496
49.1804
53.238
56.9203
60.0961
62.8341
65.1732
67.1536
68.8536
70.3205
71.615
72.7729
73.8463
74.8617
75.8669
76.885
77.9197
78.9823
80.0735
81.186
82.315
83.4534
84.592
85.7163
86.8049
87.8088
88.6102
89.0602
27.2961
32.0025
34.9376
38.0254
41.5724
45.5882
49.8188
53.9405
57.6709
60.778
63.3455
65.5129
67.3455
68.9291
70.3005
71.5222
72.6313
73.6916
74.7125
75.7245
76.7564
77.8085
78.8798
79.9701
81.071
82.177
83.2822
84.3774
85.4301
86.4042
87.1813
87.6138
24.8189
29.4567
32.1471
34.8674
38.0849
42.0366
46.5091
50.9091
54.8102
58.2992
61.2578
63.6862
65.7256
67.4368
68.9205
70.2181
71.3993
72.4806
73.5279
74.5687
75.6021
76.6447
77.701
78.7638
79.8324
80.9025
81.9685
83.0179
84.0374
84.9787
85.7187
86.127
21.1149
25.7348
27.9706
29.942
32.3759
35.7768
40.3116
45.6882
51.0671
55.3407
58.7732
61.6004
63.888
65.8145
67.4304
68.8396
70.0778
71.2391
72.3218
73.3601
74.3979
75.4353
76.4726
77.5142
78.553
79.5879
80.618
81.6414
82.6196
83.527
84.2459
84.6351
16.0688
21.2657
23.8372
25.7682
27.7318
31.1819
35.8565
40.9516
45.8604
51.2393
55.646
59.0434
61.7951
63.9784
65.8096
67.3468
68.7135
69.9091
71.0358
72.1299
73.1807
74.2138
75.2391
76.2502
77.2519
78.2452
79.2294
80.1938
81.1386
82.013
82.6819
83.0415
6.18858
11.285
12.2627
11.8452
9.77745
0.926084
15.3812
28.6361
39.6139
45.9419
51.5284
55.9706
59.2433
61.8754
63.9483
65.6986
67.1585
68.4982
69.6942
70.7882
71.8526
72.887
73.8935
74.8833
75.8511
76.8035
77.7471
78.6915
79.5844
80.4171
81.0721
81.4091
4.7767
6.67125
7.68473
7.23319
3.98444
6.64119
14.6174
9.26329
19.3988
37.5151
45.6713
51.4953
56.0251
59.2477
61.8201
63.8138
65.5227
66.9155
68.1829
69.3802
70.4765
71.5138
72.5113
73.4639
74.3848
75.2845
76.1696
77.0296
77.8896
78.6892
79.2669
79.5666
10.9826
15.1676
16.0336
15.6601
14.8882
14.7645
15.9586
16.4418
17.3939
17.0797
36.6408
46.0073
51.7091
56.1186
59.146
61.596
63.4708
65.1509
66.5568
67.7542
68.8781
69.9263
70.9038
71.833
72.7108
73.558
74.3943
75.2471
76.0344
76.7761
77.3598
77.6267
19.3603
23.7196
25.4404
25.9007
25.0252
23.1637
21.5595
15.9262
13.4241
12.6174
16.5085
35.5874
45.8084
51.3503
55.8542
58.8608
61.2936
63.0465
64.5764
65.9768
67.1695
68.2324
69.204
70.0812
70.8915
71.6635
72.4139
73.131
73.8892
74.5996
75.0423
75.2613
21.6332
26.5459
29.1797
31.0543
32.0398
31.9124
30.3473
27.3686
20.9074
19.9989
21.225
18.6195
33.1208
45.8953
51.2124
55.3583
58.097
60.5319
62.3645
63.7564
65.0036
66.0958
67.0437
67.8913
68.6354
69.3292
70.0189
70.7561
71.4009
72.0172
72.5257
72.6814
22.4591
27.472
30.3363
32.6052
34.2494
35.2569
35.5707
34.9949
32.9059
27.6327
25.2583
25.8645
28.1251
34.0727
45.1223
50.6199
54.8675
57.2914
59.3639
61.2114
62.608
63.7394
64.684
65.4431
66.0727
66.6385
67.1712
67.6649
68.2906
68.8813
69.0768
69.1811
21.9668
27.1238
30.1639
32.6852
34.6544
36.0679
36.9334
37.2426
36.8564
35.1287
30.1415
28.746
20.5266
12.329
33.7293
43.8354
48.5212
53.0777
55.9076
57.6688
59.1871
60.3815
61.2973
62.0021
62.4987
62.9284
63.3917
63.9533
64.4286
64.8179
65.2836
65.2174
20.6064
25.8992
29.0405
31.7088
33.8828
35.5666
36.7846
37.571
37.9362
37.7538
36.3773
31.8246
24.901
16.6303
14.1426
33.7113
44.3197
47.1999
50.4845
53.5037
55.3421
56.6455
57.5277
58.0654
58.3181
58.4427
58.545
58.6396
59.034
59.4237
59.0442
59.0248
18.7209
24.1126
27.288
30.014
32.2874
34.1267
35.5628
36.6527
37.4664
38.0342
38.1977
37.2478
33.3949
29.9279
10.4992
10.7527
23.3645
38.486
44.2082
46.6333
48.8085
50.1782
51.1209
51.3746
51.3532
51.216
51.193
51.3611
52.6371
51.8302
52.4305
52.1528
16.5339
21.9187
25.0296
27.7114
29.9875
31.899
33.4912
34.8225
35.9742
37.0182
37.9459
38.5198
38.0509
34.342
28.1289
12.2214
16.131
23.8649
32.9084
39.454
42.3981
43.9589
44.609
44.6445
43.49
42.6413
41.8976
40.9644
38.549
40.508
39.3076
36.815
14.2966
19.5355
22.4762
25.0109
27.1951
29.0921
30.7638
32.2761
33.7049
35.1261
36.5623
37.91
38.8368
38.4968
35.3185
24.0528
28.1864
27.1619
26.7425
18.517
23.0148
27.1038
26.7653
25.4335
27.4447
18.0411
15.3562
13.1612
36.3043
17.0062
16.7266
38.4246
12.2962
17.2624
19.9535
22.2665
24.289
26.1026
27.7796
29.3887
30.9979
32.6718
34.4521
36.291
37.9914
39.1163
38.9326
35.5226
26.2104
22.4589
26.6848
25.6307
21.2172
8.54847
26.8844
14.0478
35.7876
25.0656
15.9264
33.5827
39.803
26.4705
24.5439
34.419
10.7489
15.3625
17.7819
19.8508
21.6855
23.38
25.0093
26.6354
28.3128
30.0904
32.0146
34.0941
36.2378
38.1742
39.4101
39.1869
35.077
31.2133
18.2869
25.1401
24.0318
21.4587
27.5829
24.4912
32.8999
31.5407
33.2375
30.3547
36.3373
36.0654
33.8689
26.7163
9.61005
13.9747
16.1623
18.0252
19.7013
21.2868
22.8488
24.4341
26.0805
27.8247
29.71
31.7782
34.0317
36.3475
38.3874
39.5932
39.0382
37.5975
34.8724
29.3492
26.2714
28.2437
25.8688
29.6024
33.0207
35.8154
36.5845
38.6009
35.7821
37.8309
38.2083
40.2768
9.01208
13.1825
15.2076
16.9381
18.519
20.0355
21.5367
23.0506
24.5999
26.2135
27.9324
29.8106
31.899
34.1961
36.5516
38.5832
39.6696
39.9305
39.608
37.5171
36.3407
35.8317
36.5858
38.7466
41.2108
42.2027
41.8532
42.857
41.9519
42.4163
42.2995
43.7476
8.85017
12.9325
14.8875
16.572
18.1273
19.6208
21.0813
22.5209
23.9526
25.4008
26.9036
28.5129
30.2913
32.2953
34.5216
36.8087
38.7589
40.0928
40.792
40.2689
39.9239
39.7975
40.2909
41.2446
42.7811
43.1262
42.4101
43.0014
42.9375
42.6415
42.7817
43.9058
9.04832
13.1234
15.0836
16.7916
18.3752
19.8825
21.3254
22.7065
24.0354
25.3341
26.6363
27.9857
29.4366
31.0545
32.8978
34.9641
37.0928
39.009
40.4307
40.8459
40.9421
40.9564
41.2015
41.5956
42.5932
42.6654
41.8933
42.1999
42.2967