/*--------------------------------*- C++ -*----------------------------------*\
  =========                 |
  \\      /  F ield         | OpenFOAM: The Open Source CFD Toolbox
   \\    /   O peration     | Website:  https://openfoam.org
    \\  /    A nd           | Version:  6
     \\/     M anipulation  |
\*---------------------------------------------------------------------------*/
FoamFile
{
    version     2.0;
    format      ascii;
    class       volScalarField;
    location    "36";
    object      p;
}
// * * * * * * * * * * * * * * * * * * * * * * * * * * * * * * * * * * * * * //

dimensions      [0 2 -2 0 0 0 0];

internalField   nonuniform List<scalar> 
380496
(
0.0141936
0.0146675
0.0142675
0.0141666
0.014055
0.0139403
0.0138314
0.0137223
0.0136136
0.0135058
0.013399
0.0132935
0.0131895
0.0130868
0.0129854
0.0128851
0.0127856
0.0126867
0.0125879
0.0124886
0.0123885
0.012287
0.0121833
0.0120769
0.0119671
0.0118532
0.0117345
0.0116102
0.0114802
0.011343
0.0112002
0.0110478
0.0108956
0.010725
0.0105839
0.0141691
0.0146357
0.0142478
0.0141512
0.0140427
0.0139297
0.013821
0.0137109
0.0136003
0.01349
0.01338
0.0132708
0.0131624
0.0130549
0.0129481
0.0128419
0.0127361
0.0126303
0.0125241
0.012417
0.0123087
0.0121985
0.012086
0.0119704
0.0118514
0.011728
0.0116001
0.0114665
0.0113276
0.0111811
0.0110299
0.0108661
0.010705
0.0105101
0.0103587
0.0141411
0.0146029
0.0142262
0.0141345
0.014029
0.0139172
0.013808
0.0136963
0.0135831
0.0134693
0.0133553
0.0132414
0.0131278
0.0130145
0.0129014
0.0127883
0.0126749
0.012561
0.0124462
0.0123299
0.0122118
0.0120913
0.011968
0.0118412
0.0117106
0.0115753
0.0114354
0.0112897
0.0111388
0.0109804
0.0108186
0.0106441
0.0104765
0.0102734
0.0101254
0.0141053
0.0145673
0.0142044
0.0141191
0.0140177
0.0139078
0.0137987
0.0136857
0.0135704
0.0134539
0.0133364
0.0132186
0.0131006
0.0129824
0.0128639
0.0127451
0.0126255
0.0125049
0.012383
0.0122593
0.0121334
0.0120048
0.0118732
0.011738
0.0115988
0.011455
0.0113066
0.0111525
0.0109937
0.0108273
0.0106581
0.0104755
0.0103011
0.0100875
0.00993386
0.0140727
0.0145293
0.0141829
0.0141046
0.0140074
0.0138991
0.0137896
0.013675
0.0135572
0.0134374
0.0133161
0.013194
0.0130713
0.0129479
0.0128239
0.0126989
0.0125729
0.0124454
0.0123162
0.0121848
0.0120509
0.011914
0.0117738
0.0116298
0.0114817
0.011329
0.0111717
0.0110089
0.0108416
0.0106672
0.0104906
0.010301
0.0101216
0.00990248
0.00974846
0.0140269
0.0144888
0.0141612
0.0140915
0.0139992
0.0138929
0.0137832
0.0136671
0.0135469
0.0134241
0.0132994
0.0131734
0.0130464
0.0129184
0.0127893
0.0126591
0.0125273
0.0123939
0.0122583
0.0121203
0.0119795
0.0118356
0.0116883
0.011537
0.0113817
0.0112219
0.0110577
0.0108881
0.0107145
0.010534
0.0103519
0.0101569
0.00997317
0.00974874
0.00959229
0.0139785
0.0144462
0.0141401
0.0140803
0.0139933
0.0138887
0.0137784
0.0136605
0.0135376
0.0134116
0.0132833
0.0131534
0.0130221
0.0128894
0.0127555
0.01262
0.0124827
0.0123433
0.0122017
0.0120573
0.01191
0.0117593
0.0116052
0.011447
0.011285
0.0111184
0.0109476
0.0107718
0.0105922
0.0104061
0.0102191
0.0100195
0.0098326
0.00960465
0.0094479
0.01392
0.0144028
0.0141211
0.0140721
0.0139906
0.0138873
0.0137762
0.0136563
0.0135307
0.0134016
0.0132699
0.0131362
0.0130009
0.0128641
0.0127257
0.0125855
0.0124432
0.0122987
0.0121516
0.0120017
0.0118486
0.0116922
0.0115322
0.0113682
0.0112004
0.0110283
0.0108522
0.0106713
0.010487
0.0102966
0.0101059
0.00990278
0.00971353
0.00948258
0.00932561
0.0138501
0.0143595
0.0141037
0.0140669
0.0139911
0.0138888
0.0137765
0.0136544
0.0135261
0.0133938
0.0132588
0.0131217
0.0129828
0.0128422
0.0126998
0.0125554
0.0124088
0.0122598
0.012108
0.0119532
0.0117953
0.0116339
0.0114689
0.0113
0.0111273
0.0109505
0.01077
0.0105849
0.0103968
0.0102029
0.0100093
0.00980346
0.00961263
0.00937943
0.00922297
0.0137801
0.0143244
0.0140921
0.0140665
0.0139951
0.0138926
0.0137787
0.0136543
0.0135233
0.0133883
0.0132504
0.0131103
0.0129684
0.0128246
0.0126788
0.012531
0.0123808
0.012228
0.0120724
0.0119138
0.0117518
0.0115864
0.0114175
0.0112447
0.0110683
0.0108879
0.0107039
0.0105157
0.0103248
0.0101283
0.00993268
0.00972485
0.0095331
0.00929808
0.00914248
0.0136882
0.0142892
0.0140812
0.0140687
0.0140018
0.0138988
0.013783
0.013656
0.0135222
0.0133844
0.0132438
0.0131009
0.0129561
0.0128094
0.0126607
0.0125097
0.0123563
0.0122003
0.0120413
0.0118793
0.0117139
0.0115451
0.0113727
0.0111966
0.011017
0.0108335
0.0106467
0.0104559
0.0102626
0.0100641
0.00986691
0.00965757
0.00946536
0.00922883
0.00907471
0.0135948
0.0142654
0.0140768
0.0140761
0.0140119
0.0139069
0.0137886
0.0136588
0.0135223
0.0133818
0.0132386
0.0130932
0.0129459
0.0127967
0.0126453
0.0124918
0.0123356
0.0121768
0.012015
0.0118501
0.0116818
0.0115101
0.0113348
0.011156
0.0109737
0.0107878
0.0105986
0.0104058
0.0102108
0.0100107
0.00981241
0.00960194
0.00940965
0.00917176
0.00901952
0.0134706
0.0142458
0.0140739
0.014087
0.014025
0.0139173
0.0137961
0.0136632
0.0135238
0.0133807
0.013235
0.0130873
0.0129377
0.0127862
0.0126326
0.0124767
0.0123182
0.012157
0.0119927
0.0118254
0.0116546
0.0114805
0.0113028
0.0111218
0.0109372
0.0107493
0.0105583
0.0103638
0.0101674
0.00996616
0.00976709
0.00955587
0.00936383
0.00912497
0.00897517
0.0133407
0.0142425
0.0140775
0.0141025
0.0140403
0.0139285
0.0138039
0.0136679
0.0135257
0.0133802
0.0132323
0.0130826
0.012931
0.0127776
0.012622
0.0124642
0.0123037
0.0121405
0.0119742
0.0118048
0.011632
0.0114559
0.0112763
0.0110934
0.0109071
0.0107175
0.0105251
0.0103293
0.0101318
0.00992983
0.00973025
0.00951856
0.00932679
0.0090871
0.00893957
0.0131783
0.0142514
0.0140846
0.014123
0.014059
0.0139421
0.0138135
0.0136739
0.0135289
0.013381
0.0132311
0.0130794
0.0129261
0.012771
0.0126138
0.0124543
0.0122922
0.0121273
0.0119594
0.0117883
0.0116139
0.0114361
0.011255
0.0110705
0.0108828
0.010692
0.0104984
0.0103017
0.0101035
0.00990095
0.0097011
0.0094894
0.00929811
0.00905869
0.00891363
0.0129975
0.0142802
0.0140962
0.0141456
0.014077
0.0139544
0.0138219
0.0136792
0.0135316
0.0133817
0.0132301
0.0130769
0.0129222
0.0127658
0.0126073
0.0124464
0.012283
0.0121168
0.0119475
0.0117751
0.0115994
0.0114204
0.011238
0.0110524
0.0108636
0.0106718
0.0104774
0.01028
0.0100812
0.00987842
0.00967836
0.00946681
0.0092753
0.00903621
0.00889069
0.0127941
0.0143291
0.0141143
0.0141754
0.0140995
0.0139696
0.0138325
0.0136862
0.013536
0.0133841
0.0132309
0.0130763
0.0129204
0.0127628
0.0126032
0.0124413
0.0122768
0.0121095
0.0119393
0.0117658
0.0115891
0.0114091
0.0112258
0.0110393
0.0108497
0.0106572
0.0104622
0.0102643
0.0100653
0.00986237
0.00966237
0.00945161
0.00926041
0.00902447
0.0088791
0.0125544
0.0144009
0.0141318
0.0142013
0.014117
0.013981
0.0138403
0.0136913
0.0135392
0.0133859
0.0132315
0.013076
0.0129192
0.0127607
0.0126003
0.0124376
0.0122724
0.0121044
0.0119334
0.0117591
0.0115818
0.011401
0.0112171
0.0110299
0.0108399
0.0106468
0.0104514
0.0102532
0.010054
0.00985112
0.00965101
0.00944098
0.0092481
0.00901411
0.00885843
0.0123103
0.0144888
0.01416
0.0142379
0.0141416
0.0139979
0.0138524
0.0137001
0.0135457
0.0133907
0.0132351
0.0130785
0.0129209
0.0127617
0.0126006
0.0124373
0.0122715
0.0121028
0.0119313
0.0117565
0.0115786
0.0113973
0.0112131
0.0110254
0.0108351
0.0106416
0.0104461
0.0102477
0.0100485
0.00984576
0.00964606
0.00943741
0.00924579
0.009019
0.0088651
0.0120443
0.0145919
0.0141832
0.0142666
0.0141593
0.0140101
0.0138614
0.0137069
0.013551
0.0133949
0.0132384
0.0130811
0.0129229
0.0127631
0.0126016
0.0124378
0.0122717
0.0121026
0.0119308
0.0117556
0.0115775
0.0113959
0.0112114
0.0110235
0.010833
0.0106393
0.0104437
0.0102451
0.0100461
0.00984345
0.00964372
0.00943609
0.00924139
0.00901797
0.00883209
0.0117934
0.0146999
0.0142293
0.0143106
0.0141884
0.0140307
0.0138766
0.0137184
0.01356
0.0134022
0.0132444
0.0130862
0.0129272
0.0127669
0.012605
0.0124409
0.0122744
0.0121051
0.0119331
0.0117578
0.0115795
0.0113978
0.0112133
0.0110253
0.0108348
0.0106411
0.0104456
0.0102471
0.0100482
0.0098457
0.00964664
0.00943987
0.00925034
0.00903415
0.00889538
0.0141968
0.0146604
0.0142676
0.014167
0.0140551
0.0139403
0.0138315
0.0137223
0.0136136
0.0135058
0.013399
0.0132935
0.0131895
0.0130868
0.0129854
0.0128851
0.0127856
0.0126867
0.0125879
0.0124886
0.0123885
0.012287
0.0121833
0.0120769
0.0119671
0.0118532
0.0117346
0.0116103
0.0114803
0.0113431
0.0112003
0.0110479
0.0108957
0.0107251
0.010584
0.014172
0.0146287
0.0142478
0.0141515
0.0140429
0.0139297
0.013821
0.0137109
0.0136003
0.01349
0.01338
0.0132708
0.0131624
0.0130549
0.0129481
0.012842
0.0127361
0.0126303
0.0125241
0.0124171
0.0123087
0.0121985
0.012086
0.0119704
0.0118514
0.0117281
0.0116002
0.0114666
0.0113277
0.0111812
0.01103
0.0108662
0.0107051
0.0105102
0.0103588
0.0141439
0.014596
0.0142263
0.0141348
0.0140291
0.0139172
0.013808
0.0136963
0.0135831
0.0134693
0.0133553
0.0132414
0.0131278
0.0130145
0.0129014
0.0127883
0.0126749
0.012561
0.0124462
0.0123299
0.0122118
0.0120913
0.011968
0.0118412
0.0117106
0.0115754
0.0114355
0.0112897
0.0111389
0.0109805
0.0108186
0.0106442
0.0104765
0.0102735
0.0101255
0.0141082
0.0145605
0.0142045
0.0141195
0.0140179
0.0139079
0.0137987
0.0136857
0.0135704
0.0134539
0.0133364
0.0132186
0.0131006
0.0129824
0.012864
0.0127451
0.0126255
0.0125049
0.012383
0.0122593
0.0121335
0.0120049
0.0118733
0.011738
0.0115989
0.0114551
0.0113067
0.0111526
0.0109937
0.0108274
0.0106582
0.0104756
0.0103013
0.0100876
0.00993396
0.0140753
0.0145228
0.0141829
0.0141049
0.0140075
0.0138991
0.0137896
0.013675
0.0135572
0.0134373
0.0133161
0.013194
0.0130713
0.0129479
0.0128239
0.0126989
0.0125729
0.0124454
0.0123162
0.0121848
0.0120509
0.011914
0.0117738
0.0116298
0.0114818
0.011329
0.0111718
0.011009
0.0108417
0.0106673
0.0104907
0.0103011
0.0101217
0.0099026
0.00974855
0.0140295
0.0144824
0.0141612
0.0140918
0.0139993
0.0138929
0.0137832
0.0136671
0.0135469
0.0134241
0.0132994
0.0131734
0.0130464
0.0129184
0.0127894
0.0126591
0.0125274
0.0123939
0.0122583
0.0121203
0.0119796
0.0118356
0.0116883
0.011537
0.0113818
0.011222
0.0110578
0.0108882
0.0107146
0.0105341
0.010352
0.010157
0.0099733
0.00974888
0.00959239
0.0139809
0.01444
0.0141402
0.0140806
0.0139934
0.0138887
0.0137784
0.0136605
0.0135376
0.0134116
0.0132833
0.0131534
0.0130221
0.0128895
0.0127555
0.01262
0.0124827
0.0123434
0.0122017
0.0120573
0.01191
0.0117594
0.0116052
0.0114471
0.011285
0.0111184
0.0109477
0.0107719
0.0105923
0.0104062
0.0102192
0.0100196
0.00983272
0.00960479
0.009448
0.0139222
0.0143968
0.0141212
0.0140724
0.0139907
0.0138873
0.0137762
0.0136563
0.0135307
0.0134016
0.0132699
0.0131362
0.0130009
0.0128641
0.0127257
0.0125855
0.0124432
0.0122987
0.0121516
0.0120017
0.0118487
0.0116922
0.0115322
0.0113683
0.0112005
0.0110284
0.0108522
0.0106714
0.0104871
0.0102967
0.010106
0.00990291
0.00971366
0.00948273
0.00932571
0.0138522
0.0143537
0.0141038
0.0140672
0.0139912
0.0138888
0.0137765
0.0136544
0.0135261
0.0133938
0.0132588
0.0131217
0.0129828
0.0128422
0.0126998
0.0125554
0.0124088
0.0122598
0.012108
0.0119533
0.0117953
0.0116339
0.0114689
0.0113001
0.0111274
0.0109506
0.0107701
0.010585
0.0103969
0.010203
0.0100094
0.00980358
0.00961276
0.00937958
0.00922306
0.013782
0.0143187
0.0140921
0.0140667
0.0139951
0.0138926
0.0137787
0.0136543
0.0135233
0.0133883
0.0132504
0.0131103
0.0129684
0.0128246
0.0126788
0.012531
0.0123808
0.012228
0.0120724
0.0119138
0.0117519
0.0115865
0.0114175
0.0112448
0.0110683
0.0108879
0.010704
0.0105158
0.0103249
0.0101284
0.00993279
0.00972498
0.00953323
0.00929823
0.00914256
0.0136901
0.0142837
0.0140813
0.0140689
0.0140019
0.0138988
0.013783
0.013656
0.0135222
0.0133844
0.0132437
0.0131009
0.0129561
0.0128094
0.0126607
0.0125098
0.0123564
0.0122003
0.0120414
0.0118793
0.0117139
0.0115451
0.0113727
0.0111967
0.011017
0.0108336
0.0106467
0.0104559
0.0102627
0.0100642
0.00986703
0.00965769
0.00946549
0.00922898
0.00907479
0.0135963
0.0142601
0.0140768
0.0140763
0.014012
0.0139069
0.0137886
0.0136588
0.0135222
0.0133818
0.0132386
0.0130932
0.0129459
0.0127967
0.0126453
0.0124918
0.0123357
0.0121769
0.012015
0.0118501
0.0116818
0.0115101
0.0113349
0.0111561
0.0109738
0.0107879
0.0105987
0.0104059
0.0102109
0.0100108
0.00981252
0.00960207
0.00940977
0.00917191
0.00901959
0.0134721
0.0142408
0.014074
0.0140872
0.0140251
0.0139173
0.0137961
0.0136632
0.0135237
0.0133807
0.013235
0.0130873
0.0129377
0.0127862
0.0126326
0.0124767
0.0123182
0.012157
0.0119928
0.0118254
0.0116546
0.0114805
0.0113029
0.0111218
0.0109373
0.0107494
0.0105584
0.0103639
0.0101675
0.00996627
0.0097672
0.009556
0.00936396
0.00912512
0.00897524
0.0133419
0.0142378
0.0140775
0.0141027
0.0140403
0.0139285
0.0138038
0.0136678
0.0135256
0.0133801
0.0132323
0.0130826
0.012931
0.0127776
0.012622
0.0124642
0.0123037
0.0121405
0.0119742
0.0118048
0.0116321
0.011456
0.0112764
0.0110934
0.0109072
0.0107176
0.0105252
0.0103294
0.010132
0.00992995
0.00973037
0.0095187
0.00932692
0.00908727
0.00893964
0.0131795
0.014247
0.0140846
0.0141232
0.0140589
0.013942
0.0138134
0.0136739
0.0135288
0.0133809
0.013231
0.0130794
0.0129261
0.012771
0.0126138
0.0124543
0.0122922
0.0121274
0.0119594
0.0117883
0.0116139
0.0114362
0.011255
0.0110706
0.0108829
0.0106921
0.0104985
0.0103018
0.0101036
0.00990108
0.00970124
0.00948955
0.00929826
0.00905887
0.0089137
0.0129984
0.0142761
0.0140961
0.0141457
0.014077
0.0139543
0.0138219
0.0136791
0.0135316
0.0133817
0.01323
0.0130769
0.0129222
0.0127658
0.0126073
0.0124465
0.0122831
0.0121168
0.0119476
0.0117752
0.0115995
0.0114205
0.0112381
0.0110525
0.0108637
0.0106719
0.0104775
0.0102801
0.0100814
0.00987856
0.00967851
0.00946698
0.00927546
0.00903641
0.00889078
0.0127947
0.0143254
0.0141142
0.0141754
0.0140994
0.0139695
0.0138324
0.0136861
0.0135359
0.0133841
0.0132309
0.0130763
0.0129204
0.0127628
0.0126032
0.0124413
0.0122769
0.0121096
0.0119393
0.0117659
0.0115892
0.0114092
0.0112259
0.0110394
0.0108499
0.0106573
0.0104623
0.0102645
0.0100654
0.00986255
0.00966255
0.0094518
0.00926061
0.00902471
0.00887924
0.012555
0.0143975
0.0141315
0.0142012
0.0141169
0.0139809
0.0138403
0.0136913
0.0135393
0.0133859
0.0132316
0.013076
0.0129193
0.0127608
0.0126005
0.0124378
0.0122726
0.0121045
0.0119335
0.0117593
0.0115819
0.0114011
0.0112173
0.0110301
0.01084
0.0106469
0.0104516
0.0102534
0.0100542
0.00985131
0.00965121
0.00944118
0.00924831
0.00901434
0.00885856
0.0123092
0.0144862
0.0141597
0.0142378
0.0141416
0.013998
0.0138525
0.0137003
0.0135459
0.0133909
0.0132353
0.0130787
0.0129211
0.0127618
0.0126008
0.0124374
0.0122716
0.012103
0.0119314
0.0117566
0.0115788
0.0113975
0.0112132
0.0110256
0.0108352
0.0106418
0.0104462
0.0102478
0.0100487
0.00984594
0.00964624
0.00943759
0.00924599
0.00901921
0.00886531
0.0120416
0.014591
0.0141833
0.014267
0.0141597
0.0140103
0.0138616
0.013707
0.0135511
0.013395
0.0132385
0.0130812
0.012923
0.0127632
0.0126017
0.0124379
0.0122717
0.0121027
0.0119308
0.0117557
0.0115775
0.0113959
0.0112114
0.0110235
0.010833
0.0106393
0.0104438
0.0102452
0.0100461
0.0098435
0.00964378
0.00943614
0.00924146
0.00901798
0.00883215
0.0118078
0.0147032
0.0142288
0.0143095
0.0141871
0.0140295
0.0138756
0.0137175
0.0135593
0.0134015
0.0132438
0.0130856
0.0129267
0.0127665
0.0126046
0.0124404
0.012274
0.0121047
0.0119327
0.0117574
0.0115792
0.0113975
0.0112129
0.0110249
0.0108345
0.0106407
0.0104453
0.0102467
0.0100478
0.00984532
0.00964623
0.00943946
0.00924992
0.00903371
0.00889474
0.0142052
0.014655
0.0142674
0.0141671
0.0140552
0.0139403
0.0138315
0.0137223
0.0136136
0.0135057
0.013399
0.0132935
0.0131895
0.0130868
0.0129854
0.0128851
0.0127856
0.0126867
0.0125879
0.0124886
0.0123885
0.012287
0.0121833
0.0120769
0.0119671
0.0118532
0.0117346
0.0116103
0.0114803
0.0113431
0.0112003
0.0110479
0.0108957
0.0107251
0.0105841
0.0141802
0.0146234
0.0142477
0.0141516
0.0140429
0.0139298
0.013821
0.0137109
0.0136004
0.01349
0.0133801
0.0132708
0.0131624
0.0130549
0.0129481
0.012842
0.0127361
0.0126303
0.0125241
0.0124171
0.0123088
0.0121986
0.0120861
0.0119705
0.0118515
0.0117281
0.0116002
0.0114666
0.0113277
0.0111813
0.01103
0.0108663
0.0107052
0.0105103
0.0103589
0.014152
0.0145908
0.0142262
0.0141349
0.0140292
0.0139173
0.013808
0.0136963
0.0135831
0.0134693
0.0133553
0.0132414
0.0131278
0.0130145
0.0129014
0.0127883
0.0126749
0.012561
0.0124462
0.0123299
0.0122118
0.0120913
0.011968
0.0118412
0.0117106
0.0115754
0.0114355
0.0112897
0.0111389
0.0109805
0.0108186
0.0106442
0.0104766
0.0102735
0.0101255
0.0141162
0.0145554
0.0142044
0.0141195
0.0140179
0.0139079
0.0137987
0.0136858
0.0135704
0.0134539
0.0133364
0.0132186
0.0131006
0.0129824
0.012864
0.0127451
0.0126255
0.012505
0.0123831
0.0122593
0.0121335
0.0120049
0.0118733
0.011738
0.0115989
0.0114551
0.0113067
0.0111526
0.0109938
0.0108275
0.0106583
0.0104757
0.0103013
0.0100877
0.00993406
0.0140831
0.0145178
0.0141828
0.014105
0.0140075
0.0138991
0.0137896
0.013675
0.0135572
0.0134373
0.0133161
0.013194
0.0130713
0.0129479
0.0128239
0.0126989
0.0125729
0.0124454
0.0123162
0.0121848
0.0120509
0.011914
0.0117739
0.0116298
0.0114818
0.0113291
0.0111718
0.011009
0.0108417
0.0106673
0.0104907
0.0103011
0.0101217
0.00990264
0.00974863
0.0140372
0.0144774
0.0141611
0.0140919
0.0139994
0.013893
0.0137832
0.0136671
0.0135469
0.0134241
0.0132994
0.0131734
0.0130464
0.0129184
0.0127894
0.0126591
0.0125274
0.0123939
0.0122583
0.0121203
0.0119796
0.0118357
0.0116883
0.0115371
0.0113818
0.011222
0.0110578
0.0108883
0.0107146
0.0105341
0.0103521
0.010157
0.00997337
0.00974893
0.0095925
0.0139884
0.0144352
0.0141401
0.0140806
0.0139934
0.0138887
0.0137784
0.0136605
0.0135376
0.0134116
0.0132833
0.0131534
0.0130221
0.0128895
0.0127555
0.01262
0.0124827
0.0123434
0.0122017
0.0120574
0.01191
0.0117594
0.0116052
0.0114471
0.011285
0.0111185
0.0109477
0.0107719
0.0105923
0.0104062
0.0102193
0.0100197
0.00983278
0.00960483
0.0094481
0.0139295
0.0143921
0.0141211
0.0140724
0.0139907
0.0138873
0.0137762
0.0136563
0.0135307
0.0134016
0.0132699
0.0131362
0.0130009
0.0128641
0.0127257
0.0125855
0.0124432
0.0122987
0.0121516
0.0120017
0.0118487
0.0116923
0.0115322
0.0113683
0.0112005
0.0110284
0.0108523
0.0106714
0.0104872
0.0102968
0.0101061
0.00990296
0.00971373
0.00948278
0.00932582
0.0138594
0.0143491
0.0141037
0.0140672
0.0139912
0.0138888
0.0137765
0.0136544
0.013526
0.0133938
0.0132588
0.0131217
0.0129828
0.0128422
0.0126998
0.0125554
0.0124088
0.0122598
0.012108
0.0119533
0.0117953
0.0116339
0.0114689
0.0113001
0.0111274
0.0109507
0.0107701
0.0105851
0.010397
0.0102031
0.0100095
0.00980364
0.00961282
0.00937963
0.00922317
0.0137889
0.0143143
0.0140921
0.0140668
0.0139952
0.0138926
0.0137787
0.0136543
0.0135233
0.0133883
0.0132504
0.0131103
0.0129684
0.0128246
0.0126788
0.012531
0.0123808
0.012228
0.0120724
0.0119138
0.0117519
0.0115865
0.0114175
0.0112448
0.0110684
0.010888
0.010704
0.0105158
0.0103249
0.0101285
0.00993284
0.00972503
0.0095333
0.00929829
0.00914268
0.0136969
0.0142794
0.0140812
0.014069
0.014002
0.0138988
0.013783
0.013656
0.0135222
0.0133844
0.0132437
0.0131009
0.0129561
0.0128094
0.0126607
0.0125098
0.0123564
0.0122003
0.0120414
0.0118793
0.011714
0.0115452
0.0113728
0.0111967
0.011017
0.0108336
0.0106468
0.010456
0.0102627
0.0100643
0.00986708
0.00965775
0.00946556
0.00922904
0.0090749
0.0136028
0.014256
0.0140767
0.0140764
0.014012
0.0139069
0.0137886
0.0136588
0.0135222
0.0133818
0.0132385
0.0130932
0.0129459
0.0127967
0.0126453
0.0124918
0.0123357
0.0121768
0.012015
0.0118501
0.0116818
0.0115101
0.0113349
0.0111561
0.0109738
0.0107879
0.0105988
0.0104059
0.0102109
0.0100109
0.00981257
0.00960212
0.00940984
0.00917197
0.00901971
0.0134785
0.0142369
0.0140739
0.0140872
0.0140251
0.0139173
0.013796
0.0136632
0.0135237
0.0133806
0.013235
0.0130873
0.0129377
0.0127862
0.0126326
0.0124767
0.0123182
0.012157
0.0119928
0.0118254
0.0116546
0.0114805
0.0113029
0.0111218
0.0109373
0.0107494
0.0105584
0.0103639
0.0101675
0.00996632
0.00976726
0.00955606
0.00936403
0.00912519
0.00897536
0.0133479
0.014234
0.0140774
0.0141027
0.0140403
0.0139284
0.0138038
0.0136678
0.0135256
0.0133801
0.0132322
0.0130825
0.012931
0.0127776
0.012622
0.0124642
0.0123037
0.0121405
0.0119742
0.0118048
0.0116321
0.011456
0.0112764
0.0110935
0.0109072
0.0107176
0.0105252
0.0103295
0.010132
0.00993
0.00973043
0.00951876
0.009327
0.00908734
0.00893976
0.0131853
0.0142435
0.0140845
0.0141232
0.0140589
0.013942
0.0138134
0.0136738
0.0135288
0.0133809
0.013231
0.0130794
0.0129261
0.012771
0.0126138
0.0124543
0.0122922
0.0121273
0.0119594
0.0117883
0.0116139
0.0114362
0.0112551
0.0110706
0.0108829
0.0106921
0.0104985
0.0103019
0.0101037
0.00990115
0.00970131
0.00948963
0.00929835
0.00905897
0.00891385
0.0130039
0.0142729
0.014096
0.0141456
0.0140769
0.0139542
0.0138218
0.013679
0.0135315
0.0133816
0.01323
0.0130769
0.0129222
0.0127657
0.0126073
0.0124465
0.0122831
0.0121169
0.0119476
0.0117752
0.0115995
0.0114205
0.0112381
0.0110525
0.0108638
0.010672
0.0104776
0.0102802
0.0100815
0.00987866
0.00967861
0.00946708
0.00927557
0.00903652
0.00889093
0.0127999
0.0143225
0.014114
0.0141753
0.0140993
0.0139694
0.0138323
0.013686
0.0135359
0.013384
0.0132308
0.0130763
0.0129204
0.0127628
0.0126033
0.0124414
0.012277
0.0121097
0.0119394
0.0117659
0.0115893
0.0114093
0.011226
0.0110395
0.01085
0.0106574
0.0104624
0.0102646
0.0100655
0.00986267
0.00966268
0.00945193
0.00926075
0.00902485
0.00887944
0.0125598
0.0143949
0.0141313
0.0142011
0.0141167
0.0139808
0.0138402
0.0136913
0.0135393
0.013386
0.0132316
0.0130761
0.0129194
0.0127609
0.0126005
0.0124379
0.0122727
0.0121046
0.0119336
0.0117594
0.011582
0.0114012
0.0112174
0.0110302
0.0108401
0.0106471
0.0104517
0.0102535
0.0100543
0.00985145
0.00965135
0.00944132
0.00924846
0.00901448
0.00885873
0.0123129
0.0144844
0.0141595
0.0142378
0.0141417
0.0139981
0.0138527
0.0137004
0.0135461
0.0133911
0.0132354
0.0130789
0.0129212
0.0127619
0.0126009
0.0124375
0.0122718
0.0121031
0.0119315
0.0117567
0.0115789
0.0113976
0.0112133
0.0110257
0.0108353
0.0106419
0.0104463
0.0102479
0.0100488
0.00984605
0.00964636
0.0094377
0.00924613
0.00901934
0.00886552
0.0120436
0.0145912
0.0141836
0.0142675
0.0141601
0.0140107
0.0138618
0.0137072
0.0135513
0.0133951
0.0132386
0.0130813
0.012923
0.0127632
0.0126017
0.0124379
0.0122717
0.0121027
0.0119308
0.0117557
0.0115775
0.0113959
0.0112114
0.0110235
0.010833
0.0106393
0.0104437
0.0102452
0.0100461
0.00984349
0.00964377
0.00943612
0.00924146
0.00901792
0.00883203
0.011816
0.0147053
0.0142288
0.014309
0.0141865
0.014029
0.0138751
0.0137171
0.0135589
0.0134012
0.0132435
0.0130854
0.0129265
0.0127662
0.0126043
0.0124402
0.0122738
0.0121046
0.0119325
0.0117572
0.011579
0.0113973
0.0112128
0.0110248
0.0108343
0.0106406
0.0104451
0.0102465
0.0100476
0.00984514
0.00964604
0.00943928
0.00924972
0.00903353
0.00889446
0.0142102
0.0146498
0.0142671
0.014167
0.0140552
0.0139403
0.0138315
0.0137223
0.0136136
0.0135057
0.013399
0.0132935
0.0131894
0.0130868
0.0129854
0.0128851
0.0127856
0.0126867
0.0125878
0.0124886
0.0123885
0.012287
0.0121833
0.0120769
0.0119671
0.0118532
0.0117345
0.0116103
0.0114803
0.011343
0.0112003
0.0110479
0.0108957
0.0107251
0.0105841
0.0141852
0.0146183
0.0142474
0.0141515
0.0140429
0.0139298
0.013821
0.0137109
0.0136004
0.01349
0.0133801
0.0132708
0.0131624
0.0130549
0.0129481
0.012842
0.0127362
0.0126303
0.0125241
0.0124171
0.0123088
0.0121986
0.0120861
0.0119705
0.0118515
0.0117281
0.0116002
0.0114667
0.0113278
0.0111813
0.0110301
0.0108664
0.0107052
0.0105103
0.010359
0.014157
0.0145858
0.0142259
0.0141348
0.0140292
0.0139173
0.013808
0.0136963
0.0135831
0.0134693
0.0133553
0.0132414
0.0131278
0.0130145
0.0129013
0.0127883
0.0126749
0.012561
0.0124462
0.0123299
0.0122118
0.0120913
0.011968
0.0118412
0.0117106
0.0115754
0.0114354
0.0112897
0.0111389
0.0109805
0.0108186
0.0106442
0.0104765
0.0102735
0.0101256
0.0141211
0.0145504
0.0142041
0.0141194
0.0140179
0.0139079
0.0137987
0.0136858
0.0135704
0.0134539
0.0133364
0.0132186
0.0131006
0.0129824
0.012864
0.0127451
0.0126255
0.012505
0.0123831
0.0122593
0.0121335
0.0120049
0.0118733
0.011738
0.0115989
0.0114551
0.0113067
0.0111527
0.0109938
0.0108275
0.0106583
0.0104757
0.0103014
0.0100877
0.00993415
0.0140879
0.0145129
0.0141825
0.0141049
0.0140075
0.0138992
0.0137896
0.013675
0.0135572
0.0134373
0.0133161
0.013194
0.0130713
0.0129479
0.0128238
0.0126989
0.0125729
0.0124454
0.0123162
0.0121848
0.0120509
0.011914
0.0117739
0.0116298
0.0114818
0.0113291
0.0111718
0.011009
0.0108417
0.0106673
0.0104907
0.0103011
0.0101217
0.00990266
0.00974872
0.0140419
0.0144726
0.0141609
0.0140918
0.0139994
0.013893
0.0137832
0.0136671
0.0135469
0.0134241
0.0132994
0.0131734
0.0130464
0.0129184
0.0127894
0.0126591
0.0125274
0.0123939
0.0122583
0.0121203
0.0119796
0.0118357
0.0116883
0.0115371
0.0113818
0.011222
0.0110578
0.0108883
0.0107146
0.0105342
0.0103521
0.0101571
0.00997338
0.00974898
0.00959261
0.013993
0.0144305
0.0141398
0.0140806
0.0139935
0.0138887
0.0137784
0.0136605
0.0135376
0.0134116
0.0132833
0.0131534
0.013022
0.0128894
0.0127555
0.01262
0.0124827
0.0123434
0.0122017
0.0120573
0.01191
0.0117594
0.0116052
0.0114471
0.011285
0.0111185
0.0109477
0.0107719
0.0105923
0.0104062
0.0102193
0.0100197
0.00983279
0.00960487
0.00944821
0.013934
0.0143875
0.0141208
0.0140724
0.0139908
0.0138874
0.0137762
0.0136563
0.0135307
0.0134016
0.0132698
0.0131362
0.0130009
0.0128641
0.0127257
0.0125855
0.0124432
0.0122987
0.0121516
0.0120017
0.0118487
0.0116923
0.0115322
0.0113683
0.0112005
0.0110284
0.0108523
0.0106714
0.0104872
0.0102968
0.0101061
0.00990299
0.00971374
0.00948283
0.00932594
0.0138638
0.0143446
0.0141034
0.0140672
0.0139912
0.0138888
0.0137765
0.0136544
0.013526
0.0133938
0.0132588
0.0131217
0.0129828
0.0128422
0.0126998
0.0125554
0.0124088
0.0122598
0.012108
0.0119533
0.0117953
0.0116339
0.0114689
0.0113001
0.0111274
0.0109507
0.0107701
0.0105851
0.010397
0.0102031
0.0100095
0.00980366
0.00961283
0.00937968
0.0092233
0.0137932
0.0143099
0.0140918
0.0140667
0.0139952
0.0138926
0.0137787
0.0136543
0.0135233
0.0133882
0.0132504
0.0131103
0.0129683
0.0128246
0.0126788
0.012531
0.0123808
0.012228
0.0120724
0.0119138
0.0117519
0.0115865
0.0114175
0.0112448
0.0110684
0.010888
0.010704
0.0105158
0.0103249
0.0101285
0.00993285
0.00972506
0.00953331
0.00929833
0.00914281
0.0137011
0.0142752
0.014081
0.0140689
0.014002
0.0138988
0.013783
0.013656
0.0135222
0.0133844
0.0132437
0.0131009
0.0129561
0.0128094
0.0126606
0.0125097
0.0123563
0.0122003
0.0120414
0.0118793
0.0117139
0.0115451
0.0113728
0.0111967
0.011017
0.0108336
0.0106468
0.010456
0.0102628
0.0100643
0.00986709
0.00965777
0.00946556
0.00922909
0.00907505
0.0136069
0.0142519
0.0140765
0.0140763
0.014012
0.0139069
0.0137885
0.0136587
0.0135222
0.0133817
0.0132385
0.0130932
0.0129459
0.0127966
0.0126453
0.0124917
0.0123356
0.0121768
0.012015
0.0118501
0.0116818
0.0115101
0.0113349
0.0111561
0.0109738
0.0107879
0.0105988
0.0104059
0.0102109
0.0100109
0.00981258
0.00960215
0.00940985
0.00917202
0.00901986
0.0134824
0.014233
0.0140737
0.0140871
0.0140251
0.0139173
0.013796
0.0136631
0.0135237
0.0133806
0.0132349
0.0130872
0.0129376
0.0127862
0.0126326
0.0124767
0.0123182
0.012157
0.0119927
0.0118254
0.0116546
0.0114805
0.0113029
0.0111218
0.0109373
0.0107494
0.0105584
0.0103639
0.0101675
0.00996634
0.00976727
0.00955609
0.00936404
0.00912524
0.00897552
0.0133517
0.0142303
0.0140772
0.0141026
0.0140402
0.0139284
0.0138037
0.0136677
0.0135255
0.01338
0.0132322
0.0130825
0.0129309
0.0127775
0.012622
0.0124641
0.0123037
0.0121405
0.0119742
0.0118048
0.011632
0.011456
0.0112764
0.0110935
0.0109072
0.0107177
0.0105252
0.0103295
0.010132
0.00993003
0.00973044
0.0095188
0.00932701
0.0090874
0.00893995
0.013189
0.01424
0.0140844
0.0141231
0.0140589
0.0139419
0.0138133
0.0136738
0.0135287
0.0133808
0.0132309
0.0130793
0.012926
0.0127709
0.0126138
0.0124543
0.0122922
0.0121273
0.0119594
0.0117883
0.0116139
0.0114362
0.011255
0.0110706
0.0108829
0.0106921
0.0104986
0.0103019
0.0101037
0.00990118
0.00970133
0.00948967
0.00929837
0.00905904
0.00891405
0.0130074
0.0142696
0.0140959
0.0141455
0.0140768
0.0139541
0.0138216
0.0136789
0.0135314
0.0133815
0.0132299
0.0130768
0.0129221
0.0127657
0.0126072
0.0124464
0.012283
0.0121168
0.0119476
0.0117752
0.0115995
0.0114205
0.0112382
0.0110526
0.0108638
0.010672
0.0104776
0.0102802
0.0100815
0.0098787
0.00967865
0.00946714
0.00927561
0.00903661
0.00889116
0.0128031
0.0143196
0.0141139
0.0141751
0.0140992
0.0139693
0.0138322
0.0136859
0.0135358
0.013384
0.0132308
0.0130763
0.0129204
0.0127628
0.0126033
0.0124414
0.012277
0.0121097
0.0119394
0.011766
0.0115893
0.0114093
0.011226
0.0110395
0.01085
0.0106575
0.0104625
0.0102646
0.0100656
0.00986273
0.00966274
0.00945201
0.00926081
0.00902496
0.00887968
0.0125627
0.0143923
0.0141312
0.014201
0.0141167
0.0139808
0.0138402
0.0136913
0.0135393
0.013386
0.0132316
0.0130762
0.0129194
0.0127609
0.0126006
0.0124379
0.0122727
0.0121047
0.0119337
0.0117594
0.0115821
0.0114013
0.0112174
0.0110302
0.0108402
0.0106471
0.0104518
0.0102536
0.0100544
0.00985152
0.00965143
0.0094414
0.00924853
0.00901459
0.00885893
0.0123153
0.0144829
0.0141596
0.0142377
0.0141417
0.0139981
0.0138527
0.0137005
0.0135462
0.0133912
0.0132355
0.0130789
0.0129213
0.012762
0.012601
0.0124376
0.0122718
0.0121031
0.0119316
0.0117568
0.0115789
0.0113976
0.0112134
0.0110257
0.0108354
0.0106419
0.0104464
0.010248
0.0100488
0.00984609
0.0096464
0.00943775
0.00924617
0.0090194
0.00886566
0.0120455
0.0145917
0.014184
0.0142677
0.0141603
0.0140107
0.0138619
0.0137072
0.0135513
0.0133951
0.0132385
0.0130813
0.012923
0.0127632
0.0126017
0.0124379
0.0122717
0.0121026
0.0119308
0.0117556
0.0115775
0.0113959
0.0112114
0.0110234
0.0108329
0.0106393
0.0104437
0.0102451
0.010046
0.00984343
0.00964371
0.00943606
0.0092414
0.00901782
0.00883152
0.0118146
0.0147065
0.0142294
0.014309
0.0141866
0.0140289
0.013875
0.013717
0.0135588
0.0134011
0.0132434
0.0130853
0.0129264
0.0127662
0.0126043
0.0124402
0.0122738
0.0121045
0.0119325
0.0117572
0.011579
0.0113973
0.0112128
0.0110248
0.0108343
0.0106406
0.0104451
0.0102466