/*--------------------------------*- C++ -*----------------------------------*\
  =========                 |
  \\      /  F ield         | OpenFOAM: The Open Source CFD Toolbox
   \\    /   O peration     | Website:  https://openfoam.org
    \\  /    A nd           | Version:  6
     \\/     M anipulation  |
\*---------------------------------------------------------------------------*/
FoamFile
{
    version     2.0;
    format      ascii;
    class       volVectorField;
    location    "36";
    object      wallShearStress;
}
// * * * * * * * * * * * * * * * * * * * * * * * * * * * * * * * * * * * * * //

dimensions      [0 2 -2 0 0 0 0];

internalField   uniform (0 0 0);

boundaryField
{
    inlet
    {
        type            calculated;
        value           uniform (0 0 0);
    }
    outlet
    {
        type            calculated;
        value           uniform (0 0 0);
    }
    roughCylinder
    {
        type            calculated;
        value           nonuniform List<vector> 
3840
(
(-0.000270773 -0.000397209 -0.000163278)
(-0.000327317 -0.000510684 -2.20733e-05)
(-0.000376568 -0.000632148 4.18198e-05)
(-0.000451667 -0.00073559 0.000123747)
(-0.000539732 -0.000809613 0.000206213)
(-0.00063106 -0.000849959 0.000278371)
(-0.000715973 -0.000860675 0.000335083)
(-0.000789725 -0.000853122 0.000374907)
(-0.000852786 -0.000846714 0.000402175)
(-0.000901359 -0.000845319 0.000416475)
(-0.00094005 -0.000852985 0.000419816)
(-0.000972204 -0.000868145 0.000414359)
(-0.00100091 -0.000889183 0.000402654)
(-0.00102908 -0.000914608 0.000386759)
(-0.00105874 -0.000943492 0.000368111)
(-0.00109101 -0.000975314 0.000347361)
(-0.00112624 -0.00100977 0.000324594)
(-0.00116424 -0.0010465 0.000299493)
(-0.00120451 -0.00108501 0.000271485)
(-0.00124621 -0.00112446 0.000239685)
(-0.00128822 -0.00116366 0.000202687)
(-0.00132859 -0.00120058 0.000158341)
(-0.00136333 -0.00123203 0.000102924)
(-0.00138534 -0.00125206 3.57712e-05)
(-0.000290436 -0.000384943 -0.000155905)
(-0.000350289 -0.000495301 -2.60418e-05)
(-0.000402135 -0.000616331 3.33427e-05)
(-0.000479587 -0.000720965 0.000111769)
(-0.000569575 -0.000797553 0.000192244)
(-0.000662864 -0.000840855 0.000263322)
(-0.000750789 -0.00085568 0.000320007)
(-0.000829477 -0.000854273 0.000361874)
(-0.000897479 -0.000851059 0.000391683)
(-0.000950035 -0.000848439 0.000407491)
(-0.00099069 -0.000854776 0.000411481)
(-0.00102479 -0.000869277 0.000406339)
(-0.00105537 -0.000890109 0.000394862)
(-0.00108546 -0.000915556 0.000379193)
(-0.00111711 -0.000944554 0.00036083)
(-0.00115148 -0.0009765 0.000340455)
(-0.00118888 -0.00101105 0.000318165)
(-0.00122914 -0.00104782 0.000293638)
(-0.00127169 -0.00108631 0.000266288)
(-0.00131566 -0.00112569 0.000235222)
(-0.00135988 -0.00116476 0.00019903)
(-0.00140227 -0.00120151 0.000155578)
(-0.0014387 -0.00123277 0.000101173)
(-0.00146176 -0.00125264 3.51653e-05)
(-0.000310078 -0.000367155 -0.000142893)
(-0.000372598 -0.000474165 -3.05653e-05)
(-0.000426843 -0.000593705 2.4022e-05)
(-0.000506168 -0.00069888 9.85674e-05)
(-0.000597988 -0.000777918 0.000176793)
(-0.000693624 -0.000824922 0.000246926)
(-0.000785266 -0.000844995 0.000304249)
(-0.000868857 -0.000849524 0.000348235)
(-0.000941396 -0.000849208 0.000379923)
(-0.000998622 -0.000846585 0.000397401)
(-0.00104136 -0.000851234 0.000402023)
(-0.00107748 -0.000864877 0.000397215)
(-0.00111006 -0.000885282 0.000386036)
(-0.00114216 -0.000910545 0.000370671)
(-0.00117588 -0.000939446 0.000352673)
(-0.00121238 -0.000971297 0.000332754)
(-0.00125201 -0.0010057 0.000311021)
(-0.00129453 -0.00104227 0.000287147)
(-0.00133937 -0.00108048 0.00026054)
(-0.00138558 -0.0011195 0.000230287)
(-0.00143196 -0.00115817 0.000194983)
(-0.00147634 -0.00119448 0.000152518)
(-0.00151442 -0.00122534 9.92329e-05)
(-0.00153848 -0.00124491 3.44945e-05)
(-0.000327678 -0.00034513 -0.000126208)
(-0.000392056 -0.000448118 -3.52562e-05)
(-0.000448127 -0.000565194 1.42483e-05)
(-0.000528714 -0.000670346 8.45788e-05)
(-0.00062226 -0.000751785 0.000160241)
(-0.000720571 -0.000803094 0.000229403)
(-0.000816248 -0.000829047 0.000287574)
(-0.000904679 -0.000839281 0.000333604)
(-0.000981901 -0.000842047 0.000367034)
(-0.00104423 -0.000840758 0.000386379)
(-0.00108974 -0.000843219 0.000391653)
(-0.00112799 -0.0008558 0.000387292)
(-0.00116271 -0.00087559 0.000376495)
(-0.00119689 -0.000900492 0.000361516)
(-0.00123272 -0.000929135 0.000343963)
(-0.00127138 -0.000960722 0.000324574)
(-0.0013132 -0.000994798 0.000303469)
(-0.00135793 -0.00103095 0.000280311)
(-0.00140495 -0.00106867 0.000254501)
(-0.00145329 -0.00110711 0.000225114)
(-0.00150171 -0.00114516 0.000190746)
(-0.00154795 -0.00118083 0.000149315)
(-0.00158756 -0.0012111 9.72046e-05)
(-0.00161255 -0.00123026 3.37946e-05)
(-0.000342018 -0.000319129 -0.000107473)
(-0.000407761 -0.000417653 -3.97494e-05)
(-0.000464998 -0.000531326 4.37999e-06)
(-0.00054624 -0.000635883 7.01186e-05)
(-0.000641463 -0.000719665 0.000142849)
(-0.000742746 -0.00077565 0.000210885)
(-0.000842637 -0.000807619 0.000269823)
(-0.000935825 -0.000823216 0.000317717)
(-0.00101778 -0.00082906 0.000352915)
(-0.00108471 -0.000829251 0.000373825)
(-0.00113469 -0.000830166 0.000380231)
(-0.00117532 -0.00084149 0.000376583)
(-0.00121233 -0.000860391 0.000366264)
(-0.00124869 -0.000884745 0.000351787)
(-0.00128664 -0.000912922 0.000334767)
(-0.00132742 -0.000944032 0.000315986)
(-0.00137137 -0.00097757 0.000295578)
(-0.00141819 -0.00101309 0.000273201)
(-0.00146729 -0.00105008 0.000248246)
(-0.0015176 -0.00108771 0.000219771)
(-0.00156789 -0.00112489 0.000186376)
(-0.00161583 -0.00115969 0.000146018)
(-0.00165682 -0.00118917 9.51194e-05)
(-0.00168261 -0.0012078 3.30758e-05)
(-0.000353401 -0.000290901 -8.81194e-05)
(-0.000419446 -0.000384014 -4.38933e-05)
(-0.000477024 -0.000493418 -5.33339e-06)
(-0.000558276 -0.000596748 5.54177e-05)
(-0.00065497 -0.00068264 0.000124771)
(-0.000759293 -0.000743293 0.0001914)
(-0.000863436 -0.000781024 0.000250848)
(-0.000961402 -0.000801557 0.000300365)
(-0.0010482 -0.000810386 0.000337317)
(-0.00112 -0.000812167 0.000359715)
(-0.00117571 -0.000813128 0.000367844)
(-0.00121905 -0.000822161 0.00036499)
(-0.00125852 -0.000839944 0.000355322)
(-0.00129715 -0.000863426 0.000341461)
(-0.00133728 -0.00089093 0.000325088)
(-0.00138017 -0.000921364 0.000307012)
(-0.00142616 -0.000954137 0.000287382)
(-0.00147496 -0.000988786 0.000265849)
(-0.00152595 -0.00102481 0.000241801)
(-0.00157804 -0.00106137 0.00021428)
(-0.00163 -0.00109746 0.000181892)
(-0.00167943 -0.00113117 0.000142638)
(-0.00172163 -0.00115969 9.29862e-05)
(-0.00174811 -0.00117768 3.2342e-05)
(-0.000360006 -0.000260248 -6.8706e-05)
(-0.000426059 -0.000347747 -4.74637e-05)
(-0.00048321 -0.000452081 -1.46988e-05)
(-0.000563756 -0.000553549 4.05966e-05)
(-0.000661599 -0.000641235 0.000106052)
(-0.000768981 -0.000706455 0.000170879)
(-0.000877538 -0.000749731 0.000230513)
(-0.000980462 -0.000774896 0.000281403)
(-0.00107236 -0.000786646 0.00032008)
(-0.00114928 -0.000790038 0.000344096)
(-0.00121046 -0.000791655 0.000353935)
(-0.00125842 -0.000798741 0.000352377)
(-0.0013006 -0.000814804 0.000343596)
(-0.00134172 -0.000837228 0.000330534)
(-0.00138405 -0.000863775 0.000314929)
(-0.00142899 -0.000893282 0.000297654)
(-0.00147694 -0.000925089 0.000278887)
(-0.0015276 -0.000958676 0.000258272)
(-0.00158031 -0.000993522 0.00023519)
(-0.00163398 -0.00102884 0.000208667)
(-0.00168737 -0.00106362 0.000177314)
(-0.0017381 -0.00109605 0.000139193)
(-0.0017813 -0.00112343 9.0815e-05)
(-0.00180832 -0.00114067 3.15963e-05)
(-0.000363187 -0.000229255 -5.01881e-05)
(-0.000427616 -0.000310138 -5.05364e-05)
(-0.000483235 -0.00040857 -2.35162e-05)
(-0.000562149 -0.000507289 2.59263e-05)
(-0.00066056 -0.000596149 8.68623e-05)
(-0.000770729 -0.000665514 0.000149322)
(-0.00088357 -0.000713867 0.000208642)
(-0.00099157 -0.000743354 0.000260563)
(-0.00108883 -0.000757988 0.000300892)
(-0.00117139 -0.000763186 0.000326764)
(-0.00123819 -0.000765626 0.000338383)
(-0.00129181 -0.000771958 0.000338561)
(-0.0013377 -0.000785882 0.000331024)
(-0.00138142 -0.000806478 0.000318922)
(-0.00142605 -0.000831865 0.000304261)
(-0.00147307 -0.000860265 0.000287914)
(-0.00152287 -0.000890889 0.000270105)
(-0.00157518 -0.000923195 0.000250481)
(-0.00162938 -0.000956657 0.000228419)
(-0.00168434 -0.000990521 0.000202934)
(-0.00173889 -0.00102392 0.000172652)
(-0.00179062 -0.00105496 0.000135687)
(-0.0018346 -0.00108111 8.86113e-05)
(-0.00186202 -0.00109759 3.0842e-05)
(-0.00035951 -0.000196668 -3.26498e-05)
(-0.000422632 -0.000271028 -5.26401e-05)
(-0.000475949 -0.000362907 -3.16233e-05)
(-0.000552272 -0.000458135 1.15407e-05)
(-0.000650497 -0.000547436 6.73147e-05)
(-0.000763131 -0.000620491 0.000126718)
(-0.0008804 -0.000673732 0.00018517)
(-0.000993814 -0.000707458 0.000237766)
(-0.00109692 -0.000725051 0.00027966)
(-0.00118536 -0.000732011 0.000307502)
(-0.00125805 -0.000735323 0.000321148)
(-0.00131724 -0.000741384 0.000323221)
(-0.00136797 -0.000753839 0.000317344)
(-0.00141544 -0.000772773 0.000306673)
(-0.00146242 -0.000796448 0.000293125)
(-0.00151141 -0.000823404 0.000277829)
(-0.00156295 -0.000852688 0.000261089)
(-0.00161672 -0.000883629 0.000242542)
(-0.00167216 -0.000915686 0.000221567)
(-0.00172809 -0.000948066 0.000197158)
(-0.00178329 -0.00097985 0.000167939)
(-0.00183565 -0.00100934 0.00013214)
(-0.00188005 -0.00103413 8.63818e-05)
(-0.00190752 -0.00104971 3.00783e-05)
(-0.000352949 -0.000165392 -1.69408e-05)
(-0.000411886 -0.00023236 -5.44972e-05)
(-0.000461573 -0.000316893 -3.85817e-05)
(-0.000534064 -0.000407319 -2.04027e-06)
(-0.00063107 -0.000496013 4.77748e-05)
(-0.000745573 -0.000572055 0.000103269)
(-0.000866868 -0.000629624 0.000160069)
(-0.000985722 -0.00066737 0.000212822)
(-0.00109493 -0.000687885 0.000256071)
(-0.00118996 -0.000696825 0.000286041)
(-0.00126901 -0.000701077 0.000302017)
(-0.00133401 -0.000706984 0.000306276)
(-0.00138971 -0.000718389 0.000302335)
(-0.00144091 -0.000735766 0.000293303)
(-0.0014908 -0.000757701 0.000281171)
(-0.00154195 -0.00078308 0.000267162)
(-0.00159499 -0.000810782 0.000251622)
(-0.00164979 -0.000840104 0.00023423)
(-0.00170587 -0.000870471 0.000214383)
(-0.00176214 -0.000901093 0.000191074)
(-0.00181762 -0.000931041 0.000162961)
(-0.00187017 -0.000958762 0.000128383)
(-0.00191467 -0.000982041 8.40193e-05)
(-0.00194199 -0.000996623 2.92695e-05)
(-0.000336595 -0.000134662 -3.03432e-06)
(-0.000394142 -0.000192466 -5.37739e-05)
(-0.000438973 -0.000269772 -4.47405e-05)
(-0.000506381 -0.000354728 -1.48774e-05)
(-0.000600806 -0.000441745 2.84719e-05)
(-0.000716306 -0.000519967 7.90895e-05)
(-0.000841734 -0.000581814 0.000133391)
(-0.000966464 -0.000623755 0.000185755)
(-0.00108249 -0.000647467 0.000230177)
(-0.00118432 -0.000658261 0.00026225)
(-0.00127014 -0.000663378 0.000280793)
(-0.00134135 -0.000669141 0.000287575)
(-0.00140213 -0.000679468 0.000285853)
(-0.00145734 -0.000695322 0.000278735)
(-0.00151015 -0.000715485 0.00026825)
(-0.00156326 -0.00073905 0.000255703)
(-0.00161766 -0.000764945 0.000241519)
(-0.00167323 -0.000792397 0.000225402)
(-0.00172968 -0.000820838 0.000206777)
(-0.00178593 -0.000849474 0.000184634)
(-0.00184129 -0.00087742 0.000157687)
(-0.00189376 -0.000903283 0.000124406)
(-0.00193801 -0.000924927 8.15169e-05)
(-0.00196495 -0.000938428 2.84126e-05)
(-0.000314983 -0.000106541 5.22214e-06)
(-0.000372273 -0.000157129 -5.02577e-05)
(-0.000410237 -0.000223685 -4.89332e-05)
(-0.00047019 -0.00030207 -2.62169e-05)
(-0.000560236 -0.000385999 9.95731e-06)
(-0.000675709 -0.000465497 5.46767e-05)
(-0.000804308 -0.000530893 0.000105369)
(-0.000934636 -0.000576856 0.000156532)
(-0.0010575 -0.000603741 0.000201686)
(-0.00116709 -0.00061674 0.000235931)
(-0.00126034 -0.00062275 0.000257282)
(-0.00133819 -0.000628287 0.000266925)
(-0.00140459 -0.000637557 0.000267814)
(-0.00146388 -0.000651698 0.000262888)
(-0.00151971 -0.000669961 0.000254317)
(-0.0015749 -0.000691604 0.000243465)
(-0.0016305 -0.000715493 0.000230803)
(-0.00168657 -0.000740888 0.000216087)
(-0.00174295 -0.000767196 0.00019877)
(-0.00179872 -0.000793668 0.000177859)
(-0.00185349 -0.000819455 0.000152133)
(-0.00190532 -0.000843273 0.000120203)
(-0.00194894 -0.000863202 7.88726e-05)
(-0.00197527 -0.000875562 2.75081e-05)
(-0.000284039 -7.79746e-05 1.25083e-05)
(-0.000342976 -0.00012466 -4.84219e-05)
(-0.000373544 -0.00018013 -5.07183e-05)
(-0.000424351 -0.000250077 -3.50097e-05)
(-0.000507968 -0.000328889 -6.96028e-06)
(-0.000621379 -0.000407989 3.05404e-05)
(-0.000753062 -0.000476852 7.63568e-05)
(-0.000889421 -0.000527226 0.000125395)
(-0.00102012 -0.000557943 0.000170876)
(-0.00113753 -0.000573058 0.00020708)
(-0.00123864 -0.00057989 0.000231382)
(-0.00132373 -0.000585117 0.000244238)
(-0.00139593 -0.000593091 0.000248076)
(-0.00145982 -0.000605472 0.000245745)
(-0.0015188 -0.000621672 0.000239385)
(-0.00157583 -0.000641127 0.000230425)
(-0.00163242 -0.000662834 0.000219466)
(-0.00168866 -0.000686007 0.000206287)
(-0.00174463 -0.00071008 0.000190385)
(-0.00179947 -0.000734274 0.000170777)
(-0.00185322 -0.000757828 0.000146321)
(-0.00190415 -0.000779604 0.000115811)
(-0.00194674 -0.000797756 7.61092e-05)
(-0.00197216 -0.000808936 2.65633e-05)
(-0.000247862 -5.16487e-05 1.85834e-05)
(-0.000307545 -9.54871e-05 -4.75037e-05)
(-0.000331345 -0.000140926 -5.08436e-05)
(-0.000371231 -0.000200789 -4.11288e-05)
(-0.000445817 -0.000272419 -2.14725e-05)
(-0.000555924 -0.000349853 7.7226e-06)
(-0.00068861 -0.000420764 4.71097e-05)
(-0.000830114 -0.000475244 9.27305e-05)
(-0.00096793 -0.000509669 0.00013765)
(-0.00109432 -0.000527616 0.000175664)
(-0.00120413 -0.000535513 0.000203058)
(-0.00129684 -0.0005403 0.00021941)
(-0.00137556 -0.000546933 0.000226639)
(-0.00144408 -0.000557257 0.000227237)
(-0.00150635 -0.000571234 0.000223418)
(-0.00156546 -0.000588446 0.000216649)
(-0.00162289 -0.000607834 0.000207589)
(-0.00167895 -0.000628674 0.000196086)
(-0.00173395 -0.00065038 0.000181678)
(-0.00178729 -0.000672217 0.000163421)
(-0.00183945 -0.000693472 0.00014027)
(-0.00188877 -0.000713079 0.000111217)
(-0.00192991 -0.000729435 7.3219e-05)
(-0.00195416 -0.000739443 2.55759e-05)
(-0.00020421 -2.87056e-05 2.27756e-05)
(-0.000262853 -6.83706e-05 -4.54867e-05)
(-0.000281368 -0.000104982 -4.92688e-05)
(-0.000310258 -0.000154027 -4.41242e-05)
(-0.00037325 -0.000216319 -3.25613e-05)
(-0.000475528 -0.000288916 -1.27719e-05)
(-0.000608981 -0.000361772 1.85433e-05)
(-0.000755718 -0.000420814 5.92227e-05)
(-0.000902179 -0.000460253 0.000102734)
(-0.00103717 -0.000481143 0.000141956)
(-0.00115581 -0.000490236 0.000172343)
(-0.00125693 -0.000494743 0.000192482)
(-0.00134228 -0.000499806 0.000203423)
(-0.00141607 -0.000508048 0.000207395)
(-0.0014818 -0.00051964 0.000206463)
(-0.00154259 -0.000534332 0.000202105)
(-0.00160058 -0.000551277 0.000195142)
(-0.00165607 -0.000569713 0.000185459)
(-0.00170973 -0.000589063 0.000172648)
(-0.00176107 -0.000608561 0.000155801)
(-0.00181117 -0.00062756 0.000133991)
(-0.00185868 -0.000645113 0.000106458)
(-0.00189792 -0.000659705 7.02239e-05)
(-0.00192069 -0.000668556 2.45535e-05)
(-0.000158055 -1.09813e-05 2.48188e-05)
(-0.000214818 -4.56848e-05 -4.2715e-05)
(-0.000229998 -7.50586e-05 -4.70217e-05)
(-0.00024736 -0.000113347 -4.45519e-05)
(-0.00029586 -0.000164288 -3.94597e-05)
(-0.000389588 -0.000230683 -2.93752e-05)
(-0.000517994 -0.000301721 -7.90167e-06)
(-0.000667773 -0.000364664 2.6043e-05)
(-0.000820362 -0.000408611 6.65586e-05)
(-0.000965006 -0.000433691 0.000106323)
(-0.00109347 -0.000444794 0.000139527)
(-0.00120301 -0.000449112 0.00016351)
(-0.00129575 -0.000452775 0.000178533)
(-0.00137469 -0.000458695 0.000186183)
(-0.00144397 -0.000467779 0.000188481)
(-0.00150679 -0.00048 0.00018687)
(-0.00156521 -0.000494473 0.00018222)
(-0.00161973 -0.0005105 0.000174502)
(-0.00167135 -0.00052747 0.000163351)
(-0.00172001 -0.000544647 0.000147942)
(-0.00176736 -0.00056143 0.000127483)
(-0.00181219 -0.000576865 0.000101493)
(-0.00184908 -0.000589758 6.70996e-05)
(-0.00187005 -0.000597515 2.34866e-05)
(-0.000105656 2.7362e-06 2.50459e-05)
(-0.000157016 -2.48662e-05 -3.73721e-05)
(-0.000170177 -4.65312e-05 -4.24911e-05)
(-0.000178195 -7.34814e-05 -4.14267e-05)
(-0.000210026 -0.000112312 -4.09304e-05)
(-0.000285831 -0.000167689 -3.95305e-05)
(-0.000413271 -0.000238848 -2.94491e-05)
(-0.000564679 -0.000305148 -5.02031e-06)
(-0.000725563 -0.000355947 3.07401e-05)
(-0.00087871 -0.000385709 6.96699e-05)
(-0.00101622 -0.000399305 0.000105001)
(-0.00113499 -0.000404185 0.000132794)
(-0.00123491 -0.000406513 0.000152016)
(-0.0013197 -0.000410341 0.000163719)
(-0.00139264 -0.000416897 0.000169574)
(-0.00145684 -0.000426447 0.00017091)
(-0.00151523 -0.000438381 0.000168756)
(-0.00156826 -0.000452032 0.000163141)
(-0.00161748 -0.00046678 0.000153751)
(-0.00166295 -0.000481791 0.000139823)
(-0.0017071 -0.000496512 0.000120742)
(-0.00174923 -0.000510097 9.6362e-05)
(-0.00178322 -0.000521377 6.38664e-05)
(-0.00180211 -0.00052813 2.23827e-05)
(-5.96546e-05 8.98603e-06 2.47709e-05)
(-0.000105001 -1.25013e-05 -3.0511e-05)
(-0.000121687 -2.75912e-05 -3.55378e-05)
(-0.000152997 -5.72632e-05 -3.45015e-05)
(-0.00014776 -7.14608e-05 -3.75836e-05)
(-0.00020467 -0.00011384 -4.57592e-05)
(-0.000302967 -0.000173957 -4.69767e-05)
(-0.000452455 -0.000244841 -3.16154e-05)
(-0.000615417 -0.000300079 -3.19055e-06)
(-0.000777388 -0.00033635 3.31741e-05)
(-0.000925049 -0.000354191 6.96626e-05)
(-0.00105226 -0.000360221 0.000100741)
(-0.00116 -0.000361938 0.000124201)
(-0.00125008 -0.000363725 0.000140054)
(-0.00132656 -0.000367827 0.000149719)
(-0.00139259 -0.000374966 0.000154321)
(-0.00145092 -0.000384513 0.000154879)
(-0.00150206 -0.000395917 0.000151504)
(-0.00154796 -0.000408514 0.000143902)
(-0.00158942 -0.000421469 0.000131456)
(-0.00162958 -0.000434261 0.000113744)
(-0.0016678 -0.000445935 9.09778e-05)
(-0.00169855 -0.000455775 6.04737e-05)
(-0.00171501 -0.000461615 2.12223e-05)
(-1.52281e-05 1.34888e-05 1.99059e-05)
(-4.59082e-05 1.14679e-06 -2.46014e-05)
(-6.60364e-05 3.44837e-07 -7.91162e-05)
(-3.13326e-05 -9.15251e-05 -6.14945e-05)
(-4.14305e-05 -3.45744e-05 8.01958e-06)
(-9.03604e-05 -5.30382e-05 -2.58648e-05)
(-0.000203813 -0.000110814 -4.72201e-05)
(-0.000328427 -0.000174187 -5.10275e-05)
(-0.000496214 -0.000242708 -3.24373e-05)
(-0.000664487 -0.000285939 -1.29473e-06)
(-0.000819711 -0.000308819 3.46133e-05)
(-0.000955958 -0.000317644 6.81858e-05)
(-0.00107045 -0.000319311 9.54343e-05)
(-0.00116638 -0.000319797 0.000115497)
(-0.00124645 -0.00032178 0.000129151)
(-0.0013132 -0.000326482 0.000137109)
(-0.00137059 -0.000333686 0.00014048)
(-0.00141913 -0.000342992 0.00013945)
(-0.00146145 -0.000353751 0.000133719)
(-0.00149849 -0.000364907 0.00012278)
(-0.00153429 -0.000376034 0.000106459)
(-0.00156906 -0.000386226 8.54001e-05)
(-0.00159589 -0.000394717 5.69447e-05)
(-0.00160966 -0.000399764 2.00138e-05)
(9.15327e-06 1.04675e-05 1.38562e-05)
(3.98553e-07 4.57072e-06 -1.91292e-05)
(-2.98371e-05 -1.82567e-05 -4.21165e-05)
(-1.42715e-06 -1.33951e-05 -2.88091e-05)
(-3.1251e-05 -2.28033e-05 -2.31801e-05)
(-5.25047e-05 -4.20999e-05 -3.24768e-05)
(-8.09736e-05 -5.20014e-05 -2.26384e-05)
(-0.000247088 -0.000116713 -4.56122e-05)
(-0.000367637 -0.000175403 -5.4566e-05)
(-0.000538377 -0.000232394 -3.15549e-05)
(-0.00070277 -0.000263109 1.65872e-06)
(-0.000845669 -0.000275743 3.61054e-05)
(-0.000967496 -0.000279006 6.64421e-05)
(-0.001068 -0.000278759 9.03052e-05)
(-0.00115095 -0.000279072 0.000107906)
(-0.00121893 -0.000281951 0.000119408)
(-0.00127565 -0.000287248 0.000125752)
(-0.00132121 -0.000294767 0.000127166)
(-0.00135876 -0.000303831 0.000123264)
(-0.00139044 -0.000313325 0.000113787)
(-0.001421 -0.000322958 9.88293e-05)
(-0.00145056 -0.000331532 7.94561e-05)
(-0.00147337 -0.00033889 5.31839e-05)
(-0.00148418 -0.000343261 1.87215e-05)
(2.71118e-05 4.71735e-06 1.56515e-05)
(2.62018e-05 -4.56197e-08 -5.08231e-06)
(1.95839e-05 -8.04447e-06 2.67509e-05)
(-3.88465e-05 5.47969e-05 3.15062e-07)
(-1.10422e-05 -3.31474e-07 -4.20826e-05)
(-2.74037e-05 -2.19471e-05 -4.1559e-05)
(-2.99631e-05 -1.86089e-05 -3.16466e-05)
(-8.42446e-05 -0.000104433 -4.77196e-05)
(-0.000255031 -0.000131972 -2.76131e-05)
(-0.000410057 -0.000173807 -5.29772e-05)
(-0.000575494 -0.00021596 -2.75326e-05)
(-0.000725463 -0.000234875 6.16035e-06)
(-0.000851661 -0.000240566 3.80796e-05)
(-0.000956924 -0.000241011 6.51139e-05)
(-0.00104267 -0.000240528 8.64696e-05)
(-0.00111004 -0.000241853 0.00010134)
(-0.00116446 -0.000245407 0.000110549)
(-0.00120608 -0.000251391 0.000114412)
(-0.0012388 -0.000259216 0.000112373)
(-0.00126502 -0.000267327 0.000104364)
(-0.00129024 -0.00027579 9.08025e-05)
(-0.00131596 -0.000283338 7.32613e-05)
(-0.00133395 -0.000289542 4.92325e-05)
(-0.00134164 -0.000293384 1.73595e-05)
(4.34482e-05 1.16492e-05 2.89326e-05)
(5.08779e-05 5.25186e-06 -8.66645e-06)
(4.81134e-05 -2.12416e-07 -1.1626e-05)
(1.47047e-05 -2.25856e-05 -1.55988e-05)
(2.51975e-05 -1.56179e-05 -1.93574e-05)
(9.21796e-06 -1.45268e-05 -2.37724e-05)
(-4.02456e-05 -3.28203e-05 -4.69504e-05)
(-4.37352e-05 -5.42006e-05 -4.8123e-05)
(-0.000101827 -7.49549e-05 -3.51717e-05)
(-0.000273521 -0.000121949 -5.10776e-05)
(-0.000442978 -0.000166093 -4.84302e-05)
(-0.000594239 -0.00019302 -1.99398e-05)
(-0.000725625 -0.000203653 1.16517e-05)
(-0.000833262 -0.00020583 4.05341e-05)
(-0.000920191 -0.000205444 6.50256e-05)
(-0.000987504 -0.000206277 8.31159e-05)
(-0.00104041 -0.000208907 9.51803e-05)
(-0.00107784 -0.000213834 0.000101484)
(-0.00110433 -0.000220567 0.000101148)
(-0.00112403 -0.000227306 9.44843e-05)
(-0.00114298 -0.00023474 8.22801e-05)
(-0.00116234 -0.000240895 6.65105e-05)
(-0.00117584 -0.000246033 4.49211e-05)
(-0.0011801 -0.00024944 1.58633e-05)
(5.54913e-05 1.45077e-05 3.44634e-05)
(7.01983e-05 8.69954e-06 -1.08234e-05)
(7.36926e-05 1.20368e-06 -1.8312e-05)
(6.98079e-05 -1.09004e-05 -2.11588e-05)
(6.20687e-05 -2.21569e-05 -2.00406e-05)
(4.76001e-05 -2.77813e-05 -1.17785e-05)
(2.17696e-05 -2.73536e-05 -2.17417e-07)
(-4.34125e-05 1.24334e-05 -2.522e-05)
(-6.47987e-05 -3.09839e-05 -5.2204e-05)
(-0.000147228 -6.21675e-05 -4.31674e-05)
(-0.000307736 -0.000114221 -6.03003e-05)
(-0.000460946 -0.000151132 -3.98884e-05)
(-0.000591721 -0.000167174 -1.14415e-05)
(-0.000701502 -0.000173013 1.7622e-05)
(-0.000789171 -0.000174032 4.43924e-05)
(-0.000853535 -0.000174866 6.50503e-05)
(-0.000902166 -0.00017678 7.94667e-05)
(-0.000934223 -0.000180941 8.80111e-05)
(-0.000954678 -0.000187063 8.92895e-05)
(-0.000968547 -0.000192592 8.39727e-05)
(-0.000981658 -0.000199324 7.31975e-05)
(-0.000997325 -0.000204815 5.94202e-05)
(-0.00100563 -0.000208448 4.03442e-05)
(-0.0010072 -0.000211881 1.42782e-05)
(6.61988e-05 1.34264e-05 3.56139e-05)
(8.57603e-05 7.15825e-06 -1.10819e-05)
(9.3697e-05 -2.64184e-07 -1.95274e-05)
(9.4625e-05 -1.23281e-05 -2.37596e-05)
(8.91568e-05 -2.39333e-05 -2.40868e-05)
(7.64848e-05 -3.27802e-05 -2.01684e-05)
(5.21349e-05 -3.37868e-05 -1.09946e-05)
(6.16047e-06 -3.17234e-05 -4.3278e-06)
(-3.97253e-05 1.50318e-05 -2.26999e-05)
(-3.61937e-05 -1.59056e-05 -2.5167e-05)
(-0.000183093 -6.89724e-05 -5.25494e-05)
(-0.00032271 -0.000102294 -5.09195e-05)
(-0.000454919 -0.000130347 -2.97026e-05)
(-0.000562499 -0.00014084 -2.61479e-06)
(-0.00064849 -0.000144449 2.50392e-05)
(-0.000710607 -0.000146641 4.75227e-05)
(-0.000756616 -0.00014898 6.39218e-05)
(-0.000783201 -0.000152842 7.44803e-05)
(-0.000796395 -0.000158416 7.70463e-05)
(-0.00080306 -0.000162318 7.2817e-05)
(-0.000809525 -0.000168434 6.34319e-05)
(-0.000818337 -0.000172577 5.15428e-05)
(-0.00082212 -0.000174004 3.52281e-05)
(-0.000819478 -0.000177617 1.24706e-05)
(7.23633e-05 1.22054e-05 3.65556e-05)
(9.59624e-05 6.09771e-06 -1.0842e-05)
(0.000107123 -5.65272e-07 -2.04871e-05)
(0.000111109 -1.20162e-05 -2.5897e-05)
(0.000108644 -2.41963e-05 -2.74781e-05)
(9.98161e-05 -3.44126e-05 -2.52985e-05)
(8.32411e-05 -4.08369e-05 -2.08344e-05)
(5.38051e-05 -3.61973e-05 -1.34481e-05)
(-7.69217e-06 -2.44711e-05 -2.76405e-05)
(-2.12702e-05 -2.05674e-05 -3.09645e-05)
(-7.00281e-05 -2.84279e-05 -2.73101e-05)
(-0.000239633 -6.04893e-05 -4.94319e-05)
(-0.000319566 -8.86318e-05 -4.11246e-05)
(-0.000425824 -0.000109725 -1.88082e-05)
(-0.00050767 -0.00011653 7.97702e-06)
(-0.00056308 -0.000120311 3.10072e-05)
(-0.000602193 -0.000122987 4.83231e-05)
(-0.000622426 -0.000126797 6.03487e-05)
(-0.000628615 -0.000132019 6.38805e-05)
(-0.000630992 -0.000134237 6.08484e-05)
(-0.00063176 -0.000140133 5.29578e-05)
(-0.000637752 -0.000143677 4.32562e-05)
(-0.000637628 -0.000142412 2.98525e-05)
(-0.000634929 -0.00014708 1.06312e-05)
(7.21706e-05 1.01208e-05 3.60544e-05)
(9.80807e-05 4.9437e-06 -9.32997e-06)
(0.000110612 -5.42782e-07 -1.97463e-05)
(0.000117446 -1.11192e-05 -2.6244e-05)
(0.00011814 -2.35157e-05 -2.89171e-05)
(0.00011305 -3.4977e-05 -2.77436e-05)
(0.000101719 -4.35449e-05 -2.32342e-05)
(8.30853e-05 -4.55529e-05 -1.59529e-05)
(4.76052e-05 -3.69086e-05 -9.38522e-06)
(-5.21082e-06 -5.4515e-06 -2.95726e-05)
(-2.82065e-05 -6.80746e-06 -3.56494e-05)
(-0.000104124 -9.77878e-05 -5.03568e-05)
(-0.000228512 -5.69429e-05 -2.26408e-05)
(-0.000287938 -7.61082e-05 -2.9259e-05)
(-0.00036709 -8.83703e-05 -5.59211e-06)
(-0.000417922 -9.49073e-05 1.62943e-05)
(-0.000453258 -9.91483e-05 3.35831e-05)
(-0.000466705 -0.000102974 4.64859e-05)
(-0.000466016 -0.000107833 5.05691e-05)
(-0.000460358 -0.000107257 4.81522e-05)
(-0.000456456 -0.000112896 4.17606e-05)
(-0.000456367 -0.000115006 3.40507e-05)
(-0.000442636 -9.93724e-05 2.37079e-05)
(-0.000441953 -0.000115615 8.38878e-06)
(6.62773e-05 7.13802e-06 3.33775e-05)
(9.32634e-05 3.05156e-06 -6.82585e-06)
(0.000106564 -1.27424e-06 -1.70196e-05)
(0.000114744 -1.00751e-05 -2.40654e-05)
(0.00011879 -2.161e-05 -2.79941e-05)
(0.000117669 -3.34638e-05 -2.83411e-05)
(0.00011124 -4.32115e-05 -2.52608e-05)
(9.83704e-05 -4.82515e-05 -1.93574e-05)
(7.5148e-05 -4.42514e-05 -1.21537e-05)
(3.5129e-05 -3.11645e-05 -1.9518e-05)
(-3.34124e-05 -2.72355e-05 -4.81603e-05)
(-5.49116e-05 -4.24537e-05 -5.14738e-05)
(-9.53061e-05 -6.98225e-05 -3.24826e-05)
(-0.000179482 -4.58941e-05 -1.95318e-05)
(-0.000236324 -5.63901e-05 -1.63734e-05)
(-0.000275763 -6.91771e-05 3.60011e-06)
(-0.000301232 -7.39696e-05 1.93883e-05)
(-0.000309531 -7.73639e-05 3.21243e-05)
(-0.000301049 -8.05402e-05 3.60031e-05)
(-0.000297064 -7.62191e-05 3.51781e-05)
(-0.000287982 -8.4422e-05 2.97912e-05)
(-0.000287558 -8.5579e-05 2.52777e-05)
(-0.000346299 -5.00396e-05 1.82142e-05)
(-0.000280115 -8.04248e-05 6.01326e-06)
(5.74388e-05 4.17031e-06 2.95221e-05)
(8.40283e-05 6.39438e-07 -4.5169e-06)
(9.73897e-05 -2.94909e-06 -1.33954e-05)
(0.000106271 -1.02145e-05 -1.99213e-05)
(0.000112115 -1.98737e-05 -2.43493e-05)
(0.000114858 -3.09803e-05 -2.61198e-05)
(0.000113272 -4.13183e-05 -2.48262e-05)
(0.000106399 -4.83741e-05 -2.07362e-05)
(9.13249e-05 -5.00589e-05 -1.51348e-05)
(6.39514e-05 -4.24507e-05 -1.01098e-05)
(3.26671e-05 -3.64288e-05 -3.45983e-06)
(-3.90312e-05 3.01046e-05 -3.17026e-05)
(-5.49337e-05 -2.52769e-05 -4.89933e-05)
(-7.07172e-05 -2.08365e-05 -1.91797e-05)
(-0.000155681 -2.66038e-05 -1.80515e-05)
(-0.000162659 -4.02834e-05 -4.88502e-06)
(-0.00018389 -4.55715e-05 7.89884e-06)
(-0.000184941 -5.06359e-05 1.913e-05)
(-0.000178493 -5.40982e-05 2.36878e-05)
(-0.000170811 -4.03301e-05 2.20837e-05)
(-0.000150692 -5.18893e-05 1.83761e-05)
(-0.000147339 -5.41081e-05 8.89893e-06)
(-0.000170083 -0.000121816 9.30443e-06)
(-0.000138073 -4.64046e-05 9.20691e-06)
(4.80618e-05 2.18397e-06 2.57953e-05)
(7.29004e-05 -1.3899e-06 -3.15268e-06)
(8.54756e-05 -4.91498e-06 -1.03484e-05)
(9.43112e-05 -1.11571e-05 -1.56169e-05)
(0.000100946 -1.92423e-05 -1.95732e-05)
(0.000106046 -2.86155e-05 -2.19176e-05)
(0.000108658 -3.82838e-05 -2.21458e-05)
(0.000107121 -4.6112e-05 -2.02029e-05)
(9.91224e-05 -5.03474e-05 -1.64266e-05)
(8.10853e-05 -4.94551e-05 -1.23112e-05)
(5.12823e-05 -3.62818e-05 -8.5555e-06)
(-6.33674e-06 -3.03637e-05 -1.12458e-05)
(-2.97918e-05 3.6004e-05 -3.19422e-05)
(-2.86469e-05 -1.41229e-05 -3.6132e-05)
(-5.94789e-05 -4.98343e-05 -1.9853e-05)
(-5.36616e-05 -1.49051e-05 -2.02933e-06)
(-6.96948e-05 -2.20101e-05 -2.07091e-06)
(-6.24325e-05 -2.31285e-05 5.07365e-06)
(-3.30873e-05 -1.75008e-05 3.44921e-06)
(-6.73424e-05 -3.50725e-05 9.63575e-06)
(-2.92011e-05 -1.34576e-05 5.06707e-06)
(-2.68922e-05 -1.47584e-05 -9.22988e-07)
(-7.32309e-05 -7.85955e-05 6.81083e-06)
(-3.39569e-05 -2.65429e-05 6.83309e-06)
(3.87156e-05 1.01003e-06 2.20235e-05)
(6.11335e-05 -2.90761e-06 -2.62446e-06)
(7.24999e-05 -6.80241e-06 -8.23363e-06)
(8.08797e-05 -1.2618e-05 -1.20872e-05)
(8.77865e-05 -1.96832e-05 -1.50141e-05)
(9.40204e-05 -2.74804e-05 -1.70894e-05)
(9.94714e-05 -3.56497e-05 -1.80608e-05)
(0.00010209 -4.29719e-05 -1.77195e-05)
(9.99802e-05 -4.83577e-05 -1.62559e-05)
(8.98572e-05 -5.03676e-05 -1.37686e-05)
(6.90738e-05 -4.58271e-05 -1.20262e-05)
(3.31495e-05 -3.24635e-05 -1.68764e-05)
(-1.10034e-05 -2.4692e-05 -2.97903e-05)
(-1.81679e-05 -1.05583e-05 -4.1082e-05)
(-3.38181e-05 -3.00148e-05 -3.8529e-05)
(-1.75994e-05 -1.33256e-05 -9.44581e-06)
(-1.70116e-05 -1.41929e-05 -4.71923e-06)
(-2.49245e-05 -2.19558e-05 2.34171e-07)
(-2.56565e-05 -3.18355e-05 -1.42891e-06)
(-1.78479e-05 -3.24992e-05 5.49567e-06)
(-1.58751e-05 -3.77931e-05 1.0577e-05)
(-1.41638e-05 -3.29582e-05 9.42838e-06)
(-4.68524e-05 7.51504e-06 7.26484e-06)
(-9.53272e-06 -2.21436e-05 1.84632e-06)
(3.10345e-05 1.80453e-07 1.85803e-05)
(5.06789e-05 -4.28838e-06 -2.65485e-06)
(6.06171e-05 -8.76383e-06 -6.92231e-06)
(6.82906e-05 -1.45446e-05 -9.49036e-06)
(7.51294e-05 -2.10522e-05 -1.12983e-05)
(8.18647e-05 -2.77851e-05 -1.27007e-05)
(8.84491e-05 -3.43479e-05 -1.37456e-05)
(9.37323e-05 -4.05603e-05 -1.43132e-05)
(9.57215e-05 -4.56611e-05 -1.44154e-05)
(9.22322e-05 -4.93199e-05 -1.41388e-05)
(7.98431e-05 -4.90564e-05 -1.42333e-05)
(5.54113e-05 -4.32991e-05 -1.78058e-05)
(2.92322e-05 -3.01329e-05 -2.6722e-05)
(1.12931e-05 -2.13005e-05 -2.56862e-05)
(-9.22005e-06 2.18815e-05 -3.71138e-05)
(-4.74273e-06 -1.76403e-05 -3.59525e-05)