/*--------------------------------*- C++ -*----------------------------------*\
  =========                 |
  \\      /  F ield         | OpenFOAM: The Open Source CFD Toolbox
   \\    /   O peration     | Website:  https://openfoam.org
    \\  /    A nd           | Version:  6
     \\/     M anipulation  |
\*---------------------------------------------------------------------------*/
FoamFile
{
    version     2.0;
    format      ascii;
    class       volScalarField;
    location    "36";
    object      yPlus;
}
// * * * * * * * * * * * * * * * * * * * * * * * * * * * * * * * * * * * * * //

dimensions      [0 0 0 0 0 0 0];

internalField   uniform 0;

boundaryField
{
    inlet
    {
        type            calculated;
        value           uniform 0;
    }
    outlet
    {
        type            calculated;
        value           uniform 0;
    }
    roughCylinder
    {
        type            calculated;
        value           nonuniform List<scalar> 
3840
(
45.8566
54.2779
62.1951
69.2119
74.5399
78.5088
81.5374
83.9452
86.0088
87.8261
89.4763
91.0224
92.5354
94.0844
95.723
97.4824
99.3697
101.375
103.475
105.638
107.821
109.944
111.817
113.052
45.0685
53.2069
60.9053
67.8174
73.1075
77.0596
80.0859
82.5046
84.5735
86.3794
88.0066
89.5243
91.0056
92.52
94.1227
95.8434
97.6895
99.6504
101.704
103.818
105.95
108.022
109.85
111.053
44.1983
52.0947
59.5893
66.3974
71.6562
75.6037
78.6424
81.0813
83.1578
84.9562
86.565
88.0574
89.5086
90.9909
92.5575
94.2401
96.0457
97.9631
99.9705
102.036
104.118
106.139
107.921
109.092
43.3101
50.9576
58.2526
64.9585
70.1917
74.1433
77.205
79.6736
81.765
83.5664
85.1592
86.6285
88.0526
89.5032
91.0369
92.6835
94.4495
96.3248
98.2863
100.304
102.336
104.307
106.044
107.183
42.352
49.7792
56.8748
63.4807
68.7024
72.6774
75.7788
78.2855
80.3968
82.203
83.7858
85.2374
86.6372
88.0611
89.5624
91.1737
92.9022
94.7365
96.6546
98.6255
100.609
102.532
104.223
105.332
41.4457
48.5935
55.4758
61.9793
67.1971
71.204
74.3495
76.8999
79.0387
80.8616
82.4451
83.8828
85.2629
86.6597
88.1331
89.7128
91.405
93.1995
95.0745
96.9988
98.9346
100.809
102.457
103.535
40.4208
47.3428
54.0092
60.4141
65.6458
69.7086
72.9202
75.5264
77.7009
79.5395
81.1308
82.5617
83.9258
85.3038
86.7498
88.2977
89.9559
91.7125
93.5463
95.4267
97.3154
99.1441
100.749
101.796
39.5316
46.1062
52.5189
58.8106
64.0639
68.1935
71.4714
74.1368
76.3533
78.2271
79.8365
81.2714
82.6276
83.9856
85.4098
86.9317
88.5573
90.2771
92.0696
93.9053
95.7484
97.5289
99.0919
100.109
38.3996
44.7373
50.904
57.0903
62.385
66.6125
69.9953
72.7442
75.0208
76.9257
78.5587
80.0051
81.3585
82.7094
84.1132
85.6072
87.2026
88.8873
90.6415
92.4345
94.2317
95.9691
97.4897
98.4774
37.511
43.4142
49.2556
55.297
60.64
64.988
68.4732
71.3082
73.6476
75.6145
77.2861
78.7542
80.1187
81.4612
82.8512
84.3267
85.8934
87.5439
89.2578
91.0072
92.7582
94.4474
95.9259
96.8841
36.1774
41.8476
47.3986
53.2985
58.7039
63.207
66.8676
69.8381
72.2801
74.2996
76.0159
77.5153
78.8907
80.2408
81.6208
83.0729
84.6133
86.2305
87.9073
89.6139
91.3202
92.9672
94.4043
95.3319
35.1391
40.3504
45.479
51.1627
56.6293
61.3432
65.1748
68.2848
70.8238
72.9473
74.7313
76.2729
77.6801
79.033
80.4091
81.8521
83.3684
84.9536
86.5903
88.2521
89.9118
91.5093
92.9046
93.8022
33.8183
38.6178
43.2582
48.6753
54.1966
59.1324
63.277
66.6275
69.3531
71.5649
73.4232
75.0259
76.4615
77.8401
79.2178
80.642
82.1361
83.6904
85.2915
86.9108
88.526
90.083
91.4363
92.3021
32.4389
36.8669
40.9469
45.944
51.4688
56.7765
61.217
64.8255
67.712
70.1014
72.0767
73.7477
75.243
76.6391
78.0254
79.4524
80.9285
82.4532
84.0134
85.5863
87.1525
88.6568
89.9667
90.801
30.4807
34.5467
38.0103
42.5333
48.0278
53.5943
58.67
62.7448
66.005
68.561
70.6575
72.4376
73.9869
75.434
76.8374
78.2511
79.7089
81.2043
82.7304
84.2597
85.7807
87.2461
88.5115
89.313
28.3957
32.2624
35.0722
38.7893
44.0628
50.3006
55.7862
60.4084
63.9722
66.8507
69.1639
71.0549
72.7037
74.1887
75.6173
77.0499
78.4985
79.9668
81.4486
82.9272
84.3951
85.8001
87.0204
87.7871
24.861
28.5105
30.5181
33.2832
37.9896
44.4234
51.7239
57.3361
61.7368
64.9785
67.5084
69.5939
71.3379
72.9115
74.3798
75.8052
77.2374
78.6768
80.1258
81.5584
82.9783
84.3485
85.5176
86.2486
20.9767
25.1224
26.6319
27.8528
32.7738
40.0778
46.6283
53.7198
58.8068
62.7234
65.6947
67.9812
69.8982
71.5419
73.0576
74.5251
75.9628
77.3778
78.7747
80.1475
81.5062
82.7994
83.9216
84.6122
8.89757
16.6323
18.0742
18.3034
9.93273
22.4858
39.4469
48.1101
55.3329
60.1191
63.5503
66.2148
68.2988
70.0942
71.6883
73.1554
74.574
75.9571
77.3223
78.6447
79.9505
81.2183
82.2762
82.9239
10.8264
8.30108
16.8192
19.8689
16.1679
21.9546
20.5665
40.8836
49.9896
56.5773
61.0228
64.1048
66.5287
68.4595
70.1356
71.6824
73.1337
74.4961
75.7938
77.0378
78.2656
79.4235
80.4312
81.0307
13.3683
16.1802
15.7702
17.9102
7.85335
20.3739
4.89009
25.0531
43.2184
52.1019
57.7741
61.7043
64.4498
66.6573
68.4874
70.045
71.4657
72.788
74.0515
75.2377
76.4047
77.5556
78.4752
79.0212
23.1953
26.2434
27.2856
26.2224
23.5107
16.9336
24.2738
29.2593
29.5574
45.2785
53.5304
58.47
61.9758
64.4712
66.4589
68.1655
69.6721
70.9767
72.146
73.214
74.2668
75.2495
76.1087
76.5785
25.5053
29.4752
32.0152
33.4461
33.3305
30.7436
24.2666
28.287
31.2951
35.0242
47.4858
54.6236
58.8452
61.924
64.2216
65.965
67.4176
68.6676
69.7824
70.7849
71.7601
72.7594
73.4949
73.9179
26.9573
31.025
33.7039
35.619
36.5883
36.313
33.6695
25.5069
26.6508
10.3075
38.2333
48.6067
54.8037
58.521
61.1957
63.2364
64.8834
66.1084
67.0833
67.8616
68.6486
69.3827
70.0177
70.2487
26.6087
30.8615
33.7715
36.0318
37.5249
38.1976
37.9415
35.9756
28.4047
19.3184
21.3345
40.9311
49.0584
54.3477
57.6407
59.7698
61.32
62.4629
63.2932
64.0536
64.6784
65.4515
65.9546
66.222
24.6257
29.1921
32.3589
34.9433
36.8335
38.0352
38.6118
38.4302
35.6479
31.8973
15.7924
30.2779
41.5112
47.9031
52.4298
55.2174
57.1933
58.2555
58.8624
58.9875
59.3347
59.6613
59.927
59.4973
21.7099
26.6585
30.0472
32.8893
35.1097
36.7372
37.9101
38.7508
38.7985
35.0633
30.6732
36.9405
30.2376
40.514
45.5393
48.4323
50.2895
51.2112
51.1854
52.106
51.467
51.8155
52.8176
52.5988
18.6229
23.8036
27.2367
30.1671
32.5816
34.5457
36.1954
37.6972
38.9558
38.918
33.3465
32.4327
36.2876
23.7214
35.8058
40.733
43.201
43.5148
43.3623
41.242
41.0599
40.551
40.1121
37.3878
15.9359
21.0543
24.3154
27.1406
29.5817
31.7437
33.7622
35.7893
37.8165
39.319
38.6777
31.707
29.252
17.862
22.9957
18.0571
23.0798
21.7784
11.8076
25.7983
7.95417
8.97288
43.5272
17.6676
13.5178
18.4642
21.4749
24.1121
26.4843
28.7222
30.9569
33.3074
35.8247
38.2221
39.6092
37.6622
30.1805
26.898
36.384
12.7075
10.614
21.2988
28.9202
30.3026
34.4621
34.7458
44.1281
28.1401
11.7583
16.4107
19.1197
21.5194
23.7586
25.9696
28.2616
30.7257
33.435
36.3013
38.7761
39.6593
37.8837
30.4499
31.4125
29.0683
27.2118
27.1549
24.467
38.0227
33.793
29.5359
32.1135
31.3976
10.7389
15.0593
17.5032
19.6925
21.791
23.9089
26.1213
28.5009
31.1305
34.0599
37.0888
39.4281
40.3822
38.5401
32.8263
35.4523
31.0088
31.9404
37.15
33.7771
38.5916
39.8975
39.1207
40.3366
10.2801
14.4488
16.7177
18.7727
20.7654
22.7672
24.8194
26.9799
29.3391
32.0144
35.0424
38.1028
40.4624
41.0138
38.6578
37.9314
38.1088
38.8158
43.3567
39.9126
42.575
43.4551
43.7129
43.7502
10.3792
14.4528
16.6526
18.6623
20.6018
22.5033
24.3826
26.2873
28.3052
30.5647
33.208
36.2417
39.2849
41.1873
40.7703
40.875
41.1723
41.0575
44.2352
41.7491
42.7724
43.4016
43.962
44.1074
10.8203
14.8937
17.1176
19.1551
21.09
22.9262
24.6667
26.3516
28.0578
29.8947
32.0127
34.5644
37.5102
40.1161
41.0923
41.825
42.0456
41.4467
43.6125
41.7815
42.1555
42.4842
42.9057
43.2
11.4929
15.6278
17.9249
20.0332
22.0029
23.8164
25.4697
27.0002
28.4731
29.9711
31.6121
33.5596
35.9409
38.4987
40.2782
41.5631
41.8407
41.1013
42.2347
40.7577
40.7688
40.8553
41.0777
41.4452
12.2729
16.5771
18.9629
21.1555
23.176
24.994
26.6058
28.0489
29.3778
30.6487
31.9389
33.3733
35.1011
37.1387
38.998
40.4959
40.8798
40.1512
40.5243
39.2398
39.0169
38.989
39.1285
39.5592
13.3456
17.687
20.1565
22.4349
24.5115
26.3487
27.9494
29.355
30.6128
31.7573
32.8299
33.9077
35.1065
36.5253
38.0006
39.313
39.7097
39.0688
38.9374
37.7956
37.4113
37.3737
37.5666
38.0879
14.4355
18.8722
21.442
23.8107
25.9467
27.8134
29.4243
30.8265
32.063
33.1534
34.1143
34.9828
35.828
36.743
37.7105
38.607
38.8653
38.2765
37.8267
36.784
36.3043
36.3252
36.6577
37.2895
15.558
20.1088
22.7851
25.2447
27.442
29.3454
30.981
32.4023
33.6484
34.7301
35.6488
36.4159
37.06
37.6384
38.1766
38.6287
38.6437
38.0217
37.3534
36.364
35.838
35.9432
36.4412
37.1827
16.2912
16.7422
17.2129
17.5681
17.8936
18.1358
18.3429
18.4901
18.6027
18.6713
18.7111
18.7163
18.6941
18.6428
18.5655
18.4634
18.3404
18.2
18.0533
17.9331
17.9509
18.0878
18.2455
18.3959
18.5288
18.6407
18.7272
18.7874
18.8182
18.8207
18.7878
18.7253
18.6171
18.4728
18.267
18.0239
17.6963
17.3345
16.8549
16.3877
20.9418
21.3805
21.8586
22.2294
22.5797
22.8557
23.1
23.2913
23.4496
23.567
23.6557
23.7115
23.7381
23.7336
23.6984
23.6322
23.5375
23.417
23.2805
23.1627
23.187
23.3277
23.4788
23.6122
23.719
23.7967
23.8424
23.8567
23.839
23.7909
23.7086
23.5959
23.4402
23.2498
23.0042
22.7245
22.3687
21.9882
21.4981
21.0411
23.6885
24.1483
24.6619
25.0667
25.461
25.786
26.0845
26.3348
26.5563
26.7391
26.8937
27.0169
27.1106
27.1717
27.199
27.1905
27.1467
27.0702
26.9705
26.8823
26.9053
27.0207
27.1389
27.2313
27.29
27.3124
27.2977
27.2481
27.1647
27.0501
26.9024
26.724
26.5046
26.2542
25.9532
25.6228
25.2208
24.8043
24.2769
23.7974
26.1952
26.6622
27.1959
27.6199
28.0428
28.4008
28.7378
29.0312
29.3018
29.5388
29.7495
29.93
30.0808
30.1978
30.2786
30.3206
30.3229
30.2881
30.2267
30.172
30.1923
30.277
30.3602
30.4138
30.4286
30.4026
30.3363
30.2325
30.0932
29.9223
29.7189
29.4866
29.2184
28.9246
28.5841
28.2195
27.7873
27.3498
26.8007
26.3126
28.4169
28.8681
29.3999
29.8231
30.2544
30.6273
30.9889
31.3144
31.6214
31.9
32.1547
32.3808
32.577
32.7387
32.8625
32.9448
32.9842
32.9827
32.951
32.9191
32.9381
33.0009
33.0565
33.0789
33.0584
32.9935
32.8857
32.7383
32.5545
32.3386
32.0917
31.818
31.5133
31.187
30.8214
30.4408
29.999
29.5608
29.0118
28.5381
30.332
30.7539
31.2747
31.691
32.1277
32.5159
32.8986
33.2524
33.5912
33.9057
34.1981
34.4631
34.698
34.8974
35.0572
35.1727
35.2417
35.2658
35.2551
35.2372
35.2557
35.3051
35.3412
35.3392
35.2904
35.1934
35.0507
34.8663
34.6446
34.3902
34.1058
33.7964
33.4597
33.1045
32.7171
32.3204
31.8719
31.439
30.8994
30.4531
31.9778
32.371
32.8838
33.3001
33.7454
34.1498
34.5531
34.9328
35.2999
35.6456
35.9703
36.2682
36.5355
36.7663
36.9552
37.0972
37.1892
37.232
37.2353
37.2255
37.2441
37.2862
37.3091
37.2894
37.2185
37.096
36.9248
36.7099
36.4562
36.1693
35.8527
35.5122
35.1469
34.7654
34.3569
33.9431
33.4848
33.0507
32.5171
32.0975
33.4107
33.7792
34.2898
34.7087
35.163
35.5823
36.0036
36.4052
36.7959
37.1671
37.5181
37.8425
38.1356
38.391
38.6026
38.7649
38.874
38.9305
38.9432
38.9382
38.9571
38.995
39.0094
38.9769
38.8896
38.7476
38.5545
38.3154
38.0363
37.7232
37.3806
37.0145
36.6254
36.2218
35.7946
35.3651
34.8969
34.4589
33.9262
33.5292
34.6656
35.0094
35.5171
35.9379
36.3995
36.8313
37.2672
37.6864
38.0959
38.4873
38.8587
39.2036
39.5165
39.7907
40.0196
40.1972
40.3195
40.3867
40.4074
40.4072
40.4264
40.4602
40.4673
40.4248
40.3252
40.1685
39.9587
39.7013
39.4028
39.0695
38.7065
38.3202
37.9121
37.4906
37.0483
36.6059
36.1296
35.6887
35.1577
34.783
35.7484
36.0644
36.566
36.9875
37.4545
37.8962
38.3442
38.7777
39.2024
39.6097
39.9971
40.3578
40.6859
40.9744
41.2166
41.4064
41.54
41.6176
41.6479
41.6547
41.6739
41.7013
41.6997
41.6477
41.5376
41.3694
41.1467
40.8756
40.5621
40.2132
39.8344
39.4321
39.0088
38.5727
38.1181
37.6651
37.1825
36.7401
36.2133
35.8639
36.6548
36.9363
37.4277
37.8479
38.3192
38.7703
39.229
39.6752
40.1129
40.5336
40.9341
41.3075
41.6476
41.9474
42.2004
42.4008
42.5452
42.6341
42.6764
42.6927
42.7116
42.7301
42.7177
42.6554
42.5355
42.3573
42.1244
41.8422
41.517
41.1556
40.7638
40.348
39.9115
39.4624
38.9965
38.5338
38.046
37.6034
37.0847
36.766
37.3833
37.617
38.0904
38.5072
38.9818
39.4421
39.9116
40.3703
40.8205
41.2535
41.6656
42.0499
42.4003
42.7099
42.9724
43.1827
43.3377
43.4389
43.4943
43.5206
43.5394
43.5483
43.524
43.4507
43.3209
43.1336
42.8917
42.6001
42.2649
41.8925
41.489
41.0607
40.6116
40.1496
39.6723
39.1994
38.707
38.2659
37.761
37.4854
37.9381
38.095
38.5391
38.9474
39.4236
39.893
40.3738
40.8456
41.3085
41.754
42.1774
42.5722
42.932
43.2507
43.5221
43.7418
43.9075
44.0206
44.0884
44.1237
44.1425
44.143
44.1074
44.0232
43.8838
43.6878
43.4374
43.1371
42.7924
42.4094
41.9943
41.5533
41.0908
40.615
40.1255
39.642
39.1457
38.7092
38.2286
38.0231
38.3371
38.3647
38.7507
39.1436
39.6164
40.094
40.586
41.0715
41.5478
42.0062
42.4414
42.8468
43.2163
43.5439
43.824
44.0528
44.2284
44.3524
44.4308
44.4735
44.4926
44.4863
44.4411
44.3471
44.1985
43.994
43.7352
43.4259
43.0714
42.6776
42.2501
41.7955
41.3184
40.8276
40.325
39.8307
39.3332
38.9076
38.48
38.3989
38.5944
38.4278
38.7083
39.063
39.5263
40.0081
40.51
41.0086
41.4986
41.9704
42.418
42.8346
43.214
43.5508
43.8397
44.0774
44.2622
44.3956
44.4827
44.5313
44.5507
44.5393
44.4861
44.3835
44.2263
44.0131
43.7455
43.4268
43.0618
42.656
42.2151
41.7457
41.2531
40.7466
40.2306
39.7268
39.2336
38.8422
38.5169
38.6319
38.6948
38.2846
38.4109
38.691
39.1243
39.6046
40.1113
40.6205
41.1225
41.6069
42.0665
42.4941
42.8837
43.2296
43.5272
43.7731
43.9661
44.1074
44.2015
44.2545
44.2742
44.259
44.1995
44.0893
43.9241
43.7024
43.4258
43.0971
42.7209
42.3026
41.8479
41.3635
40.8558
40.3345
39.8072
39.2981
38.8294
38.509
38.3408
38.7145
38.5106
37.8803
37.8434
38.0259
38.4078
38.8718
39.3788
39.8931
40.4033
40.8969
41.366
41.8028
42.2009
42.5547
42.8596
43.1123
43.3116
43.4588
43.5578
43.614
43.634
43.616
43.5519
43.4358
43.264
43.035
42.7501
42.4124
42.0262
41.5969
41.1305
40.6339
40.114
39.5822
39.0467
38.546
38.1198
37.8875
37.8752
38.4661
37.8928
37.1333
36.9846
37.0857
37.4162
37.8552
38.355
38.8696
39.3817
39.879
40.3521
40.7933
41.1955
41.5532
41.8615
42.1174
42.3194
42.4691
42.57
42.6277
42.648
42.629
42.5632
42.4444
42.269
42.036
41.7464
41.4034
41.0115
40.576
40.103
39.5995
39.0732
38.5338
38.0007
37.5198
37.1378
36.9765
37.0598
37.7552
37.0178
36.1519
35.9247
35.9672
36.2576
36.6731
37.1617
37.673
38.1826
38.6784
39.1502
39.59
39.9909
40.3467
40.6529
40.9061
41.1053
41.2519
41.3504
41.407
41.4279
41.4106
41.3469
41.2302
41.0564
40.8243
40.5352
40.1922
39.8002
39.3643
38.8911
38.3877
37.8628
37.328
36.8101
36.3596
36.0274
35.938
36.114
36.9286
36.0222
35.1686
34.9411
34.9665
35.2357
35.6291
36.0987
36.5945
37.0904
37.5737
38.0338
38.4623
38.8521
39.197
39.4921
39.7342
39.9221
40.0579
40.1474
40.1997
40.2226
40.2126
40.1588
40.0527
39.8892
39.6673
39.3882
39.0555
38.6737
38.2487
37.7869
37.2959
36.7846
36.2676
35.7723
35.3491
35.0447
34.9807
35.1639
35.9708
35.3171
34.5375
34.3519
34.3934
34.6609
35.0412
35.4911
35.9648
36.4401
36.9031
37.3432
37.7519
38.1219
38.447
38.7222
38.9442
39.1114
39.2262
39.2969
39.3385
39.3645
39.3687
39.3331
39.2454
39.0999
38.8954
38.6339
38.3187
37.955
37.5483
37.1059
36.6354
36.1471
35.6537
35.1815
34.7799
34.4931
34.4414
34.626
35.4338
35.5314
34.7827
34.6131
34.6433
34.8851
35.227
35.6321
36.0614
36.4973
36.9236
37.3295
37.7059
38.0452
38.3413
38.5889
38.7841
38.9248
39.0126
39.0565
39.0806
39.1132
39.1401
39.1295
39.0663
38.9452
38.7658
38.5308
38.2439
37.9101
37.5356
37.1273
36.6942
36.2465
35.7996
35.3714
35.0059
34.7412
34.6947
34.8547
35.616
36.0855
35.4861
35.409
35.481
35.7293
36.0511
36.4237
36.8151
37.2103
37.5951
37.9598
38.2961
38.5974
38.858
39.0726
39.2373
39.3498
39.4103
39.4266
39.4278
39.4635
39.5094
39.5199
39.4784
39.3806
39.2271
39.0204
38.7643
38.4637
38.1242
37.7527
37.3573
36.9484
36.5402
36.1489
35.8097
35.5511
35.4851
35.5887
36.2555
37.0844
36.438
36.3199
36.3395
36.5377
36.8126
37.1459
37.5031
37.8681
38.2258
38.5661
38.8804
39.162
39.405
39.6042
39.7558
39.8572
39.9083
39.9165
39.912
39.9533
40.0119
40.037
40.0117
39.9322
39.7993
39.6152
39.3838
39.1096
38.7983
38.4561
38.0912
37.7131
37.3362
36.9757
36.665
36.4249
36.3637
36.4494
37.0772
45.8601
54.2703
62.1806
69.1939
74.5214
78.4915
81.5213
83.9303
85.9944
87.8124
89.4628
91.0089
92.5218
94.0706
95.7088
97.4675
99.3541
101.358
103.456
105.618
107.798
109.916
111.784
113.018
45.0511
53.1812
60.8788
67.794
73.087
77.0418
80.0699
82.4896
84.5586
86.3646
87.9919
89.5098
90.9912
92.5053
94.1077
95.8281
97.6732
99.6329
101.685
103.797
105.926
107.993
109.815
111.017
44.1808
52.0658
59.5591
66.3707
71.6324
75.5817
78.6219
81.0623
83.1402
84.9402
86.55
88.0425
89.4938
90.976
92.5423
94.2243
96.029
97.9453
99.9507
102.015
104.093
106.11
107.884
109.055
43.2789
50.9194
58.2142
64.9257
70.1649
74.1212
77.1859
79.6561
81.7481
83.5496
85.1421
86.6121
88.0367
89.4873
91.0209
92.6671
94.4322
96.3057
98.2657
100.281
102.31
104.276
106.005
107.145
42.3365
49.75
56.8401
63.4472
68.6722
72.6494
75.7523
78.2606
80.3739
82.1831
83.7686
85.2208
86.6208
88.0448
89.546
91.1567
92.8843
94.7171
96.6333
98.6024
100.582
102.499
104.183
105.291
41.4145
48.5521
55.4301
61.9365
67.1612
71.1749
74.3254
76.8791
79.0196
80.8423
82.425
83.8639
85.2449
86.6421
88.1157
89.695
91.3862
93.1793
95.052
96.9741
98.9069
100.775
102.414
103.493
40.405
47.3099
53.9679
60.3722
65.6072
69.6723
72.8853
75.493
77.6697
79.5131
81.1101
82.5424
83.9073
85.2858
86.7317
88.2792
89.9365
91.6917
93.5231
95.4018
97.287
99.1076
100.705
101.752
39.4872
46.0495
52.4561
58.75
64.0115
68.1517
71.4387
74.1106
76.3313
78.2052
79.8124
81.2488
82.6066
83.9658
85.3905
86.9122
88.5367
90.2551
92.0452
93.8784
95.7176
97.4919
99.0441
100.063
38.3664
44.6873
50.8461
57.0341
62.3348
66.5656
69.9491
72.699
74.9772
76.889
78.5319
79.9813
81.3369
82.6888
84.0927
85.5868
87.1813
88.8645
90.6159
92.4073
94.2007
95.9281
97.4394
98.4275
37.44
43.3279
49.1592
55.2006
60.5539
64.9196
68.4231
71.2721
73.6215
75.5896
77.2561
78.7265
80.0933
81.4383
82.8297
84.3047
85.8703
87.5192
89.2302
90.9762
92.7239
94.4049
95.8716
96.8307
36.1115
41.7671
47.3134
53.2225
58.6424
63.1515
66.8105
69.7778
72.2184
74.2469
75.9805
77.4849
78.8642
80.2162
81.5965
83.0495
84.5889
86.2044
87.8778
89.5826
91.2856
92.9198
94.346
95.2747
35.0268
40.2169
45.3225
50.994
56.4681
61.2127
65.0825
68.2262
70.7899
72.9192
74.6924
76.2378
77.6489
79.0055
80.3841
81.8264
83.3413
84.925
86.558
88.2169
89.8735
91.4603
92.841
93.7392
33.7015
38.4902
43.1319
48.5778
54.1379
59.086
63.2215
66.5556
69.2674
71.4871
73.376
74.9868
76.4279
77.8099
79.1883
80.6142
82.1072
83.6596
85.2566
86.8744
88.4868
90.0269
91.3666
92.235
32.2635
36.6627
40.6884
45.6242
51.124
56.4902
61.0175
64.7067
67.6564
70.0688
72.0241
73.7009
75.2037
76.6053
77.9957
79.4219
80.8959
82.4192
83.9744
85.5445
87.109
88.5985
89.8902
90.7248
30.2711
34.3302
37.813
42.4349
48.0578
53.6229
58.6557
62.6806
65.8931
68.4433
70.5928
72.3875
73.9432
75.3961
76.8008
78.217
79.6738
81.1669
82.6879
84.2164
85.7358
87.1783
88.4276
89.2328
28.1096
31.9578
34.6573
38.1125
43.1265
49.5935
55.3277
60.1394
63.8597
66.8108
69.091
70.9897
72.6534
74.1465
75.5819
77.0137
78.4581
79.925
81.3998
82.8766
84.3445
85.7289
86.9259
87.691
24.421
28.0579
30.1064
33.3281
38.8767
44.8076
51.8126
57.3129
61.5863
64.7846
67.4114
69.5265
71.2794
72.8631
74.3324
75.7612
77.1935
78.6307
80.0731
81.5055
82.9273
84.2632
85.413
86.1512
20.3803
24.7092
26.2364
26.8296
28.8263
38.3666
45.6978
53.1251
58.5793
62.6873
65.5941
67.8905
69.8328
71.488
73.0162
74.4829
75.911
77.3237
78.711
80.0842
81.4453
82.709
83.8028
84.4866
5.18476
14.535
15.4214
15.2557
14.8435
21.3538
38.9404
48
55.0356
59.7198
63.3762
66.1098
68.215
70.0314
71.6234
73.0946
74.517
75.9003
77.2562
78.5786
79.8953
81.1093
82.1389
82.8009
5.63809
11.9489
14.743
16.5499
17.8624
16.3869
23.4407
40.5556
49.6423
56.6083
60.8835
63.9813
66.445
68.3883
70.0885
71.6358
73.0641
74.4216
75.7044
76.9539
78.188
79.2992
80.279
80.8617
15.8874
18.1323
18.0695
16.9064
16.9613
21.301
24.1359
16.9178
42.5175
51.1232
57.4031
61.5078
64.314
66.5744
68.3954
69.9535
71.3866
72.7168
73.9713
75.1534
76.3517
77.418
78.2859
78.8493
23.1453
26.3376
27.5536
26.7642
23.3511
18.3123
21.2052
18.1147
24.9114
44.8554
53.2195
58.2894
61.8735
64.3723
66.4015
68.1183
69.5734
70.8674
72.0031
73.0926
74.1624
75.0523
75.8996
76.3471
25.4463
29.3355
31.8137
33.1985
33.0163
30.5997
26.6413
26.9629
28.1182
33.0697
46.7815
54.2005
58.5881
61.8146
64.0983
65.8158
67.2957
68.5735
69.7085
70.6703
71.7255
72.595
73.2314
73.634
26.4505
30.5061
33.281
35.2483
36.1963
35.9054
33.1717
25.9035
32.3978
11.1901
37.6184
48.2835
54.7014
58.3803
61.0953
63.1949
64.7285
65.9346
66.7991
67.6663
68.5033
69.0164
69.6729
69.9112
26.2694
30.5238
33.4289
35.6644
37.0847
37.6119
37.0795
34.4154
26.6125
18.7233
15.7163
39.8839
48.4384
54.21
57.5402
59.5047
61.1013
62.3332
63.3713
63.8462
64.7211
65.2902
65.6191
65.6623
24.2538
28.8558
32.0382
34.63
36.5135
37.6839
38.1769
37.8528
35.0172
29.0844
16.6374
22.5059
41.602
47.7953
52.0808
55.1903
56.9225
57.9431
58.1051
58.6603
59.1225
58.8561
59.1071
58.8886
21.3032
26.2955
29.7023
32.5617
34.798
36.4364
37.5992
38.379
38.3583
34.5453
30.253
8.62116
23.5858
40.7483
46.1344
48.1323
49.9685
51.0588
52.5602
51.1893
51.9042
51.9682
52.8149
51.3298
18.2651
23.4555
26.8841
29.8174
32.2461
34.2348
35.91
37.411
38.6316
38.5633
34.257
22.8011
11.2949
22.3937
34.0033
39.753
42.1641
43.0038
41.3285
40.9318
40.8177
39.5539
37.2992
33.4101
15.6658
20.7605
23.9965
26.8077
29.2518
31.4351
33.4907
35.5613
37.6275
39.1838
38.9945
32.8059
22.7554
22.2292
20.3317
23.4785
30.7698
23.0324
28.0283
12.3553
16.3468
9.83998
29.5039
22.331
13.3345
18.2502
21.2306
23.8467
26.2147
28.4691
30.7418
33.1516
35.7553
38.2749
39.8998
39.0809
29.4994
31.6697
22.2436
31.7159
37.0468
17.9943
30.4503
33.771
14.7652
25.0589
38.9356
25.1048
11.683
16.3045
18.9839
21.3601
23.5889
25.808
28.1308
30.6553
33.4655
36.4903
39.2185
40.4792
37.926
28.1556
30.1902
29.4814
35.4905
28.0821
33.8204
32.2681
32.6167
37.8387
40.3597
32.5855
10.7321
15.0375
17.4606
19.6318
21.7202
23.8408
26.0745
28.5036
31.2266
34.3077
37.5488
40.0992
40.4377
36.2661
32.179
30.6219
28.5681
31.351
30.9219
38.117
37.2286
35.6327
37.0724
41.5467
10.3196
14.4821
16.7381
18.7802
20.7646
22.7666
24.833
27.0298
29.4613
32.2599
35.4604
38.6462
40.6229
40.0952
37.5403
38.9619
38.4415
38.6004
38.0878
42.7796
41.2077
39.0052
41.8958
43.5021
10.4304
14.505
16.6979
18.699
20.6328
22.535
24.4254
26.3568
28.4267
30.7758
33.5508
36.6992
39.5507
40.9126
40.3708
41.629
41.4879
40.831
41.3496
43.2654
41.8325
40.6441
43.0247
43.2766
10.8641
14.9404
17.1598
19.1912
21.123
22.9619
24.7122
26.4172
28.1598
30.0588
32.2727
34.9283
37.8336
40.2027
41.0765
42.2465
42.2199
41.4115
42.2612
42.7706
41.3768
40.8809
42.2542
42.322
11.5164
15.6543
17.9471
20.0504
22.019
23.8366
25.4993
27.0454
28.5437
30.084
31.7919
33.8241
36.2435
38.7265
40.4086
41.7117
41.8455
41.1436
41.7602
41.4378
40.1367
39.9271
40.4567
40.7518
12.2732
16.5782
18.959
21.1468
23.1668
24.9893
26.6095
28.0646
29.4108
30.7092
32.0444
33.5414
35.3272
37.3655
39.1478
40.5114
40.8247
40.2664
40.4737
39.7114
38.5206
38.4354
38.5252
39.129
13.3186
17.6605
20.1242
22.3975
24.4736
26.3151
27.9228
29.3374
30.6066
31.7683
32.8692
33.9896
35.2403
36.6857
38.1215
39.3046
39.6883
39.2451
39.0542
38.1033
37.0542
37.0467
37.053
37.8789
14.3821
18.8187
21.3817
23.7446
25.8795
27.7495
29.3658
30.7742
32.0178
33.1184
34.0961
34.9917
35.8753
36.8221
37.784
38.6104
38.8983
38.4786
37.9803
36.9756
36.0628
36.1329
36.2728
37.2183
15.4803
20.03
22.6983
25.1511
27.3461
29.2514
30.8905
32.3154
33.5653
34.6524
35.5804
36.3637
37.0341
37.6416
38.1952
38.6317
38.7014
38.2076
37.4869
36.4759
35.6757
35.8246
36.178
37.1758
45.8714
44.1973
43.3633
41.6805
40.7782
39.2057
38.1648
36.7193
35.6952
34.3904
33.4369
32.2058
31.3113
30.3377
29.5368
28.6473
27.8907
27.3913
26.9876
26.5622
26.5629
26.9903
27.3894
27.9215
28.6567
29.457
30.3764
31.2685
32.2297
33.4072
34.375
35.714
36.7848
38.1993
39.2436
40.7994
41.7204
43.3618
44.1845
45.8603
54.4937
52.9927
52.1814
50.7195
49.8171
48.4868
47.5097
46.3087
45.3846
44.2794
43.3403
42.3714
41.5655
40.7303
40.087
39.3192
38.7556
38.3199
38.0956
37.8175
37.8185
38.0982
38.3232
38.7605
39.4246
39.9939
40.8225
41.5843
42.3818
43.3432
44.2665
45.341
46.3755
47.546
48.5245
49.8353
50.7427
52.1705
52.9775
54.4892
62.5245
61.101
60.2873
58.9342
58.0143
56.7689
55.804
54.6762
53.7397
52.7157
51.8084
50.9118
50.1101
49.343
48.6819
48.0444
47.5288
47.1134
46.8388
46.6535
46.6543
46.8412
47.117
47.5337
48.0796
48.6656
49.3743
50.1241
50.919
51.8177
52.7203
53.7288
54.7018
55.8285
56.7903
58.0288
58.9499
60.2918
61.1027
62.5315
69.5294
68.0913
67.1985
65.84
64.8539
63.5986
62.5871
61.447
60.4642
59.4417
58.5225
57.6288
56.8169
56.0631
55.3925
54.7962
54.2966
53.9005
53.6234
53.4707
53.4715
53.6254
53.9037
54.3011
54.8056
55.3968
56.0736
56.8258
57.6363
58.5314
59.4507
60.471
61.4598
62.6014
63.6129
64.8671
65.8535
67.2105
68.1035
69.544
74.8105
73.3188
72.3356
70.9335
69.8748
68.5868
67.5194
66.3545
65.3301
64.2926
63.352
62.45
61.6299
60.8771
60.2088
59.6258
59.14
58.7601
58.4963
58.3565
58.3571
58.498
58.7629
59.1438
59.6312
60.2144
60.884
61.6371
62.4572
63.3601
64.3011
65.3388
66.3645
67.5301
68.598
69.8866
70.9457
72.3481
73.3328
74.8261
78.74
77.2055
76.1519
74.7193
73.605
72.2977
71.1894
70.012
68.9611
67.9161
66.9632
66.0588
65.2371
64.4882
63.8264
63.2542
62.781
62.4141
62.1615
62.0295
62.03
62.163
62.4165
62.7843
63.2586
63.8314
64.4939
65.2433
66.0654
66.9705
67.9238
68.9693
70.0207
71.1988
72.3078
73.6157
74.7305
76.1637
77.2187
78.7544
81.7366
80.1743
79.0662
77.6197
76.464
75.1486
74.0121
72.8292
71.7626
70.7144
69.7556
68.8515
68.0309
67.2865
66.6308
66.0669
65.6028
65.2451
65
64.8729
64.8734
65.0014
65.2472
65.6058
66.0708
66.6354
67.2916
68.0366
68.8576
69.7624
70.7215
71.7702
72.8373
74.0208
75.1579
76.4739
77.6303
79.0774
80.1869
81.75
84.1134
82.5322
81.3787
79.9266
78.7411
77.4227
76.2679
75.0815
74.0052
72.9545
71.9919
71.0874
70.267
69.5247
68.8721
68.3124
67.8531
67.4999
67.2586
67.1339
67.1343
67.2599
67.5019
67.8558
68.3159
68.8763
69.5295
70.2724
71.0933
71.9984
72.9614
74.0126
75.0894
76.2763
77.4317
78.7507
79.9369
81.3896
82.5443
84.1263
86.1525
84.5536
83.3646
81.9024
80.6938
79.3664
78.1964
77.0016
75.9149
74.8572
73.8875
72.9778
72.1527
71.407
70.7517
70.1904
69.73
69.3763
69.1347
69.0095
69.0099
69.1359
69.3782
69.7327
70.1938
70.7558
71.4117
72.158
72.9836
73.8937
74.864
75.9221
77.0094
78.2047
79.3753
80.7033
81.9126
83.3756
84.5655
86.1654
87.9622
86.336
85.1244
83.6445
82.418
81.0773
79.8925
78.6865
77.5874
76.5198
75.5397
74.6213
73.7877
73.0346
72.3725
71.8052
71.3398
70.9819
70.7371
70.6096
70.61
70.7382
70.9838
71.3424
71.8086
72.3766
73.0393
73.793
74.6271
75.546
76.5266
77.5947
78.6943
79.9009
81.0862
82.4277
83.6546
85.1355
86.3478
87.9752
89.614
87.9585
86.7275
85.2274
83.983
82.6259
81.4247
80.2043
79.0902
78.0093
77.0158
76.085
75.2394
74.475
73.8024
73.2256
72.7518
72.3867
72.1364
72.0053
72.0057
72.1376
72.3887
72.7544
73.229
73.8065
74.4797
75.2447
76.0909
77.0222
78.0162
79.0977
80.2122
81.4333
82.635
83.9927
85.2377
86.7388
87.9703
89.6271
91.1679
89.4805
88.2334
86.7097
85.4478
84.0714
82.8528
81.6149
80.4841
79.387
78.3776
77.4315
76.571
75.7925
75.1064
74.5171
74.032
73.6576
73.3999
73.264
73.2644
73.4012
73.6596
74.0348
74.5205
75.1105
75.7972
76.5764
77.4375
78.3841
79.394
80.4917
81.623
82.8615
84.0806
85.4578
86.7202
88.2448
89.4925
91.1809
92.691
90.9701
89.708
88.1585
86.8787
85.4806
84.2432
82.9857
81.8363
80.7208
79.6933
78.7296
77.8519
77.0567
76.3547
75.7504
75.2518
74.8658
74.5993
74.4576
74.4581
74.6006
74.8679
75.2546
75.7539
76.3589
77.0616
77.8575
78.7359
79.7001
80.7281
81.8442
82.9941
84.2522
85.4901
86.8889
88.1692
89.7197
90.9823
92.7043
94.2509
92.4944
91.217
89.6394
88.3406
86.9187
85.6609
84.3817
83.2118
82.0756
81.0281
80.0446
79.1474
78.3332
77.6128
76.9912
76.4768
76.0774
75.8004
75.6522
75.6526
75.8018
76.0795
76.4798
76.9949
77.6172
78.3383
79.1532
80.051
81.0352
82.0832
83.22
84.3904
85.6703
86.9285
88.3512
89.6505
91.229
92.507
94.2643
95.9012
94.1063
92.8127
91.2043
89.8849
88.4366
87.1566
85.8533
84.6609
83.5019
82.4321
81.4265
80.5076
79.6721
78.931
78.2896
77.757
77.3418
77.0528
76.8969
76.8974
77.0542
77.3442
77.7602
78.2935
78.9356
79.6774
80.5136
81.4332
82.4394
83.5098
84.6695
85.8624
87.1663
88.4469
89.8959
91.2158
92.8251
94.1193
95.915
97.6721
95.8365
94.5247
92.8832
91.541
90.064
88.7595
87.4299
86.2127
85.0286
83.9343
82.9044
81.9614
81.1022
80.3379
79.6742
79.1208
78.6873
78.3841
78.2195
78.2201
78.3856
78.6898
79.124
79.6783
80.3427
81.1077
81.9677
82.9113
83.9419
85.0368
86.2216
87.4394
88.7697
90.0747
91.5524
92.8952
94.5375
95.85
97.6864
99.571
97.6927
96.3608
94.6841
93.317
91.8093
90.4782
89.1202
87.8761
86.6649
85.544
84.4877
83.5185
82.6333
81.8433
81.1546
80.5775
80.1229
79.8031
79.6284
79.629
79.8048
80.1256
80.581
81.1589
81.8484
82.6391
83.5251
84.4949
85.552
86.6735
87.8855
89.1301
90.4889
91.8206
93.329
94.6968
96.3743
97.707
99.5861
101.588
99.6655
98.3119
96.5987
95.2053
93.6655
92.306
90.9182
89.6457
88.4058
87.2568
86.1723
85.1751
84.2619
83.444
82.7276
82.1239
81.6451
81.3056
81.1189
81.1196
81.3075
81.6479
82.1276
82.7323
83.4494
84.2681
85.182
86.18
87.2652
88.4149
89.6556
90.9287
92.3175
93.6775
95.218
96.6124
98.3263
99.6806
101.604
103.701
101.734
100.358
98.6082
97.1877
95.615
94.2266
92.8078
91.5062
90.2366
89.0583
87.9446
86.9182
85.9758
85.1281
84.3818
83.7483
83.2416
82.879
82.6779
82.6786
82.881
83.2448
83.7524
84.3868
85.1339
85.9824
86.926
87.9529
89.0675
90.2463
91.5169
92.8194
94.2387
95.6277
97.2015
98.6231
100.374
101.751
103.718
105.878
103.868
102.47
100.684
99.2363
97.6308
96.2138
94.7646
93.4335
92.134
90.9266
89.7835
88.7273
87.7546
86.8761
86.0979
85.432
84.8934
84.503
84.2842
84.285
84.5051
84.8967
85.4362
86.1034
86.8824
87.7618
88.7354
89.7924
90.9364
92.1447
93.4448
94.7768
96.2271
97.6451
99.2516
100.7
102.488
103.886
105.897