/*--------------------------------*- C++ -*----------------------------------*\
  =========                 |
  \\      /  F ield         | OpenFOAM: The Open Source CFD Toolbox
   \\    /   O peration     | Website:  https://openfoam.org
    \\  /    A nd           | Version:  6
     \\/     M anipulation  |
\*---------------------------------------------------------------------------*/
FoamFile
{
    version     2.0;
    format      ascii;
    class       volVectorField;
    location    "0.8";
    object      U;
}
// * * * * * * * * * * * * * * * * * * * * * * * * * * * * * * * * * * * * * //

dimensions      [0 1 -1 0 0 0 0];

internalField   nonuniform List<vector> 
63264
(
(0.102669 -0.000180727 -0.000419703)
(0.111006 -0.00058222 -4.57641e-05)
(0.109949 -0.000907249 9.70056e-06)
(0.108467 -0.00111462 3.96277e-06)
(0.107731 -0.00112119 7.36698e-07)
(0.10742 -0.000988112 3.63277e-07)
(0.107291 -0.000831232 2.23721e-07)
(0.107271 -0.000712847 2.52477e-07)
(0.107235 -0.000644448 1.59327e-07)
(0.107279 -0.000617541 5.17386e-08)
(0.10731 -0.000617392 7.96134e-07)
(0.107212 -0.000638413 1.24692e-06)
(0.107118 -0.000677879 5.39078e-07)
(0.107132 -0.000733452 -3.86877e-07)
(0.107218 -0.000803663 -7.36502e-07)
(0.107311 -0.000887235 -6.10621e-07)
(0.10738 -0.000984002 -3.63983e-07)
(0.107428 -0.00109479 -1.88136e-07)
(0.107468 -0.00121991 -1.0423e-07)
(0.107512 -0.00135892 -7.90208e-08)
(0.107565 -0.00151054 -8.66324e-08)
(0.107632 -0.00167429 -9.33032e-08)
(0.107709 -0.00184901 -1.26695e-07)
(0.107808 -0.00203501 -1.18388e-07)
(0.107912 -0.00223046 -1.44983e-07)
(0.108048 -0.00243667 -1.71225e-07)
(0.108184 -0.00264934 -1.49861e-07)
(0.108364 -0.00287166 -9.29864e-08)
(0.108531 -0.00309727 -3.54119e-07)
(0.108787 -0.00333151 1.35784e-07)
(0.108946 -0.00356253 -4.04607e-07)
(0.109355 -0.00380463 -8.29071e-08)
(0.109482 -0.00403575 7.69681e-07)
(0.11019 -0.00427583 -1.63784e-07)
(0.11005 -0.00451704 8.90178e-06)
(0.103456 -0.000164345 -0.000428118)
(0.112336 -0.000539097 -4.64845e-05)
(0.111846 -0.000870533 9.44383e-06)
(0.110855 -0.0010872 3.09449e-06)
(0.110443 -0.00110454 5.93272e-08)
(0.110255 -0.000981872 1.01684e-07)
(0.11013 -0.00083234 2.35485e-07)
(0.110059 -0.00071862 2.20316e-07)
(0.109999 -0.000652132 1.45835e-07)
(0.10997 -0.000623406 7.44303e-08)
(0.109935 -0.000622483 4.30881e-07)
(0.109811 -0.000644096 7.81307e-07)
(0.109665 -0.000681733 4.93323e-07)
(0.109598 -0.000734459 -8.58819e-08)
(0.109614 -0.000804486 -4.41923e-07)
(0.10968 -0.000891042 -5.13207e-07)
(0.109761 -0.000991995 -4.44857e-07)
(0.109842 -0.00110612 -3.54469e-07)
(0.109917 -0.00123304 -2.73867e-07)
(0.109986 -0.00137277 -2.02518e-07)
(0.11005 -0.00152537 -1.45629e-07)
(0.110115 -0.00169085 -8.86173e-08)
(0.110181 -0.0018693 -6.51928e-08)
(0.110262 -0.0020602 -1.46984e-08)
(0.110342 -0.00226389 9.65635e-09)
(0.110452 -0.0024786 1.95026e-08)
(0.110555 -0.0027056 6.45578e-08)
(0.110707 -0.00294138 2.06486e-07)
(0.110831 -0.00318773 -5.75049e-08)
(0.111055 -0.00344087 3.9748e-07)
(0.111155 -0.00370389 6.69337e-08)
(0.111503 -0.00396724 -6.41659e-09)
(0.111569 -0.00427479 5.54793e-07)
(0.112069 -0.00452048 -7.14844e-07)
(0.111959 -0.00504659 -6.91419e-07)
(0.104056 -0.000152509 -0.000431963)
(0.112987 -0.000534393 -4.7227e-05)
(0.112395 -0.000871895 9.52371e-06)
(0.111243 -0.00107737 3.03805e-06)
(0.110717 -0.00107919 -1.70508e-07)
(0.11047 -0.000951497 -1.19869e-07)
(0.11031 -0.000807561 1.0065e-07)
(0.110229 -0.000702527 2.01354e-07)
(0.110153 -0.000642051 2.04622e-07)
(0.110125 -0.000614444 3.60846e-08)
(0.110167 -0.000611463 6.75315e-07)
(0.110034 -0.00063072 1.54034e-06)
(0.109768 -0.000667691 1.09706e-06)
(0.109627 -0.000722302 -4.69217e-08)
(0.109649 -0.000796358 -7.10792e-07)
(0.109742 -0.000887638 -7.2286e-07)
(0.109832 -0.000992194 -4.8196e-07)
(0.1099 -0.00110752 -2.7583e-07)
(0.109947 -0.00123324 -1.52181e-07)
(0.109984 -0.00137027 -7.29061e-08)
(0.110014 -0.00152018 -2.26323e-08)
(0.110047 -0.00168367 3.2787e-08)
(0.11008 -0.00186154 4.55352e-08)
(0.110128 -0.00205301 1.0535e-07)
(0.110176 -0.0022586 1.29319e-07)
(0.110247 -0.00247623 1.2908e-07)
(0.110326 -0.00270764 2.62668e-07)
(0.11042 -0.00294847 2.28884e-07)
(0.110549 -0.00320164 3.49812e-07)
(0.11067 -0.00346033 3.53917e-07)
(0.110844 -0.0037302 5.64051e-07)
(0.111026 -0.00399205 3.77341e-07)
(0.111272 -0.00427345 6.97789e-07)
(0.111488 -0.00450338 8.41117e-07)
(0.11177 -0.00481956 -2.1796e-06)
(0.104748 -0.00013245 -0.000439194)
(0.113798 -0.000490826 -4.83422e-05)
(0.112977 -0.000805608 9.75298e-06)
(0.111532 -0.00100532 3.51789e-06)
(0.110822 -0.00102056 2.91366e-07)
(0.110513 -0.000913915 1.55617e-07)
(0.110356 -0.000787245 2.24514e-07)
(0.110281 -0.000692245 2.00874e-07)
(0.110221 -0.000636042 2.29633e-07)
(0.110173 -0.000610358 2.78281e-08)
(0.110226 -0.000606416 5.07893e-07)
(0.110134 -0.000620862 1.45356e-06)
(0.109872 -0.000653671 1.12572e-06)
(0.109712 -0.00070578 -8.1527e-08)
(0.10972 -0.000777001 -8.86471e-07)
(0.109802 -0.000865091 -9.55548e-07)
(0.109875 -0.000967026 -6.76011e-07)
(0.109912 -0.00108067 -3.9481e-07)
(0.109923 -0.00120542 -2.0994e-07)
(0.109919 -0.00134168 -1.01498e-07)
(0.109913 -0.00149063 -3.72245e-08)
(0.109909 -0.00165307 -6.8414e-09)
(0.109913 -0.00182995 2.88175e-08)
(0.109922 -0.00202151 2.35302e-08)
(0.109947 -0.00222773 6.96577e-08)
(0.109974 -0.00244901 7.90626e-08)
(0.110026 -0.00268404 7.5567e-08)
(0.110082 -0.00293409 1.64327e-07)
(0.11016 -0.00319601 1.67956e-07)
(0.110261 -0.00347231 1.90223e-07)
(0.11037 -0.00375924 3.05025e-07)
(0.110522 -0.00405504 1.87607e-07)
(0.110669 -0.00435297 6.42557e-07)
(0.110929 -0.00465914 2.41666e-07)
(0.111029 -0.00489765 7.71027e-07)
(0.105454 -0.000111769 -0.000448298)
(0.114565 -0.000396988 -4.89173e-05)
(0.113546 -0.000655144 1.00393e-05)
(0.111937 -0.000849896 3.40656e-06)
(0.111132 -0.00090582 6.32611e-08)
(0.110765 -0.000849073 -6.12081e-08)
(0.110574 -0.000756233 7.35742e-08)
(0.110468 -0.000677643 9.09621e-08)
(0.110395 -0.000628197 1.5249e-07)
(0.110337 -0.000606379 1.15076e-07)
(0.110333 -0.000606136 3.80168e-07)
(0.110259 -0.000623214 9.15534e-07)
(0.110111 -0.000656494 7.80544e-07)
(0.110012 -0.000706127 6.9221e-08)
(0.109998 -0.000771987 -4.77614e-07)
(0.110022 -0.000852314 -5.91207e-07)
(0.11004 -0.000945379 -4.53429e-07)
(0.110036 -0.00105109 -2.76129e-07)
(0.110014 -0.00117046 -1.48822e-07)
(0.109985 -0.00130436 -7.75919e-08)
(0.109955 -0.00145307 -4.18794e-08)
(0.109931 -0.00161663 -3.25931e-08)
(0.109915 -0.00179482 -4.79667e-09)
(0.109905 -0.00198818 -1.95622e-08)
(0.109911 -0.00219617 3.23299e-08)
(0.10992 -0.00242005 3.34872e-08)
(0.109951 -0.00265842 3.41974e-08)
(0.109994 -0.00291272 1.58094e-07)
(0.110041 -0.00318161 7.34677e-08)
(0.110148 -0.00346468 3.04891e-07)
(0.110196 -0.00376378 1.11892e-07)
(0.110408 -0.00407196 4.18469e-07)
(0.110436 -0.00440582 7.49608e-07)
(0.110899 -0.00472614 1.39823e-07)
(0.110767 -0.00510562 4.49136e-06)
(0.10593 -0.000101544 -0.000452755)
(0.115673 -0.000339953 -4.87017e-05)
(0.115207 -0.000571007 1.00422e-05)
(0.113945 -0.000763285 2.7562e-06)
(0.113387 -0.000838185 -4.73466e-07)
(0.113141 -0.000805312 -3.14266e-07)
(0.112967 -0.000729806 7.92406e-09)
(0.112829 -0.00066012 6.08851e-08)
(0.112715 -0.000615114 9.37454e-08)
(0.112605 -0.000594667 6.24813e-08)
(0.112537 -0.000595378 2.64527e-07)
(0.112415 -0.000617719 6.97283e-07)
(0.112197 -0.000653614 6.38019e-07)
(0.112019 -0.000697542 8.75487e-08)
(0.111946 -0.000753828 -3.98765e-07)
(0.111942 -0.000825966 -5.48175e-07)
(0.11196 -0.000914149 -4.83926e-07)
(0.111973 -0.00101781 -3.67867e-07)
(0.111973 -0.00113646 -2.77275e-07)
(0.111963 -0.00126976 -2.15002e-07)
(0.111945 -0.0014175 -1.62387e-07)
(0.11192 -0.00157991 -1.34758e-07)
(0.111895 -0.00175726 -8.47728e-08)
(0.111868 -0.00194994 -8.88978e-08)
(0.111848 -0.00215882 -3.33745e-08)
(0.11183 -0.00238336 2.87387e-09)
(0.111819 -0.00262551 -5.52631e-08)
(0.111832 -0.00288336 1.72517e-07)
(0.111819 -0.00315992 -1.59461e-08)
(0.111894 -0.00345117 2.72604e-07)
(0.111866 -0.00376504 1.60344e-07)
(0.112005 -0.00408694 4.63443e-08)
(0.111973 -0.00445893 6.92949e-07)
(0.11222 -0.00479096 -4.58804e-07)
(0.112135 -0.00532943 -7.77434e-07)
(0.106299 -9.78381e-05 -0.000456067)
(0.116076 -0.000353532 -4.91813e-05)
(0.11556 -0.000599832 1.00794e-05)
(0.114221 -0.000780472 2.57391e-06)
(0.113612 -0.000828256 -7.83968e-07)
(0.113334 -0.000774766 -5.91939e-07)
(0.113142 -0.000693567 -1.48788e-07)
(0.112983 -0.000627202 -5.26225e-08)
(0.11288 -0.000587205 9.73635e-08)
(0.112744 -0.000568808 -1.1515e-08)
(0.112739 -0.000567726 3.57206e-07)
(0.112738 -0.000587446 1.25531e-06)
(0.112396 -0.000622003 1.16269e-06)
(0.112038 -0.000666909 2.14799e-07)
(0.111902 -0.000725854 -6.61942e-07)
(0.111918 -0.000800928 -8.86224e-07)
(0.111967 -0.000890985 -7.18113e-07)
(0.111993 -0.000994469 -4.92101e-07)
(0.111987 -0.00111049 -3.42118e-07)
(0.111957 -0.00123905 -2.50293e-07)
(0.111911 -0.00138077 -1.87669e-07)
(0.111857 -0.00153679 -1.42143e-07)
(0.111798 -0.00170808 -1.1221e-07)
(0.11174 -0.00189531 -6.80017e-08)
(0.11168 -0.00209963 -4.9834e-08)
(0.111628 -0.00232038 -6.38347e-09)
(0.111577 -0.0025598 5.72877e-08)
(0.111537 -0.00281568 3.63999e-08)
(0.111508 -0.0030913 1.69313e-07)
(0.111485 -0.00338208 2.08097e-07)
(0.111488 -0.00369452 2.68022e-07)
(0.111499 -0.00401548 3.21349e-07)
(0.111526 -0.00436676 4.38585e-07)
(0.111569 -0.00469646 5.60994e-07)
(0.111663 -0.00511502 -2.18799e-06)
(0.106756 -8.29375e-05 -0.000461161)
(0.11662 -0.000311411 -4.99939e-05)
(0.115949 -0.000525557 1.00302e-05)
(0.114407 -0.000691276 2.77162e-06)
(0.113672 -0.000746713 -4.65902e-07)
(0.113354 -0.000712386 -3.44091e-07)
(0.113171 -0.000648142 -5.39372e-09)
(0.11302 -0.000593497 -1.32336e-08)
(0.112937 -0.000559718 1.42361e-07)
(0.112786 -0.000545292 1.28987e-08)
(0.112788 -0.00054774 3.23467e-07)
(0.112839 -0.000563073 1.29088e-06)
(0.112493 -0.000591107 1.25005e-06)
(0.112091 -0.000634321 2.48219e-07)
(0.111921 -0.000691753 -7.57932e-07)
(0.111923 -0.000762137 -1.05678e-06)
(0.111965 -0.000845532 -8.79283e-07)
(0.111977 -0.000942282 -5.9906e-07)
(0.111947 -0.00105242 -3.85829e-07)
(0.111888 -0.0011759 -2.4908e-07)
(0.11181 -0.00131288 -1.67498e-07)
(0.111725 -0.00146401 -1.18659e-07)
(0.111635 -0.00162991 -9.3215e-08)
(0.111546 -0.00181191 -5.91018e-08)
(0.111453 -0.00201027 -5.51182e-08)
(0.111368 -0.0022268 -1.14261e-08)
(0.111276 -0.00246092 3.02826e-09)
(0.111203 -0.00271465 4.17542e-08)
(0.11112 -0.00298758 4.8312e-08)
(0.111064 -0.00328022 1.74527e-07)
(0.110997 -0.0035937 2.09123e-07)
(0.110966 -0.00392554 5.48229e-08)
(0.11092 -0.00427483 5.66627e-07)
(0.110925 -0.00464229 1.25959e-07)
(0.110908 -0.00500373 -6.2352e-07)
(0.107245 -7.05053e-05 -0.000467283)
(0.117131 -0.000266442 -5.02116e-05)
(0.116309 -0.000450137 1.02014e-05)
(0.114653 -0.000604061 2.59199e-06)
(0.113856 -0.000670343 -7.25899e-07)
(0.113509 -0.000656274 -5.6267e-07)
(0.113303 -0.000607755 -1.81861e-07)
(0.113149 -0.000562089 -8.48321e-08)
(0.113036 -0.0005323 2.92458e-08)
(0.112914 -0.000520108 4.8091e-08)
(0.112868 -0.000523946 2.40119e-07)
(0.112801 -0.000536891 7.82296e-07)
(0.112568 -0.000561858 8.40755e-07)
(0.112308 -0.000603787 2.29534e-07)
(0.11216 -0.000660252 -4.53588e-07)
(0.112108 -0.000727973 -7.42182e-07)
(0.112087 -0.000806062 -7.05845e-07)
(0.112051 -0.000895298 -5.57275e-07)
(0.111988 -0.000997125 -4.1528e-07)
(0.111903 -0.00111279 -3.20247e-07)
(0.111803 -0.00124299 -2.66723e-07)
(0.111696 -0.00138797 -2.33929e-07)
(0.111582 -0.00154814 -2.14211e-07)
(0.11147 -0.00172399 -1.85869e-07)
(0.111351 -0.00191652 -1.87391e-07)
(0.111244 -0.00212651 -1.35938e-07)
(0.11112 -0.00235487 -1.5562e-07)
(0.111028 -0.0026029 -5.78495e-08)
(0.1109 -0.00287041 -1.54862e-07)
(0.110836 -0.0031598 9.54704e-08)
(0.110704 -0.00347038 2.01123e-08)
(0.110687 -0.00380223 -4.30053e-08)
(0.110548 -0.00416084 5.51247e-07)
(0.11064 -0.00453213 -6.30906e-08)
(0.110461 -0.00494982 1.63256e-06)
(0.107644 -6.17904e-05 -0.000470939)
(0.118242 -0.00021889 -4.91173e-05)
(0.117862 -0.000372751 1.03858e-05)
(0.116344 -0.000514443 1.93195e-06)
(0.11566 -0.000590108 -1.21348e-06)
(0.115387 -0.000594925 -8.40623e-07)
(0.115189 -0.000563246 -3.63858e-07)
(0.115007 -0.000527494 -2.23023e-07)
(0.114838 -0.000503037 -1.58828e-07)
(0.114674 -0.000492999 -1.25911e-07)
(0.11452 -0.000496967 -6.66305e-08)
(0.114346 -0.000514709 1.48725e-07)
(0.114138 -0.000543331 2.38627e-07)
(0.113939 -0.000579756 9.39103e-09)
(0.11379 -0.000625715 -3.14216e-07)
(0.113686 -0.000683828 -4.88853e-07)
(0.113607 -0.000754684 -5.09321e-07)
(0.113534 -0.000838189 -4.67428e-07)
(0.113454 -0.000934669 -4.24529e-07)
(0.113363 -0.00104457 -4.02415e-07)
(0.11326 -0.00116852 -3.91937e-07)
(0.113144 -0.00130663 -3.8188e-07)
(0.113016 -0.00145994 -3.79609e-07)
(0.112882 -0.0016283 -3.57455e-07)
(0.112735 -0.00181379 -3.65567e-07)
(0.112592 -0.00201584 -3.36482e-07)
(0.112431 -0.0022373 -3.15688e-07)
(0.112284 -0.00247747 -3.15318e-07)
(0.112118 -0.0027392 -2.89155e-07)
(0.111974 -0.00302203 -1.73758e-07)
(0.111803 -0.00333023 -2.09859e-07)
(0.111678 -0.00365835 -2.21926e-07)
(0.111482 -0.00402884 -3.25474e-08)
(0.111406 -0.00439763 -4.07351e-07)
(0.111191 -0.00489286 -1.07883e-06)
(0.107842 -6.19651e-05 -0.000473528)
(0.118469 -0.000228903 -4.94096e-05)
(0.118075 -0.000401522 1.04569e-05)
(0.116517 -0.000539501 1.8282e-06)
(0.115808 -0.000590574 -1.39992e-06)
(0.115523 -0.000569129 -1.00875e-06)
(0.115318 -0.000523339 -4.63246e-07)
(0.115128 -0.00048347 -2.8684e-07)
(0.11497 -0.000459686 -1.69603e-07)
(0.114798 -0.000449699 -1.57003e-07)
(0.114696 -0.000450582 1.89095e-07)
(0.114649 -0.000469392 7.1681e-07)
(0.11437 -0.000500169 5.90968e-07)
(0.113979 -0.000533362 1.05133e-08)
(0.113715 -0.000574171 -5.90982e-07)
(0.113604 -0.000629709 -8.50244e-07)
(0.113559 -0.000700462 -8.03181e-07)
(0.113512 -0.000783975 -6.71682e-07)
(0.113439 -0.000878373 -5.55085e-07)
(0.113337 -0.000982989 -4.84281e-07)
(0.113214 -0.00109856 -4.51138e-07)
(0.113075 -0.00122614 -4.29498e-07)
(0.112921 -0.0013676 -4.04988e-07)
(0.112756 -0.00152367 -3.93527e-07)
(0.112583 -0.00169638 -3.57351e-07)
(0.112397 -0.00188573 -3.56923e-07)
(0.112212 -0.00209403 -3.15269e-07)
(0.112011 -0.00232093 -2.77649e-07)
(0.111817 -0.00256922 -2.7292e-07)
(0.111613 -0.0028378 -2.14688e-07)
(0.111412 -0.00313078 -1.04851e-07)
(0.11121 -0.00344316 -1.51305e-07)
(0.111015 -0.0037893 -2.66056e-08)
(0.110802 -0.00413776 -3.60544e-08)
(0.110639 -0.00456533 -1.63771e-06)
(0.108058 -5.15726e-05 -0.000476167)
(0.118746 -0.000193325 -5.00029e-05)
(0.118303 -0.000335249 1.02825e-05)
(0.116643 -0.000454988 1.80258e-06)
(0.115866 -0.000507757 -1.31186e-06)
(0.115552 -0.000500062 -9.16805e-07)
(0.115353 -0.000468244 -3.86167e-07)
(0.115154 -0.00043837 -2.91264e-07)
(0.11503 -0.000420175 -1.12804e-07)
(0.11483 -0.000413453 -2.53946e-07)
(0.114739 -0.000416973 3.96222e-07)
(0.11492 -0.00043249 1.28719e-06)
(0.1146 -0.000457081 8.13005e-07)
(0.113994 -0.00048844 -6.0031e-08)
(0.113603 -0.000528206 -8.86284e-07)
(0.113483 -0.000578478 -1.22621e-06)
(0.113469 -0.000639875 -1.10295e-06)
(0.113446 -0.000712453 -8.6498e-07)
(0.113378 -0.000796244 -6.66219e-07)
(0.113266 -0.000891232 -5.4241e-07)
(0.113126 -0.000997691 -4.8173e-07)
(0.112964 -0.00111612 -4.48555e-07)
(0.112787 -0.00124754 -4.21369e-07)
(0.112597 -0.00139285 -4.13201e-07)
(0.112397 -0.00155345 -3.81247e-07)
(0.112182 -0.00173015 -3.85797e-07)
(0.111966 -0.00192461 -3.49307e-07)
(0.11173 -0.00213751 -3.18117e-07)
(0.111498 -0.00237082 -3.13155e-07)
(0.111249 -0.00262513 -2.7075e-07)
(0.111002 -0.00290298 -1.62786e-07)
(0.110743 -0.00320379 -2.10894e-07)
(0.110492 -0.00353344 -1.19044e-07)
(0.110212 -0.00388225 -1.24619e-07)
(0.109983 -0.00428558 -1.50925e-06)
(0.108356 -4.38851e-05 -0.000479683)
(0.119063 -0.000182628 -5.01714e-05)
(0.118517 -0.000319718 1.02653e-05)
(0.116764 -0.000430144 1.67035e-06)
(0.115934 -0.00047203 -1.4121e-06)
(0.1156 -0.000457196 -9.81634e-07)
(0.115391 -0.000422176 -4.46723e-07)
(0.115201 -0.000393082 -3.06751e-07)
(0.115059 -0.000376015 -1.64524e-07)
(0.114882 -0.000370239 -1.64229e-07)
(0.114791 -0.000375368 2.76064e-07)
(0.114843 -0.000383861 9.57012e-07)
(0.114567 -0.000398433 7.57214e-07)
(0.114061 -0.000427731 2.21705e-08)
(0.113693 -0.00047037 -7.44889e-07)
(0.113542 -0.000522197 -1.11467e-06)
(0.113489 -0.00058177 -1.06781e-06)
(0.113438 -0.000649176 -8.86856e-07)
(0.113348 -0.000724972 -7.11351e-07)
(0.113217 -0.000809972 -5.95319e-07)
(0.113057 -0.000905096 -5.34935e-07)
(0.112873 -0.00101124 -4.99616e-07)
(0.112674 -0.00112934 -4.69411e-07)
(0.112458 -0.00126047 -4.60614e-07)
(0.112233 -0.00140566 -4.26666e-07)
(0.111989 -0.00156619 -4.31496e-07)
(0.111743 -0.00174309 -3.9441e-07)
(0.111474 -0.00193775 -3.6091e-07)
(0.111207 -0.00215127 -3.52429e-07)
(0.110919 -0.00238503 -3.15494e-07)
(0.11063 -0.00263987 -1.86309e-07)
(0.110325 -0.00291774 -2.2934e-07)
(0.110021 -0.00321713 -1.25621e-07)
(0.109692 -0.00354191 -6.47895e-08)
(0.10938 -0.00389306 -9.82292e-07)
(0.108671 -3.40121e-05 -0.000483249)
(0.119396 -0.000138423 -5.02475e-05)
(0.118748 -0.000236933 1.0273e-05)
(0.116907 -0.000326273 1.56685e-06)
(0.116026 -0.000374629 -1.44575e-06)
(0.115671 -0.000380549 -9.69983e-07)
(0.115453 -0.000364341 -4.49792e-07)
(0.115269 -0.000346016 -2.94928e-07)
(0.115112 -0.000334075 -1.99532e-07)
(0.114953 -0.000330659 -1.24591e-07)
(0.114839 -0.000335674 8.60581e-08)
(0.114747 -0.000343756 4.55572e-07)
(0.114515 -0.000357485 4.66535e-07)
(0.11418 -0.000383193 1.07091e-08)
(0.113903 -0.000419677 -5.64362e-07)
(0.113735 -0.00046328 -8.9727e-07)
(0.113624 -0.000512814 -9.20814e-07)
(0.113515 -0.000568972 -7.99903e-07)
(0.113382 -0.000633114 -6.77724e-07)
(0.113222 -0.000706578 -6.00579e-07)
(0.113038 -0.000790275 -5.56316e-07)
(0.112834 -0.000884793 -5.32761e-07)
(0.112615 -0.000990513 -5.09882e-07)
(0.112379 -0.00110824 -5.10078e-07)
(0.112132 -0.00123849 -4.78985e-07)
(0.111867 -0.00138287 -4.87008e-07)
(0.111595 -0.00154182 -4.63739e-07)
(0.111302 -0.00171739 -4.11771e-07)
(0.111001 -0.00191035 -4.41725e-07)
(0.110688 -0.00212228 -3.68297e-07)
(0.110354 -0.00235513 -2.68081e-07)
(0.110025 -0.00260975 -2.95742e-07)
(0.109663 -0.00288852 -1.40112e-07)
(0.109328 -0.00319058 -1.3659e-07)
(0.108927 -0.00353077 1.54118e-08)
(0.108905 -2.84632e-05 -0.000484601)
(0.120204 -0.000111999 -4.88084e-05)
(0.119866 -0.000195675 1.03661e-05)
(0.118044 -0.000274464 8.2261e-07)
(0.117187 -0.000319908 -1.96781e-06)
(0.116864 -0.00032821 -1.30512e-06)
(0.116643 -0.000315922 -7.07241e-07)
(0.116435 -0.000300193 -5.03231e-07)
(0.116236 -0.000289513 -4.15487e-07)
(0.116041 -0.00028575 -3.51753e-07)
(0.115853 -0.000289021 -2.79763e-07)
(0.115657 -0.000299247 -1.25413e-07)
(0.115429 -0.000315743 -5.15022e-08)
(0.115186 -0.000336937 -2.27422e-07)
(0.114964 -0.000363518 -5.24e-07)
(0.114775 -0.000397667 -7.2389e-07)
(0.114608 -0.000439947 -7.7434e-07)
(0.114448 -0.00048968 -7.49445e-07)
(0.11428 -0.000546545 -7.2052e-07)
(0.114097 -0.000610914 -7.11783e-07)
(0.113897 -0.000683526 -7.15758e-07)
(0.113678 -0.000765092 -7.27622e-07)
(0.113441 -0.000856416 -7.26521e-07)
(0.113184 -0.000958161 -7.45965e-07)
(0.112911 -0.00107131 -7.21839e-07)
(0.112617 -0.00119663 -7.40227e-07)
(0.112311 -0.00133537 -7.29665e-07)
(0.111983 -0.00148846 -6.54919e-07)
(0.111638 -0.00165744 -7.40669e-07)
(0.111286 -0.00184322 -5.89615e-07)
(0.110894 -0.00204834 -5.69216e-07)
(0.110518 -0.0022725 -5.55042e-07)
(0.110085 -0.00252283 -3.95747e-07)
(0.109672 -0.0027887 -5.64956e-07)
(0.109202 -0.0031147 -7.59621e-07)
(0.108961 -2.63602e-05 -0.000485825)
(0.120272 -9.94993e-05 -4.89127e-05)
(0.119944 -0.000177216 1.0463e-05)
(0.118116 -0.000245187 8.24857e-07)
(0.117255 -0.000277781 -2.00262e-06)
(0.11693 -0.000277056 -1.33313e-06)
(0.116709 -0.000262306 -7.15394e-07)
(0.1165 -0.000247696 -5.07141e-07)
(0.11631 -0.000238841 -4.05245e-07)
(0.11612 -0.000235414 -3.42533e-07)
(0.115972 -0.000236945 7.56948e-09)
(0.115893 -0.000248864 4.34938e-07)
(0.115655 -0.000268123 2.37313e-07)
(0.115243 -0.000285157 -3.33607e-07)
(0.114875 -0.000301846 -8.35901e-07)
(0.114647 -0.000326195 -1.08877e-06)
(0.114508 -0.000360855 -1.07119e-06)
(0.114383 -0.000404035 -9.38584e-07)
(0.114236 -0.00045371 -8.30678e-07)
(0.114059 -0.000509026 -7.79277e-07)
(0.113855 -0.000570208 -7.60658e-07)
(0.113627 -0.000638016 -7.56098e-07)
(0.113377 -0.000713602 -7.45728e-07)
(0.113105 -0.000797781 -7.54495e-07)
(0.112816 -0.000891815 -7.26005e-07)
(0.112502 -0.000996068 -7.42029e-07)
(0.112177 -0.0011121 -7.12673e-07)
(0.111822 -0.00124018 -6.67765e-07)
(0.111458 -0.00138208 -6.87242e-07)
(0.111066 -0.00153839 -6.11803e-07)
(0.110657 -0.00171102 -5.15121e-07)
(0.11023 -0.00190013 -5.01629e-07)
(0.109779 -0.00211011 -4.34297e-07)
(0.109305 -0.00233316 -3.66503e-07)
(0.108822 -0.0025989 -8.07747e-07)
(0.109026 -2.07028e-05 -0.000486983)
(0.12036 -7.84326e-05 -4.91651e-05)
(0.120019 -0.000139913 1.03801e-05)
(0.118158 -0.000194087 7.7828e-07)
(0.117275 -0.000220349 -2.0039e-06)
(0.116943 -0.000219969 -1.3222e-06)
(0.116726 -0.000208335 -6.98604e-07)
(0.116515 -0.000196705 -5.09582e-07)
(0.116341 -0.000189731 -3.73554e-07)
(0.116148 -0.000187206 -4.07933e-07)
(0.116007 -0.000188095 3.11856e-07)
(0.116114 -0.000196754 1.12497e-06)
(0.115916 -0.000211366 4.70075e-07)
(0.115315 -0.000225055 -5.4331e-07)
(0.11478 -0.000239073 -1.16771e-06)
(0.11451 -0.00025874 -1.43067e-06)
(0.114398 -0.000285656 -1.34102e-06)
(0.114309 -0.000318784 -1.12379e-06)
(0.114183 -0.000357099 -9.46762e-07)
(0.114011 -0.000400236 -8.50866e-07)
(0.113803 -0.00044835 -8.11052e-07)
(0.113566 -0.000501941 -7.93611e-07)
(0.113305 -0.000561682 -7.74759e-07)
(0.113021 -0.000628284 -7.7967e-07)
(0.112719 -0.000702546 -7.48978e-07)
(0.11239 -0.000785108 -7.63932e-07)
(0.11205 -0.000876871 -7.35115e-07)
(0.111676 -0.000978538 -6.84457e-07)
(0.111291 -0.00109121 -7.11784e-07)
(0.110877 -0.00121564 -6.22587e-07)
(0.110442 -0.00135343 -5.34261e-07)
(0.109986 -0.00150498 -5.15794e-07)
(0.109501 -0.00167327 -4.33339e-07)
(0.108989 -0.0018553 -3.93898e-07)
(0.108466 -0.00206776 -6.44655e-07)
(0.109108 -1.43466e-05 -0.00048805)
(0.120454 -6.14614e-05 -4.92349e-05)
(0.120093 -0.000110993 1.03666e-05)
(0.118205 -0.000152393 7.23692e-07)
(0.117306 -0.000169445 -2.04337e-06)
(0.116965 -0.000165642 -1.34605e-06)
(0.116746 -0.000154205 -7.10441e-07)
(0.116532 -0.000144587 -5.19973e-07)
(0.116362 -0.000139135 -3.69367e-07)
(0.116168 -0.000137644 -4.28565e-07)
(0.116025 -0.00013984 3.61995e-07)
(0.11617 -0.000142667 1.2571e-06)
(0.115987 -0.0001468 5.08023e-07)
(0.115346 -0.000156717 -5.88572e-07)
(0.11477 -0.000172311 -1.23176e-06)
(0.114484 -0.000190844 -1.50457e-06)
(0.11437 -0.000211459 -1.40826e-06)
(0.114284 -0.000234767 -1.17624e-06)
(0.114158 -0.000261398 -9.85669e-07)
(0.113984 -0.000291756 -8.80627e-07)
(0.11377 -0.000326 -8.3624e-07)
(0.113526 -0.000364486 -8.15711e-07)
(0.113257 -0.000407412 -7.9538e-07)
(0.112963 -0.000455408 -7.98395e-07)
(0.11265 -0.000508847 -7.67433e-07)
(0.11231 -0.000568341 -7.81345e-07)
(0.111956 -0.000634594 -7.51599e-07)
(0.111568 -0.000708031 -6.99877e-07)
(0.111167 -0.000789568 -7.24113e-07)
(0.110736 -0.000879779 -6.33803e-07)
(0.110281 -0.000979713 -5.43212e-07)
(0.109804 -0.00108958 -5.16479e-07)
(0.109295 -0.00121147 -4.36928e-07)
(0.108758 -0.00134429 -3.75045e-07)
(0.108204 -0.00149807 -5.04428e-07)
(0.10922 -8.30852e-06 -0.000489137)
(0.120573 -3.96074e-05 -4.92269e-05)
(0.120172 -7.01386e-05 1.03154e-05)
(0.118248 -9.58487e-05 6.47497e-07)
(0.117327 -0.000106624 -2.06478e-06)
(0.116978 -0.000104575 -1.33819e-06)
(0.116754 -9.75804e-05 -7.11283e-07)
(0.116547 -9.19064e-05 -5.08651e-07)
(0.116364 -8.87363e-05 -4.01857e-07)
(0.116179 -8.82678e-05 -3.29339e-07)
(0.116042 -9.0488e-05 8.1378e-08)
(0.116004 -8.91593e-05 5.9075e-07)
(0.115784 -8.64014e-05 3.29495e-07)
(0.11532 -9.20386e-05 -3.77643e-07)
(0.114883 -0.000105655 -9.54938e-07)
(0.114616 -0.000120557 -1.25094e-06)
(0.114463 -0.00013414 -1.23937e-06)
(0.114333 -0.000147483 -1.0823e-06)
(0.114178 -0.000162137 -9.4423e-07)
(0.113986 -0.00017916 -8.69121e-07)
(0.113761 -0.000198959 -8.3422e-07)
(0.113508 -0.0002218 -8.15991e-07)
(0.11323 -0.000247567 -8.05948e-07)
(0.112929 -0.00027656 -7.93006e-07)
(0.112605 -0.00030881 -7.94236e-07)
(0.112262 -0.000344751 -7.66514e-07)
(0.111891 -0.000384785 -7.651e-07)
(0.111502 -0.00042922 -7.33735e-07)
(0.111082 -0.000478602 -6.74962e-07)
(0.110643 -0.000533362 -6.70675e-07)
(0.110175 -0.000594124 -5.85285e-07)
(0.109679 -0.000661 -4.88993e-07)
(0.109158 -0.000735441 -4.36154e-07)
(0.108606 -0.000817183 -3.68743e-07)
(0.108024 -0.000911449 -3.49013e-07)
(0.109335 -2.93121e-06 -0.000490095)
(0.120689 -1.80722e-05 -4.9193e-05)
(0.120244 -3.14878e-05 1.02623e-05)
(0.118286 -4.27426e-05 5.67697e-07)
(0.117347 -4.72036e-05 -2.09966e-06)
(0.11699 -4.57593e-05 -1.34896e-06)
(0.116762 -4.22191e-05 -7.22289e-07)
(0.116557 -3.93533e-05 -5.13667e-07)
(0.116365 -3.76884e-05 -4.20151e-07)
(0.116179 -3.71115e-05 -3.31306e-07)
(0.116015 -3.71863e-05 -1.60568e-07)
(0.115862 -3.56802e-05 6.4876e-08)
(0.115633 -3.37585e-05 4.30106e-08)
(0.115323 -3.53691e-05 -2.92766e-07)
(0.115025 -4.03857e-05 -7.0469e-07)
(0.114789 -4.59442e-05 -9.62024e-07)
(0.1146 -5.07284e-05 -1.00764e-06)
(0.114421 -5.50776e-05 -9.40367e-07)
(0.114227 -5.96648e-05 -8.65523e-07)
(0.114012 -6.49851e-05 -8.225e-07)
(0.113772 -7.12857e-05 -8.05774e-07)
(0.11351 -7.86552e-05 -8.00438e-07)
(0.113225 -8.70666e-05 -8.00145e-07)
(0.112919 -9.65383e-05 -7.92149e-07)
(0.11259 -0.000107123 -7.96704e-07)
(0.112241 -0.000118931 -7.69098e-07)
(0.111864 -0.00013211 -7.6846e-07)
(0.11147 -0.000146802 -7.36988e-07)
(0.111044 -0.000163141 -6.77896e-07)
(0.110599 -0.000181293 -6.72567e-07)
(0.110123 -0.000201429 -5.87884e-07)
(0.109621 -0.000223685 -4.88871e-07)
(0.10909 -0.000248369 -4.3495e-07)
(0.108529 -0.000275299 -3.64018e-07)
(0.107936 -0.000306408 -2.97636e-07)
(0.184415 -0.000164936 -0.000488751)
(0.188092 -0.000678173 -8.36892e-05)
(0.188241 -0.0012338 1.82543e-05)
(0.187143 -0.00168292 1.84498e-05)
(0.186275 -0.00182423 7.96732e-06)
(0.185836 -0.00168402 2.87528e-06)
(0.185663 -0.00143955 8.17581e-07)
(0.185633 -0.00122624 5.40408e-07)
(0.18562 -0.00108881 1.71426e-07)
(0.185642 -0.00102049 -5.37894e-07)
(0.185681 -0.000999281 1.71751e-06)
(0.185666 -0.00101293 4.18726e-06)
(0.185623 -0.0010551 2.933e-06)
(0.185615 -0.00112201 -1.72445e-07)
(0.185657 -0.00121153 -2.07596e-06)
(0.18572 -0.0013217 -2.26794e-06)
(0.185778 -0.00145179 -1.65187e-06)
(0.185825 -0.00160278 -1.00308e-06)
(0.185864 -0.00177546 -5.92393e-07)
(0.185904 -0.00196942 -4.14439e-07)
(0.185953 -0.00218282 -4.07605e-07)
(0.186014 -0.00241439 -4.60834e-07)
(0.186087 -0.00266249 -6.22915e-07)
(0.186178 -0.00292702 -7.13765e-07)
(0.186281 -0.00320614 -9.19592e-07)
(0.186407 -0.00350068 -1.11819e-06)
(0.186542 -0.00380649 -1.3319e-06)
(0.186712 -0.00412559 -1.3877e-06)
(0.186873 -0.00445237 -2.29772e-06)
(0.187109 -0.00478959 -1.29745e-06)
(0.187293 -0.00512875 -3.64217e-06)
(0.187614 -0.00547627 -2.55685e-06)
(0.187825 -0.00582084 -4.49762e-06)
(0.188343 -0.00616677 -3.36306e-06)
(0.188408 -0.00651588 1.22382e-05)
(0.185217 -0.000148351 -0.000502765)
(0.188995 -0.000624008 -9.12134e-05)
(0.189539 -0.0011721 1.49648e-05)
(0.188983 -0.00162137 1.70507e-05)
(0.18854 -0.00177061 7.3186e-06)
(0.188301 -0.00164505 2.81271e-06)
(0.188168 -0.00141546 1.20601e-06)
(0.188104 -0.00121367 7.75352e-07)
(0.188062 -0.00108284 5.9944e-07)
(0.188037 -0.00101505 3.37919e-07)
(0.188018 -0.00099314 1.7477e-06)
(0.187962 -0.00100679 3.69369e-06)
(0.187876 -0.00104674 3.15827e-06)
(0.187807 -0.00111009 6.76649e-07)
(0.187787 -0.00119877 -1.45365e-06)
(0.187811 -0.00131224 -2.31547e-06)
(0.187862 -0.00144786 -2.23549e-06)
(0.187925 -0.0016035 -1.78974e-06)
(0.187988 -0.00177819 -1.32029e-06)
(0.188048 -0.00197167 -9.52817e-07)
(0.188105 -0.00218393 -7.30223e-07)
(0.188162 -0.00241492 -5.85914e-07)
(0.18822 -0.00266475 -5.97427e-07)
(0.188289 -0.00293274 -5.64161e-07)
(0.188361 -0.0032193 -6.84726e-07)
(0.188454 -0.00352223 -7.76687e-07)
(0.188548 -0.00384291 -9.99555e-07)
(0.188678 -0.00417717 -9.01713e-07)
(0.188787 -0.00452686 -1.84103e-06)
(0.188973 -0.00488668 -6.5156e-07)
(0.189097 -0.00526211 -2.78578e-06)
(0.189333 -0.00563611 -2.14314e-06)
(0.189469 -0.00606242 -4.15752e-06)
(0.189773 -0.00642097 -2.91688e-06)
(0.18982 -0.00705654 -4.81985e-06)
(0.185822 -0.00013382 -0.000503955)
(0.189558 -0.000617181 -9.12822e-05)
(0.190036 -0.001179 1.65298e-05)
(0.18937 -0.00161473 1.81459e-05)
(0.188824 -0.00173477 7.3621e-06)
(0.188521 -0.00159224 2.47803e-06)
(0.188351 -0.00136633 9.15262e-07)
(0.188269 -0.00117878 7.11215e-07)
(0.188216 -0.00106095 6.69678e-07)
(0.188183 -0.000998728 -6.88846e-07)
(0.188188 -0.000975459 7.732e-07)
(0.188136 -0.00098559 5.63487e-06)
(0.18801 -0.00102422 6.48818e-06)
(0.187896 -0.00109017 2.22866e-06)
(0.187859 -0.00118506 -1.84435e-06)
(0.187886 -0.00130659 -3.24046e-06)
(0.187939 -0.00144943 -2.79253e-06)
(0.18799 -0.00160902 -1.86597e-06)
(0.188031 -0.00178354 -1.11316e-06)
(0.188063 -0.0019736 -6.38836e-07)
(0.188089 -0.00218139 -4.15359e-07)
(0.188116 -0.00240847 -2.95718e-07)
(0.188145 -0.00265624 -3.67688e-07)
(0.188183 -0.00292403 -3.65663e-07)
(0.188227 -0.00321231 -5.19105e-07)
(0.188283 -0.00351861 -7.22454e-07)
(0.188356 -0.00384446 -7.30378e-07)
(0.188437 -0.00418542 -1.2358e-06)
(0.188543 -0.00454331 -1.22296e-06)
(0.188661 -0.00491228 -1.49408e-06)
(0.188807 -0.00529584 -2.03607e-06)
(0.188975 -0.00567621 -3.44657e-06)
(0.18916 -0.0060765 -3.77552e-06)
(0.189375 -0.0064321 -4.72102e-06)
(0.189565 -0.00685643 -8.63385e-06)
(0.186459 -0.000115432 -0.000513132)
(0.190204 -0.000563125 -9.32008e-05)
(0.190588 -0.00108312 1.79338e-05)
(0.189711 -0.00149813 1.96877e-05)
(0.188971 -0.00163046 8.22089e-06)
(0.188572 -0.00151878 2.81855e-06)
(0.188386 -0.00132204 1.08919e-06)
(0.188309 -0.00115307 6.91957e-07)
(0.188268 -0.00104404 7.83442e-07)
(0.188225 -0.000986062 -5.84243e-07)
(0.188227 -0.000963389 9.45856e-08)