/*--------------------------------*- C++ -*----------------------------------*\
  =========                 |
  \\      /  F ield         | OpenFOAM: The Open Source CFD Toolbox
   \\    /   O peration     | Website:  https://openfoam.org
    \\  /    A nd           | Version:  6
     \\/     M anipulation  |
\*---------------------------------------------------------------------------*/
FoamFile
{
    version     2.0;
    format      ascii;
    class       volScalarField;
    location    "9";
    object      omega;
}
// * * * * * * * * * * * * * * * * * * * * * * * * * * * * * * * * * * * * * //

dimensions      [0 0 -1 0 0 0 0];

internalField   nonuniform List<scalar> 
380496
(
843.917
843.917
843.917
843.917
843.917
843.917
843.917
843.917
843.917
843.917
843.917
843.917
843.917
843.917
843.917
843.917
843.917
843.917
843.917
843.917
843.917
843.917
843.917
843.917
843.917
843.917
843.917
843.917
843.917
843.917
843.917
843.917
843.917
843.917
843.917
843.917
843.917
843.917
843.917
843.917
843.917
843.917
843.917
843.917
843.917
843.917
843.917
843.917
843.917
843.917
843.917
843.917
843.917
843.917
843.917
843.917
843.917
843.917
843.917
843.917
843.917
843.917
843.917
843.917
843.917
843.917
843.917
843.917
843.917
843.917
843.917
843.917
843.917
843.917
843.917
843.917
843.917
843.917
843.917
843.917
843.917
843.917
843.917
843.917
843.917
843.917
843.917
843.917
843.917
843.917
843.917
843.917
843.917
843.917
843.917
843.917
843.917
843.917
843.917
843.917
843.917
843.917
843.917
843.917
843.917
843.917
843.917
843.917
843.917
843.917
843.917
843.917
843.917
843.917
843.917
843.917
843.917
843.917
843.917
843.917
843.917
843.917
843.917
843.917
843.917
843.917
843.917
843.917
843.917
843.917
843.917
843.917
843.917
843.917
843.917
843.917
843.917
843.917
843.917
843.917
843.917
843.917
843.917
843.917
843.917
843.917
843.917
843.917
843.917
843.917
843.917
843.917
843.917
843.917
843.917
843.917
843.917
843.917
843.917
843.917
843.917
843.917
843.917
843.917
843.917
843.917
843.917
843.917
843.917
843.917
843.917
843.917
843.917
843.917
843.917
843.917
843.917
843.917
843.917
843.917
843.917
843.917
843.917
843.917
843.917
843.917
843.917
843.917
843.917
843.917
843.917
843.917
843.917
843.917
843.917
843.917
843.917
843.917
843.917
843.917
843.917
843.917
843.917
843.917
843.917
843.917
843.917
843.917
843.917
843.917
843.917
843.917
843.917
843.917
843.917
843.917
843.917
843.917
843.917
843.917
843.917
843.917
843.917
843.917
843.917
843.917
843.917
843.917
843.917
843.917
843.917
843.917
843.917
843.917
843.917
843.917
843.917
843.917
843.917
843.917
843.917
843.917
843.917
843.917
843.917
843.917
843.917
843.917
843.917
843.917
843.917
843.917
843.917
843.917
843.917
843.917
843.917
843.917
843.917
843.917
843.917
843.917
843.917
843.917
843.917
843.917
843.917
843.917
843.917
843.917
843.917
843.917
843.917
843.917
843.917
843.917
843.917
843.917
843.917
843.917
843.917
843.917
843.917
843.917
843.917
843.917
843.917
843.917
843.917
843.917
843.917
843.917
843.917
843.917
843.917
843.917
843.917
843.917
843.917
843.917
843.917
843.917
843.917
843.917
843.917
843.917
843.917
843.917
843.917
843.917
843.917
843.917
843.917
843.917
843.917
843.917
843.917
843.917
843.917
843.917
843.917
843.917
843.917
843.917
843.917
843.917
843.917
843.917
843.917
843.917
843.917
843.917
843.917
843.917
843.917
843.917
843.917
843.917
843.917
843.917
843.917
843.917
843.917
843.917
843.917
843.917
843.917
843.917
843.917
843.917
843.917
843.917
843.917
843.917
843.917
843.917
843.917
843.917
843.917
843.917
843.917
843.917
843.917
843.917
843.917
843.917
843.917
843.917
843.917
843.917
843.917
843.917
843.917
843.917
843.917
843.917
843.917
843.917
843.917
843.917
843.917
843.917
843.917
843.917
843.917
843.917
843.917
843.917
843.917
843.917
843.917
843.917
843.917
843.917
843.917
843.917
843.917
843.917
843.917
843.917
843.917
843.917
843.917
843.917
843.917
843.917
843.917
843.917
843.917
843.917
843.917
843.917
843.917
843.917
843.917
843.917
843.917
843.917
843.917
843.917
843.917
843.917
843.917
843.917
843.917
843.917
843.917
843.917
843.917
843.917
843.917
843.917
843.917
843.917
843.917
843.917
843.917
843.917
843.917
843.917
843.917
843.917
843.917
843.917
843.917
843.917
843.917
843.917
843.917
843.917
843.917
843.917
843.917
843.917
843.917
843.917
843.917
843.917
843.917
843.917
843.917
843.917
843.917
843.917
843.917
843.917
843.917
843.917
843.917
843.917
843.917
843.917
843.917
843.917
843.917
843.917
843.917
843.917
843.917
843.917
843.917
843.917
843.917
843.917
843.917
843.917
843.917
843.917
843.917
843.917
843.917
843.917
843.917
843.917
843.917
843.917
843.917
843.917
843.917
843.917
843.917
843.917
843.917
843.917
843.917
843.917
843.917
843.917
843.917
843.917
843.917
843.917
843.917
843.917
843.917
843.917
843.917
843.917
843.917
843.917
843.917
843.917
843.917
843.917
843.917
843.917
843.917
843.917
843.917
843.917
843.917
843.917
843.917
843.917
843.917
843.917
843.917
843.917
843.917
843.917
843.917
843.917
843.917
843.917
843.917
843.917
843.917
843.917
843.917
843.917
843.917
843.917
843.917
843.917
843.917
843.917
843.917
843.917
843.917
843.917
843.917
843.917
843.917
843.917
843.917
843.917
843.917
843.917
843.917
843.917
843.917
843.917
843.917
843.917
843.917
843.917
843.917
843.917
843.917
843.917
843.917
843.917
843.917
843.917
843.917
843.917
843.917
843.917
843.917
843.917
843.917
843.917
843.917
843.917
843.917
843.917
843.917
843.917
843.917
843.917
843.917
843.917
843.917
843.917
843.917
843.917
843.917
843.917
843.917
843.917
843.917
843.917
843.917
843.917
843.917
843.917
843.917
843.917
843.917
843.917
843.917
843.917
843.917
843.917
843.917
843.917
843.917
843.917
843.917
843.917
843.917
843.917
843.917
843.917
843.917
843.917
843.917
843.917
843.917
843.917
843.917
843.917
843.917
843.917
843.917
843.917
843.917
843.917
843.917
843.917
843.917
843.917
843.917
843.917
843.917
843.917
843.917
843.917
843.917
843.917
843.917
843.917
843.917
843.917
843.917
843.917
843.917
843.917
843.917
843.917
843.917
843.917
843.917
843.917
843.917
843.917
843.917
843.917
843.917
843.917
843.917
843.917
843.917
843.917
843.917
843.917
843.917
843.917
843.917
843.917
843.917
843.917
843.917
843.917
843.917
843.917
843.917
843.917
843.917
843.917
423.923
423.923
423.923
423.923
423.923
424.289
424.272
424.266
424.276
424.3
424.327
424.349
424.374
424.396
424.421
424.443
424.469
424.491
424.519
424.543
424.573
424.599
424.631
424.658
424.694
424.723
424.763
424.793
424.839
424.866
424.92
424.941
425.008
425.01
425.093
275.638
262.144
263.673
264.573
264.559
264.418
264.334
264.29
264.265
264.254
264.248
264.25
264.251
264.26
264.265
264.279
264.287
264.306
264.317
264.341
264.356
264.386
264.406
264.442
264.47
264.513
264.55
264.601
264.647
264.707
264.761
264.833
264.89
264.983
265.015
275.378
261.96
263.393
264.253
264.226
264.084
263.996
263.955
263.929
263.922
263.917
263.924
263.927
263.942
263.95
263.97
263.983
264.008
264.025
264.057
264.078
264.117
264.143
264.191
264.223
264.282
264.321
264.389
264.436
264.514
264.567
264.655
264.704
264.824
264.782
274.938
261.626
263.023
263.851
263.811
263.667
263.58
263.542
263.52
263.518
263.518
263.532
263.542
263.564
263.58
263.609
263.63
263.666
263.692
263.735
263.768
263.819
263.86
263.92
263.969
264.038
264.096
264.177
264.243
264.336
264.407
264.515
264.577
264.726
264.696
274.255
261.102
262.54
263.341
263.28
263.131
263.045
263.012
262.996
263.002
263.01
263.033
263.051
263.083
263.107
263.146
263.177
263.223
263.26
263.314
263.358
263.422
263.473
263.547
263.607
263.693
263.762
263.859
263.937
264.046
264.129
264.252
264.324
264.494
264.463
273.787
260.732
262.024
262.77
262.702
262.553
262.468
262.437
262.426
262.436
262.449
262.477
262.502
262.54
262.572
262.619
262.658
262.713
262.76
262.825
262.879
262.955
263.019
263.107
263.18
263.28
263.363
263.476
263.567
263.694
263.79
263.934
264.017
264.214
264.184
272.915
260.038
261.328
262.034
261.947
261.795
261.716
261.694
261.692
261.713
261.737
261.775
261.81
261.859
261.902
261.96
262.01
262.077
262.135
262.212
262.279
262.369
262.445
262.547
262.634
262.748
262.845
262.973
263.079
263.221
263.331
263.492
263.586
263.806
263.774
272.061
259.34
260.531
261.18
261.08
260.929
260.856
260.841
260.848
260.878
260.911
260.959
261.003
261.061
261.114
261.182
261.242
261.321
261.39
261.48
261.559
261.662
261.751
261.867
261.968
262.098
262.208
262.352
262.472
262.631
262.755
262.934
263.039
263.283
263.251
271.026
258.479
259.567
260.156
260.043
259.895
259.832
259.827
259.845
259.886
259.93
259.988
260.042
260.111
260.174
260.252
260.324
260.413
260.494
260.596
260.688
260.803
260.906
261.036
261.15
261.294
261.419
261.578
261.712
261.886
262.023
262.219
262.334
262.6
262.565
269.807
257.456
258.457
258.984
258.857
258.715
258.665
258.676
258.71
258.765
258.822
258.892
258.959
259.039
259.113
259.203
259.286
259.387
259.481
259.595
259.699
259.828
259.944
260.087
260.215
260.373
260.511
260.685
260.832
261.021
261.171
261.382
261.508
261.795
261.758
268.657
256.454
257.277
257.74
257.609
257.477
257.441
257.464
257.51
257.575
257.643
257.722
257.798
257.886
257.97
258.069
258.163
258.274
258.378
258.502
258.618
258.758
258.886
259.042
259.181
259.353
259.503
259.69
259.849
260.051
260.212
260.438
260.572
260.878
260.837
267.087
255.101
255.845
256.25
256.111
255.994
255.984
256.031
256.1
256.184
256.269
256.363
256.454
256.555
256.652
256.763
256.869
256.992
257.109
257.246
257.374
257.527
257.667
257.836
257.988
258.173
258.336
258.536
258.707
258.923
259.095
259.336
259.478
259.803
259.757
265.665
253.803
254.279
254.616
254.484
254.389
254.399
254.463
254.546
254.642
254.738
254.841
254.942
255.052
255.16
255.28
255.397
255.53
255.658
255.806
255.946
256.111
256.264
256.445
256.61
256.807
256.983
257.196
257.379
257.609
257.792
258.047
258.197
258.541
258.489
263.602
251.962
252.321
252.61
252.486
252.425
252.478
252.578
252.692
252.813
252.931
253.053
253.172
253.297
253.42
253.554
253.685
253.831
253.973
254.134
254.288
254.466
254.632
254.827
255.005
255.217
255.405
255.633
255.828
256.072
256.267
256.536
256.695
257.058
257
261.656
250.111
250.127
250.362
250.264
250.244
250.333
250.46
250.595
250.734
250.868
251.004
251.135
251.273
251.409
251.554
251.698
251.856
252.011
252.185
252.352
252.543
252.723
252.931
253.123
253.349
253.55
253.792
254
254.259
254.465
254.75
254.917
255.301
255.233
258.96
247.587
247.37
247.584
247.528
247.576
247.728
247.904
248.079
248.249
248.409
248.566
248.717
248.872
249.023
249.183
249.341
249.513
249.682
249.868
250.05
250.253
250.447
250.668
250.874
251.113
251.329
251.585
251.806
252.08
252.299
252.599
252.777
253.182
253.106
255.938
244.638
244.051
244.273
244.288
244.42
244.639
244.866
245.079
245.279
245.463
245.64
245.806
245.975
246.139
246.31
246.479
246.661
246.841
247.037
247.23
247.445
247.652
247.886
248.106
248.359
248.589
248.861
249.097
249.387
249.621
249.939
250.13
250.556
250.476
252.316
240.989
239.926
240.186
240.309
240.557
240.859
241.143
241.39
241.612
241.807
241.99
242.159
242.33
242.494
242.669
242.841
243.028
243.215
243.42
243.625
243.852
244.075
244.323
244.563
244.833
245.085
245.377
245.636
245.948
246.205
246.547
246.763
247.215
247.152
246.447
235.385
234.177
234.679
234.987
235.387
235.781
236.12
236.387
236.622
236.814
236.998
237.164
237.339
237.509
237.696
237.883
238.092
238.301
238.535
238.768
239.028
239.284
239.568
239.843
240.151
240.441
240.77
241.069
241.417
241.715
242.089
242.349
242.822
242.81
238.154
227.579
225.861
226.733
227.332
227.911
228.377
228.737
229.003
229.248
229.451
229.669
229.869
230.097
230.314
230.564
230.805
231.079
231.346
231.644
231.936
232.258
232.573
232.918
233.254
233.619
233.971
234.354
234.714
235.113
235.472
235.89
236.22
236.718
236.838
218.095
211.366
210.037
211.658
212.787
213.682
214.363
214.902
215.343
215.753
216.107
216.464
216.783
217.124
217.436
217.781
218.103
218.465
218.807
219.193
219.557
219.962
220.349
220.777
221.187
221.633
222.064
222.523
222.969
223.434
223.883
224.344
224.775
225.18
225.436
9.50486
8.83566
9.16232
9.29986
9.37844
9.42774
9.47487
9.5091
9.54467
9.58332
9.63187
9.66978
9.71789
9.75529
9.80471
9.84317
9.89483
9.93504
9.98953
10.0317
10.0894
10.1335
10.1954
10.2414
10.3092
10.356
10.4317
10.4762
10.563
10.5995
10.7031
10.721
10.851
10.8298
10.9914
133.591
127.215
127.094
127.665
127.852
127.834
127.782
127.738
127.708
127.688
127.675
127.668
127.665
127.666
127.669
127.674
127.681
127.691
127.702
127.715
127.73
127.747
127.768
127.789
127.816
127.843
127.877
127.912
127.954
127.997
128.051
128.105
128.17
128.239
128.32
133.311
126.951
126.79
127.334
127.509
127.487
127.432
127.388
127.357
127.339
127.327
127.323
127.322
127.326
127.332
127.341
127.352
127.365
127.381
127.399
127.419
127.441
127.468
127.494
127.528
127.56
127.602
127.641
127.692
127.738
127.8
127.855
127.921
128.004
128.03
132.937
126.596
126.417
126.944
127.109
127.084
127.028
126.985
126.956
126.94
126.932
126.931
126.935
126.944
126.955
126.969
126.986
127.006
127.028
127.052
127.08
127.11
127.144
127.18
127.222
127.264
127.314
127.363
127.425
127.48
127.554
127.618
127.698
127.788
127.839
132.435
126.122
125.96
126.48
126.635
126.605
126.547
126.505
126.479
126.467
126.464
126.469
126.478
126.492
126.509
126.53
126.553
126.579
126.608
126.639
126.674
126.711
126.753
126.796
126.846
126.896
126.954
127.011
127.08
127.144
127.223
127.296
127.379
127.478
127.525
132.013
125.739
125.522
126
126.14
126.103
126.043
126.001
125.976
125.966
125.965
125.973
125.985
126.003
126.024
126.049
126.077
126.108
126.142
126.18
126.22
126.264
126.312
126.363
126.419
126.477
126.543
126.607
126.684
126.756
126.843
126.924
127.013
127.123
127.175
131.387
125.155
124.944
125.405
125.53
125.487
125.426
125.386
125.365
125.361
125.365
125.38
125.398
125.423
125.45
125.481
125.515
125.553
125.594
125.638
125.686
125.737
125.792
125.85
125.914
125.979
126.053
126.125
126.209
126.288
126.381
126.469
126.563
126.68
126.733
130.746
124.568
124.324
124.746
124.852
124.801
124.738
124.7
124.683
124.683
124.693
124.713
124.736
124.766
124.799
124.836
124.876
124.92
124.966
125.017
125.071
125.129
125.191
125.257
125.327
125.4
125.48
125.56
125.65
125.737
125.837
125.932
126.03
126.157
126.211
129.997
123.88
123.603
123.984
124.068
124.009
123.947
123.912
123.899
123.905
123.921
123.946
123.976
124.012
124.05
124.094
124.139
124.189
124.242
124.299
124.36
124.424
124.493
124.565
124.643
124.722
124.809
124.896
124.993
125.086
125.192
125.294
125.396
125.531
125.584
129.152
123.104
122.799
123.139
123.199
123.131
123.07
123.04
123.035
123.049
123.072
123.105
123.142
123.185
123.23
123.28
123.331
123.388
123.447
123.511
123.578
123.649
123.725
123.804
123.888
123.975
124.068
124.162
124.265
124.365
124.476
124.586
124.69
124.834
124.886
128.333
122.354
121.978
122.26
122.296
122.222
122.162
122.138
122.139
122.159
122.189
122.227
122.27
122.318
122.368
122.423
122.48
122.543
122.607
122.677
122.749
122.826
122.908
122.993
123.083
123.176
123.275
123.375
123.484
123.589
123.705
123.821
123.929
124.081
124.131
127.304
121.401
120.996
121.234
121.245
121.165
121.111
121.097
121.11
121.141
121.181
121.229
121.28
121.336
121.394
121.457
121.521
121.59
121.661
121.737
121.816
121.9
121.988
122.08
122.176
122.276
122.381
122.487
122.602
122.714
122.836
122.958
123.069
123.229
123.277
126.312
120.489
119.958
120.117
120.1
120.017
119.97
119.965
119.987
120.026
120.073
120.128
120.185
120.248
120.311
120.379
120.449
120.524
120.601
120.684
120.769
120.859
120.953
121.051
121.154
121.259
121.371
121.484
121.605
121.723
121.849
121.978
122.092
122.261
122.306
125.003
119.264
118.671
118.778
118.736
118.653
118.621
118.633
118.672
118.727
118.789
118.856
118.924
118.996
119.068
119.145
119.223
119.306
119.39
119.48
119.573
119.67
119.771
119.876
119.986
120.099
120.218
120.337
120.464
120.589
120.721
120.857
120.975
121.153
121.194
123.704
118.045
117.264
117.276
117.207
117.129
117.113
117.142
117.196
117.264
117.337
117.414
117.491
117.572
117.652
117.736
117.821
117.911
118.003
118.1
118.199
118.304
118.411
118.524
118.641
118.76
118.886
119.012
119.146
119.278
119.416
119.559
119.68
119.869
119.905
122.019
116.445
115.512
115.453
115.364
115.3
115.312
115.37
115.448
115.537
115.628
115.719
115.809
115.901
115.991
116.085
116.179
116.277
116.376
116.481
116.587
116.699
116.814
116.934
117.058
117.185
117.318
117.451
117.592
117.731
117.876
118.026
118.153
118.353
118.384
120.107
114.605
113.423
113.275
113.175
113.137
113.183
113.273
113.378
113.489
113.597
113.704
113.806
113.908
114.007
114.109
114.21
114.314
114.421
114.532
114.645
114.764
114.886
115.012
115.143
115.278
115.417
115.558
115.707
115.853
116.006
116.164
116.297
116.508
116.535
117.824
112.373
110.841
110.583
110.475
110.478
110.573
110.703
110.838
110.971
111.094
111.211
111.32
111.427
111.531
111.637
111.742
111.851
111.962
112.079
112.198
112.323
112.452
112.587
112.726
112.869
113.018
113.17
113.328
113.486
113.65
113.82
113.966
114.193
114.228
114.183
108.832
107.096
106.874
106.836
106.924
107.087
107.269
107.436
107.592
107.726
107.851
107.964
108.076
108.184
108.296
108.407
108.526
108.648
108.777
108.91
109.051
109.196
109.349
109.505
109.668
109.836
110.007
110.185
110.363
110.548
110.736
110.905
111.147
111.2
108.726
103.94
101.681
101.431
101.488
101.683
101.914
102.132
102.309
102.476
102.617
102.763
102.896
103.04
103.179
103.331
103.48
103.642
103.802
103.974
104.146
104.328
104.511
104.702
104.895
105.095
105.298
105.506
105.719
105.932
106.153
106.375
106.586
106.858
106.981
94.0519
94.1813
91.3686
90.7401
90.7684
91.0942
91.5106
91.9173
92.2924
92.6501
92.9747
93.2876
93.572
93.8513
94.1077
94.3661
94.6088
94.8576
95.0951
95.3377
95.5699
95.8092
96.0428
96.2853
96.5254
96.7739
97.0222
97.2765
97.5334
97.7901
98.0574
98.3021
98.5934
98.7611
99.0803
11.5226
10.7696
11.0972
11.2217
11.3019
11.3538
11.4038
11.4412
11.4824
11.518
11.5652
11.6007
11.6488
11.6847
11.7349
11.7723
11.8253
11.8647
11.9208
11.9623
12.0218
12.0651
12.1288
12.1737
12.2433
12.2885
12.366
12.4081
12.4969
12.5299
12.6358
12.6491
12.7812
12.756
12.919
79.3735
76.7492
76.2134
76.3798
76.5396
76.5868
76.5786
76.5548
76.5313
76.5118
76.4975
76.4865
76.4799
76.4749
76.4739
76.4727
76.4757
76.4771
76.4836
76.4871
76.4967
76.5023
76.5148
76.523
76.5384
76.5497
76.5687
76.5833
76.6072
76.625
76.6559
76.6771
76.7178
76.7415
76.8042
79.1304
76.5262
75.9807
76.1315
76.2814
76.3232
76.3121
76.2862
76.2621
76.2422
76.2286
76.2183
76.2134
76.2096
76.2108
76.2113
76.2171
76.2206
76.2303
76.2359
76.2496
76.257
76.275
76.2839
76.3069
76.3173
76.3461
76.3582
76.3933
76.4081
76.4488
76.4698
76.5091
76.5483
76.57
78.8429
76.2491
75.6996
75.841
75.9839
76.0211
76.0074
75.9803
75.956
75.9366
75.9244
75.9157
75.9131
75.9116
75.9156
75.919
75.928
75.9348
75.9481
75.9578
75.9751
75.9874
76.009
76.0237
76.0502
76.0673
76.0998
76.1187
76.159
76.1787
76.2286
76.2501
76.3065
76.3379
76.3927
78.4941
75.9018
75.3598
75.5004
75.6382
75.6706
75.6539
75.6255
75.6014
75.5833
75.5731
75.567
75.5672
75.5689
75.5763
75.5832
75.5959
75.6065
75.6239
75.6374
75.6593
75.6755
75.7022
75.7209
75.7531
75.774
75.8125
75.8354
75.8814
75.9058
75.9597
75.9873
76.0441
76.0837
76.1329
78.15
75.5902
75.0361
75.1538
75.276
75.2999
75.2785
75.2478
75.2228
75.2048
75.1953
75.1905
75.1923
75.196
75.2055
75.2148
75.2301
75.2435
75.2639
75.2806
75.3059
75.3255
75.3561
75.3785
75.415
75.4397
75.483
75.5097
75.5609
75.5889
75.6486
75.6796
75.7428
75.7852
75.843
77.7111
75.162
74.6156
74.7272
74.8399
74.8564
74.8307
74.7986
74.774
74.7577
74.7508
74.749
74.7541
74.7613
74.7744
74.7874
74.8065
74.8238
74.8481
74.8689
74.8983
74.9222
74.9571
74.9838
75.0248
75.0539
75.1019
75.1329
75.1888
75.2209
75.2853
75.3196
75.3874
75.4319
75.4944
77.2392
74.7181
74.1676
74.2597
74.3559
74.3619
74.3308
74.2966
74.272
74.2572
74.2523
74.2532
74.2611
74.2714
74.2875
74.3039
74.3262
74.3469
74.3747
74.3991
74.4323
74.46
74.4988
74.5295
74.5747
74.6078
74.6601
74.6951
74.7555
74.7915
74.8603
74.8985
74.9701
75.0185
75.0848
76.6973
74.2067
73.6529
73.7237
73.8012
73.7955
73.7586
73.7227
73.6986
73.6858
73.6835
73.6875
73.6987
73.7124
73.732
73.7519
73.7777
73.8022
73.8336
73.8618
73.8987
73.9304
73.9732
74.0079
74.0572
74.0944
74.151
74.1898
74.2546
74.2943
74.3672
74.409
74.4841
74.5357
74.6048
76.0999
73.6405
73.0851
73.1341
73.191
73.1722
73.1293
73.0922
73.0697
73.0599
73.0613
73.0694
73.0846
73.1025
73.1259
73.1498
73.1795
73.2078
73.243
73.2752
73.316
73.3516
73.3984
73.4371
73.4905
73.5316
73.5924
73.6351
73.704
73.7474
73.8243
73.8697
73.948
74.0034
74.075
75.4988
73.0835
72.509
72.5231
72.5546
72.5221
72.474
72.4363
72.4155
72.4086
72.4133
72.4249
72.4435
72.4648
72.4917
72.519
72.5519
72.5837
72.6222
72.6579
72.7021
72.7412
72.7916
72.8339
72.891
72.9357
73.0003
73.0464
73.1192
73.1658
73.2464
73.295
73.3763
73.435
73.5084
74.7877
72.4068
71.8275
71.8171
71.8251
71.7784
71.7252
71.6884
71.6711
71.6692
71.6793
71.6963
71.7199
71.7463
71.7777
71.8096
71.8468
71.8829
71.9255
71.9653
72.0135
72.0567
72.1111
72.1573
72.2185
72.267
72.3358
72.3855
72.4625
72.5125
72.597
72.649
72.7334
72.7959
72.8709
74.0534
71.7341
71.11
71.0452
71.0184
70.9555
70.8982
70.863
70.8496
70.8526
70.8674
70.8893
70.9174
70.9481
70.9835
71.0195
71.0605
71.1004
71.1468
71.1904
71.2425
71.2895
71.3479
71.3979
71.4631
71.5154
71.5883
71.6417
71.7228
71.7762
71.8647
71.9201
72.0076
72.0741
72.1502
73.1492
70.8785
70.2307
70.1295
70.0732
69.9953
69.9357
69.9046
69.8981
69.9089
69.9314
69.9605
69.9953
70.0323
70.0735
70.115
70.1612
70.2062
70.2574
70.3058
70.3625
70.4141
70.477
70.5314
70.6013
70.6577
70.7352
70.7925
70.8783
70.9354
71.0283
71.0874
71.1783
71.2495
71.3265
72.192
69.9974
69.2693
69.0937
68.9938
68.8994
68.8394
68.8143
68.816
68.8352
68.8656
68.9021
68.9434
68.9866
69.0334
69.0803
69.1313
69.1813
69.2371
69.2902
69.3514
69.4075
69.4749
69.5336
69.6081
69.6687
69.751
69.8121
69.9028
69.9635
70.0612
70.124
70.2185
70.2946
70.3718
71.0021
68.881
68.0802
67.8421
67.7032
67.5953
67.5386
67.5237
67.5375
67.5685
67.6096
67.6556
67.7053
67.7561
67.8095
67.8628
67.9195
67.9752
68.0361
68.0944
68.1604
68.2215
68.2938
68.3572
68.4366
68.5016
68.589
68.6542
68.7503
68.8147
68.9179
68.9844
69.0836
69.1654
69.2442
69.6094
67.5791
66.6554
66.3306
66.1467
66.0285
65.9797
65.9785
66.0068
66.0512
66.104
66.16
66.2182
66.2764
66.3362
66.3954
66.4574
66.5182
66.5838
66.6471
66.7177
66.7838
66.8606
66.929
67.0132
67.083
67.1755
67.2452
67.347
67.4154
67.525
67.5954
67.7005
67.7874
67.8685
67.9181
65.9889
64.8818
64.4393
64.1984
64.0701
64.0334
64.0499
64.095
64.1533
64.2171
64.2818
64.347
64.4109
64.4759
64.5398
64.6064
64.6719
64.7419
64.8102
64.8855
64.9571
65.039
65.1135
65.2031
65.2793
65.378
65.4542
65.5631
65.6378
65.756
65.8323
65.948
66.0425
66.1352
65.3961
63.5126
62.2585
61.7688
61.5189
61.4084
61.3985
61.4399
61.5048
61.5786
61.654
61.7273
61.7993
61.8693
61.94
62.0101
62.0835
62.1568
62.2354
62.3134
62.3986
62.4814
62.574
62.6607
62.7616
62.8509
62.9612
63.051
63.1724
63.2607
63.393
63.4814
63.6144
63.7182
63.8289
61.562
60.0528
58.4385
57.7741
57.4761
57.3797
57.401
57.4691
57.5567
57.649
57.7449
57.8393
57.9371
58.0337
58.1351
58.2356
58.3417
58.4465
58.5573
58.666
58.7813
58.8932
59.013
59.1277
59.2529
59.3697
59.5023
59.62
59.7624
59.879
60.0328
60.1487
60.309
60.437
60.594
52.9315
55.1632
53.2032
51.9857
51.3893
51.1876
51.2124
51.3243
51.4858
51.6564
51.8423
52.0182
52.2014
52.3684
52.5423
52.6986
52.8643
53.0123
53.1712
53.3119
53.4639
53.5994
53.7472
53.8819
54.0289
54.1663
54.315
54.4559
54.6098
54.7499
54.918
55.0397
55.2477
55.3011
55.5814
13.0796
12.358
12.7425
12.8839
12.9688
13.0187
13.0659
13.0986
13.1389
13.1689
13.2127
13.2437
13.29
13.3226
13.3723
13.4074
13.4608
13.4984
13.5555
13.5955
13.6566
13.6985
13.7641
13.8077
13.8793
13.9228
14.0025
14.0427
14.1338
14.1645
14.2727
14.2839
14.4174
14.3924
14.5546
52.7832
51.7578
51.3203
51.2782
51.3466
51.3941
51.408
51.4019
51.3892
51.3746
51.3624
51.3509
51.3434
51.3355
51.3325
51.3271
51.3277
51.3242
51.3277
51.3254
51.3312
51.3303
51.3377
51.3383
51.347
51.3491
51.3596
51.3626
51.3762
51.3789
51.3978
51.399
51.4265
51.4224
51.4698
52.5867
51.5747
51.1396
51.0913
51.1538
51.196
51.2072
51.1983
51.1848
51.1688
51.1571
51.145
51.1387
51.1309
51.1295
51.1247
51.1273
51.1244
51.1305
51.1286
51.1381
51.1365
51.1496
51.1477
51.1646
51.1622
51.1831
51.1805
51.2049
51.2033
51.2296
51.232
51.2555
51.2672
51.2835
52.3671
51.3603
50.9262
50.8741
50.9322
50.9705
50.9789
50.9677
50.9532
50.9363
50.9247
50.9127
50.9074
50.9002
50.9002
50.8965
50.9008
50.8995
50.9073
50.9076
50.9186
50.9201
50.9342
50.9363
50.954
50.956
50.9782
50.9792
51.0074
51.0061
51.0417
51.0382
51.0802
51.0761
51.1275
52.1144
51.1046
50.6739
50.6226
50.6789
50.714
50.7196
50.7062
50.6906
50.6732
50.662
50.6506
50.6465
50.6407
50.6425
50.6405
50.647
50.6476
50.658
50.6602
50.6743
50.6776
50.6954
50.6991
50.721
50.7246
50.7512
50.7541
50.7862
50.7881
50.8256
50.8275
50.8679
50.8722
50.9156
51.8439
50.8526
50.4247
50.3646
50.4107
50.438
50.4382
50.4215
50.4037
50.3853
50.3737
50.3626
50.359
50.354
50.3569
50.3561
50.364
50.366
50.3781
50.3819
50.398
50.4029
50.4231
50.4285
50.4532
50.4585
50.4883
50.4927
50.5286
50.5317
50.5738
50.5764
50.6224
50.6266
50.678
51.5236
50.5345
50.1128
50.0522
50.0935
50.1153
50.1108
50.0911
50.0717
50.0528
50.0415
50.0312
50.029
50.0256
50.0302
50.0313
50.0413
50.0454
50.0598
50.0659
50.0844
50.0917
50.1146
50.1224
50.15
50.1577
50.1907
50.1974
50.2368
50.2417
50.2878
50.2915
50.3421
50.346
50.4024
51.1696
50.1936
49.7765
49.7092
49.7401
49.753
49.7422
49.7187
49.6971
49.6776
49.6664
49.657
49.6559
49.6539
49.6601
49.663
49.6747
49.6808
49.6971
49.7052
49.726
49.7353
49.7605
49.7705
49.8007
49.8104
49.8463
49.855
49.8975
49.9044
49.9537
49.9592
50.0131
50.0188
50.0788
50.7657
49.8042
49.3929
49.3181
49.3372
49.3397
49.3216
49.2939
49.2702
49.2501
49.2393
49.231
49.2312
49.231
49.239
49.244
49.2577
49.2659
49.2844
49.2947
49.3178
49.3294
49.3572
49.3694
49.4023
49.4143
49.4532
49.464
49.5097
49.5184
49.5711
49.5783
49.6355
49.6422
49.7056
50.3251
49.3784
48.9731
48.8904
48.8966
48.8874
48.8611
48.8289
48.8032
48.7829
48.7729
48.7661
48.7681
48.77
48.7801
48.7873
48.8032
48.8137
48.8345
48.8471
48.8725
48.8864
48.9167
48.9311
48.9668
48.9809
49.0227
49.0355
49.0842
49.0949
49.1506
49.1597
49.2198
49.2283
49.2945
49.8716
48.9497
48.5449
48.4466
48.4346
48.4115
48.3767
48.3404
48.3131
48.2931
48.2841
48.279
48.2829
48.2869
48.299
48.3083
48.3264
48.339
48.3619
48.3767
48.4044
48.4204
48.453
48.4696
48.5077
48.5239
48.5683
48.5831
48.6347
48.6471
48.7058
48.7164
48.7793
48.7892
48.8581
49.3498
48.4479
48.0478
47.9394
47.9116
47.8745
47.8308
47.7901
47.7613
47.7418
47.7343
47.7314
47.7376
47.7442
47.7589
47.7709
47.7914
47.8066
47.832
47.8493
47.8795
47.8979
47.9332
47.9521
47.993
48.0114
48.0587
48.0756
48.1302
48.1444
48.2062
48.2185
48.2843
48.2959
48.3673
48.7892
47.9265
47.5168
47.3802
47.3246
47.2688
47.2152
47.1708
47.1416
47.1238
47.1185
47.1186
47.1275
47.1371
47.1545
47.1693
47.1924
47.2103
47.2383
47.258
47.2909
47.3117
47.3497
47.3709
47.4147
47.4353
47.4856
47.5045
47.5623
47.5784
47.6434
47.6574
47.7261
47.7394
47.8132
48.12
47.2929
46.8805
46.7252
46.6467
46.5731
46.5095
46.4612
46.4315
46.4156
46.413
46.4165
46.4288
46.442
46.4626
46.4808
46.5071
46.5282
46.5592
46.582
46.6179
46.6416
46.6827
46.7065
46.7535
46.7765
46.8303
46.8513
46.9126
46.9306
46.9992
47.0151
47.0869
47.1024
47.1787
47.3838
46.6131
46.1743
45.9755
45.8589
45.762
45.6882
45.6376
45.6098
45.5976
45.5994
45.6075
45.624
45.6416
45.6659
45.6879
45.7175
45.742
45.7762
45.8021
45.841
45.8675
45.9118
45.9383
45.9886
46.014
46.0714
46.0943
46.1595
46.1793
46.2518
46.2694
46.3446
46.3622
46.4409
46.484
45.7765
45.3134
45.0763
44.9237
44.8039
44.7199
44.6674
44.6417
44.6338
44.6402
44.6532
44.6741
44.6961
44.7242
44.7503
44.7832
44.8114
44.8487
44.8781
44.9201
44.9499
44.9974
45.0268
45.0807
45.1086
45.1699
45.195
45.2646
45.286
45.3631
45.3823
45.462
45.4819
45.5644
45.4147
44.7864
44.275
43.9803
43.7816
43.6364
43.5435
43.4907
43.4687
43.466
43.4776
43.4958
43.5212
43.5474
43.5791
43.609
43.6449
43.6768
43.7168
43.75
43.7948
43.8284
43.879
43.912
43.9694
44.0005
44.0658
44.0936
44.1677
44.1912
44.2736
44.2945
44.3797
44.4012
44.4888
44.0999
43.5677
42.9759
42.598
42.3371
42.1588
42.0545
42.0001
41.9812
41.9827
41.9987
42.0211
42.0504
42.0805
42.1158
42.1496
42.1892
42.2255
42.2693
42.3073
42.3558
42.3948
42.449
42.4876
42.5487
42.5853
42.6547
42.6875
42.7668
42.7945
42.8834
42.9076
43.0012
43.0262
43.1249
42.3714
41.8213
41.1162
40.6649
40.3554
40.151
40.0389
39.9827
39.968
39.9734
39.996
40.0236
40.0594
40.0953
40.1373
40.1777
40.2244
40.2682
40.3196
40.3662
40.4224
40.4708
40.5324
40.5812
40.6491
40.6963
40.7723
40.8159
40.902
40.9402
41.0376
41.071
41.176
41.2077
41.3208
39.7933
39.4415
38.47
37.8243
37.417
37.1802
37.0766
37.0376
37.0502
37.077
37.1275
37.1758
37.2394
37.2962
37.3657
37.4271
37.5
37.5645
37.6397
37.7061
37.7828
37.8502
37.9284
37.9959
38.0767
38.1436
38.2291
38.2941
38.3875
38.4489
38.5533
38.61
38.7259
38.7803
38.9133
35.6272
38.262
37.051
35.8398
35.0299
34.5611
34.3377
34.2365
34.2259
34.2455
34.3083
34.3696
34.4588
34.5336
34.6316
34.709
34.8081
34.8841
34.9815
35.055
35.1488
35.2201
35.31
35.3812
35.4682
35.5415
35.6274
35.7031
35.7917
35.8659
35.9664
36.0256
36.1576
36.1768
36.3572
14.3891
13.784
14.257
14.436
14.53
14.5751
14.6148
14.6371
14.6707
14.6915
14.729
14.7526
14.7949
14.8218
14.8692
14.8999
14.9523
14.9863
15.0435
15.0805
15.1423
15.1817
15.2484
15.2895
15.3625
15.4036
15.4847
15.5225
15.615
15.6435
15.7526
15.7629
15.8956
15.8736
16.0309
37.6296
37.2291
36.9732
36.8768
36.8772
36.8994
36.9145
36.917
36.9127
36.9037
36.8954
36.8853
36.8788
36.87
36.8666
36.8591
36.8587
36.8523
36.8542
36.8488
36.8523
36.8478
36.8523
36.8489
36.8541
36.8512
36.8577
36.8541
36.8633
36.8574
36.8714
36.8612
36.8832
36.8647