/*--------------------------------*- C++ -*----------------------------------*\
  =========                 |
  \\      /  F ield         | OpenFOAM: The Open Source CFD Toolbox
   \\    /   O peration     | Website:  https://openfoam.org
    \\  /    A nd           | Version:  6
     \\/     M anipulation  |
\*---------------------------------------------------------------------------*/
FoamFile
{
    version     2.0;
    format      ascii;
    class       volVectorField;
    location    "17";
    object      wallShearStress;
}
// * * * * * * * * * * * * * * * * * * * * * * * * * * * * * * * * * * * * * //

dimensions      [0 2 -2 0 0 0 0];

internalField   uniform (0 0 0);

boundaryField
{
    inlet
    {
        type            calculated;
        value           uniform (0 0 0);
    }
    outlet
    {
        type            calculated;
        value           uniform (0 0 0);
    }
    roughCylinder
    {
        type            calculated;
        value           nonuniform List<vector> 
3840
(
(-0.00027055 -0.000396953 -0.000163288)
(-0.000326939 -0.000510386 -2.21203e-05)
(-0.000376164 -0.000631746 4.18134e-05)
(-0.00045122 -0.000735153 0.000123707)
(-0.000539262 -0.000809163 0.000206142)
(-0.000630577 -0.00084952 0.000278288)
(-0.000715487 -0.000860262 0.000335)
(-0.000789247 -0.000852735 0.000374836)
(-0.000852318 -0.000846317 0.000402102)
(-0.000900911 -0.000844923 0.000416405)
(-0.000939602 -0.000852581 0.00041975)
(-0.000971764 -0.000867734 0.0004143)
(-0.00100047 -0.000888767 0.000402598)
(-0.00102864 -0.000914188 0.000386713)
(-0.00105829 -0.00094306 0.000368076)
(-0.00109055 -0.000974872 0.000347343)
(-0.00112576 -0.0010093 0.000324587)
(-0.00116374 -0.00104602 0.000299514)
(-0.00120395 -0.00108448 0.00027151)
(-0.00124563 -0.00112391 0.000239759)
(-0.00128748 -0.00116298 0.000202751)
(-0.00132784 -0.00119989 0.000158414)
(-0.00136238 -0.00123119 0.000103007)
(-0.00138436 -0.00125119 3.57681e-05)
(-0.000290121 -0.000384586 -0.000155849)
(-0.000349846 -0.000494909 -2.60947e-05)
(-0.000401661 -0.000615867 3.33179e-05)
(-0.000479072 -0.000720486 0.000111701)
(-0.00056904 -0.000797083 0.000192149)
(-0.000662319 -0.000840413 0.000263221)
(-0.000750245 -0.000855262 0.000319909)
(-0.000828937 -0.000853874 0.00036178)
(-0.000896951 -0.000850662 0.000391592)
(-0.000949537 -0.000848052 0.000407413)
(-0.000990205 -0.000854375 0.000411408)
(-0.00102431 -0.00086887 0.000406273)
(-0.0010549 -0.000889695 0.000394804)
(-0.00108498 -0.000915134 0.000379143)
(-0.00111663 -0.000944128 0.000360794)
(-0.00115098 -0.000976063 0.000340438)
(-0.00118837 -0.00101059 0.000318162)
(-0.0012286 -0.00104734 0.000293665)
(-0.00127109 -0.00108579 0.000266319)
(-0.00131503 -0.00112514 0.000235309)
(-0.00135906 -0.00116407 0.000199104)
(-0.00140145 -0.00120081 0.000155661)
(-0.00143766 -0.00123191 0.000101268)
(-0.00146068 -0.00125175 3.51627e-05)
(-0.000309791 -0.000366847 -0.000142828)
(-0.000372145 -0.000473773 -3.06427e-05)
(-0.000426324 -0.00059325 2.39714e-05)
(-0.000505599 -0.000698394 9.84835e-05)
(-0.000597384 -0.000777432 0.000176675)
(-0.000693 -0.000824461 0.0002468)
(-0.000784645 -0.000844568 0.000304128)
(-0.000868248 -0.000849119 0.000348122)
(-0.000940807 -0.000848819 0.000379813)
(-0.000998067 -0.00084621 0.000397308)
(-0.00104084 -0.000850843 0.000401939)
(-0.00107696 -0.000864481 0.000397142)
(-0.00110955 -0.000884873 0.000385974)
(-0.00114165 -0.000910133 0.000370621)
(-0.00117536 -0.000939024 0.000352637)
(-0.00121185 -0.000970861 0.000332739)
(-0.00125145 -0.00100525 0.000311021)
(-0.00129395 -0.00104179 0.000287181)
(-0.00133872 -0.00107996 0.000260577)
(-0.00138491 -0.00111896 0.000230389)
(-0.00143107 -0.00115747 0.00019507)
(-0.00147545 -0.00119378 0.000152611)
(-0.00151327 -0.00122446 9.93411e-05)
(-0.0015373 -0.00124401 3.44924e-05)
(-0.000327266 -0.000344711 -0.000126079)
(-0.000391504 -0.000447625 -3.53384e-05)
(-0.0004475 -0.000564665 1.41611e-05)
(-0.000528045 -0.000669822 8.44659e-05)
(-0.000621575 -0.000751292 0.000160106)
(-0.000719876 -0.000802638 0.00022926)
(-0.000815555 -0.000828623 0.000287431)
(-0.000903991 -0.000838879 0.000333467)
(-0.000981232 -0.000841654 0.000366905)
(-0.0010436 -0.000840388 0.000386267)
(-0.00108916 -0.000842842 0.000391557)
(-0.00112742 -0.000855407 0.000387209)
(-0.00116216 -0.000875193 0.000376425)
(-0.00119634 -0.000900088 0.000361463)
(-0.00123217 -0.000928725 0.000343928)
(-0.00127082 -0.000960297 0.000324563)
(-0.0013126 -0.000994351 0.000303472)
(-0.00135731 -0.00103049 0.000280353)
(-0.00140425 -0.00106815 0.000254545)
(-0.00145257 -0.00110657 0.000225231)
(-0.00150074 -0.00114446 0.000190846)
(-0.00154699 -0.00118012 0.00014942)
(-0.0015863 -0.0012102 9.7328e-05)
(-0.00161124 -0.00122934 3.37929e-05)
(-0.00034159 -0.000318748 -0.000107359)
(-0.000407175 -0.000417169 -3.98219e-05)
(-0.000464307 -0.000530787 4.27403e-06)
(-0.000545478 -0.000635333 6.99818e-05)
(-0.00064066 -0.000719132 0.000142686)
(-0.000741925 -0.000775149 0.000210706)
(-0.000841814 -0.000807155 0.00026964)
(-0.000935023 -0.000822787 0.000317542)
(-0.00101702 -0.000828665 0.000352754)
(-0.001084 -0.000828886 0.000373684)
(-0.00113405 -0.0008298 0.000380118)
(-0.00117471 -0.000841117 0.000376486)
(-0.00121173 -0.000860009 0.000366189)
(-0.00124811 -0.000884355 0.000351731)
(-0.00128605 -0.000912523 0.00033473)
(-0.00132682 -0.000943622 0.000315978)
(-0.00137073 -0.000977133 0.000295587)
(-0.00141754 -0.00101264 0.000273252)
(-0.00146654 -0.00104956 0.000248298)
(-0.00151684 -0.00108718 0.000219906)
(-0.00156684 -0.00112418 0.000186492)
(-0.00161478 -0.00115899 0.000146135)
(-0.00165544 -0.00118827 9.52597e-05)
(-0.00168118 -0.00120687 3.30752e-05)
(-0.000352835 -0.000290467 -8.8001e-05)
(-0.000418742 -0.000383479 -4.39437e-05)
(-0.000476224 -0.000492834 -5.44384e-06)
(-0.000557412 -0.000596168 5.52613e-05)
(-0.000654078 -0.000682103 0.000124584)
(-0.000758394 -0.000742811 0.000191196)
(-0.000862543 -0.00078059 0.000250641)
(-0.000960525 -0.000801154 0.000300163)
(-0.00104736 -0.000810007 0.000337125)
(-0.0011192 -0.000811812 0.000359544)
(-0.00117499 -0.000812795 0.000367709)
(-0.00121838 -0.000821802 0.000364879)
(-0.00125787 -0.000839577 0.000355234)
(-0.00129652 -0.000863051 0.000341401)
(-0.00133665 -0.000890542 0.000325053)
(-0.00137952 -0.000920959 0.000307009)
(-0.00142548 -0.000953709 0.000287393)
(-0.00147426 -0.000988344 0.000265908)
(-0.00152515 -0.00102429 0.000241861)
(-0.00157722 -0.00106085 0.000214433)
(-0.00162884 -0.00109676 0.000182026)
(-0.0016783 -0.00113048 0.000142769)
(-0.00172011 -0.00115879 9.3145e-05)
(-0.00174654 -0.00117674 3.23421e-05)
(-0.000359362 -0.000259818 -6.86047e-05)
(-0.000425252 -0.000347199 -4.75034e-05)
(-0.00048228 -0.000451455 -1.48122e-05)
(-0.000562732 -0.000552905 4.04179e-05)
(-0.000660521 -0.000640619 0.000105825)
(-0.000767877 -0.000705888 0.000170623)
(-0.000876436 -0.000749216 0.000230242)
(-0.000979387 -0.000774431 0.000281132)
(-0.00107135 -0.00078624 0.00031983)
(-0.00114836 -0.000789689 0.000343883)
(-0.00120964 -0.000791341 0.000353767)
(-0.00125768 -0.000798417 0.000352248)
(-0.0012999 -0.000814457 0.000343497)
(-0.00134104 -0.000836869 0.000330467)
(-0.00138337 -0.000863401 0.000314894)
(-0.0014283 -0.000892894 0.000297655)
(-0.00147621 -0.000924677 0.000278903)
(-0.00152685 -0.000958247 0.000258341)
(-0.00157945 -0.000993033 0.000235258)
(-0.00163311 -0.00102834 0.000208843)
(-0.00168612 -0.00106293 0.000177469)
(-0.00173686 -0.00109537 0.000139339)
(-0.00177963 -0.00112254 9.09949e-05)
(-0.0018066 -0.00113974 3.15975e-05)
(-0.000362408 -0.000228805 -5.00986e-05)
(-0.000426682 -0.000309571 -5.05623e-05)
(-0.000482195 -0.000407937 -2.36297e-05)
(-0.000561026 -0.000506655 2.57327e-05)
(-0.000659392 -0.000595559 8.66127e-05)
(-0.000769543 -0.000664985 0.000149034)
(-0.000882396 -0.000713408 0.000208339)
(-0.000990444 -0.000742961 0.000260265)
(-0.00108775 -0.000757636 0.000300609)
(-0.00117036 -0.000762862 0.000326513)
(-0.00123726 -0.000765333 0.000338181)
(-0.00129096 -0.000771659 0.000338404)
(-0.00133692 -0.000785568 0.000330908)
(-0.00138067 -0.000806137 0.000318846)
(-0.00142532 -0.000831514 0.000304222)
(-0.00147234 -0.000859894 0.000287919)
(-0.00152209 -0.000890493 0.000270125)
(-0.00157439 -0.000922784 0.000250557)
(-0.00162845 -0.000956182 0.000228495)
(-0.00168339 -0.000990043 0.000203133)
(-0.0017375 -0.00102325 0.000172827)
(-0.00178927 -0.00105431 0.00013585)
(-0.00183277 -0.00108025 8.88145e-05)
(-0.00186012 -0.0010967 3.08445e-05)
(-0.000358562 -0.000196192 -3.25823e-05)
(-0.000421494 -0.000270415 -5.26486e-05)
(-0.000474662 -0.000362185 -3.17286e-05)
(-0.000550862 -0.000457369 1.13282e-05)
(-0.000649013 -0.000546697 6.70168e-05)
(-0.000761634 -0.000619828 0.00012636)
(-0.000878917 -0.000673155 0.000184776)
(-0.000992359 -0.000706949 0.000237364)
(-0.00109556 -0.000724622 0.000279284)
(-0.00118415 -0.000731677 0.000307184)
(-0.00125697 -0.00073504 0.000320895)
(-0.00131627 -0.000741103 0.000323028)
(-0.0013671 -0.00075356 0.000317206)
(-0.00141464 -0.000772471 0.000306588)
(-0.00146163 -0.000796126 0.000293082)
(-0.00151062 -0.000823065 0.00027784)
(-0.0015621 -0.000852325 0.000261113)
(-0.00161587 -0.000883257 0.000242629)
(-0.00167116 -0.000915241 0.000221652)
(-0.00172708 -0.000947619 0.000197384)
(-0.00178176 -0.000979221 0.00016814)
(-0.00183415 -0.00100872 0.000132318)
(-0.00187798 -0.0010333 8.66091e-05)
(-0.00190537 -0.00104885 3.00816e-05)
(-0.000351851 -0.000164926 -1.69043e-05)
(-0.000410609 -0.000231755 -5.45018e-05)
(-0.000460187 -0.000316216 -3.86853e-05)
(-0.000532595 -0.000406628 -2.26028e-06)
(-0.000629537 -0.000495362 4.74564e-05)
(-0.000743989 -0.00057146 0.000102875)
(-0.00086529 -0.000629114 0.000159631)
(-0.00098424 -0.000666976 0.000212385)
(-0.00109355 -0.000687568 0.00025566)
(-0.00118864 -0.000696538 0.000285672)
(-0.0012678 -0.000700817 0.000301715)
(-0.00133293 -0.000706732 0.000306043)
(-0.00138872 -0.000718133 0.000302166)
(-0.00144001 -0.000735501 0.000293201)
(-0.00148993 -0.000757419 0.000281122)
(-0.00154108 -0.000782771 0.000267175)
(-0.00159405 -0.000810441 0.000251646)
(-0.00164886 -0.000839749 0.000234321)
(-0.00170478 -0.000870048 0.000214474)
(-0.00176103 -0.000900659 0.000191325)
(-0.00181585 -0.000930396 0.000163181)
(-0.00186851 -0.000958166 0.000128577)
(-0.00191235 -0.000981227 8.42721e-05)
(-0.00193959 -0.000995784 2.92731e-05)
(-0.000335197 -0.000134145 -3.02025e-06)
(-0.000392578 -0.000191796 -5.37566e-05)
(-0.000437184 -0.000268953 -4.48215e-05)
(-0.000504409 -0.000353803 -1.50987e-05)
(-0.00059872 -0.000440815 2.81096e-05)
(-0.00071425 -0.000519157 7.86177e-05)
(-0.000839752 -0.000581154 0.00013285)
(-0.000964516 -0.000623193 0.000185183)
(-0.00108067 -0.000647021 0.000229631)
(-0.00118273 -0.00065794 0.000261787)
(-0.00126874 -0.000663124 0.000280422)
(-0.00134011 -0.000668902 0.00028729)
(-0.00140103 -0.00067924 0.000285654)
(-0.00145633 -0.000695083 0.000278612)
(-0.00150917 -0.000715216 0.000268186)
(-0.0015623 -0.000738765 0.000255718)
(-0.00161662 -0.000764625 0.000241545)
(-0.00167224 -0.000792071 0.000225498)
(-0.0017285 -0.000820443 0.000206871)
(-0.00178477 -0.000849082 0.000184916)
(-0.00183941 -0.000876829 0.00015794)
(-0.00189191 -0.000902695 0.000124615)
(-0.00193541 -0.000924135 8.1797e-05)
(-0.00196227 -0.00093761 2.84171e-05)
(-0.000313347 -0.000106014 5.2047e-06)
(-0.000370579 -0.00015652 -5.02285e-05)
(-0.000408417 -0.000222955 -4.90044e-05)
(-0.000468295 -0.000301308 -2.64373e-05)
(-0.00055828 -0.000385271 9.58836e-06)
(-0.000673612 -0.000464788 5.41709e-05)
(-0.000802153 -0.000530262 0.000104767)
(-0.000932647 -0.000576413 0.000155909)
(-0.00105568 -0.000603444 0.000201098)
(-0.00116538 -0.000616487 0.000235403)
(-0.00125879 -0.00062253 0.000256845)
(-0.00133682 -0.000628084 0.000266592)
(-0.00140336 -0.000637345 0.000267575)
(-0.00146276 -0.000651482 0.000262742)
(-0.00151865 -0.000669726 0.000254242)
(-0.00157386 -0.000691339 0.000243484)
(-0.00162934 -0.000715194 0.000230827)
(-0.00168547 -0.000740576 0.000216182)
(-0.00174166 -0.000766824 0.000198865)
(-0.00179743 -0.000793283 0.000178169)
(-0.00185129 -0.000818834 0.000152404)
(-0.0019033 -0.00084272 0.00012043)
(-0.00194606 -0.000862436 7.91821e-05)
(-0.00197227 -0.000874768 2.75133e-05)
(-0.000282117 -7.74435e-05 1.24837e-05)
(-0.000340899 -0.000124007 -4.83454e-05)
(-0.000371188 -0.000179224 -5.07203e-05)
(-0.000421675 -0.00024895 -3.51747e-05)
(-0.000505071 -0.000327668 -7.32263e-06)
(-0.000618599 -0.000406947 2.99904e-05)
(-0.000750494 -0.000476074 7.5674e-05)
(-0.000886895 -0.000526592 0.00012464)
(-0.00101774 -0.00055746 0.000170132)
(-0.00113548 -0.000572757 0.000206436)
(-0.00123687 -0.000579677 0.000230863)
(-0.00132216 -0.000584919 0.000243836)
(-0.00139457 -0.000592909 0.000247795)
(-0.00145859 -0.000605281 0.000245572)
(-0.00151762 -0.000621454 0.000239291)
(-0.0015747 -0.000640892 0.000230452)
(-0.00163116 -0.000662566 0.000219493)
(-0.0016875 -0.000685738 0.000206384)
(-0.00174325 -0.000709735 0.000190481)
(-0.00179813 -0.000733928 0.000171123)
(-0.00185092 -0.000757287 0.000146634)
(-0.00190189 -0.000779068 0.000116055)
(-0.00194351 -0.000797019 7.64508e-05)
(-0.00196882 -0.000808177 2.65698e-05)
(-0.000245585 -5.10721e-05 1.85518e-05)
(-0.000305207 -9.48337e-05 -4.74021e-05)
(-0.000329026 -0.000140103 -5.08172e-05)
(-0.000368896 -0.000199863 -4.12573e-05)
(-0.000443394 -0.000271461 -2.18098e-05)
(-0.000553153 -0.00034885 7.16139e-06)
(-0.000685623 -0.000419829 4.63677e-05)
(-0.000827415 -0.000474632 9.19122e-05)
(-0.000965539 -0.00050931 0.000136851)
(-0.0010921 -0.00052736 0.000174938)
(-0.00120214 -0.000535322 0.000202455)
(-0.00129513 -0.000540149 0.00021895)
(-0.00137405 -0.000546779 0.000226309)
(-0.00144272 -0.000557094 0.000227036)
(-0.00150509 -0.00057106 0.000223312)
(-0.00156424 -0.000588239 0.000216686)
(-0.00162146 -0.00060759 0.000207614)
(-0.00167765 -0.000628422 0.000196171)
(-0.00173246 -0.000650058 0.000181768)
(-0.00178583 -0.000671886 0.0001638)
(-0.00183672 -0.000692887 0.000140603)
(-0.00188632 -0.000712593 0.000111482)
(-0.00192633 -0.00072875 7.35949e-05)
(-0.00195044 -0.000738731 2.55838e-05)
(-0.000202 -2.82967e-05 2.28574e-05)
(-0.000260371 -6.78027e-05 -4.53584e-05)
(-0.000278676 -0.000104144 -4.91497e-05)
(-0.000307257 -0.000152862 -4.40982e-05)
(-0.00037003 -0.000215093 -3.27574e-05)
(-0.000472244 -0.000287652 -1.32597e-05)
(-0.000605919 -0.000360806 1.77868e-05)
(-0.000752591 -0.000420035 5.8308e-05)
(-0.000899228 -0.00045971 0.000101802)
(-0.00103461 -0.00048084 0.000141126)
(-0.00115363 -0.000490073 0.000171661)
(-0.00125498 -0.000494599 0.000191943)
(-0.00134061 -0.000499684 0.000203041)
(-0.00141458 -0.000507916 0.000207165)
(-0.00148037 -0.000519482 0.000206331)
(-0.00154125 -0.000534152 0.000202156)
(-0.001599 -0.00055108 0.000195173)
(-0.0016547 -0.000569512 0.000185535)
(-0.00170814 -0.000588771 0.000172732)
(-0.00175956 -0.000608272 0.000156221)
(-0.00180835 -0.000627074 0.000134373)
(-0.00185594 -0.000644658 0.000106739)
(-0.00189393 -0.000659077 7.06367e-05)
(-0.00191656 -0.000667915 2.45631e-05)
(-0.000154686 -1.03342e-05 2.4888e-05)
(-0.000211367 -4.49429e-05 -4.24427e-05)
(-0.00022687 -7.40095e-05 -4.69624e-05)
(-0.000243795 -0.000111513 -4.46484e-05)
(-0.00028961 -0.000161483 -3.92752e-05)
(-0.000384785 -0.000228623 -2.92461e-05)
(-0.000513671 -0.000299987 -8.44922e-06)
(-0.000664126 -0.000363588 2.51437e-05)
(-0.000817204 -0.000408021 6.55884e-05)
(-0.000962217 -0.000433371 0.000105426)
(-0.00109094 -0.000444586 0.000138755)
(-0.00120091 -0.000449003 0.000162905)
(-0.00129392 -0.00045268 0.000178096)
(-0.00137306 -0.000458596 0.000185924)
(-0.00144246 -0.000467676 0.000188337)
(-0.00150539 -0.000479864 0.000186946)
(-0.0015634 -0.000494308 0.000182254)
(-0.00161815 -0.000510318 0.000174544)
(-0.00166964 -0.000527199 0.000163419)
(-0.00171836 -0.000544385 0.0001484)
(-0.00176406 -0.000560909 0.000127889)
(-0.00180922 -0.000576485 0.000101799)
(-0.00184465 -0.000589207 6.75513e-05)
(-0.00186545 -0.000596949 2.34982e-05)
(-0.000104216 3.39906e-06 2.57331e-05)
(-0.000154251 -2.42753e-05 -3.76846e-05)
(-0.000167089 -4.69304e-05 -4.18792e-05)
(-0.00017848 -7.38407e-05 -3.7604e-05)
(-0.000221718 -0.000110602 -3.96358e-05)
(-0.000286384 -0.000164642 -4.32106e-05)
(-0.000409911 -0.000237365 -3.11811e-05)
(-0.000560874 -0.000304044 -6.06901e-06)
(-0.000722096 -0.000355248 2.97124e-05)
(-0.000875545 -0.000385291 6.87128e-05)
(-0.00101361 -0.000399146 0.000104186)
(-0.00113263 -0.000404071 0.000132112)
(-0.00123289 -0.000406438 0.000151521)
(-0.00131792 -0.000410271 0.000163433)
(-0.00139092 -0.000416811 0.000169397)
(-0.00145528 -0.000426336 0.000171011)
(-0.00151323 -0.000438291 0.000168809)
(-0.00156665 -0.000451934 0.000163154)
(-0.00161572 -0.000466537 0.000153797)
(-0.00166127 -0.000481579 0.000140328)
(-0.00170369 -0.000496081 0.000121201)
(-0.00174587 -0.000509749 9.66851e-05)
(-0.00177833 -0.000520928 6.43595e-05)
(-0.00179704 -0.000527668 2.23969e-05)
(-5.59952e-05 9.16839e-06 2.31344e-05)
(-0.000104735 -1.25789e-05 -2.90821e-05)
(-0.000121855 -2.68242e-05 -3.85621e-05)
(-0.000123007 -4.47277e-05 -4.81994e-05)
(-0.000123265 -8.19085e-05 -3.9346e-05)
(-0.000201131 -0.000118003 -3.19195e-05)
(-0.000299784 -0.000170968 -4.41123e-05)
(-0.000448393 -0.000242777 -3.26246e-05)
(-0.00061138 -0.00029908 -4.19664e-06)
(-0.000774243 -0.000335956 3.22556e-05)
(-0.000922006 -0.000353915 6.87852e-05)
(-0.00104976 -0.000360126 9.99975e-05)
(-0.00115788 -0.000361888 0.000123656)
(-0.00124816 -0.000363683 0.00013975)
(-0.00132481 -0.000367823 0.000149532)
(-0.00139106 -0.000374923 0.00015448)
(-0.0014486 -0.000384483 0.000154951)
(-0.00150012 -0.000395855 0.000151445)
(-0.00154611 -0.000408284 0.000143911)
(-0.0015876 -0.000421288 0.000132)
(-0.00162569 -0.00043379 0.00011423)
(-0.0016643 -0.000445704 9.13348e-05)
(-0.00169312 -0.000455434 6.1008e-05)
(-0.00170937 -0.000461249 2.12386e-05)
(-1.57933e-05 1.05093e-05 1.39282e-05)
(-3.10912e-05 -4.48036e-06 -2.31494e-05)
(-4.05073e-05 -1.34017e-05 -2.82843e-05)
(-5.15563e-05 -3.10838e-05 -3.58958e-05)
(-5.45776e-05 -4.65902e-05 -2.83325e-05)
(-8.4107e-05 -6.75186e-05 -2.08087e-05)
(-0.000194332 -0.000113279 -3.60524e-05)
(-0.000323997 -0.000173133 -4.84911e-05)
(-0.000492718 -0.000241551 -3.28286e-05)
(-0.000660343 -0.000285092 -2.15413e-06)
(-0.000816562 -0.000308531 3.37693e-05)
(-0.000953135 -0.000317463 6.73646e-05)
(-0.0010681 -0.00031922 9.48306e-05)
(-0.00116432 -0.000319765 0.000115185)
(-0.00124436 -0.000321773 0.000128918)
(-0.0013114 -0.000326432 0.000137309)
(-0.00136802 -0.000333758 0.000140599)
(-0.00141717 -0.000343061 0.000139325)
(-0.00145963 -0.000353529 0.000133679)
(-0.00149667 -0.000364799 0.000123375)
(-0.00153031 -0.000375587 0.000106995)
(-0.00156494 -0.000385988 8.57699e-05)
(-0.00158995 -0.00039451 5.75235e-05)
(-0.00160353 -0.000399528 2.00332e-05)
(3.78335e-06 7.0978e-06 7.22489e-06)
(-1.14705e-06 -2.27035e-06 -1.47174e-05)
(-1.03092e-05 -8.91813e-06 -2.06134e-05)
(-2.32734e-05 -1.86907e-05 -2.22248e-05)
(-3.49701e-05 -1.90287e-05 -2.67493e-05)
(-4.23997e-05 -3.70705e-05 -2.69081e-05)
(-7.63963e-05 -5.09174e-05 -2.13867e-05)
(-0.000231175 -0.000112235 -4.93549e-05)
(-0.000362128 -0.000174078 -5.44757e-05)
(-0.000535958 -0.000232203 -3.19384e-05)
(-0.000699471 -0.000262702 7.81483e-07)
(-0.000842936 -0.000275594 3.52281e-05)
(-0.000965238 -0.000278907 6.58076e-05)
(-0.00106583 -0.000278716 9.0014e-05)
(-0.00114897 -0.00027917 0.000107676)
(-0.00121741 -0.000282012 0.000119723)
(-0.00127265 -0.000287408 0.000125933)
(-0.00131874 -0.000294891 0.0001269)
(-0.00135692 -0.000303564 0.000123145)
(-0.00138842 -0.000313253 0.000114413)
(-0.00141656 -0.000322359 9.93826e-05)
(-0.0014466 -0.000331461 7.98863e-05)
(-0.00146684 -0.000338816 5.3801e-05)
(-0.00147737 -0.000343079 1.87408e-05)
(2.91655e-05 6.6647e-06 2.33486e-05)
(2.24641e-05 9.73635e-06 -5.70736e-07)
(1.35804e-05 6.74712e-06 -1.43558e-05)
(4.18164e-07 -1.24969e-06 -2.02303e-05)
(-1.59666e-05 -1.34632e-05 -3.01112e-05)
(-2.27407e-05 -1.92578e-05 -3.2853e-05)
(-2.43486e-05 -1.51971e-05 -2.75006e-05)
(-7.80411e-05 -7.7726e-05 -4.3635e-05)
(-0.000269284 -0.000131463 -3.80155e-05)
(-0.000402979 -0.00017241 -5.28845e-05)
(-0.000571497 -0.000215241 -2.79694e-05)
(-0.00072215 -0.000234419 5.21171e-06)
(-0.000849107 -0.000240276 3.74075e-05)
(-0.000954638 -0.000240902 6.48819e-05)
(-0.00104016 -0.000240566 8.61819e-05)
(-0.00110802 -0.000241841 0.000101719)
(-0.00116108 -0.000245684 0.00011084)
(-0.00120357 -0.000251726 0.000114013)
(-0.0012372 -0.000258879 0.000112157)
(-0.00126313 -0.000267388 0.000105045)
(-0.00128611 -0.000275097 9.14072e-05)
(-0.00131095 -0.00028313 7.36923e-05)
(-0.00132694 -0.000289662 4.98906e-05)
(-0.00133446 -0.000293259 1.73802e-05)
(4.3586e-05 1.44476e-05 2.99896e-05)
(4.98187e-05 6.1976e-06 -1.03596e-05)
(5.01981e-05 -2.09052e-06 -1.69582e-05)
(4.41328e-05 -1.36208e-05 -1.63823e-05)
(2.83654e-05 -1.29914e-05 -1.1736e-05)
(2.54536e-06 -2.65695e-06 -3.17416e-05)
(-2.51392e-05 -2.54158e-05 -4.74556e-05)
(-4.77579e-05 -4.12893e-05 -5.87733e-05)
(-9.69662e-05 -0.000115868 -4.92953e-05)
(-0.000278083 -0.00012761 -3.39531e-05)
(-0.000440177 -0.00016418 -4.95794e-05)
(-0.00059146 -0.000192617 -2.10629e-05)
(-0.000723632 -0.000203273 1.09869e-05)
(-0.000830965 -0.000205582 4.04212e-05)
(-0.000917964 -0.000205584 6.47499e-05)
(-0.000986244 -0.000206437 8.36952e-05)
(-0.00103657 -0.000209272 9.5631e-05)
(-0.00107455 -0.000214271 0.00010084)
(-0.00110286 -0.000220041 0.000100771)
(-0.00112176 -0.00022744 9.51641e-05)
(-0.00113806 -0.000233472 8.28401e-05)
(-0.00115815 -0.000240906 6.70561e-05)
(-0.00116824 -0.000246389 4.56037e-05)
(-0.00117235 -0.000249187 1.58779e-05)
(5.90131e-05 1.54821e-05 3.66221e-05)
(7.47325e-05 9.35892e-06 -1.16156e-05)
(7.95003e-05 1.73244e-06 -1.94544e-05)
(7.7463e-05 -1.04463e-05 -2.19475e-05)
(6.71088e-05 -2.23915e-05 -1.98279e-05)
(4.71345e-05 -2.872e-05 -1.47006e-05)
(2.83242e-05 -2.49163e-05 -1.3221e-05)
(-5.29419e-05 -9.26981e-06 -3.49684e-05)
(-5.92144e-05 -4.06134e-05 -5.36824e-05)
(-0.000131982 -6.13921e-05 -3.77001e-05)
(-0.00030506 -0.000113523 -5.94434e-05)
(-0.000457354 -0.000150135 -4.08905e-05)
(-0.000589384 -0.00016625 -1.20911e-05)
(-0.000699201 -0.000172512 1.77201e-05)
(-0.000786383 -0.000174061 4.40608e-05)
(-0.00085142 -0.000174851 6.57135e-05)
(-0.000897792 -0.000177183 8.0151e-05)
(-0.000930708 -0.000181631 8.71299e-05)
(-0.000953922 -0.000186283 8.87351e-05)
(-0.000966685 -0.00019304 8.47136e-05)
(-0.000978668 -0.000197821 7.38507e-05)
(-0.00099152 -0.000204433 5.99467e-05)
(-0.000997765 -0.000209323 4.1048e-05)
(-0.000998996 -0.000211218 1.42772e-05)
(6.98459e-05 1.52034e-05 3.89057e-05)
(9.08484e-05 8.97644e-06 -1.15344e-05)
(9.97111e-05 1.56856e-06 -2.05893e-05)
(0.000101437 -1.04939e-05 -2.50355e-05)
(9.60148e-05 -2.28022e-05 -2.53944e-05)
(8.26995e-05 -3.2298e-05 -2.15666e-05)
(5.99501e-05 -3.36102e-05 -1.41259e-05)
(2.37448e-05 -4.02856e-05 1.88912e-07)
(-4.51952e-05 3.00018e-05 -2.40075e-05)
(-4.33381e-05 -1.98497e-05 -3.3804e-05)
(-0.000178677 -6.99119e-05 -4.85366e-05)
(-0.000318593 -0.000101941 -5.14137e-05)
(-0.000454305 -0.000129766 -3.02935e-05)
(-0.000560248 -0.000139748 -2.23187e-06)
(-0.000645615 -0.000144394 2.46844e-05)
(-0.000709959 -0.000146899 4.84599e-05)
(-0.000751874 -0.000149315 6.49653e-05)
(-0.000778536 -0.000153563 7.32306e-05)
(-0.000795964 -0.000157119 7.61726e-05)
(-0.000800446 -0.000163002 7.34766e-05)
(-0.000804046 -0.000165176 6.38628e-05)
(-0.000814278 -0.000172353 5.22767e-05)
(-0.000813793 -0.000175858 3.59184e-05)
(-0.000811746 -0.000176231 1.24561e-05)
(7.53396e-05 1.40661e-05 3.97512e-05)
(9.97174e-05 8.17088e-06 -1.1212e-05)
(0.00011153 1.57307e-06 -2.13817e-05)
(0.000116266 -1.00718e-05 -2.71223e-05)
(0.000114286 -2.27999e-05 -2.88546e-05)
(0.000105588 -3.35754e-05 -2.67204e-05)
(8.8936e-05 -4.02062e-05 -2.21949e-05)
(6.12637e-05 -3.48685e-05 -1.5146e-05)
(-4.99586e-06 -3.29543e-05 -2.50672e-05)
(-2.41843e-05 -1.82085e-05 -2.9974e-05)
(-6.65382e-05 -2.63369e-05 -2.58712e-05)
(-0.000223233 -5.68583e-05 -5.04966e-05)
(-0.000316751 -8.83281e-05 -4.28785e-05)
(-0.000424002 -0.000108393 -1.79022e-05)
(-0.000505659 -0.000116618 7.52184e-06)
(-0.000561139 -0.000120344 3.19628e-05)
(-0.000596882 -0.000122962 4.9815e-05)
(-0.000616813 -0.000127261 5.8746e-05)
(-0.000629863 -0.000130049 6.27329e-05)
(-0.000629033 -0.000135757 6.16356e-05)
(-0.000633407 -0.000136449 5.37024e-05)
(-0.000631705 -0.000142728 4.38752e-05)
(-0.000629649 -0.000145841 3.04892e-05)
(-0.000625563 -0.000144257 1.05219e-05)
(7.39083e-05 1.15301e-05 3.83733e-05)
(0.000100385 6.62126e-06 -9.43337e-06)
(0.000113241 1.33324e-06 -2.02471e-05)
(0.000120559 -9.19574e-06 -2.70813e-05)
(0.000121939 -2.18874e-05 -3.00262e-05)
(0.000117125 -3.37006e-05 -2.89785e-05)
(0.00010575 -4.24314e-05 -2.45214e-05)
(8.66115e-05 -4.53299e-05 -1.75401e-05)
(5.1445e-05 -3.55491e-05 -8.49121e-06)
(-6.57437e-06 -6.83029e-06 -2.84888e-05)
(-2.22842e-05 -4.62112e-06 -2.81726e-05)
(-9.62326e-05 -6.9855e-05 -4.8537e-05)
(-0.000217529 -5.2549e-05 -2.91392e-05)
(-0.000284332 -7.17215e-05 -2.94987e-05)
(-0.000361027 -8.83861e-05 -6.21436e-06)
(-0.000418085 -9.55238e-05 1.75472e-05)
(-0.000447881 -9.84478e-05 3.57793e-05)
(-0.000458746 -0.000101418 4.45233e-05)
(-0.00046768 -0.000104737 4.87904e-05)
(-0.000457467 -0.00010914 4.85761e-05)
(-0.000448227 -0.000106756 4.19013e-05)
(-0.000452167 -0.000113317 3.50938e-05)
(-0.000440733 -0.000113461 2.42444e-05)
(-0.000431552 -0.000103967 8.31664e-06)
(6.68471e-05 8.07749e-06 3.47709e-05)
(9.42114e-05 4.25175e-06 -6.82095e-06)
(0.000107736 5.89962e-08 -1.71994e-05)
(0.000116195 -8.61492e-06 -2.44338e-05)
(0.00012079 -2.01376e-05 -2.86264e-05)
(0.00012005 -3.21879e-05 -2.9209e-05)
(0.000113784 -4.21731e-05 -2.63431e-05)
(0.000100721 -4.77716e-05 -2.07268e-05)
(7.73104e-05 -4.43252e-05 -1.26074e-05)
(3.35497e-05 -2.92234e-05 -2.00421e-05)
(-2.63794e-05 -2.29923e-05 -4.88457e-05)
(-5.25125e-05 -3.63008e-05 -5.58899e-05)
(-0.000104472 -4.97516e-05 -3.13564e-05)
(-0.000189705 -3.41529e-05 -2.19498e-05)
(-0.0002415 -5.76073e-05 -1.84945e-05)
(-0.00027456 -6.89892e-05 4.06689e-06)
(-0.000295557 -7.11309e-05 2.22468e-05)
(-0.000296621 -6.25759e-05 2.98134e-05)
(-0.000305177 -7.6587e-05 3.40743e-05)
(-0.000295221 -7.99109e-05 3.62454e-05)
(-0.000298812 -6.93856e-05 3.19445e-05)
(-0.000287088 -8.17933e-05 2.50015e-05)
(-0.000287981 -7.98182e-05 1.85469e-05)
(-0.000315035 -6.12693e-05 6.24367e-06)
(5.72548e-05 4.78067e-06 3.02373e-05)
(8.40025e-05 1.41995e-06 -4.52418e-06)
(9.74935e-05 -2.14065e-06 -1.34206e-05)
(0.000106545 -9.33225e-06 -1.99565e-05)
(0.000112615 -1.88495e-05 -2.45065e-05)
(0.000115766 -2.9971e-05 -2.65099e-05)
(0.000114475 -4.0466e-05 -2.54915e-05)
(0.000107693 -4.79107e-05 -2.17858e-05)
(9.27552e-05 -4.98302e-05 -1.61066e-05)
(6.37932e-05 -4.28667e-05 -1.19538e-05)
(3.47002e-05 -3.44127e-05 -7.77481e-06)
(-4.10414e-05 2.83333e-05 -4.19428e-05)
(-5.97145e-05 -2.60175e-05 -5.76673e-05)
(-8.80971e-05 -3.44191e-05 -2.28049e-05)
(-0.000121962 -3.42128e-05 -1.45801e-05)
(-0.000166723 -4.2766e-05 -3.97979e-06)
(-0.000182059 -4.24374e-05 1.16774e-05)
(-0.000249962 -2.02367e-05 1.75271e-05)
(-0.000183097 -4.26545e-05 2.05267e-05)
(-0.000168899 -4.937e-05 2.28812e-05)
(-0.000167191 -4.16524e-05 1.87527e-05)
(-0.000146834 -5.33704e-05 1.36286e-05)
(-0.000129201 -5.80776e-05 7.15207e-06)
(-0.000145774 -0.000101842 2.44291e-06)
(4.75618e-05 2.55896e-06 2.60601e-05)
(7.24106e-05 -9.56804e-07 -3.1855e-06)
(8.50397e-05 -4.51435e-06 -1.03217e-05)
(9.39631e-05 -1.07307e-05 -1.5526e-05)
(0.000100718 -1.8756e-05 -1.94906e-05)
(0.000105993 -2.80379e-05 -2.19428e-05)
(0.000108921 -3.77579e-05 -2.2373e-05)
(0.000107618 -4.5786e-05 -2.07275e-05)
(9.98342e-05 -5.03817e-05 -1.71869e-05)
(8.13013e-05 -5.00884e-05 -1.33647e-05)
(5.27847e-05 -3.77936e-05 -9.3457e-06)
(-5.89214e-07 -2.88999e-05 -1.37884e-05)
(-4.35178e-05 1.73781e-05 -4.72712e-05)
(-4.03955e-05 -2.57437e-05 -4.25831e-05)
(-4.85755e-05 -2.15192e-05 -1.43987e-05)
(-4.71816e-05 -1.76965e-05 -6.03986e-06)
(-5.69309e-05 -1.63142e-05 -9.52155e-06)
(-0.000101828 -0.000138152 -7.37217e-07)
(-6.80739e-05 -2.46603e-05 1.4837e-05)
(-4.95813e-05 -3.34546e-05 5.97712e-06)
(-5.77828e-05 -3.25557e-05 8.13461e-06)
(-4.74709e-05 -3.44785e-05 8.13056e-06)
(-5.62363e-05 -4.73596e-05 3.75063e-06)
(-6.29465e-05 -6.50163e-05 3.7026e-06)
(3.82448e-05 1.27553e-06 2.21337e-05)
(6.06112e-05 -2.66475e-06 -2.72072e-06)
(7.19734e-05 -6.63974e-06 -8.26202e-06)
(8.0371e-05 -1.24921e-05 -1.20325e-05)
(8.73211e-05 -1.95569e-05 -1.49008e-05)
(9.36487e-05 -2.73448e-05 -1.6968e-05)
(9.92787e-05 -3.55088e-05 -1.79945e-05)
(0.000102148 -4.29062e-05 -1.78001e-05)
(0.000100361 -4.85702e-05 -1.65304e-05)
(9.03733e-05 -5.11765e-05 -1.42072e-05)
(6.95322e-05 -4.77214e-05 -1.25268e-05)
(3.31082e-05 -3.50496e-05 -1.15635e-05)
(-6.79764e-06 -2.18694e-05 -1.67062e-05)
(-2.87139e-05 1.84173e-05 -4.31278e-05)
(-2.28889e-05 -8.77674e-06 -3.28977e-05)
(-2.87268e-05 -2.28874e-05 -1.93616e-05)
(-4.30328e-05 -2.25219e-05 -2.00626e-05)
(-1.91192e-05 -4.15154e-05 -2.88737e-06)
(-3.16001e-05 -4.69994e-05 1.42496e-05)
(-2.82996e-05 -4.172e-05 1.07973e-05)
(-2.42203e-05 -2.09456e-05 8.71968e-06)
(-1.30335e-05 -3.26668e-05 7.36868e-06)
(-7.51242e-06 -1.36846e-05 7.49836e-06)
(-2.89327e-05 1.77953e-05 5.27405e-06)
(3.07188e-05 3.61669e-07 1.86494e-05)
(5.03213e-05 -4.17819e-06 -2.77874e-06)
(6.02453e-05 -8.76149e-06 -7.0016e-06)
(6.7907e-05 -1.46212e-05 -9.49903e-06)
(7.47463e-05 -2.11843e-05 -1.12306e-05)
(8.15219e-05 -2.79528e-05 -1.25648e-05)
(8.82147e-05 -3.45584e-05 -1.35606e-05)
(9.36481e-05 -4.07921e-05 -1.41296e-05)
(9.59284e-05 -4.60485e-05 -1.42744e-05)
(9.2766e-05 -5.00936e-05 -1.40304e-05)
(8.04095e-05 -5.05872e-05 -1.3938e-05)
(5.57855e-05 -4.61689e-05 -1.56594e-05)
(2.07924e-05 -3.05407e-05 -1.76992e-05)
(-1.29918e-05 -1.30771e-05 -2.93961e-05)
(-6.16488e-06 -6.8537e-06 -4.11324e-05)
(-4.17246e-06 -8.9304e-06 -2.90343e-05)