/*--------------------------------*- C++ -*----------------------------------*\
  =========                 |
  \\      /  F ield         | OpenFOAM: The Open Source CFD Toolbox
   \\    /   O peration     | Website:  https://openfoam.org
    \\  /    A nd           | Version:  6
     \\/     M anipulation  |
\*---------------------------------------------------------------------------*/
FoamFile
{
    version     2.0;
    format      ascii;
    class       volVectorField;
    location    "0.4";
    object      wallShearStress;
}
// * * * * * * * * * * * * * * * * * * * * * * * * * * * * * * * * * * * * * //

dimensions      [0 2 -2 0 0 0 0];

internalField   uniform (0 0 0);

boundaryField
{
    inlet
    {
        type            calculated;
        value           uniform (0 0 0);
    }
    outlet
    {
        type            calculated;
        value           uniform (0 0 0);
    }
    roughCylinder
    {
        type            calculated;
        value           nonuniform List<vector> 
3840
(
(-0.000455041 -0.000654493 -0.000277566)
(-0.000397189 -0.0005816 -3.47734e-06)
(-0.000453783 -0.000660241 6.97189e-05)
(-0.000557073 -0.000743522 0.000136634)
(-0.000648777 -0.000780544 0.00018496)
(-0.000727151 -0.000788334 0.000215057)
(-0.000795519 -0.000792741 0.000235875)
(-0.000851173 -0.000799174 0.000250547)
(-0.000898008 -0.000812066 0.000259835)
(-0.000937604 -0.000830647 0.000264727)
(-0.000972343 -0.000853504 0.000266135)
(-0.0010049 -0.000879293 0.000264704)
(-0.0010372 -0.000907127 0.00026073)
(-0.00107032 -0.00093666 0.000254307)
(-0.00110473 -0.000967771 0.000245513)
(-0.00114067 -0.00100042 0.000234447)
(-0.00117821 -0.0010345 0.000221181)
(-0.00121728 -0.00106978 0.000205669)
(-0.00125756 -0.00110582 0.000187684)
(-0.00129844 -0.00114193 0.000166664)
(-0.00133876 -0.00117704 0.000141648)
(-0.00137648 -0.00120935 0.000111254)
(-0.0014085 -0.00123632 7.33559e-05)
(-0.00142875 -0.00125297 2.62045e-05)
(-0.000607185 -0.000792491 -0.00034698)
(-0.000424013 -0.00057591 -7.69721e-06)
(-0.000485148 -0.000653574 6.32214e-05)
(-0.000592582 -0.000738662 0.000129434)
(-0.000688592 -0.000778006 0.0001775)
(-0.000772491 -0.000790789 0.000208408)
(-0.000845377 -0.000798067 0.000230639)
(-0.000903394 -0.000803154 0.000245717)
(-0.000951384 -0.000814733 0.000254824)
(-0.000992192 -0.000832395 0.000259435)
(-0.00102821 -0.000854643 0.00026058)
(-0.00106213 -0.000879973 0.00025893)
(-0.00109589 -0.000907422 0.000254808)
(-0.00113053 -0.000936568 0.000248319)
(-0.00116658 -0.000967309 0.000239555)
(-0.00120426 -0.000999582 0.000228614)
(-0.00124364 -0.00103328 0.000215566)
(-0.00128464 -0.00106818 0.000200364)
(-0.00132696 -0.00110385 0.00018278)
(-0.00136992 -0.0011396 0.000162256)
(-0.00141232 -0.00117442 0.000137859)
(-0.00145201 -0.00120649 0.00010824)
(-0.00148572 -0.00123331 7.13781e-05)
(-0.00150708 -0.00124989 2.55193e-05)
(-0.000643006 -0.000760871 -0.000331634)
(-0.000467696 -0.000579745 -1.36851e-05)
(-0.000517067 -0.000642216 5.57579e-05)
(-0.000628871 -0.000728234 0.000121633)
(-0.000730081 -0.00077083 0.000170035)
(-0.000819533 -0.000788298 0.000202131)
(-0.000896428 -0.000797769 0.000225412)
(-0.000956805 -0.000802101 0.000240725)
(-0.00100556 -0.000812187 0.000249491)
(-0.00104726 -0.000828719 0.000253672)
(-0.00108432 -0.000850116 0.000254491)
(-0.00111943 -0.000874725 0.000252601)
(-0.00115449 -0.000901506 0.00024833)
(-0.00119055 -0.000929991 0.000241781)
(-0.00122809 -0.000960059 0.000233054)
(-0.00126736 -0.000991659 0.00022225)
(-0.00130844 -0.00102467 0.000209442)
(-0.00135125 -0.00105888 0.000194576)
(-0.00139546 -0.00109387 0.000177427)
(-0.00144035 -0.00112897 0.000157444)
(-0.0014847 -0.00116318 0.000133721)
(-0.00152623 -0.00119475 0.00010495)
(-0.00156151 -0.00122118 6.92146e-05)
(-0.00158391 -0.00123755 2.4767e-05)
(-0.00065229 -0.000699226 -0.000293576)
(-0.000500387 -0.000561173 -2.103e-05)
(-0.000547975 -0.000626463 4.81299e-05)
(-0.000664704 -0.000713738 0.000113504)
(-0.00077152 -0.000759977 0.000162492)
(-0.00086639 -0.000781735 0.000195947)
(-0.000947017 -0.000792972 0.00022016)
(-0.00100982 -0.000796997 0.000235753)
(-0.00105916 -0.000805478 0.00024413)
(-0.00110154 -0.000820791 0.000247784)
(-0.00113945 -0.000841212 0.000248236)
(-0.00117561 -0.000864952 0.000246095)
(-0.00121188 -0.000890902 0.000241679)
(-0.00124922 -0.000918551 0.000235078)
(-0.00128815 -0.000947774 0.000226394)
(-0.00132888 -0.000978502 0.000215734)
(-0.00137153 -0.00101064 0.00020317)
(-0.00141601 -0.00104395 0.000188649)
(-0.00146197 -0.00107805 0.000171943)
(-0.00150867 -0.00111229 0.000152513)
(-0.00155484 -0.0011457 0.000129478)
(-0.00159807 -0.00117657 0.000101574)
(-0.00163485 -0.00120246 6.69942e-05)
(-0.00165821 -0.0012185 2.39944e-05)
(-0.000682754 -0.000656258 -0.000269196)
(-0.00053536 -0.000546495 -2.73892e-05)
(-0.000578145 -0.000606482 4.01282e-05)
(-0.000699614 -0.000695351 0.000104924)
(-0.000812331 -0.000745358 0.000154718)
(-0.000912394 -0.000770747 0.000189633)
(-0.000996528 -0.000783302 0.000214741)
(-0.00106181 -0.000787219 0.000230691)
(-0.00111157 -0.000793949 0.000238679)
(-0.00115442 -0.000807936 0.000241769)
(-0.00119303 -0.000827241 0.000241836)
(-0.00123007 -0.000849953 0.000239439)
(-0.0012674 -0.000874914 0.000234889)
(-0.00130592 -0.000901552 0.000228254)
(-0.0013461 -0.000929744 0.000219627)
(-0.00138816 -0.000959415 0.000209119)
(-0.00143223 -0.000990466 0.000196807)
(-0.00147822 -0.00102268 0.000182634)
(-0.00152578 -0.00105569 0.00016638)
(-0.00157412 -0.00108885 0.000147508)
(-0.00162196 -0.00112125 0.000125171)
(-0.00166679 -0.00115122 9.81455e-05)
(-0.00170493 -0.00117639 6.47375e-05)
(-0.0017292 -0.00119201 2.32087e-05)
(-0.000684924 -0.000588494 -0.000236945)
(-0.000562148 -0.000522444 -3.27869e-05)
(-0.000607786 -0.000583406 3.19346e-05)
(-0.000733595 -0.000673904 9.59798e-05)
(-0.000852302 -0.000727361 0.000146749)
(-0.000957357 -0.000755631 0.000183178)
(-0.00104489 -0.000769064 0.000209158)
(-0.00111262 -0.000773012 0.00022549)
(-0.00116275 -0.0007777 0.000233085)
(-0.00120587 -0.000790226 0.000235606)
(-0.001245 -0.00080826 0.000235281)
(-0.00128278 -0.000829786 0.000232635)
(-0.00132103 -0.000853586 0.000227963)
(-0.00136061 -0.000879058 0.000221308)
(-0.00140191 -0.000906044 0.000212756)
(-0.00144516 -0.00093447 0.000202412)
(-0.00149049 -0.000964251 0.000190359)
(-0.00153781 -0.000995165 0.000176541)
(-0.0015868 -0.00102687 0.000160742)
(-0.00163665 -0.00105875 0.000142436)
(-0.00168601 -0.00108994 0.000120803)
(-0.00173229 -0.00111883 9.46684e-05)
(-0.0017717 -0.00114312 6.24475e-05)
(-0.0017968 -0.0011582 2.24106e-05)
(-0.000773947 -0.000593487 -0.000229741)
(-0.000609961 -0.000511791 -4.01543e-05)
(-0.000636024 -0.000558203 2.33304e-05)
(-0.000766425 -0.000649731 8.68262e-05)
(-0.000891012 -0.000706255 0.000138674)
(-0.00100089 -0.000736723 0.000176605)
(-0.00109176 -0.000750604 0.000203445)
(-0.00116158 -0.000754319 0.000220025)
(-0.00121243 -0.0007571 0.000227284)
(-0.00125566 -0.000768012 0.000229289)
(-0.00129514 -0.000784614 0.000228567)
(-0.0013335 -0.000804809 0.000225676)
(-0.00137253 -0.000827307 0.000220895)
(-0.00141303 -0.000851463 0.000214241)
(-0.00145533 -0.00087709 0.000205781)
(-0.00149963 -0.000904118 0.000195617)
(-0.00154606 -0.000932456 0.000183832)
(-0.00159457 -0.000961896 0.000170375)
(-0.00164481 -0.000992114 0.000155036)
(-0.00169599 -0.00102254 0.000137299)
(-0.0017467 -0.00105234 0.000116379)
(-0.00179429 -0.00107996 9.11437e-05)
(-0.00183484 -0.00110323 6.01249e-05)
(-0.00186069 -0.00111768 2.1601e-05)
(-0.000777029 -0.000528825 -0.000190104)
(-0.00064651 -0.000485556 -4.83443e-05)
(-0.00066384 -0.000532121 1.47149e-05)
(-0.000797532 -0.000622947 7.75303e-05)
(-0.00092782 -0.000682081 0.000130484)
(-0.00104244 -0.000714133 0.000169856)
(-0.00113663 -0.000728102 0.000197526)
(-0.00120839 -0.000731274 0.000214264)
(-0.0012602 -0.000732383 0.000221267)
(-0.00130336 -0.000741521 0.000222805)
(-0.00134303 -0.000756565 0.000221681)
(-0.00138181 -0.00077531 0.000218556)
(-0.00142148 -0.000796377 0.000213682)
(-0.00146276 -0.000819088 0.000207048)
(-0.00150592 -0.000843231 0.000198704)
(-0.00155112 -0.000868714 0.000188737)
(-0.00159849 -0.000895461 0.000177231)
(-0.00164799 -0.000923275 0.000164141)
(-0.00169931 -0.000951855 0.000149265)
(-0.00175162 -0.000980661 0.000132102)
(-0.00180351 -0.0010089 0.0001119)
(-0.00185223 -0.00103511 8.75742e-05)
(-0.00189378 -0.00105722 5.77722e-05)
(-0.0019203 -0.00107095 2.07806e-05)
(-0.00079571 -0.000476319 -0.000162115)
(-0.000667834 -0.00045041 -5.45863e-05)
(-0.000688653 -0.000502434 6.0079e-06)
(-0.000826214 -0.000593834 6.78809e-05)
(-0.000962107 -0.000654957 0.000122007)
(-0.00108147 -0.000687993 0.000162801)
(-0.00117899 -0.000701711 0.000191305)
(-0.00125264 -0.000704076 0.000208169)
(-0.00130564 -0.000703717 0.000215012)
(-0.00134858 -0.000710946 0.000216135)
(-0.00138826 -0.000724323 0.000214612)
(-0.00142728 -0.000741507 0.00021127)
(-0.00146742 -0.000761035 0.000206318)
(-0.00150934 -0.000782193 0.000199728)
(-0.00155322 -0.000804734 0.000191522)
(-0.00159916 -0.000828561 0.000181773)
(-0.0016473 -0.000853586 0.00017056)
(-0.00169759 -0.000879642 0.000157843)
(-0.00174978 -0.00090644 0.000143436)
(-0.00180304 -0.000933481 0.000126851)
(-0.00185589 -0.000960014 0.000107372)
(-0.00190556 -0.000984682 8.39642e-05)
(-0.00194794 -0.0010055 5.53914e-05)
(-0.00197503 -0.00101843 1.99498e-05)
(-0.000840853 -0.000439499 -0.000141699)
(-0.000706133 -0.000425804 -6.14904e-05)
(-0.000714345 -0.00047248 -2.95499e-06)
(-0.000852372 -0.000562619 5.79791e-05)
(-0.000993538 -0.000624948 0.000113258)
(-0.00111757 -0.00065844 0.000155411)
(-0.00121842 -0.000671599 0.000184739)
(-0.00129397 -0.000672953 0.000201728)
(-0.00134835 -0.00067132 0.0002085)
(-0.00139093 -0.00067651 0.000209262)
(-0.00143045 -0.000688139 0.000207354)
(-0.00146954 -0.000703674 0.000203813)
(-0.00150997 -0.000721572 0.000198804)
(-0.00155236 -0.000741081 0.000192281)
(-0.0015968 -0.000761929 0.000184239)
(-0.00164333 -0.000783993 0.00017473)
(-0.00169204 -0.000807194 0.000163826)
(-0.00174294 -0.000831373 0.000151492)
(-0.00179577 -0.000856268 0.000137556)
(-0.00184973 -0.000881424 0.000121551)
(-0.00190334 -0.000906132 0.000102801)
(-0.00195375 -0.000929126 8.03182e-05)
(-0.00199681 -0.000948558 5.29864e-05)
(-0.00202435 -0.000960607 1.91102e-05)
(-0.000801439 -0.000362716 -0.000105668)
(-0.000726947 -0.000387051 -6.7711e-05)
(-0.000735805 -0.000439632 -1.20399e-05)
(-0.000875453 -0.000529139 4.79798e-05)
(-0.00102162 -0.000592138 0.000104269)
(-0.00115028 -0.000625671 0.000147696)
(-0.00125447 -0.000637983 0.000177825)
(-0.00133196 -0.000638175 0.000194958)
(-0.00138778 -0.000635497 0.000201709)
(-0.00143005 -0.000638489 0.000202153)
(-0.00146922 -0.000648312 0.0001999)
(-0.00150819 -0.000662128 0.000196183)
(-0.00154874 -0.000678319 0.000191139)
(-0.00159142 -0.000696108 0.000184707)
(-0.00163626 -0.000715185 0.000176856)
(-0.00168321 -0.000735411 0.000167614)
(-0.00173231 -0.000756694 0.000157036)
(-0.00178357 -0.000778903 0.000145093)
(-0.00183682 -0.000801801 0.000131633)
(-0.00189125 -0.000824964 0.00011621)
(-0.00194538 -0.000847743 9.81921e-05)
(-0.00199632 -0.000868963 7.66417e-05)
(-0.00203987 -0.000886913 5.05598e-05)
(-0.00206776 -0.000898023 1.82631e-05)
(-0.00104797 -0.000400927 -0.000112812)
(-0.000754916 -0.000356879 -7.30213e-05)
(-0.000757013 -0.000405784 -2.09013e-05)
(-0.000895255 -0.000493816 3.76989e-05)
(-0.0010458 -0.000556857 9.49272e-05)
(-0.00117907 -0.000589948 0.00013961)
(-0.00128668 -0.000601136 0.000170543)
(-0.00136621 -0.000600016 0.000187887)
(-0.00142319 -0.000596242 0.000194568)
(-0.00146553 -0.000597199 0.000194767)
(-0.0015042 -0.000605169 0.000192249)
(-0.00154289 -0.000617217 0.000188381)
(-0.00158335 -0.000631655 0.000183327)
(-0.00162613 -0.000647662 0.000177011)
(-0.00167119 -0.000664918 0.000169377)
(-0.00171837 -0.000683249 0.000160428)
(-0.00176767 -0.00070256 0.0001502)
(-0.0018191 -0.000722731 0.00013866)
(-0.0018725 -0.000743566 0.000125678)
(-0.00192715 -0.000764665 0.000110839)
(-0.00198155 -0.000785437 9.35553e-05)
(-0.00203278 -0.000804807 7.29414e-05)
(-0.00207664 -0.000821203 4.8117e-05)
(-0.00210475 -0.000831321 1.74098e-05)
(-0.00105761 -0.000340155 -8.35369e-05)
(-0.000795872 -0.000325447 -7.99907e-05)
(-0.000775575 -0.000370778 -3.0521e-05)
(-0.000911026 -0.000456547 2.72425e-05)
(-0.00106569 -0.000519215 8.52896e-05)
(-0.00120355 -0.000551524 0.000131156)
(-0.00131461 -0.00056134 0.000162878)
(-0.00139622 -0.000558756 0.000180493)
(-0.00145424 -0.000553756 0.000187085)
(-0.00149696 -0.000553009 0.000187121)
(-0.00153503 -0.00055907 0.0001844)
(-0.00157324 -0.000569339 0.000180408)
(-0.00161341 -0.000582005 0.00017537)
(-0.00165609 -0.000596213 0.000169198)
(-0.00170117 -0.000611608 0.00016181)
(-0.00174841 -0.000628009 0.00015318)
(-0.00179772 -0.000645302 0.000143322)
(-0.00184907 -0.000663388 0.000132199)
(-0.00190237 -0.000682095 0.0001197)
(-0.00195696 -0.000701073 0.000105445)
(-0.00201135 -0.000719773 8.88976e-05)
(-0.00206263 -0.000737239 6.92225e-05)
(-0.00210658 -0.000752021 4.56605e-05)
(-0.00213481 -0.000761098 1.65515e-05)
(-0.000992673 -0.000260866 -4.66552e-05)
(-0.000801774 -0.000277441 -8.60604e-05)
(-0.000789636 -0.00033418 -3.92267e-05)
(-0.000922943 -0.000417865 1.68161e-05)
(-0.00108089 -0.000479553 7.53608e-05)
(-0.00122323 -0.000510742 0.000122329)
(-0.00133784 -0.000518949 0.000154831)
(-0.00142157 -0.000514746 0.000172767)
(-0.00148056 -0.000508407 0.000179306)
(-0.00152374 -0.000506276 0.000179213)
(-0.00156129 -0.00051043 0.000176342)
(-0.00159887 -0.000518898 0.000172267)
(-0.00163853 -0.000529801 0.000167277)
(-0.00168087 -0.000542217 0.000161275)
(-0.00172576 -0.000555781 0.000154159)
(-0.00177286 -0.000570292 0.000145877)
(-0.00182198 -0.000585621 0.000136417)
(-0.00187306 -0.000601672 0.000125729)
(-0.00192602 -0.000618307 0.000113721)
(-0.00198027 -0.000635201 0.000100051)
(-0.0020344 -0.000651856 8.42375e-05)
(-0.00208547 -0.000667411 6.54994e-05)
(-0.00212934 -0.000680558 4.32002e-05)
(-0.00215757 -0.000688568 1.56914e-05)
(-0.00102815 -0.000210359 -2.49603e-05)
(-0.000838309 -0.000242837 -9.29271e-05)
(-0.000803242 -0.000296751 -4.7915e-05)
(-0.000930025 -0.000377624 6.19524e-06)
(-0.00109094 -0.000438239 6.50615e-05)
(-0.00123774 -0.000468048 0.000113099)
(-0.00135593 -0.000474386 0.000146396)
(-0.00144181 -0.000468378 0.000164704)
(-0.00150173 -0.000460586 0.000171257)
(-0.00154517 -0.000457201 0.00017104)
(-0.00158247 -0.000459799 0.000168073)
(-0.0016194 -0.000466634 0.000163983)
(-0.00165836 -0.000475847 0.000159073)
(-0.00170008 -0.000486505 0.000153259)
(-0.00174445 -0.000498226 0.000146431)
(-0.00179108 -0.000510816 0.00013851)
(-0.00183968 -0.000524146 0.000129461)
(-0.00189013 -0.000538124 0.000119216)
(-0.00194233 -0.000552644 0.000107699)
(-0.00199582 -0.000567428 9.46106e-05)
(-0.00204928 -0.00058202 7.95313e-05)
(-0.00209983 -0.000595656 6.17359e-05)
(-0.00214338 -0.000607175 4.07105e-05)
(-0.0021715 -0.000614107 1.48203e-05)
(-0.000907143 -0.00013304 -5.17869e-06)
(-0.000835088 -0.000197798 -9.49713e-05)
(-0.000812475 -0.000257428 -5.62524e-05)
(-0.000933023 -0.000336498 -4.51792e-06)
(-0.00109563 -0.000395745 5.43998e-05)
(-0.00124665 -0.000423895 0.000103452)
(-0.00136847 -0.000428122 0.000137567)
(-0.00145656 -0.000420117 0.000156298)
(-0.00151739 -0.000410739 0.00016294)
(-0.00156095 -0.000406092 0.000162648)
(-0.00159775 -0.000407369 0.000159601)
(-0.00163378 -0.000412728 0.0001555)
(-0.00167175 -0.000420371 0.000150677)
(-0.00171257 -0.00042934 0.000145066)
(-0.00175618 -0.000439252 0.000138546)
(-0.00180213 -0.000449917 0.000131013)
(-0.00185004 -0.000461221 0.000122403)
(-0.00189967 -0.000473089 0.000112628)
(-0.00195091 -0.000485445 0.00010162)
(-0.00200337 -0.000498067 8.91211e-05)
(-0.00205586 -0.000510562 7.47828e-05)
(-0.00210561 -0.000522268 5.79371e-05)
(-0.00214861 -0.000532151 3.81957e-05)
(-0.00217652 -0.000538021 1.39396e-05)
(-0.00104449 -9.84725e-05 1.66335e-05)
(-0.00085807 -0.000155237 -0.000100286)
(-0.000817398 -0.000217508 -6.48515e-05)
(-0.000930476 -0.000294505 -1.53218e-05)
(-0.00109438 -0.000352436 4.33313e-05)
(-0.0012496 -0.00037881 9.33517e-05)
(-0.00137512 -0.000380709 0.000128327)
(-0.00146544 -0.000370488 0.000147539)
(-0.00152715 -0.000359368 0.000154338)
(-0.00157075 -0.000353398 0.000154034)
(-0.00160691 -0.000353411 0.000150933)
(-0.00164185 -0.000357409 0.000146831)
(-0.00167856 -0.000363574 0.000142108)
(-0.00171817 -0.000370934 0.000136711)
(-0.00176072 -0.000379097 0.000130515)
(-0.00180574 -0.000387891 0.000123392)
(-0.00185276 -0.000397213 0.000115247)
(-0.00190143 -0.000407006 0.000105972)
(-0.00195155 -0.000417209 9.54948e-05)
(-0.00200277 -0.00042768 8.35982e-05)
(-0.00205405 -0.000438082 7.00076e-05)
(-0.00210274 -0.000447861 5.41165e-05)
(-0.00214499 -0.000456112 3.56644e-05)
(-0.00217253 -0.000460927 1.30523e-05)
(-0.00101266 -4.30284e-05 4.12739e-05)
(-0.000864875 -0.000108469 -0.000105591)
(-0.000818847 -0.000177309 -7.23691e-05)
(-0.000923246 -0.000252364 -2.60419e-05)
(-0.0010871 -0.000308812 3.18689e-05)
(-0.00124627 -0.000333332 8.27603e-05)
(-0.0013755 -0.00033273 0.00011866)
(-0.0014681 -0.000320073 0.000138426)
(-0.00153069 -0.000307025 0.00014545)
(-0.00157424 -0.000299643 0.00014519)
(-0.00160963 -0.000298408 0.000142076)
(-0.00164331 -0.000301126 0.000137998)
(-0.00167855 -0.000305904 0.000133392)
(-0.00171668 -0.000311738 0.000128226)
(-0.00175786 -0.000318227 0.000122369)
(-0.00180166 -0.00032522 0.000115672)
(-0.00184756 -0.000332632 0.000108014)
(-0.00189509 -0.000340409 9.92629e-05)
(-0.00194392 -0.000348523 8.93385e-05)
(-0.00199371 -0.00035688 7.80566e-05)
(-0.00204358 -0.000365228 6.52184e-05)
(-0.00209101 -0.000373107 5.02838e-05)
(-0.00213233 -0.000379754 3.31233e-05)
(-0.00215943 -0.000383534 1.21607e-05)
(-0.000993477 1.10641e-05 5.68512e-05)
(-0.000876921 -6.63372e-05 -0.000108901)
(-0.00081794 -0.000136399 -7.94579e-05)
(-0.000910645 -0.000210173 -3.667e-05)
(-0.0010734 -0.000265335 2.00323e-05)
(-0.0012364 -0.000288061 7.16796e-05)
(-0.00136944 -0.000284851 0.000108571)
(-0.00146436 -0.000269554 0.00012898)
(-0.00152778 -0.000254378 0.000136302)
(-0.00157118 -0.000245448 0.000136145)
(-0.00160567 -0.000242945 0.000133063)
(-0.00163795 -0.000244446 0.000129042)
(-0.00167152 -0.00024793 0.000124576)
(-0.00170792 -0.000252341 0.000119656)
(-0.00174747 -0.000257264 0.000114153)
(-0.00178979 -0.000262548 0.000107895)
(-0.00183433 -0.000268135 0.000100739)
(-0.00188056 -0.000273992 9.25305e-05)
(-0.00192799 -0.000280097 8.31778e-05)
(-0.00197621 -0.000286421 7.25202e-05)
(-0.00202448 -0.000292776 6.04359e-05)
(-0.00207047 -0.000298814 4.64541e-05)
(-0.00211067 -0.00030389 3.05809e-05)
(-0.00213722 -0.000306656 1.12672e-05)
(-0.000859816 5.4744e-05 6.91108e-05)
(-0.000866174 -1.98641e-05 -0.000110584)
(-0.000811244 -9.53041e-05 -8.58178e-05)
(-0.000892708 -0.000168249 -4.69151e-05)
(-0.00105314 -0.000222439 7.93781e-06)
(-0.00121964 -0.000243559 6.01146e-05)
(-0.00135655 -0.000237715 9.80523e-05)
(-0.00145386 -0.000219617 0.000119204)
(-0.00151809 -0.000202123 0.000126913)
(-0.00156128 -0.000191508 0.00012693)
(-0.00159474 -0.000187685 0.000123932)
(-0.00162544 -0.000188005 0.000120005)
(-0.00165714 -0.000190293 0.000115701)
(-0.00169158 -0.000193402 0.000111042)
(-0.00172921 -0.000196877 0.000105897)
(-0.00176977 -0.000200573 0.000100082)
(-0.00181271 -0.000204447 9.34346e-05)
(-0.00185743 -0.00020849 8.57817e-05)
(-0.00190335 -0.000212696 7.70178e-05)
(-0.00194991 -0.000217083 6.69953e-05)
(-0.00199648 -0.000221537 5.56659e-05)
(-0.00204088 -0.000225812 4.26328e-05)
(-0.00207988 -0.000229384 2.8041e-05)
(-0.00210581 -0.000231163 1.03731e-05)
(-0.00109686 0.00013016 0.000108857)
(-0.000870062 2.24286e-05 -0.000113652)
(-0.000802045 -5.44565e-05 -9.14217e-05)
(-0.000869704 -0.000127214 -5.67752e-05)
(-0.00102604 -0.000180724 -4.4317e-06)
(-0.00119577 -0.000200467 4.80186e-05)
(-0.00133674 -0.000192063 8.70858e-05)
(-0.0014366 -0.000171052 0.000109122)
(-0.00150163 -0.000151068 0.000117329)
(-0.00154445 -0.00013862 0.000117599)
(-0.00157676 -0.000133423 0.000114746)
(-0.00160575 -0.000132591 0.000110954)
(-0.00163542 -0.000133777 0.000106838)
(-0.0016677 -0.000135718 0.000102449)
(-0.00170319 -0.000137893 9.766e-05)
(-0.00174173 -0.000140146 9.22817e-05)
(-0.00178284 -0.000142448 8.6141e-05)
(-0.0018259 -0.000144809 7.9049e-05)
(-0.00187019 -0.000147242 7.08838e-05)
(-0.00191503 -0.000149806 6.15041e-05)
(-0.00195979 -0.000152461 5.09267e-05)
(-0.00200249 -0.000155063 3.88333e-05)
(-0.00204013 -0.000157199 2.55105e-05)
(-0.00206536 -0.000158017 9.48025e-06)
(-0.000910828 0.000157516 0.000104887)
(-0.000848999 6.201e-05 -0.000111415)
(-0.000784926 -1.38073e-05 -9.58543e-05)
(-0.000840769 -8.73837e-05 -6.5908e-05)
(-0.000992009 -0.000140588 -1.68661e-05)
(-0.00116445 -0.000159323 3.54361e-05)
(-0.00130964 -0.000148557 7.56688e-05)
(-0.00141221 -0.000124601 9.87367e-05)
(-0.00147804 -0.000101999 0.000107574)
(-0.00152044 -8.76017e-05 0.000108195)
(-0.00155141 -8.09816e-05 0.000105552)
(-0.0015785 -7.903e-05 0.000101936)
(-0.00160595 -7.92115e-05 9.80274e-05)
(-0.00163586 -8.01252e-05 9.39091e-05)
(-0.00166896 -8.11631e-05 8.94664e-05)
(-0.00170521 -8.21385e-05 8.45099e-05)
(-0.00174422 -8.3027e-05 7.88633e-05)
(-0.00178539 -8.38533e-05 7.23282e-05)
(-0.00182795 -8.46548e-05 6.47698e-05)
(-0.00187102 -8.55242e-05 5.6041e-05)
(-0.00191396 -8.64961e-05 4.62153e-05)
(-0.00195492 -8.75313e-05 3.50546e-05)
(-0.00199117 -8.83075e-05 2.29893e-05)
(-0.0020157 -8.8202e-05 8.58857e-06)
(-0.000837145 0.000190252 0.000117365)
(-0.000837754 0.000104625 -0.000112271)
(-0.000769322 2.48467e-05 -9.99486e-05)
(-0.000808092 -4.92167e-05 -7.39618e-05)
(-0.000951261 -0.000102431 -2.90387e-05)
(-0.00112559 -0.000120692 2.25142e-05)
(-0.00127525 -0.000107908 6.38585e-05)
(-0.0013808 -8.10801e-05 8.81043e-05)
(-0.00144755 -5.57945e-05 9.77208e-05)
(-0.00148937 -3.93581e-05 9.8797e-05)
(-0.00151887 -3.12898e-05 9.64378e-05)
(-0.00154392 -2.82671e-05 9.30423e-05)
(-0.00156899 -2.7555e-05 8.9357e-05)
(-0.00159637 -2.75935e-05 8.55041e-05)
(-0.00162689 -2.76727e-05 8.13878e-05)
(-0.00166064 -2.75562e-05 7.68275e-05)
(-0.00169732 -2.721e-05 7.16523e-05)
(-0.0017364 -2.66733e-05 6.56602e-05)
(-0.00177707 -2.59984e-05 5.87051e-05)
(-0.00181833 -2.53087e-05 5.06285e-05)
(-0.00185939 -2.47138e-05 4.15492e-05)
(-0.00189853 -2.42809e-05 3.13082e-05)
(-0.0019333 -2.37714e-05 2.04836e-05)
(-0.00195707 -2.27681e-05 7.69947e-06)
(-0.000719161 0.000203849 0.000121638)
(-0.000802971 0.000143196 -0.000110745)
(-0.000744093 6.12544e-05 -0.000102329)
(-0.000769744 -1.30268e-05 -8.06064e-05)
(-0.000903561 -6.67945e-05 -4.06328e-05)
(-0.0010788 -8.51254e-05 9.40271e-06)
(-0.00123301 -7.07694e-05 5.16961e-05)
(-0.00134185 -4.1255e-05 7.72471e-05)
(-0.00140966 -1.32974e-05 8.78009e-05)
(-0.00145086 5.20649e-06 8.94532e-05)
(-0.00147867 1.47143e-05 8.74513e-05)
(-0.00150144 1.87353e-05 8.43135e-05)
(-0.00152393 2.02158e-05 8.08597e-05)
(-0.00154856 2.08884e-05 7.72564e-05)
(-0.0015763 2.15794e-05 7.34354e-05)
(-0.00160731 2.25895e-05 6.92364e-05)
(-0.0016414 2.39717e-05 6.45012e-05)
(-0.00167814 2.56838e-05 5.90318e-05)
(-0.00171676 2.76623e-05 5.26733e-05)
(-0.00175615 2.97647e-05 4.5251e-05)
(-0.00179537 3.18061e-05 3.69175e-05)
(-0.00183271 3.36109e-05 2.75882e-05)
(-0.00186603 3.53353e-05 1.79896e-05)
(-0.0018891 3.72156e-05 6.81136e-06)
(-0.000834014 0.000287901 0.000158945)
(-0.00077954 0.000176723 -0.000108795)
(-0.000717819 9.59529e-05 -0.000103779)
(-0.00072832 2.0487e-05 -8.59026e-05)
(-0.000849567 -3.4255e-05 -5.128e-05)
(-0.0010242 -5.31687e-05 -3.67532e-06)
(-0.00118297 -3.78101e-05 3.92862e-05)
(-0.00129555 -5.92932e-06 6.62503e-05)
(-0.00136469 2.45896e-05 7.79154e-05)
(-0.00140524 4.5132e-05 8.0273e-05)
(-0.00143126 5.60269e-05 7.8708e-05)
(-0.00145159 6.09453e-05 7.58633e-05)
(-0.00147133 6.30504e-05 7.26385e-05)
(-0.00149308 6.42593e-05 6.92565e-05)
(-0.00151788 6.55267e-05 6.56893e-05)
(-0.00154598 6.72222e-05 6.18063e-05)
(-0.0015773 6.9429e-05 5.74708e-05)
(-0.00161148 7.21138e-05 5.2492e-05)
(-0.00164784 7.52102e-05 4.67122e-05)
(-0.00168523 7.85679e-05 3.99365e-05)
(-0.00172256 8.1937e-05 3.23401e-05)
(-0.00175808 8.50249e-05 2.3908e-05)
(-0.00178989 8.791e-05 1.55144e-05)
(-0.00181222 9.06557e-05 5.92595e-06)
(-0.000766631 0.000308813 0.000169034)
(-0.000756138 0.000213447 -0.000106807)
(-0.000688375 0.000127947 -0.000104836)
(-0.00068379 5.08603e-05 -8.95338e-05)
(-0.000789735 -5.07977e-06 -6.04039e-05)
(-0.000961576 -2.52106e-05 -1.63143e-05)
(-0.00112443 -9.56976e-06 2.68114e-05)
(-0.00124106 2.418e-05 5.51973e-05)
(-0.00131176 5.70041e-05 6.81226e-05)
(-0.00135171 7.94514e-05 7.13142e-05)
(-0.00137574 9.16115e-05 7.02563e-05)
(-0.00139342 9.72849e-05 6.77245e-05)
(-0.00141021 9.98449e-05 6.47122e-05)
(-0.0014289 0.000101403 6.15102e-05)
(-0.0014506 0.000103047 5.81435e-05)
(-0.00147561 0.000105217 5.4524e-05)
(-0.00150392 0.00010803 5.05427e-05)
(-0.00153529 0.00011147 4.60203e-05)
(-0.00156917 0.000115484 4.07985e-05)
(-0.00160445 0.000119927 3.46632e-05)
(-0.00163988 0.000124506 2.78015e-05)
(-0.00167364 0.000128802 2.0258e-05)
(-0.00170404 0.000132813 1.30522e-05)
(-0.00172574 0.00013643 5.04073e-06)
(-0.000615766 0.000284663 0.000160867)
(-0.000699933 0.000239636 -0.000103014)
(-0.000651547 0.000154888 -0.000103583)
(-0.000636578 7.75964e-05 -9.11221e-05)
(-0.000725168 2.03125e-05 -6.74938e-05)
(-0.000891541 -1.66124e-06 -2.80094e-05)
(-0.00105777 1.34673e-05 1.45727e-05)
(-0.00117872 4.84265e-05 4.42872e-05)
(-0.00125133 8.31528e-05 5.85963e-05)
(-0.00129078 0.000107264 6.27399e-05)
(-0.00131278 0.000120505 6.22484e-05)
(-0.0013277 0.000126753 6.00338e-05)
(-0.00134143 0.000129583 5.71971e-05)
(-0.00135697 0.000131303 5.41145e-05)
(-0.00137551 0.000133132 5.08829e-05)
(-0.00139737 0.000135579 4.74655e-05)
(-0.00142256 0.000138791 4.37859e-05)
(-0.00145095 0.000142772 3.96772e-05)
(-0.00148213 0.000147497 3.49822e-05)
(-0.00151511 0.000152846 2.94695e-05)
(-0.00154855 0.000158509 2.33293e-05)
(-0.00158052 0.000163942 1.66575e-05)
(-0.00160948 0.000169055 1.06135e-05)
(-0.00163055 0.000173556 4.15856e-06)
(-0.000678653 0.000359568 0.000192578)
(-0.000668938 0.000262711 -9.79375e-05)
(-0.000616036 0.000180176 -0.000101676)
(-0.000588753 0.000100581 -9.11031e-05)
(-0.000657325 4.15332e-05 -7.21736e-05)
(-0.000814359 1.71976e-05 -3.80941e-05)
(-0.000982324 3.09785e-05 2.98486e-06)
(-0.00110739 6.62899e-05 3.37487e-05)
(-0.0011821 0.0001023 4.94779e-05)
(-0.0012211 0.000127667 5.46493e-05)
(-0.00124097 0.00014169 5.47494e-05)
(-0.00125297 0.000148264 5.28236e-05)
(-0.00126351 0.000151149 5.0099e-05)
(-0.00127581 0.000152837 4.70563e-05)
(-0.00129111 0.000154667 4.38818e-05)
(-0.00130973 0.000157206 4.06015e-05)
(-0.0013317 0.000160618 3.71724e-05)
(-0.00135695 0.000164932 3.34374e-05)
(-0.00138522 0.000170156 2.92398e-05)
(-0.00141575 0.000176228 2.43345e-05)
(-0.00144716 0.000182844 1.89086e-05)
(-0.00147741 0.000189361 1.3098e-05)
(-0.00150509 0.000195572 8.19377e-06)
(-0.00152567 0.000200991 3.27738e-06)
(-0.000569958 0.000337024 0.000182449)
(-0.000621287 0.000282216 -9.1328e-05)
(-0.00057706 0.000201139 -9.90809e-05)
(-0.000540595 0.000119696 -8.92463e-05)
(-0.000587914 5.85803e-05 -7.40447e-05)
(-0.000731516 3.13182e-05 -4.58469e-05)
(-0.000899105 4.28634e-05 -7.39163e-06)
(-0.00102788 7.75301e-05 2.39707e-05)
(-0.00110489 0.000114045 4.10664e-05)
(-0.00114359 0.000140121 4.72926e-05)
(-0.00116139 0.000154545 4.79707e-05)
(-0.00117046 0.000161157 4.62645e-05)
(-0.00117782 0.000163873 4.35509e-05)
(-0.00118693 0.000165352 4.0442e-05)
(-0.00119907 0.000167034 3.72322e-05)
(-0.00121453 0.000169517 3.4017e-05)
(-0.0012333 0.000172968 3.07825e-05)
(-0.00125535 0.000177431 2.73759e-05)
(-0.00128059 0.000182962 2.36373e-05)
(-0.00130849 0.000189569 1.93111e-05)
(-0.00133776 0.000196997 1.45792e-05)
(-0.00136629 0.000204524 9.60795e-06)
(-0.0013927 0.000211834 5.80979e-06)
(-0.00141284 0.000218189 2.40242e-06)
(-0.000582172 0.000384908 0.000210601)
(-0.000580639 0.000299953 -8.73236e-05)
(-0.000536881 0.000217763 -9.53734e-05)
(-0.000492685 0.000134943 -8.58357e-05)
(-0.000518429 7.13373e-05 -7.30518e-05)
(-0.000644121 4.07449e-05 -5.05942e-05)
(-0.000807909 4.9189e-05 -1.58852e-05)
(-0.000939092 8.20637e-05 1.53982e-05)
(-0.0010181 0.000118068 3.36366e-05)
(-0.00105651 0.000144098 4.08406e-05)
(-0.00107219 0.000158391 4.20049e-05)
(-0.00107831 0.000164673 4.03902e-05)
(-0.0010825 0.000166967 3.75449e-05)
(-0.00108846 0.000168062 3.42396e-05)
(-0.00109753 0.000169465 3.0894e-05)
(-0.00110992 0.000171773 2.76745e-05)
(-0.00112555 0.000175128 2.45875e-05)
(-0.00114441 0.000179587 2.1472e-05)
(-0.00116655 0.000185238 1.81604e-05)
(-0.00119171 0.000192199 1.4391e-05)
(-0.00121882 0.000200286 1.03381e-05)
(-0.00124569 0.000208754 6.18919e-06)
(-0.00127102 0.000217149 3.46426e-06)
(-0.00129088 0.000224467 1.53443e-06)
(-0.000470644 0.000345096 0.000187678)
(-0.000528415 0.000306323 -7.93161e-05)
(-0.00049533 0.000231086 -9.12473e-05)
(-0.000446849 0.00014695 -8.14895e-05)
(-0.000451422 8.02696e-05 -6.94606e-05)
(-0.000555042 4.58631e-05 -5.1896e-05)
(-0.000711064 5.0389e-05 -2.17911e-05)
(-0.000842863 8.03206e-05 8.61824e-06)
(-0.000923436 0.000114716 2.76414e-05)
(-0.000961576 0.000139849 3.56439e-05)
(-0.000975295 0.000153429 3.71191e-05)
(-0.000978644 0.000158995 3.53958e-05)
(-0.000979867 0.000160632 3.22242e-05)
(-0.000982946 0.000161221 2.85616e-05)
(-0.000989233 0.000162274 2.49663e-05)
(-0.000998838 0.000164347 2.1671e-05)
(-0.00101156 0.000167532 1.8683e-05)
(-0.0010274 0.000171873 1.58194e-05)
(-0.00104649 0.000177511 1.28957e-05)
(-0.00106888 0.00018465 9.6469e-06)
(-0.00109375 0.000193226 6.24179e-06)
(-0.00111897 0.000202522 2.88271e-06)
(-0.00114324 0.000211958 1.18373e-06)
(-0.00116284 0.000220213 6.82968e-07)
(-0.000460266 0.000373165 0.000204919)
(-0.000486488 0.000314622 -7.38395e-05)
(-0.000455892 0.00024119 -8.65838e-05)
(-0.000403841 0.000155965 -7.63222e-05)