/*--------------------------------*- C++ -*----------------------------------*\
  =========                 |
  \\      /  F ield         | OpenFOAM: The Open Source CFD Toolbox
   \\    /   O peration     | Website:  https://openfoam.org
    \\  /    A nd           | Version:  6
     \\/     M anipulation  |
\*---------------------------------------------------------------------------*/
FoamFile
{
    version     2.0;
    format      ascii;
    class       volScalarField;
    location    "0.4";
    object      yPlus;
}
// * * * * * * * * * * * * * * * * * * * * * * * * * * * * * * * * * * * * * //

dimensions      [0 0 0 0 0 0 0];

internalField   uniform 0;

boundaryField
{
    inlet
    {
        type            calculated;
        value           uniform 0;
    }
    outlet
    {
        type            calculated;
        value           uniform 0;
    }
    roughCylinder
    {
        type            calculated;
        value           nonuniform List<scalar> 
3840
(
63.4849
47.7569
51.0527
57.6602
62.3922
66.2107
69.6479
72.8582
75.9028
78.801
81.5959
84.35
87.1113
89.9105
92.7617
95.6733
98.6461
101.673
104.728
107.766
110.704
113.397
115.633
117.023
79.8373
46.8305
50.0737
56.5978
61.2864
65.0782
68.4738
71.6063
74.5631
77.3655
80.064
82.722
85.3874
88.0892
90.8424
93.6548
96.5271
99.4531
102.409
105.348
108.192
110.802
112.971
114.323
77.1324
47.6811
49.1454
55.5446
60.2188
63.9902
67.3386
70.3846
73.2452
75.9443
78.5395
81.0952
83.6596
86.2593
88.9094
91.6175
94.3848
97.2049
100.056
102.891
105.638
108.16
110.26
111.57
71.4801
46.9271
48.257
54.5692
59.2334
62.9913
66.2886
69.2442
72.0047
74.5978
77.0887
79.5421
82.0066
84.506
87.0548
89.66
92.3239
95.0399
97.7875
100.522
103.174
105.609
107.639
108.908
68.9331
46.8067
47.4428
53.6649
58.3329
62.0783
65.3207
68.1848
70.8426
73.3286
75.715
78.0672
80.4339
82.836
85.2865
87.7918
90.3549
92.9696
95.6168
98.2539
100.812
103.164
105.125
106.354
63.8108
46.0378
46.7256
52.8389
57.5155
61.247
64.4319
67.205
69.7583
72.1367
74.419
76.6716
78.9429
81.2512
83.6069
86.0157
88.4812
90.9976
93.5473
96.0895
98.5573
100.828
102.723
103.912
68.8068
47.3407
46.0916
52.0932
56.7789
60.4943
63.6201
66.3033
68.752
71.023
73.2018
75.3564
77.5348
79.7526
82.0174
84.3335
86.705
89.1262
91.5816
94.0317
96.4122
98.6029
100.434
101.585
64.6667
47.52
45.6387
51.4288
56.1182
59.8145
62.8822
65.4787
67.8244
69.9886
72.065
74.1232
76.2111
78.3421
80.5197
82.7468
85.0275
87.3569
89.7209
92.0817
94.3773
96.4915
98.2595
99.3728
62.564
46.6897
45.1407
50.8323
55.5231
59.2001
62.2137
64.7282
66.9745
69.0337
71.0089
72.9723
74.9719
77.019
79.1135
81.2557
83.4489
85.6898
87.9653
90.2399
92.4529
94.4919
96.1988
97.2756
63.3858
47.5007
44.9229
50.3071
54.9862
58.6441
61.6092
64.049
66.2013
68.158
70.0339
71.9043
73.8177
75.7839
77.7988
79.8597
81.969
84.1242
86.314
88.5049
90.6378
92.6038
94.2511
95.2916
57.1765
47.0316
44.6274
49.8356
54.4988
58.1395
61.0627
63.4358
65.5013
67.3602
69.1393
70.9183
72.7472
74.6349
76.5739
78.5575
80.5863
82.6586
84.765
86.8742
88.929
90.824
92.4127
93.4186
75.3069
47.4723
44.5484
49.4317
54.0544
57.6792
60.5685
62.8847
64.8713
66.6382
68.324
70.014
71.76
73.5713
75.4373
77.3473
79.2992
81.2914
83.3166
85.3459
87.3242
89.1497
90.6815
91.6532
73.8347
49.039
44.5516
49.0605
53.6462
57.2581
60.12
62.3887
64.305
65.9882
67.5854
69.1889
70.8538
72.5903
74.386
76.226
78.1046
80.0197
81.9655
83.9165
85.8197
87.5769
89.0536
89.9913
66.7942
48.1661
44.5238
48.7581
53.2733
56.87
59.7118
61.9425
63.7979
65.406
66.9202
68.4406
70.0258
71.6886
73.4158
75.1889
76.9979
78.8391
80.7078
82.5817
84.4112
86.1014
87.5238
88.4287
68.2703
49.9034
44.7505
48.4772
52.928
56.5123
59.3385
61.5391
63.3425
64.8845
66.323
67.7646
69.2723
70.8624
72.5223
74.2308
75.9734
77.7437
79.5373
81.3351
83.0916
84.7156
86.0843
86.9572
57.9745
49.1164
44.9699
48.2781
52.6174
56.1802
58.9945
61.1721
62.9325
64.4171
65.7869
67.154
68.5863
70.1041
71.6974
73.3431
75.0227
76.7258
78.4469
80.1699
81.8541
83.4129
84.7292
85.5714
68.3228
50.3614
45.2127
48.0899
52.328
55.8724
58.6769
60.8364
62.5606
63.9965
65.3049
66.6027
67.9619
69.4082
70.9349
72.5191
74.1387
75.7792
77.4321
79.0833
80.697
82.1916
83.4562
84.2679
66.3381
50.6443
45.5294
47.9718
52.0675
55.5845
58.3791
60.5245
62.2198
63.6141
64.8684
66.1021
67.3915
68.7673
70.2273
71.7503
73.3118
74.8931
76.4819
78.0644
79.61
81.0428
82.2577
83.0406
65.919
51.7026
45.9916
47.8814
51.8237
55.3172
58.103
60.2367
61.9065
63.2652
64.4716
65.6467
66.87
68.1773
69.5713
71.0337
72.5394
74.0659
75.5959
77.1141
78.5944
79.9667
81.1325
81.8864
56.9887
51.4901
46.3723
47.8265
51.6017
55.0651
57.8404
59.9631
61.6108
62.9394
64.1032
65.2243
66.3848
67.6249
68.9526
70.3537
71.8036
73.2776
74.7537
76.2128
77.6323
78.9478
80.0677
80.7953
78.4855
52.6389
46.8864
47.8207
51.392
54.828
57.596
59.7095
61.3365
62.6359
63.7614
64.8333
65.935
67.1107
68.3734
69.7132
71.1083
72.5326
73.9594
75.3648
76.7273
77.988
79.0627
79.7639
65.9098
52.4789
47.1442
47.7771
51.1814
54.5923
57.3569
59.4621
61.0682
62.3419
63.4302
64.4544
65.4991
66.6112
67.8081
69.085
70.4235
71.798
73.1791
74.537
75.849
77.0603
78.0943
78.7727
62.9992
53.4923
47.813
47.8171
50.9739
54.3591
57.1297
59.2299
60.8177
62.0631
63.1166
64.096
65.0863
66.137
67.269
68.4823
69.763
71.0877
72.4246
73.739
75.0042
76.1687
77.1629
77.8184
55.9081
53.1121
48.0833
47.7761
50.7368
54.1058
56.8906
58.989
60.5591
61.7773
62.7928
63.7254
64.6604
65.6488
66.7142
67.8609
69.0798
70.3511
71.6439
72.9189
74.1439
75.2679
76.2279
76.8651
71.4148
53.9505
48.5773
47.7772
50.4737
53.8318
56.646
58.7529
60.3091
61.4985
62.4768
63.363
64.2431
65.1696
66.1681
67.2464
68.4005
69.615
70.8604
72.0955
73.282
74.3671
75.2936
75.9126
69.7232
55.4236
49.1036
47.7545
50.1551
53.5012
56.3553
58.4779
60.0214
61.1818
62.1182
62.953
63.7746
64.6359
65.5639
66.5692
67.6521
68.8022
69.9951
71.1895
72.3412
73.3935
74.2928
74.8994
58.5029
54.1585
49.2297
47.667
49.7718
53.1137
56.0313
58.1855
59.7215
60.8523
61.7457
62.5283
63.2899
64.085
64.9413
65.871
66.8784
67.9583
69.0915
70.2388
71.3525
72.3707
73.2424
73.8363
71.9183
55.3709
49.7161
47.6065
49.3042
52.6173
55.61
57.8038
59.3343
60.4306
61.2736
61.9962
62.6912
63.414
64.1925
65.0406
65.965
66.9654
68.0293
69.1231
70.1981
71.1864
72.0372
72.6259
64.381
55.433
50.0236
47.5179
48.756
52.0167
55.1148
57.3697
58.9041
59.965
60.7542
61.4131
62.0377
62.6854
63.3843
64.1476
64.9837
65.8963
66.88
67.9094
68.9379
69.8918
70.72
71.3031
73.4831
56.1089
50.2792
47.3614
48.0805
51.2331
54.4452
56.7753
58.313
59.3307
60.0533
60.6353
61.1784
61.7409
62.3506
63.0208
63.7601
64.5752
65.4675
66.4218
67.3975
68.3178
69.1297
69.7157
63.9075
55.5686
50.3893
47.2023
47.3176
50.2851
53.6426
56.0804
57.6362
58.6114
59.262
59.7598
60.2136
60.6858
61.204
61.7791
62.4176
63.1281
63.9181
64.7832
65.6925
66.5697
67.3602
67.9474
70.5833
56.0311
50.5964
47.002
46.4268
49.0436
52.5427
55.1158
56.6918
57.6106
58.1675
58.5588
58.9047
59.2697
59.6818
60.149
60.6769
61.2736
61.9511
62.7178
63.5546
64.3903
65.168
65.7694
62.3229
55.392
50.6278
46.7911
45.5231
47.6102
51.2039
53.9629
55.5871
56.4576
56.9134
57.1838
57.4049
57.6521
57.9534
58.3138
58.7309
59.2109
59.7709
60.4266
61.1756
61.9556
62.7136
63.327
60.875
55.3043
50.7709
46.6703
44.6105
45.9273
49.3742
52.3337
54.0238
54.8183
55.1355
55.2462
55.3102
55.4112
55.5791
55.8113
56.1035
56.4582
56.8914
57.4348
58.099
58.8375
59.5988
60.2534
67.4688
55.6669
50.7149
46.458
43.7096
44.1358
47.2539
50.3125
52.0825
52.8299
52.9933
52.9056
52.7679
52.6917
52.7118
52.822
52.9986
53.2378
53.5616
53.9991
54.581
55.2776
56.0461
56.7435
60.5356
55.3917
50.8645
46.4013
42.8654
42.1177
44.5303
47.5015
49.2503
49.8484
49.7609
49.3834
48.9705
48.6624
48.4996
48.4524
48.4926
48.6092
48.8145
49.1671
49.7051
50.4194
51.2775
52.1144
62.0978
55.7453
50.9157
46.2712
42.0528
40.0542
41.3914
43.9878
45.5515
45.8764
45.4227
44.6321
43.8414
43.2387
42.8621
42.6677
42.5852
42.5929
42.7203
43.011
43.5381
44.3417
45.3637
46.3912
61.2006
55.8033
51.0953
46.3625
41.4216
37.8622
37.4377
39.0147
39.9348
39.5772
38.3425
36.7759
35.3324
34.2759
33.612
33.213
32.9933
32.9282
33.0339
33.438
34.1924
35.2613
36.7283
38.2376
64.1257
56.3238
51.2709
46.4223
40.8515
35.6534
32.7765
32.1994
31.3449
29.1042
25.8256
22.1774
19.0595
16.5754
14.9438
13.8423
13.0455
12.596
12.7182
13.6865
15.519
18.5738
21.7105
24.6337
64.7856
56.83
51.8658
46.9554
40.9888
34.2749
27.8983
22.3808
15.6448
21.1583
21.1249
13.0494
13.4031
22.9445
23.1795
23.6504
24.0957
24.5136
24.8015
24.6787
25.3177
17.9106
18.9596
20.1818
66.2347
60.56
50.7716
39.3425
29.0667
22.5381
17.5757
14.1642
12.4626
14.1791
15.3946
14.4981
13.4314
11.9937
11.0172
6.16788
5.96021
4.69051
4.29344
4.17195
4.17024
4.2911
4.69121
5.94965
6.20672
10.9512
12.0312
13.3966
14.35
15.4464
14.2503
12.4967
14.2221
17.6704
22.3551
29.0538
39.6308
51.2398
59.9523
64.3856
56.4166
54.7617
51.1056
45.5713
38.8336
32.5807
26.5489
20.5966
15.0301
12.5635
12.6427
12.7164
13.1534
13.3346
13.0756
12.4653
12.0542
12.8006
12.4447
12.0326
12.0274
12.4386
12.8023
12.0625
12.4851
13.0785
13.3469
13.1588
12.6928
12.6737
12.6203
15.0478
20.6585
26.5491
32.4171
38.8848
45.822
51.2484
54.3364
55.8281
51.0703
49.951
48.2057
45.1117
40.4063
35.1586
30.2986
25.9188
21.4754
18.0404
16.8663
17.0174
17.4445
17.4703
16.8602
15.8274
14.703
13.8227
13.2795
13.0725
13.0691
13.2813
13.8389
14.7298
15.8569
16.8778
17.4835
17.4632
17.043
16.901
18.064
21.4968
25.9733
30.2556
35.0093
40.516
45.3656
48.2975
49.7602
50.9401
46.4092
45.5819
44.8453
43.3358
40.1696
35.5098
30.8345
27.539
25.2136
23.3076
21.9445
21.2562
20.9333
20.3926
19.3942
18.0344
16.6057
15.433
14.7193
14.4507
14.4549
14.7385
15.4656
16.6396
18.0616
19.4105
20.4042
20.9447
21.2685
21.9537
23.3274
25.2481
27.5948
30.7459
35.3754
40.3244
43.5622
44.9378
45.5496
46.3564
40.0374
39.4668
39.764
39.9488
38.7492
35.3918
30.9657
27.4833
25.7356
24.8462
24.278
23.7047
23.0549
22.1489
20.9048
19.3917
17.8232
16.4991
15.6754
15.3995
15.4137
15.7147
16.5441
17.8551
19.4074
20.9094
22.1478
23.0548
23.7026
24.2962
24.8733
25.8011
27.5231
30.8408
35.2833
38.9201
40.1303
39.8626
39.4969
39.9616
31.2726
30.263
31.7426
34.103
35.2458
33.8908
30.3834
27.1583
25.3431
24.5275
24.0065
23.5906
23.0494
22.1775
21.0349
19.662
18.2455
17.0126
16.2528
16.0721
16.0975
16.3104
17.0587
18.2566
19.6506
21.0153
22.1632
23.0383
23.6079
24.0224
24.5941
25.3901
27.207
30.2005
33.8326
35.4361
34.2001
31.8876
30.3578
31.1942
18.6475
14.421
17.8488
24.5861
29.7496
30.8836
29.1128
26.2414
24.8247
23.9838
23.2486
22.4047
21.428
20.4301
19.3281
18.2634
17.35
16.7443
16.5063
16.6733
16.7088
16.5719
16.7763
17.3442
18.2442
19.3129
20.4134
21.4391
22.3931
23.3207
23.9805
25.0023
26.1546
29.0358
30.8248
29.8208
25.675
18.3016
14.7811
18.6147
19.0501
5.01213
6.36457
19.7209
22.4894
26.6092
26.5597
24.9329
23.4211
22.7361
21.9933
20.9293
19.9204
18.7165
17.7814
16.9727
16.5742
16.5164
16.7281
17.2507
17.2989
16.8015
16.5306
16.5577
16.9641
17.7749
18.7395
19.9028
21.0228
21.9228
22.9887
23.2588
25.2411
26.1134
26.7396
23.7231
5.23848
19.4145
1.56398
18.9656
19.0829
14.0094
14.0987
23.0911
17.3473
25.0308
24.2273
23.5694
22.6042
22.5229
21.819
21.3976
20.1244
19.2979
18.198
17.4718
16.9737
16.8294
17.0347
17.6678
17.7314
17.1407
16.8651
16.9653
17.4601
18.2117
19.279
20.2193
21.2856
22.1594
22.1498
23.3914
22.6555
25.1733
23.8813
18.1988
22.6897
14.9739
19.0134
18.5076
11.2912
2.49358
18.988
16.4958
19.7079
24.6772
27.1408
25.1547
26.3595
24.8615
24.9914
23.0507
22.3598
20.639
19.6267
18.4529
17.7475
17.3598
17.4622
18.0228
18.0924
17.6048
17.4656
17.8092
18.5027
19.6538
20.7302
22.2851
23.3473
24.5727
25.7347
25.2337
26.9388
24.8369
27.309
17.3465
20.9874
23.0467
20.6755
11.0856
20.8363
16.8831
19.5919
19.5687
18.7789
28.7657
28.038
30.6471
28.4243
29.1548
25.9663
25.4602
22.928
21.8535
20.2047
19.167
18.3469
17.936
17.9849
18.3969
18.4559
18.1288
18.0934
18.4868
19.3147
20.3437
21.9831
23.1673
25.4101
26.5298
28.5918
29.5152
29.9231
28.4359
29.4032
18.4827
22.8216
13.0846
16.6861
20.7939
22.2303
16.7168
16.09
27.3809
22.6479
28.3073
31.3105
32.2123
32.6144
30.9369
29.2953
27.2075
25.1661
23.5221
21.8287
20.7318
19.8025
19.3511
19.275
19.4845
19.5211
19.3822
19.4996
19.9947
20.9225
22.1543
23.7026
25.6874
27.2495
30.0102
30.6792
33.3772
31.996
31.7256
28.4194
22.9702
27.5247
16.4183
16.6475
22.2389
12.5302
16.367
18.0433
8.22684
24.7976
28.089
34.9919
35.3079
36.5907
35.5932
34.1815
32.0999
30.3839
28.217
26.7176
25.1777
24.148
23.4326
23.1172
23.0749
23.0925
23.1833
23.5606
24.3383
25.4521
27.0328
28.6072
30.8081
32.4288
34.7201
35.6838
37.0694
35.6505
34.583
29.8739
23.655
27.3524
16.9058
16.112
12.4597
12.7847
16.6876
17.5065
27.5284
24.5663
31.2899
37.3655
38.6058
40.7789
40.3182
39.3941
37.9102
36.2248
34.3044
32.7341
31.1293
29.9599
29.0552
28.5249
28.293
28.2989
28.5603
29.1514
30.1361
31.3759
33.0672
34.6175
36.6406
38.2176
39.7109
40.6996
40.8299
39.0007
37.8255
30.2066
26.0528
9.23121
18.4859
16.7536
14.2221
14.6495
16.8569
17.4464
27.9286
25.0036
32.573
39.0008
40.8525
43.6286
43.697
43.2277
42.1871
40.6987
39.0676
37.5402
36.0251
34.8049
33.8168
33.151
32.8019
32.7917
33.1392
33.847
34.9103
36.2031
37.7911
39.3174
40.9979
42.4298
43.4629
43.9397
43.767
41.1065
39.2328
32.5627
25.2578
28.0617
17.5883
16.868
14.6737
15.1479
17.6889
20.7704
22.9731
22.5355
33.5603
39.8549
42.1986
45.3174
45.8077
45.6769
44.9447
43.6943
42.2818
40.8701
39.4541
38.2286
37.1868
36.4207
35.9835
35.9487
36.3384
37.1145
38.22
39.5247
41.0121
42.4515
43.8852
45.1244
45.8451
45.9684
45.4741
42.4081
40.0403
33.7351
22.7454
23.0459
20.7842
17.6771
15.155
15.4995
17.9666
21.2794
23.591
22.4194
33.9039
40.3599
42.9753
46.3253
47.1391
47.262
46.7963
45.7657
44.5517
43.2739
41.9483
40.7285
39.6365
38.7837
38.2695
38.2048
38.6165
39.4409
40.5827
41.8908
43.3045
44.6295
45.8791
46.9077
47.3913
47.252
46.484
43.1839
40.5447
34.1095
22.7049
23.6751
21.2983
17.9533
15.5064
15.5983
16.6785
27.5744
20.7669
20.2246
34.3485
40.6009
43.1689
47.0015
47.8586
48.3801
48.0947
47.351
46.326
45.2137
43.9802
42.7768
41.643
40.717
40.1353
40.0374
40.4564
41.3117
42.4782
43.7819
45.1212
46.3181
47.3765
48.1741
48.4295
48.018
47.056
43.5326
40.6693
34.6248
20.6481
21.3087
27.6562
16.8188
15.625
16.0107
16.875
27.5518
20.8987
19.6179
34.1037
39.7813
43.8907
46.5057
48.7127
48.7839
49.2444
48.5625
47.8921
46.9311
45.8222
44.6473
43.4873
42.503
41.8628
41.7292
42.1427
43.0113
44.1852
45.4669
46.717
47.7623
48.5711
49.1451
49.0371
48.4627
47.1893
43.4929
40.7137
34.0235
21.7244
7.80255
25.9598
25.8806
14.0061
24.5507
25.5009
25.8767
5.61044
20.2168
32.7962
39.7443
43.0208
46.8649
48.1948
49.6197
49.6567
49.8341
49.2246
48.5893
47.5889
46.4671
45.2942
44.2632
43.5697
43.3977
43.797
44.6663
45.8319
47.0726
48.2155
49.0501
49.6087
49.769
49.4001
48.4552
46.994
43.1278
40.3592
33.2394
20.3844
28.0919
18.5146
19.0295
25.5974
26.4334
17.4256
28.1096
22.6315
12.909
32.2081
39.2231
42.3848
46.4504
47.991
49.7346
50.1281
50.8025
50.5024
50.1546
49.2989
48.2395
47.0637
45.9912
45.2455
45.0329
45.4147
46.2807
47.4309
48.617
49.6271
50.2263
50.4355
50.1485
49.4029
48.1187
46.5244
42.4724
39.6644
32.723
13.774
22.835
28.2356
17.4187
25.568
25.8813
25.5289
27.5647
23.7965
17.1652
27.765
38.8281
42.2186
45.5331
48.1915
49.3012
50.8548
51.3335
51.7855
51.5105
50.8628
49.8491
48.6707
47.5533
46.7519
46.4972
46.8652
47.7348
48.8738
50.0025
50.8671
51.2292
51.0051
50.3677
48.9221
48.074
45.1472
42.8237
37.695
32.0557
6.81142
14.5786
26.5118
25.4813
25.8166
26.232
25.4412
26.9916
18.658
27.4848
28.063
36.3891
43.3076
45.43
48.3363
49.9451
51.2449
52.2777
52.8041
52.7263
52.1435
51.1528
49.9476
48.7746
47.9137
47.6197
47.9833
48.8714
50.0199
51.1176
51.8934
52.0395
51.6594
50.3614
49.1725
47.7158
44.8229
43.1528
35.646
31.9604
5.79235
14.2712
26.4975
25.3732
26.1301
25.2622
25.8208
11.1567
15.604
19.1044
22.4761
38.0645
42.8215
45.7621
48.7467
50.2396
51.6817
52.7309
53.3438
53.3259
52.7809
51.8047
50.5862
49.3801
48.481
48.1607
48.52
49.4167
50.5657
51.6428
52.3358
52.4811
51.6975
50.7752
48.8498
47.8728
45.0289
41.8784
37.944
25.0011
9.66023
13.3015
10.3393
25.6894
26.4168
81.9069
46.926
50.9288
57.6078
62.3643
66.2096
69.6672
72.8972
75.9602
78.8767
81.6887
84.4581
87.2324
90.0427
92.9021
95.82
98.7963
101.824
104.878
107.91
110.842
113.53
115.763
117.152
78.0974
47.6565
49.9667
56.5031
61.2305
65.0449
68.4598
71.6095
74.5813
77.3978
80.1085
82.7767
85.4498
88.1572
90.9136
93.7269
96.5974
99.5189
102.467
105.397
108.233
110.834
112.998
114.348
72.5601
46.3276
48.9765
55.4618
60.1648
63.961
67.3282
70.3914
73.2669
75.9795
78.5862
81.1512
83.7223
86.3265
88.9787
91.6868
94.4514
97.2665
100.11
102.937
105.675
108.19
110.286
111.595
66.1969
47.4969
48.1507
54.4815
59.1845
62.9648
66.2808
69.2531
72.0282
74.6346
77.1365
79.5986
82.069
84.572
87.122
89.7264
92.3872
95.098
97.8386
100.565
103.209
105.64
107.668
108.938
84.1496
46.6368
47.3055
53.5913
58.2883
62.0554
65.3151
68.1954
70.8674
73.3664
75.7636
78.1241
80.496
82.9009
85.352
87.856
90.4157
93.0254
95.6663
98.2953
100.847
103.197
105.159
106.391
79.4357
47.9454
46.6532
52.7709
57.4767
61.2271
64.4282
67.2165
69.784
72.1752
74.4682
76.7288
79.005
81.3154
83.6712
86.0783
88.5404
91.052
93.5962
96.1321
98.5957
100.866
102.766
103.96
72.1067
46.7635
45.9747
52.0371
56.7436
60.477
63.6178
66.3156
68.7784
71.0621
73.2519
75.4144
77.5976
79.8172
82.0816
84.3958
86.7641
89.1813
91.6321
94.0777
96.4563
98.6507
100.489
101.648
70.714
47.9889
45.5531
51.373
56.0861
59.7989
62.8809
65.4913
67.851
70.028
72.1157
74.1823
76.2751
78.4076
80.5846
82.8098
85.0877
87.4141
89.7752
92.134
94.4304
96.5508
98.33
99.4537
60.7199
46.7866
45.062
50.792
55.4949
59.1866
62.2134
64.7412
67.0015
69.0737
71.0607
73.0331
75.0381
77.087
79.1809
81.3213
83.5126
85.7516
88.0262
90.301
92.5179
94.567
96.2886
97.379
81.7867
47.406
44.8382
50.2616
54.9589
58.6313
61.6094
64.0618
66.228
68.1979
70.0862
71.9666
73.8863
75.8549
77.8695
79.929
82.0372
84.1921
86.3831
88.5768
90.7167
92.6965
94.3623
95.4195
71.0222
47.2489
44.4731
49.8024
54.4741
58.1277
61.0638
63.449
65.5285
67.4006
69.1928
70.9829
72.8195
74.7109
76.6503
78.6331
80.6619
82.7357
84.8458
86.9609
89.0263
90.939
92.5502
93.575
67.9279
48.6729
44.573
49.3869
54.0279
57.6675
60.5697
62.8977
64.898
66.6782
68.3778
70.0802
71.8356
73.6521
75.52
77.4301
79.3832
81.3787
83.4102
85.4486
87.4408
89.2879
90.8457
91.839
58.051
47.666
44.4128
49.0358
53.6279
57.2486
60.1224
62.4025
64.3325
66.0292
67.641
69.2583
70.9346
72.6787
74.4781
76.3197
78.2008
80.121
82.0759
84.0392
85.9601
87.7426
89.2481
90.2102
77.2464
48.6896
44.5893
48.7209
53.2502
56.8599
59.7143
61.956
63.8251
65.447
66.9765
68.5122
70.1111
71.7842
73.5177
75.2943
77.1072
78.9549
80.835
82.7243
84.5746
86.2936
87.7478
88.679
72.0712
49.4096
44.7142
48.4681
52.9181
56.5058
59.3424
61.5538
63.371
64.9272
66.382
67.8405
69.3645
70.9682
72.6378
74.3525
76.1008
77.8791
79.6861
81.5023
83.2826
84.938
86.3412
87.2419
67.9803
49.8712
44.9577
48.249
52.598
56.1715
58.9979
61.1864
62.9608
64.4601
65.847
67.2327
68.6838
70.2185
71.8252
73.4804
75.1678
76.8801
78.6159
80.3596
82.0701
83.6624
85.0149
85.8861
66.1669
50.4132
45.248
48.0932
52.3254
55.8691
58.6822
60.852
62.5903
64.0413
65.3678
66.6858
68.0665
69.5334
71.0778
72.6755
74.3056
75.9565
77.6247
79.298
80.9398
82.4689
83.77
84.6107
57.8262
50.1321
45.538
47.9579
52.0545
55.5783
58.3833
60.5391
62.2484
63.6583
64.9312
66.1866
67.4997
68.8995
70.3814
71.9222
73.4973
75.0901
76.694
78.2989
79.8731
81.3401
82.5908
83.4019
76.7592
51.0725
45.9047
47.8904
51.8284
55.3174
58.1088
60.2519
61.9353
63.3095
64.535
65.7328
66.9818
68.3161
69.7361
71.2209
72.7439
74.2836
75.8284
77.3683
78.8764
80.2812
81.4806
82.2613
71.4242
52.0639
46.2821
47.8144
51.5947
55.0612
57.8441
59.9757
61.6365
62.9804
64.1633
65.3074
66.4945
67.7638
69.121
70.5486
72.0197
73.5089
74.9989
76.4782
77.9236
79.2688
80.4188
81.1708
67.0727
52.6584
46.814
47.8226
51.4002
54.8305
57.6009
59.7213
61.3598
62.6737
63.8175
64.9122
66.0407
67.2469
68.5415
69.9115
71.3317
72.7737
74.214
75.6375
77.023
78.3096
79.4098
80.1325
64.7627
53.1002
47.1883
47.7798
51.1835
54.5922
57.3592
59.47
61.0861
62.3729
63.4783
64.5241
65.5948
66.7373
67.9672
69.2767
70.6434
72.0381
73.4326
74.8062
76.1378
77.3705
78.4249
79.121
56.6059
52.8566
47.6899
47.8149
50.9869
54.3649
57.133
59.2356
60.8309
62.0873
63.1558
64.1548
65.1693
66.249
67.4137
68.6607
69.972
71.3191
72.6697
73.9973
75.2784
76.4592
77.4683
78.138
73.9703
53.686
48.0109
47.7661
50.7448
54.1101
56.8918
58.9906
60.5658
61.7927
62.8208
63.7701
64.7265
65.7414
66.8375
68.0172
69.2675
70.563
71.87
73.1559
74.3932
75.5288
76.4985
77.146
68.1398
54.3829
48.522
47.7775
50.4918
53.8417
56.6485
58.7519
60.3101
61.5051
62.4928
63.3925
64.2904
65.2395
66.2653
67.3744
68.5591
69.7981
71.0579
72.302
73.4972
74.5895
75.5207
76.1466
64.9418
54.8777
48.9252
47.7254
50.1688
53.5121
56.3577
58.4744
60.017
61.1801
62.1227
62.9673
63.8026
64.6822
65.6331
66.6653
67.7763
68.9504
70.1576
71.3593
72.517
73.573
74.4735
75.084
56.8261
54.2958
49.2484
47.6717
49.7965
53.1309
56.0355
58.18
59.7114
60.8419
61.7381
62.5267
63.2975
64.1057
64.9793
65.9308
66.9622
68.0636
69.2099
70.363
71.4802
72.4992
73.3691
73.964
73.419
55.3598
49.6176
47.5834
49.3254
52.638
55.6175
57.7993
59.3224
60.4154
61.2582
61.9831
62.6832
63.4141
64.2047
65.0688
66.012
67.0305
68.1057
69.204
70.2809
71.2688
72.117
72.7054
59.7632
54.7073
49.8026
47.4602
48.7728
52.0401
55.1236
57.3636
58.8876
59.9425
60.7286
61.3865
62.0119
62.6628
63.3676
64.1404
64.9891
65.9145
66.9064
67.9386
68.9675
69.9203
70.7454
71.3273
71.6104
55.806
50.1395
47.3094
48.0989
51.2643
54.4628
56.7762
58.3011
59.3102
60.0272
60.6053
61.1462
61.708
62.3191
62.9931
63.7388
64.5614
65.4585
66.4137
67.3892
68.3096
69.121
69.7068
63.7189
55.4869
50.2391
47.1166
47.3203
50.3145
53.6601
56.0797
57.6207
58.5854
59.2285
59.7204
60.169
60.6367
61.1514
61.7245
62.3632
63.0751
63.8652
64.729
65.6373
66.5155
67.3077
67.8953
71.1328
56.1996
50.5668
46.9597
46.4459
49.0894
52.5784
55.1314
56.6904
57.5969
58.1447
58.5289
58.8684
59.2274
59.6336
60.0954
60.6187
61.2118
61.8862
62.6491
63.4848
64.3248
65.1102
65.7158
61.5758
55.1206
50.5312
46.7456
45.5343
47.6516
51.236
53.9749
55.5813
56.4388
56.8851
57.1478
57.3611
57.6003
57.8933
58.2451
58.6535
59.1254
59.6777
60.3282
61.0757
61.8621
62.6317
63.2517
61.8678
55.2785
50.6286
46.6161
44.64
45.9963
49.4387
52.3757
54.0466
54.8278
55.1358
55.2393
55.2971
55.3917
55.5517
55.7751
56.0575
56.4023
56.8275
57.3634
58.0273
58.7785
59.562
60.2296
60.8649
55.5492
50.8046
46.4877
43.7492
44.192
47.3059
50.3447
52.096
52.831
52.9864
52.893
52.7494
52.6665
52.6797
52.7814
52.9482
53.1767
53.49
53.9233
54.5076
55.22
56.0147
56.73
65.0831
55.5539
50.9086
46.4424
42.9274
42.2087
44.6245
47.5809
49.3147
49.9031
49.8127
49.434
49.0218
48.7139
48.5482
48.4966
48.5305
48.6399
48.8428
49.1905
49.7326
50.4799
51.3846
52.2448
64.4918
55.2924
50.7594
46.2883
42.1112
40.1128
41.4448
44.0359
45.5948
45.9183
45.4662
44.6825
43.8965
43.2965
42.9236
42.7309
42.6484
42.6555
42.7828
43.085
43.6446
44.4773
45.5545
46.6317
61.0549
54.8084
50.7938
46.3244
41.4885
37.966
37.5473
39.1242
40.0515
39.7086
38.4995
36.9565
35.5409
34.5009
33.8633
33.4812
33.2778
33.2299
33.3713
33.7955
34.529
35.7499
37.3083
38.7396
68.1294
56.4136
51.1712
46.4127
40.8961
35.7082
32.8218
32.2504
31.4203
29.2208
25.9921
22.4454
19.4129
17.1976
15.5508
14.5803
13.9116
13.5867
13.8247
14.8675
17.1704
19.7817
23.0121
27.1227
65.4118
56.164
51.358
46.7801
40.9938
34.3497
28.0018
22.5207
15.9236
21.1913
21.1072
12.9506
13.1199
13.8113
23.3978
23.6663
24.12
24.5472
25.019
24.8867
17.3561
18.2151
19.4724
27.6683
63.8794
71.5722
63.1927
70.3354
76.2207
76.8704
68.9392
54.5657
59.1627
54.311
47.0332
43.0928
12.5677
20.0548
13.464
15.7564
13.4681
13.4964
13.0388
12.8492
12.8519
13.055
13.4798
13.7924
15.1253
13.9965
22.3617
21.4001
57.007
22.1672
49.015
56.2585
53.9607
70.2894
74.1212
75.311
78.8572
80.8824
91.6397
74.4279
46.5089
45.2348
42.4865
41.4166
40.1353
38.128
37.2274
34.9868
34.7813
32.3276
32.5506
31.449
31.7378
30.1209
30.1661
29.4098
29.0013
28.7245
28.4688
28.3413
28.3437
28.4762
28.7522
28.9783
29.5496
30.1166
30.176
31.805
31.7211
32.6589
33.2263
35.098
35.7288
37.4006
38.5608
40.2143
41.5914
43.3278
45.252
46.9
51.1493
49.5753
48.9981
47.5382
46.9014
45.6401
44.994
43.9357
43.2706
42.4077
41.6928
40.9896
40.382
39.901
39.2494
38.78
38.3798
38.0657
37.8587
37.7338
37.7355
37.8637
38.0717
38.4066
38.7794
39.3018
39.938
40.4223
41.0368
41.8086
42.4353
43.3145
43.9425
45.0765
45.7147
47.022
47.6597
49.1178
49.7429
51.2999
57.8288
56.2933
55.5698
54.1595
53.3908
52.1283
51.3639
50.2829
49.564
48.673
48.0427
47.3209
46.8042
46.2205
45.7878
45.2816
44.8645
44.5734
44.3518
44.2307
44.2322
44.355
44.5817
44.8705
45.308
45.8027
46.2532
46.835
47.3658
48.0818
48.724
49.6167
50.3561
51.433
52.2124
53.4741
54.253
55.6749
56.3999
57.9511
62.5731
61.0582
60.259
58.8836
58.0479
56.8327
56.0056
54.9584
54.1832
53.3034
52.6179
51.909
51.348
50.8165
50.371
49.9582
49.543
49.234
49.0224
48.898
48.8991
49.0249
49.2377
49.5527
49.9671
50.3891
50.8357
51.3711
51.9344
52.6517
53.3375
54.2195
55.0004
56.0498
56.8883
58.1044
58.9527
60.3304
61.1393
62.6612
66.411
64.9167
64.0652
62.7128
61.8342
60.6342
59.778
58.7376
57.9493
57.074
56.3843
55.6707
55.0963
54.5414
54.0941
53.6798
53.2962
52.9886
52.7707
52.6473
52.6479
52.7721
52.9913
53.2991
53.6887
54.1025
54.5541
55.1099
55.6888
56.4033
57.0974
57.9732
58.769
59.8089
60.6745
61.8734
62.762
64.1158
64.9735
66.4759
69.8682
68.3624
67.4789
66.1191
65.2171
64.0095
63.1333
62.0847
61.2782
60.396
59.6895
58.9725
58.3861
57.8272
57.3598
56.9312
56.5344
56.2283
56.0097
55.8822
55.8823
56.0105
56.2285
56.5359
56.9337
57.3643
57.8336
58.3939
58.9829
59.7011
60.4117
61.2929
62.1062
63.1522
64.0375
65.2417
66.1538
67.5116
68.4019
69.9126
73.1282
71.5857
70.6941
69.3064
68.3917
67.1638
66.2735
65.2127
64.393
63.4982
62.7759
62.0433
61.4373
60.8606
60.374
59.924
59.5108
59.1983
58.9744
58.8432
58.8429
58.9749
59.1974
59.509
59.9239
60.3745
60.863
61.4403
62.0488
62.7813
63.5076
64.4003
65.2265
66.2834
67.1822
68.4047
69.3288
70.712
71.6104
73.1546
76.2348
74.6391
73.7465
72.3217
71.3972
70.1443
69.2409
68.1642
67.3271
66.4184
65.678
64.9315
64.305
63.7075
63.188
62.6904
62.2893
61.9645
61.7349
61.598
61.5973
61.7356
61.9628
62.2863
62.6876
63.1858
63.7066
64.3043
64.933
65.6786
66.4229
67.3284
68.1717
69.2428
70.1545
71.4
72.3338
73.7512
74.6512
76.2448
79.2042
77.5483
76.6597
75.1931
74.2609
72.9806
72.0664
70.9667
70.1133
69.1843
68.424
67.6575
67.0084
66.3877
65.8386
65.3019
64.8939
64.5649
64.3262
64.1833
64.1823
64.3273
64.5631
64.89
65.2976
65.8345
66.3846
67.005
67.656
68.4208
69.1848
70.1096
70.9689
72.0617
72.9838
74.2547
75.1962
76.6523
77.5493
79.1987
82.0713
80.3517
79.4687
77.9586
77.0196
75.712
74.7824
73.6607
72.7872
71.838
71.0543
70.2653
69.5864
68.931
68.3293
67.8166
67.3833
67.0499
66.8028
66.6529
66.6517
66.8048
67.0484
67.3794
67.8114
68.3236
68.9261
69.5809
70.2614
71.0481
71.8352
72.7794
73.6583
74.7719
75.7091
77.0053
77.9539
79.4502
80.3429
82.0513
84.8965
83.1131
82.2365
80.6831
79.7364
78.4004
77.4536
76.3089
75.4138
74.4438
73.6361
72.8243
72.116
71.4245
70.795
70.2703
69.8336
69.4869
69.2328
69.0755
69.0742
69.2356
69.4861
69.83
70.265
70.7884
71.4185
72.109
72.8185
73.6275
74.4381
75.4025
76.3024
77.438
78.3921
79.715
80.6717
82.2079
83.0961
84.8633
87.7263
85.8791
85.0076
83.4108
82.4568
81.0887
80.1245
78.9543
78.0369
77.0434
76.2103
75.3718
74.6298
73.894
73.2755
72.7267
72.2849
71.9277
71.6646
71.5004
71.499
71.6686
71.9278
72.2818
72.7216
73.2687
73.8871
74.6217
75.3646
76.1997
77.0353
78.0225
78.9444
80.1045
81.076
82.4292
83.3939
84.9705
85.8555
87.6817
90.5928
88.6808
87.8127
86.1724
85.2082
83.8082
82.8251
81.6292
80.6888
79.6716
78.8127
77.9474
77.1709
76.4067
75.7797
75.2197
74.7655
74.3996
74.1271
73.9557
73.9543
74.1324
74.4008
74.7633
75.2151
75.7731
76.3993
77.162
77.9392
78.8006
79.6615
80.6719
81.6164
82.8014
83.7919
85.1755
86.1511
87.7685
88.6523
90.5384
93.5077
91.5296
90.6638
88.9808
88.0024
86.5713
85.566
84.3444
83.3789
82.3372
81.4503
80.5556
79.7394
78.978
78.3258
77.7602
77.2916
76.9165
76.6344
76.456
76.4546
76.641
76.9189
77.2904
77.7564
78.3197
78.9707
79.7301
80.5467
81.4372
82.3258
83.3602
84.3296
85.5396
86.5523
87.9657
88.9564
90.614
91.4981
93.4458
96.4817
94.4365
93.5724
91.8462
90.8521
89.3903
88.362
87.1152
86.1239
85.0585
84.1438
83.2208
82.3664
81.6013
80.9287
80.3524
79.8711
79.4855
79.1937
79.0081
79.0068
79.2018
79.4893
79.8712
80.3497
80.9234
81.5945
82.3573
83.2119
84.1305
85.0463
86.1042
87.0991
88.3338
89.3698
90.8129
91.8203
93.5187
94.404
96.4144
99.5143
97.4023
96.5395
94.7675
93.7579
92.2634
91.2119
89.9386
88.9214
87.8311
86.8882
85.9354
85.0532
84.2769
83.5861
82.9974
82.5028
82.1063
81.8045
81.6118
81.6105
81.8141
82.1116
82.5044
82.9962
83.5821
84.2715
85.045
85.9273
86.8755
87.8192
88.9018
89.9226
91.1833
92.2429
93.7177
94.7419
96.4839
97.3709
99.444
102.598
100.417
99.554
97.7359
96.7086
95.1811
94.1043
92.8038
91.7595
90.6426
89.67
88.6852
87.7915
86.9923
86.2884
85.6835
85.1762
84.7679
84.4558
84.2558
84.2547
84.4672
84.7751
85.18
85.6843
86.2867
86.9889
87.7855
88.6787
89.6591
90.6321
91.7414
92.789
94.0773
95.1623
96.6694
97.7124
99.4991
100.39
102.527
105.706
103.458
102.591
100.728
99.6808
98.1204
97.0182
95.6898
94.618
93.4749
92.4726
91.4561
90.5486
89.727
89.0077
88.3865
87.8658
87.4448
87.1226
86.9154
86.9146
87.1357
87.4543
87.8715
88.3898
89.0086
89.7266
90.5452
91.4527
92.465
93.4677
94.603
95.6786
96.9941
98.1053
99.645
100.709
102.539
103.437
105.638
108.791
106.478
105.603
103.697
102.627
101.035
99.9049
98.5499
97.4494
96.2808
95.2489
94.2016
93.2775
92.4339
91.6981
91.0599
90.5253
90.0916
89.7592
89.5446
89.5439
89.7747
90.1039
90.5344
91.0667
91.7029
92.4375
93.2783
94.2024
95.246
96.2783
97.4394
98.5436
99.8861
101.026
102.597
103.685
105.557
106.465
108.729