/*--------------------------------*- C++ -*----------------------------------*\
  =========                 |
  \\      /  F ield         | OpenFOAM: The Open Source CFD Toolbox
   \\    /   O peration     | Website:  https://openfoam.org
    \\  /    A nd           | Version:  6
     \\/     M anipulation  |
\*---------------------------------------------------------------------------*/
FoamFile
{
    version     2.0;
    format      ascii;
    class       volVectorField;
    location    "10";
    object      wallShearStress;
}
// * * * * * * * * * * * * * * * * * * * * * * * * * * * * * * * * * * * * * //

dimensions      [0 2 -2 0 0 0 0];

internalField   uniform (0 0 0);

boundaryField
{
    inlet
    {
        type            calculated;
        value           uniform (0 0 0);
    }
    outlet
    {
        type            calculated;
        value           uniform (0 0 0);
    }
    roughCylinder
    {
        type            calculated;
        value           nonuniform List<vector> 
5120
(
(-0.000253455 -0.000361143 -0.000186242)
(-0.000310591 -0.00046622 -4.20343e-05)
(-0.000344611 -0.000560728 -2.20622e-07)
(-0.000390953 -0.00065131 5.5038e-05)
(-0.000448616 -0.000729785 0.00011873)
(-0.000513966 -0.000791668 0.000182621)
(-0.000583472 -0.000834132 0.000242159)
(-0.000652411 -0.000857659 0.000294559)
(-0.000716692 -0.000864805 0.00033774)
(-0.000774323 -0.000860805 0.000371055)
(-0.000825624 -0.000854165 0.000396155)
(-0.000870726 -0.000850155 0.000414773)
(-0.000906862 -0.000849086 0.000425754)
(-0.000937309 -0.000853456 0.000430178)
(-0.000963342 -0.000862527 0.000429106)
(-0.000986324 -0.000875569 0.000423599)
(-0.00100768 -0.00089181 0.000414721)
(-0.00102865 -0.00091058 0.000403361)
(-0.00105018 -0.000931419 0.000390189)
(-0.00107291 -0.00095402 0.000375625)
(-0.00109719 -0.000978209 0.000359857)
(-0.00112314 -0.00100386 0.000342913)
(-0.0011507 -0.00103086 0.000324683)
(-0.00117973 -0.00105902 0.000304969)
(-0.00120996 -0.00108812 0.000283497)
(-0.00124107 -0.00111783 0.00025991)
(-0.00127264 -0.0011477 0.000233712)
(-0.00130411 -0.00117709 0.000204219)
(-0.00133458 -0.00120504 0.000170255)
(-0.00136264 -0.00123019 0.000130355)
(-0.00138529 -0.00125055 8.23402e-05)
(-0.00139833 -0.00126271 2.78237e-05)
(-0.000272428 -0.000349652 -0.000176146)
(-0.000332702 -0.000451971 -4.4557e-05)
(-0.000369325 -0.000545186 -6.02505e-06)
(-0.000417806 -0.00063549 4.58512e-05)
(-0.000477174 -0.000714986 0.000106947)
(-0.000544095 -0.000778653 0.000169081)
(-0.000615019 -0.000823279 0.000227494)
(-0.000685477 -0.000849228 0.000279287)
(-0.000752012 -0.000859476 0.000322504)
(-0.000813129 -0.000859826 0.000356935)
(-0.000868617 -0.000857199 0.000384041)
(-0.000917311 -0.000854712 0.000404537)
(-0.000956133 -0.00085226 0.000416551)
(-0.000988099 -0.000855541 0.000421529)
(-0.00101564 -0.000863907 0.000420762)
(-0.00104005 -0.0008766 0.000415474)
(-0.00106279 -0.000892712 0.00040676)
(-0.00108517 -0.000911497 0.000395568)
(-0.00110815 -0.000932418 0.000382586)
(-0.00113238 -0.00095513 0.000368257)
(-0.00115821 -0.000979427 0.000352785)
(-0.00118576 -0.00100516 0.000336189)
(-0.00121497 -0.00103221 0.000318364)
(-0.00124567 -0.00106039 0.000299105)
(-0.00127759 -0.00108947 0.000278133)
(-0.00131038 -0.00111913 0.000255085)
(-0.00134362 -0.00114892 0.000229465)
(-0.0013767 -0.0011782 0.00020059)
(-0.0014087 -0.00120603 0.00016729)
(-0.00143813 -0.00123104 0.000128119)
(-0.00146189 -0.00125128 8.09297e-05)
(-0.00147558 -0.00126337 2.73374e-05)
(-0.000291206 -0.000332805 -0.000158661)
(-0.000354316 -0.000432181 -4.75939e-05)
(-0.000393378 -0.000523373 -1.24974e-05)
(-0.000443624 -0.000612765 3.57875e-05)
(-0.000504417 -0.000692777 9.39921e-05)
(-0.00057277 -0.000758016 0.00015413)
(-0.000645193 -0.000804985 0.000211353)
(-0.000717545 -0.000834022 0.000262708)
(-0.000786871 -0.000848302 0.000306413)
(-0.000851746 -0.000853277 0.000342316)
(-0.000911144 -0.000854223 0.000371218)
(-0.000963078 -0.000853179 0.000392999)
(-0.00100537 -0.000850569 0.00040625)
(-0.00103896 -0.000852393 0.000411749)
(-0.00106804 -0.00085988 0.00041128)
(-0.00109395 -0.000872041 0.000406248)
(-0.00111818 -0.000887865 0.000397757)
(-0.00114204 -0.000906509 0.000386782)
(-0.00116652 -0.000927351 0.000374051)
(-0.00119229 -0.000950011 0.000360018)
(-0.00121971 -0.000974241 0.000344897)
(-0.00124889 -0.000999887 0.000328713)
(-0.00127976 -0.0010268 0.000311355)
(-0.00131214 -0.0010548 0.000292612)
(-0.00134574 -0.00108367 0.0002722)
(-0.00138021 -0.00111308 0.000249752)
(-0.00141509 -0.00114257 0.000224768)
(-0.00144975 -0.00117153 0.000196575)
(-0.00148323 -0.00119903 0.000164005)
(-0.00151401 -0.00122374 0.000125639)
(-0.00153883 -0.00124372 7.93649e-05)
(-0.00155315 -0.00125564 2.67986e-05)
(-0.000308106 -0.000312161 -0.000136699)
(-0.000373604 -0.00040803 -5.07152e-05)
(-0.000414636 -0.000496433 -1.92253e-05)
(-0.000466031 -0.000584232 2.52847e-05)
(-0.000527789 -0.000664237 8.03331e-05)
(-0.00059734 -0.000730832 0.000138208)
(-0.000671335 -0.00078032 0.000194081)
(-0.00074592 -0.000812967 0.000245018)
(-0.000818357 -0.0008318 0.000289359)
(-0.000886966 -0.000841413 0.000326783)
(-0.00095008 -0.000845665 0.000357341)
(-0.00100544 -0.000846281 0.000380315)
(-0.00105149 -0.000844548 0.000394893)
(-0.00108744 -0.000844714 0.000401017)
(-0.00111819 -0.000851226 0.000400956)
(-0.00114573 -0.000862708 0.000396234)
(-0.00117154 -0.000878105 0.000388027)
(-0.00119695 -0.000896481 0.000377338)
(-0.00122299 -0.000917137 0.000364924)
(-0.00125033 -0.000939621 0.000351246)
(-0.00127934 -0.000963661 0.000336533)
(-0.00131012 -0.000989075 0.000320812)
(-0.00134261 -0.00101571 0.000303968)
(-0.00137661 -0.00104339 0.000285787)
(-0.00141182 -0.00107187 0.000265975)
(-0.00144787 -0.00110084 0.000244163)
(-0.0014843 -0.00112989 0.000219852)
(-0.00152045 -0.00115837 0.000192375)
(-0.00155532 -0.00118538 0.000160569)
(-0.00158734 -0.00120963 0.000123043)
(-0.00161318 -0.00122923 7.77282e-05)
(-0.00162808 -0.00124092 2.62355e-05)
(-0.000321789 -0.000287709 -0.000112283)
(-0.000389326 -0.000379594 -5.35605e-05)
(-0.00043188 -0.000464591 -2.58569e-05)
(-0.000483887 -0.000550223 1.46884e-05)
(-0.000546228 -0.000629772 6.62823e-05)
(-0.000616856 -0.000697588 0.000121577)
(-0.000692579 -0.000749795 0.000175882)
(-0.000769707 -0.000786374 0.000226326)
(-0.000845422 -0.00080985 0.000271263)
(-0.000917655 -0.000823825 0.000310071)
(-0.000984349 -0.000831136 0.000342151)
(-0.00104323 -0.000833489 0.000366364)
(-0.00109278 -0.000832821 0.000382054)
(-0.00113248 -0.000832357 0.000389257)
(-0.00116512 -0.000837453 0.000389756)
(-0.00119444 -0.000848009 0.00038544)
(-0.00122192 -0.000862816 0.000377613)
(-0.00124895 -0.000880766 0.000367292)
(-0.00127656 -0.000901071 0.000355259)
(-0.00130547 -0.000923232 0.000342001)
(-0.00133604 -0.00094693 0.000327759)
(-0.00136839 -0.000971957 0.000312556)
(-0.00140243 -0.000998151 0.000296279)
(-0.00143796 -0.00102533 0.000278705)
(-0.00147467 -0.00105326 0.000259536)
(-0.0015122 -0.00108163 0.000238395)
(-0.00155003 -0.00111003 0.000214784)
(-0.00158754 -0.00113785 0.000188049)
(-0.00162367 -0.0011642 0.000157028)
(-0.00165685 -0.00118784 0.000120367)
(-0.00168359 -0.00120695 7.60419e-05)
(-0.00169902 -0.00121833 2.56561e-05)
(-0.000332594 -0.00026122 -8.73282e-05)
(-0.000401613 -0.000348522 -5.60054e-05)
(-0.000445072 -0.000429521 -3.22041e-05)
(-0.000497033 -0.000512365 4.22816e-06)
(-0.000559447 -0.00059091 5.20755e-05)
(-0.000630879 -0.00065964 0.000104434)
(-0.000708301 -0.000714501 0.000156881)
(-0.000788049 -0.000754997 0.000206652)
(-0.000867102 -0.000782909 0.00025204)
(-0.000942949 -0.00080086 0.000292029)
(-0.00101323 -0.00081099 0.000325486)
(-0.00107576 -0.000815086 0.000350973)
(-0.00112904 -0.000815541 0.000367752)
(-0.00117292 -0.00081544 0.000376226)
(-0.00120839 -0.000818777 0.000377549)
(-0.00123965 -0.000828308 0.000373834)
(-0.00126894 -0.000842214 0.000366479)
(-0.00129767 -0.000859521 0.000356626)
(-0.00132692 -0.000879324 0.00034507)
(-0.0013574 -0.000900998 0.000332312)
(-0.00138951 -0.000924189 0.000318605)
(-0.00142336 -0.000948662 0.000303981)
(-0.00145886 -0.000974246 0.000288323)
(-0.0014958 -0.00100074 0.0002714)
(-0.00153388 -0.00102793 0.000252909)
(-0.00157272 -0.00105551 0.000232468)
(-0.00161183 -0.00108309 0.000209585)
(-0.00165053 -0.00111007 0.000183615)
(-0.00168777 -0.00113561 0.0001534)
(-0.00172196 -0.00115849 0.000117623)
(-0.00174952 -0.00117697 7.43134e-05)
(-0.0017654 -0.00118799 2.50623e-05)
(-0.000338843 -0.000232595 -6.2659e-05)
(-0.000408897 -0.000314899 -5.78524e-05)
(-0.000452729 -0.000391376 -3.80373e-05)
(-0.000504048 -0.000470877 -5.92478e-06)
(-0.00056604 -0.000547932 3.78099e-05)
(-0.000638029 -0.000617321 8.68163e-05)
(-0.000717154 -0.0006748 0.000137053)
(-0.00079965 -0.000719189 0.000185905)
(-0.000882136 -0.000751325 0.000231522)
(-0.000961681 -0.000772927 0.000272462)
(-0.00103572 -0.00078572 0.000307155)
(-0.00110209 -0.000791602 0.000333948)
(-0.00115934 -0.000793219 0.000351957)
(-0.00120734 -0.000793821 0.000361636)
(-0.00124719 -0.0007966 0.000364283)
(-0.00128067 -0.000804025 0.000361293)
(-0.00131196 -0.000816948 0.000354591)
(-0.00134254 -0.000833408 0.000345323)
(-0.00137345 -0.000852462 0.000334337)
(-0.00140551 -0.000873466 0.000322164)
(-0.00143913 -0.000895991 0.000309072)
(-0.00147441 -0.000919756 0.000295095)
(-0.00151128 -0.000944571 0.000280115)
(-0.00154952 -0.000970248 0.000263896)
(-0.00158884 -0.000996554 0.000246124)
(-0.00162884 -0.00102321 0.000226418)
(-0.00166903 -0.00104981 0.000204282)
(-0.00170877 -0.00107581 0.000179097)
(-0.00174693 -0.00110037 0.0001497)
(-0.001782 -0.00112236 0.000114821)
(-0.00181025 -0.00114012 7.25498e-05)
(-0.00182651 -0.0011507 2.44574e-05)
(-0.000341237 -0.00020342 -3.94036e-05)
(-0.000411619 -0.000280254 -5.91487e-05)
(-0.000455154 -0.00035175 -4.3289e-05)
(-0.00050509 -0.000427328 -1.5598e-05)
(-0.000565962 -0.000502258 2.37249e-05)
(-0.000637963 -0.000571756 6.89461e-05)
(-0.000718425 -0.000631421 0.000116531)
(-0.000803426 -0.000679301 0.000164058)
(-0.000889246 -0.000715291 0.000209549)
(-0.000972599 -0.000740295 0.000251171)
(-0.00105062 -0.000755656 0.000286952)
(-0.00112108 -0.000763362 0.000315051)
(-0.0011826 -0.000766242 0.000334466)
(-0.00123488 -0.000767579 0.000345499)
(-0.00127894 -0.000770406 0.000349439)
(-0.00131657 -0.000776697 0.00034774)
(-0.00135004 -0.000787662 0.000341849)
(-0.0013826 -0.000802802 0.000333301)
(-0.00141532 -0.000820971 0.000323038)
(-0.001449 -0.000841136 0.00031156)
(-0.00148409 -0.000862828 0.00029917)
(-0.00152073 -0.00088573 0.000285916)
(-0.00155884 -0.000909628 0.000271676)
(-0.0015982 -0.000934305 0.000256205)
(-0.00163853 -0.000959564 0.000239187)
(-0.00167946 -0.000985112 0.000220239)
(-0.00172055 -0.00101061 0.000198877)
(-0.00176109 -0.00103554 0.000174497)
(-0.00179999 -0.00105906 0.000145932)
(-0.00183577 -0.00108005 0.000111965)
(-0.00186458 -0.001097 7.0753e-05)
(-0.00188113 -0.00110716 2.38421e-05)
(-0.000337672 -0.000173225 -1.79721e-05)
(-0.000407876 -0.000244309 -5.96522e-05)
(-0.00045053 -0.00031036 -4.77215e-05)
(-0.000498392 -0.000381445 -2.45764e-05)
(-0.000557433 -0.0004536 9.99073e-06)
(-0.000628915 -0.000522668 5.09326e-05)
(-0.00071048 -0.000584196 9.53426e-05)
(-0.000798005 -0.000635394 0.000141085)
(-0.00088729 -0.000675071 0.000186046)
(-0.000974583 -0.000703305 0.000228018)
(-0.00105685 -0.000721182 0.00026471)
(-0.00113174 -0.000730766 0.000294097)
(-0.00119777 -0.000734963 0.000315039)
(-0.0012546 -0.000737072 0.00032765)
(-0.00130296 -0.00074002 0.000333036)
(-0.00134459 -0.000745787 0.000332684)
(-0.00138176 -0.000755429 0.000328047)
(-0.00141705 -0.000769164 0.000320588)
(-0.00145157 -0.000785893 0.000311175)
(-0.00148689 -0.000804914 0.000300506)
(-0.00152342 -0.000825583 0.000288925)
(-0.00156131 -0.000847504 0.000276479)
(-0.00160051 -0.000870411 0.000263053)
(-0.00164084 -0.000894087 0.000248395)
(-0.001682 -0.000918302 0.000232179)
(-0.00172367 -0.000942789 0.000214026)
(-0.00176537 -0.000967162 0.00019345)
(-0.00180639 -0.000990917 0.000169873)
(-0.00184566 -0.00101323 0.000142129)
(-0.00188196 -0.00103315 0.000109074)
(-0.00191114 -0.00104922 6.89361e-05)
(-0.00192777 -0.00105885 2.32195e-05)
(-0.000329743 -0.000143915 8.95599e-07)
(-0.000398771 -0.000208544 -5.97063e-05)
(-0.000439899 -0.000269153 -5.13635e-05)
(-0.000484978 -0.00033521 -3.27006e-05)
(-0.000541282 -0.000403848 -3.07702e-06)
(-0.000611323 -0.000471637 3.31487e-05)
(-0.000693193 -0.00053422 7.37945e-05)
(-0.000782601 -0.000588025 0.000117109)
(-0.000875013 -0.000630916 0.000160958)
(-0.000966365 -0.000662258 0.000202876)
(-0.00105319 -0.000682695 0.000240266)
(-0.00113287 -0.000694197 0.000270889)
(-0.00120381 -0.000699766 0.00029345)
(-0.00126546 -0.000702663 0.000307834)
(-0.00131839 -0.00070577 0.000314926)
(-0.00136415 -0.000711098 0.000316112)
(-0.00140496 -0.000719843 0.000312897)
(-0.00144322 -0.000732348 0.000306719)
(-0.00148025 -0.000747731 0.00029845)
(-0.00151746 -0.000765502 0.000288816)
(-0.00155542 -0.000784982 0.000278189)
(-0.00159439 -0.000805734 0.000266651)
(-0.00163438 -0.00082746 0.000254103)
(-0.00167522 -0.000849911 0.000240288)
(-0.00171669 -0.000872861 0.000224886)
(-0.00175851 -0.000896042 0.000207527)
(-0.00180033 -0.000919122 0.000187747)
(-0.00184144 -0.000941497 0.000164993)
(-0.00188086 -0.000962512 0.000138109)
(-0.00191738 -0.000981236 0.000106008)
(-0.00194675 -0.000996343 6.70078e-05)
(-0.00196336 -0.00100537 2.25585e-05)
(-0.000313181 -0.000114323 1.68288e-05)
(-0.000382835 -0.00017303 -5.88461e-05)
(-0.000421065 -0.000227637 -5.40239e-05)
(-0.000462481 -0.000288023 -3.96637e-05)
(-0.000515079 -0.00035232 -1.51567e-05)
(-0.000582772 -0.000417954 1.58703e-05)
(-0.00066442 -0.000480988 5.20678e-05)
(-0.00075571 -0.00053721 9.22565e-05)
(-0.000851509 -0.000583341 0.00013439)
(-0.000947056 -0.000617753 0.000175765)
(-0.00103865 -0.000640758 0.000213551)
(-0.0011235 -0.000654253 0.000245316)
(-0.00119969 -0.000661173 0.00026953)
(-0.00126653 -0.000664834 0.000285848)
(-0.00132433 -0.000668077 0.00029489)
(-0.00137449 -0.000672987 0.000297889)
(-0.00141911 -0.000680871 0.000296326)
(-0.00146043 -0.000692187 0.000291609)
(-0.00149986 -0.000706219 0.000284648)
(-0.00153893 -0.000722648 0.000276217)
(-0.00157827 -0.000740789 0.000266692)
(-0.00161821 -0.000760197 0.000256183)
(-0.00165879 -0.000780541 0.000244607)
(-0.00169994 -0.000801584 0.000231715)
(-0.0017415 -0.000823096 0.000217189)
(-0.00178325 -0.000844811 0.000200676)
(-0.00182485 -0.000866381 0.000181717)
(-0.00186583 -0.000887285 0.000159836)
(-0.00190499 -0.000906841 0.000133846)
(-0.00194155 -0.000924316 0.00010275)
(-0.00197088 -0.000938377 6.49565e-05)
(-0.00198736 -0.000946737 2.18549e-05)
(-0.000290756 -8.62559e-05 2.97699e-05)
(-0.000361583 -0.000139706 -5.73003e-05)
(-0.000396569 -0.000188053 -5.58297e-05)
(-0.000433406 -0.000242476 -4.54017e-05)
(-0.000481204 -0.00030168 -2.58877e-05)
(-0.000545224 -0.000364049 -3.43654e-07)
(-0.000625251 -0.000426309 3.07371e-05)
(-0.000717082 -0.000483819 6.69111e-05)
(-0.000815324 -0.000532457 0.000106454)
(-0.000915056 -0.000569905 0.000146661)
(-0.00101185 -0.000595711 0.000184482)
(-0.00110229 -0.000611367 0.000217231)
(-0.00118427 -0.00061975 0.000243132)
(-0.00125668 -0.000624115 0.000261509)
(-0.00131975 -0.00062744 0.000272734)
(-0.00137465 -0.000631887 0.000277834)
(-0.00142333 -0.000638868 0.000278194)
(-0.00146789 -0.000648912 0.000275173)
(-0.00150995 -0.000661577 0.000269754)
(-0.00155092 -0.000676547 0.000262702)
(-0.00159157 -0.000693204 0.00025443)
(-0.00163233 -0.000711111 0.00024508)
(-0.00167332 -0.000729938 0.000234586)
(-0.00171447 -0.000749415 0.000222695)
(-0.00175575 -0.000769322 0.000209096)
(-0.00179702 -0.000789395 0.000193465)
(-0.0018381 -0.000809351 0.00017537)
(-0.00187849 -0.000828619 0.000154396)
(-0.00191719 -0.000846688 0.000129347)
(-0.00195343 -0.000862802 9.92964e-05)
(-0.00198253 -0.000875769 6.27815e-05)
(-0.00199878 -0.000883426 2.11089e-05)
(-0.000259995 -5.98294e-05 3.93726e-05)
(-0.000331282 -0.000107704 -5.45918e-05)
(-0.000363056 -0.00014964 -5.62376e-05)
(-0.000394534 -0.000197592 -4.93769e-05)
(-0.000436297 -0.000250724 -3.47145e-05)
(-0.000495253 -0.000308585 -1.49034e-05)
(-0.000572704 -0.000369094 1.03414e-05)
(-0.000665072 -0.000427686 4.15676e-05)
(-0.000766356 -0.000479144 7.76539e-05)
(-0.000870291 -0.000519674 0.000115927)
(-0.000972198 -0.000548303 0.000153229)
(-0.00106849 -0.000566242 0.000186676)
(-0.0011565 -0.000576114 0.000214171)
(-0.00123503 -0.000581235 0.000234733)
(-0.00130377 -0.000584551 0.000248353)
(-0.00136375 -0.000588414 0.000255824)
(-0.00141678 -0.000594376 0.000258397)
(-0.00146487 -0.000603081 0.000257366)
(-0.00150953 -0.000614191 0.000253702)
(-0.0015524 -0.000627558 0.00024823)
(-0.00159432 -0.000642596 0.000241388)
(-0.00163575 -0.000658866 0.000233341)
(-0.0016769 -0.00067604 0.000224043)
(-0.00171778 -0.00069385 0.000213243)
(-0.00175848 -0.000712074 0.000200637)
(-0.00179899 -0.000730457 0.000185941)
(-0.00183913 -0.0007487 0.000168739)
(-0.00187874 -0.00076633 0.000148723)
(-0.00191645 -0.000782796 0.000124634)
(-0.00195219 -0.000797532 9.56679e-05)
(-0.00198082 -0.000809354 6.04947e-05)
(-0.00199669 -0.000816264 2.03245e-05)
(-0.000224948 -3.70823e-05 4.57311e-05)
(-0.000295395 -7.89709e-05 -5.11624e-05)
(-0.000324571 -0.000114999 -5.569e-05)
(-0.000350766 -0.000156645 -5.18486e-05)
(-0.000385743 -0.000203266 -4.14934e-05)
(-0.000438076 -0.000255463 -2.72199e-05)
(-0.000510728 -0.000312499 -8.24832e-06)
(-0.000600869 -0.000370207 1.70284e-05)
(-0.000702687 -0.000422956 4.84348e-05)
(-0.000810421 -0.000466508 8.3803e-05)
(-0.000918002 -0.000498481 0.000119938)
(-0.00102071 -0.000519156 0.000153703)
(-0.00111552 -0.000530905 0.000182685)
(-0.00120047 -0.000536808 0.000205441)
(-0.00127533 -0.000540099 0.000221642)
(-0.00134084 -0.000543304 0.000231771)
(-0.00139856 -0.000548121 0.000236869)
(-0.00145032 -0.000555298 0.000238112)
(-0.00149795 -0.000564805 0.000236511)
(-0.00154283 -0.000576457 0.000232857)
(-0.00158595 -0.000589749 0.000227635)
(-0.0016279 -0.000604277 0.000221049)
(-0.00166895 -0.000619707 0.000213069)
(-0.00170919 -0.000635764 0.000203439)
(-0.00174886 -0.000652215 0.00019187)
(-0.0017881 -0.000668817 0.000178131)
(-0.0018269 -0.00068531 0.000161846)
(-0.00186515 -0.000701194 0.000142806)
(-0.00190165 -0.000716096 0.000119713)
(-0.00193649 -0.000729386 9.18554e-05)
(-0.00196442 -0.000740049 5.80927e-05)
(-0.00197986 -0.000746224 1.95013e-05)
(-0.000182403 -1.7782e-05 4.81127e-05)
(-0.000249799 -5.28537e-05 -4.62589e-05)
(-0.000276387 -8.28359e-05 -5.3347e-05)
(-0.000297082 -0.000117762 -5.20069e-05)
(-0.000324194 -0.000156916 -4.53167e-05)
(-0.000368037 -0.000201888 -3.61832e-05)
(-0.000434355 -0.000253997 -2.37717e-05)
(-0.000522444 -0.000310558 -5.4229e-06)
(-0.000626414 -0.000365483 2.008e-05)
(-0.000737577 -0.000412041 5.13161e-05)
(-0.000850021 -0.000447243 8.53012e-05)
(-0.00095892 -0.000470842 0.000118729)
(-0.00106031 -0.000484562 0.000148802)
(-0.00115232 -0.000491573 0.000173728)
(-0.00123378 -0.000494941 0.000192644)
(-0.00130515 -0.000497415 0.000205665)
(-0.00136783 -0.000500945 0.000213576)
(-0.00142368 -0.000506523 0.000217427)
(-0.00147414 -0.000514188 0.000218132)
(-0.001521 -0.000523967 0.000216537)
(-0.00156526 -0.000535402 0.000213144)
(-0.00160753 -0.000548099 0.000208183)
(-0.00164819 -0.000561732 0.00020165)
(-0.00168743 -0.000576011 0.000193278)
(-0.00172572 -0.00059071 0.000182801)
(-0.00176336 -0.000605565 0.000170058)
(-0.00180042 -0.000620319 0.000154708)
(-0.00183714 -0.000634551 0.000136692)
(-0.00187186 -0.000647859 0.000114598)
(-0.00190562 -0.000659745 8.78761e-05)
(-0.0019326 -0.000669245 5.55851e-05)
(-0.00194735 -0.000674643 1.86404e-05)
(-0.000138444 -3.8529e-06 4.72432e-05)
(-0.000200983 -3.1933e-05 -4.06043e-05)
(-0.00022623 -5.63599e-05 -5.0145e-05)
(-0.000243139 -8.53582e-05 -5.09304e-05)
(-0.000263356 -0.000117606 -4.69946e-05)
(-0.000298168 -0.000154989 -4.19661e-05)
(-0.000355152 -0.000200211 -3.56203e-05)
(-0.000435496 -0.000251987 -2.47359e-05)
(-0.000534614 -0.000305076 -6.39342e-06)
(-0.000647865 -0.000354247 1.93746e-05)
(-0.000765866 -0.00039355 5.00191e-05)
(-0.00088158 -0.000420947 8.22597e-05)
(-0.000990721 -0.000437614 0.000112992)
(-0.00108986 -0.000446034 0.000139811)
(-0.00117818 -0.000449675 0.000161435)
(-0.00125584 -0.000451533 0.000177535)
(-0.0013239 -0.000453789 0.000188546)
(-0.00138385 -0.000457607 0.000195273)
(-0.00143765 -0.000463441 0.000198626)
(-0.00148662 -0.000471278 0.000199359)
(-0.00153192 -0.000480777 0.000198009)
(-0.00157433 -0.000491602 0.000194845)
(-0.00161426 -0.000503412 0.000189884)
(-0.00165209 -0.000515929 0.000182851)
(-0.00168845 -0.000528885 0.000173489)
(-0.00172391 -0.000541999 0.000161746)
(-0.0017587 -0.000555043 0.000147331)
(-0.00179322 -0.000567592 0.000130348)
(-0.00182583 -0.000579404 0.000109276)
(-0.00185807 -0.000589865 8.37016e-05)
(-0.00188386 -0.000598228 5.29538e-05)
(-0.00189801 -0.000602939 1.77387e-05)
(-8.83566e-05 6.41188e-06 4.23418e-05)
(-0.000142438 -1.40274e-05 -3.30365e-05)
(-0.000165175 -3.21942e-05 -4.43422e-05)
(-0.000177853 -5.44008e-05 -4.66675e-05)
(-0.000190063 -7.83798e-05 -4.44735e-05)
(-0.000213192 -0.000105919 -4.20987e-05)
(-0.000258044 -0.000142123 -4.06785e-05)
(-0.000332132 -0.000189774 -3.72012e-05)
(-0.000434109 -0.000244648 -2.77595e-05)
(-0.000548062 -0.000295692 -9.98034e-06)
(-0.000669103 -0.000338699 1.56641e-05)
(-0.000790551 -0.000370196 4.54833e-05)
(-0.000906079 -0.000389943 7.59117e-05)
(-0.00101285 -0.000400552 0.000104178)
(-0.00110844 -0.000404994 0.000128357)
(-0.00119255 -0.000406461 0.00014758)
(-0.00126605 -0.000407487 0.000161858)
(-0.0013306 -0.000409655 0.000171763)
(-0.00138739 -0.000413481 0.000177971)
(-0.00143833 -0.000419284 0.000181263)
(-0.00148455 -0.000426818 0.000182172)
(-0.00152682 -0.000435748 0.000180978)
(-0.00156572 -0.000445779 0.000177729)
(-0.00160162 -0.000456586 0.000172105)
(-0.00163568 -0.000467918 0.000163899)
(-0.00166859 -0.000479421 0.000153173)
(-0.00170076 -0.00049089 0.000139706)
(-0.00173291 -0.000501925 0.000123803)
(-0.00176292 -0.000512331 0.000103755)
(-0.00179348 -0.000521465 7.93436e-05)
(-0.00181783 -0.000528726 5.02077e-05)
(-0.00183099 -0.000532703 1.67941e-05)
(-4.59505e-05 9.76498e-06 3.50731e-05)
(-8.9951e-05 -4.19129e-06 -2.36992e-05)
(-0.000113377 -1.61195e-05 -3.5498e-05)
(-0.000127247 -3.25082e-05 -4.09655e-05)
(-0.000137289 -5.11093e-05 -4.07155e-05)
(-0.000155676 -7.1683e-05 -3.84246e-05)
(-0.000195845 -9.74088e-05 -3.96984e-05)
(-0.000249549 -0.000131862 -4.67031e-05)
(-0.000321901 -0.000177958 -4.67512e-05)
(-0.000432167 -0.000232925 -3.50019e-05)
(-0.000556817 -0.000280382 -1.57676e-05)
(-0.000683915 -0.000317023 9.87145e-06)
(-0.000807357 -0.000341625 3.88002e-05)
(-0.000921302 -0.000355166 6.76438e-05)
(-0.00102409 -0.000361074 9.39202e-05)
(-0.00111488 -0.000362696 0.000116129)
(-0.00119418 -0.000362876 0.000133758)
(-0.00126294 -0.000363415 0.000146952)
(-0.0013233 -0.000365463 0.000156305)
(-0.00137635 -0.000369321 0.000162408)
(-0.00142332 -0.000374906 0.000165773)
(-0.00146523 -0.000382008 0.000166719)
(-0.0015026 -0.000390312 0.000165293)
(-0.00153619 -0.000399561 0.000161156)
(-0.00156723 -0.000409356 0.00015409)
(-0.00159697 -0.000419336 0.00014436)
(-0.00162587 -0.000429308 0.000131815)
(-0.00165497 -0.000438882 0.000117006)
(-0.00168179 -0.000447996 9.79824e-05)
(-0.00171023 -0.000455833 7.47413e-05)
(-0.00173293 -0.00046205 4.73099e-05)
(-0.00174531 -0.000465438 1.58001e-05)
(-1.36019e-05 1.08408e-05 2.58401e-05)
(-2.70758e-05 1.47166e-06 -1.33119e-05)
(-4.08184e-05 -3.51635e-06 -2.1217e-05)
(-5.00212e-05 -1.19323e-05 -2.72416e-05)
(-5.30228e-05 -2.01199e-05 -2.7589e-05)
(-5.38419e-05 -2.65719e-05 -3.09533e-05)
(-7.0521e-05 -5.40257e-05 -3.3581e-05)
(-0.000127868 -9.04227e-05 -2.62438e-05)
(-0.000242816 -0.00013049 -3.64995e-05)
(-0.000315853 -0.000166419 -4.93098e-05)
(-0.000435937 -0.00021982 -4.1653e-05)
(-0.000566612 -0.000262237 -2.22622e-05)
(-0.000694912 -0.000291815 3.31716e-06)
(-0.000816343 -0.000309737 3.14752e-05)
(-0.000926083 -0.000318118 5.90311e-05)
(-0.00102318 -0.000320591 8.37865e-05)
(-0.00110781 -0.000320359 0.000104579)
(-0.00118141 -0.000319819 0.00012116)
(-0.00124455 -0.000320116 0.000133703)
(-0.00129927 -0.000322101 0.000142753)
(-0.0013468 -0.00032587 0.000148747)
(-0.00138795 -0.000331235 0.00015197)
(-0.00142348 -0.000337991 0.000152499)
(-0.00145397 -0.000345776 0.000149878)
(-0.0014817 -0.000354285 0.000143966)
(-0.00150792 -0.000362942 0.000135225)
(-0.00153332 -0.000371624 0.00012361)
(-0.0015592 -0.00037995 0.000109952)
(-0.00158263 -0.000388004 9.19711e-05)
(-0.00160884 -0.000394675 6.99071e-05)
(-0.00162963 -0.000399894 4.42668e-05)
(-0.00164084 -0.00040268 1.47539e-05)
(4.11446e-06 1.01855e-05 2.24849e-05)
(-2.15387e-06 3.66136e-06 -8.22975e-06)
(-7.85852e-06 1.89663e-06 -1.66305e-05)
(-1.44952e-05 -4.12636e-06 -2.38451e-05)
(-2.20831e-05 -1.34312e-05 -2.73615e-05)
(-3.13183e-05 -2.20903e-05 -2.93247e-05)
(-3.38131e-05 -3.08216e-05 -2.80927e-05)
(-4.69503e-05 -3.72416e-05 -3.74172e-05)
(-8.01721e-05 -0.000108925 -3.08217e-05)
(-0.000204135 -0.00011427 -6.06816e-06)
(-0.000310105 -0.000147113 -5.52587e-05)
(-0.00043744 -0.000202486 -4.8e-05)
(-0.000571368 -0.000240112 -2.82158e-05)
(-0.000698013 -0.000263231 -2.63733e-06)
(-0.000814551 -0.000275524 2.49648e-05)
(-0.000918027 -0.000280061 5.14653e-05)
(-0.00100819 -0.000280386 7.50003e-05)
(-0.00108533 -0.000279082 9.46687e-05)
(-0.00115191 -0.000278269 0.000110474)
(-0.00120842 -0.000278765 0.000122588)
(-0.00125609 -0.000280917 0.000131307)
(-0.00129619 -0.000284761 0.000136928)
(-0.0013292 -0.000290118 0.000139481)
(-0.00135639 -0.000296738 0.000138437)
(-0.00137987 -0.000304095 0.000133595)
(-0.00140193 -0.000311558 0.000125775)
(-0.00142309 -0.000319028 0.000115044)
(-0.00144515 -0.000326223 0.000102573)
(-0.00146425 -0.00033327 8.56121e-05)
(-0.00148783 -0.000338837 6.47325e-05)
(-0.00150665 -0.000343139 4.10192e-05)
(-0.00151673 -0.000345445 1.36398e-05)
(2.13748e-05 8.23399e-06 2.73009e-05)
(2.04e-05 8.66471e-06 -2.23186e-06)
(1.59045e-05 7.0437e-06 -1.06749e-05)
(8.30241e-06 1.95182e-06 -1.3689e-05)
(1.59355e-06 -2.62841e-06 -1.47716e-05)
(-8.76695e-06 -1.04495e-05 -1.97449e-05)
(-1.79555e-05 -5.20827e-06 -2.04558e-05)
(-5.00255e-05 -2.91155e-05 -4.01463e-05)
(-3.95738e-05 -3.86119e-05 -3.22541e-05)
(-6.28478e-05 -4.79502e-05 -2.26901e-05)
(-0.000229685 -0.000100638 -4.52017e-05)
(-0.000308701 -0.000136309 -6.12986e-05)
(-0.000438567 -0.000184285 -5.28586e-05)
(-0.000571931 -0.000216059 -3.2402e-05)
(-0.000692969 -0.000233214 -6.60248e-06)
(-0.0008009 -0.000240746 2.04114e-05)
(-0.000894989 -0.000242465 4.57937e-05)
(-0.000976687 -0.000241623 6.81577e-05)
(-0.00104513 -0.000240041 8.68847e-05)
(-0.00110248 -0.000239398 0.000101949)
(-0.00115003 -0.000240328 0.000113416)
(-0.00118848 -0.000242905 0.000121463)
(-0.00121866 -0.000247162 0.000126113)
(-0.0012414 -0.000252727 0.000126589)
(-0.00126053 -0.000259284 0.000122786)
(-0.00127826 -0.000265762 0.000115844)
(-0.00129525 -0.000272225 0.000106018)
(-0.0013134 -0.00027852 9.48201e-05)
(-0.00132838 -0.000284851 7.89238e-05)
(-0.00134933 -0.000289478 5.92332e-05)
(-0.00136589 -0.000292838 3.75746e-05)
(-0.00137497 -0.000294817 1.2464e-05)
(3.33688e-05 1.29593e-05 3.75488e-05)
(4.15531e-05 9.0186e-06 -8.17371e-06)
(4.29136e-05 3.84896e-06 -1.21152e-05)
(3.94012e-05 -4.13007e-06 -1.34332e-05)
(3.23074e-05 -1.08809e-05 -1.20149e-05)
(2.05068e-05 -1.31962e-05 -6.97888e-06)
(9.42141e-07 -8.14064e-06 -7.14157e-06)
(-5.93701e-06 -7.63103e-06 -4.14929e-07)
(-3.56688e-05 2.45015e-05 -2.22805e-05)
(-4.35583e-05 -7.84891e-06 -0.000103294)
(-5.40287e-05 -0.00013087 -5.91913e-05)
(-0.000189657 -0.000101996 1.09372e-06)
(-0.000313514 -0.000122783 -6.38199e-05)
(-0.000434996 -0.000165082 -5.49403e-05)
(-0.00056084 -0.000189592 -3.30221e-05)
(-0.000673773 -0.000201859 -7.56361e-06)
(-0.000772181 -0.000206652 1.82845e-05)
(-0.000855319 -0.000206737 4.2268e-05)
(-0.000926439 -0.000205579 6.35307e-05)
(-0.000984756 -0.000204568 8.1361e-05)
(-0.00103133 -0.000204689 9.54239e-05)
(-0.0010678 -0.000206395 0.000105868)
(-0.00109427 -0.00020978 0.000112575)
(-0.0011127 -0.000214685 0.000114592)
(-0.00112637 -0.00022057 0.000111635)
(-0.00113913 -0.000226131 0.00010543)
(-0.00115119 -0.000231524 9.64512e-05)
(-0.00116492 -0.000237058 8.66038e-05)
(-0.00117463 -0.000242543 7.17369e-05)
(-0.00119274 -0.000246374 5.32545e-05)
(-0.00120709 -0.000248755 3.38494e-05)
(-0.00121445 -0.000250441 1.1193e-05)
(4.47409e-05 1.46427e-05 4.54302e-05)
(6.03741e-05 1.14908e-05 -8.3809e-06)
(6.602e-05 7.14487e-06 -1.51641e-05)
(6.71548e-05 -1.012e-06 -1.83256e-05)
(6.41564e-05 -1.00004e-05 -1.85591e-05)
(5.65469e-05 -1.75024e-05 -1.65984e-05)
(4.21971e-05 -2.2387e-05 -1.42793e-05)
(2.57824e-05 -1.83605e-05 -1.39886e-05)
(-2.39845e-06 -1.91333e-05 -2.881e-05)
(-4.82126e-05 -3.34183e-05 -4.4184e-05)
(-9.18085e-06 -2.97103e-05 -3.9157e-05)
(-5.51142e-05 -4.9939e-05 -3.37321e-05)
(-0.000185709 -8.79347e-05 -4.81373e-05)
(-0.000307316 -0.000114409 -5.8429e-05)
(-0.00042824 -0.000144957 -5.2373e-05)
(-0.000540712 -0.000162973 -3.06363e-05)
(-0.000638747 -0.000171318 -6.14848e-06)
(-0.0007257 -0.000174251 1.8136e-05)
(-0.00079661 -0.000174049 4.0964e-05)
(-0.000854034 -0.000173256 6.09928e-05)
(-0.000899355 -0.000173261 7.73533e-05)
(-0.000932993 -0.000174468 8.99738e-05)
(-0.000955573 -0.000177358 9.86708e-05)
(-0.000968185 -0.00018158 0.000102022)
(-0.000976575 -0.000187188 9.9794e-05)
(-0.000984728 -0.000191968 9.42468e-05)
(-0.000992577 -0.000196376 8.61941e-05)
(-0.00100202 -0.00020138 7.78464e-05)
(-0.00100711 -0.000206085 6.40816e-05)
(-0.00102241 -0.000209399 4.68165e-05)
(-0.00103496 -0.00021076 2.98777e-05)
(-0.00104173 -0.000212598 9.86135e-06)
(5.32471e-05 1.36656e-05 4.65536e-05)
(7.41628e-05 1.03256e-05 -7.6009e-06)
(8.37663e-05 6.37328e-06 -1.6019e-05)
(8.8805e-05 -1.37124e-06 -2.11776e-05)