/*--------------------------------*- C++ -*----------------------------------*\
  =========                 |
  \\      /  F ield         | OpenFOAM: The Open Source CFD Toolbox
   \\    /   O peration     | Website:  https://openfoam.org
    \\  /    A nd           | Version:  6
     \\/     M anipulation  |
\*---------------------------------------------------------------------------*/
FoamFile
{
    version     2.0;
    format      ascii;
    class       volVectorField;
    location    "1.6";
    object      wallShearStress;
}
// * * * * * * * * * * * * * * * * * * * * * * * * * * * * * * * * * * * * * //

dimensions      [0 2 -2 0 0 0 0];

internalField   uniform (0 0 0);

boundaryField
{
    inlet
    {
        type            calculated;
        value           uniform (0 0 0);
    }
    outlet
    {
        type            calculated;
        value           uniform (0 0 0);
    }
    roughCylinder
    {
        type            calculated;
        value           nonuniform List<vector> 
5120
(
(-0.000678851 -0.000961589 -0.000510888)
(-0.000475408 -0.000682587 -3.56425e-05)
(-0.000428041 -0.000646167 1.47011e-05)
(-0.000478725 -0.000716583 7.03006e-05)
(-0.000557413 -0.00079566 0.000130856)
(-0.000637237 -0.000851653 0.000185334)
(-0.000714407 -0.000883955 0.00023067)
(-0.000784655 -0.000896713 0.00026627)
(-0.000847172 -0.000897384 0.000292724)
(-0.000903651 -0.000897045 0.000313189)
(-0.000951672 -0.000897048 0.000327659)
(-0.000991779 -0.000900869 0.000336021)
(-0.00102554 -0.000909316 0.000339094)
(-0.00105378 -0.000922051 0.000338032)
(-0.00107797 -0.000938212 0.000333994)
(-0.00109988 -0.000956877 0.000328)
(-0.00112111 -0.000977282 0.000320751)
(-0.00114285 -0.000998971 0.000312618)
(-0.00116575 -0.00102173 0.000303722)
(-0.00119006 -0.00104549 0.000294046)
(-0.00121583 -0.00107026 0.00028352)
(-0.00124301 -0.00109602 0.000272032)
(-0.0012715 -0.00112269 0.000259434)
(-0.00130115 -0.00115015 0.00024553)
(-0.00133178 -0.0011782 0.000230026)
(-0.0013631 -0.00120655 0.00021251)
(-0.00139471 -0.00123478 0.000192402)
(-0.00142593 -0.00126229 0.000168951)
(-0.00145573 -0.00128817 0.000141081)
(-0.00148258 -0.00131115 0.000107773)
(-0.00150366 -0.00132944 6.74668e-05)
(-0.00151545 -0.00134032 2.25213e-05)
(-0.000569274 -0.000738296 -0.000388575)
(-0.000507537 -0.000661787 -3.95472e-05)
(-0.000461513 -0.000640146 7.71713e-06)
(-0.000509346 -0.000704913 6.11729e-05)
(-0.000590058 -0.000784395 0.000120546)
(-0.000672323 -0.000842028 0.000174413)
(-0.000752166 -0.000876405 0.000219425)
(-0.000825993 -0.000892479 0.000255162)
(-0.000893183 -0.000897916 0.000282865)
(-0.000953691 -0.000900305 0.000304879)
(-0.00100503 -0.000900221 0.00032065)
(-0.0010464 -0.000902533 0.000329557)
(-0.00108134 -0.000909816 0.000332828)
(-0.00111071 -0.000921707 0.000331884)
(-0.00113598 -0.000937255 0.000327872)
(-0.00115892 -0.000955458 0.00032186)
(-0.00118117 -0.000975489 0.000314586)
(-0.00120391 -0.000996832 0.000306455)
(-0.00122783 -0.00101924 0.000297609)
(-0.0012532 -0.00104265 0.000288039)
(-0.00128009 -0.00106704 0.000277671)
(-0.00130842 -0.00109238 0.00026639)
(-0.0013381 -0.00111861 0.000254042)
(-0.00136899 -0.0011456 0.000240425)
(-0.00140088 -0.00117317 0.000225242)
(-0.0014335 -0.00120104 0.000208083)
(-0.0014664 -0.0012288 0.000188379)
(-0.00149892 -0.00125586 0.000165397)
(-0.00152997 -0.00128133 0.000138083)
(-0.00155795 -0.00130396 0.000105452)
(-0.00157994 -0.001322 6.59772e-05)
(-0.00159227 -0.00133271 2.2005e-05)
(-0.000728131 -0.000845653 -0.000439161)
(-0.000550014 -0.000654917 -4.44799e-05)
(-0.000495778 -0.000626349 5.15697e-07)
(-0.000539846 -0.000686488 5.13174e-05)
(-0.000622133 -0.000766121 0.000109349)
(-0.000706999 -0.000825463 0.000162649)
(-0.000789922 -0.00086256 0.000207598)
(-0.00086781 -0.000882587 0.000243979)
(-0.000939591 -0.000892402 0.000273065)
(-0.00100402 -0.000897376 0.000296332)
(-0.00105887 -0.000898315 0.000313328)
(-0.0011015 -0.000898686 0.000322594)
(-0.00113739 -0.000904704 0.000325983)
(-0.00116776 -0.000915568 0.000325112)
(-0.00119404 -0.000930328 0.000321132)
(-0.00121798 -0.000947908 0.000315124)
(-0.0012412 -0.000967401 0.000307857)
(-0.00126493 -0.000988248 0.000299763)
(-0.00128984 -0.00101016 0.000290998)
(-0.00131624 -0.00103304 0.000281561)
(-0.00134417 -0.00105687 0.000271381)
(-0.00137359 -0.00108161 0.000260334)
(-0.00140437 -0.0011072 0.00024826)
(-0.00143639 -0.00113353 0.000234953)
(-0.00146945 -0.00116042 0.000220114)
(-0.00150326 -0.0011876 0.000203339)
(-0.00153737 -0.00121468 0.000184066)
(-0.0015711 -0.0012411 0.000161584)
(-0.00160332 -0.00126598 0.000134866)
(-0.00163236 -0.0012881 0.000102962)
(-0.00165521 -0.00130575 6.43806e-05)
(-0.00166805 -0.00131623 2.14525e-05)
(-0.000665581 -0.000695006 -0.00034555)
(-0.000581405 -0.000625667 -4.88635e-05)
(-0.000527264 -0.000606125 -7.29197e-06)
(-0.000567644 -0.000662255 4.10791e-05)
(-0.000651257 -0.00074166 9.75401e-05)
(-0.000738837 -0.000802913 0.000150161)
(-0.000825169 -0.000843248 0.000195115)
(-0.000907275 -0.000867561 0.000232337)
(-0.00098346 -0.000881463 0.000262855)
(-0.00105173 -0.000888872 0.000287372)
(-0.00110958 -0.000890967 0.000305306)
(-0.00115464 -0.000890186 0.000315179)
(-0.00119151 -0.000894839 0.000318799)
(-0.0012229 -0.000904561 0.000317988)
(-0.00125015 -0.000918443 0.000314063)
(-0.00127503 -0.000935267 0.000308084)
(-0.00129917 -0.0009541 0.000300851)
(-0.0013238 -0.000974312 0.000292818)
(-0.00134961 -0.000995583 0.000284158)
(-0.00137693 -0.0010178 0.00027488)
(-0.0014058 -0.00104093 0.000264907)
(-0.00143619 -0.00106494 0.000254116)
(-0.00146797 -0.00108976 0.000242337)
(-0.001501 -0.00111528 0.000229357)
(-0.0015351 -0.00114134 0.000214875)
(-0.00156996 -0.00116768 0.000198491)
(-0.00160515 -0.00119393 0.000179656)
(-0.00163997 -0.00121955 0.000157682)
(-0.00167325 -0.00124371 0.000131573)
(-0.00170327 -0.0012652 0.000100412)
(-0.0017269 -0.00128236 6.2746e-05)
(-0.0017402 -0.00129256 2.08872e-05)
(-0.000858173 -0.000800309 -0.000379095)
(-0.000627251 -0.000610862 -5.42594e-05)
(-0.000558061 -0.000581504 -1.46982e-05)
(-0.000592524 -0.000632974 3.05741e-05)
(-0.000676935 -0.00071182 8.52259e-05)
(-0.000767342 -0.000774998 0.000137054)
(-0.000857245 -0.000818697 0.000182002)
(-0.000943513 -0.000847149 0.00022008)
(-0.00102384 -0.000864695 0.000251967)
(-0.00109577 -0.000874284 0.000277716)
(-0.00115663 -0.000877425 0.00029645)
(-0.0012049 -0.000876598 0.00030722)
(-0.00124283 -0.000879519 0.000311175)
(-0.00127519 -0.000887965 0.000310464)
(-0.00130337 -0.000900789 0.000306629)
(-0.00132918 -0.000916757 0.000300732)
(-0.00135422 -0.000934828 0.000293585)
(-0.00137972 -0.000954319 0.000285662)
(-0.0014064 -0.000974862 0.000277153)
(-0.00143455 -0.000996312 0.000268069)
(-0.00146426 -0.00101862 0.000258335)
(-0.00149548 -0.00104175 0.000247821)
(-0.0015281 -0.00106564 0.000236351)
(-0.00156198 -0.00109019 0.000223707)
(-0.00159694 -0.00111525 0.000209587)
(-0.0016327 -0.00114059 0.000193598)
(-0.00166883 -0.00116586 0.000175203)
(-0.0017046 -0.00119053 0.00015374)
(-0.00173882 -0.00121382 0.000128242)
(-0.00176971 -0.00123454 9.78306e-05)
(-0.00179406 -0.00125112 6.10908e-05)
(-0.00180777 -0.00126097 2.03151e-05)
(-0.000768996 -0.000640097 -0.000283053)
(-0.000656014 -0.000573743 -5.75322e-05)
(-0.000585686 -0.000552242 -2.27215e-05)
(-0.000614175 -0.00059965 1.98584e-05)
(-0.000698807 -0.000677527 7.25067e-05)
(-0.000791931 -0.000742585 0.000123395)
(-0.000885419 -0.000789535 0.00016829)
(-0.000975782 -0.000821774 0.000207166)
(-0.00106012 -0.00084252 0.000240332)
(-0.00113563 -0.000854014 0.000267272)
(-0.00119971 -0.000858159 0.000286819)
(-0.00125144 -0.000857994 0.000298551)
(-0.00129118 -0.000859075 0.000303013)
(-0.00132454 -0.0008661 0.000302535)
(-0.00135373 -0.000877727 0.000298859)
(-0.00138041 -0.000892656 0.000293086)
(-0.00140625 -0.000909796 0.000286065)
(-0.0014325 -0.000928397 0.000278289)
(-0.00145989 -0.000948051 0.000269963)
(-0.00148875 -0.000968589 0.000261105)
(-0.00151916 -0.00098995 0.000251641)
(-0.00155109 -0.00101208 0.000241434)
(-0.00158441 -0.00103492 0.000230296)
(-0.00161901 -0.00105838 0.000218004)
(-0.00165469 -0.00108231 0.000204255)
(-0.0016912 -0.00110651 0.000188663)
(-0.00172809 -0.00113063 0.000170707)
(-0.00176468 -0.00115422 0.000149755)
(-0.00179972 -0.00117649 0.000124871)
(-0.00183137 -0.00119633 9.52165e-05)
(-0.00185636 -0.00121223 5.94151e-05)
(-0.00187043 -0.00122167 1.97367e-05)
(-0.000959556 -0.000708394 -0.000287574)
(-0.000698983 -0.000547906 -6.31799e-05)
(-0.000611935 -0.00052064 -3.01214e-05)
(-0.000632032 -0.000563174 9.20649e-06)
(-0.000716049 -0.000639613 5.95136e-05)
(-0.000811699 -0.000706289 0.000109235)
(-0.000908722 -0.00075628 0.000153954)
(-0.00100312 -0.000791911 0.00019353)
(-0.00109136 -0.000815396 0.000227838)
(-0.00117046 -0.000828579 0.000255915)
(-0.00123802 -0.000833705 0.000276384)
(-0.00129299 -0.00083415 0.000288915)
(-0.00133582 -0.000834258 0.000294182)
(-0.00137028 -0.00083942 0.000294094)
(-0.00140042 -0.000849585 0.000290627)
(-0.00142804 -0.000863345 0.000285074)
(-0.00145474 -0.000879464 0.00027826)
(-0.00148176 -0.000897112 0.000270703)
(-0.00150986 -0.000915815 0.000262622)
(-0.00153935 -0.000935353 0.00025404)
(-0.00157034 -0.000955649 0.000244881)
(-0.00160279 -0.000976651 0.000235001)
(-0.00163662 -0.000998299 0.000224208)
(-0.00167171 -0.00102052 0.000212272)
(-0.00170792 -0.00104319 0.000198896)
(-0.00174499 -0.00106613 0.000183699)
(-0.00178252 -0.00108902 0.000166182)
(-0.00181977 -0.0011114 0.000145737)
(-0.00185553 -0.00113255 0.000121469)
(-0.00188785 -0.00115139 9.25762e-05)
(-0.00191339 -0.00116652 5.77228e-05)
(-0.00192777 -0.00117552 1.91531e-05)
(-0.000894873 -0.000584146 -0.000214712)
(-0.000728811 -0.000510002 -6.60161e-05)
(-0.000633076 -0.00048477 -3.76997e-05)
(-0.000645439 -0.000523812 -1.52596e-06)
(-0.000728076 -0.000598571 4.61989e-05)
(-0.000825869 -0.000666586 9.45365e-05)
(-0.000926144 -0.00071921 0.000138921)
(-0.00102434 -0.000757735 0.000179027)
(-0.00111651 -0.000783621 0.000214337)
(-0.0011994 -0.000798408 0.000243507)
(-0.00127053 -0.000804432 0.000264969)
(-0.00132902 -0.000805448 0.000278342)
(-0.00137534 -0.00080538 0.000284512)
(-0.00141178 -0.000808498 0.000285036)
(-0.00144308 -0.000817118 0.000281971)
(-0.00147162 -0.000829484 0.0002767)
(-0.00149905 -0.000844368 0.000270155)
(-0.0015267 -0.000860871 0.000262869)
(-0.00155532 -0.000878464 0.00025508)
(-0.00158529 -0.000896893 0.000246819)
(-0.00161672 -0.000916051 0.000238007)
(-0.00164958 -0.000935866 0.000228492)
(-0.00168378 -0.000956279 0.000218071)
(-0.00171923 -0.000977208 0.000206511)
(-0.00175579 -0.000998549 0.000193512)
(-0.00179323 -0.00102011 0.000178707)
(-0.00183117 -0.00104163 0.000161619)
(-0.00186893 -0.0010627 0.000141679)
(-0.00190522 -0.00108261 0.000118026)
(-0.00193811 -0.00110037 8.99011e-05)
(-0.00196412 -0.00111465 5.60085e-05)
(-0.00197875 -0.00112317 1.85625e-05)
(-0.000787212 -0.00045539 -0.000138026)
(-0.000741869 -0.00045429 -6.98855e-05)
(-0.000651722 -0.000448014 -4.49176e-05)
(-0.000654245 -0.000482467 -1.19172e-05)
(-0.00073398 -0.000554609 3.28452e-05)
(-0.000833208 -0.000623446 7.9427e-05)
(-0.000936494 -0.000678386 0.000123191)
(-0.00103853 -0.000719561 0.000163603)
(-0.0011347 -0.000747605 0.000199731)
(-0.00122138 -0.000763792 0.000229887)
(-0.00129635 -0.000770768 0.000252428)
(-0.00135839 -0.000772182 0.000266758)
(-0.00140822 -0.000772176 0.000273804)
(-0.00144794 -0.000774225 0.000275234)
(-0.00148048 -0.000780584 0.0002727)
(-0.00151006 -0.000791325 0.000267856)
(-0.00153841 -0.000804932 0.000261715)
(-0.00156678 -0.000820257 0.000254808)
(-0.00159595 -0.000836706 0.000247398)
(-0.00162631 -0.000853954 0.000239521)
(-0.00165796 -0.000871864 0.000231093)
(-0.00169095 -0.000890361 0.000221961)
(-0.00172523 -0.000909404 0.000211918)
(-0.00176074 -0.000928913 0.000200731)
(-0.00179737 -0.000948851 0.000188107)
(-0.00183497 -0.00096904 0.000173691)
(-0.00187319 -0.000989189 0.000157029)
(-0.00191129 -0.00100887 0.000137588)
(-0.00194804 -0.00102749 0.00011455)
(-0.00198138 -0.00104405 8.71969e-05)
(-0.00200779 -0.00105743 5.4278e-05)
(-0.00202259 -0.00106547 1.79676e-05)
(-0.000996482 -0.000497273 -0.000128293)
(-0.000759245 -0.000413558 -7.28833e-05)
(-0.000660925 -0.000405391 -5.09622e-05)
(-0.000656837 -0.000438905 -2.1885e-05)
(-0.000733118 -0.000508637 1.94726e-05)
(-0.000833387 -0.000577832 6.39443e-05)
(-0.000939285 -0.00063455 0.000106765)
(-0.0010447 -0.000677782 0.000147156)
(-0.00114471 -0.000707617 0.000183866)
(-0.00123558 -0.000725255 0.000214959)
(-0.00131448 -0.000733076 0.00023858)
(-0.00138047 -0.000734988 0.000254064)
(-0.00143379 -0.000734933 0.000262111)
(-0.00147666 -0.00073639 0.00026444)
(-0.00151198 -0.000741266 0.000262759)
(-0.00154296 -0.000750151 0.000258564)
(-0.00157201 -0.00076201 0.000252911)
(-0.00160088 -0.000775888 0.000246463)
(-0.00163038 -0.000791048 0.000239506)
(-0.00166094 -0.00080709 0.000232082)
(-0.00169271 -0.000823821 0.000224107)
(-0.00172574 -0.000841116 0.000215413)
(-0.00175997 -0.000858905 0.000205784)
(-0.00179539 -0.000877109 0.00019499)
(-0.00183183 -0.000895616 0.000182729)
(-0.00186921 -0.000914318 0.000168671)
(-0.00190732 -0.000932958 0.000152406)
(-0.00194554 -0.000951191 0.00013345)
(-0.00198252 -0.000968408 0.000111022)
(-0.00201626 -0.000983761 8.4453e-05)
(-0.00204295 -0.000996166 5.25239e-05)
(-0.00205778 -0.00100368 1.73657e-05)
(-0.000813053 -0.000349796 -7.13442e-05)
(-0.000757686 -0.000362613 -7.21496e-05)
(-0.00066881 -0.000363475 -5.68222e-05)
(-0.00065434 -0.000394566 -3.16114e-05)
(-0.000724761 -0.000460698 6.17821e-06)
(-0.000824724 -0.000529425 4.8098e-05)
(-0.000932676 -0.000587458 8.95536e-05)
(-0.00104162 -0.000632666 0.000129606)
(-0.00114591 -0.000664377 0.000166705)
(-0.00124088 -0.000683203 0.000198565)
(-0.00132407 -0.000691908 0.000223289)
(-0.00139398 -0.000694157 0.000239997)
(-0.00145118 -0.00069412 0.000249283)
(-0.00149728 -0.000695021 0.000252662)
(-0.00153513 -0.000698775 0.000251889)
(-0.00156802 -0.000706121 0.00024851)
(-0.0015985 -0.000716455 0.000243605)
(-0.00162818 -0.000728916 0.000237818)
(-0.00165801 -0.000742734 0.000231439)
(-0.00168848 -0.000757448 0.000224529)
(-0.00171984 -0.000772804 0.000217013)
(-0.00175224 -0.000788689 0.000208738)
(-0.00178577 -0.000805025 0.000199495)
(-0.00182046 -0.000821736 0.000189052)
(-0.0018563 -0.00083869 0.000177134)
(-0.00189321 -0.000855803 0.000163435)
(-0.00193109 -0.000872905 0.00014758)
(-0.00196923 -0.00088963 0.000129125)
(-0.0020064 -0.000905471 0.00010734)
(-0.00204037 -0.000919586 8.15882e-05)
(-0.00206733 -0.000931042 5.06956e-05)
(-0.00208209 -0.000937947 1.6739e-05)
(-0.000930676 -0.000340209 -4.52416e-05)
(-0.000755504 -0.000313637 -7.34915e-05)
(-0.000665429 -0.000318624 -6.14438e-05)
(-0.000644145 -0.000348945 -4.02094e-05)
(-0.000708382 -0.000411608 -6.53993e-06)
(-0.000807438 -0.000479466 3.22646e-05)
(-0.000917003 -0.000538406 7.18319e-05)
(-0.0010289 -0.000585087 0.000111046)
(-0.00113677 -0.000618112 0.000148105)
(-0.00123637 -0.000638279 0.000180616)
(-0.00132407 -0.000647786 0.000206395)
(-0.0013985 -0.000650488 0.000224458)
(-0.00145946 -0.000650257 0.000235102)
(-0.00150894 -0.000650544 0.000239742)
(-0.00154957 -0.0006533 0.000240077)
(-0.00158442 -0.000659285 0.000237657)
(-0.00161599 -0.00066806 0.000233581)
(-0.00164616 -0.000678961 0.000228539)
(-0.00167603 -0.000691258 0.000222823)
(-0.00170626 -0.000704511 0.000216516)
(-0.00173721 -0.000718451 0.000209553)
(-0.00176901 -0.0007329 0.000201769)
(-0.00180173 -0.000747738 0.000192952)
(-0.00183558 -0.000762906 0.000182886)
(-0.00187061 -0.000778268 0.000171318)
(-0.0019068 -0.000793733 0.000157976)
(-0.00194408 -0.000809183 0.00014253)
(-0.00198191 -0.000824337 0.000124589)
(-0.00201889 -0.000838684 0.000103465)
(-0.00205292 -0.000851515 7.85723e-05)
(-0.00207986 -0.000861912 4.87685e-05)
(-0.00209453 -0.000868179 1.60797e-05)
(-0.000956414 -0.000287059 -1.94771e-05)
(-0.00076176 -0.00027541 -7.4246e-05)
(-0.000662358 -0.000276149 -6.57306e-05)
(-0.000628756 -0.000304157 -4.8261e-05)
(-0.00068336 -0.000362005 -1.86957e-05)
(-0.000779624 -0.000427862 1.64918e-05)
(-0.000889747 -0.000486989 5.3534e-05)
(-0.0010043 -0.000534901 9.13534e-05)
(-0.00111679 -0.000569724 0.000128091)
(-0.001221 -0.000591098 0.000160996)
(-0.0013135 -0.000601395 0.000187766)
(-0.0013924 -0.000604303 0.000207179)
(-0.00145792 -0.000604005 0.0002194)
(-0.00151107 -0.000603636 0.000225525)
(-0.00155459 -0.000605312 0.000227185)
(-0.00159142 -0.000609882 0.000225905)
(-0.00162447 -0.000617233 0.000222875)
(-0.00165541 -0.000626642 0.00021875)
(-0.00168542 -0.00063744 0.000213837)
(-0.0017152 -0.000649148 0.000208221)
(-0.00174518 -0.000661473 0.000201837)
(-0.00177574 -0.000674283 0.000194549)
(-0.00180719 -0.000687489 0.000186162)
(-0.00183971 -0.000700992 0.000176465)
(-0.00187355 -0.000714688 0.000165243)
(-0.00190878 -0.000728489 0.000152264)
(-0.00194538 -0.000742324 0.000137245)
(-0.00198274 -0.000755894 0.000119837)
(-0.00201959 -0.000768807 9.94135e-05)
(-0.00205359 -0.000780343 7.54203e-05)
(-0.00208063 -0.000789744 4.67613e-05)
(-0.00209515 -0.000795349 1.53943e-05)
(-0.000804122 -0.000197026 1.25207e-05)
(-0.000738652 -0.000222376 -7.26943e-05)
(-0.000646887 -0.000232085 -6.93554e-05)
(-0.000604998 -0.000259194 -5.52521e-05)
(-0.000649272 -0.000312275 -2.99061e-05)
(-0.000741306 -0.000375555 1.11353e-06)
(-0.000851417 -0.000434566 3.49815e-05)
(-0.000968671 -0.000483694 7.08067e-05)
(-0.00108448 -0.000519624 0.000106603)
(-0.00119345 -0.000542234 0.000139604)
(-0.00129136 -0.000553449 0.000167282)
(-0.00137559 -0.00055673 0.000188136)
(-0.00144534 -0.000555974 0.000201973)
(-0.00150248 -0.000554824 0.0002098)
(-0.00154905 -0.000555306 0.000213023)
(-0.00158826 -0.000558487 0.000213164)
(-0.00162244 -0.000564184 0.000211329)
(-0.00165376 -0.000571912 0.000208253)
(-0.00168358 -0.000581072 0.000204263)
(-0.00171284 -0.000591232 0.000199467)
(-0.0017421 -0.000602098 0.000193804)
(-0.00177163 -0.000613423 0.00018711)
(-0.00180171 -0.000625073 0.000179195)
(-0.00183283 -0.000636999 0.000169892)
(-0.00186528 -0.000649079 0.000159015)
(-0.00189925 -0.000661217 0.000146386)
(-0.00193477 -0.000673362 0.000131775)
(-0.0019714 -0.000685315 0.000114902)
(-0.00200769 -0.000696675 9.51861e-05)
(-0.00204145 -0.000706873 7.21277e-05)
(-0.00206819 -0.00071514 4.46606e-05)
(-0.0020825 -0.000720069 1.46788e-05)
(-0.000867751 -0.00016565 4.40288e-05)
(-0.000729219 -0.000178124 -7.50021e-05)
(-0.000628921 -0.000191836 -7.21361e-05)
(-0.000575295 -0.000216473 -6.07702e-05)
(-0.000606296 -0.000263842 -3.96645e-05)
(-0.000692259 -0.000323601 -1.33608e-05)
(-0.000800889 -0.00038165 1.65072e-05)
(-0.00091879 -0.000430991 4.94527e-05)
(-0.00103887 -0.000468526 8.3771e-05)
(-0.00115342 -0.000492713 0.000116515)
(-0.00125656 -0.000504697 0.000144841)
(-0.00134607 -0.000508156 0.000167069)
(-0.00142147 -0.000507236 0.00018278)
(-0.00148283 -0.000505127 0.000192514)
(-0.00153312 -0.000504395 0.000197626)
(-0.00157456 -0.000505953 0.000199415)
(-0.00161049 -0.000510091 0.000199097)
(-0.00164261 -0.000516229 0.000197335)
(-0.00167236 -0.00052379 0.000194458)
(-0.00170065 -0.000532309 0.000190564)
(-0.00172818 -0.000541475 0.000185607)
(-0.00175572 -0.000551133 0.000179479)
(-0.00178386 -0.000561174 0.000172023)
(-0.00181297 -0.000571465 0.000163084)
(-0.0018436 -0.000581926 0.000152532)
(-0.0018761 -0.000592453 0.000140246)
(-0.00191052 -0.000603011 0.000126058)
(-0.00194634 -0.000613399 0.000109739)
(-0.00198224 -0.000623311 9.07747e-05)
(-0.00201575 -0.000632201 6.86954e-05)
(-0.00204249 -0.000639467 4.24825e-05)
(-0.00205658 -0.000643729 1.39393e-05)
(-0.000691257 -9.32495e-05 4.90957e-05)
(-0.000667928 -0.000133167 -6.92165e-05)
(-0.000592383 -0.000149952 -7.25591e-05)
(-0.000536479 -0.000175385 -6.47535e-05)
(-0.000553504 -0.0002172 -4.7692e-05)
(-0.00063011 -0.000271959 -2.64785e-05)
(-0.000735554 -0.000328151 -1.42514e-06)
(-0.00085606 -0.00037857 2.78315e-05)
(-0.000979832 -0.000417463 5.98526e-05)
(-0.00109861 -0.000442718 9.16703e-05)
(-0.00120843 -0.000456026 0.000120466)
(-0.00130423 -0.000459917 0.000144052)
(-0.00138446 -0.000458331 0.000161589)
(-0.00145094 -0.000455302 0.000173518)
(-0.0015045 -0.000452972 0.000180713)
(-0.0015489 -0.00045295 0.000184532)
(-0.00158609 -0.000455255 0.000185947)
(-0.00161849 -0.000459586 0.000185682)
(-0.00164781 -0.000465468 0.000184081)
(-0.00167535 -0.000472499 0.000181273)
(-0.00170189 -0.000480322 0.000177211)
(-0.00172791 -0.000488628 0.000171758)
(-0.00175403 -0.000497236 0.000164786)
(-0.00178113 -0.000506083 0.000156218)
(-0.00180979 -0.000515043 0.00014597)
(-0.0018405 -0.000524026 0.000133992)
(-0.0018734 -0.000532985 0.000120192)
(-0.00190811 -0.000541802 0.000104416)
(-0.00194313 -0.000550184 8.6203e-05)
(-0.0019761 -0.000557709 6.5132e-05)
(-0.00200229 -0.000563817 4.02145e-05)
(-0.00201606 -0.000567409 1.31707e-05)
(-0.000625972 -5.48734e-05 6.07487e-05)
(-0.000616766 -9.27531e-05 -6.60425e-05)
(-0.00054888 -0.000112842 -7.2187e-05)
(-0.000490448 -0.000137775 -6.69099e-05)
(-0.000493105 -0.000173836 -5.34278e-05)
(-0.000559779 -0.000223434 -3.75614e-05)
(-0.000661349 -0.000277361 -1.81119e-05)
(-0.000778909 -0.000326487 6.36544e-06)
(-0.000904428 -0.000366132 3.50985e-05)
(-0.00103044 -0.000393794 6.54833e-05)
(-0.00114562 -0.00040798 9.41703e-05)
(-0.00124793 -0.000412334 0.000118934)
(-0.00133534 -0.000410714 0.000138557)
(-0.00140651 -0.000406424 0.000152805)
(-0.0014651 -0.000402792 0.000162569)
(-0.00151213 -0.000400898 0.000168688)
(-0.00155131 -0.000401455 0.000172226)
(-0.00158455 -0.000404114 0.00017378)
(-0.00161346 -0.00040838 0.000173659)
(-0.00163922 -0.000413775 0.000171969)
(-0.00166306 -0.000419975 0.000168717)
(-0.00168622 -0.000426767 0.000163861)
(-0.00170962 -0.000433968 0.000157328)
(-0.00173399 -0.000441389 0.000149074)
(-0.00176022 -0.000448928 0.000139092)
(-0.00178894 -0.000456479 0.000127411)
(-0.00182038 -0.000463999 0.000114017)
(-0.00185401 -0.000471351 9.88149e-05)
(-0.00188843 -0.000478343 8.14073e-05)
(-0.00192105 -0.000484606 6.14054e-05)
(-0.00194716 -0.000489724 3.78579e-05)
(-0.00196069 -0.000492689 1.23755e-05)
(-0.000624831 -2.64655e-05 7.6491e-05)
(-0.000563605 -5.90419e-05 -6.42436e-05)
(-0.000497204 -8.10188e-05 -7.06183e-05)
(-0.000437347 -0.000104496 -6.70941e-05)
(-0.000424466 -0.000134285 -5.63786e-05)
(-0.00047401 -0.000175874 -4.54103e-05)
(-0.000565732 -0.000224897 -3.22188e-05)
(-0.000685146 -0.000274645 -1.38524e-05)
(-0.000816576 -0.000316751 1.03889e-05)
(-0.000944761 -0.000345114 3.81145e-05)
(-0.00106863 -0.000361559 6.62946e-05)
(-0.00117809 -0.000366648 9.19611e-05)
(-0.00127098 -0.000364424 0.000113461)
(-0.00134904 -0.000359392 0.000130401)
(-0.00141093 -0.000353853 0.000142819)
(-0.00146139 -0.000350199 0.000151661)
(-0.00150199 -0.000348814 0.000157579)
(-0.00153527 -0.000349626 0.000161145)
(-0.00156346 -0.000352307 0.000162689)
(-0.00158835 -0.000356457 0.000162363)
(-0.00161087 -0.000361595 0.000160149)
(-0.00163196 -0.000367331 0.000156004)
(-0.00165271 -0.000373401 0.000149916)
(-0.00167446 -0.000379671 0.00014196)
(-0.00169815 -0.000385986 0.000132202)
(-0.0017246 -0.000392224 0.000120763)
(-0.00175409 -0.000398328 0.000107722)
(-0.00178625 -0.000404232 9.30691e-05)
(-0.00181956 -0.000409781 7.64627e-05)
(-0.00185133 -0.000414715 5.75497e-05)
(-0.00187673 -0.000418719 3.54121e-05)
(-0.00188982 -0.00042104 1.15509e-05)
(-0.000508725 1.28265e-06 6.69633e-05)
(-0.000478553 -3.44948e-05 -5.68436e-05)
(-0.000428955 -5.35135e-05 -6.58433e-05)
(-0.000375157 -7.57638e-05 -6.47607e-05)
(-0.000350084 -9.98357e-05 -5.60798e-05)
(-0.000386495 -0.000134574 -4.97592e-05)
(-0.000472174 -0.000179951 -4.35683e-05)
(-0.000582754 -0.000226167 -3.20672e-05)
(-0.00070845 -0.000266651 -1.35166e-05)
(-0.00084699 -0.000299025 1.05671e-05)
(-0.000975114 -0.000316488 3.71452e-05)
(-0.00109303 -0.000322937 6.33363e-05)
(-0.0011951 -0.000321261 8.68557e-05)
(-0.00127787 -0.000314908 0.000106414)
(-0.00134646 -0.000308258 0.000122095)
(-0.0014001 -0.000302731 0.000133966)
(-0.00144275 -0.000299566 0.000142659)
(-0.00147672 -0.000298772 0.000148578)
(-0.00150382 -0.000299955 0.000151945)
(-0.00152563 -0.000302618 0.00015288)
(-0.0015443 -0.000306405 0.000151512)
(-0.00156146 -0.000310957 0.000147915)
(-0.0015786 -0.00031597 0.000142177)
(-0.00159684 -0.000321156 0.000134426)
(-0.00161748 -0.000326365 0.000124841)
(-0.00164149 -0.000331446 0.000113636)
(-0.00166924 -0.00033634 0.000100986)
(-0.00170021 -0.00034098 8.69406e-05)
(-0.00173277 -0.000345262 7.12148e-05)
(-0.00176423 -0.000349045 5.34837e-05)
(-0.00178948 -0.00035211 3.28504e-05)
(-0.00180236 -0.00035387 1.06917e-05)
(-0.000404291 1.56123e-05 5.6711e-05)
(-0.00040122 -1.65996e-05 -5.0931e-05)
(-0.000362377 -3.36717e-05 -6.15402e-05)
(-0.000311337 -5.33897e-05 -6.13307e-05)
(-0.000273333 -7.12351e-05 -5.29091e-05)
(-0.000282396 -9.42129e-05 -4.80992e-05)
(-0.000345029 -0.000129204 -4.73237e-05)
(-0.000455217 -0.000174772 -4.48139e-05)
(-0.000593679 -0.0002205 -3.49975e-05)
(-0.000728093 -0.000252254 -1.62847e-05)
(-0.000868879 -0.000274016 7.7448e-06)
(-0.000994025 -0.000281812 3.36756e-05)
(-0.00110216 -0.000280147 5.87551e-05)
(-0.00119432 -0.000273837 8.12897e-05)
(-0.00126577 -0.000265366 0.000100102)
(-0.00132267 -0.000258175 0.000115295)
(-0.00136661 -0.000253264 0.000126973)
(-0.00140012 -0.000250858 0.000135362)
(-0.00142618 -0.00025081 0.00014072)
(-0.00144711 -0.000252691 0.00014323)
(-0.00146401 -0.000255851 0.000142945)
(-0.0014786 -0.000259794 0.000140006)
(-0.00149251 -0.000264122 0.0001346)
(-0.00150766 -0.00026858 0.000127027)
(-0.00152528 -0.000272929 0.000117549)
(-0.00154664 -0.000277008 0.000106504)
(-0.00157213 -0.000280747 9.41751e-05)
(-0.00160124 -0.000284123 8.06935e-05)
(-0.00163247 -0.000287124 6.58374e-05)
(-0.00166275 -0.000289677 4.92949e-05)
(-0.00168718 -0.000291731 3.02036e-05)
(-0.00169952 -0.000292899 9.80373e-06)
(-0.000259898 1.74024e-05 4.32758e-05)
(-0.000297881 -2.56912e-06 -4.40344e-05)
(-0.000282035 -1.99882e-05 -5.64869e-05)
(-0.000243307 -3.7071e-05 -5.70379e-05)
(-0.000195379 -4.85562e-05 -4.6126e-05)
(-0.000187471 -6.19162e-05 -4.09031e-05)
(-0.000246105 -9.23141e-05 -4.79776e-05)
(-0.000337639 -0.000131042 -5.41357e-05)
(-0.000449596 -0.000169102 -5.09723e-05)
(-0.000603833 -0.000209271 -4.06195e-05)
(-0.000743959 -0.000231693 -2.08397e-05)
(-0.000881212 -0.000242954 3.99485e-06)
(-0.00100055 -0.000243086 3.03407e-05)
(-0.00109655 -0.000235954 5.54509e-05)
(-0.00117642 -0.000227184 7.79322e-05)
(-0.00123731 -0.000218737 9.67454e-05)
(-0.00128283 -0.000212427 0.000111677)
(-0.00131636 -0.000208813 0.000122778)
(-0.00133994 -0.00020764 0.000130103)
(-0.00135591 -0.000208413 0.00013382)
(-0.00136757 -0.000210697 0.000134256)
(-0.00137701 -0.000213921 0.00013168)
(-0.0013863 -0.000217622 0.000126427)
(-0.00139706 -0.000221389 0.000118887)
(-0.00141113 -0.00022501 0.000109471)
(-0.00142973 -0.000228259 9.86059e-05)
(-0.00145328 -0.000231072 8.66816e-05)
(-0.00148133 -0.000233459 7.3891e-05)
(-0.0015118 -0.000235406 6.00325e-05)
(-0.0015419 -0.000237005 4.48213e-05)
(-0.00156616 -0.000238244 2.73983e-05)
(-0.00157836 -0.00023893 8.86771e-06)
(-0.000123524 1.14265e-05 2.3545e-05)
(-0.00018301 4.00586e-07 -3.35315e-05)
(-0.000187939 -1.18113e-05 -4.88844e-05)
(-0.000166581 -2.52922e-05 -5.01287e-05)
(-0.000126029 -3.21644e-05 -3.86478e-05)
(-6.97793e-05 -2.46562e-05 -2.10052e-05)
(-0.000124554 -5.08024e-05 -3.56476e-05)
(-0.000168753 -7.05211e-05 -4.13543e-05)
(-0.000322797 -0.000125819 -6.06223e-05)
(-0.000449722 -0.000159753 -5.9033e-05)
(-0.000613079 -0.000192112 -4.64856e-05)
(-0.000754763 -0.000205425 -2.43191e-05)
(-0.000881272 -0.000207318 2.47937e-06)
(-0.000989595 -0.00020198 3.00846e-05)
(-0.00107101 -0.000192272 5.57271e-05)
(-0.00113329 -0.000182829 7.79655e-05)
(-0.00117941 -0.000175579 9.60861e-05)
(-0.00121164 -0.000171095 0.000109775)
(-0.00123398 -0.000169445 0.000119151)
(-0.00124913 -0.000170136 0.000124423)
(-0.00125863 -0.000172373 0.000125796)
(-0.00126513 -0.000175529 0.000123688)
(-0.00127096 -0.000179049 0.000118577)
(-0.0012786 -0.000182542 0.000111063)
(-0.00128937 -0.000185679 0.000101623)
(-0.00130508 -0.000188251 9.08465e-05)
(-0.00132624 -0.000190222 7.9245e-05)
(-0.00135193 -0.000191581 6.7054e-05)
(-0.0013808 -0.000192483 5.41654e-05)
(-0.00140935 -0.00019306 4.0266e-05)
(-0.00143252 -0.000193447 2.45286e-05)
(-0.00144415 -0.000193639 7.9092e-06)
(-2.73955e-05 2.61204e-06 6.70566e-06)
(-7.79933e-05 -4.11751e-06 -1.88426e-05)
(-9.43921e-05 -8.17739e-06 -3.67926e-05)
(-9.28511e-05 -1.61248e-05 -4.44649e-05)
(-4.50642e-05 -1.4172e-05 -2.4022e-05)
(-6.17387e-05 -2.95226e-05 -3.24292e-05)
(-6.86092e-05 -3.84092e-05 -3.07942e-05)
(-6.21762e-05 -3.20672e-05 -2.26467e-05)
(-0.000106596 -4.57837e-05 -3.14312e-05)
(-0.000311885 -0.000114214 -6.88224e-05)
(-0.000456245 -0.000146141 -6.56237e-05)
(-0.000620597 -0.000169181 -4.88071e-05)
(-0.000758642 -0.00017486 -2.30263e-05)
(-0.000868673 -0.000170218 6.32278e-06)
(-0.000959612 -0.000162003 3.50911e-05)
(-0.00102719 -0.00015293 6.08482e-05)
(-0.00107364 -0.00014537 8.20917e-05)
(-0.00110425 -0.000140579 9.82898e-05)
(-0.00112151 -0.0001385 0.00010926)
(-0.00112943 -0.000138718 0.000115299)
(-0.00113202 -0.000140642 0.000116958)
(-0.0011321 -0.000143543 0.000114823)
(-0.00113221 -0.00014679 0.000109538)
(-0.00113446 -0.00014988 0.000101829)
(-0.00114145 -0.00015261 9.238e-05)
(-0.00115435 -0.000154661 8.1807e-05)
(-0.00117341 -0.000155998 7.07056e-05)
(-0.00119852 -0.000156744 5.93879e-05)
(-0.00122684 -0.000156939 4.76906e-05)
(-0.00125529 -0.000156883 3.53184e-05)
(-0.00127856 -0.000156717 2.14463e-05)
(-0.00129003 -0.000156547 6.88491e-06)
(4.30913e-06 -3.83226e-06 2.14921e-06)
(-3.37532e-06 -6.70517e-06 -2.42605e-06)
(-9.89289e-06 -5.87141e-06 -1.28204e-05)
(-2.24743e-05 -1.22656e-05 -2.96453e-05)
(-2.14711e-05 -1.53318e-05 -2.66097e-05)
(-3.25066e-05 -2.79658e-05 -3.66962e-05)
(-3.58883e-05 -3.36966e-05 -3.49549e-05)