/*--------------------------------*- C++ -*----------------------------------*\
  =========                 |
  \\      /  F ield         | OpenFOAM: The Open Source CFD Toolbox
   \\    /   O peration     | Website:  https://openfoam.org
    \\  /    A nd           | Version:  6
     \\/     M anipulation  |
\*---------------------------------------------------------------------------*/
FoamFile
{
    version     2.0;
    format      ascii;
    class       volVectorField;
    location    "9";
    object      wallShearStress;
}
// * * * * * * * * * * * * * * * * * * * * * * * * * * * * * * * * * * * * * //

dimensions      [0 2 -2 0 0 0 0];

internalField   uniform (0 0 0);

boundaryField
{
    inlet
    {
        type            calculated;
        value           uniform (0 0 0);
    }
    outlet
    {
        type            calculated;
        value           uniform (0 0 0);
    }
    roughCylinder
    {
        type            calculated;
        value           nonuniform List<vector> 
5120
(
(-8.55954e-05 -9.83075e-05 -4.95691e-05)
(-0.000138324 -0.000225009 -6.3177e-05)
(-0.000219378 -0.000385207 -1.09577e-05)
(-0.000263373 -0.000459332 3.76327e-05)
(-0.000316155 -0.000520998 8.24882e-05)
(-0.0003619 -0.000552327 0.000120348)
(-0.000402532 -0.000565646 0.000150267)
(-0.000433414 -0.000562044 0.000170841)
(-0.000459039 -0.000552959 0.000185248)
(-0.000479913 -0.000542767 0.000195572)
(-0.000499054 -0.000536012 0.000204383)
(-0.000514987 -0.000531234 0.000211079)
(-0.000525162 -0.00052659 0.000214216)
(-0.000531787 -0.00052281 0.000214398)
(-0.000536493 -0.000520584 0.000212256)
(-0.000543145 -0.000522744 0.000209133)
(-0.000548529 -0.00052591 0.000203955)
(-0.000544394 -0.000521663 0.000194274)
(-0.000550824 -0.000527654 0.000187147)
(-0.000561213 -0.000537878 0.000179941)
(-0.000566376 -0.000543917 0.000169994)
(-0.000566353 -0.000545945 0.000157762)
(-0.000548985 -0.000532124 0.000140746)
(-0.000549757 -0.000534597 0.000128296)
(-0.000548991 -0.000535756 0.00011525)
(-0.000569389 -0.000556723 0.000105557)
(-0.00055821 -0.000547855 8.95958e-05)
(-0.000559722 -0.000550918 7.53884e-05)
(-0.000548018 -0.000541221 5.91016e-05)
(-0.000548652 -0.000543077 4.36392e-05)
(-0.000544628 -0.000540119 2.69601e-05)
(-0.000542043 -0.000538198 9.16279e-06)
(-0.000113993 -0.000115281 -5.39993e-05)
(-0.000148089 -0.000216384 -6.73676e-05)
(-0.000234182 -0.000375679 -1.89177e-05)
(-0.000281295 -0.000454366 2.91624e-05)
(-0.000336145 -0.000518555 7.39982e-05)
(-0.000383313 -0.000552134 0.00011226)
(-0.000425626 -0.000567844 0.000142662)
(-0.000458646 -0.000567219 0.000163904)
(-0.000486315 -0.000560902 0.000179091)
(-0.000510009 -0.000553772 0.000190838)
(-0.000533097 -0.000550404 0.000201642)
(-0.000550978 -0.000545664 0.00020955)
(-0.000562285 -0.000539845 0.000213414)
(-0.000569649 -0.000535499 0.000214034)
(-0.000575734 -0.000533583 0.000212443)
(-0.00058283 -0.000535506 0.000209416)
(-0.000586984 -0.000537257 0.000203863)
(-0.000583896 -0.000534064 0.000194833)
(-0.000591602 -0.000540804 0.000188064)
(-0.000602154 -0.000550751 0.000180768)
(-0.000606488 -0.000555981 0.000170654)
(-0.000608972 -0.000560233 0.000159172)
(-0.000591993 -0.000547705 0.00014252)
(-0.000589199 -0.000547189 0.00012931)
(-0.00058986 -0.000549676 0.000116602)
(-0.000612263 -0.000571498 0.000106944)
(-0.000599173 -0.000561574 9.07061e-05)
(-0.000601937 -0.000565805 7.65431e-05)
(-0.000590061 -0.000556633 6.01324e-05)
(-0.000591228 -0.00055907 4.44899e-05)
(-0.000587611 -0.000556742 2.75411e-05)
(-0.000585582 -0.000555523 9.37485e-06)
(-0.000101009 -8.83296e-05 -3.56648e-05)
(-0.000157391 -0.000204215 -7.10826e-05)
(-0.000248393 -0.000360871 -2.74401e-05)
(-0.000297519 -0.000442052 1.94076e-05)
(-0.000354589 -0.000509166 6.39631e-05)
(-0.000404464 -0.000547007 0.000102859)
(-0.00044911 -0.000566161 0.000133955)
(-0.000483907 -0.000568317 0.000155936)
(-0.000514827 -0.000566288 0.000172592)
(-0.000541959 -0.000562913 0.000186132)
(-0.000565825 -0.000559622 0.000197669)
(-0.000585072 -0.000555073 0.000206414)
(-0.000598228 -0.000548717 0.000211148)
(-0.000607745 -0.000544611 0.000212711)
(-0.000615552 -0.000543103 0.000211741)
(-0.000622755 -0.000544414 0.000208763)
(-0.000625626 -0.000544763 0.000202975)
(-0.000623879 -0.000542662 0.000194674)
(-0.000632208 -0.000549468 0.000188077)
(-0.000642204 -0.000558529 0.000180601)
(-0.000646285 -0.000563465 0.000170588)
(-0.000651097 -0.000569555 0.0001598)
(-0.000635353 -0.00055906 0.000143768)
(-0.000631228 -0.000557857 0.00013042)
(-0.000634346 -0.000562417 0.000118203)
(-0.000658465 -0.000584644 0.000108491)
(-0.000645257 -0.000575501 9.22503e-05)
(-0.000648092 -0.000579752 7.79122e-05)
(-0.000636545 -0.000571621 6.13918e-05)
(-0.000637883 -0.000574274 4.54857e-05)
(-0.000633687 -0.000571686 2.81677e-05)
(-0.000631119 -0.000570157 9.58565e-06)
(-0.000149514 -0.000111486 -3.40588e-05)
(-0.000163522 -0.000187162 -7.34669e-05)
(-0.000259284 -0.000339866 -3.58773e-05)
(-0.000311875 -0.000425267 8.87343e-06)
(-0.000370958 -0.000495201 5.28635e-05)
(-0.000422378 -0.000535842 9.19707e-05)
(-0.000468963 -0.00055821 0.000123524)
(-0.000507237 -0.000565466 0.000146804)
(-0.00054129 -0.0005677 0.000165021)
(-0.00057069 -0.000566957 0.000180064)
(-0.000598599 -0.000567051 0.000193495)
(-0.000620389 -0.000563764 0.000203356)
(-0.000636621 -0.000558505 0.000209346)
(-0.000647906 -0.000553595 0.000211615)
(-0.000656603 -0.00055147 0.000211005)
(-0.000663631 -0.000551816 0.000208055)
(-0.000665687 -0.000551094 0.000202277)
(-0.000665788 -0.000550287 0.000194799)
(-0.000674791 -0.000557163 0.000188403)
(-0.000684358 -0.000565527 0.000180855)
(-0.000689155 -0.000570938 0.000171189)
(-0.000695683 -0.000578183 0.000160861)
(-0.000680561 -0.000569113 0.000145261)
(-0.000674386 -0.000566736 0.00013166)
(-0.000678473 -0.000571943 0.000119622)
(-0.000703404 -0.000593762 0.000109754)
(-0.000688731 -0.000584313 9.33687e-05)
(-0.000692708 -0.000589557 7.90583e-05)
(-0.00068122 -0.000582259 6.2452e-05)
(-0.000683063 -0.000585436 4.63644e-05)
(-0.00067928 -0.000583526 2.87676e-05)
(-0.000677338 -0.000582741 9.80577e-06)
(-0.000115446 -7.21086e-05 -1.2155e-05)
(-0.00016701 -0.000167502 -7.45384e-05)
(-0.000268093 -0.000315556 -4.41109e-05)
(-0.000321812 -0.000401803 -2.16933e-06)
(-0.000382321 -0.000473984 4.06145e-05)
(-0.000436905 -0.000519628 7.99132e-05)
(-0.00048716 -0.000547328 0.000112199)
(-0.000528214 -0.000558858 0.000136586)
(-0.00056566 -0.000565551 0.000156506)
(-0.000599371 -0.000569365 0.000173713)
(-0.00062836 -0.000569943 0.000188127)
(-0.000651683 -0.000567061 0.000198809)
(-0.000669863 -0.000562311 0.000205602)
(-0.000684433 -0.000558265 0.000209078)
(-0.00069512 -0.000555772 0.000209237)
(-0.00070238 -0.000555295 0.000206562)
(-0.000704159 -0.000553896 0.000201055)
(-0.000705887 -0.000553931 0.000194318)
(-0.000715039 -0.000560415 0.000188059)
(-0.000723917 -0.00056791 0.000180499)
(-0.000729852 -0.000574015 0.000171317)
(-0.000737285 -0.000581703 0.000161302)
(-0.000723693 -0.000574736 0.000146369)
(-0.000718699 -0.000573927 0.000133198)
(-0.00072408 -0.000580012 0.000121369)
(-0.000749292 -0.000601 0.000111265)
(-0.000735356 -0.000593165 9.50061e-05)
(-0.000738977 -0.000598145 8.04803e-05)
(-0.000728042 -0.0005921 6.37831e-05)
(-0.000729932 -0.000595414 4.74189e-05)
(-0.000725492 -0.000593299 2.94338e-05)
(-0.000722986 -0.000592299 1.00323e-05)
(-0.000121589 -6.22763e-05 1.43587e-06)
(-0.000167674 -0.000145982 -7.43815e-05)
(-0.000270826 -0.000284822 -5.1104e-05)
(-0.000328039 -0.000374029 -1.33258e-05)
(-0.000390743 -0.000449461 2.7681e-05)
(-0.000447455 -0.000498887 6.67165e-05)
(-0.000499793 -0.000530192 9.92334e-05)
(-0.000545161 -0.000547627 0.00012502)
(-0.0005868 -0.000559354 0.000146814)
(-0.000622357 -0.000565154 0.000165428)
(-0.000655411 -0.000568957 0.00018168)
(-0.000682302 -0.000568278 0.00019386)
(-0.000704204 -0.000565503 0.000202038)
(-0.000721132 -0.000562014 0.000206411)
(-0.000733506 -0.000559053 0.000207294)
(-0.000741188 -0.000557317 0.000205077)
(-0.000743354 -0.000555174 0.000200048)
(-0.00074674 -0.000555887 0.00019406)
(-0.000756437 -0.000562241 0.000188104)
(-0.000765267 -0.000569374 0.000180746)
(-0.000772904 -0.000576458 0.000172146)
(-0.00078057 -0.00058408 0.000162281)
(-0.000767566 -0.000578387 0.000147781)
(-0.000762748 -0.000578254 0.000134827)
(-0.000767503 -0.00058388 0.000122911)
(-0.00079203 -0.000603568 0.000112525)
(-0.000777371 -0.000596407 9.62533e-05)
(-0.000781714 -0.000602255 8.17189e-05)
(-0.000771067 -0.000597435 6.49602e-05)
(-0.000773219 -0.000601239 4.83867e-05)
(-0.000769173 -0.000599957 3.0096e-05)
(-0.000767232 -0.00059972 1.02753e-05)
(-0.000125895 -5.16296e-05 1.54196e-05)
(-0.000168155 -0.000125028 -7.33315e-05)
(-0.000271932 -0.000253969 -5.78305e-05)
(-0.000328843 -0.000341222 -2.42568e-05)
(-0.000391878 -0.000417908 1.39379e-05)
(-0.000451873 -0.000472584 5.22605e-05)
(-0.000509139 -0.000510541 8.53282e-05)
(-0.000558314 -0.000533104 0.000112325)
(-0.000603152 -0.000548578 0.000135682)
(-0.00064407 -0.000559228 0.000156515)
(-0.000679217 -0.000564253 0.00017402)
(-0.000707981 -0.000564349 0.000187262)
(-0.000731623 -0.000562069 0.000196355)
(-0.000751252 -0.000559645 0.000201821)
(-0.000766317 -0.000557607 0.000203808)
(-0.000775878 -0.000555934 0.000202522)
(-0.000779651 -0.000553804 0.000198446)
(-0.000784492 -0.000554546 0.000193232)
(-0.000794489 -0.000560367 0.000187604)
(-0.000803128 -0.000566967 0.000180514)
(-0.000812196 -0.000574726 0.000172474)
(-0.000819429 -0.000581988 0.000162724)
(-0.000807911 -0.000578332 0.000148898)
(-0.000806114 -0.000581053 0.000136703)
(-0.000810719 -0.000586819 0.000124806)
(-0.000833938 -0.000604932 0.000114074)
(-0.000820461 -0.000599956 9.79856e-05)
(-0.000823697 -0.000605398 8.31931e-05)
(-0.000813488 -0.000601959 6.63453e-05)
(-0.000815186 -0.000605789 4.94725e-05)
(-0.000810196 -0.00060439 3.07823e-05)
(-0.000807579 -0.000603961 1.05097e-05)
(-0.000133241 -4.18828e-05 3.06087e-05)
(-0.000164529 -0.00010253 -6.94955e-05)
(-0.000264355 -0.000217434 -6.25051e-05)
(-0.000323799 -0.000304302 -3.43535e-05)
(-0.000388626 -0.000383795 -2.57998e-08)
(-0.000451195 -0.000443021 3.69233e-05)
(-0.000510392 -0.000484642 6.98512e-05)
(-0.000564091 -0.000512891 9.79791e-05)
(-0.000614504 -0.000533965 0.000123205)
(-0.00065752 -0.00054626 0.000145314)
(-0.000696983 -0.000554243 0.000164521)
(-0.000730216 -0.000557129 0.000179504)
(-0.00075839 -0.000557477 0.000190358)
(-0.000780821 -0.000556213 0.000197093)
(-0.000797421 -0.000554395 0.000200007)
(-0.000808304 -0.000552787 0.00019965)
(-0.000813882 -0.000551115 0.000196648)
(-0.0008206 -0.000552134 0.000192356)
(-0.000831666 -0.000557888 0.000187369)
(-0.000840801 -0.000564367 0.000180779)
(-0.000851365 -0.000572738 0.000173323)
(-0.000857801 -0.000579538 0.000163658)
(-0.000846374 -0.000576909 0.000150231)
(-0.000845353 -0.000580745 0.000138376)
(-0.000847983 -0.000585493 0.000126251)
(-0.000868972 -0.00060145 0.000115139)
(-0.000855117 -0.000597321 9.90937e-05)
(-0.000858358 -0.000603164 8.42615e-05)
(-0.000848386 -0.000600815 6.7385e-05)
(-0.00084976 -0.000604719 5.0314e-05)
(-0.000844991 -0.000604048 3.13624e-05)
(-0.00084281 -0.000604237 1.07226e-05)
(-0.000137256 -3.03671e-05 4.64307e-05)
(-0.000159241 -8.14662e-05 -6.43812e-05)
(-0.00025597 -0.000183041 -6.63062e-05)
(-0.000312429 -0.000264214 -4.29813e-05)
(-0.000375644 -0.000342913 -1.3713e-05)
(-0.000440582 -0.00040654 2.07278e-05)
(-0.000505533 -0.00045557 5.34476e-05)
(-0.000564203 -0.00048965 8.25249e-05)
(-0.000617615 -0.000513703 0.000108909)
(-0.000667202 -0.00053101 0.00013304)
(-0.000710305 -0.000541001 0.000153687)
(-0.000746155 -0.000545044 0.000169948)
(-0.000776035 -0.000545916 0.00018193)
(-0.000800983 -0.000545758 0.000190012)
(-0.000820584 -0.000545369 0.000194403)
(-0.000834024 -0.000544859 0.000195436)
(-0.00084183 -0.000544051 0.000193699)
(-0.000850247 -0.000545478 0.000190425)
(-0.000861995 -0.000551017 0.000186135)
(-0.000871241 -0.000557121 0.000180077)
(-0.000882541 -0.000565505 0.000173135)
(-0.000887789 -0.000571654 0.000163609)
(-0.000877512 -0.000570603 0.000150842)
(-0.000879417 -0.000576707 0.000139707)
(-0.00088157 -0.000581586 0.000127633)
(-0.000900188 -0.000595421 0.000116179)
(-0.0008879 -0.000593393 0.000100407)
(-0.000889627 -0.000598607 8.53703e-05)
(-0.00088012 -0.00059745 6.8481e-05)
(-0.000880626 -0.00060107 5.11754e-05)
(-0.000874769 -0.00060024 3.19119e-05)
(-0.00087184 -0.000600209 1.09111e-05)
(-0.000146759 -1.91599e-05 6.60195e-05)
(-0.000151491 -6.19482e-05 -5.7753e-05)
(-0.000238502 -0.000145434 -6.66602e-05)
(-0.000293674 -0.000221486 -4.91663e-05)
(-0.000356934 -0.000300103 -2.63148e-05)
(-0.000423921 -0.00036784 4.50986e-06)
(-0.000490062 -0.000420259 3.59852e-05)
(-0.000552882 -0.000459448 6.53886e-05)
(-0.000613547 -0.000489852 9.32242e-05)
(-0.00066601 -0.000508848 0.000118405)
(-0.000713858 -0.000521416 0.000140543)
(-0.000755011 -0.000528331 0.0001586)
(-0.000790489 -0.000532293 0.000172648)
(-0.000819199 -0.000533972 0.000182502)
(-0.000840865 -0.000534368 0.000188316)
(-0.000856022 -0.000534466 0.000190697)
(-0.000866043 -0.000534562 0.000190339)
(-0.000876163 -0.000536489 0.000188194)
(-0.00088896 -0.000542081 0.000184773)
(-0.000898697 -0.00054806 0.000179387)
(-0.000910687 -0.000556416 0.000173)
(-0.000914904 -0.000562122 0.000163707)
(-0.000904495 -0.00056178 0.000151387)
(-0.000906525 -0.000568146 0.000140538)
(-0.000906472 -0.000572168 0.000128345)
(-0.000921722 -0.000583417 0.000116554)
(-0.000909206 -0.000582167 0.000100943)
(-0.000910338 -0.000587428 8.59297e-05)
(-0.000900989 -0.000587189 6.91198e-05)
(-0.000900615 -0.000590573 5.17106e-05)
(-0.000894846 -0.000590421 3.23078e-05)
(-0.000892169 -0.000590861 1.1061e-05)
(-0.000156724 -6.54842e-06 8.88015e-05)
(-0.000145312 -4.57154e-05 -5.1415e-05)
(-0.000220498 -0.000111828 -6.49425e-05)
(-0.000268813 -0.000178312 -5.21469e-05)
(-0.00032713 -0.000251771 -3.65353e-05)
(-0.00039362 -0.000321253 -1.09887e-05)
(-0.00046539 -0.000380954 1.82762e-05)
(-0.000534181 -0.000426786 4.74809e-05)
(-0.000597492 -0.000459792 7.56524e-05)
(-0.00065778 -0.000484156 0.000102383)
(-0.000711136 -0.000499412 0.000126034)
(-0.000756149 -0.000507612 0.000145542)
(-0.000793647 -0.000511873 0.000160874)
(-0.00082489 -0.000514515 0.000172311)
(-0.000850003 -0.000516619 0.000180012)
(-0.000868463 -0.000518365 0.000184257)
(-0.000881164 -0.000519704 0.000185533)
(-0.000892952 -0.000522198 0.000184658)
(-0.000906259 -0.000527578 0.000182133)
(-0.0009159 -0.000533122 0.00017743)
(-0.000927618 -0.000540913 0.000171546)
(-0.000930382 -0.000546031 0.000162566)
(-0.000920965 -0.000547055 0.000150993)
(-0.000924767 -0.000554585 0.000140779)
(-0.000924607 -0.000559154 0.000128847)
(-0.000936753 -0.000568174 0.000116823)
(-0.000925451 -0.000568587 0.000101567)
(-0.00092462 -0.000573072 8.6455e-05)
(-0.000915388 -0.000573713 6.97403e-05)
(-0.000913521 -0.000576546 5.22137e-05)
(-0.000906364 -0.000576183 3.26386e-05)
(-0.000902715 -0.000576318 1.11746e-05)
(-0.000161211 7.37734e-06 0.000111466)
(-0.000144963 -3.29674e-05 -4.67992e-05)
(-0.000197731 -8.07227e-05 -5.97223e-05)
(-0.000237366 -0.000135709 -5.10832e-05)
(-0.000291758 -0.000203443 -4.34428e-05)
(-0.000357812 -0.000274357 -2.47095e-05)
(-0.000428354 -0.000335858 9.46386e-07)
(-0.000499773 -0.000385895 2.86222e-05)
(-0.000571903 -0.000426515 5.69645e-05)
(-0.00063591 -0.0004533 8.41352e-05)
(-0.000694697 -0.00047123 0.000109028)
(-0.000746084 -0.000482064 0.000130399)
(-0.00079062 -0.000489199 0.000148013)
(-0.000826886 -0.000493834 0.000161577)
(-0.000854667 -0.000496952 0.000171139)
(-0.000875052 -0.000499471 0.000177143)
(-0.000889992 -0.000501776 0.000180113)
(-0.000903309 -0.000504803 0.000180619)
(-0.000917366 -0.000510169 0.000179163)
(-0.000927135 -0.000515479 0.000175286)
(-0.000938517 -0.000522765 0.000169988)
(-0.000940082 -0.000527566 0.00016145)
(-0.000930159 -0.000529117 0.000150411)
(-0.000932634 -0.000535929 0.000140403)
(-0.000930092 -0.000539764 0.000128485)
(-0.000938043 -0.00054614 0.000116223)
(-0.000926075 -0.000547009 0.000101244)
(-0.000923876 -0.000551167 8.62435e-05)
(-0.000914316 -0.000552409 6.97445e-05)
(-0.000910935 -0.000554788 5.22724e-05)
(-0.000903576 -0.000555034 3.27406e-05)
(-0.000899945 -0.000555546 1.12229e-05)
(-0.000158968 2.09163e-05 0.00013078)
(-0.000142238 -2.09959e-05 -4.12617e-05)
(-0.000170091 -5.37732e-05 -5.09625e-05)
(-0.000202909 -9.70166e-05 -4.59791e-05)
(-0.000246389 -0.00015313 -4.51268e-05)
(-0.000305792 -0.000219679 -3.45725e-05)
(-0.000380032 -0.000286547 -1.47115e-05)
(-0.000457366 -0.00034349 1.01629e-05)
(-0.0005307 -0.000386308 3.70861e-05)
(-0.000603428 -0.000419492 6.45612e-05)
(-0.000669427 -0.000441508 9.05849e-05)
(-0.000726413 -0.000454453 0.000113625)
(-0.000773927 -0.000461522 0.000132883)
(-0.000812973 -0.000466188 0.000148261)
(-0.000844576 -0.000470375 0.000159964)
(-0.000868631 -0.000474405 0.000168111)
(-0.000886159 -0.000477893 0.000172987)
(-0.000900838 -0.000481451 0.000175017)
(-0.000914924 -0.00048649 0.000174641)
(-0.000924153 -0.000491305 0.000171596)
(-0.000934223 -0.000497693 0.000166851)
(-0.00093398 -0.000502007 0.000158811)
(-0.000924606 -0.000504742 0.00014861)
(-0.000927296 -0.000511794 0.000139146)
(-0.000924729 -0.00051644 0.000127655)
(-0.00092943 -0.000521207 0.000115374)
(-0.000917613 -0.000523142 0.000100833)
(-0.000912933 -0.000526554 8.58783e-05)
(-0.00090277 -0.000528253 6.96202e-05)
(-0.000897178 -0.000530016 5.2218e-05)
(-0.000887944 -0.000529955 3.27224e-05)
(-0.00088296 -0.000530036 1.12142e-05)
(-0.00014876 3.13586e-05 0.000140991)
(-0.000138377 -1.05703e-05 -3.55446e-05)
(-0.000143496 -3.3531e-05 -4.10051e-05)
(-0.0001613 -6.19108e-05 -3.60644e-05)
(-0.000198161 -0.000106978 -4.14559e-05)
(-0.000252732 -0.000168963 -4.02465e-05)
(-0.000319461 -0.000232761 -2.73641e-05)
(-0.000395576 -0.000291508 -7.16819e-06)
(-0.000478894 -0.00034333 1.72978e-05)
(-0.000555344 -0.00037978 4.36712e-05)
(-0.000627146 -0.000405484 7.00291e-05)
(-0.000691158 -0.000421984 9.46127e-05)
(-0.000747195 -0.000432688 0.00011642)
(-0.000792961 -0.000439374 0.000134464)
(-0.000827969 -0.000444019 0.000148407)
(-0.000853862 -0.000447967 0.000158551)
(-0.000873176 -0.000451717 0.000165258)
(-0.000888842 -0.0004555 0.000168788)
(-0.000903082 -0.000460521 0.000169615)
(-0.000911864 -0.000465203 0.000167541)
(-0.000920475 -0.000471031 0.000163463)
(-0.000918597 -0.000475149 0.000156064)
(-0.000907958 -0.000478133 0.00014644)
(-0.000907799 -0.000484027 0.000137125)
(-0.000902019 -0.0004877 0.00012569)
(-0.000902004 -0.00049043 0.000113359)
(-0.000888672 -0.000492417 9.924e-05)
(-0.000881678 -0.000495272 8.45251e-05)
(-0.00087042 -0.000497036 6.86608e-05)
(-0.000862678 -0.000498324 5.15581e-05)
(-0.000852863 -0.0004987 3.23752e-05)
(-0.000847648 -0.000499038 1.11064e-05)
(-0.000132354 3.67112e-05 0.000139405)
(-0.000138316 -1.87983e-06 -3.12132e-05)
(-0.000116082 -1.90745e-05 -3.04741e-05)
(-0.000127062 -3.71398e-05 -2.53345e-05)
(-0.000144569 -6.49479e-05 -3.17969e-05)
(-0.000182726 -0.000112503 -3.77767e-05)
(-0.000248872 -0.00017648 -3.49811e-05)
(-0.000328414 -0.000240293 -2.20239e-05)
(-0.000408833 -0.000292224 -1.78746e-06)
(-0.000494615 -0.000336337 2.26546e-05)
(-0.000574549 -0.000367654 4.88992e-05)
(-0.000645227 -0.000387946 7.46724e-05)
(-0.000704497 -0.000399792 9.81241e-05)
(-0.000752957 -0.000406917 0.000118201)
(-0.000791948 -0.000412419 0.000134569)
(-0.000821769 -0.00041732 0.000147108)
(-0.000843242 -0.000421501 0.000155759)
(-0.000859632 -0.000425396 0.00016082)
(-0.000873117 -0.000430045 0.0001628)
(-0.000880669 -0.000434297 0.00016168)
(-0.000886856 -0.000439336 0.000158248)
(-0.00088263 -0.000442988 0.000151506)
(-0.000871779 -0.000446693 0.000142736)
(-0.000870424 -0.00045239 0.000133921)
(-0.000864179 -0.000456528 0.000122994)
(-0.000861106 -0.000458454 0.000110898)
(-0.000846522 -0.000460723 9.73137e-05)
(-0.000836523 -0.000462718 8.28187e-05)
(-0.000823771 -0.000464299 6.73903e-05)
(-0.000813135 -0.00046481 5.06377e-05)
(-0.0008008 -0.000464499 3.17929e-05)
(-0.000793762 -0.000464138 1.08962e-05)
(-0.000115007 3.68043e-05 0.000126964)
(-0.000138216 4.99265e-06 -2.74511e-05)
(-0.000111581 -1.25677e-05 -2.56686e-05)
(-7.95937e-05 -1.66326e-05 -1.17565e-05)
(-9.02552e-05 -3.12307e-05 -1.79207e-05)
(-0.000124492 -6.89246e-05 -3.10387e-05)
(-0.00017024 -0.000118835 -3.59915e-05)
(-0.000239833 -0.000177868 -3.16972e-05)
(-0.000331104 -0.000239939 -1.85625e-05)
(-0.000418639 -0.000286852 2.3798e-06)
(-0.000504224 -0.000322867 2.75343e-05)
(-0.000581622 -0.000347785 5.39445e-05)
(-0.00064957 -0.00036477 7.94358e-05)
(-0.000705129 -0.000375553 0.0001021)
(-0.000747578 -0.000382357 0.000120817)
(-0.000778504 -0.000387197 0.000135301)
(-0.000800959 -0.000391353 0.000145717)
(-0.000817569 -0.000395169 0.000152246)
(-0.00083047 -0.000399567 0.000155441)
(-0.000836907 -0.000403526 0.000155329)
(-0.000840455 -0.00040798 0.000152564)
(-0.000833969 -0.000411415 0.000146556)
(-0.000820809 -0.00041472 0.000138317)
(-0.000815084 -0.00041869 0.000129536)
(-0.000804205 -0.000421002 0.000118571)
(-0.000795835 -0.000421116 0.000106572)
(-0.000778863 -0.000422688 9.35996e-05)
(-0.00076549 -0.000423438 7.95107e-05)
(-0.00075082 -0.000424236 6.47552e-05)
(-0.000737476 -0.000423909 4.8699e-05)
(-0.000724323 -0.000423622 3.06256e-05)
(-0.000717004 -0.000423323 1.05028e-05)
(-9.84571e-05 3.28006e-05 0.00010571)
(-0.000130268 8.90492e-06 -2.33325e-05)
(-0.000106129 -8.56423e-06 -2.04594e-05)
(-6.9757e-05 -9.88884e-06 -4.48594e-06)
(-4.77297e-05 -1.06374e-05 -5.29322e-06)
(-4.30887e-05 -2.01718e-05 -1.15816e-05)
(-9.05005e-05 -6.3896e-05 -2.87056e-05)
(-0.000156827 -0.000121972 -3.68853e-05)
(-0.000234498 -0.000176995 -3.09433e-05)
(-0.000332173 -0.000233259 -1.51537e-05)
(-0.00042535 -0.000275831 8.15884e-06)
(-0.000508978 -0.000305864 3.47372e-05)
(-0.000578644 -0.000324969 6.10493e-05)
(-0.000634979 -0.000337135 8.49133e-05)
(-0.000679794 -0.000345814 0.000105313)
(-0.000713839 -0.000352546 0.000121728)
(-0.000737507 -0.000357478 0.00013374)
(-0.000753809 -0.000361418 0.000141529)
(-0.000764839 -0.000365262 0.000145659)
(-0.000769012 -0.000368546 0.000146353)
(-0.000768978 -0.000372115 0.000144135)
(-0.000759505 -0.000374784 0.000138796)
(-0.000745229 -0.0003779 0.000131374)
(-0.000737304 -0.000381094 0.000123043)
(-0.000725689 -0.000383297 0.000112672)
(-0.00071499 -0.000383007 0.000101229)
(-0.000695981 -0.00038375 8.89942e-05)
(-0.000679632 -0.000383218 7.5417e-05)
(-0.000663042 -0.000382917 6.14401e-05)
(-0.000646749 -0.000381375 4.62157e-05)
(-0.000630649 -0.000379604 2.90041e-05)
(-0.000621096 -0.000378054 9.91952e-06)
(-8.72016e-05 2.73806e-05 8.34766e-05)
(-0.000119444 9.78283e-06 -2.00486e-05)
(-9.99028e-05 -6.23504e-06 -1.50721e-05)
(-6.02445e-05 -5.63596e-06 2.46252e-06)
(-3.24138e-05 -3.14853e-06 3.07897e-06)
(-1.77851e-05 -6.5422e-06 -2.15065e-06)
(-1.81171e-05 -1.56812e-05 -1.06261e-05)
(-5.50359e-05 -4.98452e-05 -2.67691e-05)
(-0.000144846 -0.000118177 -3.88144e-05)
(-0.000236002 -0.000173325 -2.78407e-05)
(-0.000332509 -0.000221281 -6.88028e-06)
(-0.000420087 -0.000256618 1.87598e-05)
(-0.000496466 -0.000282182 4.52986e-05)
(-0.000558181 -0.000299354 7.00257e-05)
(-0.00060473 -0.000310484 9.13125e-05)
(-0.000637554 -0.000317735 0.000108406)
(-0.000660369 -0.000323081 0.000121259)
(-0.000675625 -0.000327235 0.000129912)
(-0.000685204 -0.000331005 0.000134888)
(-0.000687623 -0.000334021 0.000136384)
(-0.000684305 -0.000336907 0.000134677)
(-0.000672434 -0.000338889 0.00013004)
(-0.000655052 -0.000340566 0.000123042)
(-0.000641331 -0.00034097 0.000114497)
(-0.00062388 -0.000340066 0.000103926)
(-0.000607624 -0.000337217 9.27033e-05)
(-0.000585891 -0.000336159 8.13765e-05)
(-0.000565649 -0.000333273 6.85191e-05)
(-0.000546746 -0.000331046 5.56933e-05)
(-0.000527798 -0.00032786 4.18483e-05)
(-0.0005113 -0.000325549 2.62625e-05)
(-0.000502143 -0.000324032 8.98403e-06)
(-7.21721e-05 2.10792e-05 5.86322e-05)
(-0.000108746 9.87798e-06 -1.77269e-05)
(-9.44714e-05 -3.64766e-06 -1.11941e-05)
(-5.2589e-05 -1.06828e-06 8.16089e-06)
(-1.88588e-05 5.84911e-06 1.03617e-05)
(4.80304e-06 8.05405e-06 4.59025e-06)
(1.25263e-05 5.63828e-06 -5.22363e-06)
(-2.16652e-06 -8.78665e-06 -1.75022e-05)
(-4.26271e-05 -3.8977e-05 -2.57071e-05)
(-0.000143566 -0.000110752 -3.1135e-05)
(-0.000239885 -0.0001654 -1.34142e-05)
(-0.000328196 -0.000206366 9.86924e-06)
(-0.000400572 -0.000234069 3.40219e-05)
(-0.00045861 -0.000252916 5.66206e-05)
(-0.00050422 -0.000266395 7.66851e-05)
(-0.000538526 -0.000276434 9.36076e-05)
(-0.000561105 -0.000283127 0.000106538)
(-0.000574717 -0.000287607 0.000115365)
(-0.000581053 -0.000290648 0.000120453)
(-0.000579824 -0.000292531 0.000122125)
(-0.000572281 -0.00029408 0.000120554)
(-0.000557107 -0.000294407 0.00011634)
(-0.000537966 -0.000294788 0.000110053)
(-0.000522248 -0.000293894 0.000101997)
(-0.000504842 -0.000292475 9.22432e-05)
(-0.000488216 -0.000289234 8.20739e-05)
(-0.000465178 -0.000286585 7.19298e-05)
(-0.000443429 -0.000282114 6.01787e-05)
(-0.000423458 -0.000278153 4.87551e-05)
(-0.000402889 -0.000273338 3.65581e-05)
(-0.00038384 -0.000268587 2.27543e-05)
(-0.000372086 -0.000264827 7.71679e-06)
(-6.06707e-05 1.79697e-05 4.3762e-05)
(-0.000104207 1.14126e-05 -1.64678e-05)
(-9.06348e-05 -5.41466e-07 -9.8867e-06)
(-4.88665e-05 4.29694e-06 9.25856e-06)
(-1.29804e-05 1.07701e-05 6.00093e-06)
(1.56338e-05 1.24281e-05 2.88694e-07)
(2.14569e-05 1.33985e-05 3.04325e-06)
(1.34648e-05 1.18028e-05 -3.79592e-06)
(-9.55404e-06 -6.93849e-06 -1.42721e-05)
(-6.00479e-05 -4.63839e-05 -1.5696e-05)
(-0.000144112 -0.00010379 -6.09508e-06)
(-0.000224638 -0.000148987 1.1324e-05)
(-0.000297818 -0.000183864 3.00868e-05)
(-0.000357403 -0.000208373 4.83582e-05)
(-0.000402052 -0.000224714 6.52055e-05)
(-0.000431872 -0.000234798 7.95726e-05)
(-0.000451397 -0.000241676 9.10854e-05)
(-0.000462674 -0.000246272 9.92615e-05)
(-0.000467062 -0.000249229 0.000104211)
(-0.000463919 -0.000250736 0.000106012)
(-0.000453737 -0.000251397 0.000104523)
(-0.000437136 -0.00025055 0.000100823)
(-0.000415191 -0.000248663 9.48569e-05)
(-0.00039295 -0.000243353 8.61694e-05)
(-0.000369777 -0.000237346 7.60408e-05)
(-0.000348529 -0.000230149 6.62656e-05)
(-0.000323519 -0.000224388 5.74316e-05)
(-0.000298769 -0.000216191 4.70315e-05)
(-0.000277139 -0.000209022 3.7528e-05)
(-0.000255221 -0.000201456 2.78079e-05)
(-0.000237437 -0.000195751 1.71744e-05)
(-0.00022851 -0.000192749 5.83511e-06)
(-4.89467e-05 1.54072e-05 3.43454e-05)
(-9.45244e-05 1.20785e-05 -1.41108e-05)
(-8.57514e-05 1.27418e-06 -8.68532e-06)
(-4.33399e-05 4.41599e-06 7.37651e-06)
(5.46598e-06 6.07376e-06 5.858e-06)
(1.69874e-05 8.72543e-06 1.06596e-05)
(1.90252e-05 1.07966e-05 1.50204e-05)
(1.3987e-05 9.21069e-06 1.68351e-05)
(2.70628e-06 1.94426e-06 1.38682e-05)
(-1.45355e-05 -1.23103e-05 9.12685e-06)
(-6.8195e-05 -5.61336e-05 1.70102e-05)
(-0.00012953 -9.80485e-05 2.45661e-05)
(-0.000185578 -0.000129979 3.27248e-05)
(-0.000234575 -0.000153513 4.19567e-05)
(-0.00027483 -0.000170966 5.23461e-05)
(-0.000305885 -0.000184175 6.30754e-05)
(-0.000324703 -0.000192384 7.21604e-05)
(-0.000333587 -0.000196897 7.86607e-05)
(-0.000333703 -0.000198247 8.21525e-05)
(-0.000325949 -0.000197429 8.27577e-05)
(-0.000312151 -0.000195746 8.05073e-05)
(-0.00029276 -0.000191834 7.65757e-05)
(-0.000269621 -0.000187426 7.11811e-05)
(-0.00024829 -0.000180681 6.34683e-05)
(-0.000228398 -0.00017441 5.48351e-05)
(-0.000210984 -0.000167395 4.70748e-05)
(-0.000188074 -0.000160206 4.02401e-05)
(-0.000166033 -0.000150989 3.22069e-05)
(-0.000146703 -0.000142407 2.5157e-05)
(-0.000126778 -0.00013337 1.82569e-05)
(-0.000108603 -0.000124196 1.07405e-05)
(-9.69547e-05 -0.000116795 3.44348e-06)
(-3.99067e-05 1.30041e-05 2.65232e-05)
(-8.58672e-05 1.15441e-05 -1.28573e-05)
(-8.11113e-05 3.62254e-06 -6.87629e-06)
(-3.852e-05 4.23898e-06 1.04499e-05)
(-3.71183e-06 1.0191e-05 1.53767e-05)
(9.48533e-06 1.37695e-05 2.20683e-05)
(1.91863e-05 1.33974e-05 2.58252e-05)
(2.7425e-05 1.00378e-05 3.31854e-05)
(2.54642e-05 2.77326e-06 3.51741e-05)
(1.61787e-05 -5.86053e-06 3.3707e-05)
(6.75919e-07 -1.97924e-05 3.46e-05)
(-2.62172e-05 -4.09672e-05 3.24952e-05)
(-7.36101e-05 -7.76794e-05 3.74096e-05)
(-0.000122906 -0.000105648 3.89391e-05)
(-0.000161339 -0.000124161 4.19363e-05)
(-0.000185246 -0.0001343 4.62842e-05)
(-0.000199365 -0.00014074 5.12805e-05)
(-0.000205413 -0.000144315 5.52384e-05)
(-0.000204471 -0.000145254 5.72484e-05)
(-0.000196543 -0.00014391 5.69344e-05)
(-0.000182955 -0.000141253 5.41726e-05)
(-0.000165425 -0.000136214 5.06636e-05)
(-0.000142369 -0.000129333 4.56861e-05)
(-0.0001171 -0.000115857 3.69924e-05)
(-9.44296e-05 -0.00010245 2.76995e-05)
(-7.57472e-05 -8.90335e-05 2.05255e-05)
(-5.38369e-05 -7.59382e-05 1.4943e-05)
(-3.39154e-05 -5.95761e-05 9.30926e-06)
(-1.85143e-05 -4.39669e-05 5.35181e-06)
(-6.17578e-06 -2.76462e-05 2.51896e-06)
(3.40638e-07 -1.6715e-05 9.21548e-07)
(3.31416e-06 -1.76264e-05 3.58262e-07)
(-2.49984e-05 1.24368e-05 2.11446e-05)
(-7.21634e-05 1.23452e-05 -1.351e-05)
(-7.96391e-05 8.29251e-06 -1.19477e-05)
(-4.9991e-05 1.14202e-05 5.3184e-06)
(-2.64572e-05 2.35881e-05 1.60268e-05)
(-1.20749e-05 3.31726e-05 1.69541e-05)
(6.37927e-06 3.23383e-05 1.64429e-05)
(2.04985e-05 2.31982e-05 1.72342e-05)
(3.2167e-05 1.74629e-05 2.25632e-05)
(4.3977e-05 1.10484e-05 3.23008e-05)
(3.85644e-05 1.36573e-06 3.2845e-05)
(3.03451e-05 -8.19556e-06 3.23034e-05)
(1.09989e-05 -1.62936e-05 2.11006e-05)
(-5.5096e-06 -2.50199e-05 1.49327e-05)
(-3.0249e-05 -4.67441e-05 1.78402e-05)
(-5.78972e-05 -6.7048e-05 2.12375e-05)
(-7.42299e-05 -7.69463e-05 2.38083e-05)
(-7.90594e-05 -7.98435e-05 2.49695e-05)
(-7.42895e-05 -7.68957e-05 2.37681e-05)
(-6.29669e-05 -6.99616e-05 2.03476e-05)
(-4.96285e-05 -6.28352e-05 1.59141e-05)
(-3.34162e-05 -5.07507e-05 1.11778e-05)
(-1.57506e-05 -3.68338e-05 5.93701e-06)
(-3.54627e-06 -2.04228e-05 1.17903e-06)
(2.31304e-06 -1.447e-05 -1.30496e-06)
(5.51768e-06 -1.09114e-05 -1.76171e-06)