/*--------------------------------*- C++ -*----------------------------------*\
  =========                 |
  \\      /  F ield         | OpenFOAM: The Open Source CFD Toolbox
   \\    /   O peration     | Website:  https://openfoam.org
    \\  /    A nd           | Version:  6
     \\/     M anipulation  |
\*---------------------------------------------------------------------------*/
FoamFile
{
    version     2.0;
    format      ascii;
    class       volScalarField;
    location    "20";
    object      yPlus;
}
// * * * * * * * * * * * * * * * * * * * * * * * * * * * * * * * * * * * * * //

dimensions      [0 0 0 0 0 0 0];

internalField   uniform 0;

boundaryField
{
    inlet
    {
        type            calculated;
        value           uniform 0;
    }
    outlet
    {
        type            calculated;
        value           uniform 0;
    }
    roughCylinder
    {
        type            calculated;
        value           nonuniform List<scalar> 
5120
(
43.5008
51.3216
57.5508
63.6776
68.9669
73.2571
76.6948
79.4733
81.7481
83.6536
85.3095
86.7922
88.1392
89.3842
90.5583
91.6922
92.8163
93.9589
95.1435
96.3873
97.6998
99.0834
100.535
102.048
103.611
105.213
106.837
108.458
110.041
111.51
112.723
113.437
42.7943
50.3294
56.3587
62.3445
67.5596
71.8141
75.2329
78.0028
80.2771
82.1887
83.8529
85.339
86.6773
87.9085
89.0649
90.1775
91.278
92.3956
93.5545
94.7712
96.0549
97.4084
98.8287
100.308
101.837
103.402
104.988
106.572
108.117
109.55
110.732
111.428
42.0004
49.2885
55.131
60.9776
66.1199
70.3435
73.7518
76.5231
78.8082
80.7361
82.4144
83.9063
85.2414
86.462
87.6018
88.6948
89.7736
90.8677
92.0007
93.1903
94.446
95.7699
97.1588
98.6055
100.1
101.63
103.179
104.725
106.233
107.629
108.781
109.457
41.1966
48.2485
53.9033
59.6061
64.6736
68.8684
72.2696
75.0478
77.3514
79.3033
81.0006
82.5008
83.8367
85.0478
86.1749
87.251
88.3095
89.381
90.4909
91.6555
92.8841
94.1792
95.5375
96.9523
98.4127
99.9064
101.419
102.928
104.399
105.759
106.881
107.539
40.3268
47.1567
52.6228
58.1784
63.1733
67.3491
70.7586
73.5601
75.8957
77.8796
79.601
81.1152
82.4582
83.6681
84.7853
85.8464
86.8874
87.9395
89.0263
90.1662
91.369
92.6367
93.966
95.3497
96.7774
98.2376
99.7149
101.186
102.621
103.946
105.038
105.677
39.4665
46.0744
51.3452
56.7472
61.6691
65.8309
69.2537
72.081
74.4505
76.4701
78.2198
79.7517
81.1045
82.3162
83.428
84.479
85.5053
86.5385
87.6063
88.725
89.9034
91.1448
92.4455
93.7987
95.1939
96.6194
98.0614
99.4974
100.897
102.187
103.25
103.871
38.5296
44.9224
49.9899
55.2286
60.0758
64.2339
67.6897
70.5659
72.9881
75.0532
76.837
78.3938
79.7647
80.9897
82.1034
83.1478
84.1627
85.1825
86.2311
87.3279
88.4837
89.7002
90.9744
92.2987
93.6633
95.0571
96.4651
97.865
99.2293
100.486
101.52
102.123
37.6067
43.7802
48.636
53.7032
58.4755
62.6375
66.1333
69.0572
71.5274
73.64
75.4648
77.0522
78.4454
79.6819
80.8039
81.8483
82.8569
83.8637
84.8985
85.9791
87.114
88.307
89.5546
90.8503
92.1839
93.5437
94.9172
96.2832
97.6148
98.8366
99.8421
100.426
36.5746
42.5313
47.1593
52.0341
56.7189
60.8902
64.4497
67.4581
70.0129
72.1934
74.068
75.6957
77.1204
78.3861
79.5239
80.5767
81.5839
82.5864
83.6079
84.67
85.7858
86.9568
88.1804
89.4488
90.7537
92.0831
93.4243
94.7552
96.0515
97.2405
98.2191
98.7851
35.5466
41.2797
45.6736
50.3461
54.942
59.134
62.769
65.8573
68.4802
70.727
72.6657
74.3434
75.8097
77.0991
78.2578
79.3223
80.3365
81.3357
82.3507
83.4038
84.5029
85.6533
86.8522
88.0936
89.3678
90.6633
91.9699
93.2659
94.5315
95.6861
96.6351
97.1814
34.3311
39.8475
43.9853
48.4184
52.8912
57.0929
60.8287
64.0599
66.8311
69.1932
71.2078
72.9496
74.4636
75.8023
76.9935
78.0817
79.1066
80.1132
81.1237
82.1627
83.2472
84.3787
85.5552
86.7703
88.016
89.2817
90.5566
91.8189
93.0477
94.169
95.0924
95.6211
33.0771
38.386
42.2647
46.4495
50.7971
55.0264
58.8859
62.2497
65.12
67.5803
69.707
71.5319
73.119
74.5009
75.7302
76.8438
77.8891
78.9006
79.9128
80.9525
82.0254
83.1394
84.2937
85.4825
86.6974
87.9285
89.1669
90.3921
91.5942
92.6808
93.5715
94.0787
31.5253
36.6293
40.2081
44.0735
48.2151
52.4179
56.4129
60.0213
63.1806
65.8642
68.1081
70.0375
71.6981
73.1564
74.4404
75.5985
76.6701
77.7042
78.7229
79.7518
80.8146
81.9138
83.0474
84.2111
85.398
86.5994
87.8074
89.0015
90.1629
91.2142
92.0812
92.5709
29.8667
34.7893
38.0822
41.628
45.5669
49.7766
53.9563
57.7801
61.0722
63.9023
66.3755
68.46
70.2491
71.7836
73.1337
74.3368
75.4465
76.4953
77.5251
78.5682
79.6266
80.7112
81.8254
82.9634
84.1189
85.284
86.4521
87.604
88.744
89.7593
90.5895
91.0554
27.65
32.4006
35.3422
38.4302
41.979
46.0255
50.3306
54.5796
58.5075
61.8321
64.4856
66.7438
68.6574
70.3193
71.7553
73.0327
74.1903
75.2846
76.3367
77.3719
78.4248
79.5002
80.5949
81.7087
82.8357
83.9699
85.1092
86.2339
87.3257
88.3029
89.1105
89.5583
25.1303
29.8013
32.4778
35.1748
38.3846
42.3473
46.9342
51.4983
55.4967
59.0272
62.2249
64.8206
66.9818
68.7742
70.3304
71.6851
72.9072
74.0282
75.1024
76.1713
77.2304
78.2938
79.3722
80.4597
81.5536
82.6486
83.7415
84.8148
85.8933
86.8301
87.5943
88.0158
21.2212
25.9014
28.17
30.1578
32.5251
36.0301
40.3698
45.776
51.4957
56.2332
59.6938
62.6184
65.0141
67.0624
68.7599
70.2365
71.5389
72.7411
73.8621
74.9253
75.9828
77.0442
78.1041
79.1677
80.2309
81.2923
82.3577
83.4082
84.4279
85.3226
86.0645
86.4641
16.4546
21.5744
24.0463
25.6463
27.5534
28.4523
35.705
41.3044
46.0795
51.2175
56.2367
59.9268
62.8714
65.1403
67.0747
68.6959
70.1117
71.3582
72.515
73.6408
74.7212
75.7732
76.8192
77.8542
78.88
79.8959
80.9049
81.8921
82.9071
83.7506
84.4389
84.8106
5.74236
11.068
12.1905
13.7702
16.3709
20.9114
18.0971
25.36
38.9676
46.801
51.8774
56.5603
60.0215
62.9155
65.1183
66.9527
68.5027
69.8918
71.1366
72.2591
73.3406
74.3991
75.4282
76.4382
77.4287
78.4068
79.3863
80.3535
81.2958
82.0946
82.7589
83.1
9.04524
7.30902
6.25186
15.051
16.7056
12.0666
20.8569
24.8425
22.1534
35.1218
46.0947
51.9531
56.858
60.1326
62.8567
64.9981
66.7761
68.2441
69.5474
70.7795
71.9114
72.9659
73.9807
74.9563
75.8997
76.8172
77.7273
78.6123
79.5613
80.2821
80.8758
81.1885
12.0344
16.4643
17.6258
17.4664
16.2412
17.7149
20.6314
22.1971
12.897
23.0262
33.318
45.9046
51.6883
56.77
60.0898
62.6601
64.6717
66.4061
67.8758
69.1088
70.2442
71.3133
72.3155
73.2634
74.1628
75.0413
75.9072
76.7818
77.6304
78.3135
78.873
79.1405
19.5152
23.95
25.7587
26.3377
25.4927
23.3608
22.3454
19.2021
24.3718
28.7532
25.1208
30.4725
45.8818
51.7231
56.4764
59.7693
62.3186
64.2128
65.789
67.2263
68.4635
69.5438
70.5239
71.4231
72.2509
73.022
73.8113
74.552
75.4435
75.9735
76.4447
76.6764
21.9595
26.911
29.5716
31.4882
32.5299
32.4877
30.9803
28.3857
24.5782
27.8461
28.8469
32.0461
32.3819
45.9015
51.7928
56.1609
59.1392
61.5945
63.5122
64.9508
66.1974
67.2967
68.2771
69.1429
69.9119
70.6792
71.3529
72.1437
72.843
73.3952
73.7671
73.9375
22.7481
27.8281
30.7349
33.0593
34.7596
35.8164
36.1802
35.662
33.7656
29.6626
30.7021
34.303
33.1066
33.3429
44.8338
50.9665
55.4311
58.2126
60.3489
62.2289
63.6871
64.838
65.7689
66.5505
67.174
67.6578
68.3101
68.7962
69.6783
69.8462
70.1542
70.2511
22.3105
27.5288
30.6083
33.1781
35.1944
36.6459
37.536
37.8612
37.4944
35.8142
31.3741
31.2463
30.512
34.8913
34.2499
44.3506
49.6017
53.8719
56.7903
58.6152
60.0965
61.2578
62.2175
62.9534
63.4961
64.2267
64.4372
65.2351
65.5957
66.0833
65.986
66.0145
20.8817
26.2423
29.4234
32.1387
34.3586
36.0824
37.3324
38.145
38.5453
38.4408
37.2495
33.1858
23.6044
30.1321
10.1208
33.0619
43.111
47.6233
51.0825
54.0955
56.0392
57.3547
58.1715
58.7267
58.8552
58.5601
59.1563
59.0887
60.1329
59.4758
59.5797
59.3322
18.8992
24.3529
27.5587
30.3213
32.6326
34.5086
35.9791
37.1025
37.9566
38.5932
38.9099
38.2873
35.0661
28.0849
10.4502
8.48568
28.9433
39.4481
44.7766
47.1302
49.1876
50.3826
51.3309
51.7561
51.8342
53.5411
52.0611
53.2937
52.3842
53.9223
51.8673
51.5785
16.6189
22.0484
25.1736
27.8768
30.1788
32.1197
33.7439
35.1108
36.3059
37.41
38.4306
39.1648
38.9338
35.6324
25.6895
14.3715
27.8099
26.1129
31.9442
39.2291
42.0373
43.8441
44.0176
44.4191
42.4625
39.6614
40.0489
40.186
40.7009
39.9397
40.6186
36.5136
14.3536
19.614
22.5525
25.093
27.2898
29.2049
30.8994
32.4389
33.9013
35.368
36.8643
38.2823
39.2486
38.7651
35.0419
31.8477
25.929
34.808
34.7915
23.7838
28.6862
25.8403
26.8103
24.0276
19.52
28.5185
30.9098
23.166
11.5782
28.4526
46.2532
9.73471
12.3796
17.3555
20.0376
22.3487
24.3758
26.199
27.8896
29.5152
31.1434
32.8417
34.6516
36.5213
38.2275
39.2465
38.7433
35.2295
28.9592
28.2422
23.9022
35.046
37.0024
15.1267
34.3217
15.9356
19.8661
34.0061
39.6741
30.3837
3.53038
37.266
37.1015
26.5429
10.8685
15.4967
17.9111
19.9804
21.8195
23.5207
25.1584
26.7939
28.4802
30.2669
32.1988
34.2802
36.4067
38.2642
39.3294
38.3956
36.2069
31.1335
22.0502
28.6233
30.6873
26.0674
29.6586
29.0369
24.8782
26.5233
40.8297
29.481
30.1373
42.6855
32.3936
36.9283
9.75892
14.1471
16.3377
18.2068
19.8906
21.4838
23.0532
24.6457
26.298
28.0458
29.9309
31.9924
34.2243
36.4827
38.4033
39.3732
39.5553
38.4516
35.0642
30.1488
31.0243
30.8483
29.2034
30.8618
36.4369
34.5021
36.3915
35.5531
41.3064
33.1007
42.402
42.1143
9.17446
13.3773
15.4124
17.1536
18.7446
20.2703
21.7803
23.303
24.8605
26.4804
28.2026
30.0798
32.1591
34.4299
36.7333
38.6699
40.0403
40.4666
39.6738
38.2441
36.9674
36.5158
38.8415
39.3647
42.8405
41.7179
42.2527
41.1779
45.4882
38.2602
44.856
43.5959
9.01228
13.1311
15.0993
16.7958
18.3619
19.8658
21.3377
22.7898
24.2344
25.6949
27.2085
28.8262
30.609
32.6096
34.82
37.0765
39.1087
40.448
40.7882
40.6237
39.8416
39.9337
41.5877
41.9692
43.8194
43.2178
43.2088
42.1033
45.6488
41.5859
44.3879
42.9203
9.19978
13.3117
15.2848
17.004
18.5982
20.1175
21.5753
22.9741
24.3221
25.6397
26.9596
28.3251
29.7905
31.4193
33.2675
35.3263
37.4664
39.3159
40.4802
41.0406
40.8514
41.1329
42.1892
42.4613
43.3877
42.9004
42.5572
41.6872
44.0264
41.9696
43.06
41.7226
9.64071
13.7961
15.8211
17.6077
19.2657
20.8284
22.2974
23.6695
24.9516
26.1637
27.3349
28.5005
29.702
30.9916
32.4311
34.0714
35.905
37.7572
39.304
40.4007
40.7569
41.2292
41.8556
41.9038
42.1258
41.5096
40.9802
40.3511
41.6878
40.7415
41.1963
40.2281
10.2803
14.5084
16.6082
18.4818
20.2188
21.8375
23.3325
24.6993
25.9467
27.0952
28.1714
29.2032
30.2194
31.256
32.361
33.5892
34.9805
36.498
37.9721
39.2238
39.9212
40.4935
40.8682
40.7058
40.4741
39.723
39.1075
38.7177
39.303
38.9826
39.3595
38.8631
11.0659
15.3939
17.5808
19.5479
21.3656
23.0417
24.5678
25.9417
27.1764
28.2949
29.322
30.2796
31.1857
32.061
32.9364
33.8528
34.8543
35.9582
37.1074
38.1903
38.9384
39.482
39.6907
39.3906
38.9067
38.1065
37.4917
37.3012
37.4409
37.4887
37.9734
37.9259
11.9074
16.4046
18.687
20.7477
22.6426
24.3733
25.9316
27.3205
28.558
29.6701
30.6808
31.6075
32.4608
33.2497
33.9902
34.7067
35.4316
36.1918
36.9819
37.7524
38.3383
38.7305
38.7884
38.4029
37.803
37.0238
36.4504
36.3934
36.3425
36.6295
37.2492
37.5381
12.8903
17.5095
19.8857
22.037
24.0049
25.787
27.378
28.7868
30.0375
31.1591
32.1748
33.0986
33.9359
34.6888
35.3636
35.9707
36.5277
37.0539
37.5585
38.0256
38.3693
38.5474
38.4464
37.99
37.3395
36.6055
36.0794
36.092
36.0144
36.4729
37.2029
37.7112
13.5784
13.9987
14.4842
14.8749
15.2533
15.5547
15.8178
16.0221
16.1865
16.3028
16.3822
16.4228
16.4287
16.4011
16.3443
16.2605
16.1522
16.0247
15.8894
15.7776
15.7853
15.905
16.0452
16.1765
16.288
16.3747
16.4343
16.4645
16.461
16.4227
16.3455
16.2312
16.0686
15.8659
15.6042
15.3041
14.927
14.5374
14.0529
13.6337
18.3174
18.7538
19.2591
19.6678
20.0642
20.3868
20.6725
20.9015
21.0916
21.2355
21.3427
21.4121
21.4464
21.4455
21.4119
21.3473
21.2528
21.1325
20.9971
20.8801
20.8884
21.014
21.1545
21.2788
21.3767
21.4444
21.4809
21.4845
21.4528
21.3857
21.2807
21.1389
20.9506
20.7233
20.4391
20.1178
19.7227
19.3151
18.8109
18.3756
20.7666
21.2283
21.7636
22.1979
22.6226
22.9757
23.2959
23.5623
23.7927
23.9799
24.132
24.2479
24.3294
24.3749
24.3848
24.3599
24.3003
24.2088
24.0948
23.9907
23.9988
24.1117
24.231
24.3267
24.3899
24.4182
24.4114
24.3688
24.29
24.1766
24.0269
23.8419
23.6134
23.3489
23.0303
22.6786
22.2552
21.8221
21.2879
20.8273
22.9741
23.455
24.0132
24.4672
24.9163
25.2968
25.649
25.951
26.2206
26.4507
26.6472
26.8092
26.9377
27.0299
27.0847
27.1011
27.0788
27.0197
26.9333
26.8511
26.8584
26.9495
27.0416
27.1051
27.1313
27.1184
27.0669
26.9778
26.8522
26.6929
26.4989
26.2712
26.0037
25.7037
25.3532
24.9743
24.5266
24.074
23.517
23.0372
24.9786
25.4638
26.0298
26.4902
26.9512
27.347
27.7193
28.0459
28.3435
28.6063
28.8388
29.0386
29.2057
29.3366
29.4289
29.4805
29.4905
29.4605
29.4003
29.3407
29.3471
29.4157
29.4818
29.5165
29.5105
29.4625
29.3737
29.2459
29.0819
28.885
28.6551
28.3948
28.0995
27.7751
27.4046
27.0107
26.5512
26.0922
25.5275
25.0434
26.7799
27.253
27.8128
28.2677
28.729
29.1299
29.5131
29.8568
30.1773
30.4669
30.7296
30.9613
31.1614
31.3252
31.4497
31.5316
31.5693
31.5644
31.5267
31.4849
31.4906
31.5413
31.585
31.5947
31.5611
31.483
31.362
31.2013
31.0045
30.7755
30.5156
30.2286
29.9107
29.5693
29.1882
28.7892
28.3294
27.876
27.3175
26.8453
28.3781
28.8279
29.3739
29.8175
30.2748
30.6784
31.0718
31.4322
31.7737
32.0883
32.3784
32.6394
32.8689
33.0622
33.2149
33.3233
33.385
33.4011
33.3812
33.3519
33.3573
33.3952
33.421
33.4097
33.3522
33.2475
33.0983
32.9083
32.6818
32.4238
32.1364
31.8245
31.4855
31.1275
30.7364
30.3349
29.8793
29.4371
28.8923
28.4432
29.7892
30.2117
30.7433
31.1771
31.6329
32.0434
32.4488
32.8266
33.1888
33.5271
33.8427
34.1302
34.3863
34.6055
34.7831
34.9142
34.9959
35.0289
35.0222
35.0012
35.0064
35.0356
35.0483
35.02
34.9422
34.8148
34.6406
34.4245
34.1715
33.8869
33.5741
33.2385
32.8789
32.5035
32.1004
31.6921
31.2381
30.8059
30.275
29.853
31.0424
31.4392
31.9604
32.3895
32.8484
33.268
33.6862
34.0811
34.4628
34.8226
35.1609
35.4716
35.7508
35.9925
36.1909
36.3408
36.4387
36.4846
36.4873
36.4712
36.4763
36.5003
36.5035
36.462
36.368
36.2216
36.0264
35.7878
35.5115
35.2035
34.8681
34.5108
34.1317
33.7394
33.3234
32.906
32.4488
32.0213
31.5008
31.1041
32.1687
32.5429
33.0576
33.4859
33.9492
34.3783
34.8087
35.219
35.6175
35.996
36.3536
36.684
36.9826
37.2427
37.4581
37.623
37.7334
37.7889
37.7978
37.7844
37.7893
37.8105
37.8071
37.7559
37.6491
37.4875
37.2751
37.018
36.7222
36.3945
36.0396
35.6636
35.2675
34.8597
34.4316
34.0046
33.5432
33.1163
32.6021
32.2276
33.1899
33.543
34.0531
34.4811
34.9486
35.386
35.8269
36.2502
36.663
37.057
37.4305
37.7769
38.091
38.3658
38.5946
38.7711
38.891
38.9536
38.9665
38.9547
38.9594
38.9789
38.971
38.9125
38.796
38.6225
38.3965
38.1246
37.8131
37.4692
37.0982
36.7067
36.2963
35.8753
35.4367
35.0013
34.5355
34.1089
33.599
33.2452
34.117
34.4476
34.9522
35.3792
35.8497
36.2942
36.7437
37.1778
37.6024
38.0092
38.3954
38.7548
39.0812
39.3674
39.6066
39.7922
39.9195
39.9878
40.0046
39.9945
39.9991
40.0165
40.0045
39.9399
39.8156
39.6327
39.3961
39.1123
38.7884
38.4314
38.0475
37.6432
37.2209
36.789
36.3416
35.8992
35.4303
35.0046
34.4999
34.1679
34.9513
35.257
35.7541
36.179
36.6515
37.1017
37.5586
38.0018
38.4362
38.8533
39.25
39.6195
39.9557
40.251
40.4984
40.6914
40.8252
40.8991
40.9207
40.9138
40.9182
40.9318
40.9146
40.8441
40.7131
40.5226
40.2774
39.9843
39.6503
39.283
38.8883
38.4734
38.0412
37.6002
37.1454
36.6971
36.226
35.8022
35.3049
34.9974
35.6917
35.9682
36.4552
36.8768
37.3506
37.8059
38.2693
38.7205
39.1634
39.5893
39.9946
40.3724
40.7163
41.0189
41.2729
41.4721
41.6118
41.6917
41.7197
41.718
41.722
41.7299
41.706
41.629
41.4917
41.2947
41.0426
40.7419
40.3999
40.024
39.6206
39.1968
38.756
38.3066
37.8451
37.3916
36.9192
36.4985
36.0111
35.7326
36.3377
36.5784
37.0512
37.4682
37.9427
38.4028
38.8726
39.3316
39.7823
40.2161
40.629
41.0138
41.3642
41.6727
41.9324
42.137
42.2827
42.3693
42.405
42.4099
42.4134
42.4141
42.3821
42.298
42.1544
41.9514
41.6933
41.3864
41.0376
40.6544
40.2432
39.8112
39.3623
38.905
38.437
37.9786
37.5054
37.0894
36.6159
36.3733
36.8906
37.084
37.5375
37.9478
38.4221
38.8872
39.3635
39.8305
40.289
40.7305
41.1503
41.5416
41.8977
42.2115
42.4761
42.6861
42.8378
42.9317
42.9756
42.9873
42.9902
42.9835
42.9427
42.851
42.7009
42.4923
42.2287
41.9162
41.5613
41.1713
40.7528
40.3129
39.8559
39.3906
38.9159
38.4525
37.9793
37.5701
37.1161
36.9213
37.3538
37.4817
37.9075
38.3078
38.781
39.2511
39.7344
40.2097
40.6765
41.1257
41.5527
41.9501
42.3117
42.6305
42.9
43.115
43.2726
43.3738
43.4259
43.4437
43.4461
43.4325
43.3831
43.2836
43.1271
42.9129
42.6442
42.3262
41.9655
41.5689
41.143
40.6948
40.2294
39.7555
39.2737
38.8053
38.3337
37.9349
37.5092
37.3817
37.7335
37.7682
38.1513
38.5385
39.0083
39.4833
39.9737
40.458
40.9337
41.3914
41.8257
42.2297
42.5968
42.9205
43.1948
43.4149
43.5784
43.6864
43.7458
43.7687
43.7707
43.7511
43.6938
43.587
43.4242
43.2044
42.9305
42.607
42.2402
41.8367
41.403
40.9462
40.4716
39.9885
39.4993
39.0262
38.5584
38.1736
37.7927
37.7614
38.0359
37.9439
38.2617
38.6264
39.0906
39.5695
40.0675
40.5613
41.0465
41.5132
41.9555
42.3665
42.7395
43.0685
43.3477
43.5729
43.7419
43.8562
43.9219
43.949
43.9505
43.9259
43.8618
43.7482
43.5792
43.354
43.0745
42.7453
42.3722
41.9613
41.519
41.0527
40.5683
40.0755
39.5789
39.102
38.6404
38.28
37.9671
38.0674
38.2575
38.0076
38.2345
38.5617
39.0146
39.496
40.0009
40.5043
40.9993
41.4755
41.9265
42.3449
42.7246
43.0592
43.3436
43.5738
43.7482
43.868
43.9388
43.9693
43.9704
43.9418
43.8718
43.7521
43.5774
43.3465
43.0614
42.7261
42.3458
41.9269
41.4756
40.9993
40.5046
40.002
39.4984
39.0189
38.5694
38.2484
38.0306
38.2958
38.3674
37.9463
38.0635
38.3381
38.7707
39.2529
39.7629
40.2753
40.7798
41.2657
41.7254
42.1517
42.538
42.8785
43.1683
43.4035
43.5827
43.7073
43.7824
43.8154
43.8162
43.7842
43.7096
43.5845
43.4044
43.1682
42.8772
42.5355
42.1481
41.7208
41.2603
40.7739
40.2693
39.7572
39.2482
38.768
38.3396
38.0727
37.9678
38.4083
38.3299
37.7449
37.7469
37.9578
38.36
38.8365
39.3518
39.8716
40.3848
40.8792
41.3471
41.7807
42.1734
42.5196
42.8142
43.0538
43.2371
43.3655
43.4437
43.4787
43.4792
43.4449
43.3666
43.2373
43.0527
42.8115
42.5153
42.1675
41.7732
41.3382
40.8691
40.3735
39.8594
39.3391
38.8239
38.3485
37.9499
37.7478
37.761
38.3721
38.0753
37.3692
37.2787
37.4313
37.8019
38.2682
38.7849
39.3094
39.8284
40.3291
40.8031
41.2421
41.6397
41.99
42.2881
42.5309
42.7169
42.8475
42.9275
42.9635
42.9639
42.9283
42.8478
42.716
42.5285
42.2839
41.9838
41.6315
41.2321
40.7911
40.3155
39.813
39.2921
38.7655
38.247
37.7805
37.4126
37.269
37.3773
38.1164
37.6078
36.8296
36.6808
36.79
37.1333
37.5865
38.1006
38.6282
39.1501
39.6539
40.1304
40.5719
40.9715
41.3232
41.6224
41.8658
42.052
42.1826
42.2624
42.2982
42.2986
42.2629
42.1826
42.0507
41.8627
41.6174
41.3162
40.9623
40.5608
40.1174
39.6387
39.1327
38.6081
38.0768
37.5587
37.1019
36.7562
36.648
36.8028
37.5972
36.9296
36.1566
36.0012
36.0957
36.4253
36.8686
37.3778
37.9042
38.4244
38.9265
39.4012
39.8406
40.2379
40.5872
40.8836
41.1239
41.3068
41.4339
41.5105
41.5445
41.545
41.5114
41.4341
41.3056
41.1209
40.8786
40.5802
40.2288
39.8295
39.3881
38.9113
38.4067
37.8835
37.3528
36.8386
36.3902
36.0567
35.9626
36.1266
36.9294
36.3669
35.5759
35.4088
35.4878
35.803
36.2331
36.7316
37.2496
37.762
38.2568
38.7242
39.1564
39.5464
39.8882
40.177
40.4095
40.5845
40.7036
40.7731
40.8026
40.803
40.7739
40.7036
40.5827
40.4057
40.1708
39.8798
39.5358
39.144
38.71
38.2407
37.7437
37.2283
36.7057
36.2009
35.7623
35.4351
35.3397
35.483
36.2475
35.9009
35.1421
34.9926
35.074
35.383
35.8018
36.2868
36.7907
37.2901
37.7723
38.2271
38.647
39.0246
39.3541
39.6307
39.8508
40.013
40.1194
40.1769
40.1985
40.1992
40.1779
40.1192
40.0104
39.8453
39.6221
39.3425
39.0101
38.6297
38.2072
37.7495
37.2639
36.76
36.2495
35.7569
35.3287
35.0072
34.9089
35.0363
35.7656
35.7731
35.0625
34.9401
35.0257
35.3262
35.7267
36.1887
36.6676
37.1444
37.6049
38.0393
38.4394
38.798
39.1091
39.3678
39.5704
39.7151
39.8035
39.8434
39.8518
39.8521
39.8428
39.7998
39.707
39.5573
39.3497
39.0861
38.7703
38.4072
38.0028
37.5643
37.0999
36.6196
36.1376
35.6752
35.2785
34.9875
34.9184
35.0644
35.8034
36.0527
35.3459
35.2277
35.3102
35.5996
35.9822
36.4209
36.8752
37.3291
37.7678
38.1813
38.561
38.9
39.1923
39.433
39.6183
39.746
39.8169
39.8385
39.8322
39.8337
39.8404
39.816
39.7408
39.6084
39.4183
39.1725
38.875
38.5304
38.1443
37.7233
37.2752
36.8088
36.3375
35.8773
35.4694
35.1515
35.0336
35.1178
35.7748
36.6274
35.9858
35.8996
35.9808
36.2525
36.6043
37.0071
37.4277
37.8495
38.2578
38.6426
38.9952
39.309
39.578
39.7973
39.9629
40.0724
40.1259
40.13
40.1076
40.109
40.1307
40.1229
40.0645
39.9501
39.7794
39.5552
39.2812
38.9622
38.6038
38.2124
37.7957
37.3631
36.9278
36.5043
36.1267
35.8245
35.7058
35.7538
36.3526
37.3193
36.7267
36.6635
36.7402
36.9944
37.3188
37.6943
38.0872
38.4824
38.8649
39.2251
39.5546
39.8468
40.0958
40.2969
40.4463
40.5414
40.5822
40.5746
40.542
40.5427
40.573
40.5755
40.5289
40.4279
40.2727
40.0659
39.8115
39.5141
39.1794
38.8136
38.4248
38.0223
37.6198
37.2323
36.8914
36.6185
36.5202
36.5674
37.1495
37.6727
37.1304
37.1012
37.1978
37.46
37.784
38.1549
38.5408
38.9271
39.2998
39.6495
39.9683
40.2499
40.4889
40.6805
40.8213
40.9087
40.943
40.93
40.8937
40.8948
40.9293
40.9378
40.8989
40.8072
40.6632
40.4696
40.2302
39.9499
39.6342
39.2899
38.9247
38.5482
38.1745
37.8179
37.5111
37.268
37.1914
37.2333
37.7767
43.4933
51.3144
57.5438
63.6707
68.9599
73.2501
76.6874
79.4656
81.74
83.645
85.3004
86.7827
88.1292
89.3739
90.5478
91.6814
92.8052
93.9473
95.1315
96.3749
97.687
99.0701
100.521
102.033
103.596
105.197
106.819
108.439
110.019
111.489
112.699
113.417
42.7848
50.3205
56.35
62.3357
67.5505
71.8046
75.2231
77.9929
80.2672
82.179
83.8431
85.3294
86.6677
87.8987
89.0546
90.1666
91.2668
92.384
93.5426
94.7587
96.0419
97.3949
98.8145
100.293
101.821
103.386
104.97
106.552
108.095
109.528
110.708
111.407
41.994
49.2823
55.125
60.9718
66.114
70.3375
73.7455
76.5164
78.8011
80.7284
82.4061
83.8972
85.2314
86.4515
87.591
88.6838
89.7622
90.8559
91.9884
93.1776
94.4329
95.7563
97.1447
98.5907
100.085
101.613
103.161
104.705
106.21
107.607
108.756
109.436
41.1866
48.2394
53.8943
59.597
64.664
68.8583
72.2592
75.0372
77.3408
79.2929
80.9903
82.4908
83.827
85.0381
86.1648
87.2401
88.2981
89.3692
90.4787
91.6427
92.8707
94.1653
95.5232
96.9371
98.3963
99.8894
101.401
102.907
104.375
105.736
106.855
107.517
40.3221
47.1523
52.6186
58.1743
63.1693
67.3451
70.7543
73.5554
75.8903
77.8734
79.594
81.1072
82.4488
83.6577
84.7742
85.8352
86.8759
87.9275
89.0137
90.1532
91.3557
92.6228
93.9514
95.3342
96.7612
98.2203
99.6952
101.165
102.597
103.923
105.012
105.655
39.4561
46.0649
51.336
56.7378
61.6591
65.8201
69.2422
72.0692
74.4389
76.4588
78.2087
79.7407
81.094
82.3064
83.418
84.4684
85.4939
86.5266
87.594
88.712
89.8897
91.1306
92.4309
93.7834
95.1779
96.6022
98.0423
99.4756
100.872
102.163
103.223
103.848
38.5275
44.9206
49.9885
55.2275
60.0749
64.233
67.6888
70.5644
72.9856
75.0494
76.8319
78.3877
79.7571
80.9802
82.0926
83.1365
84.1511
85.1703
86.2182
87.3146
88.4703
89.6862
90.9595
92.283
93.647
95.0392
96.4448
97.8433
99.2036
100.462
101.493
102.1
37.5963
43.771
48.6271
53.6938
58.4652
62.626
66.1206
69.0438
71.5143
73.6275
75.4527
77.04
78.4334
79.6711
80.7937
81.8376
82.8457
83.8518
84.8863
85.966
87.0999
88.2924
89.5397
90.8347
92.1677
93.5264
94.898
96.2604
97.5868
98.811
99.8135
100.403
36.5761
42.5333
47.162
52.0374
56.7226
60.8941
64.4537
67.4614
70.0144
72.1927
74.0657
75.6923
77.116
78.3791
79.5144
80.5658
81.5721
82.5739
83.5945
84.6564
85.7722
86.9427
88.1653
89.4331
90.7368
92.065
93.4035
94.7321
96.0232
97.2151
98.189
98.7617
35.5376
41.272
45.666
50.3381
54.9328
59.1227
62.7557
65.8428
68.4664
70.7147
72.6534
74.3305
75.7956
77.0859
78.2464
79.3112
80.3254
81.3242
82.3387
83.3906
84.4885
85.6383
86.837
88.0777
89.3513
90.6462
91.95
93.242
94.5
95.6579
96.6031
97.1573
34.3372
39.8544
43.9931
48.4271
52.9005
57.1026
60.8384
64.0684
66.8356
69.1934
71.2075
72.9485
74.4632
75.8001
76.9868
78.0722
79.0949
80.1
81.1093
82.1486
83.2332
84.3642
85.5399
86.7543
87.9986
89.2634
90.5351
91.7934
93.0162
94.1425
95.0583
95.5962
33.0715
38.3818
42.2613
46.4461
50.7926
55.0196
58.8757
62.2379
65.1122
67.5768
69.6981
71.5206
73.104
74.4839
75.7166
76.8315
77.878
78.8894
79.9016
80.9393
82.0107
83.1241
84.2781
85.4664
86.681
87.9115
89.1467
90.3675
91.5574
92.6481
93.5355
94.0542
31.5385
36.6424
40.2219
44.0877
48.2291
52.4314
56.4268
60.0328
63.1796
65.8506
68.1047
70.0375
71.7
73.1608
74.438
75.5918
76.6589
77.6902
78.7067
79.7369
80.8002
81.8988
83.0316
84.1947
85.3798
86.5808
87.7847
88.9718
90.1269
91.1865
92.0427
92.5449
29.865
34.7904
38.0861
41.6346
45.5757
49.7866
53.9609
57.7815
61.0903
63.9398
66.3847
68.4545
70.2387
71.7637
73.1173
74.3219
75.4347
76.4846
77.5151
78.5548
79.6113
80.6956
81.8093
82.947
84.1027
85.2672
86.4318
87.5786
88.6991
89.7204
90.5464
91.0301
27.6738
32.4222
35.3619
38.4475
41.9917
46.0259
50.3354
54.5847
58.4762
61.7551
64.4588
66.7433
68.6558
70.3276
71.7579
73.0302
74.1799
75.2693
76.3176
77.3556
78.4099
79.4845
80.5786
81.6915
82.8163
83.952
85.0849
86.1986
87.284
88.2738
89.0659
89.5308
25.1185
29.7947
32.4802
35.1858
38.4051
42.4212
46.9868
51.5379
55.5876
59.1965
62.2907
64.8264
66.9882
68.7626
70.3145
71.6668
72.8939
74.0176
75.0942
76.1577
77.2137
78.2776
79.3555
80.4433
81.5381
82.6321
83.722
84.7887
85.8357
86.7819
87.5407
87.989
21.2645
25.9447
28.1952
30.1695
32.564
35.8068
40.2948
45.7055
51.357
55.9531
59.6035
62.625
65.0015
67.0576
68.7605
70.2386
71.5294
72.7238
73.8384
74.9064
75.9678
77.0277
78.087
79.1492
80.2094
81.2765
82.3321
83.3658
84.3775
85.2909
86.0104
86.4362
16.2343
21.3474
23.924
25.7335
27.3243
30.5036
35.6528
41.4853
46.39
51.78
56.3988
59.9277
62.909
65.1724
67.0785
68.6759
70.0962
71.3465
72.5083
73.6271
74.7018
75.7556
76.8016
77.8379
78.8656
79.8798
80.8866
81.8604
82.8285
83.689
84.369
84.7793
6.70705
10.9767
11.182
10.9412
11.2675
12.2346
15.4885
25.5733
38.3958
45.7946
51.7773
56.6639
60.0078
62.856
65.0847
66.9536
68.4918
69.8708
71.1063
72.2355
73.3252
74.3824
75.4095
76.4176
77.404
78.3971
79.3614
80.3066
81.2315
82.0552
82.6858
83.0756
7.90924
10.8718
11.0075
13.6975
16.3578
16.061
13.3296
21.0922
19.8258
36.7672
45.8306
51.7553
56.9351
60.2907
62.9454
64.9865
66.7572
68.2285
69.5399
70.7657
71.8877
72.9445
73.9617
74.94
75.8864
76.8005
77.7102
78.5639
79.4496
80.2039
80.7813
81.1469
11.3345
15.6592
16.7845
16.0177
14.8615
16.9224
15.2768
9.77511
22.2443
20.6886
35.2688
46.4204
51.7109
56.5657
59.9178
62.6364
64.652
66.3784
67.8363
69.0757
70.2281
71.2987
72.2942
73.2391
74.1333
75.0451
75.8872
76.733
77.5403
78.2495
78.7612
79.1251
20.1551
24.5682
26.4247
27.2011
26.635
24.8713
23.6363
16.2731
22.1319
26.8416
21.8886
32.1279
46.3817
52.2764
56.8515
59.7895
62.2909
64.1827
65.775
67.2117
68.4324
69.513
70.503
71.4062
72.2389
73.0088
73.7979
74.473
75.2738
75.8769
76.3012
76.6172
22.4084
27.3991
30.13
32.1592
33.39
33.6619
32.692
30.6195
25.6116
25.245
20.2705
21.5416
31.9074
44.9874
51.0636
56.0467
59.0886
61.5585
63.4579
64.8977
66.1796
67.2895
68.2499
69.1101
69.8716
70.6966
71.3455
72.0757
72.7091
73.2632
73.5864
73.9381
23.2628
28.3538
31.3009
33.6789
35.4462
36.5815
37.0381
36.638
34.8338
30.2478
24.2892
18.3026
22.8083
35.2712
46.3
50.972
55.3632
58.1322
60.3135
62.2143
63.6413
64.7868
65.7484
66.533
67.1712
67.6947
68.315
68.686
69.3804
69.7095
69.8624
70.1679
22.6568
27.8888
30.9954
33.5992
35.6539
37.1448
38.0655
38.3919
37.9868
36.3593
32.3868
26.9684
24.4648
10.303
31.2743
44.3937
49.4693
53.8582
56.7212
58.5054
60.0754
61.2648
62.1776
62.8891
63.4351
64.1712
64.4585
65.0437
65.443
65.7915
65.7267
66.0541
21.1365
26.501
29.6942
32.4231
34.6547
36.3823
37.6219
38.4025
38.7455
38.5738
37.4045
33.864
28.9955
12.8424
5.68278
29.5116
42.9676
47.3373
50.9541
54.096
55.9643
57.2528
58.1707
58.7153
58.894
58.9232
59.2401
59.0221
59.4487
59.1504
58.6947
59.2288
19.0995
24.5602
27.7778
30.5516
32.8692
34.7406
36.188
37.2602
38.0273
38.5511
38.7781
38.1005
35.1232
26.5848
22.4777
17.3496
27.7305
40.4364
44.8279
46.8214
49.1495
50.4058
51.2299
51.5207
51.8772
52.397
52.1172
52.2397
53.2068
53.6788
52.6096
51.7977
16.8046
22.2501
25.3934
28.1138
30.4273
32.3684
33.9757
35.2994
36.4158
37.4001
38.2699
38.8637
38.4765
35.122
30.52
25.0403
18.675
20.233
31.7089
39.2884
42.3082
43.4478
44.6101
44.3496
43.1471
42.1246
40.4333
40.9106
37.7293
36.1185
33.0419
36.7186
14.5061
19.7946
22.7593
25.3249
27.5415
29.467
31.158
32.6745
34.0881
35.4762
36.8699
38.1741
39.0732
38.7505
34.7271
30.3358
20.8832
14.6846
13.6479
26.8316
22.2737
24.7179
25.5951
21.633
24.9083
20.9776
29.6254
15.3984
32.2818
32.0981
31.6749
17.4753
12.4875
17.4941
20.203
22.5401
24.589
26.4269
28.1224
29.7397
31.3439
32.9993
34.7516
36.5611
38.2284
39.308
38.8269
35.6697
27.0742
30.062
25.0832
35.3603
26.7922
29.9718
14.7275
14.3478
27.7803
18.9225
37.9243
23.4643
38.4952
39.7896
40.1306
25.8337
10.9325
15.5854
18.0215
20.1115
21.9681
23.6824
25.3273
26.9636
28.6437
30.4153
32.3238
34.3777
36.4884
38.3782
39.5103
39.3047
36.5533
30.5271
28.5026
31.0262
28.4523
19.9231
30.2407
26.9714
37.547
29.8161
38.5848
37.348
39.3368
30.7284
32.5429
34.265
9.78516
14.1907
16.3959
18.2781
19.9725
21.574
23.1497
24.7471
26.4033
28.1537
30.0386
32.0961
34.3267
36.6102
38.6089
39.8321
39.7242
36.9535
34.5659
30.6283
27.3525
33.1008
28.6731
34.7264
32.527
36.8984
35.772
36.323
36.5898
33.3176
35.4033
40.4871
9.17229
13.3847
15.4274
17.1748
18.7706
20.3006
21.8156
23.3451
24.9113
26.5414
28.2733
30.1573
32.2405
34.5191
36.8494
38.8762
40.0617
39.8352
39.186
38.6139
36.8854
37.3187
36.337
39.2614
37.9543
42.3036
41.8872
39.7215
42.0103
40.3987
40.3692
42.8298
8.98935
13.112
15.0827
16.7809
18.3483
19.8548
21.3313
22.7912
24.2463
25.7191
27.2455
28.875
30.6664
32.6715
34.8846
37.1524
39.0974
40.2108
40.6952
40.9846
40.4802
40.5295
40.1953
41.7909
40.8636
43.1782
42.8838
41.1579
43.3078
42.0327
41.565
42.7406
9.16296
13.2753
15.2479
16.966
18.5599
20.0809
21.543
22.949
24.3066
25.6358
26.9685
28.3469
29.8235
31.4596
33.3085
35.3628
37.4617
39.2599
40.546
41.3832
41.4693
41.4737
41.4158
42.2177
41.4768
42.7719
42.3974
41.2039
42.8364
41.8793