/*--------------------------------*- C++ -*----------------------------------*\
  =========                 |
  \\      /  F ield         | OpenFOAM: The Open Source CFD Toolbox
   \\    /   O peration     | Website:  https://openfoam.org
    \\  /    A nd           | Version:  6
     \\/     M anipulation  |
\*---------------------------------------------------------------------------*/
FoamFile
{
    version     2.0;
    format      ascii;
    class       volVectorField;
    location    "33";
    object      wallShearStress;
}
// * * * * * * * * * * * * * * * * * * * * * * * * * * * * * * * * * * * * * //

dimensions      [0 2 -2 0 0 0 0];

internalField   uniform (0 0 0);

boundaryField
{
    inlet
    {
        type            calculated;
        value           uniform (0 0 0);
    }
    outlet
    {
        type            calculated;
        value           uniform (0 0 0);
    }
    roughCylinder
    {
        type            calculated;
        value           nonuniform List<vector> 
3840
(
(-9.56537e-05 -0.00012205 -5.33021e-05)
(-0.000204708 -0.000345471 -4.68748e-05)
(-0.000294987 -0.000505678 3.29294e-05)
(-0.00035925 -0.000576088 9.46009e-05)
(-0.000428124 -0.000620663 0.000146521)
(-0.00047308 -0.000617426 0.000178656)
(-0.000510986 -0.000605884 0.00019922)
(-0.000533689 -0.00058682 0.000210319)
(-0.000554056 -0.000575787 0.000219078)
(-0.000569627 -0.000570362 0.000223683)
(-0.000585868 -0.000572968 0.000225127)
(-0.000593501 -0.000573127 0.000220254)
(-0.000595826 -0.000572222 0.000210706)
(-0.000598207 -0.000574042 0.00019875)
(-0.000595275 -0.000572621 0.000183012)
(-0.00058871 -0.000569272 0.00016511)
(-0.000581601 -0.000564951 0.00014646)
(-0.000598771 -0.00058348 0.000132592)
(-0.00059395 -0.000581523 0.000113024)
(-0.000611102 -0.000599275 9.64477e-05)
(-0.00060141 -0.000592663 7.52552e-05)
(-0.000602686 -0.000595782 5.51333e-05)
(-0.000596436 -0.000591381 3.36801e-05)
(-0.000593875 -0.00059004 1.13829e-05)
(-0.000104256 -0.000118598 -5.04885e-05)
(-0.000221118 -0.000338533 -5.33816e-05)
(-0.000315493 -0.000499689 2.42621e-05)
(-0.000382592 -0.000574266 8.63405e-05)
(-0.000453986 -0.000621728 0.000138653)
(-0.000501467 -0.000622159 0.000171562)
(-0.000542355 -0.000614664 0.000193314)
(-0.000567063 -0.000597687 0.000206002)
(-0.000592807 -0.000590106 0.000217555)
(-0.00061068 -0.000584033 0.000223262)
(-0.000629051 -0.000586963 0.000225337)
(-0.000635786 -0.000585555 0.000220185)
(-0.000638049 -0.000584441 0.000210784)
(-0.000640967 -0.000586595 0.000199077)
(-0.00063681 -0.000584255 0.000183164)
(-0.000632161 -0.000582953 0.000165996)
(-0.000626 -0.000579957 0.000147741)
(-0.00064405 -0.000598507 0.000133788)
(-0.000641561 -0.000598939 0.000114595)
(-0.000657274 -0.00061475 9.74748e-05)
(-0.00064975 -0.000610778 7.64785e-05)
(-0.000651594 -0.000614493 5.61244e-05)
(-0.000645461 -0.000610625 3.43447e-05)
(-0.000643663 -0.00061017 1.16283e-05)
(-0.000151857 -0.000151749 -6.07111e-05)
(-0.000234344 -0.000322389 -5.91285e-05)
(-0.000334628 -0.000486054 1.45043e-05)
(-0.000405677 -0.000566517 7.6719e-05)
(-0.00048017 -0.000617886 0.000129534)
(-0.000531061 -0.000623441 0.000163766)
(-0.000575602 -0.000620885 0.000187311)
(-0.000605839 -0.000609817 0.000202917)
(-0.000633677 -0.000602801 0.000215837)
(-0.000653383 -0.000595036 0.000222217)
(-0.000670874 -0.000595355 0.00022398)
(-0.000677791 -0.000593293 0.000219016)
(-0.000679687 -0.00059158 0.000209731)
(-0.000685085 -0.000595654 0.000198893)
(-0.000681148 -0.000593803 0.000183318)
(-0.000679972 -0.000595676 0.000167214)
(-0.000675638 -0.000594703 0.0001495)
(-0.000694826 -0.000613406 0.000135465)
(-0.00069365 -0.000615158 0.000116374)
(-0.00070529 -0.000626876 9.83669e-05)
(-0.000698687 -0.000624248 7.74301e-05)
(-0.000700076 -0.000627615 5.6835e-05)
(-0.000693623 -0.000623907 3.48154e-05)
(-0.00069254 -0.000624236 1.18057e-05)
(-0.000161998 -0.000140954 -5.06717e-05)
(-0.000248462 -0.000305752 -6.52123e-05)
(-0.000352828 -0.00046883 4.12725e-06)
(-0.000426275 -0.000552964 6.58905e-05)
(-0.000503482 -0.000608032 0.000118915)
(-0.000558157 -0.000619591 0.00015463)
(-0.000607163 -0.000623064 0.00018043)
(-0.000639541 -0.000614504 0.000197861)
(-0.000672396 -0.000611028 0.000212856)
(-0.000696124 -0.000604166 0.000220694)
(-0.000715619 -0.000603821 0.000223166)
(-0.000722158 -0.000600388 0.000218227)
(-0.000725187 -0.000599187 0.000209501)
(-0.000731067 -0.000603269 0.000198881)
(-0.000726049 -0.000600812 0.000183322)
(-0.000726847 -0.000604275 0.000167866)
(-0.000724077 -0.000604936 0.000150666)
(-0.000744063 -0.000623455 0.000136577)
(-0.000744458 -0.000626674 0.000117703)
(-0.000754158 -0.000636554 9.92692e-05)
(-0.000750753 -0.000637102 7.86194e-05)
(-0.000752595 -0.000641005 5.78023e-05)
(-0.000746267 -0.000637922 3.54695e-05)
(-0.00074594 -0.000639042 1.20454e-05)
(-0.000170015 -0.000127482 -3.87464e-05)
(-0.000257553 -0.000282098 -6.99416e-05)
(-0.000365724 -0.000443385 -6.58082e-06)
(-0.000443227 -0.000533328 5.402e-05)
(-0.000524123 -0.000593496 0.000107191)
(-0.000583743 -0.000612418 0.000144661)
(-0.00063684 -0.000621428 0.000172702)
(-0.000676056 -0.000619725 0.000193415)
(-0.000712002 -0.000617709 0.000209832)
(-0.000737718 -0.000610589 0.000218531)
(-0.000756814 -0.000606843 0.000220942)
(-0.000764004 -0.000602824 0.000216522)
(-0.000767694 -0.000601433 0.000208247)
(-0.000775821 -0.000606791 0.000198396)
(-0.00077222 -0.000605746 0.000183544)
(-0.000775958 -0.000611399 0.000168913)
(-0.000775584 -0.00061423 0.000152343)
(-0.000796487 -0.000632689 0.000138198)
(-0.000796967 -0.000636176 0.000119251)
(-0.000802491 -0.000642734 0.000100138)
(-0.000800819 -0.000645039 7.96077e-05)
(-0.000801917 -0.000648537 5.85408e-05)
(-0.00079547 -0.000645895 3.59725e-05)
(-0.000795714 -0.000647597 1.22301e-05)
(-0.000139225 -8.88905e-05 -2.04958e-05)
(-0.000265817 -0.000257497 -7.41328e-05)
(-0.000377018 -0.000415623 -1.73991e-05)
(-0.000456539 -0.000508918 4.12693e-05)
(-0.00054063 -0.000573792 9.42342e-05)
(-0.000604977 -0.000599794 0.000133287)
(-0.000664057 -0.000615948 0.000164013)
(-0.000705922 -0.000616927 0.000186736)
(-0.000746773 -0.000618064 0.0002051)
(-0.000776352 -0.000612685 0.000215172)
(-0.00079976 -0.000609808 0.000219053)
(-0.000807969 -0.000604392 0.000215282)
(-0.000813597 -0.000603645 0.00020782)
(-0.000821782 -0.000608384 0.000198163)
(-0.000818046 -0.000607411 0.000183649)
(-0.000822593 -0.000613469 0.0001694)
(-0.000824159 -0.000617947 0.00015342)
(-0.000845591 -0.000636036 0.000139261)
(-0.000846563 -0.000640166 0.000120409)
(-0.000850424 -0.000645732 0.00010106)
(-0.000852659 -0.000651284 8.08354e-05)
(-0.000853982 -0.000655425 5.95455e-05)
(-0.000847676 -0.00065367 3.66588e-05)
(-0.000848438 -0.000656028 1.24773e-05)
(-0.000146467 -7.85114e-05 -1.04658e-05)
(-0.000268305 -0.000228101 -7.63342e-05)
(-0.000380786 -0.000380296 -2.7822e-05)
(-0.000464058 -0.000478761 2.76589e-05)
(-0.000552396 -0.000549691 8.01398e-05)
(-0.000623313 -0.000584331 0.000121009)
(-0.000687026 -0.000605839 0.000153994)
(-0.000736771 -0.000613647 0.000179965)
(-0.000781736 -0.000616943 0.000200112)
(-0.000813346 -0.000611895 0.000211175)
(-0.000837253 -0.000607715 0.000215573)
(-0.000848169 -0.000602014 0.000212986)
(-0.000855079 -0.000600479 0.000206262)
(-0.000865293 -0.000605739 0.000197382)
(-0.000864212 -0.000606737 0.000183893)
(-0.000870529 -0.000613858 0.000170252)
(-0.000874627 -0.000620288 0.000154943)
(-0.000896583 -0.000638301 0.000140788)
(-0.000896506 -0.000642319 0.000121804)
(-0.000896429 -0.000645771 0.000101985)
(-0.00090059 -0.000653143 8.18854e-05)
(-0.000900607 -0.000656963 6.03333e-05)
(-0.000894107 -0.000655903 3.71991e-05)
(-0.000894973 -0.000658618 1.26692e-05)
(-0.000152593 -6.74677e-05 -2.60095e-07)
(-0.000269666 -0.00019945 -7.76124e-05)
(-0.000382278 -0.00034427 -3.77426e-05)
(-0.000466692 -0.000445177 1.35554e-05)
(-0.000558699 -0.000521716 6.49998e-05)
(-0.000634833 -0.000563354 0.000107203)
(-0.000705904 -0.000592125 0.000142782)
(-0.000759231 -0.000602634 0.000170763)
(-0.0008089 -0.000608586 0.000192807)
(-0.00084481 -0.000605804 0.000205623)
(-0.000873815 -0.000603929 0.000211865)
(-0.000888194 -0.000599059 0.000210724)
(-0.000898589 -0.000598085 0.000205323)
(-0.000909004 -0.000602284 0.000196921)
(-0.000908157 -0.000603282 0.000183962)
(-0.000914064 -0.000610061 0.000170599)
(-0.000919946 -0.000617929 0.000155924)
(-0.000941659 -0.000635445 0.000141775)
(-0.000940913 -0.000639852 0.000122823)
(-0.000939538 -0.000643425 0.000102943)
(-0.000947041 -0.000653478 8.30736e-05)
(-0.000946786 -0.000657773 6.12902e-05)
(-0.000940215 -0.000657426 3.78459e-05)
(-0.000941135 -0.000660401 1.28958e-05)
(-0.00015755 -5.61894e-05 9.75785e-06)
(-0.00026535 -0.000168554 -7.69865e-05)
(-0.000374379 -0.000302383 -4.60125e-05)
(-0.000461077 -0.000406076 -7.3235e-07)
(-0.000557001 -0.000488644 4.87741e-05)
(-0.000641133 -0.000539406 9.23324e-05)
(-0.000717565 -0.000573087 0.00012984)
(-0.000779607 -0.000589849 0.000160717)
(-0.000834713 -0.000598618 0.000184842)
(-0.000873668 -0.000597064 0.000199289)
(-0.000903888 -0.00059486 0.000206642)
(-0.000921189 -0.000590723 0.000206979)
(-0.000933968 -0.000590058 0.000202839)
(-0.00094685 -0.000594822 0.000195601)
(-0.000949212 -0.000597655 0.000183907)
(-0.000955877 -0.000604949 0.000171154)
(-0.000963646 -0.000614204 0.000157119)
(-0.000984962 -0.000631061 0.000142943)
(-0.000982204 -0.000634967 0.000123845)
(-0.000977022 -0.000637048 0.000103648)
(-0.000985351 -0.000647662 8.38166e-05)
(-0.00098348 -0.000651541 6.18405e-05)
(-0.000976827 -0.00065187 3.82399e-05)
(-0.000977521 -0.00065489 1.30326e-05)
(-0.000176054 -4.91458e-05 2.10775e-05)
(-0.000259317 -0.000138387 -7.46242e-05)
(-0.000363335 -0.000261263 -5.32258e-05)
(-0.000449124 -0.000364296 -1.46673e-05)
(-0.000548481 -0.000452633 3.18935e-05)
(-0.000637822 -0.000509844 7.59052e-05)
(-0.000722553 -0.000550266 0.000115426)
(-0.0007895 -0.000569733 0.000148141)
(-0.000849523 -0.000580741 0.00017412)
(-0.000893673 -0.000581897 0.000190784)
(-0.000930269 -0.000582824 0.000200634)
(-0.000952059 -0.000580483 0.000202986)
(-0.000968449 -0.000581028 0.000200514)
(-0.000981655 -0.000585179 0.000194105)
(-0.000983904 -0.000587797 0.000183118)
(-0.00098932 -0.000594393 0.00017075)
(-0.000998099 -0.000604245 0.000157306)
(-0.00101844 -0.000620079 0.000143169)
(-0.00101478 -0.000624298 0.000124225)
(-0.00100935 -0.000627302 0.000104217)
(-0.00101988 -0.000639102 8.45673e-05)
(-0.00101752 -0.000643395 6.24841e-05)
(-0.00101062 -0.000644299 3.86882e-05)
(-0.00101099 -0.000647311 1.3187e-05)
(-0.00018916 -3.90183e-05 3.28379e-05)
(-0.000251751 -0.000110169 -7.05006e-05)
(-0.000342949 -0.000217026 -5.79039e-05)
(-0.000427163 -0.000317892 -2.75481e-05)
(-0.000528092 -0.00041055 1.45041e-05)
(-0.000626059 -0.000476819 5.83255e-05)
(-0.000717218 -0.000522142 9.90916e-05)
(-0.000793832 -0.000547162 0.000134213)
(-0.000861051 -0.000561297 0.000162448)
(-0.000909949 -0.000564407 0.000181339)
(-0.000948632 -0.000565564 0.000192964)
(-0.000973549 -0.000564226 0.000197267)
(-0.000992303 -0.000565362 0.00019642)
(-0.00100791 -0.000570296 0.000191468)
(-0.00101309 -0.000574579 0.00018191)
(-0.00101898 -0.000581603 0.000170339)
(-0.00102874 -0.000591903 0.000157514)
(-0.00104772 -0.000606516 0.00014341)
(-0.00104192 -0.000610416 0.000124505)
(-0.00103299 -0.000612463 0.00010439)
(-0.00104263 -0.000623348 8.47572e-05)
(-0.00103831 -0.000627208 6.26426e-05)
(-0.00103113 -0.000628681 3.88362e-05)
(-0.00103084 -0.000631508 1.32356e-05)
(-0.000202929 -2.77047e-05 4.56241e-05)
(-0.000241144 -8.42566e-05 -6.45072e-05)
(-0.000318875 -0.0001745 -6.00897e-05)
(-0.000397305 -0.000269748 -3.8529e-05)
(-0.000499698 -0.000366453 -2.54158e-06)
(-0.000601911 -0.00043837 3.95724e-05)
(-0.000701755 -0.000490234 8.11055e-05)
(-0.000785157 -0.000518391 0.000117801)
(-0.00085833 -0.00053421 0.000147922)
(-0.000913455 -0.000539722 0.000169297)
(-0.000959608 -0.000544176 0.000183932)
(-0.000989917 -0.00054506 0.000190869)
(-0.00101251 -0.000547646 0.000192156)
(-0.0010284 -0.000552286 0.000188434)
(-0.0010327 -0.000556183 0.000179755)
(-0.00103694 -0.000562561 0.000168788)
(-0.00104658 -0.000572621 0.000156557)
(-0.00106341 -0.000585652 0.000142559)
(-0.00105667 -0.000590044 0.000124018)
(-0.00104827 -0.00059361 0.000104347)
(-0.00105814 -0.000604143 8.48846e-05)
(-0.00105297 -0.000608366 6.28408e-05)
(-0.00104509 -0.000610225 3.8996e-05)
(-0.00104406 -0.000612863 1.32872e-05)
(-0.000216805 -1.49183e-05 5.95646e-05)
(-0.000232014 -6.26259e-05 -5.83296e-05)
(-0.000288501 -0.000132941 -5.86548e-05)
(-0.000357621 -0.00021959 -4.63567e-05)
(-0.000456131 -0.000315865 -1.83412e-05)
(-0.000565635 -0.000395738 2.03194e-05)
(-0.000672862 -0.000453426 6.14075e-05)
(-0.000767129 -0.000487474 9.97239e-05)
(-0.00084987 -0.000506611 0.000132338)
(-0.000912062 -0.000513763 0.000156451)
(-0.000960986 -0.000518181 0.000173292)
(-0.000994218 -0.000519866 0.000182637)
(-0.00101886 -0.000523004 0.000185995)
(-0.00103684 -0.000528481 0.000184088)
(-0.00104357 -0.000533937 0.000177071)
(-0.00104822 -0.000540907 0.000167178)
(-0.0010573 -0.000550488 0.000155529)
(-0.00107156 -0.000561796 0.000141621)
(-0.00106269 -0.000566114 0.000123343)
(-0.00105054 -0.000568953 0.000103739)
(-0.00105731 -0.000577267 8.43034e-05)
(-0.00104961 -0.00058109 6.24313e-05)
(-0.00104089 -0.000583367 3.8775e-05)
(-0.00103876 -0.00058575 1.32042e-05)
(-0.000230672 -5.20445e-07 7.47467e-05)
(-0.00021924 -4.37388e-05 -5.11509e-05)
(-0.000254921 -9.53724e-05 -5.37025e-05)
(-0.000309657 -0.000169635 -4.97322e-05)
(-0.000404537 -0.000264644 -3.17607e-05)
(-0.000515277 -0.000348371 1.36238e-06)
(-0.000630316 -0.000412558 4.05921e-05)
(-0.000733006 -0.000451294 7.93646e-05)
(-0.00082347 -0.000472884 0.000113874)
(-0.000893333 -0.000481534 0.000140858)
(-0.000950708 -0.000488215 0.000161101)
(-0.000989963 -0.000491408 0.000173563)
(-0.00101822 -0.000495874 0.000179437)
(-0.00103596 -0.000501196 0.000179164)
(-0.00104098 -0.000506289 0.00017328)
(-0.00104345 -0.000512669 0.000164194)
(-0.00105076 -0.00052139 0.000153084)
(-0.00106149 -0.000531017 0.000139346)
(-0.00105149 -0.000535923 0.000121659)
(-0.00104004 -0.000540523 0.000102729)
(-0.00104499 -0.000547849 8.35369e-05)
(-0.00103581 -0.000552066 6.19747e-05)
(-0.00102567 -0.000554496 3.8505e-05)
(-0.00102237 -0.000556686 1.31032e-05)
(-0.000228838 1.44964e-05 8.53069e-05)
(-0.000211308 -2.9184e-05 -4.5261e-05)
(-0.000220718 -6.3846e-05 -4.57006e-05)
(-0.000256087 -0.000122366 -4.78069e-05)
(-0.000337014 -0.000208219 -4.07481e-05)
(-0.000449932 -0.00029635 -1.60275e-05)
(-0.000572234 -0.000367067 1.93432e-05)
(-0.000686567 -0.000412998 5.77478e-05)
(-0.000788416 -0.000439606 9.42329e-05)
(-0.000868004 -0.000450825 0.00012454)
(-0.000929061 -0.000456578 0.000147675)
(-0.000970952 -0.00045929 0.000162911)
(-0.00100042 -0.000463423 0.000171086)
(-0.00101945 -0.000469278 0.00017287)
(-0.00102601 -0.000475778 0.000168826)
(-0.00102842 -0.000483 0.000161014)
(-0.00103323 -0.000491028 0.000150425)
(-0.0010401 -0.000499243 0.000136893)
(-0.00102769 -0.000504086 0.000119698)
(-0.00101144 -0.000507647 0.000100942)
(-0.00101128 -0.000512672 8.19039e-05)
(-0.000998736 -0.000516303 6.07701e-05)
(-0.000986946 -0.000518745 3.77547e-05)
(-0.000982075 -0.000520529 1.2831e-05)
(-0.000225874 2.86568e-05 9.43398e-05)
(-0.000194747 -1.68975e-05 -3.78875e-05)
(-0.000181994 -3.83815e-05 -3.4468e-05)
(-0.000195895 -7.872e-05 -3.94571e-05)
(-0.000264785 -0.000154356 -4.43636e-05)
(-0.000371823 -0.000241409 -3.03031e-05)
(-0.000498573 -0.000317224 -1.23445e-06)
(-0.000621795 -0.000369259 3.51144e-05)
(-0.000732655 -0.000400377 7.25137e-05)
(-0.000820388 -0.000414374 0.000105651)
(-0.000890818 -0.000422381 0.000132626)
(-0.000938954 -0.00042646 0.000151365)
(-0.000971575 -0.00043119 0.000162378)
(-0.000989359 -0.000436485 0.000165966)
(-0.000993209 -0.000442352 0.000163162)
(-0.000992377 -0.000448929 0.000156228)
(-0.000993515 -0.00045599 0.000146127)
(-0.000995368 -0.000462506 0.000132802)
(-0.000981176 -0.000467433 0.00011635)
(-0.000965361 -0.000472577 9.84935e-05)
(-0.000961681 -0.00047655 7.98765e-05)
(-0.000946775 -0.000480183 5.93337e-05)
(-0.000932726 -0.000482352 3.68298e-05)
(-0.000926263 -0.000483747 1.24961e-05)
(-0.000223673 4.0986e-05 0.000101178)
(-0.000191653 -8.71723e-06 -3.35157e-05)
(-0.000148339 -2.13496e-05 -2.2858e-05)
(-0.000140257 -4.44349e-05 -2.71955e-05)
(-0.000181002 -9.94799e-05 -3.98209e-05)
(-0.000278672 -0.000181966 -3.91666e-05)
(-0.00040986 -0.000263121 -1.9702e-05)
(-0.000544516 -0.000323311 1.29516e-05)
(-0.000667197 -0.000361127 5.08697e-05)
(-0.00076567 -0.000380012 8.69932e-05)
(-0.000839656 -0.000388555 0.000117064)
(-0.000889513 -0.000392337 0.000138697)
(-0.000921984 -0.000396415 0.000152032)
(-0.000939896 -0.000401973 0.000157692)
(-0.00094422 -0.000408712 0.000156719)
(-0.000942269 -0.000415605 0.000151042)
(-0.00093895 -0.000421641 0.000141314)
(-0.000935648 -0.000426759 0.000128178)
(-0.00091821 -0.000430994 0.000112329)
(-0.000896049 -0.000434211 9.47577e-05)
(-0.000885677 -0.000435806 7.65313e-05)
(-0.000866483 -0.000438102 5.67589e-05)
(-0.000850002 -0.000439572 3.51648e-05)
(-0.000841659 -0.000440265 1.18996e-05)
(-0.000214607 4.84845e-05 9.99881e-05)
(-0.000177511 -2.73343e-06 -2.76564e-05)
(-0.000100667 -9.37826e-06 -1.00638e-05)
(-7.14727e-05 -1.56652e-05 -1.02752e-05)
(-0.000102242 -5.31843e-05 -2.85354e-05)
(-0.000181676 -0.000123883 -4.13822e-05)
(-0.000307743 -0.000204574 -3.42492e-05)
(-0.000449574 -0.000271115 -7.39415e-06)
(-0.000581265 -0.000315322 2.97645e-05)
(-0.000686168 -0.00033848 6.76519e-05)
(-0.000767996 -0.000351325 0.00010078)
(-0.000822794 -0.000357648 0.000125441)
(-0.000857317 -0.000362942 0.000141269)
(-0.000872705 -0.000368035 0.000148454)
(-0.000872947 -0.000373646 0.000148496)
(-0.000866101 -0.00037908 0.00014348)
(-0.000857228 -0.00038368 0.000134031)
(-0.000847861 -0.000386926 0.000121057)
(-0.000827436 -0.000390021 0.00010602)
(-0.000805714 -0.000393971 8.97187e-05)
(-0.000791344 -0.000394447 7.23067e-05)
(-0.000769431 -0.000395769 5.35633e-05)
(-0.000750389 -0.000396132 3.30725e-05)
(-0.00074036 -0.000396036 1.11526e-05)
(-0.000205358 5.06853e-05 9.12994e-05)
(-0.000172846 4.05489e-07 -2.39447e-05)
(-9.4707e-05 -5.69986e-06 -2.89111e-06)
(-4.03603e-05 -4.44186e-06 -1.37694e-07)
(-2.98298e-05 -1.57237e-05 -1.03885e-05)
(-7.58928e-05 -6.06312e-05 -3.12232e-05)
(-0.000198357 -0.000142491 -4.25284e-05)
(-0.000347842 -0.00021707 -2.36048e-05)
(-0.000488423 -0.000268968 1.2164e-05)
(-0.000602067 -0.000298989 5.13801e-05)
(-0.000684231 -0.000314098 8.59434e-05)
(-0.000737879 -0.000321652 0.000111974)
(-0.000769514 -0.000327083 0.000128874)
(-0.000783237 -0.000332555 0.00013733)
(-0.000782682 -0.000338454 0.000138739)
(-0.000773678 -0.000343513 0.000134737)
(-0.000759462 -0.00034672 0.000125493)
(-0.000744568 -0.000348111 0.000112643)
(-0.000720373 -0.000349175 9.82791e-05)
(-0.000691348 -0.000349497 8.2488e-05)
(-0.000669642 -0.000346827 6.58933e-05)
(-0.000643054 -0.000345441 4.8467e-05)
(-0.000621324 -0.00034398 2.97272e-05)
(-0.000609547 -0.000342682 9.96673e-06)
(-0.000194121 4.79191e-05 7.55101e-05)
(-0.000148344 1.99356e-06 -1.82442e-05)
(-8.17195e-05 -2.64181e-06 3.88123e-06)
(-2.33387e-05 1.62849e-06 8.06061e-06)
(2.989e-06 -1.21191e-06 -8.04644e-07)
(-4.89705e-06 -1.41618e-05 -1.38632e-05)
(-8.86833e-05 -7.45905e-05 -3.88213e-05)
(-0.000236044 -0.000155243 -3.17485e-05)
(-0.000380239 -0.000215553 8.86897e-07)
(-0.000493622 -0.000250737 3.85373e-05)
(-0.000579164 -0.000271954 7.26266e-05)
(-0.000634145 -0.000283409 9.8644e-05)
(-0.000665857 -0.000291115 0.000115921)
(-0.000675896 -0.000296406 0.000124562)
(-0.000669936 -0.000300542 0.00012609)
(-0.000654158 -0.000302933 0.000122088)
(-0.000633336 -0.000303755 0.000112782)
(-0.000612287 -0.000302339 9.99958e-05)
(-0.00058433 -0.000300471 8.64615e-05)
(-0.000556911 -0.000300594 7.26296e-05)
(-0.00053328 -0.000296798 5.77005e-05)
(-0.000505219 -0.000293564 4.20806e-05)
(-0.000481909 -0.000290218 2.55439e-05)
(-0.000469162 -0.000287755 8.49338e-06)
(-0.000182983 4.57342e-05 5.90547e-05)
(-0.000136645 4.2138e-06 -1.57538e-05)
(-7.423e-05 2.04977e-06 8.14107e-06)
(-9.94975e-06 9.79661e-06 1.07233e-05)
(2.63527e-05 1.03184e-05 3.00169e-07)
(2.48608e-05 6.77524e-06 -6.06852e-06)
(-1.54204e-05 -1.84234e-05 -2.11898e-05)
(-0.000137309 -9.54847e-05 -2.68709e-05)
(-0.000274009 -0.000162383 3.45402e-07)
(-0.000387428 -0.000205847 3.37121e-05)
(-0.000465691 -0.000229857 6.34461e-05)
(-0.000515046 -0.000243237 8.60308e-05)
(-0.000540675 -0.000251061 0.000100836)
(-0.000547331 -0.000256284 0.000108533)
(-0.00053964 -0.000259956 0.00011019)
(-0.000521913 -0.000261383 0.000106704)
(-0.000497028 -0.000260329 9.75308e-05)
(-0.000472331 -0.000256461 8.49683e-05)
(-0.000442081 -0.000251539 7.22483e-05)
(-0.000407855 -0.000245962 5.93218e-05)
(-0.000377552 -0.000237208 4.59339e-05)
(-0.000345928 -0.000229545 3.25234e-05)
(-0.000321017 -0.000223109 1.9245e-05)
(-0.000307445 -0.000218889 6.28423e-06)
(-0.000158451 4.18844e-05 4.34433e-05)
(-0.000115669 5.89536e-06 -1.30884e-05)
(-6.02799e-05 6.14093e-06 7.57049e-06)
(6.33276e-07 9.20298e-06 4.24461e-06)
(3.02695e-05 9.19914e-06 2.62516e-06)
(2.5936e-05 1.14781e-05 8.50698e-06)
(4.85865e-06 1.41075e-06 6.30521e-07)
(-4.90609e-05 -3.57405e-05 -2.49474e-06)
(-0.000163637 -0.000105803 1.32964e-05)
(-0.000258948 -0.000151157 3.60043e-05)
(-0.000333867 -0.0001817 5.72935e-05)
(-0.00038025 -0.000198899 7.33215e-05)
(-0.00040471 -0.000208992 8.41431e-05)
(-0.000407914 -0.000213554 8.93541e-05)
(-0.000394873 -0.000214296 8.94406e-05)
(-0.000369823 -0.000211064 8.47795e-05)
(-0.000339188 -0.000205762 7.5196e-05)
(-0.000309652 -0.000197179 6.27238e-05)
(-0.000277206 -0.000187538 5.09508e-05)
(-0.000249052 -0.000181974 4.12701e-05)
(-0.000222762 -0.000172788 3.12135e-05)
(-0.000194128 -0.000163353 2.09293e-05)
(-0.000170998 -0.000154871 1.17104e-05)
(-0.000158562 -0.000149483 3.67464e-06)
(-0.000129067 3.48149e-05 3.02588e-05)
(-0.000106599 7.37685e-06 -1.11896e-05)
(-5.67648e-05 4.97769e-06 7.71108e-06)
(1.35714e-05 4.36701e-06 8.37774e-06)
(2.58122e-05 5.9735e-06 1.71053e-05)
(2.73418e-05 6.42455e-06 2.48144e-05)
(2.01806e-05 1.34732e-06 3.24058e-05)
(-6.06549e-06 -1.23367e-05 2.0221e-05)
(-6.98902e-05 -6.16956e-05 3.69569e-05)
(-0.000146844 -0.00010733 4.74664e-05)
(-0.000202738 -0.000134898 5.45776e-05)
(-0.000239443 -0.000151501 5.99584e-05)
(-0.000256247 -0.000159396 6.29637e-05)
(-0.000256172 -0.000162115 6.39181e-05)
(-0.000242869 -0.000161199 6.23829e-05)
(-0.000219662 -0.000156626 5.78235e-05)
(-0.0001902 -0.000149214 4.90003e-05)
(-0.00016346 -0.000138348 3.79189e-05)
(-0.000134886 -0.000126017 2.75033e-05)
(-0.000101774 -0.000110799 1.88461e-05)
(-7.3184e-05 -9.25691e-05 1.1586e-05)
(-4.63721e-05 -7.50564e-05 4.9695e-06)
(-2.74563e-05 -6.06316e-05 1.32315e-06)
(-1.85848e-05 -5.20143e-05 1.16871e-07)
(-9.5721e-05 2.68421e-05 1.79074e-05)
(-8.56281e-05 8.16681e-06 -9.11937e-06)
(-5.28932e-05 6.62908e-06 9.01161e-06)
(1.86111e-06 1.16016e-05 1.5776e-05)
(1.82251e-05 1.17025e-05 2.26221e-05)
(3.48903e-05 1.08762e-05 3.37802e-05)
(3.48336e-05 2.26841e-06 3.68754e-05)
(2.59837e-05 -6.95582e-06 3.8148e-05)
(6.82776e-06 -1.75263e-05 3.22773e-05)
(-1.69024e-05 -3.48223e-05 3.1034e-05)
(-6.25511e-05 -7.49295e-05 4.29513e-05)
(-9.52904e-05 -9.43238e-05 4.0489e-05)
(-0.000114136 -0.000104127 3.70294e-05)
(-0.000114482 -0.000105154 3.31612e-05)
(-9.95945e-05 -9.93966e-05 2.83362e-05)
(-7.29179e-05 -8.56867e-05 2.12593e-05)
(-4.38955e-05 -6.87431e-05 1.2302e-05)
(-2.01144e-05 -4.41691e-05 3.49755e-06)
(-7.64052e-06 -3.84493e-05 -2.67453e-06)
(5.6836e-06 -2.21649e-05 -5.95151e-06)
(1.01941e-05 -1.04957e-05 -6.21893e-06)
(2.10286e-05 -5.41389e-06 -9.84237e-06)
(1.94446e-05 1.09351e-06 -5.99132e-06)
(2.71617e-05 4.7202e-06 -2.98598e-06)
(-5.73175e-05 2.06533e-05 9.71809e-06)
(-7.474e-05 1.01318e-05 -1.31482e-05)
(-5.3827e-05 1.26951e-05 7.5454e-07)
(-1.68804e-05 2.29921e-05 1.08034e-05)
(5.4818e-06 3.1956e-05 1.43015e-05)
(2.79445e-05 2.73e-05 1.56593e-05)
(3.6244e-05 1.47289e-05 1.99669e-05)
(5.6156e-05 9.17824e-06 3.77452e-05)
(3.94506e-05 -7.83858e-08 3.30694e-05)
(2.97131e-05 -7.30484e-06 2.89399e-05)
(1.69285e-05 -1.49076e-05 2.02451e-05)
(9.54454e-06 -2.95974e-05 1.60397e-05)
(1.91632e-08 -2.22672e-05 3.36253e-06)
(-1.08441e-06 -2.89917e-05 -2.50695e-06)
(3.13983e-06 -1.68794e-05 -6.05818e-06)
(9.65343e-06 -1.16693e-05 -1.02951e-05)
(1.63554e-05 -5.21557e-06 -1.46122e-05)
(2.96733e-05 -6.30732e-08 -2.59254e-05)
(2.35123e-05 4.7688e-06 -2.00637e-05)
(2.58347e-05 9.91792e-06 -1.98372e-05)
(2.68272e-05 1.32163e-05 -1.76715e-05)
(4.16842e-05 2.32971e-05 -2.15363e-05)
(4.24159e-05 2.49433e-05 -1.40746e-05)
(2.88893e-05 1.709e-05 -3.32417e-06)
(-7.30379e-06 8.67045e-06 8.15023e-06)
(-4.86956e-05 9.22807e-06 -1.72232e-05)
(-5.53881e-05 1.36707e-05 -1.32656e-05)
(-4.38687e-05 2.8046e-05 -5.71079e-06)
(-1.32941e-05 4.73049e-05 -3.53685e-06)
(2.28897e-05 5.6237e-05 -8.69565e-06)
(5.17237e-05 4.54215e-05 -5.87086e-06)
(5.56297e-05 2.30971e-05 7.40392e-06)
(4.9104e-05 1.27562e-05 2.04155e-05)
(6.13799e-05 1.44342e-05 3.1373e-05)
(4.25325e-05 7.95198e-06 1.77889e-05)
(5.24349e-05 7.26659e-06 1.1564e-05)
(4.32672e-05 5.18761e-06 -4.00704e-06)
(2.82239e-05 4.5618e-06 -1.30302e-05)
(3.67068e-05 9.36864e-06 -2.67542e-05)
(2.82089e-05 1.01549e-05 -2.34536e-05)
(4.18449e-05 1.84391e-05 -3.43552e-05)
(2.9278e-05 1.39439e-05 -2.34404e-05)
(4.27209e-05 2.06049e-05 -3.28093e-05)
(2.99017e-05 1.37384e-05 -2.08767e-05)
(2.98841e-05 1.25881e-05 -1.83047e-05)
(3.57872e-05 1.30917e-05 -1.76239e-05)
(4.39128e-05 1.40375e-05 -1.41495e-05)
(4.62768e-05 1.35778e-05 -5.18358e-06)
(1.94057e-05 7.30463e-06 2.10754e-05)
(-7.42464e-06 9.38416e-06 -1.4791e-05)
(-3.49736e-05 1.18229e-05 -2.14124e-05)
(-3.96425e-05 1.85065e-05 -1.80138e-05)
(-3.44807e-05 3.98339e-05 -2.27065e-05)
(2.72249e-06 5.20949e-05 -2.6883e-05)
(3.96175e-05 4.91838e-05 -2.8565e-05)
(6.03144e-05 3.1318e-05 -1.92597e-05)
(6.37343e-05 1.25547e-05 4.75841e-06)
(7.16814e-05 1.25453e-05 2.13884e-05)
(7.87514e-05 1.51755e-05 1.98263e-05)
(7.43072e-05 1.45178e-05 8.29736e-06)
(5.4761e-05 1.12738e-05 -4.46687e-06)
(3.79885e-05 9.27453e-06 -1.16536e-05)
(3.79183e-05 1.0923e-05 -1.95036e-05)
(3.25774e-05 9.64541e-06 -2.09877e-05)
(4.22684e-05 1.12196e-05 -2.95838e-05)
(4.86428e-05 1.03098e-05 -3.56581e-05)
(5.45187e-05 8.17093e-06 -4.05554e-05)
(5.95413e-05 4.26749e-06 -4.19321e-05)
(6.33319e-05 -1.13196e-07 -3.98035e-05)
(6.5386e-05 -4.282e-06 -3.28495e-05)
(6.57489e-05 -7.17239e-06 -2.14885e-05)
(6.54174e-05 -8.44517e-06 -7.41442e-06)
(2.01963e-05 9.54639e-06 2.92569e-05)
(1.90856e-05 1.63535e-05 -6.3938e-06)
(-8.42084e-06 1.58762e-05 -2.14194e-05)
(-2.91222e-05 1.74776e-05 -2.41136e-05)
(-3.79403e-05 3.00735e-05 -3.06068e-05)
(-1.96907e-05 4.2215e-05 -3.75045e-05)
(1.22215e-05 4.09086e-05 -4.15388e-05)
(3.89685e-05 2.01577e-05 -3.4576e-05)
(5.57229e-05 -2.76269e-06 -9.86651e-06)
(7.75311e-05 -4.77802e-06 1.20801e-05)
(0.000100854 5.08866e-07 1.39403e-05)
(0.000111693 3.66747e-06 2.10078e-06)
(0.000105956 3.18794e-06 -1.46954e-05)
(9.22503e-05 1.63935e-06 -2.91128e-05)
(7.78956e-05 -1.67955e-08 -3.84456e-05)
(7.40497e-05 -3.83731e-06 -4.64482e-05)
(7.14341e-05 -8.18068e-06 -4.94191e-05)
(7.04784e-05 -1.21108e-05 -5.11096e-05)
(7.08364e-05 -1.57449e-05 -5.1754e-05)
(7.20415e-05 -2.01798e-05 -4.92088e-05)
(7.10161e-05 -2.25952e-05 -4.28223e-05)
(7.05782e-05 -2.43593e-05 -3.39889e-05)
(7.0688e-05 -2.51508e-05 -2.22275e-05)
(7.02815e-05 -2.50664e-05 -7.68397e-06)
(1.79568e-05 3.89017e-06 2.05211e-05)
(1.85368e-05 1.20874e-05 1.24982e-06)
(6.40721e-06 1.8696e-05 -1.23922e-05)
(-1.67068e-05 2.02496e-05 -2.44951e-05)
(-3.19582e-05 2.4593e-05 -3.24427e-05)
(-2.93143e-05 2.99071e-05 -4.06658e-05)
(-9.22867e-06 2.58114e-05 -4.68018e-05)
(1.64614e-05 5.96887e-06 -4.19749e-05)
(3.9748e-05 -1.67431e-05 -2.01763e-05)
(6.32376e-05 -1.89561e-05 8.42174e-07)
(8.90111e-05 -1.32707e-05 3.98385e-06)
(0.00010635 -9.52844e-06 -5.61896e-06)
(0.000107994 -1.00433e-05 -2.03619e-05)
(9.97936e-05 -1.42524e-05 -3.39269e-05)
(8.90667e-05 -1.91663e-05 -4.35371e-05)
(8.04479e-05 -2.31522e-05 -4.82437e-05)
(7.69635e-05 -2.67105e-05 -5.09773e-05)
(7.58951e-05 -2.8756e-05 -5.27675e-05)
(7.60086e-05 -3.03091e-05 -5.31903e-05)
(7.66259e-05 -3.15731e-05 -5.02772e-05)
(7.42432e-05 -3.06526e-05 -4.35638e-05)
(7.16183e-05 -2.91371e-05 -3.38377e-05)
(6.78873e-05 -2.65547e-05 -2.1159e-05)
(6.48231e-05 -2.47388e-05 -7.07243e-06)
(1.6563e-05 -4.11341e-06 5.67258e-06)
(1.61957e-05 -3.27537e-06 1.33975e-06)
(7.84643e-06 4.88349e-06 -3.57844e-06)
(-7.58858e-06 1.15737e-05 -1.56864e-05)
(-2.33623e-05 1.50457e-05 -2.90022e-05)
(-2.9923e-05 1.56863e-05 -4.04754e-05)
(-2.23089e-05 9.43764e-06 -4.85417e-05)
(-3.68875e-06 -6.85406e-06 -4.59385e-05)
(1.72482e-05 -2.23884e-05 -2.87655e-05)
(2.79012e-05 -1.85024e-05 -8.63628e-06)
(4.20923e-05 -1.3604e-05 -3.69027e-06)
(6.92376e-05 -1.20969e-05 -8.49537e-06)
(8.75675e-05 -1.23191e-05 -2.05614e-05)
(9.35833e-05 -1.81258e-05 -3.46351e-05)
(8.87898e-05 -2.52074e-05 -4.40374e-05)
(8.36305e-05 -2.99199e-05 -4.94449e-05)
(7.84855e-05 -3.13075e-05 -5.08372e-05)
(7.39096e-05 -3.01637e-05 -5.01621e-05)
(7.11674e-05 -2.888e-05 -4.84992e-05)
(6.84152e-05 -2.71244e-05 -4.41273e-05)
(6.29257e-05 -2.47551e-05 -3.67677e-05)
(5.74733e-05 -2.25456e-05 -2.73681e-05)
(5.24801e-05 -2.02821e-05 -1.67639e-05)
(4.96967e-05 -1.92174e-05 -5.59637e-06)
(1.54956e-05 -1.0388e-05 -6.81267e-06)
(1.68139e-05 -1.42937e-05 -1.63315e-06)
(1.13295e-05 -1.24302e-05 -1.10075e-06)
(4.98099e-07 -8.05813e-06 -7.89523e-06)
(-1.27738e-05 -3.58987e-06 -2.0871e-05)
(-2.17479e-05 -3.77465e-06 -3.52986e-05)
(-2.1329e-05 -1.04859e-05 -4.58903e-05)
(-1.00998e-05 -2.25954e-05 -4.56218e-05)
(5.37849e-06 -2.84014e-05 -2.90735e-05)
(1.76267e-05 -2.42636e-05 -1.36265e-05)
(3.14852e-05 -2.09855e-05 -8.83855e-06)
(3.949e-05 -1.54556e-05 -8.20185e-06)
(4.21148e-05 -1.14805e-05 -1.11196e-05)