/*--------------------------------*- C++ -*----------------------------------*\
  =========                 |
  \\      /  F ield         | OpenFOAM: The Open Source CFD Toolbox
   \\    /   O peration     | Website:  https://openfoam.org
    \\  /    A nd           | Version:  6
     \\/     M anipulation  |
\*---------------------------------------------------------------------------*/
FoamFile
{
    version     2.0;
    format      ascii;
    class       volVectorField;
    location    "16";
    object      wallShearStress;
}
// * * * * * * * * * * * * * * * * * * * * * * * * * * * * * * * * * * * * * //

dimensions      [0 2 -2 0 0 0 0];

internalField   uniform (0 0 0);

boundaryField
{
    inlet
    {
        type            calculated;
        value           uniform (0 0 0);
    }
    outlet
    {
        type            calculated;
        value           uniform (0 0 0);
    }
    roughCylinder
    {
        type            calculated;
        value           nonuniform List<vector> 
3840
(
(-8.61313e-05 -0.000110712 -4.93641e-05)
(-0.000171613 -0.000295841 -4.23608e-05)
(-0.000253083 -0.000445419 2.75414e-05)
(-0.000309628 -0.0005108 8.38142e-05)
(-0.000373549 -0.000556602 0.000133105)
(-0.000418486 -0.00056003 0.00016592)
(-0.000458214 -0.000555131 0.000188872)
(-0.000484345 -0.000540568 0.000201878)
(-0.000508015 -0.000533601 0.000212405)
(-0.000522454 -0.000526853 0.000217295)
(-0.000532979 -0.000524217 0.000217722)
(-0.000538694 -0.000522289 0.000213378)
(-0.000548235 -0.000527555 0.000207581)
(-0.000552919 -0.000530649 0.00019724)
(-0.000559973 -0.000537528 0.000185386)
(-0.000559237 -0.000538031 0.000169178)
(-0.000568042 -0.000547859 0.000154188)
(-0.000565276 -0.000548112 0.000135327)
(-0.000562233 -0.000548222 0.000115848)
(-0.000548529 -0.000538756 9.45185e-05)
(-0.000556953 -0.000548598 7.64163e-05)
(-0.000554409 -0.000548015 5.58303e-05)
(-0.00054964 -0.000544877 3.4259e-05)
(-0.000546149 -0.000542545 1.15827e-05)
(-9.85335e-05 -0.000112464 -4.8681e-05)
(-0.000180759 -0.000282177 -4.7099e-05)
(-0.000269612 -0.000438079 1.92203e-05)
(-0.000328517 -0.00050743 7.54805e-05)
(-0.000395197 -0.000556968 0.00012509)
(-0.000442104 -0.000563526 0.000158555)
(-0.000485236 -0.000562972 0.000182656)
(-0.000513386 -0.000550642 0.000197029)
(-0.00054251 -0.000547772 0.00021037)
(-0.000559597 -0.000540408 0.000216525)
(-0.000571612 -0.000537603 0.000217757)
(-0.000579023 -0.000536247 0.000214166)
(-0.000589249 -0.000541308 0.000208537)
(-0.000594166 -0.000544199 0.000198281)
(-0.000601162 -0.000550648 0.000186368)
(-0.000600413 -0.000551239 0.000170271)
(-0.00060658 -0.000558468 0.000154569)
(-0.000603323 -0.00055847 0.000135761)
(-0.000600496 -0.000559116 0.000116454)
(-0.000589243 -0.00055281 9.56969e-05)
(-0.000598785 -0.000563291 7.75163e-05)
(-0.000595963 -0.000562715 5.66793e-05)
(-0.000591847 -0.000560505 3.48718e-05)
(-0.000589327 -0.000559318 1.18207e-05)
(-0.000129596 -0.000129386 -5.22021e-05)
(-0.000194207 -0.000271702 -5.29939e-05)
(-0.000284545 -0.000423732 9.90594e-06)
(-0.000347149 -0.00049912 6.59064e-05)
(-0.000416146 -0.000551887 0.000115639)
(-0.000466506 -0.000563796 0.000150395)
(-0.000511828 -0.000566309 0.000175528)
(-0.000545042 -0.000559746 0.000192557)
(-0.000575142 -0.000556563 0.000206692)
(-0.000594257 -0.000548527 0.000213852)
(-0.0006086 -0.000545607 0.000216153)
(-0.000618959 -0.000545569 0.000213708)
(-0.000631008 -0.000551282 0.000208681)
(-0.000634533 -0.00055255 0.000198104)
(-0.000641976 -0.000559014 0.000186426)
(-0.00064153 -0.000559988 0.000170646)
(-0.000646373 -0.000566018 0.000154746)
(-0.000644366 -0.000567366 0.000136425)
(-0.000642919 -0.000569556 0.000117477)
(-0.000634915 -0.000566937 9.7299e-05)
(-0.000644908 -0.000577392 7.88736e-05)
(-0.000641698 -0.000576789 5.77155e-05)
(-0.000637002 -0.000574387 3.55307e-05)
(-0.000634266 -0.000573228 1.20505e-05)
(-0.000109505 -9.45993e-05 -3.38808e-05)
(-0.000198393 -0.000247725 -5.64569e-05)
(-0.000297507 -0.000404997 2.95276e-08)
(-0.000362384 -0.000484395 5.50357e-05)
(-0.000434425 -0.000541682 0.000104846)
(-0.000487395 -0.000558196 0.000140594)
(-0.000537648 -0.000567172 0.000167852)
(-0.000573021 -0.000563326 0.000186587)
(-0.000608701 -0.000564423 0.000203056)
(-0.000632075 -0.000558362 0.000212029)
(-0.000649913 -0.000555298 0.000215597)
(-0.000662438 -0.000555453 0.000213984)
(-0.000674406 -0.000559868 0.000208907)
(-0.000677347 -0.000560283 0.000198362)
(-0.000684614 -0.000566216 0.000186773)
(-0.000684251 -0.000567403 0.000171266)
(-0.000686697 -0.000571515 0.000154989)
(-0.00068366 -0.00057224 0.000136694)
(-0.000682892 -0.000575282 0.000118027)
(-0.000678717 -0.000576589 9.85361e-05)
(-0.000689 -0.000586959 7.99382e-05)
(-0.000685576 -0.000586574 5.85622e-05)
(-0.000681608 -0.000585188 3.61483e-05)
(-0.000679945 -0.000585192 1.22903e-05)
(-0.000116635 -8.62446e-05 -2.54704e-05)
(-0.000207747 -0.000230166 -6.12297e-05)
(-0.000306159 -0.000380009 -1.00958e-05)
(-0.000374534 -0.000464995 4.33107e-05)
(-0.000448771 -0.000525879 9.27572e-05)
(-0.000506866 -0.000549976 0.000130053)
(-0.000559872 -0.000563001 0.000158829)
(-0.000601493 -0.000565823 0.000180575)
(-0.000638953 -0.000567499 0.000198161)
(-0.000663998 -0.000561503 0.000208026)
(-0.000685805 -0.00055906 0.000213062)
(-0.000701627 -0.000559209 0.000212609)
(-0.000715128 -0.000563675 0.000208132)
(-0.000716382 -0.00056239 0.000197472)
(-0.000724285 -0.000568433 0.000186337)
(-0.000724619 -0.00057036 0.000171371)
(-0.000726768 -0.000574486 0.000155332)
(-0.000724407 -0.000576098 0.000137435)
(-0.000725337 -0.000580759 0.000119157)
(-0.000725215 -0.000585854 0.000100239)
(-0.000734943 -0.000595504 8.12986e-05)
(-0.000731264 -0.000595368 5.96299e-05)
(-0.000726545 -0.000593805 3.68294e-05)
(-0.000724597 -0.000593911 1.25285e-05)
(-0.000148756 -9.28144e-05 -1.94638e-05)
(-0.000203011 -0.000198152 -6.16986e-05)
(-0.000310989 -0.000350907 -1.99839e-05)
(-0.000381329 -0.000439357 3.07146e-05)
(-0.000459471 -0.000506084 7.96614e-05)
(-0.000520781 -0.000535552 0.000117863)
(-0.000579977 -0.000555977 0.000149001)
(-0.000623947 -0.000561384 0.000172512)
(-0.000666987 -0.000567091 0.0001924)
(-0.000697336 -0.000564263 0.000204353)
(-0.000723965 -0.000563599 0.000211103)
(-0.000743022 -0.000563415 0.000211775)
(-0.000755571 -0.000565124 0.000207251)
(-0.000756577 -0.000563129 0.000196976)
(-0.000764607 -0.000568861 0.00018622)
(-0.000765456 -0.000571365 0.000171771)
(-0.000766244 -0.000574782 0.000155788)
(-0.00076231 -0.000575583 0.000137896)
(-0.000763572 -0.000580992 0.000119853)
(-0.000767478 -0.00058986 0.000101563)
(-0.000776828 -0.000599332 8.24152e-05)
(-0.000772978 -0.000599795 6.05434e-05)
(-0.00076901 -0.000599472 3.75023e-05)
(-0.000767955 -0.000600661 1.27855e-05)
(-0.000128382 -6.64077e-05 -6.25195e-06)
(-0.000208901 -0.000178248 -6.49388e-05)
(-0.000310281 -0.000316997 -2.92598e-05)
(-0.000383808 -0.00041016 1.75977e-05)
(-0.000463781 -0.000480621 6.52595e-05)
(-0.000531824 -0.000518962 0.000104853)
(-0.000594198 -0.000543387 0.000137488)
(-0.000645591 -0.000555529 0.000163969)
(-0.000691504 -0.000562622 0.00018539)
(-0.000723785 -0.000560232 0.000198549)
(-0.00075332 -0.000560117 0.000206536)
(-0.000775774 -0.000560559 0.000208526)
(-0.00079076 -0.000562138 0.000205097)
(-0.000791261 -0.000559032 0.000195379)
(-0.000800334 -0.000564926 0.000185377)
(-0.000802612 -0.000568688 0.000171766)
(-0.000804558 -0.000573498 0.000156471)
(-0.000800949 -0.000575214 0.000138982)
(-0.000802999 -0.000581799 0.000121193)
(-0.000810056 -0.00059359 0.000103286)
(-0.000817805 -0.000602148 8.37408e-05)
(-0.000813498 -0.000603117 6.15926e-05)
(-0.000808345 -0.000602602 3.8166e-05)
(-0.000806714 -0.000603659 1.30128e-05)
(-0.0001519 -6.36991e-05 4.14425e-06)
(-0.000189325 -0.00013979 -6.00042e-05)
(-0.000304233 -0.000280162 -3.73575e-05)
(-0.000378311 -0.000374704 4.20752e-06)
(-0.000463052 -0.000452188 5.00284e-05)
(-0.000534576 -0.000495957 9.00996e-05)
(-0.000604449 -0.00052799 0.00012491)
(-0.000658731 -0.000542317 0.000153025)
(-0.000710346 -0.00055298 0.000176636)
(-0.000749027 -0.000554446 0.000192298)
(-0.000783913 -0.000556705 0.000202333)
(-0.00080872 -0.00055726 0.000205505)
(-0.000822894 -0.000557103 0.000202548)
(-0.000824705 -0.000554359 0.000193987)
(-0.000834336 -0.000560048 0.000184727)
(-0.000837696 -0.000564767 0.000171944)
(-0.000839196 -0.000569892 0.000157067)
(-0.000833486 -0.000570902 0.000139598)
(-0.000834691 -0.000577361 0.00012187)
(-0.000844276 -0.000591152 0.000104332)
(-0.000850978 -0.000599175 8.45814e-05)
(-0.000846284 -0.000600621 6.22849e-05)
(-0.000841791 -0.000601228 3.86955e-05)
(-0.000840981 -0.000603153 1.32166e-05)
(-0.000134759 -4.46601e-05 1.30902e-05)
(-0.000193305 -0.000121 -6.14863e-05)
(-0.000291241 -0.000240303 -4.39695e-05)
(-0.000367533 -0.000336902 -8.89733e-06)
(-0.000452572 -0.000417249 3.37747e-05)
(-0.000532106 -0.000470608 7.43936e-05)
(-0.000605495 -0.000506217 0.000110317)
(-0.000668656 -0.000527123 0.000141141)
(-0.000724741 -0.000539821 0.000166561)
(-0.000765977 -0.000542076 0.000183793)
(-0.000802846 -0.000544515 0.000195186)
(-0.000829954 -0.000545619 0.000199799)
(-0.000846648 -0.000546486 0.000198426)
(-0.000849335 -0.000544096 0.000191115)
(-0.000860182 -0.000550202 0.000182946)
(-0.000865519 -0.000556365 0.000171297)
(-0.000869086 -0.000563346 0.0001574)
(-0.000863545 -0.000565105 0.000140367)
(-0.000864822 -0.000572101 0.000122834)
(-0.000876052 -0.000587018 0.000105505)
(-0.000880655 -0.000593797 8.54321e-05)
(-0.000875554 -0.000595713 6.29864e-05)
(-0.000869618 -0.000595969 3.91399e-05)
(-0.000867951 -0.000597544 1.3366e-05)
(-0.000134719 -3.35318e-05 2.20079e-05)
(-0.00015994 -8.28614e-05 -5.00802e-05)
(-0.000272785 -0.00019982 -4.86906e-05)
(-0.000345828 -0.000292607 -2.09069e-05)
(-0.000435636 -0.000380012 1.73304e-05)
(-0.000518068 -0.00043831 5.70917e-05)
(-0.000600426 -0.000481911 9.45233e-05)
(-0.000667426 -0.000504734 0.000126758)
(-0.000729617 -0.000520217 0.000154182)
(-0.000778179 -0.000526385 0.000174093)
(-0.000821224 -0.000531818 0.000188023)
(-0.000850803 -0.000533744 0.000194371)
(-0.00086661 -0.000533719 0.000194009)
(-0.000871534 -0.000532684 0.000188385)
(-0.000882488 -0.00053862 0.000181163)
(-0.000888966 -0.000545578 0.000170521)
(-0.000892424 -0.000552886 0.000157243)
(-0.000884794 -0.000553935 0.000140364)
(-0.000884515 -0.000560454 0.000122935)
(-0.000896144 -0.000575466 0.000105809)
(-0.0008993 -0.000581486 8.56605e-05)
(-0.00089371 -0.000583823 6.32287e-05)
(-0.000888391 -0.000585151 3.93997e-05)
(-0.000887311 -0.000587342 1.34758e-05)
(-0.000138399 -2.36185e-05 3.147e-05)
(-0.000166226 -6.93996e-05 -5.00722e-05)
(-0.000246336 -0.00015776 -5.01779e-05)
(-0.000319312 -0.000248281 -3.12469e-05)
(-0.000405381 -0.000335357 1.08048e-06)
(-0.000496302 -0.000403424 3.91331e-05)
(-0.000582115 -0.00045054 7.65997e-05)
(-0.000659768 -0.000480317 0.00011107)
(-0.000728729 -0.000498202 0.00014059)
(-0.000780922 -0.000504954 0.000162325)
(-0.000825137 -0.000510143 0.000177767)
(-0.000856459 -0.000512827 0.000185976)
(-0.00087586 -0.000515012 0.000187917)
(-0.000882672 -0.000515237 0.000184093)
(-0.000894289 -0.000521501 0.000178131)
(-0.000902467 -0.000529465 0.00016874)
(-0.000907937 -0.000538255 0.000156567)
(-0.000900687 -0.000540141 0.000140321)
(-0.00089984 -0.000546957 0.000123191)
(-0.000910929 -0.000561409 0.000106156)
(-0.000911319 -0.000565905 8.58108e-05)
(-0.000905091 -0.000568585 6.34081e-05)
(-0.000897818 -0.000569372 3.95153e-05)
(-0.000895502 -0.000570986 1.35094e-05)
(-0.000138119 -1.28731e-05 4.04493e-05)
(-0.000130999 -4.27259e-05 -3.73385e-05)
(-0.000217868 -0.000119174 -4.88406e-05)
(-0.000279197 -0.000198115 -3.7874e-05)
(-0.000368612 -0.000289787 -1.38041e-05)
(-0.000459805 -0.000361044 2.05768e-05)
(-0.000555739 -0.000417211 5.77467e-05)
(-0.000638043 -0.000449608 9.29323e-05)
(-0.00071406 -0.000470098 0.000124386)
(-0.000774824 -0.000479996 0.000149007)
(-0.000826602 -0.000488028 0.000167445)
(-0.000861256 -0.00049224 0.000178009)
(-0.000880042 -0.000494345 0.000181599)
(-0.000889429 -0.000496311 0.000179895)
(-0.000900364 -0.0005023 0.000175055)
(-0.000908752 -0.000510326 0.000166704)
(-0.000913008 -0.000518612 0.000155136)
(-0.000903474 -0.0005198 0.000139221)
(-0.000900554 -0.000526096 0.000122353)
(-0.000909665 -0.000539072 0.000105416)
(-0.000907986 -0.000542622 8.51503e-05)
(-0.000900968 -0.000545603 6.29792e-05)
(-0.000894088 -0.000547451 3.93647e-05)
(-0.000891902 -0.000549424 1.34738e-05)
(-0.000136554 -2.31145e-06 4.89642e-05)
(-0.000129637 -3.18482e-05 -3.43413e-05)
(-0.000180217 -8.13527e-05 -4.24092e-05)
(-0.000238594 -0.000152604 -4.10666e-05)
(-0.000315653 -0.00023622 -2.58107e-05)
(-0.00041423 -0.000316329 2.73945e-06)
(-0.000511982 -0.000375636 3.75303e-05)
(-0.000606314 -0.000416543 7.34342e-05)
(-0.000691297 -0.000441287 0.00010686)
(-0.000757619 -0.000452015 0.000133905)
(-0.000810619 -0.000458903 0.000154247)
(-0.000846911 -0.000463095 0.000167052)
(-0.000870383 -0.000467641 0.000173509)
(-0.0008819 -0.000470978 0.000173947)
(-0.000892672 -0.000477249 0.000170528)
(-0.000901439 -0.000485464 0.00016342)
(-0.000906521 -0.000494367 0.000152926)
(-0.000897333 -0.000496449 0.00013784)
(-0.000893051 -0.000503135 0.000121425)
(-0.000899529 -0.000514758 0.000104573)
(-0.000894292 -0.000516955 8.42949e-05)
(-0.000886063 -0.000519994 6.23847e-05)
(-0.00087643 -0.000521054 3.89823e-05)
(-0.000872615 -0.000522321 1.33327e-05)
(-0.00012782 7.61866e-06 5.44964e-05)
(-0.000150693 -2.65325e-05 -3.65484e-05)
(-0.000147366 -5.2501e-05 -3.42459e-05)
(-0.000181926 -0.000102773 -3.6914e-05)
(-0.000260015 -0.000185311 -3.40669e-05)
(-0.000351831 -0.000263675 -1.32728e-05)
(-0.000460208 -0.000333123 1.76842e-05)
(-0.000558707 -0.000377509 5.24362e-05)
(-0.000650703 -0.000406183 8.69072e-05)
(-0.000726565 -0.000421011 0.000116876)
(-0.000788702 -0.00043122 0.000140771)
(-0.000830168 -0.000437053 0.000156801)
(-0.000853473 -0.000440987 0.000165366)
(-0.000866931 -0.000445383 0.000168019)
(-0.000876058 -0.000451225 0.000165862)
(-0.000883268 -0.000458635 0.000159705)
(-0.000884874 -0.000466132 0.000149636)
(-0.00087293 -0.000467421 0.000135021)
(-0.000865735 -0.000473635 0.000119044)
(-0.000868231 -0.000483268 0.000102354)
(-0.000860092 -0.000484808 8.23927e-05)
(-0.000850651 -0.000487744 6.1001e-05)
(-0.000841162 -0.000489735 3.82394e-05)
(-0.000836892 -0.000491018 1.30853e-05)
(-0.000118968 1.58552e-05 5.83519e-05)
(-0.000122312 -1.44724e-05 -2.67332e-05)
(-9.55889e-05 -2.55559e-05 -1.99486e-05)
(-0.000137023 -6.57538e-05 -3.00839e-05)
(-0.00018668 -0.000126786 -3.49869e-05)
(-0.000282613 -0.000210524 -2.59197e-05)
(-0.000387863 -0.0002805 -1.35128e-06)
(-0.000499238 -0.000335279 3.13201e-05)
(-0.000601245 -0.000370494 6.6551e-05)
(-0.000683145 -0.000388302 9.8735e-05)
(-0.000746282 -0.00039787 0.000124876)
(-0.000789007 -0.000403287 0.000143407)
(-0.000817615 -0.000409595 0.000155145)
(-0.000832824 -0.00041492 0.00016011)
(-0.000841045 -0.00042082 0.000159502)
(-0.000846854 -0.000427803 0.00015444)
(-0.000847758 -0.000435561 0.000145371)
(-0.000835747 -0.000437718 0.000131743)
(-0.000826102 -0.000443639 0.000116332)
(-0.000824471 -0.000451292 9.98212e-05)
(-0.00081196 -0.000451738 8.00874e-05)
(-0.000800558 -0.000454078 5.92477e-05)
(-0.000787268 -0.000454685 3.70891e-05)
(-0.000780904 -0.000454994 1.26713e-05)
(-0.000107185 2.13863e-05 5.8139e-05)
(-0.000117005 -8.6434e-06 -2.29015e-05)
(-8.09847e-05 -1.58684e-05 -1.28566e-05)
(-6.18505e-05 -2.32652e-05 -1.25258e-05)
(-0.000123712 -7.98168e-05 -3.12732e-05)
(-0.000197521 -0.000149436 -3.25527e-05)
(-0.000312293 -0.000229489 -1.7766e-05)
(-0.000424902 -0.000287173 1.09568e-05)
(-0.000532655 -0.000327468 4.56501e-05)
(-0.000622974 -0.000351051 7.97564e-05)
(-0.000695564 -0.000365914 0.000109247)
(-0.000744623 -0.000374293 0.000131171)
(-0.00077243 -0.000379797 0.000144982)
(-0.000788061 -0.000385375 0.000152046)
(-0.000793718 -0.000390694 0.000152707)
(-0.000795972 -0.000396769 0.000148403)
(-0.000790855 -0.000402304 0.000139445)
(-0.00077496 -0.000403202 0.000126314)
(-0.000761208 -0.000407541 0.000111433)
(-0.000754026 -0.000412324 9.5198e-05)
(-0.000737832 -0.00041193 7.61029e-05)
(-0.000724789 -0.00041345 5.62243e-05)
(-0.000711767 -0.000414651 3.53199e-05)
(-0.000704734 -0.000414676 1.20643e-05)
(-9.51608e-05 2.34552e-05 5.30833e-05)
(-0.00011162 -5.27329e-06 -1.95456e-05)
(-7.18824e-05 -1.04512e-05 -6.22684e-06)
(-4.11435e-05 -1.0428e-05 -4.62071e-06)
(-3.69538e-05 -2.27636e-05 -1.20489e-05)
(-0.000115716 -9.25231e-05 -3.29097e-05)
(-0.000215102 -0.000164969 -2.89227e-05)
(-0.000340951 -0.000235348 -6.51754e-06)
(-0.000457771 -0.000283984 2.69571e-05)
(-0.000552241 -0.000312107 6.19225e-05)
(-0.000623095 -0.000327724 9.24519e-05)
(-0.000670661 -0.000336464 0.000115778)
(-0.000703022 -0.00034468 0.000132232)
(-0.000718957 -0.000350861 0.000141233)
(-0.000722749 -0.000356082 0.000143256)
(-0.000721703 -0.000361513 0.00013978)
(-0.000714885 -0.000366898 0.000131729)
(-0.000698672 -0.00036805 0.000119722)
(-0.000681805 -0.000370968 0.000105558)
(-0.00067009 -0.000373294 8.97692e-05)
(-0.000649716 -0.000371491 7.13197e-05)
(-0.000634409 -0.000371484 5.24928e-05)
(-0.000616778 -0.000370094 3.28403e-05)
(-0.000607194 -0.000368565 1.11769e-05)
(-8.65139e-05 2.25919e-05 4.48224e-05)
(-0.000105828 -3.88771e-06 -1.67255e-05)
(-6.2611e-05 -6.78933e-06 4.48494e-07)
(-2.51486e-05 -2.54432e-06 3.62736e-06)
(-1.10129e-05 -8.45172e-06 -5.01825e-06)
(-2.45278e-05 -2.47936e-05 -1.49102e-05)
(-0.000131494 -0.00010877 -3.50834e-05)
(-0.000248316 -0.000177831 -1.88525e-05)
(-0.000365928 -0.000232003 1.19562e-05)
(-0.000465007 -0.000267177 4.61589e-05)
(-0.000542876 -0.000289897 7.75743e-05)
(-0.000595883 -0.000303485 0.000102597)
(-0.000625086 -0.000311239 0.000119821)
(-0.000638996 -0.000317321 0.000130026)
(-0.00063922 -0.000321784 0.000132865)
(-0.0006334 -0.000325869 0.000129753)
(-0.00061893 -0.000327895 0.000121377)
(-0.0005974 -0.000326236 0.000109673)
(-0.000575255 -0.000325961 9.6099e-05)
(-0.000557023 -0.000324232 8.08251e-05)
(-0.000533361 -0.000320727 6.36181e-05)
(-0.00051631 -0.000318873 4.65279e-05)
(-0.000500061 -0.000317766 2.92134e-05)
(-0.000490389 -0.000315868 9.93307e-06)
(-7.28895e-05 1.90413e-05 3.23676e-05)
(-0.000100065 -2.35279e-06 -1.46429e-05)
(-5.50407e-05 -1.98739e-06 5.63031e-06)
(-1.17818e-05 6.39063e-06 9.54694e-06)
(1.48961e-05 8.92786e-06 -6.27534e-07)
(6.29842e-06 -1.61249e-06 -1.05992e-05)
(-2.91127e-05 -2.66804e-05 -1.67616e-05)
(-0.000157574 -0.000117957 -2.17631e-05)
(-0.000275949 -0.000181169 4.62517e-06)
(-0.000371968 -0.000221102 3.53912e-05)
(-0.000442291 -0.000244763 6.35722e-05)
(-0.000488773 -0.000258393 8.63188e-05)
(-0.000520305 -0.000269288 0.000103943)
(-0.000532442 -0.000275772 0.000114618)
(-0.000529606 -0.000279695 0.0001179)
(-0.000519142 -0.000282123 0.000114911)
(-0.000503566 -0.000283598 0.000107387)
(-0.000482783 -0.000281778 9.71062e-05)
(-0.000458409 -0.00027935 8.46432e-05)
(-0.000437351 -0.000275055 7.04217e-05)
(-0.000411403 -0.00026961 5.4621e-05)
(-0.000393059 -0.000265663 3.9492e-05)
(-0.000372038 -0.000260352 2.44705e-05)
(-0.000359937 -0.000256187 8.25126e-06)
(-6.63053e-05 1.8578e-05 2.58373e-05)
(-9.56022e-05 9.53072e-09 -1.37102e-05)
(-5.11177e-05 3.27677e-06 5.62544e-06)
(-3.24326e-07 8.40908e-06 4.12216e-06)
(2.07326e-05 1.18482e-05 3.2601e-06)
(1.53381e-05 1.19914e-05 1.87543e-06)
(-7.65264e-06 -6.01824e-06 -7.64529e-06)
(-7.55303e-05 -5.81585e-05 -9.24574e-06)
(-0.00017478 -0.000121842 7.47145e-06)
(-0.0002655 -0.000168482 3.06152e-05)
(-0.000338285 -0.000200129 5.34669e-05)
(-0.000388824 -0.000219901 7.3539e-05)
(-0.00041399 -0.0002296 8.86761e-05)
(-0.000421671 -0.000235182 9.84518e-05)
(-0.000414583 -0.000237762 0.000101292)
(-0.000399928 -0.000238235 9.79774e-05)
(-0.000376866 -0.000234854 8.95274e-05)
(-0.000349951 -0.000227964 7.91628e-05)
(-0.000320352 -0.000220331 6.73781e-05)
(-0.000293079 -0.000209979 5.40661e-05)
(-0.000266255 -0.000201771 4.06269e-05)
(-0.000247152 -0.000194999 2.85983e-05)
(-0.000230462 -0.000190392 1.77215e-05)
(-0.000220027 -0.000186155 5.9596e-06)
(-5.57062e-05 1.64752e-05 1.99113e-05)
(-8.6564e-05 2.01953e-06 -1.19146e-05)
(-4.80173e-05 2.33746e-06 5.38657e-06)
(1.01539e-05 6.58861e-06 8.43901e-06)
(1.88674e-05 9.39103e-06 1.54224e-05)
(1.76553e-05 9.48867e-06 1.93679e-05)
(5.8572e-06 1.34532e-06 1.92188e-05)
(-2.4046e-05 -2.23757e-05 1.4109e-05)
(-9.14292e-05 -7.46628e-05 2.22198e-05)
(-0.000162148 -0.000118548 3.2979e-05)
(-0.000218269 -0.000146999 4.42728e-05)
(-0.000256204 -0.000163607 5.56171e-05)
(-0.000282616 -0.000176263 6.7453e-05)
(-0.000287695 -0.000181458 7.50838e-05)
(-0.000277223 -0.000182259 7.65625e-05)
(-0.000257725 -0.000178954 7.20909e-05)
(-0.000236648 -0.000174798 6.47434e-05)
(-0.000214807 -0.00016836 5.67459e-05)
(-0.000187714 -0.000159082 4.7142e-05)
(-0.000164133 -0.000147621 3.63977e-05)
(-0.000139221 -0.000137374 2.55355e-05)
(-0.000122033 -0.000128856 1.69912e-05)
(-0.000102433 -0.000117895 9.73055e-06)
(-9.09685e-05 -0.000110304 3.15522e-06)
(-4.60439e-05 1.45603e-05 1.50428e-05)
(-7.91119e-05 4.18052e-06 -1.08207e-05)
(-4.27409e-05 3.95838e-06 5.65117e-06)
(-1.55e-06 1.19195e-05 1.55239e-05)
(1.74752e-05 1.67186e-05 2.72311e-05)
(2.605e-05 1.21378e-05 2.97831e-05)
(2.56315e-05 3.54193e-06 3.26896e-05)
(1.63181e-05 -8.92149e-06 3.58764e-05)
(-7.44473e-06 -2.07473e-05 2.29742e-05)
(-5.08568e-05 -5.97224e-05 3.20589e-05)
(-0.000106344 -9.63551e-05 3.67665e-05)
(-0.000149916 -0.000120063 4.2051e-05)
(-0.000167965 -0.000128315 4.70012e-05)
(-0.000168181 -0.00013061 5.08178e-05)
(-0.000154756 -0.000128796 5.01253e-05)
(-0.000135465 -0.000123527 4.50585e-05)
(-0.000110914 -0.000112795 3.63981e-05)
(-8.47536e-05 -9.70644e-05 2.75538e-05)
(-5.59892e-05 -7.82214e-05 1.84676e-05)
(-3.09989e-05 -5.28245e-05 9.05445e-06)
(-1.43984e-05 -3.69506e-05 3.09808e-06)
(-4.82354e-06 -2.14658e-05 5.13228e-07)
(5.88835e-07 -1.67213e-05 -2.99303e-07)
(3.25076e-06 -1.41797e-05 -1.59263e-07)
(-2.95491e-05 1.37269e-05 1.19576e-05)
(-6.84396e-05 7.509e-06 -1.36302e-05)
(-5.21346e-05 1.03478e-05 -2.33964e-06)
(-2.62309e-05 2.45624e-05 1.05119e-05)
(-3.48844e-06 3.50388e-05 1.39624e-05)
(1.93683e-05 2.70121e-05 1.48142e-05)
(3.13027e-05 1.62376e-05 2.02964e-05)
(3.64445e-05 7.0448e-06 2.72836e-05)
(3.58616e-05 -2.97285e-06 3.44485e-05)
(1.40727e-05 -1.31717e-05 2.13314e-05)
(-3.83486e-06 -2.83224e-05 1.68882e-05)
(-1.71606e-05 -2.87749e-05 9.64623e-06)
(-3.96099e-05 -5.06316e-05 1.37622e-05)
(-4.11338e-05 -5.319e-05 1.40047e-05)
(-2.93191e-05 -4.69069e-05 1.07535e-05)
(-1.14792e-05 -2.77098e-05 3.97541e-06)
(-2.45459e-06 -1.8643e-05 -1.75947e-07)
(3.50693e-06 -1.38088e-05 -2.78576e-06)
(1.28226e-05 -9.09784e-06 -6.90287e-06)
(1.54808e-05 -1.9117e-06 -7.68547e-06)
(2.42509e-05 5.56726e-06 -1.01365e-05)
(2.50943e-05 9.92314e-06 -7.82982e-06)
(2.00149e-05 1.09947e-05 -3.73843e-06)
(2.05931e-05 1.27679e-05 -1.21105e-06)
(-2.01745e-06 1.27001e-05 1.67356e-05)
(-4.27847e-05 1.10412e-05 -1.51935e-05)
(-5.17268e-05 1.26066e-05 -1.36771e-05)
(-4.73864e-05 2.5661e-05 -7.84161e-06)
(-2.55402e-05 4.3954e-05 -7.90109e-06)
(5.24335e-06 5.28436e-05 -1.24929e-05)
(3.25931e-05 4.21652e-05 -9.64316e-06)
(3.50875e-05 1.89164e-05 3.21431e-06)
(3.37506e-05 1.17753e-05 1.3789e-05)
(4.53745e-05 1.13157e-05 2.07957e-05)
(2.95774e-05 3.57165e-06 1.04749e-05)
(1.88517e-05 -3.29223e-06 2.18575e-06)
(1.4575e-05 -8.5428e-06 -4.78505e-06)
(1.01281e-05 -5.47857e-06 -7.42473e-06)
(1.36472e-05 -1.38098e-06 -1.06073e-05)
(1.72798e-05 3.04299e-06 -1.28252e-05)
(2.48405e-05 9.26393e-06 -1.67877e-05)
(2.77025e-05 1.41972e-05 -1.61941e-05)
(3.12392e-05 1.94596e-05 -1.42071e-05)
(2.75879e-05 1.89005e-05 -1.00348e-05)
(2.86724e-05 1.95704e-05 -8.06089e-06)
(2.3391e-05 1.55985e-05 -4.64294e-06)
(3.14615e-05 2.01417e-05 -3.68435e-06)
(2.41821e-05 1.5001e-05 -8.9613e-07)
(1.12542e-05 1.59011e-05 2.97595e-05)
(-1.29805e-05 1.68417e-05 -1.13795e-05)
(-3.35996e-05 1.47259e-05 -1.73641e-05)
(-4.44711e-05 2.20936e-05 -1.91483e-05)
(-3.61471e-05 3.65763e-05 -2.41538e-05)
(-7.98992e-06 4.47469e-05 -3.0453e-05)
(2.30889e-05 4.01323e-05 -3.21344e-05)
(4.19031e-05 2.58603e-05 -2.06183e-05)
(4.56625e-05 1.47249e-05 -9.62412e-09)
(4.04962e-05 1.1445e-05 7.91012e-06)
(3.67477e-05 1.16561e-05 6.46268e-06)
(4.15347e-05 1.43012e-05 2.47273e-06)
(2.70017e-05 1.08082e-05 -3.50927e-06)
(2.39895e-05 1.1776e-05 -8.03497e-06)
(2.89972e-05 1.62729e-05 -1.26191e-05)
(3.37382e-05 1.95012e-05 -1.44349e-05)
(2.42199e-05 1.33954e-05 -9.29365e-06)
(2.65136e-05 1.33984e-05 -9.31736e-06)
(2.59397e-05 1.14207e-05 -7.83565e-06)
(3.16847e-05 1.1206e-05 -8.48223e-06)
(3.94048e-05 1.14783e-05 -9.01381e-06)
(4.36369e-05 9.9246e-06 -7.47713e-06)
(4.75076e-05 8.39073e-06 -5.09268e-06)
(4.93795e-05 7.31158e-06 -1.74889e-06)
(7.30513e-06 1.85581e-05 3.48598e-05)
(-1.47296e-06 2.68612e-05 -6.08816e-06)
(-2.1268e-05 2.4389e-05 -1.70685e-05)
(-3.49631e-05 2.51019e-05 -2.20057e-05)
(-3.45784e-05 3.12541e-05 -2.8149e-05)
(-1.78529e-05 3.52956e-05 -3.57315e-05)
(6.34191e-06 2.88852e-05 -3.86464e-05)
(2.86201e-05 1.25194e-05 -2.75882e-05)
(4.61319e-05 1.82858e-06 -8.04597e-06)
(6.55498e-05 2.56923e-06 4.2538e-06)
(7.80889e-05 1.00118e-05 5.34994e-06)
(6.44003e-05 1.20931e-05 -9.98869e-07)
(4.83128e-05 1.14574e-05 -6.12048e-06)
(3.69583e-05 1.00227e-05 -8.68929e-06)
(3.62415e-05 9.62159e-06 -1.09239e-05)
(4.01022e-05 8.31202e-06 -1.28841e-05)
(4.54122e-05 6.51852e-06 -1.4559e-05)
(4.89622e-05 3.74983e-06 -1.54292e-05)
(5.3632e-05 -2.53048e-07 -1.52575e-05)
(5.62258e-05 -4.46836e-06 -1.40758e-05)
(5.72218e-05 -6.79415e-06 -1.23226e-05)
(5.93079e-05 -8.99889e-06 -9.52555e-06)
(6.0311e-05 -1.06728e-05 -6.14131e-06)
(6.0693e-05 -1.11246e-05 -2.07841e-06)
(3.10978e-06 1.54379e-05 2.83696e-05)
(-3.0908e-06 2.7679e-05 -2.20635e-06)
(-1.35422e-05 2.83883e-05 -1.20064e-05)
(-2.48754e-05 2.72447e-05 -1.87192e-05)
(-2.88804e-05 2.72709e-05 -2.54584e-05)
(-2.1215e-05 2.50322e-05 -3.26567e-05)
(-4.11763e-06 1.50343e-05 -3.51019e-05)
(1.6513e-05 -4.97734e-07 -2.6235e-05)
(3.79001e-05 -1.06669e-05 -9.80819e-06)
(5.88699e-05 -8.66341e-06 6.56938e-07)
(7.65062e-05 -1.07321e-06 3.91654e-07)
(7.73296e-05 1.63059e-06 -6.3121e-06)
(6.96787e-05 -2.70391e-07 -1.19742e-05)
(6.09649e-05 -3.36134e-06 -1.47868e-05)
(5.68806e-05 -5.88619e-06 -1.60203e-05)
(5.74481e-05 -8.19446e-06 -1.68915e-05)
(5.91296e-05 -9.93935e-06 -1.75111e-05)
(6.06808e-05 -1.20769e-05 -1.78762e-05)
(6.12328e-05 -1.46162e-05 -1.64644e-05)
(6.19841e-05 -1.60153e-05 -1.48952e-05)
(6.20774e-05 -1.73255e-05 -1.29207e-05)
(6.35281e-05 -1.76635e-05 -9.9314e-06)
(6.32704e-05 -1.77558e-05 -6.4493e-06)
(6.20292e-05 -1.69452e-05 -2.1784e-06)
(6.49841e-07 1.02621e-05 1.81552e-05)
(-6.14696e-06 2.0718e-05 -7.88662e-07)
(-1.35635e-05 2.4472e-05 -9.85233e-06)
(-2.0765e-05 2.39109e-05 -1.65465e-05)
(-2.48664e-05 2.11625e-05 -2.32262e-05)
(-2.22145e-05 1.52124e-05 -2.9457e-05)
(-1.17109e-05 4.23486e-06 -3.08853e-05)
(4.36219e-06 -8.7995e-06 -2.36295e-05)
(1.95709e-05 -1.40839e-05 -9.64272e-06)
(3.42191e-05 -9.85887e-06 -1.53986e-06)
(5.9165e-05 -4.47896e-06 -1.83844e-06)
(6.69845e-05 -2.49916e-06 -7.87675e-06)
(6.93899e-05 -7.08774e-06 -1.38823e-05)
(6.45849e-05 -1.23334e-05 -1.62915e-05)
(6.10236e-05 -1.52169e-05 -1.69053e-05)
(5.99806e-05 -1.58522e-05 -1.72867e-05)
(5.95225e-05 -1.55579e-05 -1.75499e-05)
(5.91124e-05 -1.54827e-05 -1.75195e-05)
(5.75023e-05 -1.59295e-05 -1.58304e-05)
(5.51866e-05 -1.4909e-05 -1.37214e-05)
(5.34271e-05 -1.50877e-05 -1.13553e-05)
(5.26852e-05 -1.43539e-05 -8.50142e-06)
(5.08205e-05 -1.40784e-05 -5.45486e-06)
(4.86902e-05 -1.35373e-05 -1.84325e-06)
(1.08573e-06 3.12993e-06 5.96318e-06)
(-5.35933e-06 8.22156e-06 -5.32321e-07)
(-1.30012e-05 1.33936e-05 -7.70253e-06)
(-1.90587e-05 1.47807e-05 -1.56183e-05)
(-2.20512e-05 1.2114e-05 -2.32504e-05)
(-2.05243e-05 4.89322e-06 -2.98167e-05)
(-1.31331e-05 -6.73271e-06 -3.17682e-05)
(-9.7133e-07 -1.79628e-05 -2.43665e-05)
(1.00623e-05 -1.76915e-05 -9.97605e-06)
(2.25996e-05 -1.52659e-05 -3.97674e-06)
(3.07416e-05 -8.84723e-06 -1.88195e-06)
(3.41077e-05 -4.41429e-06 -3.77981e-06)
(4.76405e-05 -6.52788e-06 -9.39352e-06)
(5.29927e-05 -1.09055e-05 -1.37265e-05)
(5.17891e-05 -1.33946e-05 -1.49399e-05)
(4.85403e-05 -1.33907e-05 -1.47432e-05)
(4.51491e-05 -1.26546e-05 -1.4018e-05)
(4.33719e-05 -1.23794e-05 -1.34528e-05)
(4.26726e-05 -1.28712e-05 -1.22853e-05)
(4.16459e-05 -1.26059e-05 -1.08592e-05)
(4.28096e-05 -1.33928e-05 -9.41535e-06)
(4.38748e-05 -1.33793e-05 -7.40069e-06)
(4.45085e-05 -1.36763e-05 -5.01577e-06)
(4.43815e-05 -1.37279e-05 -1.77645e-06)
(2.75759e-06 -2.64167e-06 -4.60143e-06)
(-7.12623e-08 -3.12183e-06 -1.7693e-06)
(-6.29946e-06 -6.17839e-07 -3.64707e-06)
(-1.27184e-05 1.61394e-06 -1.01027e-05)
(-1.58862e-05 2.03485e-07 -1.76187e-05)
(-1.40873e-05 -5.95367e-06 -2.34659e-05)
(-6.73527e-06 -1.53296e-05 -2.37464e-05)
(4.10214e-06 -1.92322e-05 -1.43829e-05)
(1.60518e-05 -1.99234e-05 -8.58466e-06)
(2.52681e-05 -1.65738e-05 -5.71826e-06)
(3.63752e-05 -1.60677e-05 -5.09711e-06)
(4.3468e-05 -1.46724e-05 -5.76287e-06)
(3.87992e-05 -1.09654e-05 -7.04233e-06)
(3.89933e-05 -1.12505e-05 -9.62721e-06)
(3.94615e-05 -1.24917e-05 -1.14772e-05)
(3.95277e-05 -1.32567e-05 -1.23711e-05)
(4.03287e-05 -1.38464e-05 -1.28243e-05)
(4.15228e-05 -1.42887e-05 -1.304e-05)
(4.24755e-05 -1.46887e-05 -1.23768e-05)
(4.21733e-05 -1.44685e-05 -1.11273e-05)
(4.27434e-05 -1.4711e-05 -9.45464e-06)
(4.26415e-05 -1.42585e-05 -7.3128e-06)
(4.20943e-05 -1.40188e-05 -4.8586e-06)
(4.11773e-05 -1.37012e-05 -1.70184e-06)
(3.29319e-06 -5.38624e-06 -8.50817e-06)
(3.06732e-06 -7.65902e-06 -2.21273e-06)
(-1.02443e-07 -7.67543e-06 -1.50011e-06)
(-4.118e-06 -7.68672e-06 -4.12743e-06)
(-6.2178e-06 -9.21132e-06 -8.48462e-06)
(-4.24253e-06 -1.28374e-05 -1.15245e-05)
(1.89326e-06 -1.50282e-05 -1.01172e-05)
(1.11071e-05 -1.78228e-05 -9.11471e-06)
(2.01698e-05 -1.74254e-05 -8.47835e-06)
(2.4931e-05 -1.54049e-05 -6.58127e-06)
(2.81635e-05 -1.30827e-05 -4.47447e-06)