/*--------------------------------*- C++ -*----------------------------------*\
  =========                 |
  \\      /  F ield         | OpenFOAM: The Open Source CFD Toolbox
   \\    /   O peration     | Website:  https://openfoam.org
    \\  /    A nd           | Version:  6
     \\/     M anipulation  |
\*---------------------------------------------------------------------------*/
FoamFile
{
    version     2.0;
    format      ascii;
    class       volScalarField;
    location    "21";
    object      yPlus;
}
// * * * * * * * * * * * * * * * * * * * * * * * * * * * * * * * * * * * * * //

dimensions      [0 0 0 0 0 0 0];

internalField   uniform 0;

boundaryField
{
    inlet
    {
        type            calculated;
        value           uniform 0;
    }
    outlet
    {
        type            calculated;
        value           uniform 0;
    }
    roughCylinder
    {
        type            calculated;
        value           nonuniform List<scalar> 
3840
(
66.2326
50.0375
53.6916
62.0094
68.432
73.5401
77.6536
81.1143
84.174
86.9536
89.5828
92.1035
94.6145
97.2137
99.9563
102.863
105.949
109.194
112.563
115.992
119.374
122.536
125.165
126.771
58.4197
49.6413
52.2497
60.332
66.6926
71.7898
75.8883
79.3347
82.3638
85.1202
87.6574
90.0978
92.528
95.0273
97.6636
100.477
103.456
106.591
109.844
113.156
116.423
119.479
122.02
123.57
81.9021
49.3369
50.8264
58.6589
64.9559
70.0018
74.1131
77.5804
80.6174
83.2849
85.7781
88.1405
90.4739
92.887
95.4366
98.1367
101.008
104.029
107.17
110.366
113.52
116.471
118.925
120.42
63.7103
48.6948
49.3427
56.9042
63.1566
68.2442
72.3786
75.8498
78.8419
81.5245
83.9347
86.2222
88.4886
90.8087
93.2522
95.8694
98.6413
101.559
104.587
107.671
110.713
113.561
115.929
117.371
77.0029
48.4975
47.8969
55.1619
61.3958
66.4392
70.606
74.1162
77.1619
79.7584
82.144
84.3747
86.5514
88.7968
91.1712
93.6777
96.3473
99.1579
102.082
105.058
107.994
110.742
113.029
114.418
70.2326
48.025
46.4084
53.3067
59.4982
64.6461
68.876
72.4177
75.3966
78.0594
80.3881
82.5555
84.687
86.8527
89.1228
91.5639
94.1466
96.865
99.6836
102.554
105.387
108.039
110.244
111.583
59.4173
47.3082
44.8712
51.4288
57.6773
62.7791
67.0538
70.642
73.7504
76.3256
78.6605
80.8046
82.859
84.965
87.191
89.5246
92.0113
94.6291
97.3529
100.124
102.858
105.418
107.548
108.838
74.049
46.8027
43.3532
49.3954
55.5706
60.8675
65.257
68.9327
71.9408
74.6401
76.9531
79.0549
81.0957
83.141
85.2619
87.5517
89.9673
92.5056
95.132
97.8054
100.443
102.913
104.968
106.21
58.9168
45.6637
41.6175
47.2231
53.5937
58.8396
63.3023
67.0256
70.2794
72.8928
75.2346
77.3564
79.3398
81.3456
83.4577
85.642
87.9665
90.4093
92.9506
95.5326
98.079
100.464
102.449
103.644
65.4653
44.8044
39.8362
44.8381
51.038
56.6492
61.3122
65.2353
68.3423
71.1582
73.5239
75.6177
77.6252
79.5953
81.5974
83.7659
86.0379
88.4174
90.8673
93.3579
95.814
98.1152
100.029
101.178
66.7403
45.0163
38.0656
42.042
48.7127
54.2626
59.081
63.0554
66.593
69.3304
71.751
73.9183
75.881
77.8308
79.8719
81.9328
84.1161
86.3992
88.7732
91.1792
93.5488
95.7702
97.6179
98.7209
62.4229
43.5619
35.8377
39.003
45.1733
51.481
56.6711
61.0688
64.3913
67.4539
69.9705
72.1256
74.1611
76.1052
78.0176
80.0972
82.2502
84.4915
86.7789
89.0972
91.3802
93.5199
95.299
96.3566
58.2945
42.426
33.4469
34.6282
42.0778
48.2832
53.8693
58.3476
62.4454
65.4435
68.0513
70.3588
72.3657
74.309
76.3301
78.294
80.3576
82.4947
84.7159
86.9555
89.1564
91.22
92.9352
93.9478
56.1629
41.0776
30.7581
30.3722
36.061
44.1877
50.5539
55.9714
59.7273
63.2804
66.1051
68.4193
70.568
72.5515
74.4059
76.4372
78.4995
80.6276
82.7646
84.9196
87.0364
89.0193
90.6666
91.6339
50.9147
39.9625
27.751
20.7422
30.6336
38.733
46.4205
52.0737
57.3954
60.9136
63.8949
66.4926
68.6318
70.6329
72.7056
74.6023
76.5703
78.5729
80.6553
82.7374
84.7739
86.683
88.2692
89.1916
32.5712
33.5389
23.5212
11.2016
15.8138
30.5963
40.8447
48.9209
53.6087
58.2074
61.6337
64.2547
66.6488
68.7646
70.5947
72.6326
74.6402
76.687
78.6849
80.6826
82.6355
84.4632
85.98
86.8564
10.6756
12.932
7.89301
16.1917
6.56984
17.9152
31.9628
41.8272
50.5139
55.1273
58.8679
62.0412
64.4371
66.5828
68.8153
70.6788
72.5767
74.4526
76.41
78.3402
80.213
81.9676
83.4245
84.2539
10.4347
11.8436
14.2946
16.4397
17.7543
9.08746
14.7389
36.7828
44.0016
51.3377
56.0212
59.2065
62.087
64.4874
66.3262
68.4525
70.4578
72.466
74.3342
76.1763
77.9632
79.6318
81.0153
81.7971
10.2163
9.73374
3.67218
11.5693
19.1581
19.3452
20.0997
9.42539
39.2668
46.564
52.1249
56.5139
59.382
61.8
64.3803
66.2493
68.1009
69.8529
71.7003
73.48
75.1832
76.7772
78.1006
78.8304
6.02148
11.436
7.33105
19.3947
20.8379
21.3964
12.6213
11.6162
20.4527
40.3841
48.0024
52.3952
56.2929
59.2871
61.1616
63.5221
65.6213
67.6541
69.3988
71.0803
72.6913
74.1902
75.4319
76.1111
11.6446
20.5942
23.0061
18.3395
18.8619
24.5295
7.50232
21.7817
23.1861
28.5022
41.5284
48.8557
52.6765
55.6049
58.9355
60.8544
62.6699
64.2993
66.0608
67.688
69.2065
70.6266
71.8074
72.424
11.5244
21.87
26.7095
29.2228
24.2367
17.9957
26.9905
24.362
15.0517
14.0282
33.0162
41.3832
47.9067
52.3103
54.2151
57.1497
59.568
61.7409
63.3626
64.8712
66.2871
67.5967
68.6821
69.2455
11.5295
22.21
27.9674
31.1004
32.0185
25.8068
26.4379
2.95923
10.859
17.2152
13.5846
35.887
42.3305
46.3603
51.5901
53.5973
55.3536
56.8544
58.5928
60.0686
61.3768
62.6021
63.6298
64.1073
11.7669
20.4355
26.8409
31.4222
33.3188
32.9793
24.5545
26.8267
24.3804
25.5852
15.781
7.87187
32.3255
41.4183
43.0895
47.7228
51.062
53.7391
55.2523
56.5645
57.7586
58.8492
59.7563
60.1879
11.5287
18.6279
25.0731
29.7742
32.8427
33.5205
32.7051
22.1209
22.6364
27.2006
8.50078
14.2266
15.0264
27.5453
40.2602
42.2279
44.0695
45.122
46.9869
48.3745
49.4143
50.4361
51.3236
51.6065
8.7037
16.7902
23.1176
27.8198
30.9889
32.82
32.304
31.7729
19.8926
6.45245
16.1738
19.2774
18.2218
13.0607
12.7121
29.4651
35.2659
40.9852
42.7714
43.7253
44.7918
45.59
46.2866
46.4911
7.40796
15.3536
20.9933
25.2226
28.4004
30.3571
31.3865
30.3462
31.3314
20.6335
29.8533
15.8344
7.40497
19.3029
24.8072
6.37225
22.6474
15.9513
18.66
22.2888
21.5788
22.3612
23.5255
24.8889
5.11052
13.48
18.0272
21.5726
24.476
26.7448
27.967
29.3192
29.0637
31.6201
21.9638
27.0944
22.507
13.4431
25.8879
26.4531
21.4945
20.6408
6.41373
29.1841
9.80125
23.7242
24.2965
31.5251
4.93857
12.196
14.7628
16.9105
19.2085
21.4667
23.6796
25.427
28.2901
29.0819
32.0837
22.7221
29.977
14.8347
21.0625
20.7995
27.8986
6.44751
21.4994
11.1168
22.283
30.8161
31.8427
8.40187
3.86991
11.5296
12.4923
13.0831
14.1951
16.2869
18.8508
22.0152
24.5947
28.3475
29.7603
32.4547
24.1013
18.763
26.7416
19.2816
8.50191
18.9619
24.1885
4.70007
24.902
5.63458
18.4802
19.0023
3.31686
11.5624
11.6942
11.8948
12.3547
14.0833
16.7143
19.2573
22.5289
25.0869
28.8448
30.5726
32.6247
26.2047
26.6474
27.9621
27.9537
17.502
26.7728
18.3446
27.6589
8.3889
23.8639
14.234
2.97814
11.2079
11.6103
11.7453
12.3675
14.5888
17.0038
19.2848
21.1297
23.8193
26.0197
29.4578
31.3265
32.3662
30.0266
19.1084
23.8081
32.0503
28.3113
30.0024
9.61643
9.14867
26.0452
18.6791
1.97673
9.44766
11.5439
11.5249
12.6344
15.4247
18.0053
19.9523
21.7931
23.1034
25.1074
26.9752
29.9985
31.8913
32.1808
32.2275
27.5561
23.6248
18.0885
14.7299
13.6763
12.585
11.4458
11.67
2.37512
10.0799
11.393
11.5287
14.1718
17.1545
19.4533
21.2859
22.637
23.9857
24.8295
26.2234
27.8447
30.2386
32.2338
31.9719
31.3281
30.8328
30.4284
30.2258
29.8556
29.5575
29.5125
29.7584
3.29545
11.3863
11.7312
13.2488
16.3404
19.0012
21.0954
22.7318
24.1227
25.0442
25.8763
26.291
27.1654
28.5587
30.2798
31.6854
31.4951
30.4457
28.8313
27.1453
25.7112
24.8138
24.6229
24.7791
3.44481
11.4983
12.8929
15.8948
18.695
21.0048
22.8774
24.4312
25.6463
26.642
27.153
27.4861
27.5397
27.9466
29.0558
29.9997
30.2734
29.9047
28.9006
27.6492
26.43
25.731
25.7472
26.0575
3.93414
11.9952
15.5767
18.397
20.8107
22.8916
24.6625
26.1569
27.4202
28.305
28.8855
28.9894
28.8649
28.6273
28.6249
29.1227
29.3201
28.801
27.4183
25.4951
23.6459
22.6354
22.7042
23.1805
5.79544
14.8936
18.0877
20.5755
22.7846
24.7424
26.4575
27.961
29.2069
30.175
30.7074
30.8707
30.5924
30.0613
29.5425
29.1328
28.8108
28.2264
27.0532
25.447
23.9001
23.1464
23.4239
24.0506
7.92739
16.9426
20.0517
22.4138
24.5419
26.472
28.2094
29.7552
31.0816
32.0704
32.6986
32.8679
32.6225
31.9894
31.1009
30.2145
29.3462
28.3382
26.9178
25.0855
23.3271
22.484
22.8501
23.5987
10.3361
18.8063
21.7472
24.0641
26.1965
28.1507
29.943
31.5657
32.9501
34.0332
34.7139
34.9864
34.7875
34.1439
33.1503
31.912
30.5839
29.1819
27.581
25.794
24.21
23.5558
24.0434
24.8567
11.4419
13.1544
15.1329
16.4566
17.4012
17.7685
17.7416
17.3231
16.7058
15.9257
15.1236
14.3057
13.5529
12.8659
12.2849
11.8266
11.575
11.5033
11.1112
10.9075
10.9036
11.0948
11.5143
11.6313
11.8054
12.2549
12.8288
13.5083
14.2522
15.0626
15.8549
16.6289
17.238
17.6558
17.6804
17.3222
16.3812
15.079
13.0965
11.4477
20.0672
20.8753
21.4633
21.7569
21.9408
21.9495
21.921
21.8074
21.696
21.5532
21.4303
21.3006
21.188
21.0799
20.9879
20.907
20.841
20.7897
20.7551
20.7358
20.7346
20.7516
20.7839
20.8331
20.897
20.9758
21.0657
21.1719
21.2823
21.4103
21.5306
21.672
21.78
21.8931
21.9177
21.9104
21.7227
21.4341
20.8434
20.0419
22.8733
23.4007
23.807
24.0391
24.2235
24.3055
24.3713
24.3778
24.3757
24.3406
24.3045
24.2581
24.2153
24.172
24.1339
24.1009
24.0731
24.0521
24.0364
24.0266
24.0254
24.0327
24.046
24.0647
24.0904
24.1212
24.1573
24.1987
24.2395
24.2844
24.3186
24.3528
24.3533
24.3466
24.2793
24.198
24.0119
23.7816
23.3751
22.8483
25.1812
25.6542
26.081
26.3511
26.5921
26.7405
26.8749
26.9618
27.042
27.0951
27.1436
27.1798
27.2144
27.2441
27.271
27.2952
27.3149
27.3304
27.3394
27.3418
27.3405
27.3356
27.3241
27.3065
27.2846
27.2581
27.229
27.1973
27.1607
27.1227
27.0725
27.018
26.9364
26.8486
26.7132
26.5646
26.3232
26.0535
25.6278
25.1548
27.3351
27.781
28.2353
28.5326
28.8324
29.0464
29.2608
29.4274
29.5943
29.7342
29.8711
29.9933
30.1105
30.2176
30.3155
30.4017
30.4736
30.5291
30.5654
30.5809
30.5797
30.5617
30.523
30.4652
30.391
30.3026
30.2027
30.0936
29.9744
29.8504
29.7117
29.5703
29.4019
29.2339
29.0186
28.8038
28.5036
28.206
27.7525
27.3065
29.3344
29.7685
30.2698
30.6091
30.9798
31.26
31.5542
31.7991
32.049
32.2715
32.4915
32.6945
32.8892
33.0684
33.2321
33.3757
33.4954
33.5876
33.6483
33.6751
33.6738
33.6447
33.5817
33.4875
33.3656
33.22
33.0542
32.8731
32.6765
32.4716
32.2497
32.0257
31.7743
31.528
31.2325
30.9514
30.5803
30.2403
29.7393
29.3051
31.1952
31.6296
32.1895
32.5661
33.0009
33.3385
33.7009
34.0127
34.3322
34.624
34.9129
35.1828
35.4408
35.6788
35.8955
36.085
36.2425
36.363
36.4423
36.4771
36.4758
36.4389
36.3576
36.2351
36.0756
35.8842
35.6656
35.4257
35.1657
34.894
34.6034
34.3098
33.9888
33.6755
33.3121
32.9734
32.5382
32.1607
31.6009
31.1663
32.8864
33.323
33.9303
34.3377
34.8218
35.2056
35.6201
35.9847
36.3578
36.7035
37.0447
37.3651
37.6705
37.952
38.2073
38.4297
38.6139
38.7543
38.8464
38.8866
38.8855
38.8433
38.7494
38.6072
38.4211
38.197
37.9398
37.6565
37.3493
37.027
36.6842
36.3368
35.9624
35.5963
35.1806
34.7958
34.3111
33.9029
33.2958
32.8589
34.3431
34.769
35.4204
35.8477
36.3717
36.79
37.245
37.6496
38.063
38.4486
38.8281
39.1849
39.5238
39.8353
40.1167
40.361
40.5627
40.7159
40.8161
40.8598
40.8588
40.8133
40.7115
40.5566
40.3533
40.1073
39.8242
39.5109
39.1704
38.8118
38.4307
38.0435
37.6286
37.2228
36.7667
36.3473
35.8227
35.3951
34.7436
34.3178
35.4744
35.9055
36.5893
37.0401
37.5956
38.0457
38.5331
38.9712
39.4163
39.8335
40.2417
40.6255
40.988
41.3204
41.6192
41.8776
42.0901
42.2511
42.3561
42.4017
42.4008
42.3535
42.2471
42.0846
41.8706
41.6108
41.3103
40.9763
40.6122
40.2269
39.817
39.3985
38.9519
38.5126
38.0243
37.5733
37.0173
36.566
35.8826
35.4516
36.2393
36.671
37.4026
37.877
38.4699
38.9511
39.4719
39.9411
40.4161
40.8608
41.2938
41.6997
42.0811
42.4293
42.7409
43.0092
43.229
43.3951
43.5033
43.5504
43.5496
43.501
43.3915
43.2241
43.0029
42.7333
42.4203
42.0705
41.6877
41.2804
40.8459
40.3998
39.9236
39.4534
38.9317
38.4498
37.8565
37.382
36.6507
36.2195
36.5794
37.0491
37.8299
38.3464
38.9809
39.5017
40.0589
40.5625
41.0681
41.5407
41.9979
42.4244
42.823
43.1851
43.5074
43.7839
44.0095
44.1798
44.2906
44.3392
44.3384
44.2885
44.1766
44.0053
43.7783
43.5007
43.1771
42.8136
42.4137
41.9859
41.5275
41.0537
40.5469
40.0425
39.4845
38.9631
38.3286
37.8122
37.0322
36.5633
36.4748
37.0026
37.8536
38.4263
39.1137
39.6829
40.2829
40.8257
41.3651
41.8677
42.3499
42.7978
43.2134
43.5892
43.922
44.2061
44.4374
44.6115
44.7249
44.7753
44.7746
44.7232
44.6087
44.4337
44.2013
43.916
43.5822
43.2053
42.7885
42.3395
41.8562
41.3526
40.8123
40.2687
39.6681
39.0985
38.4114
37.839
36.9893
36.4631
35.8965
36.4909
37.4314
38.0789
38.8312
39.4586
40.1084
40.6959
41.2732
41.8088
42.3183
42.7891
43.223
43.6134
43.9572
44.2498
44.4873
44.6657
44.7823
44.8345
44.8339
44.7807
44.6634
44.4841
44.2458
43.9524
43.6075
43.2162
42.7813
42.3096
41.7991
41.2627
40.6846
40.0965
39.4463
38.819
38.0671
37.4207
36.482
35.8893
34.8597
35.5038
36.5086
37.2488
38.0744
38.7711
39.476
40.1142
40.7334
41.3058
41.8458
42.3422
42.7969
43.2038
43.5607
43.8633
44.1083
44.2923
44.4126
44.4674
44.4669
44.4114
44.2905
44.1059
43.8603
43.557
43.1994
42.7915
42.3361
41.8389
41.2982
40.725
40.1053
39.4666
38.7618
38.0655
37.2412
36.5023
35.4996
34.8567
33.474
34.0689
35.0896
35.8906
36.7864
37.5586
38.3211
39.0134
39.6769
40.2894
40.8627
41.3879
41.8662
42.2928
42.6655
42.9806
43.2351
43.4263
43.5516
43.6094
43.6091
43.5508
43.4251
43.2336
42.9786
42.6631
42.2899
41.8627
41.3838
40.8581
40.2841
39.6712
39.0073
38.315
37.5529
36.7818
35.8877
35.0882
34.0694
33.4752
31.8592
32.2959
33.2448
34.04
34.9639
35.7916
36.6094
37.3506
38.0564
38.7072
39.314
39.8688
40.3725
40.8207
41.2114
41.5411
41.8073
42.0073
42.1388
42.2005
42.2003
42.1385
42.0069
41.8069
41.5406
41.2107
40.8198
40.3713
39.8672
39.312
38.705
38.0538
37.3482
36.6073
35.7908
34.9648
34.0425
33.2489
32.3006
31.8634
30.1067
30.3141
31.1079
31.8177
32.7056
33.5376
34.3809
35.1565
35.8916
36.5716
37.2051
37.785
38.3112
38.7797
39.1878
39.5323
39.8105
40.0199
40.1581
40.2238
40.2238
40.1585
40.0206
39.8116
39.5337
39.1893
38.7812
38.3128
37.7865
37.2066
36.5732
35.8935
35.159
34.3848
33.5435
32.7131
31.8269
31.1175
30.3236
30.1116
28.2088
28.2223
28.8341
29.4147
30.2141
30.9972
31.8212
32.5982
33.3401
34.0301
34.6754
35.2686
35.8085
36.2902
36.7107
37.0663
37.354
37.5708
37.7147
37.7839
37.7842
37.7158
37.5729
37.3569
37.07
36.715
36.2951
35.8137
35.2742
34.6815
34.0368
33.3478
32.6078
31.8329
31.0109
30.2294
29.4309
28.8503
28.2362
28.2188
26.2094
26.1489
26.6162
27.0903
27.7912
28.5045
29.2789
30.0272
30.7538
31.4345
32.0752
32.6672
33.2084
33.6929
34.1171
34.4768
34.7683
34.9887
35.1354
35.2068
35.2074
35.1375
34.9924
34.7735
34.4833
34.1248
33.7017
33.2182
32.6779
32.0866
31.447
30.7678
30.0436
29.2979
28.5259
27.814
27.1144
26.6388
26.1701
26.2237
24.4909
24.49
24.8722
25.3116
25.9388
26.5999
27.3189
28.0253
28.716
29.3708
29.991
30.5674
31.0962
31.5712
31.988
32.3421
32.6296
32.8475
32.9927
33.0639
33.0649
32.9959
32.8527
32.637
32.3514
31.999
31.5837
31.1101
30.5826
30.0074
29.3884
28.7352
28.0469
27.3431
26.6259
25.9664
25.3389
24.8991
24.5124
24.5103
23.7894
23.8745
24.221
24.658
25.2307
25.8461
26.5017
27.1508
27.7889
28.4018
28.9849
29.5294
30.0299
30.4804
30.8764
31.2133
31.4872
31.6949
31.8336
31.9015
31.9029
31.8375
31.7017
31.4967
31.2252
30.8906
30.4965
30.0477
29.5486
29.0054
28.4237
27.8119
27.1754
26.5284
25.8749
25.2608
24.6886
24.25
23.9013
23.8099
24.3156
24.4239
24.7554
25.1661
25.6875
26.2427
26.8287
27.4143
27.9955
28.5572
29.0932
29.595
30.0568
30.4734
30.8398
31.1518
31.4056
31.598
31.7266
31.7894
31.7908
31.7309
31.6053
31.4158
31.1646
30.855
30.4907
30.0758
29.6153
29.1145
28.5793
28.0183
27.4377
26.8527
26.2678
25.7134
25.1922
24.7803
24.447
24.3339
25.1805
25.2781
25.6015
25.982
26.4688
26.9798
27.5246
28.0702
28.6139
29.1397
29.6422
30.1129
30.5468
30.9382
31.2827
31.5761
31.8149
31.9959
32.1169
32.1758
32.1772
32.1215
32.0039
31.8259
31.5899
31.299
30.9567
30.5672
30.1348
29.6651
29.1634
28.6381
28.0946
27.549
27.0041
26.4933
26.0062
25.6247
25.2984
25.1981
64.6109
49.934
53.6999
62.016
68.4364
73.5459
77.6617
81.1228
84.1806
86.9615
89.5905
92.1114
94.6222
97.222
99.9643
102.872
105.957
109.202
112.572
116.001
119.383
122.545
125.174
126.779
63.6186
49.281
52.2508
60.3387
66.7013
71.7982
75.8945
79.3405
82.3728
85.1278
87.6655
90.1059
92.5371
95.0355
97.6724
100.486
103.466
106.6
109.853
113.165
116.432
119.488
122.029
123.579
63.231
48.9112
50.8197
58.6623
64.9598
70.0072
74.1222
77.5909
80.624
83.2934
85.7864
88.1493
90.4815
92.8959
95.4451
98.1449
101.015
104.038
107.178
110.375
113.529
116.48
118.934
120.429
62.5026
48.2718
49.3373
56.9065
63.1645
68.2534
72.3848
75.8542
78.852
81.5326
83.9433
86.2303
88.4986
90.8173
93.2614
95.8785
98.651
101.568
104.596
107.68
110.723
113.57
115.938
117.38
61.7045
47.863
47.8631
55.1664
61.4007
66.4442
70.6159
74.1298
77.1687
79.7675
82.1529
84.3847
86.559
88.8061
91.18
93.6865
96.3552
99.1669
102.091
105.067
108.003
110.752
113.038
114.427
60.064
47.2243
46.3755
53.3052
59.5045
64.657
68.8833
72.4202
75.4076
78.0683
80.3973
82.5633
84.6978
86.8618
89.1324
91.5737
94.1572
96.8749
99.6928
102.564
105.396
108.048
110.254
111.592
60.4521
46.6839
44.8298
51.4387
57.6869
62.7847
67.0635
70.659
73.7583
76.3353
78.6698
80.8159
82.8671
84.9745
87.2001
89.5336
92.0196
94.638
97.3629
100.134
102.868
105.428
107.558
108.847
55.9368
46.323
43.309
49.3924
55.5758
60.8807
65.2684
68.9351
71.9522
74.65
76.9635
79.0628
81.1067
83.1509
85.2721
87.5621
89.9787
92.5168
95.1421
97.8156
100.453
102.923
104.978
106.219
68.4218
45.6159
41.6078
47.2396
53.6094
58.8472
63.3094
67.0428
70.289
72.9034
75.2439
77.3683
79.3492
81.3555
83.4673
85.6513
87.9746
90.4178
92.9606
95.5428
98.0889
100.475
102.459
103.654
59.3541
44.984
39.9224
44.8475
51.0489
56.6653
61.3309
65.2439
68.3545
71.1688
73.5359
75.6273
77.6357
79.6059
81.6083
83.7771
86.051
88.4294
90.8778
93.3685
95.8239
98.1257
100.039
101.188
66.365
44.7033
37.9985
42.0646
48.7211
54.2714
59.0842
63.0652
66.6034
69.3428
71.7612
73.9295
75.8925
77.8412
79.8819
81.9422
84.1228
86.4078
88.7846
91.1899
93.5596
95.7812
97.6283
98.7316
62.8503
43.5957
35.8111
38.9967
45.219
51.5042
56.6972
61.0922
64.4075
67.465
69.9829
72.1376
74.1711
76.1167
78.0294
80.1096
82.267
84.5051
86.7896
89.1084
91.3911
93.5314
95.3095
96.3669
57.1004
41.6474
33.2658
34.6775
42.0212
48.2869
53.8725
58.3455
62.4537
65.4588
68.0646
70.3701
72.3795
74.3203
76.3407
78.3036
80.3605
82.5031
84.728
86.9672
89.1682
91.2315
92.9466
93.9591
52.1833
40.8307
30.6349
30.2769
36.2225
44.2179
50.5816
56.01
59.7511
63.292
66.1163
68.4334
70.5775
72.5638
74.4189
76.4511
78.5232
80.6435
82.7763
84.9321
87.0479
89.0318
90.6781
91.6453
50.7812
39.7127
27.583
20.8021
30.6912
38.8294
46.4626
52.0727
57.4027
60.9332
63.9135
66.5031
68.6492
70.6457
72.7168
74.6122
76.5668
78.5805
80.6687
82.7504
84.7874
86.6962
88.2821
89.204
32.1444
33.3262
23.2366
15.115
10.3723
30.3063
40.7565
48.943
53.6399
58.2194
61.6445
64.2803
66.6566
68.7777
70.6098
72.6489
74.6739
76.7069
78.6979
80.6967
82.6481
84.4779
85.9923
86.8686
7.06161
13.1813
8.09176
8.44393
8.32556
13.7897
32.1907
41.9411
50.528
55.1541
58.8897
62.0278
64.4606
66.5984
68.8267
70.6884
72.5653
74.4578
76.4254
78.355
80.229
81.9829
83.4394
84.2686
5.31811
7.36577
8.42971
16.8531
17.7622
19.5998
19.2605
36.4925
44.0336
51.3549
56.0422
59.2903
62.0939
64.501
66.345
68.4732
70.5032
72.4937
74.3492
76.193
77.977
79.6494
81.0284
81.8101
7.54929
6.75978
4.4189
10.2875
10.1821
8.57248
11.3459
13.3356
39.3773
46.5981
52.1274
56.4073
59.4079
61.8202
64.3912
66.2577
68.0823
69.8526
71.7186
73.4975
75.2032
76.7957
78.1196
78.849
6.61681
11.8793
15.9282
20.1753
2.91047
21.1837
20.9482
21.0847
19.8259
40.3511
48.0865
52.6285
56.3118
59.3016
61.1879
63.5495
65.6778
67.6954
69.4168
71.1012
72.7069
74.2122
75.4458
76.1245
11.4744
20.5716
23.1521
18.7719
9.74212
23.8447
7.02035
21.947
14.3614
29.2456
41.5093
48.6029
52.6826
55.6319
58.9427
60.8634
62.6508
64.2893
66.0843
67.7096
69.2335
70.6501
71.8337
72.45
11.535
21.8927
26.6292
29.1805
24.5773
17.8246
27.0168
24.4165
14.657
4.67597
32.6928
41.6456
48.0167
52.3298
54.2596
57.1808
59.6229
61.8043
63.3851
64.8993
66.3048
67.6262
68.6968
69.2586
11.5324
22.2576
28.0512
31.1834
32.0519
25.8774
26.5376
4.72903
25.0479
23.1109
18.8103
36.2315
42.052
46.398
51.582
53.6235
55.3747
56.8256
58.6268
60.0978
61.4163
62.6348
63.6679
64.1468
11.4501
20.4875
26.8937
31.4746
33.3943
33.0401
24.558
23.3138
17.3981
19.9387
17.1404
26.7665
33.56
41.4131
43.1953
47.7305
51.0408
53.8619
55.2785
56.6063
57.7805
58.8923
59.7788
60.2032
11.4982
18.6725
25.1286
29.8403
32.9004
33.579
32.7679
21.5905
21.972
17.3074
24.8527
11.3215
11.0461
28.2707
40.1791
42.3886
44.2502
44.9603
47.0675
48.4171
49.4834
50.492
51.3663
51.6557
8.84501
16.8295
23.1613
27.8706
31.0514
32.8839
32.3597
31.8936
19.5468
23.0342
8.97717
18.3054
16.4117
25.5709
13.7021
28.7596
35.3417
41.5299
42.6851
43.8777
44.8171
45.6634
46.3786
46.6395
7.3211
15.3673
21.0343
25.278
28.4603
30.419
31.4538
30.3908
31.4929
20.2346
10.2687
9.9456
10.0182
5.1011
25.5994
15.93
19.7668
14.4766
20.5064
20.8215
21.9053
22.5951
23.9043
23.707
5.26331
13.5056
18.0615
21.6191
24.5332
26.8083
28.0325
29.4094
29.091
31.643
21.2965
24.5848
10.6744
26.072
19.067
20.5944
26.8951
27.7366
28.27
22.4748
9.28792
23.9943
11.3796
11.2626
4.85067
12.1505
14.773
16.9486
19.2609
21.5278
23.7516
25.4954
28.4047
29.1965
32.1987
22.2026
10.7855
19.4503
14.2754
10.9725
26.7924
20.3062
6.18468
30.8483
23.6856
31.7328
23.1756
23.4446
3.87722
11.4298
12.4913
13.1032
14.2318
16.3407
18.9137
22.0968
24.659
28.421
29.8384
32.5534
23.6239
15.6948
22.6191
19.1934
8.16211
17.4024
17.0539
24.0423
11.7065
18.6571
27.344
27.3407
3.33754
11.3029
11.698
11.9078
12.3798
14.1208
16.7589
19.3027
22.6011
25.169
28.9296
30.6487
32.6906
26.2329
24.9645
24.0743
26.6417
29.2259
28.4297
26.6663
10.8037
24.1291
26.3711
25.739
2.97047
11.1919
11.6155
11.7573
12.3946
14.6252
17.0363
19.3201
21.162
23.8634
26.079
29.5281
31.3946
32.4292
29.9648
19.4186
10.2646
26.8798
18.5217
32.9736
31.9803
11.7726
23.1199
19.6252
1.99688
9.49382
11.523
11.7226
12.6638
15.4568
18.0344
19.9769
21.8211
23.1352
25.1482
27.0284
30.0508
31.9844
32.264
32.3172
28.485
23.1408
16.9547
15.8804
14.3119
12.1162
11.4305
11.3485
2.38784
10.1062
11.4727
11.511
14.1967
17.1817
19.4769
21.3081
22.6562
24.0038
24.8495
26.2525
27.8943
30.2867
32.3326
32.0197
31.5202
30.942
30.6344
30.3138
30.0384
29.7194
29.5653
29.8785
3.30939
11.4162
11.7329
13.283
16.3685
19.0245
21.1172
22.7513
24.1406
25.0606
25.8918
26.3072
27.1868
28.6042
30.332
31.7615
31.572
30.5929
28.8782
27.2557
25.7596
24.894
24.7736
24.8765
3.52007
11.4397
12.9259
15.9119
18.7132
21.0254
22.8981
24.4507
25.6633
26.656
27.1642
27.4961
27.5524
27.9641
29.0928
30.0435
30.3727
29.9953
29.0029
27.7282
26.5208
25.8271
25.8146
26.1258
3.94182
11.9992
15.5871
18.4135
20.8314
22.9135
24.6844
26.1772
27.438
28.3201
28.8976
28.9985
28.8713
28.6359
28.6388
29.1506
29.3666
28.8794
27.4659
25.5471
23.6819
22.6867
22.7566
23.2207
5.80493
14.9049
18.1017
20.5934
22.8056
24.7653
26.4809
27.983
29.2264
30.1913
30.7203
30.8799
30.599
30.0654
29.5473
29.1412
28.8388
28.2604
27.0929
25.4728
23.9252
23.1722
23.4431
24.0718
7.94027
16.9602
20.0702
22.4346
24.5658
26.4974
28.2351
29.7793
31.1032
32.089
32.7138
32.8794
32.6297
31.9932
31.1026
30.2165
29.3524
28.3563
26.9285
25.0929
23.3264
22.4851
22.8503
23.596
10.3467
18.8261
21.7677
24.0872
26.2225
28.1782
29.9705
31.5918
32.9739
34.0541
34.7316
35
34.7971
34.1492
33.1515
31.9106
30.584
29.1819
27.5819
25.7867
24.2025
23.5442
24.0325
24.8494
63.8917
63.6924
67.8025
74.4243
73.3087
67.051
66.8505
68.1555
60.1216
46.8474
21.5865
22.4048
30.1738
13.4153
18.7978
13.2803
14.5864
13.8807
13.5746
13.4054
13.4066
13.565
13.8995
14.5046
13.7188
18.4338
7.68495
32.4137
10.0281
49.1118
46.084
56.6928
52.9261
64.6152
59.171
64.2577
58.2093
74.5826
69.4306
64.3141
49.5642
47.5877
46.6252
44.5156
43.2673
40.991
40.0375
38.2698
36.9088
34.6083
34.3102
33.3686
32.5813
32.3809
31.5687
31.332
30.8696
30.5986
30.393
30.2744
30.2742
30.3935
30.5953
30.8731
31.2953
31.6546
32.2949
32.8306
32.963
34.9045
34.9894
36.9137
37.9004
40.1147
41.021
43.3787
44.7553
46.7016
48.0242
49.561
54.2575
52.6949
52.2357
50.7506
50.1978
48.8558
48.2462
47.0747
46.4875
45.5546
44.9116
44.0809
43.5199
42.872
42.4462
41.9647
41.6454
41.3743
41.1907
41.0865
41.0863
41.1897
41.3737
41.6421
41.9731
42.4276
42.8868
43.4807
44.1543
44.8456
45.4808
46.4613
47.0984
48.2557
48.8687
50.1952
50.7612
52.23
52.7012
54.2637
62.6792
61.1774
60.6623
59.222
58.5765
57.2581
56.5507
55.3873
54.6665
53.6899
53.0265
52.2429
51.6272
51.0299
50.5303
50.1049
49.7567
49.4909
49.3069
49.2048
49.2046
49.3065
49.4898
49.756
50.1004
50.5334
51.0225
51.6364
52.2281
53.0113
53.6993
54.6786
55.3889
56.548
57.2529
58.5702
59.2186
60.6572
61.1737
62.6742
69.0887
67.5394
66.9421
65.4787
64.7588
63.4399
62.6625
61.5184
60.7388
59.782
59.0496
58.2701
57.6316
57.0234
56.5183
56.0761
55.7261
55.4553
55.2696
55.1679
55.1677
55.2689
55.4545
55.7246
56.0758
56.5152
57.0218
57.6274
58.2689
59.045
59.7775
60.7359
61.5166
62.66
63.4376
64.7549
65.4766
66.9369
67.5365
69.0817
74.1806
72.5932
71.9183
70.4474
69.6531
68.3466
67.5011
66.3734
65.5394
64.5898
63.8252
63.0455
62.3884
61.775
61.2584
60.8139
60.4565
60.1826
59.9949
59.8932
59.893
59.9944
60.1817
60.4554
60.8119
61.2569
61.7729
62.3864
63.0418
63.8206
64.5872
65.5378
66.3707
67.4976
68.3421
69.6483
70.4424
71.9128
72.5879
74.1736
78.2474
76.6455
75.891
74.4283
73.568
72.278
71.3829
70.2672
69.4016
68.4544
67.6695
66.8874
66.2203
65.6035
65.0803
64.6318
64.271
63.9947
63.8054
63.7034
63.7032
63.8049
63.9938
64.2697
64.6305
65.0783
65.6011
66.2175
66.8846
67.6664
68.4513
69.3981
70.2635
71.3787
72.2733
73.5633
74.4228
75.8859
76.6389
78.2416
81.6693
80.0574
79.246
77.7884
76.8844
75.6002
74.6746
73.5596
72.6738
71.7238
70.925
70.1383
69.4613
68.8396
68.3099
67.8568
67.4915
67.2116
67.0196
66.9158
66.9156
67.0191
67.2107
67.4903
67.8552
68.308
68.8373
69.4587
70.1353
70.9216
71.7203
72.6701
73.5558
74.67
75.5955
76.8791
77.7828
79.2401
80.0506
81.6631
84.7133
83.0709
82.2298
80.7595
79.8313
78.5401
77.5949
76.4741
75.5722
74.6161
73.8041
73.011
72.3241
71.6957
71.1585
70.6994
70.3283
70.0438
69.8477
69.7406
69.7403
69.8471
70.0428
70.327
70.6979
71.1565
71.6933
72.3213
73.008
73.8008
74.6124
75.5682
76.47
77.5901
78.5352
79.8257
80.754
82.2232
83.0648
84.7055
87.5299
85.8321
84.9835
83.4865
82.5429
81.2374
80.2747
79.1439
78.2256
77.2603
76.4346
75.6322
74.9341
74.2972
73.7513
73.2848
72.907
72.6165
72.4154
72.304
72.3038
72.4148
72.6155
72.9057
73.2832
73.7492
74.2948
74.9314
75.6291
76.4311
77.2565
78.2215
79.1394
80.2698
81.2322
82.5372
83.4805
84.9771
85.8252
87.5228
90.176
88.4395
87.5735
86.0538
85.0906
83.769
82.7873
81.6427
80.7075
79.7293
78.889
78.0748
77.3646
76.7174
76.1616
75.6867
75.3013
75.0042
74.7974
74.6809
74.6807
74.7967
75.0032
75.2999
75.685
76.1595
76.7149
77.3618
78.0717
78.8855
79.7254
80.7032
81.6381
82.7822
83.7637
85.0846
86.0479
87.5667
88.4327
90.1683
92.7446
90.9445
90.0831
88.5219
87.5515
86.202
85.2073
84.0424
83.092
82.0979
81.2429
80.4155
79.6923
79.0341
78.4679
77.9841
77.5907
77.2868
77.0741
76.9523
76.952
77.0734
77.2858
77.5893
77.9824
78.4658
79.0316
79.6895
80.4123
81.2393
82.0939
83.0876
84.0377
85.2021
86.1965
87.5455
88.5156
90.0762
90.9374
92.7368
95.3126
93.4448
92.5899
90.9866
90.0071
88.6308
87.6198
86.4357
85.4677
84.4578
83.5866
82.7458
82.0091
81.3394
80.7625
80.2697
79.8681
79.5574
79.3388
79.2117
79.2114
79.3381
79.5563
79.8667
80.2678
80.7604
81.3369
82.0062
82.7426
83.583
84.4538
85.4632
86.4309
87.6146
88.6252
90.001
90.9803
92.5828
93.4377
95.3045
97.9603
96.0318
95.1769
93.5341
92.5416
91.1383
90.1091
88.9043
87.9175
86.8904
86.0022
85.1467
84.3957
83.7138
83.1256
82.6232
82.2133
81.8956
81.6711
81.5389
81.5385
81.6704
81.8946
82.2119
82.6214
83.1235
83.7112
84.3928
85.1434
85.9985
86.8863
87.913
88.8994
90.1038
91.1326
92.5355
93.5275
95.1699
96.0244
97.9525
100.754
98.7599
97.9048
96.218
95.2119
93.7783
92.7292
91.501
90.4941
89.4473
88.5406
87.6688
86.9021
86.2068
85.6065
85.0937
84.675
84.35
84.1195
83.9821
83.9818
84.1188
84.3489
84.6736
85.0919
85.6043
86.2043
86.8991
87.6654
88.537
89.4433
90.4891
91.496
92.7242
93.7723
95.2058
96.2118
97.8976
98.7526
100.746
103.726
101.653
100.802
99.0644
98.0442
96.5757
95.5055
94.2502
93.2209
92.1525
91.2254
90.3353
89.5514
88.8411
88.2276
87.7034
87.2753
86.9426
86.7058
86.5635
86.5631
86.705
86.9414
87.274
87.7017
88.2255
88.8386
89.5485
90.3319
91.2215
92.1482
93.2161
94.2453
95.5001
96.5698
98.0378
99.058
100.795
101.646
103.717
106.871
104.721
103.868
102.079
101.039
99.535
98.4391
97.156
96.1009
95.0092
94.0592
93.1488
92.3466
91.6201
90.9919
90.4558
90.0171
89.6761
89.4329
89.2854
89.2854
89.4321
89.6749
90.0159
90.4538
90.9899
91.6177
92.3433
93.1455
94.0555
95.005
96.0963
97.1513
98.4339
99.5294
101.033
102.073
103.86
104.714
106.862
110.176
107.948
107.088
105.248
104.185
102.643
101.519
100.206
99.123
98.0061
97.0314
96.0997
95.2768
94.533
93.8893
93.3398
92.8905
92.5409
92.2911
92.1387
92.1383
92.2903
92.5397
92.8893
93.3383
93.887
94.5306
95.274
96.0966
97.0278
98.0021
99.1185
100.201
101.514
102.637
104.179
105.241
107.081
107.94
110.168
113.605
111.298
110.429
108.537
107.448
105.868
104.714
103.37
102.257
101.113
100.112
99.1584
98.3141
97.5519
96.8916
96.3285
95.8677
95.5088
95.2523
95.0949
95.0945
95.2516
95.5077
95.8662
96.3267
96.8894
97.5492
98.311
99.155
100.109
101.109
102.253
103.365
104.708
105.863
107.442
108.53
110.422
111.29
113.597
117.095
114.709
113.829
111.885
110.769
109.151
107.965
106.589
105.446
104.275
103.247
102.27
101.403
100.622
99.9449
99.3679
98.8954
98.5274
98.2638
98.1017
98.1013
98.2631
98.5263
98.8939
99.3661
99.9431
100.62
101.4
102.267
103.244
104.271
105.441
106.585
107.959
109.146
110.762
111.878