/*--------------------------------*- C++ -*----------------------------------*\
  =========                 |
  \\      /  F ield         | OpenFOAM: The Open Source CFD Toolbox
   \\    /   O peration     | Website:  https://openfoam.org
    \\  /    A nd           | Version:  6
     \\/     M anipulation  |
\*---------------------------------------------------------------------------*/
FoamFile
{
    version     2.0;
    format      ascii;
    class       volScalarField;
    location    "60";
    object      epsilon;
}
// * * * * * * * * * * * * * * * * * * * * * * * * * * * * * * * * * * * * * //

dimensions      [0 2 -3 0 0 0 0];

internalField   nonuniform List<scalar> 
1800
(
0.00102394
0.00102394
0.00102394
0.00397109
0.0039711
0.0039711
0.00453686
0.00453686
0.00453687
0.00497083
0.00497084
0.00497085
0.0053339
0.00533391
0.00533394
0.00564799
0.00564801
0.00564803
0.00592852
0.00592855
0.00592857
0.0061873
0.00618734
0.00618735
0.00643259
0.00643262
0.00643263
0.00666786
0.00666788
0.0066679
0.00689072
0.00689075
0.00689076
0.00709286
0.00709289
0.00709291
0.00726177
0.00726179
0.00726182
0.00738503
0.00738505
0.00738508
0.00745306
0.00745308
0.00745311
0.00745304
0.00745306
0.00745309
0.00738498
0.007385
0.00738503
0.00726171
0.00726173
0.00726176
0.0070928
0.00709283
0.00709285
0.00689068
0.00689071
0.00689072
0.0066678
0.00666783
0.00666784
0.00643252
0.00643256
0.00643257
0.00618719
0.00618723
0.00618724
0.00592837
0.00592841
0.00592843
0.00564783
0.00564785
0.00564788
0.00533375
0.00533376
0.00533379
0.00497069
0.00497069
0.00497071
0.00453673
0.00453673
0.00453674
0.00397101
0.00397101
0.00397102
0.0010239
0.00102389
0.0010239
0.000333717
0.000333716
0.000333718
0.00327716
0.00327716
0.00327717
0.00383894
0.00383894
0.00383895
0.00429363
0.00429363
0.00429364
0.00466147
0.00466147
0.00466148
0.00496409
0.00496409
0.0049641
0.00522111
0.00522112
0.00522113
0.00544831
0.00544832
0.00544832
0.00565693
0.00565694
0.00565695
0.00585294
0.00585295
0.00585296
0.00603643
0.00603644
0.00603645
0.00620185
0.00620185
0.00620187
0.00633973
0.00633974
0.00633975
0.00644031
0.00644033
0.00644034
0.00649586
0.00649588
0.00649589
0.00649585
0.00649587
0.00649588
0.00644028
0.0064403
0.00644031
0.00633968
0.00633969
0.00633971
0.00620179
0.0062018
0.00620181
0.00603638
0.00603639
0.0060364
0.0058529
0.0058529
0.00585291
0.00565688
0.00565689
0.0056569
0.00544823
0.00544825
0.00544825
0.00522101
0.00522102
0.00522103
0.00496396
0.00496397
0.00496398
0.00466134
0.00466134
0.00466135
0.0042935
0.0042935
0.00429351
0.00383882
0.00383882
0.00383883
0.00327706
0.00327706
0.00327707
0.000333698
0.000333698
0.000333699
0.000418508
0.000418507
0.000418509
0.00245307
0.00245307
0.00245308
0.00281906
0.00281906
0.00281907
0.00316238
0.00316238
0.00316238
0.0034548
0.0034548
0.00345481
0.0037001
0.0037001
0.0037001
0.00390927
0.00390928
0.00390928
0.0040936
0.00409361
0.00409361
0.00426204
0.00426205
0.00426205
0.00441968
0.00441969
0.00441969
0.00456696
0.00456696
0.00456697
0.00469965
0.00469966
0.00469966
0.00481029
0.0048103
0.00481031
0.00489106
0.00489107
0.00489108
0.00493569
0.0049357
0.00493571
0.00493568
0.00493569
0.0049357
0.00489103
0.00489104
0.00489105
0.00481025
0.00481026
0.00481027
0.00469961
0.00469961
0.00469962
0.00456692
0.00456692
0.00456693
0.00441965
0.00441965
0.00441966
0.004262
0.00426201
0.00426201
0.00409355
0.00409356
0.00409356
0.0039092
0.00390921
0.00390921
0.0037
0.00370001
0.00370001
0.0034547
0.0034547
0.00345471
0.00316228
0.00316228
0.00316229
0.00281897
0.00281897
0.00281897
0.00245299
0.00245299
0.00245299
0.000418486
0.000418485
0.000418487
0.000515953
0.000515952
0.000515954
0.00193802
0.00193802
0.00193803
0.0021457
0.0021457
0.0021457
0.00238904
0.00238904
0.00238904
0.00261335
0.00261335
0.00261336
0.00280835
0.00280835
0.00280835
0.00297699
0.002977
0.002977
0.00312598
0.00312599
0.00312599
0.00326181
0.00326182
0.00326182
0.00338857
0.00338857
0.00338857
0.00350675
0.00350675
0.00350675
0.00361314
0.00361314
0.00361315
0.00370185
0.00370186
0.00370186
0.00376663
0.00376664
0.00376664
0.00380244
0.00380245
0.00380246
0.00380243
0.00380244
0.00380245
0.00376661
0.00376662
0.00376662
0.00370182
0.00370183
0.00370183
0.0036131
0.00361311
0.00361312
0.00350671
0.00350672
0.00350672
0.00338854
0.00338854
0.00338854
0.00326178
0.00326179
0.00326179
0.00312594
0.00312595
0.00312595
0.00297694
0.00297694
0.00297694
0.00280828
0.00280828
0.00280829
0.00261328
0.00261328
0.00261329
0.00238897
0.00238897
0.00238897
0.00214563
0.00214562
0.00214563
0.00193795
0.00193795
0.00193796
0.000515928
0.000515927
0.000515929
0.000625515
0.000625514
0.000625516
0.00159931
0.0015993
0.00159931
0.00169058
0.00169058
0.00169058
0.0018513
0.0018513
0.00185131
0.00201798
0.00201798
0.00201798
0.00217113
0.00217113
0.00217113
0.00230705
0.00230705
0.00230705
0.00242818
0.00242819
0.00242818
0.00253864
0.00253865
0.00253865
0.00264146
0.00264146
0.00264146
0.0027371
0.0027371
0.0027371
0.00282307
0.00282308
0.00282308
0.00289472
0.00289473
0.00289474
0.00294704
0.00294705
0.00294706
0.00297597
0.00297598
0.00297598
0.00297596
0.00297597
0.00297598
0.00294702
0.00294704
0.00294704
0.0028947
0.00289471
0.00289471
0.00282305
0.00282305
0.00282306
0.00273707
0.00273708
0.00273708
0.00264144
0.00264144
0.00264144
0.00253862
0.00253862
0.00253862
0.00242815
0.00242815
0.00242815
0.002307
0.00230701
0.00230701
0.00217108
0.00217108
0.00217108
0.00201793
0.00201793
0.00201793
0.00185125
0.00185125
0.00185125
0.00169052
0.00169052
0.00169052
0.00159924
0.00159924
0.00159924
0.000625486
0.000625485
0.000625487
0.000745491
0.00074549
0.000745493
0.00136383
0.00136383
0.00136383
0.00137316
0.00137316
0.00137316
0.00146718
0.00146718
0.00146718
0.00158504
0.00158504
0.00158504
0.00170277
0.00170277
0.00170277
0.00181172
0.00181173
0.00181172
0.00191058
0.00191059
0.00191059
0.00200114
0.00200115
0.00200114
0.00208532
0.00208532
0.00208532
0.00216342
0.00216342
0.00216342
0.00223349
0.0022335
0.0022335
0.00229182
0.00229183
0.00229183
0.00233439
0.00233441
0.00233441
0.00235793
0.00235794
0.00235795
0.00235793
0.00235794
0.00235794
0.00233438
0.00233439
0.0023344
0.0022918
0.00229181
0.00229182
0.00223347
0.00223348
0.00223348
0.0021634
0.0021634
0.00216341
0.0020853
0.0020853
0.0020853
0.00200112
0.00200113
0.00200112
0.00191056
0.00191056
0.00191056
0.00181169
0.00181169
0.00181169
0.00170273
0.00170273
0.00170273
0.00158499
0.00158499
0.001585
0.00146713
0.00146713
0.00146714
0.00137311
0.00137311
0.00137311
0.00136377
0.00136377
0.00136377
0.000745459
0.000745458
0.00074546
0.000872691
0.00087269
0.000872693
0.00119179
0.00119178
0.00119179
0.0011455
0.0011455
0.0011455
0.00118691
0.00118691
0.00118691
0.00126339
0.00126339
0.00126339
0.00135044
0.00135044
0.00135044
0.00143644
0.00143644
0.00143644
0.00151696
0.00151696
0.00151696
0.00159156
0.00159157
0.00159156
0.00166101
0.00166102
0.00166102
0.00172532
0.00172532
0.00172532
0.00178287
0.00178288
0.00178288
0.0018307
0.00183071
0.00183072
0.00186558
0.00186559
0.0018656
0.00188485
0.00188487
0.00188487
0.00188485
0.00188486
0.00188486
0.00186557
0.00186558
0.00186558
0.00183069
0.0018307
0.0018307
0.00178286
0.00178286
0.00178287
0.0017253
0.00172531
0.00172531
0.001661
0.001661
0.001661
0.00159155
0.00159155
0.00159155
0.00151693
0.00151694
0.00151694
0.00143641
0.00143641
0.00143641
0.00135041
0.00135041
0.00135041
0.00126335
0.00126335
0.00126335
0.00118687
0.00118687
0.00118688
0.00114546
0.00114546
0.00114546
0.00119173
0.00119173
0.00119173
0.000872655
0.000872654
0.000872656
0.00100245
0.00100245
0.00100245
0.0010606
0.00106059
0.0010606
0.000977691
0.000977689
0.00097769
0.000978958
0.000978956
0.000978957
0.00102076
0.00102076
0.00102076
0.00108089
0.00108089
0.00108089
0.0011467
0.0011467
0.0011467
0.00121157
0.00121157
0.00121157
0.00127304
0.00127305
0.00127305
0.00133065
0.00133065
0.00133065
0.00138395
0.00138396
0.00138396
0.00143155
0.00143156
0.00143156
0.00147101
0.00147102
0.00147102
0.00149974
0.00149975
0.00149976
0.00151561
0.00151562
0.00151562
0.0015156
0.00151561
0.00151562
0.00149973
0.00149974
0.00149975
0.001471
0.00147101
0.00147101
0.00143153
0.00143154
0.00143154
0.00138394
0.00138394
0.00138395
0.00133063
0.00133064
0.00133064
0.00127303
0.00127304
0.00127303
0.00121155
0.00121155
0.00121155
0.00114668
0.00114668
0.00114668
0.00108087
0.00108087
0.00108087
0.00102074
0.00102074
0.00102074
0.000978928
0.000978926
0.000978927
0.000977654
0.000977651
0.000977653
0.00106054
0.00106054
0.00106054
0.00100241
0.00100241
0.00100241
0.00112916
0.00112916
0.00112916
0.000957084
0.000957082
0.000957083
0.000850154
0.000850152
0.000850152
0.0008222
0.000822198
0.000822198
0.000835715
0.000835713
0.000835713
0.000872271
0.000872269
0.000872269
0.000919926
0.000919924
0.000919924
0.000970956
0.000970955
0.000970955
0.00102126
0.00102126
0.00102126
0.00106911
0.00106912
0.00106912
0.00111353
0.00111353
0.00111353
0.00115311
0.00115312
0.00115312
0.00118584
0.00118585
0.00118585
0.00120961
0.00120962
0.00120963
0.00122272
0.00122273
0.00122273
0.00122272
0.00122273
0.00122273
0.00120961
0.00120962
0.00120962
0.00118583
0.00118584
0.00118584
0.0011531
0.00115311
0.00115311
0.00111352
0.00111352
0.00111352
0.00106911
0.00106911
0.00106911
0.00102125
0.00102125
0.00102125
0.000970942
0.000970941
0.000970941
0.000919907
0.000919906
0.000919906
0.00087225
0.000872248
0.000872249
0.000835692
0.00083569
0.00083569
0.000822174
0.000822172
0.000822172
0.000850121
0.000850119
0.00085012
0.000957034
0.000957032
0.000957034
0.00112911
0.00112911
0.00112912
0.00124738
0.00124738
0.00124738
0.000873413
0.00087341
0.000873411
0.000749686
0.000749683
0.000749683
0.000701799
0.000701796
0.000701797
0.000693203
0.0006932
0.0006932
0.00070952
0.000709518
0.000709518
0.000740745
0.000740743
0.000740743
0.000779174
0.000779172
0.000779172
0.000819635
0.000819633
0.000819633
0.000859244
0.000859245
0.000859245
0.000896342
0.000896344
0.000896345
0.000929406
0.000929412
0.000929413
0.000956663
0.00095667
0.000956671
0.000976397
0.000976405
0.000976406
0.000987253
0.000987262
0.000987262
0.00098725
0.000987259
0.00098726
0.00097639
0.000976399
0.000976399
0.000956654
0.000956662
0.000956662
0.000929398
0.000929403
0.000929404
0.000896334
0.000896336
0.000896337
0.000859238
0.000859238
0.000859238
0.000819628
0.000819626
0.000819626
0.000779164
0.000779161
0.000779161
0.00074073
0.000740728
0.000740728
0.000709502
0.0007095
0.0007095
0.000693183
0.00069318
0.000693181
0.000701776
0.000701774
0.000701774
0.000749655
0.000749653
0.000749654
0.000873365
0.000873362
0.000873364
0.00124733
0.00124733
0.00124733
0.00135318
0.00135318
0.00135318
0.000804867
0.000804865
0.000804866
0.000667305
0.000667301
0.000667301
0.000606962
0.000606959
0.000606959
0.000582159
0.000582155
0.000582156
0.000581753
0.00058175
0.00058175
0.000598287
0.000598284
0.000598284
0.000625057
0.000625054
0.000625054
0.000656538
0.000656536
0.000656536
0.000688943
0.000688942
0.000688942
0.000719886
0.000719887
0.000719888
0.000747572
0.000747576
0.000747577
0.000770335
0.000770341
0.000770342
0.000786747
0.000786754
0.000786754
0.000795747
0.000795754
0.000795754
0.000795745
0.000795752
0.000795752
0.000786742
0.000786748
0.000786749
0.000770328
0.000770334
0.000770335
0.000747565
0.000747569
0.00074757
0.00071988
0.000719881
0.000719881
0.000688939
0.000688938
0.000688938
0.000656533
0.000656531
0.000656531
0.000625049
0.000625046
0.000625046
0.000598275
0.000598272
0.000598272
0.000581738
0.000581734
0.000581735
0.000582141
0.000582138
0.000582138
0.000606942
0.000606938
0.000606938
0.000667277
0.000667274
0.000667275
0.000804821
0.000804819
0.00080482
0.00135312
0.00135312
0.00135312
0.00144516
0.00144516
0.00144516
0.000748641
0.000748638
0.000748639
0.000597069
0.000597066
0.000597066
0.000529719
0.000529715
0.000529715
0.000494122
0.000494117
0.000494118
0.000480702
0.000480698
0.000480698
0.000484528
0.000484523
0.000484523
0.000500546
0.000500541
0.000500541
0.00052363
0.000523627
0.000523627
0.000549504
0.000549502
0.000549502
0.000575113
0.000575113
0.000575113
0.000598277
0.000598279
0.00059828
0.000617304
0.000617308
0.000617308
0.000630954
0.000630958
0.000630958
0.000638407
0.000638411
0.000638411
0.000638405
0.00063841
0.00063841
0.00063095
0.000630954
0.000630954
0.000617298
0.000617302
0.000617302
0.000598272
0.000598274
0.000598274
0.000575108
0.000575108
0.000575108
0.000549501
0.000549499
0.000549499
0.000523627
0.000523623
0.000523623
0.00050054
0.000500535
0.000500535
0.000484518
0.000484514
0.000484514
0.000480689
0.000480685
0.000480685
0.000494106
0.000494102
0.000494102
0.000529701
0.000529697
0.000529697
0.000597044
0.000597041
0.000597041
0.000748596
0.000748594
0.000748595
0.00144509
0.00144509
0.0014451
0.00152464
0.00152464
0.00152464
0.000703201
0.000703198
0.000703198
0.000535368
0.000535364
0.000535364
0.000464268
0.000464264
0.000464264
0.000422489
0.000422485
0.000422485
0.000399825
0.00039982
0.00039982
0.000393271
0.000393266
0.000393266
0.000399636
0.000399631
0.000399631
0.000414808
0.000414803
0.000414803
0.000434556
0.000434553
0.000434553
0.000455362
0.000455361
0.000455361
0.000474617
0.000474617
0.000474618
0.000490479
0.000490481
0.000490481
0.000501801
0.000501804
0.000501804
0.000507948
0.000507951
0.00050795
0.000507947
0.000507949
0.000507949
0.000501798
0.0005018
0.0005018
0.000490475
0.000490477
0.000490477
0.000474613
0.000474613
0.000474614
0.000455358
0.000455357
0.000455357
0.000434554
0.000434551
0.000434551
0.000414806
0.000414802
0.000414802
0.000399631
0.000399627
0.000399626
0.000393263
0.000393258
0.000393258
0.000399813
0.000399809
0.000399809
0.000422476
0.000422471
0.000422471
0.000464252
0.000464248
0.000464248
0.000535345
0.000535342
0.000535342
0.000703157
0.000703154
0.000703155
0.00152457
0.00152456
0.00152457
0.00159476
0.00159476
0.00159476
0.000667928
0.000667924
0.000667925
0.000480403
0.000480398
0.000480399
0.000406628
0.000406623
0.000406623
0.000362146
0.000362141
0.000362141
0.000333823
0.000333818
0.000333818
0.000319531
0.000319526
0.000319526
0.000317694
0.00031769
0.00031769
0.000325536
0.000325532
0.000325532
0.000339413
0.000339409
0.000339409
0.000355701
0.000355699
0.000355699
0.000371433
0.000371432
0.000371433
0.000384537
0.000384537
0.000384537
0.000393856
0.000393857
0.000393857
0.000398884
0.000398884
0.000398884
0.000398883
0.000398883
0.000398883
0.000393854
0.000393855
0.000393854
0.000384533
0.000384534
0.000384534
0.00037143
0.000371429
0.000371429
0.000355697
0.000355695
0.000355695
0.000339412
0.000339408
0.000339408
0.000325535
0.000325531
0.000325531
0.000317692
0.000317687
0.000317687
0.000319525
0.000319519
0.000319519
0.000333813
0.000333808
0.000333808
0.000362135
0.00036213
0.00036213
0.000406613
0.000406609
0.000406609
0.000480382
0.000480378
0.000480378
0.000667884
0.000667881
0.000667882
0.00159468
0.00159468
0.00159468
0.00165901
0.00165901
0.00165901
0.000642797
0.000642794
0.000642794
0.000431701
0.000431696
0.000431696
0.000354416
0.000354411
0.000354411
0.000309321
0.000309316
0.000309316
0.000278442
0.000278437
0.000278437
0.000259213
0.000259208
0.000259208
0.000251039
0.000251035
0.000251035
0.000252415
0.000252411
0.000252411
0.000260665
0.000260662
0.000260662
0.000272528
0.000272525
0.000272525
0.000284908
0.000284906
0.000284906
0.000295494
0.000295493
0.000295493
0.000303037
0.000303037
0.000303036
0.000307081
0.000307081
0.00030708
0.000307081
0.000307081
0.00030708
0.000303035
0.000303035
0.000303034
0.000295492
0.000295491
0.000295491
0.000284905
0.000284903
0.000284903
0.000272524
0.000272522
0.000272522
0.000260665
0.000260661
0.000260661
0.000252414
0.00025241
0.00025241
0.000251037
0.000251033
0.000251033
0.000259207
0.000259202
0.000259202
0.000278434
0.000278429
0.000278429
0.000309311
0.000309306
0.000309306
0.000354403
0.000354398
0.000354398
0.000431681
0.000431677
0.000431677
0.000642755
0.000642751
0.000642752
0.00165892
0.00165891
0.00165892
0.0017198
0.0017198
0.00171981
0.00062799
0.000627986
0.000627987
0.000389611
0.000389606
0.000389606
0.000306628
0.000306622
0.000306622
0.000261578
0.000261573
0.000261573
0.000230488
0.000230483
0.000230483
0.00020904
0.000209035
0.000209035
0.000196735
0.000196732
0.000196731
0.000192913
0.00019291
0.00019291
0.000195953
0.00019595
0.00019595
0.000203382
0.000203379
0.000203379
0.000212374
0.000212372
0.000212372
0.000220513
0.000220511
0.000220511
0.000226402
0.000226401
0.0002264
0.000229557
0.000229556
0.000229555
0.000229556
0.000229555
0.000229554
0.000226401
0.0002264
0.000226399
0.000220511
0.00022051
0.000220509
0.000212372
0.00021237
0.00021237
0.000203379
0.000203376
0.000203376
0.000195953
0.00019595
0.00019595
0.000192913
0.00019291
0.00019291
0.000196733
0.00019673
0.00019673
0.000209035
0.000209031
0.000209031
0.000230482
0.000230477
0.000230476
0.00026157
0.000261564
0.000261564
0.000306616
0.00030661
0.00030661
0.000389592
0.000389588
0.000389588
0.000627949
0.000627945
0.000627946
0.0017197
0.0017197
0.00171971
0.00177766
0.00177766
0.00177767
0.000623432
0.000623429
0.000623429
0.000354848
0.000354843
0.000354843
0.000263379
0.000263373
0.000263373
0.000217881
0.000217875
0.000217875
0.000188025
0.000188021
0.000188021
0.000166719
0.000166716
0.000166716
0.000152615
0.000152612
0.000152612
0.000145262
0.00014526
0.00014526
0.000143848
0.000143847
0.000143847
0.000146906
0.000146905
0.000146905
0.000152339
0.000152338
0.000152338
0.000157937
0.000157935
0.000157935
0.000162193
0.000162192
0.000162192
0.000164508
0.000164507
0.000164507
0.000164508
0.000164507
0.000164506
0.000162192
0.000162191
0.000162191
0.000157936
0.000157934
0.000157934
0.000152338
0.000152336
0.000152336
0.000146904
0.000146903
0.000146903
0.000143848
0.000143846
0.000143846
0.000145262
0.00014526
0.00014526
0.000152613
0.00015261
0.00015261
0.000166715
0.000166712
0.000166712
0.000188019
0.000188015
0.000188015
0.000217873
0.000217868
0.000217868
0.000263367
0.000263362
0.000263362
0.000354831
0.000354826
0.000354826
0.000623393
0.000623389
0.00062339
0.00177755
0.00177755
0.00177756
0.0018309
0.0018309
0.0018309
0.000628163
0.00062816
0.00062816
0.000328175
0.00032817
0.00032817
0.000225725
0.00022572
0.00022572
0.000178733
0.000178728
0.000178728
0.000150741
0.000150737
0.000150737
0.000131313
0.00013131
0.00013131
0.000117505
0.000117504
0.000117504
0.000108466
0.000108465
0.000108465
0.000103773
0.000103773
0.000103773
0.000102865
0.000102865
0.000102865
0.000104662
0.000104661
0.000104661
0.00010757
0.000107569
0.000107569
0.000110158
0.000110157
0.000110157
0.000111661
0.00011166
0.00011166
0.000111661
0.00011166
0.00011166
0.000110158
0.000110156
0.000110156
0.00010757
0.000107568
0.000107568
0.000104661
0.00010466
0.00010466
0.000102864
0.000102864
0.000102864
0.000103772
0.000103772
0.000103772
0.000108464
0.000108463
0.000108463
0.000117502
0.000117501
0.000117501
0.000131308
0.000131305
0.000131305
0.000150734
0.000150731
0.000150731
0.000178725
0.00017872
0.00017872
0.000225715
0.000225709
0.000225709
0.00032816
0.000328155
0.000328155
0.000628127
0.000628124
0.000628124
0.00183078
0.00183078
0.00183079
0.0018754
0.00187541
0.00187541
0.000639209
0.000639207
0.000639207
0.000310191
0.000310187
0.000310186
0.000195811
0.000195806
0.000195806
0.000146535
0.00014653
0.00014653
0.000120439
0.000120436
0.000120436
0.000103712
0.00010371
0.00010371
9.15476e-05
9.15467e-05
9.15467e-05
8.23692e-05
8.2369e-05
8.23693e-05
7.58163e-05
7.58165e-05
7.58169e-05
7.19213e-05
7.19214e-05
7.19218e-05
7.05359e-05
7.05356e-05
7.05357e-05
7.09112e-05
7.09101e-05
7.09101e-05
7.19257e-05
7.19242e-05
7.19242e-05
7.2694e-05
7.26924e-05
7.26923e-05
7.26939e-05
7.26923e-05
7.26923e-05
7.19255e-05
7.1924e-05
7.1924e-05
7.09106e-05
7.09095e-05
7.09095e-05
7.0535e-05
7.05347e-05
7.05348e-05
7.19205e-05
7.19206e-05
7.1921e-05
7.58148e-05
7.5815e-05
7.58154e-05
8.23664e-05
8.23662e-05
8.23665e-05
9.15431e-05
9.1542e-05
9.15421e-05
0.000103706
0.000103704
0.000103704
0.000120432
0.000120429
0.000120429
0.000146525
0.000146521
0.000146521
0.0001958
0.000195795
0.000195795
0.000310179
0.000310174
0.000310174
0.000639178
0.000639176
0.000639176
0.00187528
0.00187528
0.00187529
0.00190382
0.00190382
0.00190383
0.000649936
0.000649934
0.000649934
0.000301097
0.000301092
0.000301092
0.000177547
0.000177543
0.000177543
0.000126273
0.000126269
0.000126269
0.000101538
0.000101535
0.000101535
8.70082e-05
8.70063e-05
8.70063e-05
7.64938e-05
7.64931e-05
7.64931e-05
6.78315e-05
6.78315e-05
6.78318e-05
6.0607e-05
6.06078e-05
6.0608e-05
5.51446e-05
5.51452e-05
5.51454e-05
5.18424e-05
5.18422e-05
5.18422e-05
5.05679e-05
5.05665e-05
5.05665e-05
5.05313e-05
5.05292e-05
5.05292e-05
5.08158e-05
5.08136e-05
5.08135e-05
5.08158e-05
5.08136e-05
5.08135e-05
5.05313e-05
5.05292e-05
5.05292e-05
5.05675e-05
5.05661e-05
5.05661e-05
5.18417e-05
5.18415e-05
5.18416e-05
5.51441e-05
5.51447e-05
5.51449e-05
6.06051e-05
6.06058e-05
6.06061e-05
6.78276e-05
6.78275e-05
6.78278e-05
7.64879e-05
7.64871e-05
7.6487e-05
8.70003e-05
8.69984e-05
8.69983e-05
0.000101529
0.000101525
0.000101525
0.000126262
0.000126258
0.000126258
0.000177536
0.000177531
0.000177531
0.000301087
0.000301082
0.000301082
0.000649909
0.000649907
0.000649907
0.00190368
0.00190369
0.0019037
)
;

boundaryField
{
    freeSurface
    {
        type            slip;
    }
    inlet
    {
        type            cyclic;
    }
    outlet
    {
        type            cyclic;
    }
    sidewalls
    {
        type            epsilonWallFunction;
        Cmu             0.09;
        kappa           0.41;
        E               9.8;
        value           nonuniform List<scalar> 
120
(
0.00102394
0.000333717
0.000418508
0.000515953
0.000625515
0.000745491
0.000872691
0.00100245
0.00112916
0.00124738
0.00135318
0.00144516
0.00152464
0.00159476
0.00165901
0.0017198
0.00177766
0.0018309
0.0018754
0.00190382
0.00102394
0.000333716
0.000418507
0.000515952
0.000625514
0.00074549
0.00087269
0.00100245
0.00112916
0.00124738
0.00135318
0.00144516
0.00152464
0.00159476
0.00165901
0.0017198
0.00177766
0.0018309
0.00187541
0.00190382
0.00102394
0.000333718
0.000418509
0.000515954
0.000625516
0.000745493
0.000872693
0.00100245
0.00112916
0.00124738
0.00135318
0.00144516
0.00152464
0.00159476
0.00165901
0.00171981
0.00177767
0.0018309
0.00187541
0.00190383
0.0010239
0.000333698
0.000418486
0.000515928
0.000625486
0.000745459
0.000872655
0.00100241
0.00112911
0.00124733
0.00135312
0.00144509
0.00152457
0.00159468
0.00165892
0.0017197
0.00177755
0.00183078
0.00187528
0.00190368
0.00102389
0.000333698
0.000418485
0.000515927
0.000625485
0.000745458
0.000872654
0.00100241
0.00112911
0.00124733
0.00135312
0.00144509
0.00152456
0.00159468
0.00165891
0.0017197
0.00177755
0.00183078
0.00187528
0.00190369
0.0010239
0.000333699
0.000418487
0.000515929
0.000625487
0.00074546
0.000872656
0.00100241
0.00112912
0.00124733
0.00135312
0.0014451
0.00152457
0.00159468
0.00165892
0.00171971
0.00177756
0.00183079
0.00187529
0.0019037
)
;
    }
    noSlipWalls
    {
        type            epsilonWallFunction;
        Cmu             0.09;
        kappa           0.41;
        E               9.8;
        value           nonuniform List<scalar> 
90
(
0.00102394
0.00397109
0.00453686
0.00497083
0.0053339
0.00564799
0.00592852
0.0061873
0.00643259
0.00666786
0.00689072
0.00709286
0.00726177
0.00738503
0.00745306
0.00745304
0.00738498
0.00726171
0.0070928
0.00689068
0.0066678
0.00643252
0.00618719
0.00592837
0.00564783
0.00533375
0.00497069
0.00453673
0.00397101
0.0010239
0.00102394
0.0039711
0.00453686
0.00497084
0.00533391
0.00564801
0.00592855
0.00618734
0.00643262
0.00666788
0.00689075
0.00709289
0.00726179
0.00738505
0.00745308
0.00745306
0.007385
0.00726173
0.00709283
0.00689071
0.00666783
0.00643256
0.00618723
0.00592841
0.00564785
0.00533376
0.00497069
0.00453673
0.00397101
0.00102389
0.00102394
0.0039711
0.00453687
0.00497085
0.00533394
0.00564803
0.00592857
0.00618735
0.00643263
0.0066679
0.00689076
0.00709291
0.00726182
0.00738508
0.00745311
0.00745309
0.00738503
0.00726176
0.00709285
0.00689072
0.00666784
0.00643257
0.00618724
0.00592843
0.00564788
0.00533379
0.00497071
0.00453674
0.00397102
0.0010239
)
;
    }
}


// ************************************************************************* //
