/*--------------------------------*- C++ -*----------------------------------*\
  =========                 |
  \\      /  F ield         | OpenFOAM: The Open Source CFD Toolbox
   \\    /   O peration     | Website:  https://openfoam.org
    \\  /    A nd           | Version:  6
     \\/     M anipulation  |
\*---------------------------------------------------------------------------*/
FoamFile
{
    version     2.0;
    format      ascii;
    class       volScalarField;
    location    "60";
    object      nut;
}
// * * * * * * * * * * * * * * * * * * * * * * * * * * * * * * * * * * * * * //

dimensions      [0 2 -1 0 0 0 0];

internalField   nonuniform List<scalar> 
1800
(
4.03824e-06
4.03823e-06
4.03824e-06
4.89748e-06
4.89749e-06
4.89749e-06
5.59523e-06
5.59523e-06
5.59524e-06
6.13044e-06
6.13044e-06
6.13047e-06
6.57822e-06
6.57824e-06
6.57827e-06
6.9656e-06
6.96562e-06
6.96565e-06
7.31158e-06
7.31163e-06
7.31165e-06
7.63075e-06
7.6308e-06
7.63081e-06
7.93327e-06
7.93332e-06
7.93333e-06
8.22345e-06
8.22348e-06
8.2235e-06
8.49835e-06
8.49838e-06
8.4984e-06
8.74768e-06
8.74771e-06
8.74774e-06
8.95603e-06
8.95605e-06
8.95609e-06
9.10806e-06
9.10809e-06
9.10812e-06
9.19198e-06
9.192e-06
9.19204e-06
9.19196e-06
9.19198e-06
9.19202e-06
9.10801e-06
9.10803e-06
9.10807e-06
8.95596e-06
8.95598e-06
8.95601e-06
8.74761e-06
8.74764e-06
8.74766e-06
8.49829e-06
8.49833e-06
8.49834e-06
8.22338e-06
8.22342e-06
8.22343e-06
7.93319e-06
7.93324e-06
7.93325e-06
7.63061e-06
7.63066e-06
7.63068e-06
7.3114e-06
7.31145e-06
7.31147e-06
6.9654e-06
6.96543e-06
6.96546e-06
6.57804e-06
6.57805e-06
6.57809e-06
6.13027e-06
6.13027e-06
6.1303e-06
5.59506e-06
5.59507e-06
5.59508e-06
4.89738e-06
4.89738e-06
4.89739e-06
4.03808e-06
4.03807e-06
4.03808e-06
2.20209e-05
2.20209e-05
2.2021e-05
1.79235e-05
1.79235e-05
1.79235e-05
1.88751e-05
1.88751e-05
1.88752e-05
1.95297e-05
1.95298e-05
1.95298e-05
2.01095e-05
2.01096e-05
2.01096e-05
2.06485e-05
2.06486e-05
2.06487e-05
2.11596e-05
2.11598e-05
2.11598e-05
2.16516e-05
2.16517e-05
2.16518e-05
2.21301e-05
2.21303e-05
2.21303e-05
2.25949e-05
2.2595e-05
2.2595e-05
2.30365e-05
2.30366e-05
2.30366e-05
2.34361e-05
2.34362e-05
2.34362e-05
2.37684e-05
2.37685e-05
2.37685e-05
2.40096e-05
2.40097e-05
2.40098e-05
2.41422e-05
2.41422e-05
2.41423e-05
2.41422e-05
2.41422e-05
2.41423e-05
2.40095e-05
2.40096e-05
2.40097e-05
2.37683e-05
2.37683e-05
2.37684e-05
2.3436e-05
2.34361e-05
2.34361e-05
2.30364e-05
2.30365e-05
2.30365e-05
2.25948e-05
2.25949e-05
2.25949e-05
2.213e-05
2.21301e-05
2.21301e-05
2.16513e-05
2.16515e-05
2.16515e-05
2.11593e-05
2.11594e-05
2.11595e-05
2.06482e-05
2.06483e-05
2.06484e-05
2.01092e-05
2.01093e-05
2.01094e-05
1.95295e-05
1.95295e-05
1.95296e-05
1.88749e-05
1.88749e-05
1.88749e-05
1.79234e-05
1.79234e-05
1.79234e-05
2.20206e-05
2.20205e-05
2.20206e-05
2.37472e-05
2.37472e-05
2.37472e-05
2.90119e-05
2.9012e-05
2.9012e-05
2.99708e-05
2.99709e-05
2.99709e-05
3.04579e-05
3.0458e-05
3.04581e-05
3.09756e-05
3.09757e-05
3.09759e-05
3.15531e-05
3.15533e-05
3.15535e-05
3.2172e-05
3.21722e-05
3.21723e-05
3.28149e-05
3.28151e-05
3.28152e-05
3.34692e-05
3.34694e-05
3.34695e-05
3.41204e-05
3.41206e-05
3.41207e-05
3.47465e-05
3.47467e-05
3.47467e-05
3.53154e-05
3.53156e-05
3.53156e-05
3.57886e-05
3.57887e-05
3.57889e-05
3.61315e-05
3.61316e-05
3.61318e-05
3.63196e-05
3.63197e-05
3.63199e-05
3.63196e-05
3.63196e-05
3.63198e-05
3.61314e-05
3.61314e-05
3.61316e-05
3.57885e-05
3.57885e-05
3.57887e-05
3.53153e-05
3.53154e-05
3.53155e-05
3.47464e-05
3.47466e-05
3.47467e-05
3.41203e-05
3.41205e-05
3.41205e-05
3.3469e-05
3.34692e-05
3.34693e-05
3.28144e-05
3.28147e-05
3.28148e-05
3.21714e-05
3.21717e-05
3.21718e-05
3.15526e-05
3.15528e-05
3.1553e-05
3.09753e-05
3.09754e-05
3.09755e-05
3.04576e-05
3.04577e-05
3.04578e-05
2.99705e-05
2.99706e-05
2.99706e-05
2.9012e-05
2.90121e-05
2.9012e-05
2.37468e-05
2.37468e-05
2.37468e-05
2.54633e-05
2.54633e-05
2.54633e-05
4.09003e-05
4.09004e-05
4.09003e-05
4.22481e-05
4.22482e-05
4.22482e-05
4.24345e-05
4.24346e-05
4.24347e-05
4.26968e-05
4.2697e-05
4.26972e-05
4.31654e-05
4.31657e-05
4.3166e-05
4.38005e-05
4.38009e-05
4.3801e-05
4.45463e-05
4.45467e-05
4.45469e-05
4.53574e-05
4.53578e-05
4.53579e-05
4.61932e-05
4.61935e-05
4.61936e-05
4.70106e-05
4.70109e-05
4.7011e-05
4.77589e-05
4.77592e-05
4.77593e-05
4.83827e-05
4.83828e-05
4.83831e-05
4.88344e-05
4.88345e-05
4.88348e-05
4.90818e-05
4.90819e-05
4.90822e-05
4.90817e-05
4.90818e-05
4.90821e-05
4.88342e-05
4.88343e-05
4.88346e-05
4.83824e-05
4.83826e-05
4.83828e-05
4.77588e-05
4.7759e-05
4.77592e-05
4.70106e-05
4.70109e-05
4.7011e-05
4.6193e-05
4.61934e-05
4.61934e-05
4.5357e-05
4.53574e-05
4.53575e-05
4.45457e-05
4.45461e-05
4.45462e-05
4.37996e-05
4.38e-05
4.38002e-05
4.31647e-05
4.3165e-05
4.31653e-05
4.26963e-05
4.26965e-05
4.26967e-05
4.24341e-05
4.24342e-05
4.24344e-05
4.22478e-05
4.22479e-05
4.22479e-05
4.09006e-05
4.09007e-05
4.09007e-05
2.54629e-05
2.54629e-05
2.54629e-05
2.71513e-05
2.71513e-05
2.71513e-05
5.35802e-05
5.35804e-05
5.35803e-05
5.61711e-05
5.61713e-05
5.61713e-05
5.61025e-05
5.61027e-05
5.61029e-05
5.59262e-05
5.59264e-05
5.59268e-05
5.61024e-05
5.61029e-05
5.61033e-05
5.66277e-05
5.66283e-05
5.66286e-05
5.7408e-05
5.74087e-05
5.74089e-05
5.83496e-05
5.83501e-05
5.83503e-05
5.93699e-05
5.93704e-05
5.93705e-05
6.03922e-05
6.03927e-05
6.03928e-05
6.13383e-05
6.13387e-05
6.13389e-05
6.21299e-05
6.21301e-05
6.21305e-05
6.27031e-05
6.27033e-05
6.27037e-05
6.30168e-05
6.30169e-05
6.30173e-05
6.30166e-05
6.30168e-05
6.30172e-05
6.27028e-05
6.2703e-05
6.27034e-05
6.21296e-05
6.21298e-05
6.21302e-05
6.13382e-05
6.13385e-05
6.13387e-05
6.03922e-05
6.03927e-05
6.03928e-05
5.93697e-05
5.93702e-05
5.93703e-05
5.83491e-05
5.83497e-05
5.83499e-05
5.74071e-05
5.74077e-05
5.7408e-05
5.66265e-05
5.66271e-05
5.66274e-05
5.61014e-05
5.61019e-05
5.61023e-05
5.59255e-05
5.59257e-05
5.59262e-05
5.61021e-05
5.61022e-05
5.61025e-05
5.61708e-05
5.61709e-05
5.6171e-05
5.35809e-05
5.35811e-05
5.3581e-05
2.71509e-05
2.71509e-05
2.71509e-05
2.87868e-05
2.87868e-05
2.87868e-05
6.66933e-05
6.66936e-05
6.66935e-05
7.18143e-05
7.18146e-05
7.18146e-05
7.18177e-05
7.1818e-05
7.18183e-05
7.10803e-05
7.10807e-05
7.10813e-05
7.07467e-05
7.07473e-05
7.07479e-05
7.09852e-05
7.09861e-05
7.09865e-05
7.16929e-05
7.16939e-05
7.16942e-05
7.27172e-05
7.2718e-05
7.27183e-05
7.39138e-05
7.39146e-05
7.39148e-05
7.51547e-05
7.51554e-05
7.51556e-05
7.6321e-05
7.63215e-05
7.63218e-05
7.73023e-05
7.73026e-05
7.73031e-05
7.80135e-05
7.80137e-05
7.80143e-05
7.84022e-05
7.84024e-05
7.8403e-05
7.84021e-05
7.84022e-05
7.84029e-05
7.80131e-05
7.80133e-05
7.80139e-05
7.73019e-05
7.73022e-05
7.73027e-05
7.63208e-05
7.63213e-05
7.63216e-05
7.51549e-05
7.51556e-05
7.51557e-05
7.39136e-05
7.39143e-05
7.39145e-05
7.27166e-05
7.27174e-05
7.27177e-05
7.16916e-05
7.16926e-05
7.16929e-05
7.09835e-05
7.09844e-05
7.09848e-05
7.07452e-05
7.07459e-05
7.07466e-05
7.10794e-05
7.10798e-05
7.10804e-05
7.18172e-05
7.18174e-05
7.18178e-05
7.1814e-05
7.18143e-05
7.18143e-05
6.66945e-05
6.66947e-05
6.66946e-05
2.87864e-05
2.87864e-05
2.87864e-05
3.03389e-05
3.03388e-05
3.03389e-05
7.97071e-05
7.97075e-05
7.97074e-05
8.89836e-05
8.8984e-05
8.89841e-05
8.97588e-05
8.97592e-05
8.97597e-05
8.84885e-05
8.84891e-05
8.849e-05
8.7423e-05
8.7424e-05
8.74248e-05
8.71407e-05
8.71421e-05
8.71426e-05
8.76136e-05
8.7615e-05
8.76154e-05
8.86365e-05
8.86377e-05
8.8638e-05
8.9983e-05
8.9984e-05
8.99843e-05
9.145e-05
9.14509e-05
9.14512e-05
9.28591e-05
9.28598e-05
9.28603e-05
9.40549e-05
9.40553e-05
9.4056e-05
9.49231e-05
9.49234e-05
9.49243e-05
9.53973e-05
9.53975e-05
9.53984e-05
9.5397e-05
9.53973e-05
9.53982e-05
9.49226e-05
9.49229e-05
9.49237e-05
9.40543e-05
9.40547e-05
9.40555e-05
9.28589e-05
9.28596e-05
9.28601e-05
9.14503e-05
9.14512e-05
9.14515e-05
8.99827e-05
8.99837e-05
8.9984e-05
8.86357e-05
8.86369e-05
8.86372e-05
8.76118e-05
8.76132e-05
8.76136e-05
8.71383e-05
8.71397e-05
8.71403e-05
8.7421e-05
8.74219e-05
8.74228e-05
8.84872e-05
8.84878e-05
8.84888e-05
8.97581e-05
8.97585e-05
8.9759e-05
8.89833e-05
8.89837e-05
8.89838e-05
7.97088e-05
7.97091e-05
7.9709e-05
3.03385e-05
3.03385e-05
3.03385e-05
3.17736e-05
3.17736e-05
3.17736e-05
9.19832e-05
9.19837e-05
9.19836e-05
0.000107239
0.00010724
0.00010724
0.000109895
0.000109895
0.000109896
0.000108382
0.000108383
0.000108384
0.000106423
0.000106424
0.000106425
0.000105339
0.000105341
0.000105341
0.000105345
0.000105347
0.000105348
0.000106229
0.000106231
0.000106231
0.000107667
0.000107668
0.000107669
0.000109353
0.000109354
0.000109355
0.000111024
0.000111025
0.000111025
0.000112459
0.00011246
0.000112461
0.000113505
0.000113505
0.000113507
0.000114076
0.000114076
0.000114078
0.000114076
0.000114076
0.000114077
0.000113504
0.000113505
0.000113506
0.000112458
0.000112459
0.00011246
0.000111023
0.000111024
0.000111025
0.000109354
0.000109355
0.000109355
0.000107667
0.000107668
0.000107668
0.000106228
0.00010623
0.00010623
0.000105343
0.000105345
0.000105345
0.000105335
0.000105337
0.000105338
0.00010642
0.000106421
0.000106422
0.000108381
0.000108381
0.000108383
0.000109894
0.000109894
0.000109895
0.000107239
0.000107239
0.000107239
9.19854e-05
9.19859e-05
9.19858e-05
3.17732e-05
3.17732e-05
3.17732e-05
3.30596e-05
3.30596e-05
3.30596e-05
0.000102842
0.000102843
0.000102843
0.000125925
0.000125926
0.000125927
0.000131932
0.000131932
0.000131933
0.000130833
0.000130834
0.000130836
0.000127977
0.000127979
0.00012798
0.000125802
0.000125805
0.000125806
0.000125037
0.00012504
0.00012504
0.000125569
0.000125571
0.000125572
0.00012699
0.000126992
0.000126992
0.000128861
0.000128863
0.000128864
0.000130801
0.000130802
0.000130803
0.000132498
0.000132499
0.0001325
0.000133742
0.000133742
0.000133744
0.000134421
0.000134422
0.000134424
0.000134421
0.000134422
0.000134423
0.000133741
0.000133742
0.000133743
0.000132497
0.000132498
0.000132499
0.000130801
0.000130802
0.000130803
0.000128862
0.000128864
0.000128864
0.00012699
0.000126991
0.000126992
0.000125567
0.00012557
0.00012557
0.000125033
0.000125036
0.000125037
0.000125797
0.0001258
0.000125801
0.000127973
0.000127975
0.000127977
0.000130831
0.000130832
0.000130834
0.00013193
0.000131931
0.000131932
0.000125925
0.000125926
0.000125926
0.000102845
0.000102846
0.000102846
3.30592e-05
3.30592e-05
3.30592e-05
3.41753e-05
3.41753e-05
3.41753e-05
0.000111653
0.000111654
0.000111654
0.000144223
0.000144224
0.000144224
0.000155279
0.00015528
0.000155282
0.000155665
0.000155666
0.000155668
0.000152194
0.000152197
0.000152199
0.000148708
0.000148712
0.000148713
0.000146804
0.000146808
0.000146809
0.000146681
0.000146685
0.000146685
0.000147903
0.000147905
0.000147906
0.00014988
0.000149882
0.000149883
0.000152072
0.000152074
0.000152076
0.000154044
0.000154045
0.000154047
0.000155503
0.000155505
0.000155507
0.000156302
0.000156304
0.000156305
0.000156302
0.000156303
0.000156305
0.000155502
0.000155503
0.000155505
0.000154043
0.000154044
0.000154046
0.000152072
0.000152074
0.000152075
0.000149881
0.000149883
0.000149884
0.000147902
0.000147905
0.000147906
0.000146679
0.000146683
0.000146683
0.000146799
0.000146804
0.000146804
0.000148702
0.000148706
0.000148706
0.000152189
0.000152191
0.000152193
0.000155661
0.000155663
0.000155665
0.000155277
0.000155278
0.00015528
0.000144222
0.000144223
0.000144224
0.000111656
0.000111657
0.000111657
3.41749e-05
3.41749e-05
3.41749e-05
3.51154e-05
3.51154e-05
3.51154e-05
0.00011794
0.000117941
0.000117941
0.000161209
0.00016121
0.000161211
0.000179059
0.000179061
0.000179063
0.000182372
0.000182374
0.000182377
0.000178966
0.00017897
0.000178972
0.000174138
0.000174143
0.000174144
0.000170718
0.000170723
0.000170723
0.000169535
0.00016954
0.00016954
0.00017027
0.000170274
0.000170275
0.000172199
0.000172202
0.000172204
0.000174588
0.000174591
0.000174593
0.000176828
0.00017683
0.000176833
0.000178513
0.000178515
0.000178517
0.00017944
0.000179442
0.000179444
0.000179439
0.000179441
0.000179443
0.000178512
0.000178513
0.000178516
0.000176827
0.000176829
0.000176832
0.000174588
0.000174591
0.000174592
0.000172201
0.000172204
0.000172205
0.00017027
0.000170273
0.000170274
0.000169533
0.000169537
0.000169538
0.000170711
0.000170717
0.000170717
0.000174129
0.000174134
0.000174135
0.000178958
0.000178962
0.000178964
0.000182367
0.000182369
0.000182372
0.000179056
0.000179058
0.00017906
0.000161208
0.000161209
0.00016121
0.000117943
0.000117944
0.000117944
3.51149e-05
3.51149e-05
3.5115e-05
3.58937e-05
3.58937e-05
3.58937e-05
0.000121475
0.000121476
0.000121477
0.000175925
0.000175927
0.000175928
0.000202156
0.000202159
0.000202161
0.000210075
0.000210079
0.000210081
0.000207862
0.000207866
0.000207869
0.000201998
0.000202004
0.000202006
0.00019677
0.000196777
0.000196777
0.000194038
0.000194043
0.000194044
0.000193865
0.000193869
0.000193871
0.00019548
0.000195484
0.000195486
0.000197937
0.000197941
0.000197943
0.000200403
0.000200406
0.000200409
0.000202307
0.00020231
0.000202313
0.000203364
0.000203367
0.00020337
0.000203363
0.000203367
0.000203369
0.000202305
0.000202308
0.000202311
0.000200401
0.000200404
0.000200407
0.000197937
0.00019794
0.000197943
0.000195482
0.000195486
0.000195487
0.000193864
0.000193868
0.00019387
0.000194034
0.00019404
0.00019404
0.000196761
0.000196768
0.000196768
0.000201986
0.000201992
0.000201993
0.00020785
0.000207854
0.000207858
0.000210068
0.000210071
0.000210074
0.000202152
0.000202154
0.000202157
0.000175924
0.000175925
0.000175926
0.000121478
0.000121479
0.00012148
3.58932e-05
3.58932e-05
3.58932e-05
3.654e-05
3.654e-05
3.654e-05
0.000122318
0.000122319
0.000122319
0.000187443
0.000187445
0.000187447
0.000223291
0.000223294
0.000223296
0.000237537
0.000237541
0.000237544
0.000238042
0.000238047
0.00023805
0.000231917
0.000231925
0.000231926
0.000224831
0.000224839
0.000224839
0.000220032
0.000220039
0.00022004
0.000218372
0.000218377
0.000218379
0.000219241
0.000219246
0.000219248
0.000221521
0.000221526
0.000221529
0.000224105
0.00022411
0.000224114
0.000226195
0.000226199
0.000226203
0.000227375
0.00022738
0.000227383
0.000227374
0.000227379
0.000227382
0.000226193
0.000226197
0.000226201
0.000224103
0.000224108
0.000224112
0.000221521
0.000221526
0.000221529
0.000219243
0.000219249
0.000219251
0.000218371
0.000218376
0.000218378
0.000220027
0.000220034
0.000220035
0.000224818
0.000224826
0.000224826
0.000231899
0.000231907
0.000231908
0.000238025
0.00023803
0.000238034
0.000237526
0.00023753
0.000237533
0.000223284
0.000223287
0.000223289
0.00018744
0.000187442
0.000187443
0.00012232
0.000122321
0.000122322
3.65394e-05
3.65394e-05
3.65395e-05
3.70918e-05
3.70918e-05
3.70918e-05
0.000120773
0.000120774
0.000120775
0.000194924
0.000194927
0.000194929
0.000241095
0.000241099
0.000241102
0.000263235
0.00026324
0.000263244
0.00026824
0.000268246
0.00026825
0.000263159
0.000263167
0.000263169
0.000254592
0.000254601
0.000254601
0.000247313
0.000247321
0.000247322
0.00024343
0.000243437
0.000243439
0.000242891
0.000242898
0.000242901
0.000244562
0.000244569
0.000244572
0.000247047
0.000247054
0.000247058
0.000249236
0.000249243
0.000249247
0.000250514
0.000250521
0.000250525
0.000250513
0.00025052
0.000250524
0.000249234
0.00024924
0.000249244
0.000247045
0.000247051
0.000247056
0.000244561
0.000244568
0.000244572
0.000242894
0.000242901
0.000242903
0.000243428
0.000243435
0.000243437
0.000247306
0.000247314
0.000247314
0.000254573
0.000254583
0.000254583
0.000263133
0.000263142
0.000263144
0.000268217
0.000268223
0.000268227
0.000263219
0.000263223
0.000263227
0.000241084
0.000241088
0.000241091
0.000194919
0.000194921
0.000194923
0.000120775
0.000120776
0.000120777
3.70912e-05
3.70912e-05
3.70912e-05
3.75834e-05
3.75833e-05
3.75834e-05
0.000117316
0.000117317
0.000117318
0.000197702
0.000197705
0.000197707
0.000254196
0.0002542
0.000254203
0.000285494
0.0002855
0.000285503
0.000296852
0.000296859
0.000296862
0.000294601
0.000294611
0.000294611
0.000285534
0.000285545
0.000285544
0.000275669
0.000275679
0.000275678
0.000268742
0.00026875
0.000268751
0.000265837
0.000265845
0.000265848
0.000266179
0.000266187
0.000266191
0.000268163
0.000268172
0.000268177
0.000270278
0.000270286
0.000270291
0.000271597
0.000271605
0.000271609
0.000271595
0.000271603
0.000271608
0.000270275
0.000270283
0.000270288
0.00026816
0.000268169
0.000268173
0.000266178
0.000266187
0.000266191
0.00026584
0.000265848
0.000265851
0.000268739
0.000268747
0.000268748
0.000275658
0.000275667
0.000275667
0.000285506
0.000285517
0.000285517
0.000294565
0.000294575
0.000294576
0.000296819
0.000296826
0.000296829
0.000285469
0.000285475
0.000285479
0.000254179
0.000254184
0.000254187
0.000197693
0.000197696
0.000197699
0.000117316
0.000117317
0.000117319
3.75827e-05
3.75827e-05
3.75827e-05
3.8037e-05
3.8037e-05
3.8037e-05
0.000112532
0.000112534
0.000112535
0.000195412
0.000195415
0.000195418
0.000261322
0.000261328
0.000261331
0.000302652
0.00030266
0.000302662
0.000322145
0.000322153
0.000322155
0.000324864
0.000324875
0.000324874
0.000316967
0.000316977
0.000316976
0.000304988
0.000304997
0.000304996
0.000294291
0.000294299
0.0002943
0.000287754
0.000287763
0.000287766
0.000285638
0.000285648
0.000285652
0.000286424
0.000286434
0.000286439
0.000288144
0.000288153
0.000288158
0.000289393
0.000289403
0.000289407
0.000289392
0.000289401
0.000289406
0.00028814
0.00028815
0.000288155
0.00028642
0.000286431
0.000286436
0.000285637
0.000285647
0.000285651
0.000287758
0.000287766
0.000287769
0.000294287
0.000294295
0.000294295
0.000304969
0.000304978
0.000304977
0.000316926
0.000316937
0.000316935
0.000324813
0.000324823
0.000324823
0.000322098
0.000322106
0.000322108
0.000302616
0.000302623
0.000302626
0.000261298
0.000261304
0.000261307
0.000195398
0.000195402
0.000195405
0.000112531
0.000112533
0.000112534
3.80363e-05
3.80363e-05
3.80363e-05
3.84589e-05
3.84589e-05
3.84589e-05
0.000107103
0.000107104
0.000107106
0.000188238
0.000188242
0.000188245
0.000261551
0.000261557
0.00026156
0.000313337
0.000313345
0.000313347
0.000342626
0.000342635
0.000342635
0.000352637
0.000352645
0.000352644
0.000348199
0.000348207
0.000348204
0.000335403
0.000335409
0.000335406
0.000320684
0.000320689
0.000320688
0.000309115
0.000309122
0.000309123
0.000302941
0.000302951
0.000302955
0.000301413
0.000301424
0.000301428
0.000302189
0.0003022
0.000302204
0.00030318
0.00030319
0.000303193
0.000303179
0.000303189
0.000303192
0.000302186
0.000302196
0.0003022
0.000301409
0.00030142
0.000301424
0.00030294
0.00030295
0.000302954
0.000309117
0.000309124
0.000309125
0.000320677
0.000320681
0.00032068
0.000335371
0.000335377
0.000335374
0.000348138
0.000348146
0.000348143
0.000352563
0.000352572
0.00035257
0.000342559
0.000342567
0.000342568
0.000313284
0.000313292
0.000313294
0.000261515
0.000261522
0.000261525
0.000188219
0.000188224
0.000188226
0.0001071
0.000107102
0.000107103
3.84581e-05
3.84581e-05
3.84581e-05
3.8839e-05
3.8839e-05
3.88391e-05
0.000101802
0.000101804
0.000101805
0.000177311
0.000177317
0.000177318
0.000254854
0.000254862
0.000254864
0.000316953
0.000316962
0.000316962
0.000357546
0.000357553
0.000357552
0.000377105
0.000377109
0.000377106
0.000378687
0.000378688
0.000378682
0.000367209
0.000367207
0.0003672
0.00034925
0.000349248
0.000349242
0.000331783
0.000331784
0.000331782
0.000319824
0.000319831
0.000319831
0.000314498
0.000314507
0.000314508
0.000313533
0.000313542
0.000313543
0.000313981
0.000313989
0.000313989
0.00031398
0.000313988
0.000313988
0.00031353
0.000313539
0.00031354
0.000314495
0.000314504
0.000314505
0.000319824
0.00031983
0.000319831
0.000331781
0.000331782
0.00033178
0.000349236
0.000349234
0.000349228
0.000367155
0.000367153
0.000367146
0.000378594
0.000378595
0.00037859
0.000376998
0.000377002
0.000376999
0.000357448
0.000357455
0.000357455
0.000316878
0.000316887
0.000316888
0.000254804
0.000254812
0.000254814
0.000177286
0.000177292
0.000177294
0.000101798
0.000101801
0.000101802
3.88382e-05
3.88382e-05
3.88382e-05
3.91512e-05
3.91512e-05
3.91513e-05
9.74604e-05
9.74641e-05
9.74641e-05
0.000165196
0.000165203
0.000165203
0.000243251
0.000243262
0.000243261
0.000314579
0.000314588
0.000314587
0.000367289
0.000367293
0.000367291
0.000397812
0.00039781
0.000397804
0.000407245
0.000407238
0.000407228
0.000399363
0.000399352
0.000399337
0.000380294
0.000380283
0.000380268
0.000357927
0.00035792
0.000357908
0.000339765
0.000339764
0.000339757
0.000329665
0.000329668
0.000329663
0.000326278
0.000326283
0.000326277
0.000325924
0.000325928
0.00032592
0.000325923
0.000325928
0.00032592
0.000326277
0.000326281
0.000326275
0.000329664
0.000329667
0.000329662
0.000339767
0.000339765
0.000339759
0.000357915
0.000357908
0.000357896
0.000380271
0.000380258
0.000380243
0.000399278
0.000399267
0.000399252
0.000407111
0.000407104
0.000407094
0.000397661
0.00039766
0.000397655
0.000367153
0.000367158
0.000367156
0.000314474
0.000314485
0.000314484
0.000243185
0.000243196
0.000243196
0.000165165
0.000165172
0.000165172
9.74559e-05
9.74596e-05
9.74596e-05
3.91504e-05
3.91504e-05
3.91504e-05
3.93479e-05
3.9348e-05
3.9348e-05
9.48746e-05
9.48787e-05
9.48785e-05
0.000156233
0.000156241
0.000156241
0.000232533
0.000232544
0.000232543
0.000310085
0.000310093
0.000310091
0.000372594
0.000372596
0.000372592
0.000412183
0.000412178
0.000412169
0.000428347
0.000428334
0.000428319
0.000424434
0.000424415
0.000424393
0.000406368
0.000406345
0.000406322
0.000382189
0.000382171
0.000382149
0.000360473
0.000360464
0.000360448
0.000347035
0.000347033
0.000347019
0.000341763
0.000341765
0.000341749
0.000340762
0.000340764
0.000340746
0.000340762
0.000340764
0.000340747
0.000341763
0.000341765
0.000341749
0.000347038
0.000347036
0.000347022
0.000360476
0.000360466
0.00036045
0.000382165
0.000382146
0.000382125
0.000406332
0.000406309
0.000406285
0.000424319
0.0004243
0.000424277
0.000428175
0.000428162
0.000428147
0.000411994
0.00041199
0.000411981
0.000372423
0.000372427
0.000372423
0.000309955
0.000309966
0.000309964
0.000232453
0.000232465
0.000232464
0.000156198
0.000156206
0.000156206
9.487e-05
9.4874e-05
9.48739e-05
3.93471e-05
3.93471e-05
3.93471e-05
)
;

boundaryField
{
    freeSurface
    {
        type            slip;
    }
    inlet
    {
        type            cyclic;
    }
    outlet
    {
        type            cyclic;
    }
    sidewalls
    {
        type            nutkWallFunction;
        Cmu             0.09;
        kappa           0.41;
        E               9.8;
        value           nonuniform List<scalar> 
120
(
2.11529e-06
2.51443e-06
2.74482e-06
2.97174e-06
3.19305e-06
3.40582e-06
3.60635e-06
3.79057e-06
3.95483e-06
4.09669e-06
4.21578e-06
4.31408e-06
4.39551e-06
4.46489e-06
4.5266e-06
4.58345e-06
4.63625e-06
4.68377e-06
4.72275e-06
4.7473e-06
2.11529e-06
2.51443e-06
2.74482e-06
2.97174e-06
3.19305e-06
3.40582e-06
3.60635e-06
3.79057e-06
3.95483e-06
4.09669e-06
4.21578e-06
4.31408e-06
4.39551e-06
4.46489e-06
4.5266e-06
4.58345e-06
4.63625e-06
4.68377e-06
4.72276e-06
4.7473e-06
2.11529e-06
2.51443e-06
2.74482e-06
2.97174e-06
3.19306e-06
3.40583e-06
3.60635e-06
3.79058e-06
3.95483e-06
4.09669e-06
4.21579e-06
4.31408e-06
4.39551e-06
4.4649e-06
4.5266e-06
4.58346e-06
4.63626e-06
4.68378e-06
4.72276e-06
4.74731e-06
2.11524e-06
2.51438e-06
2.74477e-06
2.97169e-06
3.193e-06
3.40577e-06
3.60629e-06
3.79052e-06
3.95477e-06
4.09663e-06
4.21572e-06
4.31401e-06
4.39544e-06
4.46482e-06
4.52651e-06
4.58336e-06
4.63615e-06
4.68366e-06
4.72264e-06
4.74718e-06
2.11523e-06
2.51437e-06
2.74476e-06
2.97168e-06
3.193e-06
3.40577e-06
3.60629e-06
3.79052e-06
3.95477e-06
4.09663e-06
4.21572e-06
4.31401e-06
4.39544e-06
4.46481e-06
4.52651e-06
4.58336e-06
4.63615e-06
4.68366e-06
4.72265e-06
4.74719e-06
2.11524e-06
2.51438e-06
2.74477e-06
2.97169e-06
3.193e-06
3.40577e-06
3.6063e-06
3.79052e-06
3.95478e-06
4.09664e-06
4.21572e-06
4.31402e-06
4.39544e-06
4.46482e-06
4.52652e-06
4.58337e-06
4.63616e-06
4.68367e-06
4.72265e-06
4.74719e-06
)
;
    }
    noSlipWalls
    {
        type            nutkWallFunction;
        Cmu             0.09;
        kappa           0.41;
        E               9.8;
        value           uniform 0;
    }
}


// ************************************************************************* //
