/*--------------------------------*- C++ -*----------------------------------*\
  =========                 |
  \\      /  F ield         | OpenFOAM: The Open Source CFD Toolbox
   \\    /   O peration     | Website:  https://openfoam.org
    \\  /    A nd           | Version:  6
     \\/     M anipulation  |
\*---------------------------------------------------------------------------*/
FoamFile
{
    version     2.0;
    format      ascii;
    class       volScalarField;
    location    "60";
    object      p;
}
// * * * * * * * * * * * * * * * * * * * * * * * * * * * * * * * * * * * * * //

dimensions      [0 2 -2 0 0 0 0];

internalField   nonuniform List<scalar> 
1800
(
6.306e-17
2.14906e-09
1.96318e-08
-3.90504e-11
2.14102e-09
1.96567e-08
-4.24618e-11
2.12659e-09
1.96587e-08
-4.79312e-11
2.12433e-09
1.96564e-08
-6.25955e-11
2.14065e-09
1.96471e-08
-1.01127e-10
2.19033e-09
1.96284e-08
-1.72737e-10
2.24571e-09
1.96372e-08
-1.83336e-10
2.30917e-09
1.95764e-08
-1.12267e-10
2.23873e-09
1.95752e-08
7.88869e-11
2.0626e-09
1.95568e-08
2.52133e-10
1.79238e-09
1.96534e-08
4.51842e-10
1.50363e-09
1.97385e-08
5.93593e-10
1.28688e-09
1.98155e-08
6.53031e-10
1.08907e-09
1.99468e-08
6.34737e-10
1.02473e-09
2.00235e-08
6.33043e-10
1.00407e-09
2.00398e-08
6.60355e-10
1.028e-09
1.99928e-08
6.04638e-10
1.20966e-09
1.98697e-08
4.66877e-10
1.39567e-09
1.9825e-08
2.61682e-10
1.65793e-09
1.97675e-08
8.50825e-11
1.90008e-09
1.97018e-08
-1.08073e-10
2.0391e-09
1.97559e-08
-1.7515e-10
2.02693e-09
1.98347e-08
-1.59188e-10
1.98312e-09
1.98616e-08
-8.33111e-11
1.92149e-09
1.98464e-08
-4.13765e-11
1.85914e-09
1.98664e-08
-3.32882e-11
1.83226e-09
1.9885e-08
-4.0613e-11
1.82663e-09
1.9898e-08
-5.5091e-11
1.82242e-09
1.99168e-08
-3.8583e-11
1.81053e-09
1.99124e-08
-1.37593e-12
2.14549e-09
1.96332e-08
-3.63916e-11
2.13783e-09
1.96568e-08
-3.95748e-11
2.12337e-09
1.96589e-08
-4.52158e-11
2.12118e-09
1.96568e-08
-5.87344e-11
2.13645e-09
1.96474e-08
-9.62213e-11
2.18537e-09
1.96285e-08
-1.67351e-10
2.23992e-09
1.96377e-08
-1.77981e-10
2.30195e-09
1.95784e-08
-1.07581e-10
2.23274e-09
1.95765e-08
8.28549e-11
2.05811e-09
1.95573e-08
2.5563e-10
1.78903e-09
1.96533e-08
4.55523e-10
1.50095e-09
1.97375e-08
5.97227e-10
1.28377e-09
1.98149e-08
6.56611e-10
1.08637e-09
1.9946e-08
6.38157e-10
1.02187e-09
2.0023e-08
6.36509e-10
1.00122e-09
2.00393e-08
6.63955e-10
1.02541e-09
1.99918e-08
6.08298e-10
1.20649e-09
1.98693e-08
4.7055e-10
1.39301e-09
1.9824e-08
2.65224e-10
1.65455e-09
1.97674e-08
8.91347e-11
1.89554e-09
1.97024e-08
-1.0328e-10
2.03284e-09
1.97574e-08
-1.69695e-10
2.02063e-09
1.98356e-08
-1.53697e-10
1.97729e-09
1.9862e-08
-7.83107e-11
1.9166e-09
1.98464e-08
-3.75375e-11
1.85511e-09
1.98666e-08
-3.05973e-11
1.82933e-09
1.98853e-08
-3.75651e-11
1.82357e-09
1.9898e-08
-5.18378e-11
1.81941e-09
1.99166e-08
-3.59393e-11
1.80776e-09
1.99125e-08
-5.35843e-12
2.14024e-09
1.96364e-08
-3.25279e-11
2.13258e-09
1.96573e-08
-3.49271e-11
2.11815e-09
1.96592e-08
-4.05583e-11
2.11579e-09
1.96574e-08
-5.26749e-11
2.12958e-09
1.96482e-08
-8.91502e-11
2.17733e-09
1.96295e-08
-1.60442e-10
2.23032e-09
1.96404e-08
-1.71307e-10
2.28948e-09
1.95844e-08
-1.01536e-10
2.22291e-09
1.95803e-08
8.86177e-11
2.05049e-09
1.95593e-08
2.6087e-10
1.78244e-09
1.96546e-08
4.6145e-10
1.49471e-09
1.97378e-08
6.0345e-10
1.2763e-09
1.98161e-08
6.62711e-10
1.07975e-09
1.99466e-08
6.43873e-10
1.01488e-09
2.00242e-08
6.42338e-10
9.94263e-10
2.00405e-08
6.70111e-10
1.01905e-09
1.99921e-08
6.14594e-10
1.19882e-09
1.98707e-08
4.76478e-10
1.3868e-09
1.98243e-08
2.70557e-10
1.64788e-09
1.97688e-08
9.50002e-11
1.88789e-09
1.97042e-08
-9.70915e-11
2.02268e-09
1.97614e-08
-1.62881e-10
2.01037e-09
1.9839e-08
-1.46609e-10
1.96775e-09
1.98644e-08
-7.10084e-11
1.90858e-09
1.98471e-08
-3.13544e-11
1.8484e-09
1.98671e-08
-2.57355e-11
1.8242e-09
1.98856e-08
-3.26014e-11
1.81874e-09
1.98979e-08
-4.68293e-11
1.81481e-09
1.99162e-08
-3.35016e-11
1.80524e-09
1.99127e-08
-1.12381e-11
2.13477e-09
1.96411e-08
-2.88729e-11
2.12666e-09
1.96581e-08
-3.02647e-11
2.11289e-09
1.96594e-08
-3.62327e-11
2.1109e-09
1.96578e-08
-4.80723e-11
2.12467e-09
1.96483e-08
-8.4089e-11
2.17231e-09
1.96294e-08
-1.55656e-10
2.2238e-09
1.96422e-08
-1.66573e-10
2.27873e-09
1.95907e-08
-9.69998e-11
2.21554e-09
1.95832e-08
9.34821e-11
2.04539e-09
1.95596e-08
2.6539e-10
1.77789e-09
1.96545e-08
4.66257e-10
1.49032e-09
1.97375e-08
6.07916e-10
1.27034e-09
1.98175e-08
6.66794e-10
1.07539e-09
1.99469e-08
6.47536e-10
1.00973e-09
2.00257e-08
6.4618e-10
9.89178e-10
2.00419e-08
6.74282e-10
1.01508e-09
1.99921e-08
6.19163e-10
1.19252e-09
1.98724e-08
4.81263e-10
1.38241e-09
1.98239e-08
2.75227e-10
1.64318e-09
1.97688e-08
1.00008e-10
1.88281e-09
1.97043e-08
-9.24111e-11
2.01505e-09
1.97644e-08
-1.58047e-10
2.00343e-09
1.98412e-08
-1.41688e-10
1.96166e-09
1.98657e-08
-6.56856e-11
1.90377e-09
1.98467e-08
-2.66999e-11
1.84387e-09
1.98671e-08
-2.11525e-11
1.81984e-09
1.98854e-08
-2.74555e-11
1.81419e-09
1.98974e-08
-4.15268e-11
1.81028e-09
1.99155e-08
-3.25523e-11
1.80409e-09
1.99129e-08
-1.65486e-11
2.1288e-09
1.96465e-08
-2.5424e-11
2.12012e-09
1.96592e-08
-2.54545e-11
2.10746e-09
1.96594e-08
-3.20639e-11
2.10643e-09
1.96578e-08
-4.50597e-11
2.12201e-09
1.96478e-08
-8.13287e-11
2.17061e-09
1.96283e-08
-1.52802e-10
2.22071e-09
1.96425e-08
-1.63491e-10
2.27034e-09
1.95964e-08
-9.3885e-11
2.21093e-09
1.95847e-08
9.7413e-11
2.04328e-09
1.9558e-08
2.6922e-10
1.776e-09
1.96525e-08
4.69829e-10
1.48852e-09
1.97359e-08
6.10336e-10
1.26677e-09
1.98185e-08
6.68524e-10
1.07403e-09
1.99466e-08
6.48816e-10
1.00717e-09
2.0027e-08
6.47712e-10
9.86707e-10
2.0043e-08
6.76119e-10
1.01423e-09
1.99913e-08
6.21714e-10
1.1885e-09
1.98739e-08
4.8478e-10
1.38063e-09
1.98222e-08
2.79257e-10
1.64109e-09
1.9767e-08
1.04113e-10
1.88075e-09
1.97024e-08
-8.91318e-11
2.0103e-09
1.97659e-08
-1.54899e-10
2.00019e-09
1.98413e-08
-1.38754e-10
1.9594e-09
1.9865e-08
-6.26584e-11
1.90255e-09
1.9845e-08
-2.37677e-11
1.84188e-09
1.98662e-08
-1.6859e-11
1.81634e-09
1.98847e-08
-2.19905e-11
1.80985e-09
1.98963e-08
-3.59331e-11
1.80589e-09
1.99143e-08
-3.17581e-11
1.80312e-09
1.99131e-08
-2.08343e-11
2.12241e-09
1.9652e-08
-2.21617e-11
2.11308e-09
1.96606e-08
-2.03054e-11
2.1017e-09
1.96592e-08
-2.79266e-11
2.10231e-09
1.96574e-08
-4.36782e-11
2.12171e-09
1.96465e-08
-8.08554e-11
2.17202e-09
1.96263e-08
-1.51497e-10
2.22089e-09
1.96411e-08
-1.61705e-10
2.26445e-09
1.9601e-08
-9.19579e-11
2.20899e-09
1.95849e-08
1.00326e-10
2.04416e-09
1.95544e-08
2.72432e-10
1.77686e-09
1.96484e-08
4.72244e-10
1.48936e-09
1.97328e-08
6.10801e-10
1.26565e-09
1.98189e-08
6.67953e-10
1.07546e-09
1.99459e-08
6.47732e-10
1.00702e-09
2.00283e-08
6.46943e-10
9.86676e-10
2.00441e-08
6.75669e-10
1.01629e-09
1.99899e-08
6.22337e-10
1.18682e-09
1.98751e-08
4.87114e-10
1.38146e-09
1.98191e-08
2.82713e-10
1.64169e-09
1.9763e-08
1.07212e-10
1.88171e-09
1.96984e-08
-8.7023e-11
2.00835e-09
1.97658e-08
-1.53084e-10
2.00042e-09
1.98393e-08
-1.37442e-10
1.96088e-09
1.98623e-08
-6.20399e-11
1.90481e-09
1.98422e-08
-2.26209e-11
1.8426e-09
1.98645e-08
-1.25735e-11
1.81347e-09
1.98834e-08
-1.60031e-11
1.80555e-09
1.98947e-08
-3.00602e-11
1.80169e-09
1.99127e-08
-3.06425e-11
1.80195e-09
1.99133e-08
-2.40551e-11
2.11602e-09
1.96571e-08
-1.92607e-11
2.10605e-09
1.96618e-08
-1.50466e-11
2.09606e-09
1.96585e-08
-2.41828e-11
2.0992e-09
1.96562e-08
-4.47004e-11
2.12489e-09
1.9644e-08
-8.29382e-11
2.17728e-09
1.9623e-08
-1.51678e-10
2.22523e-09
1.96371e-08
-1.61251e-10
2.26219e-09
1.96034e-08
-9.13196e-11
2.21054e-09
1.95828e-08
1.01585e-10
2.04887e-09
1.95487e-08
2.74618e-10
1.78127e-09
1.96417e-08
4.73017e-10
1.49355e-09
1.9728e-08
6.08753e-10
1.26776e-09
1.98186e-08
6.64441e-10
1.08019e-09
1.99448e-08
6.43634e-10
1.00997e-09
2.00295e-08
6.43214e-10
9.89761e-10
2.0045e-08
6.72283e-10
1.02171e-09
1.99881e-08
6.20467e-10
1.18832e-09
1.98755e-08
4.87784e-10
1.38562e-09
1.98143e-08
2.85172e-10
1.6458e-09
1.97565e-08
1.0869e-10
1.88647e-09
1.96923e-08
-8.62151e-11
2.01013e-09
1.97633e-08
-1.52665e-10
2.00489e-09
1.98345e-08
-1.3772e-10
1.967e-09
1.98566e-08
-6.42749e-11
1.91135e-09
1.9838e-08
-2.40494e-11
1.84713e-09
1.98615e-08
-8.50314e-12
1.81162e-09
1.98813e-08
-9.65415e-12
1.80165e-09
1.98924e-08
-2.41782e-11
1.79807e-09
1.99106e-08
-2.91995e-11
1.80068e-09
1.99132e-08
-2.6371e-11
2.10998e-09
1.96616e-08
-1.69706e-11
2.09983e-09
1.96626e-08
-1.0453e-11
2.09144e-09
1.96572e-08
-2.2113e-11
2.09871e-09
1.9654e-08
-4.90032e-11
2.13315e-09
1.96397e-08
-8.80906e-11
2.18791e-09
1.96174e-08
-1.53181e-10
2.23517e-09
1.96288e-08
-1.62073e-10
2.2652e-09
1.96018e-08
-9.20278e-11
2.217e-09
1.95773e-08
1.00425e-10
2.0588e-09
1.95402e-08
2.75047e-10
1.79068e-09
1.96318e-08
4.71279e-10
1.50247e-09
1.9721e-08
6.0316e-10
1.27457e-09
1.98172e-08
6.56819e-10
1.08946e-09
1.99433e-08
6.35453e-10
1.01753e-09
2.00301e-08
6.35443e-10
9.97469e-10
2.00455e-08
6.64786e-10
1.03172e-09
1.99859e-08
6.15061e-10
1.19449e-09
1.98748e-08
4.85918e-10
1.3945e-09
1.98073e-08
2.8589e-10
1.65488e-09
1.97468e-08
1.0783e-10
1.89643e-09
1.96833e-08
-8.67818e-11
2.01711e-09
1.97569e-08
-1.53622e-10
2.01492e-09
1.98255e-08
-1.39438e-10
1.97928e-09
1.98461e-08
-6.98425e-11
1.9237e-09
1.98314e-08
-2.89554e-11
1.85707e-09
1.98566e-08
-5.89941e-12
1.81237e-09
1.98781e-08
-3.43966e-12
1.79891e-09
1.9889e-08
-1.8632e-11
1.79556e-09
1.99077e-08
-2.74759e-11
1.79955e-09
1.99127e-08
-2.79564e-11
2.1047e-09
1.96651e-08
-1.57583e-11
2.09518e-09
1.96628e-08
-7.77465e-12
2.08905e-09
1.96554e-08
-2.42754e-11
2.10396e-09
1.96501e-08
-5.72824e-11
2.14804e-09
1.96327e-08
-9.7238e-11
2.20561e-09
1.96088e-08
-1.56596e-10
2.2523e-09
1.96153e-08
-1.63973e-10
2.27619e-09
1.95932e-08
-9.39311e-11
2.23006e-09
1.95664e-08
9.62526e-11
2.07566e-09
1.95278e-08
2.72744e-10
1.80701e-09
1.96177e-08
4.65923e-10
1.51807e-09
1.9711e-08
5.92677e-10
1.28806e-09
1.9814e-08
6.43606e-10
1.10546e-09
1.99406e-08
6.21934e-10
1.03183e-09
2.00294e-08
6.22363e-10
1.01194e-09
2.00445e-08
6.51688e-10
1.04846e-09
1.99826e-08
6.0476e-10
1.20735e-09
1.98724e-08
4.80403e-10
1.41004e-09
1.97973e-08
2.83881e-10
1.67086e-09
1.97329e-08
1.04036e-10
1.91329e-09
1.96703e-08
-8.8579e-11
2.03104e-09
1.97449e-08
-1.55728e-10
2.03295e-09
1.98096e-08
-1.43175e-10
1.99931e-09
1.98299e-08
-7.96002e-11
1.94349e-09
1.98215e-08
-3.80108e-11
1.8739e-09
1.9849e-08
-7.56796e-12
1.81907e-09
1.98732e-08
1.47558e-12
1.79845e-09
1.98847e-08
-1.39041e-11
1.79473e-09
1.99039e-08
-2.55159e-11
1.79889e-09
1.99115e-08
-2.90935e-11
2.10062e-09
1.96672e-08
-1.61083e-11
2.09279e-09
1.96623e-08
-8.21226e-12
2.09049e-09
1.96526e-08
-3.18034e-11
2.11723e-09
1.96435e-08
-7.02966e-11
2.17064e-09
1.96226e-08
-1.1173e-10
2.23188e-09
1.95968e-08
-1.6353e-10
2.27909e-09
1.95956e-08
-1.67691e-10
2.30173e-09
1.9572e-08
-9.75488e-11
2.2527e-09
1.95476e-08
8.8575e-11
2.10126e-09
1.95102e-08
2.66426e-10
1.83277e-09
1.95983e-08
4.55592e-10
1.54288e-09
1.96967e-08
5.75613e-10
1.31073e-09
1.98081e-08
6.23192e-10
1.13135e-09
1.99352e-08
6.01771e-10
1.05578e-09
2.00257e-08
6.02651e-10
1.03608e-09
2.00405e-08
6.31363e-10
1.07507e-09
1.99766e-08
5.87864e-10
1.22945e-09
1.98673e-08
4.69868e-10
1.43479e-09
1.97832e-08
2.77861e-10
1.69623e-09
1.97137e-08
9.66828e-11
1.93889e-09
1.96522e-08
-9.21229e-11
2.05498e-09
1.97246e-08
-1.5948e-10
2.06548e-09
1.97809e-08
-1.50522e-10
2.02958e-09
1.98071e-08
-9.49294e-11
1.97226e-09
1.98082e-08
-5.18993e-11
1.89867e-09
1.98383e-08
-1.47028e-11
1.83395e-09
1.98656e-08
3.51228e-12
1.80174e-09
1.98795e-08
-1.04724e-11
1.79606e-09
1.98993e-08
-2.34505e-11
1.79918e-09
1.99092e-08
-3.00959e-11
2.09836e-09
1.96677e-08
-1.81175e-11
2.09332e-09
1.96606e-08
-1.2158e-11
2.09727e-09
1.96478e-08
-4.40059e-11
2.13885e-09
1.9633e-08
-8.91875e-11
2.20135e-09
1.96103e-08
-1.32787e-10
2.26881e-09
1.95808e-08
-1.75033e-10
2.32221e-09
1.95641e-08
-1.74165e-10
2.34703e-09
1.95336e-08
-1.04345e-10
2.29285e-09
1.95145e-08
7.64868e-11
2.13735e-09
1.94865e-08
2.54494e-10
1.87088e-09
1.95722e-08
4.38624e-10
1.5799e-09
1.96768e-08
5.4987e-10
1.34625e-09
1.97981e-08
5.93933e-10
1.17101e-09
1.99248e-08
5.73821e-10
1.09342e-09
2.0016e-08
5.7515e-10
1.07392e-09
2.00306e-08
6.02146e-10
1.11542e-09
1.99657e-08
5.62271e-10
1.26443e-09
1.9858e-08
4.52629e-10
1.47178e-09
1.97634e-08
2.66241e-10
1.73393e-09
1.96877e-08
8.49234e-11
1.97499e-09
1.96279e-08
-9.86033e-11
2.09701e-09
1.96891e-08
-1.66047e-10
2.11767e-09
1.97353e-08
-1.6258e-10
2.07695e-09
1.97719e-08
-1.17049e-10
2.01214e-09
1.97906e-08
-7.1673e-11
1.93178e-09
1.98252e-08
-2.65001e-11
1.85742e-09
1.98541e-08
2.08733e-12
1.81015e-09
1.98727e-08
-8.63762e-12
1.80003e-09
1.98936e-08
-2.14663e-11
1.80107e-09
1.99055e-08
-3.11827e-11
2.09862e-09
1.9666e-08
-2.17956e-11
2.09756e-09
1.96572e-08
-2.01071e-11
2.11169e-09
1.96392e-08
-6.20296e-11
2.17061e-09
1.96181e-08
-1.15005e-10
2.24208e-09
1.95947e-08
-1.59372e-10
2.32264e-09
1.95533e-08
-1.89685e-10
2.38559e-09
1.95155e-08
-1.81165e-10
2.41056e-09
1.94775e-08
-1.12677e-10
2.35468e-09
1.94614e-08
5.95121e-11
2.18709e-09
1.9454e-08
2.35538e-10
1.92429e-09
1.95378e-08
4.13078e-10
1.63271e-09
1.96498e-08
5.13284e-10
1.39995e-09
1.97807e-08
5.54403e-10
1.22944e-09
1.9906e-08
5.37231e-10
1.15054e-09
1.99956e-08
5.38989e-10
1.13124e-09
2.00099e-08
5.62588e-10
1.17449e-09
1.99464e-08
5.25806e-10
1.31765e-09
1.98414e-08
4.2674e-10
1.52468e-09
1.97364e-08
2.47594e-10
1.78695e-09
1.96534e-08
6.84734e-11
2.02495e-09
1.95944e-08
-1.061e-10
2.16143e-09
1.96322e-08
-1.73448e-10
2.18785e-09
1.96726e-08
-1.78158e-10
2.14542e-09
1.97191e-08
-1.44942e-10
2.06951e-09
1.97612e-08
-9.82965e-11
1.9751e-09
1.98086e-08
-4.4005e-11
1.89119e-09
1.9838e-08
-3.53487e-12
1.82604e-09
1.98626e-08
-8.52098e-12
1.80735e-09
1.98863e-08
-1.96878e-11
1.80524e-09
1.98997e-08
-3.23117e-11
2.10211e-09
1.96613e-08
-2.71e-11
2.10684e-09
1.96506e-08
-3.63569e-11
2.13945e-09
1.96255e-08
-8.74751e-11
2.21423e-09
1.95985e-08
-1.45968e-10
2.29991e-09
1.95671e-08
-1.88028e-10
2.39643e-09
1.95079e-08
-2.02607e-10
2.46249e-09
1.94517e-08
-1.82188e-10
2.48657e-09
1.94029e-08
-1.1504e-10
2.43116e-09
1.93876e-08
4.01356e-11
2.25929e-09
1.94015e-08
2.09937e-10
1.99601e-09
1.94918e-08
3.77443e-10
1.70775e-09
1.96106e-08
4.64526e-10
1.47984e-09
1.97493e-08
5.04454e-10
1.31466e-09
1.98706e-08
4.91762e-10
1.23488e-09
1.99568e-08
4.93921e-10
1.21577e-09
1.99709e-08
5.12516e-10
1.26031e-09
1.99108e-08
4.77129e-10
1.39714e-09
1.98107e-08
3.90674e-10
1.59978e-09
1.96974e-08
2.2219e-10
1.85839e-09
1.96075e-08
4.98405e-11
2.09766e-09
1.95404e-08
-1.07496e-10
2.24076e-09
1.95544e-08
-1.74824e-10
2.26996e-09
1.95919e-08
-1.92545e-10
2.2281e-09
1.96509e-08
-1.7526e-10
2.14757e-09
1.97137e-08
-1.30195e-10
2.03569e-09
1.97801e-08
-6.92751e-11
1.93712e-09
1.98176e-08
-1.81423e-11
1.85545e-09
1.9848e-08
-1.04891e-11
1.81936e-09
1.98765e-08
-1.79504e-11
1.81234e-09
1.9891e-08
-3.42348e-11
2.1107e-09
1.96525e-08
-3.51907e-11
2.12395e-09
1.96393e-08
-6.22745e-11
2.1822e-09
1.96065e-08
-1.20046e-10
2.27001e-09
1.95739e-08
-1.78232e-10
2.37744e-09
1.9521e-08
-2.1212e-10
2.4797e-09
1.94484e-08
-2.10003e-10
2.5484e-09
1.93733e-08
-1.87923e-10
2.58328e-09
1.93124e-08
-1.20203e-10
2.52609e-09
1.92983e-08
1.7333e-11
2.35908e-09
1.93248e-08
1.81757e-10
2.09186e-09
1.94244e-08
3.33664e-10
1.81201e-09
1.95503e-08
4.0631e-10
1.59878e-09
1.96884e-08
4.47047e-10
1.44079e-09
1.9802e-08
4.38776e-10
1.36073e-09
1.98841e-08
4.41282e-10
1.3418e-09
1.9898e-08
4.54908e-10
1.38696e-09
1.9842e-08
4.18782e-10
1.51576e-09
1.97506e-08
3.46391e-10
1.70169e-09
1.96397e-08
1.93875e-10
1.95417e-09
1.95402e-08
2.76024e-11
2.19813e-09
1.94622e-08
-1.12237e-10
2.33888e-09
1.94611e-08
-1.80694e-10
2.37263e-09
1.94952e-08
-2.01317e-10
2.31984e-09
1.9568e-08
-2.01794e-10
2.23614e-09
1.96517e-08
-1.63801e-10
2.1165e-09
1.97331e-08
-1.02565e-10
1.99559e-09
1.97926e-08
-4.33594e-11
1.90047e-09
1.98284e-08
-1.6335e-11
1.83912e-09
1.98628e-08
-1.72459e-11
1.82426e-09
1.98786e-08
-4.58137e-11
2.1331e-09
1.96397e-08
-5.53274e-11
2.1577e-09
1.96237e-08
-9.70961e-11
2.23746e-09
1.95841e-08
-1.55979e-10
2.34186e-09
1.95365e-08
-2.05494e-10
2.46419e-09
1.94606e-08
-2.26577e-10
2.56708e-09
1.93752e-08
-2.23542e-10
2.65304e-09
1.92823e-08
-2.07685e-10
2.69985e-09
1.92158e-08
-1.38467e-10
2.63787e-09
1.92051e-08
-1.2279e-11
2.47539e-09
1.92384e-08
1.47755e-10
2.21516e-09
1.93354e-08
2.93658e-10
1.94257e-09
1.946e-08
3.52833e-10
1.74977e-09
1.95908e-08
3.95324e-10
1.59855e-09
1.96961e-08
3.90413e-10
1.51902e-09
1.97745e-08
3.93175e-10
1.50025e-09
1.97882e-08
4.02891e-10
1.54515e-09
1.97361e-08
3.64619e-10
1.66656e-09
1.96543e-08
3.05718e-10
1.82946e-09
1.95526e-08
1.59626e-10
2.07776e-09
1.9451e-08
-1.72013e-12
2.3152e-09
1.93744e-08
-1.30506e-10
2.45405e-09
1.93642e-08
-2.01111e-10
2.49539e-09
1.93928e-08
-2.15988e-10
2.4305e-09
1.94721e-08
-2.18733e-10
2.32888e-09
1.95761e-08
-1.94318e-10
2.20854e-09
1.96718e-08
-1.40108e-10
2.07125e-09
1.97546e-08
-7.86005e-11
1.95938e-09
1.9805e-08
-3.58377e-11
1.87639e-09
1.98453e-08
-2.72154e-11
1.8504e-09
1.98626e-08
-7.28831e-11
2.17342e-09
1.96246e-08
-8.86144e-11
2.20655e-09
1.96062e-08
-1.37104e-10
2.30039e-09
1.95594e-08
-1.87804e-10
2.42487e-09
1.94839e-08
-2.2115e-10
2.55201e-09
1.93876e-08
-2.34195e-10
2.66356e-09
1.9286e-08
-2.46467e-10
2.77239e-09
1.91859e-08
-2.27278e-10
2.81176e-09
1.91237e-08
-1.55785e-10
2.74204e-09
1.91185e-08
-3.925e-11
2.58474e-09
1.91562e-08
1.06409e-10
2.34984e-09
1.92423e-08
2.49557e-10
2.09955e-09
1.93473e-08
3.12908e-10
1.91438e-09
1.94659e-08
3.5756e-10
1.76798e-09
1.95644e-08
3.56186e-10
1.68562e-09
1.96421e-08
3.5911e-10
1.66698e-09
1.96557e-08
3.64798e-10
1.71487e-09
1.96045e-08
3.23985e-10
1.83116e-09
1.95304e-08
2.60906e-10
1.98695e-09
1.94399e-08
1.18174e-10
2.21253e-09
1.93576e-08
-2.85825e-11
2.42522e-09
1.92912e-08
-1.47782e-10
2.56118e-09
1.92743e-08
-2.21849e-10
2.61305e-09
1.92959e-08
-2.41218e-10
2.55617e-09
1.93717e-08
-2.27605e-10
2.42977e-09
1.94842e-08
-2.1383e-10
2.30167e-09
1.95983e-08
-1.77179e-10
2.16221e-09
1.9701e-08
-1.20282e-10
2.02771e-09
1.97785e-08
-6.91578e-11
1.92979e-09
1.98254e-08
-5.34377e-11
1.89507e-09
1.98443e-08
-1.08563e-10
2.221e-09
1.96111e-08
-1.24759e-10
2.25669e-09
1.95906e-08
-1.70763e-10
2.36629e-09
1.95257e-08
-2.04731e-10
2.50678e-09
1.94177e-08
-2.27197e-10
2.64555e-09
1.92993e-08
-2.46838e-10
2.77294e-09
1.9189e-08
-2.64583e-10
2.87872e-09
1.90976e-08
-2.38017e-10
2.89691e-09
1.90495e-08
-1.59144e-10
2.81098e-09
1.90531e-08
-4.81276e-11
2.65437e-09
1.90955e-08
7.7002e-11
2.45434e-09
1.91672e-08
1.98499e-10
2.25473e-09
1.92431e-08
2.72325e-10
2.08379e-09
1.93368e-08
3.20383e-10
1.94498e-09
1.94244e-08
3.23314e-10
1.85656e-09
1.9504e-08
3.26355e-10
1.83802e-09
1.95176e-08
3.27395e-10
1.89203e-09
1.94647e-08
2.83282e-10
2.0002e-09
1.94019e-08
2.09201e-10
2.14294e-09
1.93353e-08
8.8623e-11
2.31716e-09
1.92823e-08
-3.72693e-11
2.49525e-09
1.92297e-08
-1.51215e-10
2.6327e-09
1.92061e-08
-2.32971e-10
2.70338e-09
1.92167e-08
-2.6188e-10
2.66864e-09
1.92799e-08
-2.41389e-10
2.54387e-09
1.9384e-08
-2.18658e-10
2.396e-09
1.95089e-08
-1.99062e-10
2.25096e-09
1.96344e-08
-1.56963e-10
2.09985e-09
1.97432e-08
-1.05397e-10
1.98484e-09
1.98067e-08
-8.77642e-11
1.94697e-09
1.98269e-08
-1.52987e-10
2.26967e-09
1.96054e-08
-1.60761e-10
2.30669e-09
1.95755e-08
-1.87275e-10
2.43025e-09
1.94768e-08
-2.14258e-10
2.59327e-09
1.93395e-08
-2.43914e-10
2.75291e-09
1.92079e-08
-2.67908e-10
2.87683e-09
1.91056e-08
-2.72035e-10
2.94603e-09
1.90376e-08
-2.29101e-10
2.9242e-09
1.90132e-08
-1.32635e-10
2.80451e-09
1.90332e-08
-1.49624e-11
2.63643e-09
1.90809e-08
8.98165e-11
2.47173e-09
1.91371e-08
1.80559e-10
2.33729e-09
1.91778e-08
2.47236e-10
2.20551e-09
1.92393e-08
3.01464e-10
2.07727e-09
1.93103e-08
3.08668e-10
1.9809e-09
1.93939e-08
3.11833e-10
1.96241e-09
1.94075e-08
3.08393e-10
2.02429e-09
1.93509e-08
2.58044e-10
2.12155e-09
1.93051e-08
1.90637e-10
2.22612e-09
1.92699e-08
1.01204e-10
2.33482e-09
1.92518e-08
-3.15303e-12
2.47729e-09
1.92139e-08
-1.24964e-10
2.62865e-09
1.91836e-08
-2.24732e-10
2.73585e-09
1.91759e-08
-2.69537e-10
2.74272e-09
1.92136e-08
-2.62811e-10
2.65451e-09
1.92949e-08
-2.29372e-10
2.50271e-09
1.94131e-08
-2.02566e-10
2.33355e-09
1.95551e-08
-1.74837e-10
2.16656e-09
1.96945e-08
-1.40341e-10
2.03802e-09
1.97889e-08
-1.29903e-10
1.99943e-09
1.98168e-08
-2.01471e-10
2.31087e-09
1.96113e-08
-1.96402e-10
2.3533e-09
1.95635e-08
-2.08523e-10
2.50043e-09
1.94272e-08
-2.37689e-10
2.69017e-09
1.92651e-08
-2.63191e-10
2.84405e-09
1.91352e-08
-2.77486e-10
2.93804e-09
1.90535e-08
-2.6033e-10
2.95875e-09
1.9013e-08
-1.91585e-10
2.88012e-09
1.902e-08
-6.37049e-11
2.70742e-09
1.9062e-08
7.37943e-11
2.51055e-09
1.91187e-08
1.70383e-10
2.36909e-09
1.91606e-08
2.27505e-10
2.29928e-09
1.91692e-08
2.83006e-10
2.21498e-09
1.91937e-08
3.49208e-10
2.09856e-09
1.92409e-08
3.59187e-10
1.99451e-09
1.93301e-08
3.62486e-10
1.976e-09
1.93436e-08
3.56214e-10
2.04527e-09
1.92817e-08
2.93759e-10
2.13039e-09
1.92601e-08
2.37046e-10
2.18838e-09
1.92613e-08
1.81188e-10
2.23274e-09
1.9275e-08
8.58456e-11
2.35103e-09
1.92515e-08
-5.63369e-11
2.53411e-09
1.921e-08
-1.88379e-10
2.69747e-09
1.91781e-08
-2.57629e-10
2.76322e-09
1.91813e-08
-2.72132e-10
2.72572e-09
1.92331e-08
-2.52602e-10
2.60661e-09
1.93325e-08
-2.21693e-10
2.43098e-09
1.94771e-08
-1.91107e-10
2.23325e-09
1.96443e-08
-1.74462e-10
2.08602e-09
1.97752e-08
-1.78044e-10
2.04538e-09
1.98188e-08
-2.33971e-10
2.33553e-09
1.96187e-08
-2.23865e-10
2.38785e-09
1.95557e-08
-2.3098e-10
2.55838e-09
1.93911e-08
-2.50771e-10
2.7506e-09
1.92174e-08
-2.69244e-10
2.89112e-09
1.90939e-08
-2.72033e-10
2.95824e-09
1.90278e-08
-2.35841e-10
2.93941e-09
1.90082e-08
-1.43014e-10
2.81098e-09
1.90416e-08
1.221e-11
2.59193e-09
1.91026e-08
1.70512e-10
2.35803e-09
1.9174e-08
2.70303e-10
2.22507e-09
1.92062e-08
3.04704e-10
2.20307e-09
1.91903e-08
3.58737e-10
2.15378e-09
1.91799e-08
4.33142e-10
2.05212e-09
1.92019e-08
4.48193e-10
1.94208e-09
1.92951e-08
4.51659e-10
1.92351e-09
1.93086e-08
4.40312e-10
1.99832e-09
1.92431e-08
3.69863e-10
2.06806e-09
1.92469e-08
3.13908e-10
2.09213e-09
1.92826e-08
2.80239e-10
2.08917e-09
1.93208e-08
1.82355e-10
2.19757e-09
1.93075e-08
1.86175e-11
2.42117e-09
1.92489e-08
-1.41556e-10
2.63312e-09
1.91967e-08
-2.33444e-10
2.7496e-09
1.91712e-08
-2.66867e-10
2.75227e-09
1.92016e-08
-2.61947e-10
2.66242e-09
1.92863e-08
-2.3993e-10
2.49854e-09
1.94279e-08
-2.13367e-10
2.29018e-09
1.96097e-08
-2.02095e-10
2.12719e-09
1.97617e-08
-2.11959e-10
2.08246e-09
1.98154e-08
)
;

boundaryField
{
    freeSurface
    {
        type            slip;
    }
    inlet
    {
        type            cyclic;
    }
    outlet
    {
        type            cyclic;
    }
    sidewalls
    {
        type            zeroGradient;
    }
    noSlipWalls
    {
        type            zeroGradient;
    }
}


// ************************************************************************* //
