/*--------------------------------*- C++ -*----------------------------------*\
  =========                 |
  \\      /  F ield         | OpenFOAM: The Open Source CFD Toolbox
   \\    /   O peration     | Website:  https://openfoam.org
    \\  /    A nd           | Version:  6
     \\/     M anipulation  |
\*---------------------------------------------------------------------------*/
FoamFile
{
    version     2.0;
    format      ascii;
    class       volVectorField;
    location    "60";
    object      U;
}
// * * * * * * * * * * * * * * * * * * * * * * * * * * * * * * * * * * * * * //

dimensions      [0 1 -1 0 0 0 0];

internalField   nonuniform List<vector> 
1800
(
(0.0973605 4.81199e-10 6.14925e-11)
(0.0973604 -2.02073e-10 -1.05887e-10)
(0.0973607 -1.27319e-10 -2.41023e-12)
(0.132394 7.23825e-10 1.13885e-10)
(0.132394 -1.24897e-10 -1.20138e-10)
(0.132395 -3.74823e-10 1.52973e-12)
(0.151709 1.17068e-09 1.18456e-10)
(0.151709 -2.51835e-10 -1.36228e-10)
(0.151709 -6.75286e-10 1.68826e-11)
(0.164804 2.36451e-09 1.35968e-10)
(0.164804 -8.01873e-10 -1.62218e-10)
(0.164805 -1.32289e-09 2.7038e-11)
(0.17488 3.19009e-09 1.96142e-10)
(0.17488 -1.21109e-09 -2.36134e-10)
(0.174881 -1.77072e-09 4.08856e-11)
(0.183143 3.46399e-09 2.30546e-10)
(0.183143 -1.025e-09 -2.92164e-10)
(0.183143 -2.24897e-09 6.22292e-11)
(0.190257 1.66751e-09 2.36241e-10)
(0.190258 -4.66756e-10 -3.24791e-10)
(0.190258 -1.0318e-09 8.88157e-11)
(0.196656 -1.4661e-09 2.22263e-10)
(0.196656 3.42905e-10 -3.45017e-10)
(0.196657 1.28261e-09 1.234e-10)
(0.202613 -4.51688e-09 1.86615e-10)
(0.202613 2.72251e-09 -3.01888e-10)
(0.202613 1.95683e-09 1.14707e-10)
(0.208255 -5.58906e-09 1.55368e-10)
(0.208255 5.74301e-09 -2.41232e-10)
(0.208255 5.73249e-12 8.59431e-11)
(0.213552 -4.47127e-09 1.38278e-10)
(0.213552 7.07056e-09 -1.92198e-10)
(0.213552 -2.43423e-09 5.32694e-11)
(0.218326 -2.39057e-09 1.60627e-10)
(0.218326 5.78063e-09 -1.69352e-10)
(0.218326 -3.2023e-09 8.59001e-12)
(0.222297 -5.18768e-11 1.82424e-10)
(0.222297 3.23088e-09 -1.81701e-10)
(0.222298 -2.98765e-09 -1.11418e-12)
(0.225188 1.00309e-09 1.87056e-10)
(0.225188 1.28805e-09 -1.81756e-10)
(0.225188 -2.10943e-09 -4.94247e-12)
(0.226781 6.574e-10 1.80396e-10)
(0.226781 2.66239e-10 -1.79133e-10)
(0.226781 -7.64841e-10 -1.536e-12)
(0.22678 -3.93035e-10 1.80406e-10)
(0.22678 -1.3079e-10 -1.78782e-10)
(0.226781 7.37215e-10 -1.73871e-12)
(0.225187 -7.26153e-10 1.87417e-10)
(0.225187 -1.18673e-09 -1.80101e-10)
(0.225187 2.1101e-09 -6.85778e-12)
(0.222296 3.54229e-10 1.82885e-10)
(0.222296 -3.22882e-09 -1.81332e-10)
(0.222297 3.03679e-09 -1.15974e-12)
(0.218324 2.72683e-09 1.61312e-10)
(0.218325 -5.88368e-09 -1.68511e-10)
(0.218325 3.29329e-09 7.56855e-12)
(0.213551 4.84509e-09 1.38637e-10)
(0.213551 -7.22414e-09 -1.92029e-10)
(0.213551 2.48548e-09 5.3634e-11)
(0.208253 5.93698e-09 1.567e-10)
(0.208254 -5.86705e-09 -2.44168e-10)
(0.208254 2.49184e-11 8.7789e-11)
(0.202611 4.68354e-09 1.9122e-10)
(0.202612 -2.63637e-09 -3.12166e-10)
(0.202612 -1.97832e-09 1.21128e-10)
(0.196653 1.40777e-09 2.27154e-10)
(0.196654 1.86963e-11 -3.42032e-10)
(0.196654 -1.36796e-09 1.14998e-10)
(0.190254 -1.87625e-09 2.42423e-10)
(0.190255 9.2674e-10 -3.34582e-10)
(0.190255 9.92336e-10 9.23417e-11)
(0.183139 -3.7266e-09 2.35515e-10)
(0.183139 1.43217e-09 -2.96854e-10)
(0.183139 2.32555e-09 6.15597e-11)
(0.174876 -3.28417e-09 1.98415e-10)
(0.174876 1.3562e-09 -2.36689e-10)
(0.174877 1.94992e-09 3.86018e-11)
(0.1648 -2.12832e-09 1.34461e-10)
(0.1648 6.09584e-10 -1.58921e-10)
(0.164801 1.53516e-09 2.47532e-11)
(0.151705 -7.29986e-10 1.20711e-10)
(0.151705 -6.4564e-11 -1.37073e-10)
(0.151706 8.06766e-10 1.66749e-11)
(0.132392 -3.28525e-10 1.26026e-10)
(0.132392 -1.51102e-10 -1.24359e-10)
(0.132392 4.86388e-10 -1.22305e-12)
(0.0973581 -2.41721e-10 1.24223e-10)
(0.097358 -8.24007e-12 -1.18836e-10)
(0.0973583 2.52348e-10 -4.88264e-12)
(0.113384 4.71936e-10 1.73965e-10)
(0.113384 -2.24937e-10 -1.73289e-10)
(0.113385 -1.04037e-10 -3.9501e-11)
(0.156545 7.93392e-10 2.32614e-10)
(0.156545 -1.80654e-10 -2.5106e-10)
(0.156545 -3.9388e-10 1.25574e-11)
(0.177611 1.37663e-09 2.7886e-10)
(0.177611 -3.40701e-10 -3.2174e-10)
(0.177611 -7.78891e-10 4.14427e-11)
(0.191703 2.72337e-09 3.69087e-10)
(0.191703 -9.41626e-10 -4.40916e-10)
(0.191703 -1.52239e-09 7.3126e-11)
(0.202382 3.60192e-09 5.1353e-10)
(0.202382 -1.33989e-09 -6.52191e-10)
(0.202382 -2.03532e-09 1.40415e-10)
(0.211028 3.86545e-09 5.60223e-10)
(0.211029 -1.08596e-09 -8.24633e-10)
(0.211029 -2.57278e-09 2.65627e-10)
(0.218401 1.84893e-09 5.03242e-10)
(0.218402 -4.24848e-10 -9.23918e-10)
(0.218402 -1.24077e-09 4.21244e-10)
(0.224983 -1.64139e-09 4.5308e-10)
(0.224984 4.39935e-10 -9.41274e-10)
(0.224984 1.37837e-09 4.88585e-10)
(0.23108 -5.03196e-09 3.84219e-10)
(0.231081 3.03118e-09 -8.3114e-10)
(0.231081 2.18272e-09 4.46465e-10)
(0.236836 -6.22021e-09 3.58193e-10)
(0.236836 6.39341e-09 -7.06791e-10)
(0.236837 4.26365e-12 3.48595e-10)
(0.242229 -4.9707e-09 3.2877e-10)
(0.242229 7.86084e-09 -6.27565e-10)
(0.24223 -2.70722e-09 2.9815e-10)
(0.247083 -2.65051e-09 4.27192e-10)
(0.247083 6.44776e-09 -6.2012e-10)
(0.247084 -3.58871e-09 1.92564e-10)
(0.251118 -5.75655e-11 5.32614e-10)
(0.251118 3.62352e-09 -6.73232e-10)
(0.251119 -3.35418e-09 1.40464e-10)
(0.254054 1.11078e-09 5.49555e-10)
(0.254054 1.45677e-09 -6.93372e-10)
(0.254054 -2.36787e-09 1.44165e-10)
(0.255671 7.28868e-10 5.26503e-10)
(0.255671 3.07544e-10 -6.77843e-10)
(0.255672 -8.61444e-10 1.50931e-10)
(0.255671 -4.37308e-10 5.26732e-10)
(0.255671 -1.71518e-10 -6.77756e-10)
(0.255671 8.46146e-10 1.50676e-10)
(0.254053 -8.04001e-10 5.50911e-10)
(0.254053 -1.3539e-09 -6.9282e-10)
(0.254053 2.37868e-09 1.42403e-10)
(0.251117 3.93457e-10 5.34992e-10)
(0.251117 -3.63175e-09 -6.72124e-10)
(0.251118 3.42063e-09 1.37837e-10)
(0.247082 3.02375e-09 4.31014e-10)
(0.247082 -6.57833e-09 -6.19765e-10)
(0.247082 3.70791e-09 1.8944e-10)
(0.242228 5.38425e-09 3.29374e-10)
(0.242228 -8.04981e-09 -6.26506e-10)
(0.242228 2.78471e-09 2.97698e-10)
(0.236835 6.60608e-09 3.5715e-10)
(0.236835 -6.55937e-09 -7.12276e-10)
(0.236836 5.97116e-11 3.5578e-10)
(0.231079 5.21556e-09 3.93527e-10)
(0.231079 -2.99092e-09 -8.46882e-10)
(0.23108 -2.14738e-09 4.53957e-10)
(0.224981 1.57321e-09 4.65357e-10)
(0.224981 -5.57092e-11 -9.61488e-10)
(0.224982 -1.45198e-09 4.96641e-10)
(0.218398 -2.0865e-09 5.21095e-10)
(0.218398 9.64561e-10 -9.52658e-10)
(0.218399 1.16983e-09 4.32175e-10)
(0.211024 -4.16173e-09 5.776e-10)
(0.211025 1.53746e-09 -8.50375e-10)
(0.211025 2.65921e-09 2.73353e-10)
(0.202377 -3.71309e-09 5.3565e-10)
(0.202377 1.48312e-09 -6.73209e-10)
(0.202378 2.25478e-09 1.38121e-10)
(0.191698 -2.47929e-09 3.79756e-10)
(0.191698 7.03596e-10 -4.47902e-10)
(0.191699 1.79434e-09 6.85974e-11)
(0.177607 -9.04783e-10 2.84866e-10)
(0.177607 -6.2468e-11 -3.24919e-10)
(0.177607 9.81083e-10 4.05733e-11)
(0.156542 -3.84391e-10 2.53e-10)
(0.156542 -2.08778e-10 -2.637e-10)
(0.156542 6.01252e-10 1.14168e-11)
(0.113382 -2.29162e-10 2.36501e-10)
(0.113382 -5.51072e-11 -2.06119e-10)
(0.113382 2.87296e-10 -2.97056e-11)
(0.123745 4.67779e-10 2.84384e-10)
(0.123745 -1.88571e-10 -2.75538e-10)
(0.123746 -1.13875e-10 -6.69157e-11)
(0.170686 8.51186e-10 4.03507e-10)
(0.170686 -1.54355e-10 -4.29269e-10)
(0.170687 -4.47543e-10 1.53378e-11)
(0.193048 1.51437e-09 4.72382e-10)
(0.193048 -3.71666e-10 -5.36957e-10)
(0.193048 -8.63703e-10 6.20088e-11)
(0.208089 2.92211e-09 6.01692e-10)
(0.208089 -1.0126e-09 -7.15218e-10)
(0.20809 -1.62984e-09 1.15522e-10)
(0.219412 3.78401e-09 8.30347e-10)
(0.219412 -1.38208e-09 -1.04404e-09)
(0.219412 -2.15657e-09 2.16836e-10)
(0.228501 4.01837e-09 9.14278e-10)
(0.228501 -1.09688e-09 -1.31054e-09)
(0.228501 -2.69787e-09 3.9863e-10)
(0.236188 1.9053e-09 8.30096e-10)
(0.236189 -4.05675e-10 -1.47135e-09)
(0.236189 -1.30087e-09 6.4258e-10)
(0.243006 -1.74937e-09 7.52293e-10)
(0.243007 5.00256e-10 -1.50174e-09)
(0.243007 1.44009e-09 7.50295e-10)
(0.249292 -5.30335e-09 6.4291e-10)
(0.249292 3.20322e-09 -1.33434e-09)
(0.249293 2.29559e-09 6.91002e-10)
(0.255207 -6.5572e-09 5.9714e-10)
(0.255207 6.6987e-09 -1.13219e-09)
(0.255208 4.86104e-11 5.3528e-10)
(0.260739 -5.24708e-09 5.45624e-10)
(0.260739 8.2083e-09 -9.98834e-10)
(0.260739 -2.76553e-09 4.52211e-10)
(0.265712 -2.80222e-09 6.96273e-10)
(0.265712 6.76171e-09 -9.83063e-10)
(0.265712 -3.73672e-09 2.86273e-10)
(0.269843 -7.33961e-11 8.56825e-10)
(0.269843 3.82334e-09 -1.06767e-09)
(0.269844 -3.52394e-09 2.10748e-10)
(0.272848 1.15806e-09 8.81097e-10)
(0.272848 1.54967e-09 -1.10143e-09)
(0.272848 -2.4944e-09 2.21054e-10)
(0.274503 7.63148e-10 8.43381e-10)
(0.274503 3.31694e-10 -1.07752e-09)
(0.274504 -9.08085e-10 2.33587e-10)
(0.274503 -4.5414e-10 8.43493e-10)
(0.274503 -1.82776e-10 -1.07725e-09)
(0.274503 8.89225e-10 2.33204e-10)
(0.272847 -8.32927e-10 8.83171e-10)
(0.272847 -1.43627e-09 -1.10026e-09)
(0.272847 2.50361e-09 2.18124e-10)
(0.269842 4.29358e-10 8.60444e-10)
(0.269842 -3.82711e-09 -1.06556e-09)
(0.269842 3.59135e-09 2.06433e-10)
(0.26571 3.19762e-09 7.02196e-10)
(0.26571 -6.89381e-09 -9.82323e-10)
(0.265711 3.85897e-09 2.81527e-10)
(0.260737 5.68433e-09 5.46727e-10)
(0.260737 -8.39938e-09 -9.97196e-10)
(0.260738 2.8419e-09 4.5165e-10)
(0.255206 6.96588e-09 5.9683e-10)
(0.255206 -6.86878e-09 -1.14186e-09)
(0.255206 1.61548e-11 5.46402e-10)
(0.24929 5.50059e-09 6.57978e-10)
(0.249291 -3.1543e-09 -1.36147e-09)
(0.249291 -2.26376e-09 7.0484e-10)
(0.243004 1.68126e-09 7.72163e-10)
(0.243004 -9.44538e-11 -1.53692e-09)
(0.243005 -1.51681e-09 7.65982e-10)
(0.236185 -2.15022e-09 8.58031e-10)
(0.236185 9.70728e-10 -1.51672e-09)
(0.236185 1.23089e-09 6.60097e-10)
(0.228496 -4.3212e-09 9.41633e-10)
(0.228497 1.56837e-09 -1.34877e-09)
(0.228497 2.79043e-09 4.08433e-10)
(0.219407 -3.89316e-09 8.62979e-10)
(0.219407 1.53439e-09 -1.07299e-09)
(0.219408 2.38549e-09 2.11081e-10)
(0.208085 -2.67304e-09 6.19717e-10)
(0.208085 7.81076e-10 -7.26684e-10)
(0.208086 1.91206e-09 1.07804e-10)
(0.193044 -1.01821e-09 4.8195e-10)
(0.193044 -4.22675e-11 -5.40067e-10)
(0.193044 1.07529e-09 5.90502e-11)
(0.170683 -4.02152e-10 4.38644e-10)
(0.170683 -2.56045e-10 -4.50194e-10)
(0.170683 6.67094e-10 1.27714e-11)
(0.123743 -1.92642e-10 3.81107e-10)
(0.123743 -1.0571e-10 -3.3973e-10)
(0.123743 3.01836e-10 -4.02445e-11)
(0.134785 4.32613e-10 4.84285e-10)
(0.134785 -1.24786e-10 -4.44662e-10)
(0.134785 -1.25134e-10 -1.11361e-10)
(0.182072 8.81624e-10 6.45266e-10)
(0.182072 -1.12256e-10 -6.74023e-10)
(0.182073 -5.00145e-10 1.22685e-11)
(0.205406 1.62976e-09 7.39495e-10)
(0.205406 -4.01058e-10 -8.24284e-10)
(0.205407 -9.36973e-10 8.15327e-11)
(0.221356 3.07544e-09 9.15361e-10)
(0.221356 -1.08149e-09 -1.07751e-09)
(0.221357 -1.70196e-09 1.65555e-10)
(0.233341 3.87982e-09 1.23979e-09)
(0.233341 -1.39619e-09 -1.54211e-09)
(0.233341 -2.22605e-09 3.0754e-10)
(0.242894 4.06713e-09 1.37032e-09)
(0.242894 -1.07639e-09 -1.91875e-09)
(0.242895 -2.75574e-09 5.52363e-10)
(0.250909 1.90624e-09 1.25105e-09)
(0.25091 -3.59505e-10 -2.15873e-09)
(0.25091 -1.33731e-09 9.09912e-10)
(0.257966 -1.83541e-09 1.139e-09)
(0.257967 5.77411e-10 -2.20501e-09)
(0.257967 1.45892e-09 1.06709e-09)
(0.264437 -5.48281e-09 9.81015e-10)
(0.264437 3.33392e-09 -1.9708e-09)
(0.264438 2.35393e-09 9.89321e-10)
(0.270504 -6.78092e-09 9.13391e-10)
(0.270505 6.8852e-09 -1.66845e-09)
(0.270505 9.48375e-11 7.55369e-10)
(0.276166 -5.43665e-09 8.3242e-10)
(0.276166 8.40598e-09 -1.46576e-09)
(0.276167 -2.76457e-09 6.31904e-10)
(0.28125 -2.91253e-09 1.04431e-09)
(0.28125 6.97164e-09 -1.43997e-09)
(0.281251 -3.82621e-09 3.94803e-10)
(0.285471 -9.67938e-11 1.26824e-09)
(0.285471 3.97668e-09 -1.56454e-09)
(0.285472 -3.64387e-09 2.96301e-10)
(0.28854 1.17913e-09 1.29851e-09)
(0.28854 1.63124e-09 -1.61814e-09)
(0.28854 -2.58756e-09 3.2075e-10)
(0.29023 7.82148e-10 1.24042e-09)
(0.290231 3.56308e-10 -1.58384e-09)
(0.290231 -9.43513e-10 3.42578e-10)
(0.29023 -4.62083e-10 1.24053e-09)
(0.29023 -1.98114e-10 -1.58341e-09)
(0.290231 9.22875e-10 3.42012e-10)
(0.288539 -8.42362e-10 1.30126e-09)
(0.288539 -1.50952e-09 -1.61642e-09)
(0.288539 2.59567e-09 3.16758e-10)
(0.28547 4.65483e-10 1.27342e-09)
(0.28547 -3.97613e-09 -1.56087e-09)
(0.28547 3.71202e-09 2.89602e-10)
(0.281249 3.32188e-09 1.0527e-09)
(0.281249 -7.10352e-09 -1.43873e-09)
(0.281249 3.95078e-09 3.88292e-10)
(0.276165 5.88787e-09 8.34105e-10)
(0.276165 -8.59617e-09 -1.46334e-09)
(0.276165 2.84028e-09 6.31166e-10)
(0.270503 7.2033e-09 9.14732e-10)
(0.270503 -7.05637e-09 -1.68392e-09)
(0.270504 -2.91539e-11 7.7138e-10)
(0.264436 5.68902e-09 1.00307e-09)
(0.264436 -3.281e-09 -2.01301e-09)
(0.264436 -2.32199e-09 1.01216e-09)
(0.257964 1.76795e-09 1.16845e-09)
(0.257964 -1.60139e-10 -2.26254e-09)
(0.257965 -1.53487e-09 1.0961e-09)
(0.250906 -2.15419e-09 1.29126e-09)
(0.250906 9.38805e-10 -2.22522e-09)
(0.250906 1.26914e-09 9.36286e-10)
(0.24289 -4.36959e-09 1.41055e-09)
(0.24289 1.55669e-09 -1.9721e-09)
(0.242891 2.85227e-09 5.63666e-10)
(0.233336 -3.98538e-09 1.28389e-09)
(0.233336 1.5542e-09 -1.57884e-09)
(0.233337 2.45919e-09 2.96654e-10)
(0.221352 -2.81164e-09 9.35258e-10)
(0.221352 8.44766e-10 -1.08786e-09)
(0.221352 1.98785e-09 1.53923e-10)
(0.205402 -1.1269e-09 7.53075e-10)
(0.205402 -1.01691e-11 -8.27608e-10)
(0.205402 1.15257e-09 7.59956e-11)
(0.182069 -4.08492e-10 7.00141e-10)
(0.182069 -3.05625e-10 -7.06979e-10)
(0.182069 7.23716e-10 8.71692e-12)
(0.134783 -1.29996e-10 6.19411e-10)
(0.134783 -1.77323e-10 -5.63715e-10)
(0.134783 3.11384e-10 -5.37948e-11)
(0.146398 3.65175e-10 7.09098e-10)
(0.146398 -3.85907e-11 -6.63319e-10)
(0.146398 -1.34716e-10 -1.53972e-10)
(0.192161 8.94375e-10 9.43862e-10)
(0.192161 -6.19097e-11 -9.71472e-10)
(0.192161 -5.5224e-10 3.07708e-12)
(0.216114 1.7346e-09 1.0621e-09)
(0.216114 -4.33134e-10 -1.1636e-09)
(0.216115 -1.00383e-09 9.77901e-11)
(0.232898 3.17997e-09 1.28009e-09)
(0.232898 -1.13182e-09 -1.49477e-09)
(0.232898 -1.74976e-09 2.19558e-10)
(0.245561 3.91886e-09 1.70054e-09)
(0.245561 -1.39604e-09 -2.09895e-09)
(0.245561 -2.25757e-09 4.06017e-10)
(0.255612 4.03995e-09 1.87632e-09)
(0.255612 -1.03557e-09 -2.58589e-09)
(0.255613 -2.76181e-09 7.15279e-10)
(0.26398 1.86359e-09 1.71773e-09)
(0.263981 -2.9104e-10 -2.91581e-09)
(0.263981 -1.35566e-09 1.20134e-09)
(0.271291 -1.91247e-09 1.56877e-09)
(0.271292 6.78131e-10 -2.98436e-09)
(0.271292 1.44247e-09 1.41692e-09)
(0.277953 -5.60537e-09 1.36239e-09)
(0.277953 3.45053e-09 -2.68135e-09)
(0.277953 2.36677e-09 1.31839e-09)
(0.284172 -6.93233e-09 1.27855e-09)
(0.284172 7.00549e-09 -2.26775e-09)
(0.284173 1.32377e-10 9.89566e-10)
(0.289961 -5.57051e-09 1.16575e-09)
(0.289961 8.51223e-09 -1.98893e-09)
(0.289961 -2.73046e-09 8.21139e-10)
(0.295152 -2.99691e-09 1.44225e-09)
(0.295152 7.12048e-09 -1.95503e-09)
(0.295152 -3.8834e-09 5.11439e-10)
(0.299459 -1.27514e-10 1.73253e-09)
(0.299459 4.10616e-09 -2.12718e-09)
(0.299459 -3.73562e-09 3.94744e-10)
(0.302589 1.18063e-09 1.7668e-09)
(0.302589 1.7098e-09 -2.20594e-09)
(0.30259 -2.661e-09 4.40735e-10)
(0.304313 7.90165e-10 1.68361e-09)
(0.304314 3.82691e-10 -2.16216e-09)
(0.304314 -9.72176e-10 4.7733e-10)
(0.304313 -4.63731e-10 1.68356e-09)
(0.304313 -2.17138e-10 -2.16146e-09)
(0.304314 9.50511e-10 4.76564e-10)
(0.302588 -8.37289e-10 1.77024e-09)
(0.302588 -1.58063e-09 -2.20338e-09)
(0.302589 2.6679e-09 4.35423e-10)
(0.299457 5.03463e-10 1.73935e-09)
(0.299457 -4.10057e-09 -2.12165e-09)
(0.299458 3.80359e-09 3.85421e-10)
(0.29515 3.41406e-09 1.45336e-09)
(0.29515 -7.24996e-09 -1.95321e-09)
(0.295151 4.00901e-09 5.0315e-10)
(0.28996 6.02848e-09 1.16814e-09)
(0.28996 -8.69841e-09 -1.98574e-09)
(0.28996 2.80514e-09 8.20399e-10)
(0.284171 7.36158e-09 1.28239e-09)
(0.284171 -7.17452e-09 -2.29e-09)
(0.284171 -6.65099e-11 1.01078e-09)
(0.277951 5.81711e-09 1.39219e-09)
(0.277951 -3.39529e-09 -2.74154e-09)
(0.277952 -2.33358e-09 1.35258e-09)
(0.271289 1.84596e-09 1.60917e-09)
(0.271289 -2.56064e-10 -3.06689e-09)
(0.27129 -1.51514e-09 1.46062e-09)
(0.263977 -2.11136e-09 1.77129e-09)
(0.263977 8.76694e-10 -3.0057e-09)
(0.263978 1.28994e-09 1.23777e-09)
(0.255608 -4.33691e-09 1.93216e-09)
(0.255608 1.51731e-09 -2.65484e-09)
(0.255608 2.86012e-09 7.25753e-10)
(0.245556 -4.02035e-09 1.75486e-09)
(0.245556 1.55836e-09 -2.14058e-09)
(0.245557 2.49087e-09 3.88199e-10)
(0.232893 -2.9192e-09 1.30272e-09)
(0.232893 9.05551e-10 -1.50305e-09)
(0.232894 2.03524e-09 2.02268e-10)
(0.21611 -1.23893e-09 1.07965e-09)
(0.21611 3.40078e-11 -1.1657e-09)
(0.21611 1.2209e-09 8.81532e-11)
(0.192157 -4.11151e-10 1.02206e-09)
(0.192157 -3.54631e-10 -1.01713e-09)
(0.192157 7.76e-10 -2.26685e-12)
(0.146395 -4.48348e-11 9.10401e-10)
(0.146395 -2.65099e-10 -8.42172e-10)
(0.146396 3.14678e-10 -6.52955e-11)
(0.158422 2.73722e-10 9.84358e-10)
(0.158422 6.54155e-11 -9.34033e-10)
(0.158423 -1.45832e-10 -2.00078e-10)
(0.201627 8.95684e-10 1.29915e-09)
(0.201627 -5.56235e-12 -1.32055e-09)
(0.201627 -6.06543e-10 -1.31141e-11)
(0.225835 1.8342e-09 1.43999e-09)
(0.225835 -4.688e-10 -1.55348e-09)
(0.225835 -1.0674e-09 1.09576e-10)
(0.24333 3.24847e-09 1.69362e-09)
(0.24333 -1.17039e-09 -1.96432e-09)
(0.24333 -1.77812e-09 2.77311e-10)
(0.256669 3.91358e-09 2.19648e-09)
(0.256669 -1.38838e-09 -2.69839e-09)
(0.256669 -2.25605e-09 5.12202e-10)
(0.267252 3.9481e-09 2.41126e-09)
(0.267253 -9.81784e-10 -3.28994e-09)
(0.267253 -2.7193e-09 8.86446e-10)
(0.276009 1.78045e-09 2.21121e-09)
(0.276009 -2.04558e-10 -3.71655e-09)
(0.276009 -1.35413e-09 1.50983e-09)
(0.283597 -1.98874e-09 2.02483e-09)
(0.283598 8.07044e-10 -3.81412e-09)
(0.283598 1.39464e-09 1.79092e-09)
(0.290462 -5.68856e-09 1.77125e-09)
(0.290462 3.56919e-09 -3.44567e-09)
(0.290462 2.33579e-09 1.67377e-09)
(0.296839 -7.03088e-09 1.6815e-09)
(0.296839 7.08785e-09 -2.91415e-09)
(0.296839 1.5277e-10 1.23309e-09)
(0.302755 -5.66385e-09 1.53866e-09)
(0.302755 8.5569e-09 -2.55481e-09)
(0.302756 -2.6775e-09 1.0134e-09)
(0.308052 -3.06311e-09 1.881e-09)
(0.308052 7.22938e-09 -2.51656e-09)
(0.308053 -3.92132e-09 6.33657e-10)
(0.312443 -1.662e-10 2.23865e-09)
(0.312443 4.22249e-09 -2.74401e-09)
(0.312444 -3.80887e-09 5.05562e-10)
(0.315634 1.16472e-09 2.2746e-09)
(0.315634 1.78862e-09 -2.85497e-09)
(0.315634 -2.71971e-09 5.82509e-10)
(0.317391 7.88553e-10 2.16131e-09)
(0.317392 4.1096e-10 -2.8039e-09)
(0.317392 -9.95227e-10 6.40909e-10)
(0.317391 -4.59946e-10 2.1611e-09)
(0.317391 -2.38868e-10 -2.80289e-09)
(0.317391 9.72356e-10 6.39914e-10)
(0.315633 -8.19409e-10 2.27866e-09)
(0.315633 -1.65191e-09 -2.85131e-09)
(0.315633 2.72454e-09 5.75745e-10)
(0.312442 5.44356e-10 2.24722e-09)
(0.312442 -4.21023e-09 -2.73628e-09)
(0.312442 3.87495e-09 4.9336e-10)
(0.308051 3.48237e-09 1.89491e-09)
(0.308051 -7.35342e-09 -2.51408e-09)
(0.308051 4.04586e-09 6.23707e-10)
(0.302754 6.12194e-09 1.54185e-09)
(0.302754 -8.73507e-09 -2.55089e-09)
(0.302754 2.74983e-09 1.01287e-09)
(0.296837 7.46076e-09 1.68825e-09)
(0.296837 -7.25069e-09 -2.9441e-09)
(0.296838 -8.83319e-11 1.26015e-09)
(0.29046 5.9027e-09 1.80961e-09)
(0.290461 -3.51035e-09 -3.52697e-09)
(0.290461 -2.30305e-09 1.72178e-09)
(0.283595 1.92328e-09 2.07748e-09)
(0.283595 -3.84809e-10 -3.92492e-09)
(0.283596 -1.46289e-09 1.85138e-09)
(0.276006 -2.02511e-09 2.27869e-09)
(0.276006 7.89352e-10 -3.83159e-09)
(0.276006 1.29185e-09 1.55748e-09)
(0.267248 -4.23527e-09 2.48378e-09)
(0.267248 1.4595e-09 -3.37345e-09)
(0.267249 2.81691e-09 8.93869e-10)
(0.256664 -4.01182e-09 2.25859e-09)
(0.256664 1.55611e-09 -2.74081e-09)
(0.256665 2.48507e-09 4.85617e-10)
(0.243325 -3.00559e-09 1.71646e-09)
(0.243325 9.68933e-10 -1.9662e-09)
(0.243326 2.0586e-09 2.52403e-10)
(0.22583 -1.35768e-09 1.46008e-09)
(0.22583 9.18271e-11 -1.5519e-09)
(0.225831 1.28214e-09 9.46531e-11)
(0.201623 -4.15438e-10 1.40341e-09)
(0.201623 -3.98215e-10 -1.37923e-09)
(0.201624 8.24401e-10 -2.05969e-11)
(0.15842 5.31394e-11 1.26162e-09)
(0.15842 -3.5785e-10 -1.18294e-09)
(0.15842 3.10164e-10 -7.44577e-11)
(0.170652 1.68216e-10 1.32399e-09)
(0.170652 1.74687e-10 -1.27708e-09)
(0.170652 -1.58382e-10 -2.45809e-10)
(0.210865 8.90408e-10 1.71456e-09)
(0.210865 5.22329e-11 -1.72505e-09)
(0.210866 -6.64237e-10 -3.65141e-11)
(0.234973 1.93198e-09 1.87874e-09)
(0.234973 -5.11144e-10 -1.99892e-09)
(0.234973 -1.12837e-09 1.1596e-10)
(0.25301 3.28749e-09 2.15479e-09)
(0.25301 -1.20138e-09 -2.48662e-09)
(0.25301 -1.78953e-09 3.40202e-10)
(0.266991 3.8707e-09 2.71525e-09)
(0.266992 -1.378e-09 -3.3308e-09)
(0.266992 -2.22358e-09 6.28787e-10)
(0.278134 3.79712e-09 2.96114e-09)
(0.278134 -9.22044e-10 -4.01967e-09)
(0.278134 -2.6269e-09 1.06868e-09)
(0.287318 1.65694e-09 2.7233e-09)
(0.287318 -1.03865e-10 -4.54776e-09)
(0.287318 -1.32921e-09 1.83035e-09)
(0.295215 -2.0712e-09 2.49835e-09)
(0.295216 9.68191e-10 -4.68547e-09)
(0.295216 1.31818e-09 2.18912e-09)
(0.302303 -5.74438e-09 2.19775e-09)
(0.302303 3.70243e-09 -4.2558e-09)
(0.302303 2.26027e-09 2.05735e-09)
(0.308847 -7.08867e-09 2.11216e-09)
(0.308847 7.15219e-09 -3.60248e-09)
(0.308847 1.48105e-10 1.49085e-09)
(0.314896 -5.7266e-09 1.94768e-09)
(0.314896 8.56055e-09 -3.16026e-09)
(0.314896 -2.61632e-09 1.20899e-09)
(0.320299 -3.11642e-09 2.35683e-09)
(0.320299 7.31215e-09 -3.12409e-09)
(0.3203 -3.9485e-09 7.64692e-10)
(0.324775 -2.14031e-10 2.78297e-09)
(0.324775 4.33169e-09 -3.41603e-09)
(0.324775 -3.86848e-09 6.33394e-10)
(0.328025 1.13175e-09 2.818e-09)
(0.328025 1.86789e-09 -3.56857e-09)
(0.328026 -2.76426e-09 7.53394e-10)
(0.329815 7.77524e-10 2.66835e-09)
(0.329816 4.40262e-10 -3.51144e-09)
(0.329816 -1.01209e-09 8.40892e-10)
(0.329815 -4.51079e-10 2.66787e-09)
(0.329815 -2.61766e-10 -3.51002e-09)
(0.329816 9.87137e-10 8.39654e-10)
(0.328024 -7.89294e-10 2.82256e-09)
(0.328024 -1.72278e-09 -3.5635e-09)
(0.328024 2.76548e-09 7.45031e-10)
(0.324773 5.89021e-10 2.79335e-09)
(0.324773 -4.31021e-09 -3.40575e-09)
(0.324774 3.93019e-09 6.18117e-10)
(0.320298 3.53173e-09 2.37365e-09)
(0.320298 -7.42669e-09 -3.12087e-09)
(0.320298 4.06906e-09 7.53245e-10)
(0.314894 6.17788e-09 1.9518e-09)
(0.314894 -8.72572e-09 -3.15566e-09)
(0.314894 2.68423e-09 1.20893e-09)
(0.308845 7.51255e-09 2.12227e-09)
(0.308845 -7.30345e-09 -3.64112e-09)
(0.308845 -8.78153e-11 1.52456e-09)
(0.302301 5.95758e-09 2.24561e-09)
(0.302301 -3.63667e-09 -4.36168e-09)
(0.302301 -2.23173e-09 2.12191e-09)
(0.295213 2.00648e-09 2.56467e-09)
(0.295213 -5.49437e-10 -4.8273e-09)
(0.295213 -1.38163e-09 2.26786e-09)
(0.287315 -1.89594e-09 2.8048e-09)
(0.287315 6.80915e-10 -4.68919e-09)
(0.287315 1.27125e-09 1.89041e-09)
(0.27813 -4.07156e-09 3.04983e-09)
(0.27813 1.3916e-09 -4.1151e-09)
(0.27813 2.7212e-09 1.07083e-09)
(0.266987 -3.96829e-09 2.78196e-09)
(0.266987 1.55436e-09 -3.36904e-09)
(0.266987 2.44342e-09 5.91597e-10)
(0.253005 -3.07546e-09 2.17784e-09)
(0.253005 1.03756e-09 -2.48061e-09)
(0.253006 2.05996e-09 3.06308e-10)
(0.234968 -1.48686e-09 1.89892e-09)
(0.234968 1.6703e-10 -1.99079e-09)
(0.234969 1.33627e-09 9.55551e-11)
(0.210861 -4.27965e-10 1.84731e-09)
(0.210861 -4.28935e-10 -1.79714e-09)
(0.210862 8.68057e-10 -4.55531e-11)
(0.170649 1.48949e-10 1.68984e-09)
(0.170649 -4.40303e-10 -1.60268e-09)
(0.170649 2.9745e-10 -8.12654e-11)
(0.182857 6.45977e-11 1.74466e-09)
(0.182857 2.71061e-10 -1.70813e-09)
(0.182857 -1.71155e-10 -2.90003e-10)
(0.220128 8.86063e-10 2.19302e-09)
(0.220128 1.00933e-10 -2.1883e-09)
(0.220128 -7.23942e-10 -6.74884e-11)
(0.243818 2.03241e-09 2.38027e-09)
(0.243818 -5.67933e-10 -2.50377e-09)
(0.243819 -1.18437e-09 1.18322e-10)
(0.262186 3.30116e-09 2.65262e-09)
(0.262186 -1.22933e-09 -3.05518e-09)
(0.262187 -1.78417e-09 4.12725e-10)
(0.276738 3.79551e-09 3.24363e-09)
(0.276738 -1.37018e-09 -3.98335e-09)
(0.276738 -2.16069e-09 7.56016e-10)
(0.288449 3.59131e-09 3.5129e-09)
(0.288449 -8.63724e-10 -4.76056e-09)
(0.288449 -2.48206e-09 1.26046e-09)
(0.298099 1.49168e-09 3.25091e-09)
(0.298099 5.47054e-12 -5.39371e-09)
(0.298099 -1.27447e-09 2.1503e-09)
(0.306343 -2.16717e-09 2.98119e-09)
(0.306343 1.16388e-09 -5.58921e-09)
(0.306343 1.21754e-09 2.61047e-09)
(0.31368 -5.78344e-09 2.63168e-09)
(0.31368 3.8611e-09 -5.10171e-09)
(0.31368 2.1395e-09 2.46928e-09)
(0.320406 -7.11433e-09 2.55583e-09)
(0.320406 7.21302e-09 -4.32473e-09)
(0.320407 1.12186e-10 1.76951e-09)
(0.326595 -5.76655e-09 2.38565e-09)
(0.326596 8.53921e-09 -3.8014e-09)
(0.326596 -2.55543e-09 1.41117e-09)
(0.33211 -3.16103e-09 2.86304e-09)
(0.33211 7.37792e-09 -3.7778e-09)
(0.33211 -3.97012e-09 9.11409e-10)
(0.336671 -2.72384e-10 3.35916e-09)
(0.336671 4.43555e-09 -4.14527e-09)
(0.336671 -3.91516e-09 7.86638e-10)
(0.339981 1.08108e-09 3.38923e-09)
(0.339982 1.9437e-09 -4.35043e-09)
(0.339982 -2.79042e-09 9.64814e-10)
(0.341805 7.56574e-10 3.19604e-09)
(0.341805 4.70596e-10 -4.2893e-09)
(0.341805 -1.02256e-09 1.09047e-09)
(0.341804 -4.37198e-10 3.19523e-09)
(0.341805 -2.84964e-10 -4.28739e-09)
(0.341805 9.93692e-10 1.08898e-09)
(0.33998 -7.46966e-10 3.39417e-09)
(0.339981 -1.78862e-09 -4.34358e-09)
(0.339981 2.78574e-09 9.54693e-10)
(0.336669 6.3805e-10 3.3714e-09)
(0.336669 -4.40121e-09 -4.132e-09)
(0.33667 3.96907e-09 7.68018e-10)
(0.332108 3.56546e-09 2.88276e-09)
(0.332108 -7.47762e-09 -3.77375e-09)
(0.332108 4.08281e-09 8.98728e-10)
(0.326594 6.20313e-09 2.39084e-09)
(0.326594 -8.68505e-09 -3.79631e-09)
(0.326594 2.61599e-09 1.412e-09)
(0.320405 7.52466e-09 2.56978e-09)
(0.320405 -7.34522e-09 -4.37319e-09)
(0.320405 -6.04057e-11 1.81071e-09)
(0.313678 5.99183e-09 2.68982e-09)
(0.313678 -3.78339e-09 -5.2361e-09)
(0.313678 -2.12068e-09 2.55378e-09)
(0.306341 2.10222e-09 3.06188e-09)
(0.306341 -7.51511e-10 -5.76501e-09)
(0.306341 -1.27653e-09 2.70982e-09)
(0.298096 -1.7233e-09 3.34583e-09)
(0.298096 5.57534e-10 -5.56224e-09)
(0.298096 1.22135e-09 2.22412e-09)
(0.288445 -3.85179e-09 3.61533e-09)
(0.288445 1.3229e-09 -4.86413e-09)
(0.288445 2.56968e-09 1.25597e-09)
(0.276734 -3.8965e-09 3.3108e-09)
(0.276734 1.55989e-09 -4.01245e-09)
(0.276734 2.36582e-09 7.07452e-10)
(0.262182 -3.12864e-09 2.67872e-09)
(0.262182 1.11123e-09 -3.04155e-09)
(0.262182 2.0394e-09 3.67457e-10)
(0.243814 -1.63252e-09 2.40066e-09)
(0.243814 2.68069e-10 -2.48689e-09)
(0.243814 1.38087e-09 9.08918e-11)
(0.220124 -4.59055e-10 2.35637e-09)
(0.220124 -4.34181e-10 -2.27452e-09)
(0.220124 9.04624e-10 -7.60406e-11)
(0.182854 2.23351e-10 2.20851e-09)
(0.182854 -4.93932e-10 -2.11438e-09)
(0.182854 2.77122e-10 -8.61473e-11)
(0.194821 -1.4582e-11 2.25915e-09)
(0.194821 3.31752e-10 -2.23986e-09)
(0.194821 -1.82789e-10 -3.3005e-10)
(0.229576 8.94897e-10 2.73284e-09)
(0.229576 1.21064e-10 -2.71189e-09)
(0.229577 -7.79897e-10 -1.03495e-10)
(0.252598 2.14441e-09 2.93961e-09)
(0.252598 -6.53402e-10 -3.06698e-09)
(0.252598 -1.23118e-09 1.19593e-10)
(0.271059 3.29509e-09 3.15372e-09)
(0.271059 -1.26083e-09 -3.63845e-09)
(0.271059 -1.76216e-09 4.95974e-10)
(0.286065 3.69377e-09 3.76107e-09)
(0.286065 -1.37222e-09 -4.63382e-09)
(0.286065 -2.06672e-09 8.92108e-10)
(0.298325 3.33794e-09 4.0485e-09)
(0.298325 -8.1824e-10 -5.49298e-09)
(0.298325 -2.28145e-09 1.46021e-09)
(0.308472 1.28255e-09 3.78093e-09)
(0.308472 1.13195e-10 -6.23464e-09)
(0.308472 -1.17833e-09 2.46305e-09)
(0.317104 -2.28544e-09 3.46697e-09)
(0.317105 1.39284e-09 -6.51033e-09)
(0.317105 1.10212e-09 3.04625e-09)
(0.324724 -5.81734e-09 3.064e-09)
(0.324725 4.05471e-09 -5.96826e-09)
(0.324725 1.97485e-09 2.90347e-09)
(0.331656 -7.11446e-09 2.99052e-09)
(0.331656 7.27933e-09 -5.06458e-09)
(0.331656 4.20722e-11 2.07471e-09)
(0.337997 -5.79009e-09 2.83863e-09)
(0.337997 8.50589e-09 -4.46874e-09)
(0.337998 -2.50194e-09 1.62439e-09)
(0.343629 -3.20031e-09 3.38625e-09)
(0.343629 7.43095e-09 -4.47325e-09)
(0.343629 -3.98763e-09 1.08271e-09)
(0.348278 -3.42456e-10 3.95361e-09)
(0.348278 4.52961e-09 -4.92964e-09)
(0.348278 -3.94382e-09 9.76801e-10)
(0.351651 1.01163e-09 3.97151e-09)
(0.351651 2.00722e-09 -5.19374e-09)
(0.351651 -2.78884e-09 1.22682e-09)
(0.353508 7.24915e-10 3.72851e-09)
(0.353508 5.01056e-10 -5.13552e-09)
(0.353508 -1.02542e-09 1.40358e-09)
(0.353507 -4.18397e-10 3.72728e-09)
(0.353508 -3.06882e-10 -5.13305e-09)
(0.353508 9.89952e-10 1.40182e-09)
(0.35165 -6.92363e-10 3.97667e-09)
(0.35165 -1.83988e-09 -5.18482e-09)
(0.35165 2.77519e-09 1.21488e-09)
(0.348277 6.91465e-10 3.96772e-09)
(0.348277 -4.47757e-09 -4.91298e-09)
(0.348277 3.98538e-09 9.54683e-10)
(0.343627 3.58559e-09 3.40907e-09)
(0.343627 -7.50885e-09 -4.46839e-09)
(0.343627 4.08726e-09 1.06911e-09)
(0.337996 6.20272e-09 2.845e-09)
(0.337996 -8.62447e-09 -4.46344e-09)
(0.337996 2.55118e-09 1.62661e-09)
(0.331654 7.50221e-09 3.00984e-09)
(0.331654 -7.38266e-09 -5.12416e-09)
(0.331654 -4.83685e-12 2.12354e-09)
(0.324723 6.0163e-09 3.13271e-09)
(0.324723 -3.95873e-09 -6.13492e-09)
(0.324723 -1.97273e-09 3.01159e-09)
(0.317102 2.21838e-09 3.56192e-09)
(0.317102 -9.89388e-10 -6.72248e-09)
(0.317103 -1.15728e-09 3.16893e-09)
(0.308469 -1.5062e-09 3.88809e-09)
(0.308469 4.30189e-10 -6.4303e-09)
(0.308469 1.13015e-09 2.5519e-09)
(0.298321 -3.58485e-09 4.1596e-09)
(0.298321 1.26641e-09 -5.60007e-09)
(0.298321 2.35819e-09 1.44953e-09)
(0.28606 -3.80247e-09 3.82409e-09)
(0.28606 1.57992e-09 -4.64911e-09)
(0.286061 2.25105e-09 8.32329e-10)
(0.271054 -3.16136e-09 3.17709e-09)
(0.271054 1.18693e-09 -3.61194e-09)
(0.271055 1.99562e-09 4.4061e-10)
(0.252593 -1.80393e-09 2.96228e-09)
(0.252593 4.10682e-10 -3.04193e-09)
(0.252593 1.4094e-09 8.53894e-11)
(0.229572 -5.24508e-10 2.92936e-09)
(0.229572 -3.93665e-10 -2.81408e-09)
(0.229572 9.29519e-10 -1.08109e-10)
(0.194818 2.53873e-10 2.82465e-09)
(0.194818 -4.98416e-10 -2.72401e-09)
(0.194818 2.51189e-10 -9.01109e-11)
(0.206372 -4.07684e-11 2.87414e-09)
(0.206372 3.30341e-10 -2.87732e-09)
(0.206372 -1.92409e-10 -3.6292e-10)
(0.239302 9.41108e-10 3.32898e-09)
(0.239302 8.30068e-11 -3.29602e-09)
(0.239303 -8.26951e-10 -1.39907e-10)
(0.26149 2.28046e-09 3.53813e-09)
(0.26149 -7.87072e-10 -3.67958e-09)
(0.26149 -1.26269e-09 1.28078e-10)
(0.279801 3.32443e-09 3.67873e-09)
(0.279801 -1.35448e-09 -4.25855e-09)
(0.279802 -1.72079e-09 5.91397e-10)
(0.295104 3.57723e-09 4.24873e-09)
(0.295104 -1.39837e-09 -5.26208e-09)