/*--------------------------------*- C++ -*----------------------------------*\
  =========                 |
  \\      /  F ield         | OpenFOAM: The Open Source CFD Toolbox
   \\    /   O peration     | Website:  https://openfoam.org
    \\  /    A nd           | Version:  6
     \\/     M anipulation  |
\*---------------------------------------------------------------------------*/
FoamFile
{
    version     2.0;
    format      ascii;
    class       volScalarField;
    location    "2";
    object      p;
}
// * * * * * * * * * * * * * * * * * * * * * * * * * * * * * * * * * * * * * //

dimensions      [0 2 -2 0 0 0 0];

internalField   nonuniform List<scalar> 
380496
(
0.014111
0.0145866
0.0141919
0.0140985
0.0139971
0.0138949
0.0138002
0.0137054
0.0136101
0.0135142
0.013418
0.0133223
0.0132278
0.0131348
0.0130433
0.0129527
0.0128627
0.0127724
0.0126814
0.0125889
0.0124944
0.0123975
0.0122976
0.0121943
0.0120872
0.0119756
0.0118593
0.0117374
0.0116102
0.011476
0.0113369
0.011188
0.01104
0.0108715
0.0107329
0.0140831
0.0145515
0.0141695
0.0140811
0.0139838
0.0138845
0.013791
0.0136965
0.0136004
0.0135031
0.0134048
0.0133066
0.0132088
0.013112
0.0130161
0.0129208
0.0128255
0.0127296
0.0126325
0.0125335
0.0124323
0.0123282
0.012221
0.01211
0.0119952
0.0118758
0.0117519
0.0116225
0.0114881
0.0113466
0.0112011
0.0110438
0.0108913
0.0107052
0.010573
0.0140514
0.014515
0.0141444
0.0140611
0.0139673
0.0138701
0.0137774
0.0136826
0.0135855
0.0134864
0.0133857
0.0132843
0.0131829
0.013082
0.0129814
0.0128809
0.0127799
0.0126775
0.0125734
0.0124668
0.0123573
0.0122445
0.0121281
0.0120075
0.0118828
0.0117534
0.0116193
0.0114798
0.0113355
0.0111844
0.0110303
0.0108642
0.0107059
0.0105115
0.0103754
0.0140114
0.0144755
0.0141191
0.0140432
0.0139546
0.0138606
0.0137692
0.0136745
0.0135765
0.0134758
0.013373
0.013269
0.0131645
0.01306
0.0129554
0.0128504
0.0127444
0.0126367
0.0125269
0.0124141
0.0122982
0.0121786
0.0120553
0.0119277
0.0117959
0.0116594
0.0115185
0.0113722
0.0112217
0.0110642
0.0109044
0.010732
0.0105674
0.0103661
0.010216
0.0139743
0.0144331
0.0140932
0.0140246
0.0139408
0.0138494
0.013759
0.0136643
0.0135656
0.0134635
0.0133586
0.013252
0.0131444
0.0130363
0.0129276
0.0128181
0.0127071
0.012594
0.0124781
0.0123588
0.012236
0.0121092
0.0119784
0.0118433
0.0117039
0.0115599
0.0114116
0.0112583
0.0111011
0.0109375
0.0107727
0.0105957
0.010431
0.0102268
0.010094
0.0139236
0.0143879
0.0140673
0.0140082
0.0139305
0.0138423
0.013753
0.0136582
0.0135586
0.013455
0.0133483
0.0132394
0.0131291
0.0130179
0.0129056
0.0127921
0.0126765
0.0125584
0.0124371
0.0123122
0.0121834
0.0120505
0.0119134
0.011772
0.0116265
0.0114765
0.0113225
0.0111637
0.0110015
0.010833
0.0106639
0.0104821
0.0103133
0.010102
0.009964
0.0138698
0.0143401
0.0140411
0.013992
0.0139202
0.0138346
0.0137463
0.0136514
0.0135511
0.0134464
0.0133382
0.0132274
0.0131148
0.0130008
0.0128852
0.0127677
0.0126478
0.0125247
0.0123981
0.0122675
0.0121329
0.0119939
0.0118508
0.0117035
0.0115521
0.0113965
0.0112371
0.0110733
0.0109066
0.0107341
0.0105621
0.0103779
0.0102096
0.00999771
0.00986904
0.0138056
0.0142912
0.014017
0.0139796
0.0139145
0.0138316
0.0137438
0.0136484
0.0135471
0.0134413
0.0133318
0.0132195
0.0131048
0.0129883
0.0128695
0.0127483
0.0126241
0.0124964
0.0123649
0.0122291
0.0120892
0.0119449
0.0117964
0.0116438
0.0114874
0.011327
0.0111632
0.0109953
0.0108249
0.010649
0.0104739
0.0102866
0.010115
0.00989914
0.00976328
0.0137299
0.0142424
0.013994
0.013969
0.0139101
0.0138291
0.0137414
0.0136455
0.0135435
0.013437
0.0133267
0.0132134
0.0130973
0.0129788
0.0128574
0.0127331
0.0126051
0.0124732
0.0123371
0.0121967
0.0120519
0.0119029
0.0117498
0.0115929
0.0114322
0.011268
0.0111006
0.0109295
0.0107562
0.010578
0.0104014
0.010213
0.0100422
0.00982727
0.00969793
0.0136542
0.014202
0.0139773
0.0139642
0.0139108
0.0138307
0.0137426
0.0136458
0.013543
0.0134359
0.0133252
0.0132113
0.0130942
0.0129738
0.01285
0.0127225
0.012591
0.0124553
0.0123152
0.0121707
0.0120219
0.011869
0.0117121
0.0115515
0.0113875
0.0112201
0.0110498
0.0108762
0.0107008
0.0105206
0.0103424
0.0101524
0.00997994
0.00976289
0.00962919
0.0135565
0.0141615
0.0139611
0.0139615
0.0139131
0.0138328
0.0137437
0.0136458
0.0135423
0.013435
0.0133244
0.0132104
0.0130926
0.0129709
0.012845
0.0127148
0.01258
0.0124408
0.0122969
0.0121488
0.0119963
0.0118399
0.0116797
0.011516
0.0113491
0.0111792
0.0110066
0.010831
0.010654
0.0104726
0.0102936
0.0101033
0.00993176
0.00971578
0.00958727
0.013457
0.0141324
0.0139513
0.0139643
0.0139195
0.0138381
0.0137474
0.0136482
0.0135442
0.0134371
0.0133269
0.013213
0.0130946
0.0129714
0.0128432
0.01271
0.0125719
0.0124292
0.012282
0.0121305
0.0119748
0.0118153
0.0116523
0.0114859
0.0113166
0.0111445
0.01097
0.0107928
0.0106145
0.0104321
0.0102522
0.0100612
0.00988865
0.00967162
0.00953929
0.0133268
0.0141082
0.0139438
0.0139709
0.0139286
0.0138446
0.0137514
0.0136504
0.0135458
0.0134392
0.0133298
0.0132165
0.0130979
0.0129735
0.0128433
0.0127074
0.0125663
0.0124204
0.01227
0.0121154
0.0119569
0.0117948
0.0116293
0.0114608
0.0112895
0.0111157
0.0109398
0.0107614
0.0105821
0.0103991
0.0102191
0.0100282
0.00985661
0.0096409
0.0095127
0.0131905
0.0140996
0.0139417
0.0139817
0.0139399
0.0138524
0.0137566
0.0136541
0.0135495
0.0134439
0.0133359
0.0132233
0.0131044
0.0129785
0.0128457
0.0127068
0.0125625
0.0124135
0.0122602
0.012103
0.0119421
0.0117777
0.0116102
0.0114398
0.0112669
0.0110916
0.0109145
0.0107352
0.0105553
0.0103719
0.0101915
0.0100006
0.00982842
0.00961231
0.00948085
0.0130219
0.0141052
0.0139457
0.0139994
0.0139557
0.0138627
0.0137629
0.0136581
0.0135533
0.0134488
0.0133424
0.0132307
0.0131116
0.0129842
0.0128492
0.0127075
0.0125604
0.0124086
0.0122528
0.0120933
0.0119302
0.011764
0.0115948
0.0114229
0.0112487
0.0110724
0.0108944
0.0107145
0.0105341
0.0103507
0.0101705
0.00998017
0.00980906
0.00959478
0.00946708
0.0128337
0.0141288
0.0139516
0.0140173
0.0139698
0.013871
0.013768
0.0136621
0.0135583
0.0134562
0.0133519
0.0132414
0.0131218
0.0129924
0.0128544
0.0127094
0.0125592
0.0124048
0.0122468
0.0120853
0.0119207
0.0117529
0.0115824
0.0114093
0.0112341
0.0110569
0.0108783
0.0106979
0.0105173
0.0103338
0.0101537
0.00996377
0.0097922
0.00957808
0.00944719
0.0126242
0.0141774
0.0139692
0.0140464
0.0139912
0.0138845
0.0137768
0.0136688
0.0135654
0.0134652
0.0133627
0.0132526
0.0131317
0.0129999
0.012859
0.0127113
0.0125587
0.0124022
0.0122425
0.0120795
0.0119136
0.0117445
0.011573
0.0113989
0.011223
0.0110452
0.0108662
0.0106857
0.010505
0.0103219
0.0101421
0.00995348
0.00978308
0.00957273
0.00944637
0.0123755
0.0142438
0.0139809
0.0140678
0.0140044
0.0138912
0.0137808
0.0136735
0.0135733
0.0134764
0.0133762
0.0132663
0.0131437
0.0130088
0.0128644
0.0127135
0.0125585
0.0124001
0.0122391
0.0120749
0.0119082
0.0117382
0.011566
0.0113912
0.0112149
0.0110366
0.0108574
0.0106767
0.0104961
0.0103132
0.0101335
0.00994579
0.00977384
0.0095646
0.00942906
0.0121266
0.0143375
0.0140131
0.0141066
0.0140309
0.0139108
0.0137969
0.013688
0.0135877
0.0134912
0.0133901
0.0132778
0.0131518
0.0130135
0.0128667
0.0127141
0.012558
0.0123988
0.0122372
0.0120723
0.0119049
0.0117343
0.0115617
0.0113865
0.0112099
0.0110314
0.0108522
0.0106715
0.010491
0.0103085
0.0101294
0.00994348
0.00977323
0.00957254
0.00943693
0.0118501
0.0144341
0.0140302
0.0141315
0.0140471
0.0139221
0.0138062
0.0136981
0.0135995
0.0135037
0.0134022
0.0132884
0.0131601
0.0130189
0.0128693
0.0127149
0.0125578
0.0123979
0.0122359
0.0120707
0.011903
0.0117321
0.0115593
0.0113838
0.0112072
0.0110285
0.0108494
0.0106685
0.0104882
0.0103059
0.0101268
0.00994191
0.00976833
0.00956915
0.00939849
0.0115994
0.014559
0.0140914
0.0141909
0.0140926
0.0139601
0.0138384
0.013723
0.013616
0.0135119
0.0134036
0.0132853
0.013155
0.0130141
0.0128662
0.0127132
0.012557
0.0123977
0.0122358
0.0120706
0.0119029
0.011732
0.0115592
0.0113837
0.0112071
0.0110284
0.0108493
0.0106684
0.0104883
0.010306
0.0101277
0.00994412
0.00977697
0.00958949
0.00947492
0.0141142
0.0145794
0.014192
0.0140989
0.0139972
0.0138949
0.0138002
0.0137054
0.0136101
0.0135142
0.013418
0.0133224
0.0132279
0.0131348
0.0130433
0.0129527
0.0128627
0.0127724
0.0126814
0.0125889
0.0124944
0.0123975
0.0122976
0.0121943
0.0120872
0.0119756
0.0118593
0.0117374
0.0116102
0.011476
0.0113369
0.0111881
0.0110401
0.0108716
0.010733
0.014086
0.0145445
0.0141695
0.0140814
0.0139839
0.0138845
0.013791
0.0136965
0.0136004
0.0135031
0.0134049
0.0133066
0.0132088
0.0131121
0.0130161
0.0129208
0.0128255
0.0127296
0.0126325
0.0125335
0.0124323
0.0123282
0.012221
0.01211
0.0119952
0.0118759
0.011752
0.0116225
0.0114881
0.0113466
0.0112012
0.0110439
0.0108914
0.0107053
0.0105731
0.0140542
0.0145081
0.0141444
0.0140614
0.0139674
0.0138701
0.0137774
0.0136826
0.0135855
0.0134864
0.0133857
0.0132843
0.0131829
0.013082
0.0129814
0.0128809
0.0127799
0.0126776
0.0125734
0.0124668
0.0123573
0.0122445
0.0121281
0.0120075
0.0118828
0.0117534
0.0116194
0.0114798
0.0113356
0.0111844
0.0110303
0.0108642
0.0107059
0.0105116
0.0103754
0.0140143
0.0144687
0.0141192
0.0140435
0.0139547
0.0138606
0.0137692
0.0136745
0.0135765
0.0134759
0.0133731
0.0132691
0.0131645
0.01306
0.0129554
0.0128504
0.0127444
0.0126368
0.0125269
0.0124142
0.0122982
0.0121787
0.0120553
0.0119277
0.0117959
0.0116594
0.0115185
0.0113722
0.0112217
0.0110642
0.0109045
0.0107321
0.0105675
0.0103661
0.0102161
0.0139768
0.0144265
0.0140933
0.0140249
0.0139409
0.0138494
0.013759
0.0136643
0.0135656
0.0134635
0.0133586
0.013252
0.0131444
0.0130363
0.0129276
0.0128181
0.0127071
0.012594
0.0124781
0.0123588
0.012236
0.0121092
0.0119784
0.0118433
0.0117039
0.0115599
0.0114117
0.0112583
0.0111012
0.0109375
0.0107728
0.0105958
0.010431
0.0102269
0.010094
0.0139261
0.0143814
0.0140674
0.0140085
0.0139306
0.0138423
0.013753
0.0136582
0.0135586
0.0134551
0.0133484
0.0132395
0.0131292
0.0130179
0.0129057
0.0127921
0.0126765
0.0125584
0.0124371
0.0123122
0.0121834
0.0120505
0.0119134
0.011772
0.0116265
0.0114765
0.0113225
0.0111638
0.0110015
0.0108331
0.010664
0.0104822
0.0103134
0.0101021
0.00996402
0.0138722
0.0143338
0.0140411
0.0139922
0.0139202
0.0138346
0.0137462
0.0136514
0.0135511
0.0134464
0.0133382
0.0132275
0.0131148
0.0130008
0.0128852
0.0127678
0.0126478
0.0125247
0.0123981
0.0122676
0.0121329
0.011994
0.0118508
0.0117035
0.0115521
0.0113965
0.0112371
0.0110734
0.0109066
0.0107342
0.0105622
0.0103779
0.0102096
0.00999781
0.00986909
0.0138078
0.0142852
0.014017
0.0139798
0.0139145
0.0138316
0.0137438
0.0136484
0.0135472
0.0134414
0.0133319
0.0132195
0.0131049
0.0129883
0.0128695
0.0127483
0.0126241
0.0124964
0.0123649
0.0122292
0.0120892
0.0119449
0.0117964
0.0116438
0.0114874
0.011327
0.0111633
0.0109954
0.0108249
0.0106491
0.010474
0.0102866
0.0101151
0.00989922
0.0097633
0.013732
0.0142365
0.013994
0.0139693
0.0139102
0.013829
0.0137414
0.0136455
0.0135436
0.013437
0.0133268
0.0132134
0.0130974
0.0129788
0.0128575
0.0127331
0.0126051
0.0124732
0.0123371
0.0121967
0.0120519
0.0119029
0.0117499
0.0115929
0.0114323
0.011268
0.0111006
0.0109295
0.0107563
0.0105781
0.0104015
0.010213
0.0100423
0.00982737
0.00969797
0.0136561
0.0141963
0.0139773
0.0139645
0.0139108
0.0138307
0.0137426
0.0136458
0.0135431
0.013436
0.0133253
0.0132114
0.0130942
0.0129738
0.01285
0.0127225
0.012591
0.0124553
0.0123152
0.0121707
0.012022
0.011869
0.0117121
0.0115515
0.0113875
0.0112201
0.0110499
0.0108762
0.0107008
0.0105207
0.0103424
0.0101524
0.00998001
0.00976297
0.00962919
0.0135584
0.0141561
0.0139612
0.0139617
0.0139131
0.0138328
0.0137437
0.0136458
0.0135424
0.0134352
0.0133245
0.0132104
0.0130926
0.0129709
0.012845
0.0127148
0.01258
0.0124408
0.0122969
0.0121488
0.0119963
0.0118399
0.0116797
0.0115161
0.0113492
0.0111792
0.0110067
0.0108311
0.0106541
0.0104727
0.0102937
0.0101034
0.00993183
0.00971588
0.0095873
0.0134585
0.0141272
0.0139513
0.0139644
0.0139195
0.0138381
0.0137474
0.0136483
0.0135443
0.0134372
0.013327
0.0132131
0.0130947
0.0129714
0.0128432
0.01271
0.0125719
0.0124292
0.012282
0.0121305
0.0119748
0.0118154
0.0116523
0.011486
0.0113166
0.0111445
0.0109701
0.0107929
0.0106145
0.0104321
0.0102523
0.0100613
0.00988872
0.0096717
0.00953928
0.0133283
0.0141032
0.0139438
0.0139711
0.0139286
0.0138446
0.0137515
0.0136506
0.013546
0.0134393
0.0133299
0.0132165
0.0130979
0.0129735
0.0128432
0.0127074
0.0125663
0.0124204
0.01227
0.0121154
0.0119569
0.0117948
0.0116293
0.0114608
0.0112895
0.0111157
0.0109398
0.0107614
0.0105822
0.0103992
0.0102192
0.0100283
0.00985668
0.00964099
0.00951272
0.0131916
0.0140948
0.0139417
0.0139818
0.0139399
0.0138524
0.0137567
0.0136543
0.0135497
0.0134441
0.013336
0.0132233
0.0131044
0.0129784
0.0128457
0.0127068
0.0125625
0.0124135
0.0122602
0.012103
0.0119421
0.0117777
0.0116102
0.0114399
0.0112669
0.0110917
0.0109146
0.0107353
0.0105553
0.0103719
0.0101916
0.0100006
0.00982848
0.00961239
0.00948084
0.013023
0.0141007
0.0139456
0.0139995
0.0139557
0.0138628
0.0137631
0.0136585
0.0135536
0.013449
0.0133425
0.0132307
0.0131115
0.0129842
0.0128491
0.0127075
0.0125604
0.0124086
0.0122528
0.0120933
0.0119303
0.011764
0.0115948
0.0114229
0.0112487
0.0110724
0.0108945
0.0107145
0.0105342
0.0103507
0.0101706
0.00998024
0.00980913
0.00959488
0.00946709
0.0128346
0.0141247
0.0139514
0.0140173
0.0139698
0.0138713
0.0137684
0.0136626
0.0135587
0.0134564
0.013352
0.0132413
0.0131217
0.0129923
0.0128543
0.0127094
0.0125592
0.0124047
0.0122468
0.0120853
0.0119207
0.0117529
0.0115824
0.0114093
0.0112341
0.0110569
0.0108783
0.010698
0.0105173
0.0103339
0.0101537
0.00996383
0.00979226
0.00957815
0.00944716
0.0126247
0.0141736
0.0139689
0.0140464
0.0139914
0.013885
0.0137775
0.0136694
0.0135658
0.0134653
0.0133626
0.0132524
0.0131315
0.0129997
0.0128589
0.0127112
0.0125586
0.0124022
0.0122425
0.0120795
0.0119136
0.0117445
0.011573
0.011399
0.0112231
0.0110453
0.0108663
0.0106857
0.0105051
0.0103219
0.0101422
0.00995354
0.00978314
0.00957283
0.00944637
0.0123761
0.0142403
0.0139806
0.014068
0.014005
0.0138921
0.0137818
0.0136743
0.0135736
0.0134763
0.0133759
0.013266
0.0131434
0.0130085
0.0128642
0.0127134
0.0125584
0.0124
0.0122391
0.0120749
0.0119082
0.0117382
0.0115661
0.0113913
0.0112149
0.0110367
0.0108575
0.0106768
0.0104961
0.0103133
0.0101335
0.00994583
0.00977389
0.00956467
0.00942903
0.0121255
0.0143347
0.0140129
0.0141073
0.0140322
0.0139123
0.0137981
0.0136885
0.0135877
0.0134907
0.0133895
0.0132773
0.0131514
0.0130133
0.0128666
0.012714
0.0125579
0.0123987
0.0122371
0.0120723
0.0119049
0.0117343
0.0115617
0.0113865
0.01121
0.0110315
0.0108523
0.0106715
0.0104911
0.0103085
0.0101294
0.00994351
0.0097733
0.0095726
0.00943701
0.0118471
0.014433
0.0140309
0.0141334
0.0140491
0.0139234
0.0138067
0.0136979
0.0135989
0.0135029
0.0134015
0.0132879
0.0131597
0.0130187
0.0128692
0.0127148
0.0125577
0.0123979
0.0122359
0.0120707
0.0119031
0.0117321
0.0115593
0.0113839
0.0112072
0.0110286
0.0108494
0.0106686
0.0104882
0.0103059
0.0101268
0.0099419
0.00976836
0.0095691
0.00939851
0.0116132
0.014563
0.0140924
0.014191
0.0140915
0.0139581
0.0138358
0.0137203
0.0136137
0.0135103
0.0134028
0.013285
0.0131549
0.0130141
0.0128661
0.0127131
0.0125569
0.0123976
0.0122358
0.0120706
0.0119029
0.011732
0.0115591
0.0113836
0.011207
0.0110283
0.0108492
0.0106683
0.0104882
0.0103059
0.0101276
0.00994402
0.00977685
0.00958935
0.00947447
0.0141226
0.014574
0.0141918
0.0140989
0.0139972
0.0138949
0.0138002
0.0137054
0.0136101
0.0135142
0.0134181
0.0133224
0.0132279
0.0131349
0.0130433
0.0129527
0.0128627
0.0127724
0.0126813
0.0125888
0.0124944
0.0123975
0.0122976
0.0121943
0.0120872
0.0119756
0.0118593
0.0117374
0.0116102
0.011476
0.0113369
0.0111881
0.0110401
0.0108716
0.0107331
0.0140942
0.0145392
0.0141694
0.0140815
0.0139839
0.0138845
0.0137911
0.0136965
0.0136004
0.0135031
0.0134049
0.0133066
0.0132089
0.0131121
0.0130162
0.0129208
0.0128255
0.0127296
0.0126325
0.0125335
0.0124323
0.0123282
0.012221
0.0121101
0.0119952
0.0118759
0.011752
0.0116226
0.0114882
0.0113467
0.0112012
0.011044
0.0108915
0.0107054
0.0105732
0.0140623
0.014503
0.0141443
0.0140615
0.0139674
0.01387
0.0137773
0.0136826
0.0135855
0.0134864
0.0133858
0.0132844
0.013183
0.013082
0.0129815
0.0128809
0.0127799
0.0126775
0.0125734
0.0124668
0.0123573
0.0122445
0.012128
0.0120075
0.0118828
0.0117534
0.0116193
0.0114798
0.0113356
0.0111844
0.0110303
0.0108642
0.010706
0.0105116
0.0103755
0.0140223
0.0144636
0.0141191
0.0140436
0.0139547
0.0138606
0.0137692
0.0136745
0.0135766
0.0134759
0.0133731
0.0132691
0.0131646
0.01306
0.0129554
0.0128504
0.0127444
0.0126368
0.0125269
0.0124142
0.0122983
0.0121787
0.0120553
0.0119277
0.0117959
0.0116594
0.0115185
0.0113723
0.0112217
0.0110643
0.0109045
0.0107321
0.0105675
0.0103662
0.0102161
0.0139847
0.0144215
0.0140932
0.014025
0.0139409
0.0138494
0.013759
0.0136643
0.0135656
0.0134635
0.0133587
0.0132521
0.0131444
0.0130363
0.0129276
0.0128181
0.0127071
0.012594
0.012478
0.0123588
0.012236
0.0121092
0.0119784
0.0118433
0.0117039
0.0115599
0.0114117
0.0112583
0.0111012
0.0109375
0.0107728
0.0105958
0.0104311
0.0102269
0.0100941
0.0139339
0.0143765
0.0140673
0.0140085
0.0139306
0.0138423
0.013753
0.0136583
0.0135587
0.0134551
0.0133484
0.0132396
0.0131292
0.013018
0.0129057
0.0127921
0.0126765
0.0125583
0.0124371
0.0123122
0.0121834
0.0120505
0.0119134
0.011772
0.0116265
0.0114765
0.0113225
0.0111638
0.0110015
0.0108331
0.010664
0.0104822
0.0103134
0.0101021
0.00996408
0.0138797
0.014329
0.014041
0.0139923
0.0139202
0.0138346
0.0137462
0.0136514
0.0135511
0.0134465
0.0133383
0.0132276
0.0131149
0.0130008
0.0128852
0.0127677
0.0126477
0.0125247
0.0123981
0.0122675
0.0121329
0.0119939
0.0118508
0.0117035
0.0115521
0.0113965
0.0112371
0.0110734
0.0109066
0.0107342
0.0105622
0.0103779
0.0102097
0.00999784
0.00986919
0.0138151
0.0142805
0.014017
0.0139799
0.0139145
0.0138316
0.0137438
0.0136485
0.0135473
0.0134415
0.013332
0.0132196
0.0131049
0.0129883
0.0128695
0.0127483
0.0126241
0.0124964
0.0123649
0.0122291
0.0120892
0.0119449
0.0117964
0.0116438
0.0114874
0.0113271
0.0111633
0.0109954
0.0108249
0.0106491
0.010474
0.0102867
0.0101151
0.00989923
0.00976335
0.0137392
0.014232
0.0139939
0.0139693
0.0139102
0.013829
0.0137414
0.0136456
0.0135437
0.0134371
0.0133268
0.0132135
0.0130974
0.0129788
0.0128574
0.012733
0.012605
0.0124732
0.0123371
0.0121966
0.0120519
0.0119029
0.0117499
0.0115929
0.0114323
0.011268
0.0111006
0.0109295
0.0107563
0.0105781
0.0104015
0.0102131
0.0100423
0.0098274
0.00969807
0.013663
0.0141919
0.0139772
0.0139645
0.0139108
0.0138307
0.0137426
0.0136459
0.0135432
0.0134362
0.0133254
0.0132114
0.0130942
0.0129738
0.0128499
0.0127225
0.0125909
0.0124552
0.0123151
0.0121707
0.0120219
0.011869
0.0117121
0.0115515
0.0113875
0.0112201
0.0110499
0.0108762
0.0107008
0.0105207
0.0103425
0.0101525
0.00998004
0.00976298
0.00962925
0.0135652
0.0141518
0.0139611
0.0139617
0.0139131
0.0138328
0.0137437
0.0136459
0.0135425
0.0134353
0.0133246
0.0132104
0.0130926
0.0129709
0.0128449
0.0127147
0.01258
0.0124407
0.0122969
0.0121487
0.0119963
0.0118399
0.0116797
0.0115161
0.0113492
0.0111792
0.0110067
0.0108311
0.0106541
0.0104727
0.0102937
0.0101034
0.00993187
0.00971591
0.00958739
0.0134651
0.014123
0.0139512
0.0139644
0.0139195
0.0138381
0.0137475
0.0136485
0.0135445
0.0134374
0.0133271
0.0132131
0.0130946
0.0129714
0.0128431
0.0127099
0.0125719
0.0124292
0.0122819
0.0121304
0.0119748
0.0118153
0.0116523
0.011486
0.0113167
0.0111445
0.0109701
0.0107929
0.0106145
0.0104322
0.0102523
0.0100613
0.00988874
0.00967171
0.00953934
0.0133347
0.0140992
0.0139437
0.013971
0.0139286
0.0138447
0.0137516
0.0136508
0.0135462
0.0134394
0.01333
0.0132165
0.0130978
0.0129734
0.0128431
0.0127073
0.0125662
0.0124203
0.01227
0.0121154
0.0119569
0.0117948
0.0116293
0.0114608
0.0112895
0.0111157
0.0109398
0.0107615
0.0105822
0.0103992
0.0102192
0.0100283
0.00985672
0.00964102
0.00951281
0.0131977
0.0140911
0.0139416
0.0139818
0.0139399
0.0138525
0.0137569
0.0136546
0.01355
0.0134442
0.013336
0.0132233
0.0131043
0.0129783
0.0128456
0.0127067
0.0125624
0.0124135
0.0122602
0.012103
0.0119421
0.0117777
0.0116102
0.0114399
0.011267
0.0110917
0.0109146
0.0107353
0.0105554
0.010372
0.0101916
0.0100006
0.0098285
0.0096124
0.00948089
0.0130288
0.0140972
0.0139455
0.0139994
0.0139558
0.0138629
0.0137635
0.0136588
0.0135539
0.0134492
0.0133425
0.0132306
0.0131114
0.012984
0.012849
0.0127074
0.0125603
0.0124085
0.0122528
0.0120932
0.0119302
0.011764
0.0115948
0.0114229
0.0112488
0.0110724
0.0108945
0.0107146
0.0105342
0.0103508
0.0101706
0.00998026
0.00980916
0.00959491
0.00946717
0.0128401
0.0141213
0.0139512
0.0140172
0.0139699
0.0138716
0.0137689
0.0136631
0.0135591
0.0134565
0.0133519
0.0132412
0.0131215
0.0129921
0.0128542
0.0127092
0.0125591
0.0124047
0.0122467
0.0120853
0.0119207
0.0117529
0.0115824
0.0114093
0.0112342
0.0110569
0.0108783
0.010698
0.0105174
0.0103339
0.0101538
0.00996385
0.00979228
0.00957817
0.00944721
0.0126298
0.0141706
0.0139687
0.0140464
0.0139916
0.0138856
0.0137782
0.01367
0.0135662
0.0134654
0.0133624
0.0132521
0.0131312
0.0129995
0.0128587
0.012711
0.0125586
0.0124021
0.0122425
0.0120795
0.0119136
0.0117446
0.0115731
0.011399
0.0112231
0.0110453
0.0108663
0.0106858
0.0105051
0.010322
0.0101422
0.00995356
0.00978317
0.00957287
0.00944646
0.0123808
0.0142374
0.0139802
0.0140681
0.0140056
0.0138932
0.0137829
0.013675
0.0135738
0.0134762
0.0133755
0.0132655
0.0131431
0.0130083
0.0128641
0.0127132
0.0125583
0.0124
0.012239
0.0120749
0.0119082
0.0117383
0.0115661
0.0113913
0.011215
0.0110367
0.0108575
0.0106768
0.0104961
0.0103133
0.0101336
0.00994583
0.00977391
0.00956467
0.00942906
0.012129
0.0143327
0.0140128
0.014108
0.0140338
0.0139141
0.0137994
0.0136891
0.0135875
0.0134901
0.0133888
0.0132767
0.013151
0.013013
0.0128664
0.0127139
0.0125578
0.0123987
0.0122371
0.0120723
0.011905
0.0117344
0.0115618
0.0113865
0.01121
0.0110315
0.0108523
0.0106715
0.0104911
0.0103085
0.0101295
0.0099435
0.00977332
0.00957262
0.0094371
0.0118488
0.0144327
0.0140318
0.0141356
0.0140515
0.013925
0.0138071
0.0136975
0.0135981
0.013502
0.0134007
0.0132873
0.0131593
0.0130185
0.0128691
0.0127147
0.0125576
0.0123978
0.0122359
0.0120707
0.0119031
0.0117322
0.0115593
0.0113839
0.0112072
0.0110285
0.0108494
0.0106685
0.0104882
0.0103059
0.0101268
0.00994186
0.00976836
0.00956901
0.00939833
0.0116212
0.0145654
0.0140932
0.0141912
0.0140912
0.0139572
0.0138346
0.0137189
0.0136125
0.0135095
0.0134023
0.0132848
0.0131549
0.0130141
0.012866
0.012713
0.0125568
0.0123975
0.0122357
0.0120706
0.0119029
0.011732
0.0115591
0.0113836
0.011207
0.0110283
0.0108491
0.0106683
0.0104881
0.0103059
0.0101275
0.00994399
0.00977681
0.00958933
0.00947435
0.0141276
0.0145688
0.0141915
0.0140988
0.0139972
0.0138949
0.0138002
0.0137054
0.0136101
0.0135142
0.0134181
0.0133224
0.0132279
0.0131348
0.0130433
0.0129527
0.0128627
0.0127724
0.0126813
0.0125888
0.0124944
0.0123975
0.0122976
0.0121943
0.0120871
0.0119756
0.0118593
0.0117374
0.0116102
0.011476
0.0113369
0.0111881
0.0110401
0.0108716
0.0107331
0.0140992
0.0145341
0.014169
0.0140814
0.0139839
0.0138845
0.0137911
0.0136965
0.0136005
0.0135032
0.013405
0.0133067
0.0132089
0.0131121
0.0130161
0.0129208
0.0128255
0.0127296
0.0126325
0.0125335
0.0124323
0.0123282
0.012221
0.0121101
0.0119952
0.0118759
0.011752
0.0116226
0.0114882
0.0113467
0.0112012
0.011044
0.0108915
0.0107054
0.0105733
0.0140672
0.0144979
0.0141439
0.0140613
0.0139674
0.01387
0.0137774
0.0136826
0.0135856
0.0134865
0.0133858
0.0132844
0.013183
0.013082
0.0129814
0.0128809
0.0127798
0.0126775
0.0125734
0.0124667
0.0123573
0.0122445
0.012128
0.0120075
0.0118828
0.0117534
0.0116193
0.0114798
0.0113355
0.0111844
0.0110303
0.0108642
0.0107059
0.0105116
0.0103755
0.0140272
0.0144586
0.0141188
0.0140435
0.0139547
0.0138606
0.0137692
0.0136745
0.0135766
0.013476
0.0133732
0.0132691
0.0131646
0.01306
0.0129554
0.0128504
0.0127444
0.0126367
0.0125269
0.0124141
0.0122982
0.0121787
0.0120553
0.0119277
0.0117959
0.0116594
0.0115185
0.0113723
0.0112217
0.0110643
0.0109045
0.0107321
0.0105676
0.0103662
0.0102162
0.0139894
0.0144166
0.0140929
0.0140249
0.0139409
0.0138493
0.013759
0.0136643
0.0135657
0.0134636
0.0133587
0.0132521
0.0131444
0.0130363
0.0129276
0.0128181
0.0127071
0.0125939
0.012478
0.0123588
0.012236
0.0121092
0.0119784
0.0118432
0.0117039
0.0115599
0.0114117
0.0112583
0.0111011
0.0109375
0.0107728
0.0105958
0.0104311
0.010227
0.0100942
0.0139386
0.0143717
0.014067
0.0140084
0.0139306
0.0138423
0.0137531
0.0136583
0.0135587
0.0134552
0.0133485
0.0132396
0.0131293
0.013018
0.0129056
0.012792
0.0126765
0.0125583
0.0124371
0.0123121
0.0121834
0.0120505
0.0119134
0.011772
0.0116265
0.0114765
0.0113225
0.0111638
0.0110015
0.0108331
0.010664
0.0104822
0.0103134
0.0101021
0.00996416
0.0138843
0.0143243
0.0140408
0.0139922
0.0139202
0.0138346
0.0137462
0.0136514
0.0135512
0.0134466
0.0133384
0.0132276
0.0131149
0.0130008
0.0128852
0.0127677
0.0126477
0.0125247
0.0123981
0.0122675
0.0121329
0.0119939
0.0118508
0.0117035
0.0115521
0.0113965
0.0112371
0.0110734
0.0109066
0.0107342
0.0105622
0.010378
0.0102097
0.00999788
0.00986934
0.0138196
0.0142759
0.0140167
0.0139798
0.0139145
0.0138316
0.0137439
0.0136486
0.0135473
0.0134415
0.013332
0.0132196
0.0131049
0.0129883
0.0128695
0.0127483
0.0126241
0.0124964
0.0123648
0.0122291
0.0120891
0.0119449
0.0117964
0.0116438
0.0114874
0.0113271
0.0111633
0.0109954
0.0108249
0.0106491
0.010474
0.0102867
0.0101151
0.00989925
0.00976344
0.0137436
0.0142275
0.0139937
0.0139692
0.0139102
0.013829
0.0137414
0.0136456
0.0135437
0.0134372
0.0133269
0.0132135
0.0130974
0.0129788
0.0128574
0.012733
0.012605
0.0124731
0.012337
0.0121966
0.0120519
0.0119029
0.0117498
0.0115929
0.0114323
0.011268
0.0111006
0.0109295
0.0107563
0.0105781
0.0104015
0.0102131
0.0100423
0.00982744
0.00969822
0.0136673
0.0141875
0.013977
0.0139644
0.0139108
0.0138307
0.0137427
0.013646
0.0135433
0.0134362
0.0133255
0.0132114
0.0130942
0.0129738
0.0128499
0.0127224
0.0125909
0.0124552
0.0123151
0.0121707
0.0120219
0.011869
0.0117121
0.0115515
0.0113875
0.0112201
0.0110499
0.0108763
0.0107008
0.0105207
0.0103425
0.0101525
0.00998003
0.00976301
0.00962935
0.0135694
0.0141475
0.0139608
0.0139616
0.013913
0.0138328
0.0137438
0.013646
0.0135426
0.0134353
0.0133246
0.0132104
0.0130926
0.0129708
0.0128449
0.0127147
0.0125799
0.0124407
0.0122969
0.0121487
0.0119963
0.0118399
0.0116797
0.0115161
0.0113492
0.0111792
0.0110067
0.0108311
0.0106541
0.0104727
0.0102937
0.0101034
0.00993187
0.00971595
0.00958755
0.0134691
0.0141189
0.013951
0.0139643
0.0139195
0.0138382
0.0137476
0.0136486
0.0135446
0.0134375
0.0133271
0.0132131
0.0130946
0.0129713
0.012843
0.0127099
0.0125718
0.0124291
0.0122819
0.0121304
0.0119748
0.0118153
0.0116523
0.011486
0.0113167
0.0111445
0.0109701
0.0107929
0.0106145
0.0104322
0.0102523
0.0100613
0.00988874
0.00967174
0.00953946
0.0133387
0.0140953
0.0139435
0.013971
0.0139286
0.0138447
0.0137517
0.0136509
0.0135463
0.0134395
0.01333
0.0132164
0.0130978
0.0129733
0.0128431
0.0127072
0.0125661
0.0124203
0.0122699
0.0121154
0.0119569
0.0117948
0.0116293
0.0114608
0.0112895
0.0111157
0.0109398
0.0107615
0.0105822
0.0103992
0.0102192
0.0100283
0.00985671
0.00964106
0.00951296
0.0132015
0.0140873
0.0139414
0.0139817
0.0139399
0.0138526
0.0137571
0.0136548
0.0135501
0.0134443
0.013336
0.0132232
0.0131042
0.0129782
0.0128455
0.0127066
0.0125624
0.0124134
0.0122601
0.012103
0.0119421
0.0117777
0.0116102
0.0114399
0.011267
0.0110917
0.0109146
0.0107353
0.0105554
0.010372
0.0101916
0.0100007
0.0098285
0.00961243
0.00948101
0.0130325
0.0140936
0.0139453
0.0139993
0.0139558
0.0138631
0.0137637
0.013659
0.013554
0.0134493
0.0133425
0.0132305
0.0131113
0.0129839
0.0128489
0.0127073
0.0125602
0.0124085
0.0122527
0.0120932
0.0119302
0.011764
0.0115948
0.0114229
0.0112488
0.0110724
0.0108945
0.0107146
0.0105342
0.0103508
0.0101706
0.00998028
0.00980915
0.00959495
0.00946732
0.0128435
0.014118
0.013951
0.0140171
0.01397
0.0138718
0.0137692
0.0136634
0.0135593
0.0134566
0.0133519
0.0132411
0.0131213
0.012992
0.012854
0.0127091
0.012559
0.0124046
0.0122467
0.0120852
0.0119207
0.0117529
0.0115824
0.0114094
0.0112342
0.011057
0.0108784
0.010698
0.0105174
0.0103339
0.0101538
0.00996386
0.00979227
0.0095782
0.00944733
0.012633
0.0141676
0.0139685
0.0140463
0.0139919
0.0138861
0.0137788
0.0136705
0.0135664
0.0134654
0.0133623
0.0132519
0.013131
0.0129993
0.0128585
0.0127109
0.0125585
0.012402
0.0122424
0.0120795
0.0119136
0.0117446
0.0115731
0.011399
0.0112231
0.0110453
0.0108663
0.0106858
0.0105051
0.010322
0.0101422
0.00995358
0.00978316
0.00957291
0.00944663
0.0123837
0.0142347
0.01398
0.0140681
0.0140062
0.0138941
0.0137838
0.0136757
0.013574
0.013476
0.0133751
0.0132651
0.0131427
0.013008
0.0128639
0.0127131
0.0125582
0.0123999
0.012239
0.0120749
0.0119082
0.0117383
0.0115661
0.0113913
0.011215
0.0110367
0.0108575
0.0106768
0.0104961
0.0103133
0.0101336
0.00994582
0.00977389
0.00956468
0.00942916
0.0121313
0.014331
0.0140129
0.0141086
0.0140351
0.0139154
0.0138004
0.0136894
0.0135872
0.0134896
0.0133882
0.0132761
0.0131506
0.0130128
0.0128662
0.0127137
0.0125577
0.0123986
0.0122371
0.0120723
0.011905
0.0117344
0.0115618
0.0113865
0.01121
0.0110315
0.0108522
0.0106715
0.0104911
0.0103085
0.0101294
0.00994348
0.0097733
0.00957261
0.00943713
0.0118504
0.0144328
0.0140324
0.0141369
0.0140533
0.0139261
0.0138073
0.0136971
0.0135973
0.0135012
0.0134
0.0132867
0.013159
0.0130183
0.012869
0.0127146
0.0125575
0.0123978
0.0122358
0.0120707
0.0119031
0.0117322
0.0115593
0.0113839
0.0112072
0.0110285
0.0108493
0.0106685
0.0104881
0.0103058
0.0101267
0.00994181
0.00976833
0.00956893
0.00939774
0.0116198
0.0145668
0.0140942
0.0141915
0.0140913
0.013957
0.0138343
0.0137187
0.0136123
0.0135094
0.0134023
0.0132848
0.0131549
0.0130141
0.012866
0.012713
0.0125568
0.0123975
0.0122357
0.0120706
0.0119029
0.011732
0.0115591
0.0113836
0.011207
0.0110283
0.0108492
0.0106683
0.0104881
0.0103059
0.0101276
0.00994403
0.0097768
0.00958943
0.00947451
0.0141332
0.0145629
0.0141913
0.0140986
0.0139971