/*--------------------------------*- C++ -*----------------------------------*\
  =========                 |
  \\      /  F ield         | OpenFOAM: The Open Source CFD Toolbox
   \\    /   O peration     | Website:  https://openfoam.org
    \\  /    A nd           | Version:  6
     \\/     M anipulation  |
\*---------------------------------------------------------------------------*/
FoamFile
{
    version     2.0;
    format      ascii;
    class       volScalarField;
    location    "2";
    object      yPlus;
}
// * * * * * * * * * * * * * * * * * * * * * * * * * * * * * * * * * * * * * //

dimensions      [0 0 0 0 0 0 0];

internalField   uniform 0;

boundaryField
{
    inlet
    {
        type            calculated;
        value           uniform 0;
    }
    outlet
    {
        type            calculated;
        value           uniform 0;
    }
    roughCylinder
    {
        type            calculated;
        value           nonuniform List<scalar> 
3840
(
48.3384
56.7827
64.7396
71.6945
76.9112
80.7724
83.7255
86.0996
88.1532
89.974
91.6344
93.1982
94.7363
96.3156
97.9856
99.7723
101.679
103.696
105.803
107.973
110.167
112.306
114.207
115.462
47.6056
55.8083
63.5578
70.4083
75.5864
79.4311
82.3787
84.7556
86.8052
88.6039
90.2345
91.7641
93.2652
94.8053
96.4345
98.1783
100.041
102.01
104.068
106.187
108.331
110.42
112.277
113.502
46.846
54.8262
62.3804
69.125
74.2665
78.1013
81.0544
83.4422
85.4892
87.2661
88.8696
90.367
91.8325
93.3346
94.9234
96.6246
98.4423
100.365
102.375
104.444
106.537
108.576
110.39
111.585
46.0339
53.8116
61.1842
67.829
72.9428
76.7805
79.7518
82.1585
84.2075
85.9686
87.5469
89.0136
90.4449
91.9104
93.4604
95.1206
96.8945
98.7718
100.733
102.754
104.797
106.787
108.558
109.724
45.2454
52.8085
59.997
66.5414
71.6325
75.4809
78.4781
80.9085
82.9605
84.7093
86.2653
87.7045
89.1041
90.5349
92.0473
93.6675
95.3993
97.2318
99.1467
101.118
103.114
105.056
106.785
107.922
44.4163
51.7703
58.7799
65.2318
70.3128
74.1858
77.2196
79.679
81.7406
83.4882
85.0261
86.4396
87.8095
89.2074
90.6847
92.2669
93.9577
95.7474
97.6165
99.5416
101.489
103.385
105.072
106.182
43.6404
50.7583
57.5763
63.9327
69.0094
72.9128
75.9854
78.4767
80.5517
82.3007
83.8246
85.2173
86.5607
87.9287
89.3722
90.9177
92.5693
94.3162
96.1414
98.0198
99.9214
101.771
103.42
104.502
42.8225
49.7015
56.3247
62.5911
67.6773
71.6269
74.7523
77.2851
79.3822
81.1425
82.6634
84.0388
85.3591
86.6989
88.1116
89.6226
91.2359
92.9422
94.7234
96.5577
98.4139
100.219
101.828
102.884
42.067
48.6726
55.0786
61.247
66.35
70.3556
73.5355
76.1105
78.2361
80.0114
81.5349
82.8991
84.2008
85.5171
86.9003
88.3779
89.9547
91.6206
93.3605
95.1492
96.9614
98.7227
100.295
101.325
41.2546
47.5813
53.7587
59.8283
64.9598
69.0372
72.2932
74.9332
77.0985
78.9
80.4362
81.799
83.0875
84.3823
85.7399
87.1868
88.7277
90.3541
92.0502
93.7971
95.5652
97.2828
98.8179
99.8232
40.4931
46.501
52.4154
58.3673
63.5377
67.7146
71.0581
73.7554
75.97
77.8054
79.3595
80.7273
82.0094
83.2894
84.6227
86.0391
87.5457
89.1335
90.7897
92.4899
94.2145
95.8894
97.3908
98.3691
39.6382
45.3302
50.9675
56.7953
62.0114
66.2928
69.7465
72.5543
74.8357
76.7165
78.3017
79.6846
80.9676
82.2358
83.55
84.9392
86.4097
87.9564
89.5664
91.2258
92.907
94.5382
96.0028
96.9595
38.7922
44.1262
49.4353
55.0912
60.3586
64.8179
68.4334
71.3219
73.6843
75.6279
77.2517
78.6566
79.9462
81.2099
82.5056
83.8666
85.3049
86.8135
88.3845
89.995
91.6333
93.2233
94.6561
95.5846
37.7586
42.7797
47.7512
53.2375
58.5649
63.1688
66.9409
70.0344
72.5097
74.5247
76.2045
77.6447
78.9514
80.2134
81.4967
82.8348
84.2365
85.7028
87.2242
88.7943
90.3897
91.9341
93.3315
94.2407
36.7081
41.3531
45.8905
51.0791
56.4264
61.3392
65.4387
68.6483
71.2625
73.3929
75.1432
76.6293
77.9588
79.2283
80.4997
81.8116
83.184
84.6115
86.0954
87.6134
89.1649
90.6691
92.0356
92.9147
35.2966
39.6455
43.7649
48.6952
54.1088
59.207
63.5314
67.1602
69.9788
72.2194
74.0612
75.6099
76.9787
78.2603
79.5273
80.8209
82.1534
83.536
84.9633
86.4393
87.9489
89.4033
90.7355
91.599
33.8539
37.8141
41.3617
45.7314
50.9915
56.6171
61.6307
65.4117
68.4901
70.9561
72.9277
74.5606
75.9745
77.2785
78.5418
79.8102
81.1164
82.4576
83.8481
85.2689
86.7298
88.1444
89.4468
90.2767
31.5791
35.3413
38.3748
42.2967
47.5929
53.3601
58.6894
63.4742
66.9678
69.6189
71.7415
73.4762
74.9613
76.2964
77.5644
78.8189
80.0791
81.3696
82.693
84.0654
85.4848
86.844
88.1119
88.9285
29.2087
32.6626
35.0146
37.9249
42.411
49.149
56.0527
60.8852
64.9273
68.0523
70.4282
72.3207
73.8852
75.262
76.5363
77.7664
79.001
80.2452
81.5294
82.8425
84.2085
85.5226
86.7638
87.5418
25.5473
28.8275
30.3072
32.151
36.7414
42.883
49.9864
57.8495
62.844
66.3557
69.0181
71.0793
72.7661
74.2023
75.4917
76.7082
77.8874
79.0674
80.2694
81.5217
82.8416
84.0942
85.2966
86.0655
18.681
22.9152
24.2686
23.8728
23.7517
35.0752
46.7672
52.9592
59.5279
64.1278
67.316
69.6931
71.5219
73.0274
74.3347
75.5282
76.6773
77.806
78.9582
80.1437
81.4051
82.5999
83.7833
84.503
3.01742
8.44425
13.047
20.5022
22.058
18.7416
28.89
48.0102
55.8761
61.5535
65.4332
68.1281
70.1746
71.7856
73.1224
74.2945
75.3709
76.4003
77.4512
78.5543
79.7579
80.8764
82.0155
82.7329
12.3073
14.7545
14.6236
12.9884
19.9897
13.3457
25.9682
29.5807
49.4072
57.7697
62.8742
66.2711
68.5897
70.3177
71.6841
72.834
73.8677
74.8504
75.8147
76.8362
77.9729
79.0204
80.1438
80.7941
23.5967
26.1822
27.009
25.8289
22.2935
27.3162
24.5923
24.8725
39.1512
52.9261
59.9218
64.0345
66.783
68.7041
70.1231
71.2277
72.1489
72.9357
73.7872
74.6783
75.7431
76.6585
77.7584
78.4124
28.0547
31.9307
34.4933
35.7189
34.512
30.9502
25.2081
28.3141
24.578
44.162
55.3467
61.2052
64.5098
66.6361
68.0962
69.1733
70.027
70.8122
71.4543
72.2522
73.2137
74.0732
75.1184
75.6932
29.5813
33.819
37.0234
39.512
40.8311
40.0597
36.5504
32.1494
31.0777
32.2734
49.5542
57.4763
61.7704
64.2664
65.813
66.781
67.4153
67.7319
68.2941
68.8117
69.7247
70.2592
71.4154
71.9607
31.0524
35.2999
38.5847
41.1918
42.918
43.7475
43.2973
38.8548
36.8204
30.6204
40.8157
52.7412
58.0534
60.9014
62.4764
63.3894
63.8996
64.4013
64.385
64.8627
65.5144
66.1338
67.0282
67.6044
31.0311
35.5126
38.9194
41.6908
43.6428
44.7865
45.207
44.3407
36.946
31.0628
29.1761
45.7561
53.4773
57.01
58.6755
59.2715
59.2461
58.4358
58.5825
58.1719
59.1269
58.647
60.2771
60.6132
30.6214
35.192
38.5472
41.2657
43.2137
44.4531
45.1737
45.3061
42.1831
33.5738
33.7535
37.903
46.7222
50.5502
52.0249
52.5061
52.1818
52.5087
50.9824
51.1873
50.8936
51.6053
51.4562
53.8184
29.4187
34.1165
37.4877
40.1983
42.1134
43.2852
43.954
44.3487
43.2922
35.047
35.2236
26.7958
38.5922
44.0398
45.2304
44.8489
42.6747
38.8269
37.9276
33.2727
40.0991
33.0594
36.5531
35.6866
28.4423
33.1044
36.3905
39.0381
40.8892
41.9689
42.4505
42.5139
41.4987
35.733
34.9887
30.92
22.8234
24.8569
24.5655
22.7228
20.4805
19.8548
42.0629
20.548
46.1989
14.0182
5.74687
38.1088
28.5379
32.9645
36.0255
38.4843
40.2002
41.1853
41.5652
41.3772
40.2319
36.2537
27.7113
30.8087
28.0863
25.1128
4.27018
22.5646
36.023
24.5394
38.3303
28.9905
37.1246
35.1064
22.9117
43.4344
28.4428
32.8519
35.8561
38.2684
39.9815
41.0262
41.5451
41.5693
40.6993
37.9808
32.6009
30.1491
32.4438
34.5471
20.0886
33.402
32.2303
30.7542
37.0341
34.8682
33.8849
41.9827
41.0602
32.0189
28.6136
32.9799
35.9277
38.303
40.0506
41.2398
42.0332
42.5607
42.7249
41.9047
39.1571
35.5906
35.1259
37.6479
39.7232
40.3978
43.6863
45.5031
46.0478
47.4652
45.4003
40.472
43.113
38.6682
28.5098
32.917
35.8774
38.2845
40.1337
41.5496
42.6887
43.6543
44.4949
45.1763
45.3545
44.8983
45.1838
47.4403
50.4488
50.9132
52.5922
52.962
52.6371
52.7417
51.0017
46.7458
47.2544
46.9079
28.2532
32.6959
35.6547
38.082
40.031
41.6907
43.2365
44.7102
46.0879
47.4147
48.7423
50.0539
51.5525
53.4147
55.0172
55.5301
56.4525
56.4112
55.4162
55.3353
53.1689
50.1061
49.083
49.7794
27.6292
32.111
35.0455
37.4664
39.4923
41.3719
43.299
45.2771
47.2102
49.0819
50.9251
52.7215
54.4531
56.0399
57.0073
57.449
58.0042
57.5956
56.3485
56.0666
54.024
51.6647
50.1706
50.999
26.4265
30.9458
33.8098
36.168
38.213
40.2522
42.4798
44.8391
47.1522
49.3384
51.4145
53.3256
54.9189
56.0498
56.5552
56.8313
57.139
56.5245
55.3405
54.9502
53.2774
51.4073
50.0619
50.6577
24.5473
29.0606
31.7568
33.9321
35.8656
37.937
40.3524
42.9848
45.539
47.8206
49.807
51.4977
52.7948
53.6071
53.9735
54.3148
54.6715
54.2011
53.218
52.6897
51.3802
49.9609
48.9922
49.255
21.9943
26.4507
28.8515
30.6519
32.228
34.0755
36.4677
39.222
41.9027
44.1687
45.9539
47.3883
48.5892
49.6063
50.5135
51.4874
52.3277
52.3037
51.4519
50.5268
49.2545
48.1879
47.5838
47.5151
19.0492
16.852
15.3949
10.2266
5.09479
20.9796
30.6094
35.1186
37.7067
39.4379
40.7087
41.7021
42.5255
43.2133
43.7774
44.1909
44.3984
44.3412
44.0623
43.7441
43.7413
44.0586
44.3365
44.3914
44.1819
43.7667
43.2024
42.5152
41.6943
40.7047
39.4414
37.7222
35.1578
30.7115
21.2548
5.7006
10.0868
15.3377
16.822
18.9735
23.3323
20.7857
18.5858
12.7694
13.5793
26.2616
34.5814
38.8474
41.488
43.3223
44.7119
45.8257
46.773
47.598
48.3219
48.9165
49.3163
49.439
49.2953
49.0804
49.0776
49.291
49.4334
49.3085
48.9065
48.3104
47.5864
46.7627
45.8183
44.7087
43.3266
41.5039
38.8855
34.6713
26.4868
13.9372
12.7159
18.5128
20.7412
23.2624
25.2801
22.166
19.0667
14.3712
19.9349
30.8994
38.0039
41.9871
44.6622
46.613
48.1556
49.4429
50.5837
51.6288
52.6095
53.4853
54.1721
54.5649
54.6462
54.5827
54.5801
54.6412
54.5583
54.163
53.4737
52.5961
51.6153
50.5715
49.4338
48.151
46.616
44.6763
42.0214
38.0786
31.079
20.2299
14.467
18.9934
22.1062
25.2112
26.4099
22.4241
18.8158
18.4832
26.5514
35.4849
41.298
44.9689
47.6256
49.6553
51.3168
52.7473
54.0551
55.302
56.5112
57.64
58.5826
59.2182
59.502
59.5545
59.5518
59.4964
59.2103
58.5717
57.6262
56.4956
55.2861
54.0405
52.7359
51.3099
49.656
47.6366
44.9979
41.3568
35.6169
26.7835
18.7063
18.8174
22.3628
26.3561
27.1669
22.2556
20.0518
24.0065
31.9945
39.1396
44.0259
47.4889
50.1282
52.225
53.9828
55.5304
56.9734
58.3873
59.7831
61.1163
62.2651
63.0955
63.5387
63.676
63.6732
63.5324
63.0862
62.2525
61.1006
59.7654
58.3691
56.9564
55.5165
53.9736
52.223
50.136
47.5124
44.0728
39.2347
32.1684
24.2391
20.1924
22.2436
27.1618
28.2782
22.8847
22.8125
28.3072
35.5295
41.5593
46.0182
49.4188
52.0972
54.2822
56.1419
57.8009
59.3634
60.9157
62.4611
63.9523
65.2599
66.24
66.8059
67.0083
67.0053
66.7989
66.2296
65.2459
63.9352
62.4418
60.8958
59.3445
57.785
56.1307
54.278
52.1024
49.4379
46.0575
41.6324
35.6609
28.5058
23.0074
22.9578
28.3545
30.2085
24.3414
24.9214
30.5502
37.277
42.9173
47.3335
50.8045
53.5898
55.8921
57.8679
59.6396
61.3118
62.9762
64.6356
66.2398
67.6593
68.7466
69.4028
69.6546
69.6515
69.3953
68.7354
67.6445
66.2219
64.6155
62.9555
61.2918
59.6225
57.8555
55.8866
53.5937
50.8214
47.369
42.9806
37.385
30.7174
25.1038
24.4577
30.3558
32.7463
26.0779
25.9243
31.2451
37.8571
43.5769
48.1501
51.7757
54.7068
57.1427
59.2404
61.1217
62.8911
64.6414
66.3786
68.0514
69.536
70.6878
71.4019
71.6866
71.6835
71.3942
70.6763
69.5212
68.0336
66.3588
64.6209
62.8714
61.1047
59.2281
57.1372
54.7107
51.7926
48.1852
43.638
37.956
31.3929
26.0781
26.2065
32.9245
35.3758
28.0474
26.6826
31.5132
38.068
43.966
48.7181
52.5039
55.5742
58.1341
60.3412
62.3176
64.1651
65.9729
67.7513
69.4494
70.9535
72.1267
72.8652
73.1643
73.1612
72.8576
72.1156
70.9393
69.4328
67.733
65.954
64.147
62.3023
60.3305
58.13
55.5794
52.5217
48.7536
44.0264
38.1609
31.6437
26.8043
28.1702
35.5382
37.6444
30.1475
28.1739
32.5136
38.7384
44.582
49.3669
53.2207
56.3667
59.0032
61.2819
63.3207
65.2148
67.0473
68.8287
70.5105
71.9898
73.1426
73.8715
74.1662
74.1631
73.8644
73.1326
71.9774
70.4962
68.8131
67.0314
65.1997
63.3083
61.2739
59.0015
56.3736
53.2392
49.4007
44.6368
38.8176
32.6152
28.2582
30.232
37.743
39.4775
32.4306
30.9121
34.9041
40.4793
45.8906
50.4515
54.2019
57.3059
59.9323
62.2156
64.2619
66.1559
67.9726
69.7154
71.3396
72.7526
73.8457
74.5327
74.8047
74.802
74.5266
73.8374
72.7427
71.3286
69.7036
67.9607
66.1449
64.2533
62.2109
59.933
57.3137
54.2188
50.4797
45.9328
40.5349
34.9673
30.9552
32.4484
39.4798
41.1951
35.2838
34.8295
38.5277
43.3392
48.074
52.1919
55.6666
58.5976
61.1113
63.3164
65.3006
67.1361
68.8898
70.5503
72.0769
73.3854
74.3846
75.0022
75.2364
75.2341
74.9974
74.3785
73.3785
72.0695
70.5428
68.8824
67.1294
65.2957
63.3143
61.1129
58.6037
55.6784
52.2102
48.0994
43.3697
38.5579
34.8436
35.2503
41.1157
43.1109
38.7913
39.3634
42.7826
46.9228
50.9684
54.5628
57.6619
60.3261
62.6449
64.7015
66.566
68.3022
69.9487
71.4908
72.8849
74.0597
74.9396
75.4689
75.6558
75.6539
75.4654
74.9357
74.0558
72.8811
71.487
69.9448
68.2985
66.5627
64.6994
62.6445
60.3279
57.6663
54.5698
50.9781
46.9341
42.793
39.3663
38.7538
43.0126
45.2551
42.586
43.9318
47.1382
50.7775
54.2666
57.3893
60.1143
62.488
64.5774
66.4459
68.1526
69.7601
71.2718
72.6721
73.9144
74.9402
75.6896
76.1236
76.2616
76.2601
76.1212
75.6874
74.9383
73.9127
72.6703
71.2695
69.7572
68.1489
66.4417
64.5727
62.4827
60.108
57.3821
54.2585
50.7689
47.1301
43.9253
42.5663
45.1895
47.4771
46.2404
48.1294
51.1937
54.483
57.5699
60.329
62.7478
64.8713
66.7544
68.4539
70.0302
71.5104
72.8921
74.1502
75.2443
76.1264
76.7522
77.0979
77.1936
77.1924
77.096
76.7504
76.1247
75.2424
74.1475
72.8881
71.5045
70.0221
68.4431
66.7406
64.854
62.7263
60.3027
57.5384
54.4471
51.1566
48.0982
46.2234
47.4608
49.5639
49.3869
51.6411
54.6346
57.7135
60.5518
63.0785
65.2952
67.2479
68.9871
70.5713
72.0503
73.4318
74.7066
75.8472
76.8186
77.583
78.1091
78.386
78.4521
78.451
78.3841
78.1066
77.5798
76.8143
75.8412
74.6983
73.4205
72.0354
70.5519
68.9623
67.2164
65.2554
63.0285
60.4901
57.6395
54.5515
51.5601
49.3442
49.6088
51.157
51.6504
54.1346
57.1143
60.102
62.8282
65.2498
67.3747
69.248
70.9204
72.4576
73.8871
75.2133
76.4209
77.4849
78.375
79.0617
79.5236
79.7595
79.8124
79.8111
79.7566
79.5188
79.0547
78.3655
77.4722
76.4043
75.1919
73.8601
72.4235
70.8776
69.1935
67.3053
65.1618
62.7178
59.9658
56.9544
53.966
51.5374
51.2289
51.8207
52.5265
55.0893
58.0962
61.1039
63.8514
66.2975
68.4468
70.3404
72.0268
73.5739
75.0034
76.3188
77.5044
78.538
79.3933
80.0469
80.484
80.7094
80.7668
80.7659
80.7073
80.4797
80.0403
79.3839
78.5254
77.488
76.2977
74.9768
73.5404
71.9844
70.2857
68.3764
66.2076
63.738
60.9633
57.9278
54.8999
52.3476
51.7264
51.0839
51.6545
54.1381
57.1579
60.2412
63.0965
65.6601
67.9233
69.9182
71.6864
73.2894
74.7584
76.0986
77.2991
78.34
79.1989
79.8557
80.2996
80.538
80.6113
80.6106
80.536
80.2951
79.8485
79.1884
78.3257
77.2802
76.0742
74.7272
73.2493
71.6349
69.8503
67.8339
65.543
62.9447
60.0466
56.9149
53.8463
51.3451
50.8359
49.0873
49.0027
51.1155
54.0693
57.2409
60.2607
63.0114
65.4587
67.6196
69.5245
71.2205
72.7596
74.1514
75.3933
76.468
77.3565
78.0405
78.5106
78.7744
78.8682
78.8705
78.7804
78.5188
78.0501
77.3668
76.4786
75.4033
74.16
72.7658
71.2227
69.5206
67.6059
65.4314
62.9666
60.195
57.1522
53.9614
51.0036
48.9346
49.1651
47.1738
46.3813
47.8679
50.4827
53.5302
56.5595
59.3903
61.9503
64.2327
66.2524
68.038
69.6378
71.0758
72.3535
73.459
74.3746
75.0829
75.5737
75.8534
75.9572
75.9598
75.8595
75.5807
75.0894
74.3798
73.4619
72.353
71.0709
69.6268
68.0185
66.22
64.1827
61.8776
59.2888
56.4244
53.3607
50.2934
47.7053
46.3592
47.3991
46.2248
44.9216
45.7716
47.925
50.7045
53.6044
56.3914
58.9569
61.2699
63.331
65.157
66.7824
68.2398
69.5323
70.6514
71.5792
72.2981
72.7962
73.0782
73.1827
73.1918
73.1003
72.8247
72.3307
71.6151
70.6905
69.5749
68.2862
66.8328
65.2115
63.3883
61.3297
59.019
56.4557
53.6714
50.7764
48.0073
45.8768
45.0635
46.4059
46.336
44.7643
45.2073
46.9928
49.5111
52.2416
54.9238
57.427
59.7037
61.7437
63.5559
65.1681
66.6128
67.8939
69.003
69.9222
70.6327
71.121
71.3895
71.4794
71.4881
71.4056
71.1347
70.6416
69.9261
69.003
67.8913
66.6088
65.1633
63.5504
61.7352
59.6909
57.4085
54.897
52.2027
49.4545
46.9084
45.0772
44.5514
45.9773
46.1131
44.5872
44.962
46.6415
49.0684
51.735
54.3767
56.8562
59.1198
61.1521
62.9587
64.565
66.0031
67.277
68.3786
69.2897
69.9914
70.4688
70.7235
70.7997
70.8098
70.7327
70.4604
69.9617
69.2392
68.3088
67.1896
65.8987
64.4417
62.8116
60.969
58.8913
56.5724
54.0249
51.3023
48.5448
46.0295
44.2907
43.9477
45.6069
48.3343
56.7771
64.7335
71.689
76.906
80.7671
83.7197
86.0937
88.1471
89.9675
91.6272
93.1905
94.728
96.3064
97.9755
99.7611
101.667
103.682
105.788
107.958
110.15
112.294
114.193
115.449
47.6086
55.8073
63.5544
70.404
75.5823
79.427
82.3745
84.7509
86.7997
88.598
90.2281
91.7571
93.2577
94.7972
96.4255
98.1684
100.029
101.998
104.054
106.174
108.315
110.41
112.265
113.49
46.8466
54.8248
62.3779
69.1219
74.263
78.0972
81.0495
83.4368
85.4837
87.2604
88.8632
90.3602
91.825
93.3263
94.9143
96.6144
98.4308
100.353
102.36
104.43
106.52
108.566
110.378
111.573
46.0386
53.8125
61.1826
67.8259
72.939
76.7766
79.748
82.1544
84.2025
85.9628
87.5406
89.0067
90.4374
91.9021
93.4512
95.1104
96.8831
98.7593
100.719
102.74
104.78
106.777
108.546
109.712
45.2439
52.8066
59.995
66.5395
71.6302
75.4779
78.474
80.9036
82.9552
84.7038
86.2593
87.6979
89.0967
90.5266
92.0382
93.6571
95.3876
97.2189
99.1318
101.104
103.096
105.046
106.773
107.91
44.4197
51.7713
58.7793
65.2297
70.3097
74.1824
77.2161
79.6754
81.7364
83.483
85.02
86.4329
87.802
89.1992
90.6753
92.2566
93.9462
95.7342
97.6014
99.5272
101.47
103.375
105.06
106.17
43.6373
50.7561
57.5749
63.9317
69.0081
72.9109
75.9824
78.4729
80.5469
82.2955
83.819
85.2111
86.5536
87.9205
89.3631
90.907
92.5569
94.3027
96.1251
98.005
99.9019
101.762
103.407
104.489
42.8251
49.7029
56.3252
62.5904
67.6755
71.6249
74.7499
77.282
79.3789
81.1385
82.658
84.0324
85.3518
86.6909
88.102
89.6119
91.2236
92.9284
94.7072
96.5422
98.3928
100.209
101.817
102.872
42.0653
48.6725
55.0797
61.2484
66.3507
70.3546
73.5334
76.1084
78.2324
80.0065
81.5299
82.8937
84.1943
85.5091
86.8913
88.367
89.942
91.6064
93.3427
95.1334
96.9396
98.7132
100.283
101.313
41.2569
47.5826
53.7592
59.8276
64.9587
69.0372
72.2933
74.9309
77.0966
78.898
80.432
81.793
83.0805
84.3745
85.73
87.1756
88.7146
90.3396
92.033
93.7805
95.5411
97.2738
98.8071
99.8108
40.4961
46.5067
52.423
58.3757
63.5442
67.7159
71.0562
73.7556
75.9674
77.8005
79.3552
80.7231
82.0037
83.2815
84.6139
86.0283
87.5323
89.1182
90.769
92.4731
94.1897
95.8809
97.3779
98.3565
39.6394
45.3297
50.9652
56.7906
62.0068
66.2942
69.7513
72.5526
74.8364
76.7182
78.2996
79.6792
80.9609
82.2283
83.54
84.927
86.3956
87.9411
89.548
91.2081
92.8778
94.5305
95.9928
96.9468
38.803
44.1414
49.4549
55.1141
60.3789
64.8242
68.4302
71.3277
73.6829
75.6218
77.248
78.6542
79.9416
81.2025
82.4967
83.8558
85.2904
86.7967
88.3606
89.977
91.6049
93.2148
94.6425
95.5716
37.7581
42.7761
47.7435
53.2236
58.5505
63.1721
66.9558
70.0286
72.5129
74.5334
76.2064
77.6406
78.9456
80.2064
81.4866
82.821
84.2212
85.6858
87.2033
88.7746
90.3523
91.9284
93.3227
94.2277
36.7239
41.3756
45.9209
51.1191
56.4658
61.3462
65.4246
68.6694
71.2674
73.3843
75.1395
76.6296
77.956
79.2217
80.4906
81.8011
83.1674
84.5927
86.0663
87.5937
89.1311
90.661
92.0224
92.9013
35.2971
39.6441
43.7598
48.6787
54.0888
59.2335
63.5807
67.1398
69.9766
72.2374
74.07
75.6079
76.9743
78.2537
79.5173
80.8047
82.1367
83.5165
84.9386
86.4179
87.8993
89.4009
90.7287
91.5855
33.8562
37.8174
41.3667
45.7511
51.0179
56.5596
61.5497
65.4578
68.5176
70.9484
72.9247
74.5649
75.9742
77.273
78.5319
79.8
81.0964
82.4366
83.8127
85.2452
86.6874
88.1379
89.4348
90.2624
31.5874
35.3667
38.4188
42.3427
47.6287
53.5596
58.8915
63.44
66.9434
69.6446
71.76
73.4784
74.9592
76.2905
77.5543
78.7996
80.0603
81.3456
82.6611
84.0419
85.4186
86.8461
88.1071
88.9152
29.1128
32.5359
34.8309
37.663
42.1674
48.5669
55.6052
60.9165
64.9942
68.0556
70.4314
72.3312
73.8886
75.2579
76.5255
77.7549
78.9757
80.2222
81.4852
82.814
84.1489
85.5197
86.754
87.5272
25.5503
28.8858
30.4647
32.6027
37.1382
44.2887
50.9083
57.8632
62.8062
66.3983
69.0509
71.0897
72.7679
74.1974
75.4802
76.686
77.8651
79.036
80.2258
81.4955
82.7522
84.1032
85.2966
86.051
17.6502
22.0118
23.1103
21.3793
23.3673
30.5545
44.3371
52.7783
59.5755
64.1356
67.3383
69.7155
71.5302
73.0241
74.3235
75.5127
76.6446
77.7806
78.8997
80.1094
81.3112
82.604
83.7745
84.4899
6.52282
9.82657
13.304
16.478
12.4945
8.96736
30.1403
47.4382
55.9673
61.7068
65.5004
68.1543
70.1833
71.783
73.1065
74.2691
75.3412
76.3586
77.3875
78.5208
79.6316
80.8991
82.0267
82.7166
10.8063
12.6667
10.8037
16.154
23.2305
17.4575
26.0497
32.3269
49.0594
57.7339
62.9538
66.3183
68.6046
70.3129
71.6729
72.8096
73.8241
74.8159
75.731
76.8005
77.8137
79.0348
80.1365
80.7873
24.8862
27.9622
28.9606
27.4276
24.941
17.9228
24.6074
27.423
40.9957
53.4174
60.087
64.0943
66.8031
68.7055
70.0966
71.1973
72.1052
72.8891
73.6798
74.6243
75.5372
76.7169
77.789
78.3933
29.0424
33.1521
36.1609
37.9317
37.5432
34.6386
27.4166
13.346
16.2182
45.1226
55.6413
61.2978
64.5305
66.6253
68.0844
69.1293
69.9631
70.7351
71.3242
72.2291
72.9236
74.096
75.13
75.6938
30.5929
35.0309
38.5172
41.2442
42.9091
43.1056
40.3035
31.1472
30.7912
32.5774
50.272
57.6362
61.8063
64.2732
65.7607
66.7427
67.3472
67.7182
68.0616
68.7138
69.2991
70.4157
71.4644
71.9565
31.7526
36.2366
39.7486
42.5587
44.4957
45.5121
45.2808
40.6658
32.97
23.4474
40.6993
52.8345
58.0628
60.8757
62.4644
63.293
63.7965
64.1553
64.1429
64.892
64.9423
66.1292
67.1674
67.5514
31.3559
35.9643
39.5394
42.4223
44.4936
45.8029
46.3431
45.4859
38.8795
34.6171
33.8709
46.2683
53.5271
57.0336
58.5542
59.2406
59.1376
58.6374
57.8265
58.0156
58.0208
59.1151
60.2542
60.6429
30.9779
35.5182
38.8574
41.5707
43.525
44.7711
45.4483
45.294
41.5734
39.1294
30.0884
37.7333
46.5625
50.5281
52.08
52.2727
52.0584
51.3158
50.2278
51.4239
50.2531
51.0226
53.0116
52.4445
29.4146
34.1159
37.4897
40.1974
42.1014
43.2435
43.801
43.8315
42.3283
37.0759
38.1267
31.3861
38.4898
44.355
45.1416
44.7605
42.8417
40.3735
33.033
34.3388
35.0343
33.2398
34.5615
34.838
28.3869
33.0291
36.2885
38.9053
40.722
41.7574
42.1477
41.9078
40.3125
34.7632
35.7597
26.7282
23.9886
25.7197
25.9022
33.502
18.4979
4.73512
34.0201
25.6274
40.2175
15.4772
27.3348
36.873
28.4425
32.8411
35.8692
38.291
39.9663
40.9116
41.2662
40.9931
39.2989
33.8752
23.5433
31.5876
8.38907
22.9125
33.0032
42.4954
27.3143
14.3875
17.185
29.6745
41.0388
24.5803
34.5059
32.6847
28.3542
32.7368
35.7055
38.0745
39.7363
40.7261
41.2241
41.3339
40.5899
37.3176
29.2591
25.0727
24.5825
35.1526
38.4196
39.4477
36.6893
37.7062
38.892
35.8541
32.0535
36.9843
31.0887
38.9746
28.5889
32.9133
35.8207
38.1497
39.8424
40.9702
41.7175
42.2592
42.5916
42.185
39.6976
34.9379
34.5605
32.4609
41.9628
40.6663
43.0072
45.1515
47.8533
43.7473
45.8959
46.2354
44.0551
42.2464
28.4936
32.8712
35.7998
38.1667
39.9645
41.3242
42.4273
43.3942
44.254
44.9971
45.3389
44.7116
44.3701
46.0154
47.0106
51.2964
51.7456
52.2129
52.8245
50.549
51.1875
50.3285
49.4829
47.5035
28.2921
32.6999
35.6248
38.0083
39.9011
41.501
43.0151
44.5212
45.9845
47.3818
48.7102
49.8809
51.076
52.716
53.9213
55.7272
55.5735
55.4531
54.9996
53.5195
53.251
51.8576
51.5726
49.5037
27.6754
32.1309
35.0379
37.4184
39.3865
41.1995
43.0811
45.0642
47.0539
49.0049
50.8965
52.6343
54.2214
55.7912
56.7498
57.4997
57.1256
56.7463
55.8142
54.7039
53.7287
52.3698
52.2616
50.6394
26.5005
30.9914
33.828
36.144
38.1264
40.0927
42.2706
44.6329
47.0002
49.262
51.3974
53.3192
54.8924
56.0794
56.6177
56.7631
56.3113
55.9265
54.905
53.9672
52.7182
51.573
51.5738
50.4366
24.624
29.1158
31.7907
33.9269
35.7957
37.7871
40.1424
42.7663
45.3675
47.7332
49.8091
51.5611
52.8899
53.7465
54.0936
54.176
54.0129
53.8707
53.0165
52.0557
50.7617
49.8822
49.9912
49.265
22.0817
26.5211
28.9075
30.6754
32.1886
33.9515
36.2747
39.0088
41.7246
44.0721
45.9613
47.4826
48.7219
49.736
50.5787
51.3565
51.9476
52.2123
51.5055
50.1969
48.7655
48.0161
48.198
47.7844
48.233
46.4777
45.5448
43.8415
42.8336
41.222
40.1934
38.6524
37.6105
36.2016
35.1472
34.0043
32.9796
31.9231
31.225
30.3215
29.6453
29.012
28.732
28.4955
28.512
28.6643
29.0109
29.6065
30.3164
31.1076
31.8614
32.9962
33.8933
35.2001
36.2302
37.5545
38.6985
40.1855
41.2085
42.8288
43.849
45.5589
46.491
48.2401
56.8511
55.2217
54.2839
52.7601
51.7565
50.358
49.3476
48.0003
47.0488
45.7983
44.9285
43.8798
42.9245
42.0949
41.4082
40.6033
40.0105
39.5434
39.1601
38.9571
39.0592
39.1536
39.5457
40.0087
40.6024
41.3428
42.0987
42.9206
43.8385
44.8796
45.8777
46.9473
48.034
49.313
50.3221
51.7439
52.7673
54.2985
55.2351
56.8596
64.925
63.3626
62.4164
60.96
59.9384
58.5965
57.5559
56.3202
55.3201
54.203
53.2812
52.3066
51.4361
50.6354
49.9212
49.2461
48.6907
48.2486
47.9118
47.7343
47.7615
47.9164
48.2505
48.6956
49.2448
49.9098
50.6374
51.4318
52.3041
53.2637
54.2244
55.2918
56.3243
57.5475
58.5853
59.9341
60.9639
62.425
63.3716
64.9324
71.8809
70.3001
69.2742
67.7942
66.7033
65.3417
64.2447
63.0114
61.9562
60.8571
59.8842
58.9263
58.0613
57.2596
56.5425
55.9072
55.3735
54.9496
54.6482
54.4879
54.4912
54.6494
54.9509
55.3756
55.9082
56.5428
57.2607
58.0615
58.9283
59.8832
60.8612
61.9534
63.0122
64.2446
65.3415
66.7045
67.7975
69.2791
70.3057
71.8863
77.0591
75.4247
74.3117
72.787
71.6257
70.2331
69.08
67.8269
66.7297
65.6195
64.6184
63.6565
62.7841
61.9829
61.2713
60.6508
60.1336
59.728
59.4458
59.2973
59.2979
59.4464
59.7291
60.135
60.6523
61.2728
61.9845
62.7858
63.6585
64.6204
65.6219
66.7312
67.8287
69.0818
70.2353
71.6288
72.7909
74.316
75.4292
77.0633
80.8848
79.2088
78.0295
76.4779
75.2638
73.8562
72.6637
71.4017
70.2795
69.1643
68.1512
67.1887
66.3158
65.5193
64.8156
64.2071
63.7038
63.3129
63.0436
62.9032
62.9034
63.0442
63.3139
63.7051
64.2086
64.8171
65.521
66.3177
67.1909
68.1536
69.1669
70.282
71.4043
72.6663
73.8591
75.2674
76.4821
78.0339
79.2134
80.8888
83.8095
82.108
80.8759
79.3134
78.0591
76.6466
75.4272
74.1619
73.0249
71.9077
70.8889
69.9275
69.0563
68.265
67.568
66.9682
66.4746
66.0935
65.8324
65.697
65.6972
65.8329
66.0944
66.4758
66.9696
67.5696
68.2668
69.0583
69.9299
70.8916
71.9104
73.0278
74.165
75.4305
76.65
78.063
79.3177
80.8805
82.1127
83.8138
86.1597
84.4464
83.1724
81.6062
80.3225
78.9062
77.6684
76.3988
75.2512
74.1306
73.1069
72.1443
71.2721
70.4823
69.7879
69.1919
68.7025
68.3257
68.0682
67.9349
67.935
68.0687
68.3266
68.7037
69.1934
69.7896
70.4843
71.2744
72.1467
73.1097
74.1337
75.2545
76.4022
77.6721
78.9101
80.3268
81.6106
83.1773
84.4513
86.1646
88.1975
86.4642
85.1608
83.5826
82.2777
80.8512
79.598
78.3193
77.1603
76.0322
75.0001
74.0317
73.154
72.3602
71.6626
71.0645
70.5735
70.1958
69.9375
69.8035
69.8036
69.938
70.1967
70.5748
71.0661
71.6645
72.3624
73.1565
74.0344
75.0032
76.0356
77.164
78.3232
79.6021
80.8554
82.2823
83.5872
85.166
86.4692
88.2028
90.0165
88.2568
86.9328
85.337
84.0141
82.5739
81.3051
80.0145
78.842
77.7031
76.6597
75.6816
74.7946
73.9926
73.2875
72.6829
72.1861
71.8036
71.5417
71.4051
71.4053
71.5423
71.8047
72.1876
72.6847
73.2896
73.995
74.7973
75.6847
76.6631
77.7067
78.8459
80.0186
81.3095
82.5785
84.0191
85.342
86.9382
88.2622
90.0222
91.6836
89.8944
88.5538
86.9371
85.597
84.14
82.8545
81.5489
80.361
79.2081
78.1507
77.1596
76.2599
75.4462
74.7303
74.1153
73.6095
73.2193
72.9513
72.8108
72.811
72.952
73.2205
73.6111
74.1172
74.7326
75.4489
76.263
77.1629
78.1543
79.212
80.3653
81.5533
82.8593
84.1449
85.6024
86.9425
88.5596
89.9002
91.6897
93.2587
91.4382
90.0836
88.4435
87.0868
85.6104
84.3076
82.9846
81.7797
80.6105
79.5369
78.5303
77.6155
76.7875
76.0576
75.4297
74.9122
74.512
74.2363
74.0906
74.0909
74.2371
74.5133
74.9139
75.4318
76.0601
76.7904
77.6187
78.5339
79.5408
80.6146
81.7843
82.9893
84.3127
85.6156
87.0924
88.4493
90.0898
91.4444
93.2655
94.8103
92.9568
91.5894
89.9241
88.5505
87.0529
85.7319
84.3897
83.1665
81.9791
80.8876
79.8635
78.9316
78.0872
77.341
76.6979
76.1665
75.7543
75.4694
75.3177
75.318
75.4702
75.7557
76.1683
76.7002
77.3437
78.0903
78.9351
79.8673
80.8917
81.9835
83.1713
84.3947
85.7373
87.0585
88.5565
89.9302
91.5961
92.9634
94.8175
96.4037
94.5155
93.1351
91.4427
90.0514
88.5309
87.1904
85.8272
84.5841
83.3767
82.2656
81.2223
80.2715
79.4082
78.6439
77.9834
77.436
77.01
76.7143
76.5558
76.5561
76.7151
77.0114
77.4379
77.9858
78.6468
79.4115
80.2752
81.2264
82.27
83.3814
84.5892
85.8326
87.1962
88.5369
90.0579
91.4493
93.1424
94.5227
96.4117
98.0882
96.1632
94.7686
93.0469
91.6364
90.0909
88.729
87.3429
86.0781
84.8488
83.7162
82.6518
81.6801
80.7959
80.0112
79.3311
78.7654
78.3235
78.0154
77.8491
77.8494
78.0162
78.325
78.7675
79.3337
80.0142
80.7993
81.684
82.656
83.7209
84.8538
86.0835
87.3486
88.7353
90.0973
91.6434
93.0541
94.7765
96.171
98.0969
99.8891
97.9252
96.5144
94.7614
93.3295
91.7569
90.3718
88.9606
87.6721
86.4189
85.2628
84.1752
83.1804
82.2732
81.4659
80.7638
80.1774
79.7172
79.3946
79.2194
79.2198
79.3956
79.7188
80.1796
80.7665
81.4691
82.2769
83.1845
84.1797
85.2678
86.4242
87.6779
88.9668
90.3784
91.7638
93.3371
94.7691
96.523
97.9337
99.8987
101.81
99.8056
98.3771
96.5906
95.1354
93.5339
92.1234
90.6853
89.3711
88.0921
86.9107
85.798
84.778
83.8458
83.0136
82.2871
81.6773
81.196
80.8566
80.671
80.6714
80.8576
81.1977
81.6796
82.29
83.017
83.8497
84.7823
85.8028
86.916
88.0978
89.3773
90.6918
92.1305
93.5413
95.1438
96.5991
98.3863
99.8149
101.821
103.842
101.795
100.347
98.5254
97.0451
95.4131
93.9761
92.5092
91.1682
89.8618
88.6537
87.5141
86.4672
85.5082
84.649
83.8957
83.2597
82.7542
82.395
82.1972
82.1976
82.3961
82.756
83.2621
83.8987
84.6526
85.5123
86.4718
87.5192
88.659
89.868
91.1748
92.5163
93.9838
95.4213
97.0544
98.5347
100.357
101.805
103.853
105.963
103.874
102.404
100.548
99.0421
97.3786
95.9137
94.4177
93.0483
91.7137
90.4773
89.3103
88.2355
87.248
86.3604
85.5777
84.9128
84.3797
83.9972
83.7846
83.7851
83.9983
84.3816
84.9154
85.5811
86.3642
87.2527
88.2402
89.3158
90.4834
91.7202
93.0553
94.4252
95.9221
97.3875
99.052
100.559
102.416
103.885
105.976
108.15
106.018
104.527
102.635
101.103
99.4073
97.914
96.3883
94.9904
93.627
92.3625
91.167
90.0633
89.0473
88.1293
87.3161
86.6191
86.0543
85.644
85.4134
85.4138
85.6452
86.0564
86.622
87.3195
88.133
89.0514
90.0683
91.1724
92.3684
93.6333
94.9972
96.396
97.9222
99.416
101.112
102.645