/*--------------------------------*- C++ -*----------------------------------*\
  =========                 |
  \\      /  F ield         | OpenFOAM: The Open Source CFD Toolbox
   \\    /   O peration     | Website:  https://openfoam.org
    \\  /    A nd           | Version:  6
     \\/     M anipulation  |
\*---------------------------------------------------------------------------*/
FoamFile
{
    version     2.0;
    format      ascii;
    class       volScalarField;
    location    "0.4";
    object      k;
}
// * * * * * * * * * * * * * * * * * * * * * * * * * * * * * * * * * * * * * //

dimensions      [0 2 -2 0 0 0 0];

internalField   nonuniform List<scalar> 
63432
(
0.000529939
0.000534683
0.000534368
0.000537581
0.0005397
0.000500991
0.00042995
0.000412928
0.000411991
0.000425131
0.000400985
0.00034394
0.000475904
0.000484673
0.000497698
0.000505692
0.00051672
0.00051397
0.000494725
0.000430834
0.000402841
0.00041019
0.000423094
0.000386008
0.000502571
0.000497645
0.000462441
0.000460962
0.000471083
0.000482107
0.000489892
0.000493386
0.000478145
0.000429812
0.000386774
0.000396203
0.000392156
0.000475227
0.000478578
0.000480941
0.000447328
0.000435481
0.000447636
0.000459314
0.000466115
0.000479048
0.000452887
0.000443719
0.000398291
0.000385423
0.000434857
0.000445626
0.000457716
0.000459724
0.000439625
0.000413006
0.000420443
0.000432566
0.000450117
0.000452585
0.000452783
0.000445647
0.000401862
0.000369215
0.000388757
0.000405861
0.000419576
0.000441525
0.000433437
0.000442121
0.00041797
0.000409013
0.000420669
0.000433377
0.000439199
0.000451305
0.000431649
0.00032915
0.000346935
0.000366115
0.000382521
0.000404573
0.000416386
0.000429326
0.000439896
0.000420556
0.000398512
0.000402748
0.000415082
0.000429186
0.000435095
0.000296439
0.000314063
0.000332532
0.000350227
0.000369401
0.000388246
0.00040298
0.000425288
0.000422741
0.000432807
0.000417071
0.000397714
0.000400074
0.000417815
0.000248806
0.000264323
0.000282914
0.000302602
0.000321615
0.000340126
0.000359509
0.000375955
0.000396831
0.000408656
0.000429664
0.000425952
0.000440695
0.000417033
0.000404618
0.000236386
0.000250189
0.000260699
0.000275574
0.000294984
0.000314138
0.000333597
0.000351406
0.000370555
0.000386853
0.000406774
0.00041841
0.000436838
0.000440405
0.000438085
0.000221945
0.000235597
0.000252997
0.000267317
0.000276946
0.000291823
0.000309943
0.000328993
0.000347945
0.000365591
0.000384137
0.00040038
0.000417527
0.000431586
0.000444125
0.000206555
0.000221455
0.000240811
0.000254969
0.000275473
0.000286864
0.000298209
0.000309119
0.000325592
0.000344384
0.000362978
0.000380836
0.000398475
0.000413313
0.000431722
0.000175676
0.000191682
0.000207294
0.00022542
0.000242613
0.0002623
0.000280933
0.000294004
0.000316816
0.000327427
0.000334677
0.000347878
0.000359809
0.000377506
0.000393449
0.000413857
0.000165129
0.000179728
0.000195172
0.00021212
0.000229871
0.000248262
0.000267959
0.000286053
0.000307414
0.000324632
0.000342578
0.000355308
0.000381202
0.000386649
0.000389222
0.00039926
0.000156554
0.000170387
0.000185331
0.00020151
0.000218682
0.000236478
0.000255299
0.000274422
0.000294489
0.000314165
0.000334783
0.000353547
0.000374803
0.00039202
0.000407875
0.000423535
0.000149684
0.000163019
0.000177464
0.000193096
0.000209684
0.000227027
0.000245166
0.000263954
0.000283378
0.000303149
0.000323426
0.000343659
0.000363722
0.000383802
0.000402799
0.000423041
0.000144291
0.000157256
0.000171302
0.000186516
0.000202669
0.00021962
0.000237331
0.000255741
0.000274767
0.000294271
0.000314131
0.000334262
0.000354211
0.000374498
0.000393657
0.000414593
0.000140203
0.0001529
0.000166653
0.000181558
0.000197397
0.000214046
0.000231463
0.000249601
0.000268367
0.000287652
0.000307307
0.000327253
0.000347156
0.000367321
0.000386569
0.000407102
0.000137243
0.000149767
0.000163332
0.000178036
0.000193673
0.000210124
0.000227354
0.000245317
0.000263926
0.000283078
0.000302625
0.000322477
0.000342371
0.000362464
0.000381903
0.000402204
0.000135477
0.00014791
0.000161377
0.000175978
0.000191513
0.000207872
0.000225013
0.000242894
0.000261431
0.000280522
0.000300027
0.000319842
0.000339746
0.000359812
0.000379375
0.000399569
0.00109021
0.00108845
0.00108491
0.0010841
0.00107906
0.00107041
0.00105313
0.00104788
0.00104748
0.00105175
0.00104241
0.00102356
0.00107493
0.00107316
0.00107446
0.00107381
0.00107278
0.00106954
0.00106421
0.00105285
0.00104049
0.00104226
0.00104819
0.0010322
0.00107801
0.00107622
0.00106562
0.00106155
0.0010631
0.0010649
0.0010624
0.00106228
0.00105683
0.00105165
0.00103587
0.00104091
0.00103417
0.00106831
0.00106598
0.00106363
0.00105797
0.00105127
0.00105381
0.00105673
0.00105622
0.00105828
0.00105282
0.00104975
0.00104142
0.0010342
0.00105868
0.00105598
0.00105649
0.0010535
0.0010531
0.00104608
0.00104631
0.00104716
0.0010519
0.00105129
0.00104847
0.00104853
0.00103853
0.00104111
0.00104463
0.00104614
0.00104566
0.00104845
0.00104601
0.0010485
0.00104567
0.0010404
0.00104187
0.00104682
0.00104496
0.00104975
0.00104301
0.00102694
0.00102871
0.00103269
0.00103343
0.00103832
0.00103911
0.00104147
0.00104304
0.0010423
0.00103855
0.00103833
0.00103753
0.00104433
0.0010443
0.00100958
0.001014
0.00101917
0.00102186
0.00102588
0.00103028
0.00103197
0.00103643
0.0010377
0.00103933
0.00104108
0.00103587
0.00103589
0.00103944
0.000986151
0.000990863
0.000995265
0.00100203
0.00100824
0.00101327
0.00101955
0.00102204
0.00102826
0.0010303
0.00103597
0.0010359
0.00103982
0.00103843
0.00103712
0.000969085
0.000975958
0.000981848
0.000986527
0.000993008
0.000999008
0.0010068
0.00101182
0.00101884
0.00102235
0.00102846
0.00103136
0.00103471
0.00103895
0.0010384
0.000951549
0.000959786
0.000967066
0.000976182
0.000982037
0.000988015
0.000994279
0.00100017
0.00100794
0.00101389
0.00102053
0.00102568
0.00102934
0.001035
0.00103708
0.000934323
0.000943299
0.000954345
0.000962049
0.000972665
0.000979536
0.000987221
0.000992915
0.000998357
0.00100445
0.00101042
0.00101709
0.00102314
0.00102926
0.00103408
0.000901233
0.000915749
0.000926905
0.000939324
0.000950017
0.000959816
0.00097062
0.000978263
0.000987312
0.000994826
0.000999242
0.00100593
0.00101065
0.00101568
0.00102059
0.00102711
0.000881997
0.000897375
0.000911066
0.000924514
0.000937486
0.000948213
0.000960124
0.000969473
0.000979476
0.00098691
0.000996499
0.00100167
0.00100978
0.00101445
0.00101937
0.00102365
0.000863885
0.000880492
0.000896041
0.000910821
0.000924923
0.000937389
0.000949795
0.000960627
0.000971348
0.000980297
0.000990184
0.000997502
0.00100517
0.00101155
0.00101863
0.00102457
0.000847563
0.00086557
0.000882515
0.000898589
0.000913642
0.00092744
0.000940469
0.000952388
0.000963685
0.000973923
0.000983795
0.000992488
0.00100076
0.00100842
0.00101527
0.00102231
0.000833493
0.000852795
0.000870922
0.0008881
0.000904079
0.000918841
0.000932576
0.000945295
0.000957132
0.000968076
0.000978258
0.000987641
0.000996322
0.00100463
0.00101156
0.0010194
0.000822041
0.000842415
0.000861515
0.000879587
0.000896369
0.000911877
0.000926258
0.00093959
0.000951934
0.000963358
0.00097392
0.000983712
0.000992681
0.00100128
0.0010085
0.00101661
0.000813401
0.000834598
0.000854451
0.000873212
0.000890623
0.0009067
0.000921592
0.000935384
0.000948136
0.000959924
0.000970803
0.000980889
0.000990104
0.000998909
0.00100639
0.00101458
0.000808254
0.000829938
0.000850243
0.000869421
0.000887217
0.000903649
0.000918858
0.000932935
0.000945941
0.000957953
0.000969029
0.00097929
0.000988663
0.000997598
0.00100523
0.00101348
0.00118683
0.00118399
0.00117805
0.00117513
0.00116839
0.00115323
0.00113304
0.00112364
0.00112215
0.00112952
0.00111524
0.00109247
0.00117546
0.00116854
0.0011686
0.00116671
0.00116322
0.00115856
0.00114775
0.00113584
0.00111702
0.00111805
0.00112583
0.00110669
0.00118831
0.00117835
0.00116502
0.00115571
0.00115497
0.00115696
0.00115226
0.00115059
0.00114155
0.00113379
0.00111331
0.00111746
0.00110932
0.00118162
0.00117467
0.00116545
0.00115701
0.00114514
0.00114417
0.00114662
0.00114597
0.00114571
0.00113938
0.00113053
0.00112181
0.00110966
0.00117358
0.00116651
0.0011633
0.00115591
0.0011507
0.00114059
0.00113675
0.00113539
0.00114102
0.00113931
0.00113377
0.00113217
0.00111848
0.00115919
0.00115979
0.00115787
0.00115472
0.00115352
0.0011492
0.00114538
0.00114095
0.00113146
0.00112952
0.00113533
0.00113188
0.00113675
0.00112698
0.00114769
0.00114534
0.00114594
0.00114268
0.00114519
0.00114369
0.00114331
0.00114202
0.00113776
0.00113091
0.00112798
0.00112295
0.00113122
0.00113068
0.00113029
0.00113136
0.00113417
0.00113286
0.0011337
0.00113583
0.00113558
0.00113717
0.0011378
0.00113414
0.00113438
0.00112601
0.00112259
0.00112477
0.00111309
0.00111347
0.00111304
0.00111632
0.00111998
0.00112197
0.00112657
0.00112598
0.00113019
0.00113075
0.00113402
0.00113303
0.00113304
0.00112989
0.00112582
0.0010993
0.00110026
0.00110197
0.0011021
0.00110458
0.00110703
0.00111365
0.00111622
0.00112182
0.0011229
0.0011276
0.00112927
0.00113019
0.0011344
0.00113019
0.00108377
0.00108757
0.0010893
0.00109352
0.00109583
0.00109763
0.00110107
0.00110382
0.00111045
0.00111482
0.00112028
0.00112438
0.00112569
0.00113118
0.0011311
0.00106744
0.00107202
0.00107821
0.00108173
0.00108832
0.00109163
0.00109586
0.00109884
0.00110105
0.00110477
0.00110921
0.00111498
0.00111983
0.00112581
0.00112932
0.00104113
0.00104989
0.00105606
0.00106368
0.00107046
0.00107632
0.00108407
0.00108936
0.00109425
0.00110028
0.00110211
0.00110612
0.00110911
0.00111192
0.00111553
0.00112134
0.00102226
0.001032
0.00104044
0.00104875
0.00105805
0.00106472
0.00107395
0.00108066
0.00108821
0.00109349
0.00110137
0.00110432
0.0011099
0.00111408
0.00111772
0.00111936
0.00100413
0.00101509
0.00102534
0.00103502
0.00104525
0.0010539
0.00106348
0.0010716
0.00108028
0.00108684
0.00109552
0.00110108
0.00110739
0.00111267
0.0011188
0.00112281
0.000987401
0.000999833
0.00101147
0.00102261
0.0010336
0.00104381
0.00105388
0.00106316
0.0010723
0.00108044
0.00108886
0.00109612
0.00110312
0.00110975
0.00111579
0.001122
0.000972667
0.00098651
0.000999395
0.00101174
0.00102363
0.0010349
0.00104566
0.00105579
0.00106543
0.00107445
0.00108306
0.0010911
0.00109853
0.00110595
0.00111192
0.00111914
0.000960406
0.000975454
0.000989413
0.00100274
0.00101548
0.00102755
0.00103898
0.00104976
0.00105993
0.00106949
0.00107848
0.00108695
0.00109472
0.00110248
0.0011087
0.00111623
0.000950945
0.000966944
0.000981761
0.000995861
0.00100929
0.00102198
0.00103396
0.00104524
0.00105584
0.00106581
0.00107513
0.00108393
0.00109197
0.00109995
0.00110644
0.00111408
0.000945207
0.000961765
0.000977096
0.000991664
0.00100552
0.0010186
0.00103093
0.00104252
0.00105341
0.00106362
0.00107316
0.00108215
0.00109037
0.0010985
0.00110515
0.00111287
0.0012028
0.00120009
0.00119443
0.00119148
0.00118431
0.00116803
0.0011501
0.00113966
0.00113784
0.00114674
0.00113198
0.0011086
0.00119703
0.00118831
0.00118812
0.00118712
0.00118221
0.00117757
0.00116474
0.00115585
0.00113547
0.00113562
0.00114425
0.00112552
0.00121426
0.00120161
0.00118935
0.00117875
0.00117663
0.00117932
0.00117428
0.00117131
0.00116191
0.00115423
0.00113372
0.00113736
0.00112905
0.00121208
0.00120384
0.00119198
0.0011836
0.00117091
0.00116777
0.00116941
0.00116971
0.00116745
0.00116249
0.00115092
0.00114406
0.00113004
0.00120845
0.00120001
0.00119425
0.00118563
0.00117839
0.00116856
0.00116306
0.00115989
0.00116541
0.00116428
0.00115674
0.00115463
0.00113981
0.00119971
0.00119829
0.00119463
0.00119054
0.0011863
0.00118173
0.00117493
0.00117053
0.00116006
0.00115504
0.00116085
0.00115691
0.00116144
0.00115065
0.00119336
0.0011889
0.00118741
0.00118199
0.00118193
0.00117945
0.00117702
0.00117445
0.00116834
0.00116076
0.00115763
0.00114872
0.00115671
0.00115618
0.00117974
0.00117826
0.00118003
0.00117641
0.00117452
0.0011745
0.00117329
0.00117185
0.00117235
0.00116594
0.00116528
0.00115599
0.00115099
0.00115091
0.00117012
0.00116795
0.00116438
0.00116487
0.0011665
0.00116614
0.00116913
0.00116658
0.00116791
0.00116777
0.00116824
0.00116697
0.00116434
0.00116025
0.00115494
0.00116187
0.00115871
0.00115745
0.00115492
0.00115454
0.00115338
0.00115838
0.00115901
0.0011629
0.00116207
0.0011644
0.00116529
0.0011633
0.00116712
0.00116134
0.00115091
0.00115116
0.00114936
0.00114964
0.00114929
0.00114786
0.00114898
0.00114833
0.00115301
0.00115568
0.00115945
0.00116263
0.00116114
0.00116582
0.00116374
0.00113845
0.00113953
0.00114197
0.0011419
0.00114504
0.00114533
0.00114636
0.00114712
0.00114674
0.00114763
0.00114965
0.0011538
0.00115666
0.00116208
0.00116392
0.00112038
0.00112439
0.00112681
0.00113044
0.00113386
0.0011362
0.00114024
0.00114355
0.00114462
0.00114815
0.00114778
0.00114913
0.00115052
0.00115093
0.0011524
0.00115618
0.00110411
0.00110929
0.00111385
0.00111783
0.0011238
0.00112674
0.00113259
0.00113673
0.00114123
0.00114359
0.00114903
0.00115017
0.00115232
0.00115454
0.00115728
0.00115693
0.00108817
0.00109458
0.00110077
0.0011061
0.00111274
0.00111765
0.00112401
0.00112907
0.0011351
0.00113857
0.00114496
0.00114834
0.0011521
0.00115511
0.00115992
0.00116171
0.00107309
0.00108095
0.0010884
0.00109528
0.00110244
0.00110898
0.00111577
0.00112191
0.00112826
0.0011335
0.00113948
0.0011444
0.00114913
0.00115357
0.00115795
0.00116217
0.00105949
0.00106875
0.00107739
0.00108553
0.00109349
0.00110112
0.00110854
0.00111553
0.00112226
0.0011285
0.00113455
0.00114021
0.00114537
0.00115072
0.00115479
0.0011601
0.00104788
0.00105837
0.00106808
0.00107723
0.00108602
0.00109446
0.00110253
0.00111018
0.0011174
0.0011242
0.00113059
0.00113668
0.00114214
0.00114786
0.0011521
0.00115773
0.00103867
0.00105015
0.00106075
0.0010707
0.0010802
0.00108928
0.0010979
0.00110604
0.0011137
0.0011209
0.00112762
0.00113403
0.00113976
0.0011457
0.00115017
0.00115592
0.00103298
0.00104504
0.00105618
0.00106662
0.00107656
0.00108603
0.00109501
0.00110348
0.00111142
0.00111888
0.00112582
0.00113242
0.00113832
0.00114441
0.00114904
0.00115486
0.00120261
0.00120052
0.00119603
0.00119349
0.00118659
0.00117041
0.00115499
0.00114439
0.00114255
0.00115218
0.00113809
0.00111444
0.00120085
0.00119185
0.00119173
0.00119244
0.00118693
0.00118266
0.001169
0.00116267
0.00114212
0.00114164
0.00115087
0.00113284
0.00121974
0.00120669
0.0011959
0.00118559
0.001183
0.00118647
0.00118211
0.00117805
0.00116923
0.00116172
0.00114179
0.0011452
0.00113742
0.00122113
0.00121298
0.00120059
0.0011927
0.00118054
0.00117651
0.00117744
0.00117891
0.00117546
0.00117171
0.00115891
0.00115351
0.00113915
0.00122109
0.00121298
0.00120587
0.00119734
0.00118911
0.00117995
0.00117402
0.00116981
0.00117511
0.00117515
0.00116642
0.00116416
0.00114856
0.00121678
0.00121429
0.00120992
0.00120589
0.00120017
0.00119565
0.00118762
0.00118344
0.00117328
0.00116616
0.00117165
0.00116782
0.00117231
0.00116085
0.0012144
0.00120933
0.0012068
0.00120062
0.00119884
0.00119617
0.00119248
0.0011898
0.00118264
0.00117436
0.00117209
0.00116071
0.00116786
0.00116753
0.00120469
0.00120151
0.00120305
0.00119874
0.00119524
0.00119365
0.00119221
0.00118893
0.00118925
0.00118154
0.00118039
0.00117065
0.00116493
0.00116319
0.00120056
0.00119721
0.00119197
0.00119081
0.00119135
0.00118967
0.00119167
0.00118842
0.00118738
0.00118699
0.0011856
0.00118416
0.00118021
0.00117537
0.00116901
0.00119728
0.00119182
0.00118855
0.00118457
0.00118293
0.00117924
0.00118295
0.00118256
0.0011853
0.00118348
0.00118385
0.0011844
0.00118038
0.00118363
0.00117722
0.0011908
0.00118861
0.00118478
0.00118257
0.00118063
0.00117695
0.00117685
0.0011738
0.00117682
0.00117834
0.00118084
0.00118376
0.00118021
0.00118408
0.00118077
0.00118249
0.00118091
0.00118096
0.00117843
0.00117926
0.00117762
0.00117635
0.00117549
0.00117361
0.00117253
0.0011726
0.00117549
0.00117666
0.00118166
0.0011825
0.00117135
0.00117196
0.00117169
0.00117253
0.00117354
0.00117366
0.00117475
0.00117664
0.00117526
0.00117677
0.00117481
0.00117412
0.00117445
0.0011733
0.00117306
0.00117506
0.00115808
0.00115981
0.00116166
0.00116249
0.00116607
0.00116648
0.00116953
0.00117185
0.00117419
0.00117425
0.00117761
0.00117766
0.00117743
0.00117766
0.00117955
0.00117804
0.00114474
0.00114757
0.00115086
0.001153
0.00115704
0.00115919
0.00116302
0.00116573
0.0011698
0.00117085
0.00117527
0.00117715
0.00117893
0.00117985
0.00118366
0.00118391
0.00113175
0.00113595
0.00114028
0.00114401
0.00114833
0.00115205
0.0011563
0.00115996
0.00116417
0.00116711
0.0011711
0.00117419
0.00117712
0.00117967
0.00118276
0.0011853
0.00111971
0.00112526
0.00113064
0.00113564
0.00114062
0.00114541
0.0011502
0.0011547
0.00115914
0.00116314
0.00116713
0.00117086
0.00117418
0.00117776
0.00118036
0.00118395
0.00110917
0.0011159
0.0011223
0.00112829
0.00113405
0.00113963
0.00114502
0.00115016
0.00115502
0.00115958
0.00116386
0.00116798
0.00117157
0.00117554
0.00117821
0.00118212
0.00110056
0.00110828
0.00111556
0.00112234
0.00112878
0.00113498
0.00114092
0.00114653
0.00115181
0.00115676
0.00116135
0.00116576
0.00116959
0.00117378
0.00117664
0.00118067
0.0010952
0.00110349
0.00111129
0.00111855
0.00112543
0.00113201
0.0011383
0.00114423
0.00114977
0.00115497
0.00115976
0.00116437
0.00116836
0.00117269
0.00117569
0.00117979
0.00119795
0.00119649
0.00119336
0.00119108
0.0011846
0.00116869
0.00115539
0.0011449
0.00114319
0.00115304
0.00113978
0.00111595
0.00119856
0.00118994
0.0011898
0.00119223
0.00118655
0.00118259
0.00116854
0.00116406
0.00114379
0.00114281
0.00115257
0.00113493
0.00121747
0.00120502
0.00119545
0.00118582
0.00118323
0.0011873
0.00118406
0.00117903
0.001171
0.00116359
0.00114416
0.00114743
0.00114035
0.00122119
0.00121352
0.00120145
0.00119407
0.00118281
0.00117865
0.00117901
0.00118153
0.00117745
0.00117453
0.00116116
0.00115675
0.00114289
0.0012233
0.00121621
0.00120847
0.00120052
0.00119189
0.00118335
0.0011775
0.00117272
0.00117779
0.00117916
0.00116983
0.00116758
0.00115152
0.00122185
0.00121892
0.00121436
0.00121072
0.00120453
0.00120018
0.00119173
0.00118775
0.00117842
0.00117008
0.00117515
0.00117162
0.00117643
0.00116443
0.00122177
0.00121692
0.00121397
0.00120776
0.00120491
0.00120249
0.001198
0.0011958
0.00118837
0.00117929
0.00117818
0.00116547
0.00117172
0.0011716
0.00121505
0.00121085
0.00121246
0.00120837
0.00120416
0.00120152
0.00120013
0.00119602
0.00119626
0.00118797
0.00118678
0.00117686
0.00117084
0.00116808
0.00121407
0.00121043
0.00120448
0.00120245
0.00120257
0.00120034
0.00120181
0.0011987
0.001196
0.00119558
0.00119312
0.00119166
0.00118726
0.00118204
0.00117479
0.00121426
0.00120788
0.00120344
0.00119867
0.0011968
0.00119169
0.00119447
0.00119373
0.00119585
0.00119379
0.00119277
0.00119328
0.00118807
0.00119082
0.00118428
0.00121129
0.00120761
0.00120272
0.0011991
0.00119657
0.00119146
0.00119094
0.00118651
0.00118835
0.00118924
0.00119089
0.00119408
0.0011893
0.00119252
0.00118859
0.00120636
0.00120295
0.00120161
0.0011976
0.00119708
0.00119448
0.00119187
0.00118998
0.0011874
0.00118526
0.001184
0.00118615
0.00118608
0.00119082
0.00119136
0.00120023
0.00119866
0.00119657
0.00119563
0.00119505
0.00119403
0.00119317
0.0011942
0.00119149
0.00119178
0.00118893
0.00118683
0.00118658
0.00118468
0.00118333
0.00118407
0.00118962
0.00118888
0.00118895
0.00118768
0.0011897
0.00118871
0.00118979
0.00119097
0.00119211
0.00119071
0.00119256
0.00119211
0.00119061
0.00118938
0.00119057
0.0011885
0.00117857
0.00117874
0.00118005
0.00118001
0.00118238
0.0011828
0.00118493
0.00118607
0.00118902
0.0011885
0.0011915
0.00119256
0.0011932
0.00119254
0.0011957
0.00119511
0.00116748
0.0011689
0.00117099
0.00117255
0.00117501
0.00117687
0.00117944
0.00118143
0.00118431
0.00118573
0.00118839
0.00119034
0.00119217
0.00119334
0.00119567
0.0011971
0.00115692
0.0011596
0.00116256
0.00116537
0.00116835
0.00117122
0.00117426
0.00117709
0.00118002
0.00118254
0.00118519
0.00118765
0.00118981
0.00119216
0.00119387
0.00119626
0.00114744
0.00115124
0.00115512
0.00115888
0.00116256
0.00116619
0.00116977
0.0011732
0.00117649
0.00117957
0.00118246
0.00118528
0.00118765
0.00119043
0.00119215
0.00119483
0.00113953
0.00114427
0.00114898
0.00115348
0.00115782
0.00116204
0.00116612
0.00117002
0.00117369
0.00117714
0.00118031
0.00118341
0.001186
0.00118898
0.00119086
0.00119365
0.0011346
0.00113987
0.00114508
0.00115004
0.00115478
0.00115936
0.00116377
0.00116797
0.00117189
0.00117557
0.00117894
0.00118221
0.00118495
0.00118806
0.00119006
0.00119292
0.00119059
0.00118948
0.00118763
0.00118536
0.00117914
0.0011633
0.0011516
0.00114125
0.00113975
0.00114949
0.00113693
0.00111292
0.00119237
0.0011843
0.00118397
0.00118774
0.00118213
0.00117823
0.00116392
0.00116064
0.00114077
0.00113931
0.0011496
0.001132
0.0012106
0.00119895
0.00119027
0.00118124
0.00117878
0.00118312
0.00118114
0.00117518
0.00116787
0.00116046
0.00114131
0.00114447
0.00113791
0.00121574
0.00120842
0.0011969
0.00118981
0.00117936
0.00117541
0.00117533
0.00117865
0.0011743
0.00117187
0.00115813
0.00115432
0.00114128
0.00121878
0.00121279
0.00120473
0.00119739
0.00118859
0.00118053
0.00117492
0.00116982
0.00117457
0.00117723
0.00116765
0.00116545
0.00114916
0.00121904
0.00121592
0.00121138
0.00120809
0.00120193
0.00119772
0.00118918
0.00118524
0.00117683
0.0011679
0.00117252
0.00116927
0.00117465
0.00116224
0.00121997
0.00121558
0.0012125
0.00120655
0.00120298
0.00120098
0.00119591
0.00119429
0.00118714
0.00117722
0.00117718
0.0011639
0.00116937
0.00116936
0.0012152
0.00121041
0.00121202
0.00120852
0.00120414
0.00120081
0.00119946
0.00119514
0.00119545
0.00118685
0.00118587
0.00117595
0.00116981
0.0011665
0.00121569
0.00121211
0.00120597
0.00120352
0.0012035
0.00120116
0.0012023
0.00119978
0.00119601
0.00119563
0.00119261
0.00119122
0.00118682
0.00118154
0.00117354
0.00121793
0.00121134
0.00120632
0.00120105
0.00119943
0.00119368
0.00119578
0.00119506
0.00119688
0.00119503
0.00119311
0.0011937
0.00118791
0.00119029
0.00118382
0.00121738
0.00121285
0.00120745
0.00120299
0.00120046
0.00119449
0.00119397
0.00118894
0.00118996
0.00119057
0.00119162
0.00119538
0.00119002
0.00119277
0.00118861
0.00121492
0.00121028
0.00120812
0.00120326
0.00120197
0.00119899
0.00119578
0.00119326
0.00119045
0.00118788
0.00118581
0.00118763
0.0011867
0.00119127
0.00119193
0.00121233
0.0012093
0.00120595
0.00120389
0.0012022
0.0012007
0.00119868
0.00119924
0.00119591
0.00119555
0.00119239
0.00118937
0.00118883
0.00118673
0.00118477
0.00118472
0.00120387
0.0012013
0.00120013
0.00119745
0.00119836
0.00119674
0.00119653
0.00119701
0.00119758
0.00119547
0.00119628
0.00119569
0.00119367
0.00119154
0.00119219
0.00118992
0.00119472
0.00119281
0.00119268
0.0011911
0.00119237
0.00119178
0.00119284
0.00119297
0.00119536
0.00119398
0.00119602
0.00119672
0.0011969
0.00119516
0.00119792
0.00119698
0.00118523
0.00118443
0.0011848
0.00118479
0.00118601
0.00118669
0.00118821
0.00118914
0.00119128
0.00119181
0.00119366
0.00119498
0.00119628
0.00119656
0.0011985
0.00119931
0.00117599
0.00117632
0.00117736
0.00117854
0.00118015
0.00118177
0.00118368
0.00118545
0.00118749
0.00118914
0.00119099
0.00119273
0.00119426
0.00119585
0.00119714
0.0011988
0.00116754
0.00116888
0.00117071
0.00117276
0.00117499
0.0011773
0.00117969
0.00118204
0.00118437
0.00118655
0.00118863
0.0011907
0.00119239
0.00119445
0.0011957
0.00119762
0.00116039
0.00116256
0.00116513
0.00116787
0.00117069
0.00117356
0.00117641
0.0011792
0.00118187
0.00118441
0.00118674
0.00118906
0.00119096
0.00119321
0.0011946
0.00119663
0.00115599
0.00115863
0.00116163
0.00116477
0.00116796
0.00117115
0.00117431
0.00117737
0.00118026
0.00118302
0.00118553
0.00118801
0.00119004
0.00119241
0.00119391
0.001196
0.00118001
0.00117891
0.0011782
0.00117578
0.0011696
0.00115365
0.0011431
0.0011329
0.00113166
0.00114103
0.00112904
0.00110493
0.00118222
0.00117471
0.00117403
0.00117875
0.00117334
0.00116925
0.00115471
0.00115216
0.0011328
0.00113082
0.00114159
0.00112386
0.00119964
0.00118869
0.00118062
0.00117204
0.00116975
0.00117401
0.00117328
0.00116643
0.00115969
0.00115223
0.00113321
0.00113628
0.00112998
0.00120571
0.00119849
0.00118749
0.00118049
0.00117068
0.00116703
0.0011666
0.00117044
0.00116603
0.00116388
0.00114977
0.00114629
0.00113415
0.00120897
0.0012039
0.00119565
0.00118876
0.00117988
0.00117214
0.0011668
0.00116152
0.00116581
0.00116965
0.00116001
0.00115782
0.00114148
0.00121039
0.00120706
0.00120259
0.00119948
0.00119352
0.00118936
0.00118087
0.0011768
0.00116918
0.00116007
0.00116426
0.00116117
0.00116719
0.00115452
0.00121157
0.00120757
0.00120446
0.00119886
0.00119467
0.00119311
0.00118755
0.00118635
0.00117981
0.00116908
0.00116989
0.00115648
0.00116129
0.00116128
0.00120804
0.00120287
0.00120431
0.0012014
0.00119709
0.00119333
0.00119186
0.0011876
0.00118809
0.00117925
0.00117858
0.00116876
0.00116256
0.00115895
0.00120922
0.00120567
0.00119954
0.00119684
0.00119674
0.00119444
0.00119526
0.00119347
0.00118902
0.0011887
0.00118535
0.00118404
0.00117983
0.00117468
0.00116608
0.00121254
0.00120593
0.00120065
0.00119499
0.00119366
0.00118776
0.00118923
0.00118869
0.0011903
0.00118889
0.00118639
0.00118708
0.00118104
0.00118314
0.00117678
0.00121367
0.00120852
0.00120286
0.00119773
0.00119546
0.00118894
0.00118852
0.00118335
0.00118377
0.00118429
0.00118484
0.00118922
0.00118371
0.00118611
0.0011819
0.00121302
0.00120742
0.00120466
0.00119926
0.00119743
0.0011943
0.00119088
0.00118797
0.00118513
0.00118247
0.00117989
0.00118163
0.00118009
0.00118447
0.00118546
0.00121325
0.00120899
0.0012046
0.00120174
0.00119915
0.0011974
0.00119463
0.00119491
0.00119131
0.00119061
0.00118748
0.00118387
0.00118314
0.00118109
0.00117887
0.00117833
0.00120663
0.00120242
0.00120019
0.00119644
0.00119638
0.00119445
0.00119333
0.00119332
0.00119363
0.00119123
0.00119132
0.00119071
0.00118858
0.00118596
0.00118619
0.00118386
0.00119914
0.00119532
0.00119393
0.00119108
0.00119142
0.00119017
0.00119049
0.0011899
0.00119199
0.00119019
0.00119152
0.00119208
0.00119218
0.00118975
0.00119219
0.00119117
0.00119114
0.00118824
0.00118707
0.00118568
0.00118589
0.00118569
0.00118649
0.00118666
0.00118835
0.00118837
0.00118969
0.00119066
0.00119175
0.00119147
0.00119319
0.0011937
0.0011832
0.00118127
0.00118051
0.00118022
0.00118069
0.00118133
0.00118243
0.00118345
0.00118491
0.00118602
0.00118739
0.00118871
0.00118992
0.00119106
0.00119215
0.00119339
0.00117585
0.00117475
0.00117461
0.00117508
0.00117606
0.00117732
0.00117883
0.00118041
0.00118208
0.0011837
0.00118528
0.0011869
0.00118823
0.00118986
0.0011909
0.00119238
0.0011696
0.00116917
0.00116963
0.0011707
0.00117219
0.00117394
0.00117586
0.00117784
0.00117982
0.00118176
0.00118358
0.00118543
0.00118694
0.00118875
0.00118992
0.0011915
0.00116584
0.00116576
0.00116657
0.00116797
0.00116976
0.0011718
0.00117398
0.0011762
0.00117838
0.00118052
0.00118249
0.00118449
0.00118612
0.00118805
0.00118931
0.00119095
0.0011655
0.00116414
0.00116443
0.00116183
0.00115554
0.00113941
0.00112971
0.00111966
0.00111875
0.00112755
0.00111602
0.00109202
0.00116774
0.00116074
0.00115969
0.00116496
0.0011599
0.00115545
0.00114077
0.00113857
0.0011199
0.00111734
0.00112853
0.00111064
0.00118442
0.00117404
0.00116642
0.00115818
0.00115609
0.00115999
0.00116042
0.00115278
0.00114648
0.00113899
0.00112005
0.00112305
0.0011168
0.00119126
0.00118392
0.0011734
0.00116635
0.00115707
0.00115369
0.001153
0.00115709
0.00115277
0.00115079
0.00113631
0.00113296
0.0011217
0.00119447
0.00119004
0.00118167
0.00117507
0.00116614
0.00115862
0.00115354
0.00114823
0.00115186
0.00115675
0.00114718
0.00114498
0.00112869
0.00119687
0.00119325
0.00118884
0.00118571
0.00117999
0.00117578
0.00116741
0.00116309
0.00115612
0.00114705
0.00115085
0.00114777
0.00115443
0.00114163
0.00119804
0.00119423
0.00119106
0.00118582
0.00118106
0.00117982
0.00117387
0.00117283
0.00116705
0.00115562
0.00115703
0.00114376
0.00114801
0.00114789
0.00119539
0.00118993
0.00119095
0.00118854
0.00118435
0.00118035
0.00117858
0.00117442
0.00117516
0.00116611
0.00116572
0.00115605
0.00114983
0.00114606
0.0011971
0.0011934
0.00118726
0.00118435
0.00118412
0.00118188
0.00118229
0.00118118
0.00117631
0.001176
0.00117241
0.00117115
0.00116717
0.00116227
0.00115318
0.00120103
0.00119431
0.00118885
0.00118283
0.00118166
0.00117584
0.00117666
0.00117628
0.00117767
0.00117676
0.00117387
0.00117462
0.00116849
0.00117034
0.00116406
0.00120347
0.00119767
0.0011918
0.001186
0.00118398
0.00117708
0.00117665
0.0011716
0.00117151
0.00117203
0.00117206
0.00117696
0.00117154
0.00117368
0.00116945
0.00120433
0.0011978
0.00119442
0.00118855
0.00118622
0.00118293
0.00117946
0.00117626
0.00117341
0.00117081
0.00116786
0.00116964
0.00116763
0.00117174
0.00117306
0.00120734
0.00120173
0.00119626
0.00119265
0.00118918
0.00118714
0.00118382
0.00118381
0.00118007
0.00117909
0.00117615
0.00117213
0.00117122
0.00116929
0.00116699
0.00116614
0.00120248
0.00119653
0.00119311
0.00118839
0.00118726
0.00118506
0.0011832
0.00118272
0.00118281
0.00118033
0.00117985
0.00117919
0.00117712
0.00117422
0.00117412
0.00117172
0.00119668
0.00119079
0.00118801
0.00118392
0.00118324
0.00118138
0.00118107
0.00117982
0.00118165
0.00117964
0.00118036
0.00118079
0.00118098
0.00117808
0.00118021
0.00117919
0.00119025
0.00118505
0.00118219
0.00117938
0.00117851
0.00117745
0.0011776
0.00117708
0.0011784
0.00117805
0.00117894
0.00117964
0.00118067
0.00117997
0.00118153
0.00118188
0.00118377
0.00117931
0.00117658
0.00117471
0.00117397
0.00117363
0.00117397
0.0011743
0.00117527
0.00117595
0.00117693
0.00117794
0.00117896
0.00117976
0.00118073
0.00118172
0.00117774
0.00117385
0.00117151
0.00117026
0.00116989
0.00117009
0.00117073
0.0011716
0.0011727
0.00117385
0.00117504
0.00117632
0.0011774
0.00117872
0.00117963
0.00118083
0.00117262
0.00116917
0.00116725
0.00116645
0.00116648
0.00116708
0.00116807
0.00116929
0.00117065
0.00117209
0.00117349
0.00117498
0.00117621
0.00117772
0.00117874
0.00118003
0.00116964
0.00116639
0.0011647
0.00116414
0.0011644
0.00116522
0.00116642
0.00116784
0.00116938
0.00117098
0.00117252
0.00117414
0.00117548
0.00117708
0.0011782
0.00117954
0.00114659
0.00114483
0.00114598
0.00114326
0.00113676
0.00112055
0.00111145
0.00110162
0.00110108
0.00110915
0.00109802
0.00107439
0.00114871