/*--------------------------------*- C++ -*----------------------------------*\
  =========                 |
  \\      /  F ield         | OpenFOAM: The Open Source CFD Toolbox
   \\    /   O peration     | Website:  https://openfoam.org
    \\  /    A nd           | Version:  6
     \\/     M anipulation  |
\*---------------------------------------------------------------------------*/
FoamFile
{
    version     2.0;
    format      ascii;
    class       volScalarField;
    location    "0.4";
    object      omega;
}
// * * * * * * * * * * * * * * * * * * * * * * * * * * * * * * * * * * * * * //

dimensions      [0 0 -1 0 0 0 0];

internalField   nonuniform List<scalar> 
63432
(
843.917
843.917
843.917
843.917
843.917
843.917
843.917
843.917
843.917
843.917
843.917
843.917
843.917
843.917
843.917
843.917
843.917
843.917
843.917
843.917
843.917
843.917
843.917
843.917
843.917
843.917
843.917
843.917
843.917
843.917
843.917
843.917
843.917
843.917
843.917
843.917
843.917
843.917
843.917
843.917
843.917
843.917
843.917
843.917
843.917
843.917
843.917
843.917
843.917
843.917
843.917
843.917
843.917
843.917
843.917
843.917
843.917
843.917
843.917
843.917
843.917
843.917
843.917
843.917
843.917
843.917
843.917
843.917
843.917
843.917
843.917
843.917
843.917
843.917
843.917
843.917
843.917
843.917
843.917
843.917
843.917
843.917
843.917
843.917
843.917
843.917
843.917
843.917
843.917
843.917
843.917
843.917
843.917
843.917
843.917
843.917
843.917
843.917
843.917
843.917
843.917
843.917
843.917
843.917
843.917
843.917
843.917
843.917
843.917
843.917
843.917
843.917
843.917
843.917
843.917
843.917
843.917
843.917
843.917
843.917
843.917
843.917
843.917
843.917
843.917
843.917
843.917
843.917
843.917
843.917
843.917
843.917
843.917
843.917
843.917
843.917
843.917
843.917
843.917
843.917
843.917
843.917
843.917
843.917
843.917
843.917
843.917
843.917
843.917
843.917
843.917
843.917
843.917
843.917
843.917
843.917
843.917
843.917
843.917
843.917
843.917
843.917
843.917
843.917
843.917
843.917
843.917
843.917
843.917
843.917
843.917
843.917
843.917
843.917
843.917
843.917
843.917
843.917
843.917
843.917
843.917
843.917
843.917
843.917
843.917
843.917
843.917
843.917
843.917
843.917
843.917
843.917
843.917
843.917
843.917
843.917
843.917
843.917
843.917
843.917
843.917
843.917
843.917
843.917
843.917
843.917
843.917
843.917
843.917
843.917
843.917
843.917
843.917
843.917
843.917
843.917
843.917
843.917
843.917
843.917
843.917
843.917
843.917
843.917
843.917
843.917
843.917
843.917
843.917
843.917
843.917
843.917
843.917
843.917
843.917
843.917
843.917
843.917
843.917
843.917
843.917
843.917
843.917
843.917
843.917
843.917
843.917
843.917
843.917
843.917
843.917
843.917
843.917
843.917
843.917
843.917
843.917
843.917
843.917
843.917
843.917
843.917
843.917
843.917
843.917
843.917
843.917
843.917
843.917
843.917
843.917
843.917
843.917
843.917
843.917
843.917
843.917
843.917
843.917
843.917
843.917
843.917
843.917
843.917
843.917
843.917
843.917
843.917
843.917
843.917
843.917
843.917
843.917
267.672
267.521
267.522
267.455
267.177
267.334
267.553
267.687
267.67
267.353
267.313
267.435
267.037
267.101
267.064
267.052
266.954
266.8
266.88
267.144
267.36
267.253
266.967
267.142
266.124
266.366
266.577
266.756
266.793
266.794
266.744
266.651
266.719
267.031
267.279
267.192
267.229
265.532
265.613
265.818
266.142
266.417
266.522
266.529
266.516
266.462
266.578
266.713
266.915
267.155
265.028
265.133
265.196
265.376
265.793
266.125
266.291
266.312
266.269
266.312
266.288
266.334
266.717
264.37
264.502
264.697
264.804
264.854
265.049
265.354
265.673
265.961
266.041
266.052
266.102
266.035
266.231
263.597
263.868
264.125
264.321
264.422
264.543
264.662
264.869
265.296
265.69
265.872
265.929
265.9
265.989
262.649
263.006
263.358
263.651
263.876
264.061
264.231
264.351
264.606
264.898
265.252
265.613
265.807
265.799
261.189
261.682
262.134
262.521
262.867
263.195
263.489
263.763
263.967
264.176
264.328
264.571
264.822
265.194
265.532
259.694
260.413
261.112
261.686
262.12
262.485
262.841
263.188
263.502
263.777
263.987
264.204
264.339
264.55
264.833
258.283
259.096
259.862
260.572
261.241
261.82
262.258
262.619
262.967
263.301
263.607
263.881
264.102
264.282
264.473
256.99
257.908
258.742
259.495
260.195
260.885
261.561
262.124
262.565
262.903
263.203
263.497
263.779
264.033
264.227
254.571
255.738
256.826
257.775
258.614
259.337
260.026
260.718
261.276
261.821
262.398
262.873
263.236
263.532
263.774
263.949
253.059
254.462
255.723
256.812
257.767
258.612
259.362
260.057
260.637
261.178
261.714
262.185
262.504
262.916
263.422
263.783
251.638
253.222
254.638
255.864
256.94
257.901
258.753
259.509
260.176
260.764
261.281
261.747
262.115
262.482
262.856
263.164
250.348
252.091
253.647
254.998
256.184
257.239
258.178
259.006
259.741
260.389
260.957
261.458
261.901
262.286
262.621
262.902
249.215
251.102
252.785
254.246
255.526
256.664
257.675
258.567
259.353
260.047
260.659
261.197
261.673
262.09
262.454
262.752
248.271
250.28
252.069
253.623
254.984
256.191
257.263
258.207
259.039
259.771
260.415
260.981
261.479
261.917
262.304
262.625
247.544
249.649
251.522
253.148
254.572
255.834
256.953
257.938
258.804
259.566
260.236
260.824
261.341
261.794
262.195
262.532
247.063
249.234
251.164
252.84
254.306
255.605
256.755
257.768
258.657
259.439
260.126
260.729
261.258
261.722
262.131
262.478
131.828
131.6
131.407
131.229
130.943
130.644
130.25
130.086
130.007
129.898
129.579
129.21
131.149
130.966
130.857
130.733
130.606
130.397
130.186
129.921
129.694
129.645
129.533
129.258
130.98
130.773
130.498
130.356
130.315
130.277
130.165
130.065
129.88
129.756
129.507
129.442
129.34
130.445
130.256
130.126
130.005
129.876
129.892
129.908
129.849
129.823
129.665
129.57
129.386
129.333
129.886
129.762
129.708
129.617
129.636
129.536
129.527
129.532
129.582
129.527
129.452
129.384
129.32
129.259
129.256
129.262
129.23
129.252
129.208
129.245
129.232
129.193
129.246
129.304
129.287
129.298
129.238
128.511
128.551
128.637
128.674
128.768
128.782
128.817
128.865
128.95
128.964
128.966
129.015
129.1
129.134
127.65
127.774
127.916
128.029
128.163
128.286
128.353
128.478
128.559
128.641
128.753
128.771
128.813
128.898
126.576
126.733
126.903
127.108
127.305
127.493
127.695
127.838
128.04
128.15
128.314
128.39
128.524
128.627
128.695
125.45
125.75
126.049
126.296
126.545
126.791
127.056
127.279
127.53
127.716
127.935
128.076
128.229
128.374
128.45
124.317
124.707
125.074
125.472
125.815
126.136
126.425
126.7
126.993
127.251
127.514
127.731
127.938
128.118
128.268
123.209
123.676
124.162
124.591
125.042
125.449
125.863
126.201
126.497
126.785
127.063
127.333
127.598
127.829
128.034
121.451
122.1
122.69
123.269
123.795
124.279
124.779
125.214
125.631
126.035
126.381
126.721
126.986
127.242
127.488
127.725
120.196
120.985
121.711
122.388
123.017
123.585
124.145
124.635
125.106
125.528
125.96
126.288
126.629
126.952
127.259
127.503
118.995
119.912
120.761
121.541
122.261
122.922
123.545
124.107
124.635
125.111
125.566
125.954
126.322
126.661
126.979
127.252
117.885
118.927
119.887
120.764
121.569
122.309
122.993
123.618
124.196
124.725
125.214
125.656
126.064
126.437
126.768
127.073
116.901
118.059
119.119
120.085
120.966
121.773
122.514
123.192
123.813
124.382
124.904
125.38
125.816
126.215
126.572
126.901
116.073
117.332
118.479
119.52
120.467
121.331
122.122
122.844
123.503
124.104
124.654
125.155
125.611
126.029
126.406
126.752
115.436
116.773
117.99
119.091
120.089
120.999
121.829
122.584
123.272
123.899
124.471
124.991
125.464
125.897
126.287
126.644
115.02
116.411
117.674
118.815
119.848
120.788
121.644
122.422
123.13
123.774
124.36
124.893
125.377
125.819
126.217
126.583
79.5249
79.3474
79.1653
79.0167
78.793
78.4833
78.1095
77.9226
77.8415
77.8462
77.5458
77.1681
79.1659
78.9561
78.8577
78.7346
78.6095
78.4457
78.209
77.9685
77.6748
77.6457
77.6225
77.3107
79.2993
79.0181
78.7289
78.5233
78.445
78.4124
78.2921
78.2052
78.0055
77.8478
77.5642
77.5238
77.3618
79.0203
78.7911
78.568
78.3919
78.1864
78.1397
78.1445
78.0921
78.0462
77.8992
77.7363
77.5585
77.3926
78.7071
78.5192
78.4024
78.2432
78.1544
77.9999
77.9215
77.883
77.9344
77.8659
77.7567
77.6766
77.5279
78.3964
78.3282
78.251
78.1564
78.1009
78.0169
77.937
77.857
77.7222
77.7067
77.7614
77.7037
77.7216
77.6012
77.9932
77.9203
77.9003
77.8345
77.8518
77.8112
77.7775
77.7314
77.695
77.6289
77.5619
77.5161
77.6132
77.6016
77.4883
77.4826
77.5008
77.4776
77.498
77.5352
77.5222
77.5462
77.563
77.5203
77.5302
77.4512
77.4177
77.4479
76.9766
76.958
76.9526
77.0008
77.0565
77.1061
77.1908
77.2074
77.3009
77.3298
77.3903
77.3951
77.4031
77.412
77.3879
76.3628
76.4041
76.4733
76.5156
76.5798
76.6622
76.7943
76.8752
76.9977
77.0603
77.1721
77.227
77.2757
77.3637
77.3301
75.7082
75.8246
75.9199
76.0542
76.1688
76.2776
76.3907
76.5013
76.6579
76.7819
76.9202
77.0232
77.112
77.2234
77.2688
75.0329
75.2011
75.3881
75.5489
75.7417
75.9016
76.0794
76.2228
76.34
76.4719
76.6157
76.7654
76.9107
77.0473
77.1521
74.0775
74.3394
74.5775
74.8287
75.0629
75.2759
75.5216
75.7265
75.9093
76.1118
76.2634
76.4268
76.5518
76.6678
76.7996
76.9455
73.2877
73.6321
73.9526
74.2616
74.5665
74.8326
75.1258
75.3704
75.6106
75.8249
76.0625
76.2133
76.3847
76.5623
76.7213
76.8291
72.5177
72.9427
73.3409
73.7144
74.0752
74.4061
74.7342
75.0282
75.3115
75.5629
75.8239
76.027
76.2309
76.423
76.6058
76.7385
71.7941
72.2995
72.7701
73.2075
73.6204
74.006
74.3709
74.7076
75.0233
75.3134
75.5906
75.8373
76.0691
76.2846
76.4795
76.655
71.1415
71.7235
72.261
72.7571
73.2196
73.651
74.0529
74.4247
74.7692
75.0877
75.384
75.6557
75.907
76.1398
76.3489
76.5464
70.584
71.2335
71.8298
72.377
72.8836
73.3537
73.7889
74.1904
74.5603
74.9013
75.2161
75.5054
75.7713
76.0166
76.2382
76.4474
70.1463
70.8504
71.494
72.0823
72.6245
73.1256
73.5877
74.0125
74.4028
74.7616
75.0915
75.3942
75.6718
75.927
76.1576
76.3745
69.8571
70.5975
71.2728
71.8889
72.4552
72.9773
73.4575
73.8982
74.3023
74.673
75.0133
75.3251
75.6106
75.8726
76.1094
76.3313
53.4808
53.3695
53.2442
53.1509
52.9972
52.7578
52.4934
52.343
52.2788
52.3304
52.1061
51.7909
53.3326
53.1672
53.1065
53.0322
52.9296
52.8225
52.6243
52.4728
52.214
52.1951
52.2159
51.96
53.5436
53.3101
53.1019
52.9335
52.8605
52.8482
52.7546
52.6839
52.5296
52.3996
52.168
52.1558
52.0031
53.4402
53.259
53.0583
52.9147
52.7385
52.6782
52.6758
52.6496
52.5964
52.4986
52.34
52.2217
52.0375
53.3102
53.1478
53.0278
52.8864
52.7824
52.6566
52.578
52.5266
52.5692
52.5215
52.4102
52.3432
52.1855
53.1979
53.1216
53.0363
52.9462
52.8652
52.7914
52.6931
52.6201
52.4865
52.4333
52.4797
52.4184
52.4344
52.3116
53.0305
52.938
52.8886
52.8018
52.7791
52.7317
52.6797
52.6163
52.5393
52.4643
52.4044
52.3071
52.3867
52.3629
52.783
52.7323
52.7164
52.6514
52.6187
52.6134
52.5809
52.549
52.5421
52.4653
52.4395
52.3402
52.2896
52.2759
52.6043
52.5319
52.4656
52.4474
52.4423
52.4288
52.4558
52.4223
52.4421
52.4401
52.439
52.4201
52.3745
52.3464
52.2913
52.328
52.2662
52.2402
52.2054
52.1886
52.1809
52.2387
52.2503
52.2991
52.3004
52.3382
52.3531
52.335
52.3857
52.3193
52.0035
51.9945
51.9751
51.9832
51.9901
51.9958
52.0207
52.0355
52.1054
52.1531
52.2146
52.2566
52.2668
52.33
52.3186
51.6439
51.6673
51.7074
51.7323
51.7889
51.8234
51.8731
51.9152
51.9401
51.9766
52.0313
52.1008
52.1646
52.2414
52.2806
51.1931
51.2562
51.3192
51.3973
51.476
51.5417
51.6332
51.715
51.7672
51.8456
51.8913
51.9511
51.9982
52.0301
52.0809
52.1522
50.7326
50.8465
50.9586
51.0682
51.1933
51.2894
51.4177
51.5227
51.6215
51.7045
51.817
51.8724
51.9304
52.0062
52.0822
52.1176
50.2717
50.4356
50.5955
50.7452
50.9016
51.0408
51.1911
51.3238
51.4553
51.5634
51.6942
51.7831
51.8722
51.9592
52.0561
52.1014
49.8274
50.0426
50.248
50.4396
50.6262
50.8024
50.9745
51.1336
51.2851
51.4215
51.5586
51.6766
51.7885
51.8919
51.9924
52.0731
49.4169
49.682
49.9308
50.1612
50.3791
50.5856
50.7809
50.9627
51.132
51.2882
51.4356
51.57
51.6953
51.8105
51.9162
52.0149
49.0574
49.3678
49.6558
49.9203
50.1674
50.3997
50.6168
50.818
51.0038
51.1751
51.3341
51.4799
51.6148
51.7382
51.8508
51.9571
48.7673
49.1152
49.4356
49.7284
49.9997
50.253
50.4882
50.7051
50.9045
51.0878
51.2568
51.4115
51.5541
51.6841
51.8022
51.9134
48.5717
48.9446
49.2869
49.5987
49.8866
50.1544
50.4021
50.6297
50.8386
51.0301
51.2062
51.3671
51.515
51.6496
51.7718
51.8863
38.4258
38.3627
38.286
38.2311
38.1297
37.9531
37.7783
37.6648
37.6193
37.6821
37.5239
37.2675
38.3768
38.2596
38.2259
38.1961
38.1175
38.0512
37.8954
37.8105
37.6014
37.5877
37.6294
37.4304
38.5717
38.4027
38.2653
38.1465
38.0924
38.0961
38.0337
37.9752
37.8675
37.7678
37.5863
37.5932
37.4736
38.5546
38.4281
38.2756
38.1732
38.0426
37.9907
37.9845
37.9795
37.9302
37.87
37.7351
37.665
37.5034
38.518
38.4004
38.2991
38.1936
38.1025
38.0106
37.9496
37.9016
37.9368
37.9134
37.8155
37.7669
37.6213
38.4959
38.4314
38.3606
38.2929
38.2172
38.1613
38.0757
38.0237
37.9192
37.8555
37.8935
37.843
37.86
37.7498
38.4422
38.3638
38.3156
38.2401
38.2058
38.1679
38.1187
38.0698
37.9906
37.9198
37.886
37.7779
37.8369
37.8153
38.3337
38.2751
38.2584
38.1966
38.1504
38.1296
38.1018
38.0554
38.0417
37.9671
37.9385
37.8452
37.7987
37.7682
38.3043
38.2302
38.1558
38.12
38.0993
38.0674
38.0733
38.0328
38.0177
38.0083
37.9848
37.9629
37.9073
37.8697
37.808
38.2043
38.1194
38.064
38.0107
37.9746
37.9327
37.9565
37.9449
37.9617
37.9433
37.945
37.9471
37.9035
37.9329
37.8682
38.0624
38.009
37.9538
37.9176
37.8879
37.8541
37.8482
37.8235
37.8505
37.8647
37.8897
37.9096
37.8845
37.9209
37.891
37.8862
37.8502
37.8324
37.8035
37.8038
37.7896
37.7848
37.7838
37.7743
37.7701
37.7813
37.8113
37.8328
37.8792
37.8903
37.7
37.678
37.6655
37.6678
37.6776
37.6816
37.6998
37.7261
37.7242
37.7451
37.7446
37.7558
37.7696
37.767
37.7773
37.8073
37.4356
37.444
37.4627
37.4809
37.5224
37.5421
37.5875
37.6271
37.6605
37.6802
37.7279
37.7437
37.7507
37.7729
37.8067
37.8132
37.1609
37.2002
37.2483
37.2922
37.3511
37.3984
37.46
37.5134
37.5709
37.6078
37.67
37.7055
37.7376
37.7677
37.8204
37.828
36.8871
36.9594
37.0359
37.1083
37.1844
37.2568
37.3321
37.4018
37.471
37.5293
37.594
37.6469
37.6972
37.7409
37.7923
37.8242
36.6262
36.7318
36.8365
36.9353
37.0313
37.1242
37.2144
37.299
37.3788
37.4516
37.5219
37.585
37.6447
37.6976
37.7493
37.7946
36.3909
36.5275
36.659
36.7812
36.8967
37.0072
37.112
37.2096
37.3001
37.3833
37.4609
37.5314
37.5973
37.656
37.7112
37.7616
36.1953
36.3584
36.5126
36.6545
36.7869
36.912
37.0292
37.1377
37.2375
37.3288
37.4131
37.4896
37.5606
37.6236
37.6822
37.7358
36.0616
36.2424
36.4119
36.5672
36.7112
36.8463
36.9723
37.0882
37.1944
37.2914
37.3805
37.4612
37.5358
37.6021
37.6634
37.719
28.8309
28.7949
28.7503
28.7154
28.6464
28.5114
28.3946
28.3072
28.2766
28.3358
28.2228
28.0115
28.8199
28.7378
28.7169
28.7142
28.6546
28.6116
28.4881
28.442
28.2752
28.2631
28.3139
28.156
28.9752
28.856
28.7639
28.681
28.6438
28.6551
28.6177
28.5668
28.493
28.4164
28.2702
28.2862
28.1982
28.9912
28.9036
28.7919
28.7196
28.6251
28.5861
28.5782
28.5851
28.5432
28.506
28.3935
28.353
28.2243
28.9912
28.9106
28.8294
28.754
28.6799
28.6126
28.5679
28.5272
28.5561
28.5511
28.4694
28.4364
28.3094
29.002
28.9508
28.8957
28.8475
28.7858
28.7444
28.6753
28.64
28.5645
28.5042
28.5348
28.4965
28.5165
28.4212
28.9902
28.9305
28.8907
28.832
28.7978
28.7713
28.729
28.6986
28.6326
28.5672
28.5551
28.4561
28.4988
28.4827
28.9446
28.8904
28.8786
28.8317
28.7889
28.7646
28.7451
28.7033
28.6906
28.6266
28.6063
28.5268
28.4885
28.4569
28.9668
28.9055
28.84
28.8047
28.7847
28.753
28.7526
28.7207
28.6939
28.685
28.6579
28.6402
28.5917
28.5564
28.4982
28.9438
28.8656
28.8081
28.7563
28.7241
28.6762
28.6858
28.6708
28.6763
28.6568
28.6447
28.645
28.5985
28.6164
28.5635
28.8901
28.8282
28.7688
28.7232
28.6887
28.645
28.6332
28.5988
28.6073
28.6095
28.6191
28.6344
28.5998
28.6221
28.5918
28.8088
28.7537
28.7182
28.6742
28.656
28.6291
28.6075
28.5918
28.5744
28.5583
28.5529
28.5667
28.5695
28.6009
28.6043
28.7486
28.6963
28.6558
28.6296
28.6128
28.5968
28.5864
28.5909
28.5724
28.5725
28.5572
28.5494
28.5516
28.5401
28.535
28.5462
28.5941
28.5586
28.5391
28.5199
28.5259
28.5175
28.5263
28.5385
28.5469
28.5425
28.5605
28.5632
28.5539
28.554
28.5678
28.5656
28.426
28.4089
28.4077
28.4054
28.4218
28.4304
28.4521
28.4706
28.4966
28.5038
28.5335
28.5482
28.5579
28.5625
28.5938
28.5901
28.2519
28.2563
28.2724
28.2902
28.3163
28.3419
28.3731
28.4021
28.4345
28.4582
28.4896
28.5141
28.5377
28.5542
28.5831
28.5949
28.0807
28.1075
28.142
28.1782
28.217
28.2569
28.2979
28.3374
28.3759
28.4106
28.4454
28.4761
28.5062
28.5307
28.5578
28.5792
27.9218
27.9703
28.023
28.0756
28.1279
28.1799
28.231
28.2795
28.3252
28.3672
28.4069
28.4426
28.4768
28.5056
28.5346
28.5594
27.7865
27.8537
27.9226
27.9891
28.0533
28.1157
28.1755
28.2317
28.2838
28.3316
28.376
28.4157
28.4534
28.4853
28.5165
28.5434
27.6938
27.7736
27.8532
27.9291
28.0015
28.071
28.1369
28.1983
28.2549
28.3067
28.3544
28.3971
28.4372
28.4714
28.5044
28.5326
22.2835
22.2599
22.2351
22.2097
22.1592
22.0504
21.9692
21.8994
21.8798
21.9299
21.8463
21.6702
22.2843
22.2252
22.2089
22.2189
22.1732
22.142
22.0416
22.0158
21.8823
21.8698
21.9232
21.7938
22.4032
22.317
22.2518
22.191
22.1655
22.1778
22.1579
22.1117
22.0602
22.0002
21.8789
21.8977
21.833
22.4287
22.3646
22.2815
22.228
22.1584
22.13
22.1213
22.133
22.0986
22.0749
21.9797
21.9553
21.857
22.4391
22.3831
22.3178
22.263
22.2032
22.1522
22.1191
22.0852
22.1075
22.1145
22.047
22.025
21.9174
22.4602
22.4183
22.3748
22.3391
22.2906
22.2589
22.2035
22.178
22.1244
22.0724
22.0967
22.0674
22.0902
22.009
22.4594
22.4136
22.3811
22.3363
22.3047
22.287
22.2504
22.2332
22.1835
22.1236
22.1246
22.0408
22.0718
22.0602
22.4392
22.3912
22.3819
22.3483
22.3131
22.2897
22.2756
22.2428
22.2339
22.1801
22.1687
22.1037
22.0727
22.0456
22.4733
22.4239
22.3693
22.3386
22.3222
22.2955
22.2929
22.2716
22.2436
22.2368
22.2122
22.1995
22.1618
22.1325
22.0813
22.4781
22.4124
22.3612
22.3152
22.291
22.2478
22.2507
22.2382
22.24
22.2252
22.2095
22.2107
22.1699
22.1814
22.1405
22.4632
22.4044
22.3504
22.3064
22.2771
22.2346
22.2243
22.1921
22.1931
22.1919
22.1947
22.2105
22.1776
22.1923
22.1671
22.4281
22.3698
22.3312
22.2865
22.2642
22.2372
22.214
22.1953
22.1789
22.1625
22.1523
22.1604
22.1558
22.1787
22.1818
22.4271
22.3659
22.3166
22.2815
22.2551
22.2347
22.2154
22.2123
22.1915
22.1859
22.1691
22.1558
22.1546
22.1439
22.1348
22.1386
22.3347
22.2814
22.2466
22.2134
22.2038
22.187
22.1808
22.1818
22.182
22.1712
22.1763
22.1759
22.1645
22.1576
22.1625
22.1589
22.2288
22.1857
22.1621
22.1398
22.1371
22.1304
22.1347
22.1382
22.1513
22.1481
22.1626
22.17
22.1729
22.1681
22.1883
22.1837
22.1148
22.0855
22.0719
22.0637
22.0667
22.0713
22.0825
22.0933
22.1097
22.119
22.1355
22.1482
22.1612
22.1666
22.185
22.1902
21.9994
21.985
21.9831
21.9878
21.999
22.0135
22.0314
22.0498
22.0696
22.0873
22.1063
22.123
22.1403
22.1528
22.1692
22.1809
21.8899
21.8902
21.9007
21.9168
21.9371
21.9603
21.9851
22.0101
22.0346
22.0577
22.0802
22.1003
22.1205
22.1364
22.1538
22.1679
21.795
21.8083
21.83
21.8559
21.8846
21.9151
21.9462
21.9766
22.0058
22.033
22.0589
22.0819
22.1045
22.1227
22.1417
22.1571
21.7306
21.7526
21.7817
21.8141
21.8485
21.8839
21.9193
21.9534
21.9858
22.0157
22.0439
22.069
22.0934
22.1132
22.1334
22.1499
17.5904
17.5717
17.559
17.5385
17.4987
17.408
17.3488
17.2916
17.2798
17.3201
17.2557
17.1084
17.5939
17.5496
17.5348
17.5492
17.514
17.4885
17.4051
17.3894
17.2825
17.2688
17.321
17.2126
17.6854
17.6203
17.5717
17.5247
17.5067
17.5166
17.5082
17.4656
17.4285
17.3807
17.2782
17.2968
17.2477
17.7121
17.6618
17.5982
17.5564
17.5034
17.4826
17.474
17.4863
17.4583
17.4428
17.3608
17.3447
17.2706
17.7238
17.6831
17.6296
17.588
17.5392
17.4992
17.474
17.4459
17.4614
17.4753
17.4194
17.4046
17.3146
17.7485
17.7125
17.6769
17.6484
17.6099
17.5844
17.5394
17.5192
17.4806
17.4371
17.4565
17.433
17.4571
17.3884
17.7493
17.712
17.6845
17.6497
17.6206
17.6083
17.5761
17.5659
17.5305
17.4764
17.4838
17.4151
17.4378
17.4289
17.7394
17.6968
17.6871
17.6625
17.6339
17.6129
17.601
17.576
17.571
17.5252
17.5205
17.468
17.4426
17.4208
17.774
17.7323
17.6863
17.6594
17.6457
17.6236
17.6194
17.6061
17.5804
17.5755
17.5542
17.5454
17.5169
17.4938
17.45
17.7866
17.7311
17.6868
17.6464
17.6281
17.5918
17.5907
17.5811
17.5811
17.5712
17.5556
17.5576
17.5241
17.5317
17.5001
17.7884
17.7345
17.6871
17.6465
17.6232
17.5851
17.5767
17.5497
17.5474
17.5456
17.5445
17.5606
17.5329
17.5431
17.5234
17.7768
17.7197
17.6818
17.6401
17.6177
17.5932
17.5727
17.5547
17.5409
17.5274
17.5163
17.5226
17.5153
17.5323
17.5364
17.8066
17.7428
17.6909
17.6534
17.6236
17.6028
17.5814
17.5754
17.5563
17.5496
17.5354
17.5214
17.5194
17.5113
17.5026
17.5035
17.752
17.6903
17.6483
17.6097
17.5919
17.5728
17.5603
17.556
17.5532
17.542
17.5414
17.5402
17.5308
17.5229
17.5238
17.5205
17.6854
17.6285
17.5928
17.5608
17.5477
17.5342
17.5301
17.5263
17.5331
17.5268
17.5335
17.5378
17.5392
17.5317
17.5452
17.5422
17.6109
17.562
17.5315
17.5091
17.4992
17.493
17.4939
17.4954
17.5037
17.5066
17.5156
17.5228
17.5313
17.5323
17.5449
17.5482
17.5333
17.4938
17.4702
17.4565
17.4517
17.4522
17.4576
17.4648
17.4749
17.4841
17.4952
17.5051
17.5163
17.5234
17.5344
17.5421
17.4584
17.4283
17.4125
17.4065
17.4078
17.4143
17.4244
17.4364
17.4496
17.4628
17.4765
17.4888
17.5019
17.5119
17.5236
17.5329
17.3927
17.3711
17.3627
17.3632
17.3703
17.3819
17.3964
17.4123
17.4288
17.4449
17.461
17.4755
17.4904
17.502
17.5149
17.5252
17.3488
17.3328
17.3292
17.3341
17.3449
17.3599
17.3773
17.3958
17.4145
17.4326
17.4504
17.4663
17.4824
17.4952
17.509
17.52
14.1022
14.0853
14.0801
14.0631
14.03
13.9531
13.9079
13.8605
13.8542
13.8856
13.834
13.7111
14.1058
14.0716
14.0578
14.0723
14.0455
14.0229
13.9529
13.9418
13.8562
13.8416
13.8905
13.7986
14.178
14.1269
14.0892
14.0514
14.0385
14.045
14.044
14.0048
13.977
13.9385
13.8511
13.8685
13.8295
14.2037
14.1621
14.112
14.0779
14.0367
14.0209
14.013
14.0239
14.0011
13.991
13.9196
13.9076
13.8515
14.2148
14.1834
14.1389
14.106
14.0656
14.0334
14.0135
13.9906
13.9997
14.0173
13.9707
13.9603
13.8853
14.2412
14.2092
14.1792
14.1549
14.1238
14.1022
14.0652
14.048
14.0193
13.9832
13.9991
13.9789
14.003
13.9451
14.2425
14.2102
14.1859
14.1582
14.1313
14.122
14.0934
14.0859
14.0617
14.0132
14.0231
13.9672
13.9841
13.9765
14.238
14.1995
14.1881
14.169
14.1452
14.1267
14.1154
14.0956
14.0938
14.0543
14.0535
14.0112
13.9901
13.9726
14.2717
14.2343
14.1943
14.1699
14.1575
14.1389
14.1327
14.1243
14.1019
14.0982
14.0796
14.0735
14.0517
14.0337
13.9967
14.2859
14.2372
14.1983
14.1621
14.1471
14.1171
14.1129
14.1052
14.1037
14.0975
14.0831
14.0852
14.0582
14.0631
14.038
14.2958
14.2456
14.2034
14.1657
14.1465
14.113
14.1052
14.0834
14.0792
14.0774
14.0737
14.089
14.0666
14.0737
14.0581
14.2974
14.2423
14.2052
14.1665
14.1446
14.1222
14.1045
14.088
14.0763
14.0656
14.0548
14.0602
14.0521
14.0644
14.0688
14.3468
14.2818
14.2287
14.1904
14.1589
14.1379
14.1163
14.1086
14.0915
14.0845
14.0732
14.0601
14.0576
14.0516
14.0443
14.044
14.3179
14.2511
14.2042
14.1631
14.1397
14.1193
14.1036
14.096
14.0913
14.0811
14.0776
14.0758
14.0684
14.0611
14.0602
14.0571
14.2789
14.2129
14.1689
14.131
14.1107
14.093
14.0837
14.0756
14.078
14.0707
14.0727
14.0749
14.076
14.0681
14.077
14.0751
14.2328
14.1705
14.1283
14.0963
14.0776
14.0642
14.0584
14.054
14.0569
14.0562
14.0605
14.0644
14.0702
14.0693
14.0779
14.0804
14.1833
14.1259
14.0869
14.0603
14.0445
14.0355
14.0324
14.0323
14.0359
14.0398
14.0459
14.0516
14.059
14.0632
14.0707
14.0761
14.1345
14.0823
14.0476
14.0258
14.0136
14.0085
14.0085
14.0118
14.0175
14.0242
14.0322
14.0397
14.0483
14.0548
14.0629
14.0695
14.0914
14.0439
14.0136
13.9957
13.9872
13.9854
13.9884
13.9943
14.0023
14.0111
14.0208
14.0298
14.0398
14.0475
14.0564
14.0637
14.0627
14.0185
13.9911
13.9759
13.9697
13.9701
13.975
13.9826
13.9921
14.0022
14.0131
14.0231
14.034
14.0425
14.0522
14.0599
11.437
11.4213
11.4206
11.4064
11.3781
11.3124
11.2765
11.237
11.2345
11.2587
11.2157
11.1133
11.4405
11.4133
11.4008
11.4137
11.3936
11.3728
11.3136
11.3043
11.2358
11.2207
11.2653
11.1868
11.499
11.4577
11.4276
11.3966
11.3873
11.3908
11.3941
11.3585
11.3367
11.3054
11.2304
11.2462
11.2139
11.5234
11.4877
11.4475
11.4188
11.3862
11.3738
11.3671
11.3758
11.3572
11.3508
11.2881
11.2782
11.235
11.534
11.5084
11.471
11.444
11.4103
11.3837
11.3677
11.3493
11.3532
11.3721
11.3329
11.3253
11.2625
11.5616
11.5326
11.5068
11.4851
11.4594
11.4405
11.4098
11.3945
11.3725
11.3423
11.3556
11.3377
11.3607
11.3117
11.564
11.5348
11.5128
11.4901
11.4652
11.4574
11.432
11.4252
11.409
11.3658
11.376
11.3306
11.3433
11.3362
11.5633
11.5283
11.5148
11.4989
11.4786
11.4624
11.4512
11.4345
11.435
11.4004
11.4017
11.3674
11.3495
11.3351
11.5971
11.5621
11.5263
11.5033
11.4914
11.4752
11.4674
11.4616
11.442
11.4393
11.4226
11.4181
11.401
11.387
11.3555
11.6118
11.5672
11.532
11.4991
11.4854
11.4606
11.454
11.4474
11.4443
11.4404
11.4274
11.4292
11.4073
11.4103
11.3896
11.6264
11.5784
11.5401
11.5044
11.4874
11.4582
11.4501
11.4323
11.4268
11.4251
11.4195
11.4331
11.4151
11.4201
11.4074
11.6369
11.5831
11.5465
11.51
11.4884
11.4673
11.4515
11.4365
11.4259
11.4174
11.4069
11.4116
11.4035
11.4121
11.416
11.7007
11.6344
11.5804
11.5413
11.5087
11.4872
11.4657
11.4564
11.441
11.4335
11.4244
11.4123
11.4095
11.4047
11.3987
11.3976
11.6906
11.6201
11.5692
11.5263
11.4986
11.4769
11.4591
11.449
11.4426
11.433
11.4278
11.4252
11.4193
11.4127
11.4108
11.4076
11.6727
11.5997
11.5492
11.5069
11.4809
11.4598
11.4467
11.4354
11.4341
11.4264
11.4251
11.4254
11.426
11.4185
11.4238
11.4225
11.6487
11.5758
11.5245
11.4851
11.4594
11.4405
11.4295
11.4208
11.4194
11.4161
11.417
11.4182
11.422
11.4199
11.4254
11.4272
11.6211
11.5496
11.4986
11.4619
11.4374
11.421
11.4114
11.4057
11.4045
11.4043
11.4066
11.4091
11.4136
11.4157
11.4206
11.4244
11.5931
11.5232
11.4737
11.4394
11.4167
11.4026
11.3947
11.3913
11.3912
11.393
11.3966
11.4004
11.4057
11.4096
11.4149
11.4195
11.5679
11.4998
11.4521
11.4198
11.399
11.3867
11.3806
11.3789
11.3803
11.3835
11.3883
11.3932
11.3994
11.4042
11.4101
11.4152
11.5508
11.4842
11.4379
11.4069
11.3874
11.3764
11.3715
11.3708
11.3731
11.3772
11.3828
11.3884
11.3952
11.4006
11.407
11.4124
9.35625
9.34167
9.34338
9.33178
9.30685
9.25052
9.22085
9.18781
9.18785
9.20659
9.16937
9.08399
9.35962
9.33749
9.32651
9.33732
9.32243
9.3031
9.25253
9.2437
9.18884
9.17369
9.21352
9.14625
9.40848
9.37422
9.34961
9.32363
9.31697
9.31814
9.32375
9.2918
9.27383
9.24819
9.18331
9.19763
9.17002
9.43151
9.40037
9.36737
9.34264
9.3164
9.30624
9.30094
9.30738
9.29215
9.2882
9.23301
9.22394
9.18999
9.44212
9.42024
9.38836
9.36548
9.33703
9.31468
9.30155
9.28683
9.28687
9.30571
9.27262
9.26655
9.2137
9.47031
9.4438
9.42134
9.40143
9.37973
9.36277
9.33692
9.323
9.30568
9.28002
9.29152
9.27513
9.29659
9.25488
9.47444
9.44746
9.42698
9.40783
9.38506
9.37777
9.35535
9.34811
9.33736
9.29922
9.30866
9.27132
9.28135
9.27423
9.47684
9.44468
9.42952
9.41545
9.39743
9.38325
9.37212
9.35722
9.35915
9.32864
9.33075
9.30263
9.28735
9.27508
9.51159
9.47804
9.44512
9.42305
9.41105
9.39656
9.38756
9.38295
9.36572
9.36362
9.3485
9.34481
9.33094
9.31991
9.29282
9.52675
9.48476
9.45201
9.42165
9.40824
9.38721
9.379
9.37291
9.36848
9.36595
9.35416
9.35554
9.33747
9.33921
9.3214
9.54474
9.49805
9.46215
9.4282
9.4121
9.38628
9.37753
9.36274
9.35637
9.35473
9.34784
9.3593
9.34468
9.34822
9.33742
9.56163
9.50868
9.47204
9.43706
9.41559
9.39522
9.38069
9.36675
9.35684
9.34984
9.33965
9.34368
9.33588
9.34157
9.3446
9.6368
9.56922
9.51424
9.47419
9.44083
9.41855
9.39714
9.38643
9.37204
9.36397
9.35627
9.34519
9.34204
9.33775
9.33284
9.33134
9.64145
9.56773
9.51317
9.46877
9.43773
9.41457
9.39526
9.38308
9.37509
9.36576
9.35962
9.35599
9.35088
9.34487
9.34242
9.33895
9.64001
9.56136
9.50512
9.45933
9.42871
9.40476
9.38865
9.37492
9.37044
9.36224
9.35866
9.3571
9.35705
9.35004
9.3528
9.35143
9.63363
9.55211
9.49306
9.44768
9.41638
9.39294
9.37783
9.36565
9.36075
9.35537
9.35355
9.35259
9.35456
9.35167
9.35485
9.35576
9.62384
9.54053
9.47957
9.43472
9.40317
9.38073
9.36598
9.35575
9.35052
9.34715
9.34639
9.34639
9.34856
9.349
9.35176
9.35409
9.61255
9.52803
9.46627
9.42179
9.39055
9.36905
9.35496
9.3461
9.3414
9.33924
9.33936
9.34025
9.34281
9.34464
9.34771
9.35063
9.60171
9.51654
9.4546
9.41044
9.37972
9.359
9.3457
9.33778
9.33388
9.33259
9.33348
9.33507
9.33821
9.3407
9.34424
9.34751
9.59337
9.50839
9.44674
9.40296
9.37269
9.35251
9.33977
9.33242
9.32906
9.32829
9.32967
9.3317
9.33524
9.33809
9.342
9.34549
7.7027
7.68935
7.69226
7.68273
7.66044
7.61183
7.58642
7.55868
7.56029
7.57497
7.54167
7.47034
7.70618
7.68769
7.67826
7.68694
7.67597
7.65792
7.61438
7.6053
7.56109
7.54636
7.58137
7.52344
7.7482
7.71901
7.6983
7.67622
7.67136
7.67102
7.67758
7.64911
7.63355
7.61222
7.55569
7.56855
7.54434
7.76997
7.74224
7.7145
7.69274
7.67126
7.66257
7.65864
7.66313
7.6504
7.64814
7.59928
7.59051
7.56302
7.78077
7.76125
7.73371
7.7137
7.68936
7.67019
7.65912
7.64747
7.64479
7.66274
7.63459
7.62938
7.58437
7.80925
7.78474
7.76474
7.74621
7.72735
7.71188
7.68973
7.67694
7.6629
7.64069
7.65087
7.63575
7.65541
7.6196
7.81514
7.78972
7.77042
7.75369
7.73287
7.72567
7.70581
7.69791
7.69075
7.65704
7.66529
7.63419
7.64241
7.63523
7.82009
7.79015
7.77377
7.76072
7.74431
7.73172
7.72085
7.70693
7.70963
7.68248
7.68468
7.66132
7.64811
7.63733
7.8563
7.82343
7.7926
7.77103
7.75883
7.74549
7.73572
7.73149
7.71609
7.71442
7.70053
7.69729
7.68562
7.67677
7.6532
7.87208
7.83158
7.80037
7.77186
7.75825
7.74
7.73071
7.72485
7.71936
7.7175
7.7068
7.70767
7.69253
7.69344
7.67759
7.89257
7.84647
7.81204
7.77941
7.76343
7.74039
7.73092
7.71824
7.71125
7.70963
7.70198
7.7114
7.69929
7.70182
7.69231
7.91428
7.86163
7.82469
7.79063
7.7691
7.74921
7.73533
7.72232
7.71269
7.70677
7.69686
7.7002
7.6929
7.69649
7.69852
7.99878
7.92965
7.87357
7.83246
7.79838
7.77524
7.75384
7.74194
7.72829
7.71963
7.71279
7.70255
7.69916
7.69508
7.69092
7.68914
8.01494
7.93824
7.88043
7.83446
7.80079
7.77614
7.75567
7.7419
7.73254
7.72318