/*--------------------------------*- C++ -*----------------------------------*\
  =========                 |
  \\      /  F ield         | OpenFOAM: The Open Source CFD Toolbox
   \\    /   O peration     | Website:  https://openfoam.org
    \\  /    A nd           | Version:  6
     \\/     M anipulation  |
\*---------------------------------------------------------------------------*/
FoamFile
{
    version     2.0;
    format      ascii;
    class       volVectorField;
    location    "0.4";
    object      U;
}
// * * * * * * * * * * * * * * * * * * * * * * * * * * * * * * * * * * * * * //

dimensions      [0 1 -1 0 0 0 0];

internalField   nonuniform List<vector> 
63432
(
(0.111028 0.00826961 -1.65363e-05)
(0.111528 0.00760735 -1.38257e-05)
(0.111877 0.00699406 -1.27859e-05)
(0.112257 0.00638652 -1.36442e-05)
(0.112393 0.00578492 -1.26881e-05)
(0.11158 0.00523117 -1.15804e-05)
(0.110424 0.00475777 -9.01646e-06)
(0.109952 0.00438342 -7.02147e-06)
(0.11004 0.00404943 -7.543e-06)
(0.110462 0.00370559 -7.52415e-06)
(0.109785 0.0032165 -9.0127e-06)
(0.108282 0.00304009 -4.81867e-06)
(0.110263 0.00826015 -3.41643e-06)
(0.11063 0.00761091 -1.13704e-06)
(0.111142 0.00703073 -7.05411e-07)
(0.11162 0.00649459 -9.88536e-07)
(0.112087 0.00597876 -1.89999e-06)
(0.112169 0.00546303 -2.1861e-06)
(0.111661 0.00496867 -2.1712e-06)
(0.110624 0.00450006 -7.40907e-07)
(0.109941 0.00411392 3.37554e-07)
(0.110097 0.00387184 2.30156e-07)
(0.110518 0.003505 -5.77493e-07)
(0.109513 0.00320596 3.69444e-06)
(0.110075 0.00874013 1.21241e-06)
(0.110153 0.00803389 2.80181e-06)
(0.110024 0.00737911 3.03439e-06)
(0.11021 0.00679802 2.11284e-06)
(0.110663 0.00628249 1.84208e-06)
(0.111187 0.00580856 2.27587e-06)
(0.111598 0.00535669 1.4368e-06)
(0.11178 0.00492235 8.62467e-07)
(0.111406 0.00449395 7.50653e-07)
(0.110545 0.0040513 3.5774e-08)
(0.109669 0.00371206 2.18613e-06)
(0.109874 0.00342036 2.05163e-06)
(0.109613 0.00311551 3.3929e-06)
(0.10944 0.00832953 1.18905e-06)
(0.109824 0.00768825 1.88509e-06)
(0.110011 0.0070966 7.99145e-07)
(0.10986 0.00653308 3.24004e-07)
(0.10985 0.00601746 9.6145e-07)
(0.110244 0.00556634 -1.06416e-07)
(0.110759 0.00515832 7.39803e-08)
(0.111179 0.00477507 4.39422e-07)
(0.111494 0.00441564 -8.97208e-07)
(0.111147 0.00402629 1.94246e-07)
(0.110628 0.00365961 -4.76417e-07)
(0.109966 0.0033503 2.17346e-08)
(0.109493 0.0030359 -3.49039e-07)
(0.108485 0.00787368 1.10581e-06)
(0.109149 0.00730658 1.35798e-06)
(0.109689 0.00677863 6.72461e-07)
(0.109913 0.0062792 6.58711e-07)
(0.109825 0.00579457 -1.11868e-06)
(0.109643 0.00533796 3.91383e-07)
(0.109876 0.00493785 2.75696e-07)
(0.110316 0.00458728 -1.2175e-07)
(0.110877 0.00427784 5.54642e-09)
(0.111133 0.00396066 2.71882e-08)
(0.111118 0.00363305 -7.56449e-07)
(0.110887 0.00332553 -5.61608e-07)
(0.110011 0.00304837 -4.46303e-07)
(0.106225 0.00785025 7.81324e-07)
(0.107303 0.00734155 2.1078e-06)
(0.108178 0.00685286 2.53926e-06)
(0.108897 0.00638532 1.65078e-06)
(0.109578 0.00595359 -4.52693e-07)
(0.109793 0.0055296 5.14727e-07)
(0.109941 0.00512583 -7.18058e-08)
(0.109807 0.00473103 -1.66501e-07)
(0.109757 0.00436778 5.80009e-07)
(0.110092 0.00406585 -3.43671e-07)
(0.110589 0.00379008 1.3487e-07)
(0.110869 0.00351509 1.76567e-07)
(0.111216 0.00322843 -8.04794e-07)
(0.110774 0.00296302 7.9103e-07)
(0.105081 0.00720616 1.91053e-06)
(0.106125 0.00676451 2.48222e-06)
(0.107094 0.00634502 2.01122e-06)
(0.107929 0.00593922 6.58544e-07)
(0.108782 0.00556412 -2.41521e-07)
(0.109387 0.00520605 1.13828e-07)
(0.109868 0.00486382 4.19921e-08)
(0.110136 0.00453022 3.23546e-07)
(0.109987 0.00418304 -7.75501e-07)
(0.109743 0.00385396 9.31428e-07)
(0.109885 0.00356815 8.62463e-07)
(0.110201 0.00331187 -7.95245e-07)
(0.110728 0.00308658 -5.40932e-07)
(0.110871 0.00281511 6.42235e-07)
(0.104021 0.00653288 -5.15388e-08)
(0.105126 0.00617019 1.87402e-06)
(0.106124 0.00581588 1.71054e-06)
(0.107019 0.00546903 2.74124e-07)
(0.107878 0.00514026 -2.05044e-07)
(0.108668 0.00483292 1.08106e-07)
(0.109307 0.00454017 5.14711e-07)
(0.109934 0.00426376 -5.33571e-07)
(0.110155 0.00397609 8.70264e-07)
(0.110267 0.00368669 1.41852e-07)
(0.110168 0.00340739 -1.21858e-06)
(0.109936 0.00312508 3.79373e-07)
(0.110038 0.00290701 2.28826e-07)
(0.110423 0.00267731 -2.22899e-06)
(0.101797 0.00609841 -2.13933e-06)
(0.102989 0.00581256 -1.93578e-07)
(0.104104 0.00552996 3.47424e-07)
(0.105176 0.00525284 -1.81153e-07)
(0.106164 0.0049746 -3.91823e-07)
(0.107053 0.00469841 -3.89372e-07)
(0.107888 0.00443314 1.30681e-07)
(0.108591 0.00417649 -7.79104e-08)
(0.109316 0.00393365 -3.05042e-07)
(0.109837 0.00369707 2.87413e-07)
(0.110361 0.00346868 -9.26532e-07)
(0.110501 0.00323933 5.05466e-07)
(0.110658 0.00300284 -2.39635e-07)
(0.110424 0.00277013 -1.11358e-06)
(0.110242 0.00258915 -7.90731e-07)
(0.101339 0.00531053 -4.0561e-06)
(0.102457 0.00510179 -2.44475e-06)
(0.10342 0.00487976 -9.25475e-07)
(0.10435 0.00465594 -1.42067e-06)
(0.105326 0.0044389 -2.27315e-06)
(0.106262 0.00422386 -1.92893e-06)
(0.107141 0.00401058 -6.95924e-07)
(0.107905 0.00379726 -5.62397e-07)
(0.10864 0.0035859 -3.52272e-07)
(0.109269 0.00338016 -4.93612e-07)
(0.109907 0.00318582 -5.35018e-07)
(0.110361 0.0029914 1.02906e-07)
(0.1108 0.00280543 -8.5829e-07)
(0.111022 0.00260605 -1.04821e-07)
(0.110959 0.0024527 -3.04984e-07)
(0.100957 0.0045177 -6.9176e-06)
(0.102121 0.00438998 -3.96511e-06)
(0.103151 0.0042437 -3.79883e-06)
(0.104084 0.00408278 -4.43064e-06)
(0.104871 0.00390763 -2.97452e-06)
(0.105645 0.00372827 -2.1288e-06)
(0.106451 0.00355556 -2.05458e-06)
(0.107246 0.00338807 -2.06695e-06)
(0.108008 0.00322092 -1.19878e-06)
(0.10869 0.0030529 -7.58362e-07)
(0.109337 0.00288631 -4.10143e-07)
(0.10991 0.00271783 -2.59437e-07)
(0.110424 0.00254734 -6.76655e-07)
(0.110902 0.0023793 -2.83734e-07)
(0.111187 0.00220651 -2.10831e-07)
(0.100488 0.00373803 -1.07048e-05)
(0.101737 0.00368477 -6.85035e-06)
(0.102898 0.00361012 -6.32798e-06)
(0.103883 0.0035145 -5.43006e-06)
(0.104822 0.00340444 -4.58163e-06)
(0.105559 0.00326984 -3.92961e-06)
(0.106199 0.00312508 -2.67248e-06)
(0.106793 0.00297789 -1.76161e-06)
(0.10743 0.00283418 -1.89784e-06)
(0.108107 0.00269878 -1.90853e-06)
(0.108761 0.00256546 -1.46828e-06)
(0.109379 0.00243321 -1.04244e-06)
(0.109943 0.00228875 -8.15337e-07)
(0.110454 0.00215855 -2.2014e-07)
(0.11094 0.00200253 -1.34351e-06)
(0.0984973 0.00295762 -1.72398e-05)
(0.0999623 0.00300241 -1.30853e-05)
(0.101246 0.00301021 -9.9114e-06)
(0.102459 0.00299163 -8.96445e-06)
(0.103554 0.00294915 -7.76838e-06)
(0.104583 0.00289023 -6.88803e-06)
(0.105502 0.00281556 -5.1942e-06)
(0.106211 0.00271846 -3.36128e-06)
(0.106949 0.00261143 -3.82072e-06)
(0.107531 0.00249372 -3.0822e-06)
(0.107957 0.00236929 -1.59567e-06)
(0.108433 0.00224614 -1.41019e-06)
(0.108908 0.00212981 -1.12328e-06)
(0.109431 0.00201182 -1.33913e-06)
(0.109928 0.00190206 -1.03443e-06)
(0.110489 0.00179681 -2.4215e-06)
(0.0981315 0.00224971 -2.14221e-05)
(0.0995315 0.0023403 -1.62333e-05)
(0.100806 0.00239238 -1.36029e-05)
(0.102014 0.00241427 -1.22895e-05)
(0.103151 0.00241107 -1.03682e-05)
(0.104198 0.0023882 -8.65317e-06)
(0.10519 0.0023499 -6.65249e-06)
(0.10605 0.00229402 -5.29216e-06)
(0.106885 0.00222611 -4.62562e-06)
(0.107586 0.00214795 -3.32459e-06)
(0.10821 0.00205848 -2.38909e-06)
(0.108701 0.00195939 -1.89528e-06)
(0.109322 0.00186478 -2.37884e-06)
(0.109701 0.00176747 -1.80409e-06)
(0.109922 0.00165743 -1.77048e-07)
(0.110217 0.00158471 -1.09867e-06)
(0.0978633 0.0016391 -2.58323e-05)
(0.0992241 0.0017598 -2.01384e-05)
(0.100476 0.00184189 -1.71689e-05)
(0.101665 0.00189343 -1.52361e-05)
(0.10279 0.00191922 -1.27591e-05)
(0.103832 0.00192219 -1.0418e-05)
(0.104814 0.00190651 -8.29016e-06)
(0.105721 0.00187634 -6.69063e-06)
(0.106578 0.00183391 -5.31352e-06)
(0.10736 0.00177874 -4.28408e-06)
(0.108102 0.00171506 -3.24571e-06)
(0.108747 0.00164526 -2.58182e-06)
(0.109389 0.00157159 -2.15177e-06)
(0.109923 0.00149905 -1.20637e-06)
(0.110381 0.0014183 -8.06391e-07)
(0.110789 0.00136068 -1.16293e-06)
(0.097673 0.00113445 -3.02213e-05)
(0.0990048 0.00126832 -2.39377e-05)
(0.100233 0.00136581 -2.03498e-05)
(0.101402 0.00143427 -1.78589e-05)
(0.102509 0.00147729 -1.50189e-05)
(0.103542 0.00149741 -1.2243e-05)
(0.104508 0.00149885 -9.8795e-06)
(0.105411 0.00148573 -7.98504e-06)
(0.106262 0.00146055 -6.40754e-06)
(0.107059 0.00142344 -5.15101e-06)
(0.107813 0.00137885 -3.95822e-06)
(0.108511 0.00132889 -3.0457e-06)
(0.109162 0.0012722 -2.31887e-06)
(0.10977 0.00120994 -1.68274e-06)
(0.110326 0.00114951 -1.25904e-06)
(0.11086 0.00109221 -9.11902e-07)
(0.0975395 0.000736504 -3.41962e-05)
(0.098844 0.000865806 -2.73168e-05)
(0.10005 0.000962981 -2.3177e-05)
(0.101201 0.0010345 -2.02353e-05)
(0.102294 0.00108314 -1.70508e-05)
(0.103318 0.00111145 -1.393e-05)
(0.104275 0.00112322 -1.13018e-05)
(0.105172 0.00112154 -9.1739e-06)
(0.106017 0.00110896 -7.40502e-06)
(0.106812 0.00108655 -5.91533e-06)
(0.10756 0.00105691 -4.62638e-06)
(0.108264 0.00102194 -3.58412e-06)
(0.10892 0.000982122 -2.74849e-06)
(0.109544 0.000938261 -2.03014e-06)
(0.110108 0.000895304 -1.50995e-06)
(0.110682 0.000856021 -1.29976e-06)
(0.0974403 0.000441874 -3.75966e-05)
(0.0987222 0.000549084 -3.01989e-05)
(0.0999104 0.000630928 -2.56e-05)
(0.101047 0.000692596 -2.22785e-05)
(0.102129 0.000736162 -1.87763e-05)
(0.103146 0.000763732 -1.53725e-05)
(0.104097 0.000778243 -1.25081e-05)
(0.104992 0.000782109 -1.01768e-05)
(0.105834 0.00077728 -8.23089e-06)
(0.106629 0.000764979 -6.58558e-06)
(0.107376 0.000746732 -5.1926e-06)
(0.108081 0.000724068 -4.0385e-06)
(0.10874 0.000697622 -3.10091e-06)
(0.109366 0.000668989 -2.27773e-06)
(0.109934 0.000637756 -1.72573e-06)
(0.110507 0.00061399 -1.34127e-06)
(0.0973476 0.000228359 -4.0157e-05)
(0.0986168 0.000299087 -3.23618e-05)
(0.0997951 0.00035354 -2.7409e-05)
(0.100924 0.000395096 -2.37929e-05)
(0.102001 0.000425055 -2.00448e-05)
(0.103014 0.000444736 -1.64297e-05)
(0.103964 0.000455995 -1.33857e-05)
(0.104858 0.000460437 -1.0901e-05)
(0.105701 0.000459295 -8.8248e-06)
(0.106496 0.000453469 -7.06829e-06)
(0.107246 0.000443844 -5.58721e-06)
(0.107953 0.000431436 -4.35e-06)
(0.108616 0.00041658 -3.34808e-06)
(0.109246 0.000400766 -2.4619e-06)
(0.109821 0.000382669 -1.89217e-06)
(0.110395 0.000370485 -1.30973e-06)
(0.0972648 7.37515e-05 -4.19461e-05)
(0.0985308 9.75694e-05 -3.38743e-05)
(0.0997074 0.000115946 -2.86736e-05)
(0.100835 0.000130049 -2.48513e-05)
(0.101912 0.000140251 -2.09333e-05)
(0.102926 0.000146934 -1.71708e-05)
(0.103878 0.000150722 -1.39971e-05)
(0.104773 0.000152207 -1.14026e-05)
(0.105618 0.000151852 -9.2347e-06)
(0.106417 0.000149982 -7.4014e-06)
(0.107169 0.000146852 -5.85658e-06)
(0.107879 0.000142787 -4.56292e-06)
(0.108545 0.000137878 -3.51871e-06)
(0.109177 0.000132697 -2.58677e-06)
(0.109758 0.000126558 -1.99715e-06)
(0.110333 0.000122435 -1.31852e-06)
(0.187869 0.0138169 -6.83983e-07)
(0.188376 0.0126641 4.20022e-06)
(0.18886 0.0116072 1.82304e-06)
(0.189291 0.0105789 -2.89507e-06)
(0.189383 0.00960107 -5.61155e-06)
(0.18911 0.00874759 -1.28875e-05)
(0.18879 0.00801127 -1.01229e-05)
(0.188603 0.00737308 -7.4259e-06)
(0.188731 0.00673628 -9.36968e-06)
(0.188922 0.00612227 -7.10174e-06)
(0.188536 0.00541722 -1.63202e-05)
(0.187649 0.00508099 -7.36339e-06)
(0.187393 0.0139177 3.31183e-06)
(0.187857 0.0127786 4.12088e-06)
(0.188338 0.011742 5.39349e-06)
(0.188841 0.0107816 3.66433e-06)
(0.189241 0.00986513 2.96543e-06)
(0.18936 0.0089967 -1.88742e-06)
(0.189141 0.00820319 -2.81857e-06)
(0.188868 0.0074919 2.70474e-06)
(0.188631 0.00685808 -1.41574e-06)
(0.188689 0.00635584 -3.00205e-07)
(0.18889 0.00574418 -5.63704e-08)
(0.188362 0.00525999 3.54092e-06)
(0.186413 0.0150444 1.22573e-05)
(0.186836 0.0138125 6.95481e-06)
(0.187271 0.0126904 8.30738e-06)
(0.187679 0.011661 8.73294e-06)
(0.188128 0.0107196 1.01698e-05)
(0.188623 0.00984683 1.17984e-05)
(0.189014 0.00902485 9.33417e-06)
(0.189167 0.00825476 7.92217e-06)
(0.189042 0.00753751 6.01634e-06)
(0.188785 0.00685286 1.23273e-05)
(0.188511 0.00629148 5.4278e-06)
(0.188622 0.00576773 5.26742e-06)
(0.188426 0.00526764 9.81706e-06)
(0.185822 0.0147576 1.406e-05)
(0.186381 0.0135555 8.28742e-06)
(0.186776 0.0124572 7.14873e-06)
(0.187173 0.0114578 1.16407e-05)
(0.187529 0.0105377 8.53946e-06)
(0.187915 0.00968939 8.62873e-06)
(0.188365 0.00890785 1.0567e-05)
(0.18878 0.00818401 8.82857e-06)
(0.188984 0.00751308 7.82372e-06)
(0.188997 0.00685887 5.02555e-06)
(0.188674 0.00624659 -7.4882e-07)
(0.188551 0.00572785 4.86775e-06)
(0.18833 0.00523231 5.3948e-06)
(0.185098 0.0143662 1.18726e-05)
(0.185861 0.0132209 9.35826e-06)
(0.186417 0.0121648 8.11079e-06)
(0.186827 0.0111996 6.90528e-06)
(0.187167 0.0103115 1.27429e-05)
(0.18749 0.00948864 8.3947e-06)
(0.187805 0.00872584 3.577e-06)
(0.188181 0.00803243 2.82616e-06)
(0.188578 0.00741161 6.23164e-06)
(0.188886 0.00682412 2.44845e-06)
(0.188885 0.00624382 -3.41353e-07)
(0.188764 0.00570868 2.57067e-06)
(0.188468 0.00523495 9.81976e-06)
(0.183124 0.015023 5.18275e-06)
(0.184214 0.0138614 8.21229e-06)
(0.185146 0.0127883 9.30663e-06)
(0.185902 0.011791 6.09582e-06)
(0.18647 0.0108692 5.48098e-06)
(0.186934 0.0100243 5.14332e-06)
(0.187227 0.00923527 -2.20594e-07)
(0.187498 0.00850026 3.39628e-06)
(0.187735 0.00782092 2.08937e-06)
(0.188017 0.00721593 2.52013e-06)
(0.188418 0.00666705 4.07222e-06)
(0.188702 0.0061445 2.10394e-06)
(0.188918 0.00562358 3.55744e-06)
(0.188767 0.00514412 1.84366e-06)
(0.182142 0.0143538 1.71264e-07)
(0.183282 0.0132691 2.69404e-06)
(0.184297 0.0122663 3.68787e-06)
(0.185172 0.011331 6.00797e-07)
(0.185918 0.010463 1.55254e-06)
(0.186547 0.00966822 -8.92832e-07)
(0.187016 0.00893375 -3.05989e-06)
(0.187328 0.00824832 -2.93818e-07)
(0.187556 0.00759738 8.53363e-06)
(0.187754 0.00698879 5.29853e-06)
(0.187998 0.00643283 -4.88776e-07)
(0.188227 0.00592385 -1.63379e-06)
(0.188605 0.00545889 2.35159e-06)
(0.188748 0.00498182 2.46499e-06)
(0.181123 0.0135948 -8.49973e-06)
(0.182342 0.012597 -3.48693e-06)
(0.183431 0.0116686 -1.97158e-06)
(0.184382 0.0107985 -3.90629e-06)
(0.185222 0.00998607 -3.86899e-06)
(0.185967 0.00924066 -3.43443e-06)
(0.186604 0.00855987 -4.22917e-06)
(0.187086 0.00792971 -1.29061e-06)
(0.187479 0.00733143 3.59184e-07)
(0.187682 0.00674987 -4.30592e-06)
(0.187865 0.00620844 3.39808e-06)
(0.188015 0.00569177 1.62252e-06)
(0.188218 0.00524278 -3.57295e-06)
(0.188429 0.00480847 -5.91049e-06)
(0.178757 0.0136906 -1.88876e-05)
(0.180161 0.0127259 -1.48997e-05)
(0.181414 0.0118233 -1.16478e-05)
(0.18255 0.0109799 -9.7387e-06)
(0.18358 0.0101871 -8.83963e-06)
(0.184496 0.00944119 -8.21468e-06)
(0.185317 0.00874843 -6.05805e-06)
(0.186032 0.00811088 -6.2805e-06)
(0.186654 0.00752053 -3.81798e-06)
(0.187197 0.00697069 -5.9513e-06)
(0.187588 0.00645056 -5.09404e-06)
(0.187891 0.00596556 -4.23596e-06)
(0.188038 0.00548845 -4.97329e-06)
(0.188161 0.00504159 2.49948e-06)
(0.188276 0.00466444 -1.1291e-06)
(0.177998 0.012611 -2.85135e-05)
(0.179396 0.0117545 -2.04588e-05)
(0.180658 0.0109496 -1.55673e-05)
(0.181793 0.0101913 -1.64462e-05)
(0.182829 0.00947782 -1.637e-05)
(0.183773 0.00880753 -1.41273e-05)
(0.184647 0.00818113 -1.02983e-05)
(0.185423 0.0075981 -8.99938e-06)
(0.186124 0.00705093 -7.11124e-06)
(0.18674 0.00654033 -8.07143e-06)
(0.187273 0.00606737 -5.97636e-06)
(0.187731 0.00562476 -7.34651e-06)
(0.188044 0.00520615 -6.52792e-06)
(0.188318 0.00479417 -3.23987e-06)
(0.188427 0.00445216 -1.10176e-05)
(0.177391 0.0114432 -3.58693e-05)
(0.178861 0.0107 -2.80448e-05)
(0.180141 0.00999551 -2.5858e-05)
(0.181274 0.00932713 -2.14797e-05)
(0.182301 0.00869422 -1.80562e-05)
(0.183222 0.0080931 -1.75052e-05)
(0.184067 0.00752969 -1.62864e-05)
(0.184839 0.00700608 -1.40855e-05)
(0.185568 0.00651661 -1.08347e-05)
(0.186232 0.00605847 -9.46486e-06)
(0.18683 0.0056297 -7.66492e-06)
(0.187372 0.00522439 -7.3847e-06)
(0.187807 0.0048364 -6.68339e-06)
(0.188225 0.00446273 -6.03341e-06)
(0.188469 0.00411714 -7.37788e-06)
(0.176778 0.010208 -4.45598e-05)
(0.178352 0.00957799 -3.6381e-05)
(0.179724 0.00897733 -3.18307e-05)
(0.180931 0.00840734 -2.87124e-05)
(0.181987 0.0078631 -2.58732e-05)
(0.182911 0.00733958 -1.98019e-05)
(0.183727 0.00683979 -1.50521e-05)
(0.184471 0.00636703 -1.5217e-05)
(0.185148 0.00592319 -1.65135e-05)
(0.185776 0.00551398 -1.51363e-05)
(0.186364 0.0051338 -1.21732e-05)
(0.186922 0.00477751 -9.58167e-06)
(0.187422 0.00442804 -7.6818e-06)
(0.187892 0.00410611 -6.88146e-06)
(0.18828 0.00378824 -8.65949e-06)
(0.174292 0.00947616 -6.25559e-05)
(0.17614 0.00893521 -5.18727e-05)
(0.177784 0.00841519 -4.3627e-05)
(0.179242 0.00791562 -3.84866e-05)
(0.180543 0.00743736 -3.53494e-05)
(0.181687 0.00697981 -3.20071e-05)
(0.182693 0.00654347 -2.57418e-05)
(0.183574 0.00612285 -2.36548e-05)
(0.184314 0.00571417 -2.36375e-05)
(0.184979 0.0053251 -1.56602e-05)
(0.185571 0.00495822 -1.17643e-05)
(0.186108 0.00460895 -1.1899e-05)
(0.186618 0.00428406 -1.37342e-05)
(0.187084 0.00397732 -1.38587e-05)
(0.187504 0.00369525 -1.19863e-05)
(0.187928 0.00343936 -1.2659e-05)
(0.173692 0.00808187 -7.29573e-05)
(0.175561 0.00765488 -6.00832e-05)
(0.177234 0.00723782 -5.16309e-05)
(0.178734 0.0068314 -4.62843e-05)
(0.180089 0.00643757 -4.12429e-05)
(0.181296 0.00605895 -3.65738e-05)
(0.18238 0.00569691 -3.11933e-05)
(0.183341 0.00534975 -2.86634e-05)
(0.184178 0.00501461 -2.56186e-05)
(0.184907 0.00469261 -2.12987e-05)
(0.185549 0.00438024 -1.83967e-05)
(0.18611 0.00407741 -2.06072e-05)
(0.186577 0.00379188 -1.93256e-05)
(0.187018 0.00352968 -8.50895e-06)
(0.187413 0.00326995 -4.90398e-06)
(0.187768 0.00305909 -1.05719e-05)
(0.173215 0.00670779 -8.37177e-05)
(0.175092 0.0063842 -6.92286e-05)
(0.176776 0.00606145 -5.96801e-05)
(0.178292 0.00574216 -5.32383e-05)
(0.179665 0.00542897 -4.68603e-05)
(0.180898 0.00512358 -4.09275e-05)
(0.182012 0.00482699 -3.55056e-05)
(0.183011 0.00454214 -3.13998e-05)
(0.183909 0.00426862 -2.74512e-05)
(0.184707 0.00400175 -2.47089e-05)
(0.185424 0.003742 -2.19172e-05)
(0.186053 0.00349448 -2.09948e-05)
(0.1866 0.00325768 -1.82696e-05)
(0.187085 0.00303469 -1.44539e-05)
(0.187525 0.00281457 -1.37029e-05)
(0.18789 0.00264031 -1.69815e-05)
(0.172842 0.00537374 -9.43119e-05)
(0.174723 0.00514018 -7.81872e-05)
(0.176413 0.00490143 -6.71451e-05)
(0.177938 0.00466131 -5.93907e-05)
(0.179319 0.00442217 -5.21263e-05)
(0.180564 0.00418509 -4.52723e-05)
(0.181688 0.00395166 -3.93255e-05)
(0.182699 0.00372455 -3.44227e-05)
(0.183614 0.00350485 -3.0265e-05)
(0.184438 0.00328959 -2.70177e-05)
(0.185184 0.0030806 -2.39585e-05)
(0.185852 0.00288156 -2.1266e-05)
(0.186451 0.0026887 -1.88003e-05)
(0.186985 0.00249893 -1.67878e-05)
(0.187464 0.00232004 -1.56736e-05)
(0.187887 0.00216909 -1.45623e-05)
(0.17255 0.00409237 -0.000104226)
(0.174431 0.00393379 -8.64409e-05)
(0.176124 0.00376674 -7.39498e-05)
(0.177654 0.00359533 -6.50091e-05)
(0.179042 0.00342161 -5.68945e-05)
(0.180298 0.00324678 -4.92845e-05)
(0.18143 0.00307275 -4.27395e-05)
(0.182451 0.00290133 -3.73647e-05)
(0.183373 0.00273387 -3.29056e-05)
(0.184207 0.00256975 -2.91456e-05)
(0.18496 0.0024099 -2.58426e-05)
(0.18564 0.00225602 -2.28568e-05)
(0.186254 0.00210736 -2.04409e-05)
(0.18681 0.00196251 -1.81851e-05)
(0.187302 0.00182625 -1.6643e-05)
(0.187761 0.00171025 -1.53929e-05)
(0.172315 0.00287349 -0.000113058)
(0.174196 0.00277394 -9.37299e-05)
(0.175892 0.00266555 -7.99442e-05)
(0.177427 0.00255194 -6.99624e-05)
(0.178822 0.00243485 -6.10377e-05)
(0.180086 0.00231545 -5.27615e-05)
(0.181227 0.00219537 -4.56723e-05)
(0.182257 0.00207609 -3.9867e-05)
(0.183188 0.00195872 -3.50602e-05)
(0.184031 0.00184346 -3.09757e-05)
(0.184791 0.00173074 -2.74523e-05)
(0.185479 0.00162153 -2.43353e-05)
(0.186099 0.00151589 -2.17411e-05)
(0.186663 0.00141449 -1.92183e-05)
(0.187161 0.00131588 -1.74296e-05)
(0.187629 0.00123563 -1.58916e-05)
(0.172111 0.00170475 -0.000120156)
(0.173996 0.00165057 -9.95483e-05)
(0.175699 0.00158987 -8.46955e-05)
(0.177242 0.00152517 -7.38568e-05)
(0.178646 0.00145767 -6.42601e-05)
(0.179919 0.00138813 -5.54459e-05)
(0.181069 0.00131761 -4.79204e-05)
(0.182109 0.00124714 -4.17622e-05)
(0.183049 0.00117748 -3.66718e-05)
(0.1839 0.00110898 -3.23526e-05)
(0.184669 0.0010419 -2.86433e-05)
(0.185364 0.00097686 -2.53916e-05)
(0.185992 0.000913843 -2.26569e-05)
(0.186562 0.000853916 -2.00382e-05)
(0.18707 0.000794928 -1.81714e-05)
(0.187543 0.000748398 -1.62435e-05)
(0.17194 0.00057363 -0.000125809)
(0.173837 0.000554876 -0.000104198)
(0.17555 0.000534005 -8.85069e-05)
(0.177105 0.00051192 -7.69935e-05)
(0.178518 0.000488994 -6.6866e-05)
(0.179801 0.00046538 -5.7624e-05)
(0.180961 0.000441374 -4.97422e-05)
(0.182009 0.000417358 -4.32902e-05)
(0.182957 0.000393668 -3.7961e-05)
(0.183816 0.000370496 -3.34478e-05)
(0.184591 0.000347906 -2.95767e-05)
(0.185293 0.000326053 -2.61974e-05)
(0.185926 0.00030487 -2.33466e-05)
(0.186502 0.00028481 -2.06429e-05)
(0.187016 0.000264914 -1.86861e-05)
(0.187492 0.000249233 -1.65177e-05)
(0.22814 0.016089 -4.94194e-05)
(0.22858 0.0147328 -4.07363e-05)
(0.229033 0.013488 -3.92429e-05)
(0.229417 0.0122913 -4.11815e-05)
(0.229441 0.0111649 -3.82207e-05)
(0.229094 0.010174 -3.60928e-05)
(0.228691 0.00930905 -2.71925e-05)
(0.228468 0.00855462 -2.14835e-05)
(0.228573 0.00779082 -2.3739e-05)
(0.228677 0.00706563 -2.48364e-05)
(0.228221 0.00628669 -2.9244e-05)
(0.227263 0.00585932 -1.45384e-05)
(0.227386 0.0162565 -3.84115e-05)
(0.227818 0.0149069 -3.17702e-05)
(0.228275 0.0136783 -2.65467e-05)
(0.228768 0.0125394 -2.47154e-05)
(0.229141 0.0114584 -2.40443e-05)
(0.229208 0.0104426 -2.34547e-05)
(0.228937 0.0095174 -2.01346e-05)
(0.22859 0.00869153 -1.25091e-05)
(0.228353 0.00794453 -1.08646e-05)
(0.228375 0.00732337 -9.92876e-06)
(0.228491 0.0066152 -1.26002e-05)
(0.227945 0.00604495 -1.43237e-06)
(0.226217 0.0177334 -3.00156e-05)
(0.226616 0.016259 -2.5923e-05)
(0.227026 0.014914 -1.89786e-05)
(0.227442 0.0136849 -1.46253e-05)
(0.227894 0.0125601 -1.09376e-05)
(0.228384 0.0115166 -7.7103e-06)
(0.22877 0.0105368 -7.3702e-06)
(0.228889 0.00962259 -7.2202e-06)
(0.228733 0.00877831 -6.49184e-06)
(0.228426 0.00798326 -1.18111e-06)
(0.228149 0.00731488 -1.48265e-06)
(0.228213 0.006689 -1.19385e-06)
(0.228033 0.00610629 7.82674e-06)
(0.225384 0.0175622 -2.52639e-05)
(0.225942 0.0161029 -2.14885e-05)
(0.226354 0.0147698 -1.68554e-05)
(0.226745 0.0135557 -1.10411e-05)
(0.227133 0.0124462 -9.08741e-06)
(0.227542 0.0114249 -6.84023e-06)
(0.227995 0.0104805 -4.39869e-06)
(0.228408 0.00960513 -3.79572e-06)
(0.228603 0.00879694 -4.78368e-06)
(0.228585 0.00802267 -5.61217e-06)
(0.228267 0.00730427 -6.60385e-06)
(0.228101 0.00668287 -8.22494e-07)
(0.227914 0.00611192 2.83063e-06)
(0.224414 0.0172496 -2.29439e-05)
(0.225209 0.0158357 -1.8611e-05)
(0.225788 0.0145353 -1.50803e-05)
(0.226229 0.0133485 -1.19236e-05)
(0.226588 0.0122627 -7.186e-06)
(0.226937 0.0112626 -6.97237e-06)
(0.227294 0.0103372 -6.83899e-06)
(0.227696 0.00949025 -5.1656e-06)
(0.228094 0.00872805 -2.91999e-06)
(0.228406 0.00801733 -4.44914e-06)
(0.228411 0.00732874 -5.64621e-06)
(0.228264 0.00669291 -2.32573e-06)
(0.227972 0.00613172 4.27989e-06)
(0.222154 0.0182614 -2.77011e-05)
(0.223282 0.0167949 -2.09519e-05)
(0.224266 0.0154472 -1.57217e-05)
(0.225076 0.0142022 -1.35866e-05)
(0.225685 0.0130552 -1.16826e-05)
(0.22617 0.0120051 -9.89733e-06)
(0.226517 0.0110345 -1.07262e-05)
(0.226816 0.0101337 -6.16577e-06)
(0.227109 0.00930426 -3.87485e-06)
(0.227424 0.00856138 -3.24149e-06)
(0.227828 0.00788915 -1.71262e-06)
(0.228139 0.00725723 -2.2113e-06)
(0.228337 0.00663761 -1.61404e-06)
(0.228202 0.00606287 5.44956e-07)
(0.220864 0.0176256 -2.69231e-05)
(0.222085 0.0162343 -2.06605e-05)
(0.223178 0.0149554 -1.64078e-05)
(0.224136 0.0137713 -1.50447e-05)
(0.224935 0.0126746 -1.27634e-05)
(0.225608 0.01167 -1.19151e-05)
(0.226121 0.0107478 -1.07681e-05)
(0.22649 0.00989526 -6.78367e-06)
(0.226758 0.00909614 -1.88587e-06)
(0.226998 0.00835311 -2.56892e-06)
(0.227295 0.00767404 -2.76145e-06)
(0.227577 0.0070535 -3.023e-06)
(0.227945 0.00648198 -1.30337e-06)
(0.228117 0.00591217 8.1503e-07)
(0.219528 0.0168833 -3.02026e-05)
(0.220839 0.015576 -2.25935e-05)
(0.222031 0.01437 -1.7978e-05)
(0.22309 0.0132502 -1.6463e-05)
(0.224016 0.0122082 -1.47347e-05)
(0.22483 0.0112514 -1.24761e-05)
(0.225533 0.0103809 -1.00213e-05)
(0.226077 0.00958339 -7.37037e-06)
(0.226513 0.00883524 -5.85091e-06)
(0.226792 0.0081177 -7.19342e-06)
(0.227017 0.00744879 -2.45851e-06)
(0.227223 0.00681986 -2.53892e-06)
(0.227475 0.00626251 -3.62261e-06)
(0.227725 0.00573614 -7.38352e-06)
(0.21669 0.0173143 -4.08783e-05)
(0.218227 0.0160067 -3.27344e-05)
(0.219611 0.0147952 -2.62837e-05)
(0.220866 0.0136724 -2.22195e-05)
(0.22201 0.0126274 -1.92458e-05)
(0.223035 0.011652 -1.66905e-05)
(0.223953 0.0107496 -1.29767e-05)
(0.224768 0.00992434 -1.06588e-05)
(0.225468 0.0091672 -8.51214e-06)
(0.226084 0.00846553 -8.11758e-06)
(0.226545 0.00780598 -7.33357e-06)
(0.226902 0.00719318 -6.08066e-06)
(0.227124 0.00660361 -5.68991e-06)
(0.227288 0.00605115 -1.00464e-06)
(0.227457 0.00557662 -5.38782e-06)
(0.215506 0.0161831 -4.71712e-05)
(0.217083 0.0149878 -3.65258e-05)
(0.218514 0.0138776 -2.93682e-05)
(0.219815 0.0128442 -2.65021e-05)
(0.220997 0.0118809 -2.36509e-05)
(0.222066 0.0109826 -2.0157e-05)
(0.22305 0.0101484 -1.52809e-05)
(0.223942 0.00937963 -1.22305e-05)
(0.224747 0.00866712 -9.64418e-06)
(0.225466 0.00800659 -8.7464e-06)
(0.226083 0.00739711 -7.29948e-06)
(0.226617 0.00683194 -6.68729e-06)
(0.227004 0.00630212 -6.16105e-06)
(0.227318 0.00578737 -4.30963e-06)
(0.227498 0.00534885 -8.9398e-06)
(0.214481 0.0149159 -5.4601e-05)
(0.216156 0.0138395 -4.30977e-05)
(0.217647 0.0128364 -3.67553e-05)
(0.218974 0.0118987 -3.08622e-05)
(0.220178 0.0110227 -2.58088e-05)
(0.221265 0.0102018 -2.23559e-05)
(0.222256 0.00943764 -1.85819e-05)
(0.223158 0.00873202 -1.54525e-05)
(0.223999 0.00807857 -1.198e-05)
(0.224776 0.00747317 -9.67576e-06)
(0.225481 0.00691291 -7.53644e-06)
(0.226122 0.00639064 -5.87156e-06)
(0.22665 0.00589815 -5.43101e-06)
(0.22713 0.00542571 -4.70686e-06)
(0.227454 0.00499543 -4.75832e-06)
(0.213485 0.0135296 -6.49622e-05)
(0.215291 0.012577 -5.17427e-05)
(0.216893 0.0116871 -4.31042e-05)
(0.218314 0.0108567 -3.69363e-05)
(0.219573 0.0100782 -3.12195e-05)
(0.220688 0.00934469 -2.42903e-05)
(0.221681 0.00865522 -1.91947e-05)
(0.222585 0.0080102 -1.71102e-05)
(0.22341 0.00740976 -1.55158e-05)
(0.224167 0.00685874 -1.28849e-05)
(0.224869 0.00635215 -9.94408e-06)
(0.22553 0.00588285 -7.46418e-06)
(0.226131 0.00543264 -6.09535e-06)
(0.226688 0.0050148 -4.52602e-06)
(0.227166 0.00461954 -7.26507e-06)
(0.210346 0.0129304 -9.23047e-05)
(0.212481 0.0120496 -7.50696e-05)
(0.2144 0.0112248 -6.09518e-05)
(0.216114 0.0104517 -5.12974e-05)
(0.21765 0.00972767 -4.3856e-05)
(0.219014 0.00904902 -3.68942e-05)
(0.220218 0.00841334 -2.95296e-05)
(0.221292 0.00781448 -2.49236e-05)
(0.22222 0.00724541 -2.21699e-05)
(0.223044 0.00671041 -1.54917e-05)
(0.223789 0.00621326 -1.16384e-05)
(0.224464 0.00574675 -1.07473e-05)
(0.225097 0.0053135 -1.02848e-05)
(0.22568 0.00490955 -9.26775e-06)
(0.2262 0.00453969 -6.95088e-06)
(0.226709 0.00421052 -1.08328e-05)
(0.209338 0.0112446 -0.00010737)
(0.211544 0.0105048 -8.68195e-05)
(0.213535 0.00980768 -7.16781e-05)
(0.215325 0.00914994 -6.09116e-05)
(0.216942 0.00853017 -5.11162e-05)
(0.218391 0.00794838 -4.24927e-05)
(0.219691 0.00740338 -3.46242e-05)
(0.220859 0.00689251 -2.89408e-05)
(0.221888 0.00641087 -2.39245e-05)
(0.222791 0.0059566 -1.91738e-05)
(0.223592 0.00552491 -1.59764e-05)
(0.224307 0.00511334 -1.52747e-05)
(0.224915 0.00472805 -1.27575e-05)
(0.225469 0.00437716 -6.06702e-06)
(0.225978 0.00404005 -3.03075e-06)
(0.226451 0.00375855 -8.15665e-06)
(0.20848 0.00951752 -0.000123546)
(0.210734 0.00891501 -0.000100071)
(0.212773 0.00834268 -8.28841e-05)
(0.214611 0.00779926 -7.01265e-05)
(0.216274 0.00728436 -5.84821e-05)
(0.217773 0.00679798 -4.81939e-05)
(0.219128 0.0063389 -3.93199e-05)
(0.220352 0.00590833 -3.2184e-05)
(0.221457 0.00550499 -2.60981e-05)
(0.222444 0.00512199 -2.17564e-05)
(0.22333 0.00475595 -1.79414e-05)
(0.224122 0.00441156 -1.53018e-05)
(0.224812 0.00408818 -1.22196e-05)
(0.225423 0.00378627 -9.20778e-06)
(0.225982 0.00349259 -8.09872e-06)
(0.226463 0.00325363 -1.04059e-05)
(0.207764 0.00777233 -0.000140045)
(0.210058 0.0073 -0.000113562)
(0.212134 0.00684747 -9.38298e-05)
(0.214009 0.00641522 -7.88621e-05)
(0.215706 0.00600334 -6.56631e-05)
(0.217239 0.0056114 -5.39258e-05)
(0.218625 0.00523901 -4.39904e-05)
(0.219878 0.00488724 -3.58889e-05)
(0.221016 0.00455621 -2.92631e-05)
(0.222044 0.00424129 -2.41458e-05)
(0.222975 0.00394142 -1.97022e-05)
(0.223815 0.00366029 -1.59358e-05)
(0.224569 0.00339448 -1.28929e-05)
(0.225243 0.0031378 -1.05395e-05)
(0.22585 0.00289482 -8.91283e-06)
(0.226387 0.00269239 -8.07937e-06)
(0.207173 0.0060269 -0.000156088)
(0.2095 0.00567521 -0.000126555)
(0.211607 0.00533521 -0.000104279)
(0.213513 0.00500835 -8.7225e-05)
(0.215238 0.00469499 -7.24683e-05)
(0.2168 0.00439499 -5.94113e-05)
(0.218213 0.00410867 -4.84268e-05)
(0.21949 0.00383649 -3.95247e-05)
(0.220648 0.00357876 -3.23291e-05)
(0.221697 0.00333366 -2.65107e-05)
(0.222647 0.00310054 -2.16531e-05)
(0.223508 0.00288054 -1.75685e-05)
(0.224286 0.00267251 -1.44226e-05)
(0.224991 0.0024734 -1.18119e-05)
(0.225621 0.00228625 -9.85338e-06)
(0.226198 0.00212871 -9.27227e-06)
(0.20669 0.00429784 -0.000170805)
(0.209044 0.00405573 -0.000138405)
(0.211178 0.00381965 -0.000113787)
(0.213111 0.00359124 -9.48517e-05)
(0.214862 0.00337108 -7.86179e-05)
(0.216449 0.00315929 -6.4362e-05)
(0.217885 0.00295638 -5.24074e-05)
(0.219184 0.00276278 -4.27406e-05)
(0.220362 0.00257874 -3.49412e-05)
(0.221428 0.00240366 -2.8582e-05)
(0.222394 0.00223702 -2.33521e-05)
(0.22327 0.0020791 -1.90106e-05)
(0.22406 0.00192957 -1.5593e-05)
(0.224779 0.00178837 -1.26216e-05)
(0.225422 0.00165311 -1.04445e-05)
(0.226013 0.00154187 -9.36254e-06)
(0.206292 0.00258131 -0.000183019)
(0.208674 0.00243908 -0.000148184)
(0.210834 0.00229951 -0.000121595)
(0.212792 0.00216389 -0.000101083)