/*--------------------------------*- C++ -*----------------------------------*\
  =========                 |
  \\      /  F ield         | OpenFOAM: The Open Source CFD Toolbox
   \\    /   O peration     | Website:  https://openfoam.org
    \\  /    A nd           | Version:  6
     \\/     M anipulation  |
\*---------------------------------------------------------------------------*/
FoamFile
{
    version     2.0;
    format      ascii;
    class       volScalarField;
    location    "47";
    object      yPlus;
}
// * * * * * * * * * * * * * * * * * * * * * * * * * * * * * * * * * * * * * //

dimensions      [0 0 0 0 0 0 0];

internalField   uniform 0;

boundaryField
{
    inlet
    {
        type            calculated;
        value           uniform 0;
    }
    outlet
    {
        type            calculated;
        value           uniform 0;
    }
    roughCylinder
    {
        type            calculated;
        value           nonuniform List<scalar> 
5120
(
43.5127
51.3338
57.5634
63.69
68.9785
73.2678
76.7044
79.4821
81.7564
83.6616
85.3173
86.7997
88.1465
89.3916
90.5657
91.6995
92.8236
93.9663
95.151
96.395
97.7079
99.0918
100.544
102.057
103.621
105.223
106.847
108.47
110.052
111.526
112.739
113.458
42.7992
50.3363
56.3668
62.3535
67.5687
71.8232
75.242
78.0117
80.2855
82.1968
83.8608
85.3471
86.6854
87.9164
89.0724
90.185
91.2856
92.4033
93.5623
94.7792
96.0632
97.4171
98.8375
100.318
101.847
103.413
104.999
106.584
108.128
109.567
110.75
111.449
42.0155
49.304
55.147
60.9935
66.1348
70.3571
73.7638
76.5339
78.8183
80.7459
82.424
83.9152
85.2496
86.4701
87.61
88.7028
89.7815
90.8757
92.0088
93.1986
94.4545
95.7788
97.168
98.6156
100.11
101.641
103.19
104.737
106.244
107.646
108.799
109.48
41.2036
48.2573
53.9131
59.6163
64.6837
68.8784
72.2798
75.058
77.3612
79.3125
81.0094
82.5096
83.8458
85.0568
86.1833
87.2592
88.3178
89.3892
90.4992
91.6641
92.8928
94.1883
95.5473
96.9622
98.4234
99.9183
101.431
102.941
104.41
105.777
106.9
107.562
40.3448
47.1761
52.6433
58.1991
63.1932
67.3673
70.7748
73.5744
75.9087
77.8922
79.6133
81.1266
82.468
83.6772
84.7944
85.8554
86.8961
87.9483
89.0351
90.1751
91.3783
92.6463
93.976
95.36
96.7885
98.2494
99.7265
101.2
102.632
103.964
105.058
105.702
39.478
46.0873
51.359
56.7608
61.6821
65.8431
69.2657
72.0931
74.4625
76.4812
78.2298
79.7614
81.1148
82.3269
83.4378
84.4884
85.5145
86.5475
87.6152
88.7341
89.9128
91.1546
92.4561
93.8099
95.2062
96.6324
98.0738
99.5114
100.907
102.206
103.271
103.896
38.5511
44.9464
50.0159
55.2556
60.1023
64.2586
67.7119
70.5852
73.0051
75.0692
76.8528
78.4087
79.7774
81.0003
82.1138
83.158
84.1723
85.1922
86.2407
87.3376
88.4938
89.7107
90.9853
92.3102
93.6756
95.0701
96.4774
97.8797
99.2412
100.506
101.542
102.15
37.6262
43.8011
48.6577
53.7243
58.4947
62.6548
66.1493
69.073
71.5433
73.6548
75.4775
77.0636
78.4573
79.6948
80.816
81.8592
82.8677
83.8738
84.9084
85.989
87.1242
88.3177
89.5663
90.8629
92.1974
93.5584
94.9312
96.2987
97.6242
98.8572
99.8654
100.455
36.6013
42.5615
47.1927
52.0693
56.7542
60.9237
64.48
67.4841
70.0345
72.2127
74.0874
75.7147
77.1371
78.3995
79.5361
80.5885
81.5946
82.5971
83.6184
84.6808
85.797
86.9685
88.1923
89.4618
90.7667
92.0976
93.4382
94.771
96.0634
97.2626
98.2427
98.8155
35.5785
41.3136
45.7087
50.3805
54.9737
59.1617
62.7936
65.8808
68.5045
70.7507
72.685
74.3593
75.8244
77.1147
78.273
79.3358
80.3496
81.3478
82.3622
83.4148
84.5141
85.6652
86.8655
88.1079
89.3833
90.6803
91.9854
93.2842
94.5395
95.7086
96.6611
97.2146
34.3679
39.8882
44.0299
48.4661
52.9396
57.1394
60.8707
64.0949
66.8566
69.2124
71.2289
72.9716
74.4848
75.8202
77.0083
78.0955
79.1188
80.125
81.1351
82.1749
83.2598
84.3919
85.5689
86.7852
88.031
89.2987
90.5721
91.8358
93.0594
94.1947
95.1194
95.6557
33.1268
38.4387
42.3204
46.5058
50.8499
55.0729
58.9259
62.2874
65.1626
67.6256
69.7406
71.5574
73.1399
74.5198
75.7493
76.8609
77.9054
78.9152
79.9268
80.9652
82.0383
83.1533
84.3091
85.4993
86.716
87.9481
89.184
90.4145
91.6001
92.7048
93.6022
94.1186
31.5818
36.689
40.2724
44.1419
48.2856
52.4872
56.4769
60.073
63.2081
65.8717
68.127
70.0629
71.7235
73.1813
74.4598
75.6156
76.6845
77.7177
78.735
79.7656
80.8292
81.929
83.0636
84.2289
85.416
86.6205
87.8268
89.0188
90.1721
91.2448
92.1131
92.6121
29.94
34.8672
38.1672
41.718
45.6551
49.8559
54.0221
57.8389
61.1513
64.0032
66.4401
68.4994
70.2803
71.8065
73.1567
74.3578
75.4662
76.5129
77.5427
78.5832
79.6414
80.728
81.8436
82.9836
84.1412
85.3073
86.471
87.6333
88.7473
89.785
90.6256
91.1036
27.7476
32.4983
35.443
38.5344
42.0868
46.1313
50.4371
54.675
58.5379
61.791
64.4901
66.7804
68.6923
70.3558
71.7841
73.0557
74.2086
75.3009
76.3493
77.3874
78.4423
79.5181
80.6148
81.7306
82.8582
83.9979
85.1355
86.2514
87.3307
88.3399
89.15
89.6087
25.2174
29.8923
32.5844
35.2997
38.5183
42.5077
47.0529
51.5735
55.6393
59.2725
62.3595
64.8722
67.022
68.8019
70.3557
71.7088
72.9295
74.0478
75.1245
76.1893
77.2474
78.3144
79.3944
80.4849
81.5808
82.6765
83.7611
84.8535
85.8916
86.8581
87.6383
88.0749
21.4347
26.1117
28.3631
30.3333
32.711
35.9601
40.4656
45.9798
51.5465
56.0418
59.6642
62.6999
65.0824
67.1205
68.8064
70.2715
71.5644
72.7628
73.875
74.9424
76.0042
77.066
78.129
79.1953
80.2603
81.3306
82.3947
83.4278
84.4251
85.3674
86.1152
86.5296
16.3213
21.4207
23.9899
25.7624
27.5307
31.233
36.2467
41.3598
46.3206
51.86
56.4853
59.9567
62.9033
65.1745
67.1017
68.7188
70.1344
71.3769
72.5416
73.6628
74.7406
75.7991
76.8474
77.8868
78.9143
79.9313
80.9264
81.9402
82.8952
83.7841
84.4951
84.8832
7.38013
11.6717
12.1721
11.2475
10.7706
7.32747
13.3247
26.8453
39.0772
46.04
51.9158
56.8291
60.1951
63.0177
65.1925
67.0098
68.5403
69.9228
71.15
72.2769
73.3669
74.4267
75.4598
76.4742
77.4682
78.4594
79.4379
80.3813
81.2802
82.1444
82.8243
83.1906
6.32558
12.0226
15.1248
15.5976
14.4178
10.7773
18.9066
7.97003
18.9518
36.9735
45.9358
51.7713
56.8383
60.1792
62.8977
65.0152
66.7946
68.2566
69.5773
70.8067
71.9337
72.9992
74.0189
75.0002
75.9455
76.8681
77.7571
78.6696
79.5284
80.3314
80.9558
81.2786
11.3568
15.5582
16.6615
17.3207
14.9726
14.7179
20.4721
16.5591
18.8129
17.6585
35.7634
46.4861
52.1017
56.9757
60.1942
62.7537
64.7269
66.4505
67.8883
69.1249
70.2765
71.3513
72.356
73.3121
74.2178
75.1093
75.976
76.823
77.5918
78.3557
78.9606
79.274
19.9123
24.4299
26.3046
27.0149
26.6778
25.0409
22.4326
17.5286
17.2697
9.83492
11.218
33.8175
46.0734
51.8076
56.5848
59.7656
62.3233
64.2088
65.8211
67.2597
68.4887
69.5875
70.5827
71.4856
72.3174
73.1154
73.8666
74.63
75.3664
76.0695
76.5703
76.7926
22.3729
27.3537
30.0642
32.0558
33.2269
33.4164
32.3741
29.9311
25.0495
21.7325
23.786
25.4377
33.312
46.2971
51.8512
56.3278
59.2115
61.6559
63.5134
64.9592
66.2354
67.3566
68.327
69.2117
69.994
70.7393
71.4404
72.1807
72.7555
73.3785
73.9061
74.1489
23.1506
28.2435
31.1825
33.544
35.2845
36.3808
36.7803
36.3145
34.4928
30.1043
24.213
8.12307
12.7513
32.7094
45.2858
50.7585
55.3874
58.1694
60.3842
62.2681
63.713
64.897
65.8786
66.6457
67.2855
67.8953
68.4372
68.951
69.5007
70.0807
70.3627
70.422
22.5366
27.7632
30.8589
33.4494
35.4909
36.9736
37.9044
38.2888
38.0508
36.7251
32.9462
24.7023
15.3183
16.9149
33.2017
45.1516
49.658
53.951
56.7513
58.6059
60.1272
61.3706
62.2792
63.0478
63.6358
64.1119
64.5229
65.1464
65.3809
65.8198
66.304
66.3795
21.0252
26.3821
29.5632
32.279
34.4988
36.2187
37.4597
38.2625
38.6713
38.652
37.7474
34.3848
26.4873
19.8807
15.5849
29.5361
43.1746
47.5794
51.1424
54.0968
56.0568
57.4286
58.4302
58.8776
59.0951
59.3692
59.5243
59.5284
59.7043
60.1568
59.8813
59.6738
19.0255
24.4752
27.6811
30.4441
32.7533
34.6207
36.0722
37.1638
37.9752
38.573
38.8881
38.3144
34.7435
27.7992
19.2204
16.678
26.4678
39.7063
44.8962
47.3087
49.0497
50.7045
51.3812
51.8229
52.0823
51.8346
51.5676
52.169
51.6865
52.7499
53.1925
52.2069
16.7766
22.2107
25.3452
28.0579
30.3655
32.3027
33.9096
35.2416
36.3817
37.4161
38.3691
39.0519
38.6464
34.9938
30.2087
20.8625
18.3157
22.7236
31.4261
38.1012
42.1632
43.6776
45.1331
44.3418
43.5804
42.9908
42.369
41.2149
39.8658
38.9848
38.4878
38.4908
14.5106
19.793
22.7543
25.3173
27.5314
29.4545
31.1434
32.6603
34.0801
35.4839
36.9081
38.2653
39.2189
38.888
35.408
27.8328
25.2944
24.6112
33.8714
26.8737
20.9784
29.7681
27.0751
21.6005
21.2662
18.333
0.976964
11.5051
34.9449
41.0311
25.9453
5.0914
12.4982
17.5063
20.2179
22.558
24.6089
26.4477
28.1429
29.7599
31.3654
33.0262
34.7907
36.6202
38.3205
39.4633
39.2411
35.9972
27.6978
24.4599
33.2295
24.5082
12.0667
36.8793
15.3311
28.3713
16.1582
35.6991
20.2022
9.00614
10.2797
44.4655
35.961
24.3954
10.9365
15.5928
18.0338
20.1291
21.9903
23.708
25.355
26.9921
28.6725
30.4448
32.3571
34.4207
36.5527
38.4894
39.7545
39.668
36.8502
32.3696
24.251
29.49
19.8729
27.5022
28.4485
20.0568
30.7886
31.7966
28.7146
31.4409
34.3552
42.0493
41.0316
31.9589
9.77836
14.1861
16.3955
18.2827
19.9819
21.5875
23.1663
24.7653
26.4216
28.1705
30.0532
32.1101
34.3464
36.6516
38.712
40.0249
40.0821
38.3124
35.1167
31.3791
29.4994
26.8541
27.9563
32.9404
34.6012
37.5563
39.0826
38.8696
41.0329
36.3537
37.8506
40.3025
9.15921
13.3713
15.4167
17.168
18.7681
20.3022
21.8202
23.351
24.9161
26.5423
28.2676
30.143
32.2181
34.4947
36.84
38.9047
40.2041
40.322
39.8383
38.2934
38.3709
37.6605
35.8384
41.3068
41.4947
43.1302
43.7022
43.226
44.4966
40.9611
42.0091
43.4785
8.97574
13.097
15.0696
16.7714
18.3431
19.8536
21.3328
22.7931
24.246
25.7132
27.2304
28.8465
30.6203
32.6046
34.798
37.0526
39.0224
40.2358
40.9204
40.8276
41.0394
40.986
40.174
43.1253
43.1298
43.7579
43.8825
43.5847
44.052
41.5424
42.9374
43.6813
9.15529
13.2667
15.2415
16.9637
18.5622
20.0873
21.5517
22.9576
24.3124
25.6359
26.9592
28.324
29.7811
31.3909
33.2059
35.2202
37.2901
39.0927
40.5286
41.2753
41.7255
41.8154
41.4757
43.0677
42.9913
43.1531
43.0224
42.8997
42.7241
40.9084
42.2955
42.773
9.59813
13.753
15.7794
17.5688
19.2309
20.7987
22.2733
23.6513
24.939
26.156
27.3307
28.4968
29.6935
30.9694
32.3819
33.9794
35.7544
37.5727
39.3
40.5749
41.3417
41.6074
41.5076
42.1903
41.8841
41.722
41.4198
41.3488
40.7913
39.6612
40.7263
41.0693
10.2463
14.4746
16.5764
18.4535
20.1948
21.8183
23.318
24.6895
25.9412
27.0939
28.1736
29.2074
30.2223
31.2517
32.3406
33.5412
34.895
36.3886
37.9562
39.3324
40.2811
40.6887
40.6721
40.8296
40.3041
39.9267
39.5316
39.4396
38.8272
38.2972
39.0285
39.3038
11.044
15.3733
17.5629
19.5341
21.3563
23.0369
24.5669
25.9445
27.1827
28.3045
29.3351
30.2957
31.2031
32.0766
32.9446
33.8468
34.8279
35.9168
37.1068
38.2571
39.144
39.575
39.5681
39.4374
38.7989
38.2851
37.845
37.7352
37.2937
37.2335
37.7519
38.0029
11.8995
16.3986
18.6844
20.7496
22.6492
24.3839
25.9456
27.3373
28.5775
29.6924
30.7064
31.6367
32.4927
33.2831
34.0222
34.7334
35.4487
36.2007
37.0055
37.8057
38.4574
38.7788
38.7162
38.422
37.7463
37.1597
36.7097
36.6082
36.409
36.6669
37.1204
37.3859
12.8956
17.5177
19.8981
22.0544
24.0269
25.8128
27.4066
28.8177
30.0706
31.1947
32.2135
33.1411
33.982
34.7383
35.4148
36.0216
36.5757
37.098
37.6067
38.084
38.4535
38.5868
38.4154
38.0058
37.3198
36.6974
36.2557
36.1775
36.1999
36.6597
37.141
37.4459
13.5611
13.9749
14.4563
14.8435
15.22
15.5205
15.7835
15.9884
16.154
16.2721
16.3536
16.3967
16.4054
16.3807
16.327
16.2465
16.1414
16.0172
15.8856
15.7801
15.7998
15.9251
16.0691
16.2039
16.319
16.4091
16.4722
16.5055
16.5049
16.4692
16.3941
16.2813
16.1195
15.9168
15.6541
15.3517
14.9705
14.5745
14.0819
13.6512
18.2974
18.727
19.2278
19.6326
20.0264
20.3475
20.6325
20.8616
21.0525
21.1977
21.3069
21.3788
21.4159
21.4183
21.3883
21.3274
21.2369
21.1207
20.9902
20.8818
20.9065
21.0397
21.1851
21.3137
21.4158
21.4874
21.5276
21.5344
21.5056
21.4409
21.3377
21.1971
21.0091
20.7813
20.4954
20.1711
19.7715
19.357
18.8441
18.3968
20.7438
21.1983
21.7288
22.1588
22.5806
22.9317
23.2508
23.5169
23.7479
23.9364
24.0904
24.209
24.2937
24.3429
24.357
24.3365
24.2818
24.1953
24.0874
23.993
24.0187
24.1404
24.2657
24.3666
24.4347
24.4675
24.4648
24.4257
24.35
24.2391
24.0912
23.9072
23.6788
23.4134
23.0928
22.7377
22.3094
21.8691
21.3261
20.8531
22.9486
23.4221
23.975
24.4242
24.87
25.2479
25.5986
25.9001
26.1701
26.4015
26.6001
26.765
26.8971
26.9936
27.0532
27.0748
27.0582
27.0054
26.9261
26.855
26.8791
26.9803
27.0794
27.1491
27.1808
27.1732
27.1264
27.0413
26.9191
26.7626
26.5703
26.3435
26.076
25.7749
25.4221
25.0395
24.5865
24.1265
23.5605
23.0683
24.9516
25.429
25.9892
26.4443
26.9014
27.2941
27.6647
27.9904
28.2883
28.5524
28.7872
28.9901
29.1613
29.2969
29.3946
29.4523
29.4687
29.4458
29.394
29.346
29.3679
29.4476
29.5217
29.5634
29.5638
29.5215
29.4378
29.3146
29.1542
28.9602
28.7323
28.4729
28.1775
27.8518
27.4788
27.0807
26.6159
26.1493
25.5755
25.0792
26.7527
27.2176
27.771
28.2199
28.6768
29.0742
29.455
29.7978
30.1183
30.4093
30.6744
30.9096
31.114
31.283
31.4133
31.5018
31.5467
31.5496
31.5211
31.4913
31.5118
31.5739
31.6264
31.6437
31.617
31.5451
31.4296
31.2738
31.0809
30.855
30.5971
30.311
29.9929
29.65
29.2662
28.8629
28.3975
27.9364
27.3688
26.8846
28.3517
28.7927
29.3315
29.7685
30.2207
30.6203
31.0111
31.3701
31.7117
32.0276
32.3203
32.5849
32.8191
33.0179
33.177
33.2925
33.3618
33.3863
33.3761
33.3592
33.3789
33.4285
33.4638
33.4606
33.4104
33.3123
33.1689
32.9839
32.7616
32.5068
32.2215
31.9106
31.5713
31.2116
30.8174
30.4113
29.9499
29.4998
28.9458
28.4849
29.7637
30.1767
30.7005
31.1269
31.577
31.983
32.3855
32.7619
33.1241
33.4637
33.782
34.0733
34.3343
34.5596
34.7439
34.8825
34.9722
35.0141
35.0176
35.0092
35.0286
35.07
35.0924
35.0726
35.0025
34.8819
34.7139
34.5031
34.2543
33.9731
33.6624
33.3278
32.9677
32.5906
32.1843
31.7711
31.3108
30.8705
30.3305
29.8966
31.0176
31.4041
31.9167
32.3378
32.7904
33.2053
33.6205
34.0138
34.3954
34.7567
35.0977
35.4126
35.6971
35.9449
36.1505
36.3083
36.4146
36.4698
36.4829
36.4798
36.4994
36.5358
36.5491
36.5164
36.4303
36.2911
36.1023
35.8692
35.5974
35.2928
34.9595
34.6032
34.2237
33.8295
33.4102
32.9877
32.5242
32.0882
31.5584
31.1498
32.1439
32.5071
33.0126
33.4325
33.8891
34.3132
34.7403
35.1489
35.5475
35.9276
36.2882
36.623
36.927
37.1936
37.4165
37.5896
37.7088
37.7739
37.7935
37.7934
37.8133
37.8472
37.8543
37.8121
37.7137
37.5594
37.3536
37.1021
36.811
36.4869
36.1342
35.7593
35.3627
34.9531
34.5216
34.0895
33.6214
33.186
32.6622
32.2758
33.1643
33.5058
34.0064
34.4255
34.8862
35.3183
35.7558
36.1775
36.5905
36.9862
37.3628
37.7138
38.0336
38.3153
38.5517
38.7368
38.8659
38.9383
38.9625
38.9642
38.9844
39.017
39.0198
38.9706
38.8627
38.6968
38.4776
38.2115
37.9049
37.5646
37.1961
36.8056
36.3949
35.972
35.53
35.0895
34.6171
34.1819
33.6622
33.2964
34.09
34.4087
34.9035
35.3212
35.7847
36.2237
36.6699
37.1024
37.5273
37.9358
38.3254
38.6896
39.022
39.3154
39.5626
39.757
39.8939
39.9724
40.0007
40.0046
40.0249
40.0558
40.0549
40
39.8844
39.7095
39.4799
39.2022
38.8832
38.5301
38.1487
37.7455
37.3229
36.8893
36.4385
35.991
35.5154
35.0813
34.5668
34.2228
34.9229
35.216
35.7028
36.1182
36.5836
37.0283
37.4819
37.9236
38.3583
38.7774
39.1777
39.5523
39.8947
40.1974
40.4532
40.6553
40.7989
40.8834
40.9168
40.9244
40.9448
40.9723
40.9666
40.906
40.784
40.6016
40.3638
40.0769
39.7482
39.3848
38.9929
38.5793
38.147
37.7042
37.2461
36.793
36.3153
35.8832
35.376
35.0565
35.6617
35.9249
36.401
36.8129
37.2795
37.7293
38.1895
38.6395
39.0828
39.5109
39.92
40.3031
40.6536
40.9638
41.2265
41.435
41.5849
41.6758
41.7161
41.7291
41.7493
41.7714
41.7594
41.6928
41.5648
41.3763
41.1317
40.8375
40.5009
40.1291
39.7286
39.3062
38.8654
38.4146
37.95
37.4918
37.0129
36.584
36.0866
35.7956
36.3064
36.5326
36.994
37.4011
37.8681
38.323
38.7896
39.2475
39.6988
40.135
40.5519
40.9422
41.2994
41.6158
41.8844
42.0989
42.255
42.3532
42.4017
42.4215
42.4412
42.4565
42.4369
42.3636
42.2297
42.0355
41.7852
41.485
41.1417
40.7628
40.3547
39.9244
39.4756
39.0171
38.5461
38.0832
37.6036
37.1794
36.6957
36.4399
36.8592
37.0364
37.4771
37.8771
38.3441
38.804
39.2772
39.7432
40.2026
40.6467
41.0708
41.4678
41.8309
42.1529
42.4267
42.6468
42.8094
42.9152
42.9725
42.9994
43.0187
43.0268
42.9989
42.9184
42.7785
42.5789
42.3235
42.0178
41.6686
41.2832
40.8679
40.4297
39.9731
39.5067
39.0292
38.5614
38.0818
37.6644
37.1992
36.9902
37.3237
37.4329
37.8445
38.234
38.6994
39.1643
39.6448
40.1193
40.5872
41.0393
41.4707
41.8742
42.2429
42.5701
42.8491
43.0745
43.2434
43.3571
43.4229
43.4562
43.4751
43.4766
43.4406
43.3529
43.207
43.0021
42.7416
42.4307
42.0759
41.684
41.2614
40.8152
40.3501
39.8753
39.3909
38.9182
38.4399
38.0324
37.5948
37.4513
37.7063
37.7192
38.0863
38.4616
38.9233
39.3932
39.8812
40.3649
40.8419
41.3026
41.7416
42.1516
42.5261
42.8584
43.1424
43.3732
43.5483
43.6692
43.7427
43.7817
43.8002
43.7961
43.7527
43.658
43.506
43.2959
43.0304
42.7143
42.3534
41.9548
41.5244
41.0695
40.5954
40.1114
39.6196
39.142
38.6672
38.2729
37.8787
37.8301
38.0115
37.8946
38.1949
38.5472
39.0029
39.4769
39.9724
40.4659
40.9527
41.4226
41.8697
42.2868
42.6673
43.005
43.294
43.5301
43.7111
43.8386
43.9188
43.9622
43.9806
43.9716
43.9217
43.8207
43.6629
43.4475
43.1766
42.8548
42.4876
42.0813
41.6425
41.1782
40.6941
40.2002
39.7006
39.2187
38.7491
38.3788
38.0525
38.1366
38.2317
37.9555
38.1645
38.4801
38.925
39.4018
39.9045
40.4078
40.9045
41.3841
41.8398
42.2644
42.6514
42.9947
43.2889
43.5302
43.7166
43.8499
43.9357
43.9827
44.0009
43.9882
43.9327
43.8259
43.6624
43.4415
43.1649
42.8368
42.4625
42.0481
41.6
41.1254
40.6307
40.1263
39.6188
39.1331
38.675
38.3441
38.1137
38.3664
38.3302
37.8864
37.9886
38.2539
38.68
39.1583
39.6665
40.179
40.6854
41.1745
41.6389
42.0711
42.4647
42.8137
43.1132
43.3593
43.5507
43.6889
43.779
43.8289
43.847
43.8313
43.7712
43.6591
43.4903
43.2638
42.9813
42.6466
42.2647
41.8416
41.3838
40.8984
40.3931
39.8783
39.364
38.8765
38.4387
38.1625
38.0481
38.4851
38.2545
37.6637
37.6616
37.87
38.2694
38.7439
39.2578
39.7778
40.2924
40.79
41.2621
41.7013
42.1008
42.4551
42.759
43.0094
43.2047
43.3467
43.4402
43.4921
43.5102
43.4921
43.4285
43.3121
43.1386
42.907
42.6188
42.2775
41.8883
41.4567
40.9894
40.494
39.978
39.4534
38.9305
38.4456
38.0355
37.8206
37.8198
38.4188
37.9779
37.2784
37.1911
37.3451
37.7151
38.1804
38.6958
39.2197
39.7399
40.243
40.7206
41.1646
41.5686
41.9265
42.2336
42.4866
42.6844
42.8286
42.9237
42.9769
42.995
42.9756
42.9098
42.7907
42.6138
42.3782
42.0855
41.7391
41.3438
40.9054
40.4306
39.9268
39.4021
38.8686
38.3405
37.8626
37.4804
37.3195
37.4065
38.1194
37.5002
36.7394
36.5987
36.712
37.0554
37.5073
38.0193
38.5453
39.0671
39.5724
40.0518
40.4975
40.9026
41.2613
41.5687
41.8218
42.0193
42.1631
42.258
42.3113
42.3296
42.3104
42.2445
42.1247
41.9468
41.7097
41.4149
41.0659
40.6673
40.2251
39.7459
39.237
38.7071
38.1668
37.638
37.1691
36.8107
36.6899
36.8336
37.6188
36.9319
36.1336
35.9614
36.0459
36.3672
36.8042
37.3078
37.8297
38.348
38.8503
39.3267
39.7694
40.1712
40.5265
40.8303
41.0796
41.2732
41.4132
41.5051
41.557
41.576
41.559
41.496
41.3791
41.2037
40.9688
40.676
40.3286
39.9315
39.4904
39.012
38.5035
37.9739
37.4333
36.9075
36.4468
36.1005
35.9943
36.1456
36.9336
36.3636
35.5638
35.3872
35.4584
35.7648
36.1866
36.6767
37.1874
37.6954
38.1882
38.6554
39.089
39.482
39.8284
40.1234
40.3638
40.5487
40.6802
40.765
40.8133
40.8336
40.8215
40.7651
40.6551
40.4866
40.2582
39.9718
39.6306
39.2396
38.8045
38.3318
37.8289
37.3043
36.7703
36.253
35.8025
35.4659
35.3671
35.5179
36.3042
35.8778
35.1298
34.9815
35.0604
35.3622
35.7716
36.246
36.7397
37.232
37.7093
38.1616
38.5806
38.9591
39.2915
39.5725
39.7991
39.9702
40.0882
40.1615
40.2037
40.2265
40.2236
40.1788
40.0807
39.924
39.7076
39.4333
39.1046
38.7264
38.3045
37.8456
37.3571
36.8483
36.3306
35.8296
35.394
35.0677
34.973
35.1142
35.883
35.6754
35.0072
34.9041
34.9982
35.2966
35.69
36.1416
36.6095
37.0779
37.532
37.9621
38.3598
38.7178
39.0302
39.2922
39.5001
39.6525
39.752
39.808
39.84
39.866
39.8759
39.8463
39.7636
39.6221
39.4211
39.1629
38.8511
38.4908
38.0878
37.649
37.1822
36.6971
36.2069
35.733
35.322
35.0151
34.9321
35.072
35.8289
36.0238
35.3529
35.2431
35.3171
35.5889
35.9497
36.367
36.8038
37.2434
37.6709
38.0759
38.4497
38.7851
39.0763
39.3182
39.5069
39.6406
39.7213
39.7587
39.7793
39.8124
39.8401
39.8294
39.7653
39.643
39.4625
39.2263
38.9385
38.604
38.2289
37.82
37.3858
36.9358
36.4844
36.0464
35.6631
35.3674
35.2729
35.3599
36.0169
36.4163
35.8177
35.7512
35.8415
36.112
36.4577
36.853
37.2656
37.6801
38.0822
38.462
38.8115
39.1236
39.3927
39.6139
39.7834
39.8989
39.9614
39.9804
39.9866
40.0241
40.0661
40.0705
40.0218
39.9159
39.7536
39.5375
39.2718
38.9615
38.6128
38.2324
37.8288
37.4122
36.9971
36.5992
36.2531
35.9842
35.9038
35.9767
36.5917
37.1083
36.4914
36.407
36.4712
36.7134
37.0289
37.3981
37.7874
38.1804
38.5624
38.9235
39.2553
39.5512
39.8053
40.013
40.1704
40.2751
40.3281
40.338
40.3381
40.3823
40.4363
40.4532
40.418
40.327
40.1812
39.9834
39.7375
39.4485
39.1218
38.7643
38.3838
37.9896
37.5957
37.2163
36.8834
36.6167
36.5227
36.5631
37.1281
37.3883
36.8468
36.8103
36.8998
37.1524
37.4678
37.8309
38.2101
38.591
38.9601
39.308
39.6268
39.9103
40.153
40.3502
40.4983
40.595
40.6409
40.6444
40.639
40.6829
40.7405
40.7627
40.7338
40.6503
40.513
40.3246
40.0889
39.8105
39.495
39.1485
38.7788
38.3948
38.0097
37.6367
37.3068
37.036
36.9289
36.9455
37.4762
43.4887
51.3078
57.536
63.6624
68.9515
73.2417
76.6795
79.4585
81.7336
83.6395
85.2955
86.778
88.1247
89.3695
90.5433
91.6767
92.8004
93.9427
95.1267
96.37
97.682
99.065
100.516
102.028
103.591
105.192
106.814
108.435
110.017
111.488
112.702
113.417
42.7718
50.3075
56.337
62.3236
67.5399
71.7958
75.2159
77.9867
80.2614
82.173
83.8371
85.3235
86.662
87.8931
89.0493
90.1617
91.2619
92.379
93.5374
94.7534
96.0366
97.3895
98.8091
100.288
101.816
103.38
104.966
106.548
108.092
109.527
110.711
111.407
41.9881
49.2743
55.1157
60.9619
66.1039
70.3273
73.7352
76.5066
78.7923
80.7209
82.3997
83.8915
85.2261
86.4463
87.5859
88.6784
89.7567
90.8505
91.983
93.1721
94.4273
95.7506
97.1389
98.585
100.078
101.608
103.156
104.7
106.206
107.605
108.759
109.436
41.1703
48.2226
53.8775
59.5809
64.6498
68.8466
72.25
75.03
77.3343
79.2859
80.9827
82.483
83.8197
85.0312
86.1581
87.2341
88.2924
89.3634
90.4728
91.6367
92.8646
94.1591
95.517
96.931
98.3908
99.8839
101.395
102.902
104.371
105.734
106.859
107.517
40.3133
47.1416
52.6068
58.1621
63.157
67.3323
70.7409
73.5416
75.8773
77.8624
79.5852
81.1
82.442
83.6512
84.7682
85.8289
86.8694
87.9212
89.0075
90.147
91.3493
92.6164
93.9449
95.3277
96.7548
98.2139
99.6893
101.16
102.592
103.92
105.015
105.655
39.4354
46.0431
51.3132
56.7153
61.6385
65.8028
69.2291
72.0599
74.4314
76.4509
78.1993
79.7308
81.0849
82.2981
83.4098
84.4609
85.487
86.5199
87.587
88.705
89.8828
91.1235
92.4238
93.7764
95.171
96.5955
98.0361
99.4703
100.866
102.16
103.227
103.848
38.5142
44.9055
49.9726
55.2117
60.0598
64.2177
67.6718
70.5456
72.9668
75.0332
76.8196
78.3781
79.7479
80.9711
82.0849
83.1291
84.1434
85.1628
86.211
87.3075
88.4629
89.6788
90.952
92.2756
93.6397
95.0321
96.4378
97.8372
99.1976
100.458
101.496
102.099
37.5693
43.7413
48.5948
53.6605
58.4329
62.5978
66.0991
69.0296
71.5045
73.6178
75.4405
77.0265
78.4217
79.6616
80.784
81.8283
82.8373
83.8437
84.878
85.9577
87.0919
88.2842
89.5315
90.8265
92.1592
93.5184
94.8906
96.2544
97.5795
98.8076
99.818
100.402
36.5552
42.511
47.1398
52.0171
56.7049
60.8774
64.4343
67.4372
69.9881
72.1697
74.0491
75.6805
77.1042
78.366
79.5032
80.5564
81.5629
82.565
83.5862
84.6482
85.7635
86.9339
88.1565
89.4244
90.7283
92.0571
93.3948
94.7248
96.0156
97.2113
98.1935
98.7601
35.5005
41.2301
45.6186
50.2857
54.8786
59.0723
62.7159
65.8176
68.4517
70.7015
72.6358
74.3101
75.7786
77.0746
78.2356
79.2998
80.3148
81.314
82.3286
83.3805
84.4789
85.6287
86.8273
88.0681
89.3411
90.6356
91.9414
93.2348
94.4907
95.6537
96.6096
97.1565
34.3027
39.8197
43.9605
48.4005
52.8819
57.0892
60.8214
64.0401
66.7994
69.1606
71.1861
72.9363
74.4507
75.7826
76.9707
78.0596
79.0835
80.0894
81.0996
82.1388
83.2227
84.3536
85.5294
86.7439
87.9893
89.2546
90.5243
91.784
93.0066
94.1371
95.0649
95.5934
33.0192
38.322
42.1904
46.3619
50.6974
54.9232
58.7958
62.1878
65.0862
67.5572
69.6713
71.487
73.0754
74.4675
75.7037
76.8174
77.8645
78.8763
79.8886
80.9266
81.9989
83.1124
84.2662
85.4547
86.6683
87.8976
89.1359
90.3594
91.5453
92.6432
93.5449
94.0526
31.4793
36.5848
40.1696
44.0498
48.2135
52.434
56.4242
60.0032
63.1295
65.8029
68.0763
70.0275
71.6919
73.141
74.4169
75.5757
76.6446
77.6775
78.6953
79.7249
80.7872
81.8856
83.0189
84.1821
85.3695
86.5714
87.7722
88.9603
90.1136
91.179
92.0521
92.5408
29.7908
34.7057
37.9816
41.4981
45.3997
49.5859
53.789
57.6794
61.0425
63.9075
66.3417
68.3971
70.1855
71.735
73.0987
74.3031
75.4174
76.4675
77.498
78.5385
79.5962
80.6809
81.7943
82.9325
84.0865
85.2485
86.4172
87.5696
88.6824
89.7146
90.5607
91.0272
27.5689
32.3222
35.2733
38.3945
42.0068
46.1129
50.3988
54.5541
58.3911
61.6776
64.4171
66.7398
68.6646
70.3125
71.7347
73.0118
74.1625
75.254
76.3039
77.3409
78.3936
79.4675
80.5627
81.6761
82.8046
83.9411
85.0718
86.1832
87.2655
88.2638
89.0804
89.5263
25.0248
29.6884
32.338
34.9603
38.0284
41.875
46.5293
51.3297
55.5202
59.147
62.2214
64.7263
66.8821
68.7036
70.2812
71.6377
72.8707
73.995
75.0715
76.1364
77.1941
78.2588
79.336
80.4249
81.517
82.6078
83.7014
84.7798
85.8128
86.7752
87.564
87.9836
21.0907
25.7803
28.0683
30.1725
32.8539
36.535
40.8093
45.658
51.1241
55.79
59.5217
62.6292
65.0544
67.069
68.7466
70.2244
71.5096
72.7055
73.8208
74.8876
75.9463
77.0053
78.0665
79.1302
80.1964
81.2618
82.3191
83.3455
84.3515
85.2782
86.0326
86.4312
16.4607
21.5038
23.9313
25.3206
26.353
28.6598
34.1464
41.2333
46.4417
51.7038
56.2927
59.7591
62.7001
65.0415
67.0047
68.6211
70.0617
71.3155
72.4792
73.5986
74.6756
75.7305
76.7755
77.8139
78.8384
79.8497
80.858
81.8541
82.7962
83.6796
84.408
84.7696
7.25309
11.8617
12.7181
13.4813
12.7051
11.7952
16.5376
23.0244
37.2891
45.4867
51.577
56.6507
60.137
62.9383
65.1181
66.9679
68.4763
69.8498
71.0813
72.2098
73.2959
74.3519
75.3821
76.3937
77.3892
78.3727
79.3474
80.2772
81.1939
82.0426
82.7231
83.0703
9.18833
8.06796
13.1848
17.2501
17.8531
17.8166
19.7368
20.5995
20.5889
35.9189
45.6798
51.5234
56.5783
60.0218
62.762
64.8597
66.6939
68.1825
69.5033
70.7273
71.8517
72.9097
73.9252
74.908
75.8521
76.7671
77.6754
78.5676
79.4009
80.1885
80.8499
81.1291
12.2175
16.7467
18.0209
18.5478
19.2617
16.9382
19.2294
21.0383
22.4955
22.0568
34.8604
46.1562
51.8684
56.7775
60.1067
62.7523
64.6654
66.3574
67.7965
69.0381
70.1851
71.2551
72.2556
73.209
74.1152
74.9963
75.8675
76.687
77.4862
78.2407
78.8304
79.1173
19.2399
23.6497
25.4704
26.1777
25.8276
24.7584
23.7147
20.2044
23.7532
19.1491
13.6228
32.7596
46.1388
51.7462
56.364
59.4735
62.1471
64.1039
65.7272
67.1571
68.3802
69.4604
70.4469
71.362
72.1977
72.9804
73.7643
74.5013
75.1906
75.8603
76.4334
76.5848
21.7836
26.7673
29.4746
31.473
32.6548
32.844
31.7111
29.3437
24.8137
21.9333
10.9564
13.996
31.2738
45.7171
51.8341
56.4626
59.203
61.5458
63.3905
64.8402
66.1104
67.2235
68.1911
69.0726
69.8482
70.5848
71.3107
72.0074
72.6324
73.2441
73.7242
73.9192
22.6629
27.7542
30.6839
33.0485
34.8139
35.9635
36.4472
36.1235
34.5548
30.3798
27.3499
18.6201
17.1322
30.6427
44.6068
50.2283
54.9847
57.9641
60.2326
62.1234
63.5602
64.6989
65.649
66.4682
67.1243
67.6914
68.3032
68.7569
69.2109
69.7496
70.1706
70.1106
22.1509
27.391
30.49
33.0905
35.1568
36.6866
37.6927
38.1833
38.0758
36.9279
33.1698
27.1108
25.7231
26.9377
35.1134
45.6552
49.9699
53.8845
56.6169
58.4274
59.9521
61.16
62.0744
62.8542
63.3976
63.8847
64.3934
64.9765
65.3194
65.6517
66.0109
66.002
20.6883
26.0629
29.2509
31.98
34.2289
36.0035
37.3323
38.2563
38.7966
38.8232
37.6383
33.2096
32.3706
23.7522
20.4497
29.7928
41.5293
46.8831
50.6816
53.8916
55.8284
57.1013
57.9649
58.6151
58.8604
59.0016
59.3313
59.1209
59.0256
59.5609
59.5814
59.2323
18.7095
24.1632
27.3651
30.1309
32.4598
34.3741
35.9084
37.1228
38.0921
38.8438
39.1876
38.3134
34.6048
29.2379
32.7487
32.9153
31.8762
39.7561
44.9768
46.8117
49.0216
50.3731
51.1416
51.5925
51.7259
51.4641
51.962
52.513
52.6426
52.3706
52.6373
51.7927
16.4816
21.894
25.0045
27.7007
30.0099
31.9772
33.6516
35.0944
36.391
37.6132
38.7336
39.4672
38.9566
35.8243
28.7959
32.8992
35.263
25.3773
28.7841
38.8308
41.9047
43.4384
44.2076
44.3133
42.7685
42.2139
41.0356
39.979
37.0738
37.9588
37.9623
42.0356
14.2595
19.4999
22.4223
24.9526
27.1499
29.0803
30.8077
32.4005
33.937
35.4951
37.0862
38.5786
39.5839
39.2465
35.4356
29.9001
27.4795
27.9875
15.3893
15.048
25.0229
27.1536
26.7076
23.6675
23.5484
14.7026
29.5906
20.8716
24.3894
39.7014
27.0262
47.1075
12.3209
17.2792
19.9469
22.2471
24.2693
26.0963
27.8014
29.4546
31.1252
32.8802
34.7535
36.6849
38.4568
39.6039
39.2509
35.072
26.7214
22.7322
14.6725
15.7926
29.4792
33.3735
30.9187
19.1405
30.7023
9.32398
37.8707
26.3287
29.8513
38.54
35.568
41.075
10.8286
15.4432
17.8461
19.9053
21.737
23.4345
25.0732
26.7161
28.4176
30.228
32.189
34.3021
36.466
38.3889
39.5437
38.9076
36.6811
31.5755
23.2593
23.432
32.9708
38.7984
35.545
28.5658
33.8765
31.1352
38.9759
35.4619
31.552
29.4373
41.6416
29.0662
9.73302
14.1103
16.2917
18.152
19.8277
21.4139
22.978
24.5679
26.2205
27.9716
29.8621
31.9303
34.1728
36.4599
38.4496
39.5427
39.7552
37.9286
35.2971
31.3259
26.9352
34.1494
28.304
31.5474
34.496
37.3338
35.8653
37.8958
40.0886
39.046
37.1159
38.9737
9.1535
13.3483
15.3765
17.1106
18.6944
20.2133
21.7175
23.2359
24.7902
26.4072
28.1262
29.999
32.0723
34.3411
36.6604
38.6505
39.9946
40.1528
39.7412
38.5171
36.294
36.6243
36.1841
39.2145
41.6071
42.3414
41.1979
41.8929
43.8579
43.2596
41.5569
42.6898
8.99131
13.1039
15.0668
16.7576
18.3178
19.8167
21.2849
22.735
24.1787
25.6385
27.1507
28.7652
30.5418
32.5341
34.738
36.9954
38.9998
40.2406
40.9066
40.8558
40.2999
40.8031
40.6541
41.7513
43.0751
43.068
42.323
42.4761
44.0084
43.5291
42.9511
43.1554
9.17355
13.28
15.2487
16.9631
18.553
20.0695
21.5268
22.9271
24.2778
25.5984
26.9208
28.2879
29.753
31.3796
33.2239
35.2776
37.3995
39.2269
40.5988
41.3065
41.4643
41.9664
41.8239
42.1991
42.9068
42.6933
41.9011
41.7186
42.8657
42.5502
42.5589
42.3882