/*--------------------------------*- C++ -*----------------------------------*\
  =========                 |
  \\      /  F ield         | OpenFOAM: The Open Source CFD Toolbox
   \\    /   O peration     | Website:  https://openfoam.org
    \\  /    A nd           | Version:  6
     \\/     M anipulation  |
\*---------------------------------------------------------------------------*/
FoamFile
{
    version     2.0;
    format      ascii;
    class       volScalarField;
    location    "1";
    object      k;
}
// * * * * * * * * * * * * * * * * * * * * * * * * * * * * * * * * * * * * * //

dimensions      [0 2 -2 0 0 0 0];

internalField   nonuniform List<scalar> 
63552
(
0.00322355
0.00411006
0.00543224
0.00336396
0.00368599
0.0038732
0.00359706
0.00536295
0.00440864
0.00402763
0.00723909
0.00753304
0.00481705
0.00494946
0.00465714
0.000351665
0.00374775
0.00492957
0.00367787
0.00390596
0.00419555
0.00394743
0.00373273
0.00456263
0.00384961
0.00686475
0.00367075
0.0057632
0.00485653
0.00479317
0.00334839
0.00413479
0.00424079
0.00498149
0.00348186
0.00525121
0.00491222
0.00402238
0.00421545
0.0035164
0.00502642
0.00915425
0.00495764
0.00544835
0.003097
0.00351897
0.00353425
0.00372171
0.00430803
0.00376049
0.00486853
0.00408655
0.00632274
0.00424797
0.00571649
0.00340609
0.00557627
0.00651245
0.00254789
0.000504896
0.00480906
0.00380152
0.0044568
0.00380719
0.00479041
0.00544148
0.00469554
0.00519468
0.00480457
0.00675314
0.0065385
0.000275742
0.00067946
0.000810539
0.00441135
0.00347051
0.00570651
0.00519444
0.00545668
0.00602005
0.00518705
0.00436336
0.0070621
0.00377499
0.000416502
0.00174954
0.00166244
0.000578364
0.00349148
0.00477157
0.00534606
0.0054057
0.00521056
0.00648441
0.00475107
0.00816049
0.00598327
6.83666e-05
0.00160499
0.0047091
0.00253587
0.00405648
0.00407345
0.0047267
0.00524336
0.0059366
0.00511446
0.00641884
0.00348055
0.000343231
8.20998e-05
0.000111902
0.00406081
0.00259235
0.00405739
0.00370537
0.00432196
0.00509266
0.00554296
0.00382463
0.00477972
7.2048e-05
0.000364818
0.000565096
0.000400103
0.000716745
0.00438013
0.00392511
0.00403682
0.00489915
0.00378091
0.00435395
0.00328339
0.000161487
8.49565e-05
0.000234087
0.000873843
0.00150994
0.000221987
0.00478549
0.00507786
0.00369665
0.00437984
0.00558463
0.00252175
0.000172406
0.000166041
0.000102711
0.000132313
0.00204777
0.000592757
0.00410101
0.00428392
0.0040921
0.00483864
0.000495628
0.000114422
0.000185212
0.000289098
0.000515695
6.19924e-05
0.00267004
0.0024397
0.0038177
0.00554314
0.0042089
0.00289902
0.000113081
0.000143349
0.000198409
0.000286355
0.000707815
0.000198288
0.00237485
0.00355266
0.00420434
0.00380105
0.000344304
0.000101316
0.000134292
0.000182513
0.000282494
0.000391961
0.000982198
0.00107273
0.0029018
0.00375559
0.00452531
0.000772664
9.51955e-05
0.000123228
0.000164375
0.000245098
0.000379583
0.000598394
0.00133095
0.00244901
0.00361133
0.00267557
0.00048258
9.05946e-05
0.000115976
0.000154025
0.000225101
0.000335913
0.000561393
0.000968442
0.00199676
0.00306081
0.00272175
0.000395777
8.7164e-05
0.000111326
0.000145779
0.000212356
0.000313108
0.000513858
0.000911482
0.00178142
0.00267854
0.00228861
0.000410265
0.000108176
0.000141283
0.000204186
0.000298721
0.000485538
0.000847675
0.00165642
0.00250007
0.0021626
0.000376764
0.000106744
0.000138984
0.000200402
0.000291964
0.00047288
0.000821185
0.00159621
0.00240793
0.00208391
0.000367428
0.00104358
0.00134468
0.00147974
0.00141005
0.00148347
0.00150527
0.00157281
0.00176046
0.00203908
0.00245546
0.00310027
0.00452197
0.00616464
0.00632104
0.00288132
0.000906784
0.00131792
0.00138538
0.00141095
0.00147565
0.00152607
0.00169341
0.0017906
0.00214153
0.0025473
0.00325149
0.00463936
0.00638048
0.00631371
0.0027228
0.00124394
0.00124285
0.00117926
0.00139043
0.00147933
0.00166121
0.00180554
0.00204289
0.00255951
0.00310906
0.00468834
0.00646213
0.00638471
0.00269244
0.000904881
0.00107841
0.00101968
0.00129246
0.00143737
0.0016017
0.00188437
0.00216132
0.00268394
0.00332755
0.00492374
0.00638388
0.00640147
0.00250092
0.00102616
0.000835142
0.00117466
0.00140396
0.00160973
0.00185231
0.0021173
0.00262971
0.00329221
0.00485935
0.0065201
0.00649789
0.00247616
0.000724966
0.000977076
0.00090251
0.0012781
0.00153715
0.00190176
0.00222533
0.00276781
0.00347301
0.00503861
0.00657265
0.00641722
0.00226859
0.00094731
0.000972698
0.00107644
0.00113074
0.00151362
0.00181371
0.00218997
0.00276402
0.00340543
0.00506164
0.00666642
0.00652577
0.00218329
0.00082499
0.000983828
0.00145702
0.00139447
0.001748
0.00220695
0.00279052
0.00357706
0.00516889
0.00673832
0.00642732
0.00204016
0.000974673
0.000943511
0.000844799
0.00152283
0.00158106
0.00216871
0.0027766
0.00358773
0.00514205
0.00677248
0.00639501
0.0019807
0.00087441
0.000995992
0.00124411
0.0010905
0.00156437
0.00214305
0.00285578
0.00363219
0.00526056
0.00678588
0.0064236
0.00185542
0.000954912
0.000982898
0.00105698
0.00139587
0.00163687
0.00183929
0.00277777
0.00366112
0.00526016
0.00686802
0.00646767
0.00178206
0.00101544
0.00116219
0.00124903
0.00155447
0.0020997
0.00249216
0.00363902
0.00536371
0.00690649
0.00644837
0.00174651
0.00101754
0.00114633
0.00133653
0.00162739
0.0018968
0.0027631
0.00353544
0.00541247
0.00703126
0.00644054
0.00167026
0.00103669
0.00117047
0.00133092
0.00162624
0.00202717
0.00252164
0.00360338
0.00537549
0.00698467
0.00642373
0.00168667
0.00104555
0.00118133
0.00135099
0.00164077
0.00200055
0.0026589
0.00349975
0.00535627
0.00700167
0.00644007
0.00159727
0.00105597
0.00119352
0.0013586
0.00166138
0.00202334
0.00263728
0.00358747
0.0053633
0.00697585
0.00631008
0.00160202
0.00106521
0.00120096
0.00137404
0.00166733
0.00203563
0.00265218
0.00356767
0.00534466
0.00695484
0.00633492
0.0015708
0.00107004
0.00120962
0.00137815
0.00167828
0.00204329
0.00266489
0.00358666
0.00534967
0.00693607
0.00630303
0.0015546
0.00121342
0.00138444
0.00168354
0.00204961
0.00267088
0.00359424
0.00535156
0.00693076
0.00629755
0.00153986
0.00121591
0.00138664
0.00168645
0.00205223
0.00267464
0.00359856
0.005352
0.00692569
0.00629108
0.00153232
0.00107319
0.00116953
0.00121193
0.00125562
0.00131484
0.00144148
0.0016004
0.0019204
0.00230524
0.0029994
0.00380504
0.00583255
0.00821913
0.00832371
0.00346444
0.00109056
0.00118169
0.001214
0.00126541
0.00134188
0.00150556
0.00170514
0.00204585
0.00245881
0.00317357
0.00405001
0.00613279
0.00840898
0.00832219
0.0033459
0.00115075
0.00118414
0.00121939
0.00132544
0.00149676
0.00168988
0.00204143
0.00243998
0.00315886
0.00400222
0.00609197
0.00843667
0.00842103
0.00335219
0.0011065
0.00117472
0.00123336
0.00134735
0.00154332
0.00177157
0.00215729
0.00258607
0.00331231
0.00422077
0.00634581
0.00856999
0.00841299
0.00323862
0.00118933
0.00124001
0.00135044
0.00155148
0.0017757
0.00215168
0.00257355
0.0033068
0.00420024
0.00633485
0.00862863
0.00848294
0.00323053
0.00116753
0.00129527
0.00137926
0.00158847
0.00183786
0.00224288
0.00270011
0.00344949
0.00438779
0.00653954
0.00873312
0.00848373
0.00312594
0.00124051
0.00131004
0.00141893
0.00161236
0.0018507
0.00223718
0.00269494
0.0034518
0.00438767
0.00656486
0.00879715
0.00854067
0.00311275
0.00132385
0.00144033
0.00167374
0.00190436
0.00230077
0.00279253
0.00355836
0.00454499
0.00671588
0.00887876
0.00853997
0.00302014
0.00137985
0.0014714
0.00163448
0.00192267
0.00229471
0.00278729
0.0035669
0.00456911
0.00675578
0.00893472
0.00856878
0.00299962
0.0013862
0.00150905
0.00174731
0.00193158
0.00236459
0.0028503
0.00364868
0.0046735
0.00687659
0.009
0.00858055
0.00292406
0.00142865
0.00153687
0.00173066
0.00200686
0.00239502
0.00283736
0.00364185
0.00470281
0.00693095
0.00904978
0.00859977
0.00289667
0.0015741
0.00179124
0.00201907
0.00242725
0.00293479
0.00367345
0.00477041
0.0070173
0.00910202
0.00860564
0.00283276
0.00159636
0.00181141
0.00205998
0.0024669
0.00291648
0.00374044
0.00479326
0.00707191
0.00915455
0.00861378
0.00279981
0.00162433
0.00184094
0.0020911
0.00250169
0.00298708
0.00373449
0.00485358
0.00710794
0.00918232
0.008614
0.00274841
0.00164539
0.00186583
0.00211679
0.00252155
0.00300017
0.00378811
0.00486528
0.00713399
0.00920541
0.00861541
0.00272787
0.00166397
0.00188619
0.00213433
0.00255305
0.00302863
0.00381022
0.00491991
0.00717494
0.00921407
0.00859713
0.00268764
0.00168058
0.00190053
0.00215798
0.00256729
0.00304993
0.00382934
0.00493866
0.00719346
0.00922634
0.008609
0.0026649
0.00169038
0.00191495
0.00216752
0.00258319
0.00306362
0.00384796
0.00496185
0.00721493
0.00923326
0.00860399
0.00264492
0.0019222
0.00217753
0.00259244
0.00307412
0.00385803
0.00497635
0.00722781
0.00923877
0.0086045
0.00263133
0.00192644
0.00218162
0.00259711
0.00307878
0.00386349
0.00498344
0.00723385
0.00923986
0.00860266
0.00262267
0.00116743
0.00122544
0.00126062
0.00134471
0.00141441
0.00159751
0.00178021
0.00218685
0.00260423
0.00342066
0.00426075
0.0065522
0.00938696
0.00985355
0.00447652
0.00119465
0.00125233
0.00129233
0.00138168
0.00146886
0.00167559
0.00189242
0.00232456
0.00277184
0.00360482
0.00451454
0.0068748
0.00958131
0.00984845
0.00436309
0.00125377
0.00129348
0.0013831
0.00147355
0.00167984
0.0018868
0.00231506
0.00275322
0.00358362
0.00446624
0.00682156
0.00960055
0.00994709
0.00437794
0.00127592
0.00132389
0.00142545
0.00152645
0.00174814
0.00198538
0.00243613
0.00290297
0.00374044
0.00467719
0.00707157
0.00974571
0.0099448
0.00426786
0.00134385
0.00144703
0.00154576
0.00176622
0.00199223
0.00243491
0.00289294
0.00373461
0.00466186
0.00707097
0.00979527
0.0100111
0.00426276
0.00136909
0.00149047
0.00159615
0.0018251
0.00207481
0.00253571
0.00302209
0.00386799
0.00483537
0.00726271
0.00990338
0.0100219
0.00416076
0.00140529
0.00151372
0.00162151
0.00185261
0.00209255
0.00254262
0.00302106
0.00387245
0.00484316
0.00729621
0.00996264
0.0100643
0.00414161
0.00154696
0.00166488
0.00190225
0.00216083
0.00262338
0.00312596
0.0039794
0.00498279
0.00743878
0.010045
0.0100772
0.00405389
0.00158104
0.00169468
0.00192665
0.00218294
0.00263932
0.00313215
0.00399121
0.00500937
0.00749079
0.0101017
0.010103
0.00402434
0.00160771
0.00173323
0.00198484
0.00223633
0.00270955
0.00321372
0.00407252
0.00511373
0.0076002
0.0101669
0.010115
0.00395277
0.00163721
0.00176068
0.00200418
0.00227487
0.00273695
0.00322868
0.00408702
0.00514812
0.00766085
0.0102162
0.0101294
0.00391912
0.00179671
0.00204857
0.00231431
0.0027842
0.00329934
0.00414612
0.00522379
0.00774173
0.0102678
0.0101374
0.00386351
0.00181994
0.00207449
0.00234396
0.00281565
0.00331442
0.00417901
0.00526035
0.00779721
0.0103114
0.0101463
0.00382684
0.00184707
0.00210184
0.00237999
0.00285424
0.00336719
0.0042129
0.00531593
0.0078483
0.0103466
0.0101506
0.00378581
0.00186712
0.0021277
0.00240537
0.00287553
0.00338872
0.00424339
0.00534665
0.00788616
0.0103742
0.0101526
0.00375143
0.00188621
0.00214786
0.00242408
0.00290518
0.00341704
0.00427255
0.00538844
0.00792784
0.010394
0.0101518
0.00372145
0.00190218
0.00216219
0.00244738
0.00292161
0.00343869
0.00429084
0.00541463
0.00795468
0.010411
0.010156
0.00369632
0.00191206
0.00217657
0.00245805
0.00293685
0.00345318
0.00430839
0.00543642
0.00797808
0.0104232
0.0101561
0.00367695
0.00218399
0.00246805
0.00294651
0.00346409
0.00431843
0.00545113
0.00799287
0.0104307
0.0101567
0.00366261
0.00218823
0.00247239
0.00295123
0.00346902
0.00432363
0.00545812
0.00799979
0.0104331
0.0101558
0.00365417
0.0012382
0.00129762
0.00132729
0.00143283
0.00149613
0.00170133
0.00185902
0.00229346
0.00266796
0.00354113
0.00429429
0.00670876
0.00992873
0.0110285
0.00531533
0.00126743
0.00132983
0.00136784
0.00147877
0.00155785
0.00177824
0.00196675
0.0024221
0.00282941
0.00371289
0.00453217
0.00702957
0.0101352
0.0110227
0.00520042
0.00134077
0.00137669
0.00148918
0.00156561
0.00178488
0.00196253
0.00241136
0.00280627
0.0036876
0.00447756
0.00696695
0.0101435
0.0111081
0.00521834
0.001371
0.00141401
0.00153266
0.00162173
0.00185076
0.00205542
0.00252084
0.00294622
0.00382862
0.00466718
0.00719927
0.0102862
0.0111153
0.00510925
0.00143091
0.00155225
0.00163859
0.00186825
0.00206323
0.00252279
0.00293598
0.00382098
0.00464923
0.00720009
0.0103332
0.0111692
0.00510521
0.00146366
0.00159032
0.00168719
0.00192299
0.00214086
0.00261293
0.00305471
0.00393631
0.00480013
0.00737089
0.0104371
0.011186
0.00500784
0.00148657
0.00161276
0.00170823
0.00194752
0.00215821
0.00262507
0.00305531
0.00394051
0.00480575
0.00740679
0.0104953
0.011218
0.00498748
0.00164476
0.00175106
0.00199304
0.00222172
0.00269776
0.00315219
0.0040326
0.00492428
0.0075323
0.0105744
0.0112341
0.00490512
0.00167033
0.001775
0.00202121
0.0022454
0.00271864
0.00316242
0.00404483
0.00494727
0.00758595
0.0106312
0.0112528
0.00487361
0.00169821
0.00181128
0.00206149
0.00229726
0.00277721
0.00323884
0.00411566
0.00503863
0.00768268
0.0106948
0.0112636
0.00480653
0.00172128
0.00183351
0.00208712
0.00232568
0.00280391
0.00325692
0.00413332
0.00507034
0.0077421
0.0107453
0.0112738
0.00476983
0.00186542
0.00212131
0.00236634
0.00284705
0.00331541
0.00418614
0.00513828
0.00781618
0.0107962
0.0112806
0.00471674
0.00188611
0.0021456
0.00239065
0.00287399
0.00333724
0.00420944
0.00517232
0.00786993
0.0108389
0.0112865
0.00467966
0.00190999
0.00216901
0.00242354
0.00290821
0.00337922
0.00424589
0.00522074
0.00792262
0.0108762
0.0112893
0.00463882
0.00192684
0.00219165
0.00244627
0.00292859
0.00340163
0.00426688
0.00525135
0.00796284
0.0109061
0.01129
0.00460783
0.00194412
0.00220948
0.00246402
0.00295315
0.00342694
0.00429328
0.00528501
0.00800114
0.01093
0.0112895
0.00457662
0.00195781
0.00222218
0.00248388
0.00296919
0.00344654
0.00430899
0.00530988
0.00802941
0.0109485
0.0112895
0.004552
0.00196676
0.0022346
0.00249446
0.00298227
0.00345995
0.00432352
0.00532869
0.00805183
0.0109622
0.0112886
0.00453229
0.00224137
0.00250328
0.00299104
0.00346996
0.00433224
0.00534157
0.00806625
0.0109703
0.0112876
0.00451839
0.00224509
0.00250732
0.00299529
0.00347453
0.00433662
0.00534762
0.00807279
0.010973
0.011286
0.00450977
0.00128067
0.00134559
0.00136841
0.00148293
0.00152986
0.0017399
0.00184678
0.0022708
0.00253083
0.00340934
0.00395694
0.00641711
0.0100277
0.0119031
0.00602865
0.0013094
0.00137678
0.00140832
0.0015265
0.00158779
0.00180571
0.00193967
0.00237599
0.00267145
0.00355312
0.0041648
0.00672916
0.0102498
0.0119089
0.00591476
0.00138719
0.00141625
0.00153581
0.00159291
0.00181073
0.0019345
0.00236659
0.00264638
0.00352662
0.00410208
0.00665338
0.0102492
0.0119785
0.00593373
0.00141466
0.00145129
0.00157357
0.00164314
0.00186529
0.00201284
0.00245299
0.00276541
0.00363974
0.00426151
0.00686417
0.0103879
0.0120001
0.00582903
0.00146427
0.00158898
0.00165502
0.00187898
0.00201876
0.00245666
0.00275508
0.00363106
0.00423625
0.00686085
0.0104351
0.0120437
0.00582425
0.00149493
0.00162086
0.00169748
0.00192328
0.0020834
0.00252601
0.00285392
0.00372032
0.00435942
0.007009
0.0105341
0.012068
0.00573356
0.00151113
0.00163928
0.00171351
0.00194291
0.00209718
0.00253873
0.00285479
0.00372287
0.00435778
0.00704236
0.0105931
0.0120949
0.00571125
0.00166587
0.00175015
0.00197946
0.00214978
0.00259344
0.00293396
0.0037919
0.00445213
0.00714969
0.0106698
0.0121139
0.00563556
0.00168586
0.00176845
0.00200201
0.00216909
0.00261288
0.00294394
0.00380119
0.00446614
0.00720036
0.0107286
0.0121298
0.00560238
0.00170925
0.0017992
0.00203204
0.00221146
0.00265575
0.00300562
0.00385387
0.00453873
0.00728425
0.010792
0.0121419
0.00554054
0.00172749
0.00181623
0.00205388
0.00223337
0.00267878
0.0030222
0.00386769
0.00456189
0.00733931
0.0108447
0.0121514
0.00550327
0.00184227
0.00207964
0.00226718
0.00271115
0.00306809
0.00390649
0.00461589
0.00740528
0.0108963
0.0121584
0.00545343
0.00185896
0.00209916
0.00228656
0.00273302
0.00308819
0.00392326
0.00464212
0.00745526
0.0109404
0.0121633
0.00541719
0.00187858
0.00211765
0.00231301
0.00275877
0.00312073
0.00395064
0.0046805
0.00750457
0.0109795
0.0121657
0.0053781
0.00189185
0.00213505
0.0023312
0.00277587
0.00313988
0.00396559
0.0047049
0.00754317
0.0110115
0.0121659
0.00534692
0.00190598
0.00214928
0.00234657
0.00279391
0.00316056
0.00398468
0.00473112
0.00757804
0.0110377
0.0121647
0.00531821
0.00191682
0.00215957
0.00236155
0.00280722
0.00317646
0.00399652
0.00475092
0.00760513
0.0110577
0.012163
0.00529408
0.00192435
0.00216906
0.00237091
0.00281731
0.00318765
0.00400688
0.00476585
0.00762587
0.0110724
0.0121611
0.00527486
0.00217464
0.00237793
0.00282424
0.00319587
0.00401339
0.00477595
0.00763923
0.0110811
0.012159
0.00526096
0.00217756
0.0023813
0.00282762
0.00319968
0.00401657
0.00478068
0.00764514
0.0110841
0.0121568
0.00525258
0.00129997
0.00136513
0.00138216
0.00149477
0.00152454
0.00172663
0.00177991
0.0021758
0.00228619
0.00313546
0.00337759
0.00585275
0.00989859
0.0126141
0.006642
0.00132624
0.00139243
0.00141767
0.00153157
0.00157451
0.00177798
0.00185488
0.00225152
0.00239849
0.003241
0.0035474
0.00615801
0.0101381
0.0126514
0.00653076
0.00139999
0.00142276
0.00153796
0.00157635
0.00178061
0.00184848
0.00224453
0.00237452
0.00321787
0.00347821
0.00606924
0.0101362
0.0127079
0.0065503
0.00142309
0.00145313
0.00156847
0.00161854
0.00182196
0.00191079
0.00230442
0.00246741
0.00329631
0.00360324
0.00626067
0.0102725
0.0127471
0.00645125
0.00146244
0.00157972
0.00162604
0.00183159
0.00191372
0.00230814
0.0024577
0.00328855
0.00357028
0.00625386
0.0103252
0.0127874
0.00644624
0.0014886
0.00160489
0.00166113
0.00186454
0.00196466
0.00235476
0.00253318
0.00334738
0.00366383
0.00638212
0.0104223
0.0128205
0.00636201
0.00150028
0.00161885
0.00167236
0.00187874
0.00197389
0.00236528
0.00253385
0.00334834
0.00365377
0.00641371
0.0104867
0.0128487
0.0063395
0.00163949
0.00170196
0.0019054
0.00201478
0.002401
0.00259311
0.00339188
0.00372364
0.00650637
0.0105655
0.0128726
0.00626922
0.00165464
0.00171532
0.00192177
0.00202828
0.00241574
0.00260112
0.00339696
0.0037275
0.00655472
0.0106297
0.012892
0.00623659
0.00167261
0.00173976
0.00194311
0.00206081
0.00244341
0.00264636
0.00342895
0.00377987
0.00662851
0.0106964
0.0129083
0.0061785
0.00168649
0.00175239
0.00195926
0.00207647
0.0024601
0.00265987
0.00343713
0.0037935
0.00668045
0.0107541
0.0129209
0.00614218
0.00177247
0.00197742
0.00210216
0.00248127
0.00269301
0.00346014
0.00383207
0.0067401
0.0108093
0.0129308
0.00609482
0.00178506
0.00199172
0.00211662
0.00249663
0.00270902
0.00346997
0.00384981
0.00678741
0.0108574
0.0129378
0.00605965
0.00180032
0.00200525
0.00213619
0.00251351
0.00273249
0.00348588
0.00387728
0.00683355
0.0109001
0.0129421
0.00602227
0.00181048
0.0020174
0.00214951
0.00252566
0.00274716
0.00349474
0.00389464
0.00687094
0.0109358
0.0129438
0.00599209
0.00182121
0.00202773
0.00216175
0.00253744
0.00276261
0.00350556
0.0039135
0.00690397
0.0109651
0.0129437
0.00596391
0.00182933
0.00203544
0.00217216
0.00254672
0.00277433
0.00351263
0.00392758
0.00693011
0.0109878
0.0129424
0.00594054
0.00183532
0.00204206
0.00217959
0.00255361
0.0027829
0.00351851
0.00393846
0.00694989
0.0110043
0.0129405
0.00592168
0.00204624
0.00218478
0.00255834
0.00278898
0.00352233
0.00394568
0.00696262
0.0110143
0.0129384
0.0059081
0.00204834
0.00218732
0.00256066
0.00279186
0.00352414
0.00394905
0.0069682
0.0110178
0.0129361
0.00589964
0.00130271
0.00136069
0.00137717
0.00147656
0.00149864
0.00167799
0.00169801
0.00205327
0.00204494
0.00285257
0.00278368
0.00532421
0.00981067
0.0133379
0.00720536
0.00132544
0.00138345
0.00140715
0.00150597
0.00154001
0.00171593
0.00175732
0.00210282
0.00213222
0.0029205
0.00292083
0.00563055
0.010071
0.0134089
0.00709479
0.00138813
0.00140988
0.00150952
0.00153959
0.00171635
0.00175022
0.00209743
0.00211072
0.00290322
0.00284906
0.00553905
0.0100805
0.0134628
0.0071169
0.00140687
0.00143502
0.00153318
0.00157375
0.00174594
0.00179879
0.00213478
0.00218108
0.002949
0.00294505
0.00571606
0.0102196
0.0135192
0.0070213
0.00144139
0.00154089
0.00157821
0.00175203
0.00179942
0.0021372
0.00217264
0.00294334
0.00290852
0.0057163
0.0102867
0.0135646
0.00701809
0.00146268
0.00155989
0.00160618
0.00177509
0.00183863
0.00216518
0.00222856
0.00297463
0.00297776
0.00583123
0.010389
0.0136078
0.0069379
0.001471
0.00156991
0.00161373
0.00178471
0.00184442
0.00217213
0.00222927
0.00297446
0.00296361
0.00586969
0.010467
0.0136431
0.00691693
0.00158526
0.00163681
0.00180286
0.00187538
0.002193
0.00227242
0.00299571
0.00301379
0.00595505
0.0105544
0.0136754
0.00685015
0.00159625
0.00164627
0.00181409
0.00188433
0.00220217
0.00227912
0.00299726
0.00301362
0.00600813
0.0106303
0.0137022
0.00681894
0.00160947
0.00166498
0.00182838
0.00190844
0.00221812
0.00231112
0.00301139
0.00304978
0.00607862
0.0107061
0.0137253
0.00676351
0.00161957
0.00167414
0.00183942
0.0019193
0.00222824
0.00232192
0.00301412
0.00305886
0.00613365
0.0107739
0.013744
0.00672831
0.00168902
0.00185148
0.00193793
0.0022406
0.00234518
0.00302373
0.00308562
0.0061927
0.0108375
0.013759
0.00668287
0.00169825
0.00186128
0.00194845
0.00224976
0.00235748
0.00302708
0.00309879
0.00624241
0.0108939
0.0137703
0.00664857
0.00170955
0.00187061
0.00196228
0.0022596
0.00237396
0.00303329
0.00311834
0.00628962
0.0109438
0.0137781
0.00661227
0.00171724
0.0018786
0.0019717
0.00226688
0.00238491
0.00303637
0.00313153
0.00632938
0.0109861
0.0137827
0.0065825
0.00172503
0.00188558
0.00198078
0.0022738
0.00239602
0.00304036
0.00314531
0.00636387
0.011021
0.0137846
0.00655483
0.0017309
0.00189097
0.00198787
0.00227928
0.00240437
0.00304289
0.00315573
0.00639146
0.0110484
0.0137845
0.00653147
0.00173545
0.00189536
0.00199334
0.00228344
0.0024107
0.00304497
0.00316388
0.00641223
0.0110682
0.0137832
0.00651274
0.00189825
0.00199701
0.00228624
0.00241501
0.00304629
0.00316917
0.00642563
0.0110805
0.0137813
0.00649892
0.00189966
0.00199881
0.00228761
0.00241707
0.00304686
0.00317163
0.00643159
0.0110853
0.0137789
0.00649018
0.00129454
0.00133841
0.00136251
0.00143731
0.00146879
0.00160688
0.00163255
0.00192204
0.00188552
0.00262855
0.00239743
0.00518408
0.0100326
0.0141999
0.00774067
0.00131347
0.00135713
0.00138687
0.00146057
0.00150216
0.00163479
0.00167982
0.00195366
0.00195759
0.0026688
0.00252788
0.0055
0.010316
0.0142954
0.00762789
0.00135935
0.00138811
0.00146165
0.00150068
0.0016331
0.00167298
0.00194787
0.00193863
0.00265479
0.00245292
0.00542536
0.0103516
0.0143582
0.00765535
0.00137431
0.00140809
0.00147978
0.00152747
0.00165396
0.00171064
0.00196981
0.00199458
0.00267602
0.00253963
0.00559262
0.0105001
0.0144302
0.00756064
0.00141247
0.0014846
0.00153024
0.00165714
0.00171046
0.00197015
0.00198818
0.00267109
0.00250426
0.00561567
0.0105914
0.0144875
0.00756101
0.00142904
0.00149884
0.00155171
0.00167292
0.00174024
0.00198556
0.00203146
0.00268203
0.00256425
0.00572577
0.0107081
0.0145426
0.00748297
0.00143501
0.00150562
0.00155702
0.00167899
0.00174428
0.00198911
0.0020333
0.00267991
0.00255395
0.00578241
0.0108069
0.0145898
0.00746448
0.00151698
0.00157426
0.00169115
0.00176732
0.00200014
0.00206603
0.00268534
0.00259629
0.00587037
0.01091
0.0146329
0.00739996
0.00152457
0.00158106
0.00169845
0.00177366
0.00200503
0.00207294
0.00268315
0.00260124
0.00593734
0.0110037
0.0146698
0.0073704
0.00153427
0.00159486
0.00170788
0.00179109
0.00201331
0.00209659
0.00268523
0.00263178
0.00601363
0.0110945
0.0147018
0.00731689
0.00154139
0.00160148
0.00171502
0.00179888
0.00201863
0.0021063
0.00268295
0.00264513
0.00607957
0.0111775
0.0147284
0.00728272
0.0016121
0.00172292
0.00181207
0.00202524
0.00212345
0.00268358
0.00266896
0.00614549
0.0112543
0.0147501
0.00723861
0.0016188
0.00172939
0.00181981
0.00203002
0.00213372
0.00268167
0.00268501
0.00620392
0.0113229
0.014767
0.0072049
0.00162685
0.00173567
0.00182939
0.00203531
0.00214593
0.00268134
0.00270375
0.00625782
0.0113835
0.0147795
0.00716928
0.00163255
0.00174084
0.0018361
0.00203916
0.00215471
0.00267993
0.00271855
0.00630443
0.0114352
0.0147877
0.00713958
0.00163808
0.00174546
0.00184254
0.00204294
0.00216308
0.00267931
0.00273245
0.0063443
0.0114781
0.0147922
0.00711157
0.00164223
0.00174906
0.00184745
0.00204585
0.00216943
0.00267847
0.00274344
0.0063764
0.0115117
0.0147938
0.0070884
0.00164554
0.00175196
0.00185131
0.00204814
0.00217429
0.00267789
0.00275189
0.0064005
0.0115363
0.0147933
0.00706941
0.00175388
0.00185386
0.00204964
0.00217748
0.0026774
0.00275733
0.00641613
0.0115517
0.0147917
0.00705525
0.00175479
0.00185509
0.00205034
0.002179
0.00267707
0.00275985
0.00642322
0.0115582
0.0147893
0.00704587
0.00127867
0.00130509
0.00134315
0.00138644
0.0014434
0.00152482
0.00159861
0.00178838
0.00183846
0.00245222
0.0023218
0.00559562
0.0107031
0.0152377
0.00826011
0.00129408
0.00132077
0.00136227
0.0014056
0.00146953
0.00154717
0.0016364
0.00181151
0.00190335
0.00247726
0.00248152
0.00592664
0.0110095
0.015351
0.00814239
0.00132097
0.00136267
0.00140458
0.0014679
0.00154327
0.00163072
0.00180328
0.00188751
0.00246112
0.00240001
0.0058876
0.0110819
0.0154283
0.00817722
0.00133311
0.00137786
0.00141898
0.00148801
0.00155908
0.00165942
0.00181733
0.00193513
0.00246638
0.00250039
0.00605038
0.011246
0.0155143
0.00808121
0.00138095
0.00142154
0.00149005
0.00155998
0.00165959
0.00181541
0.00193198
0.00245946
0.002473
0.006107
0.0113681
0.015586
0.00808613
0.00139327
0.00143262
0.00150571
0.00157152
0.00168154
0.00182433
0.0019675
0.00245729
0.00253913
0.00622207
0.011505
0.0156539
0.00800869
0.0013976
0.00143704
0.00150971
0.00157515
0.00168501
0.00182551
0.00197178
0.00245173
0.00254346
0.00630472
0.0116291
0.0157138
0.00799286
0.00144576
0.001522
0.0015839
0.00170157
0.00183163
0.00199795
0.00244759
0.00259037
0.00640453
0.0117526
0.0157678
0.00792954
0.00145093
0.00152696
0.00158866
0.0017066
0.00183406
0.00200623
0.00244128
0.00261089
0.00649173
0.0118677
0.0158149
0.00790144
0.00145828
0.00153668
0.0015954
0.0017187
0.0018387
0.00202487
0.00243668
0.00264768
0.00658168
0.0119771
0.0158557
0.00784908
0.00146334
0.00154147
0.00160009
0.00172452
0.00184154
0.00203468
0.00243037
0.00267449
0.00666411
0.0120779
0.0158902
0.00781564
0.00154867
0.00160567
0.00173358
0.0018455
0.00204823
0.00242601
0.00270583
0.00674309
0.0121705
0.0159185
0.00777228
0.00155348
0.0016101
0.00173928
0.0018482
0.00205762
0.00242066
0.00273255
0.00681485
0.0122535
0.0159409
0.00773879
0.00155898
0.00161458
0.0017458
0.00185142
0.00206742
0.00241671
0.00275879
0.00687994
0.0123266
0.0159577
0.00770336
0.00156305
0.00161816
0.00175056
0.00185373
0.00207497
0.00241266
0.00278151
0.00693678
0.0123891
0.0159692
0.00767338
0.00156687
0.00162142
0.00175497
0.00185607
0.00208173
0.00240955
0.00280149
0.00698505
0.0124408
0.0159761
0.00764481
0.00156973
0.00162394
0.00175834
0.00185785
0.00208692
0.00240686
0.00281768
0.00702399
0.0124815
0.0159791
0.00762146
0.00157203
0.00162599
0.00176098
0.00185928
0.00209085
0.00240485
0.00282995
0.00705319
0.0125113
0.0159793
0.00760207
0.00162731
0.00176269
0.00186018
0.00209336
0.0024034
0.00283791
0.00707222
0.0125302
0.0159777
0.00758723
0.00162793
0.00176349
0.00186058
0.00209451
0.00240259
0.00284164
0.00708099
0.0125385
0.015975
0.00757704
0.00125559
0.00126791
0.00131882
0.00133483
0.00142042
0.00144695
0.00159069
0.00166521
0.00189456
0.00229295
0.0025962
0.00650118
0.0117922
0.016421
0.00876864
0.00126804
0.00128159
0.00133348
0.00135188
0.00144027
0.00146811
0.00162034
0.00168941
0.00195439
0.00231784
0.00281191
0.00684973
0.0121206
0.0165465
0.00864392
0.00128036
0.00133327
0.0013493
0.00143869
0.00146225
0.00161597
0.00167758
0.00194272
0.00229345
0.00273075
0.00685805
0.012235
0.0166401
0.00868767
0.00129051
0.00134432
0.0013616
0.00145294
0.00147646
0.00163668
0.00169114
0.00198312
0.0022935
0.0028531
0.00702378
0.012419
0.016738
0.0085888
0.00134645
0.00136267
0.00145461
0.00147598
0.00163751
0.00168763
0.00198398
0.00228197
0.00284904
0.00711843
0.0125732
0.0168239
0.00859896
0.00135518
0.00137195
0.00146527
0.00148607
0.00165255
0.00169596
0.00201266
0.00227575
0.00292742
0.00724874
0.0127335
0.0169034
0.00852102
0.00135831
0.00137488
0.00146839
0.00148848
0.00165575
0.00169651
0.00201955
0.00226668
0.00295929
0.0073603
0.0128837
0.0169747
0.008508
0.00138211
0.0014766
0.00149605
0.00166675
0.00170239
0.00204002
0.00226022
0.00301942
0.00747924
0.0130295
0.0170386
0.00844516
0.00138583
0.00148021
0.00149972
0.00167076
0.00170472
0.00204926
0.00225191
0.00306445
0.00759019
0.0131666
0.0170948
0.00841842
0.00139178
0.00148666
0.00150554
0.00167855
0.00170947
0.00206367
0.00224624
0.00311726
0.00769931
0.0132957
0.0171434
0.00836668
0.00139562
0.00149007
0.00150925
0.00168277
0.00171246
0.00207304
0.00223941
0.00316459
0.00780158
0.0134149
0.0171846
0.00833375
0.00149468
0.00151394
0.00168859
0.00171663
0.00208363
0.00223467
0.00321206
0.00789774
0.0135238
0.0172186
0.00829073
0.00149798
0.00151758
0.00169256
0.00171969
0.00209171
0.00222962
0.00325554
0.00798569
0.0136214
0.0172457
0.00825718
0.0015016
0.00152135
0.00169676
0.00172312
0.00209938
0.0022259
0.00329592
0.00806486
0.0137071
0.017266
0.0082215
0.00150437
0.00152434
0.00169995
0.0017258
0.00210548
0.00222246
0.00333161
0.00813409
0.0137804
0.0172802
0.00819068
0.00150692
0.00152707
0.00170281
0.00172835
0.00211068
0.00221985
0.00336235
0.00819268
0.0138409
0.0172888
0.00816242
0.00150882
0.00152917
0.001705
0.00173035
0.00211468
0.00221771
0.00338735
0.00823993
0.0138885
0.0172927
0.00813843
0.00151037
0.00153086
0.00170669
0.00173192
0.00211763
0.00221613
0.00340622
0.00827535
0.0139234
0.0172931
0.00811853
0.00153193
0.00170776
0.0017329
0.00211946
0.00221496
0.00341856
0.00829851
0.0139457
0.0172914
0.00810293
0.00153242
0.00170823
0.00173334
0.00212026
0.00221431
0.0034244
0.00830926
0.0139556
0.0172883
0.00809173
0.00122432
0.00123289
0.0012862
0.00129304
0.00139075
0.00139238
0.00158654
0.00158368
0.00201023
0.00216701
0.00325375
0.00778408
0.0131938
0.0177059
0.00927669
0.0012347
0.00124521
0.00129775
0.0013092
0.00140603
0.00141529
0.00160953
0.00161743
0.0020627
0.00221538
0.00353311
0.0081513
0.0135439
0.0178394
0.00914403
0.00124328
0.00129673
0.00130588
0.00140397
0.00140851
0.00160546
0.00160281
0.00205469
0.00217692
0.00347468
0.00821391
0.013701
0.0179499
0.00919792
0.00125192
0.0013047
0.001317