/*--------------------------------*- C++ -*----------------------------------*\
  =========                 |
  \\      /  F ield         | OpenFOAM: The Open Source CFD Toolbox
   \\    /   O peration     | Website:  https://openfoam.org
    \\  /    A nd           | Version:  6
     \\/     M anipulation  |
\*---------------------------------------------------------------------------*/
FoamFile
{
    version     2.0;
    format      ascii;
    class       volVectorField;
    location    "8";
    object      wallShearStress;
}
// * * * * * * * * * * * * * * * * * * * * * * * * * * * * * * * * * * * * * //

dimensions      [0 2 -2 0 0 0 0];

internalField   uniform (0 0 0);

boundaryField
{
    inlet
    {
        type            calculated;
        value           uniform (0 0 0);
    }
    outlet
    {
        type            calculated;
        value           uniform (0 0 0);
    }
    roughCylinder
    {
        type            calculated;
        value           nonuniform List<vector> 
5120
(
(-0.000255878 -0.000364623 -0.000188109)
(-0.000313492 -0.00047027 -4.19461e-05)
(-0.000347903 -0.000565335 2.68353e-07)
(-0.000394762 -0.000656325 5.59846e-05)
(-0.00045297 -0.000735014 0.000120082)
(-0.000518822 -0.000796899 0.000184278)
(-0.000588737 -0.000839173 0.000244005)
(-0.00065794 -0.000862347 0.000296454)
(-0.00072232 -0.000869067 0.000339556)
(-0.000779975 -0.00086471 0.000372739)
(-0.000831279 -0.000857988 0.000397775)
(-0.000876218 -0.000853832 0.000416267)
(-0.000912216 -0.000852793 0.000427142)
(-0.000942519 -0.000857163 0.000431449)
(-0.000968399 -0.000866225 0.000430275)
(-0.000991217 -0.000879247 0.000424684)
(-0.00101242 -0.000895448 0.000415743)
(-0.00103322 -0.000914163 0.000404341)
(-0.0010546 -0.000934921 0.000391144)
(-0.00107717 -0.000957425 0.000376568)
(-0.00110127 -0.000981497 0.000360805)
(-0.00112703 -0.00100701 0.000343863)
(-0.00115438 -0.00103383 0.000325634)
(-0.00118317 -0.00106181 0.00030591)
(-0.00121313 -0.0010907 0.000284419)
(-0.00124396 -0.00112017 0.000260786)
(-0.00127525 -0.0011498 0.000234536)
(-0.0013064 -0.00117893 0.000204943)
(-0.00133663 -0.00120668 0.000170914)
(-0.00136433 -0.00123153 0.000130907)
(-0.00138675 -0.00125168 8.2697e-05)
(-0.00139962 -0.00126372 2.79602e-05)
(-0.000275199 -0.000353225 -0.00017803)
(-0.000336011 -0.000456167 -4.45002e-05)
(-0.000373072 -0.000549979 -5.55545e-06)
(-0.000422114 -0.00064073 4.67968e-05)
(-0.000482065 -0.000720466 0.000108329)
(-0.000549521 -0.000784144 0.000170804)
(-0.000620876 -0.000828569 0.000229432)
(-0.000691629 -0.000854159 0.000281294)
(-0.000758316 -0.000864007 0.000324459)
(-0.000819513 -0.000864061 0.000358809)
(-0.000875005 -0.000861291 0.000385865)
(-0.000923572 -0.000858605 0.000406257)
(-0.000962096 -0.000856088 0.000418109)
(-0.000993883 -0.000859365 0.000422943)
(-0.00102124 -0.000867735 0.000422065)
(-0.00104546 -0.000880411 0.000416685)
(-0.00106803 -0.000896483 0.000407901)
(-0.00109023 -0.000915215 0.000396658)
(-0.00111303 -0.000936056 0.000383649)
(-0.00113707 -0.000958663 0.000369307)
(-0.0011627 -0.00098283 0.000353831)
(-0.00119004 -0.00100842 0.000337237)
(-0.00121901 -0.00103529 0.000319409)
(-0.00124944 -0.00106327 0.000300137)
(-0.00128106 -0.00109213 0.000279141)
(-0.00131354 -0.00112155 0.000256039)
(-0.00134646 -0.00115109 0.000230358)
(-0.00137919 -0.00118009 0.000201371)
(-0.00141093 -0.00120771 0.000168003)
(-0.00143996 -0.00123241 0.000128721)
(-0.00146345 -0.00125244 8.13154e-05)
(-0.00147696 -0.00126439 2.74855e-05)
(-0.000294497 -0.000336591 -0.000160565)
(-0.00035818 -0.0004366 -4.75835e-05)
(-0.000397707 -0.000528414 -1.20594e-05)
(-0.000448543 -0.00061827 3.67294e-05)
(-0.000509946 -0.000698528 9.54114e-05)
(-0.000578856 -0.000763772 0.000155931)
(-0.000651731 -0.000810521 0.000213398)
(-0.000724408 -0.000839203 0.000264853)
(-0.000793947 -0.000853114 0.000308546)
(-0.000858944 -0.000857813 0.000344409)
(-0.000918345 -0.000858555 0.000373259)
(-0.000970112 -0.000857253 0.000394936)
(-0.00101202 -0.000854401 0.000407973)
(-0.00104537 -0.000856307 0.000413331)
(-0.00107424 -0.000863806 0.000412734)
(-0.00109994 -0.000875962 0.000407597)
(-0.00112397 -0.000891754 0.000399025)
(-0.00114762 -0.000910337 0.000387994)
(-0.0011719 -0.000931101 0.00037523)
(-0.00119747 -0.000953652 0.000361185)
(-0.00122466 -0.000977751 0.000346057)
(-0.00125359 -0.00100324 0.000329869)
(-0.00128419 -0.00102997 0.000312503)
(-0.00131626 -0.00105776 0.000293742)
(-0.00134954 -0.0010864 0.0002733)
(-0.00138365 -0.00111554 0.000250789)
(-0.00141818 -0.00114479 0.000225737)
(-0.00145245 -0.00117346 0.000197414)
(-0.00148567 -0.00120076 0.000164776)
(-0.00151598 -0.00122513 0.000126294)
(-0.00154051 -0.0012449 7.97826e-05)
(-0.00155463 -0.00125667 2.69596e-05)
(-0.000311833 -0.00031597 -0.000138498)
(-0.000377979 -0.000412529 -5.07551e-05)
(-0.000419533 -0.000501601 -1.88218e-05)
(-0.000471571 -0.00058991 2.62233e-05)
(-0.000533991 -0.000670196 8.17878e-05)
(-0.000604147 -0.000736819 0.000140088)
(-0.000678648 -0.000786113 0.000196249)
(-0.000753617 -0.000818439 0.000247328)
(-0.000826318 -0.000836933 0.000291708)
(-0.000895076 -0.000846255 0.000329126)
(-0.000958186 -0.000850233 0.000359631)
(-0.00101336 -0.000850543 0.000382482)
(-0.00105906 -0.000848525 0.000396875)
(-0.00109457 -0.000848685 0.000402797)
(-0.00112505 -0.000855215 0.000402573)
(-0.00115235 -0.000866708 0.000397735)
(-0.00117792 -0.00088208 0.000389438)
(-0.0012031 -0.000900403 0.000378688)
(-0.00122891 -0.000920981 0.000366235)
(-0.00125601 -0.000943352 0.000352535)
(-0.00128476 -0.000967255 0.000337813)
(-0.00131528 -0.000992506 0.000322084)
(-0.00134746 -0.00101895 0.000305229)
(-0.00138112 -0.00104641 0.000287024)
(-0.00141596 -0.00107465 0.000267177)
(-0.00145161 -0.00110336 0.000245291)
(-0.00148763 -0.00113213 0.000220901)
(-0.00152336 -0.00116032 0.000193276)
(-0.00155796 -0.00118713 0.000161399)
(-0.00158946 -0.00121104 0.000123758)
(-0.00161497 -0.00123042 7.81796e-05)
(-0.00162965 -0.00124196 2.64101e-05)
(-0.000326187 -0.0002917 -0.000114016)
(-0.000394421 -0.00038429 -5.36601e-05)
(-0.000437527 -0.000469987 -2.55023e-05)
(-0.000490208 -0.000556155 1.56186e-05)
(-0.000553249 -0.000636002 6.77795e-05)
(-0.00062452 -0.000703855 0.000123547)
(-0.000700784 -0.000755871 0.000178185)
(-0.000778328 -0.000792136 0.00022882)
(-0.000854345 -0.000815277 0.000273846)
(-0.000926743 -0.000828932 0.00031268)
(-0.000993432 -0.000835915 0.000344712)
(-0.00105212 -0.000837921 0.000368796)
(-0.0011013 -0.000836929 0.000384306)
(-0.0011404 -0.00083624 0.000391238)
(-0.00117272 -0.000841469 0.000391567)
(-0.00120174 -0.000852051 0.000387114)
(-0.00122896 -0.00086685 0.000379187)
(-0.00125571 -0.000884745 0.000368792)
(-0.00128306 -0.000904972 0.000356709)
(-0.0013117 -0.000927022 0.000343429)
(-0.00134199 -0.000950581 0.000329171)
(-0.00137402 -0.00097544 0.000313956)
(-0.00140772 -0.00100143 0.000297663)
(-0.00144286 -0.00102839 0.000280058)
(-0.00147916 -0.00105607 0.000260846)
(-0.00151623 -0.00108416 0.00023962)
(-0.00155365 -0.00111229 0.000215921)
(-0.00159068 -0.00113981 0.000189014)
(-0.00162653 -0.00116598 0.000157925)
(-0.0016591 -0.00118925 0.000121147)
(-0.00168549 -0.00120813 7.65301e-05)
(-0.00170066 -0.00121936 2.58456e-05)
(-0.000337522 -0.000265172 -8.88855e-05)
(-0.000407336 -0.000353233 -5.61589e-05)
(-0.000451413 -0.000434981 -3.18942e-05)
(-0.000504115 -0.000518414 5.13585e-06)
(-0.0005673 -0.000597317 5.35942e-05)
(-0.000639447 -0.000666134 0.000106487)
(-0.000717489 -0.000720854 0.000159328)
(-0.000797733 -0.000761077 0.000209357)
(-0.000877132 -0.000788658 0.000254895)
(-0.000953153 -0.000806242 0.000294944)
(-0.00102342 -0.000815973 0.000328358)
(-0.00108572 -0.000819668 0.000353707)
(-0.0011386 -0.000819753 0.000370278)
(-0.00118192 -0.000819365 0.000378504)
(-0.0012168 -0.000822745 0.000379587)
(-0.00124771 -0.000832319 0.000375698)
(-0.00127668 -0.000846239 0.000368226)
(-0.00130511 -0.000863526 0.000358293)
(-0.00133406 -0.000883252 0.000346678)
(-0.00136423 -0.000904819 0.000333887)
(-0.00139602 -0.000927866 0.00032016)
(-0.00142951 -0.000952172 0.000305522)
(-0.00146462 -0.000977547 0.000289841)
(-0.00150114 -0.00100382 0.000272882)
(-0.00153876 -0.00103075 0.000254341)
(-0.00157709 -0.00105804 0.0002338)
(-0.00161572 -0.00108535 0.000210815)
(-0.00165391 -0.00111203 0.000184648)
(-0.00169086 -0.00113737 0.000154366)
(-0.00172437 -0.00115989 0.000118475)
(-0.00175153 -0.00117814 7.48413e-05)
(-0.00176713 -0.001189 2.52687e-05)
(-0.000344632 -0.000236681 -6.4072e-05)
(-0.000415545 -0.000319775 -5.80894e-05)
(-0.000460032 -0.000397036 -3.77981e-05)
(-0.000512128 -0.000477171 -5.05159e-06)
(-0.000574942 -0.000554622 3.93543e-05)
(-0.000647698 -0.000624123 8.89573e-05)
(-0.00072748 -0.000681466 0.000139656)
(-0.00081049 -0.000725562 0.000188829)
(-0.000893333 -0.00075733 0.000234653)
(-0.000973067 -0.000778525 0.000275693)
(-0.00104711 -0.00079088 0.000310368)
(-0.00111325 -0.000796308 0.000337018)
(-0.00117007 -0.000797521 0.000354801)
(-0.00121748 -0.000797789 0.000364232)
(-0.00125655 -0.000800391 0.000366569)
(-0.00128959 -0.000807991 0.000363382)
(-0.00132052 -0.000820942 0.000356542)
(-0.00135071 -0.000837368 0.000347171)
(-0.00138128 -0.000856359 0.000336118)
(-0.001413 -0.000877264 0.000323908)
(-0.00144625 -0.00089965 0.000310789)
(-0.00148112 -0.00092324 0.00029679)
(-0.00151756 -0.000947858 0.000281782)
(-0.00155531 -0.000973296 0.000265514)
(-0.0015941 -0.000999348 0.000247685)
(-0.00163353 -0.00102572 0.000227863)
(-0.00167322 -0.00105205 0.000205615)
(-0.00171238 -0.00107774 0.000180199)
(-0.00175028 -0.00110214 0.000150741)
(-0.00178455 -0.00112373 0.000115754)
(-0.00181237 -0.00114126 7.31211e-05)
(-0.0018283 -0.00115168 2.46815e-05)
(-0.000347672 -0.000207399 -4.05801e-05)
(-0.000419034 -0.000285072 -5.94521e-05)
(-0.000463301 -0.000357401 -4.31175e-05)
(-0.000514094 -0.000433679 -1.4773e-05)
(-0.000575874 -0.000509079 2.52657e-05)
(-0.000648746 -0.00057877 7.11509e-05)
(-0.000729976 -0.000638372 0.000119285)
(-0.000815595 -0.000686007 0.000167231)
(-0.000901851 -0.000721629 0.000213004)
(-0.000985396 -0.000746167 0.000254768)
(-0.00106337 -0.000760999 0.000290544)
(-0.00113358 -0.000768188 0.000318501)
(-0.00119462 -0.000770604 0.00033767)
(-0.00124627 -0.00077156 0.000348422)
(-0.00128954 -0.000774092 0.000352045)
(-0.00132643 -0.00078038 0.000350065)
(-0.00135947 -0.000791427 0.000344008)
(-0.0013916 -0.000806684 0.000335363)
(-0.00142393 -0.000824804 0.000325012)
(-0.00145721 -0.000844877 0.000313485)
(-0.00149187 -0.000866435 0.000301064)
(-0.00152806 -0.000889171 0.000287782)
(-0.00156566 -0.000912864 0.000273504)
(-0.00160449 -0.000937316 0.000257978)
(-0.00164424 -0.000962318 0.000240894)
(-0.00168453 -0.000987585 0.000221813)
(-0.00172502 -0.0010128 0.000200317)
(-0.00176495 -0.0010374 0.000175669)
(-0.0018036 -0.00106076 0.000147052)
(-0.00183848 -0.00108136 0.000112988)
(-0.00186679 -0.00109809 7.13708e-05)
(-0.00188299 -0.0011081 2.40863e-05)
(-0.00034519 -0.000177265 -1.89087e-05)
(-0.000416451 -0.00024922 -6.00775e-05)
(-0.000459877 -0.000316157 -4.76644e-05)
(-0.000508639 -0.000388005 -2.38341e-05)
(-0.000568653 -0.000460695 1.15056e-05)
(-0.000641068 -0.000530007 5.3192e-05)
(-0.00072344 -0.000591479 9.82456e-05)
(-0.000811581 -0.000642382 0.000144488)
(-0.000901269 -0.000681613 0.000189799)
(-0.00098877 -0.000709323 0.00023197)
(-0.00107104 -0.000726651 0.000268698)
(-0.00114568 -0.000735676 0.00029796)
(-0.00121123 -0.000739364 0.000318651)
(-0.00126736 -0.000741038 0.000330942)
(-0.00131493 -0.000743661 0.000335987)
(-0.00135582 -0.000749316 0.000335338)
(-0.00139247 -0.000759036 0.000330534)
(-0.00142696 -0.000772739 0.000322878)
(-0.00146104 -0.000789471 0.000313349)
(-0.0014959 -0.000808427 0.000302627)
(-0.00153195 -0.000828989 0.000291008)
(-0.00156931 -0.000850755 0.000278527)
(-0.00160795 -0.000873482 0.000265057)
(-0.00164764 -0.000896937 0.00025033)
(-0.00168815 -0.000920908 0.000234038)
(-0.0017291 -0.000945122 0.000215731)
(-0.00177018 -0.000969241 0.000195006)
(-0.00181055 -0.000992698 0.000171121)
(-0.00184965 -0.00101489 0.00014334)
(-0.00188484 -0.00103441 0.0001102)
(-0.00191349 -0.00105026 6.96068e-05)
(-0.00192968 -0.00105975 2.34854e-05)
(-0.000337998 -0.000147717 2.77331e-07)
(-0.000408252 -0.000213309 -6.01949e-05)
(-0.000450226 -0.000274815 -5.14096e-05)
(-0.000496278 -0.000341712 -3.20621e-05)
(-0.000553662 -0.000410992 -1.63145e-06)
(-0.000624774 -0.000479137 3.54154e-05)
(-0.000707593 -0.000541762 7.6809e-05)
(-0.000797781 -0.000595353 0.000120749)
(-0.000890746 -0.000637835 0.000165066)
(-0.000982341 -0.000668594 0.000207258)
(-0.00106909 -0.000688351 0.000244708)
(-0.00114844 -0.000699199 0.000275213)
(-0.00121883 -0.000704181 0.000297513)
(-0.00127973 -0.000706589 0.000311547)
(-0.0013318 -0.000709329 0.000318258)
(-0.00137679 -0.000714519 0.000319126)
(-0.00141696 -0.000723293 0.000315712)
(-0.00145443 -0.000735687 0.00030931)
(-0.00149093 -0.000751102 0.000300914)
(-0.00152758 -0.00076882 0.000291207)
(-0.00156495 -0.000788203 0.000280527)
(-0.00160331 -0.000808829 0.000268942)
(-0.00164262 -0.000830377 0.000256329)
(-0.00168274 -0.00085263 0.000242428)
(-0.00172348 -0.000875357 0.000226937)
(-0.00176446 -0.000898275 0.000209398)
(-0.00180555 -0.0009211 0.000189439)
(-0.00184594 -0.000943244 0.000166323)
(-0.00188518 -0.000964127 0.000139413)
(-0.00192045 -0.000982466 0.00010725)
(-0.00194919 -0.000997339 6.77337e-05)
(-0.00196533 -0.00100624 2.28484e-05)
(-0.000322928 -0.000118122 1.65728e-05)
(-0.000393601 -0.000177741 -5.95016e-05)
(-0.000432818 -0.000233338 -5.42234e-05)
(-0.000475258 -0.000294654 -3.91867e-05)
(-0.000529008 -0.00035969 -1.38335e-05)
(-0.000597859 -0.000425778 1.80977e-05)
(-0.000680525 -0.000488895 5.51601e-05)
(-0.000772577 -0.000544846 9.60877e-05)
(-0.000868834 -0.000590432 0.00013878)
(-0.000964618 -0.000624177 0.000180507)
(-0.00105625 -0.000646501 0.000218434)
(-0.00114081 -0.000659306 0.000250124)
(-0.00121644 -0.000665594 0.000274088)
(-0.00128246 -0.000668711 0.000290032)
(-0.00133938 -0.000671577 0.000298672)
(-0.00138871 -0.000676329 0.000301326)
(-0.00143259 -0.000684202 0.000299515)
(-0.00147303 -0.000695365 0.000294543)
(-0.00151182 -0.000709428 0.00028744)
(-0.00155025 -0.000725823 0.00027892)
(-0.0015889 -0.000743883 0.000269326)
(-0.00162808 -0.000763155 0.000258745)
(-0.00166789 -0.000783346 0.000247087)
(-0.0017082 -0.000804189 0.00023408)
(-0.00174889 -0.000825482 0.000219446)
(-0.00178969 -0.000846941 0.000202723)
(-0.00183047 -0.000868278 0.000183558)
(-0.00187056 -0.000888943 0.000161237)
(-0.00190972 -0.000908426 0.00013525)
(-0.00194473 -0.000925474 0.000104118)
(-0.0019734 -0.00093933 6.5741e-05)
(-0.00198931 -0.000947557 2.21701e-05)
(-0.0003014 -8.97501e-05 2.98684e-05)
(-0.000373285 -0.000144049 -5.80754e-05)
(-0.000409255 -0.000193437 -5.61577e-05)
(-0.000447212 -0.000248857 -4.50941e-05)
(-0.00049628 -0.000308925 -2.4745e-05)
(-0.000561625 -0.000371903 1.75525e-06)
(-0.000642865 -0.000434394 3.38134e-05)
(-0.000735709 -0.000491772 7.08802e-05)
(-0.00083472 -0.000539987 0.000111147)
(-0.00093481 -0.000576739 0.000151832)
(-0.00103149 -0.000601673 0.000189848)
(-0.00112153 -0.000616482 0.000222549)
(-0.00120283 -0.000624121 0.0002482)
(-0.00127442 -0.000627915 0.000266205)
(-0.00133652 -0.000630821 0.000276994)
(-0.0013905 -0.000635082 0.000281713)
(-0.0014383 -0.000641998 0.000281773)
(-0.00148197 -0.000651918 0.000278486)
(-0.00152329 -0.000664619 0.000272905)
(-0.00156347 -0.00067955 0.000265741)
(-0.00160331 -0.000696133 0.000257379)
(-0.00164323 -0.000713936 0.000247944)
(-0.00168329 -0.000732601 0.000237336)
(-0.0017235 -0.000751898 0.000225303)
(-0.0017638 -0.000771596 0.000211579)
(-0.00180396 -0.000791427 0.000195701)
(-0.00184411 -0.000811161 0.000177367)
(-0.00188356 -0.000830242 0.00015587)
(-0.00192229 -0.000848207 0.000130849)
(-0.00195679 -0.000863927 0.000100807)
(-0.00198511 -0.00087668 6.36283e-05)
(-0.00200074 -0.000884214 2.14522e-05)
(-0.000272085 -6.30716e-05 3.99099e-05)
(-0.000344645 -0.000111886 -5.56034e-05)
(-0.000377345 -0.000154919 -5.682e-05)
(-0.000409951 -0.000203969 -4.93512e-05)
(-0.000453057 -0.000258105 -3.38558e-05)
(-0.00051348 -0.000316748 -1.30479e-05)
(-0.000592294 -0.000377627 1.32883e-05)
(-0.000685684 -0.000436066 4.55618e-05)
(-0.000787524 -0.000486895 8.25032e-05)
(-0.000891755 -0.000526599 0.00012138)
(-0.000993797 -0.000554382 0.000159017)
(-0.00108983 -0.000571454 0.00019251)
(-0.00117724 -0.000580529 0.000219806)
(-0.00125478 -0.000584953 0.000239972)
(-0.00132251 -0.000587826 0.000253143)
(-0.00138152 -0.000591486 0.000260206)
(-0.00143359 -0.000597361 0.000262442)
(-0.00148059 -0.000605898 0.0002611)
(-0.00152437 -0.00061703 0.000257245)
(-0.00156637 -0.000630379 0.000251644)
(-0.00160734 -0.000645359 0.000244696)
(-0.00164773 -0.000661515 0.00023653)
(-0.00168782 -0.000678555 0.000227091)
(-0.00172761 -0.000696196 0.000216112)
(-0.0017672 -0.000714222 0.000203362)
(-0.00180646 -0.000732386 0.000188385)
(-0.00184553 -0.000750414 0.0001709)
(-0.001884 -0.000767838 0.000150249)
(-0.00192203 -0.000784259 0.00012624)
(-0.00195564 -0.000798585 9.73353e-05)
(-0.0019834 -0.00081021 6.14071e-05)
(-0.00199855 -0.000816997 2.06972e-05)
(-0.000237597 -3.97268e-05 4.66665e-05)
(-0.000309611 -8.26342e-05 -5.2322e-05)
(-0.000339583 -0.000119721 -5.64359e-05)
(-0.000366844 -0.000162485 -5.20559e-05)
(-0.000403218 -0.000210218 -4.09495e-05)
(-0.000457169 -0.000263375 -2.57144e-05)
(-0.000531418 -0.000320992 -5.59238e-06)
(-0.00062298 -0.000378801 2.08831e-05)
(-0.00072604 -0.000431256 5.33614e-05)
(-0.00083442 -0.000474036 8.95282e-05)
(-0.000941905 -0.000504879 0.000126105)
(-0.00104415 -0.000524438 0.000159985)
(-0.00113816 -0.000535191 0.000188798)
(-0.00122228 -0.000540396 0.000211217)
(-0.00129608 -0.000543187 0.000226964)
(-0.00136048 -0.000546124 0.00023665)
(-0.00141708 -0.000550791 0.000241361)
(-0.00146781 -0.000557862 0.00024229)
(-0.00151446 -0.000567403 0.000240479)
(-0.00155828 -0.000579029 0.000236673)
(-0.00160027 -0.000592266 0.000231324)
(-0.00164107 -0.000606724 0.0002246)
(-0.00168087 -0.000622031 0.000216437)
(-0.00171988 -0.000637939 0.000206588)
(-0.0017583 -0.000654211 0.000194855)
(-0.00179602 -0.000670588 0.00018079)
(-0.00183365 -0.000686892 0.000164177)
(-0.00187071 -0.000702621 0.000144378)
(-0.00190767 -0.000717448 0.00012142)
(-0.00194006 -0.000730384 9.37037e-05)
(-0.00196705 -0.00074087 5.90762e-05)
(-0.00198163 -0.000746928 1.99059e-05)
(-0.00019634 -1.98951e-05 4.96545e-05)
(-0.000265795 -5.61877e-05 -4.777e-05)
(-0.000293157 -8.7332e-05 -5.44803e-05)
(-0.000314807 -0.000123505 -5.26569e-05)
(-0.000343277 -0.000163941 -4.52941e-05)
(-0.000388921 -0.00021015 -3.52697e-05)
(-0.000457162 -0.000263158 -2.16934e-05)
(-0.00054683 -0.000319938 -2.00855e-06)
(-0.000651504 -0.000374195 2.47687e-05)
(-0.000763112 -0.000419755 5.70243e-05)
(-0.000875982 -0.00045393 9.1688e-05)
(-0.000984773 -0.000476398 0.000125416)
(-0.0010857 -0.0004891 0.000155467)
(-0.00117658 -0.000495151 0.000180062)
(-0.00125687 -0.000497901 0.000198529)
(-0.00132708 -0.000500039 0.000211095)
(-0.00138863 -0.000503399 0.000218604)
(-0.00144316 -0.0005088 0.000222091)
(-0.00149247 -0.000516475 0.000222564)
(-0.00153816 -0.000526253 0.000220811)
(-0.00158112 -0.000537663 0.000217276)
(-0.00162195 -0.000550283 0.000212131)
(-0.00166119 -0.000563821 0.00020537)
(-0.00169902 -0.000577982 0.000196727)
(-0.00173592 -0.000592521 0.00018607)
(-0.00177192 -0.000607215 0.00017297)
(-0.00180761 -0.000621796 0.000157227)
(-0.00184289 -0.000635859 0.000138285)
(-0.00187844 -0.000649097 0.000116412)
(-0.00190924 -0.000660658 8.99276e-05)
(-0.00193507 -0.000669985 5.66397e-05)
(-0.00194896 -0.000675317 1.90792e-05)
(-0.000152208 -5.20761e-06 4.92557e-05)
(-0.000217123 -3.45517e-05 -4.22986e-05)
(-0.000242821 -6.0004e-05 -5.1431e-05)
(-0.000260337 -9.00982e-05 -5.17547e-05)
(-0.000281767 -0.000123571 -4.7306e-05)
(-0.000318281 -0.000162221 -4.16091e-05)
(-0.000377308 -0.000208518 -3.42647e-05)
(-0.000459718 -0.000260946 -2.19891e-05)
(-0.000561428 -0.000314448 -2.15982e-06)
(-0.000676143 -0.000362985 2.48528e-05)
(-0.000794239 -0.000400882 5.63977e-05)
(-0.000909643 -0.000426806 8.91357e-05)
(-0.00101785 -0.000442026 0.000119943)
(-0.00111621 -0.000449468 0.000146574)
(-0.00120344 -0.0004524 0.000167808)
(-0.00127988 -0.000453822 0.000183461)
(-0.0013466 -0.00045579 0.000194039)
(-0.0014054 -0.000459491 0.000200434)
(-0.00145796 -0.000465337 0.000203557)
(-0.00150551 -0.000473164 0.000204119)
(-0.00154927 -0.000482651 0.000202608)
(-0.0015901 -0.000493466 0.000199235)
(-0.0016284 -0.000505218 0.000193988)
(-0.00166461 -0.000517643 0.000186618)
(-0.00169941 -0.000530457 0.000177058)
(-0.00173281 -0.000543406 0.000164903)
(-0.00176605 -0.000556325 0.000150027)
(-0.00179909 -0.000568753 0.000131932)
(-0.00183298 -0.000580475 0.000111192)
(-0.00186172 -0.000590702 8.59857e-05)
(-0.00188637 -0.00059897 5.4092e-05)
(-0.00189936 -0.000603585 1.82138e-05)
(-0.000102623 6.69115e-06 4.55606e-05)
(-0.000159458 -1.54899e-05 -3.50552e-05)
(-0.000183805 -3.55169e-05 -4.6084e-05)
(-0.000197537 -5.93366e-05 -4.83043e-05)
(-0.000210594 -8.48949e-05 -4.58217e-05)
(-0.000235651 -0.000114316 -4.29804e-05)
(-0.000283844 -0.000152487 -4.07367e-05)
(-0.000360986 -0.000201105 -3.61357e-05)
(-0.00046243 -0.000254789 -2.50478e-05)
(-0.000576885 -0.000304867 -5.27473e-06)
(-0.000699145 -0.00034668 2.17167e-05)
(-0.000820797 -0.000376607 5.23323e-05)
(-0.000936309 -0.000395002 8.31453e-05)
(-0.00104201 -0.000404233 0.000111354)
(-0.00113643 -0.000407719 0.000135223)
(-0.00121926 -0.000408572 0.000154025)
(-0.00129155 -0.000409249 0.000167906)
(-0.00135454 -0.00041114 0.00017745)
(-0.00140988 -0.000414927 0.00018344)
(-0.00145928 -0.000420746 0.000186585)
(-0.00150374 -0.000428301 0.000187324)
(-0.00154403 -0.000437234 0.000185859)
(-0.00158101 -0.00044724 0.000182245)
(-0.00161516 -0.000458018 0.00017621)
(-0.00164749 -0.000469235 0.000167793)
(-0.00167827 -0.000480694 0.000156646)
(-0.00170867 -0.000492086 0.000142624)
(-0.00173907 -0.000502986 0.000125355)
(-0.0017707 -0.000513196 0.00010577)
(-0.00179717 -0.000522231 8.18978e-05)
(-0.00181995 -0.000529368 5.14224e-05)
(-0.00183211 -0.000533371 1.73087e-05)
(-6.22254e-05 9.95319e-06 4.11184e-05)
(-0.000114522 -6.37098e-06 -2.57658e-05)
(-0.000132127 -1.75868e-05 -4.16515e-05)
(-0.00014107 -3.60305e-05 -4.45019e-05)
(-0.0001515 -5.5452e-05 -4.23338e-05)
(-0.000173679 -7.78537e-05 -4.10244e-05)
(-0.000212142 -0.000106505 -4.29063e-05)
(-0.000263026 -0.000141997 -4.56687e-05)
(-0.000348764 -0.000190674 -4.28679e-05)
(-0.00046393 -0.000243858 -3.10751e-05)
(-0.000588993 -0.000289497 -1.06412e-05)
(-0.000716585 -0.000324411 1.62656e-05)
(-0.000839161 -0.000346925 4.58844e-05)
(-0.00095249 -0.00035897 7.49492e-05)
(-0.0010541 -0.000363654 0.000101053)
(-0.00114371 -0.000364485 0.000122929)
(-0.00122162 -0.000364107 0.000140191)
(-0.00128927 -0.000364419 0.000153141)
(-0.00134813 -0.000366391 0.000162341)
(-0.0013993 -0.000370231 0.000168318)
(-0.00144419 -0.000375863 0.000171509)
(-0.00148393 -0.000383062 0.000172144)
(-0.00151917 -0.000391417 0.000170267)
(-0.00155067 -0.000400656 0.000165606)
(-0.00157987 -0.000410362 0.000158325)
(-0.00160682 -0.000420295 0.000148123)
(-0.00163355 -0.00043023 0.000134903)
(-0.0016609 -0.000439711 0.000118444)
(-0.00169043 -0.000448643 0.000100102)
(-0.00171382 -0.000456499 7.7601e-05)
(-0.00173508 -0.000462754 4.86196e-05)
(-0.0017459 -0.000466094 1.63541e-05)
(-1.97806e-05 1.08864e-05 1.66209e-05)
(-2.89317e-05 -7.52489e-06 -2.68354e-05)
(-5.58633e-05 -1.73538e-05 -1.04156e-05)
(-7.59725e-05 -1.56658e-05 -2.47024e-05)
(-8.16801e-05 -2.55639e-05 -3.96279e-05)
(-8.12607e-05 -4.4589e-05 -4.18119e-05)
(-0.000101421 -7.22624e-05 -2.90743e-05)
(-0.000168194 -9.32006e-05 -2.62873e-05)
(-0.000249922 -0.000131746 -4.83046e-05)
(-0.000343063 -0.000179289 -4.92335e-05)
(-0.000468811 -0.000230471 -3.76231e-05)
(-0.000600074 -0.000270369 -1.67063e-05)
(-0.000729149 -0.000298175 1.00611e-05)
(-0.000849749 -0.000314091 3.87483e-05)
(-0.000958932 -0.000321077 6.63579e-05)
(-0.00105499 -0.000322448 9.08847e-05)
(-0.00113858 -0.000321496 0.00011144)
(-0.00121044 -0.0003204 0.000127836)
(-0.00127191 -0.000320515 0.000140335)
(-0.00132465 -0.000322503 0.000149341)
(-0.00136977 -0.000326345 0.000155169)
(-0.00140818 -0.000331838 0.000157996)
(-0.00144115 -0.000338672 0.000157942)
(-0.00146954 -0.000346568 0.00015469)
(-0.00149524 -0.000354971 0.000148561)
(-0.00151864 -0.00036377 0.000139381)
(-0.00154175 -0.000372558 0.00012696)
(-0.00156562 -0.000380743 0.000111265)
(-0.0015919 -0.000388313 9.41683e-05)
(-0.00161243 -0.000395283 7.31266e-05)
(-0.0016311 -0.000400512 4.56584e-05)
(-0.00164114 -0.000403434 1.53515e-05)
(-1.52259e-06 1.15179e-05 2.07989e-05)
(-3.47364e-06 3.42859e-06 -1.21161e-05)
(-1.28916e-05 -1.65457e-06 -1.25997e-05)
(-2.27582e-05 -4.21683e-06 -2.07698e-05)
(-3.22527e-05 -1.55412e-05 -2.86135e-05)
(-5.07323e-05 -3.47968e-05 -3.67695e-05)
(-5.85781e-05 -4.68205e-05 -3.41342e-05)
(-6.28529e-05 -5.17618e-05 -2.30628e-05)
(-0.000129116 -8.322e-05 -2.50631e-05)
(-0.000233939 -0.000116715 -4.27064e-05)
(-0.000339395 -0.000162568 -5.64094e-05)
(-0.00047355 -0.000213367 -4.39617e-05)
(-0.000607366 -0.000247627 -2.238e-05)
(-0.000733925 -0.000268635 4.19483e-06)
(-0.000848924 -0.000278724 3.20281e-05)
(-0.000951452 -0.000281815 5.84782e-05)
(-0.00104055 -0.000281075 8.19465e-05)
(-0.00111703 -0.000279268 0.000101741)
(-0.00118187 -0.000278149 0.000117705)
(-0.00123592 -0.000278567 0.000129869)
(-0.00128085 -0.000280827 0.000138452)
(-0.00131792 -0.000284923 0.000143614)
(-0.00134823 -0.000290462 0.000145453)
(-0.00137276 -0.0002972 0.000143579)
(-0.00139429 -0.000304445 0.000138551)
(-0.0014126 -0.000312063 0.000130289)
(-0.00143066 -0.000319669 0.000118533)
(-0.00145086 -0.000326708 0.000103597)
(-0.00147482 -0.000333337 8.79122e-05)
(-0.00149119 -0.000339342 6.83559e-05)
(-0.00150801 -0.000343859 4.25123e-05)
(-0.00151613 -0.000346201 1.42755e-05)
(1.7559e-05 1.10299e-05 4.04075e-05)
(4.42236e-06 1.86713e-05 1.37677e-07)
(5.27825e-06 1.28443e-05 -2.47699e-05)
(2.71129e-06 3.66481e-07 -2.04315e-05)
(-3.21927e-06 -4.99145e-06 -1.97917e-05)
(-1.69957e-05 -1.00988e-05 -2.73778e-05)
(-3.49196e-05 -2.49816e-05 -4.95947e-05)
(-4.24054e-05 -4.70878e-05 -5.49385e-05)
(-4.90519e-05 -6.99979e-05 -2.77567e-05)
(-9.57755e-05 -6.26635e-05 -1.32247e-05)
(-0.000242002 -0.000104347 -4.88065e-05)
(-0.000341897 -0.000150171 -6.29737e-05)
(-0.000473932 -0.000194203 -4.82203e-05)
(-0.00060652 -0.000221866 -2.61453e-05)
(-0.000729071 -0.000237212 -2.09184e-08)
(-0.000837246 -0.000243108 2.70638e-05)
(-0.000931274 -0.00024354 5.27163e-05)
(-0.00101113 -0.000241569 7.55016e-05)
(-0.00107779 -0.000239513 9.47164e-05)
(-0.00113265 -0.000238801 0.000110024)
(-0.0011769 -0.000239809 0.000121387)
(-0.00121162 -0.000242704 0.00012886)
(-0.00123846 -0.000247128 0.000132575)
(-0.0012588 -0.000253025 0.000132061)
(-0.00127585 -0.000259315 0.000128093)
(-0.00128976 -0.000266187 0.000120848)
(-0.00130362 -0.000273071 0.000109788)
(-0.00131974 -0.000279021 9.55458e-05)
(-0.00133951 -0.000284464 8.12649e-05)
(-0.00135259 -0.000289903 6.33296e-05)
(-0.0013664 -0.000293535 3.91511e-05)
(-0.00137405 -0.000295745 1.31415e-05)
(2.79187e-05 1.26628e-05 3.42494e-05)
(3.18318e-05 8.00267e-06 -6.15945e-06)
(3.57427e-05 5.65296e-06 -1.48724e-05)
(3.44016e-05 -1.96225e-06 -1.70026e-05)
(2.68135e-05 -6.8864e-06 -1.43733e-05)
(1.36727e-05 -6.53674e-06 -1.80572e-05)
(-1.29824e-05 -1.53406e-05 -3.39248e-05)
(-1.8754e-05 -2.52393e-05 -3.39095e-05)
(-2.2571e-05 -2.12499e-05 -3.86181e-05)
(-3.78217e-05 -4.59958e-05 -4.36525e-05)
(-7.39232e-05 -7.99327e-05 -2.87494e-05)
(-0.000214694 -0.000103293 -3.04584e-05)
(-0.00034197 -0.000133053 -5.97808e-05)
(-0.000473912 -0.000173764 -5.05507e-05)
(-0.000597886 -0.000194455 -2.81442e-05)
(-0.000710556 -0.000204645 -2.07212e-06)
(-0.000808835 -0.000207545 2.45845e-05)
(-0.000892587 -0.000206709 4.97185e-05)
(-0.000961775 -0.000204796 7.19404e-05)
(-0.00101677 -0.00020356 9.02076e-05)
(-0.00105987 -0.000203798 0.000104254)
(-0.00109205 -0.000205954 0.000114017)
(-0.00111536 -0.00020963 0.000119608)
(-0.00113045 -0.000214869 0.000120286)
(-0.0011425 -0.000220325 0.000117254)
(-0.00115034 -0.000226326 0.000110888)
(-0.00115795 -0.000232214 0.000100294)
(-0.00117021 -0.000237205 8.67743e-05)
(-0.00118759 -0.00024195 7.4173e-05)
(-0.00119566 -0.000246617 5.78738e-05)
(-0.00120706 -0.000249512 3.5516e-05)
(-0.00121224 -0.000251341 1.18971e-05)
(4.26638e-05 1.39833e-05 4.44819e-05)
(5.64953e-05 1.07737e-05 -8.41657e-06)
(6.12023e-05 6.05693e-06 -1.51845e-05)
(6.22208e-05 -2.87538e-06 -1.80637e-05)
(5.88601e-05 -1.30171e-05 -1.76357e-05)
(5.09886e-05 -2.03037e-05 -1.4324e-05)
(4.02313e-05 -3.03893e-05 1.20279e-05)
(7.55539e-08 1.64604e-05 9.10144e-06)
(-2.19448e-05 1.11088e-05 -4.57387e-05)
(-3.15552e-05 -2.84625e-05 -5.36567e-05)
(-3.03207e-05 -3.73747e-05 -3.12762e-05)
(-7.91344e-05 -4.41732e-05 -2.53309e-05)
(-0.000236822 -8.26128e-05 -5.64432e-05)
(-0.000331778 -0.000119762 -6.3689e-05)
(-0.000462833 -0.000150884 -4.94104e-05)
(-0.000579193 -0.000167007 -2.69352e-05)
(-0.000680365 -0.00017353 -9.65371e-07)
(-0.000765216 -0.000174479 2.5419e-05)
(-0.000834319 -0.000173265 4.99216e-05)
(-0.000888587 -0.000172308 7.07063e-05)
(-0.00092949 -0.000172239 8.70903e-05)
(-0.000958186 -0.000174059 9.89028e-05)
(-0.000976547 -0.000177049 0.000106124)
(-0.00098653 -0.000182053 0.000107882)
(-0.000993537 -0.000186742 0.000105656)
(-0.000996454 -0.000192201 0.000100306)
(-0.000999597 -0.000197478 9.02521e-05)
(-0.00100775 -0.000201464 7.74044e-05)
(-0.00102044 -0.000204996 6.65028e-05)
(-0.0010251 -0.000209337 5.20337e-05)
(-0.00103429 -0.000211595 3.16234e-05)
(-0.00103909 -0.000213622 1.0588e-05)
(5.22528e-05 1.36517e-05 4.73524e-05)
(7.23653e-05 1.02066e-05 -7.771e-06)
(8.1307e-05 5.99137e-06 -1.63031e-05)
(8.56504e-05 -2.15426e-06 -2.11982e-05)