/*--------------------------------*- C++ -*----------------------------------*\
  =========                 |
  \\      /  F ield         | OpenFOAM: The Open Source CFD Toolbox
   \\    /   O peration     | Website:  https://openfoam.org
    \\  /    A nd           | Version:  6
     \\/     M anipulation  |
\*---------------------------------------------------------------------------*/
FoamFile
{
    version     2.0;
    format      ascii;
    class       volVectorField;
    location    "80";
    object      U;
}
// * * * * * * * * * * * * * * * * * * * * * * * * * * * * * * * * * * * * * //

dimensions      [0 1 -1 0 0 0 0];

internalField   nonuniform List<vector> 
2160
(
(0.0665432 5.9875e-09 -5.7922e-10)
(0.0665425 -6.11571e-09 2.34083e-10)
(0.0665432 4.09792e-10 1.04036e-10)
(0.084532 4.68033e-09 -3.19494e-10)
(0.0845301 -7.26183e-09 2.57716e-10)
(0.0845318 3.02231e-09 7.16447e-11)
(0.0979139 -4.01074e-09 -4.6131e-10)
(0.0979119 -1.95909e-10 3.7294e-10)
(0.0979136 4.49803e-09 8.74038e-11)
(0.106915 -8.53624e-09 -5.10648e-10)
(0.106912 4.98487e-09 4.37679e-10)
(0.106914 3.73299e-09 7.53622e-11)
(0.113861 -1.42267e-08 -5.62662e-10)
(0.113859 1.12226e-08 5.10091e-10)
(0.113861 3.12143e-09 5.1072e-11)
(0.119529 -1.58155e-08 -5.7263e-10)
(0.119527 1.50903e-08 5.18757e-10)
(0.119529 8.61741e-10 5.36975e-11)
(0.124357 -1.77217e-08 -5.44087e-10)
(0.124355 1.88178e-08 4.82976e-10)
(0.124357 -9.52815e-10 5.89503e-11)
(0.128639 -1.83834e-08 -4.33316e-10)
(0.128636 2.19993e-08 3.39728e-10)
(0.128638 -3.44471e-09 9.40112e-11)
(0.132565 -2.20983e-08 -3.03414e-10)
(0.132563 2.47114e-08 2.30229e-10)
(0.132564 -2.60354e-09 7.39915e-11)
(0.136217 -1.34792e-08 -1.21616e-10)
(0.136215 1.91219e-08 1.22386e-10)
(0.136217 -5.7937e-09 -4.37682e-14)
(0.139565 -9.51473e-09 4.06564e-11)
(0.139563 1.82787e-08 -1.31217e-10)
(0.139565 -9.11232e-09 9.38319e-11)
(0.142493 -7.33263e-09 2.76522e-10)
(0.14249 1.37577e-08 -2.56625e-10)
(0.142493 -6.9055e-09 -1.32602e-11)
(0.144847 -4.04232e-09 3.51131e-10)
(0.144845 7.11452e-09 -4.10473e-10)
(0.144847 -3.26156e-09 -6.54691e-11)
(0.146507 -3.05893e-09 4.49142e-10)
(0.146504 4.1425e-09 -3.5844e-10)
(0.146507 -8.64368e-10 5.63271e-12)
(0.147398 -1.44861e-09 4.9335e-10)
(0.147395 1.46397e-09 -3.54446e-10)
(0.147398 -1.95833e-11 2.77112e-11)
(0.147397 1.37037e-09 3.75189e-10)
(0.147394 -1.71257e-09 -4.69333e-10)
(0.147397 1.72248e-10 -7.12192e-11)
(0.146503 2.3569e-09 3.6394e-10)
(0.146501 -3.62079e-09 -4.43518e-10)
(0.146503 1.79669e-09 -7.36691e-11)
(0.144841 4.21345e-09 4.29003e-10)
(0.144839 -7.1802e-09 -2.94703e-10)
(0.144841 3.27782e-09 4.22391e-11)
(0.142484 8.50705e-09 3.06737e-10)
(0.142482 -1.47487e-08 -2.34972e-10)
(0.142484 5.75699e-09 7.71708e-12)
(0.139556 1.00589e-08 -3.91088e-12)
(0.139554 -1.83519e-08 -1.48078e-10)
(0.139556 8.28817e-09 5.74552e-11)
(0.136207 1.38394e-08 -1.35502e-10)
(0.136205 -1.9206e-08 1.38267e-10)
(0.136207 5.69282e-09 6.29077e-12)
(0.132555 2.16463e-08 -3.03103e-10)
(0.132553 -2.43116e-08 2.4422e-10)
(0.132554 2.64149e-09 6.22712e-11)
(0.128628 1.73499e-08 -4.53503e-10)
(0.128626 -2.14493e-08 3.58834e-10)
(0.128628 3.94962e-09 9.39869e-11)
(0.124348 1.69444e-08 -5.5629e-10)
(0.124345 -1.85387e-08 4.87086e-10)
(0.124347 1.49739e-09 6.81821e-11)
(0.119521 1.47997e-08 -5.89138e-10)
(0.119519 -1.42858e-08 5.39863e-10)
(0.119521 -5.78805e-10 4.84292e-11)
(0.113854 1.50128e-08 -5.8496e-10)
(0.113852 -1.17576e-08 5.38458e-10)
(0.113854 -3.31158e-09 4.72526e-11)
(0.106907 9.1776e-09 -5.21714e-10)
(0.106905 -5.32731e-09 4.49275e-10)
(0.106907 -3.93067e-09 7.1571e-11)
(0.0979074 4.43539e-09 -4.67375e-10)
(0.0979053 2.17558e-10 3.7525e-10)
(0.0979071 -4.71856e-09 9.06424e-11)
(0.0845257 -4.34629e-09 -3.29087e-10)
(0.0845238 7.43378e-09 2.61485e-10)
(0.0845255 -3.12547e-09 6.61734e-11)
(0.066538 -5.81601e-09 -3.47988e-10)
(0.0665372 6.19835e-09 2.45102e-10)
(0.066538 -4.01192e-10 9.9962e-11)
(0.079166 6.70999e-09 -7.17701e-10)
(0.0791657 -6.97372e-09 3.71598e-10)
(0.079166 3.83995e-10 1.60038e-10)
(0.113975 5.92146e-09 -7.93507e-10)
(0.113976 -9.18207e-09 6.37897e-10)
(0.113974 3.45067e-09 1.73277e-10)
(0.130022 -4.72999e-09 -1.05403e-09)
(0.130023 -5.05106e-10 8.56759e-10)
(0.130021 5.48055e-09 1.95122e-10)
(0.140361 -1.06022e-08 -1.19528e-09)
(0.140362 6.04129e-09 1.03797e-09)
(0.140361 4.75573e-09 1.61436e-10)
(0.148178 -1.77033e-08 -1.29961e-09)
(0.148178 1.35481e-08 1.19348e-09)
(0.148178 4.29453e-09 1.05726e-10)
(0.154479 -1.97323e-08 -1.33261e-09)
(0.154479 1.80929e-08 1.21083e-09)
(0.154479 1.79786e-09 1.21577e-10)
(0.159802 -2.22014e-08 -1.26979e-09)
(0.159802 2.26825e-08 1.09764e-09)
(0.159802 -3.20823e-10 1.7018e-10)
(0.164497 -2.25219e-08 -9.91754e-10)
(0.164497 2.59399e-08 7.86106e-10)
(0.164496 -3.21275e-09 2.07188e-10)
(0.168784 -2.66518e-08 -7.03307e-10)
(0.168784 2.87553e-08 5.38799e-10)
(0.168784 -2.09289e-09 1.6762e-10)
(0.172759 -1.61626e-08 -2.45996e-10)
(0.172759 2.17183e-08 2.61044e-10)
(0.172759 -5.75035e-09 -1.23036e-11)
(0.176394 -1.13094e-08 9.45469e-11)
(0.176395 2.05544e-08 -2.95025e-10)
(0.176394 -9.62464e-09 2.03036e-10)
(0.179567 -8.67809e-09 6.24412e-10)
(0.179567 1.60918e-08 -5.97364e-10)
(0.179567 -7.67856e-09 -1.39828e-11)
(0.182113 -5.01816e-09 8.39608e-10)
(0.182113 8.07551e-09 -8.79815e-10)
(0.182113 -3.76023e-09 -8.04331e-11)
(0.183906 -3.90693e-09 9.65146e-10)
(0.183906 4.45529e-09 -8.7127e-10)
(0.183906 -1.1501e-09 -6.86805e-12)
(0.184867 -1.42775e-09 1.03592e-09)
(0.184867 2.01225e-09 -9.11968e-10)
(0.184867 3.00709e-10 2.59147e-11)
(0.184865 1.94463e-09 9.29074e-10)
(0.184865 -1.65014e-09 -1.00576e-09)
(0.184865 4.76018e-10 -7.0514e-11)
(0.183902 2.45704e-09 8.82244e-10)
(0.183902 -4.57843e-09 -9.45337e-10)
(0.183902 1.62847e-09 -7.82618e-11)
(0.182106 4.76501e-09 8.97098e-10)
(0.182107 -8.62363e-09 -7.59041e-10)
(0.182107 3.34216e-09 2.95491e-11)
(0.179558 1.04067e-08 6.51113e-10)
(0.179558 -1.68093e-08 -5.86245e-10)
(0.179558 6.65004e-09 2.20706e-12)
(0.176384 1.21149e-08 4.12471e-11)
(0.176384 -2.06787e-08 -2.9175e-10)
(0.176384 8.96156e-09 1.55808e-10)
(0.172748 1.63881e-08 -2.79645e-10)
(0.172749 -2.18361e-08 3.06813e-10)
(0.172748 5.53798e-09 -1.07799e-11)
(0.168772 2.62086e-08 -7.09295e-10)
(0.168773 -2.84182e-08 5.63576e-10)
(0.168772 2.09802e-09 1.49839e-10)
(0.164485 2.12924e-08 -1.03207e-09)
(0.164485 -2.52521e-08 8.29903e-10)
(0.164485 3.75728e-09 2.02343e-10)
(0.159792 2.12074e-08 -1.29034e-09)
(0.159792 -2.2318e-08 1.1334e-09)
(0.159791 9.72466e-10 1.55123e-10)
(0.15447 1.84615e-08 -1.35919e-09)
(0.15447 -1.71637e-08 1.25351e-09)
(0.15447 -1.39995e-09 1.0435e-10)
(0.14817 1.86127e-08 -1.34859e-09)
(0.14817 -1.41981e-08 1.25557e-09)
(0.14817 -4.49926e-09 9.4122e-11)
(0.140353 1.13479e-08 -1.22007e-09)
(0.140354 -6.46005e-09 1.06472e-09)
(0.140353 -4.99518e-09 1.54593e-10)
(0.130015 5.12144e-09 -1.06562e-09)
(0.130015 5.11511e-10 8.64856e-10)
(0.130014 -5.72041e-09 1.98887e-10)
(0.113967 -5.88285e-09 -8.10657e-10)
(0.113968 9.37219e-09 6.43586e-10)
(0.113967 -3.53746e-09 1.65144e-10)
(0.0791603 -6.71576e-09 -5.43164e-10)
(0.07916 7.06566e-09 3.80559e-10)
(0.0791604 -3.72374e-10 1.59151e-10)
(0.0933568 7.50606e-09 -1.20463e-09)
(0.0933587 -7.5819e-09 8.32499e-10)
(0.0933568 1.90446e-10 2.77293e-10)
(0.141082 7.29966e-09 -1.65222e-09)
(0.141088 -1.05228e-08 1.22061e-09)
(0.141082 3.39169e-09 4.58843e-10)
(0.160132 -4.72337e-09 -2.05064e-09)
(0.160138 -9.44659e-10 1.53476e-09)
(0.160132 5.93329e-09 5.11152e-10)
(0.172052 -1.16339e-08 -2.3989e-09)
(0.172058 6.45698e-09 1.95002e-09)
(0.172051 5.39993e-09 4.55614e-10)
(0.180885 -1.9681e-08 -2.61838e-09)
(0.180891 1.47217e-08 2.27893e-09)
(0.180885 5.13345e-09 3.38794e-10)
(0.187916 -2.21359e-08 -2.74099e-09)
(0.187922 1.97553e-08 2.36667e-09)
(0.187915 2.58156e-09 3.73874e-10)
(0.193805 -2.52052e-08 -2.64568e-09)
(0.193812 2.48932e-08 2.15e-09)
(0.193805 5.0938e-10 4.92677e-10)
(0.198969 -2.55156e-08 -2.07591e-09)
(0.198975 2.82211e-08 1.53076e-09)
(0.198969 -2.44602e-09 5.49847e-10)
(0.203664 -2.95651e-08 -1.49676e-09)
(0.203671 3.07573e-08 1.04189e-09)
(0.203664 -1.16828e-09 4.64121e-10)
(0.208006 -1.82614e-08 -5.78833e-10)
(0.208012 2.27737e-08 4.75608e-10)
(0.208006 -4.73761e-09 1.09861e-10)
(0.211969 -1.25722e-08 1.16574e-10)
(0.211975 2.15884e-08 -5.7531e-10)
(0.211969 -9.40198e-09 4.6009e-10)
(0.215421 -9.72624e-09 1.14733e-09)
(0.215427 1.76768e-08 -1.12065e-09)
(0.215421 -8.046e-09 6.91425e-13)
(0.21819 -5.78381e-09 1.61916e-09)
(0.218196 8.74383e-09 -1.59614e-09)
(0.21819 -4.0027e-09 -1.0872e-10)
(0.220135 -4.49245e-09 1.7763e-09)
(0.220142 4.61699e-09 -1.68503e-09)
(0.220135 -1.28586e-09 -5.36198e-11)
(0.221175 -1.36908e-09 1.95321e-09)
(0.221182 2.2993e-09 -1.84628e-09)
(0.221175 5.16499e-10 -2.71372e-11)
(0.221173 2.26562e-09 1.8893e-09)
(0.22118 -1.55027e-09 -1.88892e-09)
(0.221174 6.38386e-10 -7.40097e-11)
(0.22013 2.56774e-09 1.72157e-09)
(0.220137 -5.20952e-09 -1.7165e-09)
(0.22013 1.45454e-09 -8.56703e-11)
(0.218182 5.2655e-09 1.60501e-09)
(0.218189 -9.60903e-09 -1.48778e-09)
(0.218182 3.31503e-09 -1.1008e-11)
(0.215411 1.17912e-08 1.15567e-09)
(0.215418 -1.81206e-08 -1.12767e-09)
(0.215411 7.12696e-09 3.09405e-12)
(0.211957 1.35179e-08 6.79835e-11)
(0.211964 -2.17362e-08 -5.55388e-10)
(0.211957 8.89766e-09 4.07821e-10)
(0.207994 1.8286e-08 -6.36565e-10)
(0.208 -2.28941e-08 5.66819e-10)
(0.207994 4.50422e-09 1.06057e-10)
(0.203651 2.93937e-08 -1.51546e-09)
(0.203658 -3.07027e-08 1.09348e-09)
(0.203651 1.1066e-09 4.28932e-10)
(0.198956 2.41465e-08 -2.15508e-09)
(0.198962 -2.74916e-08 1.61708e-09)
(0.198955 3.09758e-09 5.37152e-10)
(0.193793 2.40437e-08 -2.69149e-09)
(0.193799 -2.44511e-08 2.2361e-09)
(0.193793 2.47149e-10 4.51474e-10)
(0.187905 2.12434e-08 -2.79741e-09)
(0.187911 -1.91853e-08 2.46035e-09)
(0.187905 -2.18408e-09 3.34887e-10)
(0.180875 2.06658e-08 -2.718e-09)
(0.180881 -1.54002e-08 2.40303e-09)
(0.180875 -5.37649e-09 3.16869e-10)
(0.172043 1.24535e-08 -2.44619e-09)
(0.172048 -6.9083e-09 2.00097e-09)
(0.172042 -5.67801e-09 4.44079e-10)
(0.160123 5.12764e-09 -2.06999e-09)
(0.160129 9.65717e-10 1.54734e-09)
(0.160123 -6.19994e-09 5.18899e-10)
(0.141074 -7.31744e-09 -1.68239e-09)
(0.141079 1.07355e-08 1.22952e-09)
(0.141074 -3.47686e-09 4.48636e-10)
(0.0933506 -7.52854e-09 -1.12957e-09)
(0.0933526 7.67771e-09 8.41206e-10)
(0.0933507 -1.75462e-10 2.82043e-10)
(0.103034 7.92946e-09 -1.77295e-09)
(0.103034 -7.75835e-09 1.31354e-09)
(0.103034 -4.88348e-11 3.85838e-10)
(0.154451 8.05108e-09 -2.39311e-09)
(0.154452 -1.10273e-08 1.66013e-09)
(0.154451 3.18771e-09 7.62453e-10)
(0.175072 -4.35464e-09 -2.8582e-09)
(0.175073 -1.29395e-09 2.01039e-09)
(0.175072 5.94031e-09 8.4116e-10)
(0.187972 -1.15714e-08 -3.40709e-09)
(0.187973 6.27492e-09 2.64388e-09)
(0.187971 5.5411e-09 7.72103e-10)
(0.197441 -1.98185e-08 -3.73014e-09)
(0.197442 1.46238e-08 3.12608e-09)
(0.19744 5.38995e-09 6.03454e-10)
(0.20492 -2.2433e-08 -3.95107e-09)
(0.204921 1.97525e-08 3.29921e-09)
(0.20492 2.90377e-09 6.50816e-10)
(0.211151 -2.58063e-08 -3.84799e-09)
(0.211153 2.50577e-08 3.0045e-09)
(0.211151 9.65579e-10 8.39589e-10)
(0.216593 -2.62938e-08 -3.04868e-09)
(0.216594 2.84709e-08 2.13605e-09)
(0.216593 -1.89293e-09 9.19931e-10)
(0.221528 -2.98986e-08 -2.21316e-09)
(0.221529 3.04942e-08 1.43867e-09)
(0.221528 -5.64277e-10 7.89612e-10)
(0.226082 -1.90756e-08 -9.0201e-10)
(0.226084 2.24731e-08 6.12126e-10)
(0.226082 -3.62185e-09 3.00607e-10)
(0.230235 -1.28706e-08 1.03056e-10)
(0.230237 2.14725e-08 -8.19727e-10)
(0.230235 -8.99179e-09 7.16547e-10)
(0.23385 -1.00833e-08 1.52265e-09)
(0.233852 1.81513e-08 -1.52079e-09)
(0.23385 -8.16071e-09 3.67932e-11)
(0.236748 -6.04348e-09 2.19528e-09)
(0.236749 9.00167e-09 -2.14114e-09)
(0.236748 -4.04965e-09 -1.31445e-10)
(0.238783 -4.62277e-09 2.39297e-09)
(0.238785 4.67935e-09 -2.2969e-09)
(0.238784 -1.26983e-09 -7.79193e-11)
(0.239871 -1.31067e-09 2.66638e-09)
(0.239873 2.27312e-09 -2.55008e-09)
(0.239871 5.48528e-10 -5.53029e-11)
(0.239869 2.24976e-09 2.6132e-09)
(0.239871 -1.48508e-09 -2.57609e-09)
(0.23987 6.43246e-10 -8.90659e-11)
(0.238778 2.67565e-09 2.34305e-09)
(0.23878 -5.3517e-09 -2.30996e-09)
(0.238779 1.43732e-09 -9.37772e-11)
(0.23674 5.49863e-09 2.13801e-09)
(0.236742 -9.90924e-09 -2.02586e-09)
(0.23674 3.33961e-09 -2.48991e-11)
(0.23384 1.21516e-08 1.51769e-09)
(0.233842 -1.85192e-08 -1.53862e-09)
(0.23384 7.21324e-09 3.33447e-11)
(0.230223 1.38146e-08 6.3107e-11)
(0.230224 -2.16415e-08 -7.95946e-10)
(0.230223 8.52706e-09 6.57599e-10)
(0.226069 1.89733e-08 -9.74123e-10)
(0.226071 -2.25696e-08 7.46307e-10)
(0.226069 3.46113e-09 2.80324e-10)
(0.221514 3.0073e-08 -2.24748e-09)
(0.221515 -3.07581e-08 1.51677e-09)
(0.221514 4.61728e-10 7.38952e-10)
(0.216579 2.48615e-08 -3.15776e-09)
(0.21658 -2.77236e-08 2.26051e-09)
(0.216579 2.59622e-09 8.95145e-10)
(0.211138 2.45585e-08 -3.91718e-09)
(0.211139 -2.45652e-08 3.14313e-09)
(0.211138 -1.63466e-10 7.67815e-10)
(0.204908 2.17355e-08 -4.02711e-09)
(0.204909 -1.93464e-08 3.43271e-09)
(0.204908 -2.52481e-09 5.91186e-10)
(0.19743 2.07987e-08 -3.87029e-09)
(0.197431 -1.52786e-08 3.30069e-09)
(0.197429 -5.64298e-09 5.7181e-10)
(0.187962 1.24045e-08 -3.47342e-09)
(0.187963 -6.7213e-09 2.7139e-09)
(0.187961 -5.82812e-09 7.57808e-10)
(0.175063 4.77139e-09 -2.88398e-09)
(0.175064 1.32583e-09 2.02524e-09)
(0.175062 -6.21286e-09 8.52663e-10)
(0.154442 -8.04125e-09 -2.43018e-09)
(0.154443 1.12483e-08 1.67108e-09)
(0.154442 -3.27206e-09 7.52379e-10)
(0.103028 -7.94829e-09 -1.72971e-09)
(0.103028 7.85487e-09 1.32549e-09)
(0.103028 6.41425e-11 3.94545e-10)
(0.112101 8.21852e-09 -2.41508e-09)
(0.112101 -7.77006e-09 1.83092e-09)
(0.112101 -3.42955e-10 4.92265e-10)
(0.16487 8.61227e-09 -3.13053e-09)
(0.16487 -1.13862e-08 2.05503e-09)
(0.16487 3.00219e-09 1.10424e-09)
(0.1866 -3.9023e-09 -3.62114e-09)
(0.186601 -1.65556e-09 2.41562e-09)
(0.1866 5.86184e-09 1.19902e-09)
(0.200336 -1.11926e-08 -4.38076e-09)
(0.200336 5.90836e-09 3.27409e-09)
(0.200335 5.54337e-09 1.11813e-09)
(0.210358 -1.94027e-08 -4.8028e-09)
(0.210358 1.41565e-08 3.90158e-09)
(0.210358 5.4566e-09 9.00731e-10)
(0.218224 -2.20702e-08 -5.11884e-09)
(0.218224 1.92597e-08 4.16733e-09)
(0.218224 3.04901e-09 9.5013e-10)
(0.224744 -2.56635e-08 -5.02757e-09)
(0.224744 2.46589e-08 3.81112e-09)
(0.224744 1.23563e-09 1.21147e-09)
(0.230415 -2.64028e-08 -4.04668e-09)
(0.230415 2.82008e-08 2.71584e-09)
(0.230415 -1.49817e-09 1.34041e-09)
(0.235545 -2.94787e-08 -2.94331e-09)
(0.235545 2.96477e-08 1.80134e-09)
(0.235545 -1.3286e-10 1.16281e-09)
(0.240271 -1.94402e-08 -1.22577e-09)
(0.240271 2.18821e-08 6.95878e-10)
(0.240271 -2.65329e-09 5.4435e-10)
(0.244576 -1.29006e-08 7.55025e-11)
(0.244576 2.1106e-08 -1.08051e-09)
(0.244576 -8.59177e-09 1.00368e-09)
(0.248322 -1.02393e-08 1.83025e-09)
(0.248322 1.83953e-08 -1.88102e-09)
(0.248322 -8.2664e-09 1.0211e-10)
(0.251323 -6.18661e-09 2.68385e-09)
(0.251323 9.19639e-09 -2.61769e-09)
(0.251323 -4.10544e-09 -1.40019e-10)
(0.253429 -4.66187e-09 2.92151e-09)
(0.253429 4.72532e-09 -2.83359e-09)
(0.25343 -1.25617e-09 -8.67935e-11)
(0.254555 -1.26212e-09 3.27937e-09)
(0.254555 2.22049e-09 -3.16942e-09)
(0.254555 5.45959e-10 -7.0699e-11)
(0.254553 2.19332e-09 3.24168e-09)
(0.254553 -1.44508e-09 -3.17486e-09)
(0.254553 6.39513e-10 -9.38468e-11)
(0.253424 2.76103e-09 2.87315e-09)
(0.253424 -5.42563e-09 -2.83078e-09)
(0.253425 1.46288e-09 -8.83189e-11)
(0.251315 5.64668e-09 2.58664e-09)
(0.251315 -1.01057e-08 -2.49256e-09)
(0.251315 3.40793e-09 -1.95989e-11)
(0.248311 1.22592e-08 1.81073e-09)
(0.248311 -1.87167e-08 -1.90896e-09)
(0.248311 7.2766e-09 9.45967e-11)
(0.244563 1.38227e-08 4.72236e-11)
(0.244563 -2.12888e-08 -1.05646e-09)
(0.244563 8.14332e-09 9.34167e-10)
(0.240257 1.94606e-08 -1.31844e-09)
(0.240257 -2.19427e-08 8.7579e-10)
(0.240257 2.33764e-09 5.12211e-10)
(0.23553 2.99428e-08 -2.99566e-09)
(0.23553 -3.01733e-08 1.90887e-09)
(0.23553 -1.28906e-12 1.09647e-09)
(0.2304 2.49128e-08 -4.17573e-09)
(0.2304 -2.74245e-08 2.87737e-09)
(0.2304 2.23239e-09 1.29483e-09)
(0.22473 2.43422e-08 -5.11715e-09)
(0.22473 -2.41171e-08 4.00316e-09)
(0.22473 -4.04669e-10 1.10551e-09)
(0.218211 2.14562e-08 -5.2138e-09)
(0.218211 -1.89218e-08 4.34019e-09)
(0.218211 -2.67895e-09 8.69542e-10)
(0.210346 2.03486e-08 -4.9803e-09)
(0.210346 -1.47749e-08 4.12307e-09)
(0.210346 -5.70531e-09 8.6009e-10)
(0.200325 1.20171e-08 -4.46521e-09)
(0.200325 -6.34227e-09 3.36162e-09)
(0.200325 -5.8285e-09 1.10143e-09)
(0.18659 4.31841e-09 -3.65461e-09)
(0.186591 1.69189e-09 2.43056e-09)
(0.18659 -6.13268e-09 1.21557e-09)
(0.16486 -8.5931e-09 -3.17393e-09)
(0.16486 1.16075e-08 2.06919e-09)
(0.16486 -3.08387e-09 1.09506e-09)
(0.112094 -8.2521e-09 -2.36665e-09)
(0.112094 7.86201e-09 1.8495e-09)
(0.112094 3.5836e-10 5.03609e-10)
(0.122701 8.3894e-09 -3.21962e-09)
(0.122698 -7.65714e-09 2.473e-09)
(0.122701 -6.53774e-10 6.37263e-10)
(0.173654 8.78438e-09 -3.92779e-09)
(0.173654 -1.13709e-08 2.45564e-09)
(0.173654 2.80571e-09 1.49319e-09)
(0.196645 -3.24899e-09 -4.40321e-09)
(0.196644 -2.11473e-09 2.7915e-09)
(0.196644 5.66625e-09 1.60519e-09)
(0.211268 -1.04703e-08 -5.37408e-09)
(0.211266 5.30006e-09 3.88142e-09)
(0.211267 5.43921e-09 1.50625e-09)
(0.221884 -1.83023e-08 -5.88223e-09)
(0.221883 1.31851e-08 4.63679e-09)
(0.221884 5.34163e-09 1.24524e-09)
(0.230161 -2.09602e-08 -6.28726e-09)
(0.23016 1.81548e-08 4.99938e-09)
(0.230161 3.05716e-09 1.28572e-09)
(0.236979 -2.46738e-08 -6.23461e-09)
(0.236977 2.35613e-08 4.60087e-09)
(0.236979 1.357e-09 1.62785e-09)
(0.242879 -2.58118e-08 -5.15778e-09)
(0.242878 2.72944e-08 3.31817e-09)
(0.242879 -1.17339e-09 1.85282e-09)
(0.248198 -2.83963e-08 -3.75478e-09)
(0.248196 2.82442e-08 2.15509e-09)
(0.248198 1.93057e-10 1.62791e-09)
(0.253086 -1.93296e-08 -1.56535e-09)
(0.253085 2.09996e-08 7.08781e-10)
(0.253086 -1.85652e-09 8.75924e-10)
(0.257533 -1.26801e-08 4.6845e-11)
(0.257532 2.0413e-08 -1.38978e-09)
(0.257533 -8.10204e-09 1.34124e-09)
(0.261401 -1.01667e-08 2.08016e-09)
(0.261399 1.83174e-08 -2.23341e-09)
(0.261401 -8.28716e-09 2.17015e-10)
(0.264499 -6.23616e-09 3.11205e-09)
(0.264497 9.34457e-09 -3.04867e-09)
(0.264499 -4.18147e-09 -1.37284e-10)
(0.266673 -4.62504e-09 3.39594e-09)
(0.266671 4.74857e-09 -3.32436e-09)
(0.266673 -1.25589e-09 -8.53654e-11)
(0.267833 -1.21225e-09 3.83094e-09)
(0.267832 2.15264e-09 -3.72419e-09)
(0.267834 5.19049e-10 -7.81248e-11)
(0.267832 2.10761e-09 3.79886e-09)
(0.26783 -1.41723e-09 -3.71781e-09)
(0.267832 6.38402e-10 -9.47345e-11)
(0.266668 2.81863e-09 3.34182e-09)
(0.266666 -5.45657e-09 -3.30581e-09)
(0.266668 1.51833e-09 -7.18569e-11)
(0.26449 5.71917e-09 2.97452e-09)
(0.264488 -1.02273e-08 -2.91222e-09)
(0.264491 3.51273e-09 4.35248e-12)
(0.26139 1.20934e-08 2.0463e-09)
(0.261388 -1.85969e-08 -2.27253e-09)
(0.26139 7.25862e-09 2.08219e-10)
(0.25752 1.35674e-08 3.20305e-11)
(0.257519 -2.06011e-08 -1.36477e-09)
(0.25752 7.6575e-09 1.25719e-09)
(0.253072 1.94748e-08 -1.67303e-09)
(0.25307 -2.10229e-08 9.40903e-10)
(0.253072 1.39534e-09 8.19289e-10)
(0.248182 2.90352e-08 -3.82953e-09)
(0.24818 -2.8933e-08 2.30259e-09)
(0.248182 -3.3817e-10 1.53916e-09)
(0.242864 2.42766e-08 -5.28158e-09)
(0.242863 -2.64882e-08 3.51398e-09)
(0.242864 1.92259e-09 1.76258e-09)
(0.236964 2.32989e-08 -6.33725e-09)
(0.236962 -2.29739e-08 4.84402e-09)
(0.236964 -5.15442e-10 1.48178e-09)
(0.230147 2.03727e-08 -6.39692e-09)
(0.230146 -1.78359e-08 5.20662e-09)
(0.230147 -2.69095e-09 1.18516e-09)
(0.221871 1.91552e-08 -6.09724e-09)
(0.22187 -1.3727e-08 4.90418e-09)
(0.221871 -5.56868e-09 1.19624e-09)
(0.211256 1.12595e-08 -5.47882e-09)
(0.211255 -5.7079e-09 3.9868e-09)
(0.211256 -5.71254e-09 1.48912e-09)
(0.196634 3.65176e-09 -4.44586e-09)
(0.196633 2.14743e-09 2.80698e-09)
(0.196634 -5.92722e-09 1.62727e-09)
(0.173644 -8.76646e-09 -3.9744e-09)
(0.173644 1.15775e-08 2.47032e-09)
(0.173644 -2.88399e-09 1.49097e-09)
(0.122693 -8.44249e-09 -3.16631e-09)
(0.12269 7.7386e-09 2.49522e-09)
(0.122693 6.69206e-10 6.52809e-10)
(0.138537 8.40282e-09 -4.71425e-09)
(0.138541 -7.41248e-09 3.66325e-09)
(0.138537 -9.55687e-10 9.18771e-10)
(0.186358 8.9517e-09 -5.24058e-09)
(0.186365 -1.14154e-08 3.13197e-09)
(0.186358 2.64689e-09 2.1131e-09)
(0.210422 -2.26525e-09 -5.58457e-09)
(0.210428 -2.85236e-09 3.36242e-09)
(0.210422 5.40481e-09 2.21553e-09)
(0.226219 -9.04905e-09 -6.83907e-09)
(0.226226 4.15204e-09 4.7965e-09)
(0.226219 5.17394e-09 2.05981e-09)
(0.237705 -1.60288e-08 -7.42747e-09)
(0.237712 1.13166e-08 5.69602e-09)
(0.237705 4.95441e-09 1.73195e-09)
(0.246597 -1.83892e-08 -7.9288e-09)
(0.246604 1.58776e-08 6.16425e-09)
(0.246597 2.78215e-09 1.76201e-09)
(0.253855 -2.22581e-08 -8.01574e-09)
(0.253862 2.1322e-08 5.76871e-09)
(0.253855 1.19814e-09 2.24016e-09)
(0.260087 -2.41847e-08 -6.92658e-09)
(0.260094 2.55441e-08 4.26482e-09)
(0.260087 -1.04059e-09 2.68154e-09)
(0.26567 -2.66635e-08 -5.09121e-09)
(0.265678 2.62832e-08 2.69519e-09)
(0.26567 4.2587e-10 2.43623e-09)
(0.270782 -1.87433e-08 -2.06289e-09)
(0.27079 1.96778e-08 6.45884e-10)
(0.270782 -1.07142e-09 1.44394e-09)
(0.275423 -1.21909e-08 2.01353e-11)
(0.275431 1.93464e-08 -1.94463e-09)
(0.275423 -7.48506e-09 1.92304e-09)
(0.279455 -9.88739e-09 2.39779e-09)
(0.279463 1.79785e-08 -2.79604e-09)
(0.279455 -8.26044e-09 4.84471e-10)
(0.282682 -6.24457e-09 3.68816e-09)
(0.282691 9.60635e-09 -3.66618e-09)
(0.282682 -4.37924e-09 -1.00005e-10)
(0.284945 -4.54239e-09 4.04865e-09)
(0.284954 4.82716e-09 -4.02592e-09)
(0.284946 -1.30678e-09 -6.17583e-11)
(0.286152 -1.15665e-09 4.58127e-09)
(0.286161 2.07393e-09 -4.5093e-09)
(0.286152 4.54068e-10 -6.19978e-11)
(0.28615 1.98798e-09 4.553e-09)
(0.286159 -1.4211e-09 -4.47828e-09)
(0.28615 6.52285e-10 -6.59201e-11)
(0.28494 2.8909e-09 3.98138e-09)
(0.284948 -5.53106e-09 -3.97975e-09)
(0.28494 1.66583e-09 -2.33427e-11)
(0.282673 5.76874e-09 3.49347e-09)
(0.282682 -1.04085e-08 -3.51293e-09)
(0.282673 3.74839e-09 7.72928e-11)
(0.279443 1.16702e-08 2.34275e-09)
(0.279451 -1.81955e-08 -2.85753e-09)
(0.279443 7.16965e-09 4.74559e-10)
(0.27541 1.3022e-08 2.45477e-11)
(0.275418 -1.9538e-08 -1.91817e-09)
(0.27541 7.03376e-09 1.81247e-09)
(0.270767 1.90241e-08 -2.18987e-09)
(0.270775 -1.96491e-08 9.65634e-10)
(0.270767 4.49505e-10 1.34056e-09)
(0.265654 2.74052e-08 -5.20176e-09)
(0.265662 -2.70939e-08 2.92245e-09)
(0.265654 -5.49109e-10 2.29664e-09)
(0.26007 2.25608e-08 -6.99736e-09)
(0.260078 -2.46643e-08 4.50484e-09)
(0.26007 1.80458e-09 2.48561e-09)
(0.253839 2.08502e-08 -8.11761e-09)
(0.253847 -2.06926e-08 6.07384e-09)
(0.253839 -3.62629e-10 2.028e-09)
(0.246582 1.78319e-08 -8.02898e-09)
(0.246589 -1.55758e-08 6.38765e-09)
(0.246582 -2.4236e-09 1.63521e-09)
(0.237692 1.66648e-08 -7.68091e-09)
(0.237699 -1.16778e-08 6.01307e-09)
(0.237692 -5.13999e-09 1.67249e-09)
(0.226206 9.76597e-09 -6.97594e-09)
(0.226213 -4.51781e-09 4.9292e-09)
(0.226206 -5.41897e-09 2.04319e-09)
(0.210411 2.6356e-09 -5.64279e-09)
(0.210417 2.87617e-09 3.37766e-09)
(0.210411 -5.64749e-09 2.24823e-09)
(0.186348 -8.95334e-09 -5.29299e-09)
(0.186354 1.15936e-08 3.14919e-09)
(0.186347 -2.71794e-09 2.12461e-09)
(0.138529 -8.48585e-09 -4.65668e-09)
(0.138533 7.46645e-09 3.69099e-09)
(0.138529 9.81199e-10 9.39134e-10)
(0.149974 8.13169e-09 -6.05545e-09)
(0.149974 -7.27788e-09 4.76859e-09)
(0.149974 -8.50181e-10 1.13286e-09)
(0.195295 8.95393e-09 -6.26906e-09)
(0.195297 -1.14807e-08 3.68522e-09)
(0.195294 2.67401e-09 2.57094e-09)
(0.219662 -1.58393e-09 -6.40728e-09)
(0.219664 -3.42266e-09 3.78206e-09)
(0.219662 5.27667e-09 2.61614e-09)
(0.236198 -7.79929e-09 -7.82836e-09)
(0.2362 3.13463e-09 5.45709e-09)
(0.236198 4.94592e-09 2.38976e-09)
(0.248317 -1.39341e-08 -8.38777e-09)
(0.248319 9.63115e-09 6.37096e-09)
(0.248317 4.55911e-09 2.01629e-09)
(0.257682 -1.58637e-08 -8.8772e-09)
(0.257684 1.37391e-08 6.82488e-09)
(0.257681 2.40947e-09 2.04865e-09)
(0.265284 -1.96971e-08 -9.21357e-09)
(0.265286 1.9132e-08 6.56433e-09)
(0.265284 8.4169e-10 2.63949e-09)
(0.271773 -2.2411e-08 -8.25258e-09)
(0.271775 2.39531e-08 4.99108e-09)
(0.271773 -1.21715e-09 3.28633e-09)
(0.277559 -2.5419e-08 -6.16436e-09)
(0.27756 2.50595e-08 3.11339e-09)
(0.277558 4.0899e-10 3.1004e-09)
(0.282838 -1.80382e-08 -2.3989e-09)
(0.28284 1.87672e-08 5.55282e-10)
(0.282838 -8.19518e-10 1.8765e-09)
(0.287622 -1.17405e-08 2.86274e-11)
(0.287624 1.85731e-08 -2.42231e-09)
(0.287623 -7.12183e-09 2.39418e-09)
(0.291775 -9.55446e-09 2.59268e-09)
(0.291777 1.74992e-08 -3.25854e-09)
(0.291775 -8.13153e-09 7.71521e-10)
(0.295097 -6.20424e-09 4.06868e-09)
(0.2951 9.81281e-09 -4.11369e-09)
(0.295097 -4.57221e-09 -3.97563e-11)
(0.297428 -4.46952e-09 4.49013e-09)
(0.29743 4.92253e-09 -4.52497e-09)
(0.297428 -1.38464e-09 -2.17638e-11)
(0.29867 -1.12968e-09 5.08847e-09)
(0.298672 2.03396e-09 -5.06592e-09)
(0.29867 3.91689e-10 -2.18296e-11)
(0.298668 1.90886e-09 5.04771e-09)
(0.29867 -1.45552e-09 -5.01329e-09)
(0.298668 6.74194e-10 -1.08945e-11)
(0.297422 2.93547e-09 4.40997e-09)
(0.297424 -5.61334e-09 -4.45571e-09)
(0.297422 1.82004e-09 3.08899e-11)
(0.295088 5.76057e-09 3.84292e-09)
(0.295091 -1.05244e-08 -3.94703e-09)
(0.295088 3.95941e-09 1.62451e-10)
(0.291763 1.12322e-08 2.52415e-09)
(0.291765 -1.76593e-08 -3.34151e-09)
(0.291763 6.9853e-09 7.62958e-10)
(0.287608 1.25295e-08 4.07373e-11)
(0.28761 -1.87643e-08 -2.39494e-09)
(0.287608 6.65665e-09 2.26575e-09)
(0.282822 1.84113e-08 -2.53625e-09)
(0.282824 -1.87041e-08 9.44821e-10)
(0.282822 8.89366e-11 1.73062e-09)
(0.277542 2.60811e-08 -6.29972e-09)
(0.277544 -2.58442e-08 3.41728e-09)
(0.277542 -4.75421e-10 2.90373e-09)
(0.271756 2.07104e-08 -8.2508e-09)
(0.271758 -2.30001e-08 5.25414e-09)
(0.271756 1.98486e-09 2.98739e-09)
(0.265268 1.8345e-08 -9.29886e-09)
(0.265269 -1.85301e-08 6.89842e-09)
(0.265267 -3.29578e-11 2.37961e-09)
(0.257666 1.54597e-08 -8.96351e-09)
(0.257668 -1.3571e-08 7.04334e-09)
(0.257666 -2.06756e-09 1.91218e-09)
(0.248303 1.436e-08 -8.59906e-09)
(0.248305 -9.80959e-09 6.65295e-09)
(0.248303 -4.71367e-09 1.95063e-09)
(0.236185 8.4533e-09 -7.98789e-09)
(0.236187 -3.46835e-09 5.60788e-09)
(0.236185 -5.16445e-09 2.37492e-09)
(0.21965 1.9226e-09 -6.47545e-09)
(0.219651 3.43935e-09 3.79567e-09)
(0.21965 -5.50409e-09 2.65754e-09)
(0.195284 -8.97835e-09 -6.32671e-09)
(0.195286 1.16354e-08 3.70465e-09)
(0.195284 -2.73888e-09 2.59694e-09)
(0.149965 -8.22851e-09 -5.99686e-09)
(0.149965 7.30523e-09 4.79635e-09)
(0.149965 8.82582e-10 1.16513e-09)
(0.160132 7.95664e-09 -7.69418e-09)
(0.160132 -7.2939e-09 6.11221e-09)
(0.160132 -6.8052e-10 1.42424e-09)
(0.20352 8.86258e-09 -7.25187e-09)
(0.20352 -1.15805e-08 4.24101e-09)
(0.20352 2.8299e-09 2.98021e-09)
(0.227777 -1.04555e-09 -7.10093e-09)
(0.227778 -3.95218e-09 4.17419e-09)
(0.227777 5.25083e-09 2.91344e-09)
(0.244858 -6.53931e-09 -8.60793e-09)
(0.244858 2.0643e-09 6.02151e-09)
(0.244858 4.7606e-09 2.6053e-09)
(0.257523 -1.19324e-08 -9.04306e-09)
(0.257523 8.02231e-09 6.84236e-09)
(0.257523 4.17763e-09 2.19916e-09)
(0.267321 -1.37804e-08 -9.61367e-09)
(0.267321 1.20728e-08 7.36002e-09)
(0.267321 2.00796e-09 2.24809e-09)
(0.275244 -1.66926e-08 -1.00358e-08)
(0.275244 1.66112e-08 7.0934e-09)
(0.275244 3.69164e-10 2.93512e-09)
(0.281971 -2.0298e-08 -9.45493e-09)
(0.281971 2.22272e-08 5.69317e-09)
(0.281971 -1.59939e-09 3.79222e-09)
(0.287939 -2.43645e-08 -7.23103e-09)
(0.287939 2.41704e-08 3.53734e-09)
(0.287938 2.4625e-10 3.75211e-09)
(0.293368 -1.72348e-08 -2.66973e-09)
(0.293368 1.80228e-08 4.66425e-10)
(0.293368 -8.29665e-10 2.24156e-09)
(0.298278 -1.12908e-08 5.69549e-11)
(0.298278 1.79138e-08 -2.909e-09)
(0.298278 -6.86817e-09 2.85479e-09)
(0.302535 -9.16269e-09 2.7423e-09)
(0.302535 1.68525e-08 -3.74333e-09)
(0.302535 -7.88557e-09 1.12544e-09)
(0.305939 -6.13231e-09 4.41323e-09)
(0.305939 9.96578e-09 -4.5355e-09)
(0.305939 -4.74146e-09 2.64919e-11)
(0.308327 -4.4015e-09 4.8671e-09)
(0.308327 5.03954e-09 -4.98184e-09)
(0.308327 -1.48443e-09 4.30489e-11)
(0.309599 -1.11546e-09 5.52847e-09)
(0.309599 2.01197e-09 -5.58024e-09)
(0.309599 3.26403e-10 4.88346e-11)
(0.309597 1.84588e-09 5.46859e-09)
(0.309597 -1.50513e-09 -5.50154e-09)
(0.309597 6.99563e-10 6.48922e-11)
(0.308321 2.97106e-09 4.77013e-09)
(0.308321 -5.71709e-09 -4.89103e-09)
(0.308321 1.99734e-09 1.09794e-10)
(0.30593 5.71705e-09 4.15573e-09)
(0.30593 -1.06072e-08 -4.36017e-09)
(0.30593 4.16813e-09 2.68433e-10)
(0.302522 1.07496e-08 2.66303e-09)
(0.302522 -1.69332e-08 -3.85268e-09)
(0.302522 6.66474e-09 1.12388e-09)
(0.298263 1.20433e-08 7.25701e-11)
(0.298263 -1.8102e-08 -2.87957e-09)
(0.298263 6.38204e-09 2.71093e-09)
(0.293351 1.76873e-08 -2.81201e-09)
(0.293351 -1.79332e-08 9.22383e-10)
(0.293351 5.82089e-12 2.04969e-09)
(0.287921 2.47891e-08 -7.38292e-09)
(0.287921 -2.48057e-08 3.92526e-09)
(0.287921 -2.21265e-10 3.4825e-09)
(0.281953 1.85301e-08 -9.37017e-09)
(0.281953 -2.1199e-08 5.97243e-09)
(0.281953 2.36067e-09 3.38699e-09)
(0.275227 1.55013e-08 -1.00975e-08)
(0.275227 -1.61262e-08 7.44021e-09)
(0.275226 3.96236e-10 2.63219e-09)
(0.267304 1.35841e-08 -9.6884e-09)
(0.267304 -1.20896e-08 7.56635e-09)
(0.267304 -1.68487e-09 2.11221e-09)
(0.257508 1.24638e-08 -9.29523e-09)
(0.257508 -8.32092e-09 7.16577e-09)
(0.257508 -4.31693e-09 2.13434e-09)
(0.244844 7.13514e-09 -8.78149e-09)
(0.244844 -2.37206e-09 6.18055e-09)
(0.244844 -4.95249e-09 2.59424e-09)
(0.227765 1.34863e-09 -7.16623e-09)
(0.227765 3.96674e-09 4.17316e-09)
(0.227765 -5.46429e-09 2.96536e-09)
(0.203509 -8.91488e-09 -7.31787e-09)
(0.203509 1.17172e-08 4.26274e-09)
(0.203509 -2.88865e-09 3.0239e-09)
(0.160123 -8.05768e-09 -7.63763e-09)
(0.160123 7.30038e-09 6.12675e-09)
(0.160123 7.14331e-10 1.4674e-09)
(0.171864 7.40117e-09 -9.70594e-09)
(0.171858 -7.07418e-09 7.63691e-09)
(0.171864 -3.4999e-10 1.90762e-09)
(0.21095 7.96382e-09 -8.1834e-09)
(0.21095 -1.0913e-08 4.88108e-09)
(0.21095 3.02736e-09 3.24322e-09)
(0.235311 -5.16321e-10 -7.58162e-09)
(0.23531 -4.46681e-09 4.47712e-09)
(0.235311 5.21621e-09 3.08287e-09)
(0.252911 -5.20558e-09 -8.89472e-09)
(0.25291 8.16025e-10 6.17259e-09)
(0.252911 4.67555e-09 2.73843e-09)
(0.266157 -1.01853e-08 -9.42695e-09)