/*--------------------------------*- C++ -*----------------------------------*\
  =========                 |
  \\      /  F ield         | OpenFOAM: The Open Source CFD Toolbox
   \\    /   O peration     | Website:  https://openfoam.org
    \\  /    A nd           | Version:  6
     \\/     M anipulation  |
\*---------------------------------------------------------------------------*/
FoamFile
{
    version     2.0;
    format      ascii;
    class       volVectorField;
    location    "80";
    object      wallShearStress;
}
// * * * * * * * * * * * * * * * * * * * * * * * * * * * * * * * * * * * * * //

dimensions      [0 2 -2 0 0 0 0];

internalField   uniform (0 0 0);

boundaryField
{
    freeSurface
    {
        type            calculated;
        value           uniform (0 0 0);
    }
    inlet
    {
        type            cyclic;
    }
    outlet
    {
        type            cyclic;
    }
    sidewalls
    {
        type            calculated;
        value           nonuniform List<vector> 
144
(
(-2.88605e-05 -4.77511e-12 -3.24096e-11)
(-4.06907e-05 -4.20438e-12 -3.18391e-12)
(-5.53647e-05 -7.35277e-12 -1.0727e-12)
(-6.36385e-05 -8.23225e-12 -1.76451e-13)
(-7.25893e-05 -8.90486e-12 6.66142e-13)
(-8.22323e-05 -9.58693e-12 1.54911e-12)
(-0.000103529 -1.0595e-11 4.35387e-12)
(-0.000115073 -1.09125e-11 5.40934e-12)
(-0.000127082 -1.15498e-11 6.75476e-12)
(-0.000139419 -1.15916e-11 9.51084e-12)
(-0.00016441 -7.99558e-12 1.57936e-11)
(-0.00017672 -4.80663e-12 1.62929e-11)
(-0.0001887 -3.22903e-12 1.64224e-11)
(-0.00020024 -1.67892e-12 1.67124e-11)
(-0.00022178 5.98037e-14 1.7477e-11)
(-0.000231771 7.41213e-13 1.78904e-11)
(-0.000241279 1.48714e-12 1.83042e-11)
(-0.000250329 2.32706e-12 1.8663e-11)
(-0.000267031 4.3438e-12 1.90112e-11)
(-0.00027457 5.31904e-12 1.87319e-11)
(-0.000281422 6.2328e-12 1.80922e-11)
(-0.000287431 7.20196e-12 1.68411e-11)
(-0.000296116 7.78029e-12 1.04755e-11)
(-0.000298233 8.17213e-12 3.44924e-12)
(-2.88606e-05 4.49785e-12 3.35835e-11)
(-4.06908e-05 5.39717e-12 3.67093e-12)
(-5.53647e-05 7.20553e-12 3.533e-13)
(-6.36387e-05 7.73576e-12 -5.51294e-13)
(-7.25893e-05 8.17333e-12 -1.39741e-12)
(-8.22325e-05 8.5373e-12 -2.15488e-12)
(-0.000103529 9.0934e-12 -3.34275e-12)
(-0.000115073 9.53649e-12 -3.78788e-12)
(-0.000127082 1.01915e-11 -4.92698e-12)
(-0.000139419 1.04347e-11 -7.17937e-12)
(-0.00016441 8.17952e-12 -1.23e-11)
(-0.00017672 6.07532e-12 -1.2823e-11)
(-0.0001887 5.33442e-12 -1.34182e-11)
(-0.00020024 4.36718e-12 -1.43673e-11)
(-0.00022178 2.86432e-12 -1.66969e-11)
(-0.000231771 1.94615e-12 -1.78117e-11)
(-0.000241279 8.29662e-13 -1.8786e-11)
(-0.000250329 -4.6343e-13 -1.95465e-11)
(-0.000267031 -3.64349e-12 -2.04192e-11)
(-0.00027457 -5.31109e-12 -2.00465e-11)
(-0.000281422 -6.7664e-12 -1.90577e-11)
(-0.000287431 -7.91914e-12 -1.68922e-11)
(-0.000296116 -9.54074e-12 -1.17522e-11)
(-0.000298234 -1.01204e-11 -3.98832e-12)
(-2.88605e-05 -6.70842e-13 -2.10614e-12)
(-4.06907e-05 -1.06977e-12 2.11419e-13)
(-5.53645e-05 1.74735e-13 6.86038e-13)
(-6.36385e-05 3.50387e-13 8.1701e-13)
(-7.25891e-05 5.9367e-13 8.79299e-13)
(-8.22323e-05 9.33177e-13 7.82879e-13)
(-0.000103529 1.44278e-12 -8.25511e-13)
(-0.000115073 1.35392e-12 -1.43418e-12)
(-0.000127082 1.3765e-12 -1.66948e-12)
(-0.000139419 1.17899e-12 -2.18335e-12)
(-0.00016441 -1.59235e-13 -3.35794e-12)
(-0.000176719 -1.2425e-12 -3.34049e-12)
(-0.000188699 -2.10587e-12 -2.89043e-12)
(-0.00020024 -2.72533e-12 -2.22466e-12)
(-0.00022178 -3.04895e-12 -6.00301e-13)
(-0.000231771 -2.85796e-12 1.62037e-13)
(-0.000241279 -2.53322e-12 8.11505e-13)
(-0.000250329 -2.12896e-12 1.34051e-12)
(-0.000267031 -1.09545e-12 2.28878e-12)
(-0.00027457 -4.87315e-13 2.54443e-12)
(-0.000281422 1.54061e-14 2.64852e-12)
(-0.000287431 3.23094e-13 2.16226e-12)
(-0.000296116 2.10167e-12 2.83116e-12)
(-0.000298234 2.53476e-12 1.06626e-12)
(-2.88569e-05 3.92586e-12 -3.20798e-11)
(-4.06862e-05 5.42048e-12 -3.94525e-12)
(-5.53589e-05 7.51451e-12 -1.04782e-12)
(-6.36325e-05 8.23351e-12 -2.48701e-13)
(-7.25821e-05 8.9212e-12 5.64846e-13)
(-8.22249e-05 9.6179e-12 1.44223e-12)
(-0.00010352 1.06876e-11 4.26384e-12)
(-0.000115062 1.10129e-11 5.35104e-12)
(-0.000127071 1.16802e-11 6.67294e-12)
(-0.000139406 -4.09051e-12 9.43452e-12)
(-0.000164396 8.31154e-12 1.57643e-11)
(-0.000176704 5.12007e-12 1.65186e-11)
(-0.000188684 3.3478e-12 1.66814e-11)
(-0.000200223 1.75591e-12 1.69947e-11)
(-0.000221761 -1.8029e-13 1.76643e-11)
(-0.000231753 -9.38313e-13 1.79817e-11)
(-0.00024126 -1.74887e-12 1.823e-11)
(-0.000250309 -2.61604e-12 1.83721e-11)
(-0.00026701 -4.6915e-12 1.83861e-11)
(-0.000274549 -5.84513e-12 1.79687e-11)
(-0.0002814 -7.00257e-12 1.70525e-11)
(-0.000287408 -8.05147e-12 1.52637e-11)
(-0.000296092 -9.03868e-12 8.01167e-12)
(-0.000298209 -9.01648e-12 2.68217e-12)
(-2.88569e-05 -4.58126e-12 3.40274e-11)
(-4.06862e-05 -6.45123e-12 3.69994e-12)
(-5.5359e-05 -8.41848e-12 3.55973e-13)
(-6.36327e-05 -7.82753e-12 -5.66169e-13)
(-7.25823e-05 -8.26597e-12 -1.43792e-12)
(-8.22249e-05 -8.62195e-12 -2.21559e-12)
(-0.00010352 -9.14132e-12 -3.43401e-12)
(-0.000115062 -9.54698e-12 -3.8724e-12)
(-0.000127071 -1.01837e-11 -4.94073e-12)
(-0.000139407 -1.04525e-11 -7.15881e-12)
(-0.000164396 -8.31991e-12 -1.22174e-11)
(-0.000176704 -6.23188e-12 -1.29345e-11)
(-0.000188684 -5.35153e-12 -1.35056e-11)
(-0.000200223 -4.39662e-12 -1.44623e-11)
(-0.000221761 -2.77581e-12 -1.66997e-11)
(-0.000231753 -1.84107e-12 -1.77043e-11)
(-0.00024126 -7.03846e-13 -1.86637e-11)
(-0.000250309 7.10288e-13 -1.92698e-11)
(-0.00026701 3.83833e-12 -1.97486e-11)
(-0.000274549 5.63403e-12 -1.92467e-11)
(-0.0002814 7.29187e-12 -1.7971e-11)
(-0.000287408 8.60126e-12 -1.57453e-11)
(-0.000296092 9.31103e-12 -8.19559e-12)
(-0.00029821 9.31907e-12 -2.86591e-12)
(-2.88569e-05 6.76193e-13 -2.05152e-12)
(-4.06861e-05 1.04949e-12 2.30722e-13)
(-5.5359e-05 9.32453e-13 6.83754e-13)
(-6.36325e-05 -3.72033e-13 8.09964e-13)
(-7.25821e-05 -6.17768e-13 8.7196e-13)
(-8.22247e-05 -9.52801e-13 7.76899e-13)
(-0.00010352 -1.49578e-12 -8.1552e-13)
(-0.000115062 -1.40983e-12 -1.45874e-12)
(-0.000127071 -1.43561e-12 -1.70659e-12)
(-0.000139406 1.46112e-11 -2.23977e-12)
(-0.000164396 8.60359e-14 -3.47369e-12)
(-0.000176704 1.18531e-12 -3.50362e-12)
(-0.000188684 2.09128e-12 -3.08107e-12)
(-0.000200223 2.73698e-12 -2.41477e-12)
(-0.000221761 3.07925e-12 -7.75656e-13)
(-0.000231752 2.92136e-12 -3.51975e-14)
(-0.000241259 2.61777e-12 7.48016e-13)
(-0.000250309 2.1026e-12 1.31063e-12)
(-0.00026701 1.13821e-12 2.10808e-12)
(-0.000274549 5.50477e-13 2.29056e-12)
(-0.0002814 6.639e-14 2.27358e-12)
(-0.000287408 -2.84038e-13 2.1346e-12)
(-0.000296092 -3.88527e-13 1.40465e-12)
(-0.000298209 -5.0574e-13 5.98132e-13)
)
;
    }
    noSlipWalls
    {
        type            calculated;
        value           nonuniform List<vector> 
90
(
(-0.000261491 -2.37633e-11 3.69785e-12)
(-0.000325392 -1.83447e-11 1.86054e-12)
(-0.000378033 1.57905e-11 3.1725e-12)
(-0.000413581 3.32649e-11 5.48523e-12)
(-0.000441108 5.54881e-11 2.46658e-12)
(-0.000463609 6.16369e-11 2.58093e-12)
(-0.000482794 6.90488e-11 2.46604e-12)
(-0.000499825 7.19043e-11 5.29286e-12)
(-0.000515454 8.66941e-11 4.76452e-12)
(-0.000529999 5.29071e-11 6.86164e-13)
(-0.000543336 3.74065e-11 -1.39117e-13)
(-0.000555001 2.88614e-11 -1.23954e-12)
(-0.000564386 1.57817e-11 -1.5681e-12)
(-0.000571 1.18828e-11 -5.41512e-12)
(-0.000574553 5.85205e-12 -2.30841e-12)
(-0.000574549 -5.22019e-12 -1.67822e-12)
(-0.000570988 -9.44547e-12 -1.63023e-12)
(-0.000564362 -1.66975e-11 -1.97903e-12)
(-0.000554968 -3.33047e-11 -1.40009e-12)
(-0.000543299 -3.94555e-11 8.75806e-14)
(-0.000529958 -5.4425e-11 7.40008e-13)
(-0.000515413 -8.4887e-11 4.74704e-12)
(-0.000499785 -6.78407e-11 2.05471e-12)
(-0.000482758 -6.60342e-11 5.86136e-12)
(-0.000463577 -5.77549e-11 2.6903e-12)
(-0.00044108 -5.86044e-11 2.59446e-12)
(-0.000413553 -3.57954e-11 2.19649e-12)
(-0.000378007 -1.75213e-11 3.19643e-12)
(-0.000325367 1.68092e-11 2.24023e-12)
(-0.00026147 2.29758e-11 2.39789e-12)
(-0.000261492 2.41767e-11 -1.57177e-12)
(-0.000325392 2.83424e-11 -1.68141e-12)
(-0.000378033 6.07654e-13 -2.44077e-12)
(-0.000413581 -1.95131e-11 -5.10743e-12)
(-0.000441108 -4.40087e-11 -2.16028e-12)
(-0.000463609 -5.92301e-11 -2.26477e-12)
(-0.000482794 -7.37875e-11 -2.14674e-12)
(-0.000499825 -8.65761e-11 -4.82627e-12)
(-0.000515454 -9.74676e-11 -4.39923e-12)
(-0.000529999 -7.56388e-11 -6.24305e-13)
(-0.000543336 -7.2458e-11 5.73188e-13)
(-0.000555001 -5.423e-11 1.10547e-12)
(-0.000564386 -2.81614e-11 1.86431e-12)
(-0.000571 -1.65265e-11 4.92262e-12)
(-0.000574553 -5.60892e-12 1.5522e-12)
(-0.000574549 6.93899e-12 2.17748e-12)
(-0.000570988 1.40855e-11 2.04479e-12)
(-0.000564362 2.81698e-11 1.24586e-12)
(-0.000554968 5.83622e-11 9.84372e-13)
(-0.000543299 7.27171e-11 6.82924e-13)
(-0.000529958 7.59615e-11 -6.85533e-13)
(-0.000515413 9.5839e-11 -4.46438e-12)
(-0.000499785 8.44394e-11 -1.58157e-12)
(-0.000482758 7.27108e-11 -5.47517e-12)
(-0.000463577 5.6114e-11 -2.38145e-12)
(-0.00044108 4.61096e-11 -2.309e-12)
(-0.000413553 2.08544e-11 -1.81675e-12)
(-0.000378007 -7.0793e-13 -2.77164e-12)
(-0.000325368 -2.90297e-11 -1.69937e-12)
(-0.000261471 -2.45017e-11 -1.63861e-12)
(-0.000261491 -1.63462e-12 -7.6818e-13)
(-0.000325391 -1.19406e-11 -2.3204e-13)
(-0.000378032 -1.75997e-11 -7.33469e-13)
(-0.000413577 -1.44773e-11 -3.93112e-13)
(-0.000441108 -1.19426e-11 -2.97764e-13)
(-0.000463609 -2.94974e-12 -3.14869e-13)
(-0.000482794 4.1658e-12 -3.06758e-13)
(-0.000499821 1.39936e-11 -4.69813e-13)
(-0.00051545 1.07321e-11 -3.71367e-13)
(-0.000529999 2.33164e-11 -6.71929e-14)
(-0.000543336 3.64332e-11 -4.54631e-13)
(-0.000555001 2.74113e-11 1.02252e-13)
(-0.000564386 1.28704e-11 3.70304e-13)
(-0.000571004 3.32956e-12 -1.81433e-14)
(-0.000574553 2.49734e-13 -1.34113e-13)
(-0.000574549 -5.2816e-13 3.85714e-13)
(-0.000570988 -7.32334e-12 4.02935e-13)
(-0.000564362 -1.31689e-11 -2.09763e-13)
(-0.000554968 -2.27278e-11 -1.52217e-14)
(-0.000543299 -3.30332e-11 -2.61198e-13)
(-0.000529958 -2.29711e-11 -1.0097e-13)
(-0.000515409 -1.08942e-11 -3.05294e-13)
(-0.000499785 -1.60204e-11 -4.69036e-13)
(-0.000482754 -6.30806e-12 -3.80099e-13)
(-0.000463577 1.88271e-12 -3.04138e-13)
(-0.00044108 1.27082e-11 -2.89722e-13)
(-0.000413553 1.5252e-11 -3.75028e-13)
(-0.000378006 1.84823e-11 -4.1608e-13)
(-0.000325366 1.23677e-11 -5.32268e-13)
(-0.00026147 1.59915e-12 -7.41976e-13)
)
;
    }
}


// ************************************************************************* //
