/*--------------------------------*- C++ -*----------------------------------*\
  =========                 |
  \\      /  F ield         | OpenFOAM: The Open Source CFD Toolbox
   \\    /   O peration     | Website:  https://openfoam.org
    \\  /    A nd           | Version:  6
     \\/     M anipulation  |
\*---------------------------------------------------------------------------*/
FoamFile
{
    version     2.0;
    format      ascii;
    class       volVectorField;
    location    "41";
    object      wallShearStress;
}
// * * * * * * * * * * * * * * * * * * * * * * * * * * * * * * * * * * * * * //

dimensions      [0 2 -2 0 0 0 0];

internalField   uniform (0 0 0);

boundaryField
{
    inlet
    {
        type            calculated;
        value           uniform (0 0 0);
    }
    outlet
    {
        type            calculated;
        value           uniform (0 0 0);
    }
    roughCylinder
    {
        type            calculated;
        value           nonuniform List<vector> 
5120
(
(-0.000250775 -0.000357021 -0.000183744)
(-0.000307352 -0.00046138 -4.21004e-05)
(-0.000340883 -0.000555162 -7.57709e-07)
(-0.000386575 -0.000645179 5.39606e-05)
(-0.000443542 -0.000723328 0.000117166)
(-0.00050824 -0.00078515 0.00018069)
(-0.000577205 -0.00082781 0.000240024)
(-0.000645786 -0.000851726 0.000292389)
(-0.000709894 -0.000859368 0.000335685)
(-0.000767452 -0.000855782 0.000369204)
(-0.000818702 -0.00084923 0.000394424)
(-0.000863946 -0.000845368 0.000413239)
(-0.000900197 -0.00084424 0.000424392)
(-0.000930758 -0.000848588 0.000429001)
(-0.000956924 -0.000857627 0.000428099)
(-0.000980036 -0.000870651 0.000422746)
(-0.00100151 -0.000886882 0.000413992)
(-0.00102259 -0.000905656 0.000402732)
(-0.00104422 -0.000926512 0.000389632)
(-0.00106704 -0.000949142 0.000375124)
(-0.00109141 -0.000973375 0.000359399)
(-0.00111744 -0.000999081 0.000342483)
(-0.00114509 -0.00102613 0.000324281)
(-0.00117421 -0.00105436 0.000304595)
(-0.00120453 -0.00108353 0.000283162)
(-0.00123572 -0.00111331 0.000259611)
(-0.00126738 -0.00114325 0.000233481)
(-0.00129886 -0.00117266 0.000204012)
(-0.00132944 -0.0012007 0.000170156)
(-0.00135736 -0.00122574 0.000130295)
(-0.00138008 -0.00124617 8.23527e-05)
(-0.00139282 -0.0012581 2.79243e-05)
(-0.000269339 -0.000345389 -0.00017361)
(-0.000329021 -0.000446984 -4.45702e-05)
(-0.000365133 -0.000539452 -6.51346e-06)
(-0.00041294 -0.000629178 4.48069e-05)
(-0.000471588 -0.000708335 0.000105389)
(-0.000537834 -0.000771942 0.000167128)
(-0.000608195 -0.000816767 0.00022531)
(-0.00067826 -0.000843104 0.000277047)
(-0.000744555 -0.000853795 0.000320352)
(-0.000805522 -0.00085447 0.000354919)
(-0.000860949 -0.000851989 0.000382127)
(-0.000909727 -0.000849706 0.000402787)
(-0.000948822 -0.00084731 0.000415033)
(-0.000980926 -0.000850559 0.000420226)
(-0.00100862 -0.000858889 0.000419644)
(-0.00103317 -0.00087155 0.000414518)
(-0.00105606 -0.000887649 0.000405937)
(-0.00107856 -0.000906439 0.000394849)
(-0.00110165 -0.000927377 0.000381953)
(-0.00112598 -0.000950121 0.000367683)
(-0.0011519 -0.00097446 0.000352257)
(-0.00117955 -0.00100025 0.000335696)
(-0.00120886 -0.00102736 0.000317904)
(-0.00123966 -0.00105561 0.000298679)
(-0.00127169 -0.00108477 0.000277754)
(-0.00130458 -0.0011145 0.000254748)
(-0.00133791 -0.00114437 0.000229208)
(-0.00137101 -0.00117366 0.000200359)
(-0.00140313 -0.00120158 0.000167184)
(-0.00143239 -0.00122648 0.00012806)
(-0.00145623 -0.00124679 8.09511e-05)
(-0.00146956 -0.00125862 2.74577e-05)
(-0.000287712 -0.000328509 -0.00015619)
(-0.000350175 -0.000427122 -4.75527e-05)
(-0.000388685 -0.000517527 -1.29263e-05)
(-0.000438213 -0.000606299 3.47786e-05)
(-0.000498243 -0.000685937 9.24391e-05)
(-0.000565886 -0.000751091 0.000152145)
(-0.000637716 -0.000798249 0.000209098)
(-0.000709628 -0.000827656 0.000260364)
(-0.000778653 -0.000842338 0.000304111)
(-0.000843321 -0.000847614 0.000340105)
(-0.000902651 -0.000848767 0.000369109)
(-0.0009547 -0.000847997 0.000391055)
(-0.000997358 -0.000845637 0.000404597)
(-0.00103113 -0.000847345 0.000410312)
(-0.00106038 -0.000854781 0.000410038)
(-0.00108645 -0.000866901 0.000405179)
(-0.00111084 -0.000882705 0.000396832)
(-0.00113484 -0.000901352 0.000385974)
(-0.00115944 -0.000922212 0.000373335)
(-0.00118532 -0.000944896 0.000359367)
(-0.00121284 -0.000969173 0.0003443)
(-0.00124213 -0.000994874 0.000328155)
(-0.00127311 -0.00102185 0.000310833)
(-0.00130561 -0.00104994 0.00029213)
(-0.00133934 -0.00107888 0.000271773)
(-0.00137391 -0.00110836 0.000249374)
(-0.0014089 -0.00113794 0.000224485)
(-0.00144357 -0.00116691 0.000196318)
(-0.0014772 -0.00119452 0.000163892)
(-0.00150777 -0.00121909 0.00012558)
(-0.00153271 -0.00123915 7.93979e-05)
(-0.00154659 -0.00125078 2.69423e-05)
(-0.000304093 -0.000307775 -0.000134311)
(-0.000368912 -0.000402879 -5.06162e-05)
(-0.000409369 -0.000490487 -1.95931e-05)
(-0.000460027 -0.000577646 2.43278e-05)
(-0.000520998 -0.000657261 7.87942e-05)
(-0.000589816 -0.000723762 0.000136199)
(-0.000663179 -0.00077342 0.000191764)
(-0.000737265 -0.00080639 0.000242567)
(-0.000809325 -0.000825568 0.000286892)
(-0.000877681 -0.000835478 0.000324363)
(-0.000940718 -0.000840001 0.000355025)
(-0.000996201 -0.000840929 0.000378176)
(-0.00104252 -0.00083948 0.000393011)
(-0.00107887 -0.000839628 0.000399411)
(-0.00110982 -0.000846092 0.00039958)
(-0.00113756 -0.00085751 0.000395044)
(-0.00116354 -0.00087288 0.000386994)
(-0.0011891 -0.000891244 0.000376431)
(-0.00121528 -0.000911919 0.000364116)
(-0.00124275 -0.000934433 0.000350514)
(-0.00127188 -0.000958518 0.000335858)
(-0.00130278 -0.000983989 0.00032018)
(-0.0013354 -0.0010107 0.000303379)
(-0.00136954 -0.00103845 0.000285243)
(-0.00140489 -0.00106702 0.000265497)
(-0.00144106 -0.00109607 0.000243743)
(-0.0014776 -0.0011252 0.000219541)
(-0.00151376 -0.00115369 0.000192091)
(-0.00154881 -0.00118082 0.000160449)
(-0.00158058 -0.00120492 0.000122986)
(-0.00160655 -0.00122462 7.77745e-05)
(-0.00162094 -0.00123599 2.64068e-05)
(-0.000317354 -0.000283411 -0.000110076)
(-0.000384142 -0.000374481 -5.33955e-05)
(-0.000426063 -0.000458641 -2.61608e-05)
(-0.00047728 -0.000543585 1.37819e-05)
(-0.000538777 -0.000622688 6.47618e-05)
(-0.000608602 -0.000690353 0.000119539)
(-0.000683625 -0.000742672 0.000173486)
(-0.000760185 -0.00077953 0.000223736)
(-0.00083548 -0.000803335 0.000268607)
(-0.00090744 -0.000817631 0.000307424)
(-0.00097404 -0.000825276 0.0003396)
(-0.00103304 -0.000827983 0.000364008)
(-0.00108289 -0.000827642 0.000379948)
(-0.00112313 -0.000827389 0.000387498)
(-0.001156 -0.000832309 0.000388232)
(-0.00118554 -0.000842813 0.000384117)
(-0.00121323 -0.000857568 0.00037646)
(-0.00124044 -0.000875503 0.000366283)
(-0.0012682 -0.000895816 0.000354356)
(-0.00129724 -0.000918006 0.000341181)
(-0.00132795 -0.000941747 0.000327002)
(-0.00136044 -0.000966835 0.000311848)
(-0.00139463 -0.000993102 0.000295617)
(-0.00143031 -0.00102036 0.000278095)
(-0.0014672 -0.00104838 0.000259001)
(-0.00150484 -0.00107683 0.000237927)
(-0.00154282 -0.00110532 0.000214445)
(-0.00158032 -0.00113315 0.000187735)
(-0.00161667 -0.00115963 0.000156903)
(-0.00164953 -0.00118311 0.000120315)
(-0.00167644 -0.00120232 7.61055e-05)
(-0.00169126 -0.00121335 2.586e-05)
(-0.000327496 -0.000256853 -8.52708e-05)
(-0.000395736 -0.000343344 -5.57625e-05)
(-0.000438542 -0.000423487 -3.24297e-05)
(-0.000489688 -0.000505618 3.38049e-06)
(-0.000551228 -0.000583693 5.05805e-05)
(-0.00062183 -0.000652254 0.000102378)
(-0.000698517 -0.000707212 0.000154415)
(-0.000777649 -0.000747956 0.000203938)
(-0.000856219 -0.00077617 0.000249194)
(-0.000931752 -0.000794458 0.00028915)
(-0.00100194 -0.000804977 0.000322692)
(-0.00106457 -0.000809475 0.00034838)
(-0.00111815 -0.000810292 0.000365429)
(-0.00116247 -0.000810468 0.000374228)
(-0.00119843 -0.000813791 0.000375851)
(-0.00122996 -0.000823145 0.000372356)
(-0.00125951 -0.000837005 0.000365197)
(-0.00128844 -0.000854265 0.000355499)
(-0.00131786 -0.000874064 0.000344063)
(-0.0013485 -0.000895768 0.000331396)
(-0.00138076 -0.000919004 0.000317756)
(-0.00141477 -0.000943541 0.000303187)
(-0.00145044 -0.000969199 0.000287582)
(-0.00148757 -0.000995782 0.000270718)
(-0.00152584 -0.00102307 0.000252315)
(-0.00156482 -0.00105073 0.000231954)
(-0.00160407 -0.0010784 0.000209218)
(-0.00164275 -0.0011054 0.00018327)
(-0.00168026 -0.00113107 0.000153269)
(-0.00171407 -0.00115377 0.000117576)
(-0.00174182 -0.00117236 7.43966e-05)
(-0.00175697 -0.00118301 2.53051e-05)
(-0.000333353 -0.000228444 -6.08564e-05)
(-0.000402534 -0.000309894 -5.75521e-05)
(-0.000445654 -0.000385488 -3.8186e-05)
(-0.000496098 -0.000464225 -6.69436e-06)
(-0.000557138 -0.000540729 3.63689e-05)
(-0.000628185 -0.000609847 8.47585e-05)
(-0.000706452 -0.000667319 0.000134515)
(-0.00078823 -0.000711889 0.000183037)
(-0.00087019 -0.000744338 0.000228461)
(-0.000949413 -0.000766329 0.000269336)
(-0.00102334 -0.000779557 0.000304095)
(-0.00108979 -0.00078588 0.000331083)
(-0.00114735 -0.000787901 0.000349386)
(-0.00119581 -0.000788819 0.000359404)
(-0.00123612 -0.000791696 0.000362348)
(-0.00127014 -0.00079909 0.000359653)
(-0.00130171 -0.000811823 0.000353161)
(-0.00133255 -0.000828245 0.000344075)
(-0.00136365 -0.000847282 0.00033322)
(-0.00139589 -0.000868299 0.000321148)
(-0.00142968 -0.000890859 0.000308129)
(-0.00146514 -0.000914686 0.000294211)
(-0.00150221 -0.00093958 0.000279288)
(-0.00154066 -0.000965339 0.000263133)
(-0.00158018 -0.000991744 0.000245463)
(-0.00162034 -0.00101848 0.000225848)
(-0.0016607 -0.00104518 0.000203886)
(-0.00170039 -0.00107119 0.000178717)
(-0.00173887 -0.0010959 0.000149563)
(-0.00177349 -0.00111769 0.000114783)
(-0.00180199 -0.00113557 7.26576e-05)
(-0.00181737 -0.00114575 2.47457e-05)
(-0.000334883 -0.000199215 -3.7809e-05)
(-0.000404355 -0.000275189 -5.87427e-05)
(-0.000447147 -0.000345762 -4.33262e-05)
(-0.000496175 -0.000420523 -1.62716e-05)
(-0.000556056 -0.000494857 2.2339e-05)
(-0.000627094 -0.00056406 6.689e-05)
(-0.000706705 -0.000623736 0.000113928)
(-0.000790992 -0.00067183 0.000161063)
(-0.000876245 -0.000708136 0.000206294)
(-0.000959211 -0.000733538 0.000247791)
(-0.0010371 -0.000749375 0.00028361)
(-0.00110767 -0.000757584 0.000311902)
(-0.00116949 -0.000760922 0.00033163)
(-0.00122218 -0.00076256 0.000343005)
(-0.0012667 -0.000765531 0.000347257)
(-0.00130486 -0.000771895 0.000345857)
(-0.00133891 -0.000782808 0.000340256)
(-0.00137176 -0.000797761 0.000331909)
(-0.00140469 -0.000815889 0.0003218)
(-0.0014386 -0.000836064 0.000310432)
(-0.00147388 -0.00085779 0.000298122)
(-0.00151072 -0.00088075 0.000284929)
(-0.00154906 -0.000904722 0.000270752)
(-0.00158868 -0.000929497 0.000255355)
(-0.00162926 -0.000954857 0.000238457)
(-0.00167037 -0.000980493 0.000219618)
(-0.00171161 -0.00100612 0.000198456)
(-0.00175206 -0.00103108 0.00017408)
(-0.00179137 -0.00105476 0.000145794)
(-0.0018266 -0.00107554 0.000111939)
(-0.00185571 -0.00109262 7.0891e-05)
(-0.00187119 -0.00110238 2.41849e-05)
(-0.000331013 -0.000169381 -1.66821e-05)
(-0.000400208 -0.00023957 -5.91962e-05)
(-0.000442081 -0.000304712 -4.76753e-05)
(-0.000489 -0.000374952 -2.51433e-05)
(-0.000546965 -0.000446431 8.70715e-06)
(-0.000617331 -0.000515065 4.89313e-05)
(-0.000697826 -0.000576431 9.27118e-05)
(-0.000784433 -0.000627703 0.000137953)
(-0.000873053 -0.000667684 0.000182569)
(-0.000959971 -0.000696385 0.000224374)
(-0.0010421 -0.0007148 0.000261071)
(-0.00111707 -0.000724916 0.000290631)
(-0.00118336 -0.000729574 0.000311873)
(-0.00124064 -0.000732053 0.000324857)
(-0.00128952 -0.000735206 0.000330596)
(-0.00133172 -0.0007411 0.000330574)
(-0.00136944 -0.000750781 0.000326231)
(-0.00140531 -0.00076446 0.000319053)
(-0.00144011 -0.000781122 0.000309824)
(-0.00147564 -0.000800116 0.000299266)
(-0.00151239 -0.000820804 0.00028777)
(-0.00155053 -0.00084277 0.00027539)
(-0.00159 -0.000865745 0.000262029)
(-0.0016306 -0.000889497 0.00024745)
(-0.00167206 -0.00091381 0.000231374)
(-0.00171391 -0.000938364 0.000213344)
(-0.00175572 -0.000962841 0.000192996)
(-0.00179656 -0.000986596 0.000169403)
(-0.00183633 -0.00100908 0.000141977)
(-0.00187194 -0.00102878 0.000109055)
(-0.00190152 -0.00104499 6.91052e-05)
(-0.00191681 -0.00105421 2.36251e-05)
(-0.000321966 -0.00014006 1.89716e-06)
(-0.00038998 -0.000203763 -5.91143e-05)
(-0.000430236 -0.000263394 -5.11582e-05)
(-0.000474301 -0.0003285 -3.31095e-05)
(-0.000529458 -0.000396359 -4.23886e-06)
(-0.00059837 -0.000463675 3.12038e-05)
(-0.000679258 -0.000526158 7.11398e-05)
(-0.000767882 -0.00058017 0.000113881)
(-0.00085965 -0.000623431 0.000157312)
(-0.000950524 -0.000655235 0.000198982)
(-0.00103714 -0.000676226 0.000236323)
(-0.00111689 -0.000688314 0.000267098)
(-0.00118819 -0.000694432 0.000289976)
(-0.00125025 -0.000697702 0.000304731)
(-0.00130369 -0.000701032 0.000312198)
(-0.00135 -0.000706514 0.000313741)
(-0.00139145 -0.000715362 0.000310861)
(-0.00143025 -0.000727899 0.000304982)
(-0.00146757 -0.000743194 0.000296908)
(-0.00150508 -0.000760943 0.000287405)
(-0.00154331 -0.000780432 0.000276873)
(-0.00158257 -0.00080122 0.000265407)
(-0.00162289 -0.000823004 0.000252931)
(-0.00166409 -0.000845536 0.000239211)
(-0.00170592 -0.000868581 0.000223978)
(-0.00174797 -0.000891838 0.000206767)
(-0.0017899 -0.000914957 0.000187245)
(-0.00183076 -0.000937294 0.000164456)
(-0.00187082 -0.000958503 0.000137939)
(-0.00190651 -0.000976994 0.000105996)
(-0.00193635 -0.000992235 6.72108e-05)
(-0.00195131 -0.00100084 2.30363e-05)
(-0.000305099 -0.000110891 1.75107e-05)
(-0.000373886 -0.000168776 -5.82114e-05)
(-0.000411235 -0.000222445 -5.37553e-05)
(-0.000451665 -0.000281918 -3.9946e-05)
(-0.000503089 -0.000345405 -1.61561e-05)
(-0.00056947 -0.000410416 1.40739e-05)
(-0.000649758 -0.000473067 4.9483e-05)
(-0.000739808 -0.000529192 8.89627e-05)
(-0.000834707 -0.000575579 0.000130553)
(-0.000929792 -0.000610546 0.000171611)
(-0.00102123 -0.000634212 0.000209306)
(-0.00110616 -0.000648362 0.000241194)
(-0.00118255 -0.00065579 0.000265677)
(-0.00124983 -0.000659868 0.000282375)
(-0.00130823 -0.000663419 0.000291834)
(-0.00135906 -0.000668562 0.000295249)
(-0.00140431 -0.000676564 0.00029405)
(-0.00144623 -0.000687951 0.000289655)
(-0.00148602 -0.000701908 0.000282903)
(-0.00152538 -0.00071829 0.000274609)
(-0.00156504 -0.000736435 0.000265189)
(-0.00160533 -0.000755874 0.00025476)
(-0.00164631 -0.000776273 0.000243265)
(-0.00168787 -0.000797389 0.00023048)
(-0.00172986 -0.000818985 0.000216157)
(-0.00177185 -0.000840761 0.000199814)
(-0.00181364 -0.000862373 0.000181166)
(-0.00185432 -0.000883231 0.000159228)
(-0.00189425 -0.000902985 0.000133656)
(-0.0019298 -0.000920207 0.000102748)
(-0.00195974 -0.00093443 6.52018e-05)
(-0.00197421 -0.000942345 2.24179e-05)
(-0.000281428 -8.29164e-05 3.01069e-05)
(-0.000351291 -0.000135517 -5.64561e-05)
(-0.000385319 -0.000182793 -5.53256e-05)
(-0.000420978 -0.000236117 -4.54209e-05)
(-0.000467417 -0.000294301 -2.66365e-05)
(-0.000530061 -0.000355922 -1.94798e-06)
(-0.000608955 -0.000417915 2.82498e-05)
(-0.000699962 -0.00047563 6.36338e-05)
(-0.000797505 -0.000524698 0.000102548)
(-0.000896599 -0.000562665 0.000142321)
(-0.000993034 -0.000589103 0.000179955)
(-0.00108342 -0.000605408 0.000212758)
(-0.00116579 -0.000614463 0.000238948)
(-0.00123872 -0.000619322 0.000257722)
(-0.00130233 -0.000622953 0.000269368)
(-0.0013578 -0.000627606 0.000274886)
(-0.00140719 -0.000634756 0.000275655)
(-0.00145233 -0.000644874 0.000272971)
(-0.00149477 -0.000657456 0.000267774)
(-0.00153615 -0.000672414 0.000260888)
(-0.00157718 -0.00068907 0.00025273)
(-0.00161834 -0.000706997 0.000243462)
(-0.00165981 -0.000725874 0.000233055)
(-0.0017015 -0.000745432 0.00022129)
(-0.00174328 -0.000765419 0.000207934)
(-0.00178484 -0.000785558 0.000192506)
(-0.00182607 -0.000805518 0.000174772)
(-0.00186606 -0.000824719 0.000153704)
(-0.00190575 -0.000843007 0.000129138)
(-0.00194076 -0.000858861 9.93103e-05)
(-0.00197058 -0.000871978 6.30752e-05)
(-0.00198437 -0.000879179 2.17708e-05)
(-0.000250685 -5.70527e-05 3.94438e-05)
(-0.000320924 -0.000104099 -5.37083e-05)
(-0.000351993 -0.000145122 -5.56775e-05)
(-0.000382576 -0.000192143 -4.92696e-05)
(-0.000423175 -0.00024437 -3.52519e-05)
(-0.000480659 -0.000301401 -1.62458e-05)
(-0.00055631 -0.000361195 8.08075e-06)
(-0.000646846 -0.000419349 3.83739e-05)
(-0.000746797 -0.000470909 7.36567e-05)
(-0.000850121 -0.000512075 0.00011139)
(-0.000951816 -0.000541521 0.000148437)
(-0.00104828 -0.000560329 0.000181917)
(-0.00113643 -0.000570818 0.000209621)
(-0.0012153 -0.000576413 0.000230538)
(-0.00128467 -0.00058013 0.00024461)
(-0.00134547 -0.000584334 0.000252569)
(-0.0013992 -0.000590481 0.000255577)
(-0.00144793 -0.000599284 0.000254916)
(-0.00149307 -0.000610336 0.000251501)
(-0.00153631 -0.00062366 0.000246192)
(-0.00157865 -0.000638689 0.000239468)
(-0.00162058 -0.000654992 0.000231509)
(-0.0016623 -0.000672208 0.000222301)
(-0.0017038 -0.000690081 0.00021164)
(-0.00174512 -0.000708385 0.000199329)
(-0.00178593 -0.000726817 0.000184873)
(-0.0018263 -0.000745078 0.000168102)
(-0.00186542 -0.000762649 0.000147946)
(-0.00190431 -0.000779302 0.000124403)
(-0.00193857 -0.000793792 9.57026e-05)
(-0.00196812 -0.000805792 6.0849e-05)
(-0.00198102 -0.000812254 2.1104e-05)
(-0.000214712 -3.46154e-05 4.54458e-05)
(-0.000283743 -7.55183e-05 -5.00206e-05)
(-0.000312051 -0.000110512 -5.48121e-05)
(-0.000337013 -0.000150956 -5.13444e-05)
(-0.000370328 -0.000196267 -4.15728e-05)
(-0.000420861 -0.000247306 -2.80858e-05)
(-0.000492231 -0.000303826 -1.01034e-05)
(-0.000581637 -0.000361723 1.41208e-05)
(-0.000682737 -0.000414959 4.45991e-05)
(-0.00078954 -0.000459033 7.9262e-05)
(-0.000896513 -0.000491702 0.000114994)
(-0.00099881 -0.000513068 0.000148635)
(-0.00109394 -0.00052564 0.000177819)
(-0.00117954 -0.000532251 0.000200973)
(-0.00125501 -0.000535995 0.000217631)
(-0.00132104 -0.000539449 0.000228211)
(-0.00137948 -0.000544482 0.000233768)
(-0.00143186 -0.000551747 0.000235389)
(-0.00147994 -0.000561192 0.000234046)
(-0.00152536 -0.000572848 0.000230588)
(-0.00156898 -0.000586142 0.000225489)
(-0.00161148 -0.00060068 0.00021898)
(-0.00165321 -0.000616153 0.000211091)
(-0.00169426 -0.000632279 0.000201625)
(-0.00173464 -0.00064879 0.000190406)
(-0.0017742 -0.00066543 0.000176955)
(-0.0018132 -0.000681914 0.000161173)
(-0.00185078 -0.000697715 0.000141923)
(-0.00188883 -0.000712836 0.000119459)
(-0.00192188 -0.000725897 9.19196e-05)
(-0.00195086 -0.000736704 5.85158e-05)
(-0.00196266 -0.000742449 2.04165e-05)
(-0.000172643 -1.59767e-05 4.76968e-05)
(-0.000238412 -5.00577e-05 -4.50279e-05)
(-0.000264498 -7.91779e-05 -5.23587e-05)
(-0.000284677 -0.000113242 -5.13424e-05)
(-0.000311091 -0.000151567 -4.51347e-05)
(-0.000353682 -0.000195652 -3.67383e-05)
(-0.000417357 -0.000246484 -2.53064e-05)
(-0.000502348 -0.000301889 -8.04891e-06)
(-0.000604128 -0.00035648 1.63739e-05)
(-0.000714471 -0.000403725 4.67538e-05)
(-0.000826589 -0.00043992 8.02173e-05)
(-0.000935833 -0.000464732 0.000113517)
(-0.00103734 -0.000479306 0.0001437)
(-0.00112943 -0.000486912 0.000168906)
(-0.00121139 -0.000490809 0.000188256)
(-0.00128369 -0.000493779 0.000201803)
(-0.00134712 -0.00049758 0.00021019)
(-0.00140368 -0.000503292 0.000214444)
(-0.00145474 -0.000510958 0.000215437)
(-0.00150204 -0.000520696 0.000214019)
(-0.00154683 -0.000532125 0.000210743)
(-0.00158979 -0.00054485 0.000205856)
(-0.00163126 -0.000558504 0.000199405)
(-0.00167142 -0.000572817 0.000191213)
(-0.0017106 -0.000587569 0.000181162)
(-0.00174864 -0.000602456 0.000168771)
(-0.00178591 -0.000617219 0.000154013)
(-0.00182183 -0.000631396 0.000135702)
(-0.00185835 -0.000644853 0.000114317)
(-0.00188994 -0.000656553 8.7977e-05)
(-0.0019183 -0.000666215 5.60934e-05)
(-0.00192873 -0.000671274 1.97175e-05)
(-0.00012855 -2.06338e-06 4.6913e-05)
(-0.000188915 -2.90753e-05 -3.90985e-05)
(-0.00021332 -5.26156e-05 -4.87204e-05)
(-0.000228925 -8.03656e-05 -4.97483e-05)
(-0.000246664 -0.000110913 -4.62403e-05)
(-0.000278179 -0.000146451 -4.15216e-05)
(-0.000334427 -0.000191001 -3.58671e-05)
(-0.000414959 -0.000243047 -2.64311e-05)
(-0.000513708 -0.000296768 -9.55541e-06)
(-0.000625483 -0.00034634 1.51014e-05)
(-0.000742494 -0.000386428 4.50642e-05)
(-0.000857071 -0.000414483 7.69615e-05)
(-0.00096616 -0.000432146 0.000107732)
(-0.00106598 -0.000441594 0.00013487)
(-0.00115494 -0.000445957 0.000156923)
(-0.00123291 -0.000448187 0.000173448)
(-0.00130161 -0.00045075 0.000184912)
(-0.00136216 -0.000454707 0.000192025)
(-0.00141643 -0.000460527 0.000195646)
(-0.00146607 -0.000468412 0.000196583)
(-0.00151201 -0.00047793 0.000195346)
(-0.00155513 -0.00048875 0.000192227)
(-0.00159607 -0.000500574 0.000187336)
(-0.00163508 -0.000513116 0.00018051)
(-0.00167246 -0.000526077 0.000171658)
(-0.00170829 -0.000539186 0.000160337)
(-0.00174326 -0.000552248 0.000146619)
(-0.00177671 -0.000564731 0.000129217)
(-0.00181167 -0.000576696 0.000108964)
(-0.00184135 -0.00058705 8.38531e-05)
(-0.00186866 -0.000595499 5.3558e-05)
(-0.00187748 -0.000599941 1.90009e-05)
(-8.08776e-05 8.02702e-06 4.28682e-05)
(-0.000132886 -1.11888e-05 -3.09675e-05)
(-0.000154554 -2.85555e-05 -4.21505e-05)
(-0.000166847 -5.03374e-05 -4.43323e-05)
(-0.000180323 -7.36951e-05 -4.19536e-05)
(-0.00020566 -0.000100496 -4.14021e-05)
(-0.000245703 -0.000134817 -4.2383e-05)
(-0.000313416 -0.000180612 -3.95885e-05)
(-0.000410312 -0.000234545 -3.08813e-05)
(-0.000522919 -0.000286295 -1.38848e-05)
(-0.000643164 -0.00033022 1.09781e-05)
(-0.000765264 -0.000363411 4.04103e-05)
(-0.000880708 -0.000384347 7.07569e-05)
(-0.000987028 -0.000395773 9.91462e-05)
(-0.00108271 -0.000400971 0.000123621)
(-0.00116774 -0.000403221 0.000143292)
(-0.00124196 -0.000404706 0.000157994)
(-0.00130722 -0.000407129 0.000168275)
(-0.00136472 -0.000411073 0.000174772)
(-0.00141612 -0.000416883 0.000178227)
(-0.00146297 -0.000424424 0.00017922)
(-0.00150615 -0.000433375 0.000178045)
(-0.0015462 -0.000443385 0.000174832)
(-0.00158352 -0.000454164 0.000169437)
(-0.00161883 -0.000465472 0.000161851)
(-0.0016523 -0.000476981 0.000151661)
(-0.00168451 -0.000488474 0.000139001)
(-0.0017154 -0.000499477 0.000122528)
(-0.00174816 -0.000509932 0.000103408)
(-0.00177555 -0.000519035 7.95533e-05)
(-0.00180195 -0.000526399 5.09295e-05)
(-0.00180889 -0.000530312 1.82767e-05)
(-4.4742e-05 1.02141e-05 3.84363e-05)
(-8.51744e-05 -2.90113e-06 -2.21379e-05)
(-0.000116225 -1.94808e-05 -3.08897e-05)
(-0.000119882 -2.94182e-05 -3.80513e-05)
(-0.000124231 -4.62522e-05 -4.08749e-05)
(-0.000132263 -6.61341e-05 -3.82281e-05)
(-0.000176385 -9.35855e-05 -3.81242e-05)
(-0.000232354 -0.000127445 -4.49198e-05)
(-0.000301603 -0.000170019 -4.61103e-05)
(-0.000410449 -0.000224158 -3.76133e-05)
(-0.000533896 -0.000272522 -1.99012e-05)
(-0.000658111 -0.000309501 5.25244e-06)
(-0.000780826 -0.000335441 3.40538e-05)
(-0.000895132 -0.000350418 6.29312e-05)
(-0.0009983 -0.00035744 8.93987e-05)
(-0.00108888 -0.000359679 0.000111832)
(-0.00116855 -0.000360389 0.000129764)
(-0.00123781 -0.000361243 0.000143256)
(-0.00129853 -0.000363401 0.00015283)
(-0.00135233 -0.000367401 0.000159103)
(-0.00140009 -0.000373054 0.000162528)
(-0.00144291 -0.000380154 0.000163427)
(-0.00148172 -0.000388419 0.000161997)
(-0.00151706 -0.000397582 0.000158116)
(-0.00154959 -0.000407285 0.000151799)
(-0.00157971 -0.000417179 0.000142714)
(-0.00160867 -0.000427255 0.000131127)
(-0.00163615 -0.000436782 0.000115539)
(-0.00166648 -0.000445904 9.75948e-05)
(-0.0016913 -0.000453887 7.50364e-05)
(-0.00171618 -0.000460087 4.81605e-05)
(-0.00172084 -0.000463536 1.75291e-05)
(-1.91778e-05 1.02426e-05 2.47491e-05)
(-2.9368e-05 6.81118e-06 -3.75322e-05)
(-2.03921e-05 -2.37746e-05 -3.60701e-05)
(-3.33873e-05 -2.25692e-05 -7.50361e-06)
(-3.98278e-05 -2.24044e-05 -2.23611e-05)
(-4.2541e-05 -2.65912e-05 -2.73544e-05)
(-5.84386e-05 -5.63944e-05 -3.23034e-05)
(-0.000109889 -8.91017e-05 -1.90148e-05)
(-0.000213726 -0.000117739 -2.9681e-05)
(-0.000292672 -0.000155723 -5.2788e-05)
(-0.000410051 -0.000209812 -4.4315e-05)
(-0.000542268 -0.000254729 -2.54951e-05)
(-0.000668468 -0.000285027 -5.21411e-07)
(-0.00078821 -0.000304085 2.73461e-05)
(-0.000897291 -0.000313567 5.47403e-05)
(-0.000995175 -0.000317344 7.95765e-05)
(-0.00108034 -0.000317946 0.000100516)
(-0.00115454 -0.000317942 0.000117313)
(-0.00121845 -0.000318592 0.000130073)
(-0.00127355 -0.000320708 0.000139209)
(-0.00132173 -0.000324552 0.000145189)
(-0.00136399 -0.000329959 0.000148295)
(-0.00140119 -0.00033662 0.000148744)
(-0.00143388 -0.000344261 0.000146409)
(-0.00146338 -0.000352581 0.000141404)
(-0.00149043 -0.000361187 0.000133511)
(-0.00151538 -0.00036999 0.00012298)
(-0.00153938 -0.000378269 0.000108281)
(-0.00156699 -0.000386215 9.15419e-05)
(-0.00158857 -0.000393146 7.02929e-05)
(-0.00161227 -0.000398361 4.52722e-05)
(-0.0016147 -0.00040152 1.67726e-05)
(1.32678e-05 1.48083e-05 1.99563e-05)
(-4.94364e-06 1.18874e-06 -2.20602e-05)
(2.9202e-06 -3.39185e-06 -1.60248e-05)
(-9.09751e-06 -5.55142e-06 -1.69106e-05)
(-1.8633e-05 -1.07399e-05 -2.9146e-05)
(-3.41992e-05 -2.68845e-05 -3.22596e-05)
(-4.23824e-05 -3.83477e-05 -3.58522e-05)
(-5.71379e-05 -4.9539e-05 -4.06765e-05)
(-6.70205e-05 -7.4434e-05 -2.60002e-05)
(-0.000186195 -0.000104039 -2.22833e-05)
(-0.000292191 -0.000142191 -5.72445e-05)
(-0.000409536 -0.000192983 -4.90799e-05)
(-0.000545312 -0.000233083 -2.97487e-05)
(-0.000671187 -0.000257396 -5.60654e-06)
(-0.00078733 -0.000271212 2.14315e-05)
(-0.000889446 -0.00027674 4.76292e-05)
(-0.000979482 -0.000278004 7.1029e-05)
(-0.00105686 -0.000277379 9.07508e-05)
(-0.00112348 -0.00027694 0.000106635)
(-0.00118074 -0.000277799 0.00011881)
(-0.00122928 -0.000280158 0.000127459)
(-0.00127047 -0.000284053 0.000132828)
(-0.00130552 -0.000289273 0.000135196)
(-0.00133528 -0.000295641 0.000134458)
(-0.00136098 -0.000302705 0.000130719)
(-0.00138338 -0.000309904 0.000123922)
(-0.00140424 -0.000317744 0.000114489)
(-0.00142401 -0.000324793 0.000100629)
(-0.00144821 -0.000331686 8.51248e-05)
(-0.00146672 -0.000337814 6.52562e-05)
(-0.00148861 -0.000341962 4.2191e-05)
(-0.00148789 -0.000344761 1.59703e-05)
(2.34704e-05 6.28912e-06 2.5594e-05)
(2.67098e-05 -7.92099e-07 2.98333e-05)
(-3.2826e-06 3.61349e-05 1.27801e-05)
(5.97917e-06 1.97766e-05 -3.67717e-05)
(1.99992e-06 1.20244e-06 -2.21894e-05)
(-1.53852e-06 -7.04995e-06 -1.5569e-05)
(-1.9313e-05 -5.50343e-06 -2.43416e-05)
(-3.78502e-05 -2.84738e-05 -4.4449e-05)
(-4.00317e-05 -3.68829e-05 -3.68949e-05)
(-5.46534e-05 -4.70313e-05 -2.52188e-05)
(-0.000170923 -8.75043e-05 -3.90637e-05)
(-0.000301563 -0.000129757 -5.92183e-05)
(-0.000410798 -0.000174725 -5.51593e-05)
(-0.000541494 -0.000208938 -3.34535e-05)
(-0.000661889 -0.000226803 -9.01627e-06)
(-0.000770409 -0.000236531 1.71706e-05)
(-0.000864772 -0.000239685 4.20267e-05)
(-0.000946812 -0.0002399 6.42806e-05)
(-0.00101598 -0.000239108 8.30622e-05)
(-0.00107336 -0.000238842 9.80326e-05)
(-0.00112136 -0.00024002 0.000109285)
(-0.00116106 -0.000242735 0.000116917)
(-0.00119365 -0.000246798 0.000121229)
(-0.00121974 -0.000252065 0.000122056)
(-0.00124144 -0.000258132 0.000119569)
(-0.00126047 -0.000264405 0.000114019)
(-0.00127588 -0.000271324 0.000105601)
(-0.00129156 -0.000277304 9.25875e-05)
(-0.0013126 -0.000283495 7.84014e-05)
(-0.00132696 -0.000288754 5.99034e-05)
(-0.00134741 -0.000291979 3.89297e-05)
(-0.00134447 -0.000294737 1.51468e-05)
(3.36851e-05 1.28366e-05 3.63118e-05)
(4.27507e-05 1.14971e-05 -6.6907e-06)
(3.36281e-05 3.13295e-07 -1.402e-05)
(4.1593e-05 -3.52893e-06 -1.90414e-05)
(3.82786e-05 -1.24203e-05 -1.79676e-05)
(3.02112e-05 -1.46582e-05 -1.43481e-05)
(1.30287e-05 -1.49694e-05 -9.83382e-06)
(2.02977e-06 -7.77335e-06 -4.72173e-06)
(-2.92767e-05 1.21022e-05 -2.88027e-05)
(-3.17432e-05 -2.19335e-05 -5.53439e-05)
(-4.70992e-05 -3.66398e-05 -3.11616e-05)
(-0.0001464 -8.62117e-05 -4.33315e-05)
(-0.000295351 -0.000120475 -5.15072e-05)
(-0.000409041 -0.000154177 -5.61006e-05)
(-0.000534278 -0.000183253 -3.53235e-05)
(-0.000643816 -0.000196979 -1.00356e-05)
(-0.000741495 -0.000203271 1.48404e-05)
(-0.000824426 -0.000204691 3.85629e-05)
(-0.000894782 -0.000204333 5.96897e-05)
(-0.000953723 -0.000204103 7.7346e-05)
(-0.00100111 -0.000204742 9.10839e-05)
(-0.00103871 -0.000206658 0.000100858)
(-0.00106807 -0.000209781 0.000107014)
(-0.00109023 -0.000214271 0.000109373)
(-0.0011071 -0.000219474 0.000107995)
(-0.0011202 -0.000224402 0.000103482)
(-0.00113108 -0.000230894 9.61906e-05)
(-0.00114182 -0.000235569 8.39634e-05)
(-0.00115876 -0.000241227 7.11438e-05)
(-0.00116983 -0.000245936 5.41376e-05)
(-0.00118852 -0.000248136 3.53982e-05)
(-0.00118146 -0.000250426 1.42295e-05)
(4.60604e-05 1.55389e-05 4.57099e-05)
(6.31184e-05 1.29288e-05 -8.29664e-06)
(6.94323e-05 9.35396e-06 -1.6901e-05)
(7.18897e-05 2.05745e-06 -2.17784e-05)
(7.04755e-05 -6.93781e-06 -2.37124e-05)
(6.48005e-05 -1.54785e-05 -2.35163e-05)
(5.49666e-05 -2.21804e-05 -2.25977e-05)
(4.07794e-05 -2.47442e-05 -2.07605e-05)
(1.74814e-05 -2.56148e-05 -1.57857e-05)
(-1.13134e-05 -6.47543e-06 -3.28962e-05)
(-3.30081e-05 -2.55731e-05 -4.83607e-05)
(-6.25192e-05 -4.5576e-05 -4.02305e-05)
(-0.000143004 -7.61358e-05 -4.09906e-05)
(-0.000286974 -0.00010557 -5.60479e-05)
(-0.000398892 -0.000133405 -5.36311e-05)
(-0.000509634 -0.000156869 -3.22234e-05)
(-0.000607863 -0.000166713 -9.2024e-06)
(-0.000694531 -0.000171602 1.48209e-05)
(-0.0007659 -0.000172829 3.74843e-05)
(-0.000822481 -0.000172796 5.70798e-05)
(-0.0008676 -0.000173397 7.28776e-05)
(-0.000902444 -0.000175 8.45096e-05)
(-0.000928468 -0.000177558 9.23725e-05)
(-0.000945922 -0.000181457 9.61198e-05)
(-0.000958181 -0.000186047 9.57497e-05)
(-0.000968412 -0.000190205 9.25411e-05)
(-0.000972375 -0.000196062 8.61809e-05)
(-0.000979642 -0.000199583 7.4836e-05)
(-0.000992567 -0.000205054 6.34831e-05)
(-0.000998892 -0.000208906 4.79394e-05)
(-0.00101601 -0.0002101 3.15963e-05)
(-0.00100721 -0.000212239 1.32602e-05)
(5.48596e-05 1.46836e-05 4.82978e-05)
(7.68634e-05 1.19644e-05 -7.41475e-06)
(8.72646e-05 8.34091e-06 -1.65494e-05)
(9.31899e-05 9.39312e-07 -2.22867e-05)